 Entering Gaussian System, Link 0=g09
 Input=/home/matheus/.tcc/Inputs/Inputs-lc-blyp-default/H2O2-Kr_11.com
 Output=/home/matheus/.tcc/Logs/Logs-lc-blyp-default/H2O2-Kr_11.log
 Initial command:
 /home/matheus/.gaussian/g09/l1.exe /home/matheus/.gaussian/g09/scratch/Gau-21205.inp -scrdir=/home/matheus/.gaussian/g09/scratch/
 Entering Link 1 = /home/matheus/.gaussian/g09/l1.exe PID=     21209.
  
 Copyright (c) 1988,1990,1992,1993,1995,1998,2003,2009,2011,
            Gaussian, Inc.  All Rights Reserved.
  
 This is part of the Gaussian(R) 09 program.  It is based on
 the Gaussian(R) 03 system (copyright 2003, Gaussian, Inc.),
 the Gaussian(R) 98 system (copyright 1998, Gaussian, Inc.),
 the Gaussian(R) 94 system (copyright 1995, Gaussian, Inc.),
 the Gaussian 92(TM) system (copyright 1992, Gaussian, Inc.),
 the Gaussian 90(TM) system (copyright 1990, Gaussian, Inc.),
 the Gaussian 88(TM) system (copyright 1988, Gaussian, Inc.),
 the Gaussian 86(TM) system (copyright 1986, Carnegie Mellon
 University), and the Gaussian 82(TM) system (copyright 1983,
 Carnegie Mellon University). Gaussian is a federally registered
 trademark of Gaussian, Inc.
  
 This software contains proprietary and confidential information,
 including trade secrets, belonging to Gaussian, Inc.
  
 This software is provided under written license and may be
 used, copied, transmitted, or stored only in accord with that
 written license.
  
 The following legend is applicable only to US Government
 contracts under FAR:
  
                    RESTRICTED RIGHTS LEGEND
  
 Use, reproduction and disclosure by the US Government is
 subject to restrictions as set forth in subparagraphs (a)
 and (c) of the Commercial Computer Software - Restricted
 Rights clause in FAR 52.227-19.
  
 Gaussian, Inc.
 340 Quinnipiac St., Bldg. 40, Wallingford CT 06492
  
  
 ---------------------------------------------------------------
 Warning -- This program may not be used in any manner that
 competes with the business of Gaussian, Inc. or will provide
 assistance to any competitor of Gaussian, Inc.  The licensee
 of this program is prohibited from giving any competitor of
 Gaussian, Inc. access to this program.  By using this program,
 the user acknowledges that Gaussian, Inc. is engaged in the
 business of creating and licensing software in the field of
 computational chemistry and represents and warrants to the
 licensee that it is not a competitor of Gaussian, Inc. and that
 it will not use this program in any manner prohibited above.
 ---------------------------------------------------------------
  

 Cite this work as:
 Gaussian 09, Revision C.01,
 M. J. Frisch, G. W. Trucks, H. B. Schlegel, G. E. Scuseria, 
 M. A. Robb, J. R. Cheeseman, G. Scalmani, V. Barone, B. Mennucci, 
 G. A. Petersson, H. Nakatsuji, M. Caricato, X. Li, H. P. Hratchian, 
 A. F. Izmaylov, J. Bloino, G. Zheng, J. L. Sonnenberg, M. Hada, 
 M. Ehara, K. Toyota, R. Fukuda, J. Hasegawa, M. Ishida, T. Nakajima, 
 Y. Honda, O. Kitao, H. Nakai, T. Vreven, J. A. Montgomery, Jr., 
 J. E. Peralta, F. Ogliaro, M. Bearpark, J. J. Heyd, E. Brothers, 
 K. N. Kudin, V. N. Staroverov, T. Keith, R. Kobayashi, J. Normand, 
 K. Raghavachari, A. Rendell, J. C. Burant, S. S. Iyengar, J. Tomasi, 
 M. Cossi, N. Rega, J. M. Millam, M. Klene, J. E. Knox, J. B. Cross, 
 V. Bakken, C. Adamo, J. Jaramillo, R. Gomperts, R. E. Stratmann, 
 O. Yazyev, A. J. Austin, R. Cammi, C. Pomelli, J. W. Ochterski, 
 R. L. Martin, K. Morokuma, V. G. Zakrzewski, G. A. Voth, 
 P. Salvador, J. J. Dannenberg, S. Dapprich, A. D. Daniels, 
 O. Farkas, J. B. Foresman, J. V. Ortiz, J. Cioslowski, 
 and D. J. Fox, Gaussian, Inc., Wallingford CT, 2010.
 
 ******************************************
 Gaussian 09:  EM64L-G09RevC.01 23-Sep-2011
                13-May-2020 
 ******************************************
 %mem=8GB
 %nproc=8
 Will use up to    8 processors via shared memory.
 --------------------------------------------------------
 #p lc-blyp/aug-cc-PVTz int=ultrafine counterpoise=2 Scan
 --------------------------------------------------------
 1/38=1,60=1,62=2/1,8;
 2/12=2,17=6,18=5,29=3,40=1/2;
 1/38=1,53=5172,62=2/22;
 3/5=16,6=1,7=10,11=2,16=1,25=1,30=1,74=1000402,75=-5/1,2,3;
 4//1;
 5/5=2,38=5/2;
 6/7=2,8=2,9=2,10=2,18=1,28=1/1;
 1/53=4052,62=2,63=1/22;
 3/5=7,6=11,7=10,11=2,16=1,25=1,30=1,74=1000402,75=-5,82=7/1,2,3;
 4//1;
 5/5=2,38=5/2;
 6/7=2,8=2,9=2,10=2,18=1,28=1/1;
 1/53=3042,62=2,63=2/22;
 3/5=7,6=11,7=10,11=2,16=1,25=1,30=1,74=1000402,75=-5,82=7/1,2,3;
 4//1;
 5/5=2,38=5/2;
 6/7=2,8=2,9=2,10=2,18=1,28=1/1;
 1/53=2032,62=2,63=3/22;
 3/5=7,6=11,7=10,11=2,16=1,25=1,30=1,74=1000402,75=-5,82=7/1,2,3;
 4//1;
 5/5=2,38=5/2;
 6/7=2,8=2,9=2,10=2,18=1,28=1/1;
 1/53=1022,62=2,63=4/22;
 3/5=7,6=11,7=10,11=2,16=1,25=1,30=1,74=1000402,75=-5,82=7/1,2,3;
 4//1;
 5/5=2,38=5/2;
 6/7=2,8=2,9=2,10=2,18=1,28=1/1;
 1/53=5014,62=2,63=5/22;
 1/60=1,62=2/8(1);
 99/9=1/99;
 2/29=3/2;
 1/53=5173,62=2/22;
 3/5=7,6=11,7=10,11=2,16=1,25=1,30=1,74=1000402,75=-5,82=7/1,2,3;
 4/5=5,16=3/1;
 5/5=2,38=5/2;
 1/53=4053,62=2,63=1/22;
 3/5=7,6=11,7=10,11=2,16=1,25=1,30=1,74=1000402,75=-5,82=7/1,2,3;
 4/5=5,16=3/1;
 5/5=2,38=5/2;
 1/53=3043,62=2,63=2/22;
 3/5=7,6=11,7=10,11=2,16=1,25=1,30=1,74=1000402,75=-5,82=7/1,2,3;
 4/5=5,16=3/1;
 5/5=2,38=5/2;
 1/53=2033,62=2,63=3/22;
 3/5=7,6=11,7=10,11=2,16=1,25=1,30=1,74=1000402,75=-5,82=7/1,2,3;
 4/5=5,16=3/1;
 5/5=2,38=5/2;
 1/53=1024,62=2,63=4/22;
 3/5=7,6=11,7=10,11=2,16=1,25=1,30=1,74=1000402,75=-5,82=7/1,2,3;
 4/5=5,16=3/1;
 5/5=2,38=5/2;
 1/53=5014,62=2,63=5/22;
 1/60=1,62=2/8(-22);
 99/9=1/99;
 Leave Link    1 at Wed May 13 15:19:44 2020, MaxMem= 1073741824 cpu:       0.1
 (Enter /home/matheus/.gaussian/g09/l101.exe)
 ---
 TCC
 ---
 Charge =  0 Multiplicity = 1 in supermolecule
 Charge =  0 Multiplicity = 1 in fragment  1.
 Charge =  0 Multiplicity = 1 in fragment  2.
 Symbolic Z-Matrix:
 O(Fragment=1)         0.        0.        0.725 
 O(Fragment=1)         0.        0.       -0.725 
 H(Fragment=1)         0.86331  -0.31422   1.02351 
 H(Fragment=1)         0.        0.91872  -1.02351 
 Kr(Fragment=2)        0.       R1        0. 
       Variables:
  R1                    3.     Scan 20    0.1    
 
 NAtoms=      5 NQM=        0 NQMF=       0 NMMI=      5 NMMIF=      0
                NMic=       0 NMicF=      0.
                    Isotopes and Nuclear Properties:
 (Nuclear quadrupole moments (NQMom) in fm**2, nuclear magnetic moments (NMagM)
  in nuclear magnetons)

  Atom         1           2           3           4           5
 IAtWgt=          16          16           1           1          84
 AtmWgt=  15.9949146  15.9949146   1.0078250   1.0078250  83.9115064
 NucSpn=           0           0           1           1           0
 AtZEff=   0.0000000   0.0000000   0.0000000   0.0000000   0.0000000
 NQMom=    0.0000000   0.0000000   0.0000000   0.0000000   0.0000000
 NMagM=    0.0000000   0.0000000   2.7928460   2.7928460   0.0000000
 Leave Link  101 at Wed May 13 15:19:44 2020, MaxMem= 1073741824 cpu:       0.3
 (Enter /home/matheus/.gaussian/g09/l108.exe)
 Scan the potential surface.
 Variable   Value     No. Steps Step-Size
 -------- ----------- --------- ---------
     1       3.000000      20      0.1000
 A total of     21 points will be computed.
 Leave Link  108 at Wed May 13 15:19:44 2020, MaxMem= 1073741824 cpu:       0.0
 (Enter /home/matheus/.gaussian/g09/l202.exe)
 ---------------------------------------------------------------------------------------------------
                            Z-MATRIX (ANGSTROMS AND DEGREES)
   CD    Cent   Atom    N1       Length/X        N2       Alpha/Y        N3        Beta/Z          J
 ---------------------------------------------------------------------------------------------------
      1      1  O        0   0.000000          0.000000          0.725000
      2      2  O        0   0.000000          0.000000         -0.725000
      3      3  H        0   0.863315         -0.314221          1.023510
      4      4  H        0   0.000000          0.918721         -1.023510
      5      5  Kr       0   0.000000          3.000000          0.000000
 ---------------------------------------------------------------------------------------------------
                         Z-Matrix orientation:                         
 ---------------------------------------------------------------------
 Center     Atomic      Atomic             Coordinates (Angstroms)
 Number     Number       Type             X           Y           Z
 ---------------------------------------------------------------------
      1          8           0        0.000000    0.000000    0.725000
      2          8           0        0.000000    0.000000   -0.725000
      3          1           0        0.863315   -0.314221    1.023510
      4          1           0        0.000000    0.918721   -1.023510
      5         36           0        0.000000    3.000000    0.000000
 ---------------------------------------------------------------------
                    Distance matrix (angstroms):
                    1          2          3          4          5
     1  O    0.000000
     2  O    1.450000   0.000000
     3  H    0.966000   1.975180   0.000000
     4  H    1.975180   0.966000   2.540817   0.000000
     5  Kr   3.086361   3.086361   3.574486   2.319331   0.000000
 Stoichiometry    H2KrO2
 Framework group  C1[X(H2KrO2)]
 Deg. of freedom     9
 Full point group                 C1      NOp   1
 Largest Abelian subgroup         C1      NOp   1
 Largest concise Abelian subgroup C1      NOp   1
                         Standard orientation:                         
 ---------------------------------------------------------------------
 Center     Atomic      Atomic             Coordinates (Angstroms)
 Number     Number       Type             X           Y           Z
 ---------------------------------------------------------------------
      1          8           0        2.019994   -0.690833   -0.114713
      2          8           0        2.000697    0.753572    0.011068
      3          1           0        2.354569   -1.058170    0.713707
      4          1           0        1.078253    1.037233    0.053361
      5         36           0       -0.988843   -0.013360    0.001725
 ---------------------------------------------------------------------
 Rotational constants (GHZ):     25.7302436      2.3305908      2.1494082
 Leave Link  202 at Wed May 13 15:19:44 2020, MaxMem= 1073741824 cpu:       0.0
 (Enter /home/matheus/.gaussian/g09/l122.exe)
 Leave Link  122 at Wed May 13 15:19:44 2020, MaxMem= 1073741824 cpu:       0.0
 (Enter /home/matheus/.gaussian/g09/l301.exe)
 Standard basis: Aug-CC-pVTZ (5D, 7F)
 Ernie: Thresh=  0.10000D-02 Tol=  0.10000D-05 Strict=F.
 Ernie:  38 primitive shells out of 205 were deleted.
 There are   197 symmetry adapted basis functions of A   symmetry.
 Integral buffers will be    131072 words long.
 Raffenetti 2 integral format.
 Two-electron integral symmetry is turned on.
   197 basis functions,   415 primitive gaussians,   229 cartesian basis functions
    27 alpha electrons       27 beta electrons
       nuclear repulsion energy       148.9188377957 Hartrees.
 IExCor=10402 DFT=T Ex=LC-B+HF Corr=LYP ExCW=0 ScaHFX=  1.000000
 ScaDFX=  1.000000  1.000000  1.000000  1.000000 ScalE2=  1.000000  1.000000
 IRadAn=      5 IRanWt=     -1 IRanGd=            0 ICorTp=0
  HFx wShort=  0.000000 wLong=  0.470000 cFull=  0.000000 cShort=  0.000000 cLong=  1.000000
  DFx wShort=  0.000000 wLong=  0.470000 cFull=  0.000000 cShort=  0.000000 cLong=  1.000000
 NAtoms=    5 NActive=    5 NUniq=    5 SFac= 1.00D+00 NAtFMM=   60 NAOKFM=F Big=F
 Leave Link  301 at Wed May 13 15:19:44 2020, MaxMem= 1073741824 cpu:       0.2
 (Enter /home/matheus/.gaussian/g09/l302.exe)
 NPDir=0 NMtPBC=     1 NCelOv=     1 NCel=       1 NClECP=     1 NCelD=      1
         NCelK=      1 NCelE2=     1 NClLst=     1 CellRange=     0.0.
 One-electron integrals computed using PRISM.
 NBasis=   197 RedAO= T  NBF=   197
 NBsUse=   197 1.00D-06 NBFU=   197
 Precomputing XC quadrature grid using
 IXCGrd= 2 IRadAn=           5 IRanWt=          -1 IRanGd=           0 AccXCQ= 0.00D+00.
 NRdTot=     427 NPtTot=      123512 NUsed=      126579 NTot=      126611
 NSgBfM=   229   229   229   229   229 NAtAll=     5     5.
 Leave Link  302 at Wed May 13 15:19:44 2020, MaxMem= 1073741824 cpu:       1.0
 (Enter /home/matheus/.gaussian/g09/l303.exe)
 DipDrv:  MaxL=1.
 Leave Link  303 at Wed May 13 15:19:44 2020, MaxMem= 1073741824 cpu:       0.2
 (Enter /home/matheus/.gaussian/g09/l401.exe)
 Harris functional with IExCor=10402 diagonalized for initial guess.
 ExpMin= 2.53D-02 ExpMax= 1.17D+07 ExpMxC= 1.33D+04 IAcc=3 IRadAn=         5 AccDes= 0.00D+00
 HarFok:  IExCor=10402 AccDes= 0.00D+00 IRadAn=         5 IDoV= 1
 ScaDFX=  1.000000  1.000000  1.000000  1.000000
 FoFCou: FMM=F IPFlag=           0 FMFlag=      100000 FMFlg1=           0
         NFxFlg=           0 DoJE=T BraDBF=F KetDBF=T FulRan=T
         Omega=  0.000000  0.000000  1.000000  0.000000  0.000000 ICntrl=     500 IOpCl=  0
         NMat0=    1 NMatS0=    1 NMatT0=    0 NMatD0=    1 NMtDS0=    0 NMtDT0=    0
         I1Cent=           4 NGrid=           0.
 Petite list used in FoFCou.
 Harris En= -2891.67186472582    
 Initial guess orbital symmetries:
       Occupied  (A) (A) (A) (A) (A) (A) (A) (A) (A) (A) (A) (A)
                 (A) (A) (A) (A) (A) (A) (A) (A) (A) (A) (A) (A)
                 (A) (A) (A)
       Virtual   (A) (A) (A) (A) (A) (A) (A) (A) (A) (A) (A) (A)
                 (A) (A) (A) (A) (A) (A) (A) (A) (A) (A) (A) (A)
                 (A) (A) (A) (A) (A) (A) (A) (A) (A) (A) (A) (A)
                 (A) (A) (A) (A) (A) (A) (A) (A) (A) (A) (A) (A)
                 (A) (A) (A) (A) (A) (A) (A) (A) (A) (A) (A) (A)
                 (A) (A) (A) (A) (A) (A) (A) (A) (A) (A) (A) (A)
                 (A) (A) (A) (A) (A) (A) (A) (A) (A) (A) (A) (A)
                 (A) (A) (A) (A) (A) (A) (A) (A) (A) (A) (A) (A)
                 (A) (A) (A) (A) (A) (A) (A) (A) (A) (A) (A) (A)
                 (A) (A) (A) (A) (A) (A) (A) (A) (A) (A) (A) (A)
                 (A) (A) (A) (A) (A) (A) (A) (A) (A) (A) (A) (A)
                 (A) (A) (A) (A) (A) (A) (A) (A) (A) (A) (A) (A)
                 (A) (A) (A) (A) (A) (A) (A) (A) (A) (A) (A) (A)
                 (A) (A) (A) (A) (A) (A) (A) (A) (A) (A) (A) (A)
                 (A) (A)
 The electronic state of the initial guess is 1-A.
 Leave Link  401 at Wed May 13 15:19:45 2020, MaxMem= 1073741824 cpu:       4.5
 (Enter /home/matheus/.gaussian/g09/l502.exe)
 Closed shell SCF:
 Requested convergence on RMS density matrix=1.00D-08 within 128 cycles.
 Requested convergence on MAX density matrix=1.00D-06.
 Requested convergence on             energy=1.00D-06.
 No special actions if energy rises.
 Using DIIS extrapolation, IDIIS=  1040.
 Integral symmetry usage will be decided dynamically.
       126521 words used for storage of precomputed grid.
 IEnd=      305468 IEndB=      305468 NGot=  1073741824 MDV=  1073505667
 LenX=  1073505667 LenY=  1073452785
 Fock matrices will be formed incrementally for  20 cycles.

 Cycle   1  Pass 1  IDiag  1:
 FoFJK:  IHMeth= 1 ICntrl=     0 DoSepK=T KAlg= 1 I1Cent= 0 FoldK=F
 FoFCou: FMM=F IPFlag=           0 FMFlag=      100000 FMFlg1=           0
         NFxFlg=           0 DoJE=T BraDBF=F KetDBF=F FulRan=T
         Omega=  0.000000  0.000000  1.000000  0.000000  0.000000 ICntrl=     500 IOpCl=  0
         NMat0=    1 NMatS0=    1 NMatT0=    0 NMatD0=    1 NMtDS0=    0 NMtDT0=    0
         I1Cent=           0 NGrid=           0.
 Symmetry not used in FoFCou.
 E= -2904.63636946529    
 DIIS: error= 2.51D-02 at cycle   1 NSaved=   1.
 NSaved= 1 IEnMin= 1 EnMin= -2904.63636946529     IErMin= 1 ErrMin= 2.51D-02
 ErrMax= 2.51D-02 EMaxC= 1.00D-01 BMatC= 2.83D-01 BMatP= 2.83D-01
 IDIUse=3 WtCom= 7.49D-01 WtEn= 2.51D-01
 Coeff-Com:  0.100D+01
 Coeff-En:   0.100D+01
 Coeff:      0.100D+01
 Gap=     0.492 Goal=   None    Shift=    0.000
 GapD=    0.492 DampG=2.000 DampE=0.500 DampFc=1.0000 IDamp=-1.
 RMSDP=2.65D-03 MaxDP=1.52D-01              OVMax= 1.06D-01

 Cycle   2  Pass 1  IDiag  1:
 RMSU=  1.83D-03    CP:  1.02D+00
 FoFJK:  IHMeth= 1 ICntrl=     0 DoSepK=T KAlg= 1 I1Cent= 0 FoldK=F
 E= -2904.71130154931     Delta-E=       -0.074932084014 Rises=F Damp=F
 DIIS: error= 1.27D-02 at cycle   2 NSaved=   2.
 NSaved= 2 IEnMin= 2 EnMin= -2904.71130154931     IErMin= 2 ErrMin= 1.27D-02
 ErrMax= 1.27D-02 EMaxC= 1.00D-01 BMatC= 9.29D-02 BMatP= 2.83D-01
 IDIUse=3 WtCom= 8.73D-01 WtEn= 1.27D-01
 Coeff-Com:  0.359D+00 0.641D+00
 Coeff-En:   0.358D-01 0.964D+00
 Coeff:      0.318D+00 0.682D+00
 Gap=     0.457 Goal=   None    Shift=    0.000
 RMSDP=1.01D-03 MaxDP=6.19D-02 DE=-7.49D-02 OVMax= 3.15D-02

 Cycle   3  Pass 1  IDiag  1:
 RMSU=  3.22D-04    CP:  1.01D+00  6.59D-01
 FoFJK:  IHMeth= 1 ICntrl=     0 DoSepK=T KAlg= 1 I1Cent= 0 FoldK=F
 E= -2904.74208350627     Delta-E=       -0.030781956962 Rises=F Damp=F
 DIIS: error= 1.50D-03 at cycle   3 NSaved=   3.
 NSaved= 3 IEnMin= 3 EnMin= -2904.74208350627     IErMin= 3 ErrMin= 1.50D-03
 ErrMax= 1.50D-03 EMaxC= 1.00D-01 BMatC= 1.14D-03 BMatP= 9.29D-02
 IDIUse=3 WtCom= 9.85D-01 WtEn= 1.50D-02
 Coeff-Com:  0.779D-02 0.102D+00 0.890D+00
 Coeff-En:   0.000D+00 0.000D+00 0.100D+01
 Coeff:      0.767D-02 0.100D+00 0.892D+00
 Gap=     0.463 Goal=   None    Shift=    0.000
 RMSDP=1.50D-04 MaxDP=5.87D-03 DE=-3.08D-02 OVMax= 7.02D-03

 Cycle   4  Pass 1  IDiag  1:
 RMSU=  6.72D-05    CP:  1.02D+00  7.00D-01  1.10D+00
 FoFJK:  IHMeth= 1 ICntrl=     0 DoSepK=T KAlg= 1 I1Cent= 0 FoldK=F
 E= -2904.74258439606     Delta-E=       -0.000500889794 Rises=F Damp=F
 DIIS: error= 5.67D-04 at cycle   4 NSaved=   4.
 NSaved= 4 IEnMin= 4 EnMin= -2904.74258439606     IErMin= 4 ErrMin= 5.67D-04
 ErrMax= 5.67D-04 EMaxC= 1.00D-01 BMatC= 9.11D-05 BMatP= 1.14D-03
 IDIUse=3 WtCom= 9.94D-01 WtEn= 5.67D-03
 Coeff-Com: -0.122D-01 0.118D-01 0.323D+00 0.677D+00
 Coeff-En:   0.000D+00 0.000D+00 0.000D+00 0.100D+01
 Coeff:     -0.121D-01 0.117D-01 0.321D+00 0.679D+00
 Gap=     0.459 Goal=   None    Shift=    0.000
 RMSDP=3.78D-05 MaxDP=1.47D-03 DE=-5.01D-04 OVMax= 2.04D-03

 Cycle   5  Pass 1  IDiag  1:
 RMSU=  2.08D-05    CP:  1.02D+00  7.03D-01  1.15D+00  9.66D-01
 FoFJK:  IHMeth= 1 ICntrl=     0 DoSepK=T KAlg= 1 I1Cent= 0 FoldK=F
 E= -2904.74264389780     Delta-E=       -0.000059501741 Rises=F Damp=F
 DIIS: error= 1.55D-04 at cycle   5 NSaved=   5.
 NSaved= 5 IEnMin= 5 EnMin= -2904.74264389780     IErMin= 5 ErrMin= 1.55D-04
 ErrMax= 1.55D-04 EMaxC= 1.00D-01 BMatC= 8.42D-06 BMatP= 9.11D-05
 IDIUse=3 WtCom= 9.98D-01 WtEn= 1.55D-03
 Coeff-Com: -0.390D-02-0.675D-02-0.606D-02 0.209D+00 0.808D+00
 Coeff-En:   0.000D+00 0.000D+00 0.000D+00 0.000D+00 0.100D+01
 Coeff:     -0.390D-02-0.674D-02-0.605D-02 0.208D+00 0.808D+00
 Gap=     0.459 Goal=   None    Shift=    0.000
 RMSDP=1.58D-05 MaxDP=5.09D-04 DE=-5.95D-05 OVMax= 9.57D-04

 Cycle   6  Pass 1  IDiag  1:
 RMSU=  6.41D-06    CP:  1.02D+00  7.04D-01  1.17D+00  1.06D+00  1.02D+00
 FoFJK:  IHMeth= 1 ICntrl=     0 DoSepK=T KAlg= 1 I1Cent= 0 FoldK=F
 E= -2904.74265094372     Delta-E=       -0.000007045917 Rises=F Damp=F
 DIIS: error= 6.65D-05 at cycle   6 NSaved=   6.
 NSaved= 6 IEnMin= 6 EnMin= -2904.74265094372     IErMin= 6 ErrMin= 6.65D-05
 ErrMax= 6.65D-05 EMaxC= 1.00D-01 BMatC= 1.72D-06 BMatP= 8.42D-06
 IDIUse=1 WtCom= 1.00D+00 WtEn= 0.00D+00
 Coeff-Com: -0.626D-03-0.403D-02-0.282D-01 0.308D-01 0.355D+00 0.647D+00
 Coeff:     -0.626D-03-0.403D-02-0.282D-01 0.308D-01 0.355D+00 0.647D+00
 Gap=     0.459 Goal=   None    Shift=    0.000
 RMSDP=5.43D-06 MaxDP=1.89D-04 DE=-7.05D-06 OVMax= 3.59D-04

 Cycle   7  Pass 1  IDiag  1:
 RMSU=  2.41D-06    CP:  1.02D+00  7.04D-01  1.18D+00  1.08D+00  1.11D+00
                    CP:  9.43D-01
 FoFJK:  IHMeth= 1 ICntrl=     0 DoSepK=T KAlg= 1 I1Cent= 0 FoldK=F
 E= -2904.74265216280     Delta-E=       -0.000001219084 Rises=F Damp=F
 DIIS: error= 2.15D-05 at cycle   7 NSaved=   7.
 NSaved= 7 IEnMin= 7 EnMin= -2904.74265216280     IErMin= 7 ErrMin= 2.15D-05
 ErrMax= 2.15D-05 EMaxC= 1.00D-01 BMatC= 1.71D-07 BMatP= 1.72D-06
 IDIUse=1 WtCom= 1.00D+00 WtEn= 0.00D+00
 Coeff-Com:  0.164D-03-0.103D-02-0.981D-02-0.200D-01 0.710D-02 0.244D+00
 Coeff-Com:  0.780D+00
 Coeff:      0.164D-03-0.103D-02-0.981D-02-0.200D-01 0.710D-02 0.244D+00
 Coeff:      0.780D+00
 Gap=     0.459 Goal=   None    Shift=    0.000
 RMSDP=2.12D-06 MaxDP=6.09D-05 DE=-1.22D-06 OVMax= 1.31D-04

 Cycle   8  Pass 1  IDiag  1:
 RMSU=  6.47D-07    CP:  1.02D+00  7.04D-01  1.18D+00  1.09D+00  1.14D+00
                    CP:  1.06D+00  9.76D-01
 FoFJK:  IHMeth= 1 ICntrl=     0 DoSepK=T KAlg= 1 I1Cent= 0 FoldK=F
 E= -2904.74265232419     Delta-E=       -0.000000161388 Rises=F Damp=F
 DIIS: error= 3.74D-06 at cycle   8 NSaved=   8.
 NSaved= 8 IEnMin= 8 EnMin= -2904.74265232419     IErMin= 8 ErrMin= 3.74D-06
 ErrMax= 3.74D-06 EMaxC= 1.00D-01 BMatC= 2.99D-09 BMatP= 1.71D-07
 IDIUse=1 WtCom= 1.00D+00 WtEn= 0.00D+00
 Coeff-Com:  0.122D-04 0.324D-03 0.264D-02 0.660D-03-0.220D-01-0.633D-01
 Coeff-Com: -0.817D-01 0.116D+01
 Coeff:      0.122D-04 0.324D-03 0.264D-02 0.660D-03-0.220D-01-0.633D-01
 Coeff:     -0.817D-01 0.116D+01
 Gap=     0.459 Goal=   None    Shift=    0.000
 RMSDP=5.91D-07 MaxDP=1.79D-05 DE=-1.61D-07 OVMax= 6.02D-05

 Cycle   9  Pass 1  IDiag  1:
 RMSU=  1.55D-07    CP:  1.02D+00  7.04D-01  1.18D+00  1.10D+00  1.14D+00
                    CP:  1.09D+00  1.05D+00  1.37D+00
 FoFJK:  IHMeth= 1 ICntrl=     0 DoSepK=T KAlg= 1 I1Cent= 0 FoldK=F
 E= -2904.74265233376     Delta-E=       -0.000000009569 Rises=F Damp=F
 DIIS: error= 8.14D-07 at cycle   9 NSaved=   9.
 NSaved= 9 IEnMin= 9 EnMin= -2904.74265233376     IErMin= 9 ErrMin= 8.14D-07
 ErrMax= 8.14D-07 EMaxC= 1.00D-01 BMatC= 2.03D-10 BMatP= 2.99D-09
 IDIUse=1 WtCom= 1.00D+00 WtEn= 0.00D+00
 Coeff-Com: -0.286D-05 0.112D-03 0.743D-03 0.126D-02-0.143D-02-0.182D-01
 Coeff-Com: -0.532D-01 0.627D-01 0.101D+01
 Coeff:     -0.286D-05 0.112D-03 0.743D-03 0.126D-02-0.143D-02-0.182D-01
 Coeff:     -0.532D-01 0.627D-01 0.101D+01
 Gap=     0.459 Goal=   None    Shift=    0.000
 RMSDP=1.32D-07 MaxDP=4.77D-06 DE=-9.57D-09 OVMax= 1.36D-05

 Cycle  10  Pass 1  IDiag  1:
 RMSU=  4.67D-08    CP:  1.02D+00  7.04D-01  1.18D+00  1.10D+00  1.14D+00
                    CP:  1.09D+00  1.06D+00  1.45D+00  1.27D+00
 FoFJK:  IHMeth= 1 ICntrl=     0 DoSepK=T KAlg= 1 I1Cent= 0 FoldK=F
 E= -2904.74265233432     Delta-E=       -0.000000000559 Rises=F Damp=F
 DIIS: error= 2.28D-07 at cycle  10 NSaved=  10.
 NSaved=10 IEnMin=10 EnMin= -2904.74265233432     IErMin=10 ErrMin= 2.28D-07
 ErrMax= 2.28D-07 EMaxC= 1.00D-01 BMatC= 1.10D-11 BMatP= 2.03D-10
 IDIUse=1 WtCom= 1.00D+00 WtEn= 0.00D+00
 Coeff-Com:  0.221D-07-0.226D-04-0.183D-03-0.110D-03 0.119D-02 0.437D-02
 Coeff-Com:  0.833D-02-0.737D-01-0.205D-01 0.108D+01
 Coeff:      0.221D-07-0.226D-04-0.183D-03-0.110D-03 0.119D-02 0.437D-02
 Coeff:      0.833D-02-0.737D-01-0.205D-01 0.108D+01
 Gap=     0.459 Goal=   None    Shift=    0.000
 RMSDP=3.83D-08 MaxDP=1.08D-06 DE=-5.59D-10 OVMax= 3.64D-06

 Cycle  11  Pass 1  IDiag  1:
 RMSU=  1.08D-08    CP:  1.02D+00  7.04D-01  1.18D+00  1.10D+00  1.14D+00
                    CP:  1.09D+00  1.06D+00  1.46D+00  1.38D+00  1.26D+00
 FoFJK:  IHMeth= 1 ICntrl=     0 DoSepK=T KAlg= 1 I1Cent= 0 FoldK=F
 E= -2904.74265233437     Delta-E=       -0.000000000053 Rises=F Damp=F
 DIIS: error= 5.03D-08 at cycle  11 NSaved=  11.
 NSaved=11 IEnMin=11 EnMin= -2904.74265233437     IErMin=11 ErrMin= 5.03D-08
 ErrMax= 5.03D-08 EMaxC= 1.00D-01 BMatC= 9.06D-13 BMatP= 1.10D-11
 IDIUse=1 WtCom= 1.00D+00 WtEn= 0.00D+00
 Coeff-Com: -0.584D-07-0.109D-04-0.670D-04-0.982D-04 0.159D-03 0.161D-02
 Coeff-Com:  0.475D-02-0.967D-02-0.716D-01 0.322D-01 0.104D+01
 Coeff:     -0.584D-07-0.109D-04-0.670D-04-0.982D-04 0.159D-03 0.161D-02
 Coeff:      0.475D-02-0.967D-02-0.716D-01 0.322D-01 0.104D+01
 Gap=     0.459 Goal=   None    Shift=    0.000
 RMSDP=9.91D-09 MaxDP=2.38D-07 DE=-5.28D-11 OVMax= 1.06D-06

 SCF Done:  E(RLC-B+HF-LYP) =  -2904.74265233     A.U. after   11 cycles
             Convg  =    0.9906D-08             -V/T =  2.0017
 KE= 2.899830347851D+03 PE=-7.234151661503D+03 EE= 1.280659823522D+03
 Leave Link  502 at Wed May 13 15:20:23 2020, MaxMem= 1073741824 cpu:     304.6
 (Enter /home/matheus/.gaussian/g09/l601.exe)
 Copying SCF densities to generalized density rwf, IOpCl= 0 IROHF=0.

 **********************************************************************

            Population analysis using the SCF density.

 **********************************************************************

 Orbital symmetries:
       Occupied  (A) (A) (A) (A) (A) (A) (A) (A) (A) (A) (A) (A)
                 (A) (A) (A) (A) (A) (A) (A) (A) (A) (A) (A) (A)
                 (A) (A) (A)
       Virtual   (A) (A) (A) (A) (A) (A) (A) (A) (A) (A) (A) (A)
                 (A) (A) (A) (A) (A) (A) (A) (A) (A) (A) (A) (A)
                 (A) (A) (A) (A) (A) (A) (A) (A) (A) (A) (A) (A)
                 (A) (A) (A) (A) (A) (A) (A) (A) (A) (A) (A) (A)
                 (A) (A) (A) (A) (A) (A) (A) (A) (A) (A) (A) (A)
                 (A) (A) (A) (A) (A) (A) (A) (A) (A) (A) (A) (A)
                 (A) (A) (A) (A) (A) (A) (A) (A) (A) (A) (A) (A)
                 (A) (A) (A) (A) (A) (A) (A) (A) (A) (A) (A) (A)
                 (A) (A) (A) (A) (A) (A) (A) (A) (A) (A) (A) (A)
                 (A) (A) (A) (A) (A) (A) (A) (A) (A) (A) (A) (A)
                 (A) (A) (A) (A) (A) (A) (A) (A) (A) (A) (A) (A)
                 (A) (A) (A) (A) (A) (A) (A) (A) (A) (A) (A) (A)
                 (A) (A) (A) (A) (A) (A) (A) (A) (A) (A) (A) (A)
                 (A) (A) (A) (A) (A) (A) (A) (A) (A) (A) (A) (A)
                 (A) (A)
 The electronic state is 1-A.
 Alpha  occ. eigenvalues -- -511.25581 -66.72582 -60.41116 -60.41099 -60.41088
 Alpha  occ. eigenvalues --  -19.07323 -19.06975  -9.61739  -7.37234  -7.37186
 Alpha  occ. eigenvalues --   -7.37154  -3.33565  -3.33556  -3.33534  -3.33497
 Alpha  occ. eigenvalues --   -3.33494  -1.28324  -1.07644  -1.06249  -0.70098
 Alpha  occ. eigenvalues --   -0.64047  -0.57184  -0.52921  -0.52485  -0.51710
 Alpha  occ. eigenvalues --   -0.46048  -0.43432
 Alpha virt. eigenvalues --    0.02481   0.03513   0.07453   0.08886   0.09985
 Alpha virt. eigenvalues --    0.10547   0.12850   0.12924   0.15892   0.16653
 Alpha virt. eigenvalues --    0.17489   0.18986   0.19392   0.21162   0.22705
 Alpha virt. eigenvalues --    0.23936   0.25270   0.27897   0.30817   0.32383
 Alpha virt. eigenvalues --    0.33172   0.34425   0.35177   0.38182   0.38826
 Alpha virt. eigenvalues --    0.40169   0.42368   0.46967   0.52246   0.55048
 Alpha virt. eigenvalues --    0.55705   0.59012   0.61198   0.65339   0.68190
 Alpha virt. eigenvalues --    0.69953   0.71827   0.72906   0.75040   0.76001
 Alpha virt. eigenvalues --    0.76376   0.77517   0.78800   0.80708   0.82961
 Alpha virt. eigenvalues --    0.85081   0.85705   0.87753   0.89028   0.90260
 Alpha virt. eigenvalues --    0.92263   0.93651   0.94306   0.95629   0.99544
 Alpha virt. eigenvalues --    1.00839   1.03150   1.06192   1.06804   1.08834
 Alpha virt. eigenvalues --    1.10014   1.16013   1.17323   1.18622   1.22657
 Alpha virt. eigenvalues --    1.25093   1.29971   1.34638   1.37864   1.42125
 Alpha virt. eigenvalues --    1.44955   1.50712   1.50992   1.53648   1.59203
 Alpha virt. eigenvalues --    1.67997   1.73063   1.83286   1.90309   1.95218
 Alpha virt. eigenvalues --    1.99420   2.03009   2.10379   2.14142   2.15457
 Alpha virt. eigenvalues --    2.16047   2.18793   2.19429   2.22880   2.27060
 Alpha virt. eigenvalues --    2.28663   2.31265   2.32354   2.32837   2.36285
 Alpha virt. eigenvalues --    2.39311   2.41456   2.44378   2.45769   2.49283
 Alpha virt. eigenvalues --    2.51367   2.51680   2.55975   2.57217   2.59661
 Alpha virt. eigenvalues --    2.60784   2.63893   2.64869   2.69896   2.73201
 Alpha virt. eigenvalues --    2.74850   2.77801   2.79633   2.87853   2.88528
 Alpha virt. eigenvalues --    2.93209   3.05970   3.12101   3.15971   3.62384
 Alpha virt. eigenvalues --    3.68385   3.88913   3.94965   4.01729   4.09707
 Alpha virt. eigenvalues --    4.12932   4.20720   4.24901   4.27701   4.28862
 Alpha virt. eigenvalues --    4.39446   4.49508   4.52295   4.55622   4.68479
 Alpha virt. eigenvalues --    4.90523   4.97767   5.04081   5.15527   5.16094
 Alpha virt. eigenvalues --    5.23194   5.43706   5.84845   6.06637   6.13552
 Alpha virt. eigenvalues --    6.16758   6.32291   6.35159   6.46615   6.56857
 Alpha virt. eigenvalues --    6.58209   6.78968   6.80525   6.82033   6.83622
 Alpha virt. eigenvalues --    6.87737   6.89803   6.90376   6.99011   7.02074
 Alpha virt. eigenvalues --    7.07185   7.16556   7.25477   7.45027   7.68526
 Alpha virt. eigenvalues --    7.80982   8.08437   8.12085  13.90947  14.58688
          Condensed to atoms (all electrons):
              1          2          3          4          5
     1  O    8.214778  -0.172405   0.190109   0.001835  -0.032701
     2  O   -0.172405   8.183473   0.016733   0.212039  -0.012811
     3  H    0.190109   0.016733   0.583405   0.000867   0.002675
     4  H    0.001835   0.212039   0.000867   0.581952  -0.004043
     5  Kr  -0.032701  -0.012811   0.002675  -0.004043  36.031794
 Mulliken atomic charges:
              1
     1  O   -0.201616
     2  O   -0.227029
     3  H    0.206210
     4  H    0.207349
     5  Kr   0.015086
 Sum of Mulliken atomic charges =   0.00000
 Mulliken charges with hydrogens summed into heavy atoms:
              1
     1  O    0.004594
     2  O   -0.019680
     5  Kr   0.015086
 Sum of Mulliken charges with hydrogens summed into heavy atoms =   0.00000
          Condensed to fragments (all electrons):
     1      -0.015086
     2       0.015086
 Electronic spatial extent (au):  <R**2>=            487.8088
 Charge=              0.0000 electrons
 Dipole moment (field-independent basis, Debye):
    X=             -1.2400    Y=             -0.4154    Z=              1.4836  Tot=              1.9777
 Quadrupole moment (field-independent basis, Debye-Ang):
   XX=            -32.6959   YY=            -28.3145   ZZ=            -29.5094
   XY=             -3.0548   XZ=              3.7681   YZ=             -1.7546
 Traceless Quadrupole moment (field-independent basis, Debye-Ang):
   XX=             -2.5226   YY=              1.8588   ZZ=              0.6638
   XY=             -3.0548   XZ=              3.7681   YZ=             -1.7546
 Octapole moment (field-independent basis, Debye-Ang**2):
  XXX=            -26.6733  YYY=             -1.1294  ZZZ=              1.1609  XYY=             -4.9446
  XXY=            -10.7194  XXZ=              8.9962  XZZ=             -5.6832  YZZ=             -1.7289
  YYZ=              2.1830  XYZ=             -4.3551
 Hexadecapole moment (field-independent basis, Debye-Ang**3):
 XXXX=           -435.9427 YYYY=            -65.0256 ZZZZ=            -30.8739 XXXY=            -27.1100
 XXXZ=             22.8667 YYYX=             -5.3519 YYYZ=             -2.5056 ZZZX=              3.2856
 ZZZY=             -1.7863 XXYY=            -79.7879 XXZZ=            -72.8250 YYZZ=            -16.6211
 XXYZ=            -10.8065 YYXZ=              5.1856 ZZXY=             -3.6904
 N-N= 1.489188377957D+02 E-N=-7.234151653061D+03  KE= 2.899830347851D+03
 No NMR shielding tensors so no spin-rotation constants.
 Leave Link  601 at Wed May 13 15:20:23 2020, MaxMem= 1073741824 cpu:       0.7
 (Enter /home/matheus/.gaussian/g09/l122.exe)
 Counterpoise: doing DCBS calculation for fragment   1 NewBq=T
 Leave Link  122 at Wed May 13 15:20:23 2020, MaxMem= 1073741824 cpu:       0.0
 (Enter /home/matheus/.gaussian/g09/l301.exe)
 Basis read from rwf:  (5D, 7F)
 No pseudopotential information found on rwf file.
 There are   197 symmetry adapted basis functions of A   symmetry.
 Integral buffers will be    131072 words long.
 Raffenetti 2 integral format.
 Two-electron integral symmetry is turned on.
   197 basis functions,   415 primitive gaussians,   229 cartesian basis functions
     9 alpha electrons        9 beta electrons
       nuclear repulsion energy        36.6165119696 Hartrees.
 IExCor=10402 DFT=T Ex=LC-B+HF Corr=LYP ExCW=0 ScaHFX=  1.000000
 ScaDFX=  1.000000  1.000000  1.000000  1.000000 ScalE2=  1.000000  1.000000
 IRadAn=      5 IRanWt=     -1 IRanGd=            0 ICorTp=0
  HFx wShort=  0.000000 wLong=  0.470000 cFull=  0.000000 cShort=  0.000000 cLong=  1.000000
  DFx wShort=  0.000000 wLong=  0.470000 cFull=  0.000000 cShort=  0.000000 cLong=  1.000000
 NAtoms=    5 NActive=    5 NUniq=    5 SFac= 1.00D+00 NAtFMM=   60 NAOKFM=F Big=F
 No density basis found on file   718.
 Leave Link  301 at Wed May 13 15:20:23 2020, MaxMem= 1073741824 cpu:       0.2
 (Enter /home/matheus/.gaussian/g09/l302.exe)
 NPDir=0 NMtPBC=     1 NCelOv=     1 NCel=       1 NClECP=     1 NCelD=      1
         NCelK=      1 NCelE2=     1 NClLst=     1 CellRange=     0.0.
 One-electron integrals computed using PRISM.
 NBasis=   197 RedAO= T  NBF=   197
 NBsUse=   197 1.00D-06 NBFU=   197
 Precomputing XC quadrature grid using
 IXCGrd= 2 IRadAn=           5 IRanWt=          -1 IRanGd=           0 AccXCQ= 0.00D+00.
 NRdTot=     427 NPtTot=      123512 NUsed=      126579 NTot=      126611
 NSgBfM=   229   229   229   229   229 NAtAll=     5     5.
 Leave Link  302 at Wed May 13 15:20:23 2020, MaxMem= 1073741824 cpu:       1.0
 (Enter /home/matheus/.gaussian/g09/l303.exe)
 DipDrv:  MaxL=1.
 Leave Link  303 at Wed May 13 15:20:23 2020, MaxMem= 1073741824 cpu:       0.2
 (Enter /home/matheus/.gaussian/g09/l401.exe)
 Harris functional with IExCor=10402 diagonalized for initial guess.
 ExpMin= 2.53D-02 ExpMax= 1.17D+07 ExpMxC= 1.33D+04 IAcc=3 IRadAn=         5 AccDes= 0.00D+00
 HarFok:  IExCor=10402 AccDes= 0.00D+00 IRadAn=         5 IDoV= 1
 ScaDFX=  1.000000  1.000000  1.000000  1.000000
 FoFCou: FMM=F IPFlag=           0 FMFlag=      100000 FMFlg1=           0
         NFxFlg=           0 DoJE=T BraDBF=F KetDBF=T FulRan=T
         Omega=  0.000000  0.000000  1.000000  0.000000  0.000000 ICntrl=     500 IOpCl=  0
         NMat0=    1 NMatS0=    1 NMatT0=    0 NMatD0=    1 NMtDS0=    0 NMtDT0=    0
         I1Cent=           4 NGrid=           0.
 Petite list used in FoFCou.
 Harris En= -147.165228644527    
 Initial guess orbital symmetries:
       Occupied  (A) (A) (A) (A) (A) (A) (A) (A) (A)
       Virtual   (A) (A) (A) (A) (A) (A) (A) (A) (A) (A) (A) (A)
                 (A) (A) (A) (A) (A) (A) (A) (A) (A) (A) (A) (A)
                 (A) (A) (A) (A) (A) (A) (A) (A) (A) (A) (A) (A)
                 (A) (A) (A) (A) (A) (A) (A) (A) (A) (A) (A) (A)
                 (A) (A) (A) (A) (A) (A) (A) (A) (A) (A) (A) (A)
                 (A) (A) (A) (A) (A) (A) (A) (A) (A) (A) (A) (A)
                 (A) (A) (A) (A) (A) (A) (A) (A) (A) (A) (A) (A)
                 (A) (A) (A) (A) (A) (A) (A) (A) (A) (A) (A) (A)
                 (A) (A) (A) (A) (A) (A) (A) (A) (A) (A) (A) (A)
                 (A) (A) (A) (A) (A) (A) (A) (A) (A) (A) (A) (A)
                 (A) (A) (A) (A) (A) (A) (A) (A) (A) (A) (A) (A)
                 (A) (A) (A) (A) (A) (A) (A) (A) (A) (A) (A) (A)
                 (A) (A) (A) (A) (A) (A) (A) (A) (A) (A) (A) (A)
                 (A) (A) (A) (A) (A) (A) (A) (A) (A) (A) (A) (A)
                 (A) (A) (A) (A) (A) (A) (A) (A) (A) (A) (A) (A)
                 (A) (A) (A) (A) (A) (A) (A) (A)
 The electronic state of the initial guess is 1-A.
 Leave Link  401 at Wed May 13 15:20:24 2020, MaxMem= 1073741824 cpu:       4.5
 (Enter /home/matheus/.gaussian/g09/l502.exe)
 Closed shell SCF:
 Requested convergence on RMS density matrix=1.00D-08 within 128 cycles.
 Requested convergence on MAX density matrix=1.00D-06.
 Requested convergence on             energy=1.00D-06.
 No special actions if energy rises.
 Using DIIS extrapolation, IDIIS=  1040.
 Integral symmetry usage will be decided dynamically.
       126521 words used for storage of precomputed grid.
 IEnd=      305468 IEndB=      305468 NGot=  1073741824 MDV=  1073505667
 LenX=  1073505667 LenY=  1073452785
 Fock matrices will be formed incrementally for  20 cycles.

 Cycle   1  Pass 1  IDiag  1:
 FoFJK:  IHMeth= 1 ICntrl=     0 DoSepK=T KAlg= 1 I1Cent= 0 FoldK=F
 FoFCou: FMM=F IPFlag=           0 FMFlag=      100000 FMFlg1=           0
         NFxFlg=           0 DoJE=T BraDBF=F KetDBF=F FulRan=T
         Omega=  0.000000  0.000000  1.000000  0.000000  0.000000 ICntrl=     500 IOpCl=  0
         NMat0=    1 NMatS0=    1 NMatT0=    0 NMatD0=    1 NMtDS0=    0 NMtDT0=    0
         I1Cent=           0 NGrid=           0.
 Symmetry not used in FoFCou.
 E= -151.305192735683    
 DIIS: error= 8.69D-03 at cycle   1 NSaved=   1.
 NSaved= 1 IEnMin= 1 EnMin= -151.305192735683     IErMin= 1 ErrMin= 8.69D-03
 ErrMax= 8.69D-03 EMaxC= 1.00D-01 BMatC= 2.18D-02 BMatP= 2.18D-02
 IDIUse=3 WtCom= 9.13D-01 WtEn= 8.69D-02
 Coeff-Com:  0.100D+01
 Coeff-En:   0.100D+01
 Coeff:      0.100D+01
 Gap=     0.490 Goal=   None    Shift=    0.000
 GapD=    0.490 DampG=2.000 DampE=1.000 DampFc=2.0000 IDamp=-1.
 RMSDP=8.38D-04 MaxDP=2.74D-02              OVMax= 5.29D-02

 Cycle   2  Pass 1  IDiag  1:
 RMSU=  5.92D-04    CP:  1.00D+00
 FoFJK:  IHMeth= 1 ICntrl=     0 DoSepK=T KAlg= 1 I1Cent= 0 FoldK=F
 E= -151.323418016420     Delta-E=       -0.018225280736 Rises=F Damp=F
 DIIS: error= 4.00D-03 at cycle   2 NSaved=   2.
 NSaved= 2 IEnMin= 2 EnMin= -151.323418016420     IErMin= 2 ErrMin= 4.00D-03
 ErrMax= 4.00D-03 EMaxC= 1.00D-01 BMatC= 5.09D-03 BMatP= 2.18D-02
 IDIUse=3 WtCom= 9.60D-01 WtEn= 4.00D-02
 Coeff-Com:  0.279D+00 0.721D+00
 Coeff-En:   0.000D+00 0.100D+01
 Coeff:      0.267D+00 0.733D+00
 Gap=     0.451 Goal=   None    Shift=    0.000
 RMSDP=2.18D-04 MaxDP=6.53D-03 DE=-1.82D-02 OVMax= 1.46D-02

 Cycle   3  Pass 1  IDiag  1:
 RMSU=  1.54D-04    CP:  1.00D+00  1.00D+00
 FoFJK:  IHMeth= 1 ICntrl=     0 DoSepK=T KAlg= 1 I1Cent= 0 FoldK=F
 E= -151.326311150325     Delta-E=       -0.002893133905 Rises=F Damp=F
 DIIS: error= 1.80D-03 at cycle   3 NSaved=   3.
 NSaved= 3 IEnMin= 3 EnMin= -151.326311150325     IErMin= 3 ErrMin= 1.80D-03
 ErrMax= 1.80D-03 EMaxC= 1.00D-01 BMatC= 5.64D-04 BMatP= 5.09D-03
 IDIUse=3 WtCom= 9.82D-01 WtEn= 1.80D-02
 Coeff-Com:  0.174D-01 0.236D+00 0.747D+00
 Coeff-En:   0.000D+00 0.000D+00 0.100D+01
 Coeff:      0.171D-01 0.232D+00 0.751D+00
 Gap=     0.460 Goal=   None    Shift=    0.000
 RMSDP=1.02D-04 MaxDP=3.52D-03 DE=-2.89D-03 OVMax= 7.21D-03

 Cycle   4  Pass 1  IDiag  1:
 RMSU=  5.08D-05    CP:  1.00D+00  1.09D+00  9.55D-01
 FoFJK:  IHMeth= 1 ICntrl=     0 DoSepK=T KAlg= 1 I1Cent= 0 FoldK=F
 E= -151.326744734098     Delta-E=       -0.000433583773 Rises=F Damp=F
 DIIS: error= 2.92D-04 at cycle   4 NSaved=   4.
 NSaved= 4 IEnMin= 4 EnMin= -151.326744734098     IErMin= 4 ErrMin= 2.92D-04
 ErrMax= 2.92D-04 EMaxC= 1.00D-01 BMatC= 3.10D-05 BMatP= 5.64D-04
 IDIUse=3 WtCom= 9.97D-01 WtEn= 2.92D-03
 Coeff-Com: -0.215D-01-0.337D-01 0.128D+00 0.928D+00
 Coeff-En:   0.000D+00 0.000D+00 0.000D+00 0.100D+01
 Coeff:     -0.214D-01-0.336D-01 0.127D+00 0.928D+00
 Gap=     0.458 Goal=   None    Shift=    0.000
 RMSDP=3.87D-05 MaxDP=1.47D-03 DE=-4.34D-04 OVMax= 1.96D-03

 Cycle   5  Pass 1  IDiag  1:
 RMSU=  9.73D-06    CP:  1.00D+00  1.11D+00  1.08D+00  1.15D+00
 FoFJK:  IHMeth= 1 ICntrl=     0 DoSepK=T KAlg= 1 I1Cent= 0 FoldK=F
 E= -151.326777177364     Delta-E=       -0.000032443266 Rises=F Damp=F
 DIIS: error= 4.46D-05 at cycle   5 NSaved=   5.
 NSaved= 5 IEnMin= 5 EnMin= -151.326777177364     IErMin= 5 ErrMin= 4.46D-05
 ErrMax= 4.46D-05 EMaxC= 1.00D-01 BMatC= 4.31D-07 BMatP= 3.10D-05
 IDIUse=1 WtCom= 1.00D+00 WtEn= 0.00D+00
 Coeff-Com:  0.771D-03-0.482D-02-0.357D-01-0.703D-01 0.111D+01
 Coeff:      0.771D-03-0.482D-02-0.357D-01-0.703D-01 0.111D+01
 Gap=     0.458 Goal=   None    Shift=    0.000
 RMSDP=9.67D-06 MaxDP=3.80D-04 DE=-3.24D-05 OVMax= 6.68D-04

 Cycle   6  Pass 1  IDiag  1:
 RMSU=  2.01D-06    CP:  1.00D+00  1.12D+00  1.10D+00  1.24D+00  1.28D+00
 FoFJK:  IHMeth= 1 ICntrl=     0 DoSepK=T KAlg= 1 I1Cent= 0 FoldK=F
 E= -151.326778594420     Delta-E=       -0.000001417056 Rises=F Damp=F
 DIIS: error= 1.18D-05 at cycle   6 NSaved=   6.
 NSaved= 6 IEnMin= 6 EnMin= -151.326778594420     IErMin= 6 ErrMin= 1.18D-05
 ErrMax= 1.18D-05 EMaxC= 1.00D-01 BMatC= 2.39D-08 BMatP= 4.31D-07
 IDIUse=1 WtCom= 1.00D+00 WtEn= 0.00D+00
 Coeff-Com:  0.387D-03 0.814D-03-0.233D-02-0.193D-01-0.481D-01 0.107D+01
 Coeff:      0.387D-03 0.814D-03-0.233D-02-0.193D-01-0.481D-01 0.107D+01
 Gap=     0.458 Goal=   None    Shift=    0.000
 RMSDP=1.56D-06 MaxDP=4.24D-05 DE=-1.42D-06 OVMax= 1.44D-04

 Cycle   7  Pass 1  IDiag  1:
 RMSU=  3.88D-07    CP:  1.00D+00  1.12D+00  1.10D+00  1.25D+00  1.33D+00
                    CP:  1.32D+00
 FoFJK:  IHMeth= 1 ICntrl=     0 DoSepK=T KAlg= 1 I1Cent= 0 FoldK=F
 E= -151.326778668440     Delta-E=       -0.000000074020 Rises=F Damp=F
 DIIS: error= 2.67D-06 at cycle   7 NSaved=   7.
 NSaved= 7 IEnMin= 7 EnMin= -151.326778668440     IErMin= 7 ErrMin= 2.67D-06
 ErrMax= 2.67D-06 EMaxC= 1.00D-01 BMatC= 1.85D-09 BMatP= 2.39D-08
 IDIUse=1 WtCom= 1.00D+00 WtEn= 0.00D+00
 Coeff-Com:  0.625D-05 0.374D-03 0.192D-02 0.299D-02-0.715D-01-0.137D-01
 Coeff-Com:  0.108D+01
 Coeff:      0.625D-05 0.374D-03 0.192D-02 0.299D-02-0.715D-01-0.137D-01
 Coeff:      0.108D+01
 Gap=     0.458 Goal=   None    Shift=    0.000
 RMSDP=4.18D-07 MaxDP=1.40D-05 DE=-7.40D-08 OVMax= 4.98D-05

 Cycle   8  Pass 1  IDiag  1:
 RMSU=  1.52D-07    CP:  1.00D+00  1.12D+00  1.10D+00  1.25D+00  1.33D+00
                    CP:  1.41D+00  1.32D+00
 FoFJK:  IHMeth= 1 ICntrl=     0 DoSepK=T KAlg= 1 I1Cent= 0 FoldK=F
 E= -151.326778674659     Delta-E=       -0.000000006219 Rises=F Damp=F
 DIIS: error= 1.31D-06 at cycle   8 NSaved=   8.
 NSaved= 8 IEnMin= 8 EnMin= -151.326778674659     IErMin= 8 ErrMin= 1.31D-06
 ErrMax= 1.31D-06 EMaxC= 1.00D-01 BMatC= 5.05D-10 BMatP= 1.85D-09
 IDIUse=1 WtCom= 1.00D+00 WtEn= 0.00D+00
 Coeff-Com: -0.946D-05 0.139D-03 0.828D-03 0.182D-02-0.262D-01-0.498D-01
 Coeff-Com:  0.435D+00 0.638D+00
 Coeff:     -0.946D-05 0.139D-03 0.828D-03 0.182D-02-0.262D-01-0.498D-01
 Coeff:      0.435D+00 0.638D+00
 Gap=     0.458 Goal=   None    Shift=    0.000
 RMSDP=8.92D-08 MaxDP=2.82D-06 DE=-6.22D-09 OVMax= 8.30D-06

 Cycle   9  Pass 1  IDiag  1:
 RMSU=  4.88D-08    CP:  1.00D+00  1.12D+00  1.10D+00  1.25D+00  1.33D+00
                    CP:  1.42D+00  1.41D+00  1.07D+00
 FoFJK:  IHMeth= 1 ICntrl=     0 DoSepK=T KAlg= 1 I1Cent= 0 FoldK=F
 E= -151.326778675096     Delta-E=       -0.000000000437 Rises=F Damp=F
 DIIS: error= 5.16D-07 at cycle   9 NSaved=   9.
 NSaved= 9 IEnMin= 9 EnMin= -151.326778675096     IErMin= 9 ErrMin= 5.16D-07
 ErrMax= 5.16D-07 EMaxC= 1.00D-01 BMatC= 9.55D-11 BMatP= 5.05D-10
 IDIUse=1 WtCom= 1.00D+00 WtEn= 0.00D+00
 Coeff-Com: -0.480D-05-0.273D-04-0.182D-03-0.950D-04 0.865D-02-0.203D-01
 Coeff-Com: -0.109D+00 0.278D+00 0.843D+00
 Coeff:     -0.480D-05-0.273D-04-0.182D-03-0.950D-04 0.865D-02-0.203D-01
 Coeff:     -0.109D+00 0.278D+00 0.843D+00
 Gap=     0.458 Goal=   None    Shift=    0.000
 RMSDP=6.15D-08 MaxDP=1.61D-06 DE=-4.37D-10 OVMax= 5.67D-06

 Cycle  10  Pass 1  IDiag  1:
 RMSU=  1.47D-08    CP:  1.00D+00  1.12D+00  1.10D+00  1.25D+00  1.33D+00
                    CP:  1.42D+00  1.46D+00  1.26D+00  1.00D+00
 FoFJK:  IHMeth= 1 ICntrl=     0 DoSepK=T KAlg= 1 I1Cent= 0 FoldK=F
 E= -151.326778675220     Delta-E=       -0.000000000124 Rises=F Damp=F
 DIIS: error= 9.04D-08 at cycle  10 NSaved=  10.
 NSaved=10 IEnMin=10 EnMin= -151.326778675220     IErMin=10 ErrMin= 9.04D-08
 ErrMax= 9.04D-08 EMaxC= 1.00D-01 BMatC= 1.47D-12 BMatP= 9.55D-11
 IDIUse=1 WtCom= 1.00D+00 WtEn= 0.00D+00
 Coeff-Com:  0.184D-05-0.303D-05-0.543D-04-0.173D-03 0.170D-02 0.296D-02
 Coeff-Com: -0.236D-01-0.439D-01-0.192D-01 0.108D+01
 Coeff:      0.184D-05-0.303D-05-0.543D-04-0.173D-03 0.170D-02 0.296D-02
 Coeff:     -0.236D-01-0.439D-01-0.192D-01 0.108D+01
 Gap=     0.458 Goal=   None    Shift=    0.000
 RMSDP=1.41D-08 MaxDP=3.66D-07 DE=-1.24D-10 OVMax= 1.40D-06

 Cycle  11  Pass 1  IDiag  1:
 RMSU=  2.61D-09    CP:  1.00D+00  1.12D+00  1.10D+00  1.25D+00  1.33D+00
                    CP:  1.42D+00  1.46D+00  1.28D+00  1.08D+00  1.35D+00
 FoFJK:  IHMeth= 1 ICntrl=     0 DoSepK=T KAlg= 1 I1Cent= 0 FoldK=F
 E= -151.326778675226     Delta-E=       -0.000000000006 Rises=F Damp=F
 DIIS: error= 2.22D-08 at cycle  11 NSaved=  11.
 NSaved=11 IEnMin=11 EnMin= -151.326778675226     IErMin=11 ErrMin= 2.22D-08
 ErrMax= 2.22D-08 EMaxC= 1.00D-01 BMatC= 9.40D-14 BMatP= 1.47D-12
 IDIUse=1 WtCom= 1.00D+00 WtEn= 0.00D+00
 Coeff-Com:  0.476D-07 0.258D-05 0.158D-04 0.112D-04-0.614D-03 0.602D-03
 Coeff-Com:  0.867D-02-0.506D-02-0.363D-01-0.219D+00 0.125D+01
 Coeff:      0.476D-07 0.258D-05 0.158D-04 0.112D-04-0.614D-03 0.602D-03
 Coeff:      0.867D-02-0.506D-02-0.363D-01-0.219D+00 0.125D+01
 Gap=     0.458 Goal=   None    Shift=    0.000
 RMSDP=3.98D-09 MaxDP=7.29D-08 DE=-5.97D-12 OVMax= 5.40D-07

 SCF Done:  E(RLC-B+HF-LYP) =  -151.326778675     A.U. after   11 cycles
             Convg  =    0.3981D-08             -V/T =  2.0057
 KE= 1.504625669495D+02 PE=-4.313969452223D+02 EE= 9.299108762795D+01
 Leave Link  502 at Wed May 13 15:21:00 2020, MaxMem= 1073741824 cpu:     288.3
 (Enter /home/matheus/.gaussian/g09/l601.exe)
 Copying SCF densities to generalized density rwf, IOpCl= 0 IROHF=0.

 **********************************************************************

            Population analysis using the SCF density.

 **********************************************************************

 Orbital symmetries:
       Occupied  (A) (A) (A) (A) (A) (A) (A) (A) (A)
       Virtual   (A) (A) (A) (A) (A) (A) (A) (A) (A) (A) (A) (A)
                 (A) (A) (A) (A) (A) (A) (A) (A) (A) (A) (A) (A)
                 (A) (A) (A) (A) (A) (A) (A) (A) (A) (A) (A) (A)
                 (A) (A) (A) (A) (A) (A) (A) (A) (A) (A) (A) (A)
                 (A) (A) (A) (A) (A) (A) (A) (A) (A) (A) (A) (A)
                 (A) (A) (A) (A) (A) (A) (A) (A) (A) (A) (A) (A)
                 (A) (A) (A) (A) (A) (A) (A) (A) (A) (A) (A) (A)
                 (A) (A) (A) (A) (A) (A) (A) (A) (A) (A) (A) (A)
                 (A) (A) (A) (A) (A) (A) (A) (A) (A) (A) (A) (A)
                 (A) (A) (A) (A) (A) (A) (A) (A) (A) (A) (A) (A)
                 (A) (A) (A) (A) (A) (A) (A) (A) (A) (A) (A) (A)
                 (A) (A) (A) (A) (A) (A) (A) (A) (A) (A) (A) (A)
                 (A) (A) (A) (A) (A) (A) (A) (A) (A) (A) (A) (A)
                 (A) (A) (A) (A) (A) (A) (A) (A) (A) (A) (A) (A)
                 (A) (A) (A) (A) (A) (A) (A) (A) (A) (A) (A) (A)
                 (A) (A) (A) (A) (A) (A) (A) (A)
 The electronic state is 1-A.
 Alpha  occ. eigenvalues --  -19.07513 -19.07510  -1.28525  -1.06626  -0.70183
 Alpha  occ. eigenvalues --   -0.63590  -0.57075  -0.46420  -0.43729
 Alpha virt. eigenvalues --    0.02043   0.03116   0.06758   0.08177   0.09939
 Alpha virt. eigenvalues --    0.10093   0.10332   0.13032   0.15878   0.16390
 Alpha virt. eigenvalues --    0.17917   0.18200   0.20277   0.21992   0.24465
 Alpha virt. eigenvalues --    0.25574   0.29687   0.30183   0.31829   0.31965
 Alpha virt. eigenvalues --    0.33105   0.36911   0.37563   0.39154   0.40392
 Alpha virt. eigenvalues --    0.42340   0.43602   0.46597   0.47386   0.48801
 Alpha virt. eigenvalues --    0.53020   0.56661   0.59602   0.61548   0.66547
 Alpha virt. eigenvalues --    0.70876   0.72441   0.74397   0.77024   0.77659
 Alpha virt. eigenvalues --    0.79793   0.80720   0.86686   0.88735   0.89324
 Alpha virt. eigenvalues --    0.89888   0.91259   0.93728   0.95610   0.96475
 Alpha virt. eigenvalues --    0.98424   1.00787   1.04341   1.08556   1.10436
 Alpha virt. eigenvalues --    1.12743   1.14620   1.17841   1.21819   1.24546
 Alpha virt. eigenvalues --    1.25969   1.27334   1.29556   1.31698   1.32360
 Alpha virt. eigenvalues --    1.33419   1.34536   1.36684   1.38137   1.39874
 Alpha virt. eigenvalues --    1.43694   1.49192   1.49833   1.51929   1.55780
 Alpha virt. eigenvalues --    1.58813   1.65019   1.66122   1.69110   1.78076
 Alpha virt. eigenvalues --    1.82597   1.86239   1.92026   1.96528   2.03481
 Alpha virt. eigenvalues --    2.08010   2.11799   2.17377   2.18516   2.23918
 Alpha virt. eigenvalues --    2.27949   2.32383   2.35214   2.38585   2.42998
 Alpha virt. eigenvalues --    2.45865   2.51881   2.55208   2.61840   2.65762
 Alpha virt. eigenvalues --    2.68168   2.73579   2.85205   2.86140   2.92340
 Alpha virt. eigenvalues --    3.04912   3.10337   3.13519   3.25524   3.29930
 Alpha virt. eigenvalues --    3.40678   3.53895   3.63366   3.67885   3.77934
 Alpha virt. eigenvalues --    3.78262   3.81502   3.82028   3.82075   3.82622
 Alpha virt. eigenvalues --    3.86959   3.87592   3.92219   3.93682   3.95882
 Alpha virt. eigenvalues --    3.98406   4.00853   4.07447   4.10839   4.14337
 Alpha virt. eigenvalues --    4.22027   4.24664   4.27394   4.31175   4.33997
 Alpha virt. eigenvalues --    4.44893   4.50965   4.57248   4.68432   4.91021
 Alpha virt. eigenvalues --    4.98069   5.04218   5.15614   5.16417   5.23589
 Alpha virt. eigenvalues --    5.43562   5.84706   6.06437   6.13404   6.16562
 Alpha virt. eigenvalues --    6.32285   6.35119   6.46521   6.56708   6.58103
 Alpha virt. eigenvalues --    6.78792   6.80063   6.81862   6.83272   6.87534
 Alpha virt. eigenvalues --    6.89548   6.90223   6.98773   7.01982   7.07036
 Alpha virt. eigenvalues --    7.16355   7.25166   7.44896   7.68318   7.80790
 Alpha virt. eigenvalues --    8.08257   8.11321  10.88447  13.90683  14.57633
 Alpha virt. eigenvalues --   14.82978  14.87570  15.09352  29.02773  29.03058
 Alpha virt. eigenvalues --   29.07647  29.13101  29.22637  49.09785 148.31116
 Alpha virt. eigenvalues --  148.37709 148.70029 752.50161
          Condensed to atoms (all electrons):
              1          2          3          4          5
     1  O    8.190854  -0.167424   0.185054   0.000876  -0.000743
     2  O   -0.167424   8.164851   0.016054   0.206199  -0.000005
     3  H    0.185054   0.016054   0.590316   0.002263  -0.000219
     4  H    0.000876   0.206199   0.002263   0.578633  -0.004784
     5  Kr  -0.000743  -0.000005  -0.000219  -0.004784   0.000807
 Mulliken atomic charges:
              1
     1  O   -0.208616
     2  O   -0.219674
     3  H    0.206533
     4  H    0.216813
     5  Kr   0.004945
 Sum of Mulliken atomic charges =   0.00000
 Mulliken charges with hydrogens summed into heavy atoms:
              1
     1  O   -0.002084
     2  O   -0.002861
     5  Kr   0.004945
 Sum of Mulliken charges with hydrogens summed into heavy atoms =   0.00000
          Condensed to fragments (all electrons):
     1      -0.004945
     2       0.004945
 Electronic spatial extent (au):  <R**2>=            322.5642
 Charge=              0.0000 electrons
 Dipole moment (field-independent basis, Debye):
    X=             -1.0552    Y=             -0.1505    Z=              1.5620  Tot=              1.8911
 Quadrupole moment (field-independent basis, Debye-Ang):
   XX=            -14.9304   YY=            -10.5927   ZZ=            -11.8469
   XY=             -3.2100   XZ=              3.7087   YZ=             -1.7611
 Traceless Quadrupole moment (field-independent basis, Debye-Ang):
   XX=             -2.4737   YY=              1.8639   ZZ=              0.6098
   XY=             -3.2100   XZ=              3.7087   YZ=             -1.7611
 Octapole moment (field-independent basis, Debye-Ang**2):
  XXX=            -78.1157  YYY=             -1.4760  ZZZ=              1.3915  XYY=            -22.3093
  XXY=            -10.6226  XXZ=              9.1210  XZZ=            -23.1012  YZZ=             -1.8478
  YYZ=              2.2586  XYZ=             -4.3585
 Hexadecapole moment (field-independent basis, Debye-Ang**3):
 XXXX=           -311.8472 YYYY=            -46.2939 ZZZZ=            -12.2321 XXXY=            -26.6435
 XXXZ=             22.6340 YYYX=             -4.9870 YYYZ=             -2.5199 ZZZX=              3.0852
 ZZZY=             -1.8007 XXYY=            -56.0490 XXZZ=            -49.2433 YYZZ=            -10.3844
 XXYZ=            -10.8240 YYXZ=              5.1106 ZZXY=             -3.5353
 N-N= 3.661651196964D+01 E-N=-4.313969451792D+02  KE= 1.504625669495D+02
 No NMR shielding tensors so no spin-rotation constants.
 Leave Link  601 at Wed May 13 15:21:00 2020, MaxMem= 1073741824 cpu:       0.8
 (Enter /home/matheus/.gaussian/g09/l122.exe)
 Counterpoise: doing DCBS calculation for fragment   2 NewBq=T
 Leave Link  122 at Wed May 13 15:21:00 2020, MaxMem= 1073741824 cpu:       0.0
 (Enter /home/matheus/.gaussian/g09/l301.exe)
 Basis read from rwf:  (5D, 7F)
 No pseudopotential information found on rwf file.
 There are   197 symmetry adapted basis functions of A   symmetry.
 Integral buffers will be    131072 words long.
 Raffenetti 2 integral format.
 Two-electron integral symmetry is turned on.
   197 basis functions,   415 primitive gaussians,   229 cartesian basis functions
    18 alpha electrons       18 beta electrons
       nuclear repulsion energy         0.0000000000 Hartrees.
 IExCor=10402 DFT=T Ex=LC-B+HF Corr=LYP ExCW=0 ScaHFX=  1.000000
 ScaDFX=  1.000000  1.000000  1.000000  1.000000 ScalE2=  1.000000  1.000000
 IRadAn=      5 IRanWt=     -1 IRanGd=            0 ICorTp=0
  HFx wShort=  0.000000 wLong=  0.470000 cFull=  0.000000 cShort=  0.000000 cLong=  1.000000
  DFx wShort=  0.000000 wLong=  0.470000 cFull=  0.000000 cShort=  0.000000 cLong=  1.000000
 NAtoms=    5 NActive=    5 NUniq=    5 SFac= 1.00D+00 NAtFMM=   60 NAOKFM=F Big=F
 No density basis found on file   718.
 Leave Link  301 at Wed May 13 15:21:00 2020, MaxMem= 1073741824 cpu:       0.2
 (Enter /home/matheus/.gaussian/g09/l302.exe)
 NPDir=0 NMtPBC=     1 NCelOv=     1 NCel=       1 NClECP=     1 NCelD=      1
         NCelK=      1 NCelE2=     1 NClLst=     1 CellRange=     0.0.
 One-electron integrals computed using PRISM.
 NBasis=   197 RedAO= T  NBF=   197
 NBsUse=   197 1.00D-06 NBFU=   197
 Precomputing XC quadrature grid using
 IXCGrd= 2 IRadAn=           5 IRanWt=          -1 IRanGd=           0 AccXCQ= 0.00D+00.
 NRdTot=     427 NPtTot=      123512 NUsed=      126579 NTot=      126611
 NSgBfM=   229   229   229   229   229 NAtAll=     5     5.
 Leave Link  302 at Wed May 13 15:21:01 2020, MaxMem= 1073741824 cpu:       1.0
 (Enter /home/matheus/.gaussian/g09/l303.exe)
 DipDrv:  MaxL=1.
 Leave Link  303 at Wed May 13 15:21:01 2020, MaxMem= 1073741824 cpu:       0.2
 (Enter /home/matheus/.gaussian/g09/l401.exe)
 Harris functional with IExCor=10402 diagonalized for initial guess.
 ExpMin= 2.53D-02 ExpMax= 1.17D+07 ExpMxC= 1.33D+04 IAcc=3 IRadAn=         5 AccDes= 0.00D+00
 HarFok:  IExCor=10402 AccDes= 0.00D+00 IRadAn=         5 IDoV= 1
 ScaDFX=  1.000000  1.000000  1.000000  1.000000
 FoFCou: FMM=F IPFlag=           0 FMFlag=      100000 FMFlg1=           0
         NFxFlg=           0 DoJE=T BraDBF=F KetDBF=T FulRan=T
         Omega=  0.000000  0.000000  1.000000  0.000000  0.000000 ICntrl=     500 IOpCl=  0
         NMat0=    1 NMatS0=    1 NMatT0=    0 NMatD0=    1 NMtDS0=    0 NMtDT0=    0
         I1Cent=           4 NGrid=           0.
 Petite list used in FoFCou.
 Harris En= -2744.51537705410    
 Initial guess orbital symmetries:
       Occupied  (A) (A) (A) (A) (A) (A) (A) (A) (A) (A) (A) (A)
                 (A) (A) (A) (A) (A) (A)
       Virtual   (A) (A) (A) (A) (A) (A) (A) (A) (A) (A) (A) (A)
                 (A) (A) (A) (A) (A) (A) (A) (A) (A) (A) (A) (A)
                 (A) (A) (A) (A) (A) (A) (A) (A) (A) (A) (A) (A)
                 (A) (A) (A) (A) (A) (A) (A) (A) (A) (A) (A) (A)
                 (A) (A) (A) (A) (A) (A) (A) (A) (A) (A) (A) (A)
                 (A) (A) (A) (A) (A) (A) (A) (A) (A) (A) (A) (A)
                 (A) (A) (A) (A) (A) (A) (A) (A) (A) (A) (A) (A)
                 (A) (A) (A) (A) (A) (A) (A) (A) (A) (A) (A) (A)
                 (A) (A) (A) (A) (A) (A) (A) (A) (A) (A) (A) (A)
                 (A) (A) (A) (A) (A) (A) (A) (A) (A) (A) (A) (A)
                 (A) (A) (A) (A) (A) (A) (A) (A) (A) (A) (A) (A)
                 (A) (A) (A) (A) (A) (A) (A) (A) (A) (A) (A) (A)
                 (A) (A) (A) (A) (A) (A) (A) (A) (A) (A) (A) (A)
                 (A) (A) (A) (A) (A) (A) (A) (A) (A) (A) (A) (A)
                 (A) (A) (A) (A) (A) (A) (A) (A) (A) (A) (A)
 The electronic state of the initial guess is 1-A.
 Leave Link  401 at Wed May 13 15:21:01 2020, MaxMem= 1073741824 cpu:       4.1
 (Enter /home/matheus/.gaussian/g09/l502.exe)
 Closed shell SCF:
 Requested convergence on RMS density matrix=1.00D-08 within 128 cycles.
 Requested convergence on MAX density matrix=1.00D-06.
 Requested convergence on             energy=1.00D-06.
 No special actions if energy rises.
 Using DIIS extrapolation, IDIIS=  1040.
 Integral symmetry usage will be decided dynamically.
       126521 words used for storage of precomputed grid.
 IEnd=      305468 IEndB=      305468 NGot=  1073741824 MDV=  1073505667
 LenX=  1073505667 LenY=  1073452785
 Fock matrices will be formed incrementally for  20 cycles.

 Cycle   1  Pass 1  IDiag  1:
 FoFJK:  IHMeth= 1 ICntrl=     0 DoSepK=T KAlg= 1 I1Cent= 0 FoldK=F
 FoFCou: FMM=F IPFlag=           0 FMFlag=      100000 FMFlg1=           0
         NFxFlg=           0 DoJE=T BraDBF=F KetDBF=F FulRan=T
         Omega=  0.000000  0.000000  1.000000  0.000000  0.000000 ICntrl=     500 IOpCl=  0
         NMat0=    1 NMatS0=    1 NMatT0=    0 NMatD0=    1 NMtDS0=    0 NMtDT0=    0
         I1Cent=           0 NGrid=           0.
 Symmetry not used in FoFCou.
 E= -2753.33350012442    
 DIIS: error= 2.50D-02 at cycle   1 NSaved=   1.
 NSaved= 1 IEnMin= 1 EnMin= -2753.33350012442     IErMin= 1 ErrMin= 2.50D-02
 ErrMax= 2.50D-02 EMaxC= 1.00D-01 BMatC= 2.61D-01 BMatP= 2.61D-01
 IDIUse=3 WtCom= 7.50D-01 WtEn= 2.50D-01
 Coeff-Com:  0.100D+01
 Coeff-En:   0.100D+01
 Coeff:      0.100D+01
 Gap=     0.618 Goal=   None    Shift=    0.000
 GapD=    0.618 DampG=2.000 DampE=0.500 DampFc=1.0000 IDamp=-1.
 RMSDP=2.48D-03 MaxDP=1.52D-01              OVMax= 1.05D-01

 Cycle   2  Pass 1  IDiag  1:
 RMSU=  1.70D-03    CP:  1.03D+00
 FoFJK:  IHMeth= 1 ICntrl=     0 DoSepK=T KAlg= 1 I1Cent= 0 FoldK=F
 E= -2753.38946832319     Delta-E=       -0.055968198777 Rises=F Damp=F
 DIIS: error= 1.25D-02 at cycle   2 NSaved=   2.
 NSaved= 2 IEnMin= 2 EnMin= -2753.38946832319     IErMin= 2 ErrMin= 1.25D-02
 ErrMax= 1.25D-02 EMaxC= 1.00D-01 BMatC= 8.81D-02 BMatP= 2.61D-01
 IDIUse=3 WtCom= 8.75D-01 WtEn= 1.25D-01
 Coeff-Com:  0.365D+00 0.635D+00
 Coeff-En:   0.130D+00 0.870D+00
 Coeff:      0.335D+00 0.665D+00
 Gap=     0.539 Goal=   None    Shift=    0.000
 RMSDP=9.72D-04 MaxDP=6.05D-02 DE=-5.60D-02 OVMax= 3.11D-02

 Cycle   3  Pass 1  IDiag  1:
 RMSU=  1.73D-04    CP:  1.02D+00  6.21D-01
 FoFJK:  IHMeth= 1 ICntrl=     0 DoSepK=T KAlg= 1 I1Cent= 0 FoldK=F
 E= -2753.41752488197     Delta-E=       -0.028056558780 Rises=F Damp=F
 DIIS: error= 9.21D-04 at cycle   3 NSaved=   3.
 NSaved= 3 IEnMin= 3 EnMin= -2753.41752488197     IErMin= 3 ErrMin= 9.21D-04
 ErrMax= 9.21D-04 EMaxC= 1.00D-01 BMatC= 4.64D-04 BMatP= 8.81D-02
 IDIUse=3 WtCom= 9.91D-01 WtEn= 9.21D-03
 Coeff-Com: -0.644D-02 0.548D-01 0.952D+00
 Coeff-En:   0.000D+00 0.000D+00 0.100D+01
 Coeff:     -0.638D-02 0.543D-01 0.952D+00
 Gap=     0.538 Goal=   None    Shift=    0.000
 RMSDP=9.12D-05 MaxDP=4.59D-03 DE=-2.81D-02 OVMax= 3.14D-03

 Cycle   4  Pass 1  IDiag  1:
 RMSU=  3.75D-05    CP:  1.02D+00  6.47D-01  1.15D+00
 FoFJK:  IHMeth= 1 ICntrl=     0 DoSepK=T KAlg= 1 I1Cent= 0 FoldK=F
 E= -2753.41767659904     Delta-E=       -0.000151717062 Rises=F Damp=F
 DIIS: error= 6.75D-05 at cycle   4 NSaved=   4.
 NSaved= 4 IEnMin= 4 EnMin= -2753.41767659904     IErMin= 4 ErrMin= 6.75D-05
 ErrMax= 6.75D-05 EMaxC= 1.00D-01 BMatC= 2.06D-06 BMatP= 4.64D-04
 IDIUse=1 WtCom= 1.00D+00 WtEn= 0.00D+00
 Coeff-Com: -0.143D-02 0.300D-03-0.696D-02 0.101D+01
 Coeff:     -0.143D-02 0.300D-03-0.696D-02 0.101D+01
 Gap=     0.539 Goal=   None    Shift=    0.000
 RMSDP=1.39D-05 MaxDP=5.46D-04 DE=-1.52D-04 OVMax= 9.21D-04

 Cycle   5  Pass 1  IDiag  1:
 RMSU=  5.99D-06    CP:  1.02D+00  6.49D-01  1.18D+00  1.05D+00
 FoFJK:  IHMeth= 1 ICntrl=     0 DoSepK=T KAlg= 1 I1Cent= 0 FoldK=F
 E= -2753.41768055763     Delta-E=       -0.000003958599 Rises=F Damp=F
 DIIS: error= 2.61D-05 at cycle   5 NSaved=   5.
 NSaved= 5 IEnMin= 5 EnMin= -2753.41768055763     IErMin= 5 ErrMin= 2.61D-05
 ErrMax= 2.61D-05 EMaxC= 1.00D-01 BMatC= 1.58D-07 BMatP= 2.06D-06
 IDIUse=1 WtCom= 1.00D+00 WtEn= 0.00D+00
 Coeff-Com: -0.537D-04-0.371D-02-0.336D-01-0.711D-01 0.111D+01
 Coeff:     -0.537D-04-0.371D-02-0.336D-01-0.711D-01 0.111D+01
 Gap=     0.539 Goal=   None    Shift=    0.000
 RMSDP=4.54D-06 MaxDP=1.86D-04 DE=-3.96D-06 OVMax= 1.97D-04

 Cycle   6  Pass 1  IDiag  1:
 RMSU=  3.74D-07    CP:  1.02D+00  6.49D-01  1.20D+00  1.10D+00  1.15D+00
 FoFJK:  IHMeth= 1 ICntrl=     0 DoSepK=T KAlg= 1 I1Cent= 0 FoldK=F
 E= -2753.41768076431     Delta-E=       -0.000000206680 Rises=F Damp=F
 DIIS: error= 5.79D-07 at cycle   6 NSaved=   6.
 NSaved= 6 IEnMin= 6 EnMin= -2753.41768076431     IErMin= 6 ErrMin= 5.79D-07
 ErrMax= 5.79D-07 EMaxC= 1.00D-01 BMatC= 9.70D-11 BMatP= 1.58D-07
 IDIUse=1 WtCom= 1.00D+00 WtEn= 0.00D+00
 Coeff-Com:  0.727D-05 0.318D-03 0.318D-02 0.701D-04-0.817D-01 0.108D+01
 Coeff:      0.727D-05 0.318D-03 0.318D-02 0.701D-04-0.817D-01 0.108D+01
 Gap=     0.539 Goal=   None    Shift=    0.000
 RMSDP=1.54D-07 MaxDP=5.02D-06 DE=-2.07D-07 OVMax= 6.22D-06

 Cycle   7  Pass 1  IDiag  1:
 RMSU=  2.40D-08    CP:  1.02D+00  6.49D-01  1.20D+00  1.10D+00  1.17D+00
                    CP:  1.17D+00
 FoFJK:  IHMeth= 1 ICntrl=     0 DoSepK=T KAlg= 1 I1Cent= 0 FoldK=F
 E= -2753.41768076439     Delta-E=       -0.000000000078 Rises=F Damp=F
 DIIS: error= 7.59D-08 at cycle   7 NSaved=   7.
 NSaved= 7 IEnMin= 7 EnMin= -2753.41768076439     IErMin= 7 ErrMin= 7.59D-08
 ErrMax= 7.59D-08 EMaxC= 1.00D-01 BMatC= 2.33D-12 BMatP= 9.70D-11
 IDIUse=1 WtCom= 1.00D+00 WtEn= 0.00D+00
 Coeff-Com:  0.501D-06 0.379D-04 0.336D-03 0.872D-03-0.120D-01 0.140D-01
 Coeff-Com:  0.997D+00
 Coeff:      0.501D-06 0.379D-04 0.336D-03 0.872D-03-0.120D-01 0.140D-01
 Coeff:      0.997D+00
 Gap=     0.539 Goal=   None    Shift=    0.000
 RMSDP=1.56D-08 MaxDP=5.53D-07 DE=-7.82D-11 OVMax= 8.30D-07

 Cycle   8  Pass 1  IDiag  1:
 RMSU=  4.66D-09    CP:  1.02D+00  6.49D-01  1.20D+00  1.10D+00  1.17D+00
                    CP:  1.19D+00  1.11D+00
 FoFJK:  IHMeth= 1 ICntrl=     0 DoSepK=T KAlg= 1 I1Cent= 0 FoldK=F
 E= -2753.41768076438     Delta-E=        0.000000000010 Rises=F Damp=F
 DIIS: error= 1.77D-08 at cycle   8 NSaved=   8.
 NSaved= 8 IEnMin= 7 EnMin= -2753.41768076439     IErMin= 8 ErrMin= 1.77D-08
 ErrMax= 1.77D-08 EMaxC= 1.00D-01 BMatC= 2.01D-13 BMatP= 2.33D-12
 IDIUse=1 WtCom= 1.00D+00 WtEn= 0.00D+00
 Coeff-Com: -0.334D-06-0.112D-04-0.122D-03 0.187D-03 0.228D-02-0.572D-01
 Coeff-Com:  0.187D+00 0.868D+00
 Coeff:     -0.334D-06-0.112D-04-0.122D-03 0.187D-03 0.228D-02-0.572D-01
 Coeff:      0.187D+00 0.868D+00
 Gap=     0.539 Goal=   None    Shift=    0.000
 RMSDP=2.95D-09 MaxDP=1.06D-07 DE= 1.00D-11 OVMax= 1.77D-07

 SCF Done:  E(RLC-B+HF-LYP) =  -2753.41768076     A.U. after    8 cycles
             Convg  =    0.2951D-08             -V/T =  2.0015
 KE= 2.749315892601D+03 PE=-6.578526464185D+03 EE= 1.075792890820D+03
 Leave Link  502 at Wed May 13 15:21:28 2020, MaxMem= 1073741824 cpu:     218.0
 (Enter /home/matheus/.gaussian/g09/l601.exe)
 Copying SCF densities to generalized density rwf, IOpCl= 0 IROHF=0.

 **********************************************************************

            Population analysis using the SCF density.

 **********************************************************************

 Orbital symmetries:
       Occupied  (A) (A) (A) (A) (A) (A) (A) (A) (A) (A) (A) (A)
                 (A) (A) (A) (A) (A) (A)
       Virtual   (A) (A) (A) (A) (A) (A) (A) (A) (A) (A) (A) (A)
                 (A) (A) (A) (A) (A) (A) (A) (A) (A) (A) (A) (A)
                 (A) (A) (A) (A) (A) (A) (A) (A) (A) (A) (A) (A)
                 (A) (A) (A) (A) (A) (A) (A) (A) (A) (A) (A) (A)
                 (A) (A) (A) (A) (A) (A) (A) (A) (A) (A) (A) (A)
                 (A) (A) (A) (A) (A) (A) (A) (A) (A) (A) (A) (A)
                 (A) (A) (A) (A) (A) (A) (A) (A) (A) (A) (A) (A)
                 (A) (A) (A) (A) (A) (A) (A) (A) (A) (A) (A) (A)
                 (A) (A) (A) (A) (A) (A) (A) (A) (A) (A) (A) (A)
                 (A) (A) (A) (A) (A) (A) (A) (A) (A) (A) (A) (A)
                 (A) (A) (A) (A) (A) (A) (A) (A) (A) (A) (A) (A)
                 (A) (A) (A) (A) (A) (A) (A) (A) (A) (A) (A) (A)
                 (A) (A) (A) (A) (A) (A) (A) (A) (A) (A) (A) (A)
                 (A) (A) (A) (A) (A) (A) (A) (A) (A) (A) (A) (A)
                 (A) (A) (A) (A) (A) (A) (A) (A) (A) (A) (A)
 The electronic state is 1-A.
 Alpha  occ. eigenvalues -- -511.24359 -66.71349 -60.39872 -60.39868 -60.39868
 Alpha  occ. eigenvalues --   -9.60494  -7.35947  -7.35945  -7.35945  -3.32283
 Alpha  occ. eigenvalues --   -3.32283  -3.32283  -3.32282  -3.32282  -1.06080
 Alpha  occ. eigenvalues --   -0.51293  -0.51289  -0.51287
 Alpha virt. eigenvalues --    0.02566   0.04689   0.07753   0.08669   0.10845
 Alpha virt. eigenvalues --    0.11622   0.12727   0.13280   0.15810   0.16608
 Alpha virt. eigenvalues --    0.17342   0.19179   0.20064   0.25077   0.26464
 Alpha virt. eigenvalues --    0.26863   0.27982   0.30591   0.32958   0.34138
 Alpha virt. eigenvalues --    0.35785   0.36943   0.37877   0.38787   0.40937
 Alpha virt. eigenvalues --    0.41261   0.42244   0.52916   0.53236   0.57924
 Alpha virt. eigenvalues --    0.58097   0.65851   0.67199   0.69529   0.71668
 Alpha virt. eigenvalues --    0.74419   0.74983   0.76787   0.77832   0.79663
 Alpha virt. eigenvalues --    0.80299   0.80666   0.83432   0.85513   0.86036
 Alpha virt. eigenvalues --    0.87935   0.88333   0.89570   0.91116   0.95548
 Alpha virt. eigenvalues --    0.96015   0.98483   0.98968   1.01046   1.02072
 Alpha virt. eigenvalues --    1.05040   1.07616   1.08338   1.10758   1.11885
 Alpha virt. eigenvalues --    1.15807   1.20582   1.23163   1.25248   1.28376
 Alpha virt. eigenvalues --    1.33743   1.34360   1.38597   1.44210   1.45484
 Alpha virt. eigenvalues --    1.52971   1.56690   1.59263   1.73453   1.76509
 Alpha virt. eigenvalues --    1.77947   1.82749   1.86221   1.97070   2.16444
 Alpha virt. eigenvalues --    2.19726   2.24084   2.27889   2.29905   2.31813
 Alpha virt. eigenvalues --    2.32967   2.33052   2.36728   2.39491   2.40624
 Alpha virt. eigenvalues --    2.43447   2.46045   2.46301   2.50839   2.51521
 Alpha virt. eigenvalues --    2.52532   2.54407   2.55438   2.56373   2.57678
 Alpha virt. eigenvalues --    2.62742   2.62876   2.65353   2.68043   2.70977
 Alpha virt. eigenvalues --    2.73296   2.77930   2.84471   2.86970   2.88903
 Alpha virt. eigenvalues --    2.94062   2.97305   3.02968   3.12153   3.19823
 Alpha virt. eigenvalues --    3.22358   3.24779   3.29823   3.34909   3.48639
 Alpha virt. eigenvalues --    3.60556   3.63781   3.82024   3.86054   4.03175
 Alpha virt. eigenvalues --    4.35095   4.41980   4.50843   4.55767   4.64437
 Alpha virt. eigenvalues --    4.71898   4.86393   4.89528   4.92915   4.98955
 Alpha virt. eigenvalues --    5.14038   5.19117   5.57693   5.65140   5.73379
 Alpha virt. eigenvalues --    5.90054   6.00521   6.15449   6.72789   6.88823
 Alpha virt. eigenvalues --    7.36704   7.42290   7.59461   7.62478   7.73341
 Alpha virt. eigenvalues --    7.86190   7.89643   8.10928   8.16256   8.21035
 Alpha virt. eigenvalues --    8.39413   8.45203   8.57851   8.85696   9.64437
 Alpha virt. eigenvalues --    9.73996   9.83610   9.88640   9.90915   9.99427
 Alpha virt. eigenvalues --   10.14176  10.31720  10.37231  10.96609  11.50787
 Alpha virt. eigenvalues --   11.65272  11.75110  12.04695  12.09903  13.24646
 Alpha virt. eigenvalues --   13.60509  14.52121  62.73303  64.66450
          Condensed to atoms (all electrons):
              1          2          3          4          5
     1  O    0.002337  -0.001642  -0.001519   0.001026  -0.008367
     2  O   -0.001642   0.004692   0.000584  -0.003006  -0.004392
     3  H   -0.001519   0.000584   0.001217  -0.000368   0.002646
     4  H    0.001026  -0.003006  -0.000368   0.002866  -0.013400
     5  Kr  -0.008367  -0.004392   0.002646  -0.013400  36.045762
 Mulliken atomic charges:
              1
     1  O    0.008165
     2  O    0.003763
     3  H   -0.002560
     4  H    0.012881
     5  Kr  -0.022250
 Sum of Mulliken atomic charges =   0.00000
 Mulliken charges with hydrogens summed into heavy atoms:
              1
     1  O    0.005605
     2  O    0.016645
     5  Kr  -0.022250
 Sum of Mulliken charges with hydrogens summed into heavy atoms =   0.00000
          Condensed to fragments (all electrons):
     1       0.022250
     2      -0.022250
 Electronic spatial extent (au):  <R**2>=            165.3322
 Charge=              0.0000 electrons
 Dipole moment (field-independent basis, Debye):
    X=              0.0013    Y=              0.0006    Z=              0.0001  Tot=              0.0015
 Quadrupole moment (field-independent basis, Debye-Ang):
   XX=            -17.7468   YY=            -17.7569   ZZ=            -17.7639
   XY=              0.0044   XZ=              0.0002   YZ=              0.0003
 Traceless Quadrupole moment (field-independent basis, Debye-Ang):
   XX=              0.0090   YY=             -0.0010   ZZ=             -0.0080
   XY=              0.0044   XZ=              0.0002   YZ=              0.0003
 Octapole moment (field-independent basis, Debye-Ang**2):
  XXX=             52.6437  YYY=              0.7118  ZZZ=             -0.0905  XYY=             17.5604
  XXY=              0.2287  XXZ=             -0.0310  XZZ=             17.5642  YZZ=              0.2383
  YYZ=             -0.0300  XYZ=             -0.0002
 Hexadecapole moment (field-independent basis, Debye-Ang**3):
 XXXX=           -123.0122 YYYY=            -18.9435 ZZZZ=            -18.9483 XXXY=             -0.6849
 XXXZ=              0.0911 YYYX=             -0.6911 YYYZ=              0.0008 ZZZX=              0.0910
 ZZZY=              0.0022 XXYY=            -23.6717 XXZZ=            -23.6738 YYZZ=             -6.3143
 XXYZ=              0.0011 YYXZ=              0.0299 ZZXY=             -0.2288
 N-N= 0.000000000000D+00 E-N=-6.578526462567D+03  KE= 2.749315892601D+03
 No NMR shielding tensors so no spin-rotation constants.
 Leave Link  601 at Wed May 13 15:21:29 2020, MaxMem= 1073741824 cpu:       0.8
 (Enter /home/matheus/.gaussian/g09/l122.exe)
 Counterpoise: doing MCBS calculation for fragment   1
 Leave Link  122 at Wed May 13 15:21:29 2020, MaxMem= 1073741824 cpu:       0.0
 (Enter /home/matheus/.gaussian/g09/l301.exe)
 Basis read from rwf:  (5D, 7F)
 No pseudopotential information found on rwf file.
 There are   138 symmetry adapted basis functions of A   symmetry.
 Integral buffers will be    131072 words long.
 Raffenetti 2 integral format.
 Two-electron integral symmetry is turned on.
   138 basis functions,   198 primitive gaussians,   160 cartesian basis functions
     9 alpha electrons        9 beta electrons
       nuclear repulsion energy        36.6165119696 Hartrees.
 IExCor=10402 DFT=T Ex=LC-B+HF Corr=LYP ExCW=0 ScaHFX=  1.000000
 ScaDFX=  1.000000  1.000000  1.000000  1.000000 ScalE2=  1.000000  1.000000
 IRadAn=      5 IRanWt=     -1 IRanGd=            0 ICorTp=0
  HFx wShort=  0.000000 wLong=  0.470000 cFull=  0.000000 cShort=  0.000000 cLong=  1.000000
  DFx wShort=  0.000000 wLong=  0.470000 cFull=  0.000000 cShort=  0.000000 cLong=  1.000000
 NAtoms=    5 NActive=    4 NUniq=    4 SFac= 1.00D+00 NAtFMM=   60 NAOKFM=F Big=F
 No density basis found on file   718.
 Leave Link  301 at Wed May 13 15:21:29 2020, MaxMem= 1073741824 cpu:       0.2
 (Enter /home/matheus/.gaussian/g09/l302.exe)
 NPDir=0 NMtPBC=     1 NCelOv=     1 NCel=       1 NClECP=     1 NCelD=      1
         NCelK=      1 NCelE2=     1 NClLst=     1 CellRange=     0.0.
 One-electron integrals computed using PRISM.
 NBasis=   138 RedAO= T  NBF=   138
 NBsUse=   138 1.00D-06 NBFU=   138
 Precomputing XC quadrature grid using
 IXCGrd= 2 IRadAn=           5 IRanWt=          -1 IRanGd=           0 AccXCQ= 0.00D+00.
 NRdTot=     344 NPtTot=       92556 NUsed=       95038 NTot=       95070
 NSgBfM=   160   160   160   160   160 NAtAll=     4     4.
 Leave Link  302 at Wed May 13 15:21:29 2020, MaxMem= 1073741824 cpu:       0.8
 (Enter /home/matheus/.gaussian/g09/l303.exe)
 DipDrv:  MaxL=1.
 Leave Link  303 at Wed May 13 15:21:29 2020, MaxMem= 1073741824 cpu:       0.2
 (Enter /home/matheus/.gaussian/g09/l401.exe)
 Harris functional with IExCor=10402 diagonalized for initial guess.
 ExpMin= 2.53D-02 ExpMax= 1.53D+04 ExpMxC= 5.22D+02 IAcc=3 IRadAn=         5 AccDes= 0.00D+00
 HarFok:  IExCor=10402 AccDes= 0.00D+00 IRadAn=         5 IDoV= 1
 ScaDFX=  1.000000  1.000000  1.000000  1.000000
 FoFCou: FMM=F IPFlag=           0 FMFlag=      100000 FMFlg1=           0
         NFxFlg=           0 DoJE=T BraDBF=F KetDBF=T FulRan=T
         Omega=  0.000000  0.000000  1.000000  0.000000  0.000000 ICntrl=     500 IOpCl=  0
         NMat0=    1 NMatS0=    1 NMatT0=    0 NMatD0=    1 NMtDS0=    0 NMtDT0=    0
         I1Cent=           4 NGrid=           0.
 Petite list used in FoFCou.
 Harris En= -147.165192790978    
 Initial guess orbital symmetries:
       Occupied  (A) (A) (A) (A) (A) (A) (A) (A) (A)
       Virtual   (A) (A) (A) (A) (A) (A) (A) (A) (A) (A) (A) (A)
                 (A) (A) (A) (A) (A) (A) (A) (A) (A) (A) (A) (A)
                 (A) (A) (A) (A) (A) (A) (A) (A) (A) (A) (A) (A)
                 (A) (A) (A) (A) (A) (A) (A) (A) (A) (A) (A) (A)
                 (A) (A) (A) (A) (A) (A) (A) (A) (A) (A) (A) (A)
                 (A) (A) (A) (A) (A) (A) (A) (A) (A) (A) (A) (A)
                 (A) (A) (A) (A) (A) (A) (A) (A) (A) (A) (A) (A)
                 (A) (A) (A) (A) (A) (A) (A) (A) (A) (A) (A) (A)
                 (A) (A) (A) (A) (A) (A) (A) (A) (A) (A) (A) (A)
                 (A) (A) (A) (A) (A) (A) (A) (A) (A) (A) (A) (A)
                 (A) (A) (A) (A) (A) (A) (A) (A) (A)
 The electronic state of the initial guess is 1-A.
 Leave Link  401 at Wed May 13 15:21:29 2020, MaxMem= 1073741824 cpu:       2.3
 (Enter /home/matheus/.gaussian/g09/l502.exe)
 Closed shell SCF:
 Requested convergence on RMS density matrix=1.00D-08 within 128 cycles.
 Requested convergence on MAX density matrix=1.00D-06.
 Requested convergence on             energy=1.00D-06.
 No special actions if energy rises.
 Using DIIS extrapolation, IDIIS=  1040.
 Integral symmetry usage will be decided dynamically.
        94980 words used for storage of precomputed grid.
 IEnd=      192360 IEndB=      192360 NGot=  1073741824 MDV=  1073591865
 LenX=  1073591865 LenY=  1073565824
 Fock matrices will be formed incrementally for  20 cycles.

 Cycle   1  Pass 1  IDiag  1:
 FoFJK:  IHMeth= 1 ICntrl=     0 DoSepK=T KAlg= 1 I1Cent= 0 FoldK=F
 FoFCou: FMM=F IPFlag=           0 FMFlag=      100000 FMFlg1=           0
         NFxFlg=           0 DoJE=T BraDBF=F KetDBF=F FulRan=T
         Omega=  0.000000  0.000000  1.000000  0.000000  0.000000 ICntrl=     500 IOpCl=  0
         NMat0=    1 NMatS0=    1 NMatT0=    0 NMatD0=    1 NMtDS0=    0 NMtDT0=    0
         I1Cent=           0 NGrid=           0.
 Symmetry not used in FoFCou.
 E= -151.305172945451    
 DIIS: error= 1.38D-02 at cycle   1 NSaved=   1.
 NSaved= 1 IEnMin= 1 EnMin= -151.305172945451     IErMin= 1 ErrMin= 1.38D-02
 ErrMax= 1.38D-02 EMaxC= 1.00D-01 BMatC= 2.18D-02 BMatP= 2.18D-02
 IDIUse=3 WtCom= 8.62D-01 WtEn= 1.38D-01
 Coeff-Com:  0.100D+01
 Coeff-En:   0.100D+01
 Coeff:      0.100D+01
 Gap=     0.492 Goal=   None    Shift=    0.000
 GapD=    0.492 DampG=2.000 DampE=0.500 DampFc=1.0000 IDamp=-1.
 RMSDP=1.18D-03 MaxDP=2.70D-02              OVMax= 5.26D-02

 Cycle   2  Pass 1  IDiag  1:
 RMSU=  8.33D-04    CP:  1.00D+00
 FoFJK:  IHMeth= 1 ICntrl=     0 DoSepK=T KAlg= 1 I1Cent= 0 FoldK=F
 E= -151.323368788524     Delta-E=       -0.018195843073 Rises=F Damp=F
 DIIS: error= 8.26D-03 at cycle   2 NSaved=   2.
 NSaved= 2 IEnMin= 2 EnMin= -151.323368788524     IErMin= 2 ErrMin= 8.26D-03
 ErrMax= 8.26D-03 EMaxC= 1.00D-01 BMatC= 5.08D-03 BMatP= 2.18D-02
 IDIUse=3 WtCom= 9.17D-01 WtEn= 8.26D-02
 Coeff-Com:  0.279D+00 0.721D+00
 Coeff-En:   0.000D+00 0.100D+01
 Coeff:      0.255D+00 0.745D+00
 Gap=     0.453 Goal=   None    Shift=    0.000
 RMSDP=3.12D-04 MaxDP=6.97D-03 DE=-1.82D-02 OVMax= 1.48D-02

 Cycle   3  Pass 1  IDiag  1:
 RMSU=  2.21D-04    CP:  1.00D+00  9.97D-01
 FoFJK:  IHMeth= 1 ICntrl=     0 DoSepK=T KAlg= 1 I1Cent= 0 FoldK=F
 E= -151.326222022503     Delta-E=       -0.002853233979 Rises=F Damp=F
 DIIS: error= 2.06D-03 at cycle   3 NSaved=   3.
 NSaved= 3 IEnMin= 3 EnMin= -151.326222022503     IErMin= 3 ErrMin= 2.06D-03
 ErrMax= 2.06D-03 EMaxC= 1.00D-01 BMatC= 6.26D-04 BMatP= 5.08D-03
 IDIUse=3 WtCom= 9.79D-01 WtEn= 2.06D-02
 Coeff-Com:  0.175D-01 0.248D+00 0.735D+00
 Coeff-En:   0.000D+00 0.000D+00 0.100D+01
 Coeff:      0.171D-01 0.243D+00 0.740D+00
 Gap=     0.462 Goal=   None    Shift=    0.000
 RMSDP=1.45D-04 MaxDP=3.46D-03 DE=-2.85D-03 OVMax= 7.31D-03

 Cycle   4  Pass 1  IDiag  1:
 RMSU=  7.16D-05    CP:  1.00D+00  1.08D+00  9.41D-01
 FoFJK:  IHMeth= 1 ICntrl=     0 DoSepK=T KAlg= 1 I1Cent= 0 FoldK=F
 E= -151.326688832555     Delta-E=       -0.000466810052 Rises=F Damp=F
 DIIS: error= 4.58D-04 at cycle   4 NSaved=   4.
 NSaved= 4 IEnMin= 4 EnMin= -151.326688832555     IErMin= 4 ErrMin= 4.58D-04
 ErrMax= 4.58D-04 EMaxC= 1.00D-01 BMatC= 3.16D-05 BMatP= 6.26D-04
 IDIUse=3 WtCom= 9.95D-01 WtEn= 4.58D-03
 Coeff-Com: -0.215D-01-0.320D-01 0.127D+00 0.926D+00
 Coeff-En:   0.000D+00 0.000D+00 0.000D+00 0.100D+01
 Coeff:     -0.214D-01-0.318D-01 0.127D+00 0.926D+00
 Gap=     0.460 Goal=   None    Shift=    0.000
 RMSDP=5.43D-05 MaxDP=1.44D-03 DE=-4.67D-04 OVMax= 1.94D-03

 Cycle   5  Pass 1  IDiag  1:
 RMSU=  1.35D-05    CP:  1.00D+00  1.11D+00  1.06D+00  1.15D+00
 FoFJK:  IHMeth= 1 ICntrl=     0 DoSepK=T KAlg= 1 I1Cent= 0 FoldK=F
 E= -151.326721452155     Delta-E=       -0.000032619600 Rises=F Damp=F
 DIIS: error= 5.75D-05 at cycle   5 NSaved=   5.
 NSaved= 5 IEnMin= 5 EnMin= -151.326721452155     IErMin= 5 ErrMin= 5.75D-05
 ErrMax= 5.75D-05 EMaxC= 1.00D-01 BMatC= 4.30D-07 BMatP= 3.16D-05
 IDIUse=1 WtCom= 1.00D+00 WtEn= 0.00D+00
 Coeff-Com:  0.774D-03-0.535D-02-0.354D-01-0.703D-01 0.111D+01
 Coeff:      0.774D-03-0.535D-02-0.354D-01-0.703D-01 0.111D+01
 Gap=     0.460 Goal=   None    Shift=    0.000
 RMSDP=1.37D-05 MaxDP=3.83D-04 DE=-3.26D-05 OVMax= 6.65D-04

 Cycle   6  Pass 1  IDiag  1:
 RMSU=  2.75D-06    CP:  1.00D+00  1.11D+00  1.08D+00  1.24D+00  1.27D+00
 FoFJK:  IHMeth= 1 ICntrl=     0 DoSepK=T KAlg= 1 I1Cent= 0 FoldK=F
 E= -151.326722863057     Delta-E=       -0.000001410902 Rises=F Damp=F
 DIIS: error= 1.23D-05 at cycle   6 NSaved=   6.
 NSaved= 6 IEnMin= 6 EnMin= -151.326722863057     IErMin= 6 ErrMin= 1.23D-05
 ErrMax= 1.23D-05 EMaxC= 1.00D-01 BMatC= 2.37D-08 BMatP= 4.30D-07
 IDIUse=1 WtCom= 1.00D+00 WtEn= 0.00D+00
 Coeff-Com:  0.389D-03 0.790D-03-0.233D-02-0.192D-01-0.483D-01 0.107D+01
 Coeff:      0.389D-03 0.790D-03-0.233D-02-0.192D-01-0.483D-01 0.107D+01
 Gap=     0.460 Goal=   None    Shift=    0.000
 RMSDP=2.19D-06 MaxDP=4.46D-05 DE=-1.41D-06 OVMax= 1.44D-04

 Cycle   7  Pass 1  IDiag  1:
 RMSU=  5.29D-07    CP:  1.00D+00  1.11D+00  1.08D+00  1.25D+00  1.31D+00
                    CP:  1.32D+00
 FoFJK:  IHMeth= 1 ICntrl=     0 DoSepK=T KAlg= 1 I1Cent= 0 FoldK=F
[...]

 Cycle   2  Pass 1  IDiag  1:
 RMSU=  1.17D-05    CP:  1.00D+00
 FoFJK:  IHMeth= 1 ICntrl=     0 DoSepK=T KAlg= 1 I1Cent= 0 FoldK=F
 E= -2753.41756207805     Delta-E=       -0.000000547566 Rises=F Damp=F
 DIIS: error= 3.60D-06 at cycle   2 NSaved=   2.
 NSaved= 2 IEnMin= 2 EnMin= -2753.41756207805     IErMin= 2 ErrMin= 3.60D-06
 ErrMax= 3.60D-06 EMaxC= 1.00D-01 BMatC= 3.31D-09 BMatP= 5.57D-06
 IDIUse=1 WtCom= 1.00D+00 WtEn= 0.00D+00
 Coeff-Com: -0.709D-02 0.101D+01
 Coeff:     -0.709D-02 0.101D+01
 Gap=     0.539 Goal=   None    Shift=    0.000
 RMSDP=1.69D-06 MaxDP=6.54D-05 DE=-5.48D-07 OVMax= 4.53D-05

 Cycle   3  Pass 1  IDiag  1:
 RMSU=  5.56D-07    CP:  1.00D+00  1.09D+00
 FoFJK:  IHMeth= 1 ICntrl=     0 DoSepK=T KAlg= 1 I1Cent= 0 FoldK=F
 E= -2753.41756208399     Delta-E=       -0.000000005933 Rises=F Damp=F
 DIIS: error= 5.14D-07 at cycle   3 NSaved=   3.
 NSaved= 3 IEnMin= 3 EnMin= -2753.41756208399     IErMin= 3 ErrMin= 5.14D-07
 ErrMax= 5.14D-07 EMaxC= 1.00D-01 BMatC= 9.05D-11 BMatP= 3.31D-09
 IDIUse=1 WtCom= 1.00D+00 WtEn= 0.00D+00
 Coeff-Com:  0.263D-03-0.118D+00 0.112D+01
 Coeff:      0.263D-03-0.118D+00 0.112D+01
 Gap=     0.539 Goal=   None    Shift=    0.000
 RMSDP=2.10D-07 MaxDP=8.43D-06 DE=-5.93D-09 OVMax= 9.06D-06

 Cycle   4  Pass 1  IDiag  1:
 RMSU=  5.35D-08    CP:  1.00D+00  1.10D+00  1.17D+00
 FoFJK:  IHMeth= 1 ICntrl=     0 DoSepK=T KAlg= 1 I1Cent= 0 FoldK=F
 E= -2753.41756208419     Delta-E=       -0.000000000199 Rises=F Damp=F
 DIIS: error= 2.68D-07 at cycle   4 NSaved=   4.
 NSaved= 4 IEnMin= 4 EnMin= -2753.41756208419     IErMin= 4 ErrMin= 2.68D-07
 ErrMax= 2.68D-07 EMaxC= 1.00D-01 BMatC= 1.30D-11 BMatP= 9.05D-11
 IDIUse=1 WtCom= 1.00D+00 WtEn= 0.00D+00
 Coeff-Com:  0.216D-03-0.536D-01 0.336D+00 0.717D+00
 Coeff:      0.216D-03-0.536D-01 0.336D+00 0.717D+00
 Gap=     0.539 Goal=   None    Shift=    0.000
 RMSDP=1.86D-08 MaxDP=7.28D-07 DE=-1.99D-10 OVMax= 9.35D-07

 Cycle   5  Pass 1  IDiag  1:
 RMSU=  9.42D-09    CP:  1.00D+00  1.10D+00  1.19D+00  1.11D+00
 FoFJK:  IHMeth= 1 ICntrl=     0 DoSepK=T KAlg= 1 I1Cent= 0 FoldK=F
 E= -2753.41756208420     Delta-E=       -0.000000000010 Rises=F Damp=F
 DIIS: error= 3.05D-08 at cycle   5 NSaved=   5.
 NSaved= 5 IEnMin= 5 EnMin= -2753.41756208420     IErMin= 5 ErrMin= 3.05D-08
 ErrMax= 3.05D-08 EMaxC= 1.00D-01 BMatC= 2.55D-13 BMatP= 1.30D-11
 IDIUse=1 WtCom= 1.00D+00 WtEn= 0.00D+00
 Coeff-Com: -0.195D-04 0.725D-02-0.667D-01-0.518D-02 0.106D+01
 Coeff:     -0.195D-04 0.725D-02-0.667D-01-0.518D-02 0.106D+01
 Gap=     0.539 Goal=   None    Shift=    0.000
 RMSDP=8.94D-09 MaxDP=5.02D-07 DE=-9.55D-12 OVMax= 4.45D-07

 SCF Done:  E(RLC-B+HF-LYP) =  -2753.41756208     A.U. after    5 cycles
             Convg  =    0.8940D-08             -V/T =  2.0015
 KE= 2.749364350363D+03 PE=-6.578579769057D+03 EE= 1.075797856610D+03
 Leave Link  502 at Wed May 13 15:46:05 2020, MaxMem= 1073741824 cpu:      94.8
 (Enter /home/matheus/.gaussian/g09/l122.exe)
 Restoring MOs from calculation   4 to rwf.
 Counterpoise: doing MCBS calculation for fragment   1
 Leave Link  122 at Wed May 13 15:46:05 2020, MaxMem= 1073741824 cpu:       0.0
 (Enter /home/matheus/.gaussian/g09/l301.exe)
 Basis read from rwf:  (5D, 7F)
 No pseudopotential information found on rwf file.
 There are   138 symmetry adapted basis functions of A   symmetry.
 Integral buffers will be    131072 words long.
 Raffenetti 2 integral format.
 Two-electron integral symmetry is turned on.
   138 basis functions,   198 primitive gaussians,   160 cartesian basis functions
     9 alpha electrons        9 beta electrons
       nuclear repulsion energy        36.6165119696 Hartrees.
 IExCor=10402 DFT=T Ex=LC-B+HF Corr=LYP ExCW=0 ScaHFX=  1.000000
 ScaDFX=  1.000000  1.000000  1.000000  1.000000 ScalE2=  1.000000  1.000000
 IRadAn=      5 IRanWt=     -1 IRanGd=            0 ICorTp=0
  HFx wShort=  0.000000 wLong=  0.470000 cFull=  0.000000 cShort=  0.000000 cLong=  1.000000
  DFx wShort=  0.000000 wLong=  0.470000 cFull=  0.000000 cShort=  0.000000 cLong=  1.000000
 NAtoms=    5 NActive=    4 NUniq=    4 SFac= 1.00D+00 NAtFMM=   60 NAOKFM=F Big=F
 No density basis found on file   718.
 Leave Link  301 at Wed May 13 15:46:05 2020, MaxMem= 1073741824 cpu:       0.2
 (Enter /home/matheus/.gaussian/g09/l302.exe)
 NPDir=0 NMtPBC=     1 NCelOv=     1 NCel=       1 NClECP=     1 NCelD=      1
         NCelK=      1 NCelE2=     1 NClLst=     1 CellRange=     0.0.
 One-electron integrals computed using PRISM.
 NBasis=   138 RedAO= T  NBF=   138
 NBsUse=   138 1.00D-06 NBFU=   138
 Precomputing XC quadrature grid using
 IXCGrd= 2 IRadAn=           5 IRanWt=          -1 IRanGd=           0 AccXCQ= 0.00D+00.
 NRdTot=     344 NPtTot=       92556 NUsed=       95038 NTot=       95070
 NSgBfM=   160   160   160   160   160 NAtAll=     4     4.
 Leave Link  302 at Wed May 13 15:46:05 2020, MaxMem= 1073741824 cpu:       0.8
 (Enter /home/matheus/.gaussian/g09/l303.exe)
 DipDrv:  MaxL=1.
 Leave Link  303 at Wed May 13 15:46:05 2020, MaxMem= 1073741824 cpu:       0.2
 (Enter /home/matheus/.gaussian/g09/l401.exe)
 Initial guess read from the read-write file.
 Guess basis will be translated and rotated to current coordinates.
 Initial guess orbital symmetries:
       Occupied  (A) (A) (A) (A) (A) (A) (A) (A) (A)
       Virtual   (A) (A) (A) (A) (A) (A) (A) (A) (A) (A) (A) (A)
                 (A) (A) (A) (A) (A) (A) (A) (A) (A) (A) (A) (A)
                 (A) (A) (A) (A) (A) (A) (A) (A) (A) (A) (A) (A)
                 (A) (A) (A) (A) (A) (A) (A) (A) (A) (A) (A) (A)
                 (A) (A) (A) (A) (A) (A) (A) (A) (A) (A) (A) (A)
                 (A) (A) (A) (A) (A) (A) (A) (A) (A) (A) (A) (A)
                 (A) (A) (A) (A) (A) (A) (A) (A) (A) (A) (A) (A)
                 (A) (A) (A) (A) (A) (A) (A) (A) (A) (A) (A) (A)
                 (A) (A) (A) (A) (A) (A) (A) (A) (A) (A) (A) (A)
                 (A) (A) (A) (A) (A) (A) (A) (A) (A) (A) (A) (A)
                 (A) (A) (A) (A) (A) (A) (A) (A) (A)
 The electronic state of the initial guess is 1-A.
 Generating alternative initial guess.
 Harris functional with IExCor=10402 diagonalized for initial guess.
 ExpMin= 2.53D-02 ExpMax= 1.53D+04 ExpMxC= 5.22D+02 IAcc=3 IRadAn=         5 AccDes= 0.00D+00
 HarFok:  IExCor=10402 AccDes= 0.00D+00 IRadAn=         5 IDoV= 1
 ScaDFX=  1.000000  1.000000  1.000000  1.000000
 FoFCou: FMM=F IPFlag=           0 FMFlag=      100000 FMFlg1=           0
         NFxFlg=           0 DoJE=T BraDBF=F KetDBF=T FulRan=T
         Omega=  0.000000  0.000000  1.000000  0.000000  0.000000 ICntrl=     500 IOpCl=  0
         NMat0=    1 NMatS0=    1 NMatT0=    0 NMatD0=    1 NMtDS0=    0 NMtDT0=    0
         I1Cent=           4 NGrid=           0.
 Petite list used in FoFCou.
 Harris En= -147.165192800001    
 Leave Link  401 at Wed May 13 15:46:05 2020, MaxMem= 1073741824 cpu:       2.3
 (Enter /home/matheus/.gaussian/g09/l502.exe)
 Closed shell SCF:
 Requested convergence on RMS density matrix=1.00D-08 within 128 cycles.
 Requested convergence on MAX density matrix=1.00D-06.
 Requested convergence on             energy=1.00D-06.
 No special actions if energy rises.
 Using DIIS extrapolation, IDIIS=  1040.
 Integral symmetry usage will be decided dynamically.
        94980 words used for storage of precomputed grid.
 IEnd=      192360 IEndB=      192360 NGot=  1073741824 MDV=  1073591865
 LenX=  1073591865 LenY=  1073565824
 Fock matrices will be formed incrementally for  20 cycles.

 Cycle   1  Pass 1  IDiag  1:
 FoFJK:  IHMeth= 1 ICntrl=     0 DoSepK=T KAlg= 1 I1Cent= 0 FoldK=F
 FoFCou: FMM=F IPFlag=           0 FMFlag=      100000 FMFlg1=           0
         NFxFlg=           0 DoJE=T BraDBF=F KetDBF=F FulRan=T
         Omega=  0.000000  0.000000  1.000000  0.000000  0.000000 ICntrl=     500 IOpCl=  0
         NMat0=    1 NMatS0=    1 NMatT0=    0 NMatD0=    1 NMtDS0=    0 NMtDT0=    0
         I1Cent=           0 NGrid=           0.
 Symmetry not used in FoFCou.
 E= -151.326722901114    
 DIIS: error= 1.38D-05 at cycle   1 NSaved=   1.
 NSaved= 1 IEnMin= 1 EnMin= -151.326722901114     IErMin= 1 ErrMin= 1.38D-05
 ErrMax= 1.38D-05 EMaxC= 1.00D-01 BMatC= 3.71D-08 BMatP= 3.71D-08
 IDIUse=1 WtCom= 1.00D+00 WtEn= 0.00D+00
 Coeff-Com:  0.100D+01
 Coeff:      0.100D+01
 Gap=     0.460 Goal=   None    Shift=    0.000
 RMSDP=1.17D-06 MaxDP=2.44D-05              OVMax= 5.81D-05

 Cycle   2  Pass 1  IDiag  1:
 RMSU=  8.27D-07    CP:  1.00D+00
 FoFJK:  IHMeth= 1 ICntrl=     0 DoSepK=T KAlg= 1 I1Cent= 0 FoldK=F
 E= -151.326722936865     Delta-E=       -0.000000035751 Rises=F Damp=F
 DIIS: error= 2.89D-06 at cycle   2 NSaved=   2.
 NSaved= 2 IEnMin= 2 EnMin= -151.326722936865     IErMin= 2 ErrMin= 2.89D-06
 ErrMax= 2.89D-06 EMaxC= 1.00D-01 BMatC= 1.51D-09 BMatP= 3.71D-08
 IDIUse=1 WtCom= 1.00D+00 WtEn= 0.00D+00
 Coeff-Com: -0.132D+00 0.113D+01
 Coeff:     -0.132D+00 0.113D+01
 Gap=     0.460 Goal=   None    Shift=    0.000
 RMSDP=3.62D-07 MaxDP=8.50D-06 DE=-3.58D-08 OVMax= 2.56D-05

 Cycle   3  Pass 1  IDiag  1:
 RMSU=  1.42D-07    CP:  1.00D+00  1.26D+00
 FoFJK:  IHMeth= 1 ICntrl=     0 DoSepK=T KAlg= 1 I1Cent= 0 FoldK=F
 E= -151.326722940308     Delta-E=       -0.000000003443 Rises=F Damp=F
 DIIS: error= 1.24D-06 at cycle   3 NSaved=   3.
 NSaved= 3 IEnMin= 3 EnMin= -151.326722940308     IErMin= 3 ErrMin= 1.24D-06
 ErrMax= 1.24D-06 EMaxC= 1.00D-01 BMatC= 2.54D-10 BMatP= 1.51D-09
 IDIUse=1 WtCom= 1.00D+00 WtEn= 0.00D+00
 Coeff-Com: -0.395D-01 0.152D+00 0.888D+00
 Coeff:     -0.395D-01 0.152D+00 0.888D+00
 Gap=     0.460 Goal=   None    Shift=    0.000
 RMSDP=1.17D-07 MaxDP=2.85D-06 DE=-3.44D-09 OVMax= 7.82D-06

 Cycle   4  Pass 1  IDiag  1:
 RMSU=  6.48D-08    CP:  1.00D+00  1.31D+00  1.20D+00
 FoFJK:  IHMeth= 1 ICntrl=     0 DoSepK=T KAlg= 1 I1Cent= 0 FoldK=F
 E= -151.326722940637     Delta-E=       -0.000000000329 Rises=F Damp=F
 DIIS: error= 8.83D-07 at cycle   4 NSaved=   4.
 NSaved= 4 IEnMin= 4 EnMin= -151.326722940637     IErMin= 4 ErrMin= 8.83D-07
 ErrMax= 8.83D-07 EMaxC= 1.00D-01 BMatC= 1.81D-10 BMatP= 2.54D-10
 IDIUse=1 WtCom= 1.00D+00 WtEn= 0.00D+00
 Coeff-Com:  0.988D-02-0.197D+00 0.512D+00 0.675D+00
 Coeff:      0.988D-02-0.197D+00 0.512D+00 0.675D+00
 Gap=     0.460 Goal=   None    Shift=    0.000
 RMSDP=6.75D-08 MaxDP=1.22D-06 DE=-3.29D-10 OVMax= 4.56D-06

 Cycle   5  Pass 1  IDiag  1:
 RMSU=  2.09D-08    CP:  1.00D+00  1.33D+00  1.46D+00  8.26D-01
 FoFJK:  IHMeth= 1 ICntrl=     0 DoSepK=T KAlg= 1 I1Cent= 0 FoldK=F
 E= -151.326722940814     Delta-E=       -0.000000000178 Rises=F Damp=F
 DIIS: error= 2.12D-07 at cycle   5 NSaved=   5.
 NSaved= 5 IEnMin= 5 EnMin= -151.326722940814     IErMin= 5 ErrMin= 2.12D-07
 ErrMax= 2.12D-07 EMaxC= 1.00D-01 BMatC= 4.62D-12 BMatP= 1.81D-10
 IDIUse=1 WtCom= 1.00D+00 WtEn= 0.00D+00
 Coeff-Com:  0.438D-02-0.269D-01-0.815D-01 0.257D-01 0.108D+01
 Coeff:      0.438D-02-0.269D-01-0.815D-01 0.257D-01 0.108D+01
 Gap=     0.460 Goal=   None    Shift=    0.000
 RMSDP=2.66D-08 MaxDP=4.73D-07 DE=-1.78D-10 OVMax= 2.50D-06

 Cycle   6  Pass 1  IDiag  1:
 RMSU=  6.99D-09    CP:  1.00D+00  1.34D+00  1.54D+00  9.59D-01  1.44D+00
 FoFJK:  IHMeth= 1 ICntrl=     0 DoSepK=T KAlg= 1 I1Cent= 0 FoldK=F
 E= -151.326722940830     Delta-E=       -0.000000000016 Rises=F Damp=F
 DIIS: error= 6.52D-08 at cycle   6 NSaved=   6.
 NSaved= 6 IEnMin= 6 EnMin= -151.326722940830     IErMin= 6 ErrMin= 6.52D-08
 ErrMax= 6.52D-08 EMaxC= 1.00D-01 BMatC= 4.80D-13 BMatP= 4.62D-12
 IDIUse=1 WtCom= 1.00D+00 WtEn= 0.00D+00
 Coeff-Com: -0.697D-03 0.160D-01-0.429D-01-0.542D-01 0.265D-01 0.106D+01
 Coeff:     -0.697D-03 0.160D-01-0.429D-01-0.542D-01 0.265D-01 0.106D+01
 Gap=     0.460 Goal=   None    Shift=    0.000
 RMSDP=9.76D-09 MaxDP=1.84D-07 DE=-1.63D-11 OVMax= 9.91D-07

 SCF Done:  E(RLC-B+HF-LYP) =  -151.326722941     A.U. after    6 cycles
             Convg  =    0.9758D-08             -V/T =  2.0057
 KE= 1.504623246919D+02 PE=-4.313961759093D+02 EE= 9.299061630691D+01
 Leave Link  502 at Wed May 13 15:46:12 2020, MaxMem= 1073741824 cpu:      50.1
 (Enter /home/matheus/.gaussian/g09/l122.exe)
 Restoring MOs from calculation   5 to rwf.
 Counterpoise: doing MCBS calculation for fragment   2
 Leave Link  122 at Wed May 13 15:46:12 2020, MaxMem= 1073741824 cpu:       0.0
 (Enter /home/matheus/.gaussian/g09/l301.exe)
 Basis read from rwf:  (5D, 7F)
 No pseudopotential information found on rwf file.
 There are    59 symmetry adapted basis functions of A   symmetry.
 Integral buffers will be    131072 words long.
 Raffenetti 2 integral format.
 Two-electron integral symmetry is turned on.
    59 basis functions,   217 primitive gaussians,    69 cartesian basis functions
    18 alpha electrons       18 beta electrons
       nuclear repulsion energy         0.0000000000 Hartrees.
 IExCor=10402 DFT=T Ex=LC-B+HF Corr=LYP ExCW=0 ScaHFX=  1.000000
 ScaDFX=  1.000000  1.000000  1.000000  1.000000 ScalE2=  1.000000  1.000000
 IRadAn=      5 IRanWt=     -1 IRanGd=            0 ICorTp=0
  HFx wShort=  0.000000 wLong=  0.470000 cFull=  0.000000 cShort=  0.000000 cLong=  1.000000
  DFx wShort=  0.000000 wLong=  0.470000 cFull=  0.000000 cShort=  0.000000 cLong=  1.000000
 NAtoms=    5 NActive=    1 NUniq=    1 SFac= 1.00D+00 NAtFMM=   60 NAOKFM=F Big=F
 No density basis found on file   718.
 Leave Link  301 at Wed May 13 15:46:12 2020, MaxMem= 1073741824 cpu:       0.2
 (Enter /home/matheus/.gaussian/g09/l302.exe)
 NPDir=0 NMtPBC=     1 NCelOv=     1 NCel=       1 NClECP=     1 NCelD=      1
         NCelK=      1 NCelE2=     1 NClLst=     1 CellRange=     0.0.
 One-electron integrals computed using PRISM.
 NBasis=    59 RedAO= T  NBF=    59
 NBsUse=    59 1.00D-06 NBFU=    59
 Precomputing XC quadrature grid using
 IXCGrd= 2 IRadAn=           5 IRanWt=          -1 IRanGd=           0 AccXCQ= 0.00D+00.
 NRdTot=      81 NPtTot=       30352 NUsed=       30981 NTot=       31013
 NSgBfM=    69    69    69    69    69 NAtAll=     1     1.
 Leave Link  302 at Wed May 13 15:46:12 2020, MaxMem= 1073741824 cpu:       0.6
 (Enter /home/matheus/.gaussian/g09/l303.exe)
 DipDrv:  MaxL=1.
 Leave Link  303 at Wed May 13 15:46:12 2020, MaxMem= 1073741824 cpu:       0.1
 (Enter /home/matheus/.gaussian/g09/l401.exe)
 Initial guess read from the read-write file.
 Guess basis will be translated and rotated to current coordinates.
 Initial guess orbital symmetries:
       Occupied  (A) (A) (A) (A) (A) (A) (A) (A) (A) (A) (A) (A)
                 (A) (A) (A) (A) (A) (A)
       Virtual   (A) (A) (A) (A) (A) (A) (A) (A) (A) (A) (A) (A)
                 (A) (A) (A) (A) (A) (A) (A) (A) (A) (A) (A) (A)
                 (A) (A) (A) (A) (A) (A) (A) (A) (A) (A) (A) (A)
                 (A) (A) (A) (A) (A)
 The electronic state of the initial guess is 1-A.
 Generating alternative initial guess.
 Harris functional with IExCor=10402 diagonalized for initial guess.
 ExpMin= 4.00D-02 ExpMax= 1.17D+07 ExpMxC= 1.33D+04 IAcc=3 IRadAn=         5 AccDes= 0.00D+00
 HarFok:  IExCor=10402 AccDes= 0.00D+00 IRadAn=         5 IDoV= 1
 ScaDFX=  1.000000  1.000000  1.000000  1.000000
 FoFCou: FMM=F IPFlag=           0 FMFlag=      100000 FMFlg1=           0
         NFxFlg=           0 DoJE=T BraDBF=F KetDBF=T FulRan=T
         Omega=  0.000000  0.000000  1.000000  0.000000  0.000000 ICntrl=     500 IOpCl=  0
         NMat0=    1 NMatS0=    1 NMatT0=    0 NMatD0=    1 NMtDS0=    0 NMtDT0=    0
         I1Cent=           4 NGrid=           0.
 Petite list used in FoFCou.
 DSYEVD returned Info=          89 IAlg= 4 N=    59 NDim=    59 NE2=    18198841 trying DSYEV.
 Harris En= -2744.51485235229    
 Leave Link  401 at Wed May 13 15:46:12 2020, MaxMem= 1073741824 cpu:       1.0
 (Enter /home/matheus/.gaussian/g09/l502.exe)
 Closed shell SCF:
 Requested convergence on RMS density matrix=1.00D-08 within 128 cycles.
 Requested convergence on MAX density matrix=1.00D-06.
 Requested convergence on             energy=1.00D-06.
 No special actions if energy rises.
 Using DIIS extrapolation, IDIIS=  1040.
 Integral symmetry usage will be decided dynamically.
        30923 words used for storage of precomputed grid.
 IEnd=       64406 IEndB=       64406 NGot=  1073741824 MDV=  1073698889
 LenX=  1073698889 LenY=  1073693687
 Fock matrices will be formed incrementally for  20 cycles.

 Cycle   1  Pass 1  IDiag  1:
 FoFJK:  IHMeth= 1 ICntrl=     0 DoSepK=T KAlg= 1 I1Cent= 0 FoldK=F
 FoFCou: FMM=F IPFlag=           0 FMFlag=      100000 FMFlg1=           0
         NFxFlg=           0 DoJE=T BraDBF=F KetDBF=F FulRan=T
         Omega=  0.000000  0.000000  1.000000  0.000000  0.000000 ICntrl=     500 IOpCl=  0
         NMat0=    1 NMatS0=    1 NMatT0=    0 NMatD0=    1 NMtDS0=    0 NMtDT0=    0
         I1Cent=           0 NGrid=           0.
 Symmetry not used in FoFCou.
 E= -2753.41754223393    
 DIIS: error= 6.13D-14 at cycle   1 NSaved=   1.
 NSaved= 1 IEnMin= 1 EnMin= -2753.41754223393     IErMin= 1 ErrMin= 6.13D-14
 ErrMax= 6.13D-14 EMaxC= 1.00D-01 BMatC= 1.58D-25 BMatP= 1.58D-25
 IDIUse=1 WtCom= 1.00D+00 WtEn= 0.00D+00
 Coeff-Com:  0.100D+01
 Coeff:      0.100D+01
 Gap=     0.595 Goal=   None    Shift=    0.000
 DSYEVD returned Info=          89 IAlg= 4 N=    59 NDim=    59 NE2=    18198197 trying DSYEV.
 RMSDP=4.63D-15 MaxDP=9.30D-14              OVMax= 4.17D-14

 SCF Done:  E(RLC-B+HF-LYP) =  -2753.41754223     A.U. after    1 cycles
             Convg  =    0.4632D-14             -V/T =  2.0015
 KE= 2.749372504928D+03 PE=-6.578588569976D+03 EE= 1.075798522814D+03
 Leave Link  502 at Wed May 13 15:46:13 2020, MaxMem= 1073741824 cpu:      11.6
 (Enter /home/matheus/.gaussian/g09/l122.exe)
 Restoring MOs from calculation   1 to rwf.
 Counterpoise: corrected energy =   -2904.744353192113
 Counterpoise: BSSE energy =       0.000024988823
 Leave Link  122 at Wed May 13 15:46:13 2020, MaxMem= 1073741824 cpu:       0.0
 (Enter /home/matheus/.gaussian/g09/l108.exe)
 Scan completed.

 Summary of the potential surface scan:
   N      R1          SCF    
 ----  ---------  -----------
    1     3.0000  -2753.41754
    2     3.1000  -2753.41754
    3     3.2000  -2753.41754
    4     3.3000  -2753.41754
    5     3.4000  -2753.41754
    6     3.5000  -2753.41754
    7     3.6000  -2753.41754
    8     3.7000  -2753.41754
    9     3.8000  -2753.41754
   10     3.9000  -2753.41754
   11     4.0000  -2753.41754
   12     4.1000  -2753.41754
   13     4.2000  -2753.41754
   14     4.3000  -2753.41754
   15     4.4000  -2753.41754
   16     4.5000  -2753.41754
   17     4.6000  -2753.41754
   18     4.7000  -2753.41754
   19     4.8000  -2753.41754
   20     4.9000  -2753.41754
   21     5.0000  -2753.41754
 ----  ---------  -----------
  
 Leave Link  108 at Wed May 13 15:46:13 2020, MaxMem= 1073741824 cpu:       0.0
 (Enter /home/matheus/.gaussian/g09/l9999.exe)
 1\1\GINC-REDGIANT\Scan\RLC-BLYP\Aug-CC-pVTZ\H2Kr1O2\MATHEUS\13-May-202
 0\1\\#p lc-blyp/aug-cc-PVTz int=ultrafine counterpoise=2 Scan\\TCC\\0,
 1\O,0,0.,0.,0.725\O,0,0.,0.,-0.725\H,0,0.8633149634,-0.3142209495,1.02
 35104166\H,0,0.,0.9187205947,-1.0235104166\Kr,0,0.,R1,0.\\R1=3.,s,20,0
 .1\\Version=EM64L-G09RevC.01\State=1-A\HF=-2753.4175422,-2753.4175422,
 -2753.4175422,-2753.4175422,-2753.4175422,-2753.4175422,-2753.4175422,
 -2753.4175422,-2753.4175422,-2753.4175422,-2753.4175422,-2753.4175422,
 -2753.4175422,-2753.4175422,-2753.4175422,-2753.4175422,-2753.4175422,
 -2753.4175422,-2753.4175422,-2753.4175422,-2753.4175422\RMSD=1.334e-09
 ,5.265e-11,1.630e-11,9.949e-12,5.943e-12,3.609e-12,2.185e-12,1.323e-12
 ,7.997e-13,4.833e-13,2.934e-13,1.802e-13,1.076e-13,6.464e-14,3.877e-14
 ,2.447e-14,1.550e-14,1.207e-14,1.255e-14,1.443e-14,4.632e-15\PG=C01 [X
 (H2Kr1O2)]\\@


 EDUCATION WITHOUT COMMON SENSE IS A LOAD OF BOOKS ON THE BACK OF AN ASS.
 Job cpu time:  0 days  3 hours 30 minutes 34.4 seconds.
 File lengths (MBytes):  RWF=     33 Int=      0 D2E=      0 Chk=      8 Scr=      1
 Normal termination of Gaussian 09 at Wed May 13 15:46:13 2020.
