 Entering Gaussian System, Link 0=g09
 Input=/home/matheus/.tcc/Inputs/Inputs-lc-blyp-default/H2O2-Kr_6.com
 Output=/home/matheus/.tcc/Logs/Logs-lc-blyp-default/H2O2-Kr_6.log
 Initial command:
 /home/matheus/.gaussian/g09/l1.exe /home/matheus/.gaussian/g09/scratch/Gau-23820.inp -scrdir=/home/matheus/.gaussian/g09/scratch/
 Entering Link 1 = /home/matheus/.gaussian/g09/l1.exe PID=     23824.
  
 Copyright (c) 1988,1990,1992,1993,1995,1998,2003,2009,2011,
            Gaussian, Inc.  All Rights Reserved.
  
 This is part of the Gaussian(R) 09 program.  It is based on
 the Gaussian(R) 03 system (copyright 2003, Gaussian, Inc.),
 the Gaussian(R) 98 system (copyright 1998, Gaussian, Inc.),
 the Gaussian(R) 94 system (copyright 1995, Gaussian, Inc.),
 the Gaussian 92(TM) system (copyright 1992, Gaussian, Inc.),
 the Gaussian 90(TM) system (copyright 1990, Gaussian, Inc.),
 the Gaussian 88(TM) system (copyright 1988, Gaussian, Inc.),
 the Gaussian 86(TM) system (copyright 1986, Carnegie Mellon
 University), and the Gaussian 82(TM) system (copyright 1983,
 Carnegie Mellon University). Gaussian is a federally registered
 trademark of Gaussian, Inc.
  
 This software contains proprietary and confidential information,
 including trade secrets, belonging to Gaussian, Inc.
  
 This software is provided under written license and may be
 used, copied, transmitted, or stored only in accord with that
 written license.
  
 The following legend is applicable only to US Government
 contracts under FAR:
  
                    RESTRICTED RIGHTS LEGEND
  
 Use, reproduction and disclosure by the US Government is
 subject to restrictions as set forth in subparagraphs (a)
 and (c) of the Commercial Computer Software - Restricted
 Rights clause in FAR 52.227-19.
  
 Gaussian, Inc.
 340 Quinnipiac St., Bldg. 40, Wallingford CT 06492
  
  
 ---------------------------------------------------------------
 Warning -- This program may not be used in any manner that
 competes with the business of Gaussian, Inc. or will provide
 assistance to any competitor of Gaussian, Inc.  The licensee
 of this program is prohibited from giving any competitor of
 Gaussian, Inc. access to this program.  By using this program,
 the user acknowledges that Gaussian, Inc. is engaged in the
 business of creating and licensing software in the field of
 computational chemistry and represents and warrants to the
 licensee that it is not a competitor of Gaussian, Inc. and that
 it will not use this program in any manner prohibited above.
 ---------------------------------------------------------------
  

 Cite this work as:
 Gaussian 09, Revision C.01,
 M. J. Frisch, G. W. Trucks, H. B. Schlegel, G. E. Scuseria, 
 M. A. Robb, J. R. Cheeseman, G. Scalmani, V. Barone, B. Mennucci, 
 G. A. Petersson, H. Nakatsuji, M. Caricato, X. Li, H. P. Hratchian, 
 A. F. Izmaylov, J. Bloino, G. Zheng, J. L. Sonnenberg, M. Hada, 
 M. Ehara, K. Toyota, R. Fukuda, J. Hasegawa, M. Ishida, T. Nakajima, 
 Y. Honda, O. Kitao, H. Nakai, T. Vreven, J. A. Montgomery, Jr., 
 J. E. Peralta, F. Ogliaro, M. Bearpark, J. J. Heyd, E. Brothers, 
 K. N. Kudin, V. N. Staroverov, T. Keith, R. Kobayashi, J. Normand, 
 K. Raghavachari, A. Rendell, J. C. Burant, S. S. Iyengar, J. Tomasi, 
 M. Cossi, N. Rega, J. M. Millam, M. Klene, J. E. Knox, J. B. Cross, 
 V. Bakken, C. Adamo, J. Jaramillo, R. Gomperts, R. E. Stratmann, 
 O. Yazyev, A. J. Austin, R. Cammi, C. Pomelli, J. W. Ochterski, 
 R. L. Martin, K. Morokuma, V. G. Zakrzewski, G. A. Voth, 
 P. Salvador, J. J. Dannenberg, S. Dapprich, A. D. Daniels, 
 O. Farkas, J. B. Foresman, J. V. Ortiz, J. Cioslowski, 
 and D. J. Fox, Gaussian, Inc., Wallingford CT, 2010.
 
 ******************************************
 Gaussian 09:  EM64L-G09RevC.01 23-Sep-2011
                13-May-2020 
 ******************************************
 %mem=8GB
 %nproc=8
 Will use up to    8 processors via shared memory.
 --------------------------------------------------------
 #p lc-blyp/aug-cc-PVTz int=ultrafine counterpoise=2 Scan
 --------------------------------------------------------
 1/38=1,60=1,62=2/1,8;
 2/12=2,17=6,18=5,29=3,40=1/2;
 1/38=1,53=5172,62=2/22;
 3/5=16,6=1,7=10,11=2,16=1,25=1,30=1,74=1000402,75=-5/1,2,3;
 4//1;
 5/5=2,38=5/2;
 6/7=2,8=2,9=2,10=2,18=1,28=1/1;
 1/53=4052,62=2,63=1/22;
 3/5=7,6=11,7=10,11=2,16=1,25=1,30=1,74=1000402,75=-5,82=7/1,2,3;
 4//1;
 5/5=2,38=5/2;
 6/7=2,8=2,9=2,10=2,18=1,28=1/1;
 1/53=3042,62=2,63=2/22;
 3/5=7,6=11,7=10,11=2,16=1,25=1,30=1,74=1000402,75=-5,82=7/1,2,3;
 4//1;
 5/5=2,38=5/2;
 6/7=2,8=2,9=2,10=2,18=1,28=1/1;
 1/53=2032,62=2,63=3/22;
 3/5=7,6=11,7=10,11=2,16=1,25=1,30=1,74=1000402,75=-5,82=7/1,2,3;
 4//1;
 5/5=2,38=5/2;
 6/7=2,8=2,9=2,10=2,18=1,28=1/1;
 1/53=1022,62=2,63=4/22;
 3/5=7,6=11,7=10,11=2,16=1,25=1,30=1,74=1000402,75=-5,82=7/1,2,3;
 4//1;
 5/5=2,38=5/2;
 6/7=2,8=2,9=2,10=2,18=1,28=1/1;
 1/53=5014,62=2,63=5/22;
 1/60=1,62=2/8(1);
 99/9=1/99;
 2/29=3/2;
 1/53=5173,62=2/22;
 3/5=7,6=11,7=10,11=2,16=1,25=1,30=1,74=1000402,75=-5,82=7/1,2,3;
 4/5=5,16=3/1;
 5/5=2,38=5/2;
 1/53=4053,62=2,63=1/22;
 3/5=7,6=11,7=10,11=2,16=1,25=1,30=1,74=1000402,75=-5,82=7/1,2,3;
 4/5=5,16=3/1;
 5/5=2,38=5/2;
 1/53=3043,62=2,63=2/22;
 3/5=7,6=11,7=10,11=2,16=1,25=1,30=1,74=1000402,75=-5,82=7/1,2,3;
 4/5=5,16=3/1;
 5/5=2,38=5/2;
 1/53=2033,62=2,63=3/22;
 3/5=7,6=11,7=10,11=2,16=1,25=1,30=1,74=1000402,75=-5,82=7/1,2,3;
 4/5=5,16=3/1;
 5/5=2,38=5/2;
 1/53=1024,62=2,63=4/22;
 3/5=7,6=11,7=10,11=2,16=1,25=1,30=1,74=1000402,75=-5,82=7/1,2,3;
 4/5=5,16=3/1;
 5/5=2,38=5/2;
 1/53=5014,62=2,63=5/22;
 1/60=1,62=2/8(-22);
 99/9=1/99;
 Leave Link    1 at Wed May 13 13:12:54 2020, MaxMem= 1073741824 cpu:       0.2
 (Enter /home/matheus/.gaussian/g09/l101.exe)
 ---
 TCC
 ---
 Charge =  0 Multiplicity = 1 in supermolecule
 Charge =  0 Multiplicity = 1 in fragment  1.
 Charge =  0 Multiplicity = 1 in fragment  2.
 Symbolic Z-Matrix:
 O(Fragment=1)         0.        0.        0.725 
 O(Fragment=1)         0.        0.       -0.725 
 H(Fragment=1)         0.79564   0.45936   1.02351 
 H(Fragment=1)         0.        0.91872  -1.02351 
 Kr(Fragment=2)        0.       R1        0. 
       Variables:
  R1                    3.     Scan 20    0.1    
 
 NAtoms=      5 NQM=        0 NQMF=       0 NMMI=      5 NMMIF=      0
                NMic=       0 NMicF=      0.
                    Isotopes and Nuclear Properties:
 (Nuclear quadrupole moments (NQMom) in fm**2, nuclear magnetic moments (NMagM)
  in nuclear magnetons)

  Atom         1           2           3           4           5
 IAtWgt=          16          16           1           1          84
 AtmWgt=  15.9949146  15.9949146   1.0078250   1.0078250  83.9115064
 NucSpn=           0           0           1           1           0
 AtZEff=   0.0000000   0.0000000   0.0000000   0.0000000   0.0000000
 NQMom=    0.0000000   0.0000000   0.0000000   0.0000000   0.0000000
 NMagM=    0.0000000   0.0000000   2.7928460   2.7928460   0.0000000
 Leave Link  101 at Wed May 13 13:12:54 2020, MaxMem= 1073741824 cpu:       0.3
 (Enter /home/matheus/.gaussian/g09/l108.exe)
 Scan the potential surface.
 Variable   Value     No. Steps Step-Size
 -------- ----------- --------- ---------
     1       3.000000      20      0.1000
 A total of     21 points will be computed.
 Leave Link  108 at Wed May 13 13:12:54 2020, MaxMem= 1073741824 cpu:       0.0
 (Enter /home/matheus/.gaussian/g09/l202.exe)
 ---------------------------------------------------------------------------------------------------
                            Z-MATRIX (ANGSTROMS AND DEGREES)
   CD    Cent   Atom    N1       Length/X        N2       Alpha/Y        N3        Beta/Z          J
 ---------------------------------------------------------------------------------------------------
      1      1  O        0   0.000000          0.000000          0.725000
      2      2  O        0   0.000000          0.000000         -0.725000
      3      3  H        0   0.795635          0.459360          1.023510
      4      4  H        0   0.000000          0.918721         -1.023510
      5      5  Kr       0   0.000000          3.000000          0.000000
 ---------------------------------------------------------------------------------------------------
                         Z-Matrix orientation:                         
 ---------------------------------------------------------------------
 Center     Atomic      Atomic             Coordinates (Angstroms)
 Number     Number       Type             X           Y           Z
 ---------------------------------------------------------------------
      1          8           0        0.000000    0.000000    0.725000
      2          8           0        0.000000    0.000000   -0.725000
      3          1           0        0.795635    0.459360    1.023510
      4          1           0        0.000000    0.918721   -1.023510
      5         36           0        0.000000    3.000000    0.000000
 ---------------------------------------------------------------------
                    Distance matrix (angstroms):
                    1          2          3          4          5
     1  O    0.000000
     2  O    1.450000   0.000000
     3  H    0.966000   1.975180   0.000000
     4  H    1.975180   0.966000   2.243734   0.000000
     5  Kr   3.086361   3.086361   2.852273   2.319331   0.000000
 Stoichiometry    H2KrO2
 Framework group  C1[X(H2KrO2)]
 Deg. of freedom     9
 Full point group                 C1      NOp   1
 Largest Abelian subgroup         C1      NOp   1
 Largest concise Abelian subgroup C1      NOp   1
                         Standard orientation:                         
 ---------------------------------------------------------------------
 Center     Atomic      Atomic             Coordinates (Angstroms)
 Number     Number       Type             X           Y           Z
 ---------------------------------------------------------------------
      1          8           0        2.028906   -0.709015   -0.097019
      2          8           0        2.021423    0.736213    0.020285
      3          1           0        1.580792   -1.073669    0.677176
      4          1           0        1.101242    1.028113    0.055175
      5         36           0       -0.974574   -0.004779   -0.003291
 ---------------------------------------------------------------------
 Rotational constants (GHZ):     25.8520084      2.3670759      2.1795084
 Leave Link  202 at Wed May 13 13:12:55 2020, MaxMem= 1073741824 cpu:       0.0
 (Enter /home/matheus/.gaussian/g09/l122.exe)
 Leave Link  122 at Wed May 13 13:12:55 2020, MaxMem= 1073741824 cpu:       0.0
 (Enter /home/matheus/.gaussian/g09/l301.exe)
 Standard basis: Aug-CC-pVTZ (5D, 7F)
 Ernie: Thresh=  0.10000D-02 Tol=  0.10000D-05 Strict=F.
 Ernie:  38 primitive shells out of 205 were deleted.
 There are   197 symmetry adapted basis functions of A   symmetry.
 Integral buffers will be    131072 words long.
 Raffenetti 2 integral format.
 Two-electron integral symmetry is turned on.
   197 basis functions,   415 primitive gaussians,   229 cartesian basis functions
    27 alpha electrons       27 beta electrons
       nuclear repulsion energy       150.2958872335 Hartrees.
 IExCor=10402 DFT=T Ex=LC-B+HF Corr=LYP ExCW=0 ScaHFX=  1.000000
 ScaDFX=  1.000000  1.000000  1.000000  1.000000 ScalE2=  1.000000  1.000000
 IRadAn=      5 IRanWt=     -1 IRanGd=            0 ICorTp=0
  HFx wShort=  0.000000 wLong=  0.470000 cFull=  0.000000 cShort=  0.000000 cLong=  1.000000
  DFx wShort=  0.000000 wLong=  0.470000 cFull=  0.000000 cShort=  0.000000 cLong=  1.000000
 NAtoms=    5 NActive=    5 NUniq=    5 SFac= 1.00D+00 NAtFMM=   60 NAOKFM=F Big=F
 Leave Link  301 at Wed May 13 13:12:55 2020, MaxMem= 1073741824 cpu:       0.2
 (Enter /home/matheus/.gaussian/g09/l302.exe)
 NPDir=0 NMtPBC=     1 NCelOv=     1 NCel=       1 NClECP=     1 NCelD=      1
         NCelK=      1 NCelE2=     1 NClLst=     1 CellRange=     0.0.
 One-electron integrals computed using PRISM.
 NBasis=   197 RedAO= T  NBF=   197
 NBsUse=   197 1.00D-06 NBFU=   197
 Precomputing XC quadrature grid using
 IXCGrd= 2 IRadAn=           5 IRanWt=          -1 IRanGd=           0 AccXCQ= 0.00D+00.
 NRdTot=     427 NPtTot=      123512 NUsed=      126579 NTot=      126611
 NSgBfM=   229   229   229   229   229 NAtAll=     5     5.
 Leave Link  302 at Wed May 13 13:12:55 2020, MaxMem= 1073741824 cpu:       0.9
 (Enter /home/matheus/.gaussian/g09/l303.exe)
 DipDrv:  MaxL=1.
 Leave Link  303 at Wed May 13 13:12:55 2020, MaxMem= 1073741824 cpu:       0.2
 (Enter /home/matheus/.gaussian/g09/l401.exe)
 Harris functional with IExCor=10402 diagonalized for initial guess.
 ExpMin= 2.53D-02 ExpMax= 1.17D+07 ExpMxC= 1.33D+04 IAcc=3 IRadAn=         5 AccDes= 0.00D+00
 HarFok:  IExCor=10402 AccDes= 0.00D+00 IRadAn=         5 IDoV= 1
 ScaDFX=  1.000000  1.000000  1.000000  1.000000
 FoFCou: FMM=F IPFlag=           0 FMFlag=      100000 FMFlg1=           0
         NFxFlg=           0 DoJE=T BraDBF=F KetDBF=T FulRan=T
         Omega=  0.000000  0.000000  1.000000  0.000000  0.000000 ICntrl=     500 IOpCl=  0
         NMat0=    1 NMatS0=    1 NMatT0=    0 NMatD0=    1 NMtDS0=    0 NMtDT0=    0
         I1Cent=           4 NGrid=           0.
 Petite list used in FoFCou.
 Harris En= -2891.66994580704    
 Initial guess orbital symmetries:
       Occupied  (A) (A) (A) (A) (A) (A) (A) (A) (A) (A) (A) (A)
                 (A) (A) (A) (A) (A) (A) (A) (A) (A) (A) (A) (A)
                 (A) (A) (A)
       Virtual   (A) (A) (A) (A) (A) (A) (A) (A) (A) (A) (A) (A)
                 (A) (A) (A) (A) (A) (A) (A) (A) (A) (A) (A) (A)
                 (A) (A) (A) (A) (A) (A) (A) (A) (A) (A) (A) (A)
                 (A) (A) (A) (A) (A) (A) (A) (A) (A) (A) (A) (A)
                 (A) (A) (A) (A) (A) (A) (A) (A) (A) (A) (A) (A)
                 (A) (A) (A) (A) (A) (A) (A) (A) (A) (A) (A) (A)
                 (A) (A) (A) (A) (A) (A) (A) (A) (A) (A) (A) (A)
                 (A) (A) (A) (A) (A) (A) (A) (A) (A) (A) (A) (A)
                 (A) (A) (A) (A) (A) (A) (A) (A) (A) (A) (A) (A)
                 (A) (A) (A) (A) (A) (A) (A) (A) (A) (A) (A) (A)
                 (A) (A) (A) (A) (A) (A) (A) (A) (A) (A) (A) (A)
                 (A) (A) (A) (A) (A) (A) (A) (A) (A) (A) (A) (A)
                 (A) (A) (A) (A) (A) (A) (A) (A) (A) (A) (A) (A)
                 (A) (A) (A) (A) (A) (A) (A) (A) (A) (A) (A) (A)
                 (A) (A)
 The electronic state of the initial guess is 1-A.
 Leave Link  401 at Wed May 13 13:12:55 2020, MaxMem= 1073741824 cpu:       4.0
 (Enter /home/matheus/.gaussian/g09/l502.exe)
 Closed shell SCF:
 Requested convergence on RMS density matrix=1.00D-08 within 128 cycles.
 Requested convergence on MAX density matrix=1.00D-06.
 Requested convergence on             energy=1.00D-06.
 No special actions if energy rises.
 Using DIIS extrapolation, IDIIS=  1040.
 Integral symmetry usage will be decided dynamically.
       126521 words used for storage of precomputed grid.
 IEnd=      305468 IEndB=      305468 NGot=  1073741824 MDV=  1073505667
 LenX=  1073505667 LenY=  1073452785
 Fock matrices will be formed incrementally for  20 cycles.

 Cycle   1  Pass 1  IDiag  1:
 FoFJK:  IHMeth= 1 ICntrl=     0 DoSepK=T KAlg= 1 I1Cent= 0 FoldK=F
 FoFCou: FMM=F IPFlag=           0 FMFlag=      100000 FMFlg1=           0
         NFxFlg=           0 DoJE=T BraDBF=F KetDBF=F FulRan=T
         Omega=  0.000000  0.000000  1.000000  0.000000  0.000000 ICntrl=     500 IOpCl=  0
         NMat0=    1 NMatS0=    1 NMatT0=    0 NMatD0=    1 NMtDS0=    0 NMtDT0=    0
         I1Cent=           0 NGrid=           0.
 Symmetry not used in FoFCou.
 E= -2904.62988448651    
 DIIS: error= 2.73D-02 at cycle   1 NSaved=   1.
 NSaved= 1 IEnMin= 1 EnMin= -2904.62988448651     IErMin= 1 ErrMin= 2.73D-02
 ErrMax= 2.73D-02 EMaxC= 1.00D-01 BMatC= 2.87D-01 BMatP= 2.87D-01
 IDIUse=3 WtCom= 7.27D-01 WtEn= 2.73D-01
 Coeff-Com:  0.100D+01
 Coeff-En:   0.100D+01
 Coeff:      0.100D+01
 Gap=     0.482 Goal=   None    Shift=    0.000
 GapD=    0.482 DampG=2.000 DampE=0.500 DampFc=1.0000 IDamp=-1.
 RMSDP=2.66D-03 MaxDP=1.53D-01              OVMax= 1.08D-01

 Cycle   2  Pass 1  IDiag  1:
 RMSU=  1.83D-03    CP:  1.02D+00
 FoFJK:  IHMeth= 1 ICntrl=     0 DoSepK=T KAlg= 1 I1Cent= 0 FoldK=F
 E= -2904.70783748129     Delta-E=       -0.077952994773 Rises=F Damp=F
 DIIS: error= 1.30D-02 at cycle   2 NSaved=   2.
 NSaved= 2 IEnMin= 2 EnMin= -2904.70783748129     IErMin= 2 ErrMin= 1.30D-02
 ErrMax= 1.30D-02 EMaxC= 1.00D-01 BMatC= 9.38D-02 BMatP= 2.87D-01
 IDIUse=3 WtCom= 8.70D-01 WtEn= 1.30D-01
 Coeff-Com:  0.359D+00 0.641D+00
 Coeff-En:   0.258D-01 0.974D+00
 Coeff:      0.316D+00 0.684D+00
 Gap=     0.448 Goal=   None    Shift=    0.000
 RMSDP=1.02D-03 MaxDP=6.29D-02 DE=-7.80D-02 OVMax= 3.20D-02

 Cycle   3  Pass 1  IDiag  1:
 RMSU=  3.28D-04    CP:  1.01D+00  6.60D-01
 FoFJK:  IHMeth= 1 ICntrl=     0 DoSepK=T KAlg= 1 I1Cent= 0 FoldK=F
 E= -2904.73894758032     Delta-E=       -0.031110099037 Rises=F Damp=F
 DIIS: error= 1.36D-03 at cycle   3 NSaved=   3.
 NSaved= 3 IEnMin= 3 EnMin= -2904.73894758032     IErMin= 3 ErrMin= 1.36D-03
 ErrMax= 1.36D-03 EMaxC= 1.00D-01 BMatC= 1.19D-03 BMatP= 9.38D-02
 IDIUse=3 WtCom= 9.86D-01 WtEn= 1.36D-02
 Coeff-Com:  0.434D-02 0.989D-01 0.897D+00
 Coeff-En:   0.000D+00 0.000D+00 0.100D+01
 Coeff:      0.428D-02 0.976D-01 0.898D+00
 Gap=     0.452 Goal=   None    Shift=    0.000
 RMSDP=1.52D-04 MaxDP=6.34D-03 DE=-3.11D-02 OVMax= 6.80D-03

 Cycle   4  Pass 1  IDiag  1:
 RMSU=  6.69D-05    CP:  1.02D+00  7.02D-01  1.10D+00
 FoFJK:  IHMeth= 1 ICntrl=     0 DoSepK=T KAlg= 1 I1Cent= 0 FoldK=F
 E= -2904.73944855948     Delta-E=       -0.000500979152 Rises=F Damp=F
 DIIS: error= 4.36D-04 at cycle   4 NSaved=   4.
 NSaved= 4 IEnMin= 4 EnMin= -2904.73944855948     IErMin= 4 ErrMin= 4.36D-04
 ErrMax= 4.36D-04 EMaxC= 1.00D-01 BMatC= 7.33D-05 BMatP= 1.19D-03
 IDIUse=3 WtCom= 9.96D-01 WtEn= 4.36D-03
 Coeff-Com: -0.119D-01 0.105D-01 0.295D+00 0.706D+00
 Coeff-En:   0.000D+00 0.000D+00 0.000D+00 0.100D+01
 Coeff:     -0.118D-01 0.105D-01 0.294D+00 0.708D+00
 Gap=     0.448 Goal=   None    Shift=    0.000
 RMSDP=3.73D-05 MaxDP=1.51D-03 DE=-5.01D-04 OVMax= 1.90D-03

 Cycle   5  Pass 1  IDiag  1:
 RMSU=  2.10D-05    CP:  1.02D+00  7.05D-01  1.15D+00  9.80D-01
 FoFJK:  IHMeth= 1 ICntrl=     0 DoSepK=T KAlg= 1 I1Cent= 0 FoldK=F
 E= -2904.73949767105     Delta-E=       -0.000049111570 Rises=F Damp=F
 DIIS: error= 1.33D-04 at cycle   5 NSaved=   5.
 NSaved= 5 IEnMin= 5 EnMin= -2904.73949767105     IErMin= 5 ErrMin= 1.33D-04
 ErrMax= 1.33D-04 EMaxC= 1.00D-01 BMatC= 9.09D-06 BMatP= 7.33D-05
 IDIUse=3 WtCom= 9.99D-01 WtEn= 1.33D-03
 Coeff-Com: -0.371D-02-0.638D-02-0.612D-02 0.241D+00 0.775D+00
 Coeff-En:   0.000D+00 0.000D+00 0.000D+00 0.000D+00 0.100D+01
 Coeff:     -0.370D-02-0.638D-02-0.611D-02 0.241D+00 0.776D+00
 Gap=     0.449 Goal=   None    Shift=    0.000
 RMSDP=1.51D-05 MaxDP=4.89D-04 DE=-4.91D-05 OVMax= 9.86D-04

 Cycle   6  Pass 1  IDiag  1:
 RMSU=  6.23D-06    CP:  1.02D+00  7.06D-01  1.17D+00  1.07D+00  9.93D-01
 FoFJK:  IHMeth= 1 ICntrl=     0 DoSepK=T KAlg= 1 I1Cent= 0 FoldK=F
 E= -2904.73950499317     Delta-E=       -0.000007322119 Rises=F Damp=F
 DIIS: error= 5.65D-05 at cycle   6 NSaved=   6.
 NSaved= 6 IEnMin= 6 EnMin= -2904.73950499317     IErMin= 6 ErrMin= 5.65D-05
 ErrMax= 5.65D-05 EMaxC= 1.00D-01 BMatC= 1.37D-06 BMatP= 9.09D-06
 IDIUse=1 WtCom= 1.00D+00 WtEn= 0.00D+00
 Coeff-Com: -0.525D-03-0.363D-02-0.249D-01 0.328D-01 0.310D+00 0.686D+00
 Coeff:     -0.525D-03-0.363D-02-0.249D-01 0.328D-01 0.310D+00 0.686D+00
 Gap=     0.449 Goal=   None    Shift=    0.000
 RMSDP=5.41D-06 MaxDP=1.87D-04 DE=-7.32D-06 OVMax= 3.39D-04

 Cycle   7  Pass 1  IDiag  1:
 RMSU=  2.39D-06    CP:  1.02D+00  7.06D-01  1.17D+00  1.10D+00  1.08D+00
                    CP:  9.85D-01
 FoFJK:  IHMeth= 1 ICntrl=     0 DoSepK=T KAlg= 1 I1Cent= 0 FoldK=F
 E= -2904.73950596959     Delta-E=       -0.000000976425 Rises=F Damp=F
 DIIS: error= 2.24D-05 at cycle   7 NSaved=   7.
 NSaved= 7 IEnMin= 7 EnMin= -2904.73950596959     IErMin= 7 ErrMin= 2.24D-05
 ErrMax= 2.24D-05 EMaxC= 1.00D-01 BMatC= 2.05D-07 BMatP= 1.37D-06
 IDIUse=1 WtCom= 1.00D+00 WtEn= 0.00D+00
 Coeff-Com:  0.137D-03-0.118D-02-0.106D-01-0.213D-01 0.206D-01 0.301D+00
 Coeff-Com:  0.711D+00
 Coeff:      0.137D-03-0.118D-02-0.106D-01-0.213D-01 0.206D-01 0.301D+00
 Coeff:      0.711D+00
 Gap=     0.449 Goal=   None    Shift=    0.000
 RMSDP=2.00D-06 MaxDP=5.34D-05 DE=-9.76D-07 OVMax= 1.05D-04

 Cycle   8  Pass 1  IDiag  1:
 RMSU=  6.41D-07    CP:  1.02D+00  7.06D-01  1.17D+00  1.11D+00  1.11D+00
                    CP:  1.10D+00  9.24D-01
 FoFJK:  IHMeth= 1 ICntrl=     0 DoSepK=T KAlg= 1 I1Cent= 0 FoldK=F
 E= -2904.73950613659     Delta-E=       -0.000000166998 Rises=F Damp=F
 DIIS: error= 3.79D-06 at cycle   8 NSaved=   8.
 NSaved= 8 IEnMin= 8 EnMin= -2904.73950613659     IErMin= 8 ErrMin= 3.79D-06
 ErrMax= 3.79D-06 EMaxC= 1.00D-01 BMatC= 2.95D-09 BMatP= 2.05D-07
 IDIUse=1 WtCom= 1.00D+00 WtEn= 0.00D+00
 Coeff-Com:  0.201D-04 0.254D-03 0.205D-02-0.577D-03-0.208D-01-0.589D-01
 Coeff-Com: -0.380D-01 0.112D+01
 Coeff:      0.201D-04 0.254D-03 0.205D-02-0.577D-03-0.208D-01-0.589D-01
 Coeff:     -0.380D-01 0.112D+01
 Gap=     0.449 Goal=   None    Shift=    0.000
 RMSDP=5.77D-07 MaxDP=1.48D-05 DE=-1.67D-07 OVMax= 4.77D-05

 Cycle   9  Pass 1  IDiag  1:
 RMSU=  1.64D-07    CP:  1.02D+00  7.06D-01  1.17D+00  1.11D+00  1.12D+00
                    CP:  1.13D+00  9.90D-01  1.32D+00
 FoFJK:  IHMeth= 1 ICntrl=     0 DoSepK=T KAlg= 1 I1Cent= 0 FoldK=F
 E= -2904.73950614478     Delta-E=       -0.000000008187 Rises=F Damp=F
 DIIS: error= 7.39D-07 at cycle   9 NSaved=   9.
 NSaved= 9 IEnMin= 9 EnMin= -2904.73950614478     IErMin= 9 ErrMin= 7.39D-07
 ErrMax= 7.39D-07 EMaxC= 1.00D-01 BMatC= 2.29D-10 BMatP= 2.95D-09
 IDIUse=1 WtCom= 1.00D+00 WtEn= 0.00D+00
 Coeff-Com: -0.294D-05 0.126D-03 0.852D-03 0.149D-02-0.258D-02-0.247D-01
 Coeff-Com: -0.523D-01 0.922D-01 0.985D+00
 Coeff:     -0.294D-05 0.126D-03 0.852D-03 0.149D-02-0.258D-02-0.247D-01
 Coeff:     -0.523D-01 0.922D-01 0.985D+00
 Gap=     0.449 Goal=   None    Shift=    0.000
 RMSDP=1.30D-07 MaxDP=2.57D-06 DE=-8.19D-09 OVMax= 1.08D-05

 Cycle  10  Pass 1  IDiag  1:
 RMSU=  4.70D-08    CP:  1.02D+00  7.06D-01  1.17D+00  1.11D+00  1.12D+00
                    CP:  1.13D+00  9.98D-01  1.40D+00  1.20D+00
 FoFJK:  IHMeth= 1 ICntrl=     0 DoSepK=T KAlg= 1 I1Cent= 0 FoldK=F
 E= -2904.73950614531     Delta-E=       -0.000000000533 Rises=F Damp=F
 DIIS: error= 2.14D-07 at cycle  10 NSaved=  10.
 NSaved=10 IEnMin=10 EnMin= -2904.73950614531     IErMin=10 ErrMin= 2.14D-07
 ErrMax= 2.14D-07 EMaxC= 1.00D-01 BMatC= 1.12D-11 BMatP= 2.29D-10
 IDIUse=1 WtCom= 1.00D+00 WtEn= 0.00D+00
 Coeff-Com: -0.157D-06-0.134D-04-0.124D-03 0.420D-05 0.111D-02 0.364D-02
 Coeff-Com:  0.357D-02-0.663D-01 0.338D-02 0.105D+01
 Coeff:     -0.157D-06-0.134D-04-0.124D-03 0.420D-05 0.111D-02 0.364D-02
 Coeff:      0.357D-02-0.663D-01 0.338D-02 0.105D+01
 Gap=     0.449 Goal=   None    Shift=    0.000
 RMSDP=3.65D-08 MaxDP=8.71D-07 DE=-5.33D-10 OVMax= 3.59D-06

 Cycle  11  Pass 1  IDiag  1:
 RMSU=  1.29D-08    CP:  1.02D+00  7.06D-01  1.17D+00  1.11D+00  1.12D+00
                    CP:  1.13D+00  9.98D-01  1.41D+00  1.28D+00  1.27D+00
 FoFJK:  IHMeth= 1 ICntrl=     0 DoSepK=T KAlg= 1 I1Cent= 0 FoldK=F
 E= -2904.73950614537     Delta-E=       -0.000000000057 Rises=F Damp=F
 DIIS: error= 7.69D-08 at cycle  11 NSaved=  11.
 NSaved=11 IEnMin=11 EnMin= -2904.73950614537     IErMin=11 ErrMin= 7.69D-08
 ErrMax= 7.69D-08 EMaxC= 1.00D-01 BMatC= 1.18D-12 BMatP= 1.12D-11
 IDIUse=1 WtCom= 1.00D+00 WtEn= 0.00D+00
 Coeff-Com: -0.228D-06-0.110D-04-0.614D-04-0.108D-03 0.109D-03 0.167D-02
 Coeff-Com:  0.416D-02-0.329D-02-0.740D-01-0.995D-01 0.117D+01
 Coeff:     -0.228D-06-0.110D-04-0.614D-04-0.108D-03 0.109D-03 0.167D-02
 Coeff:      0.416D-02-0.329D-02-0.740D-01-0.995D-01 0.117D+01
 Gap=     0.449 Goal=   None    Shift=    0.000
 RMSDP=1.36D-08 MaxDP=3.14D-07 DE=-5.73D-11 OVMax= 1.73D-06

 Cycle  12  Pass 1  IDiag  1:
 RMSU=  3.85D-09    CP:  1.02D+00  7.06D-01  1.17D+00  1.11D+00  1.11D+00
                    CP:  1.13D+00  9.97D-01  1.41D+00  1.29D+00  1.39D+00
                    CP:  1.42D+00
 FoFJK:  IHMeth= 1 ICntrl=     0 DoSepK=T KAlg= 1 I1Cent= 0 FoldK=F
 E= -2904.73950614536     Delta-E=        0.000000000008 Rises=F Damp=F
 DIIS: error= 3.04D-08 at cycle  12 NSaved=  12.
 NSaved=12 IEnMin=11 EnMin= -2904.73950614537     IErMin=12 ErrMin= 3.04D-08
 ErrMax= 3.04D-08 EMaxC= 1.00D-01 BMatC= 1.26D-13 BMatP= 1.18D-12
 IDIUse=1 WtCom= 1.00D+00 WtEn= 0.00D+00
 Coeff-Com:  0.132D-06 0.335D-05 0.221D-04 0.139D-04-0.125D-03-0.637D-03
 Coeff-Com: -0.953D-03 0.731D-02 0.111D-01-0.958D-01-0.143D+00 0.122D+01
 Coeff:      0.132D-06 0.335D-05 0.221D-04 0.139D-04-0.125D-03-0.637D-03
 Coeff:     -0.953D-03 0.731D-02 0.111D-01-0.958D-01-0.143D+00 0.122D+01
 Gap=     0.449 Goal=   None    Shift=    0.000
 RMSDP=4.89D-09 MaxDP=9.10D-08 DE= 8.19D-12 OVMax= 7.37D-07

 SCF Done:  E(RLC-B+HF-LYP) =  -2904.73950615     A.U. after   12 cycles
             Convg  =    0.4887D-08             -V/T =  2.0017
 KE= 2.899843577591D+03 PE=-7.236446557151D+03 EE= 1.281567586181D+03
 Leave Link  502 at Wed May 13 13:13:31 2020, MaxMem= 1073741824 cpu:     287.9
 (Enter /home/matheus/.gaussian/g09/l601.exe)
 Copying SCF densities to generalized density rwf, IOpCl= 0 IROHF=0.

 **********************************************************************

            Population analysis using the SCF density.

 **********************************************************************

 Orbital symmetries:
       Occupied  (A) (A) (A) (A) (A) (A) (A) (A) (A) (A) (A) (A)
                 (A) (A) (A) (A) (A) (A) (A) (A) (A) (A) (A) (A)
                 (A) (A) (A)
       Virtual   (A) (A) (A) (A) (A) (A) (A) (A) (A) (A) (A) (A)
                 (A) (A) (A) (A) (A) (A) (A) (A) (A) (A) (A) (A)
                 (A) (A) (A) (A) (A) (A) (A) (A) (A) (A) (A) (A)
                 (A) (A) (A) (A) (A) (A) (A) (A) (A) (A) (A) (A)
                 (A) (A) (A) (A) (A) (A) (A) (A) (A) (A) (A) (A)
                 (A) (A) (A) (A) (A) (A) (A) (A) (A) (A) (A) (A)
                 (A) (A) (A) (A) (A) (A) (A) (A) (A) (A) (A) (A)
                 (A) (A) (A) (A) (A) (A) (A) (A) (A) (A) (A) (A)
                 (A) (A) (A) (A) (A) (A) (A) (A) (A) (A) (A) (A)
                 (A) (A) (A) (A) (A) (A) (A) (A) (A) (A) (A) (A)
                 (A) (A) (A) (A) (A) (A) (A) (A) (A) (A) (A) (A)
                 (A) (A) (A) (A) (A) (A) (A) (A) (A) (A) (A) (A)
                 (A) (A) (A) (A) (A) (A) (A) (A) (A) (A) (A) (A)
                 (A) (A) (A) (A) (A) (A) (A) (A) (A) (A) (A) (A)
                 (A) (A)
 The electronic state is 1-A.
 Alpha  occ. eigenvalues -- -511.26865 -66.73861 -60.42393 -60.42380 -60.42369
 Alpha  occ. eigenvalues --  -19.07345 -19.07050  -9.63015  -7.38501  -7.38467
 Alpha  occ. eigenvalues --   -7.38434  -3.34836  -3.34830  -3.34806  -3.34780
 Alpha  occ. eigenvalues --   -3.34776  -1.28522  -1.08811  -1.06264  -0.72106
 Alpha  occ. eigenvalues --   -0.60844  -0.57886  -0.54193  -0.53719  -0.52775
 Alpha  occ. eigenvalues --   -0.47751  -0.42557
 Alpha virt. eigenvalues --    0.02342   0.03593   0.07403   0.08432   0.09801
 Alpha virt. eigenvalues --    0.10685   0.12143   0.13421   0.16307   0.16751
 Alpha virt. eigenvalues --    0.17152   0.18936   0.19139   0.21101   0.22785
 Alpha virt. eigenvalues --    0.23658   0.24614   0.27938   0.30416   0.31349
 Alpha virt. eigenvalues --    0.32653   0.34312   0.36457   0.37983   0.39058
 Alpha virt. eigenvalues --    0.40437   0.42145   0.46585   0.52419   0.54109
 Alpha virt. eigenvalues --    0.55746   0.59331   0.60887   0.63556   0.67591
 Alpha virt. eigenvalues --    0.69636   0.71201   0.73351   0.75715   0.76006
 Alpha virt. eigenvalues --    0.77262   0.77368   0.79350   0.80139   0.83448
 Alpha virt. eigenvalues --    0.84768   0.86527   0.88038   0.89263   0.90731
 Alpha virt. eigenvalues --    0.91399   0.94669   0.95488   0.98050   0.98242
 Alpha virt. eigenvalues --    0.99211   1.03119   1.06120   1.07563   1.11126
 Alpha virt. eigenvalues --    1.11518   1.14341   1.17677   1.22123   1.24753
 Alpha virt. eigenvalues --    1.27457   1.34182   1.37997   1.39866   1.41544
 Alpha virt. eigenvalues --    1.43456   1.48245   1.50426   1.55089   1.59662
 Alpha virt. eigenvalues --    1.68475   1.70222   1.84266   1.92763   1.94229
 Alpha virt. eigenvalues --    2.02159   2.05776   2.08656   2.11262   2.14073
 Alpha virt. eigenvalues --    2.16838   2.18929   2.21153   2.22927   2.26839
 Alpha virt. eigenvalues --    2.29036   2.30718   2.31405   2.32841   2.34589
 Alpha virt. eigenvalues --    2.37818   2.39670   2.45698   2.49755   2.50401
 Alpha virt. eigenvalues --    2.50917   2.52711   2.55169   2.58554   2.59555
 Alpha virt. eigenvalues --    2.60721   2.63358   2.67452   2.71175   2.73458
 Alpha virt. eigenvalues --    2.74178   2.77575   2.82992   2.87483   2.90426
 Alpha virt. eigenvalues --    2.96135   3.02778   3.09925   3.13836   3.62381
 Alpha virt. eigenvalues --    3.70968   3.94841   3.96598   4.00816   4.07599
 Alpha virt. eigenvalues --    4.09525   4.14227   4.25798   4.26606   4.29935
 Alpha virt. eigenvalues --    4.41645   4.47566   4.55319   4.59972   4.72921
 Alpha virt. eigenvalues --    4.97420   5.00497   5.01890   5.12011   5.18693
 Alpha virt. eigenvalues --    5.19345   5.43846   5.86218   6.02318   6.15342
 Alpha virt. eigenvalues --    6.18786   6.30342   6.37803   6.43063   6.53624
 Alpha virt. eigenvalues --    6.65850   6.75883   6.78516   6.83851   6.86705
 Alpha virt. eigenvalues --    6.90881   6.92341   6.93502   6.96032   7.04659
 Alpha virt. eigenvalues --    7.09460   7.15573   7.25155   7.48881   7.50560
 Alpha virt. eigenvalues --    7.83102   8.06743   8.14723  14.02636  14.58225
          Condensed to atoms (all electrons):
              1          2          3          4          5
     1  O    8.257575  -0.196595   0.166177   0.016846  -0.028759
     2  O   -0.196595   8.202769   0.031976   0.194991  -0.017619
     3  H    0.166177   0.031976   0.600170  -0.009215  -0.001677
     4  H    0.016846   0.194991  -0.009215   0.600293  -0.004681
     5  Kr  -0.028759  -0.017619  -0.001677  -0.004681  36.036308
 Mulliken atomic charges:
              1
     1  O   -0.215244
     2  O   -0.215522
     3  H    0.212571
     4  H    0.201767
     5  Kr   0.016429
 Sum of Mulliken atomic charges =   0.00000
 Mulliken charges with hydrogens summed into heavy atoms:
              1
     1  O   -0.002673
     2  O   -0.013756
     5  Kr   0.016429
 Sum of Mulliken charges with hydrogens summed into heavy atoms =   0.00000
          Condensed to fragments (all electrons):
     1      -0.016429
     2       0.016429
 Electronic spatial extent (au):  <R**2>=            480.6315
 Charge=              0.0000 electrons
 Dipole moment (field-independent basis, Debye):
    X=             -2.7487    Y=             -0.2868    Z=              1.2733  Tot=              3.0428
 Quadrupole moment (field-independent basis, Debye-Ang):
   XX=            -37.9507   YY=            -28.2609   ZZ=            -29.6436
   XY=             -1.1911   XZ=              2.0715   YZ=             -1.6440
 Traceless Quadrupole moment (field-independent basis, Debye-Ang):
   XX=             -5.9989   YY=              3.6908   ZZ=              2.3082
   XY=             -1.1911   XZ=              2.0715   YZ=             -1.6440
 Octapole moment (field-independent basis, Debye-Ang**2):
  XXX=            -43.7491  YYY=             -0.7840  ZZZ=              0.7542  XYY=             -6.9338
  XXY=             -3.1485  XXZ=              2.4512  XZZ=             -6.9683  YZZ=             -1.4451
  YYZ=              2.0091  XYZ=             -2.6419
 Hexadecapole moment (field-independent basis, Debye-Ang**3):
 XXXX=           -470.5870 YYYY=            -64.7879 ZZZZ=            -30.7604 XXXY=             -4.9761
 XXXZ=              3.4513 YYYX=             -2.2961 YYYZ=             -2.4167 ZZZX=              1.6420
 ZZZY=             -1.5957 XXYY=            -85.8486 XXZZ=            -75.1331 YYZZ=            -16.6936
 XXYZ=             -4.3525 YYXZ=              3.1923 ZZXY=             -2.3034
 N-N= 1.502958872335D+02 E-N=-7.236446559500D+03  KE= 2.899843577591D+03
 No NMR shielding tensors so no spin-rotation constants.
 Leave Link  601 at Wed May 13 13:13:31 2020, MaxMem= 1073741824 cpu:       0.7
 (Enter /home/matheus/.gaussian/g09/l122.exe)
 Counterpoise: doing DCBS calculation for fragment   1 NewBq=T
 Leave Link  122 at Wed May 13 13:13:31 2020, MaxMem= 1073741824 cpu:       0.0
 (Enter /home/matheus/.gaussian/g09/l301.exe)
 Basis read from rwf:  (5D, 7F)
 No pseudopotential information found on rwf file.
 There are   197 symmetry adapted basis functions of A   symmetry.
 Integral buffers will be    131072 words long.
 Raffenetti 2 integral format.
 Two-electron integral symmetry is turned on.
   197 basis functions,   415 primitive gaussians,   229 cartesian basis functions
     9 alpha electrons        9 beta electrons
       nuclear repulsion energy        36.6440881780 Hartrees.
 IExCor=10402 DFT=T Ex=LC-B+HF Corr=LYP ExCW=0 ScaHFX=  1.000000
 ScaDFX=  1.000000  1.000000  1.000000  1.000000 ScalE2=  1.000000  1.000000
 IRadAn=      5 IRanWt=     -1 IRanGd=            0 ICorTp=0
  HFx wShort=  0.000000 wLong=  0.470000 cFull=  0.000000 cShort=  0.000000 cLong=  1.000000
  DFx wShort=  0.000000 wLong=  0.470000 cFull=  0.000000 cShort=  0.000000 cLong=  1.000000
 NAtoms=    5 NActive=    5 NUniq=    5 SFac= 1.00D+00 NAtFMM=   60 NAOKFM=F Big=F
 No density basis found on file   718.
 Leave Link  301 at Wed May 13 13:13:31 2020, MaxMem= 1073741824 cpu:       0.2
 (Enter /home/matheus/.gaussian/g09/l302.exe)
 NPDir=0 NMtPBC=     1 NCelOv=     1 NCel=       1 NClECP=     1 NCelD=      1
         NCelK=      1 NCelE2=     1 NClLst=     1 CellRange=     0.0.
 One-electron integrals computed using PRISM.
 NBasis=   197 RedAO= T  NBF=   197
 NBsUse=   197 1.00D-06 NBFU=   197
 Precomputing XC quadrature grid using
 IXCGrd= 2 IRadAn=           5 IRanWt=          -1 IRanGd=           0 AccXCQ= 0.00D+00.
 NRdTot=     427 NPtTot=      123512 NUsed=      126579 NTot=      126611
 NSgBfM=   229   229   229   229   229 NAtAll=     5     5.
 Leave Link  302 at Wed May 13 13:13:32 2020, MaxMem= 1073741824 cpu:       1.0
 (Enter /home/matheus/.gaussian/g09/l303.exe)
 DipDrv:  MaxL=1.
 Leave Link  303 at Wed May 13 13:13:32 2020, MaxMem= 1073741824 cpu:       0.2
 (Enter /home/matheus/.gaussian/g09/l401.exe)
 Harris functional with IExCor=10402 diagonalized for initial guess.
 ExpMin= 2.53D-02 ExpMax= 1.17D+07 ExpMxC= 1.33D+04 IAcc=3 IRadAn=         5 AccDes= 0.00D+00
 HarFok:  IExCor=10402 AccDes= 0.00D+00 IRadAn=         5 IDoV= 1
 ScaDFX=  1.000000  1.000000  1.000000  1.000000
 FoFCou: FMM=F IPFlag=           0 FMFlag=      100000 FMFlg1=           0
         NFxFlg=           0 DoJE=T BraDBF=F KetDBF=T FulRan=T
         Omega=  0.000000  0.000000  1.000000  0.000000  0.000000 ICntrl=     500 IOpCl=  0
         NMat0=    1 NMatS0=    1 NMatT0=    0 NMatD0=    1 NMtDS0=    0 NMtDT0=    0
         I1Cent=           4 NGrid=           0.
 Petite list used in FoFCou.
 Harris En= -147.164600852378    
 Initial guess orbital symmetries:
       Occupied  (A) (A) (A) (A) (A) (A) (A) (A) (A)
       Virtual   (A) (A) (A) (A) (A) (A) (A) (A) (A) (A) (A) (A)
                 (A) (A) (A) (A) (A) (A) (A) (A) (A) (A) (A) (A)
                 (A) (A) (A) (A) (A) (A) (A) (A) (A) (A) (A) (A)
                 (A) (A) (A) (A) (A) (A) (A) (A) (A) (A) (A) (A)
                 (A) (A) (A) (A) (A) (A) (A) (A) (A) (A) (A) (A)
                 (A) (A) (A) (A) (A) (A) (A) (A) (A) (A) (A) (A)
                 (A) (A) (A) (A) (A) (A) (A) (A) (A) (A) (A) (A)
                 (A) (A) (A) (A) (A) (A) (A) (A) (A) (A) (A) (A)
                 (A) (A) (A) (A) (A) (A) (A) (A) (A) (A) (A) (A)
                 (A) (A) (A) (A) (A) (A) (A) (A) (A) (A) (A) (A)
                 (A) (A) (A) (A) (A) (A) (A) (A) (A) (A) (A) (A)
                 (A) (A) (A) (A) (A) (A) (A) (A) (A) (A) (A) (A)
                 (A) (A) (A) (A) (A) (A) (A) (A) (A) (A) (A) (A)
                 (A) (A) (A) (A) (A) (A) (A) (A) (A) (A) (A) (A)
                 (A) (A) (A) (A) (A) (A) (A) (A) (A) (A) (A) (A)
                 (A) (A) (A) (A) (A) (A) (A) (A)
 The electronic state of the initial guess is 1-A.
 Leave Link  401 at Wed May 13 13:13:32 2020, MaxMem= 1073741824 cpu:       3.7
 (Enter /home/matheus/.gaussian/g09/l502.exe)
 Closed shell SCF:
 Requested convergence on RMS density matrix=1.00D-08 within 128 cycles.
 Requested convergence on MAX density matrix=1.00D-06.
 Requested convergence on             energy=1.00D-06.
 No special actions if energy rises.
 Using DIIS extrapolation, IDIIS=  1040.
 Integral symmetry usage will be decided dynamically.
       126521 words used for storage of precomputed grid.
 IEnd=      305468 IEndB=      305468 NGot=  1073741824 MDV=  1073505667
 LenX=  1073505667 LenY=  1073452785
 Fock matrices will be formed incrementally for  20 cycles.

 Cycle   1  Pass 1  IDiag  1:
 FoFJK:  IHMeth= 1 ICntrl=     0 DoSepK=T KAlg= 1 I1Cent= 0 FoldK=F
 FoFCou: FMM=F IPFlag=           0 FMFlag=      100000 FMFlg1=           0
         NFxFlg=           0 DoJE=T BraDBF=F KetDBF=F FulRan=T
         Omega=  0.000000  0.000000  1.000000  0.000000  0.000000 ICntrl=     500 IOpCl=  0
         NMat0=    1 NMatS0=    1 NMatT0=    0 NMatD0=    1 NMtDS0=    0 NMtDT0=    0
         I1Cent=           0 NGrid=           0.
 Symmetry not used in FoFCou.
 E= -151.300388694567    
 DIIS: error= 8.56D-03 at cycle   1 NSaved=   1.
 NSaved= 1 IEnMin= 1 EnMin= -151.300388694567     IErMin= 1 ErrMin= 8.56D-03
 ErrMax= 8.56D-03 EMaxC= 1.00D-01 BMatC= 2.34D-02 BMatP= 2.34D-02
 IDIUse=3 WtCom= 9.14D-01 WtEn= 8.56D-02
 Coeff-Com:  0.100D+01
 Coeff-En:   0.100D+01
 Coeff:      0.100D+01
 Gap=     0.477 Goal=   None    Shift=    0.000
 GapD=    0.477 DampG=2.000 DampE=1.000 DampFc=2.0000 IDamp=-1.
 RMSDP=8.63D-04 MaxDP=2.86D-02              OVMax= 5.48D-02

 Cycle   2  Pass 1  IDiag  1:
 RMSU=  6.09D-04    CP:  1.00D+00
 FoFJK:  IHMeth= 1 ICntrl=     0 DoSepK=T KAlg= 1 I1Cent= 0 FoldK=F
 E= -151.320904209519     Delta-E=       -0.020515514952 Rises=F Damp=F
 DIIS: error= 5.22D-03 at cycle   2 NSaved=   2.
 NSaved= 2 IEnMin= 2 EnMin= -151.320904209519     IErMin= 2 ErrMin= 5.22D-03
 ErrMax= 5.22D-03 EMaxC= 1.00D-01 BMatC= 4.68D-03 BMatP= 2.34D-02
 IDIUse=3 WtCom= 9.48D-01 WtEn= 5.22D-02
 Coeff-Com:  0.261D+00 0.739D+00
 Coeff-En:   0.000D+00 0.100D+01
 Coeff:      0.248D+00 0.752D+00
 Gap=     0.438 Goal=   None    Shift=    0.000
 RMSDP=2.14D-04 MaxDP=6.34D-03 DE=-2.05D-02 OVMax= 1.46D-02

 Cycle   3  Pass 1  IDiag  1:
 RMSU=  1.51D-04    CP:  1.00D+00  1.01D+00
 FoFJK:  IHMeth= 1 ICntrl=     0 DoSepK=T KAlg= 1 I1Cent= 0 FoldK=F
 E= -151.323534941919     Delta-E=       -0.002630732400 Rises=F Damp=F
 DIIS: error= 1.28D-03 at cycle   3 NSaved=   3.
 NSaved= 3 IEnMin= 3 EnMin= -151.323534941919     IErMin= 3 ErrMin= 1.28D-03
 ErrMax= 1.28D-03 EMaxC= 1.00D-01 BMatC= 5.43D-04 BMatP= 4.68D-03
 IDIUse=3 WtCom= 9.87D-01 WtEn= 1.28D-02
 Coeff-Com:  0.228D-01 0.241D+00 0.736D+00
 Coeff-En:   0.000D+00 0.000D+00 0.100D+01
 Coeff:      0.225D-01 0.238D+00 0.740D+00
 Gap=     0.447 Goal=   None    Shift=    0.000
 RMSDP=1.02D-04 MaxDP=3.45D-03 DE=-2.63D-03 OVMax= 7.21D-03

 Cycle   4  Pass 1  IDiag  1:
 RMSU=  5.15D-05    CP:  1.00D+00  1.09D+00  9.53D-01
 FoFJK:  IHMeth= 1 ICntrl=     0 DoSepK=T KAlg= 1 I1Cent= 0 FoldK=F
 E= -151.323946592983     Delta-E=       -0.000411651064 Rises=F Damp=F
 DIIS: error= 3.32D-04 at cycle   4 NSaved=   4.
 NSaved= 4 IEnMin= 4 EnMin= -151.323946592983     IErMin= 4 ErrMin= 3.32D-04
 ErrMax= 3.32D-04 EMaxC= 1.00D-01 BMatC= 3.99D-05 BMatP= 5.43D-04
 IDIUse=3 WtCom= 9.97D-01 WtEn= 3.32D-03
 Coeff-Com: -0.217D-01-0.341D-01 0.162D+00 0.894D+00
 Coeff-En:   0.000D+00 0.000D+00 0.000D+00 0.100D+01
 Coeff:     -0.216D-01-0.339D-01 0.161D+00 0.895D+00
 Gap=     0.445 Goal=   None    Shift=    0.000
 RMSDP=4.07D-05 MaxDP=1.50D-03 DE=-4.12D-04 OVMax= 1.91D-03

 Cycle   5  Pass 1  IDiag  1:
 RMSU=  1.03D-05    CP:  1.00D+00  1.12D+00  1.09D+00  1.10D+00
 FoFJK:  IHMeth= 1 ICntrl=     0 DoSepK=T KAlg= 1 I1Cent= 0 FoldK=F
 E= -151.323983903897     Delta-E=       -0.000037310914 Rises=F Damp=F
 DIIS: error= 4.45D-05 at cycle   5 NSaved=   5.
 NSaved= 5 IEnMin= 5 EnMin= -151.323983903897     IErMin= 5 ErrMin= 4.45D-05
 ErrMax= 4.45D-05 EMaxC= 1.00D-01 BMatC= 4.12D-07 BMatP= 3.99D-05
 IDIUse=1 WtCom= 1.00D+00 WtEn= 0.00D+00
 Coeff-Com:  0.770D-03-0.370D-02-0.368D-01-0.814D-01 0.112D+01
 Coeff:      0.770D-03-0.370D-02-0.368D-01-0.814D-01 0.112D+01
 Gap=     0.445 Goal=   None    Shift=    0.000
 RMSDP=1.02D-05 MaxDP=4.03D-04 DE=-3.73D-05 OVMax= 6.94D-04

 Cycle   6  Pass 1  IDiag  1:
 RMSU=  2.37D-06    CP:  1.00D+00  1.12D+00  1.12D+00  1.18D+00  1.27D+00
 FoFJK:  IHMeth= 1 ICntrl=     0 DoSepK=T KAlg= 1 I1Cent= 0 FoldK=F
 E= -151.323985308188     Delta-E=       -0.000001404292 Rises=F Damp=F
 DIIS: error= 1.13D-05 at cycle   6 NSaved=   6.
 NSaved= 6 IEnMin= 6 EnMin= -151.323985308188     IErMin= 6 ErrMin= 1.13D-05
 ErrMax= 1.13D-05 EMaxC= 1.00D-01 BMatC= 2.24D-08 BMatP= 4.12D-07
 IDIUse=1 WtCom= 1.00D+00 WtEn= 0.00D+00
 Coeff-Com:  0.212D-03 0.317D-03-0.159D-02-0.888D-02-0.831D-01 0.109D+01
 Coeff:      0.212D-03 0.317D-03-0.159D-02-0.888D-02-0.831D-01 0.109D+01
 Gap=     0.445 Goal=   None    Shift=    0.000
 RMSDP=1.60D-06 MaxDP=4.70D-05 DE=-1.40D-06 OVMax= 1.65D-04

 Cycle   7  Pass 1  IDiag  1:
 RMSU=  3.70D-07    CP:  1.00D+00  1.12D+00  1.12D+00  1.19D+00  1.32D+00
                    CP:  1.28D+00
 FoFJK:  IHMeth= 1 ICntrl=     0 DoSepK=T KAlg= 1 I1Cent= 0 FoldK=F
 E= -151.323985378793     Delta-E=       -0.000000070604 Rises=F Damp=F
 DIIS: error= 3.74D-06 at cycle   7 NSaved=   7.
 NSaved= 7 IEnMin= 7 EnMin= -151.323985378793     IErMin= 7 ErrMin= 3.74D-06
 ErrMax= 3.74D-06 EMaxC= 1.00D-01 BMatC= 3.31D-09 BMatP= 2.24D-08
 IDIUse=1 WtCom= 1.00D+00 WtEn= 0.00D+00
 Coeff-Com:  0.268D-04 0.340D-03 0.203D-02 0.340D-02-0.918D-01 0.172D+00
 Coeff-Com:  0.914D+00
 Coeff:      0.268D-04 0.340D-03 0.203D-02 0.340D-02-0.918D-01 0.172D+00
 Coeff:      0.914D+00
 Gap=     0.445 Goal=   None    Shift=    0.000
 RMSDP=3.83D-07 MaxDP=1.28D-05 DE=-7.06D-08 OVMax= 5.51D-05

 Cycle   8  Pass 1  IDiag  1:
 RMSU=  1.80D-07    CP:  1.00D+00  1.12D+00  1.12D+00  1.19D+00  1.33D+00
                    CP:  1.35D+00  1.21D+00
 FoFJK:  IHMeth= 1 ICntrl=     0 DoSepK=T KAlg= 1 I1Cent= 0 FoldK=F
 E= -151.323985385027     Delta-E=       -0.000000006235 Rises=F Damp=F
 DIIS: error= 2.14D-06 at cycle   8 NSaved=   8.
 NSaved= 8 IEnMin= 8 EnMin= -151.323985385027     IErMin= 8 ErrMin= 2.14D-06
 ErrMax= 2.14D-06 EMaxC= 1.00D-01 BMatC= 1.75D-09 BMatP= 3.31D-09
 IDIUse=1 WtCom= 1.00D+00 WtEn= 0.00D+00
 Coeff-Com: -0.234D-05 0.160D-03 0.118D-02 0.258D-02-0.392D-01-0.225D-01
 Coeff-Com:  0.484D+00 0.574D+00
 Coeff:     -0.234D-05 0.160D-03 0.118D-02 0.258D-02-0.392D-01-0.225D-01
 Coeff:      0.484D+00 0.574D+00
 Gap=     0.445 Goal=   None    Shift=    0.000
 RMSDP=1.27D-07 MaxDP=3.19D-06 DE=-6.23D-09 OVMax= 1.67D-05

 Cycle   9  Pass 1  IDiag  1:
 RMSU=  6.33D-08    CP:  1.00D+00  1.12D+00  1.12D+00  1.19D+00  1.33D+00
                    CP:  1.35D+00  1.35D+00  9.29D-01
 FoFJK:  IHMeth= 1 ICntrl=     0 DoSepK=T KAlg= 1 I1Cent= 0 FoldK=F
 E= -151.323985386557     Delta-E=       -0.000000001530 Rises=F Damp=F
 DIIS: error= 6.08D-07 at cycle   9 NSaved=   9.
 NSaved= 9 IEnMin= 9 EnMin= -151.323985386557     IErMin= 9 ErrMin= 6.08D-07
 ErrMax= 6.08D-07 EMaxC= 1.00D-01 BMatC= 7.62D-11 BMatP= 1.75D-09
 IDIUse=1 WtCom= 1.00D+00 WtEn= 0.00D+00
 Coeff-Com: -0.828D-05-0.383D-04-0.258D-03-0.255D-03 0.133D-01-0.378D-01
 Coeff-Com: -0.128D+00 0.488D-01 0.110D+01
 Coeff:     -0.828D-05-0.383D-04-0.258D-03-0.255D-03 0.133D-01-0.378D-01
 Coeff:     -0.128D+00 0.488D-01 0.110D+01
 Gap=     0.445 Goal=   None    Shift=    0.000
 RMSDP=8.38D-08 MaxDP=2.22D-06 DE=-1.53D-09 OVMax= 1.40D-05

 Cycle  10  Pass 1  IDiag  1:
 RMSU=  2.25D-08    CP:  1.00D+00  1.12D+00  1.12D+00  1.19D+00  1.33D+00
                    CP:  1.35D+00  1.42D+00  1.11D+00  1.29D+00
 FoFJK:  IHMeth= 1 ICntrl=     0 DoSepK=T KAlg= 1 I1Cent= 0 FoldK=F
 E= -151.323985386812     Delta-E=       -0.000000000255 Rises=F Damp=F
 DIIS: error= 1.73D-07 at cycle  10 NSaved=  10.
 NSaved=10 IEnMin=10 EnMin= -151.323985386812     IErMin=10 ErrMin= 1.73D-07
 ErrMax= 1.73D-07 EMaxC= 1.00D-01 BMatC= 3.06D-12 BMatP= 7.62D-11
 IDIUse=1 WtCom= 1.00D+00 WtEn= 0.00D+00
 Coeff-Com:  0.214D-05 0.186D-05-0.760D-05-0.836D-04-0.104D-02 0.103D-01
 Coeff-Com:  0.666D-02-0.464D-01-0.291D+00 0.132D+01
 Coeff:      0.214D-05 0.186D-05-0.760D-05-0.836D-04-0.104D-02 0.103D-01
 Coeff:      0.666D-02-0.464D-01-0.291D+00 0.132D+01
 Gap=     0.445 Goal=   None    Shift=    0.000
 RMSDP=2.30D-08 MaxDP=4.97D-07 DE=-2.55D-10 OVMax= 4.24D-06

 Cycle  11  Pass 1  IDiag  1:
 RMSU=  4.39D-09    CP:  1.00D+00  1.12D+00  1.12D+00  1.19D+00  1.33D+00
                    CP:  1.35D+00  1.43D+00  1.14D+00  1.41D+00  1.50D+00
 FoFJK:  IHMeth= 1 ICntrl=     0 DoSepK=T KAlg= 1 I1Cent= 0 FoldK=F
 E= -151.323985386828     Delta-E=       -0.000000000016 Rises=F Damp=F
 DIIS: error= 2.67D-08 at cycle  11 NSaved=  11.
 NSaved=11 IEnMin=11 EnMin= -151.323985386828     IErMin=11 ErrMin= 2.67D-08
 ErrMax= 2.67D-08 EMaxC= 1.00D-01 BMatC= 1.50D-13 BMatP= 3.06D-12
 IDIUse=1 WtCom= 1.00D+00 WtEn= 0.00D+00
 Coeff-Com:  0.869D-07 0.238D-05 0.208D-04 0.235D-04-0.853D-03 0.188D-02
 Coeff-Com:  0.815D-02 0.101D-03-0.520D-01-0.902D-01 0.113D+01
 Coeff:      0.869D-07 0.238D-05 0.208D-04 0.235D-04-0.853D-03 0.188D-02
 Coeff:      0.815D-02 0.101D-03-0.520D-01-0.902D-01 0.113D+01
 Gap=     0.445 Goal=   None    Shift=    0.000
 RMSDP=4.73D-09 MaxDP=1.49D-07 DE=-1.60D-11 OVMax= 7.29D-07

 SCF Done:  E(RLC-B+HF-LYP) =  -151.323985387     A.U. after   11 cycles
             Convg  =    0.4733D-08             -V/T =  2.0056
 KE= 1.504769854032D+02 PE=-4.314318511608D+02 EE= 9.298679219269D+01
 Leave Link  502 at Wed May 13 13:14:04 2020, MaxMem= 1073741824 cpu:     253.9
 (Enter /home/matheus/.gaussian/g09/l601.exe)
 Copying SCF densities to generalized density rwf, IOpCl= 0 IROHF=0.

 **********************************************************************

            Population analysis using the SCF density.

 **********************************************************************

 Orbital symmetries:
       Occupied  (A) (A) (A) (A) (A) (A) (A) (A) (A)
       Virtual   (A) (A) (A) (A) (A) (A) (A) (A) (A) (A) (A) (A)
                 (A) (A) (A) (A) (A) (A) (A) (A) (A) (A) (A) (A)
                 (A) (A) (A) (A) (A) (A) (A) (A) (A) (A) (A) (A)
                 (A) (A) (A) (A) (A) (A) (A) (A) (A) (A) (A) (A)
                 (A) (A) (A) (A) (A) (A) (A) (A) (A) (A) (A) (A)
                 (A) (A) (A) (A) (A) (A) (A) (A) (A) (A) (A) (A)
                 (A) (A) (A) (A) (A) (A) (A) (A) (A) (A) (A) (A)
                 (A) (A) (A) (A) (A) (A) (A) (A) (A) (A) (A) (A)
                 (A) (A) (A) (A) (A) (A) (A) (A) (A) (A) (A) (A)
                 (A) (A) (A) (A) (A) (A) (A) (A) (A) (A) (A) (A)
                 (A) (A) (A) (A) (A) (A) (A) (A) (A) (A) (A) (A)
                 (A) (A) (A) (A) (A) (A) (A) (A) (A) (A) (A) (A)
                 (A) (A) (A) (A) (A) (A) (A) (A) (A) (A) (A) (A)
                 (A) (A) (A) (A) (A) (A) (A) (A) (A) (A) (A) (A)
                 (A) (A) (A) (A) (A) (A) (A) (A) (A) (A) (A) (A)
                 (A) (A) (A) (A) (A) (A) (A) (A)
 The electronic state is 1-A.
 Alpha  occ. eigenvalues --  -19.07701 -19.07700  -1.28848  -1.06645  -0.72172
 Alpha  occ. eigenvalues --   -0.60561  -0.57696  -0.48335  -0.42969
 Alpha virt. eigenvalues --    0.01522   0.03207   0.06690   0.07656   0.09351
 Alpha virt. eigenvalues --    0.10008   0.10040   0.13702   0.16212   0.16883
 Alpha virt. eigenvalues --    0.17733   0.18422   0.19886   0.21377   0.24643
 Alpha virt. eigenvalues --    0.25935   0.28361   0.29195   0.32196   0.32586
 Alpha virt. eigenvalues --    0.33663   0.35888   0.37129   0.39252   0.39467
 Alpha virt. eigenvalues --    0.42421   0.44333   0.45575   0.47003   0.49766
 Alpha virt. eigenvalues --    0.52119   0.56809   0.59501   0.61491   0.66052
 Alpha virt. eigenvalues --    0.69428   0.73539   0.76067   0.77093   0.78802
 Alpha virt. eigenvalues --    0.80192   0.81945   0.85881   0.89221   0.89692
 Alpha virt. eigenvalues --    0.90887   0.92275   0.94896   0.95099   0.97831
 Alpha virt. eigenvalues --    1.00788   1.01757   1.03075   1.07946   1.10168
 Alpha virt. eigenvalues --    1.12253   1.15478   1.18834   1.19763   1.22406
 Alpha virt. eigenvalues --    1.27253   1.28715   1.29877   1.30164   1.31980
 Alpha virt. eigenvalues --    1.33175   1.34282   1.37562   1.39347   1.39655
 Alpha virt. eigenvalues --    1.46525   1.48679   1.52162   1.53700   1.56368
 Alpha virt. eigenvalues --    1.59408   1.63835   1.65903   1.73916   1.76626
 Alpha virt. eigenvalues --    1.82647   1.86576   1.93594   1.99243   2.03835
 Alpha virt. eigenvalues --    2.06847   2.11260   2.15842   2.20190   2.23728
 Alpha virt. eigenvalues --    2.29769   2.30999   2.34202   2.37599   2.38295
 Alpha virt. eigenvalues --    2.51407   2.56367   2.58583   2.62797   2.63528
 Alpha virt. eigenvalues --    2.67387   2.77206   2.84809   2.87397   2.94835
 Alpha virt. eigenvalues --    3.00093   3.08831   3.11917   3.24594   3.29142
 Alpha virt. eigenvalues --    3.40687   3.55958   3.65228   3.68194   3.76651
 Alpha virt. eigenvalues --    3.77306   3.80389   3.80920   3.81119   3.84338
 Alpha virt. eigenvalues --    3.86980   3.89024   3.90995   3.94644   3.97195
 Alpha virt. eigenvalues --    3.98347   4.02636   4.06100   4.11200   4.12480
 Alpha virt. eigenvalues --    4.16891   4.25801   4.26722   4.30585   4.36494
 Alpha virt. eigenvalues --    4.43079   4.49948   4.60444   4.73268   4.97390
 Alpha virt. eigenvalues --    5.00682   5.02104   5.12281   5.18739   5.19626
 Alpha virt. eigenvalues --    5.43518   5.85914   6.01633   6.15112   6.18561
 Alpha virt. eigenvalues --    6.30188   6.37590   6.42824   6.53436   6.65545
 Alpha virt. eigenvalues --    6.75460   6.78226   6.83291   6.86382   6.90522
 Alpha virt. eigenvalues --    6.92016   6.93147   6.95759   7.04310   7.09139
 Alpha virt. eigenvalues --    7.15227   7.24834   7.48502   7.50260   7.82691
 Alpha virt. eigenvalues --    8.06414   8.13405  10.94973  14.02320  14.56670
 Alpha virt. eigenvalues --   14.81937  14.87855  15.09387  29.01530  29.01873
 Alpha virt. eigenvalues --   29.06324  29.13245  29.21631  49.13623 148.30230
 Alpha virt. eigenvalues --  148.39043 148.70499 752.64148
          Condensed to atoms (all electrons):
              1          2          3          4          5
     1  O    8.217066  -0.192063   0.172119   0.016564  -0.000899
     2  O   -0.192063   8.182193   0.031347   0.189915  -0.000512
     3  H    0.172119   0.031347   0.597748  -0.007222  -0.000866
     4  H    0.016564   0.189915  -0.007222   0.594127  -0.004312
     5  Kr  -0.000899  -0.000512  -0.000866  -0.004312   0.000726
 Mulliken atomic charges:
              1
     1  O   -0.212788
     2  O   -0.210880
     3  H    0.206875
     4  H    0.210928
     5  Kr   0.005864
 Sum of Mulliken atomic charges =   0.00000
 Mulliken charges with hydrogens summed into heavy atoms:
              1
     1  O   -0.005912
     2  O    0.000049
     5  Kr   0.005864
 Sum of Mulliken charges with hydrogens summed into heavy atoms =   0.00000
          Condensed to fragments (all electrons):
     1      -0.005864
     2       0.005864
 Electronic spatial extent (au):  <R**2>=            319.1653
 Charge=              0.0000 electrons
 Dipole moment (field-independent basis, Debye):
    X=             -2.4233    Y=             -0.1287    Z=              1.4326  Tot=              2.8181
 Quadrupole moment (field-independent basis, Debye-Ang):
   XX=            -20.3701   YY=            -10.5414   ZZ=            -12.0060
   XY=             -1.2688   XZ=              1.9594   YZ=             -1.6753
 Traceless Quadrupole moment (field-independent basis, Debye-Ang):
   XX=             -6.0642   YY=              3.7645   ZZ=              2.2998
   XY=             -1.2688   XZ=              1.9594   YZ=             -1.6753
 Octapole moment (field-independent basis, Debye-Ang**2):
  XXX=            -93.7428  YYY=             -0.8484  ZZZ=              0.8563  XYY=            -23.9198
  XXY=             -3.0070  XXZ=              2.5485  XZZ=            -24.0203  YZZ=             -1.4757
  YYZ=              2.0485  XYZ=             -2.6484
 Hexadecapole moment (field-independent basis, Debye-Ang**3):
 XXXX=           -350.2430 YYYY=            -46.0878 ZZZZ=            -12.2129 XXXY=             -4.7548
 XXXZ=              3.2830 YYYX=             -2.2349 YYYZ=             -2.4731 ZZZX=              1.6195
 ZZZY=             -1.6500 XXYY=            -62.7197 XXZZ=            -52.2035 YYZZ=            -10.4733
 XXYZ=             -4.3683 YYXZ=              3.1708 ZZXY=             -2.2572
 N-N= 3.664408817804D+01 E-N=-4.314318510124D+02  KE= 1.504769854032D+02
 No NMR shielding tensors so no spin-rotation constants.
 Leave Link  601 at Wed May 13 13:14:04 2020, MaxMem= 1073741824 cpu:       0.7
 (Enter /home/matheus/.gaussian/g09/l122.exe)
 Counterpoise: doing DCBS calculation for fragment   2 NewBq=T
 Leave Link  122 at Wed May 13 13:14:04 2020, MaxMem= 1073741824 cpu:       0.0
 (Enter /home/matheus/.gaussian/g09/l301.exe)
 Basis read from rwf:  (5D, 7F)
 No pseudopotential information found on rwf file.
 There are   197 symmetry adapted basis functions of A   symmetry.
 Integral buffers will be    131072 words long.
 Raffenetti 2 integral format.
 Two-electron integral symmetry is turned on.
   197 basis functions,   415 primitive gaussians,   229 cartesian basis functions
    18 alpha electrons       18 beta electrons
       nuclear repulsion energy         0.0000000000 Hartrees.
 IExCor=10402 DFT=T Ex=LC-B+HF Corr=LYP ExCW=0 ScaHFX=  1.000000
 ScaDFX=  1.000000  1.000000  1.000000  1.000000 ScalE2=  1.000000  1.000000
 IRadAn=      5 IRanWt=     -1 IRanGd=            0 ICorTp=0
  HFx wShort=  0.000000 wLong=  0.470000 cFull=  0.000000 cShort=  0.000000 cLong=  1.000000
  DFx wShort=  0.000000 wLong=  0.470000 cFull=  0.000000 cShort=  0.000000 cLong=  1.000000
 NAtoms=    5 NActive=    5 NUniq=    5 SFac= 1.00D+00 NAtFMM=   60 NAOKFM=F Big=F
 No density basis found on file   718.
 Leave Link  301 at Wed May 13 13:14:04 2020, MaxMem= 1073741824 cpu:       0.2
 (Enter /home/matheus/.gaussian/g09/l302.exe)
 NPDir=0 NMtPBC=     1 NCelOv=     1 NCel=       1 NClECP=     1 NCelD=      1
         NCelK=      1 NCelE2=     1 NClLst=     1 CellRange=     0.0.
 One-electron integrals computed using PRISM.
 NBasis=   197 RedAO= T  NBF=   197
 NBsUse=   197 1.00D-06 NBFU=   197
 Precomputing XC quadrature grid using
 IXCGrd= 2 IRadAn=           5 IRanWt=          -1 IRanGd=           0 AccXCQ= 0.00D+00.
 NRdTot=     427 NPtTot=      123512 NUsed=      126579 NTot=      126611
 NSgBfM=   229   229   229   229   229 NAtAll=     5     5.
 Leave Link  302 at Wed May 13 13:14:04 2020, MaxMem= 1073741824 cpu:       0.9
 (Enter /home/matheus/.gaussian/g09/l303.exe)
 DipDrv:  MaxL=1.
 Leave Link  303 at Wed May 13 13:14:04 2020, MaxMem= 1073741824 cpu:       0.2
 (Enter /home/matheus/.gaussian/g09/l401.exe)
 Harris functional with IExCor=10402 diagonalized for initial guess.
 ExpMin= 2.53D-02 ExpMax= 1.17D+07 ExpMxC= 1.33D+04 IAcc=3 IRadAn=         5 AccDes= 0.00D+00
 HarFok:  IExCor=10402 AccDes= 0.00D+00 IRadAn=         5 IDoV= 1
 ScaDFX=  1.000000  1.000000  1.000000  1.000000
 FoFCou: FMM=F IPFlag=           0 FMFlag=      100000 FMFlg1=           0
         NFxFlg=           0 DoJE=T BraDBF=F KetDBF=T FulRan=T
         Omega=  0.000000  0.000000  1.000000  0.000000  0.000000 ICntrl=     500 IOpCl=  0
         NMat0=    1 NMatS0=    1 NMatT0=    0 NMatD0=    1 NMtDS0=    0 NMtDT0=    0
         I1Cent=           4 NGrid=           0.
 Petite list used in FoFCou.
 Harris En= -2744.51541787887    
 Initial guess orbital symmetries:
       Occupied  (A) (A) (A) (A) (A) (A) (A) (A) (A) (A) (A) (A)
                 (A) (A) (A) (A) (A) (A)
       Virtual   (A) (A) (A) (A) (A) (A) (A) (A) (A) (A) (A) (A)
                 (A) (A) (A) (A) (A) (A) (A) (A) (A) (A) (A) (A)
                 (A) (A) (A) (A) (A) (A) (A) (A) (A) (A) (A) (A)
                 (A) (A) (A) (A) (A) (A) (A) (A) (A) (A) (A) (A)
                 (A) (A) (A) (A) (A) (A) (A) (A) (A) (A) (A) (A)
                 (A) (A) (A) (A) (A) (A) (A) (A) (A) (A) (A) (A)
                 (A) (A) (A) (A) (A) (A) (A) (A) (A) (A) (A) (A)
                 (A) (A) (A) (A) (A) (A) (A) (A) (A) (A) (A) (A)
                 (A) (A) (A) (A) (A) (A) (A) (A) (A) (A) (A) (A)
                 (A) (A) (A) (A) (A) (A) (A) (A) (A) (A) (A) (A)
                 (A) (A) (A) (A) (A) (A) (A) (A) (A) (A) (A) (A)
                 (A) (A) (A) (A) (A) (A) (A) (A) (A) (A) (A) (A)
                 (A) (A) (A) (A) (A) (A) (A) (A) (A) (A) (A) (A)
                 (A) (A) (A) (A) (A) (A) (A) (A) (A) (A) (A) (A)
                 (A) (A) (A) (A) (A) (A) (A) (A) (A) (A) (A)
 The electronic state of the initial guess is 1-A.
 Leave Link  401 at Wed May 13 13:14:05 2020, MaxMem= 1073741824 cpu:       3.8
 (Enter /home/matheus/.gaussian/g09/l502.exe)
 Closed shell SCF:
 Requested convergence on RMS density matrix=1.00D-08 within 128 cycles.
 Requested convergence on MAX density matrix=1.00D-06.
 Requested convergence on             energy=1.00D-06.
 No special actions if energy rises.
 Using DIIS extrapolation, IDIIS=  1040.
 Integral symmetry usage will be decided dynamically.
       126521 words used for storage of precomputed grid.
 IEnd=      305468 IEndB=      305468 NGot=  1073741824 MDV=  1073505667
 LenX=  1073505667 LenY=  1073452785
 Fock matrices will be formed incrementally for  20 cycles.

 Cycle   1  Pass 1  IDiag  1:
 FoFJK:  IHMeth= 1 ICntrl=     0 DoSepK=T KAlg= 1 I1Cent= 0 FoldK=F
 FoFCou: FMM=F IPFlag=           0 FMFlag=      100000 FMFlg1=           0
         NFxFlg=           0 DoJE=T BraDBF=F KetDBF=F FulRan=T
         Omega=  0.000000  0.000000  1.000000  0.000000  0.000000 ICntrl=     500 IOpCl=  0
         NMat0=    1 NMatS0=    1 NMatT0=    0 NMatD0=    1 NMtDS0=    0 NMtDT0=    0
         I1Cent=           0 NGrid=           0.
 Symmetry not used in FoFCou.
 E= -2753.33347010953    
 DIIS: error= 2.71D-02 at cycle   1 NSaved=   1.
 NSaved= 1 IEnMin= 1 EnMin= -2753.33347010953     IErMin= 1 ErrMin= 2.71D-02
 ErrMax= 2.71D-02 EMaxC= 1.00D-01 BMatC= 2.62D-01 BMatP= 2.62D-01
 IDIUse=3 WtCom= 7.29D-01 WtEn= 2.71D-01
 Coeff-Com:  0.100D+01
 Coeff-En:   0.100D+01
 Coeff:      0.100D+01
 Gap=     0.618 Goal=   None    Shift=    0.000
 GapD=    0.618 DampG=2.000 DampE=0.500 DampFc=1.0000 IDamp=-1.
 RMSDP=2.47D-03 MaxDP=1.53D-01              OVMax= 1.05D-01

 Cycle   2  Pass 1  IDiag  1:
 RMSU=  1.69D-03    CP:  1.03D+00
 FoFJK:  IHMeth= 1 ICntrl=     0 DoSepK=T KAlg= 1 I1Cent= 0 FoldK=F
 E= -2753.38945250252     Delta-E=       -0.055982392999 Rises=F Damp=F
 DIIS: error= 1.28D-02 at cycle   2 NSaved=   2.
 NSaved= 2 IEnMin= 2 EnMin= -2753.38945250252     IErMin= 2 ErrMin= 1.28D-02
 ErrMax= 1.28D-02 EMaxC= 1.00D-01 BMatC= 8.83D-02 BMatP= 2.62D-01
 IDIUse=3 WtCom= 8.72D-01 WtEn= 1.28D-01
 Coeff-Com:  0.365D+00 0.635D+00
 Coeff-En:   0.130D+00 0.870D+00
 Coeff:      0.335D+00 0.665D+00
 Gap=     0.539 Goal=   None    Shift=    0.000
 RMSDP=9.71D-04 MaxDP=6.09D-02 DE=-5.60D-02 OVMax= 3.11D-02

 Cycle   3  Pass 1  IDiag  1:
 RMSU=  1.71D-04    CP:  1.02D+00  6.19D-01
 FoFJK:  IHMeth= 1 ICntrl=     0 DoSepK=T KAlg= 1 I1Cent= 0 FoldK=F
 E= -2753.41753358444     Delta-E=       -0.028081081915 Rises=F Damp=F
 DIIS: error= 9.55D-04 at cycle   3 NSaved=   3.
 NSaved= 3 IEnMin= 3 EnMin= -2753.41753358444     IErMin= 3 ErrMin= 9.55D-04
 ErrMax= 9.55D-04 EMaxC= 1.00D-01 BMatC= 4.79D-04 BMatP= 8.83D-02
 IDIUse=3 WtCom= 9.90D-01 WtEn= 9.55D-03
 Coeff-Com: -0.639D-02 0.558D-01 0.951D+00
 Coeff-En:   0.000D+00 0.000D+00 0.100D+01
 Coeff:     -0.633D-02 0.553D-01 0.951D+00
 Gap=     0.538 Goal=   None    Shift=    0.000
 RMSDP=9.09D-05 MaxDP=4.68D-03 DE=-2.81D-02 OVMax= 3.15D-03

 Cycle   4  Pass 1  IDiag  1:
 RMSU=  3.76D-05    CP:  1.02D+00  6.45D-01  1.14D+00
 FoFJK:  IHMeth= 1 ICntrl=     0 DoSepK=T KAlg= 1 I1Cent= 0 FoldK=F
 E= -2753.41768881878     Delta-E=       -0.000155234336 Rises=F Damp=F
 DIIS: error= 8.68D-05 at cycle   4 NSaved=   4.
 NSaved= 4 IEnMin= 4 EnMin= -2753.41768881878     IErMin= 4 ErrMin= 8.68D-05
 ErrMax= 8.68D-05 EMaxC= 1.00D-01 BMatC= 2.05D-06 BMatP= 4.79D-04
 IDIUse=1 WtCom= 1.00D+00 WtEn= 0.00D+00
 Coeff-Com: -0.142D-02 0.302D-03-0.689D-02 0.101D+01
 Coeff:     -0.142D-02 0.302D-03-0.689D-02 0.101D+01
 Gap=     0.539 Goal=   None    Shift=    0.000
 RMSDP=1.38D-05 MaxDP=5.48D-04 DE=-1.55D-04 OVMax= 9.21D-04

 Cycle   5  Pass 1  IDiag  1:
 RMSU=  5.90D-06    CP:  1.02D+00  6.47D-01  1.18D+00  1.05D+00
 FoFJK:  IHMeth= 1 ICntrl=     0 DoSepK=T KAlg= 1 I1Cent= 0 FoldK=F
 E= -2753.41769278080     Delta-E=       -0.000003962026 Rises=F Damp=F
 DIIS: error= 2.61D-05 at cycle   5 NSaved=   5.
 NSaved= 5 IEnMin= 5 EnMin= -2753.41769278080     IErMin= 5 ErrMin= 2.61D-05
 ErrMax= 2.61D-05 EMaxC= 1.00D-01 BMatC= 1.59D-07 BMatP= 2.05D-06
 IDIUse=1 WtCom= 1.00D+00 WtEn= 0.00D+00
 Coeff-Com: -0.550D-04-0.375D-02-0.336D-01-0.711D-01 0.111D+01
 Coeff:     -0.550D-04-0.375D-02-0.336D-01-0.711D-01 0.111D+01
 Gap=     0.539 Goal=   None    Shift=    0.000
 RMSDP=4.52D-06 MaxDP=1.85D-04 DE=-3.96D-06 OVMax= 1.98D-04

 Cycle   6  Pass 1  IDiag  1:
 RMSU=  3.48D-07    CP:  1.02D+00  6.47D-01  1.20D+00  1.10D+00  1.15D+00
 FoFJK:  IHMeth= 1 ICntrl=     0 DoSepK=T KAlg= 1 I1Cent= 0 FoldK=F
 E= -2753.41769298826     Delta-E=       -0.000000207456 Rises=F Damp=F
 DIIS: error= 6.07D-07 at cycle   6 NSaved=   6.
 NSaved= 6 IEnMin= 6 EnMin= -2753.41769298826     IErMin= 6 ErrMin= 6.07D-07
 ErrMax= 6.07D-07 EMaxC= 1.00D-01 BMatC= 9.82D-11 BMatP= 1.59D-07
 IDIUse=1 WtCom= 1.00D+00 WtEn= 0.00D+00
 Coeff-Com:  0.730D-05 0.317D-03 0.314D-02-0.439D-04-0.803D-01 0.108D+01
 Coeff:      0.730D-05 0.317D-03 0.314D-02-0.439D-04-0.803D-01 0.108D+01
 Gap=     0.539 Goal=   None    Shift=    0.000
 RMSDP=1.47D-07 MaxDP=5.05D-06 DE=-2.07D-07 OVMax= 6.22D-06

 Cycle   7  Pass 1  IDiag  1:
 RMSU=  2.38D-08    CP:  1.02D+00  6.47D-01  1.20D+00  1.11D+00  1.16D+00
                    CP:  1.17D+00
 FoFJK:  IHMeth= 1 ICntrl=     0 DoSepK=T KAlg= 1 I1Cent= 0 FoldK=F
 E= -2753.41769298834     Delta-E=       -0.000000000082 Rises=F Damp=F
 DIIS: error= 8.70D-08 at cycle   7 NSaved=   7.
 NSaved= 7 IEnMin= 7 EnMin= -2753.41769298834     IErMin= 7 ErrMin= 8.70D-08
 ErrMax= 8.70D-08 EMaxC= 1.00D-01 BMatC= 2.47D-12 BMatP= 9.82D-11
 IDIUse=1 WtCom= 1.00D+00 WtEn= 0.00D+00
 Coeff-Com:  0.599D-06 0.422D-04 0.374D-03 0.877D-03-0.130D-01 0.248D-01
 Coeff-Com:  0.987D+00
 Coeff:      0.599D-06 0.422D-04 0.374D-03 0.877D-03-0.130D-01 0.248D-01
 Coeff:      0.987D+00
 Gap=     0.539 Goal=   None    Shift=    0.000
 RMSDP=1.51D-08 MaxDP=5.59D-07 DE=-8.23D-11 OVMax= 8.40D-07

 Cycle   8  Pass 1  IDiag  1:
 RMSU=  4.80D-09    CP:  1.02D+00  6.47D-01  1.20D+00  1.11D+00  1.16D+00
                    CP:  1.19D+00  1.10D+00
 FoFJK:  IHMeth= 1 ICntrl=     0 DoSepK=T KAlg= 1 I1Cent= 0 FoldK=F
 E= -2753.41769298833     Delta-E=        0.000000000013 Rises=F Damp=F
 DIIS: error= 2.21D-08 at cycle   8 NSaved=   8.
 NSaved= 8 IEnMin= 7 EnMin= -2753.41769298834     IErMin= 8 ErrMin= 2.21D-08
 ErrMax= 2.21D-08 EMaxC= 1.00D-01 BMatC= 2.07D-13 BMatP= 2.47D-12
 IDIUse=1 WtCom= 1.00D+00 WtEn= 0.00D+00
 Coeff-Com: -0.336D-06-0.113D-04-0.121D-03 0.190D-03 0.225D-02-0.571D-01
 Coeff-Com:  0.178D+00 0.876D+00
 Coeff:     -0.336D-06-0.113D-04-0.121D-03 0.190D-03 0.225D-02-0.571D-01
 Coeff:      0.178D+00 0.876D+00
 Gap=     0.539 Goal=   None    Shift=    0.000
 RMSDP=3.03D-09 MaxDP=1.12D-07 DE= 1.27D-11 OVMax= 1.81D-07

 SCF Done:  E(RLC-B+HF-LYP) =  -2753.41769299     A.U. after    8 cycles
             Convg  =    0.3035D-08             -V/T =  2.0015
 KE= 2.749311415966D+03 PE=-6.578521851311D+03 EE= 1.075792742356D+03
 Leave Link  502 at Wed May 13 13:14:28 2020, MaxMem= 1073741824 cpu:     189.7
 (Enter /home/matheus/.gaussian/g09/l601.exe)
 Copying SCF densities to generalized density rwf, IOpCl= 0 IROHF=0.

 **********************************************************************

            Population analysis using the SCF density.

 **********************************************************************

 Orbital symmetries:
       Occupied  (A) (A) (A) (A) (A) (A) (A) (A) (A) (A) (A) (A)
                 (A) (A) (A) (A) (A) (A)
       Virtual   (A) (A) (A) (A) (A) (A) (A) (A) (A) (A) (A) (A)
                 (A) (A) (A) (A) (A) (A) (A) (A) (A) (A) (A) (A)
                 (A) (A) (A) (A) (A) (A) (A) (A) (A) (A) (A) (A)
                 (A) (A) (A) (A) (A) (A) (A) (A) (A) (A) (A) (A)
                 (A) (A) (A) (A) (A) (A) (A) (A) (A) (A) (A) (A)
                 (A) (A) (A) (A) (A) (A) (A) (A) (A) (A) (A) (A)
                 (A) (A) (A) (A) (A) (A) (A) (A) (A) (A) (A) (A)
                 (A) (A) (A) (A) (A) (A) (A) (A) (A) (A) (A) (A)
                 (A) (A) (A) (A) (A) (A) (A) (A) (A) (A) (A) (A)
                 (A) (A) (A) (A) (A) (A) (A) (A) (A) (A) (A) (A)
                 (A) (A) (A) (A) (A) (A) (A) (A) (A) (A) (A) (A)
                 (A) (A) (A) (A) (A) (A) (A) (A) (A) (A) (A) (A)
                 (A) (A) (A) (A) (A) (A) (A) (A) (A) (A) (A) (A)
                 (A) (A) (A) (A) (A) (A) (A) (A) (A) (A) (A) (A)
                 (A) (A) (A) (A) (A) (A) (A) (A) (A) (A) (A)
 The electronic state is 1-A.
 Alpha  occ. eigenvalues -- -511.24366 -66.71352 -60.39875 -60.39872 -60.39871
 Alpha  occ. eigenvalues --   -9.60493  -7.35946  -7.35944  -7.35944  -3.32283
 Alpha  occ. eigenvalues --   -3.32282  -3.32282  -3.32281  -3.32281  -1.06079
 Alpha  occ. eigenvalues --   -0.51293  -0.51288  -0.51286
 Alpha virt. eigenvalues --    0.02607   0.04767   0.07767   0.08678   0.11392
 Alpha virt. eigenvalues --    0.11963   0.12895   0.13017   0.15586   0.16729
 Alpha virt. eigenvalues --    0.17387   0.18900   0.20178   0.25155   0.26305
 Alpha virt. eigenvalues --    0.26825   0.28600   0.30903   0.32752   0.34885
 Alpha virt. eigenvalues --    0.35246   0.37243   0.38015   0.39456   0.40836
 Alpha virt. eigenvalues --    0.41330   0.43831   0.52946   0.55092   0.58258
 Alpha virt. eigenvalues --    0.59351   0.65653   0.67690   0.68742   0.71341
 Alpha virt. eigenvalues --    0.72439   0.74488   0.76678   0.78029   0.78875
 Alpha virt. eigenvalues --    0.80199   0.80982   0.84168   0.84990   0.87557
 Alpha virt. eigenvalues --    0.88149   0.89126   0.90061   0.91486   0.95777
 Alpha virt. eigenvalues --    0.97222   0.98384   0.99970   1.00684   1.03214
 Alpha virt. eigenvalues --    1.04630   1.07014   1.08745   1.12714   1.16136
 Alpha virt. eigenvalues --    1.17367   1.21978   1.23561   1.29775   1.31844
 Alpha virt. eigenvalues --    1.33071   1.39081   1.45297   1.47744   1.50022
 Alpha virt. eigenvalues --    1.54776   1.56490   1.59223   1.69263   1.77888
 Alpha virt. eigenvalues --    1.80464   1.81965   1.85512   1.94111   2.16570
 Alpha virt. eigenvalues --    2.20978   2.23862   2.28578   2.29588   2.31316
 Alpha virt. eigenvalues --    2.33157   2.34599   2.35994   2.37369   2.41025
 Alpha virt. eigenvalues --    2.43283   2.45012   2.45600   2.51122   2.52062
 Alpha virt. eigenvalues --    2.53175   2.54812   2.56814   2.59715   2.61686
 Alpha virt. eigenvalues --    2.63522   2.64025   2.67217   2.70568   2.72416
 Alpha virt. eigenvalues --    2.74557   2.79150   2.85076   2.86176   2.89786
 Alpha virt. eigenvalues --    2.95838   2.98706   3.05429   3.07406   3.17173
 Alpha virt. eigenvalues --    3.18702   3.27340   3.30680   3.39200   3.44078
 Alpha virt. eigenvalues --    3.60332   3.65655   3.80929   3.85853   4.02305
 Alpha virt. eigenvalues --    4.37631   4.48395   4.49992   4.57347   4.66419
 Alpha virt. eigenvalues --    4.70885   4.83691   4.85077   4.96345   5.07897
 Alpha virt. eigenvalues --    5.08798   5.26167   5.54105   5.68349   5.83834
 Alpha virt. eigenvalues --    5.87233   5.94394   6.15144   6.79003   6.80936
 Alpha virt. eigenvalues --    7.37071   7.44000   7.56048   7.66310   7.71549
 Alpha virt. eigenvalues --    7.80147   7.96747   8.15391   8.16430   8.23115
 Alpha virt. eigenvalues --    8.33691   8.49110   8.58581   8.88970   9.59405
 Alpha virt. eigenvalues --    9.73982   9.83063   9.85617   9.93891   9.97342
 Alpha virt. eigenvalues --   10.16132  10.23630  10.49791  10.93889  11.55663
 Alpha virt. eigenvalues --   11.59554  11.79041  12.00157  12.06798  13.18924
 Alpha virt. eigenvalues --   13.70221  14.51040  62.76554  64.66865
          Condensed to atoms (all electrons):
              1          2          3          4          5
     1  O    0.000791  -0.000847  -0.000321   0.000646  -0.006542
     2  O   -0.000847   0.004022   0.000308  -0.002859  -0.005783
     3  H   -0.000321   0.000308   0.000348  -0.000163  -0.003582
     4  H    0.000646  -0.002859  -0.000163   0.002874  -0.011675
     5  Kr  -0.006542  -0.005783  -0.003582  -0.011675  36.053602
 Mulliken atomic charges:
              1
     1  O    0.006273
     2  O    0.005159
     3  H    0.003410
     4  H    0.011177
     5  Kr  -0.026019
 Sum of Mulliken atomic charges =   0.00000
 Mulliken charges with hydrogens summed into heavy atoms:
              1
     1  O    0.009683
     2  O    0.016336
     5  Kr  -0.026019
 Sum of Mulliken charges with hydrogens summed into heavy atoms =   0.00000
          Condensed to fragments (all electrons):
     1       0.026019
     2      -0.026019
 Electronic spatial extent (au):  <R**2>=            161.7109
 Charge=              0.0000 electrons
 Dipole moment (field-independent basis, Debye):
    X=              0.0015    Y=              0.0005    Z=              0.0002  Tot=              0.0016
 Quadrupole moment (field-independent basis, Debye-Ang):
   XX=            -17.7448   YY=            -17.7572   ZZ=            -17.7649
   XY=              0.0022   XZ=              0.0024   YZ=             -0.0012
 Traceless Quadrupole moment (field-independent basis, Debye-Ang):
   XX=              0.0108   YY=             -0.0016   ZZ=             -0.0093
   XY=              0.0022   XZ=              0.0024   YZ=             -0.0012
 Octapole moment (field-independent basis, Debye-Ang**2):
  XXX=             51.8780  YYY=              0.2557  ZZZ=              0.1748  XYY=             17.3075
  XXY=              0.0801  XXZ=              0.0546  XZZ=             17.3119  YZZ=              0.0852
  YYZ=              0.0589  XYZ=              0.0003
 Hexadecapole moment (field-independent basis, Debye-Ang**3):
 XXXX=           -120.0099 YYYY=            -18.9339 ZZZZ=            -18.9570 XXXY=             -0.2398
 XXXZ=             -0.1625 YYYX=             -0.2411 YYYZ=             -0.0015 ZZZX=             -0.1661
 ZZZY=             -0.0017 XXYY=            -23.1692 XXZZ=            -23.1757 YYZZ=             -6.3141
 XXYZ=             -0.0020 YYXZ=             -0.0551 ZZXY=             -0.0795
 N-N= 0.000000000000D+00 E-N=-6.578521849610D+03  KE= 2.749311415966D+03
 No NMR shielding tensors so no spin-rotation constants.
 Leave Link  601 at Wed May 13 13:14:29 2020, MaxMem= 1073741824 cpu:       0.7
 (Enter /home/matheus/.gaussian/g09/l122.exe)
 Counterpoise: doing MCBS calculation for fragment   1
 Leave Link  122 at Wed May 13 13:14:29 2020, MaxMem= 1073741824 cpu:       0.0
 (Enter /home/matheus/.gaussian/g09/l301.exe)
 Basis read from rwf:  (5D, 7F)
 No pseudopotential information found on rwf file.
 There are   138 symmetry adapted basis functions of A   symmetry.
 Integral buffers will be    131072 words long.
 Raffenetti 2 integral format.
 Two-electron integral symmetry is turned on.
   138 basis functions,   198 primitive gaussians,   160 cartesian basis functions
     9 alpha electrons        9 beta electrons
       nuclear repulsion energy        36.6440881780 Hartrees.
 IExCor=10402 DFT=T Ex=LC-B+HF Corr=LYP ExCW=0 ScaHFX=  1.000000
 ScaDFX=  1.000000  1.000000  1.000000  1.000000 ScalE2=  1.000000  1.000000
 IRadAn=      5 IRanWt=     -1 IRanGd=            0 ICorTp=0
  HFx wShort=  0.000000 wLong=  0.470000 cFull=  0.000000 cShort=  0.000000 cLong=  1.000000
  DFx wShort=  0.000000 wLong=  0.470000 cFull=  0.000000 cShort=  0.000000 cLong=  1.000000
 NAtoms=    5 NActive=    4 NUniq=    4 SFac= 1.00D+00 NAtFMM=   60 NAOKFM=F Big=F
 No density basis found on file   718.
 Leave Link  301 at Wed May 13 13:14:29 2020, MaxMem= 1073741824 cpu:       0.2
 (Enter /home/matheus/.gaussian/g09/l302.exe)
 NPDir=0 NMtPBC=     1 NCelOv=     1 NCel=       1 NClECP=     1 NCelD=      1
         NCelK=      1 NCelE2=     1 NClLst=     1 CellRange=     0.0.
 One-electron integrals computed using PRISM.
 NBasis=   138 RedAO= T  NBF=   138
 NBsUse=   138 1.00D-06 NBFU=   138
 Precomputing XC quadrature grid using
 IXCGrd= 2 IRadAn=           5 IRanWt=          -1 IRanGd=           0 AccXCQ= 0.00D+00.
 NRdTot=     344 NPtTot=       92556 NUsed=       95038 NTot=       95070
 NSgBfM=   160   160   160   160   160 NAtAll=     4     4.
 Leave Link  302 at Wed May 13 13:14:29 2020, MaxMem= 1073741824 cpu:       0.8
 (Enter /home/matheus/.gaussian/g09/l303.exe)
 DipDrv:  MaxL=1.
 Leave Link  303 at Wed May 13 13:14:29 2020, MaxMem= 1073741824 cpu:       0.1
 (Enter /home/matheus/.gaussian/g09/l401.exe)
 Harris functional with IExCor=10402 diagonalized for initial guess.
 ExpMin= 2.53D-02 ExpMax= 1.53D+04 ExpMxC= 5.22D+02 IAcc=3 IRadAn=         5 AccDes= 0.00D+00
 HarFok:  IExCor=10402 AccDes= 0.00D+00 IRadAn=         5 IDoV= 1
 ScaDFX=  1.000000  1.000000  1.000000  1.000000
 FoFCou: FMM=F IPFlag=           0 FMFlag=      100000 FMFlg1=           0
         NFxFlg=           0 DoJE=T BraDBF=F KetDBF=T FulRan=T
         Omega=  0.000000  0.000000  1.000000  0.000000  0.000000 ICntrl=     500 IOpCl=  0
         NMat0=    1 NMatS0=    1 NMatT0=    0 NMatD0=    1 NMtDS0=    0 NMtDT0=    0
         I1Cent=           4 NGrid=           0.
 Petite list used in FoFCou.
 Harris En= -147.164568480810    
 Initial guess orbital symmetries:
       Occupied  (A) (A) (A) (A) (A) (A) (A) (A) (A)
       Virtual   (A) (A) (A) (A) (A) (A) (A) (A) (A) (A) (A) (A)
                 (A) (A) (A) (A) (A) (A) (A) (A) (A) (A) (A) (A)
                 (A) (A) (A) (A) (A) (A) (A) (A) (A) (A) (A) (A)
                 (A) (A) (A) (A) (A) (A) (A) (A) (A) (A) (A) (A)
                 (A) (A) (A) (A) (A) (A) (A) (A) (A) (A) (A) (A)
                 (A) (A) (A) (A) (A) (A) (A) (A) (A) (A) (A) (A)
                 (A) (A) (A) (A) (A) (A) (A) (A) (A) (A) (A) (A)
                 (A) (A) (A) (A) (A) (A) (A) (A) (A) (A) (A) (A)
                 (A) (A) (A) (A) (A) (A) (A) (A) (A) (A) (A) (A)
                 (A) (A) (A) (A) (A) (A) (A) (A) (A) (A) (A) (A)
                 (A) (A) (A) (A) (A) (A) (A) (A) (A)
 The electronic state of the initial guess is 1-A.
 Leave Link  401 at Wed May 13 13:14:29 2020, MaxMem= 1073741824 cpu:       2.1
 (Enter /home/matheus/.gaussian/g09/l502.exe)
 Closed shell SCF:
 Requested convergence on RMS density matrix=1.00D-08 within 128 cycles.
 Requested convergence on MAX density matrix=1.00D-06.
 Requested convergence on             energy=1.00D-06.
 No special actions if energy rises.
 Using DIIS extrapolation, IDIIS=  1040.
 Integral symmetry usage will be decided dynamically.
        94980 words used for storage of precomputed grid.
 IEnd=      192360 IEndB=      192360 NGot=  1073741824 MDV=  1073591865
 LenX=  1073591865 LenY=  1073565824
 Fock matrices will be formed incrementally for  20 cycles.

 Cycle   1  Pass 1  IDiag  1:
 FoFJK:  IHMeth= 1 ICntrl=     0 DoSepK=T KAlg= 1 I1Cent= 0 FoldK=F
 FoFCou: FMM=F IPFlag=           0 FMFlag=      100000 FMFlg1=           0
         NFxFlg=           0 DoJE=T BraDBF=F KetDBF=F FulRan=T
         Omega=  0.000000  0.000000  1.000000  0.000000  0.000000 ICntrl=     500 IOpCl=  0
         NMat0=    1 NMatS0=    1 NMatT0=    0 NMatD0=    1 NMtDS0=    0 NMtDT0=    0
         I1Cent=           0 NGrid=           0.
 Symmetry not used in FoFCou.
 E= -151.300364417740    
 DIIS: error= 1.45D-02 at cycle   1 NSaved=   1.
 NSaved= 1 IEnMin= 1 EnMin= -151.300364417740     IErMin= 1 ErrMin= 1.45D-02
 ErrMax= 1.45D-02 EMaxC= 1.00D-01 BMatC= 2.33D-02 BMatP= 2.33D-02
 IDIUse=3 WtCom= 8.55D-01 WtEn= 1.45D-01
 Coeff-Com:  0.100D+01
 Coeff-En:   0.100D+01
 Coeff:      0.100D+01
 Gap=     0.479 Goal=   None    Shift=    0.000
 GapD=    0.479 DampG=2.000 DampE=0.500 DampFc=1.0000 IDamp=-1.
 RMSDP=1.20D-03 MaxDP=2.84D-02              OVMax= 5.46D-02

 Cycle   2  Pass 1  IDiag  1:
 RMSU=  8.47D-04    CP:  1.01D+00
 FoFJK:  IHMeth= 1 ICntrl=     0 DoSepK=T KAlg= 1 I1Cent= 0 FoldK=F
 E= -151.320859151001     Delta-E=       -0.020494733262 Rises=F Damp=F
 DIIS: error= 7.48D-03 at cycle   2 NSaved=   2.
 NSaved= 2 IEnMin= 2 EnMin= -151.320859151001     IErMin= 2 ErrMin= 7.48D-03
 ErrMax= 7.48D-03 EMaxC= 1.00D-01 BMatC= 4.67D-03 BMatP= 2.33D-02
 IDIUse=3 WtCom= 9.25D-01 WtEn= 7.48D-02
 Coeff-Com:  0.261D+00 0.739D+00
 Coeff-En:   0.000D+00 0.100D+01
 Coeff:      0.242D+00 0.758D+00
 Gap=     0.440 Goal=   None    Shift=    0.000
 RMSDP=3.11D-04 MaxDP=6.63D-03 DE=-2.05D-02 OVMax= 1.47D-02

 Cycle   3  Pass 1  IDiag  1:
 RMSU=  2.20D-04    CP:  1.00D+00  1.01D+00
 FoFJK:  IHMeth= 1 ICntrl=     0 DoSepK=T KAlg= 1 I1Cent= 0 FoldK=F
 E= -151.323471398271     Delta-E=       -0.002612247269 Rises=F Damp=F
 DIIS: error= 2.28D-03 at cycle   3 NSaved=   3.
 NSaved= 3 IEnMin= 3 EnMin= -151.323471398271     IErMin= 3 ErrMin= 2.28D-03
 ErrMax= 2.28D-03 EMaxC= 1.00D-01 BMatC= 5.69D-04 BMatP= 4.67D-03
 IDIUse=3 WtCom= 9.77D-01 WtEn= 2.28D-02
 Coeff-Com:  0.228D-01 0.247D+00 0.731D+00
 Coeff-En:   0.000D+00 0.000D+00 0.100D+01
 Coeff:      0.223D-01 0.241D+00 0.737D+00
 Gap=     0.450 Goal=   None    Shift=    0.000
 RMSDP=1.41D-04 MaxDP=3.42D-03 DE=-2.61D-03 OVMax= 7.27D-03

 Cycle   4  Pass 1  IDiag  1:
 RMSU=  7.21D-05    CP:  1.00D+00  1.09D+00  9.44D-01
 FoFJK:  IHMeth= 1 ICntrl=     0 DoSepK=T KAlg= 1 I1Cent= 0 FoldK=F
 E= -151.323896035640     Delta-E=       -0.000424637369 Rises=F Damp=F
 DIIS: error= 5.11D-04 at cycle   4 NSaved=   4.
 NSaved= 4 IEnMin= 4 EnMin= -151.323896035640     IErMin= 4 ErrMin= 5.11D-04
 ErrMax= 5.11D-04 EMaxC= 1.00D-01 BMatC= 4.16D-05 BMatP= 5.69D-04
 IDIUse=3 WtCom= 9.95D-01 WtEn= 5.11D-03
 Coeff-Com: -0.217D-01-0.335D-01 0.165D+00 0.891D+00
 Coeff-En:   0.000D+00 0.000D+00 0.000D+00 0.100D+01
 Coeff:     -0.215D-01-0.333D-01 0.164D+00 0.891D+00
 Gap=     0.447 Goal=   None    Shift=    0.000
 RMSDP=5.82D-05 MaxDP=1.46D-03 DE=-4.25D-04 OVMax= 1.87D-03

 Cycle   5  Pass 1  IDiag  1:
 RMSU=  1.41D-05    CP:  1.00D+00  1.12D+00  1.09D+00  1.10D+00
 FoFJK:  IHMeth= 1 ICntrl=     0 DoSepK=T KAlg= 1 I1Cent= 0 FoldK=F
 E= -151.323934108472     Delta-E=       -0.000038072832 Rises=F Damp=F
 DIIS: error= 6.98D-05 at cycle   5 NSaved=   5.
 NSaved= 5 IEnMin= 5 EnMin= -151.323934108472     IErMin= 5 ErrMin= 6.98D-05
 ErrMax= 6.98D-05 EMaxC= 1.00D-01 BMatC= 4.11D-07 BMatP= 4.16D-05
 IDIUse=1 WtCom= 1.00D+00 WtEn= 0.00D+00
 Coeff-Com:  0.774D-03-0.390D-02-0.371D-01-0.809D-01 0.112D+01
 Coeff:      0.774D-03-0.390D-02-0.371D-01-0.809D-01 0.112D+01
 Gap=     0.447 Goal=   None    Shift=    0.000
[...]
 FoFCou: FMM=F IPFlag=           0 FMFlag=      100000 FMFlg1=           0
         NFxFlg=           0 DoJE=T BraDBF=F KetDBF=F FulRan=T
         Omega=  0.000000  0.000000  1.000000  0.000000  0.000000 ICntrl=     500 IOpCl=  0
         NMat0=    1 NMatS0=    1 NMatT0=    0 NMatD0=    1 NMtDS0=    0 NMtDT0=    0
         I1Cent=           0 NGrid=           0.
 Symmetry not used in FoFCou.
 E= -2753.41756211780    
 DIIS: error= 2.20D-04 at cycle   1 NSaved=   1.
 NSaved= 1 IEnMin= 1 EnMin= -2753.41756211780     IErMin= 1 ErrMin= 2.20D-04
 ErrMax= 2.20D-04 EMaxC= 1.00D-01 BMatC= 5.69D-06 BMatP= 5.69D-06
 IDIUse=3 WtCom= 9.98D-01 WtEn= 2.20D-03
 Coeff-Com:  0.100D+01
 Coeff-En:   0.100D+01
 Coeff:      0.100D+01
 Gap=     0.539 Goal=   None    Shift=    0.000
 RMSDP=1.27D-05 MaxDP=6.55D-04              OVMax= 3.17D-04

 Cycle   2  Pass 1  IDiag  1:
 RMSU=  8.97D-06    CP:  1.00D+00
 FoFJK:  IHMeth= 1 ICntrl=     0 DoSepK=T KAlg= 1 I1Cent= 0 FoldK=F
 E= -2753.41756271409     Delta-E=       -0.000000596290 Rises=F Damp=F
 DIIS: error= 3.62D-06 at cycle   2 NSaved=   2.
 NSaved= 2 IEnMin= 2 EnMin= -2753.41756271409     IErMin= 2 ErrMin= 3.62D-06
 ErrMax= 3.62D-06 EMaxC= 1.00D-01 BMatC= 3.70D-09 BMatP= 5.69D-06
 IDIUse=1 WtCom= 1.00D+00 WtEn= 0.00D+00
 Coeff-Com: -0.758D-02 0.101D+01
 Coeff:     -0.758D-02 0.101D+01
 Gap=     0.539 Goal=   None    Shift=    0.000
 RMSDP=1.36D-06 MaxDP=5.76D-05 DE=-5.96D-07 OVMax= 4.77D-05

 Cycle   3  Pass 1  IDiag  1:
 RMSU=  5.35D-07    CP:  1.00D+00  1.09D+00
 FoFJK:  IHMeth= 1 ICntrl=     0 DoSepK=T KAlg= 1 I1Cent= 0 FoldK=F
 E= -2753.41756272072     Delta-E=       -0.000000006630 Rises=F Damp=F
 DIIS: error= 5.50D-07 at cycle   3 NSaved=   3.
 NSaved= 3 IEnMin= 3 EnMin= -2753.41756272072     IErMin= 3 ErrMin= 5.50D-07
 ErrMax= 5.50D-07 EMaxC= 1.00D-01 BMatC= 1.11D-10 BMatP= 3.70D-09
 IDIUse=1 WtCom= 1.00D+00 WtEn= 0.00D+00
 Coeff-Com:  0.176D-03-0.105D+00 0.110D+01
 Coeff:      0.176D-03-0.105D+00 0.110D+01
 Gap=     0.539 Goal=   None    Shift=    0.000
 RMSDP=2.04D-07 MaxDP=9.33D-06 DE=-6.63D-09 OVMax= 9.48D-06

 Cycle   4  Pass 1  IDiag  1:
 RMSU=  5.47D-08    CP:  1.00D+00  1.10D+00  1.21D+00
 FoFJK:  IHMeth= 1 ICntrl=     0 DoSepK=T KAlg= 1 I1Cent= 0 FoldK=F
 E= -2753.41756272092     Delta-E=       -0.000000000207 Rises=F Damp=F
 DIIS: error= 3.90D-07 at cycle   4 NSaved=   4.
 NSaved= 4 IEnMin= 4 EnMin= -2753.41756272092     IErMin= 4 ErrMin= 3.90D-07
 ErrMax= 3.90D-07 EMaxC= 1.00D-01 BMatC= 2.00D-11 BMatP= 1.11D-10
 IDIUse=1 WtCom= 1.00D+00 WtEn= 0.00D+00
 Coeff-Com:  0.237D-03-0.562D-01 0.350D+00 0.706D+00
 Coeff:      0.237D-03-0.562D-01 0.350D+00 0.706D+00
 Gap=     0.539 Goal=   None    Shift=    0.000
 RMSDP=2.30D-08 MaxDP=8.19D-07 DE=-2.07D-10 OVMax= 1.10D-06

 Cycle   5  Pass 1  IDiag  1:
 RMSU=  1.12D-08    CP:  1.00D+00  1.10D+00  1.23D+00  1.09D+00
 FoFJK:  IHMeth= 1 ICntrl=     0 DoSepK=T KAlg= 1 I1Cent= 0 FoldK=F
 E= -2753.41756272095     Delta-E=       -0.000000000027 Rises=F Damp=F
 DIIS: error= 3.34D-08 at cycle   5 NSaved=   5.
 NSaved= 5 IEnMin= 5 EnMin= -2753.41756272095     IErMin= 5 ErrMin= 3.34D-08
 ErrMax= 3.34D-08 EMaxC= 1.00D-01 BMatC= 2.62D-13 BMatP= 2.00D-11
 IDIUse=1 WtCom= 1.00D+00 WtEn= 0.00D+00
 Coeff-Com: -0.173D-04 0.656D-02-0.618D-01-0.197D-01 0.107D+01
 Coeff:     -0.173D-04 0.656D-02-0.618D-01-0.197D-01 0.107D+01
 Gap=     0.539 Goal=   None    Shift=    0.000
 RMSDP=9.32D-09 MaxDP=4.70D-07 DE=-2.73D-11 OVMax= 4.66D-07

 SCF Done:  E(RLC-B+HF-LYP) =  -2753.41756272     A.U. after    5 cycles
             Convg  =    0.9323D-08             -V/T =  2.0015
 KE= 2.749364600043D+03 PE=-6.578580048929D+03 EE= 1.075797886165D+03
 Leave Link  502 at Wed May 13 13:35:37 2020, MaxMem= 1073741824 cpu:     100.1
 (Enter /home/matheus/.gaussian/g09/l122.exe)
 Restoring MOs from calculation   4 to rwf.
 Counterpoise: doing MCBS calculation for fragment   1
 Leave Link  122 at Wed May 13 13:35:37 2020, MaxMem= 1073741824 cpu:       0.0
 (Enter /home/matheus/.gaussian/g09/l301.exe)
 Basis read from rwf:  (5D, 7F)
 No pseudopotential information found on rwf file.
 There are   138 symmetry adapted basis functions of A   symmetry.
 Integral buffers will be    131072 words long.
 Raffenetti 2 integral format.
 Two-electron integral symmetry is turned on.
   138 basis functions,   198 primitive gaussians,   160 cartesian basis functions
     9 alpha electrons        9 beta electrons
       nuclear repulsion energy        36.6440881780 Hartrees.
 IExCor=10402 DFT=T Ex=LC-B+HF Corr=LYP ExCW=0 ScaHFX=  1.000000
 ScaDFX=  1.000000  1.000000  1.000000  1.000000 ScalE2=  1.000000  1.000000
 IRadAn=      5 IRanWt=     -1 IRanGd=            0 ICorTp=0
  HFx wShort=  0.000000 wLong=  0.470000 cFull=  0.000000 cShort=  0.000000 cLong=  1.000000
  DFx wShort=  0.000000 wLong=  0.470000 cFull=  0.000000 cShort=  0.000000 cLong=  1.000000
 NAtoms=    5 NActive=    4 NUniq=    4 SFac= 1.00D+00 NAtFMM=   60 NAOKFM=F Big=F
 No density basis found on file   718.
 Leave Link  301 at Wed May 13 13:35:37 2020, MaxMem= 1073741824 cpu:       0.2
 (Enter /home/matheus/.gaussian/g09/l302.exe)
 NPDir=0 NMtPBC=     1 NCelOv=     1 NCel=       1 NClECP=     1 NCelD=      1
         NCelK=      1 NCelE2=     1 NClLst=     1 CellRange=     0.0.
 One-electron integrals computed using PRISM.
 NBasis=   138 RedAO= T  NBF=   138
 NBsUse=   138 1.00D-06 NBFU=   138
 Precomputing XC quadrature grid using
 IXCGrd= 2 IRadAn=           5 IRanWt=          -1 IRanGd=           0 AccXCQ= 0.00D+00.
 NRdTot=     344 NPtTot=       92556 NUsed=       95038 NTot=       95070
 NSgBfM=   160   160   160   160   160 NAtAll=     4     4.
 Leave Link  302 at Wed May 13 13:35:37 2020, MaxMem= 1073741824 cpu:       0.8
 (Enter /home/matheus/.gaussian/g09/l303.exe)
 DipDrv:  MaxL=1.
 Leave Link  303 at Wed May 13 13:35:37 2020, MaxMem= 1073741824 cpu:       0.1
 (Enter /home/matheus/.gaussian/g09/l401.exe)
 Initial guess read from the read-write file.
 Guess basis will be translated and rotated to current coordinates.
 Initial guess orbital symmetries:
       Occupied  (A) (A) (A) (A) (A) (A) (A) (A) (A)
       Virtual   (A) (A) (A) (A) (A) (A) (A) (A) (A) (A) (A) (A)
                 (A) (A) (A) (A) (A) (A) (A) (A) (A) (A) (A) (A)
                 (A) (A) (A) (A) (A) (A) (A) (A) (A) (A) (A) (A)
                 (A) (A) (A) (A) (A) (A) (A) (A) (A) (A) (A) (A)
                 (A) (A) (A) (A) (A) (A) (A) (A) (A) (A) (A) (A)
                 (A) (A) (A) (A) (A) (A) (A) (A) (A) (A) (A) (A)
                 (A) (A) (A) (A) (A) (A) (A) (A) (A) (A) (A) (A)
                 (A) (A) (A) (A) (A) (A) (A) (A) (A) (A) (A) (A)
                 (A) (A) (A) (A) (A) (A) (A) (A) (A) (A) (A) (A)
                 (A) (A) (A) (A) (A) (A) (A) (A) (A) (A) (A) (A)
                 (A) (A) (A) (A) (A) (A) (A) (A) (A)
 The electronic state of the initial guess is 1-A.
 Generating alternative initial guess.
 Harris functional with IExCor=10402 diagonalized for initial guess.
 ExpMin= 2.53D-02 ExpMax= 1.53D+04 ExpMxC= 5.22D+02 IAcc=3 IRadAn=         5 AccDes= 0.00D+00
 HarFok:  IExCor=10402 AccDes= 0.00D+00 IRadAn=         5 IDoV= 1
 ScaDFX=  1.000000  1.000000  1.000000  1.000000
 FoFCou: FMM=F IPFlag=           0 FMFlag=      100000 FMFlg1=           0
         NFxFlg=           0 DoJE=T BraDBF=F KetDBF=T FulRan=T
         Omega=  0.000000  0.000000  1.000000  0.000000  0.000000 ICntrl=     500 IOpCl=  0
         NMat0=    1 NMatS0=    1 NMatT0=    0 NMatD0=    1 NMtDS0=    0 NMtDT0=    0
         I1Cent=           4 NGrid=           0.
 Petite list used in FoFCou.
 Harris En= -147.164568479618    
 Leave Link  401 at Wed May 13 13:35:37 2020, MaxMem= 1073741824 cpu:       2.4
 (Enter /home/matheus/.gaussian/g09/l502.exe)
 Closed shell SCF:
 Requested convergence on RMS density matrix=1.00D-08 within 128 cycles.
 Requested convergence on MAX density matrix=1.00D-06.
 Requested convergence on             energy=1.00D-06.
 No special actions if energy rises.
 Using DIIS extrapolation, IDIIS=  1040.
 Integral symmetry usage will be decided dynamically.
        94980 words used for storage of precomputed grid.
 IEnd=      192360 IEndB=      192360 NGot=  1073741824 MDV=  1073591865
 LenX=  1073591865 LenY=  1073565824
 Fock matrices will be formed incrementally for  20 cycles.

 Cycle   1  Pass 1  IDiag  1:
 FoFJK:  IHMeth= 1 ICntrl=     0 DoSepK=T KAlg= 1 I1Cent= 0 FoldK=F
 FoFCou: FMM=F IPFlag=           0 FMFlag=      100000 FMFlg1=           0
         NFxFlg=           0 DoJE=T BraDBF=F KetDBF=F FulRan=T
         Omega=  0.000000  0.000000  1.000000  0.000000  0.000000 ICntrl=     500 IOpCl=  0
         NMat0=    1 NMatS0=    1 NMatT0=    0 NMatD0=    1 NMtDS0=    0 NMtDT0=    0
         I1Cent=           0 NGrid=           0.
 Symmetry not used in FoFCou.
 E= -151.323935568666    
 DIIS: error= 6.06D-06 at cycle   1 NSaved=   1.
 NSaved= 1 IEnMin= 1 EnMin= -151.323935568666     IErMin= 1 ErrMin= 6.06D-06
 ErrMax= 6.06D-06 EMaxC= 1.00D-01 BMatC= 8.84D-09 BMatP= 8.84D-09
 IDIUse=1 WtCom= 1.00D+00 WtEn= 0.00D+00
 Coeff-Com:  0.100D+01
 Coeff:      0.100D+01
 Gap=     0.447 Goal=   None    Shift=    0.000
 RMSDP=6.46D-07 MaxDP=1.35D-05              OVMax= 2.33D-05

 Cycle   2  Pass 1  IDiag  1:
 RMSU=  4.57D-07    CP:  1.00D+00
 FoFJK:  IHMeth= 1 ICntrl=     0 DoSepK=T KAlg= 1 I1Cent= 0 FoldK=F
 E= -151.323935577121     Delta-E=       -0.000000008455 Rises=F Damp=F
 DIIS: error= 1.38D-06 at cycle   2 NSaved=   2.
 NSaved= 2 IEnMin= 2 EnMin= -151.323935577121     IErMin= 2 ErrMin= 1.38D-06
 ErrMax= 1.38D-06 EMaxC= 1.00D-01 BMatC= 3.38D-10 BMatP= 8.84D-09
 IDIUse=1 WtCom= 1.00D+00 WtEn= 0.00D+00
 Coeff-Com: -0.137D+00 0.114D+01
 Coeff:     -0.137D+00 0.114D+01
 Gap=     0.447 Goal=   None    Shift=    0.000
 RMSDP=1.75D-07 MaxDP=4.59D-06 DE=-8.45D-09 OVMax= 8.90D-06

 Cycle   3  Pass 1  IDiag  1:
 RMSU=  6.32D-08    CP:  1.00D+00  1.23D+00
 FoFJK:  IHMeth= 1 ICntrl=     0 DoSepK=T KAlg= 1 I1Cent= 0 FoldK=F
 E= -151.323935577855     Delta-E=       -0.000000000734 Rises=F Damp=F
 DIIS: error= 3.82D-07 at cycle   3 NSaved=   3.
 NSaved= 3 IEnMin= 3 EnMin= -151.323935577855     IErMin= 3 ErrMin= 3.82D-07
 ErrMax= 3.82D-07 EMaxC= 1.00D-01 BMatC= 2.11D-11 BMatP= 3.38D-10
 IDIUse=1 WtCom= 1.00D+00 WtEn= 0.00D+00
 Coeff-Com: -0.859D-03-0.161D+00 0.116D+01
 Coeff:     -0.859D-03-0.161D+00 0.116D+01
 Gap=     0.447 Goal=   None    Shift=    0.000
 RMSDP=5.13D-08 MaxDP=1.01D-06 DE=-7.34D-10 OVMax= 3.53D-06

 Cycle   4  Pass 1  IDiag  1:
 RMSU=  1.37D-08    CP:  1.00D+00  1.28D+00  1.40D+00
 FoFJK:  IHMeth= 1 ICntrl=     0 DoSepK=T KAlg= 1 I1Cent= 0 FoldK=F
 E= -151.323935577926     Delta-E=       -0.000000000071 Rises=F Damp=F
 DIIS: error= 1.47D-07 at cycle   4 NSaved=   4.
 NSaved= 4 IEnMin= 4 EnMin= -151.323935577926     IErMin= 4 ErrMin= 1.47D-07
 ErrMax= 1.47D-07 EMaxC= 1.00D-01 BMatC= 2.40D-12 BMatP= 2.11D-11
 IDIUse=1 WtCom= 1.00D+00 WtEn= 0.00D+00
 Coeff-Com:  0.895D-02-0.872D-01-0.155D-02 0.108D+01
 Coeff:      0.895D-02-0.872D-01-0.155D-02 0.108D+01
 Gap=     0.447 Goal=   None    Shift=    0.000
 RMSDP=1.79D-08 MaxDP=2.90D-07 DE=-7.13D-11 OVMax= 1.38D-06

 Cycle   5  Pass 1  IDiag  1:
 RMSU=  5.63D-09    CP:  1.00D+00  1.29D+00  1.53D+00  1.46D+00
 FoFJK:  IHMeth= 1 ICntrl=     0 DoSepK=T KAlg= 1 I1Cent= 0 FoldK=F
 E= -151.323935577934     Delta-E=       -0.000000000008 Rises=F Damp=F
 DIIS: error= 6.02D-08 at cycle   5 NSaved=   5.
 NSaved= 5 IEnMin= 5 EnMin= -151.323935577934     IErMin= 5 ErrMin= 6.02D-08
 ErrMax= 6.02D-08 EMaxC= 1.00D-01 BMatC= 5.28D-13 BMatP= 2.40D-12
 IDIUse=1 WtCom= 1.00D+00 WtEn= 0.00D+00
 Coeff-Com:  0.272D-02-0.134D-01-0.945D-01 0.359D+00 0.746D+00
 Coeff:      0.272D-02-0.134D-01-0.945D-01 0.359D+00 0.746D+00
 Gap=     0.447 Goal=   None    Shift=    0.000
 RMSDP=5.17D-09 MaxDP=1.08D-07 DE=-8.30D-12 OVMax= 3.48D-07

 SCF Done:  E(RLC-B+HF-LYP) =  -151.323935578     A.U. after    5 cycles
             Convg  =    0.5169D-08             -V/T =  2.0056
 KE= 1.504765771411D+02 PE=-4.314311350986D+02 EE= 9.298653420154D+01
 Leave Link  502 at Wed May 13 13:35:43 2020, MaxMem= 1073741824 cpu:      43.6
 (Enter /home/matheus/.gaussian/g09/l122.exe)
 Restoring MOs from calculation   5 to rwf.
 Counterpoise: doing MCBS calculation for fragment   2
 Leave Link  122 at Wed May 13 13:35:43 2020, MaxMem= 1073741824 cpu:       0.0
 (Enter /home/matheus/.gaussian/g09/l301.exe)
 Basis read from rwf:  (5D, 7F)
 No pseudopotential information found on rwf file.
 There are    59 symmetry adapted basis functions of A   symmetry.
 Integral buffers will be    131072 words long.
 Raffenetti 2 integral format.
 Two-electron integral symmetry is turned on.
    59 basis functions,   217 primitive gaussians,    69 cartesian basis functions
    18 alpha electrons       18 beta electrons
       nuclear repulsion energy         0.0000000000 Hartrees.
 IExCor=10402 DFT=T Ex=LC-B+HF Corr=LYP ExCW=0 ScaHFX=  1.000000
 ScaDFX=  1.000000  1.000000  1.000000  1.000000 ScalE2=  1.000000  1.000000
 IRadAn=      5 IRanWt=     -1 IRanGd=            0 ICorTp=0
  HFx wShort=  0.000000 wLong=  0.470000 cFull=  0.000000 cShort=  0.000000 cLong=  1.000000
  DFx wShort=  0.000000 wLong=  0.470000 cFull=  0.000000 cShort=  0.000000 cLong=  1.000000
 NAtoms=    5 NActive=    1 NUniq=    1 SFac= 1.00D+00 NAtFMM=   60 NAOKFM=F Big=F
 No density basis found on file   718.
 Leave Link  301 at Wed May 13 13:35:43 2020, MaxMem= 1073741824 cpu:       0.2
 (Enter /home/matheus/.gaussian/g09/l302.exe)
 NPDir=0 NMtPBC=     1 NCelOv=     1 NCel=       1 NClECP=     1 NCelD=      1
         NCelK=      1 NCelE2=     1 NClLst=     1 CellRange=     0.0.
 One-electron integrals computed using PRISM.
 NBasis=    59 RedAO= T  NBF=    59
 NBsUse=    59 1.00D-06 NBFU=    59
 Precomputing XC quadrature grid using
 IXCGrd= 2 IRadAn=           5 IRanWt=          -1 IRanGd=           0 AccXCQ= 0.00D+00.
 NRdTot=      81 NPtTot=       30352 NUsed=       30981 NTot=       31013
 NSgBfM=    69    69    69    69    69 NAtAll=     1     1.
 Leave Link  302 at Wed May 13 13:35:43 2020, MaxMem= 1073741824 cpu:       0.7
 (Enter /home/matheus/.gaussian/g09/l303.exe)
 DipDrv:  MaxL=1.
 Leave Link  303 at Wed May 13 13:35:43 2020, MaxMem= 1073741824 cpu:       0.1
 (Enter /home/matheus/.gaussian/g09/l401.exe)
 Initial guess read from the read-write file.
 Guess basis will be translated and rotated to current coordinates.
 Initial guess orbital symmetries:
       Occupied  (A) (A) (A) (A) (A) (A) (A) (A) (A) (A) (A) (A)
                 (A) (A) (A) (A) (A) (A)
       Virtual   (A) (A) (A) (A) (A) (A) (A) (A) (A) (A) (A) (A)
                 (A) (A) (A) (A) (A) (A) (A) (A) (A) (A) (A) (A)
                 (A) (A) (A) (A) (A) (A) (A) (A) (A) (A) (A) (A)
                 (A) (A) (A) (A) (A)
 The electronic state of the initial guess is 1-A.
 Generating alternative initial guess.
 Harris functional with IExCor=10402 diagonalized for initial guess.
 ExpMin= 4.00D-02 ExpMax= 1.17D+07 ExpMxC= 1.33D+04 IAcc=3 IRadAn=         5 AccDes= 0.00D+00
 HarFok:  IExCor=10402 AccDes= 0.00D+00 IRadAn=         5 IDoV= 1
 ScaDFX=  1.000000  1.000000  1.000000  1.000000
 FoFCou: FMM=F IPFlag=           0 FMFlag=      100000 FMFlg1=           0
         NFxFlg=           0 DoJE=T BraDBF=F KetDBF=T FulRan=T
         Omega=  0.000000  0.000000  1.000000  0.000000  0.000000 ICntrl=     500 IOpCl=  0
         NMat0=    1 NMatS0=    1 NMatT0=    0 NMatD0=    1 NMtDS0=    0 NMtDT0=    0
         I1Cent=           4 NGrid=           0.
 Petite list used in FoFCou.
 Harris En= -2744.51485235229    
 Leave Link  401 at Wed May 13 13:35:43 2020, MaxMem= 1073741824 cpu:       1.1
 (Enter /home/matheus/.gaussian/g09/l502.exe)
 Closed shell SCF:
 Requested convergence on RMS density matrix=1.00D-08 within 128 cycles.
 Requested convergence on MAX density matrix=1.00D-06.
 Requested convergence on             energy=1.00D-06.
 No special actions if energy rises.
 Using DIIS extrapolation, IDIIS=  1040.
 Integral symmetry usage will be decided dynamically.
        30923 words used for storage of precomputed grid.
 IEnd=       64406 IEndB=       64406 NGot=  1073741824 MDV=  1073698889
 LenX=  1073698889 LenY=  1073693687
 Fock matrices will be formed incrementally for  20 cycles.

 Cycle   1  Pass 1  IDiag  1:
 FoFJK:  IHMeth= 1 ICntrl=     0 DoSepK=T KAlg= 1 I1Cent= 0 FoldK=F
 FoFCou: FMM=F IPFlag=           0 FMFlag=      100000 FMFlg1=           0
         NFxFlg=           0 DoJE=T BraDBF=F KetDBF=F FulRan=T
         Omega=  0.000000  0.000000  1.000000  0.000000  0.000000 ICntrl=     500 IOpCl=  0
         NMat0=    1 NMatS0=    1 NMatT0=    0 NMatD0=    1 NMtDS0=    0 NMtDT0=    0
         I1Cent=           0 NGrid=           0.
 Symmetry not used in FoFCou.
 E= -2753.41754223393    
 DIIS: error= 1.21D-13 at cycle   1 NSaved=   1.
 NSaved= 1 IEnMin= 1 EnMin= -2753.41754223393     IErMin= 1 ErrMin= 1.21D-13
 ErrMax= 1.21D-13 EMaxC= 1.00D-01 BMatC= 2.95D-25 BMatP= 2.95D-25
 IDIUse=1 WtCom= 1.00D+00 WtEn= 0.00D+00
 Coeff-Com:  0.100D+01
 Coeff:      0.100D+01
 Gap=     0.595 Goal=   None    Shift=    0.000
 RMSDP=9.30D-15 MaxDP=1.86D-13              OVMax= 1.50D-13

 SCF Done:  E(RLC-B+HF-LYP) =  -2753.41754223     A.U. after    1 cycles
             Convg  =    0.9304D-14             -V/T =  2.0015
 KE= 2.749372504928D+03 PE=-6.578588569976D+03 EE= 1.075798522814D+03
 Leave Link  502 at Wed May 13 13:35:44 2020, MaxMem= 1073741824 cpu:      12.3
 (Enter /home/matheus/.gaussian/g09/l122.exe)
 Restoring MOs from calculation   1 to rwf.
 Counterpoise: corrected energy =   -2904.741605476597
 Counterpoise: BSSE energy =       0.000026571153
 Leave Link  122 at Wed May 13 13:35:44 2020, MaxMem= 1073741824 cpu:       0.0
 (Enter /home/matheus/.gaussian/g09/l108.exe)
 Scan completed.

 Summary of the potential surface scan:
   N      R1          SCF    
 ----  ---------  -----------
    1     3.0000  -2753.41754
    2     3.1000  -2753.41754
    3     3.2000  -2753.41754
    4     3.3000  -2753.41754
    5     3.4000  -2753.41754
    6     3.5000  -2753.41754
    7     3.6000  -2753.41754
    8     3.7000  -2753.41754
    9     3.8000  -2753.41754
   10     3.9000  -2753.41754
   11     4.0000  -2753.41754
   12     4.1000  -2753.41754
   13     4.2000  -2753.41754
   14     4.3000  -2753.41754
   15     4.4000  -2753.41754
   16     4.5000  -2753.41754
   17     4.6000  -2753.41754
   18     4.7000  -2753.41754
   19     4.8000  -2753.41754
   20     4.9000  -2753.41754
   21     5.0000  -2753.41754
 ----  ---------  -----------
  
 Leave Link  108 at Wed May 13 13:35:44 2020, MaxMem= 1073741824 cpu:       0.0
 (Enter /home/matheus/.gaussian/g09/l9999.exe)
 1\1\GINC-REDGIANT\Scan\RLC-BLYP\Aug-CC-pVTZ\H2Kr1O2\MATHEUS\13-May-202
 0\1\\#p lc-blyp/aug-cc-PVTz int=ultrafine counterpoise=2 Scan\\TCC\\0,
 1\O,0,0.,0.,0.725\O,0,0.,0.,-0.725\H,0,0.795635374,0.4593602974,1.0235
 104166\H,0,0.,0.9187205947,-1.0235104166\Kr,0,0.,R1,0.\\R1=3.,s,20,0.1
 \\Version=EM64L-G09RevC.01\State=1-A\HF=-2753.4175422,-2753.4175422,-2
 753.4175422,-2753.4175422,-2753.4175422,-2753.4175422,-2753.4175422,-2
 753.4175422,-2753.4175422,-2753.4175422,-2753.4175422,-2753.4175422,-2
 753.4175422,-2753.4175422,-2753.4175422,-2753.4175422,-2753.4175422,-2
 753.4175422,-2753.4175422,-2753.4175422,-2753.4175422\RMSD=1.334e-09,5
 .265e-11,1.629e-11,9.946e-12,5.940e-12,3.610e-12,2.186e-12,1.324e-12,8
 .059e-13,4.916e-13,2.959e-13,1.804e-13,1.091e-13,6.712e-14,4.339e-14,2
 .436e-14,1.463e-14,9.781e-15,5.788e-15,7.856e-15,9.304e-15\PG=C01 [X(H
 2Kr1O2)]\\@


 HE THAT WALD REACHE THE SWEITE ROSE
 SULD NOW AND THEN BE SCRATCHED WT THE SCHARPE BREERES.
 -- PROVERBS AND REASONS OF THE YEAR 1585
           AS REPRINTED IN PAISLEY MAGAZINE 1828.
 Job cpu time:  0 days  3 hours  1 minutes 37.5 seconds.
 File lengths (MBytes):  RWF=     33 Int=      0 D2E=      0 Chk=      8 Scr=      1
 Normal termination of Gaussian 09 at Wed May 13 13:35:44 2020.
