 Entering Gaussian System, Link 0=g09
 Input=/home/matheus/.tcc/Inputs/Inputs-lc-blyp-default/H2O2-Kr_14.com
 Output=/home/matheus/.tcc/Logs/Logs-lc-blyp-default/H2O2-Kr_14.log
 Initial command:
 /home/matheus/.gaussian/g09/l1.exe /home/matheus/.gaussian/g09/scratch/Gau-6842.inp -scrdir=/home/matheus/.gaussian/g09/scratch/
 Entering Link 1 = /home/matheus/.gaussian/g09/l1.exe PID=      6846.
  
 Copyright (c) 1988,1990,1992,1993,1995,1998,2003,2009,2011,
            Gaussian, Inc.  All Rights Reserved.
  
 This is part of the Gaussian(R) 09 program.  It is based on
 the Gaussian(R) 03 system (copyright 2003, Gaussian, Inc.),
 the Gaussian(R) 98 system (copyright 1998, Gaussian, Inc.),
 the Gaussian(R) 94 system (copyright 1995, Gaussian, Inc.),
 the Gaussian 92(TM) system (copyright 1992, Gaussian, Inc.),
 the Gaussian 90(TM) system (copyright 1990, Gaussian, Inc.),
 the Gaussian 88(TM) system (copyright 1988, Gaussian, Inc.),
 the Gaussian 86(TM) system (copyright 1986, Carnegie Mellon
 University), and the Gaussian 82(TM) system (copyright 1983,
 Carnegie Mellon University). Gaussian is a federally registered
 trademark of Gaussian, Inc.
  
 This software contains proprietary and confidential information,
 including trade secrets, belonging to Gaussian, Inc.
  
 This software is provided under written license and may be
 used, copied, transmitted, or stored only in accord with that
 written license.
  
 The following legend is applicable only to US Government
 contracts under FAR:
  
                    RESTRICTED RIGHTS LEGEND
  
 Use, reproduction and disclosure by the US Government is
 subject to restrictions as set forth in subparagraphs (a)
 and (c) of the Commercial Computer Software - Restricted
 Rights clause in FAR 52.227-19.
  
 Gaussian, Inc.
 340 Quinnipiac St., Bldg. 40, Wallingford CT 06492
  
  
 ---------------------------------------------------------------
 Warning -- This program may not be used in any manner that
 competes with the business of Gaussian, Inc. or will provide
 assistance to any competitor of Gaussian, Inc.  The licensee
 of this program is prohibited from giving any competitor of
 Gaussian, Inc. access to this program.  By using this program,
 the user acknowledges that Gaussian, Inc. is engaged in the
 business of creating and licensing software in the field of
 computational chemistry and represents and warrants to the
 licensee that it is not a competitor of Gaussian, Inc. and that
 it will not use this program in any manner prohibited above.
 ---------------------------------------------------------------
  

 Cite this work as:
 Gaussian 09, Revision C.01,
 M. J. Frisch, G. W. Trucks, H. B. Schlegel, G. E. Scuseria, 
 M. A. Robb, J. R. Cheeseman, G. Scalmani, V. Barone, B. Mennucci, 
 G. A. Petersson, H. Nakatsuji, M. Caricato, X. Li, H. P. Hratchian, 
 A. F. Izmaylov, J. Bloino, G. Zheng, J. L. Sonnenberg, M. Hada, 
 M. Ehara, K. Toyota, R. Fukuda, J. Hasegawa, M. Ishida, T. Nakajima, 
 Y. Honda, O. Kitao, H. Nakai, T. Vreven, J. A. Montgomery, Jr., 
 J. E. Peralta, F. Ogliaro, M. Bearpark, J. J. Heyd, E. Brothers, 
 K. N. Kudin, V. N. Staroverov, T. Keith, R. Kobayashi, J. Normand, 
 K. Raghavachari, A. Rendell, J. C. Burant, S. S. Iyengar, J. Tomasi, 
 M. Cossi, N. Rega, J. M. Millam, M. Klene, J. E. Knox, J. B. Cross, 
 V. Bakken, C. Adamo, J. Jaramillo, R. Gomperts, R. E. Stratmann, 
 O. Yazyev, A. J. Austin, R. Cammi, C. Pomelli, J. W. Ochterski, 
 R. L. Martin, K. Morokuma, V. G. Zakrzewski, G. A. Voth, 
 P. Salvador, J. J. Dannenberg, S. Dapprich, A. D. Daniels, 
 O. Farkas, J. B. Foresman, J. V. Ortiz, J. Cioslowski, 
 and D. J. Fox, Gaussian, Inc., Wallingford CT, 2010.
 
 ******************************************
 Gaussian 09:  EM64L-G09RevC.01 23-Sep-2011
                13-May-2020 
 ******************************************
 %mem=8GB
 %nproc=8
 Will use up to    8 processors via shared memory.
 --------------------------------------------------------
 #p lc-blyp/aug-cc-PVTz int=ultrafine counterpoise=2 Scan
 --------------------------------------------------------
 1/38=1,60=1,62=2/1,8;
 2/12=2,17=6,18=5,29=3,40=1/2;
 1/38=1,53=5172,62=2/22;
 3/5=16,6=1,7=10,11=2,16=1,25=1,30=1,74=1000402,75=-5/1,2,3;
 4//1;
 5/5=2,38=5/2;
 6/7=2,8=2,9=2,10=2,18=1,28=1/1;
 1/53=4052,62=2,63=1/22;
 3/5=7,6=11,7=10,11=2,16=1,25=1,30=1,74=1000402,75=-5,82=7/1,2,3;
 4//1;
 5/5=2,38=5/2;
 6/7=2,8=2,9=2,10=2,18=1,28=1/1;
 1/53=3042,62=2,63=2/22;
 3/5=7,6=11,7=10,11=2,16=1,25=1,30=1,74=1000402,75=-5,82=7/1,2,3;
 4//1;
 5/5=2,38=5/2;
 6/7=2,8=2,9=2,10=2,18=1,28=1/1;
 1/53=2032,62=2,63=3/22;
 3/5=7,6=11,7=10,11=2,16=1,25=1,30=1,74=1000402,75=-5,82=7/1,2,3;
 4//1;
 5/5=2,38=5/2;
 6/7=2,8=2,9=2,10=2,18=1,28=1/1;
 1/53=1022,62=2,63=4/22;
 3/5=7,6=11,7=10,11=2,16=1,25=1,30=1,74=1000402,75=-5,82=7/1,2,3;
 4//1;
 5/5=2,38=5/2;
 6/7=2,8=2,9=2,10=2,18=1,28=1/1;
 1/53=5014,62=2,63=5/22;
 1/60=1,62=2/8(1);
 99/9=1/99;
 2/29=3/2;
 1/53=5173,62=2/22;
 3/5=7,6=11,7=10,11=2,16=1,25=1,30=1,74=1000402,75=-5,82=7/1,2,3;
 4/5=5,16=3/1;
 5/5=2,38=5/2;
 1/53=4053,62=2,63=1/22;
 3/5=7,6=11,7=10,11=2,16=1,25=1,30=1,74=1000402,75=-5,82=7/1,2,3;
 4/5=5,16=3/1;
 5/5=2,38=5/2;
 1/53=3043,62=2,63=2/22;
 3/5=7,6=11,7=10,11=2,16=1,25=1,30=1,74=1000402,75=-5,82=7/1,2,3;
 4/5=5,16=3/1;
 5/5=2,38=5/2;
 1/53=2033,62=2,63=3/22;
 3/5=7,6=11,7=10,11=2,16=1,25=1,30=1,74=1000402,75=-5,82=7/1,2,3;
 4/5=5,16=3/1;
 5/5=2,38=5/2;
 1/53=1024,62=2,63=4/22;
 3/5=7,6=11,7=10,11=2,16=1,25=1,30=1,74=1000402,75=-5,82=7/1,2,3;
 4/5=5,16=3/1;
 5/5=2,38=5/2;
 1/53=5014,62=2,63=5/22;
 1/60=1,62=2/8(-22);
 99/9=1/99;
 Leave Link    1 at Wed May 13 16:38:42 2020, MaxMem= 1073741824 cpu:       0.1
 (Enter /home/matheus/.gaussian/g09/l101.exe)
 ---
 TCC
 ---
 Charge =  0 Multiplicity = 1 in supermolecule
 Charge =  0 Multiplicity = 1 in fragment  1.
 Charge =  0 Multiplicity = 1 in fragment  2.
 Symbolic Z-Matrix:
 O(Fragment=1)         0.        0.        0.725 
 O(Fragment=1)         0.        0.       -0.725 
 H(Fragment=1)         0.59054  -0.70378   1.02351 
 H(Fragment=1)         0.        0.91872  -1.02351 
 Kr(Fragment=2)        0.       R1        0. 
       Variables:
  R1                    3.     Scan 20    0.1    
 
 NAtoms=      5 NQM=        0 NQMF=       0 NMMI=      5 NMMIF=      0
                NMic=       0 NMicF=      0.
                    Isotopes and Nuclear Properties:
 (Nuclear quadrupole moments (NQMom) in fm**2, nuclear magnetic moments (NMagM)
  in nuclear magnetons)

  Atom         1           2           3           4           5
 IAtWgt=          16          16           1           1          84
 AtmWgt=  15.9949146  15.9949146   1.0078250   1.0078250  83.9115064
 NucSpn=           0           0           1           1           0
 AtZEff=   0.0000000   0.0000000   0.0000000   0.0000000   0.0000000
 NQMom=    0.0000000   0.0000000   0.0000000   0.0000000   0.0000000
 NMagM=    0.0000000   0.0000000   2.7928460   2.7928460   0.0000000
 Leave Link  101 at Wed May 13 16:38:42 2020, MaxMem= 1073741824 cpu:       0.4
 (Enter /home/matheus/.gaussian/g09/l108.exe)
 Scan the potential surface.
 Variable   Value     No. Steps Step-Size
 -------- ----------- --------- ---------
     1       3.000000      20      0.1000
 A total of     21 points will be computed.
 Leave Link  108 at Wed May 13 16:38:42 2020, MaxMem= 1073741824 cpu:       0.0
 (Enter /home/matheus/.gaussian/g09/l202.exe)
 ---------------------------------------------------------------------------------------------------
                            Z-MATRIX (ANGSTROMS AND DEGREES)
   CD    Cent   Atom    N1       Length/X        N2       Alpha/Y        N3        Beta/Z          J
 ---------------------------------------------------------------------------------------------------
      1      1  O        0   0.000000          0.000000          0.725000
      2      2  O        0   0.000000          0.000000         -0.725000
      3      3  H        0   0.590542         -0.703781          1.023510
      4      4  H        0   0.000000          0.918721         -1.023510
      5      5  Kr       0   0.000000          3.000000          0.000000
 ---------------------------------------------------------------------------------------------------
                         Z-Matrix orientation:                         
 ---------------------------------------------------------------------
 Center     Atomic      Atomic             Coordinates (Angstroms)
 Number     Number       Type             X           Y           Z
 ---------------------------------------------------------------------
      1          8           0        0.000000    0.000000    0.725000
      2          8           0        0.000000    0.000000   -0.725000
      3          1           0        0.590542   -0.703781    1.023510
      4          1           0        0.000000    0.918721   -1.023510
      5         36           0        0.000000    3.000000    0.000000
 ---------------------------------------------------------------------
                    Distance matrix (angstroms):
                    1          2          3          4          5
     1  O    0.000000
     2  O    1.450000   0.000000
     3  H    0.966000   1.975180   0.000000
     4  H    1.975180   0.966000   2.677974   0.000000
     5  Kr   3.086361   3.086361   3.887712   2.319331   0.000000
 Stoichiometry    H2KrO2
 Framework group  C1[X(H2KrO2)]
 Deg. of freedom     9
 Full point group                 C1      NOp   1
 Largest Abelian subgroup         C1      NOp   1
 Largest concise Abelian subgroup C1      NOp   1
                         Standard orientation:                         
 ---------------------------------------------------------------------
 Center     Atomic      Atomic             Coordinates (Angstroms)
 Number     Number       Type             X           Y           Z
 ---------------------------------------------------------------------
      1          8           0        2.015651   -0.687348   -0.079909
      2          8           0        1.990960    0.760101    0.002433
      3          1           0        2.733117   -1.006163    0.482902
      4          1           0        1.067391    1.041693    0.032139
      5         36           0       -0.995928   -0.017154    0.002910
 ---------------------------------------------------------------------
 Rotational constants (GHZ):     26.2569855      2.3123407      2.1308521
 Leave Link  202 at Wed May 13 16:38:42 2020, MaxMem= 1073741824 cpu:       0.0
 (Enter /home/matheus/.gaussian/g09/l122.exe)
 Leave Link  122 at Wed May 13 16:38:42 2020, MaxMem= 1073741824 cpu:       0.0
 (Enter /home/matheus/.gaussian/g09/l301.exe)
 Standard basis: Aug-CC-pVTZ (5D, 7F)
 Ernie: Thresh=  0.10000D-02 Tol=  0.10000D-05 Strict=F.
 Ernie:  38 primitive shells out of 205 were deleted.
 There are   197 symmetry adapted basis functions of A   symmetry.
 Integral buffers will be    131072 words long.
 Raffenetti 2 integral format.
 Two-electron integral symmetry is turned on.
   197 basis functions,   415 primitive gaussians,   229 cartesian basis functions
    27 alpha electrons       27 beta electrons
       nuclear repulsion energy       148.4787781510 Hartrees.
 IExCor=10402 DFT=T Ex=LC-B+HF Corr=LYP ExCW=0 ScaHFX=  1.000000
 ScaDFX=  1.000000  1.000000  1.000000  1.000000 ScalE2=  1.000000  1.000000
 IRadAn=      5 IRanWt=     -1 IRanGd=            0 ICorTp=0
  HFx wShort=  0.000000 wLong=  0.470000 cFull=  0.000000 cShort=  0.000000 cLong=  1.000000
  DFx wShort=  0.000000 wLong=  0.470000 cFull=  0.000000 cShort=  0.000000 cLong=  1.000000
 NAtoms=    5 NActive=    5 NUniq=    5 SFac= 1.00D+00 NAtFMM=   60 NAOKFM=F Big=F
 Leave Link  301 at Wed May 13 16:38:42 2020, MaxMem= 1073741824 cpu:       0.2
 (Enter /home/matheus/.gaussian/g09/l302.exe)
 NPDir=0 NMtPBC=     1 NCelOv=     1 NCel=       1 NClECP=     1 NCelD=      1
         NCelK=      1 NCelE2=     1 NClLst=     1 CellRange=     0.0.
 One-electron integrals computed using PRISM.
 NBasis=   197 RedAO= T  NBF=   197
 NBsUse=   197 1.00D-06 NBFU=   197
 Precomputing XC quadrature grid using
 IXCGrd= 2 IRadAn=           5 IRanWt=          -1 IRanGd=           0 AccXCQ= 0.00D+00.
 NRdTot=     427 NPtTot=      123814 NUsed=      126881 NTot=      126913
 NSgBfM=   229   229   229   229   229 NAtAll=     5     5.
 Leave Link  302 at Wed May 13 16:38:42 2020, MaxMem= 1073741824 cpu:       1.0
 (Enter /home/matheus/.gaussian/g09/l303.exe)
 DipDrv:  MaxL=1.
 Leave Link  303 at Wed May 13 16:38:42 2020, MaxMem= 1073741824 cpu:       0.2
 (Enter /home/matheus/.gaussian/g09/l401.exe)
 Harris functional with IExCor=10402 diagonalized for initial guess.
 ExpMin= 2.53D-02 ExpMax= 1.17D+07 ExpMxC= 1.33D+04 IAcc=3 IRadAn=         5 AccDes= 0.00D+00
 HarFok:  IExCor=10402 AccDes= 0.00D+00 IRadAn=         5 IDoV= 1
 ScaDFX=  1.000000  1.000000  1.000000  1.000000
 FoFCou: FMM=F IPFlag=           0 FMFlag=      100000 FMFlg1=           0
         NFxFlg=           0 DoJE=T BraDBF=F KetDBF=T FulRan=T
         Omega=  0.000000  0.000000  1.000000  0.000000  0.000000 ICntrl=     500 IOpCl=  0
         NMat0=    1 NMatS0=    1 NMatT0=    0 NMatD0=    1 NMtDS0=    0 NMtDT0=    0
         I1Cent=           4 NGrid=           0.
 Petite list used in FoFCou.
 Harris En= -2891.67045211213    
 Initial guess orbital symmetries:
       Occupied  (A) (A) (A) (A) (A) (A) (A) (A) (A) (A) (A) (A)
                 (A) (A) (A) (A) (A) (A) (A) (A) (A) (A) (A) (A)
                 (A) (A) (A)
       Virtual   (A) (A) (A) (A) (A) (A) (A) (A) (A) (A) (A) (A)
                 (A) (A) (A) (A) (A) (A) (A) (A) (A) (A) (A) (A)
                 (A) (A) (A) (A) (A) (A) (A) (A) (A) (A) (A) (A)
                 (A) (A) (A) (A) (A) (A) (A) (A) (A) (A) (A) (A)
                 (A) (A) (A) (A) (A) (A) (A) (A) (A) (A) (A) (A)
                 (A) (A) (A) (A) (A) (A) (A) (A) (A) (A) (A) (A)
                 (A) (A) (A) (A) (A) (A) (A) (A) (A) (A) (A) (A)
                 (A) (A) (A) (A) (A) (A) (A) (A) (A) (A) (A) (A)
                 (A) (A) (A) (A) (A) (A) (A) (A) (A) (A) (A) (A)
                 (A) (A) (A) (A) (A) (A) (A) (A) (A) (A) (A) (A)
                 (A) (A) (A) (A) (A) (A) (A) (A) (A) (A) (A) (A)
                 (A) (A) (A) (A) (A) (A) (A) (A) (A) (A) (A) (A)
                 (A) (A) (A) (A) (A) (A) (A) (A) (A) (A) (A) (A)
                 (A) (A) (A) (A) (A) (A) (A) (A) (A) (A) (A) (A)
                 (A) (A)
 The electronic state of the initial guess is 1-A.
 Leave Link  401 at Wed May 13 16:38:43 2020, MaxMem= 1073741824 cpu:       4.5
 (Enter /home/matheus/.gaussian/g09/l502.exe)
 Closed shell SCF:
 Requested convergence on RMS density matrix=1.00D-08 within 128 cycles.
 Requested convergence on MAX density matrix=1.00D-06.
 Requested convergence on             energy=1.00D-06.
 No special actions if energy rises.
 Using DIIS extrapolation, IDIIS=  1040.
 Integral symmetry usage will be decided dynamically.
       126823 words used for storage of precomputed grid.
 IEnd=      305770 IEndB=      305770 NGot=  1073741824 MDV=  1073505365
 LenX=  1073505365 LenY=  1073452483
 Fock matrices will be formed incrementally for  20 cycles.

 Cycle   1  Pass 1  IDiag  1:
 FoFJK:  IHMeth= 1 ICntrl=     0 DoSepK=T KAlg= 1 I1Cent= 0 FoldK=F
 FoFCou: FMM=F IPFlag=           0 FMFlag=      100000 FMFlg1=           0
         NFxFlg=           0 DoJE=T BraDBF=F KetDBF=F FulRan=T
         Omega=  0.000000  0.000000  1.000000  0.000000  0.000000 ICntrl=     500 IOpCl=  0
         NMat0=    1 NMatS0=    1 NMatT0=    0 NMatD0=    1 NMtDS0=    0 NMtDT0=    0
         I1Cent=           0 NGrid=           0.
 Symmetry not used in FoFCou.
 E= -2904.63553942645    
 DIIS: error= 2.87D-02 at cycle   1 NSaved=   1.
 NSaved= 1 IEnMin= 1 EnMin= -2904.63553942645     IErMin= 1 ErrMin= 2.87D-02
 ErrMax= 2.87D-02 EMaxC= 1.00D-01 BMatC= 2.83D-01 BMatP= 2.83D-01
 IDIUse=3 WtCom= 7.13D-01 WtEn= 2.87D-01
 Coeff-Com:  0.100D+01
 Coeff-En:   0.100D+01
 Coeff:      0.100D+01
 Gap=     0.474 Goal=   None    Shift=    0.000
 GapD=    0.474 DampG=2.000 DampE=0.500 DampFc=1.0000 IDamp=-1.
 RMSDP=2.65D-03 MaxDP=1.52D-01              OVMax= 1.05D-01

 Cycle   2  Pass 1  IDiag  1:
 RMSU=  1.83D-03    CP:  1.02D+00
 FoFJK:  IHMeth= 1 ICntrl=     0 DoSepK=T KAlg= 1 I1Cent= 0 FoldK=F
 E= -2904.70988390427     Delta-E=       -0.074344477825 Rises=F Damp=F
 DIIS: error= 1.55D-02 at cycle   2 NSaved=   2.
 NSaved= 2 IEnMin= 2 EnMin= -2904.70988390427     IErMin= 2 ErrMin= 1.55D-02
 ErrMax= 1.55D-02 EMaxC= 1.00D-01 BMatC= 9.30D-02 BMatP= 2.83D-01
 IDIUse=3 WtCom= 8.45D-01 WtEn= 1.55D-01
 Coeff-Com:  0.360D+00 0.640D+00
 Coeff-En:   0.389D-01 0.961D+00
 Coeff:      0.310D+00 0.690D+00
 Gap=     0.438 Goal=   None    Shift=    0.000
 RMSDP=1.03D-03 MaxDP=6.27D-02 DE=-7.43D-02 OVMax= 3.18D-02

 Cycle   3  Pass 1  IDiag  1:
 RMSU=  3.27D-04    CP:  1.01D+00  6.56D-01
 FoFJK:  IHMeth= 1 ICntrl=     0 DoSepK=T KAlg= 1 I1Cent= 0 FoldK=F
 E= -2904.74062533881     Delta-E=       -0.030741434535 Rises=F Damp=F
 DIIS: error= 1.60D-03 at cycle   3 NSaved=   3.
 NSaved= 3 IEnMin= 3 EnMin= -2904.74062533881     IErMin= 3 ErrMin= 1.60D-03
 ErrMax= 1.60D-03 EMaxC= 1.00D-01 BMatC= 1.45D-03 BMatP= 9.30D-02
 IDIUse=3 WtCom= 9.84D-01 WtEn= 1.60D-02
 Coeff-Com:  0.848D-02 0.115D+00 0.877D+00
 Coeff-En:   0.000D+00 0.000D+00 0.100D+01
 Coeff:      0.835D-02 0.113D+00 0.879D+00
 Gap=     0.445 Goal=   None    Shift=    0.000
 RMSDP=1.59D-04 MaxDP=6.59D-03 DE=-3.07D-02 OVMax= 7.65D-03

 Cycle   4  Pass 1  IDiag  1:
 RMSU=  6.87D-05    CP:  1.02D+00  7.02D-01  1.09D+00
 FoFJK:  IHMeth= 1 ICntrl=     0 DoSepK=T KAlg= 1 I1Cent= 0 FoldK=F
 E= -2904.74121956602     Delta-E=       -0.000594227211 Rises=F Damp=F
 DIIS: error= 6.14D-04 at cycle   4 NSaved=   4.
 NSaved= 4 IEnMin= 4 EnMin= -2904.74121956602     IErMin= 4 ErrMin= 6.14D-04
 ErrMax= 6.14D-04 EMaxC= 1.00D-01 BMatC= 9.94D-05 BMatP= 1.45D-03
 IDIUse=3 WtCom= 9.94D-01 WtEn= 6.14D-03
 Coeff-Com: -0.122D-01 0.172D-01 0.329D+00 0.666D+00
 Coeff-En:   0.000D+00 0.000D+00 0.000D+00 0.100D+01
 Coeff:     -0.121D-01 0.171D-01 0.327D+00 0.668D+00
 Gap=     0.441 Goal=   None    Shift=    0.000
 RMSDP=3.78D-05 MaxDP=1.43D-03 DE=-5.94D-04 OVMax= 2.16D-03

 Cycle   5  Pass 1  IDiag  1:
 RMSU=  2.05D-05    CP:  1.02D+00  7.05D-01  1.14D+00  9.70D-01
 FoFJK:  IHMeth= 1 ICntrl=     0 DoSepK=T KAlg= 1 I1Cent= 0 FoldK=F
 E= -2904.74128349161     Delta-E=       -0.000063925589 Rises=F Damp=F
 DIIS: error= 1.88D-04 at cycle   5 NSaved=   5.
 NSaved= 5 IEnMin= 5 EnMin= -2904.74128349161     IErMin= 5 ErrMin= 1.88D-04
 ErrMax= 1.88D-04 EMaxC= 1.00D-01 BMatC= 9.02D-06 BMatP= 9.94D-05
 IDIUse=3 WtCom= 9.98D-01 WtEn= 1.88D-03
 Coeff-Com: -0.414D-02-0.687D-02-0.306D-02 0.208D+00 0.806D+00
 Coeff-En:   0.000D+00 0.000D+00 0.000D+00 0.000D+00 0.100D+01
 Coeff:     -0.413D-02-0.685D-02-0.305D-02 0.208D+00 0.806D+00
 Gap=     0.441 Goal=   None    Shift=    0.000
 RMSDP=1.69D-05 MaxDP=5.44D-04 DE=-6.39D-05 OVMax= 1.03D-03

 Cycle   6  Pass 1  IDiag  1:
 RMSU=  6.77D-06    CP:  1.02D+00  7.06D-01  1.16D+00  1.06D+00  1.02D+00
 FoFJK:  IHMeth= 1 ICntrl=     0 DoSepK=T KAlg= 1 I1Cent= 0 FoldK=F
 E= -2904.74129087094     Delta-E=       -0.000007379335 Rises=F Damp=F
 DIIS: error= 7.87D-05 at cycle   6 NSaved=   6.
 NSaved= 6 IEnMin= 6 EnMin= -2904.74129087094     IErMin= 6 ErrMin= 7.87D-05
 ErrMax= 7.87D-05 EMaxC= 1.00D-01 BMatC= 1.98D-06 BMatP= 9.02D-06
 IDIUse=1 WtCom= 1.00D+00 WtEn= 0.00D+00
 Coeff-Com: -0.656D-03-0.461D-02-0.295D-01 0.304D-01 0.367D+00 0.637D+00
 Coeff:     -0.656D-03-0.461D-02-0.295D-01 0.304D-01 0.367D+00 0.637D+00
 Gap=     0.441 Goal=   None    Shift=    0.000
 RMSDP=5.76D-06 MaxDP=1.94D-04 DE=-7.38D-06 OVMax= 3.88D-04

 Cycle   7  Pass 1  IDiag  1:
 RMSU=  2.44D-06    CP:  1.02D+00  7.06D-01  1.17D+00  1.09D+00  1.10D+00
                    CP:  9.36D-01
 FoFJK:  IHMeth= 1 ICntrl=     0 DoSepK=T KAlg= 1 I1Cent= 0 FoldK=F
 E= -2904.74129226522     Delta-E=       -0.000001394276 Rises=F Damp=F
 DIIS: error= 2.00D-05 at cycle   7 NSaved=   7.
 NSaved= 7 IEnMin= 7 EnMin= -2904.74129226522     IErMin= 7 ErrMin= 2.00D-05
 ErrMax= 2.00D-05 EMaxC= 1.00D-01 BMatC= 1.42D-07 BMatP= 1.98D-06
 IDIUse=1 WtCom= 1.00D+00 WtEn= 0.00D+00
 Coeff-Com:  0.164D-03-0.110D-02-0.908D-02-0.194D-01 0.214D-02 0.207D+00
 Coeff-Com:  0.821D+00
 Coeff:      0.164D-03-0.110D-02-0.908D-02-0.194D-01 0.214D-02 0.207D+00
 Coeff:      0.821D+00
 Gap=     0.441 Goal=   None    Shift=    0.000
 RMSDP=2.27D-06 MaxDP=7.02D-05 DE=-1.39D-06 OVMax= 1.30D-04

 Cycle   8  Pass 1  IDiag  1:
 RMSU=  6.24D-07    CP:  1.02D+00  7.06D-01  1.17D+00  1.10D+00  1.13D+00
                    CP:  1.05D+00  1.00D+00
 FoFJK:  IHMeth= 1 ICntrl=     0 DoSepK=T KAlg= 1 I1Cent= 0 FoldK=F
 E= -2904.74129240939     Delta-E=       -0.000000144168 Rises=F Damp=F
 DIIS: error= 3.68D-06 at cycle   8 NSaved=   8.
 NSaved= 8 IEnMin= 8 EnMin= -2904.74129240939     IErMin= 8 ErrMin= 3.68D-06
 ErrMax= 3.68D-06 EMaxC= 1.00D-01 BMatC= 2.74D-09 BMatP= 1.42D-07
 IDIUse=1 WtCom= 1.00D+00 WtEn= 0.00D+00
 Coeff-Com:  0.104D-04 0.347D-03 0.251D-02 0.497D-03-0.204D-01-0.552D-01
 Coeff-Com: -0.767D-01 0.115D+01
 Coeff:      0.104D-04 0.347D-03 0.251D-02 0.497D-03-0.204D-01-0.552D-01
 Coeff:     -0.767D-01 0.115D+01
 Gap=     0.441 Goal=   None    Shift=    0.000
 RMSDP=5.71D-07 MaxDP=1.62D-05 DE=-1.44D-07 OVMax= 5.38D-05

 Cycle   9  Pass 1  IDiag  1:
 RMSU=  1.33D-07    CP:  1.02D+00  7.06D-01  1.17D+00  1.11D+00  1.14D+00
                    CP:  1.07D+00  1.07D+00  1.36D+00
 FoFJK:  IHMeth= 1 ICntrl=     0 DoSepK=T KAlg= 1 I1Cent= 0 FoldK=F
 E= -2904.74129241762     Delta-E=       -0.000000008230 Rises=F Damp=F
 DIIS: error= 6.04D-07 at cycle   9 NSaved=   9.
 NSaved= 9 IEnMin= 9 EnMin= -2904.74129241762     IErMin= 9 ErrMin= 6.04D-07
 ErrMax= 6.04D-07 EMaxC= 1.00D-01 BMatC= 1.79D-10 BMatP= 2.74D-09
 IDIUse=1 WtCom= 1.00D+00 WtEn= 0.00D+00
 Coeff-Com: -0.293D-05 0.113D-03 0.662D-03 0.115D-02-0.900D-03-0.148D-01
 Coeff-Com: -0.530D-01 0.472D-01 0.102D+01
 Coeff:     -0.293D-05 0.113D-03 0.662D-03 0.115D-02-0.900D-03-0.148D-01
 Coeff:     -0.530D-01 0.472D-01 0.102D+01
 Gap=     0.441 Goal=   None    Shift=    0.000
 RMSDP=1.22D-07 MaxDP=3.55D-06 DE=-8.23D-09 OVMax= 1.31D-05

 Cycle  10  Pass 1  IDiag  1:
 RMSU=  4.39D-08    CP:  1.02D+00  7.06D-01  1.17D+00  1.11D+00  1.14D+00
                    CP:  1.08D+00  1.08D+00  1.44D+00  1.28D+00
 FoFJK:  IHMeth= 1 ICntrl=     0 DoSepK=T KAlg= 1 I1Cent= 0 FoldK=F
 E= -2904.74129241811     Delta-E=       -0.000000000499 Rises=F Damp=F
 DIIS: error= 2.43D-07 at cycle  10 NSaved=  10.
 NSaved=10 IEnMin=10 EnMin= -2904.74129241811     IErMin=10 ErrMin= 2.43D-07
 ErrMax= 2.43D-07 EMaxC= 1.00D-01 BMatC= 1.02D-11 BMatP= 1.79D-10
 IDIUse=1 WtCom= 1.00D+00 WtEn= 0.00D+00
 Coeff-Com:  0.601D-07-0.300D-04-0.202D-03-0.154D-03 0.111D-02 0.434D-02
 Coeff-Com:  0.108D-01-0.741D-01-0.668D-01 0.112D+01
 Coeff:      0.601D-07-0.300D-04-0.202D-03-0.154D-03 0.111D-02 0.434D-02
 Coeff:      0.108D-01-0.741D-01-0.668D-01 0.112D+01
 Gap=     0.441 Goal=   None    Shift=    0.000
 RMSDP=3.63D-08 MaxDP=9.03D-07 DE=-4.99D-10 OVMax= 4.15D-06

 Cycle  11  Pass 1  IDiag  1:
 RMSU=  1.04D-08    CP:  1.02D+00  7.06D-01  1.17D+00  1.11D+00  1.14D+00
                    CP:  1.08D+00  1.08D+00  1.45D+00  1.39D+00  1.28D+00
 FoFJK:  IHMeth= 1 ICntrl=     0 DoSepK=T KAlg= 1 I1Cent= 0 FoldK=F
 E= -2904.74129241817     Delta-E=       -0.000000000057 Rises=F Damp=F
 DIIS: error= 5.57D-08 at cycle  11 NSaved=  11.
 NSaved=11 IEnMin=11 EnMin= -2904.74129241817     IErMin=11 ErrMin= 5.57D-08
 ErrMax= 5.57D-08 EMaxC= 1.00D-01 BMatC= 8.47D-13 BMatP= 1.02D-11
 IDIUse=1 WtCom= 1.00D+00 WtEn= 0.00D+00
 Coeff-Com: -0.150D-07-0.117D-04-0.665D-04-0.951D-04 0.155D-03 0.147D-02
 Coeff-Com:  0.508D-02-0.106D-01-0.762D-01 0.671D-01 0.101D+01
 Coeff:     -0.150D-07-0.117D-04-0.665D-04-0.951D-04 0.155D-03 0.147D-02
 Coeff:      0.508D-02-0.106D-01-0.762D-01 0.671D-01 0.101D+01
 Gap=     0.441 Goal=   None    Shift=    0.000
 RMSDP=8.86D-09 MaxDP=2.33D-07 DE=-5.73D-11 OVMax= 1.21D-06

 SCF Done:  E(RLC-B+HF-LYP) =  -2904.74129242     A.U. after   11 cycles
             Convg  =    0.8863D-08             -V/T =  2.0017
 KE= 2.899823972610D+03 PE=-7.233376577515D+03 EE= 1.280332534336D+03
 Leave Link  502 at Wed May 13 16:39:23 2020, MaxMem= 1073741824 cpu:     320.2
 (Enter /home/matheus/.gaussian/g09/l601.exe)
 Copying SCF densities to generalized density rwf, IOpCl= 0 IROHF=0.

 **********************************************************************

            Population analysis using the SCF density.

 **********************************************************************

 Orbital symmetries:
       Occupied  (A) (A) (A) (A) (A) (A) (A) (A) (A) (A) (A) (A)
                 (A) (A) (A) (A) (A) (A) (A) (A) (A) (A) (A) (A)
                 (A) (A) (A)
       Virtual   (A) (A) (A) (A) (A) (A) (A) (A) (A) (A) (A) (A)
                 (A) (A) (A) (A) (A) (A) (A) (A) (A) (A) (A) (A)
                 (A) (A) (A) (A) (A) (A) (A) (A) (A) (A) (A) (A)
                 (A) (A) (A) (A) (A) (A) (A) (A) (A) (A) (A) (A)
                 (A) (A) (A) (A) (A) (A) (A) (A) (A) (A) (A) (A)
                 (A) (A) (A) (A) (A) (A) (A) (A) (A) (A) (A) (A)
                 (A) (A) (A) (A) (A) (A) (A) (A) (A) (A) (A) (A)
                 (A) (A) (A) (A) (A) (A) (A) (A) (A) (A) (A) (A)
                 (A) (A) (A) (A) (A) (A) (A) (A) (A) (A) (A) (A)
                 (A) (A) (A) (A) (A) (A) (A) (A) (A) (A) (A) (A)
                 (A) (A) (A) (A) (A) (A) (A) (A) (A) (A) (A) (A)
                 (A) (A) (A) (A) (A) (A) (A) (A) (A) (A) (A) (A)
                 (A) (A) (A) (A) (A) (A) (A) (A) (A) (A) (A) (A)
                 (A) (A) (A) (A) (A) (A) (A) (A) (A) (A) (A) (A)
                 (A) (A)
 The electronic state is 1-A.
 Alpha  occ. eigenvalues -- -511.25326 -66.72327 -60.40861 -60.40843 -60.40833
 Alpha  occ. eigenvalues --  -19.07149 -19.06778  -9.61482  -7.36979  -7.36927
 Alpha  occ. eigenvalues --   -7.36898  -3.33309  -3.33299  -3.33279  -3.33240
 Alpha  occ. eigenvalues --   -3.33237  -1.28160  -1.07445  -1.06166  -0.69007
 Alpha  occ. eigenvalues --   -0.65135  -0.56573  -0.52788  -0.52188  -0.51566
 Alpha  occ. eigenvalues --   -0.47865  -0.41480
 Alpha virt. eigenvalues --    0.02623   0.03485   0.07417   0.09202   0.10012
 Alpha virt. eigenvalues --    0.10466   0.12744   0.13545   0.15607   0.16433
 Alpha virt. eigenvalues --    0.17838   0.19156   0.19491   0.21666   0.22968
 Alpha virt. eigenvalues --    0.23933   0.25687   0.28420   0.30851   0.33122
 Alpha virt. eigenvalues --    0.33483   0.33644   0.35376   0.38441   0.39374
 Alpha virt. eigenvalues --    0.40990   0.41449   0.47365   0.52264   0.55308
 Alpha virt. eigenvalues --    0.56456   0.58877   0.62684   0.66121   0.67977
 Alpha virt. eigenvalues --    0.71155   0.71519   0.72438   0.73271   0.75837
 Alpha virt. eigenvalues --    0.76925   0.78636   0.79298   0.80885   0.82051
 Alpha virt. eigenvalues --    0.84789   0.85743   0.87245   0.89176   0.91244
 Alpha virt. eigenvalues --    0.92922   0.93695   0.96470   0.96604   0.98793
 Alpha virt. eigenvalues --    1.02289   1.03182   1.05687   1.08337   1.10666
 Alpha virt. eigenvalues --    1.10967   1.13716   1.16161   1.18505   1.21745
 Alpha virt. eigenvalues --    1.26747   1.32580   1.34362   1.39226   1.41385
 Alpha virt. eigenvalues --    1.43277   1.50798   1.53775   1.55973   1.61542
 Alpha virt. eigenvalues --    1.63850   1.76093   1.84697   1.84906   1.94826
 Alpha virt. eigenvalues --    1.99621   2.02214   2.06963   2.14729   2.15482
 Alpha virt. eigenvalues --    2.16887   2.19600   2.22118   2.24126   2.25555
 Alpha virt. eigenvalues --    2.26579   2.31857   2.32259   2.33222   2.35459
 Alpha virt. eigenvalues --    2.37939   2.40560   2.45745   2.48670   2.51436
 Alpha virt. eigenvalues --    2.51496   2.53060   2.54172   2.57611   2.59383
 Alpha virt. eigenvalues --    2.61070   2.63481   2.66947   2.67987   2.71734
 Alpha virt. eigenvalues --    2.74426   2.76266   2.83749   2.86072   2.89702
 Alpha virt. eigenvalues --    2.94671   3.06363   3.11174   3.15676   3.63452
 Alpha virt. eigenvalues --    3.68859   3.86226   4.00517   4.03053   4.05628
 Alpha virt. eigenvalues --    4.07777   4.17316   4.21352   4.25354   4.28149
 Alpha virt. eigenvalues --    4.46087   4.48870   4.53978   4.54863   4.71969
 Alpha virt. eigenvalues --    4.93690   5.01709   5.03890   5.10265   5.13487
 Alpha virt. eigenvalues --    5.30043   5.43026   5.84521   6.06485   6.08130
 Alpha virt. eigenvalues --    6.13109   6.34355   6.37453   6.42127   6.53739
 Alpha virt. eigenvalues --    6.67101   6.74227   6.77671   6.83220   6.86823
 Alpha virt. eigenvalues --    6.87159   6.91591   6.92518   6.97389   7.02487
 Alpha virt. eigenvalues --    7.04896   7.22009   7.26547   7.40167   7.72402
 Alpha virt. eigenvalues --    7.81075   8.05633   8.12236  13.92285  14.55230
          Condensed to atoms (all electrons):
              1          2          3          4          5
     1  O    8.191950  -0.170081   0.203546   0.001164  -0.033420
     2  O   -0.170081   8.176675   0.015242   0.222026  -0.012313
     3  H    0.203546   0.015242   0.570705   0.002733   0.004025
     4  H    0.001164   0.222026   0.002733   0.569384  -0.004884
     5  Kr  -0.033420  -0.012313   0.004025  -0.004884  36.035208
 Mulliken atomic charges:
              1
     1  O   -0.193160
     2  O   -0.231550
     3  H    0.203750
     4  H    0.209577
     5  Kr   0.011383
 Sum of Mulliken atomic charges =   0.00000
 Mulliken charges with hydrogens summed into heavy atoms:
              1
     1  O    0.010590
     2  O   -0.021973
     5  Kr   0.011383
 Sum of Mulliken charges with hydrogens summed into heavy atoms =   0.00000
          Condensed to fragments (all electrons):
     1      -0.011383
     2       0.011383
 Electronic spatial extent (au):  <R**2>=            491.3079
 Charge=              0.0000 electrons
 Dipole moment (field-independent basis, Debye):
    X=             -0.5483    Y=             -0.3529    Z=              1.0402  Tot=              1.2277
 Quadrupole moment (field-independent basis, Debye-Ang):
   XX=            -28.8125   YY=            -28.5543   ZZ=            -30.3110
   XY=             -3.7280   XZ=              3.0947   YZ=             -1.1395
 Traceless Quadrupole moment (field-independent basis, Debye-Ang):
   XX=              0.4134   YY=              0.6716   ZZ=             -1.0851
   XY=             -3.7280   XZ=              3.0947   YZ=             -1.1395
 Octapole moment (field-independent basis, Debye-Ang**2):
  XXX=            -10.6190  YYY=             -0.8719  ZZZ=              0.5850  XYY=             -4.6828
  XXY=            -14.8735  XXZ=              8.7506  XZZ=             -7.3002  YZZ=             -0.9467
  YYZ=              1.3763  XYZ=             -3.3216
 Hexadecapole moment (field-independent basis, Debye-Ang**3):
 XXXX=           -384.1206 YYYY=            -65.5794 ZZZZ=            -30.9660 XXXY=            -43.9398
 XXXZ=             25.3477 YYYX=             -5.8207 YYYZ=             -1.4921 ZZZX=              1.8755
 ZZZY=             -0.8522 XXYY=            -77.4603 XXZZ=            -76.7163 YYZZ=            -17.4767
 XXYZ=             -9.5015 YYXZ=              3.8031 ZZXY=             -2.0530
 N-N= 1.484787781510D+02 E-N=-7.233376571308D+03  KE= 2.899823972610D+03
 No NMR shielding tensors so no spin-rotation constants.
 Leave Link  601 at Wed May 13 16:39:23 2020, MaxMem= 1073741824 cpu:       0.8
 (Enter /home/matheus/.gaussian/g09/l122.exe)
 Counterpoise: doing DCBS calculation for fragment   1 NewBq=T
 Leave Link  122 at Wed May 13 16:39:23 2020, MaxMem= 1073741824 cpu:       0.0
 (Enter /home/matheus/.gaussian/g09/l301.exe)
 Basis read from rwf:  (5D, 7F)
 No pseudopotential information found on rwf file.
 There are   197 symmetry adapted basis functions of A   symmetry.
 Integral buffers will be    131072 words long.
 Raffenetti 2 integral format.
 Two-electron integral symmetry is turned on.
   197 basis functions,   415 primitive gaussians,   229 cartesian basis functions
     9 alpha electrons        9 beta electrons
       nuclear repulsion energy        36.6058450489 Hartrees.
 IExCor=10402 DFT=T Ex=LC-B+HF Corr=LYP ExCW=0 ScaHFX=  1.000000
 ScaDFX=  1.000000  1.000000  1.000000  1.000000 ScalE2=  1.000000  1.000000
 IRadAn=      5 IRanWt=     -1 IRanGd=            0 ICorTp=0
  HFx wShort=  0.000000 wLong=  0.470000 cFull=  0.000000 cShort=  0.000000 cLong=  1.000000
  DFx wShort=  0.000000 wLong=  0.470000 cFull=  0.000000 cShort=  0.000000 cLong=  1.000000
 NAtoms=    5 NActive=    5 NUniq=    5 SFac= 1.00D+00 NAtFMM=   60 NAOKFM=F Big=F
 No density basis found on file   718.
 Leave Link  301 at Wed May 13 16:39:23 2020, MaxMem= 1073741824 cpu:       0.2
 (Enter /home/matheus/.gaussian/g09/l302.exe)
 NPDir=0 NMtPBC=     1 NCelOv=     1 NCel=       1 NClECP=     1 NCelD=      1
         NCelK=      1 NCelE2=     1 NClLst=     1 CellRange=     0.0.
 One-electron integrals computed using PRISM.
 NBasis=   197 RedAO= T  NBF=   197
 NBsUse=   197 1.00D-06 NBFU=   197
 Precomputing XC quadrature grid using
 IXCGrd= 2 IRadAn=           5 IRanWt=          -1 IRanGd=           0 AccXCQ= 0.00D+00.
 NRdTot=     427 NPtTot=      123814 NUsed=      126881 NTot=      126913
 NSgBfM=   229   229   229   229   229 NAtAll=     5     5.
 Leave Link  302 at Wed May 13 16:39:23 2020, MaxMem= 1073741824 cpu:       1.1
 (Enter /home/matheus/.gaussian/g09/l303.exe)
 DipDrv:  MaxL=1.
 Leave Link  303 at Wed May 13 16:39:23 2020, MaxMem= 1073741824 cpu:       0.2
 (Enter /home/matheus/.gaussian/g09/l401.exe)
 Harris functional with IExCor=10402 diagonalized for initial guess.
 ExpMin= 2.53D-02 ExpMax= 1.17D+07 ExpMxC= 1.33D+04 IAcc=3 IRadAn=         5 AccDes= 0.00D+00
 HarFok:  IExCor=10402 AccDes= 0.00D+00 IRadAn=         5 IDoV= 1
 ScaDFX=  1.000000  1.000000  1.000000  1.000000
 FoFCou: FMM=F IPFlag=           0 FMFlag=      100000 FMFlg1=           0
         NFxFlg=           0 DoJE=T BraDBF=F KetDBF=T FulRan=T
         Omega=  0.000000  0.000000  1.000000  0.000000  0.000000 ICntrl=     500 IOpCl=  0
         NMat0=    1 NMatS0=    1 NMatT0=    0 NMatD0=    1 NMtDS0=    0 NMtDT0=    0
         I1Cent=           4 NGrid=           0.
 Petite list used in FoFCou.
 Harris En= -147.163725856575    
 Initial guess orbital symmetries:
       Occupied  (A) (A) (A) (A) (A) (A) (A) (A) (A)
       Virtual   (A) (A) (A) (A) (A) (A) (A) (A) (A) (A) (A) (A)
                 (A) (A) (A) (A) (A) (A) (A) (A) (A) (A) (A) (A)
                 (A) (A) (A) (A) (A) (A) (A) (A) (A) (A) (A) (A)
                 (A) (A) (A) (A) (A) (A) (A) (A) (A) (A) (A) (A)
                 (A) (A) (A) (A) (A) (A) (A) (A) (A) (A) (A) (A)
                 (A) (A) (A) (A) (A) (A) (A) (A) (A) (A) (A) (A)
                 (A) (A) (A) (A) (A) (A) (A) (A) (A) (A) (A) (A)
                 (A) (A) (A) (A) (A) (A) (A) (A) (A) (A) (A) (A)
                 (A) (A) (A) (A) (A) (A) (A) (A) (A) (A) (A) (A)
                 (A) (A) (A) (A) (A) (A) (A) (A) (A) (A) (A) (A)
                 (A) (A) (A) (A) (A) (A) (A) (A) (A) (A) (A) (A)
                 (A) (A) (A) (A) (A) (A) (A) (A) (A) (A) (A) (A)
                 (A) (A) (A) (A) (A) (A) (A) (A) (A) (A) (A) (A)
                 (A) (A) (A) (A) (A) (A) (A) (A) (A) (A) (A) (A)
                 (A) (A) (A) (A) (A) (A) (A) (A) (A) (A) (A) (A)
                 (A) (A) (A) (A) (A) (A) (A) (A)
 The electronic state of the initial guess is 1-A.
 Leave Link  401 at Wed May 13 16:39:24 2020, MaxMem= 1073741824 cpu:       4.6
 (Enter /home/matheus/.gaussian/g09/l502.exe)
 Closed shell SCF:
 Requested convergence on RMS density matrix=1.00D-08 within 128 cycles.
 Requested convergence on MAX density matrix=1.00D-06.
 Requested convergence on             energy=1.00D-06.
 No special actions if energy rises.
 Using DIIS extrapolation, IDIIS=  1040.
 Integral symmetry usage will be decided dynamically.
       126823 words used for storage of precomputed grid.
 IEnd=      305770 IEndB=      305770 NGot=  1073741824 MDV=  1073505365
 LenX=  1073505365 LenY=  1073452483
 Fock matrices will be formed incrementally for  20 cycles.

 Cycle   1  Pass 1  IDiag  1:
 FoFJK:  IHMeth= 1 ICntrl=     0 DoSepK=T KAlg= 1 I1Cent= 0 FoldK=F
 FoFCou: FMM=F IPFlag=           0 FMFlag=      100000 FMFlg1=           0
         NFxFlg=           0 DoJE=T BraDBF=F KetDBF=F FulRan=T
         Omega=  0.000000  0.000000  1.000000  0.000000  0.000000 ICntrl=     500 IOpCl=  0
         NMat0=    1 NMatS0=    1 NMatT0=    0 NMatD0=    1 NMtDS0=    0 NMtDT0=    0
         I1Cent=           0 NGrid=           0.
 Symmetry not used in FoFCou.
 E= -151.304518847155    
 DIIS: error= 9.96D-03 at cycle   1 NSaved=   1.
 NSaved= 1 IEnMin= 1 EnMin= -151.304518847155     IErMin= 1 ErrMin= 9.96D-03
 ErrMax= 9.96D-03 EMaxC= 1.00D-01 BMatC= 2.11D-02 BMatP= 2.11D-02
 IDIUse=3 WtCom= 9.00D-01 WtEn= 9.96D-02
 Coeff-Com:  0.100D+01
 Coeff-En:   0.100D+01
 Coeff:      0.100D+01
 Gap=     0.472 Goal=   None    Shift=    0.000
 GapD=    0.472 DampG=2.000 DampE=1.000 DampFc=2.0000 IDamp=-1.
 RMSDP=8.37D-04 MaxDP=2.85D-02              OVMax= 5.45D-02

 Cycle   2  Pass 1  IDiag  1:
 RMSU=  5.91D-04    CP:  1.00D+00
 FoFJK:  IHMeth= 1 ICntrl=     0 DoSepK=T KAlg= 1 I1Cent= 0 FoldK=F
 E= -151.321877970633     Delta-E=       -0.017359123478 Rises=F Damp=F
 DIIS: error= 4.69D-03 at cycle   2 NSaved=   2.
 NSaved= 2 IEnMin= 2 EnMin= -151.321877970633     IErMin= 2 ErrMin= 4.69D-03
 ErrMax= 4.69D-03 EMaxC= 1.00D-01 BMatC= 5.08D-03 BMatP= 2.11D-02
 IDIUse=3 WtCom= 9.53D-01 WtEn= 4.69D-02
 Coeff-Com:  0.281D+00 0.719D+00
 Coeff-En:   0.000D+00 0.100D+01
 Coeff:      0.267D+00 0.733D+00
 Gap=     0.433 Goal=   None    Shift=    0.000
 RMSDP=2.16D-04 MaxDP=6.67D-03 DE=-1.74D-02 OVMax= 1.46D-02

 Cycle   3  Pass 1  IDiag  1:
 RMSU=  1.52D-04    CP:  1.00D+00  1.00D+00
 FoFJK:  IHMeth= 1 ICntrl=     0 DoSepK=T KAlg= 1 I1Cent= 0 FoldK=F
 E= -151.324783441730     Delta-E=       -0.002905471096 Rises=F Damp=F
 DIIS: error= 1.53D-03 at cycle   3 NSaved=   3.
 NSaved= 3 IEnMin= 3 EnMin= -151.324783441730     IErMin= 3 ErrMin= 1.53D-03
 ErrMax= 1.53D-03 EMaxC= 1.00D-01 BMatC= 5.79D-04 BMatP= 5.08D-03
 IDIUse=3 WtCom= 9.85D-01 WtEn= 1.53D-02
 Coeff-Com:  0.128D-01 0.238D+00 0.749D+00
 Coeff-En:   0.000D+00 0.000D+00 0.100D+01
 Coeff:      0.126D-01 0.234D+00 0.753D+00
 Gap=     0.442 Goal=   None    Shift=    0.000
 RMSDP=1.05D-04 MaxDP=3.77D-03 DE=-2.91D-03 OVMax= 7.56D-03

 Cycle   4  Pass 1  IDiag  1:
 RMSU=  5.17D-05    CP:  1.00D+00  1.09D+00  9.61D-01
 FoFJK:  IHMeth= 1 ICntrl=     0 DoSepK=T KAlg= 1 I1Cent= 0 FoldK=F
 E= -151.325228080016     Delta-E=       -0.000444638287 Rises=F Damp=F
 DIIS: error= 2.67D-04 at cycle   4 NSaved=   4.
 NSaved= 4 IEnMin= 4 EnMin= -151.325228080016     IErMin= 4 ErrMin= 2.67D-04
 ErrMax= 2.67D-04 EMaxC= 1.00D-01 BMatC= 2.69D-05 BMatP= 5.79D-04
 IDIUse=3 WtCom= 9.97D-01 WtEn= 2.67D-03
 Coeff-Com: -0.212D-01-0.314D-01 0.114D+00 0.938D+00
 Coeff-En:   0.000D+00 0.000D+00 0.000D+00 0.100D+01
 Coeff:     -0.211D-01-0.314D-01 0.114D+00 0.939D+00
 Gap=     0.440 Goal=   None    Shift=    0.000
 RMSDP=3.89D-05 MaxDP=1.53D-03 DE=-4.45D-04 OVMax= 2.00D-03

 Cycle   5  Pass 1  IDiag  1:
 RMSU=  9.28D-06    CP:  1.00D+00  1.12D+00  1.08D+00  1.17D+00
 FoFJK:  IHMeth= 1 ICntrl=     0 DoSepK=T KAlg= 1 I1Cent= 0 FoldK=F
 E= -151.325257710282     Delta-E=       -0.000029630266 Rises=F Damp=F
 DIIS: error= 4.15D-05 at cycle   5 NSaved=   5.
 NSaved= 5 IEnMin= 5 EnMin= -151.325257710282     IErMin= 5 ErrMin= 4.15D-05
 ErrMax= 4.15D-05 EMaxC= 1.00D-01 BMatC= 4.24D-07 BMatP= 2.69D-05
 IDIUse=1 WtCom= 1.00D+00 WtEn= 0.00D+00
 Coeff-Com:  0.657D-03-0.625D-02-0.351D-01-0.566D-01 0.110D+01
 Coeff:      0.657D-03-0.625D-02-0.351D-01-0.566D-01 0.110D+01
 Gap=     0.440 Goal=   None    Shift=    0.000
 RMSDP=9.94D-06 MaxDP=3.99D-04 DE=-2.96D-05 OVMax= 6.57D-04

 Cycle   6  Pass 1  IDiag  1:
 RMSU=  1.76D-06    CP:  1.00D+00  1.13D+00  1.10D+00  1.26D+00  1.27D+00
 FoFJK:  IHMeth= 1 ICntrl=     0 DoSepK=T KAlg= 1 I1Cent= 0 FoldK=F
 E= -151.325259019762     Delta-E=       -0.000001309479 Rises=F Damp=F
 DIIS: error= 1.14D-05 at cycle   6 NSaved=   6.
 NSaved= 6 IEnMin= 6 EnMin= -151.325259019762     IErMin= 6 ErrMin= 1.14D-05
 ErrMax= 1.14D-05 EMaxC= 1.00D-01 BMatC= 2.18D-08 BMatP= 4.24D-07
 IDIUse=1 WtCom= 1.00D+00 WtEn= 0.00D+00
 Coeff-Com:  0.447D-03 0.998D-03-0.237D-02-0.239D-01-0.270D-01 0.105D+01
 Coeff:      0.447D-03 0.998D-03-0.237D-02-0.239D-01-0.270D-01 0.105D+01
 Gap=     0.440 Goal=   None    Shift=    0.000
 RMSDP=1.52D-06 MaxDP=4.53D-05 DE=-1.31D-06 OVMax= 1.30D-04

 Cycle   7  Pass 1  IDiag  1:
 RMSU=  3.81D-07    CP:  1.00D+00  1.13D+00  1.10D+00  1.27D+00  1.31D+00
                    CP:  1.31D+00
 FoFJK:  IHMeth= 1 ICntrl=     0 DoSepK=T KAlg= 1 I1Cent= 0 FoldK=F
 E= -151.325259081953     Delta-E=       -0.000000062191 Rises=F Damp=F
 DIIS: error= 2.31D-06 at cycle   7 NSaved=   7.
 NSaved= 7 IEnMin= 7 EnMin= -151.325259081953     IErMin= 7 ErrMin= 2.31D-06
 ErrMax= 2.31D-06 EMaxC= 1.00D-01 BMatC= 1.37D-09 BMatP= 2.18D-08
 IDIUse=1 WtCom= 1.00D+00 WtEn= 0.00D+00
 Coeff-Com: -0.157D-04 0.360D-03 0.172D-02 0.271D-02-0.579D-01-0.800D-01
 Coeff-Com:  0.113D+01
 Coeff:     -0.157D-04 0.360D-03 0.172D-02 0.271D-02-0.579D-01-0.800D-01
 Coeff:      0.113D+01
 Gap=     0.440 Goal=   None    Shift=    0.000
 RMSDP=3.81D-07 MaxDP=9.45D-06 DE=-6.22D-08 OVMax= 4.33D-05

 Cycle   8  Pass 1  IDiag  1:
 RMSU=  1.29D-07    CP:  1.00D+00  1.13D+00  1.10D+00  1.27D+00  1.32D+00
                    CP:  1.42D+00  1.29D+00
 FoFJK:  IHMeth= 1 ICntrl=     0 DoSepK=T KAlg= 1 I1Cent= 0 FoldK=F
 E= -151.325259087131     Delta-E=       -0.000000005179 Rises=F Damp=F
 DIIS: error= 8.43D-07 at cycle   8 NSaved=   8.
 NSaved= 8 IEnMin= 8 EnMin= -151.325259087131     IErMin= 8 ErrMin= 8.43D-07
 ErrMax= 8.43D-07 EMaxC= 1.00D-01 BMatC= 1.97D-10 BMatP= 1.37D-09
 IDIUse=1 WtCom= 1.00D+00 WtEn= 0.00D+00
 Coeff-Com: -0.128D-04 0.912D-04 0.469D-03 0.116D-02-0.132D-01-0.536D-01
 Coeff-Com:  0.290D+00 0.775D+00
 Coeff:     -0.128D-04 0.912D-04 0.469D-03 0.116D-02-0.132D-01-0.536D-01
 Coeff:      0.290D+00 0.775D+00
 Gap=     0.440 Goal=   None    Shift=    0.000
 RMSDP=7.68D-08 MaxDP=2.15D-06 DE=-5.18D-09 OVMax= 7.05D-06

 Cycle   9  Pass 1  IDiag  1:
 RMSU=  3.66D-08    CP:  1.00D+00  1.13D+00  1.10D+00  1.27D+00  1.32D+00
                    CP:  1.43D+00  1.34D+00  1.18D+00
 FoFJK:  IHMeth= 1 ICntrl=     0 DoSepK=T KAlg= 1 I1Cent= 0 FoldK=F
 E= -151.325259087350     Delta-E=       -0.000000000219 Rises=F Damp=F
 DIIS: error= 5.54D-07 at cycle   9 NSaved=   9.
 NSaved= 9 IEnMin= 9 EnMin= -151.325259087350     IErMin= 9 ErrMin= 5.54D-07
 ErrMax= 5.54D-07 EMaxC= 1.00D-01 BMatC= 9.25D-11 BMatP= 1.97D-10
 IDIUse=1 WtCom= 1.00D+00 WtEn= 0.00D+00
 Coeff-Com: -0.144D-05-0.340D-04-0.212D-03-0.170D-03 0.857D-02-0.978D-02
 Coeff-Com: -0.142D+00 0.430D+00 0.714D+00
 Coeff:     -0.144D-05-0.340D-04-0.212D-03-0.170D-03 0.857D-02-0.978D-02
 Coeff:     -0.142D+00 0.430D+00 0.714D+00
 Gap=     0.440 Goal=   None    Shift=    0.000
 RMSDP=4.46D-08 MaxDP=1.25D-06 DE=-2.19D-10 OVMax= 4.26D-06

 Cycle  10  Pass 1  IDiag  1:
 RMSU=  1.36D-08    CP:  1.00D+00  1.13D+00  1.10D+00  1.27D+00  1.31D+00
                    CP:  1.43D+00  1.37D+00  1.34D+00  8.63D-01
 FoFJK:  IHMeth= 1 ICntrl=     0 DoSepK=T KAlg= 1 I1Cent= 0 FoldK=F
 E= -151.325259087446     Delta-E=       -0.000000000096 Rises=F Damp=F
 DIIS: error= 8.86D-08 at cycle  10 NSaved=  10.
 NSaved=10 IEnMin=10 EnMin= -151.325259087446     IErMin=10 ErrMin= 8.86D-08
 ErrMax= 8.86D-08 EMaxC= 1.00D-01 BMatC= 1.41D-12 BMatP= 9.25D-11
 IDIUse=1 WtCom= 1.00D+00 WtEn= 0.00D+00
 Coeff-Com:  0.190D-05-0.602D-05-0.572D-04-0.168D-03 0.187D-02 0.326D-02
 Coeff-Com: -0.313D-01-0.318D-01 0.354D-01 0.102D+01
 Coeff:      0.190D-05-0.602D-05-0.572D-04-0.168D-03 0.187D-02 0.326D-02
 Coeff:     -0.313D-01-0.318D-01 0.354D-01 0.102D+01
 Gap=     0.440 Goal=   None    Shift=    0.000
 RMSDP=1.12D-08 MaxDP=2.47D-07 DE=-9.57D-11 OVMax= 1.37D-06

 Cycle  11  Pass 1  IDiag  1:
 RMSU=  2.37D-09    CP:  1.00D+00  1.13D+00  1.10D+00  1.27D+00  1.31D+00
                    CP:  1.43D+00  1.38D+00  1.37D+00  9.39D-01  1.32D+00
 FoFJK:  IHMeth= 1 ICntrl=     0 DoSepK=T KAlg= 1 I1Cent= 0 FoldK=F
 E= -151.325259087450     Delta-E=       -0.000000000004 Rises=F Damp=F
 DIIS: error= 2.44D-08 at cycle  11 NSaved=  11.
 NSaved=11 IEnMin=11 EnMin= -151.325259087450     IErMin=11 ErrMin= 2.44D-08
 ErrMax= 2.44D-08 EMaxC= 1.00D-01 BMatC= 9.06D-14 BMatP= 1.41D-12
 IDIUse=1 WtCom= 1.00D+00 WtEn= 0.00D+00
 Coeff-Com: -0.284D-07 0.277D-05 0.150D-04 0.993D-05-0.546D-03 0.110D-03
 Coeff-Com:  0.984D-02-0.999D-02-0.365D-01-0.239D+00 0.128D+01
 Coeff:     -0.284D-07 0.277D-05 0.150D-04 0.993D-05-0.546D-03 0.110D-03
 Coeff:      0.984D-02-0.999D-02-0.365D-01-0.239D+00 0.128D+01
 Gap=     0.440 Goal=   None    Shift=    0.000
 RMSDP=3.97D-09 MaxDP=7.41D-08 DE=-3.69D-12 OVMax= 6.45D-07

 SCF Done:  E(RLC-B+HF-LYP) =  -151.325259087     A.U. after   11 cycles
             Convg  =    0.3968D-08             -V/T =  2.0058
 KE= 1.504581077564D+02 PE=-4.313901427282D+02 EE= 9.300093083540D+01
 Leave Link  502 at Wed May 13 16:40:02 2020, MaxMem= 1073741824 cpu:     304.3
 (Enter /home/matheus/.gaussian/g09/l601.exe)
 Copying SCF densities to generalized density rwf, IOpCl= 0 IROHF=0.

 **********************************************************************

            Population analysis using the SCF density.

 **********************************************************************

 Orbital symmetries:
       Occupied  (A) (A) (A) (A) (A) (A) (A) (A) (A)
       Virtual   (A) (A) (A) (A) (A) (A) (A) (A) (A) (A) (A) (A)
                 (A) (A) (A) (A) (A) (A) (A) (A) (A) (A) (A) (A)
                 (A) (A) (A) (A) (A) (A) (A) (A) (A) (A) (A) (A)
                 (A) (A) (A) (A) (A) (A) (A) (A) (A) (A) (A) (A)
                 (A) (A) (A) (A) (A) (A) (A) (A) (A) (A) (A) (A)
                 (A) (A) (A) (A) (A) (A) (A) (A) (A) (A) (A) (A)
                 (A) (A) (A) (A) (A) (A) (A) (A) (A) (A) (A) (A)
                 (A) (A) (A) (A) (A) (A) (A) (A) (A) (A) (A) (A)
                 (A) (A) (A) (A) (A) (A) (A) (A) (A) (A) (A) (A)
                 (A) (A) (A) (A) (A) (A) (A) (A) (A) (A) (A) (A)
                 (A) (A) (A) (A) (A) (A) (A) (A) (A) (A) (A) (A)
                 (A) (A) (A) (A) (A) (A) (A) (A) (A) (A) (A) (A)
                 (A) (A) (A) (A) (A) (A) (A) (A) (A) (A) (A) (A)
                 (A) (A) (A) (A) (A) (A) (A) (A) (A) (A) (A) (A)
                 (A) (A) (A) (A) (A) (A) (A) (A) (A) (A) (A) (A)
                 (A) (A) (A) (A) (A) (A) (A) (A)
 The electronic state is 1-A.
 Alpha  occ. eigenvalues --  -19.07321 -19.07319  -1.28361  -1.06604  -0.69123
 Alpha  occ. eigenvalues --   -0.64649  -0.56567  -0.48356  -0.41739
 Alpha virt. eigenvalues --    0.02244   0.03073   0.06771   0.08471   0.09896
 Alpha virt. eigenvalues --    0.10183   0.10484   0.13205   0.15819   0.16077
 Alpha virt. eigenvalues --    0.18289   0.18398   0.20369   0.22398   0.24465
 Alpha virt. eigenvalues --    0.26091   0.29253   0.30299   0.31369   0.32423
 Alpha virt. eigenvalues --    0.34260   0.37710   0.38196   0.39503   0.40187
 Alpha virt. eigenvalues --    0.42070   0.43452   0.46838   0.47975   0.48875
 Alpha virt. eigenvalues --    0.54137   0.56899   0.59159   0.63129   0.67873
 Alpha virt. eigenvalues --    0.70074   0.73390   0.73992   0.74975   0.76309
 Alpha virt. eigenvalues --    0.78868   0.81387   0.86145   0.88557   0.89471
 Alpha virt. eigenvalues --    0.90237   0.92962   0.94660   0.96453   0.98722
 Alpha virt. eigenvalues --    0.99055   1.03248   1.04958   1.07361   1.11095
 Alpha virt. eigenvalues --    1.11763   1.14750   1.17425   1.21898   1.22655
 Alpha virt. eigenvalues --    1.24962   1.30144   1.31348   1.32091   1.32999
 Alpha virt. eigenvalues --    1.33898   1.34908   1.35965   1.37225   1.39196
 Alpha virt. eigenvalues --    1.45891   1.49888   1.53191   1.54233   1.55133
 Alpha virt. eigenvalues --    1.57590   1.64058   1.68539   1.68916   1.79576
 Alpha virt. eigenvalues --    1.83158   1.85435   1.88132   1.97204   2.01974
 Alpha virt. eigenvalues --    2.07971   2.09866   2.16748   2.19113   2.23584
 Alpha virt. eigenvalues --    2.28320   2.30035   2.32523   2.36291   2.44619
 Alpha virt. eigenvalues --    2.48914   2.53717   2.55199   2.62769   2.66578
 Alpha virt. eigenvalues --    2.70722   2.74915   2.83933   2.85505   2.92238
 Alpha virt. eigenvalues --    3.05465   3.10024   3.11863   3.25668   3.30100
 Alpha virt. eigenvalues --    3.40977   3.55945   3.60954   3.69852   3.78406
 Alpha virt. eigenvalues --    3.78463   3.81269   3.82221   3.82556   3.82761
 Alpha virt. eigenvalues --    3.86964   3.89548   3.90953   3.93957   3.95897
 Alpha virt. eigenvalues --    4.00831   4.03563   4.06917   4.07727   4.11802
 Alpha virt. eigenvalues --    4.16348   4.21215   4.25594   4.31647   4.35921
 Alpha virt. eigenvalues --    4.47408   4.53264   4.55945   4.72067   4.94237
 Alpha virt. eigenvalues --    5.01778   5.04111   5.10423   5.13778   5.30470
 Alpha virt. eigenvalues --    5.42873   5.84283   6.06383   6.07993   6.12800
 Alpha virt. eigenvalues --    6.34317   6.37418   6.41975   6.53614   6.66940
 Alpha virt. eigenvalues --    6.73994   6.77406   6.83034   6.86641   6.86743
 Alpha virt. eigenvalues --    6.91357   6.92310   6.97270   7.02272   7.04750
 Alpha virt. eigenvalues --    7.21809   7.26298   7.40038   7.72240   7.80806
 Alpha virt. eigenvalues --    8.05454   8.11664  10.88670  13.92257  14.53704
 Alpha virt. eigenvalues --   14.83174  14.88241  15.10221  29.02915  29.03391
 Alpha virt. eigenvalues --   29.07791  29.13318  29.22869  49.10170 148.31273
 Alpha virt. eigenvalues --  148.38564 148.71137 752.49602
          Condensed to atoms (all electrons):
              1          2          3          4          5
     1  O    8.182906  -0.166492   0.194943  -0.000874  -0.000008
     2  O   -0.166492   8.156136   0.015071   0.215669   0.000293
     3  H    0.194943   0.015071   0.575494   0.004126   0.000256
     4  H   -0.000874   0.215669   0.004126   0.568775  -0.005053
     5  Kr  -0.000008   0.000293   0.000256  -0.005053   0.000828
 Mulliken atomic charges:
              1
     1  O   -0.210474
     2  O   -0.220677
     3  H    0.210110
     4  H    0.217357
     5  Kr   0.003684
 Sum of Mulliken atomic charges =   0.00000
 Mulliken charges with hydrogens summed into heavy atoms:
              1
     1  O   -0.000364
     2  O   -0.003320
     5  Kr   0.003684
 Sum of Mulliken charges with hydrogens summed into heavy atoms =   0.00000
          Condensed to fragments (all electrons):
     1      -0.003684
     2       0.003684
 Electronic spatial extent (au):  <R**2>=            324.2313
 Charge=              0.0000 electrons
 Dipole moment (field-independent basis, Debye):
    X=             -0.3733    Y=             -0.0676    Z=              1.0729  Tot=              1.1380
 Quadrupole moment (field-independent basis, Debye-Ang):
   XX=            -11.0306   YY=            -10.8331   ZZ=            -12.6528
   XY=             -3.8987   XZ=              3.0677   YZ=             -1.1376
 Traceless Quadrupole moment (field-independent basis, Debye-Ang):
   XX=              0.4749   YY=              0.6724   ZZ=             -1.1473
   XY=             -3.8987   XZ=              3.0677   YZ=             -1.1376
 Octapole moment (field-independent basis, Debye-Ang**2):
  XXX=            -62.4924  YYY=             -1.3830  ZZZ=              0.7969  XYY=            -22.1779
  XXY=            -14.8063  XXZ=              8.8457  XZZ=            -24.8526  YZZ=             -1.1179
  YYZ=              1.4448  XYZ=             -3.3205
 Hexadecapole moment (field-independent basis, Debye-Ang**3):
 XXXX=           -258.4118 YYYY=            -46.8268 ZZZZ=            -12.3346 XXXY=            -43.2859
 XXXZ=             25.1413 YYYX=             -5.2814 YYYZ=             -1.4903 ZZZX=              1.6683
 ZZZY=             -0.8510 XXYY=            -53.4551 XXZZ=            -52.8755 YYZZ=            -11.2399
 XXYZ=             -9.5081 YYXZ=              3.7291 ZZXY=             -1.8357
 N-N= 3.660584504895D+01 E-N=-4.313901425965D+02  KE= 1.504581077564D+02
 No NMR shielding tensors so no spin-rotation constants.
 Leave Link  601 at Wed May 13 16:40:02 2020, MaxMem= 1073741824 cpu:       0.8
 (Enter /home/matheus/.gaussian/g09/l122.exe)
 Counterpoise: doing DCBS calculation for fragment   2 NewBq=T
 Leave Link  122 at Wed May 13 16:40:02 2020, MaxMem= 1073741824 cpu:       0.0
 (Enter /home/matheus/.gaussian/g09/l301.exe)
 Basis read from rwf:  (5D, 7F)
 No pseudopotential information found on rwf file.
 There are   197 symmetry adapted basis functions of A   symmetry.
 Integral buffers will be    131072 words long.
 Raffenetti 2 integral format.
 Two-electron integral symmetry is turned on.
   197 basis functions,   415 primitive gaussians,   229 cartesian basis functions
    18 alpha electrons       18 beta electrons
       nuclear repulsion energy         0.0000000000 Hartrees.
 IExCor=10402 DFT=T Ex=LC-B+HF Corr=LYP ExCW=0 ScaHFX=  1.000000
 ScaDFX=  1.000000  1.000000  1.000000  1.000000 ScalE2=  1.000000  1.000000
 IRadAn=      5 IRanWt=     -1 IRanGd=            0 ICorTp=0
  HFx wShort=  0.000000 wLong=  0.470000 cFull=  0.000000 cShort=  0.000000 cLong=  1.000000
  DFx wShort=  0.000000 wLong=  0.470000 cFull=  0.000000 cShort=  0.000000 cLong=  1.000000
 NAtoms=    5 NActive=    5 NUniq=    5 SFac= 1.00D+00 NAtFMM=   60 NAOKFM=F Big=F
 No density basis found on file   718.
 Leave Link  301 at Wed May 13 16:40:02 2020, MaxMem= 1073741824 cpu:       0.3
 (Enter /home/matheus/.gaussian/g09/l302.exe)
 NPDir=0 NMtPBC=     1 NCelOv=     1 NCel=       1 NClECP=     1 NCelD=      1
         NCelK=      1 NCelE2=     1 NClLst=     1 CellRange=     0.0.
 One-electron integrals computed using PRISM.
 NBasis=   197 RedAO= T  NBF=   197
 NBsUse=   197 1.00D-06 NBFU=   197
 Precomputing XC quadrature grid using
 IXCGrd= 2 IRadAn=           5 IRanWt=          -1 IRanGd=           0 AccXCQ= 0.00D+00.
 NRdTot=     427 NPtTot=      123814 NUsed=      126881 NTot=      126913
 NSgBfM=   229   229   229   229   229 NAtAll=     5     5.
 Leave Link  302 at Wed May 13 16:40:02 2020, MaxMem= 1073741824 cpu:       1.1
 (Enter /home/matheus/.gaussian/g09/l303.exe)
 DipDrv:  MaxL=1.
 Leave Link  303 at Wed May 13 16:40:02 2020, MaxMem= 1073741824 cpu:       0.2
 (Enter /home/matheus/.gaussian/g09/l401.exe)
 Harris functional with IExCor=10402 diagonalized for initial guess.
 ExpMin= 2.53D-02 ExpMax= 1.17D+07 ExpMxC= 1.33D+04 IAcc=3 IRadAn=         5 AccDes= 0.00D+00
 HarFok:  IExCor=10402 AccDes= 0.00D+00 IRadAn=         5 IDoV= 1
 ScaDFX=  1.000000  1.000000  1.000000  1.000000
 FoFCou: FMM=F IPFlag=           0 FMFlag=      100000 FMFlg1=           0
         NFxFlg=           0 DoJE=T BraDBF=F KetDBF=T FulRan=T
         Omega=  0.000000  0.000000  1.000000  0.000000  0.000000 ICntrl=     500 IOpCl=  0
         NMat0=    1 NMatS0=    1 NMatT0=    0 NMatD0=    1 NMtDS0=    0 NMtDT0=    0
         I1Cent=           4 NGrid=           0.
 Petite list used in FoFCou.
 Harris En= -2744.51538147564    
 Initial guess orbital symmetries:
       Occupied  (A) (A) (A) (A) (A) (A) (A) (A) (A) (A) (A) (A)
                 (A) (A) (A) (A) (A) (A)
       Virtual   (A) (A) (A) (A) (A) (A) (A) (A) (A) (A) (A) (A)
                 (A) (A) (A) (A) (A) (A) (A) (A) (A) (A) (A) (A)
                 (A) (A) (A) (A) (A) (A) (A) (A) (A) (A) (A) (A)
                 (A) (A) (A) (A) (A) (A) (A) (A) (A) (A) (A) (A)
                 (A) (A) (A) (A) (A) (A) (A) (A) (A) (A) (A) (A)
                 (A) (A) (A) (A) (A) (A) (A) (A) (A) (A) (A) (A)
                 (A) (A) (A) (A) (A) (A) (A) (A) (A) (A) (A) (A)
                 (A) (A) (A) (A) (A) (A) (A) (A) (A) (A) (A) (A)
                 (A) (A) (A) (A) (A) (A) (A) (A) (A) (A) (A) (A)
                 (A) (A) (A) (A) (A) (A) (A) (A) (A) (A) (A) (A)
                 (A) (A) (A) (A) (A) (A) (A) (A) (A) (A) (A) (A)
                 (A) (A) (A) (A) (A) (A) (A) (A) (A) (A) (A) (A)
                 (A) (A) (A) (A) (A) (A) (A) (A) (A) (A) (A) (A)
                 (A) (A) (A) (A) (A) (A) (A) (A) (A) (A) (A) (A)
                 (A) (A) (A) (A) (A) (A) (A) (A) (A) (A) (A)
 The electronic state of the initial guess is 1-A.
 Leave Link  401 at Wed May 13 16:40:03 2020, MaxMem= 1073741824 cpu:       4.6
 (Enter /home/matheus/.gaussian/g09/l502.exe)
 Closed shell SCF:
 Requested convergence on RMS density matrix=1.00D-08 within 128 cycles.
 Requested convergence on MAX density matrix=1.00D-06.
 Requested convergence on             energy=1.00D-06.
 No special actions if energy rises.
 Using DIIS extrapolation, IDIIS=  1040.
 Integral symmetry usage will be decided dynamically.
       126823 words used for storage of precomputed grid.
 IEnd=      305770 IEndB=      305770 NGot=  1073741824 MDV=  1073505365
 LenX=  1073505365 LenY=  1073452483
 Fock matrices will be formed incrementally for  20 cycles.

 Cycle   1  Pass 1  IDiag  1:
 FoFJK:  IHMeth= 1 ICntrl=     0 DoSepK=T KAlg= 1 I1Cent= 0 FoldK=F
 FoFCou: FMM=F IPFlag=           0 FMFlag=      100000 FMFlg1=           0
         NFxFlg=           0 DoJE=T BraDBF=F KetDBF=F FulRan=T
         Omega=  0.000000  0.000000  1.000000  0.000000  0.000000 ICntrl=     500 IOpCl=  0
         NMat0=    1 NMatS0=    1 NMatT0=    0 NMatD0=    1 NMtDS0=    0 NMtDT0=    0
         I1Cent=           0 NGrid=           0.
 Symmetry not used in FoFCou.
 E= -2753.33349620995    
 DIIS: error= 2.86D-02 at cycle   1 NSaved=   1.
 NSaved= 1 IEnMin= 1 EnMin= -2753.33349620995     IErMin= 1 ErrMin= 2.86D-02
 ErrMax= 2.86D-02 EMaxC= 1.00D-01 BMatC= 2.61D-01 BMatP= 2.61D-01
 IDIUse=3 WtCom= 7.14D-01 WtEn= 2.86D-01
 Coeff-Com:  0.100D+01
 Coeff-En:   0.100D+01
 Coeff:      0.100D+01
 Gap=     0.618 Goal=   None    Shift=    0.000
 GapD=    0.618 DampG=2.000 DampE=0.500 DampFc=1.0000 IDamp=-1.
 RMSDP=2.48D-03 MaxDP=1.52D-01              OVMax= 1.05D-01

 Cycle   2  Pass 1  IDiag  1:
 RMSU=  1.70D-03    CP:  1.03D+00
 FoFJK:  IHMeth= 1 ICntrl=     0 DoSepK=T KAlg= 1 I1Cent= 0 FoldK=F
 E= -2753.38946645768     Delta-E=       -0.055970247727 Rises=F Damp=F
 DIIS: error= 1.55D-02 at cycle   2 NSaved=   2.
 NSaved= 2 IEnMin= 2 EnMin= -2753.38946645768     IErMin= 2 ErrMin= 1.55D-02
 ErrMax= 1.55D-02 EMaxC= 1.00D-01 BMatC= 8.81D-02 BMatP= 2.61D-01
 IDIUse=3 WtCom= 8.45D-01 WtEn= 1.55D-01
 Coeff-Com:  0.365D+00 0.635D+00
 Coeff-En:   0.130D+00 0.870D+00
 Coeff:      0.328D+00 0.672D+00
 Gap=     0.538 Goal=   None    Shift=    0.000
 RMSDP=9.82D-04 MaxDP=6.10D-02 DE=-5.60D-02 OVMax= 3.14D-02

 Cycle   3  Pass 1  IDiag  1:
 RMSU=  1.75D-04    CP:  1.02D+00  6.17D-01
 FoFJK:  IHMeth= 1 ICntrl=     0 DoSepK=T KAlg= 1 I1Cent= 0 FoldK=F
 E= -2753.41748700753     Delta-E=       -0.028020549853 Rises=F Damp=F
 DIIS: error= 1.15D-03 at cycle   3 NSaved=   3.
 NSaved= 3 IEnMin= 3 EnMin= -2753.41748700753     IErMin= 3 ErrMin= 1.15D-03
 ErrMax= 1.15D-03 EMaxC= 1.00D-01 BMatC= 6.18D-04 BMatP= 8.81D-02
 IDIUse=3 WtCom= 9.89D-01 WtEn= 1.15D-02
 Coeff-Com: -0.645D-02 0.650D-01 0.941D+00
 Coeff-En:   0.000D+00 0.000D+00 0.100D+01
 Coeff:     -0.638D-02 0.643D-01 0.942D+00
 Gap=     0.537 Goal=   None    Shift=    0.000
 RMSDP=9.77D-05 MaxDP=5.21D-03 DE=-2.80D-02 OVMax= 3.33D-03

 Cycle   4  Pass 1  IDiag  1:
 RMSU=  3.73D-05    CP:  1.02D+00  6.47D-01  1.14D+00
 FoFJK:  IHMeth= 1 ICntrl=     0 DoSepK=T KAlg= 1 I1Cent= 0 FoldK=F
 E= -2753.41767851687     Delta-E=       -0.000191509333 Rises=F Damp=F
 DIIS: error= 5.95D-05 at cycle   4 NSaved=   4.
 NSaved= 4 IEnMin= 4 EnMin= -2753.41767851687     IErMin= 4 ErrMin= 5.95D-05
 ErrMax= 5.95D-05 EMaxC= 1.00D-01 BMatC= 1.98D-06 BMatP= 6.18D-04
 IDIUse=1 WtCom= 1.00D+00 WtEn= 0.00D+00
 Coeff-Com: -0.144D-02 0.119D-03-0.605D-02 0.101D+01
 Coeff:     -0.144D-02 0.119D-03-0.605D-02 0.101D+01
 Gap=     0.539 Goal=   None    Shift=    0.000
 RMSDP=1.39D-05 MaxDP=5.46D-04 DE=-1.92D-04 OVMax= 9.19D-04

 Cycle   5  Pass 1  IDiag  1:
 RMSU=  5.98D-06    CP:  1.02D+00  6.49D-01  1.17D+00  1.05D+00
 FoFJK:  IHMeth= 1 ICntrl=     0 DoSepK=T KAlg= 1 I1Cent= 0 FoldK=F
 E= -2753.41768244774     Delta-E=       -0.000003930878 Rises=F Damp=F
 DIIS: error= 2.42D-05 at cycle   5 NSaved=   5.
 NSaved= 5 IEnMin= 5 EnMin= -2753.41768244774     IErMin= 5 ErrMin= 2.42D-05
 ErrMax= 2.42D-05 EMaxC= 1.00D-01 BMatC= 1.59D-07 BMatP= 1.98D-06
 IDIUse=1 WtCom= 1.00D+00 WtEn= 0.00D+00
 Coeff-Com: -0.530D-04-0.406D-02-0.331D-01-0.722D-01 0.111D+01
 Coeff:     -0.530D-04-0.406D-02-0.331D-01-0.722D-01 0.111D+01
 Gap=     0.538 Goal=   None    Shift=    0.000
 RMSDP=4.57D-06 MaxDP=1.86D-04 DE=-3.93D-06 OVMax= 1.98D-04

 Cycle   6  Pass 1  IDiag  1:
 RMSU=  3.78D-07    CP:  1.02D+00  6.49D-01  1.19D+00  1.10D+00  1.15D+00
 FoFJK:  IHMeth= 1 ICntrl=     0 DoSepK=T KAlg= 1 I1Cent= 0 FoldK=F
 E= -2753.41768265559     Delta-E=       -0.000000207846 Rises=F Damp=F
 DIIS: error= 5.87D-07 at cycle   6 NSaved=   6.
 NSaved= 6 IEnMin= 6 EnMin= -2753.41768265559     IErMin= 6 ErrMin= 5.87D-07
 ErrMax= 5.87D-07 EMaxC= 1.00D-01 BMatC= 1.01D-10 BMatP= 1.59D-07
 IDIUse=1 WtCom= 1.00D+00 WtEn= 0.00D+00
 Coeff-Com:  0.721D-05 0.337D-03 0.301D-02-0.307D-03-0.774D-01 0.107D+01
 Coeff:      0.721D-05 0.337D-03 0.301D-02-0.307D-03-0.774D-01 0.107D+01
 Gap=     0.538 Goal=   None    Shift=    0.000
 RMSDP=1.56D-07 MaxDP=5.18D-06 DE=-2.08D-07 OVMax= 6.32D-06

 Cycle   7  Pass 1  IDiag  1:
 RMSU=  2.53D-08    CP:  1.02D+00  6.49D-01  1.19D+00  1.10D+00  1.17D+00
                    CP:  1.17D+00
 FoFJK:  IHMeth= 1 ICntrl=     0 DoSepK=T KAlg= 1 I1Cent= 0 FoldK=F
 E= -2753.41768265568     Delta-E=       -0.000000000089 Rises=F Damp=F
 DIIS: error= 8.58D-08 at cycle   7 NSaved=   7.
 NSaved= 7 IEnMin= 7 EnMin= -2753.41768265568     IErMin= 7 ErrMin= 8.58D-08
 ErrMax= 8.58D-08 EMaxC= 1.00D-01 BMatC= 2.36D-12 BMatP= 1.01D-10
 IDIUse=1 WtCom= 1.00D+00 WtEn= 0.00D+00
 Coeff-Com:  0.461D-06 0.394D-04 0.314D-03 0.865D-03-0.115D-01 0.960D-02
 Coeff-Com:  0.100D+01
 Coeff:      0.461D-06 0.394D-04 0.314D-03 0.865D-03-0.115D-01 0.960D-02
 Coeff:      0.100D+01
 Gap=     0.538 Goal=   None    Shift=    0.000
 RMSDP=1.62D-08 MaxDP=5.77D-07 DE=-8.91D-11 OVMax= 8.39D-07

 Cycle   8  Pass 1  IDiag  1:
 RMSU=  4.72D-09    CP:  1.02D+00  6.49D-01  1.19D+00  1.10D+00  1.17D+00
                    CP:  1.19D+00  1.11D+00
 FoFJK:  IHMeth= 1 ICntrl=     0 DoSepK=T KAlg= 1 I1Cent= 0 FoldK=F
 E= -2753.41768265567     Delta-E=        0.000000000012 Rises=F Damp=F
 DIIS: error= 2.11D-08 at cycle   8 NSaved=   8.
 NSaved= 8 IEnMin= 7 EnMin= -2753.41768265568     IErMin= 8 ErrMin= 2.11D-08
 ErrMax= 2.11D-08 EMaxC= 1.00D-01 BMatC= 2.07D-13 BMatP= 2.36D-12
 IDIUse=1 WtCom= 1.00D+00 WtEn= 0.00D+00
 Coeff-Com: -0.334D-06-0.119D-04-0.115D-03 0.207D-03 0.209D-02-0.573D-01
 Coeff-Com:  0.190D+00 0.865D+00
 Coeff:     -0.334D-06-0.119D-04-0.115D-03 0.207D-03 0.209D-02-0.573D-01
 Coeff:      0.190D+00 0.865D+00
 Gap=     0.538 Goal=   None    Shift=    0.000
 RMSDP=3.01D-09 MaxDP=1.08D-07 DE= 1.23D-11 OVMax= 1.80D-07

 SCF Done:  E(RLC-B+HF-LYP) =  -2753.41768266     A.U. after    8 cycles
             Convg  =    0.3007D-08             -V/T =  2.0015
 KE= 2.749315744073D+03 PE=-6.578526419381D+03 EE= 1.075792992652D+03
 Leave Link  502 at Wed May 13 16:40:32 2020, MaxMem= 1073741824 cpu:     234.2
 (Enter /home/matheus/.gaussian/g09/l601.exe)
 Copying SCF densities to generalized density rwf, IOpCl= 0 IROHF=0.

 **********************************************************************

            Population analysis using the SCF density.

 **********************************************************************

 Orbital symmetries:
       Occupied  (A) (A) (A) (A) (A) (A) (A) (A) (A) (A) (A) (A)
                 (A) (A) (A) (A) (A) (A)
       Virtual   (A) (A) (A) (A) (A) (A) (A) (A) (A) (A) (A) (A)
                 (A) (A) (A) (A) (A) (A) (A) (A) (A) (A) (A) (A)
                 (A) (A) (A) (A) (A) (A) (A) (A) (A) (A) (A) (A)
                 (A) (A) (A) (A) (A) (A) (A) (A) (A) (A) (A) (A)
                 (A) (A) (A) (A) (A) (A) (A) (A) (A) (A) (A) (A)
                 (A) (A) (A) (A) (A) (A) (A) (A) (A) (A) (A) (A)
                 (A) (A) (A) (A) (A) (A) (A) (A) (A) (A) (A) (A)
                 (A) (A) (A) (A) (A) (A) (A) (A) (A) (A) (A) (A)
                 (A) (A) (A) (A) (A) (A) (A) (A) (A) (A) (A) (A)
                 (A) (A) (A) (A) (A) (A) (A) (A) (A) (A) (A) (A)
                 (A) (A) (A) (A) (A) (A) (A) (A) (A) (A) (A) (A)
                 (A) (A) (A) (A) (A) (A) (A) (A) (A) (A) (A) (A)
                 (A) (A) (A) (A) (A) (A) (A) (A) (A) (A) (A) (A)
                 (A) (A) (A) (A) (A) (A) (A) (A) (A) (A) (A) (A)
                 (A) (A) (A) (A) (A) (A) (A) (A) (A) (A) (A)
 The electronic state is 1-A.
 Alpha  occ. eigenvalues -- -511.24359 -66.71349 -60.39871 -60.39868 -60.39868
 Alpha  occ. eigenvalues --   -9.60493  -7.35946  -7.35945  -7.35945  -3.32283
 Alpha  occ. eigenvalues --   -3.32283  -3.32283  -3.32281  -3.32281  -1.06080
 Alpha  occ. eigenvalues --   -0.51293  -0.51289  -0.51287
 Alpha virt. eigenvalues --    0.02537   0.04640   0.07704   0.08945   0.10425
 Alpha virt. eigenvalues --    0.11606   0.12617   0.13655   0.15908   0.16672
 Alpha virt. eigenvalues --    0.17291   0.19137   0.20365   0.25130   0.26486
 Alpha virt. eigenvalues --    0.27043   0.27828   0.31684   0.33201   0.35091
 Alpha virt. eigenvalues --    0.35542   0.36905   0.37296   0.38655   0.41184
 Alpha virt. eigenvalues --    0.41437   0.42809   0.53110   0.54623   0.57569
 Alpha virt. eigenvalues --    0.58115   0.65765   0.66531   0.69919   0.71932
 Alpha virt. eigenvalues --    0.74016   0.75589   0.76932   0.77323   0.78367
 Alpha virt. eigenvalues --    0.80309   0.81198   0.83255   0.85040   0.85270
 Alpha virt. eigenvalues --    0.86916   0.87973   0.89044   0.91356   0.94335
 Alpha virt. eigenvalues --    0.97862   0.98780   1.00422   1.03221   1.03762
 Alpha virt. eigenvalues --    1.06480   1.07256   1.08939   1.12045   1.13285
 Alpha virt. eigenvalues --    1.15275   1.19470   1.20642   1.23723   1.27614
 Alpha virt. eigenvalues --    1.33171   1.35296   1.40904   1.44926   1.45113
 Alpha virt. eigenvalues --    1.57594   1.59168   1.59645   1.71342   1.77699
 Alpha virt. eigenvalues --    1.81022   1.84639   1.86823   1.90621   2.16293
 Alpha virt. eigenvalues --    2.20059   2.25719   2.27734   2.30184   2.32225
 Alpha virt. eigenvalues --    2.33018   2.33350   2.36546   2.37814   2.39776
 Alpha virt. eigenvalues --    2.44100   2.47744   2.48624   2.50405   2.51476
 Alpha virt. eigenvalues --    2.52098   2.54545   2.55991   2.56338   2.58957
 Alpha virt. eigenvalues --    2.62630   2.63593   2.64166   2.65392   2.68287
 Alpha virt. eigenvalues --    2.72309   2.76080   2.78988   2.84425   2.87831
 Alpha virt. eigenvalues --    2.91533   2.95243   3.03633   3.12116   3.15811
 Alpha virt. eigenvalues --    3.21513   3.26913   3.32317   3.35017   3.50601
 Alpha virt. eigenvalues --    3.60165   3.65630   3.82018   3.86307   4.02681
 Alpha virt. eigenvalues --    4.36196   4.49180   4.52035   4.53650   4.57679
 Alpha virt. eigenvalues --    4.71118   4.86801   4.87501   4.93981   5.02910
 Alpha virt. eigenvalues --    5.13282   5.16502   5.58346   5.62572   5.82136
 Alpha virt. eigenvalues --    5.97453   6.04621   6.10588   6.78396   6.85346
 Alpha virt. eigenvalues --    7.32071   7.38645   7.62261   7.64461   7.68944
 Alpha virt. eigenvalues --    7.83948   7.99624   8.09707   8.17056   8.21336
 Alpha virt. eigenvalues --    8.37066   8.39917   8.63273   8.88003   9.61366
 Alpha virt. eigenvalues --    9.70319   9.79321   9.87479   9.96139  10.02288
 Alpha virt. eigenvalues --   10.15283  10.25795  10.45423  10.93458  11.49675
 Alpha virt. eigenvalues --   11.59397  11.63510  12.05025  12.05082  13.24595
 Alpha virt. eigenvalues --   13.62174  14.52861  62.72562  64.57336
          Condensed to atoms (all electrons):
              1          2          3          4          5
     1  O    0.002450  -0.001872  -0.001278   0.001105  -0.010025
     2  O   -0.001872   0.005002   0.000586  -0.002939  -0.005999
     3  H   -0.001278   0.000586   0.000880  -0.000356   0.002868
     4  H    0.001105  -0.002939  -0.000356   0.002761  -0.013377
     5  Kr  -0.010025  -0.005999   0.002868  -0.013377  36.051483
 Mulliken atomic charges:
              1
     1  O    0.009621
     2  O    0.005223
     3  H   -0.002700
     4  H    0.012806
     5  Kr  -0.024950
 Sum of Mulliken atomic charges =   0.00000
 Mulliken charges with hydrogens summed into heavy atoms:
              1
     1  O    0.006922
     2  O    0.018029
     5  Kr  -0.024950
 Sum of Mulliken charges with hydrogens summed into heavy atoms =   0.00000
          Condensed to fragments (all electrons):
     1       0.024950
     2      -0.024950
 Electronic spatial extent (au):  <R**2>=            167.1555
 Charge=              0.0000 electrons
 Dipole moment (field-independent basis, Debye):
    X=              0.0015    Y=              0.0007    Z=              0.0001  Tot=              0.0016
 Quadrupole moment (field-independent basis, Debye-Ang):
   XX=            -17.7473   YY=            -17.7568   ZZ=            -17.7635
   XY=              0.0045   XZ=             -0.0002   YZ=              0.0003
 Traceless Quadrupole moment (field-independent basis, Debye-Ang):
   XX=              0.0085   YY=             -0.0009   ZZ=             -0.0076
   XY=              0.0045   XZ=             -0.0002   YZ=              0.0003
 Octapole moment (field-independent basis, Debye-Ang**2):
  XXX=             53.0232  YYY=              0.9153  ZZZ=             -0.1540  XYY=             17.6863
  XXY=              0.2954  XXZ=             -0.0515  XZZ=             17.6899  YZZ=              0.3057
  YYZ=             -0.0509  XYZ=             -0.0004
 Hexadecapole moment (field-independent basis, Debye-Ang**3):
 XXXX=           -124.5216 YYYY=            -18.9560 ZZZZ=            -18.9461 XXXY=             -0.8882
 XXXZ=              0.1539 YYYX=             -0.8968 YYYZ=              0.0018 ZZZX=              0.1538
 ZZZY=              0.0036 XXYY=            -23.9237 XXZZ=            -23.9242 YYZZ=             -6.3147
 XXYZ=              0.0014 YYXZ=              0.0513 ZZXY=             -0.2975
 N-N= 0.000000000000D+00 E-N=-6.578526417800D+03  KE= 2.749315744073D+03
 No NMR shielding tensors so no spin-rotation constants.
 Leave Link  601 at Wed May 13 16:40:32 2020, MaxMem= 1073741824 cpu:       0.7
 (Enter /home/matheus/.gaussian/g09/l122.exe)
 Counterpoise: doing MCBS calculation for fragment   1
 Leave Link  122 at Wed May 13 16:40:32 2020, MaxMem= 1073741824 cpu:       0.0
 (Enter /home/matheus/.gaussian/g09/l301.exe)
 Basis read from rwf:  (5D, 7F)
 No pseudopotential information found on rwf file.
 There are   138 symmetry adapted basis functions of A   symmetry.
 Integral buffers will be    131072 words long.
 Raffenetti 2 integral format.
 Two-electron integral symmetry is turned on.
   138 basis functions,   198 primitive gaussians,   160 cartesian basis functions
     9 alpha electrons        9 beta electrons
       nuclear repulsion energy        36.6058450489 Hartrees.
 IExCor=10402 DFT=T Ex=LC-B+HF Corr=LYP ExCW=0 ScaHFX=  1.000000
 ScaDFX=  1.000000  1.000000  1.000000  1.000000 ScalE2=  1.000000  1.000000
 IRadAn=      5 IRanWt=     -1 IRanGd=            0 ICorTp=0
  HFx wShort=  0.000000 wLong=  0.470000 cFull=  0.000000 cShort=  0.000000 cLong=  1.000000
  DFx wShort=  0.000000 wLong=  0.470000 cFull=  0.000000 cShort=  0.000000 cLong=  1.000000
 NAtoms=    5 NActive=    4 NUniq=    4 SFac= 1.00D+00 NAtFMM=   60 NAOKFM=F Big=F
 No density basis found on file   718.
 Leave Link  301 at Wed May 13 16:40:32 2020, MaxMem= 1073741824 cpu:       0.2
 (Enter /home/matheus/.gaussian/g09/l302.exe)
 NPDir=0 NMtPBC=     1 NCelOv=     1 NCel=       1 NClECP=     1 NCelD=      1
         NCelK=      1 NCelE2=     1 NClLst=     1 CellRange=     0.0.
 One-electron integrals computed using PRISM.
 NBasis=   138 RedAO= T  NBF=   138
 NBsUse=   138 1.00D-06 NBFU=   138
 Precomputing XC quadrature grid using
 IXCGrd= 2 IRadAn=           5 IRanWt=          -1 IRanGd=           0 AccXCQ= 0.00D+00.
 NRdTot=     344 NPtTot=       92556 NUsed=       95038 NTot=       95070
 NSgBfM=   160   160   160   160   160 NAtAll=     4     4.
 Leave Link  302 at Wed May 13 16:40:32 2020, MaxMem= 1073741824 cpu:       0.7
 (Enter /home/matheus/.gaussian/g09/l303.exe)
 DipDrv:  MaxL=1.
 Leave Link  303 at Wed May 13 16:40:32 2020, MaxMem= 1073741824 cpu:       0.1
 (Enter /home/matheus/.gaussian/g09/l401.exe)
 Harris functional with IExCor=10402 diagonalized for initial guess.
 ExpMin= 2.53D-02 ExpMax= 1.53D+04 ExpMxC= 5.22D+02 IAcc=3 IRadAn=         5 AccDes= 0.00D+00
 HarFok:  IExCor=10402 AccDes= 0.00D+00 IRadAn=         5 IDoV= 1
 ScaDFX=  1.000000  1.000000  1.000000  1.000000
 FoFCou: FMM=F IPFlag=           0 FMFlag=      100000 FMFlg1=           0
         NFxFlg=           0 DoJE=T BraDBF=F KetDBF=T FulRan=T
         Omega=  0.000000  0.000000  1.000000  0.000000  0.000000 ICntrl=     500 IOpCl=  0
         NMat0=    1 NMatS0=    1 NMatT0=    0 NMatD0=    1 NMtDS0=    0 NMtDT0=    0
         I1Cent=           4 NGrid=           0.
 Petite list used in FoFCou.
 Harris En= -147.163695951335    
 Initial guess orbital symmetries:
       Occupied  (A) (A) (A) (A) (A) (A) (A) (A) (A)
       Virtual   (A) (A) (A) (A) (A) (A) (A) (A) (A) (A) (A) (A)
                 (A) (A) (A) (A) (A) (A) (A) (A) (A) (A) (A) (A)
                 (A) (A) (A) (A) (A) (A) (A) (A) (A) (A) (A) (A)
                 (A) (A) (A) (A) (A) (A) (A) (A) (A) (A) (A) (A)
                 (A) (A) (A) (A) (A) (A) (A) (A) (A) (A) (A) (A)
                 (A) (A) (A) (A) (A) (A) (A) (A) (A) (A) (A) (A)
                 (A) (A) (A) (A) (A) (A) (A) (A) (A) (A) (A) (A)
                 (A) (A) (A) (A) (A) (A) (A) (A) (A) (A) (A) (A)
                 (A) (A) (A) (A) (A) (A) (A) (A) (A) (A) (A) (A)
                 (A) (A) (A) (A) (A) (A) (A) (A) (A) (A) (A) (A)
                 (A) (A) (A) (A) (A) (A) (A) (A) (A)
 The electronic state of the initial guess is 1-A.
 Leave Link  401 at Wed May 13 16:40:33 2020, MaxMem= 1073741824 cpu:       2.0
 (Enter /home/matheus/.gaussian/g09/l502.exe)
 Closed shell SCF:
 Requested convergence on RMS density matrix=1.00D-08 within 128 cycles.
 Requested convergence on MAX density matrix=1.00D-06.
 Requested convergence on             energy=1.00D-06.
 No special actions if energy rises.
 Using DIIS extrapolation, IDIIS=  1040.
 Integral symmetry usage will be decided dynamically.
        94980 words used for storage of precomputed grid.
 IEnd=      192360 IEndB=      192360 NGot=  1073741824 MDV=  1073591865
 LenX=  1073591865 LenY=  1073565824
 Fock matrices will be formed incrementally for  20 cycles.

 Cycle   1  Pass 1  IDiag  1:
 FoFJK:  IHMeth= 1 ICntrl=     0 DoSepK=T KAlg= 1 I1Cent= 0 FoldK=F
 FoFCou: FMM=F IPFlag=           0 FMFlag=      100000 FMFlg1=           0
         NFxFlg=           0 DoJE=T BraDBF=F KetDBF=F FulRan=T
         Omega=  0.000000  0.000000  1.000000  0.000000  0.000000 ICntrl=     500 IOpCl=  0
         NMat0=    1 NMatS0=    1 NMatT0=    0 NMatD0=    1 NMtDS0=    0 NMtDT0=    0
         I1Cent=           0 NGrid=           0.
 Symmetry not used in FoFCou.
 E= -151.304503384588    
 DIIS: error= 1.59D-02 at cycle   1 NSaved=   1.
 NSaved= 1 IEnMin= 1 EnMin= -151.304503384588     IErMin= 1 ErrMin= 1.59D-02
 ErrMax= 1.59D-02 EMaxC= 1.00D-01 BMatC= 2.10D-02 BMatP= 2.10D-02
 IDIUse=3 WtCom= 8.41D-01 WtEn= 1.59D-01
 Coeff-Com:  0.100D+01
 Coeff-En:   0.100D+01
 Coeff:      0.100D+01
 Gap=     0.474 Goal=   None    Shift=    0.000
 GapD=    0.474 DampG=2.000 DampE=0.500 DampFc=1.0000 IDamp=-1.
 RMSDP=1.18D-03 MaxDP=2.82D-02              OVMax= 5.43D-02

 Cycle   2  Pass 1  IDiag  1:
 RMSU=  8.33D-04    CP:  1.00D+00
 FoFJK:  IHMeth= 1 ICntrl=     0 DoSepK=T KAlg= 1 I1Cent= 0 FoldK=F
 E= -151.321839099167     Delta-E=       -0.017335714579 Rises=F Damp=F
 DIIS: error= 8.37D-03 at cycle   2 NSaved=   2.
 NSaved= 2 IEnMin= 2 EnMin= -151.321839099167     IErMin= 2 ErrMin= 8.37D-03
 ErrMax= 8.37D-03 EMaxC= 1.00D-01 BMatC= 5.08D-03 BMatP= 2.10D-02
 IDIUse=3 WtCom= 9.16D-01 WtEn= 8.37D-02
 Coeff-Com:  0.281D+00 0.719D+00
 Coeff-En:   0.000D+00 0.100D+01
 Coeff:      0.257D+00 0.743D+00
 Gap=     0.434 Goal=   None    Shift=    0.000
 RMSDP=3.13D-04 MaxDP=7.09D-03 DE=-1.73D-02 OVMax= 1.48D-02

 Cycle   3  Pass 1  IDiag  1:
 RMSU=  2.21D-04    CP:  1.00D+00  9.98D-01
 FoFJK:  IHMeth= 1 ICntrl=     0 DoSepK=T KAlg= 1 I1Cent= 0 FoldK=F
 E= -151.324709457487     Delta-E=       -0.002870358320 Rises=F Damp=F
 DIIS: error= 2.12D-03 at cycle   3 NSaved=   3.
 NSaved= 3 IEnMin= 3 EnMin= -151.324709457487     IErMin= 3 ErrMin= 2.12D-03
 ErrMax= 2.12D-03 EMaxC= 1.00D-01 BMatC= 6.34D-04 BMatP= 5.08D-03
 IDIUse=3 WtCom= 9.79D-01 WtEn= 2.12D-02
 Coeff-Com:  0.129D-01 0.248D+00 0.739D+00
 Coeff-En:   0.000D+00 0.000D+00 0.100D+01
 Coeff:      0.126D-01 0.243D+00 0.745D+00
 Gap=     0.444 Goal=   None    Shift=    0.000
 RMSDP=1.50D-04 MaxDP=3.72D-03 DE=-2.87D-03 OVMax= 7.66D-03

 Cycle   4  Pass 1  IDiag  1:
 RMSU=  7.33D-05    CP:  1.00D+00  1.09D+00  9.45D-01
 FoFJK:  IHMeth= 1 ICntrl=     0 DoSepK=T KAlg= 1 I1Cent= 0 FoldK=F
 E= -151.325183868151     Delta-E=       -0.000474410663 Rises=F Damp=F
 DIIS: error= 4.06D-04 at cycle   4 NSaved=   4.
 NSaved= 4 IEnMin= 4 EnMin= -151.325183868151     IErMin= 4 ErrMin= 4.06D-04
 ErrMax= 4.06D-04 EMaxC= 1.00D-01 BMatC= 2.79D-05 BMatP= 6.34D-04
 IDIUse=3 WtCom= 9.96D-01 WtEn= 4.06D-03
 Coeff-Com: -0.212D-01-0.304D-01 0.116D+00 0.936D+00
 Coeff-En:   0.000D+00 0.000D+00 0.000D+00 0.100D+01
 Coeff:     -0.211D-01-0.303D-01 0.115D+00 0.936D+00
 Gap=     0.442 Goal=   None    Shift=    0.000
 RMSDP=5.46D-05 MaxDP=1.51D-03 DE=-4.74D-04 OVMax= 1.97D-03

 Cycle   5  Pass 1  IDiag  1:
 RMSU=  1.29D-05    CP:  1.00D+00  1.12D+00  1.06D+00  1.17D+00
 FoFJK:  IHMeth= 1 ICntrl=     0 DoSepK=T KAlg= 1 I1Cent= 0 FoldK=F
 E= -151.325213876602     Delta-E=       -0.000030008451 Rises=F Damp=F
 DIIS: error= 7.17D-05 at cycle   5 NSaved=   5.
 NSaved= 5 IEnMin= 5 EnMin= -151.325213876602     IErMin= 5 ErrMin= 7.17D-05
 ErrMax= 7.17D-05 EMaxC= 1.00D-01 BMatC= 4.24D-07 BMatP= 2.79D-05
 IDIUse=1 WtCom= 1.00D+00 WtEn= 0.00D+00
 Coeff-Com:  0.660D-03-0.668D-02-0.349D-01-0.566D-01 0.110D+01
 Coeff:      0.660D-03-0.668D-02-0.349D-01-0.566D-01 0.110D+01
 Gap=     0.442 Goal=   None    Shift=    0.000
 RMSDP=1.41D-05 MaxDP=4.02D-04 DE=-3.00D-05 OVMax= 6.54D-04

 Cycle   6  Pass 1  IDiag  1:
 RMSU=  2.48D-06    CP:  1.00D+00  1.12D+00  1.08D+00  1.26D+00  1.27D+00
 FoFJK:  IHMeth= 1 ICntrl=     0 DoSepK=T KAlg= 1 I1Cent= 0 FoldK=F
 E= -151.325215182010     Delta-E=       -0.000001305408 Rises=F Damp=F
 DIIS: error= 1.41D-05 at cycle   6 NSaved=   6.
 NSaved= 6 IEnMin= 6 EnMin= -151.325215182010     IErMin= 6 ErrMin= 1.41D-05
 ErrMax= 1.41D-05 EMaxC= 1.00D-01 BMatC= 2.17D-08 BMatP= 4.24D-07
 IDIUse=1 WtCom= 1.00D+00 WtEn= 0.00D+00
 Coeff-Com:  0.448D-03 0.983D-03-0.244D-02-0.238D-01-0.266D-01 0.105D+01
 Coeff:      0.448D-03 0.983D-03-0.244D-02-0.238D-01-0.266D-01 0.105D+01
 Gap=     0.442 Goal=   None    Shift=    0.000
 RMSDP=2.15D-06 MaxDP=4.76D-05 DE=-1.31D-06 OVMax= 1.29D-04

 Cycle   7  Pass 1  IDiag  1:
 RMSU=  5.16D-07    CP:  1.00D+00  1.12D+00  1.08D+00  1.27D+00  1.31D+00
                    CP:  1.31D+00
 FoFJK:  IHMeth= 1 ICntrl=     0 DoSepK=T KAlg= 1 I1Cent= 0 FoldK=F
[...]
 E= -2753.41756234783     Delta-E=       -0.000000555322 Rises=F Damp=F
 DIIS: error= 3.08D-06 at cycle   2 NSaved=   2.
 NSaved= 2 IEnMin= 2 EnMin= -2753.41756234783     IErMin= 2 ErrMin= 3.08D-06
 ErrMax= 3.08D-06 EMaxC= 1.00D-01 BMatC= 3.36D-09 BMatP= 5.85D-06
 IDIUse=1 WtCom= 1.00D+00 WtEn= 0.00D+00
 Coeff-Com: -0.691D-02 0.101D+01
 Coeff:     -0.691D-02 0.101D+01
 Gap=     0.539 Goal=   None    Shift=    0.000
 RMSDP=1.60D-06 MaxDP=6.14D-05 DE=-5.55D-07 OVMax= 4.56D-05

 Cycle   3  Pass 1  IDiag  1:
 RMSU=  5.24D-07    CP:  1.00D+00  1.08D+00
 FoFJK:  IHMeth= 1 ICntrl=     0 DoSepK=T KAlg= 1 I1Cent= 0 FoldK=F
 E= -2753.41756235382     Delta-E=       -0.000000005987 Rises=F Damp=F
 DIIS: error= 4.51D-07 at cycle   3 NSaved=   3.
 NSaved= 3 IEnMin= 3 EnMin= -2753.41756235382     IErMin= 3 ErrMin= 4.51D-07
 ErrMax= 4.51D-07 EMaxC= 1.00D-01 BMatC= 9.47D-11 BMatP= 3.36D-09
 IDIUse=1 WtCom= 1.00D+00 WtEn= 0.00D+00
 Coeff-Com:  0.247D-03-0.116D+00 0.112D+01
 Coeff:      0.247D-03-0.116D+00 0.112D+01
 Gap=     0.539 Goal=   None    Shift=    0.000
 RMSDP=1.94D-07 MaxDP=6.70D-06 DE=-5.99D-09 OVMax= 9.18D-06

 Cycle   4  Pass 1  IDiag  1:
 RMSU=  5.79D-08    CP:  1.00D+00  1.09D+00  1.18D+00
 FoFJK:  IHMeth= 1 ICntrl=     0 DoSepK=T KAlg= 1 I1Cent= 0 FoldK=F
 E= -2753.41756235402     Delta-E=       -0.000000000204 Rises=F Damp=F
 DIIS: error= 2.63D-07 at cycle   4 NSaved=   4.
 NSaved= 4 IEnMin= 4 EnMin= -2753.41756235402     IErMin= 4 ErrMin= 2.63D-07
 ErrMax= 2.63D-07 EMaxC= 1.00D-01 BMatC= 1.44D-11 BMatP= 9.47D-11
 IDIUse=1 WtCom= 1.00D+00 WtEn= 0.00D+00
 Coeff-Com:  0.218D-03-0.547D-01 0.339D+00 0.715D+00
 Coeff:      0.218D-03-0.547D-01 0.339D+00 0.715D+00
 Gap=     0.539 Goal=   None    Shift=    0.000
 RMSDP=2.00D-08 MaxDP=7.89D-07 DE=-2.04D-10 OVMax= 9.60D-07

 Cycle   5  Pass 1  IDiag  1:
 RMSU=  9.91D-09    CP:  1.00D+00  1.09D+00  1.19D+00  1.12D+00
 FoFJK:  IHMeth= 1 ICntrl=     0 DoSepK=T KAlg= 1 I1Cent= 0 FoldK=F
 E= -2753.41756235403     Delta-E=       -0.000000000007 Rises=F Damp=F
 DIIS: error= 2.92D-08 at cycle   5 NSaved=   5.
 NSaved= 5 IEnMin= 5 EnMin= -2753.41756235403     IErMin= 5 ErrMin= 2.92D-08
 ErrMax= 2.92D-08 EMaxC= 1.00D-01 BMatC= 2.61D-13 BMatP= 1.44D-11
 IDIUse=1 WtCom= 1.00D+00 WtEn= 0.00D+00
 Coeff-Com: -0.198D-04 0.736D-02-0.672D-01-0.104D-01 0.107D+01
 Coeff:     -0.198D-04 0.736D-02-0.672D-01-0.104D-01 0.107D+01
 Gap=     0.539 Goal=   None    Shift=    0.000
 RMSDP=9.78D-09 MaxDP=5.67D-07 DE=-6.82D-12 OVMax= 4.46D-07

 SCF Done:  E(RLC-B+HF-LYP) =  -2753.41756235     A.U. after    5 cycles
             Convg  =    0.9780D-08             -V/T =  2.0015
 KE= 2.749364149204D+03 PE=-6.578579530233D+03 EE= 1.075797818675D+03
 Leave Link  502 at Wed May 13 17:07:35 2020, MaxMem= 1073741824 cpu:     109.3
 (Enter /home/matheus/.gaussian/g09/l122.exe)
 Restoring MOs from calculation   4 to rwf.
 Counterpoise: doing MCBS calculation for fragment   1
 Leave Link  122 at Wed May 13 17:07:35 2020, MaxMem= 1073741824 cpu:       0.0
 (Enter /home/matheus/.gaussian/g09/l301.exe)
 Basis read from rwf:  (5D, 7F)
 No pseudopotential information found on rwf file.
 There are   138 symmetry adapted basis functions of A   symmetry.
 Integral buffers will be    131072 words long.
 Raffenetti 2 integral format.
 Two-electron integral symmetry is turned on.
   138 basis functions,   198 primitive gaussians,   160 cartesian basis functions
     9 alpha electrons        9 beta electrons
       nuclear repulsion energy        36.6058450489 Hartrees.
 IExCor=10402 DFT=T Ex=LC-B+HF Corr=LYP ExCW=0 ScaHFX=  1.000000
 ScaDFX=  1.000000  1.000000  1.000000  1.000000 ScalE2=  1.000000  1.000000
 IRadAn=      5 IRanWt=     -1 IRanGd=            0 ICorTp=0
  HFx wShort=  0.000000 wLong=  0.470000 cFull=  0.000000 cShort=  0.000000 cLong=  1.000000
  DFx wShort=  0.000000 wLong=  0.470000 cFull=  0.000000 cShort=  0.000000 cLong=  1.000000
 NAtoms=    5 NActive=    4 NUniq=    4 SFac= 1.00D+00 NAtFMM=   60 NAOKFM=F Big=F
 No density basis found on file   718.
 Leave Link  301 at Wed May 13 17:07:35 2020, MaxMem= 1073741824 cpu:       0.2
 (Enter /home/matheus/.gaussian/g09/l302.exe)
 NPDir=0 NMtPBC=     1 NCelOv=     1 NCel=       1 NClECP=     1 NCelD=      1
         NCelK=      1 NCelE2=     1 NClLst=     1 CellRange=     0.0.
 One-electron integrals computed using PRISM.
 NBasis=   138 RedAO= T  NBF=   138
 NBsUse=   138 1.00D-06 NBFU=   138
 Precomputing XC quadrature grid using
 IXCGrd= 2 IRadAn=           5 IRanWt=          -1 IRanGd=           0 AccXCQ= 0.00D+00.
 NRdTot=     344 NPtTot=       92556 NUsed=       95038 NTot=       95070
 NSgBfM=   160   160   160   160   160 NAtAll=     4     4.
 Leave Link  302 at Wed May 13 17:07:35 2020, MaxMem= 1073741824 cpu:       0.8
 (Enter /home/matheus/.gaussian/g09/l303.exe)
 DipDrv:  MaxL=1.
 Leave Link  303 at Wed May 13 17:07:35 2020, MaxMem= 1073741824 cpu:       0.2
 (Enter /home/matheus/.gaussian/g09/l401.exe)
 Initial guess read from the read-write file.
 Guess basis will be translated and rotated to current coordinates.
 Initial guess orbital symmetries:
       Occupied  (A) (A) (A) (A) (A) (A) (A) (A) (A)
       Virtual   (A) (A) (A) (A) (A) (A) (A) (A) (A) (A) (A) (A)
                 (A) (A) (A) (A) (A) (A) (A) (A) (A) (A) (A) (A)
                 (A) (A) (A) (A) (A) (A) (A) (A) (A) (A) (A) (A)
                 (A) (A) (A) (A) (A) (A) (A) (A) (A) (A) (A) (A)
                 (A) (A) (A) (A) (A) (A) (A) (A) (A) (A) (A) (A)
                 (A) (A) (A) (A) (A) (A) (A) (A) (A) (A) (A) (A)
                 (A) (A) (A) (A) (A) (A) (A) (A) (A) (A) (A) (A)
                 (A) (A) (A) (A) (A) (A) (A) (A) (A) (A) (A) (A)
                 (A) (A) (A) (A) (A) (A) (A) (A) (A) (A) (A) (A)
                 (A) (A) (A) (A) (A) (A) (A) (A) (A) (A) (A) (A)
                 (A) (A) (A) (A) (A) (A) (A) (A) (A)
 The electronic state of the initial guess is 1-A.
 Generating alternative initial guess.
 Harris functional with IExCor=10402 diagonalized for initial guess.
 ExpMin= 2.53D-02 ExpMax= 1.53D+04 ExpMxC= 5.22D+02 IAcc=3 IRadAn=         5 AccDes= 0.00D+00
 HarFok:  IExCor=10402 AccDes= 0.00D+00 IRadAn=         5 IDoV= 1
 ScaDFX=  1.000000  1.000000  1.000000  1.000000
 FoFCou: FMM=F IPFlag=           0 FMFlag=      100000 FMFlg1=           0
         NFxFlg=           0 DoJE=T BraDBF=F KetDBF=T FulRan=T
         Omega=  0.000000  0.000000  1.000000  0.000000  0.000000 ICntrl=     500 IOpCl=  0
         NMat0=    1 NMatS0=    1 NMatT0=    0 NMatD0=    1 NMtDS0=    0 NMtDT0=    0
         I1Cent=           4 NGrid=           0.
 Petite list used in FoFCou.
 Harris En= -147.163695972474    
 Leave Link  401 at Wed May 13 17:07:36 2020, MaxMem= 1073741824 cpu:       2.9
 (Enter /home/matheus/.gaussian/g09/l502.exe)
 Closed shell SCF:
 Requested convergence on RMS density matrix=1.00D-08 within 128 cycles.
 Requested convergence on MAX density matrix=1.00D-06.
 Requested convergence on             energy=1.00D-06.
 No special actions if energy rises.
 Using DIIS extrapolation, IDIIS=  1040.
 Integral symmetry usage will be decided dynamically.
        94980 words used for storage of precomputed grid.
 IEnd=      192360 IEndB=      192360 NGot=  1073741824 MDV=  1073591865
 LenX=  1073591865 LenY=  1073565824
 Fock matrices will be formed incrementally for  20 cycles.

 Cycle   1  Pass 1  IDiag  1:
 FoFJK:  IHMeth= 1 ICntrl=     0 DoSepK=T KAlg= 1 I1Cent= 0 FoldK=F
 FoFCou: FMM=F IPFlag=           0 FMFlag=      100000 FMFlg1=           0
         NFxFlg=           0 DoJE=T BraDBF=F KetDBF=F FulRan=T
         Omega=  0.000000  0.000000  1.000000  0.000000  0.000000 ICntrl=     500 IOpCl=  0
         NMat0=    1 NMatS0=    1 NMatT0=    0 NMatD0=    1 NMtDS0=    0 NMtDT0=    0
         I1Cent=           0 NGrid=           0.
 Symmetry not used in FoFCou.
 E= -151.325215202861    
 DIIS: error= 2.11D-05 at cycle   1 NSaved=   1.
 NSaved= 1 IEnMin= 1 EnMin= -151.325215202861     IErMin= 1 ErrMin= 2.11D-05
 ErrMax= 2.11D-05 EMaxC= 1.00D-01 BMatC= 4.59D-08 BMatP= 4.59D-08
 IDIUse=1 WtCom= 1.00D+00 WtEn= 0.00D+00
 Coeff-Com:  0.100D+01
 Coeff:      0.100D+01
 Gap=     0.442 Goal=   None    Shift=    0.000
 RMSDP=1.14D-06 MaxDP=1.79D-05              OVMax= 7.58D-05

 Cycle   2  Pass 1  IDiag  1:
 RMSU=  8.09D-07    CP:  1.00D+00
 FoFJK:  IHMeth= 1 ICntrl=     0 DoSepK=T KAlg= 1 I1Cent= 0 FoldK=F
 E= -151.325215245223     Delta-E=       -0.000000042362 Rises=F Damp=F
 DIIS: error= 3.99D-06 at cycle   2 NSaved=   2.
 NSaved= 2 IEnMin= 2 EnMin= -151.325215245223     IErMin= 2 ErrMin= 3.99D-06
 ErrMax= 3.99D-06 EMaxC= 1.00D-01 BMatC= 1.78D-09 BMatP= 4.59D-08
 IDIUse=1 WtCom= 1.00D+00 WtEn= 0.00D+00
 Coeff-Com: -0.132D+00 0.113D+01
 Coeff:     -0.132D+00 0.113D+01
 Gap=     0.442 Goal=   None    Shift=    0.000
 RMSDP=3.80D-07 MaxDP=6.32D-06 DE=-4.24D-08 OVMax= 3.33D-05

 Cycle   3  Pass 1  IDiag  1:
 RMSU=  1.51D-07    CP:  1.00D+00  1.27D+00
 FoFJK:  IHMeth= 1 ICntrl=     0 DoSepK=T KAlg= 1 I1Cent= 0 FoldK=F
 E= -151.325215249419     Delta-E=       -0.000000004196 Rises=F Damp=F
 DIIS: error= 1.12D-06 at cycle   3 NSaved=   3.
 NSaved= 3 IEnMin= 3 EnMin= -151.325215249419     IErMin= 3 ErrMin= 1.12D-06
 ErrMax= 1.12D-06 EMaxC= 1.00D-01 BMatC= 1.99D-10 BMatP= 1.78D-09
 IDIUse=1 WtCom= 1.00D+00 WtEn= 0.00D+00
 Coeff-Com: -0.186D-01-0.394D-01 0.106D+01
 Coeff:     -0.186D-01-0.394D-01 0.106D+01
 Gap=     0.442 Goal=   None    Shift=    0.000
 RMSDP=1.37D-07 MaxDP=3.02D-06 DE=-4.20D-09 OVMax= 1.16D-05

 Cycle   4  Pass 1  IDiag  1:
 RMSU=  5.88D-08    CP:  1.00D+00  1.34D+00  1.35D+00
 FoFJK:  IHMeth= 1 ICntrl=     0 DoSepK=T KAlg= 1 I1Cent= 0 FoldK=F
 E= -151.325215249795     Delta-E=       -0.000000000376 Rises=F Damp=F
 DIIS: error= 9.25D-07 at cycle   4 NSaved=   4.
 NSaved= 4 IEnMin= 4 EnMin= -151.325215249795     IErMin= 4 ErrMin= 9.25D-07
 ErrMax= 9.25D-07 EMaxC= 1.00D-01 BMatC= 1.59D-10 BMatP= 1.99D-10
 IDIUse=1 WtCom= 1.00D+00 WtEn= 0.00D+00
 Coeff-Com:  0.994D-02-0.202D+00 0.589D+00 0.602D+00
 Coeff:      0.994D-02-0.202D+00 0.589D+00 0.602D+00
 Gap=     0.442 Goal=   None    Shift=    0.000
 RMSDP=5.84D-08 MaxDP=1.52D-06 DE=-3.76D-10 OVMax= 3.94D-06

 Cycle   5  Pass 1  IDiag  1:
 RMSU=  2.02D-08    CP:  1.00D+00  1.36D+00  1.55D+00  7.49D-01
 FoFJK:  IHMeth= 1 ICntrl=     0 DoSepK=T KAlg= 1 I1Cent= 0 FoldK=F
 E= -151.325215249932     Delta-E=       -0.000000000137 Rises=F Damp=F
 DIIS: error= 2.23D-07 at cycle   5 NSaved=   5.
 NSaved= 5 IEnMin= 5 EnMin= -151.325215249932     IErMin= 5 ErrMin= 2.23D-07
 ErrMax= 2.23D-07 EMaxC= 1.00D-01 BMatC= 5.82D-12 BMatP= 1.59D-10
 IDIUse=1 WtCom= 1.00D+00 WtEn= 0.00D+00
 Coeff-Com:  0.415D-02-0.344D-01-0.323D-01 0.109D+00 0.954D+00
 Coeff:      0.415D-02-0.344D-01-0.323D-01 0.109D+00 0.954D+00
 Gap=     0.442 Goal=   None    Shift=    0.000
 RMSDP=2.33D-08 MaxDP=3.14D-07 DE=-1.37D-10 OVMax= 2.01D-06

 Cycle   6  Pass 1  IDiag  1:
 RMSU=  7.75D-09    CP:  1.00D+00  1.37D+00  1.61D+00  8.81D-01  1.29D+00
 FoFJK:  IHMeth= 1 ICntrl=     0 DoSepK=T KAlg= 1 I1Cent= 0 FoldK=F
 E= -151.325215249946     Delta-E=       -0.000000000014 Rises=F Damp=F
 DIIS: error= 8.28D-08 at cycle   6 NSaved=   6.
 NSaved= 6 IEnMin= 6 EnMin= -151.325215249946     IErMin= 6 ErrMin= 8.28D-08
 ErrMax= 8.28D-08 EMaxC= 1.00D-01 BMatC= 8.82D-13 BMatP= 5.82D-12
 IDIUse=1 WtCom= 1.00D+00 WtEn= 0.00D+00
 Coeff-Com:  0.841D-04 0.115D-01-0.651D-01-0.322D-01 0.241D+00 0.844D+00
 Coeff:      0.841D-04 0.115D-01-0.651D-01-0.322D-01 0.241D+00 0.844D+00
 Gap=     0.442 Goal=   None    Shift=    0.000
 RMSDP=8.77D-09 MaxDP=1.22D-07 DE=-1.40D-11 OVMax= 8.98D-07

 SCF Done:  E(RLC-B+HF-LYP) =  -151.325215250     A.U. after    6 cycles
             Convg  =    0.8774D-08             -V/T =  2.0058
 KE= 1.504581335293D+02 PE=-4.313898192260D+02 EE= 9.300062539784D+01
 Leave Link  502 at Wed May 13 17:07:42 2020, MaxMem= 1073741824 cpu:      54.7
 (Enter /home/matheus/.gaussian/g09/l122.exe)
 Restoring MOs from calculation   5 to rwf.
 Counterpoise: doing MCBS calculation for fragment   2
 Leave Link  122 at Wed May 13 17:07:42 2020, MaxMem= 1073741824 cpu:       0.0
 (Enter /home/matheus/.gaussian/g09/l301.exe)
 Basis read from rwf:  (5D, 7F)
 No pseudopotential information found on rwf file.
 There are    59 symmetry adapted basis functions of A   symmetry.
 Integral buffers will be    131072 words long.
 Raffenetti 2 integral format.
 Two-electron integral symmetry is turned on.
    59 basis functions,   217 primitive gaussians,    69 cartesian basis functions
    18 alpha electrons       18 beta electrons
       nuclear repulsion energy         0.0000000000 Hartrees.
 IExCor=10402 DFT=T Ex=LC-B+HF Corr=LYP ExCW=0 ScaHFX=  1.000000
 ScaDFX=  1.000000  1.000000  1.000000  1.000000 ScalE2=  1.000000  1.000000
 IRadAn=      5 IRanWt=     -1 IRanGd=            0 ICorTp=0
  HFx wShort=  0.000000 wLong=  0.470000 cFull=  0.000000 cShort=  0.000000 cLong=  1.000000
  DFx wShort=  0.000000 wLong=  0.470000 cFull=  0.000000 cShort=  0.000000 cLong=  1.000000
 NAtoms=    5 NActive=    1 NUniq=    1 SFac= 1.00D+00 NAtFMM=   60 NAOKFM=F Big=F
 No density basis found on file   718.
 Leave Link  301 at Wed May 13 17:07:42 2020, MaxMem= 1073741824 cpu:       0.2
 (Enter /home/matheus/.gaussian/g09/l302.exe)
 NPDir=0 NMtPBC=     1 NCelOv=     1 NCel=       1 NClECP=     1 NCelD=      1
         NCelK=      1 NCelE2=     1 NClLst=     1 CellRange=     0.0.
 One-electron integrals computed using PRISM.
 NBasis=    59 RedAO= T  NBF=    59
 NBsUse=    59 1.00D-06 NBFU=    59
 Precomputing XC quadrature grid using
 IXCGrd= 2 IRadAn=           5 IRanWt=          -1 IRanGd=           0 AccXCQ= 0.00D+00.
 NRdTot=      81 NPtTot=       30352 NUsed=       30981 NTot=       31013
 NSgBfM=    69    69    69    69    69 NAtAll=     1     1.
 Leave Link  302 at Wed May 13 17:07:43 2020, MaxMem= 1073741824 cpu:       0.8
 (Enter /home/matheus/.gaussian/g09/l303.exe)
 DipDrv:  MaxL=1.
 Leave Link  303 at Wed May 13 17:07:43 2020, MaxMem= 1073741824 cpu:       0.1
 (Enter /home/matheus/.gaussian/g09/l401.exe)
 Initial guess read from the read-write file.
 Guess basis will be translated and rotated to current coordinates.
 Initial guess orbital symmetries:
       Occupied  (A) (A) (A) (A) (A) (A) (A) (A) (A) (A) (A) (A)
                 (A) (A) (A) (A) (A) (A)
       Virtual   (A) (A) (A) (A) (A) (A) (A) (A) (A) (A) (A) (A)
                 (A) (A) (A) (A) (A) (A) (A) (A) (A) (A) (A) (A)
                 (A) (A) (A) (A) (A) (A) (A) (A) (A) (A) (A) (A)
                 (A) (A) (A) (A) (A)
 The electronic state of the initial guess is 1-A.
 Generating alternative initial guess.
 Harris functional with IExCor=10402 diagonalized for initial guess.
 ExpMin= 4.00D-02 ExpMax= 1.17D+07 ExpMxC= 1.33D+04 IAcc=3 IRadAn=         5 AccDes= 0.00D+00
 HarFok:  IExCor=10402 AccDes= 0.00D+00 IRadAn=         5 IDoV= 1
 ScaDFX=  1.000000  1.000000  1.000000  1.000000
 FoFCou: FMM=F IPFlag=           0 FMFlag=      100000 FMFlg1=           0
         NFxFlg=           0 DoJE=T BraDBF=F KetDBF=T FulRan=T
         Omega=  0.000000  0.000000  1.000000  0.000000  0.000000 ICntrl=     500 IOpCl=  0
         NMat0=    1 NMatS0=    1 NMatT0=    0 NMatD0=    1 NMtDS0=    0 NMtDT0=    0
         I1Cent=           4 NGrid=           0.
 Petite list used in FoFCou.
 Harris En= -2744.51485235229    
 Leave Link  401 at Wed May 13 17:07:43 2020, MaxMem= 1073741824 cpu:       1.1
 (Enter /home/matheus/.gaussian/g09/l502.exe)
 Closed shell SCF:
 Requested convergence on RMS density matrix=1.00D-08 within 128 cycles.
 Requested convergence on MAX density matrix=1.00D-06.
 Requested convergence on             energy=1.00D-06.
 No special actions if energy rises.
 Using DIIS extrapolation, IDIIS=  1040.
 Integral symmetry usage will be decided dynamically.
        30923 words used for storage of precomputed grid.
 IEnd=       64406 IEndB=       64406 NGot=  1073741824 MDV=  1073698889
 LenX=  1073698889 LenY=  1073693687
 Fock matrices will be formed incrementally for  20 cycles.

 Cycle   1  Pass 1  IDiag  1:
 FoFJK:  IHMeth= 1 ICntrl=     0 DoSepK=T KAlg= 1 I1Cent= 0 FoldK=F
 FoFCou: FMM=F IPFlag=           0 FMFlag=      100000 FMFlg1=           0
         NFxFlg=           0 DoJE=T BraDBF=F KetDBF=F FulRan=T
         Omega=  0.000000  0.000000  1.000000  0.000000  0.000000 ICntrl=     500 IOpCl=  0
         NMat0=    1 NMatS0=    1 NMatT0=    0 NMatD0=    1 NMtDS0=    0 NMtDT0=    0
         I1Cent=           0 NGrid=           0.
 Symmetry not used in FoFCou.
 E= -2753.41754223393    
 DIIS: error= 1.08D-13 at cycle   1 NSaved=   1.
 NSaved= 1 IEnMin= 1 EnMin= -2753.41754223393     IErMin= 1 ErrMin= 1.08D-13
 ErrMax= 1.08D-13 EMaxC= 1.00D-01 BMatC= 3.24D-25 BMatP= 3.24D-25
 IDIUse=1 WtCom= 1.00D+00 WtEn= 0.00D+00
 Coeff-Com:  0.100D+01
 Coeff:      0.100D+01
 Gap=     0.595 Goal=   None    Shift=    0.000
 DSYEVD returned Info=          89 IAlg= 4 N=    59 NDim=    59 NE2=    18198197 trying DSYEV.
 RMSDP=9.71D-15 MaxDP=2.09D-13              OVMax= 7.48D-14

 SCF Done:  E(RLC-B+HF-LYP) =  -2753.41754223     A.U. after    1 cycles
             Convg  =    0.9706D-14             -V/T =  2.0015
 KE= 2.749372504928D+03 PE=-6.578588569976D+03 EE= 1.075798522814D+03
 Leave Link  502 at Wed May 13 17:07:44 2020, MaxMem= 1073741824 cpu:      13.5
 (Enter /home/matheus/.gaussian/g09/l122.exe)
 Restoring MOs from calculation   1 to rwf.
 Counterpoise: corrected energy =   -2904.742838516878
 Counterpoise: BSSE energy =       0.000025263632
 Leave Link  122 at Wed May 13 17:07:44 2020, MaxMem= 1073741824 cpu:       0.0
 (Enter /home/matheus/.gaussian/g09/l108.exe)
 Scan completed.

 Summary of the potential surface scan:
   N      R1          SCF    
 ----  ---------  -----------
    1     3.0000  -2753.41754
    2     3.1000  -2753.41754
    3     3.2000  -2753.41754
    4     3.3000  -2753.41754
    5     3.4000  -2753.41754
    6     3.5000  -2753.41754
    7     3.6000  -2753.41754
    8     3.7000  -2753.41754
    9     3.8000  -2753.41754
   10     3.9000  -2753.41754
   11     4.0000  -2753.41754
   12     4.1000  -2753.41754
   13     4.2000  -2753.41754
   14     4.3000  -2753.41754
   15     4.4000  -2753.41754
   16     4.5000  -2753.41754
   17     4.6000  -2753.41754
   18     4.7000  -2753.41754
   19     4.8000  -2753.41754
   20     4.9000  -2753.41754
   21     5.0000  -2753.41754
 ----  ---------  -----------
  
 Leave Link  108 at Wed May 13 17:07:44 2020, MaxMem= 1073741824 cpu:       0.0
 (Enter /home/matheus/.gaussian/g09/l9999.exe)
 1\1\GINC-REDGIANT\Scan\RLC-BLYP\Aug-CC-pVTZ\H2Kr1O2\MATHEUS\13-May-202
 0\1\\#p lc-blyp/aug-cc-PVTz int=ultrafine counterpoise=2 Scan\\TCC\\0,
 1\O,0,0.,0.,0.725\O,0,0.,0.,-0.725\H,0,0.5905422151,-0.7037808064,1.02
 35104166\H,0,0.,0.9187205947,-1.0235104166\Kr,0,0.,R1,0.\\R1=3.,s,20,0
 .1\\Version=EM64L-G09RevC.01\State=1-A\HF=-2753.4175422,-2753.4175422,
 -2753.4175422,-2753.4175422,-2753.4175422,-2753.4175422,-2753.4175422,
 -2753.4175422,-2753.4175422,-2753.4175422,-2753.4175422,-2753.4175422,
 -2753.4175422,-2753.4175422,-2753.4175422,-2753.4175422,-2753.4175422,
 -2753.4175422,-2753.4175422,-2753.4175422,-2753.4175422\RMSD=1.334e-09
 ,5.265e-11,1.629e-11,9.948e-12,5.940e-12,3.610e-12,2.186e-12,1.319e-12
 ,7.962e-13,4.837e-13,2.917e-13,1.786e-13,1.096e-13,6.779e-14,4.180e-14
 ,2.868e-14,1.660e-14,7.973e-15,7.174e-15,8.668e-15,9.706e-15\PG=C01 [X
 (H2Kr1O2)]\\@


 WE HAVE LEARNED THAT NOTHING IS SIMPLE AND
 RATIONAL EXCEPT WHAT WE OURSELVES HAVE INVENTED;
 THAT GOD THINKS IN TERMS NEITHER OF EUCLID OR RIEMANN; THAT SCIENCE HAS "EXPLAINED" NOTHING;
 THAT THE MORE WE KNOW THE MORE FANTASTIC THE WORLD BECOMES
 AND THE PROFOUNDER THE SURROUNDING DARKNESS.
   --  ALDOUS HUXLEY
 Job cpu time:  0 days  3 hours 50 minutes 45.8 seconds.
 File lengths (MBytes):  RWF=     33 Int=      0 D2E=      0 Chk=      8 Scr=      1
 Normal termination of Gaussian 09 at Wed May 13 17:07:45 2020.
