 Entering Gaussian System, Link 0=g09
 Input=/home/matheus/.tcc/Inputs/Inputs-lc-blyp-default/H2O2-Kr_33.com
 Output=/home/matheus/.tcc/Logs/Logs-lc-blyp-default/H2O2-Kr_33.log
 Initial command:
 /home/matheus/.gaussian/g09/l1.exe /home/matheus/.gaussian/g09/scratch/Gau-23578.inp -scrdir=/home/matheus/.gaussian/g09/scratch/
 Entering Link 1 = /home/matheus/.gaussian/g09/l1.exe PID=     23582.
  
 Copyright (c) 1988,1990,1992,1993,1995,1998,2003,2009,2011,
            Gaussian, Inc.  All Rights Reserved.
  
 This is part of the Gaussian(R) 09 program.  It is based on
 the Gaussian(R) 03 system (copyright 2003, Gaussian, Inc.),
 the Gaussian(R) 98 system (copyright 1998, Gaussian, Inc.),
 the Gaussian(R) 94 system (copyright 1995, Gaussian, Inc.),
 the Gaussian 92(TM) system (copyright 1992, Gaussian, Inc.),
 the Gaussian 90(TM) system (copyright 1990, Gaussian, Inc.),
 the Gaussian 88(TM) system (copyright 1988, Gaussian, Inc.),
 the Gaussian 86(TM) system (copyright 1986, Carnegie Mellon
 University), and the Gaussian 82(TM) system (copyright 1983,
 Carnegie Mellon University). Gaussian is a federally registered
 trademark of Gaussian, Inc.
  
 This software contains proprietary and confidential information,
 including trade secrets, belonging to Gaussian, Inc.
  
 This software is provided under written license and may be
 used, copied, transmitted, or stored only in accord with that
 written license.
  
 The following legend is applicable only to US Government
 contracts under FAR:
  
                    RESTRICTED RIGHTS LEGEND
  
 Use, reproduction and disclosure by the US Government is
 subject to restrictions as set forth in subparagraphs (a)
 and (c) of the Commercial Computer Software - Restricted
 Rights clause in FAR 52.227-19.
  
 Gaussian, Inc.
 340 Quinnipiac St., Bldg. 40, Wallingford CT 06492
  
  
 ---------------------------------------------------------------
 Warning -- This program may not be used in any manner that
 competes with the business of Gaussian, Inc. or will provide
 assistance to any competitor of Gaussian, Inc.  The licensee
 of this program is prohibited from giving any competitor of
 Gaussian, Inc. access to this program.  By using this program,
 the user acknowledges that Gaussian, Inc. is engaged in the
 business of creating and licensing software in the field of
 computational chemistry and represents and warrants to the
 licensee that it is not a competitor of Gaussian, Inc. and that
 it will not use this program in any manner prohibited above.
 ---------------------------------------------------------------
  

 Cite this work as:
 Gaussian 09, Revision C.01,
 M. J. Frisch, G. W. Trucks, H. B. Schlegel, G. E. Scuseria, 
 M. A. Robb, J. R. Cheeseman, G. Scalmani, V. Barone, B. Mennucci, 
 G. A. Petersson, H. Nakatsuji, M. Caricato, X. Li, H. P. Hratchian, 
 A. F. Izmaylov, J. Bloino, G. Zheng, J. L. Sonnenberg, M. Hada, 
 M. Ehara, K. Toyota, R. Fukuda, J. Hasegawa, M. Ishida, T. Nakajima, 
 Y. Honda, O. Kitao, H. Nakai, T. Vreven, J. A. Montgomery, Jr., 
 J. E. Peralta, F. Ogliaro, M. Bearpark, J. J. Heyd, E. Brothers, 
 K. N. Kudin, V. N. Staroverov, T. Keith, R. Kobayashi, J. Normand, 
 K. Raghavachari, A. Rendell, J. C. Burant, S. S. Iyengar, J. Tomasi, 
 M. Cossi, N. Rega, J. M. Millam, M. Klene, J. E. Knox, J. B. Cross, 
 V. Bakken, C. Adamo, J. Jaramillo, R. Gomperts, R. E. Stratmann, 
 O. Yazyev, A. J. Austin, R. Cammi, C. Pomelli, J. W. Ochterski, 
 R. L. Martin, K. Morokuma, V. G. Zakrzewski, G. A. Voth, 
 P. Salvador, J. J. Dannenberg, S. Dapprich, A. D. Daniels, 
 O. Farkas, J. B. Foresman, J. V. Ortiz, J. Cioslowski, 
 and D. J. Fox, Gaussian, Inc., Wallingford CT, 2010.
 
 ******************************************
 Gaussian 09:  EM64L-G09RevC.01 23-Sep-2011
                14-May-2020 
 ******************************************
 %mem=8GB
 %nproc=8
 Will use up to    8 processors via shared memory.
 --------------------------------------------------------
 #p lc-blyp/aug-cc-PVTz int=ultrafine counterpoise=2 Scan
 --------------------------------------------------------
 1/38=1,60=1,62=2/1,8;
 2/12=2,17=6,18=5,29=3,40=1/2;
 1/38=1,53=5172,62=2/22;
 3/5=16,6=1,7=10,11=2,16=1,25=1,30=1,74=1000402,75=-5/1,2,3;
 4//1;
 5/5=2,38=5/2;
 6/7=2,8=2,9=2,10=2,18=1,28=1/1;
 1/53=4052,62=2,63=1/22;
 3/5=7,6=11,7=10,11=2,16=1,25=1,30=1,74=1000402,75=-5,82=7/1,2,3;
 4//1;
 5/5=2,38=5/2;
 6/7=2,8=2,9=2,10=2,18=1,28=1/1;
 1/53=3042,62=2,63=2/22;
 3/5=7,6=11,7=10,11=2,16=1,25=1,30=1,74=1000402,75=-5,82=7/1,2,3;
 4//1;
 5/5=2,38=5/2;
 6/7=2,8=2,9=2,10=2,18=1,28=1/1;
 1/53=2032,62=2,63=3/22;
 3/5=7,6=11,7=10,11=2,16=1,25=1,30=1,74=1000402,75=-5,82=7/1,2,3;
 4//1;
 5/5=2,38=5/2;
 6/7=2,8=2,9=2,10=2,18=1,28=1/1;
 1/53=1022,62=2,63=4/22;
 3/5=7,6=11,7=10,11=2,16=1,25=1,30=1,74=1000402,75=-5,82=7/1,2,3;
 4//1;
 5/5=2,38=5/2;
 6/7=2,8=2,9=2,10=2,18=1,28=1/1;
 1/53=5014,62=2,63=5/22;
 1/60=1,62=2/8(1);
 99/9=1/99;
 2/29=3/2;
 1/53=5173,62=2/22;
 3/5=7,6=11,7=10,11=2,16=1,25=1,30=1,74=1000402,75=-5,82=7/1,2,3;
 4/5=5,16=3/1;
 5/5=2,38=5/2;
 1/53=4053,62=2,63=1/22;
 3/5=7,6=11,7=10,11=2,16=1,25=1,30=1,74=1000402,75=-5,82=7/1,2,3;
 4/5=5,16=3/1;
 5/5=2,38=5/2;
 1/53=3043,62=2,63=2/22;
 3/5=7,6=11,7=10,11=2,16=1,25=1,30=1,74=1000402,75=-5,82=7/1,2,3;
 4/5=5,16=3/1;
 5/5=2,38=5/2;
 1/53=2033,62=2,63=3/22;
 3/5=7,6=11,7=10,11=2,16=1,25=1,30=1,74=1000402,75=-5,82=7/1,2,3;
 4/5=5,16=3/1;
 5/5=2,38=5/2;
 1/53=1024,62=2,63=4/22;
 3/5=7,6=11,7=10,11=2,16=1,25=1,30=1,74=1000402,75=-5,82=7/1,2,3;
 4/5=5,16=3/1;
 5/5=2,38=5/2;
 1/53=5014,62=2,63=5/22;
 1/60=1,62=2/8(-22);
 99/9=1/99;
 Leave Link    1 at Thu May 14 00:54:32 2020, MaxMem= 1073741824 cpu:       0.2
 (Enter /home/matheus/.gaussian/g09/l101.exe)
 ---
 TCC
 ---
 Charge =  0 Multiplicity = 1 in supermolecule
 Charge =  0 Multiplicity = 1 in fragment  1.
 Charge =  0 Multiplicity = 1 in fragment  2.
 Symbolic Z-Matrix:
 O(Fragment=1)         0.        0.        0.725 
 O(Fragment=1)         0.        0.       -0.725 
 H(Fragment=1)        -0.45936   0.79564   1.02351 
 H(Fragment=1)         0.        0.91872  -1.02351 
 Kr(Fragment=2)        0.       R1        0. 
       Variables:
  R1                    3.     Scan 20    0.1    
 
 NAtoms=      5 NQM=        0 NQMF=       0 NMMI=      5 NMMIF=      0
                NMic=       0 NMicF=      0.
                    Isotopes and Nuclear Properties:
 (Nuclear quadrupole moments (NQMom) in fm**2, nuclear magnetic moments (NMagM)
  in nuclear magnetons)

  Atom         1           2           3           4           5
 IAtWgt=          16          16           1           1          84
 AtmWgt=  15.9949146  15.9949146   1.0078250   1.0078250  83.9115064
 NucSpn=           0           0           1           1           0
 AtZEff=   0.0000000   0.0000000   0.0000000   0.0000000   0.0000000
 NQMom=    0.0000000   0.0000000   0.0000000   0.0000000   0.0000000
 NMagM=    0.0000000   0.0000000   2.7928460   2.7928460   0.0000000
 Leave Link  101 at Thu May 14 00:54:32 2020, MaxMem= 1073741824 cpu:       0.3
 (Enter /home/matheus/.gaussian/g09/l108.exe)
 Scan the potential surface.
 Variable   Value     No. Steps Step-Size
 -------- ----------- --------- ---------
     1       3.000000      20      0.1000
 A total of     21 points will be computed.
 Leave Link  108 at Thu May 14 00:54:32 2020, MaxMem= 1073741824 cpu:       0.0
 (Enter /home/matheus/.gaussian/g09/l202.exe)
 ---------------------------------------------------------------------------------------------------
                            Z-MATRIX (ANGSTROMS AND DEGREES)
   CD    Cent   Atom    N1       Length/X        N2       Alpha/Y        N3        Beta/Z          J
 ---------------------------------------------------------------------------------------------------
      1      1  O        0   0.000000          0.000000          0.725000
      2      2  O        0   0.000000          0.000000         -0.725000
      3      3  H        0  -0.459360          0.795635          1.023510
      4      4  H        0   0.000000          0.918721         -1.023510
      5      5  Kr       0   0.000000          3.000000          0.000000
 ---------------------------------------------------------------------------------------------------
                         Z-Matrix orientation:                         
 ---------------------------------------------------------------------
 Center     Atomic      Atomic             Coordinates (Angstroms)
 Number     Number       Type             X           Y           Z
 ---------------------------------------------------------------------
      1          8           0        0.000000    0.000000    0.725000
      2          8           0        0.000000    0.000000   -0.725000
      3          1           0       -0.459360    0.795635    1.023510
      4          1           0        0.000000    0.918721   -1.023510
      5         36           0        0.000000    3.000000    0.000000
 ---------------------------------------------------------------------
                    Distance matrix (angstroms):
                    1          2          3          4          5
     1  O    0.000000
     2  O    1.450000   0.000000
     3  H    0.966000   1.975180   0.000000
     4  H    1.975180   0.966000   2.101537   0.000000
     5  Kr   3.086361   3.086361   2.473420   2.319331   0.000000
 Stoichiometry    H2KrO2
 Framework group  C1[X(H2KrO2)]
 Deg. of freedom     9
 Full point group                 C1      NOp   1
 Largest Abelian subgroup         C1      NOp   1
 Largest concise Abelian subgroup C1      NOp   1
                         Standard orientation:                         
 ---------------------------------------------------------------------
 Center     Atomic      Atomic             Coordinates (Angstroms)
 Number     Number       Type             X           Y           Z
 ---------------------------------------------------------------------
      1          8           0       -2.032679   -0.720517   -0.052579
      2          8           0       -2.030654    0.727985    0.013298
      3          1           0       -1.240025   -1.040895    0.397102
      4          1           0       -1.111532    1.024673    0.031898
      5         36           0        0.968284   -0.001209   -0.003188
 ---------------------------------------------------------------------
 Rotational constants (GHZ):     26.4110984      2.3830252      2.1895357
 Leave Link  202 at Thu May 14 00:54:32 2020, MaxMem= 1073741824 cpu:       0.0
 (Enter /home/matheus/.gaussian/g09/l122.exe)
 Leave Link  122 at Thu May 14 00:54:32 2020, MaxMem= 1073741824 cpu:       0.0
 (Enter /home/matheus/.gaussian/g09/l301.exe)
 Standard basis: Aug-CC-pVTZ (5D, 7F)
 Ernie: Thresh=  0.10000D-02 Tol=  0.10000D-05 Strict=F.
 Ernie:  38 primitive shells out of 205 were deleted.
 There are   197 symmetry adapted basis functions of A   symmetry.
 Integral buffers will be    131072 words long.
 Raffenetti 2 integral format.
 Two-electron integral symmetry is turned on.
   197 basis functions,   415 primitive gaussians,   229 cartesian basis functions
    27 alpha electrons       27 beta electrons
       nuclear repulsion energy       151.3348661682 Hartrees.
 IExCor=10402 DFT=T Ex=LC-B+HF Corr=LYP ExCW=0 ScaHFX=  1.000000
 ScaDFX=  1.000000  1.000000  1.000000  1.000000 ScalE2=  1.000000  1.000000
 IRadAn=      5 IRanWt=     -1 IRanGd=            0 ICorTp=0
  HFx wShort=  0.000000 wLong=  0.470000 cFull=  0.000000 cShort=  0.000000 cLong=  1.000000
  DFx wShort=  0.000000 wLong=  0.470000 cFull=  0.000000 cShort=  0.000000 cLong=  1.000000
 NAtoms=    5 NActive=    5 NUniq=    5 SFac= 1.00D+00 NAtFMM=   60 NAOKFM=F Big=F
 Leave Link  301 at Thu May 14 00:54:32 2020, MaxMem= 1073741824 cpu:       0.2
 (Enter /home/matheus/.gaussian/g09/l302.exe)
 NPDir=0 NMtPBC=     1 NCelOv=     1 NCel=       1 NClECP=     1 NCelD=      1
         NCelK=      1 NCelE2=     1 NClLst=     1 CellRange=     0.0.
 One-electron integrals computed using PRISM.
 NBasis=   197 RedAO= T  NBF=   197
 NBsUse=   197 1.00D-06 NBFU=   197
 Precomputing XC quadrature grid using
 IXCGrd= 2 IRadAn=           5 IRanWt=          -1 IRanGd=           0 AccXCQ= 0.00D+00.
 NRdTot=     427 NPtTot=      123512 NUsed=      126579 NTot=      126611
 NSgBfM=   229   229   229   229   229 NAtAll=     5     5.
 Leave Link  302 at Thu May 14 00:54:32 2020, MaxMem= 1073741824 cpu:       1.0
 (Enter /home/matheus/.gaussian/g09/l303.exe)
 DipDrv:  MaxL=1.
 Leave Link  303 at Thu May 14 00:54:32 2020, MaxMem= 1073741824 cpu:       0.2
 (Enter /home/matheus/.gaussian/g09/l401.exe)
 Harris functional with IExCor=10402 diagonalized for initial guess.
 ExpMin= 2.53D-02 ExpMax= 1.17D+07 ExpMxC= 1.33D+04 IAcc=3 IRadAn=         5 AccDes= 0.00D+00
 HarFok:  IExCor=10402 AccDes= 0.00D+00 IRadAn=         5 IDoV= 1
 ScaDFX=  1.000000  1.000000  1.000000  1.000000
 FoFCou: FMM=F IPFlag=           0 FMFlag=      100000 FMFlg1=           0
         NFxFlg=           0 DoJE=T BraDBF=F KetDBF=T FulRan=T
         Omega=  0.000000  0.000000  1.000000  0.000000  0.000000 ICntrl=     500 IOpCl=  0
         NMat0=    1 NMatS0=    1 NMatT0=    0 NMatD0=    1 NMtDS0=    0 NMtDT0=    0
         I1Cent=           4 NGrid=           0.
 Petite list used in FoFCou.
 Harris En= -2891.66527281511    
 Initial guess orbital symmetries:
       Occupied  (A) (A) (A) (A) (A) (A) (A) (A) (A) (A) (A) (A)
                 (A) (A) (A) (A) (A) (A) (A) (A) (A) (A) (A) (A)
                 (A) (A) (A)
       Virtual   (A) (A) (A) (A) (A) (A) (A) (A) (A) (A) (A) (A)
                 (A) (A) (A) (A) (A) (A) (A) (A) (A) (A) (A) (A)
                 (A) (A) (A) (A) (A) (A) (A) (A) (A) (A) (A) (A)
                 (A) (A) (A) (A) (A) (A) (A) (A) (A) (A) (A) (A)
                 (A) (A) (A) (A) (A) (A) (A) (A) (A) (A) (A) (A)
                 (A) (A) (A) (A) (A) (A) (A) (A) (A) (A) (A) (A)
                 (A) (A) (A) (A) (A) (A) (A) (A) (A) (A) (A) (A)
                 (A) (A) (A) (A) (A) (A) (A) (A) (A) (A) (A) (A)
                 (A) (A) (A) (A) (A) (A) (A) (A) (A) (A) (A) (A)
                 (A) (A) (A) (A) (A) (A) (A) (A) (A) (A) (A) (A)
                 (A) (A) (A) (A) (A) (A) (A) (A) (A) (A) (A) (A)
                 (A) (A) (A) (A) (A) (A) (A) (A) (A) (A) (A) (A)
                 (A) (A) (A) (A) (A) (A) (A) (A) (A) (A) (A) (A)
                 (A) (A) (A) (A) (A) (A) (A) (A) (A) (A) (A) (A)
                 (A) (A)
 The electronic state of the initial guess is 1-A.
 Leave Link  401 at Thu May 14 00:54:32 2020, MaxMem= 1073741824 cpu:       4.0
 (Enter /home/matheus/.gaussian/g09/l502.exe)
 Closed shell SCF:
 Requested convergence on RMS density matrix=1.00D-08 within 128 cycles.
 Requested convergence on MAX density matrix=1.00D-06.
 Requested convergence on             energy=1.00D-06.
 No special actions if energy rises.
 Using DIIS extrapolation, IDIIS=  1040.
 Integral symmetry usage will be decided dynamically.
       126521 words used for storage of precomputed grid.
 IEnd=      305468 IEndB=      305468 NGot=  1073741824 MDV=  1073505667
 LenX=  1073505667 LenY=  1073452785
 Fock matrices will be formed incrementally for  20 cycles.

 Cycle   1  Pass 1  IDiag  1:
 FoFJK:  IHMeth= 1 ICntrl=     0 DoSepK=T KAlg= 1 I1Cent= 0 FoldK=F
 FoFCou: FMM=F IPFlag=           0 FMFlag=      100000 FMFlg1=           0
         NFxFlg=           0 DoJE=T BraDBF=F KetDBF=F FulRan=T
         Omega=  0.000000  0.000000  1.000000  0.000000  0.000000 ICntrl=     500 IOpCl=  0
         NMat0=    1 NMatS0=    1 NMatT0=    0 NMatD0=    1 NMtDS0=    0 NMtDT0=    0
         I1Cent=           0 NGrid=           0.
 Symmetry not used in FoFCou.
 E= -2904.62201651000    
 DIIS: error= 3.04D-02 at cycle   1 NSaved=   1.
 NSaved= 1 IEnMin= 1 EnMin= -2904.62201651000     IErMin= 1 ErrMin= 3.04D-02
 ErrMax= 3.04D-02 EMaxC= 1.00D-01 BMatC= 2.92D-01 BMatP= 2.92D-01
 IDIUse=3 WtCom= 6.96D-01 WtEn= 3.04D-01
 Coeff-Com:  0.100D+01
 Coeff-En:   0.100D+01
 Coeff:      0.100D+01
 Gap=     0.464 Goal=   None    Shift=    0.000
 GapD=    0.464 DampG=2.000 DampE=0.500 DampFc=1.0000 IDamp=-1.
 RMSDP=2.71D-03 MaxDP=1.57D-01              OVMax= 1.12D-01

 Cycle   2  Pass 1  IDiag  1:
 RMSU=  1.87D-03    CP:  1.02D+00
 FoFJK:  IHMeth= 1 ICntrl=     0 DoSepK=T KAlg= 1 I1Cent= 0 FoldK=F
 E= -2904.70274960874     Delta-E=       -0.080733098742 Rises=F Damp=F
 DIIS: error= 1.39D-02 at cycle   2 NSaved=   2.
 NSaved= 2 IEnMin= 2 EnMin= -2904.70274960874     IErMin= 2 ErrMin= 1.39D-02
 ErrMax= 1.39D-02 EMaxC= 1.00D-01 BMatC= 9.58D-02 BMatP= 2.92D-01
 IDIUse=3 WtCom= 8.61D-01 WtEn= 1.39D-01
 Coeff-Com:  0.360D+00 0.640D+00
 Coeff-En:   0.212D-01 0.979D+00
 Coeff:      0.312D+00 0.688D+00
 Gap=     0.433 Goal=   None    Shift=    0.000
 RMSDP=1.05D-03 MaxDP=6.47D-02 DE=-8.07D-02 OVMax= 3.18D-02

 Cycle   3  Pass 1  IDiag  1:
 RMSU=  3.41D-04    CP:  1.01D+00  6.58D-01
 FoFJK:  IHMeth= 1 ICntrl=     0 DoSepK=T KAlg= 1 I1Cent= 0 FoldK=F
 E= -2904.73447647770     Delta-E=       -0.031726868963 Rises=F Damp=F
 DIIS: error= 1.53D-03 at cycle   3 NSaved=   3.
 NSaved= 3 IEnMin= 3 EnMin= -2904.73447647770     IErMin= 3 ErrMin= 1.53D-03
 ErrMax= 1.53D-03 EMaxC= 1.00D-01 BMatC= 1.27D-03 BMatP= 9.58D-02
 IDIUse=3 WtCom= 9.85D-01 WtEn= 1.53D-02
 Coeff-Com:  0.593D-03 0.969D-01 0.902D+00
 Coeff-En:   0.000D+00 0.000D+00 0.100D+01
 Coeff:      0.584D-03 0.954D-01 0.904D+00
 Gap=     0.435 Goal=   None    Shift=    0.000
 RMSDP=1.60D-04 MaxDP=6.96D-03 DE=-3.17D-02 OVMax= 6.71D-03

 Cycle   4  Pass 1  IDiag  1:
 RMSU=  6.88D-05    CP:  1.02D+00  7.02D-01  1.10D+00
 FoFJK:  IHMeth= 1 ICntrl=     0 DoSepK=T KAlg= 1 I1Cent= 0 FoldK=F
 E= -2904.73498864642     Delta-E=       -0.000512168713 Rises=F Damp=F
 DIIS: error= 4.22D-04 at cycle   4 NSaved=   4.
 NSaved= 4 IEnMin= 4 EnMin= -2904.73498864642     IErMin= 4 ErrMin= 4.22D-04
 ErrMax= 4.22D-04 EMaxC= 1.00D-01 BMatC= 4.96D-05 BMatP= 1.27D-03
 IDIUse=3 WtCom= 9.96D-01 WtEn= 4.22D-03
 Coeff-Com: -0.114D-01 0.705D-02 0.239D+00 0.766D+00
 Coeff-En:   0.000D+00 0.000D+00 0.000D+00 0.100D+01
 Coeff:     -0.114D-01 0.702D-02 0.238D+00 0.767D+00
 Gap=     0.432 Goal=   None    Shift=    0.000
 RMSDP=3.65D-05 MaxDP=1.22D-03 DE=-5.12D-04 OVMax= 1.63D-03

 Cycle   5  Pass 1  IDiag  1:
 RMSU=  1.98D-05    CP:  1.02D+00  7.05D-01  1.15D+00  1.02D+00
 FoFJK:  IHMeth= 1 ICntrl=     0 DoSepK=T KAlg= 1 I1Cent= 0 FoldK=F
 E= -2904.73502479771     Delta-E=       -0.000036151290 Rises=F Damp=F
 DIIS: error= 1.56D-04 at cycle   5 NSaved=   5.
 NSaved= 5 IEnMin= 5 EnMin= -2904.73502479771     IErMin= 5 ErrMin= 1.56D-04
 ErrMax= 1.56D-04 EMaxC= 1.00D-01 BMatC= 7.50D-06 BMatP= 4.96D-05
 IDIUse=3 WtCom= 9.98D-01 WtEn= 1.56D-03
 Coeff-Com: -0.301D-02-0.585D-02-0.119D-01 0.261D+00 0.759D+00
 Coeff-En:   0.000D+00 0.000D+00 0.000D+00 0.000D+00 0.100D+01
 Coeff:     -0.301D-02-0.584D-02-0.119D-01 0.261D+00 0.760D+00
 Gap=     0.433 Goal=   None    Shift=    0.000
 RMSDP=1.47D-05 MaxDP=4.86D-04 DE=-3.62D-05 OVMax= 1.01D-03

 Cycle   6  Pass 1  IDiag  1:
 RMSU=  6.02D-06    CP:  1.02D+00  7.06D-01  1.16D+00  1.11D+00  9.80D-01
 FoFJK:  IHMeth= 1 ICntrl=     0 DoSepK=T KAlg= 1 I1Cent= 0 FoldK=F
 E= -2904.73503103072     Delta-E=       -0.000006233018 Rises=F Damp=F
 DIIS: error= 4.27D-05 at cycle   6 NSaved=   6.
 NSaved= 6 IEnMin= 6 EnMin= -2904.73503103072     IErMin= 6 ErrMin= 4.27D-05
 ErrMax= 4.27D-05 EMaxC= 1.00D-01 BMatC= 7.58D-07 BMatP= 7.50D-06
 IDIUse=1 WtCom= 1.00D+00 WtEn= 0.00D+00
 Coeff-Com: -0.249D-03-0.306D-02-0.218D-01 0.142D-01 0.241D+00 0.770D+00
 Coeff:     -0.249D-03-0.306D-02-0.218D-01 0.142D-01 0.241D+00 0.770D+00
 Gap=     0.433 Goal=   None    Shift=    0.000
 RMSDP=5.32D-06 MaxDP=1.73D-04 DE=-6.23D-06 OVMax= 2.94D-04

 Cycle   7  Pass 1  IDiag  1:
 RMSU=  1.99D-06    CP:  1.02D+00  7.06D-01  1.17D+00  1.14D+00  1.07D+00
                    CP:  1.08D+00
 FoFJK:  IHMeth= 1 ICntrl=     0 DoSepK=T KAlg= 1 I1Cent= 0 FoldK=F
 E= -2904.73503159725     Delta-E=       -0.000000566525 Rises=F Damp=F
 DIIS: error= 2.74D-05 at cycle   7 NSaved=   7.
 NSaved= 7 IEnMin= 7 EnMin= -2904.73503159725     IErMin= 7 ErrMin= 2.74D-05
 ErrMax= 2.74D-05 EMaxC= 1.00D-01 BMatC= 2.01D-07 BMatP= 7.58D-07
 IDIUse=1 WtCom= 1.00D+00 WtEn= 0.00D+00
 Coeff-Com:  0.110D-03-0.125D-02-0.104D-01-0.228D-01 0.380D-01 0.396D+00
 Coeff-Com:  0.600D+00
 Coeff:      0.110D-03-0.125D-02-0.104D-01-0.228D-01 0.380D-01 0.396D+00
 Coeff:      0.600D+00
 Gap=     0.433 Goal=   None    Shift=    0.000
 RMSDP=1.64D-06 MaxDP=4.22D-05 DE=-5.67D-07 OVMax= 8.71D-05

 Cycle   8  Pass 1  IDiag  1:
 RMSU=  6.20D-07    CP:  1.02D+00  7.06D-01  1.17D+00  1.14D+00  1.10D+00
                    CP:  1.17D+00  8.47D-01
 FoFJK:  IHMeth= 1 ICntrl=     0 DoSepK=T KAlg= 1 I1Cent= 0 FoldK=F
 E= -2904.73503173830     Delta-E=       -0.000000141054 Rises=F Damp=F
 DIIS: error= 3.77D-06 at cycle   8 NSaved=   8.
 NSaved= 8 IEnMin= 8 EnMin= -2904.73503173830     IErMin= 8 ErrMin= 3.77D-06
 ErrMax= 3.77D-06 EMaxC= 1.00D-01 BMatC= 3.36D-09 BMatP= 2.01D-07
 IDIUse=1 WtCom= 1.00D+00 WtEn= 0.00D+00
 Coeff-Com:  0.222D-04 0.190D-03 0.151D-02-0.224D-02-0.208D-01-0.523D-01
 Coeff-Com:  0.309D-01 0.104D+01
 Coeff:      0.222D-04 0.190D-03 0.151D-02-0.224D-02-0.208D-01-0.523D-01
 Coeff:      0.309D-01 0.104D+01
 Gap=     0.433 Goal=   None    Shift=    0.000
 RMSDP=6.03D-07 MaxDP=1.62D-05 DE=-1.41D-07 OVMax= 4.39D-05

 Cycle   9  Pass 1  IDiag  1:
 RMSU=  1.63D-07    CP:  1.02D+00  7.06D-01  1.17D+00  1.15D+00  1.11D+00
                    CP:  1.20D+00  9.33D-01  1.26D+00
 FoFJK:  IHMeth= 1 ICntrl=     0 DoSepK=T KAlg= 1 I1Cent= 0 FoldK=F
 E= -2904.73503174512     Delta-E=       -0.000000006818 Rises=F Damp=F
 DIIS: error= 8.69D-07 at cycle   9 NSaved=   9.
 NSaved= 9 IEnMin= 9 EnMin= -2904.73503174512     IErMin= 9 ErrMin= 8.69D-07
 ErrMax= 8.69D-07 EMaxC= 1.00D-01 BMatC= 2.32D-10 BMatP= 3.36D-09
 IDIUse=1 WtCom= 1.00D+00 WtEn= 0.00D+00
 Coeff-Com: -0.296D-05 0.131D-03 0.869D-03 0.166D-02-0.405D-02-0.342D-01
 Coeff-Com: -0.424D-01 0.993D-01 0.979D+00
 Coeff:     -0.296D-05 0.131D-03 0.869D-03 0.166D-02-0.405D-02-0.342D-01
 Coeff:     -0.424D-01 0.993D-01 0.979D+00
 Gap=     0.433 Goal=   None    Shift=    0.000
 RMSDP=1.37D-07 MaxDP=2.70D-06 DE=-6.82D-09 OVMax= 8.80D-06

 Cycle  10  Pass 1  IDiag  1:
 RMSU=  4.44D-08    CP:  1.02D+00  7.06D-01  1.17D+00  1.15D+00  1.11D+00
                    CP:  1.20D+00  9.48D-01  1.35D+00  1.17D+00
 FoFJK:  IHMeth= 1 ICntrl=     0 DoSepK=T KAlg= 1 I1Cent= 0 FoldK=F
 E= -2904.73503174559     Delta-E=       -0.000000000467 Rises=F Damp=F
 DIIS: error= 2.54D-07 at cycle  10 NSaved=  10.
 NSaved=10 IEnMin=10 EnMin= -2904.73503174559     IErMin=10 ErrMin= 2.54D-07
 ErrMax= 2.54D-07 EMaxC= 1.00D-01 BMatC= 8.92D-12 BMatP= 2.32D-10
 IDIUse=1 WtCom= 1.00D+00 WtEn= 0.00D+00
 Coeff-Com: -0.333D-06-0.647D-05-0.715D-04 0.124D-03 0.984D-03 0.264D-02
 Coeff-Com: -0.135D-02-0.540D-01 0.136D-01 0.104D+01
 Coeff:     -0.333D-06-0.647D-05-0.715D-04 0.124D-03 0.984D-03 0.264D-02
 Coeff:     -0.135D-02-0.540D-01 0.136D-01 0.104D+01
 Gap=     0.433 Goal=   None    Shift=    0.000
 RMSDP=3.24D-08 MaxDP=6.85D-07 DE=-4.67D-10 OVMax= 2.58D-06

 Cycle  11  Pass 1  IDiag  1:
 RMSU=  1.33D-08    CP:  1.02D+00  7.06D-01  1.17D+00  1.15D+00  1.11D+00
                    CP:  1.20D+00  9.48D-01  1.36D+00  1.24D+00  1.25D+00
 FoFJK:  IHMeth= 1 ICntrl=     0 DoSepK=T KAlg= 1 I1Cent= 0 FoldK=F
 E= -2904.73503174562     Delta-E=       -0.000000000036 Rises=F Damp=F
 DIIS: error= 1.21D-07 at cycle  11 NSaved=  11.
 NSaved=11 IEnMin=11 EnMin= -2904.73503174562     IErMin=11 ErrMin= 1.21D-07
 ErrMax= 1.21D-07 EMaxC= 1.00D-01 BMatC= 1.07D-12 BMatP= 8.92D-12
 IDIUse=1 WtCom= 1.00D+00 WtEn= 0.00D+00
 Coeff-Com: -0.313D-06-0.112D-04-0.598D-04-0.117D-03 0.164D-03 0.223D-02
 Coeff-Com:  0.349D-02-0.198D-02-0.701D-01-0.136D+00 0.120D+01
 Coeff:     -0.313D-06-0.112D-04-0.598D-04-0.117D-03 0.164D-03 0.223D-02
 Coeff:      0.349D-02-0.198D-02-0.701D-01-0.136D+00 0.120D+01
 Gap=     0.433 Goal=   None    Shift=    0.000
 RMSDP=1.37D-08 MaxDP=3.02D-07 DE=-3.59D-11 OVMax= 1.44D-06

 Cycle  12  Pass 1  IDiag  1:
 RMSU=  3.55D-09    CP:  1.02D+00  7.06D-01  1.17D+00  1.15D+00  1.11D+00
                    CP:  1.20D+00  9.48D-01  1.36D+00  1.24D+00  1.36D+00
                    CP:  1.48D+00
 FoFJK:  IHMeth= 1 ICntrl=     0 DoSepK=T KAlg= 1 I1Cent= 0 FoldK=F
 E= -2904.73503174562     Delta-E=        0.000000000000 Rises=F Damp=F
 DIIS: error= 4.62D-08 at cycle  12 NSaved=  12.
 NSaved=12 IEnMin=12 EnMin= -2904.73503174562     IErMin=12 ErrMin= 4.62D-08
 ErrMax= 4.62D-08 EMaxC= 1.00D-01 BMatC= 1.12D-13 BMatP= 1.07D-12
 IDIUse=1 WtCom= 1.00D+00 WtEn= 0.00D+00
 Coeff-Com:  0.131D-06 0.313D-05 0.197D-04 0.116D-04-0.137D-03-0.745D-03
 Coeff-Com: -0.508D-03 0.636D-02 0.119D-01-0.897D-01-0.189D+00 0.126D+01
 Coeff:      0.131D-06 0.313D-05 0.197D-04 0.116D-04-0.137D-03-0.745D-03
 Coeff:     -0.508D-03 0.636D-02 0.119D-01-0.897D-01-0.189D+00 0.126D+01
 Gap=     0.433 Goal=   None    Shift=    0.000
 RMSDP=5.53D-09 MaxDP=1.35D-07 DE=-4.55D-13 OVMax= 7.11D-07

 SCF Done:  E(RLC-B+HF-LYP) =  -2904.73503175     A.U. after   12 cycles
             Convg  =    0.5535D-08             -V/T =  2.0017
 KE= 2.899850085668D+03 PE=-7.238132734608D+03 EE= 1.282212751026D+03
 Leave Link  502 at Thu May 14 00:55:10 2020, MaxMem= 1073741824 cpu:     303.7
 (Enter /home/matheus/.gaussian/g09/l601.exe)
 Copying SCF densities to generalized density rwf, IOpCl= 0 IROHF=0.

 **********************************************************************

            Population analysis using the SCF density.

 **********************************************************************

 Orbital symmetries:
       Occupied  (A) (A) (A) (A) (A) (A) (A) (A) (A) (A) (A) (A)
                 (A) (A) (A) (A) (A) (A) (A) (A) (A) (A) (A) (A)
                 (A) (A) (A)
       Virtual   (A) (A) (A) (A) (A) (A) (A) (A) (A) (A) (A) (A)
                 (A) (A) (A) (A) (A) (A) (A) (A) (A) (A) (A) (A)
                 (A) (A) (A) (A) (A) (A) (A) (A) (A) (A) (A) (A)
                 (A) (A) (A) (A) (A) (A) (A) (A) (A) (A) (A) (A)
                 (A) (A) (A) (A) (A) (A) (A) (A) (A) (A) (A) (A)
                 (A) (A) (A) (A) (A) (A) (A) (A) (A) (A) (A) (A)
                 (A) (A) (A) (A) (A) (A) (A) (A) (A) (A) (A) (A)
                 (A) (A) (A) (A) (A) (A) (A) (A) (A) (A) (A) (A)
                 (A) (A) (A) (A) (A) (A) (A) (A) (A) (A) (A) (A)
                 (A) (A) (A) (A) (A) (A) (A) (A) (A) (A) (A) (A)
                 (A) (A) (A) (A) (A) (A) (A) (A) (A) (A) (A) (A)
                 (A) (A) (A) (A) (A) (A) (A) (A) (A) (A) (A) (A)
                 (A) (A) (A) (A) (A) (A) (A) (A) (A) (A) (A) (A)
                 (A) (A) (A) (A) (A) (A) (A) (A) (A) (A) (A) (A)
                 (A) (A)
 The electronic state is 1-A.
 Alpha  occ. eigenvalues -- -511.28045 -66.75032 -60.43562 -60.43553 -60.43541
 Alpha  occ. eigenvalues --  -19.07032 -19.06892  -9.64177  -7.39658  -7.39633
 Alpha  occ. eigenvalues --   -7.39597  -3.35996  -3.35993  -3.35965  -3.35946
 Alpha  occ. eigenvalues --   -3.35942  -1.28455  -1.09972  -1.06073  -0.72941
 Alpha  occ. eigenvalues --   -0.58611  -0.57869  -0.55498  -0.54668  -0.53708
 Alpha  occ. eigenvalues --   -0.50222  -0.40931
 Alpha virt. eigenvalues --    0.02399   0.03686   0.07396   0.08222   0.09622
 Alpha virt. eigenvalues --    0.11026   0.11857   0.14405   0.16206   0.17040
 Alpha virt. eigenvalues --    0.17161   0.18498   0.19593   0.20765   0.22536
 Alpha virt. eigenvalues --    0.23213   0.23884   0.26914   0.30111   0.32740
 Alpha virt. eigenvalues --    0.33405   0.34935   0.37099   0.37706   0.39119
 Alpha virt. eigenvalues --    0.41713   0.43507   0.47246   0.52102   0.53290
 Alpha virt. eigenvalues --    0.58287   0.60212   0.60759   0.63620   0.65872
 Alpha virt. eigenvalues --    0.68023   0.69824   0.72812   0.73958   0.75261
 Alpha virt. eigenvalues --    0.76046   0.77041   0.80402   0.81800   0.84928
 Alpha virt. eigenvalues --    0.85731   0.86929   0.87560   0.89139   0.91546
 Alpha virt. eigenvalues --    0.93563   0.94358   0.96262   0.98298   1.00646
 Alpha virt. eigenvalues --    1.02991   1.03677   1.05560   1.07134   1.10972
 Alpha virt. eigenvalues --    1.13421   1.18935   1.22038   1.22964   1.24756
 Alpha virt. eigenvalues --    1.31530   1.34387   1.38498   1.40023   1.45308
 Alpha virt. eigenvalues --    1.49954   1.51366   1.53863   1.56153   1.60363
 Alpha virt. eigenvalues --    1.61236   1.68067   1.84859   1.89498   1.94811
 Alpha virt. eigenvalues --    2.00185   2.07928   2.08635   2.13379   2.14460
 Alpha virt. eigenvalues --    2.15830   2.20665   2.22196   2.22631   2.29307
 Alpha virt. eigenvalues --    2.29718   2.32367   2.33807   2.34258   2.35447
 Alpha virt. eigenvalues --    2.38770   2.41146   2.44336   2.48852   2.49913
 Alpha virt. eigenvalues --    2.51970   2.52746   2.56918   2.58825   2.59915
 Alpha virt. eigenvalues --    2.62164   2.67643   2.69585   2.70770   2.74389
 Alpha virt. eigenvalues --    2.75371   2.77455   2.81558   2.90555   2.92561
 Alpha virt. eigenvalues --    2.94376   3.06920   3.11898   3.13646   3.60547
 Alpha virt. eigenvalues --    3.70644   3.90195   4.00905   4.01680   4.06582
 Alpha virt. eigenvalues --    4.15883   4.19249   4.21460   4.23060   4.25020
 Alpha virt. eigenvalues --    4.44399   4.54158   4.56023   4.65699   4.69622
 Alpha virt. eigenvalues --    5.00288   5.00983   5.07945   5.09980   5.10897
 Alpha virt. eigenvalues --    5.15457   5.48710   5.84134   6.03779   6.07928
 Alpha virt. eigenvalues --    6.14077   6.37498   6.40041   6.47818   6.58354
 Alpha virt. eigenvalues --    6.69524   6.73198   6.78808   6.84871   6.85849
 Alpha virt. eigenvalues --    6.87338   6.90090   6.91311   6.93337   7.09293
 Alpha virt. eigenvalues --    7.15194   7.18287   7.24717   7.37757   7.56662
 Alpha virt. eigenvalues --    7.97633   7.99520   8.16288  13.81363  14.61651
          Condensed to atoms (all electrons):
              1          2          3          4          5
     1  O    8.248955  -0.226087   0.162619   0.039869  -0.026150
     2  O   -0.226087   8.218621   0.049644   0.183203  -0.015972
     3  H    0.162619   0.049644   0.624897  -0.025989  -0.002950
     4  H    0.039869   0.183203  -0.025989   0.615835  -0.009998
     5  Kr  -0.026150  -0.015972  -0.002950  -0.009998  36.035313
 Mulliken atomic charges:
              1
     1  O   -0.199206
     2  O   -0.209409
     3  H    0.191778
     4  H    0.197080
     5  Kr   0.019756
 Sum of Mulliken atomic charges =   0.00000
 Mulliken charges with hydrogens summed into heavy atoms:
              1
     1  O   -0.007428
     2  O   -0.012329
     5  Kr   0.019756
 Sum of Mulliken charges with hydrogens summed into heavy atoms =   0.00000
          Condensed to fragments (all electrons):
     1      -0.019756
     2       0.019756
 Electronic spatial extent (au):  <R**2>=            477.3920
 Charge=              0.0000 electrons
 Dipole moment (field-independent basis, Debye):
    X=              3.5275    Y=             -0.0983    Z=              0.6893  Tot=              3.5955
 Quadrupole moment (field-independent basis, Debye-Ang):
   XX=            -39.1506   YY=            -28.4222   ZZ=            -30.4408
   XY=              0.3120   XZ=             -0.8500   YZ=             -0.9146
 Traceless Quadrupole moment (field-independent basis, Debye-Ang):
   XX=             -6.4794   YY=              4.2490   ZZ=              2.2304
   XY=              0.3120   XZ=             -0.8500   YZ=             -0.9146
 Octapole moment (field-independent basis, Debye-Ang**2):
  XXX=             46.3973  YYY=             -0.2465  ZZZ=              0.1002  XYY=              8.2038
  XXY=             -0.7319  XXZ=              0.2269  XZZ=              8.6759  YZZ=             -0.4744
  YYZ=              1.0627  XYZ=              1.1087
 Hexadecapole moment (field-independent basis, Debye-Ang**3):
 XXXX=           -466.6747 YYYY=            -65.0721 ZZZZ=            -30.5073 XXXY=              0.7961
 XXXZ=              0.8231 YYYX=              0.5870 YYYZ=             -1.2765 ZZZX=             -0.4145
 ZZZY=             -0.6158 XXYY=            -87.8620 XXZZ=            -77.1489 YYZZ=            -17.5421
 XXYZ=             -1.3194 YYXZ=             -1.3143 ZZXY=              0.6396
 N-N= 1.513348661682D+02 E-N=-7.238132736782D+03  KE= 2.899850085668D+03
 No NMR shielding tensors so no spin-rotation constants.
 Leave Link  601 at Thu May 14 00:55:11 2020, MaxMem= 1073741824 cpu:       0.7
 (Enter /home/matheus/.gaussian/g09/l122.exe)
 Counterpoise: doing DCBS calculation for fragment   1 NewBq=T
 Leave Link  122 at Thu May 14 00:55:11 2020, MaxMem= 1073741824 cpu:       0.0
 (Enter /home/matheus/.gaussian/g09/l301.exe)
 Basis read from rwf:  (5D, 7F)
 No pseudopotential information found on rwf file.
 There are   197 symmetry adapted basis functions of A   symmetry.
 Integral buffers will be    131072 words long.
 Raffenetti 2 integral format.
 Two-electron integral symmetry is turned on.
   197 basis functions,   415 primitive gaussians,   229 cartesian basis functions
     9 alpha electrons        9 beta electrons
       nuclear repulsion energy        36.6600463863 Hartrees.
 IExCor=10402 DFT=T Ex=LC-B+HF Corr=LYP ExCW=0 ScaHFX=  1.000000
 ScaDFX=  1.000000  1.000000  1.000000  1.000000 ScalE2=  1.000000  1.000000
 IRadAn=      5 IRanWt=     -1 IRanGd=            0 ICorTp=0
  HFx wShort=  0.000000 wLong=  0.470000 cFull=  0.000000 cShort=  0.000000 cLong=  1.000000
  DFx wShort=  0.000000 wLong=  0.470000 cFull=  0.000000 cShort=  0.000000 cLong=  1.000000
 NAtoms=    5 NActive=    5 NUniq=    5 SFac= 1.00D+00 NAtFMM=   60 NAOKFM=F Big=F
 No density basis found on file   718.
 Leave Link  301 at Thu May 14 00:55:11 2020, MaxMem= 1073741824 cpu:       0.2
 (Enter /home/matheus/.gaussian/g09/l302.exe)
 NPDir=0 NMtPBC=     1 NCelOv=     1 NCel=       1 NClECP=     1 NCelD=      1
         NCelK=      1 NCelE2=     1 NClLst=     1 CellRange=     0.0.
 One-electron integrals computed using PRISM.
 NBasis=   197 RedAO= T  NBF=   197
 NBsUse=   197 1.00D-06 NBFU=   197
 Precomputing XC quadrature grid using
 IXCGrd= 2 IRadAn=           5 IRanWt=          -1 IRanGd=           0 AccXCQ= 0.00D+00.
 NRdTot=     427 NPtTot=      123512 NUsed=      126579 NTot=      126611
 NSgBfM=   229   229   229   229   229 NAtAll=     5     5.
 Leave Link  302 at Thu May 14 00:55:11 2020, MaxMem= 1073741824 cpu:       1.0
 (Enter /home/matheus/.gaussian/g09/l303.exe)
 DipDrv:  MaxL=1.
 Leave Link  303 at Thu May 14 00:55:11 2020, MaxMem= 1073741824 cpu:       0.2
 (Enter /home/matheus/.gaussian/g09/l401.exe)
 Harris functional with IExCor=10402 diagonalized for initial guess.
 ExpMin= 2.53D-02 ExpMax= 1.17D+07 ExpMxC= 1.33D+04 IAcc=3 IRadAn=         5 AccDes= 0.00D+00
 HarFok:  IExCor=10402 AccDes= 0.00D+00 IRadAn=         5 IDoV= 1
 ScaDFX=  1.000000  1.000000  1.000000  1.000000
 FoFCou: FMM=F IPFlag=           0 FMFlag=      100000 FMFlg1=           0
         NFxFlg=           0 DoJE=T BraDBF=F KetDBF=T FulRan=T
         Omega=  0.000000  0.000000  1.000000  0.000000  0.000000 ICntrl=     500 IOpCl=  0
         NMat0=    1 NMatS0=    1 NMatT0=    0 NMatD0=    1 NMtDS0=    0 NMtDT0=    0
         I1Cent=           4 NGrid=           0.
 Petite list used in FoFCou.
 Harris En= -147.162487802129    
 Initial guess orbital symmetries:
       Occupied  (A) (A) (A) (A) (A) (A) (A) (A) (A)
       Virtual   (A) (A) (A) (A) (A) (A) (A) (A) (A) (A) (A) (A)
                 (A) (A) (A) (A) (A) (A) (A) (A) (A) (A) (A) (A)
                 (A) (A) (A) (A) (A) (A) (A) (A) (A) (A) (A) (A)
                 (A) (A) (A) (A) (A) (A) (A) (A) (A) (A) (A) (A)
                 (A) (A) (A) (A) (A) (A) (A) (A) (A) (A) (A) (A)
                 (A) (A) (A) (A) (A) (A) (A) (A) (A) (A) (A) (A)
                 (A) (A) (A) (A) (A) (A) (A) (A) (A) (A) (A) (A)
                 (A) (A) (A) (A) (A) (A) (A) (A) (A) (A) (A) (A)
                 (A) (A) (A) (A) (A) (A) (A) (A) (A) (A) (A) (A)
                 (A) (A) (A) (A) (A) (A) (A) (A) (A) (A) (A) (A)
                 (A) (A) (A) (A) (A) (A) (A) (A) (A) (A) (A) (A)
                 (A) (A) (A) (A) (A) (A) (A) (A) (A) (A) (A) (A)
                 (A) (A) (A) (A) (A) (A) (A) (A) (A) (A) (A) (A)
                 (A) (A) (A) (A) (A) (A) (A) (A) (A) (A) (A) (A)
                 (A) (A) (A) (A) (A) (A) (A) (A) (A) (A) (A) (A)
                 (A) (A) (A) (A) (A) (A) (A) (A)
 The electronic state of the initial guess is 1-A.
 Leave Link  401 at Thu May 14 00:55:11 2020, MaxMem= 1073741824 cpu:       4.0
 (Enter /home/matheus/.gaussian/g09/l502.exe)
 Closed shell SCF:
 Requested convergence on RMS density matrix=1.00D-08 within 128 cycles.
 Requested convergence on MAX density matrix=1.00D-06.
 Requested convergence on             energy=1.00D-06.
 No special actions if energy rises.
 Using DIIS extrapolation, IDIIS=  1040.
 Integral symmetry usage will be decided dynamically.
       126521 words used for storage of precomputed grid.
 IEnd=      305468 IEndB=      305468 NGot=  1073741824 MDV=  1073505667
 LenX=  1073505667 LenY=  1073452785
 Fock matrices will be formed incrementally for  20 cycles.

 Cycle   1  Pass 1  IDiag  1:
 FoFJK:  IHMeth= 1 ICntrl=     0 DoSepK=T KAlg= 1 I1Cent= 0 FoldK=F
 FoFCou: FMM=F IPFlag=           0 FMFlag=      100000 FMFlg1=           0
         NFxFlg=           0 DoJE=T BraDBF=F KetDBF=F FulRan=T
         Omega=  0.000000  0.000000  1.000000  0.000000  0.000000 ICntrl=     500 IOpCl=  0
         NMat0=    1 NMatS0=    1 NMatT0=    0 NMatD0=    1 NMtDS0=    0 NMtDT0=    0
         I1Cent=           0 NGrid=           0.
 Symmetry not used in FoFCou.
 E= -151.295328590930    
 DIIS: error= 1.02D-02 at cycle   1 NSaved=   1.
 NSaved= 1 IEnMin= 1 EnMin= -151.295328590930     IErMin= 1 ErrMin= 1.02D-02
 ErrMax= 1.02D-02 EMaxC= 1.00D-01 BMatC= 2.42D-02 BMatP= 2.42D-02
 IDIUse=3 WtCom= 8.98D-01 WtEn= 1.02D-01
 Coeff-Com:  0.100D+01
 Coeff-En:   0.100D+01
 Coeff:      0.100D+01
 Gap=     0.459 Goal=   None    Shift=    0.000
 GapD=    0.459 DampG=2.000 DampE=0.500 DampFc=1.0000 IDamp=-1.
 RMSDP=8.99D-04 MaxDP=3.07D-02              OVMax= 5.66D-02

 Cycle   2  Pass 1  IDiag  1:
 RMSU=  6.36D-04    CP:  1.00D+00
 FoFJK:  IHMeth= 1 ICntrl=     0 DoSepK=T KAlg= 1 I1Cent= 0 FoldK=F
 E= -151.317117362909     Delta-E=       -0.021788771978 Rises=F Damp=F
 DIIS: error= 4.47D-03 at cycle   2 NSaved=   2.
 NSaved= 2 IEnMin= 2 EnMin= -151.317117362909     IErMin= 2 ErrMin= 4.47D-03
 ErrMax= 4.47D-03 EMaxC= 1.00D-01 BMatC= 4.35D-03 BMatP= 2.42D-02
 IDIUse=3 WtCom= 9.55D-01 WtEn= 4.47D-02
 Coeff-Com:  0.249D+00 0.751D+00
 Coeff-En:   0.000D+00 0.100D+01
 Coeff:      0.238D+00 0.762D+00
 Gap=     0.420 Goal=   None    Shift=    0.000
 RMSDP=2.12D-04 MaxDP=6.11D-03 DE=-2.18D-02 OVMax= 1.44D-02

 Cycle   3  Pass 1  IDiag  1:
 RMSU=  1.49D-04    CP:  1.00D+00  1.03D+00
 FoFJK:  IHMeth= 1 ICntrl=     0 DoSepK=T KAlg= 1 I1Cent= 0 FoldK=F
 E= -151.319579485481     Delta-E=       -0.002462122572 Rises=F Damp=F
 DIIS: error= 1.29D-03 at cycle   3 NSaved=   3.
 NSaved= 3 IEnMin= 3 EnMin= -151.319579485481     IErMin= 3 ErrMin= 1.29D-03
 ErrMax= 1.29D-03 EMaxC= 1.00D-01 BMatC= 4.94D-04 BMatP= 4.35D-03
 IDIUse=3 WtCom= 9.87D-01 WtEn= 1.29D-02
 Coeff-Com:  0.230D-01 0.237D+00 0.740D+00
 Coeff-En:   0.000D+00 0.000D+00 0.100D+01
 Coeff:      0.227D-01 0.234D+00 0.744D+00
 Gap=     0.430 Goal=   None    Shift=    0.000
 RMSDP=1.04D-04 MaxDP=3.62D-03 DE=-2.46D-03 OVMax= 7.34D-03

 Cycle   4  Pass 1  IDiag  1:
 RMSU=  5.33D-05    CP:  1.00D+00  1.11D+00  9.68D-01
 FoFJK:  IHMeth= 1 ICntrl=     0 DoSepK=T KAlg= 1 I1Cent= 0 FoldK=F
 E= -151.319955833718     Delta-E=       -0.000376348237 Rises=F Damp=F
 DIIS: error= 3.79D-04 at cycle   4 NSaved=   4.
 NSaved= 4 IEnMin= 4 EnMin= -151.319955833718     IErMin= 4 ErrMin= 3.79D-04
 ErrMax= 3.79D-04 EMaxC= 1.00D-01 BMatC= 4.54D-05 BMatP= 4.94D-04
 IDIUse=3 WtCom= 9.96D-01 WtEn= 3.79D-03
 Coeff-Com: -0.216D-01-0.342D-01 0.186D+00 0.869D+00
 Coeff-En:   0.000D+00 0.000D+00 0.000D+00 0.100D+01
 Coeff:     -0.215D-01-0.340D-01 0.186D+00 0.870D+00
 Gap=     0.427 Goal=   None    Shift=    0.000
 RMSDP=4.30D-05 MaxDP=1.56D-03 DE=-3.76D-04 OVMax= 1.87D-03

 Cycle   5  Pass 1  IDiag  1:
 RMSU=  1.09D-05    CP:  1.00D+00  1.13D+00  1.12D+00  1.07D+00
 FoFJK:  IHMeth= 1 ICntrl=     0 DoSepK=T KAlg= 1 I1Cent= 0 FoldK=F
 E= -151.319995557835     Delta-E=       -0.000039724117 Rises=F Damp=F
 DIIS: error= 5.00D-05 at cycle   5 NSaved=   5.
 NSaved= 5 IEnMin= 5 EnMin= -151.319995557835     IErMin= 5 ErrMin= 5.00D-05
 ErrMax= 5.00D-05 EMaxC= 1.00D-01 BMatC= 3.93D-07 BMatP= 4.54D-05
 IDIUse=1 WtCom= 1.00D+00 WtEn= 0.00D+00
 Coeff-Com:  0.698D-03-0.347D-02-0.382D-01-0.798D-01 0.112D+01
 Coeff:      0.698D-03-0.347D-02-0.382D-01-0.798D-01 0.112D+01
 Gap=     0.427 Goal=   None    Shift=    0.000
 RMSDP=1.13D-05 MaxDP=4.36D-04 DE=-3.97D-05 OVMax= 6.91D-04

 Cycle   6  Pass 1  IDiag  1:
 RMSU=  2.67D-06    CP:  1.00D+00  1.14D+00  1.15D+00  1.16D+00  1.27D+00
 FoFJK:  IHMeth= 1 ICntrl=     0 DoSepK=T KAlg= 1 I1Cent= 0 FoldK=F
 E= -151.319996863022     Delta-E=       -0.000001305187 Rises=F Damp=F
 DIIS: error= 1.24D-05 at cycle   6 NSaved=   6.
 NSaved= 6 IEnMin= 6 EnMin= -151.319996863022     IErMin= 6 ErrMin= 1.24D-05
 ErrMax= 1.24D-05 EMaxC= 1.00D-01 BMatC= 1.85D-08 BMatP= 3.93D-07
 IDIUse=1 WtCom= 1.00D+00 WtEn= 0.00D+00
 Coeff-Com:  0.131D-03 0.112D-03-0.103D-02-0.460D-02-0.951D-01 0.110D+01
 Coeff:      0.131D-03 0.112D-03-0.103D-02-0.460D-02-0.951D-01 0.110D+01
 Gap=     0.427 Goal=   None    Shift=    0.000
 RMSDP=1.71D-06 MaxDP=4.86D-05 DE=-1.31D-06 OVMax= 1.38D-04

 Cycle   7  Pass 1  IDiag  1:
 RMSU=  3.36D-07    CP:  1.00D+00  1.14D+00  1.15D+00  1.17D+00  1.32D+00
                    CP:  1.26D+00
 FoFJK:  IHMeth= 1 ICntrl=     0 DoSepK=T KAlg= 1 I1Cent= 0 FoldK=F
 E= -151.319996916848     Delta-E=       -0.000000053826 Rises=F Damp=F
 DIIS: error= 3.04D-06 at cycle   7 NSaved=   7.
 NSaved= 7 IEnMin= 7 EnMin= -151.319996916848     IErMin= 7 ErrMin= 3.04D-06
 ErrMax= 3.04D-06 EMaxC= 1.00D-01 BMatC= 2.35D-09 BMatP= 1.85D-08
 IDIUse=1 WtCom= 1.00D+00 WtEn= 0.00D+00
 Coeff-Com:  0.191D-04 0.256D-03 0.199D-02 0.354D-02-0.848D-01 0.172D+00
 Coeff-Com:  0.907D+00
 Coeff:      0.191D-04 0.256D-03 0.199D-02 0.354D-02-0.848D-01 0.172D+00
 Coeff:      0.907D+00
 Gap=     0.427 Goal=   None    Shift=    0.000
 RMSDP=3.53D-07 MaxDP=1.20D-05 DE=-5.38D-08 OVMax= 4.03D-05

 Cycle   8  Pass 1  IDiag  1:
 RMSU=  1.48D-07    CP:  1.00D+00  1.14D+00  1.15D+00  1.17D+00  1.33D+00
                    CP:  1.32D+00  1.20D+00
 FoFJK:  IHMeth= 1 ICntrl=     0 DoSepK=T KAlg= 1 I1Cent= 0 FoldK=F
 E= -151.319996920917     Delta-E=       -0.000000004069 Rises=F Damp=F
 DIIS: error= 1.66D-06 at cycle   8 NSaved=   8.
 NSaved= 8 IEnMin= 8 EnMin= -151.319996920917     IErMin= 8 ErrMin= 1.66D-06
 ErrMax= 1.66D-06 EMaxC= 1.00D-01 BMatC= 1.10D-09 BMatP= 2.35D-09
 IDIUse=1 WtCom= 1.00D+00 WtEn= 0.00D+00
 Coeff-Com:  0.143D-05 0.126D-03 0.106D-02 0.214D-02-0.345D-01-0.500D-02
 Coeff-Com:  0.459D+00 0.577D+00
 Coeff:      0.143D-05 0.126D-03 0.106D-02 0.214D-02-0.345D-01-0.500D-02
 Coeff:      0.459D+00 0.577D+00
 Gap=     0.427 Goal=   None    Shift=    0.000
 RMSDP=1.02D-07 MaxDP=2.97D-06 DE=-4.07D-09 OVMax= 1.24D-05

 Cycle   9  Pass 1  IDiag  1:
 RMSU=  5.38D-08    CP:  1.00D+00  1.14D+00  1.15D+00  1.17D+00  1.33D+00
                    CP:  1.33D+00  1.31D+00  9.36D-01
 FoFJK:  IHMeth= 1 ICntrl=     0 DoSepK=T KAlg= 1 I1Cent= 0 FoldK=F
 E= -151.319996921881     Delta-E=       -0.000000000964 Rises=F Damp=F
 DIIS: error= 7.01D-07 at cycle   9 NSaved=   9.
 NSaved= 9 IEnMin= 9 EnMin= -151.319996921881     IErMin= 9 ErrMin= 7.01D-07
 ErrMax= 7.01D-07 EMaxC= 1.00D-01 BMatC= 7.00D-11 BMatP= 1.10D-09
 IDIUse=1 WtCom= 1.00D+00 WtEn= 0.00D+00
 Coeff-Com: -0.762D-05-0.339D-04-0.249D-03-0.247D-03 0.130D-01-0.446D-01
 Coeff-Com: -0.121D+00 0.981D-01 0.106D+01
 Coeff:     -0.762D-05-0.339D-04-0.249D-03-0.247D-03 0.130D-01-0.446D-01
 Coeff:     -0.121D+00 0.981D-01 0.106D+01
 Gap=     0.427 Goal=   None    Shift=    0.000
 RMSDP=7.04D-08 MaxDP=1.66D-06 DE=-9.64D-10 OVMax= 1.20D-05

 Cycle  10  Pass 1  IDiag  1:
 RMSU=  2.17D-08    CP:  1.00D+00  1.14D+00  1.15D+00  1.17D+00  1.33D+00
                    CP:  1.33D+00  1.37D+00  1.13D+00  1.29D+00
 FoFJK:  IHMeth= 1 ICntrl=     0 DoSepK=T KAlg= 1 I1Cent= 0 FoldK=F
 E= -151.319996922098     Delta-E=       -0.000000000217 Rises=F Damp=F
 DIIS: error= 1.93D-07 at cycle  10 NSaved=  10.
 NSaved=10 IEnMin=10 EnMin= -151.319996922098     IErMin=10 ErrMin= 1.93D-07
 ErrMax= 1.93D-07 EMaxC= 1.00D-01 BMatC= 3.35D-12 BMatP= 7.00D-11
 IDIUse=1 WtCom= 1.00D+00 WtEn= 0.00D+00
 Coeff-Com:  0.230D-05 0.394D-05 0.244D-04-0.448D-05-0.289D-02 0.165D-01
 Coeff-Com:  0.260D-01-0.763D-01-0.454D+00 0.149D+01
 Coeff:      0.230D-05 0.394D-05 0.244D-04-0.448D-05-0.289D-02 0.165D-01
 Coeff:      0.260D-01-0.763D-01-0.454D+00 0.149D+01
 Gap=     0.427 Goal=   None    Shift=    0.000
 RMSDP=2.63D-08 MaxDP=5.82D-07 DE=-2.17D-10 OVMax= 5.10D-06

 Cycle  11  Pass 1  IDiag  1:
 RMSU=  5.20D-09    CP:  1.00D+00  1.14D+00  1.15D+00  1.17D+00  1.32D+00
                    CP:  1.33D+00  1.37D+00  1.16D+00  1.45D+00  1.60D+00
 FoFJK:  IHMeth= 1 ICntrl=     0 DoSepK=T KAlg= 1 I1Cent= 0 FoldK=F
 E= -151.319996922117     Delta-E=       -0.000000000020 Rises=F Damp=F
 DIIS: error= 2.79D-08 at cycle  11 NSaved=  11.
 NSaved=11 IEnMin=11 EnMin= -151.319996922117     IErMin=11 ErrMin= 2.79D-08
 ErrMax= 2.79D-08 EMaxC= 1.00D-01 BMatC= 1.12D-13 BMatP= 3.35D-12
 IDIUse=1 WtCom= 1.00D+00 WtEn= 0.00D+00
 Coeff-Com: -0.419D-07 0.172D-05 0.152D-04 0.111D-04-0.440D-03 0.697D-03
 Coeff-Com:  0.410D-02 0.327D-02-0.789D-02-0.170D+00 0.117D+01
 Coeff:     -0.419D-07 0.172D-05 0.152D-04 0.111D-04-0.440D-03 0.697D-03
 Coeff:      0.410D-02 0.327D-02-0.789D-02-0.170D+00 0.117D+01
 Gap=     0.427 Goal=   None    Shift=    0.000
 RMSDP=4.70D-09 MaxDP=1.36D-07 DE=-1.96D-11 OVMax= 7.58D-07

 SCF Done:  E(RLC-B+HF-LYP) =  -151.319996922     A.U. after   11 cycles
             Convg  =    0.4696D-08             -V/T =  2.0055
 KE= 1.504860370069D+02 PE=-4.314575052412D+02 EE= 9.299142492584D+01
 Leave Link  502 at Thu May 14 00:55:45 2020, MaxMem= 1073741824 cpu:     269.1
 (Enter /home/matheus/.gaussian/g09/l601.exe)
 Copying SCF densities to generalized density rwf, IOpCl= 0 IROHF=0.

 **********************************************************************

            Population analysis using the SCF density.

 **********************************************************************

 Orbital symmetries:
       Occupied  (A) (A) (A) (A) (A) (A) (A) (A) (A)
       Virtual   (A) (A) (A) (A) (A) (A) (A) (A) (A) (A) (A) (A)
                 (A) (A) (A) (A) (A) (A) (A) (A) (A) (A) (A) (A)
                 (A) (A) (A) (A) (A) (A) (A) (A) (A) (A) (A) (A)
                 (A) (A) (A) (A) (A) (A) (A) (A) (A) (A) (A) (A)
                 (A) (A) (A) (A) (A) (A) (A) (A) (A) (A) (A) (A)
                 (A) (A) (A) (A) (A) (A) (A) (A) (A) (A) (A) (A)
                 (A) (A) (A) (A) (A) (A) (A) (A) (A) (A) (A) (A)
                 (A) (A) (A) (A) (A) (A) (A) (A) (A) (A) (A) (A)
                 (A) (A) (A) (A) (A) (A) (A) (A) (A) (A) (A) (A)
                 (A) (A) (A) (A) (A) (A) (A) (A) (A) (A) (A) (A)
                 (A) (A) (A) (A) (A) (A) (A) (A) (A) (A) (A) (A)
                 (A) (A) (A) (A) (A) (A) (A) (A) (A) (A) (A) (A)
                 (A) (A) (A) (A) (A) (A) (A) (A) (A) (A) (A) (A)
                 (A) (A) (A) (A) (A) (A) (A) (A) (A) (A) (A) (A)
                 (A) (A) (A) (A) (A) (A) (A) (A) (A) (A) (A) (A)
                 (A) (A) (A) (A) (A) (A) (A) (A)
 The electronic state is 1-A.
 Alpha  occ. eigenvalues --  -19.07709 -19.07708  -1.28996  -1.06639  -0.73036
 Alpha  occ. eigenvalues --   -0.58193  -0.57874  -0.51284  -0.41536
 Alpha virt. eigenvalues --    0.01209   0.03238   0.06784   0.07375   0.08700
 Alpha virt. eigenvalues --    0.09872   0.10088   0.14916   0.16167   0.17029
 Alpha virt. eigenvalues --    0.17806   0.19209   0.19602   0.20751   0.24703
 Alpha virt. eigenvalues --    0.25900   0.27599   0.27965   0.31360   0.33671
 Alpha virt. eigenvalues --    0.34788   0.35258   0.37314   0.39956   0.40836
 Alpha virt. eigenvalues --    0.43336   0.44579   0.45709   0.47822   0.51358
 Alpha virt. eigenvalues --    0.53421   0.56901   0.58262   0.61739   0.66226
 Alpha virt. eigenvalues --    0.69046   0.71404   0.76010   0.76751   0.79544
 Alpha virt. eigenvalues --    0.81708   0.82856   0.86276   0.86670   0.89209
 Alpha virt. eigenvalues --    0.91735   0.94502   0.95489   0.97480   0.98811
 Alpha virt. eigenvalues --    1.00512   1.03563   1.05793   1.07458   1.08567
 Alpha virt. eigenvalues --    1.11653   1.15593   1.19132   1.21797   1.24187
 Alpha virt. eigenvalues --    1.25750   1.28692   1.30128   1.30782   1.33119
 Alpha virt. eigenvalues --    1.33482   1.35731   1.37250   1.43421   1.45589
 Alpha virt. eigenvalues --    1.47609   1.50031   1.53336   1.55971   1.59112
 Alpha virt. eigenvalues --    1.61781   1.63587   1.68051   1.73858   1.76543
 Alpha virt. eigenvalues --    1.82605   1.86772   1.93042   1.98515   2.03566
 Alpha virt. eigenvalues --    2.09426   2.14021   2.17529   2.22294   2.24462
 Alpha virt. eigenvalues --    2.29203   2.34095   2.34870   2.35740   2.41394
 Alpha virt. eigenvalues --    2.49877   2.53726   2.58831   2.64631   2.66662
 Alpha virt. eigenvalues --    2.69672   2.72730   2.87201   2.90858   2.92289
 Alpha virt. eigenvalues --    3.04012   3.10265   3.11840   3.23635   3.31424
 Alpha virt. eigenvalues --    3.41697   3.56880   3.60817   3.67177   3.76654
 Alpha virt. eigenvalues --    3.77630   3.79457   3.81040   3.81347   3.85867
 Alpha virt. eigenvalues --    3.90344   3.91479   3.92139   3.93420   3.96237
 Alpha virt. eigenvalues --    4.00611   4.02948   4.07055   4.13465   4.14109
 Alpha virt. eigenvalues --    4.20490   4.23055   4.24323   4.27585   4.32298
 Alpha virt. eigenvalues --    4.53314   4.56318   4.57832   4.66176   5.00356
 Alpha virt. eigenvalues --    5.01056   5.07949   5.10075   5.11144   5.15397
 Alpha virt. eigenvalues --    5.48536   5.83716   6.03158   6.07346   6.13353
 Alpha virt. eigenvalues --    6.37042   6.39547   6.47450   6.57855   6.69004
 Alpha virt. eigenvalues --    6.72455   6.78154   6.84302   6.85193   6.86844
 Alpha virt. eigenvalues --    6.89522   6.90844   6.92741   7.08876   7.14627
 Alpha virt. eigenvalues --    7.17916   7.24057   7.37138   7.56180   7.97033
 Alpha virt. eigenvalues --    7.98846   8.15485  11.06230  13.80363  14.60178
 Alpha virt. eigenvalues --   14.80796  14.90716  15.09472  29.00878  29.01586
 Alpha virt. eigenvalues --   29.05554  29.18560  29.21083  49.21283 148.29080
 Alpha virt. eigenvalues --  148.43952 148.70631 752.92440
          Condensed to atoms (all electrons):
              1          2          3          4          5
     1  O    8.222372  -0.222980   0.164951   0.037808   0.001998
     2  O   -0.222980   8.195826   0.047125   0.180098   0.000548
     3  H    0.164951   0.047125   0.610050  -0.019422  -0.002094
     4  H    0.037808   0.180098  -0.019422   0.604320  -0.004860
     5  Kr   0.001998   0.000548  -0.002094  -0.004860   0.001088
 Mulliken atomic charges:
              1
     1  O   -0.204149
     2  O   -0.200617
     3  H    0.199390
     4  H    0.202056
     5  Kr   0.003321
 Sum of Mulliken atomic charges =   0.00000
 Mulliken charges with hydrogens summed into heavy atoms:
              1
     1  O   -0.004759
     2  O    0.001439
     5  Kr   0.003321
 Sum of Mulliken charges with hydrogens summed into heavy atoms =   0.00000
          Condensed to fragments (all electrons):
     1      -0.003321
     2       0.003321
 Electronic spatial extent (au):  <R**2>=            317.6640
 Charge=              0.0000 electrons
 Dipole moment (field-independent basis, Debye):
    X=              3.0180    Y=             -0.0420    Z=              0.8258  Tot=              3.1292
 Quadrupole moment (field-independent basis, Debye-Ang):
   XX=            -21.7185   YY=            -10.7124   ZZ=            -12.8661
   XY=              0.3346   XZ=             -0.7536   YZ=             -0.9448
 Traceless Quadrupole moment (field-independent basis, Debye-Ang):
   XX=             -6.6195   YY=              4.3866   ZZ=              2.2329
   XY=              0.3346   XZ=             -0.7536   YZ=             -0.9448
 Octapole moment (field-independent basis, Debye-Ang**2):
  XXX=             95.1476  YYY=             -0.2516  ZZZ=              0.1467  XYY=             24.9050
  XXY=             -0.6567  XXZ=              0.2927  XZZ=             25.4772  YZZ=             -0.4840
  YYZ=              1.0900  XYZ=              1.1106
 Hexadecapole moment (field-independent basis, Debye-Ang**3):
 XXXX=           -347.9889 YYYY=            -46.4258 ZZZZ=            -12.1634 XXXY=              0.7058
 XXXZ=              0.9560 YYYX=              0.5890 YYYZ=             -1.3252 ZZZX=             -0.4159
 ZZZY=             -0.6554 XXYY=            -65.0049 XXZZ=            -54.5683 YYZZ=            -11.3620
 XXYZ=             -1.3205 YYXZ=             -1.3029 ZZXY=              0.6270
 N-N= 3.666004638632D+01 E-N=-4.314575048113D+02  KE= 1.504860370069D+02
 No NMR shielding tensors so no spin-rotation constants.
 Leave Link  601 at Thu May 14 00:55:45 2020, MaxMem= 1073741824 cpu:       0.8
 (Enter /home/matheus/.gaussian/g09/l122.exe)
 Counterpoise: doing DCBS calculation for fragment   2 NewBq=T
 Leave Link  122 at Thu May 14 00:55:45 2020, MaxMem= 1073741824 cpu:       0.0
 (Enter /home/matheus/.gaussian/g09/l301.exe)
 Basis read from rwf:  (5D, 7F)
 No pseudopotential information found on rwf file.
 There are   197 symmetry adapted basis functions of A   symmetry.
 Integral buffers will be    131072 words long.
 Raffenetti 2 integral format.
 Two-electron integral symmetry is turned on.
   197 basis functions,   415 primitive gaussians,   229 cartesian basis functions
    18 alpha electrons       18 beta electrons
       nuclear repulsion energy         0.0000000000 Hartrees.
 IExCor=10402 DFT=T Ex=LC-B+HF Corr=LYP ExCW=0 ScaHFX=  1.000000
 ScaDFX=  1.000000  1.000000  1.000000  1.000000 ScalE2=  1.000000  1.000000
 IRadAn=      5 IRanWt=     -1 IRanGd=            0 ICorTp=0
  HFx wShort=  0.000000 wLong=  0.470000 cFull=  0.000000 cShort=  0.000000 cLong=  1.000000
  DFx wShort=  0.000000 wLong=  0.470000 cFull=  0.000000 cShort=  0.000000 cLong=  1.000000
 NAtoms=    5 NActive=    5 NUniq=    5 SFac= 1.00D+00 NAtFMM=   60 NAOKFM=F Big=F
 No density basis found on file   718.
 Leave Link  301 at Thu May 14 00:55:45 2020, MaxMem= 1073741824 cpu:       0.2
 (Enter /home/matheus/.gaussian/g09/l302.exe)
 NPDir=0 NMtPBC=     1 NCelOv=     1 NCel=       1 NClECP=     1 NCelD=      1
         NCelK=      1 NCelE2=     1 NClLst=     1 CellRange=     0.0.
 One-electron integrals computed using PRISM.
 NBasis=   197 RedAO= T  NBF=   197
 NBsUse=   197 1.00D-06 NBFU=   197
 Precomputing XC quadrature grid using
 IXCGrd= 2 IRadAn=           5 IRanWt=          -1 IRanGd=           0 AccXCQ= 0.00D+00.
 NRdTot=     427 NPtTot=      123512 NUsed=      126579 NTot=      126611
 NSgBfM=   229   229   229   229   229 NAtAll=     5     5.
 Leave Link  302 at Thu May 14 00:55:45 2020, MaxMem= 1073741824 cpu:       1.0
 (Enter /home/matheus/.gaussian/g09/l303.exe)
 DipDrv:  MaxL=1.
 Leave Link  303 at Thu May 14 00:55:45 2020, MaxMem= 1073741824 cpu:       0.2
 (Enter /home/matheus/.gaussian/g09/l401.exe)
 Harris functional with IExCor=10402 diagonalized for initial guess.
 ExpMin= 2.53D-02 ExpMax= 1.17D+07 ExpMxC= 1.33D+04 IAcc=3 IRadAn=         5 AccDes= 0.00D+00
 HarFok:  IExCor=10402 AccDes= 0.00D+00 IRadAn=         5 IDoV= 1
 ScaDFX=  1.000000  1.000000  1.000000  1.000000
 FoFCou: FMM=F IPFlag=           0 FMFlag=      100000 FMFlg1=           0
         NFxFlg=           0 DoJE=T BraDBF=F KetDBF=T FulRan=T
         Omega=  0.000000  0.000000  1.000000  0.000000  0.000000 ICntrl=     500 IOpCl=  0
         NMat0=    1 NMatS0=    1 NMatT0=    0 NMatD0=    1 NMtDS0=    0 NMtDT0=    0
         I1Cent=           4 NGrid=           0.
 Petite list used in FoFCou.
 Harris En= -2744.51549797522    
 Initial guess orbital symmetries:
       Occupied  (A) (A) (A) (A) (A) (A) (A) (A) (A) (A) (A) (A)
                 (A) (A) (A) (A) (A) (A)
       Virtual   (A) (A) (A) (A) (A) (A) (A) (A) (A) (A) (A) (A)
                 (A) (A) (A) (A) (A) (A) (A) (A) (A) (A) (A) (A)
                 (A) (A) (A) (A) (A) (A) (A) (A) (A) (A) (A) (A)
                 (A) (A) (A) (A) (A) (A) (A) (A) (A) (A) (A) (A)
                 (A) (A) (A) (A) (A) (A) (A) (A) (A) (A) (A) (A)
                 (A) (A) (A) (A) (A) (A) (A) (A) (A) (A) (A) (A)
                 (A) (A) (A) (A) (A) (A) (A) (A) (A) (A) (A) (A)
                 (A) (A) (A) (A) (A) (A) (A) (A) (A) (A) (A) (A)
                 (A) (A) (A) (A) (A) (A) (A) (A) (A) (A) (A) (A)
                 (A) (A) (A) (A) (A) (A) (A) (A) (A) (A) (A) (A)
                 (A) (A) (A) (A) (A) (A) (A) (A) (A) (A) (A) (A)
                 (A) (A) (A) (A) (A) (A) (A) (A) (A) (A) (A) (A)
                 (A) (A) (A) (A) (A) (A) (A) (A) (A) (A) (A) (A)
                 (A) (A) (A) (A) (A) (A) (A) (A) (A) (A) (A) (A)
                 (A) (A) (A) (A) (A) (A) (A) (A) (A) (A) (A)
 The electronic state of the initial guess is 1-A.
 Leave Link  401 at Thu May 14 00:55:46 2020, MaxMem= 1073741824 cpu:       3.8
 (Enter /home/matheus/.gaussian/g09/l502.exe)
 Closed shell SCF:
 Requested convergence on RMS density matrix=1.00D-08 within 128 cycles.
 Requested convergence on MAX density matrix=1.00D-06.
 Requested convergence on             energy=1.00D-06.
 No special actions if energy rises.
 Using DIIS extrapolation, IDIIS=  1040.
 Integral symmetry usage will be decided dynamically.
       126521 words used for storage of precomputed grid.
 IEnd=      305468 IEndB=      305468 NGot=  1073741824 MDV=  1073505667
 LenX=  1073505667 LenY=  1073452785
 Fock matrices will be formed incrementally for  20 cycles.

 Cycle   1  Pass 1  IDiag  1:
 FoFJK:  IHMeth= 1 ICntrl=     0 DoSepK=T KAlg= 1 I1Cent= 0 FoldK=F
 FoFCou: FMM=F IPFlag=           0 FMFlag=      100000 FMFlg1=           0
         NFxFlg=           0 DoJE=T BraDBF=F KetDBF=F FulRan=T
         Omega=  0.000000  0.000000  1.000000  0.000000  0.000000 ICntrl=     500 IOpCl=  0
         NMat0=    1 NMatS0=    1 NMatT0=    0 NMatD0=    1 NMtDS0=    0 NMtDT0=    0
         I1Cent=           0 NGrid=           0.
 Symmetry not used in FoFCou.
 E= -2753.33340481378    
 DIIS: error= 3.03D-02 at cycle   1 NSaved=   1.
 NSaved= 1 IEnMin= 1 EnMin= -2753.33340481378     IErMin= 1 ErrMin= 3.03D-02
 ErrMax= 3.03D-02 EMaxC= 1.00D-01 BMatC= 2.63D-01 BMatP= 2.63D-01
 IDIUse=3 WtCom= 6.97D-01 WtEn= 3.03D-01
 Coeff-Com:  0.100D+01
 Coeff-En:   0.100D+01
 Coeff:      0.100D+01
 Gap=     0.618 Goal=   None    Shift=    0.000
 GapD=    0.618 DampG=2.000 DampE=0.500 DampFc=1.0000 IDamp=-1.
 RMSDP=2.51D-03 MaxDP=1.56D-01              OVMax= 1.05D-01

 Cycle   2  Pass 1  IDiag  1:
 RMSU=  1.72D-03    CP:  1.03D+00
 FoFJK:  IHMeth= 1 ICntrl=     0 DoSepK=T KAlg= 1 I1Cent= 0 FoldK=F
 E= -2753.38941110838     Delta-E=       -0.056006294608 Rises=F Damp=F
 DIIS: error= 1.34D-02 at cycle   2 NSaved=   2.
 NSaved= 2 IEnMin= 2 EnMin= -2753.38941110838     IErMin= 2 ErrMin= 1.34D-02
 ErrMax= 1.34D-02 EMaxC= 1.00D-01 BMatC= 8.87D-02 BMatP= 2.63D-01
 IDIUse=3 WtCom= 8.66D-01 WtEn= 1.34D-01
 Coeff-Com:  0.365D+00 0.635D+00
 Coeff-En:   0.131D+00 0.869D+00
 Coeff:      0.333D+00 0.667D+00
 Gap=     0.539 Goal=   None    Shift=    0.000
 RMSDP=9.89D-04 MaxDP=6.20D-02 DE=-5.60D-02 OVMax= 3.12D-02

 Cycle   3  Pass 1  IDiag  1:
 RMSU=  1.72D-04    CP:  1.02D+00  6.17D-01
 FoFJK:  IHMeth= 1 ICntrl=     0 DoSepK=T KAlg= 1 I1Cent= 0 FoldK=F
 E= -2753.41754551713     Delta-E=       -0.028134408747 Rises=F Damp=F
 DIIS: error= 1.04D-03 at cycle   3 NSaved=   3.
 NSaved= 3 IEnMin= 3 EnMin= -2753.41754551713     IErMin= 3 ErrMin= 1.04D-03
 ErrMax= 1.04D-03 EMaxC= 1.00D-01 BMatC= 5.15D-04 BMatP= 8.87D-02
 IDIUse=3 WtCom= 9.90D-01 WtEn= 1.04D-02
 Coeff-Com: -0.628D-02 0.584D-01 0.948D+00
 Coeff-En:   0.000D+00 0.000D+00 0.100D+01
 Coeff:     -0.621D-02 0.578D-01 0.948D+00
 Gap=     0.538 Goal=   None    Shift=    0.000
 RMSDP=9.41D-05 MaxDP=4.91D-03 DE=-2.81D-02 OVMax= 3.19D-03

 Cycle   4  Pass 1  IDiag  1:
 RMSU=  3.83D-05    CP:  1.02D+00  6.45D-01  1.14D+00
 FoFJK:  IHMeth= 1 ICntrl=     0 DoSepK=T KAlg= 1 I1Cent= 0 FoldK=F
 E= -2753.41770967671     Delta-E=       -0.000164159575 Rises=F Damp=F
 DIIS: error= 8.98D-05 at cycle   4 NSaved=   4.
 NSaved= 4 IEnMin= 4 EnMin= -2753.41770967671     IErMin= 4 ErrMin= 8.98D-05
 ErrMax= 8.98D-05 EMaxC= 1.00D-01 BMatC= 2.05D-06 BMatP= 5.15D-04
 IDIUse=1 WtCom= 1.00D+00 WtEn= 0.00D+00
 Coeff-Com: -0.140D-02 0.304D-03-0.653D-02 0.101D+01
 Coeff:     -0.140D-02 0.304D-03-0.653D-02 0.101D+01
 Gap=     0.539 Goal=   None    Shift=    0.000
 RMSDP=1.36D-05 MaxDP=5.51D-04 DE=-1.64D-04 OVMax= 9.22D-04

 Cycle   5  Pass 1  IDiag  1:
 RMSU=  5.86D-06    CP:  1.02D+00  6.47D-01  1.18D+00  1.05D+00
 FoFJK:  IHMeth= 1 ICntrl=     0 DoSepK=T KAlg= 1 I1Cent= 0 FoldK=F
 E= -2753.41771364950     Delta-E=       -0.000003972796 Rises=F Damp=F
 DIIS: error= 2.29D-05 at cycle   5 NSaved=   5.
 NSaved= 5 IEnMin= 5 EnMin= -2753.41771364950     IErMin= 5 ErrMin= 2.29D-05
 ErrMax= 2.29D-05 EMaxC= 1.00D-01 BMatC= 1.60D-07 BMatP= 2.05D-06
 IDIUse=1 WtCom= 1.00D+00 WtEn= 0.00D+00
 Coeff-Com: -0.571D-04-0.385D-02-0.336D-01-0.711D-01 0.111D+01
 Coeff:     -0.571D-04-0.385D-02-0.336D-01-0.711D-01 0.111D+01
 Gap=     0.539 Goal=   None    Shift=    0.000
 RMSDP=4.51D-06 MaxDP=1.82D-04 DE=-3.97D-06 OVMax= 1.98D-04

 Cycle   6  Pass 1  IDiag  1:
 RMSU=  3.42D-07    CP:  1.02D+00  6.47D-01  1.19D+00  1.10D+00  1.15D+00
 FoFJK:  IHMeth= 1 ICntrl=     0 DoSepK=T KAlg= 1 I1Cent= 0 FoldK=F
 E= -2753.41771385880     Delta-E=       -0.000000209294 Rises=F Damp=F
 DIIS: error= 6.64D-07 at cycle   6 NSaved=   6.
 NSaved= 6 IEnMin= 6 EnMin= -2753.41771385880     IErMin= 6 ErrMin= 6.64D-07
 ErrMax= 6.64D-07 EMaxC= 1.00D-01 BMatC= 1.04D-10 BMatP= 1.60D-07
 IDIUse=1 WtCom= 1.00D+00 WtEn= 0.00D+00
 Coeff-Com:  0.708D-05 0.299D-03 0.291D-02-0.590D-03-0.727D-01 0.107D+01
 Coeff:      0.708D-05 0.299D-03 0.291D-02-0.590D-03-0.727D-01 0.107D+01
 Gap=     0.539 Goal=   None    Shift=    0.000
 RMSDP=1.44D-07 MaxDP=5.06D-06 DE=-2.09D-07 OVMax= 6.28D-06

 Cycle   7  Pass 1  IDiag  1:
 RMSU=  2.49D-08    CP:  1.02D+00  6.47D-01  1.19D+00  1.10D+00  1.16D+00
                    CP:  1.17D+00
 FoFJK:  IHMeth= 1 ICntrl=     0 DoSepK=T KAlg= 1 I1Cent= 0 FoldK=F
 E= -2753.41771385889     Delta-E=       -0.000000000091 Rises=F Damp=F
 DIIS: error= 1.04D-07 at cycle   7 NSaved=   7.
 NSaved= 7 IEnMin= 7 EnMin= -2753.41771385889     IErMin= 7 ErrMin= 1.04D-07
 ErrMax= 1.04D-07 EMaxC= 1.00D-01 BMatC= 3.48D-12 BMatP= 1.04D-10
 IDIUse=1 WtCom= 1.00D+00 WtEn= 0.00D+00
 Coeff-Com:  0.114D-05 0.667D-04 0.597D-03 0.911D-03-0.188D-01 0.884D-01
 Coeff-Com:  0.929D+00
 Coeff:      0.114D-05 0.667D-04 0.597D-03 0.911D-03-0.188D-01 0.884D-01
 Coeff:      0.929D+00
 Gap=     0.539 Goal=   None    Shift=    0.000
 RMSDP=1.50D-08 MaxDP=5.52D-07 DE=-9.09D-11 OVMax= 9.04D-07

 Cycle   8  Pass 1  IDiag  1:
 RMSU=  5.59D-09    CP:  1.02D+00  6.47D-01  1.19D+00  1.10D+00  1.16D+00
                    CP:  1.19D+00  1.06D+00
 FoFJK:  IHMeth= 1 ICntrl=     0 DoSepK=T KAlg= 1 I1Cent= 0 FoldK=F
 E= -2753.41771385888     Delta-E=        0.000000000005 Rises=F Damp=F
 DIIS: error= 2.64D-08 at cycle   8 NSaved=   8.
 NSaved= 8 IEnMin= 7 EnMin= -2753.41771385889     IErMin= 8 ErrMin= 2.64D-08
 ErrMax= 2.64D-08 EMaxC= 1.00D-01 BMatC= 2.30D-13 BMatP= 3.48D-12
 IDIUse=1 WtCom= 1.00D+00 WtEn= 0.00D+00
 Coeff-Com: -0.340D-06-0.115D-04-0.120D-03 0.196D-03 0.221D-02-0.568D-01
 Coeff-Com:  0.120D+00 0.934D+00
 Coeff:     -0.340D-06-0.115D-04-0.120D-03 0.196D-03 0.221D-02-0.568D-01
 Coeff:      0.120D+00 0.934D+00
 Gap=     0.539 Goal=   None    Shift=    0.000
 RMSDP=3.74D-09 MaxDP=1.43D-07 DE= 4.55D-12 OVMax= 2.09D-07

 SCF Done:  E(RLC-B+HF-LYP) =  -2753.41771386     A.U. after    8 cycles
             Convg  =    0.3738D-08             -V/T =  2.0015
 KE= 2.749302698827D+03 PE=-6.578512258914D+03 EE= 1.075791846228D+03
 Leave Link  502 at Thu May 14 00:56:11 2020, MaxMem= 1073741824 cpu:     201.0
 (Enter /home/matheus/.gaussian/g09/l601.exe)
 Copying SCF densities to generalized density rwf, IOpCl= 0 IROHF=0.

 **********************************************************************

            Population analysis using the SCF density.

 **********************************************************************

 Orbital symmetries:
       Occupied  (A) (A) (A) (A) (A) (A) (A) (A) (A) (A) (A) (A)
                 (A) (A) (A) (A) (A) (A)
       Virtual   (A) (A) (A) (A) (A) (A) (A) (A) (A) (A) (A) (A)
                 (A) (A) (A) (A) (A) (A) (A) (A) (A) (A) (A) (A)
                 (A) (A) (A) (A) (A) (A) (A) (A) (A) (A) (A) (A)
                 (A) (A) (A) (A) (A) (A) (A) (A) (A) (A) (A) (A)
                 (A) (A) (A) (A) (A) (A) (A) (A) (A) (A) (A) (A)
                 (A) (A) (A) (A) (A) (A) (A) (A) (A) (A) (A) (A)
                 (A) (A) (A) (A) (A) (A) (A) (A) (A) (A) (A) (A)
                 (A) (A) (A) (A) (A) (A) (A) (A) (A) (A) (A) (A)
                 (A) (A) (A) (A) (A) (A) (A) (A) (A) (A) (A) (A)
                 (A) (A) (A) (A) (A) (A) (A) (A) (A) (A) (A) (A)
                 (A) (A) (A) (A) (A) (A) (A) (A) (A) (A) (A) (A)
                 (A) (A) (A) (A) (A) (A) (A) (A) (A) (A) (A) (A)
                 (A) (A) (A) (A) (A) (A) (A) (A) (A) (A) (A) (A)
                 (A) (A) (A) (A) (A) (A) (A) (A) (A) (A) (A) (A)
                 (A) (A) (A) (A) (A) (A) (A) (A) (A) (A) (A)
 The electronic state is 1-A.
 Alpha  occ. eigenvalues -- -511.24384 -66.71360 -60.39884 -60.39881 -60.39880
 Alpha  occ. eigenvalues --   -9.60493  -7.35947  -7.35945  -7.35944  -3.32283
 Alpha  occ. eigenvalues --   -3.32283  -3.32282  -3.32281  -3.32281  -1.06078
 Alpha  occ. eigenvalues --   -0.51291  -0.51288  -0.51285
 Alpha virt. eigenvalues --    0.02615   0.04756   0.07763   0.08920   0.11433
 Alpha virt. eigenvalues --    0.12438   0.13070   0.13202   0.15494   0.16743
 Alpha virt. eigenvalues --    0.17264   0.18253   0.20410   0.25308   0.26279
 Alpha virt. eigenvalues --    0.26494   0.29132   0.31236   0.33013   0.36495
 Alpha virt. eigenvalues --    0.36709   0.37968   0.38589   0.39612   0.41243
 Alpha virt. eigenvalues --    0.41316   0.44900   0.53259   0.55887   0.58219
 Alpha virt. eigenvalues --    0.61667   0.64178   0.68370   0.69592   0.71675
 Alpha virt. eigenvalues --    0.72093   0.73692   0.76126   0.76616   0.77895
 Alpha virt. eigenvalues --    0.79016   0.82636   0.84604   0.85437   0.88096
 Alpha virt. eigenvalues --    0.88693   0.89550   0.91120   0.92700   0.96959
 Alpha virt. eigenvalues --    0.98615   0.99472   1.00275   1.01526   1.03111
 Alpha virt. eigenvalues --    1.06011   1.07855   1.09347   1.14199   1.15920
 Alpha virt. eigenvalues --    1.19647   1.22405   1.28395   1.33536   1.36782
 Alpha virt. eigenvalues --    1.38885   1.41020   1.45327   1.47403   1.51986
 Alpha virt. eigenvalues --    1.57189   1.59674   1.60973   1.73375   1.76002
 Alpha virt. eigenvalues --    1.83084   1.83912   1.86530   1.88738   2.16702
 Alpha virt. eigenvalues --    2.22233   2.24303   2.25321   2.29143   2.33292
 Alpha virt. eigenvalues --    2.34535   2.36197   2.36544   2.37895   2.41830
 Alpha virt. eigenvalues --    2.44214   2.46858   2.49774   2.52588   2.53230
 Alpha virt. eigenvalues --    2.54177   2.55079   2.59494   2.60599   2.61476
 Alpha virt. eigenvalues --    2.63740   2.65676   2.67647   2.70001   2.71983
 Alpha virt. eigenvalues --    2.75563   2.79946   2.83314   2.88922   2.91759
 Alpha virt. eigenvalues --    2.95041   2.98682   3.04450   3.10413   3.18929
 Alpha virt. eigenvalues --    3.23586   3.25956   3.30354   3.40526   3.48271
 Alpha virt. eigenvalues --    3.60157   3.64300   3.84456   3.87115   4.01485
 Alpha virt. eigenvalues --    4.42707   4.45859   4.51779   4.57289   4.68558
 Alpha virt. eigenvalues --    4.70329   4.84719   4.87885   4.96521   5.02578
 Alpha virt. eigenvalues --    5.14759   5.22315   5.58101   5.59468   5.72776
 Alpha virt. eigenvalues --    5.96324   6.01333   6.12736   6.74283   6.88323
 Alpha virt. eigenvalues --    7.32652   7.35962   7.63555   7.68299   7.76145
 Alpha virt. eigenvalues --    7.84998   8.00526   8.13514   8.18087   8.25939
 Alpha virt. eigenvalues --    8.26361   8.40846   8.67220   8.96308   9.51029
 Alpha virt. eigenvalues --    9.71824   9.80166   9.89471   9.92708   9.93805
 Alpha virt. eigenvalues --   10.18758  10.21494  10.63967  10.89196  11.51692
 Alpha virt. eigenvalues --   11.61809  11.70314  11.96483  12.00896  13.23845
 Alpha virt. eigenvalues --   13.61357  14.53282  62.42040  64.71377
          Condensed to atoms (all electrons):
              1          2          3          4          5
     1  O    0.001269  -0.000282  -0.000931   0.000431  -0.007700
     2  O   -0.000282   0.003026   0.000186  -0.002369  -0.005640
     3  H   -0.000931   0.000186   0.001360  -0.000202  -0.009477
     4  H    0.000431  -0.002369  -0.000202   0.002697  -0.011324
     5  Kr  -0.007700  -0.005640  -0.009477  -0.011324  36.066264
 Mulliken atomic charges:
              1
     1  O    0.007212
     2  O    0.005079
     3  H    0.009065
     4  H    0.010767
     5  Kr  -0.032123
 Sum of Mulliken atomic charges =   0.00000
 Mulliken charges with hydrogens summed into heavy atoms:
              1
     1  O    0.016277
     2  O    0.015846
     5  Kr  -0.032123
 Sum of Mulliken charges with hydrogens summed into heavy atoms =   0.00000
          Condensed to fragments (all electrons):
     1       0.032123
     2      -0.032123
 Electronic spatial extent (au):  <R**2>=            160.1364
 Charge=              0.0000 electrons
 Dipole moment (field-independent basis, Debye):
    X=             -0.0020    Y=              0.0001    Z=              0.0000  Tot=              0.0020
 Quadrupole moment (field-independent basis, Debye-Ang):
   XX=            -17.7459   YY=            -17.7554   ZZ=            -17.7646
   XY=             -0.0009   XZ=             -0.0025   YZ=             -0.0014
 Traceless Quadrupole moment (field-independent basis, Debye-Ang):
   XX=              0.0094   YY=             -0.0001   ZZ=             -0.0093
   XY=             -0.0009   XZ=             -0.0025   YZ=             -0.0014
 Octapole moment (field-independent basis, Debye-Ang**2):
  XXX=            -51.5459  YYY=              0.0639  ZZZ=              0.1683  XYY=            -17.1962
  XXY=              0.0194  XXZ=              0.0524  XZZ=            -17.2018  YZZ=              0.0217
  YYZ=              0.0565  XYZ=             -0.0004
 Hexadecapole moment (field-independent basis, Debye-Ang**3):
 XXXX=           -118.7200 YYYY=            -18.9309 ZZZZ=            -18.9591 XXXY=              0.0588
 XXXZ=              0.1557 YYYX=              0.0595 YYYZ=             -0.0005 ZZZX=              0.1569
 ZZZY=             -0.0027 XXYY=            -22.9527 XXZZ=            -22.9617 YYZZ=             -6.3139
 XXYZ=             -0.0009 YYXZ=              0.0528 ZZXY=              0.0189
 N-N= 0.000000000000D+00 E-N=-6.578512256713D+03  KE= 2.749302698827D+03
 No NMR shielding tensors so no spin-rotation constants.
 Leave Link  601 at Thu May 14 00:56:11 2020, MaxMem= 1073741824 cpu:       0.8
 (Enter /home/matheus/.gaussian/g09/l122.exe)
 Counterpoise: doing MCBS calculation for fragment   1
 Leave Link  122 at Thu May 14 00:56:11 2020, MaxMem= 1073741824 cpu:       0.0
 (Enter /home/matheus/.gaussian/g09/l301.exe)
 Basis read from rwf:  (5D, 7F)
 No pseudopotential information found on rwf file.
 There are   138 symmetry adapted basis functions of A   symmetry.
 Integral buffers will be    131072 words long.
 Raffenetti 2 integral format.
 Two-electron integral symmetry is turned on.
   138 basis functions,   198 primitive gaussians,   160 cartesian basis functions
     9 alpha electrons        9 beta electrons
       nuclear repulsion energy        36.6600463863 Hartrees.
 IExCor=10402 DFT=T Ex=LC-B+HF Corr=LYP ExCW=0 ScaHFX=  1.000000
 ScaDFX=  1.000000  1.000000  1.000000  1.000000 ScalE2=  1.000000  1.000000
 IRadAn=      5 IRanWt=     -1 IRanGd=            0 ICorTp=0
  HFx wShort=  0.000000 wLong=  0.470000 cFull=  0.000000 cShort=  0.000000 cLong=  1.000000
  DFx wShort=  0.000000 wLong=  0.470000 cFull=  0.000000 cShort=  0.000000 cLong=  1.000000
 NAtoms=    5 NActive=    4 NUniq=    4 SFac= 1.00D+00 NAtFMM=   60 NAOKFM=F Big=F
 No density basis found on file   718.
 Leave Link  301 at Thu May 14 00:56:11 2020, MaxMem= 1073741824 cpu:       0.2
 (Enter /home/matheus/.gaussian/g09/l302.exe)
 NPDir=0 NMtPBC=     1 NCelOv=     1 NCel=       1 NClECP=     1 NCelD=      1
         NCelK=      1 NCelE2=     1 NClLst=     1 CellRange=     0.0.
 One-electron integrals computed using PRISM.
 NBasis=   138 RedAO= T  NBF=   138
 NBsUse=   138 1.00D-06 NBFU=   138
 Precomputing XC quadrature grid using
 IXCGrd= 2 IRadAn=           5 IRanWt=          -1 IRanGd=           0 AccXCQ= 0.00D+00.
 NRdTot=     344 NPtTot=       92556 NUsed=       95038 NTot=       95070
 NSgBfM=   160   160   160   160   160 NAtAll=     4     4.
 Leave Link  302 at Thu May 14 00:56:11 2020, MaxMem= 1073741824 cpu:       0.8
 (Enter /home/matheus/.gaussian/g09/l303.exe)
 DipDrv:  MaxL=1.
 Leave Link  303 at Thu May 14 00:56:11 2020, MaxMem= 1073741824 cpu:       0.1
 (Enter /home/matheus/.gaussian/g09/l401.exe)
 Harris functional with IExCor=10402 diagonalized for initial guess.
 ExpMin= 2.53D-02 ExpMax= 1.53D+04 ExpMxC= 5.22D+02 IAcc=3 IRadAn=         5 AccDes= 0.00D+00
 HarFok:  IExCor=10402 AccDes= 0.00D+00 IRadAn=         5 IDoV= 1
 ScaDFX=  1.000000  1.000000  1.000000  1.000000
 FoFCou: FMM=F IPFlag=           0 FMFlag=      100000 FMFlg1=           0
         NFxFlg=           0 DoJE=T BraDBF=F KetDBF=T FulRan=T
         Omega=  0.000000  0.000000  1.000000  0.000000  0.000000 ICntrl=     500 IOpCl=  0
         NMat0=    1 NMatS0=    1 NMatT0=    0 NMatD0=    1 NMtDS0=    0 NMtDT0=    0
         I1Cent=           4 NGrid=           0.
 Petite list used in FoFCou.
 Harris En= -147.162454823030    
 Initial guess orbital symmetries:
       Occupied  (A) (A) (A) (A) (A) (A) (A) (A) (A)
       Virtual   (A) (A) (A) (A) (A) (A) (A) (A) (A) (A) (A) (A)
                 (A) (A) (A) (A) (A) (A) (A) (A) (A) (A) (A) (A)
                 (A) (A) (A) (A) (A) (A) (A) (A) (A) (A) (A) (A)
                 (A) (A) (A) (A) (A) (A) (A) (A) (A) (A) (A) (A)
                 (A) (A) (A) (A) (A) (A) (A) (A) (A) (A) (A) (A)
                 (A) (A) (A) (A) (A) (A) (A) (A) (A) (A) (A) (A)
                 (A) (A) (A) (A) (A) (A) (A) (A) (A) (A) (A) (A)
                 (A) (A) (A) (A) (A) (A) (A) (A) (A) (A) (A) (A)
                 (A) (A) (A) (A) (A) (A) (A) (A) (A) (A) (A) (A)
                 (A) (A) (A) (A) (A) (A) (A) (A) (A) (A) (A) (A)
                 (A) (A) (A) (A) (A) (A) (A) (A) (A)
 The electronic state of the initial guess is 1-A.
 Leave Link  401 at Thu May 14 00:56:11 2020, MaxMem= 1073741824 cpu:       2.1
 (Enter /home/matheus/.gaussian/g09/l502.exe)
 Closed shell SCF:
 Requested convergence on RMS density matrix=1.00D-08 within 128 cycles.
 Requested convergence on MAX density matrix=1.00D-06.
 Requested convergence on             energy=1.00D-06.
 No special actions if energy rises.
 Using DIIS extrapolation, IDIIS=  1040.
 Integral symmetry usage will be decided dynamically.
        94980 words used for storage of precomputed grid.
 IEnd=      192360 IEndB=      192360 NGot=  1073741824 MDV=  1073591865
 LenX=  1073591865 LenY=  1073565824
 Fock matrices will be formed incrementally for  20 cycles.

 Cycle   1  Pass 1  IDiag  1:
 FoFJK:  IHMeth= 1 ICntrl=     0 DoSepK=T KAlg= 1 I1Cent= 0 FoldK=F
 FoFCou: FMM=F IPFlag=           0 FMFlag=      100000 FMFlg1=           0
         NFxFlg=           0 DoJE=T BraDBF=F KetDBF=F FulRan=T
         Omega=  0.000000  0.000000  1.000000  0.000000  0.000000 ICntrl=     500 IOpCl=  0
         NMat0=    1 NMatS0=    1 NMatT0=    0 NMatD0=    1 NMtDS0=    0 NMtDT0=    0
         I1Cent=           0 NGrid=           0.
 Symmetry not used in FoFCou.
 E= -151.295297764534    
 DIIS: error= 1.41D-02 at cycle   1 NSaved=   1.
 NSaved= 1 IEnMin= 1 EnMin= -151.295297764534     IErMin= 1 ErrMin= 1.41D-02
 ErrMax= 1.41D-02 EMaxC= 1.00D-01 BMatC= 2.41D-02 BMatP= 2.41D-02
 IDIUse=3 WtCom= 8.59D-01 WtEn= 1.41D-01
 Coeff-Com:  0.100D+01
 Coeff-En:   0.100D+01
 Coeff:      0.100D+01
 Gap=     0.460 Goal=   None    Shift=    0.000
 GapD=    0.460 DampG=2.000 DampE=0.500 DampFc=1.0000 IDamp=-1.
 RMSDP=1.24D-03 MaxDP=3.05D-02              OVMax= 5.64D-02

 Cycle   2  Pass 1  IDiag  1:
 RMSU=  8.78D-04    CP:  1.01D+00
 FoFJK:  IHMeth= 1 ICntrl=     0 DoSepK=T KAlg= 1 I1Cent= 0 FoldK=F
 E= -151.317071423934     Delta-E=       -0.021773659400 Rises=F Damp=F
 DIIS: error= 7.16D-03 at cycle   2 NSaved=   2.
 NSaved= 2 IEnMin= 2 EnMin= -151.317071423934     IErMin= 2 ErrMin= 7.16D-03
 ErrMax= 7.16D-03 EMaxC= 1.00D-01 BMatC= 4.34D-03 BMatP= 2.41D-02
 IDIUse=3 WtCom= 9.28D-01 WtEn= 7.16D-02
 Coeff-Com:  0.249D+00 0.751D+00
 Coeff-En:   0.000D+00 0.100D+01
 Coeff:      0.232D+00 0.768D+00
 Gap=     0.423 Goal=   None    Shift=    0.000
 RMSDP=3.15D-04 MaxDP=6.36D-03 DE=-2.18D-02 OVMax= 1.45D-02

 Cycle   3  Pass 1  IDiag  1:
 RMSU=  2.21D-04    CP:  1.00D+00  1.03D+00
 FoFJK:  IHMeth= 1 ICntrl=     0 DoSepK=T KAlg= 1 I1Cent= 0 FoldK=F
 E= -151.319517118074     Delta-E=       -0.002445694139 Rises=F Damp=F
 DIIS: error= 2.34D-03 at cycle   3 NSaved=   3.
 NSaved= 3 IEnMin= 3 EnMin= -151.319517118074     IErMin= 3 ErrMin= 2.34D-03
 ErrMax= 2.34D-03 EMaxC= 1.00D-01 BMatC= 5.20D-04 BMatP= 4.34D-03
 IDIUse=3 WtCom= 9.77D-01 WtEn= 2.34D-02
 Coeff-Com:  0.230D-01 0.243D+00 0.734D+00
 Coeff-En:   0.000D+00 0.000D+00 0.100D+01
 Coeff:      0.225D-01 0.237D+00 0.740D+00
 Gap=     0.433 Goal=   None    Shift=    0.000
 RMSDP=1.42D-04 MaxDP=3.58D-03 DE=-2.45D-03 OVMax= 7.39D-03

 Cycle   4  Pass 1  IDiag  1:
 RMSU=  7.45D-05    CP:  1.00D+00  1.11D+00  9.52D-01
 FoFJK:  IHMeth= 1 ICntrl=     0 DoSepK=T KAlg= 1 I1Cent= 0 FoldK=F
 E= -151.319906366926     Delta-E=       -0.000389248852 Rises=F Damp=F
 DIIS: error= 5.62D-04 at cycle   4 NSaved=   4.
 NSaved= 4 IEnMin= 4 EnMin= -151.319906366926     IErMin= 4 ErrMin= 5.62D-04
 ErrMax= 5.62D-04 EMaxC= 1.00D-01 BMatC= 4.72D-05 BMatP= 5.20D-04
 IDIUse=3 WtCom= 9.94D-01 WtEn= 5.62D-03
 Coeff-Com: -0.216D-01-0.332D-01 0.189D+00 0.866D+00
 Coeff-En:   0.000D+00 0.000D+00 0.000D+00 0.100D+01
 Coeff:     -0.214D-01-0.330D-01 0.188D+00 0.867D+00
 Gap=     0.430 Goal=   None    Shift=    0.000
 RMSDP=6.22D-05 MaxDP=1.52D-03 DE=-3.89D-04 OVMax= 1.83D-03

 Cycle   5  Pass 1  IDiag  1:
 RMSU=  1.46D-05    CP:  1.00D+00  1.13D+00  1.10D+00  1.06D+00
 FoFJK:  IHMeth= 1 ICntrl=     0 DoSepK=T KAlg= 1 I1Cent= 0 FoldK=F
 E= -151.319946937944     Delta-E=       -0.000040571018 Rises=F Damp=F
 DIIS: error= 6.69D-05 at cycle   5 NSaved=   5.
 NSaved= 5 IEnMin= 5 EnMin= -151.319946937944     IErMin= 5 ErrMin= 6.69D-05
 ErrMax= 6.69D-05 EMaxC= 1.00D-01 BMatC= 3.93D-07 BMatP= 4.72D-05
 IDIUse=1 WtCom= 1.00D+00 WtEn= 0.00D+00
 Coeff-Com:  0.701D-03-0.372D-02-0.385D-01-0.792D-01 0.112D+01
 Coeff:      0.701D-03-0.372D-02-0.385D-01-0.792D-01 0.112D+01
 Gap=     0.430 Goal=   None    Shift=    0.000
[...]

 Cycle   1  Pass 1  IDiag  1:
 FoFJK:  IHMeth= 1 ICntrl=     0 DoSepK=T KAlg= 1 I1Cent= 0 FoldK=F
 FoFCou: FMM=F IPFlag=           0 FMFlag=      100000 FMFlg1=           0
         NFxFlg=           0 DoJE=T BraDBF=F KetDBF=F FulRan=T
         Omega=  0.000000  0.000000  1.000000  0.000000  0.000000 ICntrl=     500 IOpCl=  0
         NMat0=    1 NMatS0=    1 NMatT0=    0 NMatD0=    1 NMtDS0=    0 NMtDT0=    0
         I1Cent=           0 NGrid=           0.
 Symmetry not used in FoFCou.
 E= -2753.41756285831    
 DIIS: error= 2.10D-04 at cycle   1 NSaved=   1.
 NSaved= 1 IEnMin= 1 EnMin= -2753.41756285831     IErMin= 1 ErrMin= 2.10D-04
 ErrMax= 2.10D-04 EMaxC= 1.00D-01 BMatC= 5.90D-06 BMatP= 5.90D-06
 IDIUse=3 WtCom= 9.98D-01 WtEn= 2.10D-03
 Coeff-Com:  0.100D+01
 Coeff-En:   0.100D+01
 Coeff:      0.100D+01
 Gap=     0.540 Goal=   None    Shift=    0.000
 RMSDP=1.23D-05 MaxDP=4.98D-04              OVMax= 3.40D-04

 Cycle   2  Pass 1  IDiag  1:
 RMSU=  8.72D-06    CP:  1.00D+00
 FoFJK:  IHMeth= 1 ICntrl=     0 DoSepK=T KAlg= 1 I1Cent= 0 FoldK=F
 E= -2753.41756354375     Delta-E=       -0.000000685446 Rises=F Damp=F
 DIIS: error= 5.67D-06 at cycle   2 NSaved=   2.
 NSaved= 2 IEnMin= 2 EnMin= -2753.41756354375     IErMin= 2 ErrMin= 5.67D-06
 ErrMax= 5.67D-06 EMaxC= 1.00D-01 BMatC= 4.58D-09 BMatP= 5.90D-06
 IDIUse=1 WtCom= 1.00D+00 WtEn= 0.00D+00
 Coeff-Com: -0.855D-02 0.101D+01
 Coeff:     -0.855D-02 0.101D+01
 Gap=     0.539 Goal=   None    Shift=    0.000
 RMSDP=1.12D-06 MaxDP=4.73D-05 DE=-6.85D-07 OVMax= 5.15D-05

 Cycle   3  Pass 1  IDiag  1:
 RMSU=  4.76D-07    CP:  1.00D+00  1.07D+00
 FoFJK:  IHMeth= 1 ICntrl=     0 DoSepK=T KAlg= 1 I1Cent= 0 FoldK=F
 E= -2753.41756355172     Delta-E=       -0.000000007961 Rises=F Damp=F
 DIIS: error= 9.12D-07 at cycle   3 NSaved=   3.
 NSaved= 3 IEnMin= 3 EnMin= -2753.41756355172     IErMin= 3 ErrMin= 9.12D-07
 ErrMax= 9.12D-07 EMaxC= 1.00D-01 BMatC= 1.63D-10 BMatP= 4.58D-09
 IDIUse=1 WtCom= 1.00D+00 WtEn= 0.00D+00
 Coeff-Com: -0.648D-04-0.773D-01 0.108D+01
 Coeff:     -0.648D-04-0.773D-01 0.108D+01
 Gap=     0.539 Goal=   None    Shift=    0.000
 RMSDP=1.65D-07 MaxDP=5.74D-06 DE=-7.96D-09 OVMax= 1.01D-05

 Cycle   4  Pass 1  IDiag  1:
 RMSU=  5.96D-08    CP:  1.00D+00  1.08D+00  1.20D+00
 FoFJK:  IHMeth= 1 ICntrl=     0 DoSepK=T KAlg= 1 I1Cent= 0 FoldK=F
 E= -2753.41756355198     Delta-E=       -0.000000000266 Rises=F Damp=F
 DIIS: error= 4.51D-07 at cycle   4 NSaved=   4.
 NSaved= 4 IEnMin= 4 EnMin= -2753.41756355198     IErMin= 4 ErrMin= 4.51D-07
 ErrMax= 4.51D-07 EMaxC= 1.00D-01 BMatC= 3.77D-11 BMatP= 1.63D-10
 IDIUse=1 WtCom= 1.00D+00 WtEn= 0.00D+00
 Coeff-Com:  0.265D-03-0.588D-01 0.357D+00 0.701D+00
 Coeff:      0.265D-03-0.588D-01 0.357D+00 0.701D+00
 Gap=     0.539 Goal=   None    Shift=    0.000
 RMSDP=2.79D-08 MaxDP=1.10D-06 DE=-2.66D-10 OVMax= 1.44D-06

 Cycle   5  Pass 1  IDiag  1:
 RMSU=  1.45D-08    CP:  1.00D+00  1.08D+00  1.22D+00  1.04D+00
 FoFJK:  IHMeth= 1 ICntrl=     0 DoSepK=T KAlg= 1 I1Cent= 0 FoldK=F
 E= -2753.41756355201     Delta-E=       -0.000000000024 Rises=F Damp=F
 DIIS: error= 5.00D-08 at cycle   5 NSaved=   5.
 NSaved= 5 IEnMin= 5 EnMin= -2753.41756355201     IErMin= 5 ErrMin= 5.00D-08
 ErrMax= 5.00D-08 EMaxC= 1.00D-01 BMatC= 2.63D-13 BMatP= 3.77D-11
 IDIUse=1 WtCom= 1.00D+00 WtEn= 0.00D+00
 Coeff-Com: -0.103D-04 0.481D-02-0.491D-01-0.309D-01 0.108D+01
 Coeff:     -0.103D-04 0.481D-02-0.491D-01-0.309D-01 0.108D+01
 Gap=     0.539 Goal=   None    Shift=    0.000
 RMSDP=1.05D-08 MaxDP=4.35D-07 DE=-2.36D-11 OVMax= 5.05D-07

 Cycle   6  Pass 1  IDiag  1:
 RMSU=  1.49D-09    CP:  1.00D+00  1.08D+00  1.23D+00  1.12D+00  1.17D+00
 FoFJK:  IHMeth= 1 ICntrl=     0 DoSepK=T KAlg= 1 I1Cent= 0 FoldK=F
 E= -2753.41756355200     Delta-E=        0.000000000002 Rises=F Damp=F
 DIIS: error= 1.43D-08 at cycle   6 NSaved=   6.
 NSaved= 6 IEnMin= 5 EnMin= -2753.41756355201     IErMin= 6 ErrMin= 1.43D-08
 ErrMax= 1.43D-08 EMaxC= 1.00D-01 BMatC= 1.69D-14 BMatP= 2.63D-13
 IDIUse=1 WtCom= 1.00D+00 WtEn= 0.00D+00
 Coeff-Com: -0.112D-04 0.302D-02-0.224D-01-0.278D-01 0.215D+00 0.832D+00
 Coeff:     -0.112D-04 0.302D-02-0.224D-01-0.278D-01 0.215D+00 0.832D+00
 Gap=     0.539 Goal=   None    Shift=    0.000
 RMSDP=1.15D-09 MaxDP=4.65D-08 DE= 1.82D-12 OVMax= 8.24D-08

 SCF Done:  E(RLC-B+HF-LYP) =  -2753.41756355     A.U. after    6 cycles
             Convg  =    0.1149D-08             -V/T =  2.0015
 KE= 2.749364498860D+03 PE=-6.578579947242D+03 EE= 1.075797884830D+03
 Leave Link  502 at Thu May 14 01:18:36 2020, MaxMem= 1073741824 cpu:     112.6
 (Enter /home/matheus/.gaussian/g09/l122.exe)
 Restoring MOs from calculation   4 to rwf.
 Counterpoise: doing MCBS calculation for fragment   1
 Leave Link  122 at Thu May 14 01:18:36 2020, MaxMem= 1073741824 cpu:       0.0
 (Enter /home/matheus/.gaussian/g09/l301.exe)
 Basis read from rwf:  (5D, 7F)
 No pseudopotential information found on rwf file.
 There are   138 symmetry adapted basis functions of A   symmetry.
 Integral buffers will be    131072 words long.
 Raffenetti 2 integral format.
 Two-electron integral symmetry is turned on.
   138 basis functions,   198 primitive gaussians,   160 cartesian basis functions
     9 alpha electrons        9 beta electrons
       nuclear repulsion energy        36.6600463863 Hartrees.
 IExCor=10402 DFT=T Ex=LC-B+HF Corr=LYP ExCW=0 ScaHFX=  1.000000
 ScaDFX=  1.000000  1.000000  1.000000  1.000000 ScalE2=  1.000000  1.000000
 IRadAn=      5 IRanWt=     -1 IRanGd=            0 ICorTp=0
  HFx wShort=  0.000000 wLong=  0.470000 cFull=  0.000000 cShort=  0.000000 cLong=  1.000000
  DFx wShort=  0.000000 wLong=  0.470000 cFull=  0.000000 cShort=  0.000000 cLong=  1.000000
 NAtoms=    5 NActive=    4 NUniq=    4 SFac= 1.00D+00 NAtFMM=   60 NAOKFM=F Big=F
 No density basis found on file   718.
 Leave Link  301 at Thu May 14 01:18:36 2020, MaxMem= 1073741824 cpu:       0.2
 (Enter /home/matheus/.gaussian/g09/l302.exe)
 NPDir=0 NMtPBC=     1 NCelOv=     1 NCel=       1 NClECP=     1 NCelD=      1
         NCelK=      1 NCelE2=     1 NClLst=     1 CellRange=     0.0.
 One-electron integrals computed using PRISM.
 NBasis=   138 RedAO= T  NBF=   138
 NBsUse=   138 1.00D-06 NBFU=   138
 Precomputing XC quadrature grid using
 IXCGrd= 2 IRadAn=           5 IRanWt=          -1 IRanGd=           0 AccXCQ= 0.00D+00.
 NRdTot=     344 NPtTot=       92556 NUsed=       95038 NTot=       95070
 NSgBfM=   160   160   160   160   160 NAtAll=     4     4.
 Leave Link  302 at Thu May 14 01:18:36 2020, MaxMem= 1073741824 cpu:       0.8
 (Enter /home/matheus/.gaussian/g09/l303.exe)
 DipDrv:  MaxL=1.
 Leave Link  303 at Thu May 14 01:18:36 2020, MaxMem= 1073741824 cpu:       0.1
 (Enter /home/matheus/.gaussian/g09/l401.exe)
 Initial guess read from the read-write file.
 Guess basis will be translated and rotated to current coordinates.
 Initial guess orbital symmetries:
       Occupied  (A) (A) (A) (A) (A) (A) (A) (A) (A)
       Virtual   (A) (A) (A) (A) (A) (A) (A) (A) (A) (A) (A) (A)
                 (A) (A) (A) (A) (A) (A) (A) (A) (A) (A) (A) (A)
                 (A) (A) (A) (A) (A) (A) (A) (A) (A) (A) (A) (A)
                 (A) (A) (A) (A) (A) (A) (A) (A) (A) (A) (A) (A)
                 (A) (A) (A) (A) (A) (A) (A) (A) (A) (A) (A) (A)
                 (A) (A) (A) (A) (A) (A) (A) (A) (A) (A) (A) (A)
                 (A) (A) (A) (A) (A) (A) (A) (A) (A) (A) (A) (A)
                 (A) (A) (A) (A) (A) (A) (A) (A) (A) (A) (A) (A)
                 (A) (A) (A) (A) (A) (A) (A) (A) (A) (A) (A) (A)
                 (A) (A) (A) (A) (A) (A) (A) (A) (A) (A) (A) (A)
                 (A) (A) (A) (A) (A) (A) (A) (A) (A)
 The electronic state of the initial guess is 1-A.
 Generating alternative initial guess.
 Harris functional with IExCor=10402 diagonalized for initial guess.
 ExpMin= 2.53D-02 ExpMax= 1.53D+04 ExpMxC= 5.22D+02 IAcc=3 IRadAn=         5 AccDes= 0.00D+00
 HarFok:  IExCor=10402 AccDes= 0.00D+00 IRadAn=         5 IDoV= 1
 ScaDFX=  1.000000  1.000000  1.000000  1.000000
 FoFCou: FMM=F IPFlag=           0 FMFlag=      100000 FMFlg1=           0
         NFxFlg=           0 DoJE=T BraDBF=F KetDBF=T FulRan=T
         Omega=  0.000000  0.000000  1.000000  0.000000  0.000000 ICntrl=     500 IOpCl=  0
         NMat0=    1 NMatS0=    1 NMatT0=    0 NMatD0=    1 NMtDS0=    0 NMtDT0=    0
         I1Cent=           4 NGrid=           0.
 Petite list used in FoFCou.
 Harris En= -147.162454824044    
 Leave Link  401 at Thu May 14 01:18:36 2020, MaxMem= 1073741824 cpu:       2.4
 (Enter /home/matheus/.gaussian/g09/l502.exe)
 Closed shell SCF:
 Requested convergence on RMS density matrix=1.00D-08 within 128 cycles.
 Requested convergence on MAX density matrix=1.00D-06.
 Requested convergence on             energy=1.00D-06.
 No special actions if energy rises.
 Using DIIS extrapolation, IDIIS=  1040.
 Integral symmetry usage will be decided dynamically.
        94980 words used for storage of precomputed grid.
 IEnd=      192360 IEndB=      192360 NGot=  1073741824 MDV=  1073591865
 LenX=  1073591865 LenY=  1073565824
 Fock matrices will be formed incrementally for  20 cycles.

 Cycle   1  Pass 1  IDiag  1:
 FoFJK:  IHMeth= 1 ICntrl=     0 DoSepK=T KAlg= 1 I1Cent= 0 FoldK=F
 FoFCou: FMM=F IPFlag=           0 FMFlag=      100000 FMFlg1=           0
         NFxFlg=           0 DoJE=T BraDBF=F KetDBF=F FulRan=T
         Omega=  0.000000  0.000000  1.000000  0.000000  0.000000 ICntrl=     500 IOpCl=  0
         NMat0=    1 NMatS0=    1 NMatT0=    0 NMatD0=    1 NMtDS0=    0 NMtDT0=    0
         I1Cent=           0 NGrid=           0.
 Symmetry not used in FoFCou.
 E= -151.319948293733    
 DIIS: error= 2.52D-06 at cycle   1 NSaved=   1.
 NSaved= 1 IEnMin= 1 EnMin= -151.319948293733     IErMin= 1 ErrMin= 2.52D-06
 ErrMax= 2.52D-06 EMaxC= 1.00D-01 BMatC= 1.24D-09 BMatP= 1.24D-09
 IDIUse=1 WtCom= 1.00D+00 WtEn= 0.00D+00
 Coeff-Com:  0.100D+01
 Coeff:      0.100D+01
 Gap=     0.430 Goal=   None    Shift=    0.000
 RMSDP=2.74D-07 MaxDP=6.05D-06              OVMax= 9.30D-06

 Cycle   2  Pass 1  IDiag  1:
 RMSU=  1.94D-07    CP:  1.00D+00
 FoFJK:  IHMeth= 1 ICntrl=     0 DoSepK=T KAlg= 1 I1Cent= 0 FoldK=F
 E= -151.319948294924     Delta-E=       -0.000000001192 Rises=F Damp=F
 DIIS: error= 5.40D-07 at cycle   2 NSaved=   2.
 NSaved= 2 IEnMin= 2 EnMin= -151.319948294924     IErMin= 2 ErrMin= 5.40D-07
 ErrMax= 5.40D-07 EMaxC= 1.00D-01 BMatC= 4.92D-11 BMatP= 1.24D-09
 IDIUse=1 WtCom= 1.00D+00 WtEn= 0.00D+00
 Coeff-Com: -0.138D+00 0.114D+01
 Coeff:     -0.138D+00 0.114D+01
 Gap=     0.430 Goal=   None    Shift=    0.000
 RMSDP=6.72D-08 MaxDP=1.87D-06 DE=-1.19D-09 OVMax= 3.26D-06

 Cycle   3  Pass 1  IDiag  1:
 RMSU=  2.19D-08    CP:  1.00D+00  1.22D+00
 FoFJK:  IHMeth= 1 ICntrl=     0 DoSepK=T KAlg= 1 I1Cent= 0 FoldK=F
 E= -151.319948295015     Delta-E=       -0.000000000090 Rises=F Damp=F
 DIIS: error= 1.71D-07 at cycle   3 NSaved=   3.
 NSaved= 3 IEnMin= 3 EnMin= -151.319948295015     IErMin= 3 ErrMin= 1.71D-07
 ErrMax= 1.71D-07 EMaxC= 1.00D-01 BMatC= 3.75D-12 BMatP= 4.92D-11
 IDIUse=1 WtCom= 1.00D+00 WtEn= 0.00D+00
 Coeff-Com: -0.209D-01 0.235D-01 0.997D+00
 Coeff:     -0.209D-01 0.235D-01 0.997D+00
 Gap=     0.430 Goal=   None    Shift=    0.000
 RMSDP=1.66D-08 MaxDP=3.47D-07 DE=-9.04D-11 OVMax= 1.15D-06

 Cycle   4  Pass 1  IDiag  1:
 RMSU=  7.53D-09    CP:  1.00D+00  1.26D+00  1.21D+00
 FoFJK:  IHMeth= 1 ICntrl=     0 DoSepK=T KAlg= 1 I1Cent= 0 FoldK=F
 E= -151.319948295021     Delta-E=       -0.000000000006 Rises=F Damp=F
 DIIS: error= 1.44D-07 at cycle   4 NSaved=   4.
 NSaved= 4 IEnMin= 4 EnMin= -151.319948295021     IErMin= 4 ErrMin= 1.44D-07
 ErrMax= 1.44D-07 EMaxC= 1.00D-01 BMatC= 2.54D-12 BMatP= 3.75D-12
 IDIUse=1 WtCom= 1.00D+00 WtEn= 0.00D+00
 Coeff-Com:  0.424D-02-0.112D+00 0.492D+00 0.616D+00
 Coeff:      0.424D-02-0.112D+00 0.492D+00 0.616D+00
 Gap=     0.430 Goal=   None    Shift=    0.000
 RMSDP=7.43D-09 MaxDP=1.76D-07 DE=-6.00D-12 OVMax= 5.74D-07

 SCF Done:  E(RLC-B+HF-LYP) =  -151.319948295     A.U. after    4 cycles
             Convg  =    0.7429D-08             -V/T =  2.0055
 KE= 1.504857655867D+02 PE=-4.314567661968D+02 EE= 9.299100592881D+01
 Leave Link  502 at Thu May 14 01:18:40 2020, MaxMem= 1073741824 cpu:      31.7
 (Enter /home/matheus/.gaussian/g09/l122.exe)
 Restoring MOs from calculation   5 to rwf.
 Counterpoise: doing MCBS calculation for fragment   2
 Leave Link  122 at Thu May 14 01:18:40 2020, MaxMem= 1073741824 cpu:       0.0
 (Enter /home/matheus/.gaussian/g09/l301.exe)
 Basis read from rwf:  (5D, 7F)
 No pseudopotential information found on rwf file.
 There are    59 symmetry adapted basis functions of A   symmetry.
 Integral buffers will be    131072 words long.
 Raffenetti 2 integral format.
 Two-electron integral symmetry is turned on.
    59 basis functions,   217 primitive gaussians,    69 cartesian basis functions
    18 alpha electrons       18 beta electrons
       nuclear repulsion energy         0.0000000000 Hartrees.
 IExCor=10402 DFT=T Ex=LC-B+HF Corr=LYP ExCW=0 ScaHFX=  1.000000
 ScaDFX=  1.000000  1.000000  1.000000  1.000000 ScalE2=  1.000000  1.000000
 IRadAn=      5 IRanWt=     -1 IRanGd=            0 ICorTp=0
  HFx wShort=  0.000000 wLong=  0.470000 cFull=  0.000000 cShort=  0.000000 cLong=  1.000000
  DFx wShort=  0.000000 wLong=  0.470000 cFull=  0.000000 cShort=  0.000000 cLong=  1.000000
 NAtoms=    5 NActive=    1 NUniq=    1 SFac= 1.00D+00 NAtFMM=   60 NAOKFM=F Big=F
 No density basis found on file   718.
 Leave Link  301 at Thu May 14 01:18:40 2020, MaxMem= 1073741824 cpu:       0.2
 (Enter /home/matheus/.gaussian/g09/l302.exe)
 NPDir=0 NMtPBC=     1 NCelOv=     1 NCel=       1 NClECP=     1 NCelD=      1
         NCelK=      1 NCelE2=     1 NClLst=     1 CellRange=     0.0.
 One-electron integrals computed using PRISM.
 NBasis=    59 RedAO= T  NBF=    59
 NBsUse=    59 1.00D-06 NBFU=    59
 Precomputing XC quadrature grid using
 IXCGrd= 2 IRadAn=           5 IRanWt=          -1 IRanGd=           0 AccXCQ= 0.00D+00.
 NRdTot=      81 NPtTot=       30352 NUsed=       30981 NTot=       31013
 NSgBfM=    69    69    69    69    69 NAtAll=     1     1.
 Leave Link  302 at Thu May 14 01:18:40 2020, MaxMem= 1073741824 cpu:       0.6
 (Enter /home/matheus/.gaussian/g09/l303.exe)
 DipDrv:  MaxL=1.
 Leave Link  303 at Thu May 14 01:18:40 2020, MaxMem= 1073741824 cpu:       0.1
 (Enter /home/matheus/.gaussian/g09/l401.exe)
 Initial guess read from the read-write file.
 Guess basis will be translated and rotated to current coordinates.
 Initial guess orbital symmetries:
       Occupied  (A) (A) (A) (A) (A) (A) (A) (A) (A) (A) (A) (A)
                 (A) (A) (A) (A) (A) (A)
       Virtual   (A) (A) (A) (A) (A) (A) (A) (A) (A) (A) (A) (A)
                 (A) (A) (A) (A) (A) (A) (A) (A) (A) (A) (A) (A)
                 (A) (A) (A) (A) (A) (A) (A) (A) (A) (A) (A) (A)
                 (A) (A) (A) (A) (A)
 The electronic state of the initial guess is 1-A.
 Generating alternative initial guess.
 Harris functional with IExCor=10402 diagonalized for initial guess.
 ExpMin= 4.00D-02 ExpMax= 1.17D+07 ExpMxC= 1.33D+04 IAcc=3 IRadAn=         5 AccDes= 0.00D+00
 HarFok:  IExCor=10402 AccDes= 0.00D+00 IRadAn=         5 IDoV= 1
 ScaDFX=  1.000000  1.000000  1.000000  1.000000
 FoFCou: FMM=F IPFlag=           0 FMFlag=      100000 FMFlg1=           0
         NFxFlg=           0 DoJE=T BraDBF=F KetDBF=T FulRan=T
         Omega=  0.000000  0.000000  1.000000  0.000000  0.000000 ICntrl=     500 IOpCl=  0
         NMat0=    1 NMatS0=    1 NMatT0=    0 NMatD0=    1 NMtDS0=    0 NMtDT0=    0
         I1Cent=           4 NGrid=           0.
 Petite list used in FoFCou.
 Harris En= -2744.51485235229    
 Leave Link  401 at Thu May 14 01:18:40 2020, MaxMem= 1073741824 cpu:       1.0
 (Enter /home/matheus/.gaussian/g09/l502.exe)
 Closed shell SCF:
 Requested convergence on RMS density matrix=1.00D-08 within 128 cycles.
 Requested convergence on MAX density matrix=1.00D-06.
 Requested convergence on             energy=1.00D-06.
 No special actions if energy rises.
 Using DIIS extrapolation, IDIIS=  1040.
 Integral symmetry usage will be decided dynamically.
        30923 words used for storage of precomputed grid.
 IEnd=       64406 IEndB=       64406 NGot=  1073741824 MDV=  1073698889
 LenX=  1073698889 LenY=  1073693687
 Fock matrices will be formed incrementally for  20 cycles.

 Cycle   1  Pass 1  IDiag  1:
 FoFJK:  IHMeth= 1 ICntrl=     0 DoSepK=T KAlg= 1 I1Cent= 0 FoldK=F
 FoFCou: FMM=F IPFlag=           0 FMFlag=      100000 FMFlg1=           0
         NFxFlg=           0 DoJE=T BraDBF=F KetDBF=F FulRan=T
         Omega=  0.000000  0.000000  1.000000  0.000000  0.000000 ICntrl=     500 IOpCl=  0
         NMat0=    1 NMatS0=    1 NMatT0=    0 NMatD0=    1 NMtDS0=    0 NMtDT0=    0
         I1Cent=           0 NGrid=           0.
 Symmetry not used in FoFCou.
 E= -2753.41754223393    
 DIIS: error= 1.22D-13 at cycle   1 NSaved=   1.
 NSaved= 1 IEnMin= 1 EnMin= -2753.41754223393     IErMin= 1 ErrMin= 1.22D-13
 ErrMax= 1.22D-13 EMaxC= 1.00D-01 BMatC= 3.87D-25 BMatP= 3.87D-25
 IDIUse=1 WtCom= 1.00D+00 WtEn= 0.00D+00
 Coeff-Com:  0.100D+01
 Coeff:      0.100D+01
 Gap=     0.595 Goal=   None    Shift=    0.000
 RMSDP=1.20D-14 MaxDP=2.99D-13              OVMax= 4.25D-14

 SCF Done:  E(RLC-B+HF-LYP) =  -2753.41754223     A.U. after    1 cycles
             Convg  =    0.1202D-13             -V/T =  2.0015
 KE= 2.749372504928D+03 PE=-6.578588569976D+03 EE= 1.075798522814D+03
 Leave Link  502 at Thu May 14 01:18:42 2020, MaxMem= 1073741824 cpu:      11.3
 (Enter /home/matheus/.gaussian/g09/l122.exe)
 Restoring MOs from calculation   1 to rwf.
 Counterpoise: corrected energy =   -2904.737673187727
 Counterpoise: BSSE energy =       0.000027311413
 Leave Link  122 at Thu May 14 01:18:42 2020, MaxMem= 1073741824 cpu:       0.0
 (Enter /home/matheus/.gaussian/g09/l108.exe)
 Scan completed.

 Summary of the potential surface scan:
   N      R1          SCF    
 ----  ---------  -----------
    1     3.0000  -2753.41754
    2     3.1000  -2753.41754
    3     3.2000  -2753.41754
    4     3.3000  -2753.41754
    5     3.4000  -2753.41754
    6     3.5000  -2753.41754
    7     3.6000  -2753.41754
    8     3.7000  -2753.41754
    9     3.8000  -2753.41754
   10     3.9000  -2753.41754
   11     4.0000  -2753.41754
   12     4.1000  -2753.41754
   13     4.2000  -2753.41754
   14     4.3000  -2753.41754
   15     4.4000  -2753.41754
   16     4.5000  -2753.41754
   17     4.6000  -2753.41754
   18     4.7000  -2753.41754
   19     4.8000  -2753.41754
   20     4.9000  -2753.41754
   21     5.0000  -2753.41754
 ----  ---------  -----------
  
 Leave Link  108 at Thu May 14 01:18:42 2020, MaxMem= 1073741824 cpu:       0.0
 (Enter /home/matheus/.gaussian/g09/l9999.exe)
 1\1\GINC-REDGIANT\Scan\RLC-BLYP\Aug-CC-pVTZ\H2Kr1O2\MATHEUS\14-May-202
 0\1\\#p lc-blyp/aug-cc-PVTz int=ultrafine counterpoise=2 Scan\\TCC\\0,
 1\O,0,0.,0.,0.725\O,0,0.,0.,-0.725\H,0,-0.4593602974,0.795635374,1.023
 5104166\H,0,0.,0.9187205947,-1.0235104166\Kr,0,0.,R1,0.\\R1=3.,s,20,0.
 1\\Version=EM64L-G09RevC.01\State=1-A\HF=-2753.4175422,-2753.4175422,-
 2753.4175422,-2753.4175422,-2753.4175422,-2753.4175422,-2753.4175422,-
 2753.4175422,-2753.4175422,-2753.4175422,-2753.4175422,-2753.4175422,-
 2753.4175422,-2753.4175422,-2753.4175422,-2753.4175422,-2753.4175422,-
 2753.4175422,-2753.4175422,-2753.4175422,-2753.4175422\RMSD=1.334e-09,
 5.265e-11,1.629e-11,9.943e-12,5.935e-12,3.600e-12,2.184e-12,1.322e-12,
 7.984e-13,4.883e-13,2.955e-13,1.745e-13,1.034e-13,6.638e-14,4.307e-14,
 2.916e-14,1.447e-14,1.096e-14,1.212e-14,1.374e-14,1.202e-14\PG=C01 [X(
 H2Kr1O2)]\\@


 REALITY IS FOR PEOPLE WHO CAN'T FACE SCIENCE FICTION.
 Job cpu time:  0 days  3 hours 12 minutes 32.8 seconds.
 File lengths (MBytes):  RWF=     33 Int=      0 D2E=      0 Chk=      8 Scr=      1
 Normal termination of Gaussian 09 at Thu May 14 01:18:42 2020.
