 Entering Gaussian System, Link 0=g09
 Input=/home/matheus/.tcc/Inputs/Inputs-lc-blyp-default/H2O2-Kr_10.com
 Output=/home/matheus/.tcc/Logs/Logs-lc-blyp-default/H2O2-Kr_10.log
 Initial command:
 /home/matheus/.gaussian/g09/l1.exe /home/matheus/.gaussian/g09/scratch/Gau-15498.inp -scrdir=/home/matheus/.gaussian/g09/scratch/
 Entering Link 1 = /home/matheus/.gaussian/g09/l1.exe PID=     15502.
  
 Copyright (c) 1988,1990,1992,1993,1995,1998,2003,2009,2011,
            Gaussian, Inc.  All Rights Reserved.
  
 This is part of the Gaussian(R) 09 program.  It is based on
 the Gaussian(R) 03 system (copyright 2003, Gaussian, Inc.),
 the Gaussian(R) 98 system (copyright 1998, Gaussian, Inc.),
 the Gaussian(R) 94 system (copyright 1995, Gaussian, Inc.),
 the Gaussian 92(TM) system (copyright 1992, Gaussian, Inc.),
 the Gaussian 90(TM) system (copyright 1990, Gaussian, Inc.),
 the Gaussian 88(TM) system (copyright 1988, Gaussian, Inc.),
 the Gaussian 86(TM) system (copyright 1986, Carnegie Mellon
 University), and the Gaussian 82(TM) system (copyright 1983,
 Carnegie Mellon University). Gaussian is a federally registered
 trademark of Gaussian, Inc.
  
 This software contains proprietary and confidential information,
 including trade secrets, belonging to Gaussian, Inc.
  
 This software is provided under written license and may be
 used, copied, transmitted, or stored only in accord with that
 written license.
  
 The following legend is applicable only to US Government
 contracts under FAR:
  
                    RESTRICTED RIGHTS LEGEND
  
 Use, reproduction and disclosure by the US Government is
 subject to restrictions as set forth in subparagraphs (a)
 and (c) of the Commercial Computer Software - Restricted
 Rights clause in FAR 52.227-19.
  
 Gaussian, Inc.
 340 Quinnipiac St., Bldg. 40, Wallingford CT 06492
  
  
 ---------------------------------------------------------------
 Warning -- This program may not be used in any manner that
 competes with the business of Gaussian, Inc. or will provide
 assistance to any competitor of Gaussian, Inc.  The licensee
 of this program is prohibited from giving any competitor of
 Gaussian, Inc. access to this program.  By using this program,
 the user acknowledges that Gaussian, Inc. is engaged in the
 business of creating and licensing software in the field of
 computational chemistry and represents and warrants to the
 licensee that it is not a competitor of Gaussian, Inc. and that
 it will not use this program in any manner prohibited above.
 ---------------------------------------------------------------
  

 Cite this work as:
 Gaussian 09, Revision C.01,
 M. J. Frisch, G. W. Trucks, H. B. Schlegel, G. E. Scuseria, 
 M. A. Robb, J. R. Cheeseman, G. Scalmani, V. Barone, B. Mennucci, 
 G. A. Petersson, H. Nakatsuji, M. Caricato, X. Li, H. P. Hratchian, 
 A. F. Izmaylov, J. Bloino, G. Zheng, J. L. Sonnenberg, M. Hada, 
 M. Ehara, K. Toyota, R. Fukuda, J. Hasegawa, M. Ishida, T. Nakajima, 
 Y. Honda, O. Kitao, H. Nakai, T. Vreven, J. A. Montgomery, Jr., 
 J. E. Peralta, F. Ogliaro, M. Bearpark, J. J. Heyd, E. Brothers, 
 K. N. Kudin, V. N. Staroverov, T. Keith, R. Kobayashi, J. Normand, 
 K. Raghavachari, A. Rendell, J. C. Burant, S. S. Iyengar, J. Tomasi, 
 M. Cossi, N. Rega, J. M. Millam, M. Klene, J. E. Knox, J. B. Cross, 
 V. Bakken, C. Adamo, J. Jaramillo, R. Gomperts, R. E. Stratmann, 
 O. Yazyev, A. J. Austin, R. Cammi, C. Pomelli, J. W. Ochterski, 
 R. L. Martin, K. Morokuma, V. G. Zakrzewski, G. A. Voth, 
 P. Salvador, J. J. Dannenberg, S. Dapprich, A. D. Daniels, 
 O. Farkas, J. B. Foresman, J. V. Ortiz, J. Cioslowski, 
 and D. J. Fox, Gaussian, Inc., Wallingford CT, 2010.
 
 ******************************************
 Gaussian 09:  EM64L-G09RevC.01 23-Sep-2011
                13-May-2020 
 ******************************************
 %mem=8GB
 %nproc=8
 Will use up to    8 processors via shared memory.
 --------------------------------------------------------
 #p lc-blyp/aug-cc-PVTz int=ultrafine counterpoise=2 Scan
 --------------------------------------------------------
 1/38=1,60=1,62=2/1,8;
 2/12=2,17=6,18=5,29=3,40=1/2;
 1/38=1,53=5172,62=2/22;
 3/5=16,6=1,7=10,11=2,16=1,25=1,30=1,74=1000402,75=-5/1,2,3;
 4//1;
 5/5=2,38=5/2;
 6/7=2,8=2,9=2,10=2,18=1,28=1/1;
 1/53=4052,62=2,63=1/22;
 3/5=7,6=11,7=10,11=2,16=1,25=1,30=1,74=1000402,75=-5,82=7/1,2,3;
 4//1;
 5/5=2,38=5/2;
 6/7=2,8=2,9=2,10=2,18=1,28=1/1;
 1/53=3042,62=2,63=2/22;
 3/5=7,6=11,7=10,11=2,16=1,25=1,30=1,74=1000402,75=-5,82=7/1,2,3;
 4//1;
 5/5=2,38=5/2;
 6/7=2,8=2,9=2,10=2,18=1,28=1/1;
 1/53=2032,62=2,63=3/22;
 3/5=7,6=11,7=10,11=2,16=1,25=1,30=1,74=1000402,75=-5,82=7/1,2,3;
 4//1;
 5/5=2,38=5/2;
 6/7=2,8=2,9=2,10=2,18=1,28=1/1;
 1/53=1022,62=2,63=4/22;
 3/5=7,6=11,7=10,11=2,16=1,25=1,30=1,74=1000402,75=-5,82=7/1,2,3;
 4//1;
 5/5=2,38=5/2;
 6/7=2,8=2,9=2,10=2,18=1,28=1/1;
 1/53=5014,62=2,63=5/22;
 1/60=1,62=2/8(1);
 99/9=1/99;
 2/29=3/2;
 1/53=5173,62=2/22;
 3/5=7,6=11,7=10,11=2,16=1,25=1,30=1,74=1000402,75=-5,82=7/1,2,3;
 4/5=5,16=3/1;
 5/5=2,38=5/2;
 1/53=4053,62=2,63=1/22;
 3/5=7,6=11,7=10,11=2,16=1,25=1,30=1,74=1000402,75=-5,82=7/1,2,3;
 4/5=5,16=3/1;
 5/5=2,38=5/2;
 1/53=3043,62=2,63=2/22;
 3/5=7,6=11,7=10,11=2,16=1,25=1,30=1,74=1000402,75=-5,82=7/1,2,3;
 4/5=5,16=3/1;
 5/5=2,38=5/2;
 1/53=2033,62=2,63=3/22;
 3/5=7,6=11,7=10,11=2,16=1,25=1,30=1,74=1000402,75=-5,82=7/1,2,3;
 4/5=5,16=3/1;
 5/5=2,38=5/2;
 1/53=1024,62=2,63=4/22;
 3/5=7,6=11,7=10,11=2,16=1,25=1,30=1,74=1000402,75=-5,82=7/1,2,3;
 4/5=5,16=3/1;
 5/5=2,38=5/2;
 1/53=5014,62=2,63=5/22;
 1/60=1,62=2/8(-22);
 99/9=1/99;
 Leave Link    1 at Wed May 13 14:52:26 2020, MaxMem= 1073741824 cpu:       0.2
 (Enter /home/matheus/.gaussian/g09/l101.exe)
 ---
 TCC
 ---
 Charge =  0 Multiplicity = 1 in supermolecule
 Charge =  0 Multiplicity = 1 in fragment  1.
 Charge =  0 Multiplicity = 1 in fragment  2.
 Symbolic Z-Matrix:
 O(Fragment=1)         0.        0.        0.725 
 O(Fragment=1)         0.        0.       -0.725 
 H(Fragment=1)         0.90476  -0.15953   1.02351 
 H(Fragment=1)         0.        0.91872  -1.02351 
 Kr(Fragment=2)        0.       R1        0. 
       Variables:
  R1                    3.     Scan 20    0.1    
 
 NAtoms=      5 NQM=        0 NQMF=       0 NMMI=      5 NMMIF=      0
                NMic=       0 NMicF=      0.
                    Isotopes and Nuclear Properties:
 (Nuclear quadrupole moments (NQMom) in fm**2, nuclear magnetic moments (NMagM)
  in nuclear magnetons)

  Atom         1           2           3           4           5
 IAtWgt=          16          16           1           1          84
 AtmWgt=  15.9949146  15.9949146   1.0078250   1.0078250  83.9115064
 NucSpn=           0           0           1           1           0
 AtZEff=   0.0000000   0.0000000   0.0000000   0.0000000   0.0000000
 NQMom=    0.0000000   0.0000000   0.0000000   0.0000000   0.0000000
 NMagM=    0.0000000   0.0000000   2.7928460   2.7928460   0.0000000
 Leave Link  101 at Wed May 13 14:52:26 2020, MaxMem= 1073741824 cpu:       0.3
 (Enter /home/matheus/.gaussian/g09/l108.exe)
 Scan the potential surface.
 Variable   Value     No. Steps Step-Size
 -------- ----------- --------- ---------
     1       3.000000      20      0.1000
 A total of     21 points will be computed.
 Leave Link  108 at Wed May 13 14:52:26 2020, MaxMem= 1073741824 cpu:       0.0
 (Enter /home/matheus/.gaussian/g09/l202.exe)
 ---------------------------------------------------------------------------------------------------
                            Z-MATRIX (ANGSTROMS AND DEGREES)
   CD    Cent   Atom    N1       Length/X        N2       Alpha/Y        N3        Beta/Z          J
 ---------------------------------------------------------------------------------------------------
      1      1  O        0   0.000000          0.000000          0.725000
      2      2  O        0   0.000000          0.000000         -0.725000
      3      3  H        0   0.904763         -0.159534          1.023510
      4      4  H        0   0.000000          0.918721         -1.023510
      5      5  Kr       0   0.000000          3.000000          0.000000
 ---------------------------------------------------------------------------------------------------
                         Z-Matrix orientation:                         
 ---------------------------------------------------------------------
 Center     Atomic      Atomic             Coordinates (Angstroms)
 Number     Number       Type             X           Y           Z
 ---------------------------------------------------------------------
      1          8           0        0.000000    0.000000    0.725000
      2          8           0        0.000000    0.000000   -0.725000
      3          1           0        0.904763   -0.159534    1.023510
      4          1           0        0.000000    0.918721   -1.023510
      5         36           0        0.000000    3.000000    0.000000
 ---------------------------------------------------------------------
                    Distance matrix (angstroms):
                    1          2          3          4          5
     1  O    0.000000
     2  O    1.450000   0.000000
     3  H    0.966000   1.975180   0.000000
     4  H    1.975180   0.966000   2.484255   0.000000
     5  Kr   3.086361   3.086361   3.442212   2.319331   0.000000
 Stoichiometry    H2KrO2
 Framework group  C1[X(H2KrO2)]
 Deg. of freedom     9
 Full point group                 C1      NOp   1
 Largest Abelian subgroup         C1      NOp   1
 Largest concise Abelian subgroup C1      NOp   1
                         Standard orientation:                         
 ---------------------------------------------------------------------
 Center     Atomic      Atomic             Coordinates (Angstroms)
 Number     Number       Type             X           Y           Z
 ---------------------------------------------------------------------
      1          8           0        2.021768   -0.693300   -0.118861
      2          8           0        2.004728    0.750466    0.014370
      3          1           0        2.201795   -1.071309    0.751687
      4          1           0        1.082725    1.035355    0.058021
      5         36           0       -0.986014   -0.011705    0.000728
 ---------------------------------------------------------------------
 Rotational constants (GHZ):     25.6313314      2.3378634      2.1561704
 Leave Link  202 at Wed May 13 14:52:26 2020, MaxMem= 1073741824 cpu:       0.0
 (Enter /home/matheus/.gaussian/g09/l122.exe)
 Leave Link  122 at Wed May 13 14:52:26 2020, MaxMem= 1073741824 cpu:       0.0
 (Enter /home/matheus/.gaussian/g09/l301.exe)
 Standard basis: Aug-CC-pVTZ (5D, 7F)
 Ernie: Thresh=  0.10000D-02 Tol=  0.10000D-05 Strict=F.
 Ernie:  38 primitive shells out of 205 were deleted.
 There are   197 symmetry adapted basis functions of A   symmetry.
 Integral buffers will be    131072 words long.
 Raffenetti 2 integral format.
 Two-electron integral symmetry is turned on.
   197 basis functions,   415 primitive gaussians,   229 cartesian basis functions
    27 alpha electrons       27 beta electrons
       nuclear repulsion energy       149.1283769891 Hartrees.
 IExCor=10402 DFT=T Ex=LC-B+HF Corr=LYP ExCW=0 ScaHFX=  1.000000
 ScaDFX=  1.000000  1.000000  1.000000  1.000000 ScalE2=  1.000000  1.000000
 IRadAn=      5 IRanWt=     -1 IRanGd=            0 ICorTp=0
  HFx wShort=  0.000000 wLong=  0.470000 cFull=  0.000000 cShort=  0.000000 cLong=  1.000000
  DFx wShort=  0.000000 wLong=  0.470000 cFull=  0.000000 cShort=  0.000000 cLong=  1.000000
 NAtoms=    5 NActive=    5 NUniq=    5 SFac= 1.00D+00 NAtFMM=   60 NAOKFM=F Big=F
 Leave Link  301 at Wed May 13 14:52:26 2020, MaxMem= 1073741824 cpu:       0.2
 (Enter /home/matheus/.gaussian/g09/l302.exe)
 NPDir=0 NMtPBC=     1 NCelOv=     1 NCel=       1 NClECP=     1 NCelD=      1
         NCelK=      1 NCelE2=     1 NClLst=     1 CellRange=     0.0.
 One-electron integrals computed using PRISM.
 NBasis=   197 RedAO= T  NBF=   197
 NBsUse=   197 1.00D-06 NBFU=   197
 Precomputing XC quadrature grid using
 IXCGrd= 2 IRadAn=           5 IRanWt=          -1 IRanGd=           0 AccXCQ= 0.00D+00.
 NRdTot=     427 NPtTot=      123512 NUsed=      126579 NTot=      126611
 NSgBfM=   229   229   229   229   229 NAtAll=     5     5.
 Leave Link  302 at Wed May 13 14:52:26 2020, MaxMem= 1073741824 cpu:       0.9
 (Enter /home/matheus/.gaussian/g09/l303.exe)
 DipDrv:  MaxL=1.
 Leave Link  303 at Wed May 13 14:52:26 2020, MaxMem= 1073741824 cpu:       0.2
 (Enter /home/matheus/.gaussian/g09/l401.exe)
 Harris functional with IExCor=10402 diagonalized for initial guess.
 ExpMin= 2.53D-02 ExpMax= 1.17D+07 ExpMxC= 1.33D+04 IAcc=3 IRadAn=         5 AccDes= 0.00D+00
 HarFok:  IExCor=10402 AccDes= 0.00D+00 IRadAn=         5 IDoV= 1
 ScaDFX=  1.000000  1.000000  1.000000  1.000000
 FoFCou: FMM=F IPFlag=           0 FMFlag=      100000 FMFlg1=           0
         NFxFlg=           0 DoJE=T BraDBF=F KetDBF=T FulRan=T
         Omega=  0.000000  0.000000  1.000000  0.000000  0.000000 ICntrl=     500 IOpCl=  0
         NMat0=    1 NMatS0=    1 NMatT0=    0 NMatD0=    1 NMtDS0=    0 NMtDT0=    0
         I1Cent=           4 NGrid=           0.
 Petite list used in FoFCou.
 Harris En= -2891.67205758449    
 Initial guess orbital symmetries:
       Occupied  (A) (A) (A) (A) (A) (A) (A) (A) (A) (A) (A) (A)
                 (A) (A) (A) (A) (A) (A) (A) (A) (A) (A) (A) (A)
                 (A) (A) (A)
       Virtual   (A) (A) (A) (A) (A) (A) (A) (A) (A) (A) (A) (A)
                 (A) (A) (A) (A) (A) (A) (A) (A) (A) (A) (A) (A)
                 (A) (A) (A) (A) (A) (A) (A) (A) (A) (A) (A) (A)
                 (A) (A) (A) (A) (A) (A) (A) (A) (A) (A) (A) (A)
                 (A) (A) (A) (A) (A) (A) (A) (A) (A) (A) (A) (A)
                 (A) (A) (A) (A) (A) (A) (A) (A) (A) (A) (A) (A)
                 (A) (A) (A) (A) (A) (A) (A) (A) (A) (A) (A) (A)
                 (A) (A) (A) (A) (A) (A) (A) (A) (A) (A) (A) (A)
                 (A) (A) (A) (A) (A) (A) (A) (A) (A) (A) (A) (A)
                 (A) (A) (A) (A) (A) (A) (A) (A) (A) (A) (A) (A)
                 (A) (A) (A) (A) (A) (A) (A) (A) (A) (A) (A) (A)
                 (A) (A) (A) (A) (A) (A) (A) (A) (A) (A) (A) (A)
                 (A) (A) (A) (A) (A) (A) (A) (A) (A) (A) (A) (A)
                 (A) (A) (A) (A) (A) (A) (A) (A) (A) (A) (A) (A)
                 (A) (A)
 The electronic state of the initial guess is 1-A.
 Leave Link  401 at Wed May 13 14:52:27 2020, MaxMem= 1073741824 cpu:       4.4
 (Enter /home/matheus/.gaussian/g09/l502.exe)
 Closed shell SCF:
 Requested convergence on RMS density matrix=1.00D-08 within 128 cycles.
 Requested convergence on MAX density matrix=1.00D-06.
 Requested convergence on             energy=1.00D-06.
 No special actions if energy rises.
 Using DIIS extrapolation, IDIIS=  1040.
 Integral symmetry usage will be decided dynamically.
       126521 words used for storage of precomputed grid.
 IEnd=      305468 IEndB=      305468 NGot=  1073741824 MDV=  1073505667
 LenX=  1073505667 LenY=  1073452785
 Fock matrices will be formed incrementally for  20 cycles.

 Cycle   1  Pass 1  IDiag  1:
 FoFJK:  IHMeth= 1 ICntrl=     0 DoSepK=T KAlg= 1 I1Cent= 0 FoldK=F
 FoFCou: FMM=F IPFlag=           0 FMFlag=      100000 FMFlg1=           0
         NFxFlg=           0 DoJE=T BraDBF=F KetDBF=F FulRan=T
         Omega=  0.000000  0.000000  1.000000  0.000000  0.000000 ICntrl=     500 IOpCl=  0
         NMat0=    1 NMatS0=    1 NMatT0=    0 NMatD0=    1 NMtDS0=    0 NMtDT0=    0
         I1Cent=           0 NGrid=           0.
 Symmetry not used in FoFCou.
 E= -2904.63599743253    
 DIIS: error= 2.31D-02 at cycle   1 NSaved=   1.
 NSaved= 1 IEnMin= 1 EnMin= -2904.63599743253     IErMin= 1 ErrMin= 2.31D-02
 ErrMax= 2.31D-02 EMaxC= 1.00D-01 BMatC= 2.84D-01 BMatP= 2.84D-01
 IDIUse=3 WtCom= 7.69D-01 WtEn= 2.31D-01
 Coeff-Com:  0.100D+01
 Coeff-En:   0.100D+01
 Coeff:      0.100D+01
 Gap=     0.500 Goal=   None    Shift=    0.000
 GapD=    0.500 DampG=2.000 DampE=0.500 DampFc=1.0000 IDamp=-1.
 RMSDP=2.64D-03 MaxDP=1.52D-01              OVMax= 1.06D-01

 Cycle   2  Pass 1  IDiag  1:
 RMSU=  1.82D-03    CP:  1.02D+00
 FoFJK:  IHMeth= 1 ICntrl=     0 DoSepK=T KAlg= 1 I1Cent= 0 FoldK=F
 E= -2904.71131066914     Delta-E=       -0.075313236614 Rises=F Damp=F
 DIIS: error= 1.26D-02 at cycle   2 NSaved=   2.
 NSaved= 2 IEnMin= 2 EnMin= -2904.71131066914     IErMin= 2 ErrMin= 1.26D-02
 ErrMax= 1.26D-02 EMaxC= 1.00D-01 BMatC= 9.29D-02 BMatP= 2.84D-01
 IDIUse=3 WtCom= 8.74D-01 WtEn= 1.26D-01
 Coeff-Com:  0.359D+00 0.641D+00
 Coeff-En:   0.342D-01 0.966D+00
 Coeff:      0.318D+00 0.682D+00
 Gap=     0.465 Goal=   None    Shift=    0.000
 RMSDP=1.01D-03 MaxDP=6.19D-02 DE=-7.53D-02 OVMax= 3.16D-02

 Cycle   3  Pass 1  IDiag  1:
 RMSU=  3.21D-04    CP:  1.01D+00  6.60D-01
 FoFJK:  IHMeth= 1 ICntrl=     0 DoSepK=T KAlg= 1 I1Cent= 0 FoldK=F
 E= -2904.74210504160     Delta-E=       -0.030794372462 Rises=F Damp=F
 DIIS: error= 1.43D-03 at cycle   3 NSaved=   3.
 NSaved= 3 IEnMin= 3 EnMin= -2904.74210504160     IErMin= 3 ErrMin= 1.43D-03
 ErrMax= 1.43D-03 EMaxC= 1.00D-01 BMatC= 1.14D-03 BMatP= 9.29D-02
 IDIUse=3 WtCom= 9.86D-01 WtEn= 1.43D-02
 Coeff-Com:  0.736D-02 0.101D+00 0.892D+00
 Coeff-En:   0.000D+00 0.000D+00 0.100D+01
 Coeff:      0.725D-02 0.995D-01 0.893D+00
 Gap=     0.470 Goal=   None    Shift=    0.000
 RMSDP=1.49D-04 MaxDP=5.88D-03 DE=-3.08D-02 OVMax= 6.77D-03

 Cycle   4  Pass 1  IDiag  1:
 RMSU=  6.68D-05    CP:  1.02D+00  7.00D-01  1.10D+00
 FoFJK:  IHMeth= 1 ICntrl=     0 DoSepK=T KAlg= 1 I1Cent= 0 FoldK=F
 E= -2904.74260222148     Delta-E=       -0.000497179880 Rises=F Damp=F
 DIIS: error= 5.60D-04 at cycle   4 NSaved=   4.
 NSaved= 4 IEnMin= 4 EnMin= -2904.74260222148     IErMin= 4 ErrMin= 5.60D-04
 ErrMax= 5.60D-04 EMaxC= 1.00D-01 BMatC= 8.82D-05 BMatP= 1.14D-03
 IDIUse=3 WtCom= 9.94D-01 WtEn= 5.60D-03
 Coeff-Com: -0.121D-01 0.114D-01 0.319D+00 0.682D+00
 Coeff-En:   0.000D+00 0.000D+00 0.000D+00 0.100D+01
 Coeff:     -0.121D-01 0.113D-01 0.317D+00 0.684D+00
 Gap=     0.466 Goal=   None    Shift=    0.000
 RMSDP=3.76D-05 MaxDP=1.49D-03 DE=-4.97D-04 OVMax= 2.02D-03

 Cycle   5  Pass 1  IDiag  1:
 RMSU=  2.08D-05    CP:  1.02D+00  7.03D-01  1.15D+00  9.64D-01
 FoFJK:  IHMeth= 1 ICntrl=     0 DoSepK=T KAlg= 1 I1Cent= 0 FoldK=F
 E= -2904.74266013008     Delta-E=       -0.000057908599 Rises=F Damp=F
 DIIS: error= 1.50D-04 at cycle   5 NSaved=   5.
 NSaved= 5 IEnMin= 5 EnMin= -2904.74266013008     IErMin= 5 ErrMin= 1.50D-04
 ErrMax= 1.50D-04 EMaxC= 1.00D-01 BMatC= 8.43D-06 BMatP= 8.82D-05
 IDIUse=3 WtCom= 9.99D-01 WtEn= 1.50D-03
 Coeff-Com: -0.386D-02-0.670D-02-0.636D-02 0.212D+00 0.805D+00
 Coeff-En:   0.000D+00 0.000D+00 0.000D+00 0.000D+00 0.100D+01
 Coeff:     -0.385D-02-0.669D-02-0.635D-02 0.212D+00 0.805D+00
 Gap=     0.467 Goal=   None    Shift=    0.000
 RMSDP=1.55D-05 MaxDP=5.44D-04 DE=-5.79D-05 OVMax= 9.25D-04

 Cycle   6  Pass 1  IDiag  1:
 RMSU=  6.31D-06    CP:  1.02D+00  7.04D-01  1.17D+00  1.06D+00  1.02D+00
 FoFJK:  IHMeth= 1 ICntrl=     0 DoSepK=T KAlg= 1 I1Cent= 0 FoldK=F
 E= -2904.74266717580     Delta-E=       -0.000007045717 Rises=F Damp=F
 DIIS: error= 6.37D-05 at cycle   6 NSaved=   6.
 NSaved= 6 IEnMin= 6 EnMin= -2904.74266717580     IErMin= 6 ErrMin= 6.37D-05
 ErrMax= 6.37D-05 EMaxC= 1.00D-01 BMatC= 1.64D-06 BMatP= 8.43D-06
 IDIUse=1 WtCom= 1.00D+00 WtEn= 0.00D+00
 Coeff-Com: -0.613D-03-0.394D-02-0.276D-01 0.311D-01 0.348D+00 0.653D+00
 Coeff:     -0.613D-03-0.394D-02-0.276D-01 0.311D-01 0.348D+00 0.653D+00
 Gap=     0.467 Goal=   None    Shift=    0.000
 RMSDP=5.36D-06 MaxDP=1.89D-04 DE=-7.05D-06 OVMax= 3.47D-04

 Cycle   7  Pass 1  IDiag  1:
 RMSU=  2.40D-06    CP:  1.02D+00  7.04D-01  1.17D+00  1.08D+00  1.10D+00
                    CP:  9.47D-01
 FoFJK:  IHMeth= 1 ICntrl=     0 DoSepK=T KAlg= 1 I1Cent= 0 FoldK=F
 E= -2904.74266834120     Delta-E=       -0.000001165404 Rises=F Damp=F
 DIIS: error= 2.06D-05 at cycle   7 NSaved=   7.
 NSaved= 7 IEnMin= 7 EnMin= -2904.74266834120     IErMin= 7 ErrMin= 2.06D-05
 ErrMax= 2.06D-05 EMaxC= 1.00D-01 BMatC= 1.80D-07 BMatP= 1.64D-06
 IDIUse=1 WtCom= 1.00D+00 WtEn= 0.00D+00
 Coeff-Com:  0.162D-03-0.105D-02-0.100D-01-0.202D-01 0.924D-02 0.256D+00
 Coeff-Com:  0.766D+00
 Coeff:      0.162D-03-0.105D-02-0.100D-01-0.202D-01 0.924D-02 0.256D+00
 Coeff:      0.766D+00
 Gap=     0.467 Goal=   None    Shift=    0.000
 RMSDP=2.08D-06 MaxDP=5.85D-05 DE=-1.17D-06 OVMax= 1.27D-04

 Cycle   8  Pass 1  IDiag  1:
 RMSU=  6.45D-07    CP:  1.02D+00  7.04D-01  1.18D+00  1.09D+00  1.13D+00
                    CP:  1.06D+00  9.66D-01
 FoFJK:  IHMeth= 1 ICntrl=     0 DoSepK=T KAlg= 1 I1Cent= 0 FoldK=F
 E= -2904.74266850641     Delta-E=       -0.000000165210 Rises=F Damp=F
 DIIS: error= 3.78D-06 at cycle   8 NSaved=   8.
 NSaved= 8 IEnMin= 8 EnMin= -2904.74266850641     IErMin= 8 ErrMin= 3.78D-06
 ErrMax= 3.78D-06 EMaxC= 1.00D-01 BMatC= 3.02D-09 BMatP= 1.80D-07
 IDIUse=1 WtCom= 1.00D+00 WtEn= 0.00D+00
 Coeff-Com:  0.135D-04 0.317D-03 0.259D-02 0.570D-03-0.221D-01-0.644D-01
 Coeff-Com: -0.778D-01 0.116D+01
 Coeff:      0.135D-04 0.317D-03 0.259D-02 0.570D-03-0.221D-01-0.644D-01
 Coeff:     -0.778D-01 0.116D+01
 Gap=     0.467 Goal=   None    Shift=    0.000
 RMSDP=5.88D-07 MaxDP=1.73D-05 DE=-1.65D-07 OVMax= 5.90D-05

 Cycle   9  Pass 1  IDiag  1:
 RMSU=  1.59D-07    CP:  1.02D+00  7.04D-01  1.18D+00  1.09D+00  1.14D+00
                    CP:  1.09D+00  1.04D+00  1.36D+00
 FoFJK:  IHMeth= 1 ICntrl=     0 DoSepK=T KAlg= 1 I1Cent= 0 FoldK=F
 E= -2904.74266851605     Delta-E=       -0.000000009634 Rises=F Damp=F
 DIIS: error= 9.03D-07 at cycle   9 NSaved=   9.
 NSaved= 9 IEnMin= 9 EnMin= -2904.74266851605     IErMin= 9 ErrMin= 9.03D-07
 ErrMax= 9.03D-07 EMaxC= 1.00D-01 BMatC= 2.09D-10 BMatP= 3.02D-09
 IDIUse=1 WtCom= 1.00D+00 WtEn= 0.00D+00
 Coeff-Com: -0.288D-05 0.115D-03 0.770D-03 0.131D-02-0.164D-02-0.195D-01
 Coeff-Com: -0.532D-01 0.693D-01 0.100D+01
 Coeff:     -0.288D-05 0.115D-03 0.770D-03 0.131D-02-0.164D-02-0.195D-01
 Coeff:     -0.532D-01 0.693D-01 0.100D+01
 Gap=     0.467 Goal=   None    Shift=    0.000
 RMSDP=1.32D-07 MaxDP=4.74D-06 DE=-9.63D-09 OVMax= 1.30D-05

 Cycle  10  Pass 1  IDiag  1:
 RMSU=  4.72D-08    CP:  1.02D+00  7.04D-01  1.18D+00  1.09D+00  1.14D+00
                    CP:  1.09D+00  1.05D+00  1.45D+00  1.26D+00
 FoFJK:  IHMeth= 1 ICntrl=     0 DoSepK=T KAlg= 1 I1Cent= 0 FoldK=F
 E= -2904.74266851661     Delta-E=       -0.000000000560 Rises=F Damp=F
 DIIS: error= 2.43D-07 at cycle  10 NSaved=  10.
 NSaved=10 IEnMin=10 EnMin= -2904.74266851661     IErMin=10 ErrMin= 2.43D-07
 ErrMax= 2.43D-07 EMaxC= 1.00D-01 BMatC= 1.11D-11 BMatP= 2.09D-10
 IDIUse=1 WtCom= 1.00D+00 WtEn= 0.00D+00
 Coeff-Com:  0.567D-09-0.206D-04-0.172D-03-0.909D-04 0.119D-02 0.429D-02
 Coeff-Com:  0.740D-02-0.730D-01-0.977D-02 0.107D+01
 Coeff:      0.567D-09-0.206D-04-0.172D-03-0.909D-04 0.119D-02 0.429D-02
 Coeff:      0.740D-02-0.730D-01-0.977D-02 0.107D+01
 Gap=     0.467 Goal=   None    Shift=    0.000
 RMSDP=3.84D-08 MaxDP=1.11D-06 DE=-5.60D-10 OVMax= 3.28D-06

 Cycle  11  Pass 1  IDiag  1:
 RMSU=  1.11D-08    CP:  1.02D+00  7.04D-01  1.18D+00  1.09D+00  1.14D+00
                    CP:  1.09D+00  1.04D+00  1.45D+00  1.37D+00  1.26D+00
 FoFJK:  IHMeth= 1 ICntrl=     0 DoSepK=T KAlg= 1 I1Cent= 0 FoldK=F
 E= -2904.74266851665     Delta-E=       -0.000000000047 Rises=F Damp=F
 DIIS: error= 5.57D-08 at cycle  11 NSaved=  11.
 NSaved=11 IEnMin=11 EnMin= -2904.74266851665     IErMin=11 ErrMin= 5.57D-08
 ErrMax= 5.57D-08 EMaxC= 1.00D-01 BMatC= 9.37D-13 BMatP= 1.11D-11
 IDIUse=1 WtCom= 1.00D+00 WtEn= 0.00D+00
 Coeff-Com: -0.851D-07-0.108D-04-0.657D-04-0.990D-04 0.151D-03 0.163D-02
 Coeff-Com:  0.460D-02-0.876D-02-0.711D-01 0.117D-01 0.106D+01
 Coeff:     -0.851D-07-0.108D-04-0.657D-04-0.990D-04 0.151D-03 0.163D-02
 Coeff:      0.460D-02-0.876D-02-0.711D-01 0.117D-01 0.106D+01
 Gap=     0.467 Goal=   None    Shift=    0.000
 RMSDP=1.05D-08 MaxDP=2.43D-07 DE=-4.68D-11 OVMax= 1.02D-06

 Cycle  12  Pass 1  IDiag  1:
 RMSU=  3.15D-09    CP:  1.02D+00  7.04D-01  1.18D+00  1.09D+00  1.14D+00
                    CP:  1.09D+00  1.04D+00  1.46D+00  1.39D+00  1.35D+00
                    CP:  1.29D+00
 FoFJK:  IHMeth= 1 ICntrl=     0 DoSepK=T KAlg= 1 I1Cent= 0 FoldK=F
 E= -2904.74266851667     Delta-E=       -0.000000000014 Rises=F Damp=F
 DIIS: error= 1.87D-08 at cycle  12 NSaved=  12.
 NSaved=12 IEnMin=12 EnMin= -2904.74266851667     IErMin=12 ErrMin= 1.87D-08
 ErrMax= 1.87D-08 EMaxC= 1.00D-01 BMatC= 8.49D-14 BMatP= 9.37D-13
 IDIUse=1 WtCom= 1.00D+00 WtEn= 0.00D+00
 Coeff-Com:  0.110D-06 0.285D-05 0.194D-04 0.110D-04-0.108D-03-0.482D-03
 Coeff-Com: -0.897D-03 0.652D-02 0.807D-02-0.913D-01-0.881D-01 0.117D+01
 Coeff:      0.110D-06 0.285D-05 0.194D-04 0.110D-04-0.108D-03-0.482D-03
 Coeff:     -0.897D-03 0.652D-02 0.807D-02-0.913D-01-0.881D-01 0.117D+01
 Gap=     0.467 Goal=   None    Shift=    0.000
 RMSDP=3.30D-09 MaxDP=7.46D-08 DE=-1.36D-11 OVMax= 3.99D-07

 SCF Done:  E(RLC-B+HF-LYP) =  -2904.74266852     A.U. after   12 cycles
             Convg  =    0.3299D-08             -V/T =  2.0017
 KE= 2.899833671854D+03 PE=-7.234510690496D+03 EE= 1.280805973136D+03
 Leave Link  502 at Wed May 13 14:53:08 2020, MaxMem= 1073741824 cpu:     327.7
 (Enter /home/matheus/.gaussian/g09/l601.exe)
 Copying SCF densities to generalized density rwf, IOpCl= 0 IROHF=0.

 **********************************************************************

            Population analysis using the SCF density.

 **********************************************************************

 Orbital symmetries:
       Occupied  (A) (A) (A) (A) (A) (A) (A) (A) (A) (A) (A) (A)
                 (A) (A) (A) (A) (A) (A) (A) (A) (A) (A) (A) (A)
                 (A) (A) (A)
       Virtual   (A) (A) (A) (A) (A) (A) (A) (A) (A) (A) (A) (A)
                 (A) (A) (A) (A) (A) (A) (A) (A) (A) (A) (A) (A)
                 (A) (A) (A) (A) (A) (A) (A) (A) (A) (A) (A) (A)
                 (A) (A) (A) (A) (A) (A) (A) (A) (A) (A) (A) (A)
                 (A) (A) (A) (A) (A) (A) (A) (A) (A) (A) (A) (A)
                 (A) (A) (A) (A) (A) (A) (A) (A) (A) (A) (A) (A)
                 (A) (A) (A) (A) (A) (A) (A) (A) (A) (A) (A) (A)
                 (A) (A) (A) (A) (A) (A) (A) (A) (A) (A) (A) (A)
                 (A) (A) (A) (A) (A) (A) (A) (A) (A) (A) (A) (A)
                 (A) (A) (A) (A) (A) (A) (A) (A) (A) (A) (A) (A)
                 (A) (A) (A) (A) (A) (A) (A) (A) (A) (A) (A) (A)
                 (A) (A) (A) (A) (A) (A) (A) (A) (A) (A) (A) (A)
                 (A) (A) (A) (A) (A) (A) (A) (A) (A) (A) (A) (A)
                 (A) (A) (A) (A) (A) (A) (A) (A) (A) (A) (A) (A)
                 (A) (A)
 The electronic state is 1-A.
 Alpha  occ. eigenvalues -- -511.25741 -66.72743 -60.41276 -60.41259 -60.41249
 Alpha  occ. eigenvalues --  -19.07366 -19.07024  -9.61899  -7.37393  -7.37347
 Alpha  occ. eigenvalues --   -7.37315  -3.33725  -3.33717  -3.33694  -3.33659
 Alpha  occ. eigenvalues --   -3.33656  -1.28379  -1.07779  -1.06274  -0.70512
 Alpha  occ. eigenvalues --   -0.63542  -0.57362  -0.53061  -0.52651  -0.51837
 Alpha  occ. eigenvalues --   -0.45343  -0.44231
 Alpha virt. eigenvalues --    0.02432   0.03525   0.07454   0.08788   0.09953
 Alpha virt. eigenvalues --    0.10572   0.12700   0.12971   0.16006   0.16694
 Alpha virt. eigenvalues --    0.17403   0.18953   0.19321   0.21170   0.22597
 Alpha virt. eigenvalues --    0.23964   0.25200   0.27802   0.30574   0.32067
 Alpha virt. eigenvalues --    0.33011   0.34581   0.35563   0.38082   0.38691
 Alpha virt. eigenvalues --    0.40014   0.42462   0.46862   0.52197   0.54682
 Alpha virt. eigenvalues --    0.55519   0.59459   0.60958   0.64672   0.68414
 Alpha virt. eigenvalues --    0.70209   0.71798   0.73148   0.75431   0.76196
 Alpha virt. eigenvalues --    0.76708   0.77101   0.78949   0.80457   0.83056
 Alpha virt. eigenvalues --    0.84694   0.86008   0.88028   0.88836   0.90174
 Alpha virt. eigenvalues --    0.91963   0.93396   0.93855   0.95259   0.98625
 Alpha virt. eigenvalues --    1.00521   1.03312   1.06483   1.06838   1.08637
 Alpha virt. eigenvalues --    1.09921   1.16073   1.18227   1.20208   1.22413
 Alpha virt. eigenvalues --    1.25241   1.28919   1.35483   1.37695   1.41527
 Alpha virt. eigenvalues --    1.44810   1.49652   1.51508   1.53619   1.59187
 Alpha virt. eigenvalues --    1.68806   1.72293   1.83182   1.91756   1.95972
 Alpha virt. eigenvalues --    1.99569   2.03969   2.08224   2.12828   2.14993
 Alpha virt. eigenvalues --    2.17768   2.18343   2.19755   2.23319   2.27440
 Alpha virt. eigenvalues --    2.29194   2.30830   2.32203   2.32839   2.34859
 Alpha virt. eigenvalues --    2.39620   2.41115   2.44842   2.46787   2.48514
 Alpha virt. eigenvalues --    2.51370   2.51496   2.54704   2.57250   2.59347
 Alpha virt. eigenvalues --    2.61254   2.63775   2.65914   2.71242   2.71763
 Alpha virt. eigenvalues --    2.74996   2.77092   2.79093   2.86706   2.88648
 Alpha virt. eigenvalues --    2.94973   3.05989   3.12340   3.15676   3.62738
 Alpha virt. eigenvalues --    3.66963   3.90129   3.93944   4.01197   4.09516
 Alpha virt. eigenvalues --    4.16068   4.21681   4.24459   4.26753   4.28612
 Alpha virt. eigenvalues --    4.35978   4.49255   4.52502   4.56025   4.68928
 Alpha virt. eigenvalues --    4.91340   4.97956   5.01416   5.16653   5.17355
 Alpha virt. eigenvalues --    5.22955   5.43881   5.85221   6.05915   6.14504
 Alpha virt. eigenvalues --    6.19186   6.31645   6.33560   6.47923   6.52936
 Alpha virt. eigenvalues --    6.59379   6.78888   6.80278   6.81941   6.84450
 Alpha virt. eigenvalues --    6.88402   6.90217   6.91360   6.99465   7.01770
 Alpha virt. eigenvalues --    7.08035   7.15075   7.24736   7.45797   7.64670
 Alpha virt. eigenvalues --    7.80245   8.09322   8.12427  13.95090  14.59099
          Condensed to atoms (all electrons):
              1          2          3          4          5
     1  O    8.224923  -0.173545   0.184105   0.002792  -0.031327
     2  O   -0.173545   8.186397   0.017980   0.208113  -0.013823
     3  H    0.184105   0.017980   0.587116  -0.000052   0.001045
     4  H    0.002792   0.208113  -0.000052   0.586141  -0.003628
     5  Kr  -0.031327  -0.013823   0.001045  -0.003628  36.032102
 Mulliken atomic charges:
              1
     1  O   -0.206948
     2  O   -0.225123
     3  H    0.209805
     4  H    0.206634
     5  Kr   0.015631
 Sum of Mulliken atomic charges =   0.00000
 Mulliken charges with hydrogens summed into heavy atoms:
              1
     1  O    0.002858
     2  O   -0.018489
     5  Kr   0.015631
 Sum of Mulliken charges with hydrogens summed into heavy atoms =   0.00000
          Condensed to fragments (all electrons):
     1      -0.015631
     2       0.015631
 Electronic spatial extent (au):  <R**2>=            486.3987
 Charge=              0.0000 electrons
 Dipole moment (field-independent basis, Debye):
    X=             -1.5256    Y=             -0.4185    Z=              1.5383  Tot=              2.2066
 Quadrupole moment (field-independent basis, Debye-Ang):
   XX=            -34.0158   YY=            -28.2547   ZZ=            -29.3499
   XY=             -2.7273   XZ=              3.6322   YZ=             -1.8634
 Traceless Quadrupole moment (field-independent basis, Debye-Ang):
   XX=             -3.4757   YY=              2.2855   ZZ=              1.1902
   XY=             -2.7273   XZ=              3.6322   YZ=             -1.8634
 Octapole moment (field-independent basis, Debye-Ang**2):
  XXX=            -31.5692  YYY=             -1.1617  ZZZ=              1.2585  XYY=             -5.2005
  XXY=             -9.0703  XXZ=              7.9626  XZZ=             -5.5289  YZZ=             -1.8813
  YYZ=              2.3307  XYZ=             -4.3031
 Hexadecapole moment (field-independent basis, Debye-Ang**3):
 XXXX=           -449.2136 YYYY=            -64.8695 ZZZZ=            -30.7879 XXXY=            -21.3478
 XXXZ=             19.0112 YYYX=             -4.9437 YYYZ=             -2.7191 ZZZX=              3.3535
 ZZZY=             -2.0023 XXYY=            -80.9636 XXZZ=            -72.5927 YYZZ=            -16.4221
 XXYZ=            -10.0058 YYXZ=              5.1756 ZZXY=             -3.8473
 N-N= 1.491283769891D+02 E-N=-7.234510692243D+03  KE= 2.899833671854D+03
 No NMR shielding tensors so no spin-rotation constants.
 Leave Link  601 at Wed May 13 14:53:08 2020, MaxMem= 1073741824 cpu:       0.8
 (Enter /home/matheus/.gaussian/g09/l122.exe)
 Counterpoise: doing DCBS calculation for fragment   1 NewBq=T
 Leave Link  122 at Wed May 13 14:53:08 2020, MaxMem= 1073741824 cpu:       0.0
 (Enter /home/matheus/.gaussian/g09/l301.exe)
 Basis read from rwf:  (5D, 7F)
 No pseudopotential information found on rwf file.
 There are   197 symmetry adapted basis functions of A   symmetry.
 Integral buffers will be    131072 words long.
 Raffenetti 2 integral format.
 Two-electron integral symmetry is turned on.
   197 basis functions,   415 primitive gaussians,   229 cartesian basis functions
     9 alpha electrons        9 beta electrons
       nuclear repulsion energy        36.6212539076 Hartrees.
 IExCor=10402 DFT=T Ex=LC-B+HF Corr=LYP ExCW=0 ScaHFX=  1.000000
 ScaDFX=  1.000000  1.000000  1.000000  1.000000 ScalE2=  1.000000  1.000000
 IRadAn=      5 IRanWt=     -1 IRanGd=            0 ICorTp=0
  HFx wShort=  0.000000 wLong=  0.470000 cFull=  0.000000 cShort=  0.000000 cLong=  1.000000
  DFx wShort=  0.000000 wLong=  0.470000 cFull=  0.000000 cShort=  0.000000 cLong=  1.000000
 NAtoms=    5 NActive=    5 NUniq=    5 SFac= 1.00D+00 NAtFMM=   60 NAOKFM=F Big=F
 No density basis found on file   718.
 Leave Link  301 at Wed May 13 14:53:08 2020, MaxMem= 1073741824 cpu:       0.2
 (Enter /home/matheus/.gaussian/g09/l302.exe)
 NPDir=0 NMtPBC=     1 NCelOv=     1 NCel=       1 NClECP=     1 NCelD=      1
         NCelK=      1 NCelE2=     1 NClLst=     1 CellRange=     0.0.
 One-electron integrals computed using PRISM.
 NBasis=   197 RedAO= T  NBF=   197
 NBsUse=   197 1.00D-06 NBFU=   197
 Precomputing XC quadrature grid using
 IXCGrd= 2 IRadAn=           5 IRanWt=          -1 IRanGd=           0 AccXCQ= 0.00D+00.
 NRdTot=     427 NPtTot=      123512 NUsed=      126579 NTot=      126611
 NSgBfM=   229   229   229   229   229 NAtAll=     5     5.
 Leave Link  302 at Wed May 13 14:53:08 2020, MaxMem= 1073741824 cpu:       1.0
 (Enter /home/matheus/.gaussian/g09/l303.exe)
 DipDrv:  MaxL=1.
 Leave Link  303 at Wed May 13 14:53:08 2020, MaxMem= 1073741824 cpu:       0.2
 (Enter /home/matheus/.gaussian/g09/l401.exe)
 Harris functional with IExCor=10402 diagonalized for initial guess.
 ExpMin= 2.53D-02 ExpMax= 1.17D+07 ExpMxC= 1.33D+04 IAcc=3 IRadAn=         5 AccDes= 0.00D+00
 HarFok:  IExCor=10402 AccDes= 0.00D+00 IRadAn=         5 IDoV= 1
 ScaDFX=  1.000000  1.000000  1.000000  1.000000
 FoFCou: FMM=F IPFlag=           0 FMFlag=      100000 FMFlg1=           0
         NFxFlg=           0 DoJE=T BraDBF=F KetDBF=T FulRan=T
         Omega=  0.000000  0.000000  1.000000  0.000000  0.000000 ICntrl=     500 IOpCl=  0
         NMat0=    1 NMatS0=    1 NMatT0=    0 NMatD0=    1 NMtDS0=    0 NMtDT0=    0
         I1Cent=           4 NGrid=           0.
 Petite list used in FoFCou.
 Harris En= -147.165507329504    
 Initial guess orbital symmetries:
       Occupied  (A) (A) (A) (A) (A) (A) (A) (A) (A)
       Virtual   (A) (A) (A) (A) (A) (A) (A) (A) (A) (A) (A) (A)
                 (A) (A) (A) (A) (A) (A) (A) (A) (A) (A) (A) (A)
                 (A) (A) (A) (A) (A) (A) (A) (A) (A) (A) (A) (A)
                 (A) (A) (A) (A) (A) (A) (A) (A) (A) (A) (A) (A)
                 (A) (A) (A) (A) (A) (A) (A) (A) (A) (A) (A) (A)
                 (A) (A) (A) (A) (A) (A) (A) (A) (A) (A) (A) (A)
                 (A) (A) (A) (A) (A) (A) (A) (A) (A) (A) (A) (A)
                 (A) (A) (A) (A) (A) (A) (A) (A) (A) (A) (A) (A)
                 (A) (A) (A) (A) (A) (A) (A) (A) (A) (A) (A) (A)
                 (A) (A) (A) (A) (A) (A) (A) (A) (A) (A) (A) (A)
                 (A) (A) (A) (A) (A) (A) (A) (A) (A) (A) (A) (A)
                 (A) (A) (A) (A) (A) (A) (A) (A) (A) (A) (A) (A)
                 (A) (A) (A) (A) (A) (A) (A) (A) (A) (A) (A) (A)
                 (A) (A) (A) (A) (A) (A) (A) (A) (A) (A) (A) (A)
                 (A) (A) (A) (A) (A) (A) (A) (A) (A) (A) (A) (A)
                 (A) (A) (A) (A) (A) (A) (A) (A)
 The electronic state of the initial guess is 1-A.
 Leave Link  401 at Wed May 13 14:53:09 2020, MaxMem= 1073741824 cpu:       4.2
 (Enter /home/matheus/.gaussian/g09/l502.exe)
 Closed shell SCF:
 Requested convergence on RMS density matrix=1.00D-08 within 128 cycles.
 Requested convergence on MAX density matrix=1.00D-06.
 Requested convergence on             energy=1.00D-06.
 No special actions if energy rises.
 Using DIIS extrapolation, IDIIS=  1040.
 Integral symmetry usage will be decided dynamically.
       126521 words used for storage of precomputed grid.
 IEnd=      305468 IEndB=      305468 NGot=  1073741824 MDV=  1073505667
 LenX=  1073505667 LenY=  1073452785
 Fock matrices will be formed incrementally for  20 cycles.

 Cycle   1  Pass 1  IDiag  1:
 FoFJK:  IHMeth= 1 ICntrl=     0 DoSepK=T KAlg= 1 I1Cent= 0 FoldK=F
 FoFCou: FMM=F IPFlag=           0 FMFlag=      100000 FMFlg1=           0
         NFxFlg=           0 DoJE=T BraDBF=F KetDBF=F FulRan=T
         Omega=  0.000000  0.000000  1.000000  0.000000  0.000000 ICntrl=     500 IOpCl=  0
         NMat0=    1 NMatS0=    1 NMatT0=    0 NMatD0=    1 NMtDS0=    0 NMtDT0=    0
         I1Cent=           0 NGrid=           0.
 Symmetry not used in FoFCou.
 E= -151.304909894878    
 DIIS: error= 8.28D-03 at cycle   1 NSaved=   1.
 NSaved= 1 IEnMin= 1 EnMin= -151.304909894878     IErMin= 1 ErrMin= 8.28D-03
 ErrMax= 8.28D-03 EMaxC= 1.00D-01 BMatC= 2.21D-02 BMatP= 2.21D-02
 IDIUse=3 WtCom= 9.17D-01 WtEn= 8.28D-02
 Coeff-Com:  0.100D+01
 Coeff-En:   0.100D+01
 Coeff:      0.100D+01
 Gap=     0.497 Goal=   None    Shift=    0.000
 GapD=    0.497 DampG=2.000 DampE=1.000 DampFc=2.0000 IDamp=-1.
 RMSDP=8.39D-04 MaxDP=2.73D-02              OVMax= 5.21D-02

 Cycle   2  Pass 1  IDiag  1:
 RMSU=  5.92D-04    CP:  1.00D+00
 FoFJK:  IHMeth= 1 ICntrl=     0 DoSepK=T KAlg= 1 I1Cent= 0 FoldK=F
 E= -151.323529390426     Delta-E=       -0.018619495548 Rises=F Damp=F
 DIIS: error= 4.45D-03 at cycle   2 NSaved=   2.
 NSaved= 2 IEnMin= 2 EnMin= -151.323529390426     IErMin= 2 ErrMin= 4.45D-03
 ErrMax= 4.45D-03 EMaxC= 1.00D-01 BMatC= 5.05D-03 BMatP= 2.21D-02
 IDIUse=3 WtCom= 9.55D-01 WtEn= 4.45D-02
 Coeff-Com:  0.276D+00 0.724D+00
 Coeff-En:   0.000D+00 0.100D+01
 Coeff:      0.264D+00 0.736D+00
 Gap=     0.458 Goal=   None    Shift=    0.000
 RMSDP=2.17D-04 MaxDP=6.54D-03 DE=-1.86D-02 OVMax= 1.46D-02

 Cycle   3  Pass 1  IDiag  1:
 RMSU=  1.54D-04    CP:  1.00D+00  9.99D-01
 FoFJK:  IHMeth= 1 ICntrl=     0 DoSepK=T KAlg= 1 I1Cent= 0 FoldK=F
 E= -151.326388955308     Delta-E=       -0.002859564882 Rises=F Damp=F
 DIIS: error= 1.75D-03 at cycle   3 NSaved=   3.
 NSaved= 3 IEnMin= 3 EnMin= -151.326388955308     IErMin= 3 ErrMin= 1.75D-03
 ErrMax= 1.75D-03 EMaxC= 1.00D-01 BMatC= 5.67D-04 BMatP= 5.05D-03
 IDIUse=3 WtCom= 9.82D-01 WtEn= 1.75D-02
 Coeff-Com:  0.189D-01 0.238D+00 0.743D+00
 Coeff-En:   0.000D+00 0.000D+00 0.100D+01
 Coeff:      0.186D-01 0.234D+00 0.748D+00
 Gap=     0.467 Goal=   None    Shift=    0.000
 RMSDP=1.02D-04 MaxDP=3.45D-03 DE=-2.86D-03 OVMax= 7.07D-03

 Cycle   4  Pass 1  IDiag  1:
 RMSU=  5.07D-05    CP:  1.00D+00  1.08D+00  9.52D-01
 FoFJK:  IHMeth= 1 ICntrl=     0 DoSepK=T KAlg= 1 I1Cent= 0 FoldK=F
 E= -151.326822697596     Delta-E=       -0.000433742288 Rises=F Damp=F
 DIIS: error= 2.86D-04 at cycle   4 NSaved=   4.
 NSaved= 4 IEnMin= 4 EnMin= -151.326822697596     IErMin= 4 ErrMin= 2.86D-04
 ErrMax= 2.86D-04 EMaxC= 1.00D-01 BMatC= 3.26D-05 BMatP= 5.67D-04
 IDIUse=3 WtCom= 9.97D-01 WtEn= 2.86D-03
 Coeff-Com: -0.216D-01-0.340D-01 0.133D+00 0.923D+00
 Coeff-En:   0.000D+00 0.000D+00 0.000D+00 0.100D+01
 Coeff:     -0.215D-01-0.339D-01 0.133D+00 0.923D+00
 Gap=     0.465 Goal=   None    Shift=    0.000
 RMSDP=3.87D-05 MaxDP=1.46D-03 DE=-4.34D-04 OVMax= 1.93D-03

 Cycle   5  Pass 1  IDiag  1:
 RMSU=  9.83D-06    CP:  1.00D+00  1.11D+00  1.08D+00  1.14D+00
 FoFJK:  IHMeth= 1 ICntrl=     0 DoSepK=T KAlg= 1 I1Cent= 0 FoldK=F
 E= -151.326856138970     Delta-E=       -0.000033441374 Rises=F Damp=F
 DIIS: error= 4.11D-05 at cycle   5 NSaved=   5.
 NSaved= 5 IEnMin= 5 EnMin= -151.326856138970     IErMin= 5 ErrMin= 4.11D-05
 ErrMax= 4.11D-05 EMaxC= 1.00D-01 BMatC= 4.29D-07 BMatP= 3.26D-05
 IDIUse=1 WtCom= 1.00D+00 WtEn= 0.00D+00
 Coeff-Com:  0.792D-03-0.450D-02-0.358D-01-0.741D-01 0.111D+01
 Coeff:      0.792D-03-0.450D-02-0.358D-01-0.741D-01 0.111D+01
 Gap=     0.465 Goal=   None    Shift=    0.000
 RMSDP=9.63D-06 MaxDP=3.78D-04 DE=-3.34D-05 OVMax= 6.57D-04

 Cycle   6  Pass 1  IDiag  1:
 RMSU=  2.09D-06    CP:  1.00D+00  1.11D+00  1.10D+00  1.22D+00  1.28D+00
 FoFJK:  IHMeth= 1 ICntrl=     0 DoSepK=T KAlg= 1 I1Cent= 0 FoldK=F
 E= -151.326857572989     Delta-E=       -0.000001434019 Rises=F Damp=F
 DIIS: error= 1.29D-05 at cycle   6 NSaved=   6.
 NSaved= 6 IEnMin= 6 EnMin= -151.326857572989     IErMin= 6 ErrMin= 1.29D-05
 ErrMax= 1.29D-05 EMaxC= 1.00D-01 BMatC= 2.41D-08 BMatP= 4.29D-07
 IDIUse=1 WtCom= 1.00D+00 WtEn= 0.00D+00
 Coeff-Com:  0.355D-03 0.717D-03-0.222D-02-0.172D-01-0.562D-01 0.107D+01
 Coeff:      0.355D-03 0.717D-03-0.222D-02-0.172D-01-0.562D-01 0.107D+01
 Gap=     0.465 Goal=   None    Shift=    0.000
 RMSDP=1.57D-06 MaxDP=4.22D-05 DE=-1.43D-06 OVMax= 1.50D-04

 Cycle   7  Pass 1  IDiag  1:
 RMSU=  3.88D-07    CP:  1.00D+00  1.11D+00  1.10D+00  1.24D+00  1.33D+00
                    CP:  1.31D+00
 FoFJK:  IHMeth= 1 ICntrl=     0 DoSepK=T KAlg= 1 I1Cent= 0 FoldK=F
 E= -151.326857648829     Delta-E=       -0.000000075840 Rises=F Damp=F
 DIIS: error= 2.87D-06 at cycle   7 NSaved=   7.
 NSaved= 7 IEnMin= 7 EnMin= -151.326857648829     IErMin= 7 ErrMin= 2.87D-06
 ErrMax= 2.87D-06 EMaxC= 1.00D-01 BMatC= 2.07D-09 BMatP= 2.41D-08
 IDIUse=1 WtCom= 1.00D+00 WtEn= 0.00D+00
 Coeff-Com:  0.128D-04 0.377D-03 0.197D-02 0.310D-02-0.761D-01 0.171D-01
 Coeff-Com:  0.105D+01
 Coeff:      0.128D-04 0.377D-03 0.197D-02 0.310D-02-0.761D-01 0.171D-01
 Coeff:      0.105D+01
 Gap=     0.465 Goal=   None    Shift=    0.000
 RMSDP=4.19D-07 MaxDP=1.42D-05 DE=-7.58D-08 OVMax= 5.31D-05

 Cycle   8  Pass 1  IDiag  1:
 RMSU=  1.59D-07    CP:  1.00D+00  1.11D+00  1.10D+00  1.24D+00  1.34D+00
                    CP:  1.40D+00  1.32D+00
 FoFJK:  IHMeth= 1 ICntrl=     0 DoSepK=T KAlg= 1 I1Cent= 0 FoldK=F
 E= -151.326857655200     Delta-E=       -0.000000006371 Rises=F Damp=F
 DIIS: error= 1.45D-06 at cycle   8 NSaved=   8.
 NSaved= 8 IEnMin= 8 EnMin= -151.326857655200     IErMin= 8 ErrMin= 1.45D-06
 ErrMax= 1.45D-06 EMaxC= 1.00D-01 BMatC= 7.35D-10 BMatP= 2.07D-09
 IDIUse=1 WtCom= 1.00D+00 WtEn= 0.00D+00
 Coeff-Com: -0.782D-05 0.154D-03 0.950D-03 0.208D-02-0.309D-01-0.450D-01
 Coeff-Com:  0.475D+00 0.598D+00
 Coeff:     -0.782D-05 0.154D-03 0.950D-03 0.208D-02-0.309D-01-0.450D-01
 Coeff:      0.475D+00 0.598D+00
 Gap=     0.465 Goal=   None    Shift=    0.000
 RMSDP=9.61D-08 MaxDP=2.99D-06 DE=-6.37D-09 OVMax= 9.60D-06

 Cycle   9  Pass 1  IDiag  1:
 RMSU=  5.33D-08    CP:  1.00D+00  1.11D+00  1.10D+00  1.24D+00  1.33D+00
                    CP:  1.41D+00  1.41D+00  1.03D+00
 FoFJK:  IHMeth= 1 ICntrl=     0 DoSepK=T KAlg= 1 I1Cent= 0 FoldK=F
 E= -151.326857655811     Delta-E=       -0.000000000611 Rises=F Damp=F
 DIIS: error= 4.52D-07 at cycle   9 NSaved=   9.
 NSaved= 9 IEnMin= 9 EnMin= -151.326857655811     IErMin= 9 ErrMin= 4.52D-07
 ErrMax= 4.52D-07 EMaxC= 1.00D-01 BMatC= 8.79D-11 BMatP= 7.35D-10
 IDIUse=1 WtCom= 1.00D+00 WtEn= 0.00D+00
 Coeff-Com: -0.570D-05-0.280D-04-0.185D-03-0.103D-03 0.918D-02-0.233D-01
 Coeff-Com: -0.108D+00 0.211D+00 0.911D+00
 Coeff:     -0.570D-05-0.280D-04-0.185D-03-0.103D-03 0.918D-02-0.233D-01
 Coeff:     -0.108D+00 0.211D+00 0.911D+00
 Gap=     0.465 Goal=   None    Shift=    0.000
 RMSDP=6.76D-08 MaxDP=1.74D-06 DE=-6.11D-10 OVMax= 7.17D-06

 Cycle  10  Pass 1  IDiag  1:
 RMSU=  1.58D-08    CP:  1.00D+00  1.11D+00  1.10D+00  1.24D+00  1.33D+00
                    CP:  1.41D+00  1.47D+00  1.22D+00  1.07D+00
 FoFJK:  IHMeth= 1 ICntrl=     0 DoSepK=T KAlg= 1 I1Cent= 0 FoldK=F
 E= -151.326857655951     Delta-E=       -0.000000000139 Rises=F Damp=F
 DIIS: error= 1.03D-07 at cycle  10 NSaved=  10.
 NSaved=10 IEnMin=10 EnMin= -151.326857655951     IErMin=10 ErrMin= 1.03D-07
 ErrMax= 1.03D-07 EMaxC= 1.00D-01 BMatC= 1.59D-12 BMatP= 8.79D-11
 IDIUse=1 WtCom= 1.00D+00 WtEn= 0.00D+00
 Coeff-Com:  0.181D-05-0.201D-05-0.479D-04-0.164D-03 0.137D-02 0.354D-02
 Coeff-Com: -0.186D-01-0.478D-01-0.617D-01 0.112D+01
 Coeff:      0.181D-05-0.201D-05-0.479D-04-0.164D-03 0.137D-02 0.354D-02
 Coeff:     -0.186D-01-0.478D-01-0.617D-01 0.112D+01
 Gap=     0.465 Goal=   None    Shift=    0.000
 RMSDP=1.53D-08 MaxDP=3.81D-07 DE=-1.39D-10 OVMax= 1.84D-06

 Cycle  11  Pass 1  IDiag  1:
 RMSU=  2.83D-09    CP:  1.00D+00  1.11D+00  1.10D+00  1.24D+00  1.33D+00
                    CP:  1.41D+00  1.48D+00  1.25D+00  1.15D+00  1.38D+00
 FoFJK:  IHMeth= 1 ICntrl=     0 DoSepK=T KAlg= 1 I1Cent= 0 FoldK=F
 E= -151.326857655958     Delta-E=       -0.000000000007 Rises=F Damp=F
 DIIS: error= 2.15D-08 at cycle  11 NSaved=  11.
 NSaved=11 IEnMin=11 EnMin= -151.326857655958     IErMin=11 ErrMin= 2.15D-08
 ErrMax= 2.15D-08 EMaxC= 1.00D-01 BMatC= 1.04D-13 BMatP= 1.59D-12
 IDIUse=1 WtCom= 1.00D+00 WtEn= 0.00D+00
 Coeff-Com:  0.539D-07 0.259D-05 0.171D-04 0.148D-04-0.685D-03 0.867D-03
 Coeff-Com:  0.884D-02-0.412D-02-0.412D-01-0.194D+00 0.123D+01
 Coeff:      0.539D-07 0.259D-05 0.171D-04 0.148D-04-0.685D-03 0.867D-03
 Coeff:      0.884D-02-0.412D-02-0.412D-01-0.194D+00 0.123D+01
 Gap=     0.465 Goal=   None    Shift=    0.000
 RMSDP=4.08D-09 MaxDP=7.20D-08 DE=-6.93D-12 OVMax= 5.06D-07

 SCF Done:  E(RLC-B+HF-LYP) =  -151.326857656     A.U. after   11 cycles
             Convg  =    0.4078D-08             -V/T =  2.0057
 KE= 1.504648711823D+02 PE=-4.314016304916D+02 EE= 9.298864774577D+01
 Leave Link  502 at Wed May 13 14:53:44 2020, MaxMem= 1073741824 cpu:     283.3
 (Enter /home/matheus/.gaussian/g09/l601.exe)
 Copying SCF densities to generalized density rwf, IOpCl= 0 IROHF=0.

 **********************************************************************

            Population analysis using the SCF density.

 **********************************************************************

 Orbital symmetries:
       Occupied  (A) (A) (A) (A) (A) (A) (A) (A) (A)
       Virtual   (A) (A) (A) (A) (A) (A) (A) (A) (A) (A) (A) (A)
                 (A) (A) (A) (A) (A) (A) (A) (A) (A) (A) (A) (A)
                 (A) (A) (A) (A) (A) (A) (A) (A) (A) (A) (A) (A)
                 (A) (A) (A) (A) (A) (A) (A) (A) (A) (A) (A) (A)
                 (A) (A) (A) (A) (A) (A) (A) (A) (A) (A) (A) (A)
                 (A) (A) (A) (A) (A) (A) (A) (A) (A) (A) (A) (A)
                 (A) (A) (A) (A) (A) (A) (A) (A) (A) (A) (A) (A)
                 (A) (A) (A) (A) (A) (A) (A) (A) (A) (A) (A) (A)
                 (A) (A) (A) (A) (A) (A) (A) (A) (A) (A) (A) (A)
                 (A) (A) (A) (A) (A) (A) (A) (A) (A) (A) (A) (A)
                 (A) (A) (A) (A) (A) (A) (A) (A) (A) (A) (A) (A)
                 (A) (A) (A) (A) (A) (A) (A) (A) (A) (A) (A) (A)
                 (A) (A) (A) (A) (A) (A) (A) (A) (A) (A) (A) (A)
                 (A) (A) (A) (A) (A) (A) (A) (A) (A) (A) (A) (A)
                 (A) (A) (A) (A) (A) (A) (A) (A) (A) (A) (A) (A)
                 (A) (A) (A) (A) (A) (A) (A) (A)
 The electronic state is 1-A.
 Alpha  occ. eigenvalues --  -19.07570 -19.07567  -1.28589  -1.06632  -0.70588
 Alpha  occ. eigenvalues --   -0.63105  -0.57231  -0.45700  -0.44556
 Alpha virt. eigenvalues --    0.01954   0.03133   0.06743   0.08074   0.09914
 Alpha virt. eigenvalues --    0.10063   0.10261   0.13059   0.15962   0.16506
 Alpha virt. eigenvalues --    0.17830   0.18134   0.20201   0.21887   0.24567
 Alpha virt. eigenvalues --    0.25530   0.29883   0.29977   0.31477   0.32146
 Alpha virt. eigenvalues --    0.33065   0.36817   0.37214   0.39012   0.40346
 Alpha virt. eigenvalues --    0.42496   0.43637   0.46493   0.47202   0.48724
 Alpha virt. eigenvalues --    0.52612   0.56741   0.60091   0.61355   0.65920
 Alpha virt. eigenvalues --    0.70535   0.73003   0.75013   0.77334   0.77997
 Alpha virt. eigenvalues --    0.79905   0.80558   0.86809   0.88835   0.89116
 Alpha virt. eigenvalues --    0.90012   0.91212   0.93301   0.95608   0.95705
 Alpha virt. eigenvalues --    0.98212   1.00037   1.04149   1.08680   1.11195
 Alpha virt. eigenvalues --    1.12784   1.14668   1.18998   1.21549   1.23849
 Alpha virt. eigenvalues --    1.25947   1.27097   1.29484   1.31134   1.32205
 Alpha virt. eigenvalues --    1.33455   1.34276   1.36922   1.38473   1.41045
 Alpha virt. eigenvalues --    1.43649   1.48552   1.48882   1.51101   1.55306
 Alpha virt. eigenvalues --    1.59110   1.65396   1.66504   1.69818   1.77823
 Alpha virt. eigenvalues --    1.82485   1.86111   1.93872   1.96881   2.04768
 Alpha virt. eigenvalues --    2.06473   2.09553   2.17016   2.19631   2.25176
 Alpha virt. eigenvalues --    2.27389   2.32107   2.36549   2.38540   2.40743
 Alpha virt. eigenvalues --    2.47085   2.52211   2.55773   2.61244   2.65324
 Alpha virt. eigenvalues --    2.69904   2.71300   2.83346   2.86682   2.93963
 Alpha virt. eigenvalues --    3.04745   3.11039   3.13216   3.25436   3.29730
 Alpha virt. eigenvalues --    3.40562   3.53811   3.60969   3.67666   3.77873
 Alpha virt. eigenvalues --    3.78117   3.81564   3.81762   3.82000   3.82659
 Alpha virt. eigenvalues --    3.86749   3.88258   3.93172   3.93536   3.95826
 Alpha virt. eigenvalues --    3.97720   4.01082   4.06333   4.10818   4.17367
 Alpha virt. eigenvalues --    4.21983   4.23017   4.27831   4.31323   4.34420
 Alpha virt. eigenvalues --    4.42575   4.51052   4.57393   4.68928   4.91712
 Alpha virt. eigenvalues --    4.98250   5.01702   5.16726   5.17693   5.23321
 Alpha virt. eigenvalues --    5.43757   5.85100   6.05567   6.14422   6.19010
 Alpha virt. eigenvalues --    6.31602   6.33497   6.47844   6.52797   6.59242
 Alpha virt. eigenvalues --    6.78744   6.79872   6.81611   6.84167   6.88265
 Alpha virt. eigenvalues --    6.89929   6.91161   6.99204   7.01640   7.07887
 Alpha virt. eigenvalues --    7.14851   7.24509   7.45644   7.64459   7.80018
 Alpha virt. eigenvalues --    8.09055   8.11690  10.87418  13.94737  14.58378
 Alpha virt. eigenvalues --   14.82910  14.87301  15.09005  29.02679  29.02848
 Alpha virt. eigenvalues --   29.07538  29.12758  29.22466  49.08973 148.31092
 Alpha virt. eigenvalues --  148.37582 148.69867 752.48156
          Condensed to atoms (all electrons):
              1          2          3          4          5
     1  O    8.195512  -0.168515   0.180759   0.002243  -0.001349
     2  O   -0.168515   8.167761   0.017367   0.202685  -0.000071
     3  H    0.180759   0.017367   0.595082   0.001184  -0.000273
     4  H    0.002243   0.202685   0.001184   0.581866  -0.004533
     5  Kr  -0.001349  -0.000071  -0.000273  -0.004533   0.000787
 Mulliken atomic charges:
              1
     1  O   -0.208650
     2  O   -0.219227
     3  H    0.205882
     4  H    0.216556
     5  Kr   0.005439
 Sum of Mulliken atomic charges =   0.00000
 Mulliken charges with hydrogens summed into heavy atoms:
              1
     1  O   -0.002768
     2  O   -0.002671
     5  Kr   0.005439
 Sum of Mulliken charges with hydrogens summed into heavy atoms =   0.00000
          Condensed to fragments (all electrons):
     1      -0.005439
     2       0.005439
 Electronic spatial extent (au):  <R**2>=            321.8924
 Charge=              0.0000 electrons
 Dipole moment (field-independent basis, Debye):
    X=             -1.3277    Y=             -0.1669    Z=              1.6350  Tot=              2.1128
 Quadrupole moment (field-independent basis, Debye-Ang):
   XX=            -16.2696   YY=            -10.5325   ZZ=            -11.6877
   XY=             -2.8722   XZ=              3.5603   YZ=             -1.8744
 Traceless Quadrupole moment (field-independent basis, Debye-Ang):
   XX=             -3.4396   YY=              2.2974   ZZ=              1.1422
   XY=             -2.8722   XZ=              3.5603   YZ=             -1.8744
 Octapole moment (field-independent basis, Debye-Ang**2):
  XXX=            -82.7969  YYY=             -1.4438  ZZZ=              1.4689  XYY=            -22.5040
  XXY=             -8.9601  XXZ=              8.0869  XZZ=            -22.8856  YZZ=             -1.9798
  YYZ=              2.4004  XYZ=             -4.3082
 Hexadecapole moment (field-independent basis, Debye-Ang**3):
 XXXX=           -325.8138 YYYY=            -46.1430 ZZZZ=            -12.1499 XXXY=            -20.9414
 XXXZ=             18.7869 YYYX=             -4.6476 YYYZ=             -2.7419 ZZZX=              3.1852
 ZZZY=             -2.0246 XXYY=            -57.3371 XXZZ=            -49.1238 YYZZ=            -10.1861
 XXYZ=            -10.0253 YYXZ=              5.1099 ZZXY=             -3.7171
 N-N= 3.662125390757D+01 E-N=-4.314016304711D+02  KE= 1.504648711823D+02
 No NMR shielding tensors so no spin-rotation constants.
 Leave Link  601 at Wed May 13 14:53:45 2020, MaxMem= 1073741824 cpu:       0.8
 (Enter /home/matheus/.gaussian/g09/l122.exe)
 Counterpoise: doing DCBS calculation for fragment   2 NewBq=T
 Leave Link  122 at Wed May 13 14:53:45 2020, MaxMem= 1073741824 cpu:       0.0
 (Enter /home/matheus/.gaussian/g09/l301.exe)
 Basis read from rwf:  (5D, 7F)
 No pseudopotential information found on rwf file.
 There are   197 symmetry adapted basis functions of A   symmetry.
 Integral buffers will be    131072 words long.
 Raffenetti 2 integral format.
 Two-electron integral symmetry is turned on.
   197 basis functions,   415 primitive gaussians,   229 cartesian basis functions
    18 alpha electrons       18 beta electrons
       nuclear repulsion energy         0.0000000000 Hartrees.
 IExCor=10402 DFT=T Ex=LC-B+HF Corr=LYP ExCW=0 ScaHFX=  1.000000
 ScaDFX=  1.000000  1.000000  1.000000  1.000000 ScalE2=  1.000000  1.000000
 IRadAn=      5 IRanWt=     -1 IRanGd=            0 ICorTp=0
  HFx wShort=  0.000000 wLong=  0.470000 cFull=  0.000000 cShort=  0.000000 cLong=  1.000000
  DFx wShort=  0.000000 wLong=  0.470000 cFull=  0.000000 cShort=  0.000000 cLong=  1.000000
 NAtoms=    5 NActive=    5 NUniq=    5 SFac= 1.00D+00 NAtFMM=   60 NAOKFM=F Big=F
 No density basis found on file   718.
 Leave Link  301 at Wed May 13 14:53:45 2020, MaxMem= 1073741824 cpu:       0.2
 (Enter /home/matheus/.gaussian/g09/l302.exe)
 NPDir=0 NMtPBC=     1 NCelOv=     1 NCel=       1 NClECP=     1 NCelD=      1
         NCelK=      1 NCelE2=     1 NClLst=     1 CellRange=     0.0.
 One-electron integrals computed using PRISM.
 NBasis=   197 RedAO= T  NBF=   197
 NBsUse=   197 1.00D-06 NBFU=   197
 Precomputing XC quadrature grid using
 IXCGrd= 2 IRadAn=           5 IRanWt=          -1 IRanGd=           0 AccXCQ= 0.00D+00.
 NRdTot=     427 NPtTot=      123512 NUsed=      126579 NTot=      126611
 NSgBfM=   229   229   229   229   229 NAtAll=     5     5.
 Leave Link  302 at Wed May 13 14:53:45 2020, MaxMem= 1073741824 cpu:       1.0
 (Enter /home/matheus/.gaussian/g09/l303.exe)
 DipDrv:  MaxL=1.
 Leave Link  303 at Wed May 13 14:53:45 2020, MaxMem= 1073741824 cpu:       0.2
 (Enter /home/matheus/.gaussian/g09/l401.exe)
 Harris functional with IExCor=10402 diagonalized for initial guess.
 ExpMin= 2.53D-02 ExpMax= 1.17D+07 ExpMxC= 1.33D+04 IAcc=3 IRadAn=         5 AccDes= 0.00D+00
 HarFok:  IExCor=10402 AccDes= 0.00D+00 IRadAn=         5 IDoV= 1
 ScaDFX=  1.000000  1.000000  1.000000  1.000000
 FoFCou: FMM=F IPFlag=           0 FMFlag=      100000 FMFlg1=           0
         NFxFlg=           0 DoJE=T BraDBF=F KetDBF=T FulRan=T
         Omega=  0.000000  0.000000  1.000000  0.000000  0.000000 ICntrl=     500 IOpCl=  0
         NMat0=    1 NMatS0=    1 NMatT0=    0 NMatD0=    1 NMtDS0=    0 NMtDT0=    0
         I1Cent=           4 NGrid=           0.
 Petite list used in FoFCou.
 Harris En= -2744.51537489165    
 Initial guess orbital symmetries:
       Occupied  (A) (A) (A) (A) (A) (A) (A) (A) (A) (A) (A) (A)
                 (A) (A) (A) (A) (A) (A)
       Virtual   (A) (A) (A) (A) (A) (A) (A) (A) (A) (A) (A) (A)
                 (A) (A) (A) (A) (A) (A) (A) (A) (A) (A) (A) (A)
                 (A) (A) (A) (A) (A) (A) (A) (A) (A) (A) (A) (A)
                 (A) (A) (A) (A) (A) (A) (A) (A) (A) (A) (A) (A)
                 (A) (A) (A) (A) (A) (A) (A) (A) (A) (A) (A) (A)
                 (A) (A) (A) (A) (A) (A) (A) (A) (A) (A) (A) (A)
                 (A) (A) (A) (A) (A) (A) (A) (A) (A) (A) (A) (A)
                 (A) (A) (A) (A) (A) (A) (A) (A) (A) (A) (A) (A)
                 (A) (A) (A) (A) (A) (A) (A) (A) (A) (A) (A) (A)
                 (A) (A) (A) (A) (A) (A) (A) (A) (A) (A) (A) (A)
                 (A) (A) (A) (A) (A) (A) (A) (A) (A) (A) (A) (A)
                 (A) (A) (A) (A) (A) (A) (A) (A) (A) (A) (A) (A)
                 (A) (A) (A) (A) (A) (A) (A) (A) (A) (A) (A) (A)
                 (A) (A) (A) (A) (A) (A) (A) (A) (A) (A) (A) (A)
                 (A) (A) (A) (A) (A) (A) (A) (A) (A) (A) (A)
 The electronic state of the initial guess is 1-A.
 Leave Link  401 at Wed May 13 14:53:45 2020, MaxMem= 1073741824 cpu:       4.3
 (Enter /home/matheus/.gaussian/g09/l502.exe)
 Closed shell SCF:
 Requested convergence on RMS density matrix=1.00D-08 within 128 cycles.
 Requested convergence on MAX density matrix=1.00D-06.
 Requested convergence on             energy=1.00D-06.
 No special actions if energy rises.
 Using DIIS extrapolation, IDIIS=  1040.
 Integral symmetry usage will be decided dynamically.
       126521 words used for storage of precomputed grid.
 IEnd=      305468 IEndB=      305468 NGot=  1073741824 MDV=  1073505667
 LenX=  1073505667 LenY=  1073452785
 Fock matrices will be formed incrementally for  20 cycles.

 Cycle   1  Pass 1  IDiag  1:
 FoFJK:  IHMeth= 1 ICntrl=     0 DoSepK=T KAlg= 1 I1Cent= 0 FoldK=F
 FoFCou: FMM=F IPFlag=           0 FMFlag=      100000 FMFlg1=           0
         NFxFlg=           0 DoJE=T BraDBF=F KetDBF=F FulRan=T
         Omega=  0.000000  0.000000  1.000000  0.000000  0.000000 ICntrl=     500 IOpCl=  0
         NMat0=    1 NMatS0=    1 NMatT0=    0 NMatD0=    1 NMtDS0=    0 NMtDT0=    0
         I1Cent=           0 NGrid=           0.
 Symmetry not used in FoFCou.
 E= -2753.33350081845    
 DIIS: error= 2.31D-02 at cycle   1 NSaved=   1.
 NSaved= 1 IEnMin= 1 EnMin= -2753.33350081845     IErMin= 1 ErrMin= 2.31D-02
 ErrMax= 2.31D-02 EMaxC= 1.00D-01 BMatC= 2.61D-01 BMatP= 2.61D-01
 IDIUse=3 WtCom= 7.69D-01 WtEn= 2.31D-01
 Coeff-Com:  0.100D+01
 Coeff-En:   0.100D+01
 Coeff:      0.100D+01
 Gap=     0.618 Goal=   None    Shift=    0.000
 GapD=    0.618 DampG=2.000 DampE=0.500 DampFc=1.0000 IDamp=-1.
 RMSDP=2.47D-03 MaxDP=1.52D-01              OVMax= 1.05D-01

 Cycle   2  Pass 1  IDiag  1:
 RMSU=  1.69D-03    CP:  1.03D+00
 FoFJK:  IHMeth= 1 ICntrl=     0 DoSepK=T KAlg= 1 I1Cent= 0 FoldK=F
 E= -2753.38946833228     Delta-E=       -0.055967513835 Rises=F Damp=F
 DIIS: error= 1.26D-02 at cycle   2 NSaved=   2.
 NSaved= 2 IEnMin= 2 EnMin= -2753.38946833228     IErMin= 2 ErrMin= 1.26D-02
 ErrMax= 1.26D-02 EMaxC= 1.00D-01 BMatC= 8.81D-02 BMatP= 2.61D-01
 IDIUse=3 WtCom= 8.74D-01 WtEn= 1.26D-01
 Coeff-Com:  0.365D+00 0.635D+00
 Coeff-En:   0.130D+00 0.870D+00
 Coeff:      0.335D+00 0.665D+00
 Gap=     0.539 Goal=   None    Shift=    0.000
 RMSDP=9.69D-04 MaxDP=6.04D-02 DE=-5.60D-02 OVMax= 3.11D-02

 Cycle   3  Pass 1  IDiag  1:
 RMSU=  1.72D-04    CP:  1.02D+00  6.20D-01
 FoFJK:  IHMeth= 1 ICntrl=     0 DoSepK=T KAlg= 1 I1Cent= 0 FoldK=F
 E= -2753.41752372050     Delta-E=       -0.028055388223 Rises=F Damp=F
 DIIS: error= 7.91D-04 at cycle   3 NSaved=   3.
 NSaved= 3 IEnMin= 3 EnMin= -2753.41752372050     IErMin= 3 ErrMin= 7.91D-04
 ErrMax= 7.91D-04 EMaxC= 1.00D-01 BMatC= 4.67D-04 BMatP= 8.81D-02
 IDIUse=3 WtCom= 9.92D-01 WtEn= 7.91D-03
 Coeff-Com: -0.644D-02 0.550D-01 0.951D+00
 Coeff-En:   0.000D+00 0.000D+00 0.100D+01
 Coeff:     -0.639D-02 0.545D-01 0.952D+00
 Gap=     0.538 Goal=   None    Shift=    0.000
 RMSDP=9.07D-05 MaxDP=4.59D-03 DE=-2.81D-02 OVMax= 3.14D-03

 Cycle   4  Pass 1  IDiag  1:
 RMSU=  3.74D-05    CP:  1.02D+00  6.46D-01  1.15D+00
 FoFJK:  IHMeth= 1 ICntrl=     0 DoSepK=T KAlg= 1 I1Cent= 0 FoldK=F
 E= -2753.41767609499     Delta-E=       -0.000152374483 Rises=F Damp=F
 DIIS: error= 6.95D-05 at cycle   4 NSaved=   4.
 NSaved= 4 IEnMin= 4 EnMin= -2753.41767609499     IErMin= 4 ErrMin= 6.95D-05
 ErrMax= 6.95D-05 EMaxC= 1.00D-01 BMatC= 2.09D-06 BMatP= 4.67D-04
 IDIUse=1 WtCom= 1.00D+00 WtEn= 0.00D+00
 Coeff-Com: -0.143D-02 0.343D-03-0.709D-02 0.101D+01
 Coeff:     -0.143D-02 0.343D-03-0.709D-02 0.101D+01
 Gap=     0.539 Goal=   None    Shift=    0.000
 RMSDP=1.39D-05 MaxDP=5.46D-04 DE=-1.52D-04 OVMax= 9.22D-04

 Cycle   5  Pass 1  IDiag  1:
 RMSU=  5.93D-06    CP:  1.02D+00  6.48D-01  1.19D+00  1.05D+00
 FoFJK:  IHMeth= 1 ICntrl=     0 DoSepK=T KAlg= 1 I1Cent= 0 FoldK=F
 E= -2753.41768006847     Delta-E=       -0.000003973485 Rises=F Damp=F
 DIIS: error= 2.90D-05 at cycle   5 NSaved=   5.
 NSaved= 5 IEnMin= 5 EnMin= -2753.41768006847     IErMin= 5 ErrMin= 2.90D-05
 ErrMax= 2.90D-05 EMaxC= 1.00D-01 BMatC= 1.58D-07 BMatP= 2.09D-06
 IDIUse=1 WtCom= 1.00D+00 WtEn= 0.00D+00
 Coeff-Com: -0.536D-04-0.372D-02-0.336D-01-0.711D-01 0.111D+01
 Coeff:     -0.536D-04-0.372D-02-0.336D-01-0.711D-01 0.111D+01
 Gap=     0.539 Goal=   None    Shift=    0.000
 RMSDP=4.53D-06 MaxDP=1.86D-04 DE=-3.97D-06 OVMax= 1.97D-04

 Cycle   6  Pass 1  IDiag  1:
 RMSU=  3.68D-07    CP:  1.02D+00  6.48D-01  1.20D+00  1.10D+00  1.15D+00
 FoFJK:  IHMeth= 1 ICntrl=     0 DoSepK=T KAlg= 1 I1Cent= 0 FoldK=F
 E= -2753.41768027509     Delta-E=       -0.000000206615 Rises=F Damp=F
 DIIS: error= 5.45D-07 at cycle   6 NSaved=   6.
 NSaved= 6 IEnMin= 6 EnMin= -2753.41768027509     IErMin= 6 ErrMin= 5.45D-07
 ErrMax= 5.45D-07 EMaxC= 1.00D-01 BMatC= 9.70D-11 BMatP= 1.58D-07
 IDIUse=1 WtCom= 1.00D+00 WtEn= 0.00D+00
 Coeff-Com:  0.728D-05 0.319D-03 0.318D-02 0.718D-04-0.818D-01 0.108D+01
 Coeff:      0.728D-05 0.319D-03 0.318D-02 0.718D-04-0.818D-01 0.108D+01
 Gap=     0.539 Goal=   None    Shift=    0.000
 RMSDP=1.52D-07 MaxDP=5.00D-06 DE=-2.07D-07 OVMax= 6.22D-06

 Cycle   7  Pass 1  IDiag  1:
 RMSU=  2.38D-08    CP:  1.02D+00  6.48D-01  1.20D+00  1.10D+00  1.17D+00
                    CP:  1.18D+00
 FoFJK:  IHMeth= 1 ICntrl=     0 DoSepK=T KAlg= 1 I1Cent= 0 FoldK=F
 E= -2753.41768027517     Delta-E=       -0.000000000083 Rises=F Damp=F
 DIIS: error= 7.71D-08 at cycle   7 NSaved=   7.
 NSaved= 7 IEnMin= 7 EnMin= -2753.41768027517     IErMin= 7 ErrMin= 7.71D-08
 ErrMax= 7.71D-08 EMaxC= 1.00D-01 BMatC= 2.31D-12 BMatP= 9.70D-11
 IDIUse=1 WtCom= 1.00D+00 WtEn= 0.00D+00
 Coeff-Com:  0.481D-06 0.371D-04 0.326D-03 0.870D-03-0.118D-01 0.114D-01
 Coeff-Com:  0.999D+00
 Coeff:      0.481D-06 0.371D-04 0.326D-03 0.870D-03-0.118D-01 0.114D-01
 Coeff:      0.999D+00
 Gap=     0.539 Goal=   None    Shift=    0.000
 RMSDP=1.55D-08 MaxDP=5.51D-07 DE=-8.28D-11 OVMax= 8.28D-07

 Cycle   8  Pass 1  IDiag  1:
 RMSU=  4.63D-09    CP:  1.02D+00  6.48D-01  1.20D+00  1.10D+00  1.17D+00
                    CP:  1.19D+00  1.11D+00
 FoFJK:  IHMeth= 1 ICntrl=     0 DoSepK=T KAlg= 1 I1Cent= 0 FoldK=F
 E= -2753.41768027516     Delta-E=        0.000000000007 Rises=F Damp=F
 DIIS: error= 1.61D-08 at cycle   8 NSaved=   8.
 NSaved= 8 IEnMin= 7 EnMin= -2753.41768027517     IErMin= 8 ErrMin= 1.61D-08
 ErrMax= 1.61D-08 EMaxC= 1.00D-01 BMatC= 2.00D-13 BMatP= 2.31D-12
 IDIUse=1 WtCom= 1.00D+00 WtEn= 0.00D+00
 Coeff-Com: -0.334D-06-0.112D-04-0.122D-03 0.188D-03 0.228D-02-0.572D-01
 Coeff-Com:  0.189D+00 0.866D+00
 Coeff:     -0.334D-06-0.112D-04-0.122D-03 0.188D-03 0.228D-02-0.572D-01
 Coeff:      0.189D+00 0.866D+00
 Gap=     0.539 Goal=   None    Shift=    0.000
 RMSDP=2.91D-09 MaxDP=1.04D-07 DE= 6.82D-12 OVMax= 1.75D-07

 SCF Done:  E(RLC-B+HF-LYP) =  -2753.41768028     A.U. after    8 cycles
             Convg  =    0.2906D-08             -V/T =  2.0015
 KE= 2.749316346075D+03 PE=-6.578526977631D+03 EE= 1.075792951281D+03
 Leave Link  502 at Wed May 13 14:54:13 2020, MaxMem= 1073741824 cpu:     217.3
 (Enter /home/matheus/.gaussian/g09/l601.exe)
 Copying SCF densities to generalized density rwf, IOpCl= 0 IROHF=0.

 **********************************************************************

            Population analysis using the SCF density.

 **********************************************************************

 Orbital symmetries:
       Occupied  (A) (A) (A) (A) (A) (A) (A) (A) (A) (A) (A) (A)
                 (A) (A) (A) (A) (A) (A)
       Virtual   (A) (A) (A) (A) (A) (A) (A) (A) (A) (A) (A) (A)
                 (A) (A) (A) (A) (A) (A) (A) (A) (A) (A) (A) (A)
                 (A) (A) (A) (A) (A) (A) (A) (A) (A) (A) (A) (A)
                 (A) (A) (A) (A) (A) (A) (A) (A) (A) (A) (A) (A)
                 (A) (A) (A) (A) (A) (A) (A) (A) (A) (A) (A) (A)
                 (A) (A) (A) (A) (A) (A) (A) (A) (A) (A) (A) (A)
                 (A) (A) (A) (A) (A) (A) (A) (A) (A) (A) (A) (A)
                 (A) (A) (A) (A) (A) (A) (A) (A) (A) (A) (A) (A)
                 (A) (A) (A) (A) (A) (A) (A) (A) (A) (A) (A) (A)
                 (A) (A) (A) (A) (A) (A) (A) (A) (A) (A) (A) (A)
                 (A) (A) (A) (A) (A) (A) (A) (A) (A) (A) (A) (A)
                 (A) (A) (A) (A) (A) (A) (A) (A) (A) (A) (A) (A)
                 (A) (A) (A) (A) (A) (A) (A) (A) (A) (A) (A) (A)
                 (A) (A) (A) (A) (A) (A) (A) (A) (A) (A) (A) (A)
                 (A) (A) (A) (A) (A) (A) (A) (A) (A) (A) (A)
 The electronic state is 1-A.
 Alpha  occ. eigenvalues -- -511.24358 -66.71349 -60.39871 -60.39868 -60.39867
 Alpha  occ. eigenvalues --   -9.60493  -7.35947  -7.35945  -7.35945  -3.32283
 Alpha  occ. eigenvalues --   -3.32283  -3.32283  -3.32282  -3.32282  -1.06080
 Alpha  occ. eigenvalues --   -0.51293  -0.51289  -0.51287
 Alpha virt. eigenvalues --    0.02575   0.04708   0.07765   0.08622   0.10990
 Alpha virt. eigenvalues --    0.11644   0.12755   0.13194   0.15756   0.16606
 Alpha virt. eigenvalues --    0.17377   0.19165   0.20037   0.25164   0.26424
 Alpha virt. eigenvalues --    0.26861   0.28046   0.30433   0.32903   0.34008
 Alpha virt. eigenvalues --    0.35679   0.36915   0.37938   0.39035   0.40827
 Alpha virt. eigenvalues --    0.41423   0.42201   0.52780   0.53318   0.58058
 Alpha virt. eigenvalues --    0.58102   0.65965   0.67563   0.69292   0.71550
 Alpha virt. eigenvalues --    0.74447   0.74827   0.76767   0.78079   0.79533
 Alpha virt. eigenvalues --    0.80469   0.80802   0.83205   0.85166   0.86540
 Alpha virt. eigenvalues --    0.87956   0.88511   0.90114   0.91135   0.95237
 Alpha virt. eigenvalues --    0.96734   0.97949   0.98833   0.99580   1.01862
 Alpha virt. eigenvalues --    1.04956   1.07883   1.08286   1.10615   1.11888
 Alpha virt. eigenvalues --    1.16055   1.20416   1.24097   1.27153   1.28347
 Alpha virt. eigenvalues --    1.33074   1.34704   1.38329   1.44640   1.45643
 Alpha virt. eigenvalues --    1.53293   1.56181   1.59403   1.73445   1.75888
 Alpha virt. eigenvalues --    1.78575   1.82384   1.85947   1.98003   2.16534
 Alpha virt. eigenvalues --    2.19742   2.24169   2.28008   2.29840   2.31500
 Alpha virt. eigenvalues --    2.32966   2.33136   2.36664   2.39235   2.41116
 Alpha virt. eigenvalues --    2.42902   2.45217   2.46463   2.50648   2.51324
 Alpha virt. eigenvalues --    2.52535   2.53851   2.55812   2.56600   2.58203
 Alpha virt. eigenvalues --    2.62524   2.63226   2.65601   2.68772   2.71728
 Alpha virt. eigenvalues --    2.73788   2.78487   2.83705   2.87917   2.89038
 Alpha virt. eigenvalues --    2.94492   2.98717   3.02814   3.10783   3.19238
 Alpha virt. eigenvalues --    3.23117   3.23902   3.29771   3.36419   3.47570
 Alpha virt. eigenvalues --    3.60331   3.62995   3.82211   3.85656   4.03266
 Alpha virt. eigenvalues --    4.34918   4.40799   4.50222   4.55752   4.64757
 Alpha virt. eigenvalues --    4.72066   4.86637   4.89666   4.93073   4.99573
 Alpha virt. eigenvalues --    5.12528   5.21080   5.58222   5.64201   5.74830
 Alpha virt. eigenvalues --    5.90947   6.01363   6.10910   6.73277   6.87380
 Alpha virt. eigenvalues --    7.37085   7.44819   7.57796   7.61362   7.74849
 Alpha virt. eigenvalues --    7.82006   7.91012   8.12072   8.16006   8.21220
 Alpha virt. eigenvalues --    8.39747   8.47012   8.56428   8.85228   9.65094
 Alpha virt. eigenvalues --    9.75235   9.83758   9.88646   9.89819   9.98919
 Alpha virt. eigenvalues --   10.14057  10.33318  10.35234  10.97038  11.51101
 Alpha virt. eigenvalues --   11.65382  11.78467  12.05980  12.09421  13.22503
 Alpha virt. eigenvalues --   13.62159  14.51408  62.77946  64.68486
          Condensed to atoms (all electrons):
              1          2          3          4          5
     1  O    0.001750  -0.001484  -0.001063   0.000936  -0.006923
     2  O   -0.001484   0.004608   0.000539  -0.003038  -0.004607
     3  H   -0.001063   0.000539   0.000823  -0.000310   0.001385
     4  H    0.000936  -0.003038  -0.000310   0.002903  -0.013037
     5  Kr  -0.006923  -0.004607   0.001385  -0.013037  36.045121
 Mulliken atomic charges:
              1
     1  O    0.006785
     2  O    0.003982
     3  H   -0.001374
     4  H    0.012547
     5  Kr  -0.021940
 Sum of Mulliken atomic charges =   0.00000
 Mulliken charges with hydrogens summed into heavy atoms:
              1
     1  O    0.005411
     2  O    0.016529
     5  Kr  -0.021940
 Sum of Mulliken charges with hydrogens summed into heavy atoms =   0.00000
          Condensed to fragments (all electrons):
     1       0.021940
     2      -0.021940
 Electronic spatial extent (au):  <R**2>=            164.6081
 Charge=              0.0000 electrons
 Dipole moment (field-independent basis, Debye):
    X=              0.0014    Y=              0.0006    Z=              0.0002  Tot=              0.0015
 Quadrupole moment (field-independent basis, Debye-Ang):
   XX=            -17.7465   YY=            -17.7570   ZZ=            -17.7640
   XY=              0.0041   XZ=              0.0006   YZ=              0.0001
 Traceless Quadrupole moment (field-independent basis, Debye-Ang):
   XX=              0.0093   YY=             -0.0011   ZZ=             -0.0082
   XY=              0.0041   XZ=              0.0006   YZ=              0.0001
 Octapole moment (field-independent basis, Debye-Ang**2):
  XXX=             52.4922  YYY=              0.6237  ZZZ=             -0.0373  XYY=             17.5102
  XXY=              0.1998  XXZ=             -0.0139  XZZ=             17.5142  YZZ=              0.2088
  YYZ=             -0.0124  XYZ=             -0.0001
 Hexadecapole moment (field-independent basis, Debye-Ang**3):
 XXXX=           -122.4137 YYYY=            -18.9400 ZZZZ=            -18.9492 XXXY=             -0.5976
 XXXZ=              0.0398 YYYX=             -0.6028 YYYZ=              0.0002 ZZZX=              0.0392
 ZZZY=              0.0011 XXYY=            -23.5715 XXZZ=            -23.5742 YYZZ=             -6.3139
 XXYZ=              0.0004 YYXZ=              0.0126 ZZXY=             -0.1996
 N-N= 0.000000000000D+00 E-N=-6.578526976032D+03  KE= 2.749316346075D+03
 No NMR shielding tensors so no spin-rotation constants.
 Leave Link  601 at Wed May 13 14:54:13 2020, MaxMem= 1073741824 cpu:       0.8
 (Enter /home/matheus/.gaussian/g09/l122.exe)
 Counterpoise: doing MCBS calculation for fragment   1
 Leave Link  122 at Wed May 13 14:54:13 2020, MaxMem= 1073741824 cpu:       0.0
 (Enter /home/matheus/.gaussian/g09/l301.exe)
 Basis read from rwf:  (5D, 7F)
 No pseudopotential information found on rwf file.
 There are   138 symmetry adapted basis functions of A   symmetry.
 Integral buffers will be    131072 words long.
 Raffenetti 2 integral format.
 Two-electron integral symmetry is turned on.
   138 basis functions,   198 primitive gaussians,   160 cartesian basis functions
     9 alpha electrons        9 beta electrons
       nuclear repulsion energy        36.6212539076 Hartrees.
 IExCor=10402 DFT=T Ex=LC-B+HF Corr=LYP ExCW=0 ScaHFX=  1.000000
 ScaDFX=  1.000000  1.000000  1.000000  1.000000 ScalE2=  1.000000  1.000000
 IRadAn=      5 IRanWt=     -1 IRanGd=            0 ICorTp=0
  HFx wShort=  0.000000 wLong=  0.470000 cFull=  0.000000 cShort=  0.000000 cLong=  1.000000
  DFx wShort=  0.000000 wLong=  0.470000 cFull=  0.000000 cShort=  0.000000 cLong=  1.000000
 NAtoms=    5 NActive=    4 NUniq=    4 SFac= 1.00D+00 NAtFMM=   60 NAOKFM=F Big=F
 No density basis found on file   718.
 Leave Link  301 at Wed May 13 14:54:13 2020, MaxMem= 1073741824 cpu:       0.2
 (Enter /home/matheus/.gaussian/g09/l302.exe)
 NPDir=0 NMtPBC=     1 NCelOv=     1 NCel=       1 NClECP=     1 NCelD=      1
         NCelK=      1 NCelE2=     1 NClLst=     1 CellRange=     0.0.
 One-electron integrals computed using PRISM.
 NBasis=   138 RedAO= T  NBF=   138
 NBsUse=   138 1.00D-06 NBFU=   138
 Precomputing XC quadrature grid using
 IXCGrd= 2 IRadAn=           5 IRanWt=          -1 IRanGd=           0 AccXCQ= 0.00D+00.
 NRdTot=     344 NPtTot=       92556 NUsed=       95038 NTot=       95070
 NSgBfM=   160   160   160   160   160 NAtAll=     4     4.
 Leave Link  302 at Wed May 13 14:54:13 2020, MaxMem= 1073741824 cpu:       0.8
 (Enter /home/matheus/.gaussian/g09/l303.exe)
 DipDrv:  MaxL=1.
 Leave Link  303 at Wed May 13 14:54:13 2020, MaxMem= 1073741824 cpu:       0.2
 (Enter /home/matheus/.gaussian/g09/l401.exe)
 Harris functional with IExCor=10402 diagonalized for initial guess.
 ExpMin= 2.53D-02 ExpMax= 1.53D+04 ExpMxC= 5.22D+02 IAcc=3 IRadAn=         5 AccDes= 0.00D+00
 HarFok:  IExCor=10402 AccDes= 0.00D+00 IRadAn=         5 IDoV= 1
 ScaDFX=  1.000000  1.000000  1.000000  1.000000
 FoFCou: FMM=F IPFlag=           0 FMFlag=      100000 FMFlg1=           0
         NFxFlg=           0 DoJE=T BraDBF=F KetDBF=T FulRan=T
         Omega=  0.000000  0.000000  1.000000  0.000000  0.000000 ICntrl=     500 IOpCl=  0
         NMat0=    1 NMatS0=    1 NMatT0=    0 NMatD0=    1 NMtDS0=    0 NMtDT0=    0
         I1Cent=           4 NGrid=           0.
 Petite list used in FoFCou.
 Harris En= -147.165471082321    
 Initial guess orbital symmetries:
       Occupied  (A) (A) (A) (A) (A) (A) (A) (A) (A)
       Virtual   (A) (A) (A) (A) (A) (A) (A) (A) (A) (A) (A) (A)
                 (A) (A) (A) (A) (A) (A) (A) (A) (A) (A) (A) (A)
                 (A) (A) (A) (A) (A) (A) (A) (A) (A) (A) (A) (A)
                 (A) (A) (A) (A) (A) (A) (A) (A) (A) (A) (A) (A)
                 (A) (A) (A) (A) (A) (A) (A) (A) (A) (A) (A) (A)
                 (A) (A) (A) (A) (A) (A) (A) (A) (A) (A) (A) (A)
                 (A) (A) (A) (A) (A) (A) (A) (A) (A) (A) (A) (A)
                 (A) (A) (A) (A) (A) (A) (A) (A) (A) (A) (A) (A)
                 (A) (A) (A) (A) (A) (A) (A) (A) (A) (A) (A) (A)
                 (A) (A) (A) (A) (A) (A) (A) (A) (A) (A) (A) (A)
                 (A) (A) (A) (A) (A) (A) (A) (A) (A)
 The electronic state of the initial guess is 1-A.
 Leave Link  401 at Wed May 13 14:54:13 2020, MaxMem= 1073741824 cpu:       2.2
 (Enter /home/matheus/.gaussian/g09/l502.exe)
 Closed shell SCF:
 Requested convergence on RMS density matrix=1.00D-08 within 128 cycles.
 Requested convergence on MAX density matrix=1.00D-06.
 Requested convergence on             energy=1.00D-06.
 No special actions if energy rises.
 Using DIIS extrapolation, IDIIS=  1040.
 Integral symmetry usage will be decided dynamically.
        94980 words used for storage of precomputed grid.
 IEnd=      192360 IEndB=      192360 NGot=  1073741824 MDV=  1073591865
 LenX=  1073591865 LenY=  1073565824
 Fock matrices will be formed incrementally for  20 cycles.

 Cycle   1  Pass 1  IDiag  1:
 FoFJK:  IHMeth= 1 ICntrl=     0 DoSepK=T KAlg= 1 I1Cent= 0 FoldK=F
 FoFCou: FMM=F IPFlag=           0 FMFlag=      100000 FMFlg1=           0
         NFxFlg=           0 DoJE=T BraDBF=F KetDBF=F FulRan=T
         Omega=  0.000000  0.000000  1.000000  0.000000  0.000000 ICntrl=     500 IOpCl=  0
         NMat0=    1 NMatS0=    1 NMatT0=    0 NMatD0=    1 NMtDS0=    0 NMtDT0=    0
         I1Cent=           0 NGrid=           0.
 Symmetry not used in FoFCou.
 E= -151.304886606409    
 DIIS: error= 1.30D-02 at cycle   1 NSaved=   1.
 NSaved= 1 IEnMin= 1 EnMin= -151.304886606409     IErMin= 1 ErrMin= 1.30D-02
 ErrMax= 1.30D-02 EMaxC= 1.00D-01 BMatC= 2.20D-02 BMatP= 2.20D-02
 IDIUse=3 WtCom= 8.70D-01 WtEn= 1.30D-01
 Coeff-Com:  0.100D+01
 Coeff-En:   0.100D+01
 Coeff:      0.100D+01
 Gap=     0.499 Goal=   None    Shift=    0.000
 GapD=    0.499 DampG=2.000 DampE=0.500 DampFc=1.0000 IDamp=-1.
 RMSDP=1.18D-03 MaxDP=2.70D-02              OVMax= 5.19D-02

 Cycle   2  Pass 1  IDiag  1:
 RMSU=  8.32D-04    CP:  1.00D+00
 FoFJK:  IHMeth= 1 ICntrl=     0 DoSepK=T KAlg= 1 I1Cent= 0 FoldK=F
 E= -151.323478164449     Delta-E=       -0.018591558040 Rises=F Damp=F
 DIIS: error= 8.19D-03 at cycle   2 NSaved=   2.
 NSaved= 2 IEnMin= 2 EnMin= -151.323478164449     IErMin= 2 ErrMin= 8.19D-03
 ErrMax= 8.19D-03 EMaxC= 1.00D-01 BMatC= 5.04D-03 BMatP= 2.20D-02
 IDIUse=3 WtCom= 9.18D-01 WtEn= 8.19D-02
 Coeff-Com:  0.276D+00 0.724D+00
 Coeff-En:   0.000D+00 0.100D+01
 Coeff:      0.254D+00 0.746D+00
 Gap=     0.460 Goal=   None    Shift=    0.000
 RMSDP=3.12D-04 MaxDP=6.92D-03 DE=-1.86D-02 OVMax= 1.48D-02

 Cycle   3  Pass 1  IDiag  1:
 RMSU=  2.20D-04    CP:  1.00D+00  9.98D-01
 FoFJK:  IHMeth= 1 ICntrl=     0 DoSepK=T KAlg= 1 I1Cent= 0 FoldK=F
 E= -151.326303061127     Delta-E=       -0.002824896678 Rises=F Damp=F
 DIIS: error= 2.01D-03 at cycle   3 NSaved=   3.
 NSaved= 3 IEnMin= 3 EnMin= -151.326303061127     IErMin= 3 ErrMin= 2.01D-03
 ErrMax= 2.01D-03 EMaxC= 1.00D-01 BMatC= 6.20D-04 BMatP= 5.04D-03
 IDIUse=3 WtCom= 9.80D-01 WtEn= 2.01D-02
 Coeff-Com:  0.190D-01 0.248D+00 0.733D+00
 Coeff-En:   0.000D+00 0.000D+00 0.100D+01
 Coeff:      0.186D-01 0.243D+00 0.738D+00
 Gap=     0.470 Goal=   None    Shift=    0.000
 RMSDP=1.44D-04 MaxDP=3.40D-03 DE=-2.82D-03 OVMax= 7.16D-03

 Cycle   4  Pass 1  IDiag  1:
 RMSU=  7.13D-05    CP:  1.00D+00  1.08D+00  9.40D-01
 FoFJK:  IHMeth= 1 ICntrl=     0 DoSepK=T KAlg= 1 I1Cent= 0 FoldK=F
 E= -151.326765147934     Delta-E=       -0.000462086807 Rises=F Damp=F
 DIIS: error= 4.17D-04 at cycle   4 NSaved=   4.
 NSaved= 4 IEnMin= 4 EnMin= -151.326765147934     IErMin= 4 ErrMin= 4.17D-04
 ErrMax= 4.17D-04 EMaxC= 1.00D-01 BMatC= 3.32D-05 BMatP= 6.20D-04
 IDIUse=3 WtCom= 9.96D-01 WtEn= 4.17D-03
 Coeff-Com: -0.216D-01-0.324D-01 0.133D+00 0.921D+00
 Coeff-En:   0.000D+00 0.000D+00 0.000D+00 0.100D+01
 Coeff:     -0.215D-01-0.323D-01 0.132D+00 0.921D+00
 Gap=     0.467 Goal=   None    Shift=    0.000
 RMSDP=5.45D-05 MaxDP=1.43D-03 DE=-4.62D-04 OVMax= 1.91D-03

 Cycle   5  Pass 1  IDiag  1:
 RMSU=  1.36D-05    CP:  1.00D+00  1.11D+00  1.07D+00  1.14D+00
 FoFJK:  IHMeth= 1 ICntrl=     0 DoSepK=T KAlg= 1 I1Cent= 0 FoldK=F
 E= -151.326798761070     Delta-E=       -0.000033613136 Rises=F Damp=F
 DIIS: error= 5.64D-05 at cycle   5 NSaved=   5.
 NSaved= 5 IEnMin= 5 EnMin= -151.326798761070     IErMin= 5 ErrMin= 5.64D-05
 ErrMax= 5.64D-05 EMaxC= 1.00D-01 BMatC= 4.28D-07 BMatP= 3.32D-05
 IDIUse=1 WtCom= 1.00D+00 WtEn= 0.00D+00
 Coeff-Com:  0.795D-03-0.495D-02-0.355D-01-0.742D-01 0.111D+01
 Coeff:      0.795D-03-0.495D-02-0.355D-01-0.742D-01 0.111D+01
 Gap=     0.468 Goal=   None    Shift=    0.000
[...]
 E= -2753.41756194985     Delta-E=       -0.000000543511 Rises=F Damp=F
 DIIS: error= 3.55D-06 at cycle   2 NSaved=   2.
 NSaved= 2 IEnMin= 2 EnMin= -2753.41756194985     IErMin= 2 ErrMin= 3.55D-06
 ErrMax= 3.55D-06 EMaxC= 1.00D-01 BMatC= 3.30D-09 BMatP= 5.46D-06
 IDIUse=1 WtCom= 1.00D+00 WtEn= 0.00D+00
 Coeff-Com: -0.717D-02 0.101D+01
 Coeff:     -0.717D-02 0.101D+01
 Gap=     0.539 Goal=   None    Shift=    0.000
 RMSDP=1.69D-06 MaxDP=6.82D-05 DE=-5.44D-07 OVMax= 4.52D-05

 Cycle   3  Pass 1  IDiag  1:
 RMSU=  5.57D-07    CP:  1.00D+00  1.09D+00
 FoFJK:  IHMeth= 1 ICntrl=     0 DoSepK=T KAlg= 1 I1Cent= 0 FoldK=F
 E= -2753.41756195577     Delta-E=       -0.000000005918 Rises=F Damp=F
 DIIS: error= 6.03D-07 at cycle   3 NSaved=   3.
 NSaved= 3 IEnMin= 3 EnMin= -2753.41756195577     IErMin= 3 ErrMin= 6.03D-07
 ErrMax= 6.03D-07 EMaxC= 1.00D-01 BMatC= 8.93D-11 BMatP= 3.30D-09
 IDIUse=1 WtCom= 1.00D+00 WtEn= 0.00D+00
 Coeff-Com:  0.269D-03-0.118D+00 0.112D+01
 Coeff:      0.269D-03-0.118D+00 0.112D+01
 Gap=     0.539 Goal=   None    Shift=    0.000
 RMSDP=2.13D-07 MaxDP=9.16D-06 DE=-5.92D-09 OVMax= 9.02D-06

 Cycle   4  Pass 1  IDiag  1:
 RMSU=  5.25D-08    CP:  1.00D+00  1.10D+00  1.18D+00
 FoFJK:  IHMeth= 1 ICntrl=     0 DoSepK=T KAlg= 1 I1Cent= 0 FoldK=F
 E= -2753.41756195596     Delta-E=       -0.000000000194 Rises=F Damp=F
 DIIS: error= 2.76D-07 at cycle   4 NSaved=   4.
 NSaved= 4 IEnMin= 4 EnMin= -2753.41756195596     IErMin= 4 ErrMin= 2.76D-07
 ErrMax= 2.76D-07 EMaxC= 1.00D-01 BMatC= 1.26D-11 BMatP= 8.93D-11
 IDIUse=1 WtCom= 1.00D+00 WtEn= 0.00D+00
 Coeff-Com:  0.216D-03-0.533D-01 0.335D+00 0.718D+00
 Coeff:      0.216D-03-0.533D-01 0.335D+00 0.718D+00
 Gap=     0.539 Goal=   None    Shift=    0.000
 RMSDP=1.84D-08 MaxDP=7.15D-07 DE=-1.94D-10 OVMax= 9.29D-07

 Cycle   5  Pass 1  IDiag  1:
 RMSU=  9.26D-09    CP:  1.00D+00  1.10D+00  1.19D+00  1.11D+00
 FoFJK:  IHMeth= 1 ICntrl=     0 DoSepK=T KAlg= 1 I1Cent= 0 FoldK=F
 E= -2753.41756195597     Delta-E=       -0.000000000003 Rises=F Damp=F
 DIIS: error= 3.22D-08 at cycle   5 NSaved=   5.
 NSaved= 5 IEnMin= 5 EnMin= -2753.41756195597     IErMin= 5 ErrMin= 3.22D-08
 ErrMax= 3.22D-08 EMaxC= 1.00D-01 BMatC= 2.53D-13 BMatP= 1.26D-11
 IDIUse=1 WtCom= 1.00D+00 WtEn= 0.00D+00
 Coeff-Com: -0.194D-04 0.723D-02-0.667D-01-0.324D-02 0.106D+01
 Coeff:     -0.194D-04 0.723D-02-0.667D-01-0.324D-02 0.106D+01
 Gap=     0.539 Goal=   None    Shift=    0.000
 RMSDP=8.84D-09 MaxDP=4.96D-07 DE=-3.18D-12 OVMax= 4.43D-07

 SCF Done:  E(RLC-B+HF-LYP) =  -2753.41756196     A.U. after    5 cycles
             Convg  =    0.8840D-08             -V/T =  2.0015
 KE= 2.749364461630D+03 PE=-6.578579900542D+03 EE= 1.075797876956D+03
 Leave Link  502 at Wed May 13 15:19:23 2020, MaxMem= 1073741824 cpu:     103.9
 (Enter /home/matheus/.gaussian/g09/l122.exe)
 Restoring MOs from calculation   4 to rwf.
 Counterpoise: doing MCBS calculation for fragment   1
 Leave Link  122 at Wed May 13 15:19:23 2020, MaxMem= 1073741824 cpu:       0.0
 (Enter /home/matheus/.gaussian/g09/l301.exe)
 Basis read from rwf:  (5D, 7F)
 No pseudopotential information found on rwf file.
 There are   138 symmetry adapted basis functions of A   symmetry.
 Integral buffers will be    131072 words long.
 Raffenetti 2 integral format.
 Two-electron integral symmetry is turned on.
   138 basis functions,   198 primitive gaussians,   160 cartesian basis functions
     9 alpha electrons        9 beta electrons
       nuclear repulsion energy        36.6212539076 Hartrees.
 IExCor=10402 DFT=T Ex=LC-B+HF Corr=LYP ExCW=0 ScaHFX=  1.000000
 ScaDFX=  1.000000  1.000000  1.000000  1.000000 ScalE2=  1.000000  1.000000
 IRadAn=      5 IRanWt=     -1 IRanGd=            0 ICorTp=0
  HFx wShort=  0.000000 wLong=  0.470000 cFull=  0.000000 cShort=  0.000000 cLong=  1.000000
  DFx wShort=  0.000000 wLong=  0.470000 cFull=  0.000000 cShort=  0.000000 cLong=  1.000000
 NAtoms=    5 NActive=    4 NUniq=    4 SFac= 1.00D+00 NAtFMM=   60 NAOKFM=F Big=F
 No density basis found on file   718.
 Leave Link  301 at Wed May 13 15:19:23 2020, MaxMem= 1073741824 cpu:       0.2
 (Enter /home/matheus/.gaussian/g09/l302.exe)
 NPDir=0 NMtPBC=     1 NCelOv=     1 NCel=       1 NClECP=     1 NCelD=      1
         NCelK=      1 NCelE2=     1 NClLst=     1 CellRange=     0.0.
 One-electron integrals computed using PRISM.
 NBasis=   138 RedAO= T  NBF=   138
 NBsUse=   138 1.00D-06 NBFU=   138
 Precomputing XC quadrature grid using
 IXCGrd= 2 IRadAn=           5 IRanWt=          -1 IRanGd=           0 AccXCQ= 0.00D+00.
 NRdTot=     344 NPtTot=       92556 NUsed=       95038 NTot=       95070
 NSgBfM=   160   160   160   160   160 NAtAll=     4     4.
 Leave Link  302 at Wed May 13 15:19:23 2020, MaxMem= 1073741824 cpu:       0.8
 (Enter /home/matheus/.gaussian/g09/l303.exe)
 DipDrv:  MaxL=1.
 Leave Link  303 at Wed May 13 15:19:23 2020, MaxMem= 1073741824 cpu:       0.2
 (Enter /home/matheus/.gaussian/g09/l401.exe)
 Initial guess read from the read-write file.
 Guess basis will be translated and rotated to current coordinates.
 Initial guess orbital symmetries:
       Occupied  (A) (A) (A) (A) (A) (A) (A) (A) (A)
       Virtual   (A) (A) (A) (A) (A) (A) (A) (A) (A) (A) (A) (A)
                 (A) (A) (A) (A) (A) (A) (A) (A) (A) (A) (A) (A)
                 (A) (A) (A) (A) (A) (A) (A) (A) (A) (A) (A) (A)
                 (A) (A) (A) (A) (A) (A) (A) (A) (A) (A) (A) (A)
                 (A) (A) (A) (A) (A) (A) (A) (A) (A) (A) (A) (A)
                 (A) (A) (A) (A) (A) (A) (A) (A) (A) (A) (A) (A)
                 (A) (A) (A) (A) (A) (A) (A) (A) (A) (A) (A) (A)
                 (A) (A) (A) (A) (A) (A) (A) (A) (A) (A) (A) (A)
                 (A) (A) (A) (A) (A) (A) (A) (A) (A) (A) (A) (A)
                 (A) (A) (A) (A) (A) (A) (A) (A) (A) (A) (A) (A)
                 (A) (A) (A) (A) (A) (A) (A) (A) (A)
 The electronic state of the initial guess is 1-A.
 Generating alternative initial guess.
 Harris functional with IExCor=10402 diagonalized for initial guess.
 ExpMin= 2.53D-02 ExpMax= 1.53D+04 ExpMxC= 5.22D+02 IAcc=3 IRadAn=         5 AccDes= 0.00D+00
 HarFok:  IExCor=10402 AccDes= 0.00D+00 IRadAn=         5 IDoV= 1
 ScaDFX=  1.000000  1.000000  1.000000  1.000000
 FoFCou: FMM=F IPFlag=           0 FMFlag=      100000 FMFlg1=           0
         NFxFlg=           0 DoJE=T BraDBF=F KetDBF=T FulRan=T
         Omega=  0.000000  0.000000  1.000000  0.000000  0.000000 ICntrl=     500 IOpCl=  0
         NMat0=    1 NMatS0=    1 NMatT0=    0 NMatD0=    1 NMtDS0=    0 NMtDT0=    0
         I1Cent=           4 NGrid=           0.
 Petite list used in FoFCou.
 Harris En= -147.165471097433    
 Leave Link  401 at Wed May 13 15:19:23 2020, MaxMem= 1073741824 cpu:       2.6
 (Enter /home/matheus/.gaussian/g09/l502.exe)
 Closed shell SCF:
 Requested convergence on RMS density matrix=1.00D-08 within 128 cycles.
 Requested convergence on MAX density matrix=1.00D-06.
 Requested convergence on             energy=1.00D-06.
 No special actions if energy rises.
 Using DIIS extrapolation, IDIIS=  1040.
 Integral symmetry usage will be decided dynamically.
        94980 words used for storage of precomputed grid.
 IEnd=      192360 IEndB=      192360 NGot=  1073741824 MDV=  1073591865
 LenX=  1073591865 LenY=  1073565824
 Fock matrices will be formed incrementally for  20 cycles.

 Cycle   1  Pass 1  IDiag  1:
 FoFJK:  IHMeth= 1 ICntrl=     0 DoSepK=T KAlg= 1 I1Cent= 0 FoldK=F
 FoFCou: FMM=F IPFlag=           0 FMFlag=      100000 FMFlg1=           0
         NFxFlg=           0 DoJE=T BraDBF=F KetDBF=F FulRan=T
         Omega=  0.000000  0.000000  1.000000  0.000000  0.000000 ICntrl=     500 IOpCl=  0
         NMat0=    1 NMatS0=    1 NMatT0=    0 NMatD0=    1 NMtDS0=    0 NMtDT0=    0
         I1Cent=           0 NGrid=           0.
 Symmetry not used in FoFCou.
 E= -151.326800237489    
 DIIS: error= 1.10D-05 at cycle   1 NSaved=   1.
 NSaved= 1 IEnMin= 1 EnMin= -151.326800237489     IErMin= 1 ErrMin= 1.10D-05
 ErrMax= 1.10D-05 EMaxC= 1.00D-01 BMatC= 3.16D-08 BMatP= 3.16D-08
 IDIUse=1 WtCom= 1.00D+00 WtEn= 0.00D+00
 Coeff-Com:  0.100D+01
 Coeff:      0.100D+01
 Gap=     0.468 Goal=   None    Shift=    0.000
 RMSDP=1.11D-06 MaxDP=2.45D-05              OVMax= 5.01D-05

 Cycle   2  Pass 1  IDiag  1:
 RMSU=  7.85D-07    CP:  1.00D+00
 FoFJK:  IHMeth= 1 ICntrl=     0 DoSepK=T KAlg= 1 I1Cent= 0 FoldK=F
 E= -151.326800268087     Delta-E=       -0.000000030598 Rises=F Damp=F
 DIIS: error= 2.75D-06 at cycle   2 NSaved=   2.
 NSaved= 2 IEnMin= 2 EnMin= -151.326800268087     IErMin= 2 ErrMin= 2.75D-06
 ErrMax= 2.75D-06 EMaxC= 1.00D-01 BMatC= 1.28D-09 BMatP= 3.16D-08
 IDIUse=1 WtCom= 1.00D+00 WtEn= 0.00D+00
 Coeff-Com: -0.134D+00 0.113D+01
 Coeff:     -0.134D+00 0.113D+01
 Gap=     0.468 Goal=   None    Shift=    0.000
 RMSDP=3.36D-07 MaxDP=8.62D-06 DE=-3.06D-08 OVMax= 2.20D-05

 Cycle   3  Pass 1  IDiag  1:
 RMSU=  1.30D-07    CP:  1.00D+00  1.25D+00
 FoFJK:  IHMeth= 1 ICntrl=     0 DoSepK=T KAlg= 1 I1Cent= 0 FoldK=F
 E= -151.326800271008     Delta-E=       -0.000000002921 Rises=F Damp=F
 DIIS: error= 1.12D-06 at cycle   3 NSaved=   3.
 NSaved= 3 IEnMin= 3 EnMin= -151.326800271008     IErMin= 3 ErrMin= 1.12D-06
 ErrMax= 1.12D-06 EMaxC= 1.00D-01 BMatC= 1.99D-10 BMatP= 1.28D-09
 IDIUse=1 WtCom= 1.00D+00 WtEn= 0.00D+00
 Coeff-Com: -0.362D-01 0.126D+00 0.911D+00
 Coeff:     -0.362D-01 0.126D+00 0.911D+00
 Gap=     0.468 Goal=   None    Shift=    0.000
 RMSDP=1.07D-07 MaxDP=2.54D-06 DE=-2.92D-09 OVMax= 7.46D-06

 Cycle   4  Pass 1  IDiag  1:
 RMSU=  5.79D-08    CP:  1.00D+00  1.30D+00  1.22D+00
 FoFJK:  IHMeth= 1 ICntrl=     0 DoSepK=T KAlg= 1 I1Cent= 0 FoldK=F
 E= -151.326800271284     Delta-E=       -0.000000000276 Rises=F Damp=F
 DIIS: error= 8.21D-07 at cycle   4 NSaved=   4.
 NSaved= 4 IEnMin= 4 EnMin= -151.326800271284     IErMin= 4 ErrMin= 8.21D-07
 ErrMax= 8.21D-07 EMaxC= 1.00D-01 BMatC= 1.48D-10 BMatP= 1.99D-10
 IDIUse=1 WtCom= 1.00D+00 WtEn= 0.00D+00
 Coeff-Com:  0.980D-02-0.193D+00 0.524D+00 0.660D+00
 Coeff:      0.980D-02-0.193D+00 0.524D+00 0.660D+00
 Gap=     0.468 Goal=   None    Shift=    0.000
 RMSDP=5.93D-08 MaxDP=9.94D-07 DE=-2.76D-10 OVMax= 4.04D-06

 Cycle   5  Pass 1  IDiag  1:
 RMSU=  1.95D-08    CP:  1.00D+00  1.32D+00  1.47D+00  8.08D-01
 FoFJK:  IHMeth= 1 ICntrl=     0 DoSepK=T KAlg= 1 I1Cent= 0 FoldK=F
 E= -151.326800271426     Delta-E=       -0.000000000143 Rises=F Damp=F
 DIIS: error= 1.92D-07 at cycle   5 NSaved=   5.
 NSaved= 5 IEnMin= 5 EnMin= -151.326800271426     IErMin= 5 ErrMin= 1.92D-07
 ErrMax= 1.92D-07 EMaxC= 1.00D-01 BMatC= 4.11D-12 BMatP= 1.48D-10
 IDIUse=1 WtCom= 1.00D+00 WtEn= 0.00D+00
 Coeff-Com:  0.445D-02-0.270D-01-0.884D-01 0.320D-01 0.108D+01
 Coeff:      0.445D-02-0.270D-01-0.884D-01 0.320D-01 0.108D+01
 Gap=     0.468 Goal=   None    Shift=    0.000
 RMSDP=2.47D-08 MaxDP=4.66D-07 DE=-1.43D-10 OVMax= 2.29D-06

 Cycle   6  Pass 1  IDiag  1:
 RMSU=  6.29D-09    CP:  1.00D+00  1.33D+00  1.55D+00  9.49D-01  1.44D+00
 FoFJK:  IHMeth= 1 ICntrl=     0 DoSepK=T KAlg= 1 I1Cent= 0 FoldK=F
 E= -151.326800271441     Delta-E=       -0.000000000014 Rises=F Damp=F
 DIIS: error= 5.78D-08 at cycle   6 NSaved=   6.
 NSaved= 6 IEnMin= 6 EnMin= -151.326800271441     IErMin= 6 ErrMin= 5.78D-08
 ErrMax= 5.78D-08 EMaxC= 1.00D-01 BMatC= 3.99D-13 BMatP= 4.11D-12
 IDIUse=1 WtCom= 1.00D+00 WtEn= 0.00D+00
 Coeff-Com: -0.764D-03 0.164D-01-0.450D-01-0.541D-01 0.275D-01 0.106D+01
 Coeff:     -0.764D-03 0.164D-01-0.450D-01-0.541D-01 0.275D-01 0.106D+01
 Gap=     0.468 Goal=   None    Shift=    0.000
 RMSDP=8.85D-09 MaxDP=1.80D-07 DE=-1.45D-11 OVMax= 8.64D-07

 SCF Done:  E(RLC-B+HF-LYP) =  -151.326800271     A.U. after    6 cycles
             Convg  =    0.8854D-08             -V/T =  2.0057
 KE= 1.504645415589D+02 PE=-4.314007814490D+02 EE= 9.298818571104D+01
 Leave Link  502 at Wed May 13 15:19:30 2020, MaxMem= 1073741824 cpu:      51.7
 (Enter /home/matheus/.gaussian/g09/l122.exe)
 Restoring MOs from calculation   5 to rwf.
 Counterpoise: doing MCBS calculation for fragment   2
 Leave Link  122 at Wed May 13 15:19:30 2020, MaxMem= 1073741824 cpu:       0.0
 (Enter /home/matheus/.gaussian/g09/l301.exe)
 Basis read from rwf:  (5D, 7F)
 No pseudopotential information found on rwf file.
 There are    59 symmetry adapted basis functions of A   symmetry.
 Integral buffers will be    131072 words long.
 Raffenetti 2 integral format.
 Two-electron integral symmetry is turned on.
    59 basis functions,   217 primitive gaussians,    69 cartesian basis functions
    18 alpha electrons       18 beta electrons
       nuclear repulsion energy         0.0000000000 Hartrees.
 IExCor=10402 DFT=T Ex=LC-B+HF Corr=LYP ExCW=0 ScaHFX=  1.000000
 ScaDFX=  1.000000  1.000000  1.000000  1.000000 ScalE2=  1.000000  1.000000
 IRadAn=      5 IRanWt=     -1 IRanGd=            0 ICorTp=0
  HFx wShort=  0.000000 wLong=  0.470000 cFull=  0.000000 cShort=  0.000000 cLong=  1.000000
  DFx wShort=  0.000000 wLong=  0.470000 cFull=  0.000000 cShort=  0.000000 cLong=  1.000000
 NAtoms=    5 NActive=    1 NUniq=    1 SFac= 1.00D+00 NAtFMM=   60 NAOKFM=F Big=F
 No density basis found on file   718.
 Leave Link  301 at Wed May 13 15:19:30 2020, MaxMem= 1073741824 cpu:       0.2
 (Enter /home/matheus/.gaussian/g09/l302.exe)
 NPDir=0 NMtPBC=     1 NCelOv=     1 NCel=       1 NClECP=     1 NCelD=      1
         NCelK=      1 NCelE2=     1 NClLst=     1 CellRange=     0.0.
 One-electron integrals computed using PRISM.
 NBasis=    59 RedAO= T  NBF=    59
 NBsUse=    59 1.00D-06 NBFU=    59
 Precomputing XC quadrature grid using
 IXCGrd= 2 IRadAn=           5 IRanWt=          -1 IRanGd=           0 AccXCQ= 0.00D+00.
 NRdTot=      81 NPtTot=       30352 NUsed=       30981 NTot=       31013
 NSgBfM=    69    69    69    69    69 NAtAll=     1     1.
 Leave Link  302 at Wed May 13 15:19:30 2020, MaxMem= 1073741824 cpu:       0.7
 (Enter /home/matheus/.gaussian/g09/l303.exe)
 DipDrv:  MaxL=1.
 Leave Link  303 at Wed May 13 15:19:30 2020, MaxMem= 1073741824 cpu:       0.1
 (Enter /home/matheus/.gaussian/g09/l401.exe)
 Initial guess read from the read-write file.
 Guess basis will be translated and rotated to current coordinates.
 Initial guess orbital symmetries:
       Occupied  (A) (A) (A) (A) (A) (A) (A) (A) (A) (A) (A) (A)
                 (A) (A) (A) (A) (A) (A)
       Virtual   (A) (A) (A) (A) (A) (A) (A) (A) (A) (A) (A) (A)
                 (A) (A) (A) (A) (A) (A) (A) (A) (A) (A) (A) (A)
                 (A) (A) (A) (A) (A) (A) (A) (A) (A) (A) (A) (A)
                 (A) (A) (A) (A) (A)
 The electronic state of the initial guess is 1-A.
 Generating alternative initial guess.
 Harris functional with IExCor=10402 diagonalized for initial guess.
 ExpMin= 4.00D-02 ExpMax= 1.17D+07 ExpMxC= 1.33D+04 IAcc=3 IRadAn=         5 AccDes= 0.00D+00
 HarFok:  IExCor=10402 AccDes= 0.00D+00 IRadAn=         5 IDoV= 1
 ScaDFX=  1.000000  1.000000  1.000000  1.000000
 FoFCou: FMM=F IPFlag=           0 FMFlag=      100000 FMFlg1=           0
         NFxFlg=           0 DoJE=T BraDBF=F KetDBF=T FulRan=T
         Omega=  0.000000  0.000000  1.000000  0.000000  0.000000 ICntrl=     500 IOpCl=  0
         NMat0=    1 NMatS0=    1 NMatT0=    0 NMatD0=    1 NMtDS0=    0 NMtDT0=    0
         I1Cent=           4 NGrid=           0.
 Petite list used in FoFCou.
 DSYEVD returned Info=          89 IAlg= 4 N=    59 NDim=    59 NE2=    18198841 trying DSYEV.
 Harris En= -2744.51485235229    
 Leave Link  401 at Wed May 13 15:19:30 2020, MaxMem= 1073741824 cpu:       1.0
 (Enter /home/matheus/.gaussian/g09/l502.exe)
 Closed shell SCF:
 Requested convergence on RMS density matrix=1.00D-08 within 128 cycles.
 Requested convergence on MAX density matrix=1.00D-06.
 Requested convergence on             energy=1.00D-06.
 No special actions if energy rises.
 Using DIIS extrapolation, IDIIS=  1040.
 Integral symmetry usage will be decided dynamically.
        30923 words used for storage of precomputed grid.
 IEnd=       64406 IEndB=       64406 NGot=  1073741824 MDV=  1073698889
 LenX=  1073698889 LenY=  1073693687
 Fock matrices will be formed incrementally for  20 cycles.

 Cycle   1  Pass 1  IDiag  1:
 FoFJK:  IHMeth= 1 ICntrl=     0 DoSepK=T KAlg= 1 I1Cent= 0 FoldK=F
 FoFCou: FMM=F IPFlag=           0 FMFlag=      100000 FMFlg1=           0
         NFxFlg=           0 DoJE=T BraDBF=F KetDBF=F FulRan=T
         Omega=  0.000000  0.000000  1.000000  0.000000  0.000000 ICntrl=     500 IOpCl=  0
         NMat0=    1 NMatS0=    1 NMatT0=    0 NMatD0=    1 NMtDS0=    0 NMtDT0=    0
         I1Cent=           0 NGrid=           0.
 Symmetry not used in FoFCou.
 E= -2753.41754223393    
 DIIS: error= 1.08D-13 at cycle   1 NSaved=   1.
 NSaved= 1 IEnMin= 1 EnMin= -2753.41754223393     IErMin= 1 ErrMin= 1.08D-13
 ErrMax= 1.08D-13 EMaxC= 1.00D-01 BMatC= 3.47D-25 BMatP= 3.47D-25
 IDIUse=1 WtCom= 1.00D+00 WtEn= 0.00D+00
 Coeff-Com:  0.100D+01
 Coeff:      0.100D+01
 Gap=     0.595 Goal=   None    Shift=    0.000
 DSYEVD returned Info=          89 IAlg= 4 N=    59 NDim=    59 NE2=    18198197 trying DSYEV.
 RMSDP=6.85D-15 MaxDP=1.68D-13              OVMax= 3.19D-14

 SCF Done:  E(RLC-B+HF-LYP) =  -2753.41754223     A.U. after    1 cycles
             Convg  =    0.6849D-14             -V/T =  2.0015
 KE= 2.749372504928D+03 PE=-6.578588569976D+03 EE= 1.075798522814D+03
 Leave Link  502 at Wed May 13 15:19:32 2020, MaxMem= 1073741824 cpu:      14.8
 (Enter /home/matheus/.gaussian/g09/l122.exe)
 Restoring MOs from calculation   1 to rwf.
 Counterpoise: corrected energy =   -2904.744434563670
 Counterpoise: BSSE energy =       0.000024935253
 Leave Link  122 at Wed May 13 15:19:32 2020, MaxMem= 1073741824 cpu:       0.0
 (Enter /home/matheus/.gaussian/g09/l108.exe)
 Scan completed.

 Summary of the potential surface scan:
   N      R1          SCF    
 ----  ---------  -----------
    1     3.0000  -2753.41754
    2     3.1000  -2753.41754
    3     3.2000  -2753.41754
    4     3.3000  -2753.41754
    5     3.4000  -2753.41754
    6     3.5000  -2753.41754
    7     3.6000  -2753.41754
    8     3.7000  -2753.41754
    9     3.8000  -2753.41754
   10     3.9000  -2753.41754
   11     4.0000  -2753.41754
   12     4.1000  -2753.41754
   13     4.2000  -2753.41754
   14     4.3000  -2753.41754
   15     4.4000  -2753.41754
   16     4.5000  -2753.41754
   17     4.6000  -2753.41754
   18     4.7000  -2753.41754
   19     4.8000  -2753.41754
   20     4.9000  -2753.41754
   21     5.0000  -2753.41754
 ----  ---------  -----------
  
 Leave Link  108 at Wed May 13 15:19:32 2020, MaxMem= 1073741824 cpu:       0.0
 (Enter /home/matheus/.gaussian/g09/l9999.exe)
 1\1\GINC-REDGIANT\Scan\RLC-BLYP\Aug-CC-pVTZ\H2Kr1O2\MATHEUS\13-May-202
 0\1\\#p lc-blyp/aug-cc-PVTz int=ultrafine counterpoise=2 Scan\\TCC\\0,
 1\O,0,0.,0.,0.725\O,0,0.,0.,-0.725\H,0,0.9047631646,-0.1595341571,1.02
 35104166\H,0,0.,0.9187205947,-1.0235104166\Kr,0,0.,R1,0.\\R1=3.,s,20,0
 .1\\Version=EM64L-G09RevC.01\State=1-A\HF=-2753.4175422,-2753.4175422,
 -2753.4175422,-2753.4175422,-2753.4175422,-2753.4175422,-2753.4175422,
 -2753.4175422,-2753.4175422,-2753.4175422,-2753.4175422,-2753.4175422,
 -2753.4175422,-2753.4175422,-2753.4175422,-2753.4175422,-2753.4175422,
 -2753.4175422,-2753.4175422,-2753.4175422,-2753.4175422\RMSD=1.334e-09
 ,5.265e-11,1.630e-11,9.949e-12,5.940e-12,3.608e-12,2.185e-12,1.322e-12
 ,7.950e-13,4.825e-13,2.947e-13,1.806e-13,1.085e-13,6.246e-14,3.687e-14
 ,2.246e-14,1.326e-14,1.054e-14,8.369e-15,7.574e-15,6.849e-15\PG=C01 [X
 (H2Kr1O2)]\\@


 LAWS OF PROGRAMMING DEFINITION:  A WORKING PROGRAM
                                  IS ONE THAT HAS
                                  ONLY UNOBSERVED
                                  BUGS.
 Job cpu time:  0 days  3 hours 35 minutes 21.3 seconds.
 File lengths (MBytes):  RWF=     33 Int=      0 D2E=      0 Chk=      8 Scr=      1
 Normal termination of Gaussian 09 at Wed May 13 15:19:32 2020.
