 Entering Gaussian System, Link 0=g09
 Input=/home/matheus/.tcc/Inputs/Inputs-lc-blyp-default/H2O2-Kr_15.com
 Output=/home/matheus/.tcc/Logs/Logs-lc-blyp-default/H2O2-Kr_15.log
 Initial command:
 /home/matheus/.gaussian/g09/l1.exe /home/matheus/.gaussian/g09/scratch/Gau-12701.inp -scrdir=/home/matheus/.gaussian/g09/scratch/
 Entering Link 1 = /home/matheus/.gaussian/g09/l1.exe PID=     12705.
  
 Copyright (c) 1988,1990,1992,1993,1995,1998,2003,2009,2011,
            Gaussian, Inc.  All Rights Reserved.
  
 This is part of the Gaussian(R) 09 program.  It is based on
 the Gaussian(R) 03 system (copyright 2003, Gaussian, Inc.),
 the Gaussian(R) 98 system (copyright 1998, Gaussian, Inc.),
 the Gaussian(R) 94 system (copyright 1995, Gaussian, Inc.),
 the Gaussian 92(TM) system (copyright 1992, Gaussian, Inc.),
 the Gaussian 90(TM) system (copyright 1990, Gaussian, Inc.),
 the Gaussian 88(TM) system (copyright 1988, Gaussian, Inc.),
 the Gaussian 86(TM) system (copyright 1986, Carnegie Mellon
 University), and the Gaussian 82(TM) system (copyright 1983,
 Carnegie Mellon University). Gaussian is a federally registered
 trademark of Gaussian, Inc.
  
 This software contains proprietary and confidential information,
 including trade secrets, belonging to Gaussian, Inc.
  
 This software is provided under written license and may be
 used, copied, transmitted, or stored only in accord with that
 written license.
  
 The following legend is applicable only to US Government
 contracts under FAR:
  
                    RESTRICTED RIGHTS LEGEND
  
 Use, reproduction and disclosure by the US Government is
 subject to restrictions as set forth in subparagraphs (a)
 and (c) of the Commercial Computer Software - Restricted
 Rights clause in FAR 52.227-19.
  
 Gaussian, Inc.
 340 Quinnipiac St., Bldg. 40, Wallingford CT 06492
  
  
 ---------------------------------------------------------------
 Warning -- This program may not be used in any manner that
 competes with the business of Gaussian, Inc. or will provide
 assistance to any competitor of Gaussian, Inc.  The licensee
 of this program is prohibited from giving any competitor of
 Gaussian, Inc. access to this program.  By using this program,
 the user acknowledges that Gaussian, Inc. is engaged in the
 business of creating and licensing software in the field of
 computational chemistry and represents and warrants to the
 licensee that it is not a competitor of Gaussian, Inc. and that
 it will not use this program in any manner prohibited above.
 ---------------------------------------------------------------
  

 Cite this work as:
 Gaussian 09, Revision C.01,
 M. J. Frisch, G. W. Trucks, H. B. Schlegel, G. E. Scuseria, 
 M. A. Robb, J. R. Cheeseman, G. Scalmani, V. Barone, B. Mennucci, 
 G. A. Petersson, H. Nakatsuji, M. Caricato, X. Li, H. P. Hratchian, 
 A. F. Izmaylov, J. Bloino, G. Zheng, J. L. Sonnenberg, M. Hada, 
 M. Ehara, K. Toyota, R. Fukuda, J. Hasegawa, M. Ishida, T. Nakajima, 
 Y. Honda, O. Kitao, H. Nakai, T. Vreven, J. A. Montgomery, Jr., 
 J. E. Peralta, F. Ogliaro, M. Bearpark, J. J. Heyd, E. Brothers, 
 K. N. Kudin, V. N. Staroverov, T. Keith, R. Kobayashi, J. Normand, 
 K. Raghavachari, A. Rendell, J. C. Burant, S. S. Iyengar, J. Tomasi, 
 M. Cossi, N. Rega, J. M. Millam, M. Klene, J. E. Knox, J. B. Cross, 
 V. Bakken, C. Adamo, J. Jaramillo, R. Gomperts, R. E. Stratmann, 
 O. Yazyev, A. J. Austin, R. Cammi, C. Pomelli, J. W. Ochterski, 
 R. L. Martin, K. Morokuma, V. G. Zakrzewski, G. A. Voth, 
 P. Salvador, J. J. Dannenberg, S. Dapprich, A. D. Daniels, 
 O. Farkas, J. B. Foresman, J. V. Ortiz, J. Cioslowski, 
 and D. J. Fox, Gaussian, Inc., Wallingford CT, 2010.
 
 ******************************************
 Gaussian 09:  EM64L-G09RevC.01 23-Sep-2011
                13-May-2020 
 ******************************************
 %mem=8GB
 %nproc=8
 Will use up to    8 processors via shared memory.
 --------------------------------------------------------
 #p lc-blyp/aug-cc-PVTz int=ultrafine counterpoise=2 Scan
 --------------------------------------------------------
 1/38=1,60=1,62=2/1,8;
 2/12=2,17=6,18=5,29=3,40=1/2;
 1/38=1,53=5172,62=2/22;
 3/5=16,6=1,7=10,11=2,16=1,25=1,30=1,74=1000402,75=-5/1,2,3;
 4//1;
 5/5=2,38=5/2;
 6/7=2,8=2,9=2,10=2,18=1,28=1/1;
 1/53=4052,62=2,63=1/22;
 3/5=7,6=11,7=10,11=2,16=1,25=1,30=1,74=1000402,75=-5,82=7/1,2,3;
 4//1;
 5/5=2,38=5/2;
 6/7=2,8=2,9=2,10=2,18=1,28=1/1;
 1/53=3042,62=2,63=2/22;
 3/5=7,6=11,7=10,11=2,16=1,25=1,30=1,74=1000402,75=-5,82=7/1,2,3;
 4//1;
 5/5=2,38=5/2;
 6/7=2,8=2,9=2,10=2,18=1,28=1/1;
 1/53=2032,62=2,63=3/22;
 3/5=7,6=11,7=10,11=2,16=1,25=1,30=1,74=1000402,75=-5,82=7/1,2,3;
 4//1;
 5/5=2,38=5/2;
 6/7=2,8=2,9=2,10=2,18=1,28=1/1;
 1/53=1022,62=2,63=4/22;
 3/5=7,6=11,7=10,11=2,16=1,25=1,30=1,74=1000402,75=-5,82=7/1,2,3;
 4//1;
 5/5=2,38=5/2;
 6/7=2,8=2,9=2,10=2,18=1,28=1/1;
 1/53=5014,62=2,63=5/22;
 1/60=1,62=2/8(1);
 99/9=1/99;
 2/29=3/2;
 1/53=5173,62=2/22;
 3/5=7,6=11,7=10,11=2,16=1,25=1,30=1,74=1000402,75=-5,82=7/1,2,3;
 4/5=5,16=3/1;
 5/5=2,38=5/2;
 1/53=4053,62=2,63=1/22;
 3/5=7,6=11,7=10,11=2,16=1,25=1,30=1,74=1000402,75=-5,82=7/1,2,3;
 4/5=5,16=3/1;
 5/5=2,38=5/2;
 1/53=3043,62=2,63=2/22;
 3/5=7,6=11,7=10,11=2,16=1,25=1,30=1,74=1000402,75=-5,82=7/1,2,3;
 4/5=5,16=3/1;
 5/5=2,38=5/2;
 1/53=2033,62=2,63=3/22;
 3/5=7,6=11,7=10,11=2,16=1,25=1,30=1,74=1000402,75=-5,82=7/1,2,3;
 4/5=5,16=3/1;
 5/5=2,38=5/2;
 1/53=1024,62=2,63=4/22;
 3/5=7,6=11,7=10,11=2,16=1,25=1,30=1,74=1000402,75=-5,82=7/1,2,3;
 4/5=5,16=3/1;
 5/5=2,38=5/2;
 1/53=5014,62=2,63=5/22;
 1/60=1,62=2/8(-22);
 99/9=1/99;
 Leave Link    1 at Wed May 13 17:07:57 2020, MaxMem= 1073741824 cpu:       0.1
 (Enter /home/matheus/.gaussian/g09/l101.exe)
 ---
 TCC
 ---
 Charge =  0 Multiplicity = 1 in supermolecule
 Charge =  0 Multiplicity = 1 in fragment  1.
 Charge =  0 Multiplicity = 1 in fragment  2.
 Symbolic Z-Matrix:
 O(Fragment=1)         0.        0.        0.725 
 O(Fragment=1)         0.        0.       -0.725 
 H(Fragment=1)         0.45936  -0.79564   1.02351 
 H(Fragment=1)         0.        0.91872  -1.02351 
 Kr(Fragment=2)        0.       R1        0. 
       Variables:
  R1                    3.     Scan 20    0.1    
 
 NAtoms=      5 NQM=        0 NQMF=       0 NMMI=      5 NMMIF=      0
                NMic=       0 NMicF=      0.
                    Isotopes and Nuclear Properties:
 (Nuclear quadrupole moments (NQMom) in fm**2, nuclear magnetic moments (NMagM)
  in nuclear magnetons)

  Atom         1           2           3           4           5
 IAtWgt=          16          16           1           1          84
 AtmWgt=  15.9949146  15.9949146   1.0078250   1.0078250  83.9115064
 NucSpn=           0           0           1           1           0
 AtZEff=   0.0000000   0.0000000   0.0000000   0.0000000   0.0000000
 NQMom=    0.0000000   0.0000000   0.0000000   0.0000000   0.0000000
 NMagM=    0.0000000   0.0000000   2.7928460   2.7928460   0.0000000
 Leave Link  101 at Wed May 13 17:07:57 2020, MaxMem= 1073741824 cpu:       0.4
 (Enter /home/matheus/.gaussian/g09/l108.exe)
 Scan the potential surface.
 Variable   Value     No. Steps Step-Size
 -------- ----------- --------- ---------
     1       3.000000      20      0.1000
 A total of     21 points will be computed.
 Leave Link  108 at Wed May 13 17:07:57 2020, MaxMem= 1073741824 cpu:       0.0
 (Enter /home/matheus/.gaussian/g09/l202.exe)
 ---------------------------------------------------------------------------------------------------
                            Z-MATRIX (ANGSTROMS AND DEGREES)
   CD    Cent   Atom    N1       Length/X        N2       Alpha/Y        N3        Beta/Z          J
 ---------------------------------------------------------------------------------------------------
      1      1  O        0   0.000000          0.000000          0.725000
      2      2  O        0   0.000000          0.000000         -0.725000
      3      3  H        0   0.459360         -0.795635          1.023510
      4      4  H        0   0.000000          0.918721         -1.023510
      5      5  Kr       0   0.000000          3.000000          0.000000
 ---------------------------------------------------------------------------------------------------
                         Z-Matrix orientation:                         
 ---------------------------------------------------------------------
 Center     Atomic      Atomic             Coordinates (Angstroms)
 Number     Number       Type             X           Y           Z
 ---------------------------------------------------------------------
      1          8           0        0.000000    0.000000    0.725000
      2          8           0        0.000000    0.000000   -0.725000
      3          1           0        0.459360   -0.795635    1.023510
      4          1           0        0.000000    0.918721   -1.023510
      5         36           0        0.000000    3.000000    0.000000
 ---------------------------------------------------------------------
                    Distance matrix (angstroms):
                    1          2          3          4          5
     1  O    0.000000
     2  O    1.450000   0.000000
     3  H    0.966000   1.975180   0.000000
     4  H    1.975180   0.966000   2.709303   0.000000
     5  Kr   3.086361   3.086361   3.957958   2.319331   0.000000
 Stoichiometry    H2KrO2
 Framework group  C1[X(H2KrO2)]
 Deg. of freedom     9
 Full point group                 C1      NOp   1
 Largest Abelian subgroup         C1      NOp   1
 Largest concise Abelian subgroup C1      NOp   1
                         Standard orientation:                         
 ---------------------------------------------------------------------
 Center     Atomic      Atomic             Coordinates (Angstroms)
 Number     Number       Type             X           Y           Z
 ---------------------------------------------------------------------
      1          8           0        2.014667   -0.687062   -0.062307
      2          8           0        1.988768    0.761329    0.000872
      3          1           0        2.820911   -0.990551    0.374753
      4          1           0        1.064927    1.042640    0.024073
      5         36           0       -0.997592   -0.017951    0.002574
 ---------------------------------------------------------------------
 Rotational constants (GHZ):     26.4417565      2.3080537      2.1261727
 Leave Link  202 at Wed May 13 17:07:57 2020, MaxMem= 1073741824 cpu:       0.0
 (Enter /home/matheus/.gaussian/g09/l122.exe)
 Leave Link  122 at Wed May 13 17:07:57 2020, MaxMem= 1073741824 cpu:       0.0
 (Enter /home/matheus/.gaussian/g09/l301.exe)
 Standard basis: Aug-CC-pVTZ (5D, 7F)
 Ernie: Thresh=  0.10000D-02 Tol=  0.10000D-05 Strict=F.
 Ernie:  38 primitive shells out of 205 were deleted.
 There are   197 symmetry adapted basis functions of A   symmetry.
 Integral buffers will be    131072 words long.
 Raffenetti 2 integral format.
 Two-electron integral symmetry is turned on.
   197 basis functions,   415 primitive gaussians,   229 cartesian basis functions
    27 alpha electrons       27 beta electrons
       nuclear repulsion energy       148.3895250152 Hartrees.
 IExCor=10402 DFT=T Ex=LC-B+HF Corr=LYP ExCW=0 ScaHFX=  1.000000
 ScaDFX=  1.000000  1.000000  1.000000  1.000000 ScalE2=  1.000000  1.000000
 IRadAn=      5 IRanWt=     -1 IRanGd=            0 ICorTp=0
  HFx wShort=  0.000000 wLong=  0.470000 cFull=  0.000000 cShort=  0.000000 cLong=  1.000000
  DFx wShort=  0.000000 wLong=  0.470000 cFull=  0.000000 cShort=  0.000000 cLong=  1.000000
 NAtoms=    5 NActive=    5 NUniq=    5 SFac= 1.00D+00 NAtFMM=   60 NAOKFM=F Big=F
 Leave Link  301 at Wed May 13 17:07:57 2020, MaxMem= 1073741824 cpu:       0.3
 (Enter /home/matheus/.gaussian/g09/l302.exe)
 NPDir=0 NMtPBC=     1 NCelOv=     1 NCel=       1 NClECP=     1 NCelD=      1
         NCelK=      1 NCelE2=     1 NClLst=     1 CellRange=     0.0.
 One-electron integrals computed using PRISM.
 NBasis=   197 RedAO= T  NBF=   197
 NBsUse=   197 1.00D-06 NBFU=   197
 Precomputing XC quadrature grid using
 IXCGrd= 2 IRadAn=           5 IRanWt=          -1 IRanGd=           0 AccXCQ= 0.00D+00.
 NRdTot=     427 NPtTot=      123814 NUsed=      126881 NTot=      126913
 NSgBfM=   229   229   229   229   229 NAtAll=     5     5.
 Leave Link  302 at Wed May 13 17:07:57 2020, MaxMem= 1073741824 cpu:       1.1
 (Enter /home/matheus/.gaussian/g09/l303.exe)
 DipDrv:  MaxL=1.
 Leave Link  303 at Wed May 13 17:07:57 2020, MaxMem= 1073741824 cpu:       0.2
 (Enter /home/matheus/.gaussian/g09/l401.exe)
 Harris functional with IExCor=10402 diagonalized for initial guess.
 ExpMin= 2.53D-02 ExpMax= 1.17D+07 ExpMxC= 1.33D+04 IAcc=3 IRadAn=         5 AccDes= 0.00D+00
 HarFok:  IExCor=10402 AccDes= 0.00D+00 IRadAn=         5 IDoV= 1
 ScaDFX=  1.000000  1.000000  1.000000  1.000000
 FoFCou: FMM=F IPFlag=           0 FMFlag=      100000 FMFlg1=           0
         NFxFlg=           0 DoJE=T BraDBF=F KetDBF=T FulRan=T
         Omega=  0.000000  0.000000  1.000000  0.000000  0.000000 ICntrl=     500 IOpCl=  0
         NMat0=    1 NMatS0=    1 NMatT0=    0 NMatD0=    1 NMtDS0=    0 NMtDT0=    0
         I1Cent=           4 NGrid=           0.
 Petite list used in FoFCou.
 Harris En= -2891.66994309464    
 Initial guess orbital symmetries:
       Occupied  (A) (A) (A) (A) (A) (A) (A) (A) (A) (A) (A) (A)
                 (A) (A) (A) (A) (A) (A) (A) (A) (A) (A) (A) (A)
                 (A) (A) (A)
       Virtual   (A) (A) (A) (A) (A) (A) (A) (A) (A) (A) (A) (A)
                 (A) (A) (A) (A) (A) (A) (A) (A) (A) (A) (A) (A)
                 (A) (A) (A) (A) (A) (A) (A) (A) (A) (A) (A) (A)
                 (A) (A) (A) (A) (A) (A) (A) (A) (A) (A) (A) (A)
                 (A) (A) (A) (A) (A) (A) (A) (A) (A) (A) (A) (A)
                 (A) (A) (A) (A) (A) (A) (A) (A) (A) (A) (A) (A)
                 (A) (A) (A) (A) (A) (A) (A) (A) (A) (A) (A) (A)
                 (A) (A) (A) (A) (A) (A) (A) (A) (A) (A) (A) (A)
                 (A) (A) (A) (A) (A) (A) (A) (A) (A) (A) (A) (A)
                 (A) (A) (A) (A) (A) (A) (A) (A) (A) (A) (A) (A)
                 (A) (A) (A) (A) (A) (A) (A) (A) (A) (A) (A) (A)
                 (A) (A) (A) (A) (A) (A) (A) (A) (A) (A) (A) (A)
                 (A) (A) (A) (A) (A) (A) (A) (A) (A) (A) (A) (A)
                 (A) (A) (A) (A) (A) (A) (A) (A) (A) (A) (A) (A)
                 (A) (A)
 The electronic state of the initial guess is 1-A.
 Leave Link  401 at Wed May 13 17:07:57 2020, MaxMem= 1073741824 cpu:       4.9
 (Enter /home/matheus/.gaussian/g09/l502.exe)
 Closed shell SCF:
 Requested convergence on RMS density matrix=1.00D-08 within 128 cycles.
 Requested convergence on MAX density matrix=1.00D-06.
 Requested convergence on             energy=1.00D-06.
 No special actions if energy rises.
 Using DIIS extrapolation, IDIIS=  1040.
 Integral symmetry usage will be decided dynamically.
       126823 words used for storage of precomputed grid.
 IEnd=      305770 IEndB=      305770 NGot=  1073741824 MDV=  1073505365
 LenX=  1073505365 LenY=  1073452483
 Fock matrices will be formed incrementally for  20 cycles.

 Cycle   1  Pass 1  IDiag  1:
 FoFJK:  IHMeth= 1 ICntrl=     0 DoSepK=T KAlg= 1 I1Cent= 0 FoldK=F
 FoFCou: FMM=F IPFlag=           0 FMFlag=      100000 FMFlg1=           0
         NFxFlg=           0 DoJE=T BraDBF=F KetDBF=F FulRan=T
         Omega=  0.000000  0.000000  1.000000  0.000000  0.000000 ICntrl=     500 IOpCl=  0
         NMat0=    1 NMatS0=    1 NMatT0=    0 NMatD0=    1 NMtDS0=    0 NMtDT0=    0
         I1Cent=           0 NGrid=           0.
 Symmetry not used in FoFCou.
 E= -2904.63498183650    
 DIIS: error= 2.30D-02 at cycle   1 NSaved=   1.
 NSaved= 1 IEnMin= 1 EnMin= -2904.63498183650     IErMin= 1 ErrMin= 2.30D-02
 ErrMax= 2.30D-02 EMaxC= 1.00D-01 BMatC= 2.83D-01 BMatP= 2.83D-01
 IDIUse=3 WtCom= 7.70D-01 WtEn= 2.30D-01
 Coeff-Com:  0.100D+01
 Coeff-En:   0.100D+01
 Coeff:      0.100D+01
 Gap=     0.470 Goal=   None    Shift=    0.000
 GapD=    0.470 DampG=2.000 DampE=0.500 DampFc=1.0000 IDamp=-1.
 RMSDP=2.66D-03 MaxDP=1.52D-01              OVMax= 1.05D-01

 Cycle   2  Pass 1  IDiag  1:
 RMSU=  1.83D-03    CP:  1.02D+00
 FoFJK:  IHMeth= 1 ICntrl=     0 DoSepK=T KAlg= 1 I1Cent= 0 FoldK=F
 E= -2904.70926459705     Delta-E=       -0.074282760548 Rises=F Damp=F
 DIIS: error= 1.24D-02 at cycle   2 NSaved=   2.
 NSaved= 2 IEnMin= 2 EnMin= -2904.70926459705     IErMin= 2 ErrMin= 1.24D-02
 ErrMax= 1.24D-02 EMaxC= 1.00D-01 BMatC= 9.31D-02 BMatP= 2.83D-01
 IDIUse=3 WtCom= 8.76D-01 WtEn= 1.24D-01
 Coeff-Com:  0.360D+00 0.640D+00
 Coeff-En:   0.393D-01 0.961D+00
 Coeff:      0.320D+00 0.680D+00
 Gap=     0.435 Goal=   None    Shift=    0.000
 RMSDP=1.01D-03 MaxDP=6.18D-02 DE=-7.43D-02 OVMax= 3.13D-02

 Cycle   3  Pass 1  IDiag  1:
 RMSU=  3.23D-04    CP:  1.01D+00  6.62D-01
 FoFJK:  IHMeth= 1 ICntrl=     0 DoSepK=T KAlg= 1 I1Cent= 0 FoldK=F
 E= -2904.74012874927     Delta-E=       -0.030864152213 Rises=F Damp=F
 DIIS: error= 1.11D-03 at cycle   3 NSaved=   3.
 NSaved= 3 IEnMin= 3 EnMin= -2904.74012874927     IErMin= 3 ErrMin= 1.11D-03
 ErrMax= 1.11D-03 EMaxC= 1.00D-01 BMatC= 1.13D-03 BMatP= 9.31D-02
 IDIUse=3 WtCom= 9.89D-01 WtEn= 1.11D-02
 Coeff-Com:  0.865D-02 0.102D+00 0.890D+00
 Coeff-En:   0.000D+00 0.000D+00 0.100D+01
 Coeff:      0.855D-02 0.101D+00 0.891D+00
 Gap=     0.440 Goal=   None    Shift=    0.000
 RMSDP=1.53D-04 MaxDP=5.70D-03 DE=-3.09D-02 OVMax= 7.71D-03

 Cycle   4  Pass 1  IDiag  1:
 RMSU=  6.95D-05    CP:  1.02D+00  7.02D-01  1.11D+00
 FoFJK:  IHMeth= 1 ICntrl=     0 DoSepK=T KAlg= 1 I1Cent= 0 FoldK=F
 E= -2904.74062770062     Delta-E=       -0.000498951352 Rises=F Damp=F
 DIIS: error= 6.44D-04 at cycle   4 NSaved=   4.
 NSaved= 4 IEnMin= 4 EnMin= -2904.74062770062     IErMin= 4 ErrMin= 6.44D-04
 ErrMax= 6.44D-04 EMaxC= 1.00D-01 BMatC= 1.02D-04 BMatP= 1.13D-03
 IDIUse=3 WtCom= 9.94D-01 WtEn= 6.44D-03
 Coeff-Com: -0.121D-01 0.130D-01 0.337D+00 0.662D+00
 Coeff-En:   0.000D+00 0.000D+00 0.000D+00 0.100D+01
 Coeff:     -0.120D-01 0.129D-01 0.335D+00 0.664D+00
 Gap=     0.436 Goal=   None    Shift=    0.000
 RMSDP=3.76D-05 MaxDP=1.42D-03 DE=-4.99D-04 OVMax= 2.20D-03

 Cycle   5  Pass 1  IDiag  1:
 RMSU=  2.05D-05    CP:  1.02D+00  7.06D-01  1.16D+00  9.72D-01
 FoFJK:  IHMeth= 1 ICntrl=     0 DoSepK=T KAlg= 1 I1Cent= 0 FoldK=F
 E= -2904.74069289091     Delta-E=       -0.000065190288 Rises=F Damp=F
 DIIS: error= 1.90D-04 at cycle   5 NSaved=   5.
 NSaved= 5 IEnMin= 5 EnMin= -2904.74069289091     IErMin= 5 ErrMin= 1.90D-04
 ErrMax= 1.90D-04 EMaxC= 1.00D-01 BMatC= 9.17D-06 BMatP= 1.02D-04
 IDIUse=3 WtCom= 9.98D-01 WtEn= 1.90D-03
 Coeff-Com: -0.421D-02-0.676D-02-0.234D-02 0.207D+00 0.806D+00
 Coeff-En:   0.000D+00 0.000D+00 0.000D+00 0.000D+00 0.100D+01
 Coeff:     -0.420D-02-0.675D-02-0.234D-02 0.207D+00 0.806D+00
 Gap=     0.437 Goal=   None    Shift=    0.000
 RMSDP=1.74D-05 MaxDP=5.84D-04 DE=-6.52D-05 OVMax= 1.05D-03

 Cycle   6  Pass 1  IDiag  1:
 RMSU=  6.91D-06    CP:  1.02D+00  7.07D-01  1.18D+00  1.07D+00  1.02D+00
 FoFJK:  IHMeth= 1 ICntrl=     0 DoSepK=T KAlg= 1 I1Cent= 0 FoldK=F
 E= -2904.74070036610     Delta-E=       -0.000007475198 Rises=F Damp=F
 DIIS: error= 8.03D-05 at cycle   6 NSaved=   6.
 NSaved= 6 IEnMin= 6 EnMin= -2904.74070036610     IErMin= 6 ErrMin= 8.03D-05
 ErrMax= 8.03D-05 EMaxC= 1.00D-01 BMatC= 2.05D-06 BMatP= 9.17D-06
 IDIUse=1 WtCom= 1.00D+00 WtEn= 0.00D+00
 Coeff-Com: -0.659D-03-0.423D-02-0.307D-01 0.294D-01 0.370D+00 0.636D+00
 Coeff:     -0.659D-03-0.423D-02-0.307D-01 0.294D-01 0.370D+00 0.636D+00
 Gap=     0.437 Goal=   None    Shift=    0.000
 RMSDP=5.88D-06 MaxDP=2.02D-04 DE=-7.48D-06 OVMax= 3.96D-04

 Cycle   7  Pass 1  IDiag  1:
 RMSU=  2.46D-06    CP:  1.02D+00  7.07D-01  1.19D+00  1.10D+00  1.10D+00
                    CP:  9.39D-01
 FoFJK:  IHMeth= 1 ICntrl=     0 DoSepK=T KAlg= 1 I1Cent= 0 FoldK=F
 E= -2904.74070180777     Delta-E=       -0.000001441665 Rises=F Damp=F
 DIIS: error= 1.78D-05 at cycle   7 NSaved=   7.
 NSaved= 7 IEnMin= 7 EnMin= -2904.74070180777     IErMin= 7 ErrMin= 1.78D-05
 ErrMax= 1.78D-05 EMaxC= 1.00D-01 BMatC= 1.33D-07 BMatP= 2.05D-06
 IDIUse=1 WtCom= 1.00D+00 WtEn= 0.00D+00
 Coeff-Com:  0.162D-03-0.965D-03-0.908D-02-0.191D-01 0.170D-02 0.197D+00
 Coeff-Com:  0.830D+00
 Coeff:      0.162D-03-0.965D-03-0.908D-02-0.191D-01 0.170D-02 0.197D+00
 Coeff:      0.830D+00
 Gap=     0.437 Goal=   None    Shift=    0.000
 RMSDP=2.30D-06 MaxDP=7.24D-05 DE=-1.44D-06 OVMax= 1.24D-04

 Cycle   8  Pass 1  IDiag  1:
 RMSU=  6.10D-07    CP:  1.02D+00  7.07D-01  1.19D+00  1.11D+00  1.13D+00
                    CP:  1.05D+00  1.01D+00
 FoFJK:  IHMeth= 1 ICntrl=     0 DoSepK=T KAlg= 1 I1Cent= 0 FoldK=F
 E= -2904.74070194472     Delta-E=       -0.000000136955 Rises=F Damp=F
 DIIS: error= 3.75D-06 at cycle   8 NSaved=   8.
 NSaved= 8 IEnMin= 8 EnMin= -2904.74070194472     IErMin= 8 ErrMin= 3.75D-06
 ErrMax= 3.75D-06 EMaxC= 1.00D-01 BMatC= 2.61D-09 BMatP= 1.33D-07
 IDIUse=1 WtCom= 1.00D+00 WtEn= 0.00D+00
 Coeff-Com:  0.100D-04 0.303D-03 0.249D-02 0.427D-03-0.198D-01-0.523D-01
 Coeff-Com: -0.723D-01 0.114D+01
 Coeff:      0.100D-04 0.303D-03 0.249D-02 0.427D-03-0.198D-01-0.523D-01
 Coeff:     -0.723D-01 0.114D+01
 Gap=     0.437 Goal=   None    Shift=    0.000
 RMSDP=5.58D-07 MaxDP=1.63D-05 DE=-1.37D-07 OVMax= 4.81D-05

 Cycle   9  Pass 1  IDiag  1:
 RMSU=  1.26D-07    CP:  1.02D+00  7.07D-01  1.19D+00  1.11D+00  1.14D+00
                    CP:  1.07D+00  1.07D+00  1.35D+00
 FoFJK:  IHMeth= 1 ICntrl=     0 DoSepK=T KAlg= 1 I1Cent= 0 FoldK=F
 E= -2904.74070195215     Delta-E=       -0.000000007428 Rises=F Damp=F
 DIIS: error= 6.17D-07 at cycle   9 NSaved=   9.
 NSaved= 9 IEnMin= 9 EnMin= -2904.74070195215     IErMin= 9 ErrMin= 6.17D-07
 ErrMax= 6.17D-07 EMaxC= 1.00D-01 BMatC= 1.67D-10 BMatP= 2.61D-09
 IDIUse=1 WtCom= 1.00D+00 WtEn= 0.00D+00
 Coeff-Com: -0.286D-05 0.101D-03 0.658D-03 0.109D-02-0.894D-03-0.141D-01
 Coeff-Com: -0.523D-01 0.476D-01 0.102D+01
 Coeff:     -0.286D-05 0.101D-03 0.658D-03 0.109D-02-0.894D-03-0.141D-01
 Coeff:     -0.523D-01 0.476D-01 0.102D+01
 Gap=     0.437 Goal=   None    Shift=    0.000
 RMSDP=1.16D-07 MaxDP=2.74D-06 DE=-7.43D-09 OVMax= 1.14D-05

 Cycle  10  Pass 1  IDiag  1:
 RMSU=  4.25D-08    CP:  1.02D+00  7.07D-01  1.19D+00  1.11D+00  1.14D+00
                    CP:  1.08D+00  1.08D+00  1.43D+00  1.27D+00
 FoFJK:  IHMeth= 1 ICntrl=     0 DoSepK=T KAlg= 1 I1Cent= 0 FoldK=F
 E= -2904.74070195262     Delta-E=       -0.000000000464 Rises=F Damp=F
 DIIS: error= 2.30D-07 at cycle  10 NSaved=  10.
 NSaved=10 IEnMin=10 EnMin= -2904.74070195262     IErMin=10 ErrMin= 2.30D-07
 ErrMax= 2.30D-07 EMaxC= 1.00D-01 BMatC= 9.43D-12 BMatP= 1.67D-10
 IDIUse=1 WtCom= 1.00D+00 WtEn= 0.00D+00
 Coeff-Com:  0.641D-07-0.272D-04-0.204D-03-0.160D-03 0.106D-02 0.417D-02
 Coeff-Com:  0.111D-01-0.726D-01-0.774D-01 0.113D+01
 Coeff:      0.641D-07-0.272D-04-0.204D-03-0.160D-03 0.106D-02 0.417D-02
 Coeff:      0.111D-01-0.726D-01-0.774D-01 0.113D+01
 Gap=     0.437 Goal=   None    Shift=    0.000
 RMSDP=3.46D-08 MaxDP=7.80D-07 DE=-4.64D-10 OVMax= 3.78D-06

 Cycle  11  Pass 1  IDiag  1:
 RMSU=  1.00D-08    CP:  1.02D+00  7.07D-01  1.19D+00  1.11D+00  1.14D+00
                    CP:  1.07D+00  1.08D+00  1.44D+00  1.38D+00  1.28D+00
 FoFJK:  IHMeth= 1 ICntrl=     0 DoSepK=T KAlg= 1 I1Cent= 0 FoldK=F
 E= -2904.74070195264     Delta-E=       -0.000000000021 Rises=F Damp=F
 DIIS: error= 5.61D-08 at cycle  11 NSaved=  11.
 NSaved=11 IEnMin=11 EnMin= -2904.74070195264     IErMin=11 ErrMin= 5.61D-08
 ErrMax= 5.61D-08 EMaxC= 1.00D-01 BMatC= 7.83D-13 BMatP= 9.43D-12
 IDIUse=1 WtCom= 1.00D+00 WtEn= 0.00D+00
 Coeff-Com: -0.208D-07-0.106D-04-0.666D-04-0.910D-04 0.161D-03 0.140D-02
 Coeff-Com:  0.505D-02-0.110D-01-0.762D-01 0.744D-01 0.101D+01
 Coeff:     -0.208D-07-0.106D-04-0.666D-04-0.910D-04 0.161D-03 0.140D-02
 Coeff:      0.505D-02-0.110D-01-0.762D-01 0.744D-01 0.101D+01
 Gap=     0.437 Goal=   None    Shift=    0.000
 RMSDP=8.46D-09 MaxDP=2.14D-07 DE=-2.14D-11 OVMax= 1.13D-06

 SCF Done:  E(RLC-B+HF-LYP) =  -2904.74070195     A.U. after   11 cycles
             Convg  =    0.8460D-08             -V/T =  2.0017
 KE= 2.899822949441D+03 PE=-7.233214438424D+03 EE= 1.280261262014D+03
 Leave Link  502 at Wed May 13 17:08:39 2020, MaxMem= 1073741824 cpu:     328.3
 (Enter /home/matheus/.gaussian/g09/l601.exe)
 Copying SCF densities to generalized density rwf, IOpCl= 0 IROHF=0.

 **********************************************************************

            Population analysis using the SCF density.

 **********************************************************************

 Orbital symmetries:
       Occupied  (A) (A) (A) (A) (A) (A) (A) (A) (A) (A) (A) (A)
                 (A) (A) (A) (A) (A) (A) (A) (A) (A) (A) (A) (A)
                 (A) (A) (A)
       Virtual   (A) (A) (A) (A) (A) (A) (A) (A) (A) (A) (A) (A)
                 (A) (A) (A) (A) (A) (A) (A) (A) (A) (A) (A) (A)
                 (A) (A) (A) (A) (A) (A) (A) (A) (A) (A) (A) (A)
                 (A) (A) (A) (A) (A) (A) (A) (A) (A) (A) (A) (A)
                 (A) (A) (A) (A) (A) (A) (A) (A) (A) (A) (A) (A)
                 (A) (A) (A) (A) (A) (A) (A) (A) (A) (A) (A) (A)
                 (A) (A) (A) (A) (A) (A) (A) (A) (A) (A) (A) (A)
                 (A) (A) (A) (A) (A) (A) (A) (A) (A) (A) (A) (A)
                 (A) (A) (A) (A) (A) (A) (A) (A) (A) (A) (A) (A)
                 (A) (A) (A) (A) (A) (A) (A) (A) (A) (A) (A) (A)
                 (A) (A) (A) (A) (A) (A) (A) (A) (A) (A) (A) (A)
                 (A) (A) (A) (A) (A) (A) (A) (A) (A) (A) (A) (A)
                 (A) (A) (A) (A) (A) (A) (A) (A) (A) (A) (A) (A)
                 (A) (A) (A) (A) (A) (A) (A) (A) (A) (A) (A) (A)
                 (A) (A)
 The electronic state is 1-A.
 Alpha  occ. eigenvalues -- -511.25294 -66.72295 -60.40829 -60.40810 -60.40802
 Alpha  occ. eigenvalues --  -19.07093 -19.06715  -9.61450  -7.36947  -7.36894
 Alpha  occ. eigenvalues --   -7.36867  -3.33277  -3.33266  -3.33248  -3.33207
 Alpha  occ. eigenvalues --   -3.33205  -1.28116  -1.07422  -1.06145  -0.68737
 Alpha  occ. eigenvalues --   -0.65359  -0.56373  -0.52816  -0.52138  -0.51578
 Alpha  occ. eigenvalues --   -0.48299  -0.41026
 Alpha virt. eigenvalues --    0.02656   0.03479   0.07400   0.09306   0.09989
 Alpha virt. eigenvalues --    0.10460   0.12718   0.13719   0.15583   0.16324
 Alpha virt. eigenvalues --    0.17958   0.19203   0.19478   0.21994   0.22926
 Alpha virt. eigenvalues --    0.23987   0.25856   0.28493   0.30484   0.33376
 Alpha virt. eigenvalues --    0.33466   0.33638   0.35633   0.38454   0.39601
 Alpha virt. eigenvalues --    0.40809   0.41573   0.47547   0.52223   0.55088
 Alpha virt. eigenvalues --    0.56684   0.59103   0.63369   0.65623   0.68428
 Alpha virt. eigenvalues --    0.71292   0.71754   0.72590   0.73234   0.75800
 Alpha virt. eigenvalues --    0.77098   0.78553   0.79218   0.80504   0.82239
 Alpha virt. eigenvalues --    0.84511   0.85505   0.87453   0.88770   0.91534
 Alpha virt. eigenvalues --    0.92797   0.93928   0.95730   0.97135   0.99159
 Alpha virt. eigenvalues --    1.02372   1.03774   1.05610   1.07996   1.10531
 Alpha virt. eigenvalues --    1.11618   1.13912   1.16415   1.18307   1.20661
 Alpha virt. eigenvalues --    1.27744   1.32099   1.35422   1.39761   1.41701
 Alpha virt. eigenvalues --    1.44657   1.51535   1.53310   1.56344   1.61801
 Alpha virt. eigenvalues --    1.63168   1.77048   1.83333   1.85504   1.94872
 Alpha virt. eigenvalues --    2.00300   2.02511   2.04592   2.14888   2.15430
 Alpha virt. eigenvalues --    2.16781   2.19628   2.21836   2.22714   2.25708
 Alpha virt. eigenvalues --    2.28008   2.31553   2.32210   2.33232   2.34863
 Alpha virt. eigenvalues --    2.38317   2.40515   2.46087   2.49265   2.51479
 Alpha virt. eigenvalues --    2.51521   2.52981   2.55017   2.57029   2.58163
 Alpha virt. eigenvalues --    2.61131   2.63512   2.67513   2.68366   2.71367
 Alpha virt. eigenvalues --    2.74009   2.76096   2.81231   2.86376   2.90461
 Alpha virt. eigenvalues --    2.96278   3.07165   3.10850   3.16349   3.59581
 Alpha virt. eigenvalues --    3.71481   3.85138   3.97911   4.03015   4.06166
 Alpha virt. eigenvalues --    4.09831   4.18026   4.20403   4.24412   4.27202
 Alpha virt. eigenvalues --    4.45034   4.47418   4.54328   4.55182   4.72718
 Alpha virt. eigenvalues --    4.95035   5.00977   5.03879   5.08554   5.13462
 Alpha virt. eigenvalues --    5.34409   5.43350   5.84386   6.04024   6.08019
 Alpha virt. eigenvalues --    6.13720   6.35592   6.35775   6.42843   6.52308
 Alpha virt. eigenvalues --    6.69369   6.72777   6.76894   6.83016   6.87265
 Alpha virt. eigenvalues --    6.88130   6.92569   6.93478   6.96718   7.01082
 Alpha virt. eigenvalues --    7.04951   7.23286   7.26111   7.39468   7.67270
 Alpha virt. eigenvalues --    7.83256   8.06744   8.13035  13.97533  14.53209
          Condensed to atoms (all electrons):
              1          2          3          4          5
     1  O    8.191253  -0.168259   0.200244   0.001580  -0.033445
     2  O   -0.168259   8.174795   0.014797   0.224438  -0.012556
     3  H    0.200244   0.014797   0.575770   0.003022   0.003596
     4  H    0.001580   0.224438   0.003022   0.565311  -0.004990
     5  Kr  -0.033445  -0.012556   0.003596  -0.004990  36.036017
 Mulliken atomic charges:
              1
     1  O   -0.191373
     2  O   -0.233215
     3  H    0.202572
     4  H    0.210639
     5  Kr   0.011378
 Sum of Mulliken atomic charges =   0.00000
 Mulliken charges with hydrogens summed into heavy atoms:
              1
     1  O    0.011198
     2  O   -0.022576
     5  Kr   0.011378
 Sum of Mulliken charges with hydrogens summed into heavy atoms =   0.00000
          Condensed to fragments (all electrons):
     1      -0.011378
     2       0.011378
 Electronic spatial extent (au):  <R**2>=            492.1221
 Charge=              0.0000 electrons
 Dipole moment (field-independent basis, Debye):
    X=             -0.3909    Y=             -0.3279    Z=              0.8137  Tot=              0.9604
 Quadrupole moment (field-independent basis, Debye-Ang):
   XX=            -27.7848   YY=            -28.6260   ZZ=            -30.5824
   XY=             -3.8522   XZ=              2.5013   YZ=             -0.8726
 Traceless Quadrupole moment (field-independent basis, Debye-Ang):
   XX=              1.2129   YY=              0.3717   ZZ=             -1.5846
   XY=             -3.8522   XZ=              2.5013   YZ=             -0.8726
 Octapole moment (field-independent basis, Debye-Ang**2):
  XXX=             -6.0208  YYY=             -0.7831  ZZZ=              0.3954  XYY=             -4.7021
  XXY=            -15.8224  XXZ=              7.3106  XZZ=             -7.9724  YZZ=             -0.6892
  YYZ=              1.0434  XYZ=             -2.6324
 Hexadecapole moment (field-independent basis, Debye-Ang**3):
 XXXX=           -367.5649 YYYY=            -65.7323 ZZZZ=            -30.8891 XXXY=            -48.2857
 XXXZ=             21.7592 YYYX=             -5.8193 YYYZ=             -1.1125 ZZZX=              1.2916
 ZZZY=             -0.5759 XXYY=            -77.0932 XXZZ=            -78.5706 YYZZ=            -17.7328
 XXYZ=             -7.7577 YYXZ=              2.9788 ZZXY=             -1.3976
 N-N= 1.483895250152D+02 E-N=-7.233214432934D+03  KE= 2.899822949441D+03
 No NMR shielding tensors so no spin-rotation constants.
 Leave Link  601 at Wed May 13 17:08:39 2020, MaxMem= 1073741824 cpu:       0.9
 (Enter /home/matheus/.gaussian/g09/l122.exe)
 Counterpoise: doing DCBS calculation for fragment   1 NewBq=T
 Leave Link  122 at Wed May 13 17:08:39 2020, MaxMem= 1073741824 cpu:       0.0
 (Enter /home/matheus/.gaussian/g09/l301.exe)
 Basis read from rwf:  (5D, 7F)
 No pseudopotential information found on rwf file.
 There are   197 symmetry adapted basis functions of A   symmetry.
 Integral buffers will be    131072 words long.
 Raffenetti 2 integral format.
 Two-electron integral symmetry is turned on.
   197 basis functions,   415 primitive gaussians,   229 cartesian basis functions
     9 alpha electrons        9 beta electrons
       nuclear repulsion energy        36.6035600706 Hartrees.
 IExCor=10402 DFT=T Ex=LC-B+HF Corr=LYP ExCW=0 ScaHFX=  1.000000
 ScaDFX=  1.000000  1.000000  1.000000  1.000000 ScalE2=  1.000000  1.000000
 IRadAn=      5 IRanWt=     -1 IRanGd=            0 ICorTp=0
  HFx wShort=  0.000000 wLong=  0.470000 cFull=  0.000000 cShort=  0.000000 cLong=  1.000000
  DFx wShort=  0.000000 wLong=  0.470000 cFull=  0.000000 cShort=  0.000000 cLong=  1.000000
 NAtoms=    5 NActive=    5 NUniq=    5 SFac= 1.00D+00 NAtFMM=   60 NAOKFM=F Big=F
 No density basis found on file   718.
 Leave Link  301 at Wed May 13 17:08:39 2020, MaxMem= 1073741824 cpu:       0.3
 (Enter /home/matheus/.gaussian/g09/l302.exe)
 NPDir=0 NMtPBC=     1 NCelOv=     1 NCel=       1 NClECP=     1 NCelD=      1
         NCelK=      1 NCelE2=     1 NClLst=     1 CellRange=     0.0.
 One-electron integrals computed using PRISM.
 NBasis=   197 RedAO= T  NBF=   197
 NBsUse=   197 1.00D-06 NBFU=   197
 Precomputing XC quadrature grid using
 IXCGrd= 2 IRadAn=           5 IRanWt=          -1 IRanGd=           0 AccXCQ= 0.00D+00.
 NRdTot=     427 NPtTot=      123814 NUsed=      126881 NTot=      126913
 NSgBfM=   229   229   229   229   229 NAtAll=     5     5.
 Leave Link  302 at Wed May 13 17:08:39 2020, MaxMem= 1073741824 cpu:       1.0
 (Enter /home/matheus/.gaussian/g09/l303.exe)
 DipDrv:  MaxL=1.
 Leave Link  303 at Wed May 13 17:08:39 2020, MaxMem= 1073741824 cpu:       0.2
 (Enter /home/matheus/.gaussian/g09/l401.exe)
 Harris functional with IExCor=10402 diagonalized for initial guess.
 ExpMin= 2.53D-02 ExpMax= 1.17D+07 ExpMxC= 1.33D+04 IAcc=3 IRadAn=         5 AccDes= 0.00D+00
 HarFok:  IExCor=10402 AccDes= 0.00D+00 IRadAn=         5 IDoV= 1
 ScaDFX=  1.000000  1.000000  1.000000  1.000000
 FoFCou: FMM=F IPFlag=           0 FMFlag=      100000 FMFlg1=           0
         NFxFlg=           0 DoJE=T BraDBF=F KetDBF=T FulRan=T
         Omega=  0.000000  0.000000  1.000000  0.000000  0.000000 ICntrl=     500 IOpCl=  0
         NMat0=    1 NMatS0=    1 NMatT0=    0 NMatD0=    1 NMtDS0=    0 NMtDT0=    0
         I1Cent=           4 NGrid=           0.
 Petite list used in FoFCou.
 Harris En= -147.163211893046    
 Initial guess orbital symmetries:
       Occupied  (A) (A) (A) (A) (A) (A) (A) (A) (A)
       Virtual   (A) (A) (A) (A) (A) (A) (A) (A) (A) (A) (A) (A)
                 (A) (A) (A) (A) (A) (A) (A) (A) (A) (A) (A) (A)
                 (A) (A) (A) (A) (A) (A) (A) (A) (A) (A) (A) (A)
                 (A) (A) (A) (A) (A) (A) (A) (A) (A) (A) (A) (A)
                 (A) (A) (A) (A) (A) (A) (A) (A) (A) (A) (A) (A)
                 (A) (A) (A) (A) (A) (A) (A) (A) (A) (A) (A) (A)
                 (A) (A) (A) (A) (A) (A) (A) (A) (A) (A) (A) (A)
                 (A) (A) (A) (A) (A) (A) (A) (A) (A) (A) (A) (A)
                 (A) (A) (A) (A) (A) (A) (A) (A) (A) (A) (A) (A)
                 (A) (A) (A) (A) (A) (A) (A) (A) (A) (A) (A) (A)
                 (A) (A) (A) (A) (A) (A) (A) (A) (A) (A) (A) (A)
                 (A) (A) (A) (A) (A) (A) (A) (A) (A) (A) (A) (A)
                 (A) (A) (A) (A) (A) (A) (A) (A) (A) (A) (A) (A)
                 (A) (A) (A) (A) (A) (A) (A) (A) (A) (A) (A) (A)
                 (A) (A) (A) (A) (A) (A) (A) (A) (A) (A) (A) (A)
                 (A) (A) (A) (A) (A) (A) (A) (A)
 The electronic state of the initial guess is 1-A.
 Leave Link  401 at Wed May 13 17:08:40 2020, MaxMem= 1073741824 cpu:       4.6
 (Enter /home/matheus/.gaussian/g09/l502.exe)
 Closed shell SCF:
 Requested convergence on RMS density matrix=1.00D-08 within 128 cycles.
 Requested convergence on MAX density matrix=1.00D-06.
 Requested convergence on             energy=1.00D-06.
 No special actions if energy rises.
 Using DIIS extrapolation, IDIIS=  1040.
 Integral symmetry usage will be decided dynamically.
       126823 words used for storage of precomputed grid.
 IEnd=      305770 IEndB=      305770 NGot=  1073741824 MDV=  1073505365
 LenX=  1073505365 LenY=  1073452483
 Fock matrices will be formed incrementally for  20 cycles.

 Cycle   1  Pass 1  IDiag  1:
 FoFJK:  IHMeth= 1 ICntrl=     0 DoSepK=T KAlg= 1 I1Cent= 0 FoldK=F
 FoFCou: FMM=F IPFlag=           0 FMFlag=      100000 FMFlg1=           0
         NFxFlg=           0 DoJE=T BraDBF=F KetDBF=F FulRan=T
         Omega=  0.000000  0.000000  1.000000  0.000000  0.000000 ICntrl=     500 IOpCl=  0
         NMat0=    1 NMatS0=    1 NMatT0=    0 NMatD0=    1 NMtDS0=    0 NMtDT0=    0
         I1Cent=           0 NGrid=           0.
 Symmetry not used in FoFCou.
 E= -151.304077797992    
 DIIS: error= 8.79D-03 at cycle   1 NSaved=   1.
 NSaved= 1 IEnMin= 1 EnMin= -151.304077797992     IErMin= 1 ErrMin= 8.79D-03
 ErrMax= 8.79D-03 EMaxC= 1.00D-01 BMatC= 2.09D-02 BMatP= 2.09D-02
 IDIUse=3 WtCom= 9.12D-01 WtEn= 8.79D-02
 Coeff-Com:  0.100D+01
 Coeff-En:   0.100D+01
 Coeff:      0.100D+01
 Gap=     0.468 Goal=   None    Shift=    0.000
 GapD=    0.468 DampG=2.000 DampE=1.000 DampFc=2.0000 IDamp=-1.
 RMSDP=8.38D-04 MaxDP=2.90D-02              OVMax= 5.49D-02

 Cycle   2  Pass 1  IDiag  1:
 RMSU=  5.92D-04    CP:  1.00D+00
 FoFJK:  IHMeth= 1 ICntrl=     0 DoSepK=T KAlg= 1 I1Cent= 0 FoldK=F
 E= -151.321258912594     Delta-E=       -0.017181114602 Rises=F Damp=F
 DIIS: error= 4.81D-03 at cycle   2 NSaved=   2.
 NSaved= 2 IEnMin= 2 EnMin= -151.321258912594     IErMin= 2 ErrMin= 4.81D-03
 ErrMax= 4.81D-03 EMaxC= 1.00D-01 BMatC= 5.06D-03 BMatP= 2.09D-02
 IDIUse=3 WtCom= 9.52D-01 WtEn= 4.81D-02
 Coeff-Com:  0.280D+00 0.720D+00
 Coeff-En:   0.000D+00 0.100D+01
 Coeff:      0.267D+00 0.733D+00
 Gap=     0.428 Goal=   None    Shift=    0.000
 RMSDP=2.14D-04 MaxDP=6.71D-03 DE=-1.72D-02 OVMax= 1.46D-02

 Cycle   3  Pass 1  IDiag  1:
 RMSU=  1.51D-04    CP:  1.00D+00  1.01D+00
 FoFJK:  IHMeth= 1 ICntrl=     0 DoSepK=T KAlg= 1 I1Cent= 0 FoldK=F
 E= -151.324154514732     Delta-E=       -0.002895602139 Rises=F Damp=F
 DIIS: error= 1.44D-03 at cycle   3 NSaved=   3.
 NSaved= 3 IEnMin= 3 EnMin= -151.324154514732     IErMin= 3 ErrMin= 1.44D-03
 ErrMax= 1.44D-03 EMaxC= 1.00D-01 BMatC= 5.81D-04 BMatP= 5.06D-03
 IDIUse=3 WtCom= 9.86D-01 WtEn= 1.44D-02
 Coeff-Com:  0.116D-01 0.238D+00 0.750D+00
 Coeff-En:   0.000D+00 0.000D+00 0.100D+01
 Coeff:      0.114D-01 0.235D+00 0.754D+00
 Gap=     0.438 Goal=   None    Shift=    0.000
 RMSDP=1.06D-04 MaxDP=3.86D-03 DE=-2.90D-03 OVMax= 7.64D-03

 Cycle   4  Pass 1  IDiag  1:
 RMSU=  5.22D-05    CP:  1.00D+00  1.10D+00  9.64D-01
 FoFJK:  IHMeth= 1 ICntrl=     0 DoSepK=T KAlg= 1 I1Cent= 0 FoldK=F
 E= -151.324600902802     Delta-E=       -0.000446388069 Rises=F Damp=F
 DIIS: error= 2.63D-04 at cycle   4 NSaved=   4.
 NSaved= 4 IEnMin= 4 EnMin= -151.324600902802     IErMin= 4 ErrMin= 2.63D-04
 ErrMax= 2.63D-04 EMaxC= 1.00D-01 BMatC= 2.60D-05 BMatP= 5.81D-04
 IDIUse=3 WtCom= 9.97D-01 WtEn= 2.63D-03
 Coeff-Com: -0.210D-01-0.308D-01 0.112D+00 0.940D+00
 Coeff-En:   0.000D+00 0.000D+00 0.000D+00 0.100D+01
 Coeff:     -0.210D-01-0.307D-01 0.111D+00 0.940D+00
 Gap=     0.436 Goal=   None    Shift=    0.000
 RMSDP=3.91D-05 MaxDP=1.55D-03 DE=-4.46D-04 OVMax= 1.99D-03

 Cycle   5  Pass 1  IDiag  1:
 RMSU=  9.17D-06    CP:  1.00D+00  1.12D+00  1.08D+00  1.17D+00
 FoFJK:  IHMeth= 1 ICntrl=     0 DoSepK=T KAlg= 1 I1Cent= 0 FoldK=F
 E= -151.324629808993     Delta-E=       -0.000028906191 Rises=F Damp=F
 DIIS: error= 4.07D-05 at cycle   5 NSaved=   5.
 NSaved= 5 IEnMin= 5 EnMin= -151.324629808993     IErMin= 5 ErrMin= 4.07D-05
 ErrMax= 4.07D-05 EMaxC= 1.00D-01 BMatC= 4.20D-07 BMatP= 2.60D-05
 IDIUse=1 WtCom= 1.00D+00 WtEn= 0.00D+00
 Coeff-Com:  0.612D-03-0.665D-02-0.349D-01-0.522D-01 0.109D+01
 Coeff:      0.612D-03-0.665D-02-0.349D-01-0.522D-01 0.109D+01
 Gap=     0.436 Goal=   None    Shift=    0.000
 RMSDP=1.01D-05 MaxDP=4.07D-04 DE=-2.89D-05 OVMax= 6.40D-04

 Cycle   6  Pass 1  IDiag  1:
 RMSU=  1.69D-06    CP:  1.00D+00  1.13D+00  1.10D+00  1.26D+00  1.26D+00
 FoFJK:  IHMeth= 1 ICntrl=     0 DoSepK=T KAlg= 1 I1Cent= 0 FoldK=F
 E= -151.324631072649     Delta-E=       -0.000001263656 Rises=F Damp=F
 DIIS: error= 1.06D-05 at cycle   6 NSaved=   6.
 NSaved= 6 IEnMin= 6 EnMin= -151.324631072649     IErMin= 6 ErrMin= 1.06D-05
 ErrMax= 1.06D-05 EMaxC= 1.00D-01 BMatC= 2.09D-08 BMatP= 4.20D-07
 IDIUse=1 WtCom= 1.00D+00 WtEn= 0.00D+00
 Coeff-Com:  0.453D-03 0.102D-02-0.238D-02-0.247D-01-0.202D-01 0.105D+01
 Coeff:      0.453D-03 0.102D-02-0.238D-02-0.247D-01-0.202D-01 0.105D+01
 Gap=     0.436 Goal=   None    Shift=    0.000
 RMSDP=1.51D-06 MaxDP=4.59D-05 DE=-1.26D-06 OVMax= 1.18D-04

 Cycle   7  Pass 1  IDiag  1:
 RMSU=  3.81D-07    CP:  1.00D+00  1.13D+00  1.10D+00  1.28D+00  1.31D+00
                    CP:  1.30D+00
 FoFJK:  IHMeth= 1 ICntrl=     0 DoSepK=T KAlg= 1 I1Cent= 0 FoldK=F
 E= -151.324631129393     Delta-E=       -0.000000056745 Rises=F Damp=F
 DIIS: error= 2.33D-06 at cycle   7 NSaved=   7.
 NSaved= 7 IEnMin= 7 EnMin= -151.324631129393     IErMin= 7 ErrMin= 2.33D-06
 ErrMax= 2.33D-06 EMaxC= 1.00D-01 BMatC= 1.52D-09 BMatP= 2.09D-08
 IDIUse=1 WtCom= 1.00D+00 WtEn= 0.00D+00
 Coeff-Com: -0.466D-05 0.388D-03 0.155D-02 0.165D-02-0.547D-01-0.479D-01
 Coeff-Com:  0.110D+01
 Coeff:     -0.466D-05 0.388D-03 0.155D-02 0.165D-02-0.547D-01-0.479D-01
 Coeff:      0.110D+01
 Gap=     0.436 Goal=   None    Shift=    0.000
 RMSDP=3.57D-07 MaxDP=6.91D-06 DE=-5.67D-08 OVMax= 3.73D-05

 Cycle   8  Pass 1  IDiag  1:
 RMSU=  1.33D-07    CP:  1.00D+00  1.13D+00  1.10D+00  1.28D+00  1.31D+00
                    CP:  1.41D+00  1.24D+00
 FoFJK:  IHMeth= 1 ICntrl=     0 DoSepK=T KAlg= 1 I1Cent= 0 FoldK=F
 E= -151.324631133786     Delta-E=       -0.000000004393 Rises=F Damp=F
 DIIS: error= 1.78D-06 at cycle   8 NSaved=   8.
 NSaved= 8 IEnMin= 8 EnMin= -151.324631133786     IErMin= 8 ErrMin= 1.78D-06
 ErrMax= 1.78D-06 EMaxC= 1.00D-01 BMatC= 7.80D-10 BMatP= 1.52D-09
 IDIUse=1 WtCom= 1.00D+00 WtEn= 0.00D+00
 Coeff-Com: -0.198D-04 0.165D-03 0.849D-03 0.179D-02-0.255D-01-0.758D-01
 Coeff-Com:  0.553D+00 0.546D+00
 Coeff:     -0.198D-04 0.165D-03 0.849D-03 0.179D-02-0.255D-01-0.758D-01
 Coeff:      0.553D+00 0.546D+00
 Gap=     0.436 Goal=   None    Shift=    0.000
 RMSDP=8.20D-08 MaxDP=2.39D-06 DE=-4.39D-09 OVMax= 7.13D-06

 Cycle   9  Pass 1  IDiag  1:
 RMSU=  4.97D-08    CP:  1.00D+00  1.13D+00  1.10D+00  1.28D+00  1.31D+00
                    CP:  1.41D+00  1.30D+00  9.88D-01
 FoFJK:  IHMeth= 1 ICntrl=     0 DoSepK=T KAlg= 1 I1Cent= 0 FoldK=F
 E= -151.324631134369     Delta-E=       -0.000000000583 Rises=F Damp=F
 DIIS: error= 4.94D-07 at cycle   9 NSaved=   9.
 NSaved= 9 IEnMin= 9 EnMin= -151.324631134369     IErMin= 9 ErrMin= 4.94D-07
 ErrMax= 4.94D-07 EMaxC= 1.00D-01 BMatC= 4.52D-11 BMatP= 7.80D-10
 IDIUse=1 WtCom= 1.00D+00 WtEn= 0.00D+00
 Coeff-Com: -0.107D-06-0.369D-04-0.228D-03-0.217D-03 0.880D-02-0.570D-02
 Coeff-Com: -0.157D+00 0.992D-01 0.105D+01
 Coeff:     -0.107D-06-0.369D-04-0.228D-03-0.217D-03 0.880D-02-0.570D-02
 Coeff:     -0.157D+00 0.992D-01 0.105D+01
 Gap=     0.436 Goal=   None    Shift=    0.000
 RMSDP=5.74D-08 MaxDP=1.40D-06 DE=-5.83D-10 OVMax= 5.52D-06

 Cycle  10  Pass 1  IDiag  1:
 RMSU=  1.35D-08    CP:  1.00D+00  1.13D+00  1.10D+00  1.28D+00  1.31D+00
                    CP:  1.42D+00  1.33D+00  1.19D+00  1.16D+00
 FoFJK:  IHMeth= 1 ICntrl=     0 DoSepK=T KAlg= 1 I1Cent= 0 FoldK=F
 E= -151.324631134463     Delta-E=       -0.000000000095 Rises=F Damp=F
 DIIS: error= 7.38D-08 at cycle  10 NSaved=  10.
 NSaved=10 IEnMin=10 EnMin= -151.324631134463     IErMin=10 ErrMin= 7.38D-08
 ErrMax= 7.38D-08 EMaxC= 1.00D-01 BMatC= 1.05D-12 BMatP= 4.52D-11
 IDIUse=1 WtCom= 1.00D+00 WtEn= 0.00D+00
 Coeff-Com:  0.167D-05-0.552D-05-0.471D-04-0.145D-03 0.153D-02 0.320D-02
 Coeff-Com: -0.260D-01-0.251D-01-0.513D-02 0.105D+01
 Coeff:      0.167D-05-0.552D-05-0.471D-04-0.145D-03 0.153D-02 0.320D-02
 Coeff:     -0.260D-01-0.251D-01-0.513D-02 0.105D+01
 Gap=     0.436 Goal=   None    Shift=    0.000
 RMSDP=1.02D-08 MaxDP=2.19D-07 DE=-9.46D-11 OVMax= 1.28D-06

 Cycle  11  Pass 1  IDiag  1:
 RMSU=  2.24D-09    CP:  1.00D+00  1.13D+00  1.10D+00  1.28D+00  1.31D+00
                    CP:  1.42D+00  1.34D+00  1.22D+00  1.21D+00  1.34D+00
 FoFJK:  IHMeth= 1 ICntrl=     0 DoSepK=T KAlg= 1 I1Cent= 0 FoldK=F
 E= -151.324631134467     Delta-E=       -0.000000000004 Rises=F Damp=F
 DIIS: error= 2.47D-08 at cycle  11 NSaved=  11.
 NSaved=11 IEnMin=11 EnMin= -151.324631134467     IErMin=11 ErrMin= 2.47D-08
 ErrMax= 2.47D-08 EMaxC= 1.00D-01 BMatC= 7.37D-14 BMatP= 1.05D-12
 IDIUse=1 WtCom= 1.00D+00 WtEn= 0.00D+00
 Coeff-Com: -0.480D-07 0.263D-05 0.139D-04 0.934D-05-0.501D-03 0.198D-04
 Coeff-Com:  0.952D-02-0.686D-03-0.441D-01-0.207D+00 0.124D+01
 Coeff:     -0.480D-07 0.263D-05 0.139D-04 0.934D-05-0.501D-03 0.198D-04
 Coeff:      0.952D-02-0.686D-03-0.441D-01-0.207D+00 0.124D+01
 Gap=     0.436 Goal=   None    Shift=    0.000
 RMSDP=3.58D-09 MaxDP=7.19D-08 DE=-3.81D-12 OVMax= 5.86D-07

 SCF Done:  E(RLC-B+HF-LYP) =  -151.324631134     A.U. after   11 cycles
             Convg  =    0.3580D-08             -V/T =  2.0058
 KE= 1.504574062531D+02 PE=-4.313897394499D+02 EE= 9.300414199180D+01
 Leave Link  502 at Wed May 13 17:09:21 2020, MaxMem= 1073741824 cpu:     331.0
 (Enter /home/matheus/.gaussian/g09/l601.exe)
 Copying SCF densities to generalized density rwf, IOpCl= 0 IROHF=0.

 **********************************************************************

            Population analysis using the SCF density.

 **********************************************************************

 Orbital symmetries:
       Occupied  (A) (A) (A) (A) (A) (A) (A) (A) (A)
       Virtual   (A) (A) (A) (A) (A) (A) (A) (A) (A) (A) (A) (A)
                 (A) (A) (A) (A) (A) (A) (A) (A) (A) (A) (A) (A)
                 (A) (A) (A) (A) (A) (A) (A) (A) (A) (A) (A) (A)
                 (A) (A) (A) (A) (A) (A) (A) (A) (A) (A) (A) (A)
                 (A) (A) (A) (A) (A) (A) (A) (A) (A) (A) (A) (A)
                 (A) (A) (A) (A) (A) (A) (A) (A) (A) (A) (A) (A)
                 (A) (A) (A) (A) (A) (A) (A) (A) (A) (A) (A) (A)
                 (A) (A) (A) (A) (A) (A) (A) (A) (A) (A) (A) (A)
                 (A) (A) (A) (A) (A) (A) (A) (A) (A) (A) (A) (A)
                 (A) (A) (A) (A) (A) (A) (A) (A) (A) (A) (A) (A)
                 (A) (A) (A) (A) (A) (A) (A) (A) (A) (A) (A) (A)
                 (A) (A) (A) (A) (A) (A) (A) (A) (A) (A) (A) (A)
                 (A) (A) (A) (A) (A) (A) (A) (A) (A) (A) (A) (A)
                 (A) (A) (A) (A) (A) (A) (A) (A) (A) (A) (A) (A)
                 (A) (A) (A) (A) (A) (A) (A) (A) (A) (A) (A) (A)
                 (A) (A) (A) (A) (A) (A) (A) (A)
 The electronic state is 1-A.
 Alpha  occ. eigenvalues --  -19.07264 -19.07263  -1.28320  -1.06597  -0.68862
 Alpha  occ. eigenvalues --   -0.64871  -0.56411  -0.48852  -0.41282
 Alpha virt. eigenvalues --    0.02286   0.03062   0.06767   0.08555   0.09874
 Alpha virt. eigenvalues --    0.10201   0.10517   0.13242   0.15877   0.16015
 Alpha virt. eigenvalues --    0.18321   0.18506   0.20341   0.22472   0.24749
 Alpha virt. eigenvalues --    0.26224   0.29124   0.30205   0.31045   0.32533
 Alpha virt. eigenvalues --    0.34884   0.37585   0.38329   0.39304   0.40658
 Alpha virt. eigenvalues --    0.42113   0.43355   0.46942   0.48158   0.48825
 Alpha virt. eigenvalues --    0.54183   0.57049   0.59352   0.64082   0.67757
 Alpha virt. eigenvalues --    0.69736   0.73706   0.74241   0.74803   0.75786
 Alpha virt. eigenvalues --    0.78505   0.81712   0.85514   0.87717   0.89731
 Alpha virt. eigenvalues --    0.90536   0.92808   0.94821   0.96937   0.98918
 Alpha virt. eigenvalues --    0.99077   1.03435   1.04865   1.08019   1.11550
 Alpha virt. eigenvalues --    1.12262   1.14978   1.17177   1.20774   1.22762
 Alpha virt. eigenvalues --    1.24846   1.30223   1.31508   1.32437   1.33080
 Alpha virt. eigenvalues --    1.33786   1.34474   1.35944   1.37394   1.41541
 Alpha virt. eigenvalues --    1.46914   1.49912   1.53360   1.54273   1.55318
 Alpha virt. eigenvalues --    1.57325   1.64218   1.68029   1.70827   1.79876
 Alpha virt. eigenvalues --    1.83414   1.83899   1.88749   1.97637   2.02894
 Alpha virt. eigenvalues --    2.05327   2.08380   2.16850   2.18628   2.23772
 Alpha virt. eigenvalues --    2.27182   2.29061   2.33448   2.36288   2.44718
 Alpha virt. eigenvalues --    2.49919   2.54630   2.56317   2.60692   2.67122
 Alpha virt. eigenvalues --    2.71612   2.73988   2.80942   2.86148   2.93773
 Alpha virt. eigenvalues --    3.06303   3.10201   3.12058   3.25694   3.30133
 Alpha virt. eigenvalues --    3.40976   3.54688   3.59152   3.70779   3.78256
 Alpha virt. eigenvalues --    3.78635   3.81043   3.82167   3.82261   3.82940
 Alpha virt. eigenvalues --    3.88135   3.89568   3.91231   3.93635   3.95363
 Alpha virt. eigenvalues --    4.00064   4.02441   4.07496   4.11075   4.11813
 Alpha virt. eigenvalues --    4.14128   4.20835   4.24681   4.31059   4.36413
 Alpha virt. eigenvalues --    4.46120   4.51533   4.56903   4.72921   4.95392
 Alpha virt. eigenvalues --    5.01347   5.03986   5.08852   5.13773   5.34817
 Alpha virt. eigenvalues --    5.43226   5.84210   6.03877   6.07880   6.13421
 Alpha virt. eigenvalues --    6.35525   6.35704   6.42697   6.52159   6.69207
 Alpha virt. eigenvalues --    6.72540   6.76660   6.82823   6.87069   6.87841
 Alpha virt. eigenvalues --    6.92195   6.93281   6.96605   7.00810   7.04802
 Alpha virt. eigenvalues --    7.23067   7.25998   7.39296   7.67075   7.82992
 Alpha virt. eigenvalues --    8.06575   8.12530  10.88001  13.97550  14.51739
 Alpha virt. eigenvalues --   14.83196  14.88277  15.10465  29.02913  29.03432
 Alpha virt. eigenvalues --   29.07785  29.13370  29.22922  49.09839 148.31286
 Alpha virt. eigenvalues --  148.38724 148.71524 752.48527
          Condensed to atoms (all electrons):
              1          2          3          4          5
     1  O    8.184513  -0.165037   0.191984  -0.000921  -0.001193
     2  O   -0.165037   8.153321   0.014730   0.218330   0.000590
     3  H    0.191984   0.014730   0.579551   0.004398   0.000460
     4  H   -0.000921   0.218330   0.004398   0.565068  -0.004994
     5  Kr  -0.001193   0.000590   0.000460  -0.004994   0.000854
 Mulliken atomic charges:
              1
     1  O   -0.209347
     2  O   -0.221934
     3  H    0.208878
     4  H    0.218119
     5  Kr   0.004284
 Sum of Mulliken atomic charges =   0.00000
 Mulliken charges with hydrogens summed into heavy atoms:
              1
     1  O   -0.000469
     2  O   -0.003815
     5  Kr   0.004284
 Sum of Mulliken charges with hydrogens summed into heavy atoms =   0.00000
          Condensed to fragments (all electrons):
     1      -0.004284
     2       0.004284
 Electronic spatial extent (au):  <R**2>=            324.6185
 Charge=              0.0000 electrons
 Dipole moment (field-independent basis, Debye):
    X=             -0.2136    Y=             -0.0404    Z=              0.8356  Tot=              0.8634
 Quadrupole moment (field-independent basis, Debye-Ang):
   XX=            -10.0050   YY=            -10.9046   ZZ=            -12.9262
   XY=             -4.0245   XZ=              2.4825   YZ=             -0.8700
 Traceless Quadrupole moment (field-independent basis, Debye-Ang):
   XX=              1.2736   YY=              0.3740   ZZ=             -1.6476
   XY=             -4.0245   XZ=              2.4825   YZ=             -0.8700
 Octapole moment (field-independent basis, Debye-Ang**2):
  XXX=            -57.9759  YYY=             -1.3323  ZZZ=              0.5704  XYY=            -22.2228
  XXY=            -15.7606  XXZ=              7.3863  XZZ=            -25.5523  YZZ=             -0.8726
  YYZ=              1.0999  XYZ=             -2.6307
 Hexadecapole moment (field-independent basis, Debye-Ang**3):
 XXXX=           -241.5066 YYYY=            -46.9721 ZZZZ=            -12.2649 XXXY=            -47.5805
 XXXZ=             21.5878 YYYX=             -5.2406 YYYZ=             -1.1090 ZZZX=              1.1170
 ZZZY=             -0.5727 XXYY=            -53.0274 XXZZ=            -54.6720 YYZZ=            -11.4961
 XXYZ=             -7.7611 YYXZ=              2.9170 ZZXY=             -1.1666
 N-N= 3.660356007063D+01 E-N=-4.313897393348D+02  KE= 1.504574062531D+02
 No NMR shielding tensors so no spin-rotation constants.
 Leave Link  601 at Wed May 13 17:09:21 2020, MaxMem= 1073741824 cpu:       0.8
 (Enter /home/matheus/.gaussian/g09/l122.exe)
 Counterpoise: doing DCBS calculation for fragment   2 NewBq=T
 Leave Link  122 at Wed May 13 17:09:21 2020, MaxMem= 1073741824 cpu:       0.0
 (Enter /home/matheus/.gaussian/g09/l301.exe)
 Basis read from rwf:  (5D, 7F)
 No pseudopotential information found on rwf file.
 There are   197 symmetry adapted basis functions of A   symmetry.
 Integral buffers will be    131072 words long.
 Raffenetti 2 integral format.
 Two-electron integral symmetry is turned on.
   197 basis functions,   415 primitive gaussians,   229 cartesian basis functions
    18 alpha electrons       18 beta electrons
       nuclear repulsion energy         0.0000000000 Hartrees.
 IExCor=10402 DFT=T Ex=LC-B+HF Corr=LYP ExCW=0 ScaHFX=  1.000000
 ScaDFX=  1.000000  1.000000  1.000000  1.000000 ScalE2=  1.000000  1.000000
 IRadAn=      5 IRanWt=     -1 IRanGd=            0 ICorTp=0
  HFx wShort=  0.000000 wLong=  0.470000 cFull=  0.000000 cShort=  0.000000 cLong=  1.000000
  DFx wShort=  0.000000 wLong=  0.470000 cFull=  0.000000 cShort=  0.000000 cLong=  1.000000
 NAtoms=    5 NActive=    5 NUniq=    5 SFac= 1.00D+00 NAtFMM=   60 NAOKFM=F Big=F
 No density basis found on file   718.
 Leave Link  301 at Wed May 13 17:09:21 2020, MaxMem= 1073741824 cpu:       0.3
 (Enter /home/matheus/.gaussian/g09/l302.exe)
 NPDir=0 NMtPBC=     1 NCelOv=     1 NCel=       1 NClECP=     1 NCelD=      1
         NCelK=      1 NCelE2=     1 NClLst=     1 CellRange=     0.0.
 One-electron integrals computed using PRISM.
 NBasis=   197 RedAO= T  NBF=   197
 NBsUse=   197 1.00D-06 NBFU=   197
 Precomputing XC quadrature grid using
 IXCGrd= 2 IRadAn=           5 IRanWt=          -1 IRanGd=           0 AccXCQ= 0.00D+00.
 NRdTot=     427 NPtTot=      123814 NUsed=      126881 NTot=      126913
 NSgBfM=   229   229   229   229   229 NAtAll=     5     5.
 Leave Link  302 at Wed May 13 17:09:22 2020, MaxMem= 1073741824 cpu:       1.1
 (Enter /home/matheus/.gaussian/g09/l303.exe)
 DipDrv:  MaxL=1.
 Leave Link  303 at Wed May 13 17:09:22 2020, MaxMem= 1073741824 cpu:       0.3
 (Enter /home/matheus/.gaussian/g09/l401.exe)
 Harris functional with IExCor=10402 diagonalized for initial guess.
 ExpMin= 2.53D-02 ExpMax= 1.17D+07 ExpMxC= 1.33D+04 IAcc=3 IRadAn=         5 AccDes= 0.00D+00
 HarFok:  IExCor=10402 AccDes= 0.00D+00 IRadAn=         5 IDoV= 1
 ScaDFX=  1.000000  1.000000  1.000000  1.000000
 FoFCou: FMM=F IPFlag=           0 FMFlag=      100000 FMFlg1=           0
         NFxFlg=           0 DoJE=T BraDBF=F KetDBF=T FulRan=T
         Omega=  0.000000  0.000000  1.000000  0.000000  0.000000 ICntrl=     500 IOpCl=  0
         NMat0=    1 NMatS0=    1 NMatT0=    0 NMatD0=    1 NMtDS0=    0 NMtDT0=    0
         I1Cent=           4 NGrid=           0.
 Petite list used in FoFCou.
 Harris En= -2744.51538168226    
 Initial guess orbital symmetries:
       Occupied  (A) (A) (A) (A) (A) (A) (A) (A) (A) (A) (A) (A)
                 (A) (A) (A) (A) (A) (A)
       Virtual   (A) (A) (A) (A) (A) (A) (A) (A) (A) (A) (A) (A)
                 (A) (A) (A) (A) (A) (A) (A) (A) (A) (A) (A) (A)
                 (A) (A) (A) (A) (A) (A) (A) (A) (A) (A) (A) (A)
                 (A) (A) (A) (A) (A) (A) (A) (A) (A) (A) (A) (A)
                 (A) (A) (A) (A) (A) (A) (A) (A) (A) (A) (A) (A)
                 (A) (A) (A) (A) (A) (A) (A) (A) (A) (A) (A) (A)
                 (A) (A) (A) (A) (A) (A) (A) (A) (A) (A) (A) (A)
                 (A) (A) (A) (A) (A) (A) (A) (A) (A) (A) (A) (A)
                 (A) (A) (A) (A) (A) (A) (A) (A) (A) (A) (A) (A)
                 (A) (A) (A) (A) (A) (A) (A) (A) (A) (A) (A) (A)
                 (A) (A) (A) (A) (A) (A) (A) (A) (A) (A) (A) (A)
                 (A) (A) (A) (A) (A) (A) (A) (A) (A) (A) (A) (A)
                 (A) (A) (A) (A) (A) (A) (A) (A) (A) (A) (A) (A)
                 (A) (A) (A) (A) (A) (A) (A) (A) (A) (A) (A) (A)
                 (A) (A) (A) (A) (A) (A) (A) (A) (A) (A) (A)
 The electronic state of the initial guess is 1-A.
 Leave Link  401 at Wed May 13 17:09:22 2020, MaxMem= 1073741824 cpu:       4.4
 (Enter /home/matheus/.gaussian/g09/l502.exe)
 Closed shell SCF:
 Requested convergence on RMS density matrix=1.00D-08 within 128 cycles.
 Requested convergence on MAX density matrix=1.00D-06.
 Requested convergence on             energy=1.00D-06.
 No special actions if energy rises.
 Using DIIS extrapolation, IDIIS=  1040.
 Integral symmetry usage will be decided dynamically.
       126823 words used for storage of precomputed grid.
 IEnd=      305770 IEndB=      305770 NGot=  1073741824 MDV=  1073505365
 LenX=  1073505365 LenY=  1073452483
 Fock matrices will be formed incrementally for  20 cycles.

 Cycle   1  Pass 1  IDiag  1:
 FoFJK:  IHMeth= 1 ICntrl=     0 DoSepK=T KAlg= 1 I1Cent= 0 FoldK=F
 FoFCou: FMM=F IPFlag=           0 FMFlag=      100000 FMFlg1=           0
         NFxFlg=           0 DoJE=T BraDBF=F KetDBF=F FulRan=T
         Omega=  0.000000  0.000000  1.000000  0.000000  0.000000 ICntrl=     500 IOpCl=  0
         NMat0=    1 NMatS0=    1 NMatT0=    0 NMatD0=    1 NMtDS0=    0 NMtDT0=    0
         I1Cent=           0 NGrid=           0.
 Symmetry not used in FoFCou.
 E= -2753.33349501478    
 DIIS: error= 2.30D-02 at cycle   1 NSaved=   1.
 NSaved= 1 IEnMin= 1 EnMin= -2753.33349501478     IErMin= 1 ErrMin= 2.30D-02
 ErrMax= 2.30D-02 EMaxC= 1.00D-01 BMatC= 2.61D-01 BMatP= 2.61D-01
 IDIUse=3 WtCom= 7.70D-01 WtEn= 2.30D-01
 Coeff-Com:  0.100D+01
 Coeff-En:   0.100D+01
 Coeff:      0.100D+01
 Gap=     0.618 Goal=   None    Shift=    0.000
 GapD=    0.618 DampG=2.000 DampE=0.500 DampFc=1.0000 IDamp=-1.
 RMSDP=2.49D-03 MaxDP=1.52D-01              OVMax= 1.05D-01

 Cycle   2  Pass 1  IDiag  1:
 RMSU=  1.70D-03    CP:  1.03D+00
 FoFJK:  IHMeth= 1 ICntrl=     0 DoSepK=T KAlg= 1 I1Cent= 0 FoldK=F
 E= -2753.38946545215     Delta-E=       -0.055970437371 Rises=F Damp=F
 DIIS: error= 1.24D-02 at cycle   2 NSaved=   2.
 NSaved= 2 IEnMin= 2 EnMin= -2753.38946545215     IErMin= 2 ErrMin= 1.24D-02
 ErrMax= 1.24D-02 EMaxC= 1.00D-01 BMatC= 8.81D-02 BMatP= 2.61D-01
 IDIUse=3 WtCom= 8.76D-01 WtEn= 1.24D-01
 Coeff-Com:  0.365D+00 0.635D+00
 Coeff-En:   0.130D+00 0.870D+00
 Coeff:      0.335D+00 0.665D+00
 Gap=     0.539 Goal=   None    Shift=    0.000
 RMSDP=9.72D-04 MaxDP=6.04D-02 DE=-5.60D-02 OVMax= 3.11D-02

 Cycle   3  Pass 1  IDiag  1:
 RMSU=  1.73D-04    CP:  1.02D+00  6.21D-01
 FoFJK:  IHMeth= 1 ICntrl=     0 DoSepK=T KAlg= 1 I1Cent= 0 FoldK=F
 E= -2753.41752784919     Delta-E=       -0.028062397043 Rises=F Damp=F
 DIIS: error= 8.43D-04 at cycle   3 NSaved=   3.
 NSaved= 3 IEnMin= 3 EnMin= -2753.41752784919     IErMin= 3 ErrMin= 8.43D-04
 ErrMax= 8.43D-04 EMaxC= 1.00D-01 BMatC= 4.61D-04 BMatP= 8.81D-02
 IDIUse=3 WtCom= 9.92D-01 WtEn= 8.43D-03
 Coeff-Com: -0.644D-02 0.545D-01 0.952D+00
 Coeff-En:   0.000D+00 0.000D+00 0.100D+01
 Coeff:     -0.639D-02 0.540D-01 0.952D+00
 Gap=     0.537 Goal=   None    Shift=    0.000
 RMSDP=9.12D-05 MaxDP=4.56D-03 DE=-2.81D-02 OVMax= 3.13D-03

 Cycle   4  Pass 1  IDiag  1:
 RMSU=  3.74D-05    CP:  1.02D+00  6.47D-01  1.15D+00
 FoFJK:  IHMeth= 1 ICntrl=     0 DoSepK=T KAlg= 1 I1Cent= 0 FoldK=F
 E= -2753.41767857552     Delta-E=       -0.000150726333 Rises=F Damp=F
 DIIS: error= 6.17D-05 at cycle   4 NSaved=   4.
 NSaved= 4 IEnMin= 4 EnMin= -2753.41767857552     IErMin= 4 ErrMin= 6.17D-05
 ErrMax= 6.17D-05 EMaxC= 1.00D-01 BMatC= 2.08D-06 BMatP= 4.61D-04
 IDIUse=1 WtCom= 1.00D+00 WtEn= 0.00D+00
 Coeff-Com: -0.143D-02 0.331D-03-0.706D-02 0.101D+01
 Coeff:     -0.143D-02 0.331D-03-0.706D-02 0.101D+01
 Gap=     0.538 Goal=   None    Shift=    0.000
 RMSDP=1.40D-05 MaxDP=5.46D-04 DE=-1.51D-04 OVMax= 9.21D-04

 Cycle   5  Pass 1  IDiag  1:
 RMSU=  6.01D-06    CP:  1.02D+00  6.49D-01  1.19D+00  1.05D+00
 FoFJK:  IHMeth= 1 ICntrl=     0 DoSepK=T KAlg= 1 I1Cent= 0 FoldK=F
 E= -2753.41768254461     Delta-E=       -0.000003969089 Rises=F Damp=F
 DIIS: error= 2.37D-05 at cycle   5 NSaved=   5.
 NSaved= 5 IEnMin= 5 EnMin= -2753.41768254461     IErMin= 5 ErrMin= 2.37D-05
 ErrMax= 2.37D-05 EMaxC= 1.00D-01 BMatC= 1.58D-07 BMatP= 2.08D-06
 IDIUse=1 WtCom= 1.00D+00 WtEn= 0.00D+00
 Coeff-Com: -0.539D-04-0.370D-02-0.336D-01-0.711D-01 0.111D+01
 Coeff:     -0.539D-04-0.370D-02-0.336D-01-0.711D-01 0.111D+01
 Gap=     0.538 Goal=   None    Shift=    0.000
 RMSDP=4.56D-06 MaxDP=1.86D-04 DE=-3.97D-06 OVMax= 1.97D-04

 Cycle   6  Pass 1  IDiag  1:
 RMSU=  3.73D-07    CP:  1.02D+00  6.49D-01  1.20D+00  1.10D+00  1.15D+00
 FoFJK:  IHMeth= 1 ICntrl=     0 DoSepK=T KAlg= 1 I1Cent= 0 FoldK=F
 E= -2753.41768275131     Delta-E=       -0.000000206694 Rises=F Damp=F
 DIIS: error= 5.91D-07 at cycle   6 NSaved=   6.
 NSaved= 6 IEnMin= 6 EnMin= -2753.41768275131     IErMin= 6 ErrMin= 5.91D-07
 ErrMax= 5.91D-07 EMaxC= 1.00D-01 BMatC= 9.72D-11 BMatP= 1.58D-07
 IDIUse=1 WtCom= 1.00D+00 WtEn= 0.00D+00
 Coeff-Com:  0.728D-05 0.316D-03 0.318D-02 0.621D-04-0.816D-01 0.108D+01
 Coeff:      0.728D-05 0.316D-03 0.318D-02 0.621D-04-0.816D-01 0.108D+01
 Gap=     0.538 Goal=   None    Shift=    0.000
 RMSDP=1.55D-07 MaxDP=5.15D-06 DE=-2.07D-07 OVMax= 6.23D-06

 Cycle   7  Pass 1  IDiag  1:
 RMSU=  2.45D-08    CP:  1.02D+00  6.49D-01  1.20D+00  1.10D+00  1.17D+00
                    CP:  1.18D+00
 FoFJK:  IHMeth= 1 ICntrl=     0 DoSepK=T KAlg= 1 I1Cent= 0 FoldK=F
 E= -2753.41768275140     Delta-E=       -0.000000000092 Rises=F Damp=F
 DIIS: error= 8.53D-08 at cycle   7 NSaved=   7.
 NSaved= 7 IEnMin= 7 EnMin= -2753.41768275140     IErMin= 7 ErrMin= 8.53D-08
 ErrMax= 8.53D-08 EMaxC= 1.00D-01 BMatC= 2.37D-12 BMatP= 9.72D-11
 IDIUse=1 WtCom= 1.00D+00 WtEn= 0.00D+00
 Coeff-Com:  0.534D-06 0.393D-04 0.350D-03 0.875D-03-0.124D-01 0.181D-01
 Coeff-Com:  0.993D+00
 Coeff:      0.534D-06 0.393D-04 0.350D-03 0.875D-03-0.124D-01 0.181D-01
 Coeff:      0.993D+00
 Gap=     0.538 Goal=   None    Shift=    0.000
 RMSDP=1.58D-08 MaxDP=5.67D-07 DE=-9.19D-11 OVMax= 8.30D-07

 Cycle   8  Pass 1  IDiag  1:
 RMSU=  4.72D-09    CP:  1.02D+00  6.49D-01  1.20D+00  1.10D+00  1.17D+00
                    CP:  1.20D+00  1.11D+00
 FoFJK:  IHMeth= 1 ICntrl=     0 DoSepK=T KAlg= 1 I1Cent= 0 FoldK=F
 E= -2753.41768275138     Delta-E=        0.000000000016 Rises=F Damp=F
 DIIS: error= 1.98D-08 at cycle   8 NSaved=   8.
 NSaved= 8 IEnMin= 7 EnMin= -2753.41768275140     IErMin= 8 ErrMin= 1.98D-08
 ErrMax= 1.98D-08 EMaxC= 1.00D-01 BMatC= 2.03D-13 BMatP= 2.37D-12
 IDIUse=1 WtCom= 1.00D+00 WtEn= 0.00D+00
 Coeff-Com: -0.335D-06-0.112D-04-0.122D-03 0.187D-03 0.229D-02-0.572D-01
 Coeff-Com:  0.184D+00 0.871D+00
 Coeff:     -0.335D-06-0.112D-04-0.122D-03 0.187D-03 0.229D-02-0.572D-01
 Coeff:      0.184D+00 0.871D+00
 Gap=     0.538 Goal=   None    Shift=    0.000
 RMSDP=3.01D-09 MaxDP=1.09D-07 DE= 1.64D-11 OVMax= 1.80D-07

 SCF Done:  E(RLC-B+HF-LYP) =  -2753.41768275     A.U. after    8 cycles
             Convg  =    0.3014D-08             -V/T =  2.0015
 KE= 2.749315934145D+03 PE=-6.578526640810D+03 EE= 1.075793023914D+03
 Leave Link  502 at Wed May 13 17:09:52 2020, MaxMem= 1073741824 cpu:     236.2
 (Enter /home/matheus/.gaussian/g09/l601.exe)
 Copying SCF densities to generalized density rwf, IOpCl= 0 IROHF=0.

 **********************************************************************

            Population analysis using the SCF density.

 **********************************************************************

 Orbital symmetries:
       Occupied  (A) (A) (A) (A) (A) (A) (A) (A) (A) (A) (A) (A)
                 (A) (A) (A) (A) (A) (A)
       Virtual   (A) (A) (A) (A) (A) (A) (A) (A) (A) (A) (A) (A)
                 (A) (A) (A) (A) (A) (A) (A) (A) (A) (A) (A) (A)
                 (A) (A) (A) (A) (A) (A) (A) (A) (A) (A) (A) (A)
                 (A) (A) (A) (A) (A) (A) (A) (A) (A) (A) (A) (A)
                 (A) (A) (A) (A) (A) (A) (A) (A) (A) (A) (A) (A)
                 (A) (A) (A) (A) (A) (A) (A) (A) (A) (A) (A) (A)
                 (A) (A) (A) (A) (A) (A) (A) (A) (A) (A) (A) (A)
                 (A) (A) (A) (A) (A) (A) (A) (A) (A) (A) (A) (A)
                 (A) (A) (A) (A) (A) (A) (A) (A) (A) (A) (A) (A)
                 (A) (A) (A) (A) (A) (A) (A) (A) (A) (A) (A) (A)
                 (A) (A) (A) (A) (A) (A) (A) (A) (A) (A) (A) (A)
                 (A) (A) (A) (A) (A) (A) (A) (A) (A) (A) (A) (A)
                 (A) (A) (A) (A) (A) (A) (A) (A) (A) (A) (A) (A)
                 (A) (A) (A) (A) (A) (A) (A) (A) (A) (A) (A) (A)
                 (A) (A) (A) (A) (A) (A) (A) (A) (A) (A) (A)
 The electronic state is 1-A.
 Alpha  occ. eigenvalues -- -511.24358 -66.71349 -60.39871 -60.39868 -60.39867
 Alpha  occ. eigenvalues --   -9.60493  -7.35946  -7.35945  -7.35944  -3.32283
 Alpha  occ. eigenvalues --   -3.32283  -3.32282  -3.32281  -3.32281  -1.06080
 Alpha  occ. eigenvalues --   -0.51293  -0.51289  -0.51287
 Alpha virt. eigenvalues --    0.02528   0.04630   0.07689   0.09050   0.10306
 Alpha virt. eigenvalues --    0.11609   0.12579   0.13780   0.15923   0.16646
 Alpha virt. eigenvalues --    0.17326   0.19103   0.20406   0.25271   0.26468
 Alpha virt. eigenvalues --    0.27118   0.27769   0.32018   0.33375   0.35213
 Alpha virt. eigenvalues --    0.35446   0.36947   0.37185   0.38710   0.41172
 Alpha virt. eigenvalues --    0.41833   0.42903   0.53065   0.54965   0.57649
 Alpha virt. eigenvalues --    0.58377   0.66083   0.66265   0.69595   0.71185
 Alpha virt. eigenvalues --    0.74260   0.75687   0.76233   0.77533   0.78278
 Alpha virt. eigenvalues --    0.80469   0.81530   0.82917   0.84830   0.85074
 Alpha virt. eigenvalues --    0.86766   0.87850   0.89018   0.91551   0.94392
 Alpha virt. eigenvalues --    0.98066   0.98460   1.01206   1.03300   1.04256
 Alpha virt. eigenvalues --    1.06380   1.08001   1.08822   1.12839   1.13514
 Alpha virt. eigenvalues --    1.14971   1.18820   1.19818   1.25020   1.27177
 Alpha virt. eigenvalues --    1.32966   1.35162   1.41435   1.44850   1.45150
 Alpha virt. eigenvalues --    1.57931   1.59389   1.62543   1.72942   1.76934
 Alpha virt. eigenvalues --    1.81927   1.85505   1.86433   1.88825   2.16233
 Alpha virt. eigenvalues --    2.20265   2.26046   2.27591   2.30732   2.32027
 Alpha virt. eigenvalues --    2.33055   2.33597   2.36256   2.38321   2.39599
 Alpha virt. eigenvalues --    2.42591   2.47896   2.48735   2.51202   2.51611
 Alpha virt. eigenvalues --    2.52411   2.54727   2.55139   2.56880   2.59382
 Alpha virt. eigenvalues --    2.62475   2.62892   2.63694   2.65540   2.67505
 Alpha virt. eigenvalues --    2.71720   2.74880   2.77004   2.81911   2.87836
 Alpha virt. eigenvalues --    2.90058   2.97915   3.04089   3.12109   3.13686
 Alpha virt. eigenvalues --    3.21806   3.26928   3.31329   3.35823   3.51344
 Alpha virt. eigenvalues --    3.59813   3.64784   3.82662   3.86429   4.02607
 Alpha virt. eigenvalues --    4.35939   4.46933   4.51810   4.54613   4.58397
 Alpha virt. eigenvalues --    4.71236   4.87321   4.87937   4.94258   5.03973
 Alpha virt. eigenvalues --    5.11828   5.15219   5.58050   5.64366   5.86337
 Alpha virt. eigenvalues --    5.93990   6.01660   6.12055   6.82714   6.84481
 Alpha virt. eigenvalues --    7.29422   7.39369   7.62458   7.63361   7.70068
 Alpha virt. eigenvalues --    7.81998   8.03276   8.09576   8.17055   8.22313
 Alpha virt. eigenvalues --    8.35952   8.38443   8.65149   8.88554   9.61500
 Alpha virt. eigenvalues --    9.69787   9.77987   9.86484   9.96368  10.03343
 Alpha virt. eigenvalues --   10.15780  10.23934  10.47174  10.92768  11.47419
 Alpha virt. eigenvalues --   11.56810  11.62160  12.03235  12.07400  13.22852
 Alpha virt. eigenvalues --   13.64132  14.52584  62.79345  64.54535
          Condensed to atoms (all electrons):
              1          2          3          4          5
     1  O    0.002307  -0.001996  -0.001055   0.001112  -0.009220
     2  O   -0.001996   0.005200   0.000646  -0.002998  -0.006809
     3  H   -0.001055   0.000646   0.000642  -0.000347   0.002118
     4  H    0.001112  -0.002998  -0.000347   0.002802  -0.013262
     5  Kr  -0.009220  -0.006809   0.002118  -0.013262  36.052671
 Mulliken atomic charges:
              1
     1  O    0.008852
     2  O    0.005957
     3  H   -0.002003
     4  H    0.012692
     5  Kr  -0.025498
 Sum of Mulliken atomic charges =   0.00000
 Mulliken charges with hydrogens summed into heavy atoms:
              1
     1  O    0.006848
     2  O    0.018650
     5  Kr  -0.025498
 Sum of Mulliken charges with hydrogens summed into heavy atoms =   0.00000
          Condensed to fragments (all electrons):
     1       0.025498
     2      -0.025498
 Electronic spatial extent (au):  <R**2>=            167.5854
 Charge=              0.0000 electrons
 Dipole moment (field-independent basis, Debye):
    X=              0.0015    Y=              0.0007    Z=              0.0001  Tot=              0.0017
 Quadrupole moment (field-independent basis, Debye-Ang):
   XX=            -17.7475   YY=            -17.7568   ZZ=            -17.7633
   XY=              0.0045   XZ=             -0.0001   YZ=              0.0002
 Traceless Quadrupole moment (field-independent basis, Debye-Ang):
   XX=              0.0084   YY=             -0.0009   ZZ=             -0.0074
   XY=              0.0045   XZ=             -0.0001   YZ=              0.0002
 Octapole moment (field-independent basis, Debye-Ang**2):
  XXX=             53.1129  YYY=              0.9584  ZZZ=             -0.1365  XYY=             17.7159
  XXY=              0.3092  XXZ=             -0.0458  XZZ=             17.7195  YZZ=              0.3198
  YYZ=             -0.0451  XYZ=             -0.0003
 Hexadecapole moment (field-independent basis, Debye-Ang**3):
 XXXX=           -124.8795 YYYY=            -18.9594 ZZZZ=            -18.9450 XXXY=             -0.9311
 XXXZ=              0.1367 YYYX=             -0.9405 YYYZ=              0.0017 ZZZX=              0.1365
 ZZZY=              0.0031 XXYY=            -23.9831 XXZZ=            -23.9829 YYZZ=             -6.3146
 XXYZ=              0.0012 YYXZ=              0.0456 ZZXY=             -0.3123
 N-N= 0.000000000000D+00 E-N=-6.578526639160D+03  KE= 2.749315934145D+03
 No NMR shielding tensors so no spin-rotation constants.
 Leave Link  601 at Wed May 13 17:09:52 2020, MaxMem= 1073741824 cpu:       0.8
 (Enter /home/matheus/.gaussian/g09/l122.exe)
 Counterpoise: doing MCBS calculation for fragment   1
 Leave Link  122 at Wed May 13 17:09:52 2020, MaxMem= 1073741824 cpu:       0.0
 (Enter /home/matheus/.gaussian/g09/l301.exe)
 Basis read from rwf:  (5D, 7F)
 No pseudopotential information found on rwf file.
 There are   138 symmetry adapted basis functions of A   symmetry.
 Integral buffers will be    131072 words long.
 Raffenetti 2 integral format.
 Two-electron integral symmetry is turned on.
   138 basis functions,   198 primitive gaussians,   160 cartesian basis functions
     9 alpha electrons        9 beta electrons
       nuclear repulsion energy        36.6035600706 Hartrees.
 IExCor=10402 DFT=T Ex=LC-B+HF Corr=LYP ExCW=0 ScaHFX=  1.000000
 ScaDFX=  1.000000  1.000000  1.000000  1.000000 ScalE2=  1.000000  1.000000
 IRadAn=      5 IRanWt=     -1 IRanGd=            0 ICorTp=0
  HFx wShort=  0.000000 wLong=  0.470000 cFull=  0.000000 cShort=  0.000000 cLong=  1.000000
  DFx wShort=  0.000000 wLong=  0.470000 cFull=  0.000000 cShort=  0.000000 cLong=  1.000000
 NAtoms=    5 NActive=    4 NUniq=    4 SFac= 1.00D+00 NAtFMM=   60 NAOKFM=F Big=F
 No density basis found on file   718.
 Leave Link  301 at Wed May 13 17:09:52 2020, MaxMem= 1073741824 cpu:       0.2
 (Enter /home/matheus/.gaussian/g09/l302.exe)
 NPDir=0 NMtPBC=     1 NCelOv=     1 NCel=       1 NClECP=     1 NCelD=      1
         NCelK=      1 NCelE2=     1 NClLst=     1 CellRange=     0.0.
 One-electron integrals computed using PRISM.
 NBasis=   138 RedAO= T  NBF=   138
 NBsUse=   138 1.00D-06 NBFU=   138
 Precomputing XC quadrature grid using
 IXCGrd= 2 IRadAn=           5 IRanWt=          -1 IRanGd=           0 AccXCQ= 0.00D+00.
 NRdTot=     344 NPtTot=       92556 NUsed=       95038 NTot=       95070
 NSgBfM=   160   160   160   160   160 NAtAll=     4     4.
 Leave Link  302 at Wed May 13 17:09:52 2020, MaxMem= 1073741824 cpu:       0.8
 (Enter /home/matheus/.gaussian/g09/l303.exe)
 DipDrv:  MaxL=1.
 Leave Link  303 at Wed May 13 17:09:52 2020, MaxMem= 1073741824 cpu:       0.1
 (Enter /home/matheus/.gaussian/g09/l401.exe)
 Harris functional with IExCor=10402 diagonalized for initial guess.
 ExpMin= 2.53D-02 ExpMax= 1.53D+04 ExpMxC= 5.22D+02 IAcc=3 IRadAn=         5 AccDes= 0.00D+00
 HarFok:  IExCor=10402 AccDes= 0.00D+00 IRadAn=         5 IDoV= 1
 ScaDFX=  1.000000  1.000000  1.000000  1.000000
 FoFCou: FMM=F IPFlag=           0 FMFlag=      100000 FMFlg1=           0
         NFxFlg=           0 DoJE=T BraDBF=F KetDBF=T FulRan=T
         Omega=  0.000000  0.000000  1.000000  0.000000  0.000000 ICntrl=     500 IOpCl=  0
         NMat0=    1 NMatS0=    1 NMatT0=    0 NMatD0=    1 NMtDS0=    0 NMtDT0=    0
         I1Cent=           4 NGrid=           0.
 Petite list used in FoFCou.
 Harris En= -147.163183213164    
 Initial guess orbital symmetries:
       Occupied  (A) (A) (A) (A) (A) (A) (A) (A) (A)
       Virtual   (A) (A) (A) (A) (A) (A) (A) (A) (A) (A) (A) (A)
                 (A) (A) (A) (A) (A) (A) (A) (A) (A) (A) (A) (A)
                 (A) (A) (A) (A) (A) (A) (A) (A) (A) (A) (A) (A)
                 (A) (A) (A) (A) (A) (A) (A) (A) (A) (A) (A) (A)
                 (A) (A) (A) (A) (A) (A) (A) (A) (A) (A) (A) (A)
                 (A) (A) (A) (A) (A) (A) (A) (A) (A) (A) (A) (A)
                 (A) (A) (A) (A) (A) (A) (A) (A) (A) (A) (A) (A)
                 (A) (A) (A) (A) (A) (A) (A) (A) (A) (A) (A) (A)
                 (A) (A) (A) (A) (A) (A) (A) (A) (A) (A) (A) (A)
                 (A) (A) (A) (A) (A) (A) (A) (A) (A) (A) (A) (A)
                 (A) (A) (A) (A) (A) (A) (A) (A) (A)
 The electronic state of the initial guess is 1-A.
 Leave Link  401 at Wed May 13 17:09:52 2020, MaxMem= 1073741824 cpu:       2.6
 (Enter /home/matheus/.gaussian/g09/l502.exe)
 Closed shell SCF:
 Requested convergence on RMS density matrix=1.00D-08 within 128 cycles.
 Requested convergence on MAX density matrix=1.00D-06.
 Requested convergence on             energy=1.00D-06.
 No special actions if energy rises.
 Using DIIS extrapolation, IDIIS=  1040.
 Integral symmetry usage will be decided dynamically.
        94980 words used for storage of precomputed grid.
 IEnd=      192360 IEndB=      192360 NGot=  1073741824 MDV=  1073591865
 LenX=  1073591865 LenY=  1073565824
 Fock matrices will be formed incrementally for  20 cycles.

 Cycle   1  Pass 1  IDiag  1:
 FoFJK:  IHMeth= 1 ICntrl=     0 DoSepK=T KAlg= 1 I1Cent= 0 FoldK=F
 FoFCou: FMM=F IPFlag=           0 FMFlag=      100000 FMFlg1=           0
         NFxFlg=           0 DoJE=T BraDBF=F KetDBF=F FulRan=T
         Omega=  0.000000  0.000000  1.000000  0.000000  0.000000 ICntrl=     500 IOpCl=  0
         NMat0=    1 NMatS0=    1 NMatT0=    0 NMatD0=    1 NMtDS0=    0 NMtDT0=    0
         I1Cent=           0 NGrid=           0.
 Symmetry not used in FoFCou.
 E= -151.304058508090    
 DIIS: error= 1.64D-02 at cycle   1 NSaved=   1.
 NSaved= 1 IEnMin= 1 EnMin= -151.304058508090     IErMin= 1 ErrMin= 1.64D-02
 ErrMax= 1.64D-02 EMaxC= 1.00D-01 BMatC= 2.09D-02 BMatP= 2.09D-02
 IDIUse=3 WtCom= 8.36D-01 WtEn= 1.64D-01
 Coeff-Com:  0.100D+01
 Coeff-En:   0.100D+01
 Coeff:      0.100D+01
 Gap=     0.470 Goal=   None    Shift=    0.000
 GapD=    0.470 DampG=2.000 DampE=0.500 DampFc=1.0000 IDamp=-1.
 RMSDP=1.18D-03 MaxDP=2.87D-02              OVMax= 5.47D-02

 Cycle   2  Pass 1  IDiag  1:
 RMSU=  8.32D-04    CP:  1.00D+00
 FoFJK:  IHMeth= 1 ICntrl=     0 DoSepK=T KAlg= 1 I1Cent= 0 FoldK=F
 E= -151.321220804371     Delta-E=       -0.017162296281 Rises=F Damp=F
 DIIS: error= 8.39D-03 at cycle   2 NSaved=   2.
 NSaved= 2 IEnMin= 2 EnMin= -151.321220804371     IErMin= 2 ErrMin= 8.39D-03
 ErrMax= 8.39D-03 EMaxC= 1.00D-01 BMatC= 5.05D-03 BMatP= 2.09D-02
 IDIUse=3 WtCom= 9.16D-01 WtEn= 8.39D-02
 Coeff-Com:  0.280D+00 0.720D+00
 Coeff-En:   0.000D+00 0.100D+01
 Coeff:      0.257D+00 0.743D+00
 Gap=     0.430 Goal=   None    Shift=    0.000
 RMSDP=3.13D-04 MaxDP=7.12D-03 DE=-1.72D-02 OVMax= 1.48D-02

 Cycle   3  Pass 1  IDiag  1:
 RMSU=  2.21D-04    CP:  1.00D+00  9.99D-01
 FoFJK:  IHMeth= 1 ICntrl=     0 DoSepK=T KAlg= 1 I1Cent= 0 FoldK=F
 E= -151.324083209139     Delta-E=       -0.002862404768 Rises=F Damp=F
 DIIS: error= 2.22D-03 at cycle   3 NSaved=   3.
 NSaved= 3 IEnMin= 3 EnMin= -151.324083209139     IErMin= 3 ErrMin= 2.22D-03
 ErrMax= 2.22D-03 EMaxC= 1.00D-01 BMatC= 6.35D-04 BMatP= 5.05D-03
 IDIUse=3 WtCom= 9.78D-01 WtEn= 2.22D-02
 Coeff-Com:  0.116D-01 0.248D+00 0.740D+00
 Coeff-En:   0.000D+00 0.000D+00 0.100D+01
 Coeff:      0.114D-01 0.243D+00 0.746D+00
 Gap=     0.440 Goal=   None    Shift=    0.000
 RMSDP=1.51D-04 MaxDP=3.82D-03 DE=-2.86D-03 OVMax= 7.74D-03

 Cycle   4  Pass 1  IDiag  1:
 RMSU=  7.40D-05    CP:  1.00D+00  1.09D+00  9.46D-01
 FoFJK:  IHMeth= 1 ICntrl=     0 DoSepK=T KAlg= 1 I1Cent= 0 FoldK=F
 E= -151.324558697247     Delta-E=       -0.000475488109 Rises=F Damp=F
 DIIS: error= 4.11D-04 at cycle   4 NSaved=   4.
 NSaved= 4 IEnMin= 4 EnMin= -151.324558697247     IErMin= 4 ErrMin= 4.11D-04
 ErrMax= 4.11D-04 EMaxC= 1.00D-01 BMatC= 2.72D-05 BMatP= 6.35D-04
 IDIUse=3 WtCom= 9.96D-01 WtEn= 4.11D-03
 Coeff-Com: -0.211D-01-0.301D-01 0.114D+00 0.937D+00
 Coeff-En:   0.000D+00 0.000D+00 0.000D+00 0.100D+01
 Coeff:     -0.210D-01-0.300D-01 0.113D+00 0.937D+00
 Gap=     0.438 Goal=   None    Shift=    0.000
 RMSDP=5.50D-05 MaxDP=1.53D-03 DE=-4.75D-04 OVMax= 1.96D-03

 Cycle   5  Pass 1  IDiag  1:
 RMSU=  1.28D-05    CP:  1.00D+00  1.12D+00  1.06D+00  1.17D+00
 FoFJK:  IHMeth= 1 ICntrl=     0 DoSepK=T KAlg= 1 I1Cent= 0 FoldK=F
 E= -151.324588106577     Delta-E=       -0.000029409330 Rises=F Damp=F
 DIIS: error= 7.74D-05 at cycle   5 NSaved=   5.
 NSaved= 5 IEnMin= 5 EnMin= -151.324588106577     IErMin= 5 ErrMin= 7.74D-05
 ErrMax= 7.74D-05 EMaxC= 1.00D-01 BMatC= 4.20D-07 BMatP= 2.72D-05
 IDIUse=1 WtCom= 1.00D+00 WtEn= 0.00D+00
 Coeff-Com:  0.615D-03-0.706D-02-0.348D-01-0.521D-01 0.109D+01
 Coeff:      0.615D-03-0.706D-02-0.348D-01-0.521D-01 0.109D+01
 Gap=     0.438 Goal=   None    Shift=    0.000
 RMSDP=1.42D-05 MaxDP=4.08D-04 DE=-2.94D-05 OVMax= 6.38D-04

 Cycle   6  Pass 1  IDiag  1:
 RMSU=  2.40D-06    CP:  1.00D+00  1.12D+00  1.08D+00  1.26D+00  1.26D+00
 FoFJK:  IHMeth= 1 ICntrl=     0 DoSepK=T KAlg= 1 I1Cent= 0 FoldK=F
 E= -151.324589367728     Delta-E=       -0.000001261151 Rises=F Damp=F
 DIIS: error= 1.54D-05 at cycle   6 NSaved=   6.
 NSaved= 6 IEnMin= 6 EnMin= -151.324589367728     IErMin= 6 ErrMin= 1.54D-05
 ErrMax= 1.54D-05 EMaxC= 1.00D-01 BMatC= 2.06D-08 BMatP= 4.20D-07
 IDIUse=1 WtCom= 1.00D+00 WtEn= 0.00D+00
 Coeff-Com:  0.454D-03 0.102D-02-0.243D-02-0.246D-01-0.213D-01 0.105D+01
 Coeff:      0.454D-03 0.102D-02-0.243D-02-0.246D-01-0.213D-01 0.105D+01
 Gap=     0.438 Goal=   None    Shift=    0.000
 RMSDP=2.13D-06 MaxDP=4.82D-05 DE=-1.26D-06 OVMax= 1.17D-04

 Cycle   7  Pass 1  IDiag  1:
 RMSU=  5.09D-07    CP:  1.00D+00  1.12D+00  1.08D+00  1.27D+00  1.31D+00
                    CP:  1.30D+00
 FoFJK:  IHMeth= 1 ICntrl=     0 DoSepK=T KAlg= 1 I1Cent= 0 FoldK=F
[...]
 Gap=     0.539 Goal=   None    Shift=    0.000
 RMSDP=1.59D-06 MaxDP=5.92D-05 DE=-5.61D-07 OVMax= 4.58D-05

 Cycle   3  Pass 1  IDiag  1:
 RMSU=  5.32D-07    CP:  1.00D+00  1.08D+00
 FoFJK:  IHMeth= 1 ICntrl=     0 DoSepK=T KAlg= 1 I1Cent= 0 FoldK=F
 E= -2753.41756241096     Delta-E=       -0.000000006026 Rises=F Damp=F
 DIIS: error= 4.66D-07 at cycle   3 NSaved=   3.
 NSaved= 3 IEnMin= 3 EnMin= -2753.41756241096     IErMin= 3 ErrMin= 4.66D-07
 ErrMax= 4.66D-07 EMaxC= 1.00D-01 BMatC= 9.82D-11 BMatP= 3.39D-09
 IDIUse=1 WtCom= 1.00D+00 WtEn= 0.00D+00
 Coeff-Com:  0.229D-03-0.113D+00 0.111D+01
 Coeff:      0.229D-03-0.113D+00 0.111D+01
 Gap=     0.539 Goal=   None    Shift=    0.000
 RMSDP=1.91D-07 MaxDP=6.74D-06 DE=-6.03D-09 OVMax= 9.23D-06

 Cycle   4  Pass 1  IDiag  1:
 RMSU=  5.96D-08    CP:  1.00D+00  1.08D+00  1.18D+00
 FoFJK:  IHMeth= 1 ICntrl=     0 DoSepK=T KAlg= 1 I1Cent= 0 FoldK=F
 E= -2753.41756241118     Delta-E=       -0.000000000221 Rises=F Damp=F
 DIIS: error= 2.69D-07 at cycle   4 NSaved=   4.
 NSaved= 4 IEnMin= 4 EnMin= -2753.41756241118     IErMin= 4 ErrMin= 2.69D-07
 ErrMax= 2.69D-07 EMaxC= 1.00D-01 BMatC= 1.58D-11 BMatP= 9.82D-11
 IDIUse=1 WtCom= 1.00D+00 WtEn= 0.00D+00
 Coeff-Com:  0.222D-03-0.555D-01 0.343D+00 0.712D+00
 Coeff:      0.222D-03-0.555D-01 0.343D+00 0.712D+00
 Gap=     0.539 Goal=   None    Shift=    0.000
 RMSDP=2.10D-08 MaxDP=8.39D-07 DE=-2.21D-10 OVMax= 9.90D-07

 Cycle   5  Pass 1  IDiag  1:
 RMSU=  1.04D-08    CP:  1.00D+00  1.08D+00  1.19D+00  1.12D+00
 FoFJK:  IHMeth= 1 ICntrl=     0 DoSepK=T KAlg= 1 I1Cent= 0 FoldK=F
 E= -2753.41756241120     Delta-E=       -0.000000000012 Rises=F Damp=F
 DIIS: error= 3.40D-08 at cycle   5 NSaved=   5.
 NSaved= 5 IEnMin= 5 EnMin= -2753.41756241120     IErMin= 5 ErrMin= 3.40D-08
 ErrMax= 3.40D-08 EMaxC= 1.00D-01 BMatC= 2.59D-13 BMatP= 1.58D-11
 IDIUse=1 WtCom= 1.00D+00 WtEn= 0.00D+00
 Coeff-Com: -0.199D-04 0.737D-02-0.672D-01-0.155D-01 0.108D+01
 Coeff:     -0.199D-04 0.737D-02-0.672D-01-0.155D-01 0.108D+01
 Gap=     0.539 Goal=   None    Shift=    0.000
 RMSDP=1.02D-08 MaxDP=5.96D-07 DE=-1.18D-11 OVMax= 4.49D-07

 Cycle   6  Pass 1  IDiag  1:
 RMSU=  1.52D-09    CP:  1.00D+00  1.08D+00  1.20D+00  1.20D+00  1.14D+00
 FoFJK:  IHMeth= 1 ICntrl=     0 DoSepK=T KAlg= 1 I1Cent= 0 FoldK=F
 E= -2753.41756241119     Delta-E=        0.000000000001 Rises=F Damp=F
 DIIS: error= 1.22D-08 at cycle   6 NSaved=   6.
 NSaved= 6 IEnMin= 5 EnMin= -2753.41756241120     IErMin= 6 ErrMin= 1.22D-08
 ErrMax= 1.22D-08 EMaxC= 1.00D-01 BMatC= 1.21D-14 BMatP= 2.59D-13
 IDIUse=1 WtCom= 1.00D+00 WtEn= 0.00D+00
 Coeff-Com: -0.103D-04 0.303D-02-0.225D-01-0.243D-01 0.197D+00 0.847D+00
 Coeff:     -0.103D-04 0.303D-02-0.225D-01-0.243D-01 0.197D+00 0.847D+00
 Gap=     0.539 Goal=   None    Shift=    0.000
 RMSDP=8.95D-10 MaxDP=4.17D-08 DE= 9.09D-13 OVMax= 8.16D-08

 SCF Done:  E(RLC-B+HF-LYP) =  -2753.41756241     A.U. after    6 cycles
             Convg  =    0.8953D-09             -V/T =  2.0015
 KE= 2.749364115040D+03 PE=-6.578579497139D+03 EE= 1.075797819688D+03
 Leave Link  502 at Wed May 13 17:37:06 2020, MaxMem= 1073741824 cpu:     131.3
 (Enter /home/matheus/.gaussian/g09/l122.exe)
 Restoring MOs from calculation   4 to rwf.
 Counterpoise: doing MCBS calculation for fragment   1
 Leave Link  122 at Wed May 13 17:37:06 2020, MaxMem= 1073741824 cpu:       0.0
 (Enter /home/matheus/.gaussian/g09/l301.exe)
 Basis read from rwf:  (5D, 7F)
 No pseudopotential information found on rwf file.
 There are   138 symmetry adapted basis functions of A   symmetry.
 Integral buffers will be    131072 words long.
 Raffenetti 2 integral format.
 Two-electron integral symmetry is turned on.
   138 basis functions,   198 primitive gaussians,   160 cartesian basis functions
     9 alpha electrons        9 beta electrons
       nuclear repulsion energy        36.6035600706 Hartrees.
 IExCor=10402 DFT=T Ex=LC-B+HF Corr=LYP ExCW=0 ScaHFX=  1.000000
 ScaDFX=  1.000000  1.000000  1.000000  1.000000 ScalE2=  1.000000  1.000000
 IRadAn=      5 IRanWt=     -1 IRanGd=            0 ICorTp=0
  HFx wShort=  0.000000 wLong=  0.470000 cFull=  0.000000 cShort=  0.000000 cLong=  1.000000
  DFx wShort=  0.000000 wLong=  0.470000 cFull=  0.000000 cShort=  0.000000 cLong=  1.000000
 NAtoms=    5 NActive=    4 NUniq=    4 SFac= 1.00D+00 NAtFMM=   60 NAOKFM=F Big=F
 No density basis found on file   718.
 Leave Link  301 at Wed May 13 17:37:06 2020, MaxMem= 1073741824 cpu:       0.3
 (Enter /home/matheus/.gaussian/g09/l302.exe)
 NPDir=0 NMtPBC=     1 NCelOv=     1 NCel=       1 NClECP=     1 NCelD=      1
         NCelK=      1 NCelE2=     1 NClLst=     1 CellRange=     0.0.
 One-electron integrals computed using PRISM.
 NBasis=   138 RedAO= T  NBF=   138
 NBsUse=   138 1.00D-06 NBFU=   138
 Precomputing XC quadrature grid using
 IXCGrd= 2 IRadAn=           5 IRanWt=          -1 IRanGd=           0 AccXCQ= 0.00D+00.
 NRdTot=     344 NPtTot=       92556 NUsed=       95038 NTot=       95070
 NSgBfM=   160   160   160   160   160 NAtAll=     4     4.
 Leave Link  302 at Wed May 13 17:37:06 2020, MaxMem= 1073741824 cpu:       0.9
 (Enter /home/matheus/.gaussian/g09/l303.exe)
 DipDrv:  MaxL=1.
 Leave Link  303 at Wed May 13 17:37:06 2020, MaxMem= 1073741824 cpu:       0.2
 (Enter /home/matheus/.gaussian/g09/l401.exe)
 Initial guess read from the read-write file.
 Guess basis will be translated and rotated to current coordinates.
 Initial guess orbital symmetries:
       Occupied  (A) (A) (A) (A) (A) (A) (A) (A) (A)
       Virtual   (A) (A) (A) (A) (A) (A) (A) (A) (A) (A) (A) (A)
                 (A) (A) (A) (A) (A) (A) (A) (A) (A) (A) (A) (A)
                 (A) (A) (A) (A) (A) (A) (A) (A) (A) (A) (A) (A)
                 (A) (A) (A) (A) (A) (A) (A) (A) (A) (A) (A) (A)
                 (A) (A) (A) (A) (A) (A) (A) (A) (A) (A) (A) (A)
                 (A) (A) (A) (A) (A) (A) (A) (A) (A) (A) (A) (A)
                 (A) (A) (A) (A) (A) (A) (A) (A) (A) (A) (A) (A)
                 (A) (A) (A) (A) (A) (A) (A) (A) (A) (A) (A) (A)
                 (A) (A) (A) (A) (A) (A) (A) (A) (A) (A) (A) (A)
                 (A) (A) (A) (A) (A) (A) (A) (A) (A) (A) (A) (A)
                 (A) (A) (A) (A) (A) (A) (A) (A) (A)
 The electronic state of the initial guess is 1-A.
 Generating alternative initial guess.
 Harris functional with IExCor=10402 diagonalized for initial guess.
 ExpMin= 2.53D-02 ExpMax= 1.53D+04 ExpMxC= 5.22D+02 IAcc=3 IRadAn=         5 AccDes= 0.00D+00
 HarFok:  IExCor=10402 AccDes= 0.00D+00 IRadAn=         5 IDoV= 1
 ScaDFX=  1.000000  1.000000  1.000000  1.000000
 FoFCou: FMM=F IPFlag=           0 FMFlag=      100000 FMFlg1=           0
         NFxFlg=           0 DoJE=T BraDBF=F KetDBF=T FulRan=T
         Omega=  0.000000  0.000000  1.000000  0.000000  0.000000 ICntrl=     500 IOpCl=  0
         NMat0=    1 NMatS0=    1 NMatT0=    0 NMatD0=    1 NMtDS0=    0 NMtDT0=    0
         I1Cent=           4 NGrid=           0.
 Petite list used in FoFCou.
 Harris En= -147.163183227791    
 Leave Link  401 at Wed May 13 17:37:06 2020, MaxMem= 1073741824 cpu:       2.8
 (Enter /home/matheus/.gaussian/g09/l502.exe)
 Closed shell SCF:
 Requested convergence on RMS density matrix=1.00D-08 within 128 cycles.
 Requested convergence on MAX density matrix=1.00D-06.
 Requested convergence on             energy=1.00D-06.
 No special actions if energy rises.
 Using DIIS extrapolation, IDIIS=  1040.
 Integral symmetry usage will be decided dynamically.
        94980 words used for storage of precomputed grid.
 IEnd=      192360 IEndB=      192360 NGot=  1073741824 MDV=  1073591865
 LenX=  1073591865 LenY=  1073565824
 Fock matrices will be formed incrementally for  20 cycles.

 Cycle   1  Pass 1  IDiag  1:
 FoFJK:  IHMeth= 1 ICntrl=     0 DoSepK=T KAlg= 1 I1Cent= 0 FoldK=F
 FoFCou: FMM=F IPFlag=           0 FMFlag=      100000 FMFlg1=           0
         NFxFlg=           0 DoJE=T BraDBF=F KetDBF=F FulRan=T
         Omega=  0.000000  0.000000  1.000000  0.000000  0.000000 ICntrl=     500 IOpCl=  0
         NMat0=    1 NMatS0=    1 NMatT0=    0 NMatD0=    1 NMtDS0=    0 NMtDT0=    0
         I1Cent=           0 NGrid=           0.
 Symmetry not used in FoFCou.
 E= -151.324589374983    
 DIIS: error= 2.32D-05 at cycle   1 NSaved=   1.
 NSaved= 1 IEnMin= 1 EnMin= -151.324589374983     IErMin= 1 ErrMin= 2.32D-05
 ErrMax= 2.32D-05 EMaxC= 1.00D-01 BMatC= 4.61D-08 BMatP= 4.61D-08
 IDIUse=1 WtCom= 1.00D+00 WtEn= 0.00D+00
 Coeff-Com:  0.100D+01
 Coeff:      0.100D+01
 Gap=     0.438 Goal=   None    Shift=    0.000
 RMSDP=1.08D-06 MaxDP=1.82D-05              OVMax= 7.91D-05

 Cycle   2  Pass 1  IDiag  1:
 RMSU=  7.64D-07    CP:  1.00D+00
 FoFJK:  IHMeth= 1 ICntrl=     0 DoSepK=T KAlg= 1 I1Cent= 0 FoldK=F
 E= -151.324589416792     Delta-E=       -0.000000041808 Rises=F Damp=F
 DIIS: error= 4.34D-06 at cycle   2 NSaved=   2.
 NSaved= 2 IEnMin= 2 EnMin= -151.324589416792     IErMin= 2 ErrMin= 4.34D-06
 ErrMax= 4.34D-06 EMaxC= 1.00D-01 BMatC= 1.76D-09 BMatP= 4.61D-08
 IDIUse=1 WtCom= 1.00D+00 WtEn= 0.00D+00
 Coeff-Com: -0.132D+00 0.113D+01
 Coeff:     -0.132D+00 0.113D+01
 Gap=     0.438 Goal=   None    Shift=    0.000
 RMSDP=3.74D-07 MaxDP=6.48D-06 DE=-4.18D-08 OVMax= 3.47D-05

 Cycle   3  Pass 1  IDiag  1:
 RMSU=  1.50D-07    CP:  1.00D+00  1.28D+00
 FoFJK:  IHMeth= 1 ICntrl=     0 DoSepK=T KAlg= 1 I1Cent= 0 FoldK=F
 E= -151.324589420988     Delta-E=       -0.000000004196 Rises=F Damp=F
 DIIS: error= 1.21D-06 at cycle   3 NSaved=   3.
 NSaved= 3 IEnMin= 3 EnMin= -151.324589420988     IErMin= 3 ErrMin= 1.21D-06
 ErrMax= 1.21D-06 EMaxC= 1.00D-01 BMatC= 1.66D-10 BMatP= 1.76D-09
 IDIUse=1 WtCom= 1.00D+00 WtEn= 0.00D+00
 Coeff-Com: -0.996D-02-0.122D+00 0.113D+01
 Coeff:     -0.996D-02-0.122D+00 0.113D+01
 Gap=     0.438 Goal=   None    Shift=    0.000
 RMSDP=1.40D-07 MaxDP=2.64D-06 DE=-4.20D-09 OVMax= 1.29D-05

 Cycle   4  Pass 1  IDiag  1:
 RMSU=  4.95D-08    CP:  1.00D+00  1.36D+00  1.41D+00
 FoFJK:  IHMeth= 1 ICntrl=     0 DoSepK=T KAlg= 1 I1Cent= 0 FoldK=F
 E= -151.324589421372     Delta-E=       -0.000000000384 Rises=F Damp=F
 DIIS: error= 6.71D-07 at cycle   4 NSaved=   4.
 NSaved= 4 IEnMin= 4 EnMin= -151.324589421372     IErMin= 4 ErrMin= 6.71D-07
 ErrMax= 6.71D-07 EMaxC= 1.00D-01 BMatC= 1.01D-10 BMatP= 1.66D-10
 IDIUse=1 WtCom= 1.00D+00 WtEn= 0.00D+00
 Coeff-Com:  0.993D-02-0.196D+00 0.570D+00 0.617D+00
 Coeff:      0.993D-02-0.196D+00 0.570D+00 0.617D+00
 Gap=     0.438 Goal=   None    Shift=    0.000
 RMSDP=4.92D-08 MaxDP=1.46D-06 DE=-3.84D-10 OVMax= 3.43D-06

 Cycle   5  Pass 1  IDiag  1:
 RMSU=  1.85D-08    CP:  1.00D+00  1.38D+00  1.57D+00  7.61D-01
 FoFJK:  IHMeth= 1 ICntrl=     0 DoSepK=T KAlg= 1 I1Cent= 0 FoldK=F
 E= -151.324589421462     Delta-E=       -0.000000000090 Rises=F Damp=F
 DIIS: error= 2.07D-07 at cycle   5 NSaved=   5.
 NSaved= 5 IEnMin= 5 EnMin= -151.324589421462     IErMin= 5 ErrMin= 2.07D-07
 ErrMax= 2.07D-07 EMaxC= 1.00D-01 BMatC= 6.46D-12 BMatP= 1.01D-10
 IDIUse=1 WtCom= 1.00D+00 WtEn= 0.00D+00
 Coeff-Com:  0.432D-02-0.444D-01 0.159D-01 0.183D+00 0.841D+00
 Coeff:      0.432D-02-0.444D-01 0.159D-01 0.183D+00 0.841D+00
 Gap=     0.438 Goal=   None    Shift=    0.000
 RMSDP=1.93D-08 MaxDP=3.74D-07 DE=-8.99D-11 OVMax= 1.47D-06

 Cycle   6  Pass 1  IDiag  1:
 RMSU=  7.84D-09    CP:  1.00D+00  1.38D+00  1.62D+00  8.91D-01  1.15D+00
 FoFJK:  IHMeth= 1 ICntrl=     0 DoSepK=T KAlg= 1 I1Cent= 0 FoldK=F
 E= -151.324589421473     Delta-E=       -0.000000000011 Rises=F Damp=F
 DIIS: error= 8.61D-08 at cycle   6 NSaved=   6.
 NSaved= 6 IEnMin= 6 EnMin= -151.324589421473     IErMin= 6 ErrMin= 8.61D-08
 ErrMax= 8.61D-08 EMaxC= 1.00D-01 BMatC= 1.19D-12 BMatP= 6.46D-12
 IDIUse=1 WtCom= 1.00D+00 WtEn= 0.00D+00
 Coeff-Com:  0.205D-03 0.110D-01-0.708D-01-0.181D-01 0.309D+00 0.769D+00
 Coeff:      0.205D-03 0.110D-01-0.708D-01-0.181D-01 0.309D+00 0.769D+00
 Gap=     0.438 Goal=   None    Shift=    0.000
 RMSDP=8.01D-09 MaxDP=1.02D-07 DE=-1.13D-11 OVMax= 7.67D-07

 SCF Done:  E(RLC-B+HF-LYP) =  -151.324589421     A.U. after    6 cycles
             Convg  =    0.8012D-08             -V/T =  2.0058
 KE= 1.504574394487D+02 PE=-4.313894508957D+02 EE= 9.300386195493D+01
 Leave Link  502 at Wed May 13 17:37:13 2020, MaxMem= 1073741824 cpu:      52.1
 (Enter /home/matheus/.gaussian/g09/l122.exe)
 Restoring MOs from calculation   5 to rwf.
 Counterpoise: doing MCBS calculation for fragment   2
 Leave Link  122 at Wed May 13 17:37:13 2020, MaxMem= 1073741824 cpu:       0.0
 (Enter /home/matheus/.gaussian/g09/l301.exe)
 Basis read from rwf:  (5D, 7F)
 No pseudopotential information found on rwf file.
 There are    59 symmetry adapted basis functions of A   symmetry.
 Integral buffers will be    131072 words long.
 Raffenetti 2 integral format.
 Two-electron integral symmetry is turned on.
    59 basis functions,   217 primitive gaussians,    69 cartesian basis functions
    18 alpha electrons       18 beta electrons
       nuclear repulsion energy         0.0000000000 Hartrees.
 IExCor=10402 DFT=T Ex=LC-B+HF Corr=LYP ExCW=0 ScaHFX=  1.000000
 ScaDFX=  1.000000  1.000000  1.000000  1.000000 ScalE2=  1.000000  1.000000
 IRadAn=      5 IRanWt=     -1 IRanGd=            0 ICorTp=0
  HFx wShort=  0.000000 wLong=  0.470000 cFull=  0.000000 cShort=  0.000000 cLong=  1.000000
  DFx wShort=  0.000000 wLong=  0.470000 cFull=  0.000000 cShort=  0.000000 cLong=  1.000000
 NAtoms=    5 NActive=    1 NUniq=    1 SFac= 1.00D+00 NAtFMM=   60 NAOKFM=F Big=F
 No density basis found on file   718.
 Leave Link  301 at Wed May 13 17:37:13 2020, MaxMem= 1073741824 cpu:       0.2
 (Enter /home/matheus/.gaussian/g09/l302.exe)
 NPDir=0 NMtPBC=     1 NCelOv=     1 NCel=       1 NClECP=     1 NCelD=      1
         NCelK=      1 NCelE2=     1 NClLst=     1 CellRange=     0.0.
 One-electron integrals computed using PRISM.
 NBasis=    59 RedAO= T  NBF=    59
 NBsUse=    59 1.00D-06 NBFU=    59
 Precomputing XC quadrature grid using
 IXCGrd= 2 IRadAn=           5 IRanWt=          -1 IRanGd=           0 AccXCQ= 0.00D+00.
 NRdTot=      81 NPtTot=       30352 NUsed=       30981 NTot=       31013
 NSgBfM=    69    69    69    69    69 NAtAll=     1     1.
 Leave Link  302 at Wed May 13 17:37:13 2020, MaxMem= 1073741824 cpu:       0.7
 (Enter /home/matheus/.gaussian/g09/l303.exe)
 DipDrv:  MaxL=1.
 Leave Link  303 at Wed May 13 17:37:13 2020, MaxMem= 1073741824 cpu:       0.1
 (Enter /home/matheus/.gaussian/g09/l401.exe)
 Initial guess read from the read-write file.
 Guess basis will be translated and rotated to current coordinates.
 Initial guess orbital symmetries:
       Occupied  (A) (A) (A) (A) (A) (A) (A) (A) (A) (A) (A) (A)
                 (A) (A) (A) (A) (A) (A)
       Virtual   (A) (A) (A) (A) (A) (A) (A) (A) (A) (A) (A) (A)
                 (A) (A) (A) (A) (A) (A) (A) (A) (A) (A) (A) (A)
                 (A) (A) (A) (A) (A) (A) (A) (A) (A) (A) (A) (A)
                 (A) (A) (A) (A) (A)
 The electronic state of the initial guess is 1-A.
 Generating alternative initial guess.
 Harris functional with IExCor=10402 diagonalized for initial guess.
 ExpMin= 4.00D-02 ExpMax= 1.17D+07 ExpMxC= 1.33D+04 IAcc=3 IRadAn=         5 AccDes= 0.00D+00
 HarFok:  IExCor=10402 AccDes= 0.00D+00 IRadAn=         5 IDoV= 1
 ScaDFX=  1.000000  1.000000  1.000000  1.000000
 FoFCou: FMM=F IPFlag=           0 FMFlag=      100000 FMFlg1=           0
         NFxFlg=           0 DoJE=T BraDBF=F KetDBF=T FulRan=T
         Omega=  0.000000  0.000000  1.000000  0.000000  0.000000 ICntrl=     500 IOpCl=  0
         NMat0=    1 NMatS0=    1 NMatT0=    0 NMatD0=    1 NMtDS0=    0 NMtDT0=    0
         I1Cent=           4 NGrid=           0.
 Petite list used in FoFCou.
 Harris En= -2744.51485235229    
 Leave Link  401 at Wed May 13 17:37:13 2020, MaxMem= 1073741824 cpu:       1.1
 (Enter /home/matheus/.gaussian/g09/l502.exe)
 Closed shell SCF:
 Requested convergence on RMS density matrix=1.00D-08 within 128 cycles.
 Requested convergence on MAX density matrix=1.00D-06.
 Requested convergence on             energy=1.00D-06.
 No special actions if energy rises.
 Using DIIS extrapolation, IDIIS=  1040.
 Integral symmetry usage will be decided dynamically.
        30923 words used for storage of precomputed grid.
 IEnd=       64406 IEndB=       64406 NGot=  1073741824 MDV=  1073698889
 LenX=  1073698889 LenY=  1073693687
 Fock matrices will be formed incrementally for  20 cycles.

 Cycle   1  Pass 1  IDiag  1:
 FoFJK:  IHMeth= 1 ICntrl=     0 DoSepK=T KAlg= 1 I1Cent= 0 FoldK=F
 FoFCou: FMM=F IPFlag=           0 FMFlag=      100000 FMFlg1=           0
         NFxFlg=           0 DoJE=T BraDBF=F KetDBF=F FulRan=T
         Omega=  0.000000  0.000000  1.000000  0.000000  0.000000 ICntrl=     500 IOpCl=  0
         NMat0=    1 NMatS0=    1 NMatT0=    0 NMatD0=    1 NMtDS0=    0 NMtDT0=    0
         I1Cent=           0 NGrid=           0.
 Symmetry not used in FoFCou.
 E= -2753.41754223393    
 DIIS: error= 1.28D-13 at cycle   1 NSaved=   1.
 NSaved= 1 IEnMin= 1 EnMin= -2753.41754223393     IErMin= 1 ErrMin= 1.28D-13
 ErrMax= 1.28D-13 EMaxC= 1.00D-01 BMatC= 2.65D-25 BMatP= 2.65D-25
 IDIUse=1 WtCom= 1.00D+00 WtEn= 0.00D+00
 Coeff-Com:  0.100D+01
 Coeff:      0.100D+01
 Gap=     0.595 Goal=   None    Shift=    0.000
 RMSDP=9.47D-15 MaxDP=1.73D-13              OVMax= 1.14D-13

 SCF Done:  E(RLC-B+HF-LYP) =  -2753.41754223     A.U. after    1 cycles
             Convg  =    0.9471D-14             -V/T =  2.0015
 KE= 2.749372504928D+03 PE=-6.578588569976D+03 EE= 1.075798522814D+03
 Leave Link  502 at Wed May 13 17:37:15 2020, MaxMem= 1073741824 cpu:      12.5
 (Enter /home/matheus/.gaussian/g09/l122.exe)
 Restoring MOs from calculation   1 to rwf.
 Counterpoise: corrected energy =   -2904.742211433319
 Counterpoise: BSSE energy =       0.000025465478
 Leave Link  122 at Wed May 13 17:37:15 2020, MaxMem= 1073741824 cpu:       0.0
 (Enter /home/matheus/.gaussian/g09/l108.exe)
 Scan completed.

 Summary of the potential surface scan:
   N      R1          SCF    
 ----  ---------  -----------
    1     3.0000  -2753.41754
    2     3.1000  -2753.41754
    3     3.2000  -2753.41754
    4     3.3000  -2753.41754
    5     3.4000  -2753.41754
    6     3.5000  -2753.41754
    7     3.6000  -2753.41754
    8     3.7000  -2753.41754
    9     3.8000  -2753.41754
   10     3.9000  -2753.41754
   11     4.0000  -2753.41754
   12     4.1000  -2753.41754
   13     4.2000  -2753.41754
   14     4.3000  -2753.41754
   15     4.4000  -2753.41754
   16     4.5000  -2753.41754
   17     4.6000  -2753.41754
   18     4.7000  -2753.41754
   19     4.8000  -2753.41754
   20     4.9000  -2753.41754
   21     5.0000  -2753.41754
 ----  ---------  -----------
  
 Leave Link  108 at Wed May 13 17:37:15 2020, MaxMem= 1073741824 cpu:       0.0
 (Enter /home/matheus/.gaussian/g09/l9999.exe)
 1\1\GINC-REDGIANT\Scan\RLC-BLYP\Aug-CC-pVTZ\H2Kr1O2\MATHEUS\13-May-202
 0\1\\#p lc-blyp/aug-cc-PVTz int=ultrafine counterpoise=2 Scan\\TCC\\0,
 1\O,0,0.,0.,0.725\O,0,0.,0.,-0.725\H,0,0.4593602974,-0.795635374,1.023
 5104166\H,0,0.,0.9187205947,-1.0235104166\Kr,0,0.,R1,0.\\R1=3.,s,20,0.
 1\\Version=EM64L-G09RevC.01\State=1-A\HF=-2753.4175422,-2753.4175422,-
 2753.4175422,-2753.4175422,-2753.4175422,-2753.4175422,-2753.4175422,-
 2753.4175422,-2753.4175422,-2753.4175422,-2753.4175422,-2753.4175422,-
 2753.4175422,-2753.4175422,-2753.4175422,-2753.4175422,-2753.4175422,-
 2753.4175422,-2753.4175422,-2753.4175422,-2753.4175422\RMSD=1.334e-09,
 5.265e-11,1.629e-11,9.947e-12,5.940e-12,3.605e-12,2.180e-12,1.318e-12,
 7.936e-13,4.839e-13,2.947e-13,1.786e-13,1.095e-13,6.532e-14,3.894e-14,
 2.224e-14,1.349e-14,9.930e-15,9.065e-15,6.842e-15,9.471e-15\PG=C01 [X(
 H2Kr1O2)]\\@


 A COMPUTER IS LIKE A HORSE, IT WILL SENSE WEAKNESS.
     -- GREG WETTSTEIN
 Job cpu time:  0 days  3 hours 52 minutes 47.1 seconds.
 File lengths (MBytes):  RWF=     33 Int=      0 D2E=      0 Chk=      8 Scr=      1
 Normal termination of Gaussian 09 at Wed May 13 17:37:15 2020.
