 Entering Gaussian System, Link 0=g09
 Input=/home/matheus/.tcc/Inputs/Inputs-lc-blyp-default/H2O2-Kr_1.com
 Output=/home/matheus/.tcc/Logs/Logs-lc-blyp-default/H2O2-Kr_1.log
 Initial command:
 /home/matheus/.gaussian/g09/l1.exe /home/matheus/.gaussian/g09/scratch/Gau-11055.inp -scrdir=/home/matheus/.gaussian/g09/scratch/
 Entering Link 1 = /home/matheus/.gaussian/g09/l1.exe PID=     11059.
  
 Copyright (c) 1988,1990,1992,1993,1995,1998,2003,2009,2011,
            Gaussian, Inc.  All Rights Reserved.
  
 This is part of the Gaussian(R) 09 program.  It is based on
 the Gaussian(R) 03 system (copyright 2003, Gaussian, Inc.),
 the Gaussian(R) 98 system (copyright 1998, Gaussian, Inc.),
 the Gaussian(R) 94 system (copyright 1995, Gaussian, Inc.),
 the Gaussian 92(TM) system (copyright 1992, Gaussian, Inc.),
 the Gaussian 90(TM) system (copyright 1990, Gaussian, Inc.),
 the Gaussian 88(TM) system (copyright 1988, Gaussian, Inc.),
 the Gaussian 86(TM) system (copyright 1986, Carnegie Mellon
 University), and the Gaussian 82(TM) system (copyright 1983,
 Carnegie Mellon University). Gaussian is a federally registered
 trademark of Gaussian, Inc.
  
 This software contains proprietary and confidential information,
 including trade secrets, belonging to Gaussian, Inc.
  
 This software is provided under written license and may be
 used, copied, transmitted, or stored only in accord with that
 written license.
  
 The following legend is applicable only to US Government
 contracts under FAR:
  
                    RESTRICTED RIGHTS LEGEND
  
 Use, reproduction and disclosure by the US Government is
 subject to restrictions as set forth in subparagraphs (a)
 and (c) of the Commercial Computer Software - Restricted
 Rights clause in FAR 52.227-19.
  
 Gaussian, Inc.
 340 Quinnipiac St., Bldg. 40, Wallingford CT 06492
  
  
 ---------------------------------------------------------------
 Warning -- This program may not be used in any manner that
 competes with the business of Gaussian, Inc. or will provide
 assistance to any competitor of Gaussian, Inc.  The licensee
 of this program is prohibited from giving any competitor of
 Gaussian, Inc. access to this program.  By using this program,
 the user acknowledges that Gaussian, Inc. is engaged in the
 business of creating and licensing software in the field of
 computational chemistry and represents and warrants to the
 licensee that it is not a competitor of Gaussian, Inc. and that
 it will not use this program in any manner prohibited above.
 ---------------------------------------------------------------
  

 Cite this work as:
 Gaussian 09, Revision C.01,
 M. J. Frisch, G. W. Trucks, H. B. Schlegel, G. E. Scuseria, 
 M. A. Robb, J. R. Cheeseman, G. Scalmani, V. Barone, B. Mennucci, 
 G. A. Petersson, H. Nakatsuji, M. Caricato, X. Li, H. P. Hratchian, 
 A. F. Izmaylov, J. Bloino, G. Zheng, J. L. Sonnenberg, M. Hada, 
 M. Ehara, K. Toyota, R. Fukuda, J. Hasegawa, M. Ishida, T. Nakajima, 
 Y. Honda, O. Kitao, H. Nakai, T. Vreven, J. A. Montgomery, Jr., 
 J. E. Peralta, F. Ogliaro, M. Bearpark, J. J. Heyd, E. Brothers, 
 K. N. Kudin, V. N. Staroverov, T. Keith, R. Kobayashi, J. Normand, 
 K. Raghavachari, A. Rendell, J. C. Burant, S. S. Iyengar, J. Tomasi, 
 M. Cossi, N. Rega, J. M. Millam, M. Klene, J. E. Knox, J. B. Cross, 
 V. Bakken, C. Adamo, J. Jaramillo, R. Gomperts, R. E. Stratmann, 
 O. Yazyev, A. J. Austin, R. Cammi, C. Pomelli, J. W. Ochterski, 
 R. L. Martin, K. Morokuma, V. G. Zakrzewski, G. A. Voth, 
 P. Salvador, J. J. Dannenberg, S. Dapprich, A. D. Daniels, 
 O. Farkas, J. B. Foresman, J. V. Ortiz, J. Cioslowski, 
 and D. J. Fox, Gaussian, Inc., Wallingford CT, 2010.
 
 ******************************************
 Gaussian 09:  EM64L-G09RevC.01 23-Sep-2011
                11-May-2020 
 ******************************************
 %mem=8GB
 %nproc=8
 Will use up to    8 processors via shared memory.
 --------------------------------------------------------
 #p lc-blyp/aug-cc-PVTz int=ultrafine counterpoise=2 Scan
 --------------------------------------------------------
 1/38=1,60=1,62=2/1,8;
 2/12=2,17=6,18=5,29=3,40=1/2;
 1/38=1,53=5172,62=2/22;
 3/5=16,6=1,7=10,11=2,16=1,25=1,30=1,74=1000402,75=-5/1,2,3;
 4//1;
 5/5=2,38=5/2;
 6/7=2,8=2,9=2,10=2,18=1,28=1/1;
 1/53=4052,62=2,63=1/22;
 3/5=7,6=11,7=10,11=2,16=1,25=1,30=1,74=1000402,75=-5,82=7/1,2,3;
 4//1;
 5/5=2,38=5/2;
 6/7=2,8=2,9=2,10=2,18=1,28=1/1;
 1/53=3042,62=2,63=2/22;
 3/5=7,6=11,7=10,11=2,16=1,25=1,30=1,74=1000402,75=-5,82=7/1,2,3;
 4//1;
 5/5=2,38=5/2;
 6/7=2,8=2,9=2,10=2,18=1,28=1/1;
 1/53=2032,62=2,63=3/22;
 3/5=7,6=11,7=10,11=2,16=1,25=1,30=1,74=1000402,75=-5,82=7/1,2,3;
 4//1;
 5/5=2,38=5/2;
 6/7=2,8=2,9=2,10=2,18=1,28=1/1;
 1/53=1022,62=2,63=4/22;
 3/5=7,6=11,7=10,11=2,16=1,25=1,30=1,74=1000402,75=-5,82=7/1,2,3;
 4//1;
 5/5=2,38=5/2;
 6/7=2,8=2,9=2,10=2,18=1,28=1/1;
 1/53=5014,62=2,63=5/22;
 1/60=1,62=2/8(1);
 99/9=1/99;
 2/29=3/2;
 1/53=5173,62=2/22;
 3/5=7,6=11,7=10,11=2,16=1,25=1,30=1,74=1000402,75=-5,82=7/1,2,3;
 4/5=5,16=3/1;
 5/5=2,38=5/2;
 1/53=4053,62=2,63=1/22;
 3/5=7,6=11,7=10,11=2,16=1,25=1,30=1,74=1000402,75=-5,82=7/1,2,3;
 4/5=5,16=3/1;
 5/5=2,38=5/2;
 1/53=3043,62=2,63=2/22;
 3/5=7,6=11,7=10,11=2,16=1,25=1,30=1,74=1000402,75=-5,82=7/1,2,3;
 4/5=5,16=3/1;
 5/5=2,38=5/2;
 1/53=2033,62=2,63=3/22;
 3/5=7,6=11,7=10,11=2,16=1,25=1,30=1,74=1000402,75=-5,82=7/1,2,3;
 4/5=5,16=3/1;
 5/5=2,38=5/2;
 1/53=1024,62=2,63=4/22;
 3/5=7,6=11,7=10,11=2,16=1,25=1,30=1,74=1000402,75=-5,82=7/1,2,3;
 4/5=5,16=3/1;
 5/5=2,38=5/2;
 1/53=5014,62=2,63=5/22;
 1/60=1,62=2/8(-22);
 99/9=1/99;
 Leave Link    1 at Mon May 11 09:52:51 2020, MaxMem= 1073741824 cpu:       0.1
 (Enter /home/matheus/.gaussian/g09/l101.exe)
 ---
 TCC
 ---
 Charge =  0 Multiplicity = 1 in supermolecule
 Charge =  0 Multiplicity = 1 in fragment  1.
 Charge =  0 Multiplicity = 1 in fragment  2.
 Symbolic Z-Matrix:
 O(Fragment=1)         0.        0.        0.725 
 O(Fragment=1)         0.        0.       -0.725 
 H(Fragment=1)         0.15953   0.90476   1.02351 
 H(Fragment=1)         0.        0.91872  -1.02351 
 Kr(Fragment=2)        0.       R1        0. 
       Variables:
  R1                    3.     Scan 20    0.1    
 
 NAtoms=      5 NQM=        0 NQMF=       0 NMMI=      5 NMMIF=      0
                NMic=       0 NMicF=      0.
                    Isotopes and Nuclear Properties:
 (Nuclear quadrupole moments (NQMom) in fm**2, nuclear magnetic moments (NMagM)
  in nuclear magnetons)

  Atom         1           2           3           4           5
 IAtWgt=          16          16           1           1          84
 AtmWgt=  15.9949146  15.9949146   1.0078250   1.0078250  83.9115064
 NucSpn=           0           0           1           1           0
 AtZEff=   0.0000000   0.0000000   0.0000000   0.0000000   0.0000000
 NQMom=    0.0000000   0.0000000   0.0000000   0.0000000   0.0000000
 NMagM=    0.0000000   0.0000000   2.7928460   2.7928460   0.0000000
 Leave Link  101 at Mon May 11 09:52:51 2020, MaxMem= 1073741824 cpu:       0.3
 (Enter /home/matheus/.gaussian/g09/l108.exe)
 Scan the potential surface.
 Variable   Value     No. Steps Step-Size
 -------- ----------- --------- ---------
     1       3.000000      20      0.1000
 A total of     21 points will be computed.
 Leave Link  108 at Mon May 11 09:52:51 2020, MaxMem= 1073741824 cpu:       0.0
 (Enter /home/matheus/.gaussian/g09/l202.exe)
 ---------------------------------------------------------------------------------------------------
                            Z-MATRIX (ANGSTROMS AND DEGREES)
   CD    Cent   Atom    N1       Length/X        N2       Alpha/Y        N3        Beta/Z          J
 ---------------------------------------------------------------------------------------------------
      1      1  O        0   0.000000          0.000000          0.725000
      2      2  O        0   0.000000          0.000000         -0.725000
      3      3  H        0   0.159534          0.904763          1.023510
      4      4  H        0   0.000000          0.918721         -1.023510
      5      5  Kr       0   0.000000          3.000000          0.000000
 ---------------------------------------------------------------------------------------------------
                         Z-Matrix orientation:                         
 ---------------------------------------------------------------------
 Center     Atomic      Atomic             Coordinates (Angstroms)
 Number     Number       Type             X           Y           Z
 ---------------------------------------------------------------------
      1          8           0        0.000000    0.000000    0.725000
      2          8           0        0.000000    0.000000   -0.725000
      3          1           0        0.159534    0.904763    1.023510
      4          1           0        0.000000    0.918721   -1.023510
      5         36           0        0.000000    3.000000    0.000000
 ---------------------------------------------------------------------
                    Distance matrix (angstroms):
                    1          2          3          4          5
     1  O    0.000000
     2  O    1.450000   0.000000
     3  H    0.966000   1.975180   0.000000
     4  H    1.975180   0.966000   2.053275   0.000000
     5  Kr   3.086361   3.086361   2.337315   2.319331   0.000000
 Stoichiometry    H2KrO2
 Framework group  C1[X(H2KrO2)]
 Deg. of freedom     9
 Full point group                 C1      NOp   1
 Largest Abelian subgroup         C1      NOp   1
 Largest concise Abelian subgroup C1      NOp   1
                         Standard orientation:                         
 ---------------------------------------------------------------------
 Center     Atomic      Atomic             Coordinates (Angstroms)
 Number     Number       Type             X           Y           Z
 ---------------------------------------------------------------------
      1          8           0        2.033875   -0.724487   -0.017820
      2          8           0        2.033645    0.725337    0.004759
      3          1           0        1.129442   -1.025614    0.138637
      4          1           0        1.114878    1.023640    0.011023
      5         36           0       -0.966235   -0.000134   -0.001255
 ---------------------------------------------------------------------
 Rotational constants (GHZ):     26.6670558      2.3882151      2.1923671
 Leave Link  202 at Mon May 11 09:52:51 2020, MaxMem= 1073741824 cpu:       0.0
 (Enter /home/matheus/.gaussian/g09/l122.exe)
 Leave Link  122 at Mon May 11 09:52:51 2020, MaxMem= 1073741824 cpu:       0.0
 (Enter /home/matheus/.gaussian/g09/l301.exe)
 Standard basis: Aug-CC-pVTZ (5D, 7F)
 Ernie: Thresh=  0.10000D-02 Tol=  0.10000D-05 Strict=F.
 Ernie:  38 primitive shells out of 205 were deleted.
 There are   197 symmetry adapted basis functions of A   symmetry.
 Integral buffers will be    131072 words long.
 Raffenetti 2 integral format.
 Two-electron integral symmetry is turned on.
   197 basis functions,   415 primitive gaussians,   229 cartesian basis functions
    27 alpha electrons       27 beta electrons
       nuclear repulsion energy       151.7892858201 Hartrees.
 IExCor=10402 DFT=T Ex=LC-B+HF Corr=LYP ExCW=0 ScaHFX=  1.000000
 ScaDFX=  1.000000  1.000000  1.000000  1.000000 ScalE2=  1.000000  1.000000
 IRadAn=      5 IRanWt=     -1 IRanGd=            0 ICorTp=0
  HFx wShort=  0.000000 wLong=  0.470000 cFull=  0.000000 cShort=  0.000000 cLong=  1.000000
  DFx wShort=  0.000000 wLong=  0.470000 cFull=  0.000000 cShort=  0.000000 cLong=  1.000000
 NAtoms=    5 NActive=    5 NUniq=    5 SFac= 1.00D+00 NAtFMM=   60 NAOKFM=F Big=F
 Leave Link  301 at Mon May 11 09:52:51 2020, MaxMem= 1073741824 cpu:       0.2
 (Enter /home/matheus/.gaussian/g09/l302.exe)
 NPDir=0 NMtPBC=     1 NCelOv=     1 NCel=       1 NClECP=     1 NCelD=      1
         NCelK=      1 NCelE2=     1 NClLst=     1 CellRange=     0.0.
 One-electron integrals computed using PRISM.
 NBasis=   197 RedAO= T  NBF=   197
 NBsUse=   197 1.00D-06 NBFU=   197
 Precomputing XC quadrature grid using
 IXCGrd= 2 IRadAn=           5 IRanWt=          -1 IRanGd=           0 AccXCQ= 0.00D+00.
 NRdTot=     427 NPtTot=      123512 NUsed=      126579 NTot=      126611
 NSgBfM=   229   229   229   229   229 NAtAll=     5     5.
 Leave Link  302 at Mon May 11 09:52:51 2020, MaxMem= 1073741824 cpu:       0.9
 (Enter /home/matheus/.gaussian/g09/l303.exe)
 DipDrv:  MaxL=1.
 Leave Link  303 at Mon May 11 09:52:51 2020, MaxMem= 1073741824 cpu:       0.2
 (Enter /home/matheus/.gaussian/g09/l401.exe)
 Harris functional with IExCor=10402 diagonalized for initial guess.
 ExpMin= 2.53D-02 ExpMax= 1.17D+07 ExpMxC= 1.33D+04 IAcc=3 IRadAn=         5 AccDes= 0.00D+00
 HarFok:  IExCor=10402 AccDes= 0.00D+00 IRadAn=         5 IDoV= 1
 ScaDFX=  1.000000  1.000000  1.000000  1.000000
 FoFCou: FMM=F IPFlag=           0 FMFlag=      100000 FMFlg1=           0
         NFxFlg=           0 DoJE=T BraDBF=F KetDBF=T FulRan=T
         Omega=  0.000000  0.000000  1.000000  0.000000  0.000000 ICntrl=     500 IOpCl=  0
         NMat0=    1 NMatS0=    1 NMatT0=    0 NMatD0=    1 NMtDS0=    0 NMtDT0=    0
         I1Cent=           4 NGrid=           0.
 Petite list used in FoFCou.
 Harris En= -2891.66268644348    
 Initial guess orbital symmetries:
       Occupied  (A) (A) (A) (A) (A) (A) (A) (A) (A) (A) (A) (A)
                 (A) (A) (A) (A) (A) (A) (A) (A) (A) (A) (A) (A)
                 (A) (A) (A)
       Virtual   (A) (A) (A) (A) (A) (A) (A) (A) (A) (A) (A) (A)
                 (A) (A) (A) (A) (A) (A) (A) (A) (A) (A) (A) (A)
                 (A) (A) (A) (A) (A) (A) (A) (A) (A) (A) (A) (A)
                 (A) (A) (A) (A) (A) (A) (A) (A) (A) (A) (A) (A)
                 (A) (A) (A) (A) (A) (A) (A) (A) (A) (A) (A) (A)
                 (A) (A) (A) (A) (A) (A) (A) (A) (A) (A) (A) (A)
                 (A) (A) (A) (A) (A) (A) (A) (A) (A) (A) (A) (A)
                 (A) (A) (A) (A) (A) (A) (A) (A) (A) (A) (A) (A)
                 (A) (A) (A) (A) (A) (A) (A) (A) (A) (A) (A) (A)
                 (A) (A) (A) (A) (A) (A) (A) (A) (A) (A) (A) (A)
                 (A) (A) (A) (A) (A) (A) (A) (A) (A) (A) (A) (A)
                 (A) (A) (A) (A) (A) (A) (A) (A) (A) (A) (A) (A)
                 (A) (A) (A) (A) (A) (A) (A) (A) (A) (A) (A) (A)
                 (A) (A) (A) (A) (A) (A) (A) (A) (A) (A) (A) (A)
                 (A) (A)
 The electronic state of the initial guess is 1-A.
 Leave Link  401 at Mon May 11 09:52:51 2020, MaxMem= 1073741824 cpu:       3.9
 (Enter /home/matheus/.gaussian/g09/l502.exe)
 Closed shell SCF:
 Requested convergence on RMS density matrix=1.00D-08 within 128 cycles.
 Requested convergence on MAX density matrix=1.00D-06.
 Requested convergence on             energy=1.00D-06.
 No special actions if energy rises.
 Using DIIS extrapolation, IDIIS=  1040.
 Integral symmetry usage will be decided dynamically.
       126521 words used for storage of precomputed grid.
 IEnd=      305468 IEndB=      305468 NGot=  1073741824 MDV=  1073505667
 LenX=  1073505667 LenY=  1073452785
 Fock matrices will be formed incrementally for  20 cycles.

 Cycle   1  Pass 1  IDiag  1:
 FoFJK:  IHMeth= 1 ICntrl=     0 DoSepK=T KAlg= 1 I1Cent= 0 FoldK=F
 FoFCou: FMM=F IPFlag=           0 FMFlag=      100000 FMFlg1=           0
         NFxFlg=           0 DoJE=T BraDBF=F KetDBF=F FulRan=T
         Omega=  0.000000  0.000000  1.000000  0.000000  0.000000 ICntrl=     500 IOpCl=  0
         NMat0=    1 NMatS0=    1 NMatT0=    0 NMatD0=    1 NMtDS0=    0 NMtDT0=    0
         I1Cent=           0 NGrid=           0.
 Symmetry not used in FoFCou.
 E= -2904.61819304748    
 DIIS: error= 3.40D-02 at cycle   1 NSaved=   1.
 NSaved= 1 IEnMin= 1 EnMin= -2904.61819304748     IErMin= 1 ErrMin= 3.40D-02
 ErrMax= 3.40D-02 EMaxC= 1.00D-01 BMatC= 2.95D-01 BMatP= 2.95D-01
 IDIUse=3 WtCom= 6.60D-01 WtEn= 3.40D-01
 Coeff-Com:  0.100D+01
 Coeff-En:   0.100D+01
 Coeff:      0.100D+01
 Gap=     0.457 Goal=   None    Shift=    0.000
 GapD=    0.457 DampG=2.000 DampE=0.500 DampFc=1.0000 IDamp=-1.
 RMSDP=2.77D-03 MaxDP=1.57D-01              OVMax= 1.13D-01

 Cycle   2  Pass 1  IDiag  1:
 RMSU=  1.92D-03    CP:  1.02D+00
 FoFJK:  IHMeth= 1 ICntrl=     0 DoSepK=T KAlg= 1 I1Cent= 0 FoldK=F
 E= -2904.70023638580     Delta-E=       -0.082043338321 Rises=F Damp=F
 DIIS: error= 1.53D-02 at cycle   2 NSaved=   2.
 NSaved= 2 IEnMin= 2 EnMin= -2904.70023638580     IErMin= 2 ErrMin= 1.53D-02
 ErrMax= 1.53D-02 EMaxC= 1.00D-01 BMatC= 9.71D-02 BMatP= 2.95D-01
 IDIUse=3 WtCom= 8.47D-01 WtEn= 1.53D-01
 Coeff-Com:  0.360D+00 0.640D+00
 Coeff-En:   0.204D-01 0.980D+00
 Coeff:      0.308D+00 0.692D+00
 Gap=     0.428 Goal=   None    Shift=    0.000
 RMSDP=1.09D-03 MaxDP=6.58D-02 DE=-8.20D-02 OVMax= 2.87D-02

 Cycle   3  Pass 1  IDiag  1:
 RMSU=  3.45D-04    CP:  1.01D+00  6.51D-01
 FoFJK:  IHMeth= 1 ICntrl=     0 DoSepK=T KAlg= 1 I1Cent= 0 FoldK=F
 E= -2904.73231784666     Delta-E=       -0.032081460863 Rises=F Damp=F
 DIIS: error= 1.83D-03 at cycle   3 NSaved=   3.
 NSaved= 3 IEnMin= 3 EnMin= -2904.73231784666     IErMin= 3 ErrMin= 1.83D-03
 ErrMax= 1.83D-03 EMaxC= 1.00D-01 BMatC= 1.43D-03 BMatP= 9.71D-02
 IDIUse=3 WtCom= 9.82D-01 WtEn= 1.83D-02
 Coeff-Com: -0.107D-02 0.101D+00 0.901D+00
 Coeff-En:   0.000D+00 0.000D+00 0.100D+01
 Coeff:     -0.105D-02 0.987D-01 0.902D+00
 Gap=     0.429 Goal=   None    Shift=    0.000
 RMSDP=1.68D-04 MaxDP=7.55D-03 DE=-3.21D-02 OVMax= 6.56D-03

 Cycle   4  Pass 1  IDiag  1:
 RMSU=  7.04D-05    CP:  1.02D+00  6.98D-01  1.09D+00
 FoFJK:  IHMeth= 1 ICntrl=     0 DoSepK=T KAlg= 1 I1Cent= 0 FoldK=F
 E= -2904.73286715810     Delta-E=       -0.000549311441 Rises=F Damp=F
 DIIS: error= 4.35D-04 at cycle   4 NSaved=   4.
 NSaved= 4 IEnMin= 4 EnMin= -2904.73286715810     IErMin= 4 ErrMin= 4.35D-04
 ErrMax= 4.35D-04 EMaxC= 1.00D-01 BMatC= 3.88D-05 BMatP= 1.43D-03
 IDIUse=3 WtCom= 9.96D-01 WtEn= 4.35D-03
 Coeff-Com: -0.110D-01 0.529D-02 0.200D+00 0.805D+00
 Coeff-En:   0.000D+00 0.000D+00 0.000D+00 0.100D+01
 Coeff:     -0.110D-01 0.527D-02 0.200D+00 0.806D+00
 Gap=     0.427 Goal=   None    Shift=    0.000
 RMSDP=3.51D-05 MaxDP=9.94D-04 DE=-5.49D-04 OVMax= 1.50D-03

 Cycle   5  Pass 1  IDiag  1:
 RMSU=  1.81D-05    CP:  1.02D+00  7.01D-01  1.14D+00  1.02D+00
 FoFJK:  IHMeth= 1 ICntrl=     0 DoSepK=T KAlg= 1 I1Cent= 0 FoldK=F
 E= -2904.73289786721     Delta-E=       -0.000030709108 Rises=F Damp=F
 DIIS: error= 2.32D-04 at cycle   5 NSaved=   5.
 NSaved= 5 IEnMin= 5 EnMin= -2904.73289786721     IErMin= 5 ErrMin= 2.32D-04
 ErrMax= 2.32D-04 EMaxC= 1.00D-01 BMatC= 6.00D-06 BMatP= 3.88D-05
 IDIUse=3 WtCom= 9.98D-01 WtEn= 2.32D-03
 Coeff-Com: -0.256D-02-0.557D-02-0.146D-01 0.262D+00 0.760D+00
 Coeff-En:   0.000D+00 0.000D+00 0.000D+00 0.000D+00 0.100D+01
 Coeff:     -0.256D-02-0.556D-02-0.145D-01 0.262D+00 0.761D+00
 Gap=     0.428 Goal=   None    Shift=    0.000
 RMSDP=1.42D-05 MaxDP=4.86D-04 DE=-3.07D-05 OVMax= 9.76D-04

 Cycle   6  Pass 1  IDiag  1:
 RMSU=  5.82D-06    CP:  1.02D+00  7.02D-01  1.15D+00  1.11D+00  9.62D-01
 FoFJK:  IHMeth= 1 ICntrl=     0 DoSepK=T KAlg= 1 I1Cent= 0 FoldK=F
 E= -2904.73290315700     Delta-E=       -0.000005289783 Rises=F Damp=F
 DIIS: error= 4.73D-05 at cycle   6 NSaved=   6.
 NSaved= 6 IEnMin= 6 EnMin= -2904.73290315700     IErMin= 6 ErrMin= 4.73D-05
 ErrMax= 4.73D-05 EMaxC= 1.00D-01 BMatC= 3.53D-07 BMatP= 6.00D-06
 IDIUse=1 WtCom= 1.00D+00 WtEn= 0.00D+00
 Coeff-Com:  0.801D-04-0.258D-02-0.196D-01-0.276D-01 0.143D+00 0.907D+00
 Coeff:      0.801D-04-0.258D-02-0.196D-01-0.276D-01 0.143D+00 0.907D+00
 Gap=     0.428 Goal=   None    Shift=    0.000
 RMSDP=5.08D-06 MaxDP=1.72D-04 DE=-5.29D-06 OVMax= 2.44D-04

 Cycle   7  Pass 1  IDiag  1:
 RMSU=  1.24D-06    CP:  1.02D+00  7.02D-01  1.16D+00  1.13D+00  1.07D+00
                    CP:  1.15D+00
 FoFJK:  IHMeth= 1 ICntrl=     0 DoSepK=T KAlg= 1 I1Cent= 0 FoldK=F
 E= -2904.73290356187     Delta-E=       -0.000000404878 Rises=F Damp=F
 DIIS: error= 9.10D-06 at cycle   7 NSaved=   7.
 NSaved= 7 IEnMin= 7 EnMin= -2904.73290356187     IErMin= 7 ErrMin= 9.10D-06
 ErrMax= 9.10D-06 EMaxC= 1.00D-01 BMatC= 2.01D-08 BMatP= 3.53D-07
 IDIUse=1 WtCom= 1.00D+00 WtEn= 0.00D+00
 Coeff-Com:  0.712D-04-0.577D-03-0.436D-02-0.156D-01 0.926D-02 0.222D+00
 Coeff-Com:  0.789D+00
 Coeff:      0.712D-04-0.577D-03-0.436D-02-0.156D-01 0.926D-02 0.222D+00
 Coeff:      0.789D+00
 Gap=     0.428 Goal=   None    Shift=    0.000
 RMSDP=8.91D-07 MaxDP=2.67D-05 DE=-4.05D-07 OVMax= 5.99D-05

 Cycle   8  Pass 1  IDiag  1:
 RMSU=  3.99D-07    CP:  1.02D+00  7.02D-01  1.16D+00  1.14D+00  1.09D+00
                    CP:  1.19D+00  1.11D+00
 FoFJK:  IHMeth= 1 ICntrl=     0 DoSepK=T KAlg= 1 I1Cent= 0 FoldK=F
 E= -2904.73290357977     Delta-E=       -0.000000017900 Rises=F Damp=F
 DIIS: error= 6.87D-06 at cycle   8 NSaved=   8.
 NSaved= 8 IEnMin= 8 EnMin= -2904.73290357977     IErMin= 8 ErrMin= 6.87D-06
 ErrMax= 6.87D-06 EMaxC= 1.00D-01 BMatC= 8.50D-09 BMatP= 2.01D-08
 IDIUse=1 WtCom= 1.00D+00 WtEn= 0.00D+00
 Coeff-Com:  0.206D-04 0.171D-03 0.129D-02-0.282D-02-0.205D-01-0.504D-01
 Coeff-Com:  0.410D+00 0.662D+00
 Coeff:      0.206D-04 0.171D-03 0.129D-02-0.282D-02-0.205D-01-0.504D-01
 Coeff:      0.410D+00 0.662D+00
 Gap=     0.428 Goal=   None    Shift=    0.000
 RMSDP=3.74D-07 MaxDP=1.33D-05 DE=-1.79D-08 OVMax= 2.71D-05

 Cycle   9  Pass 1  IDiag  1:
 RMSU=  1.45D-07    CP:  1.02D+00  7.02D-01  1.16D+00  1.14D+00  1.09D+00
                    CP:  1.21D+00  1.24D+00  9.28D-01
 FoFJK:  IHMeth= 1 ICntrl=     0 DoSepK=T KAlg= 1 I1Cent= 0 FoldK=F
 E= -2904.73290358647     Delta-E=       -0.000000006694 Rises=F Damp=F
 DIIS: error= 9.17D-07 at cycle   9 NSaved=   9.
 NSaved= 9 IEnMin= 9 EnMin= -2904.73290358647     IErMin= 9 ErrMin= 9.17D-07
 ErrMax= 9.17D-07 EMaxC= 1.00D-01 BMatC= 3.21D-10 BMatP= 8.50D-09
 IDIUse=1 WtCom= 1.00D+00 WtEn= 0.00D+00
 Coeff-Com: -0.305D-05 0.136D-03 0.861D-03 0.175D-02-0.523D-02-0.427D-01
 Coeff-Com: -0.150D-01 0.138D+00 0.922D+00
 Coeff:     -0.305D-05 0.136D-03 0.861D-03 0.175D-02-0.523D-02-0.427D-01
 Coeff:     -0.150D-01 0.138D+00 0.922D+00
 Gap=     0.428 Goal=   None    Shift=    0.000
 RMSDP=1.31D-07 MaxDP=2.82D-06 DE=-6.69D-09 OVMax= 8.38D-06

 Cycle  10  Pass 1  IDiag  1:
 RMSU=  4.22D-08    CP:  1.02D+00  7.02D-01  1.16D+00  1.14D+00  1.09D+00
                    CP:  1.21D+00  1.28D+00  1.03D+00  1.11D+00
 FoFJK:  IHMeth= 1 ICntrl=     0 DoSepK=T KAlg= 1 I1Cent= 0 FoldK=F
 E= -2904.73290358694     Delta-E=       -0.000000000468 Rises=F Damp=F
 DIIS: error= 3.56D-07 at cycle  10 NSaved=  10.
 NSaved=10 IEnMin=10 EnMin= -2904.73290358694     IErMin=10 ErrMin= 3.56D-07
 ErrMax= 3.56D-07 EMaxC= 1.00D-01 BMatC= 7.67D-12 BMatP= 3.21D-10
 IDIUse=1 WtCom= 1.00D+00 WtEn= 0.00D+00
 Coeff-Com: -0.424D-06-0.346D-05-0.463D-04 0.186D-03 0.898D-03 0.192D-02
 Coeff-Com: -0.215D-01-0.309D-01 0.241D-01 0.103D+01
 Coeff:     -0.424D-06-0.346D-05-0.463D-04 0.186D-03 0.898D-03 0.192D-02
 Coeff:     -0.215D-01-0.309D-01 0.241D-01 0.103D+01
 Gap=     0.428 Goal=   None    Shift=    0.000
 RMSDP=2.86D-08 MaxDP=5.31D-07 DE=-4.68D-10 OVMax= 2.53D-06

 Cycle  11  Pass 1  IDiag  1:
 RMSU=  1.26D-08    CP:  1.02D+00  7.02D-01  1.16D+00  1.14D+00  1.09D+00
                    CP:  1.21D+00  1.28D+00  1.04D+00  1.17D+00  1.22D+00
 FoFJK:  IHMeth= 1 ICntrl=     0 DoSepK=T KAlg= 1 I1Cent= 0 FoldK=F
 E= -2904.73290358696     Delta-E=       -0.000000000021 Rises=F Damp=F
 DIIS: error= 1.38D-07 at cycle  11 NSaved=  11.
 NSaved=11 IEnMin=11 EnMin= -2904.73290358696     IErMin=11 ErrMin= 1.38D-07
 ErrMax= 1.38D-07 EMaxC= 1.00D-01 BMatC= 8.31D-13 BMatP= 7.67D-12
 IDIUse=1 WtCom= 1.00D+00 WtEn= 0.00D+00
 Coeff-Com: -0.344D-06-0.110D-04-0.566D-04-0.112D-03 0.232D-03 0.274D-02
 Coeff-Com:  0.283D-02-0.651D-02-0.611D-01-0.111D+00 0.117D+01
 Coeff:     -0.344D-06-0.110D-04-0.566D-04-0.112D-03 0.232D-03 0.274D-02
 Coeff:      0.283D-02-0.651D-02-0.611D-01-0.111D+00 0.117D+01
 Gap=     0.428 Goal=   None    Shift=    0.000
 RMSDP=1.15D-08 MaxDP=2.39D-07 DE=-2.09D-11 OVMax= 1.08D-06

 Cycle  12  Pass 1  IDiag  1:
 RMSU=  2.74D-09    CP:  1.02D+00  7.02D-01  1.16D+00  1.14D+00  1.09D+00
                    CP:  1.21D+00  1.28D+00  1.04D+00  1.17D+00  1.30D+00
                    CP:  1.45D+00
 FoFJK:  IHMeth= 1 ICntrl=     0 DoSepK=T KAlg= 1 I1Cent= 0 FoldK=F
 E= -2904.73290358697     Delta-E=       -0.000000000018 Rises=F Damp=F
 DIIS: error= 3.40D-08 at cycle  12 NSaved=  12.
 NSaved=12 IEnMin=12 EnMin= -2904.73290358697     IErMin=12 ErrMin= 3.40D-08
 ErrMax= 3.40D-08 EMaxC= 1.00D-01 BMatC= 6.10D-14 BMatP= 8.31D-13
 IDIUse=1 WtCom= 1.00D+00 WtEn= 0.00D+00
 Coeff-Com:  0.970D-07 0.244D-05 0.147D-04 0.771D-05-0.126D-03-0.683D-03
 Coeff-Com:  0.150D-02 0.397D-02 0.833D-02-0.748D-01-0.172D+00 0.123D+01
 Coeff:      0.970D-07 0.244D-05 0.147D-04 0.771D-05-0.126D-03-0.683D-03
 Coeff:      0.150D-02 0.397D-02 0.833D-02-0.748D-01-0.172D+00 0.123D+01
 Gap=     0.428 Goal=   None    Shift=    0.000
 RMSDP=4.43D-09 MaxDP=1.36D-07 DE=-1.82D-11 OVMax= 3.84D-07

 SCF Done:  E(RLC-B+HF-LYP) =  -2904.73290359     A.U. after   12 cycles
             Convg  =    0.4431D-08             -V/T =  2.0017
 KE= 2.899855100611D+03 PE=-7.238867660303D+03 EE= 1.282490370285D+03
 Leave Link  502 at Mon May 11 09:53:27 2020, MaxMem= 1073741824 cpu:     288.6
 (Enter /home/matheus/.gaussian/g09/l601.exe)
 Copying SCF densities to generalized density rwf, IOpCl= 0 IROHF=0.

 **********************************************************************

            Population analysis using the SCF density.

 **********************************************************************

 Orbital symmetries:
       Occupied  (A) (A) (A) (A) (A) (A) (A) (A) (A) (A) (A) (A)
                 (A) (A) (A) (A) (A) (A) (A) (A) (A) (A) (A) (A)
                 (A) (A) (A)
       Virtual   (A) (A) (A) (A) (A) (A) (A) (A) (A) (A) (A) (A)
                 (A) (A) (A) (A) (A) (A) (A) (A) (A) (A) (A) (A)
                 (A) (A) (A) (A) (A) (A) (A) (A) (A) (A) (A) (A)
                 (A) (A) (A) (A) (A) (A) (A) (A) (A) (A) (A) (A)
                 (A) (A) (A) (A) (A) (A) (A) (A) (A) (A) (A) (A)
                 (A) (A) (A) (A) (A) (A) (A) (A) (A) (A) (A) (A)
                 (A) (A) (A) (A) (A) (A) (A) (A) (A) (A) (A) (A)
                 (A) (A) (A) (A) (A) (A) (A) (A) (A) (A) (A) (A)
                 (A) (A) (A) (A) (A) (A) (A) (A) (A) (A) (A) (A)
                 (A) (A) (A) (A) (A) (A) (A) (A) (A) (A) (A) (A)
                 (A) (A) (A) (A) (A) (A) (A) (A) (A) (A) (A) (A)
                 (A) (A) (A) (A) (A) (A) (A) (A) (A) (A) (A) (A)
                 (A) (A) (A) (A) (A) (A) (A) (A) (A) (A) (A) (A)
                 (A) (A) (A) (A) (A) (A) (A) (A) (A) (A) (A) (A)
                 (A) (A)
 The electronic state is 1-A.
 Alpha  occ. eigenvalues -- -511.28597 -66.75580 -60.44111 -60.44102 -60.44090
 Alpha  occ. eigenvalues --  -19.06803 -19.06783  -9.64722  -7.40204  -7.40177
 Alpha  occ. eigenvalues --   -7.40143  -3.36541  -3.36539  -3.36511  -3.36491
 Alpha  occ. eigenvalues --   -3.36487  -1.28366  -1.10536  -1.05934  -0.73205
 Alpha  occ. eigenvalues --   -0.58422  -0.56941  -0.56204  -0.54835  -0.54150
 Alpha  occ. eigenvalues --   -0.51371  -0.40332
 Alpha virt. eigenvalues --    0.02423   0.03723   0.07425   0.08142   0.09520
 Alpha virt. eigenvalues --    0.11221   0.11723   0.15634   0.16090   0.16978
 Alpha virt. eigenvalues --    0.17455   0.18053   0.20053   0.20641   0.22037
 Alpha virt. eigenvalues --    0.23019   0.23710   0.25779   0.29715   0.32929
 Alpha virt. eigenvalues --    0.33838   0.36632   0.37716   0.37794   0.39169
 Alpha virt. eigenvalues --    0.42473   0.44526   0.48238   0.51320   0.52873
 Alpha virt. eigenvalues --    0.58879   0.61285   0.61854   0.63378   0.63930
 Alpha virt. eigenvalues --    0.68985   0.69509   0.71075   0.72333   0.74922
 Alpha virt. eigenvalues --    0.75686   0.77328   0.80116   0.83245   0.85185
 Alpha virt. eigenvalues --    0.86126   0.86458   0.88654   0.88915   0.91002
 Alpha virt. eigenvalues --    0.93898   0.96426   0.97151   0.98810   1.00594
 Alpha virt. eigenvalues --    1.03559   1.05608   1.07162   1.09433   1.10156
 Alpha virt. eigenvalues --    1.12866   1.19102   1.22237   1.27752   1.28896
 Alpha virt. eigenvalues --    1.31161   1.32810   1.38830   1.41083   1.46922
 Alpha virt. eigenvalues --    1.48454   1.51091   1.55158   1.56397   1.59597
 Alpha virt. eigenvalues --    1.64608   1.67420   1.80692   1.93563   1.95405
 Alpha virt. eigenvalues --    1.98785   2.02130   2.09456   2.12426   2.14954
 Alpha virt. eigenvalues --    2.19829   2.21479   2.22932   2.23927   2.28937
 Alpha virt. eigenvalues --    2.31669   2.33346   2.33895   2.35150   2.37983
 Alpha virt. eigenvalues --    2.39232   2.41443   2.44182   2.48707   2.49544
 Alpha virt. eigenvalues --    2.50826   2.51834   2.58977   2.60131   2.64794
 Alpha virt. eigenvalues --    2.65869   2.66880   2.70798   2.73330   2.73929
 Alpha virt. eigenvalues --    2.74657   2.78221   2.81474   2.89723   2.91109
 Alpha virt. eigenvalues --    2.96624   3.11091   3.13985   3.19440   3.56106
 Alpha virt. eigenvalues --    3.78540   3.83701   3.97966   4.04151   4.10667
 Alpha virt. eigenvalues --    4.13064   4.14810   4.21072   4.22444   4.28075
 Alpha virt. eigenvalues --    4.37743   4.47965   4.59010   4.71084   4.74465
 Alpha virt. eigenvalues --    4.97826   5.02264   5.03813   5.09533   5.15959
 Alpha virt. eigenvalues --    5.19183   5.54602   5.82373   6.01474   6.07776
 Alpha virt. eigenvalues --    6.14829   6.34847   6.40923   6.50848   6.60201
 Alpha virt. eigenvalues --    6.71081   6.72570   6.77814   6.79846   6.82973
 Alpha virt. eigenvalues --    6.87780   6.88601   6.90165   6.94570   7.13540
 Alpha virt. eigenvalues --    7.17170   7.20534   7.29174   7.29776   7.62863
 Alpha virt. eigenvalues --    7.96568   8.05732   8.20733  13.75476  14.67985
          Condensed to atoms (all electrons):
              1          2          3          4          5
     1  O    8.241768  -0.243647   0.167199   0.054921  -0.019244
     2  O   -0.243647   8.236392   0.056854   0.171407  -0.017072
     3  H    0.167199   0.056854   0.631379  -0.037375  -0.008368
     4  H    0.054921   0.171407  -0.037375   0.629159  -0.010274
     5  Kr  -0.019244  -0.017072  -0.008368  -0.010274  36.032498
 Mulliken atomic charges:
              1
     1  O   -0.200998
     2  O   -0.203935
     3  H    0.190312
     4  H    0.192161
     5  Kr   0.022460
 Sum of Mulliken atomic charges =   0.00000
 Mulliken charges with hydrogens summed into heavy atoms:
              1
     1  O   -0.010686
     2  O   -0.011773
     5  Kr   0.022460
 Sum of Mulliken charges with hydrogens summed into heavy atoms =   0.00000
          Condensed to fragments (all electrons):
     1      -0.022460
     2       0.022460
 Electronic spatial extent (au):  <R**2>=            476.3217
 Charge=              0.0000 electrons
 Dipole moment (field-independent basis, Debye):
    X=             -3.8264    Y=             -0.0122    Z=              0.2318  Tot=              3.8335
 Quadrupole moment (field-independent basis, Debye-Ang):
   XX=            -39.4047   YY=            -28.4950   ZZ=            -30.7888
   XY=             -0.0350   XZ=              0.2582   YZ=             -0.3117
 Traceless Quadrupole moment (field-independent basis, Debye-Ang):
   XX=             -6.5085   YY=              4.4011   ZZ=              2.1073
   XY=             -0.0350   XZ=              0.2582   YZ=             -0.3117
 Octapole moment (field-independent basis, Debye-Ang**2):
  XXX=            -46.9197  YYY=             -0.0293  ZZZ=             -0.0159  XYY=             -8.6637
  XXY=             -0.0799  XXZ=             -0.0421  XZZ=             -9.3085  YZZ=             -0.0566
  YYZ=              0.3535  XYZ=             -0.3369
 Hexadecapole moment (field-independent basis, Debye-Ang**3):
 XXXX=           -463.8740 YYYY=            -65.2006 ZZZZ=            -30.1904 XXXY=             -0.0737
 XXXZ=             -0.5401 YYYX=             -0.0646 YYYZ=             -0.4240 ZZZX=              0.0926
 ZZZY=             -0.1685 XXYY=            -88.3628 XXZZ=            -77.7719 YYZZ=            -17.8913
 XXYZ=             -0.3409 YYXZ=              0.3980 ZZXY=             -0.0724
 N-N= 1.517892858201D+02 E-N=-7.238867662056D+03  KE= 2.899855100611D+03
 No NMR shielding tensors so no spin-rotation constants.
 Leave Link  601 at Mon May 11 09:53:28 2020, MaxMem= 1073741824 cpu:       0.9
 (Enter /home/matheus/.gaussian/g09/l122.exe)
 Counterpoise: doing DCBS calculation for fragment   1 NewBq=T
 Leave Link  122 at Mon May 11 09:53:28 2020, MaxMem= 1073741824 cpu:       0.0
 (Enter /home/matheus/.gaussian/g09/l301.exe)
 Basis read from rwf:  (5D, 7F)
 No pseudopotential information found on rwf file.
 There are   197 symmetry adapted basis functions of A   symmetry.
 Integral buffers will be    131072 words long.
 Raffenetti 2 integral format.
 Two-electron integral symmetry is turned on.
   197 basis functions,   415 primitive gaussians,   229 cartesian basis functions
     9 alpha electrons        9 beta electrons
       nuclear repulsion energy        36.6659649233 Hartrees.
 IExCor=10402 DFT=T Ex=LC-B+HF Corr=LYP ExCW=0 ScaHFX=  1.000000
 ScaDFX=  1.000000  1.000000  1.000000  1.000000 ScalE2=  1.000000  1.000000
 IRadAn=      5 IRanWt=     -1 IRanGd=            0 ICorTp=0
  HFx wShort=  0.000000 wLong=  0.470000 cFull=  0.000000 cShort=  0.000000 cLong=  1.000000
  DFx wShort=  0.000000 wLong=  0.470000 cFull=  0.000000 cShort=  0.000000 cLong=  1.000000
 NAtoms=    5 NActive=    5 NUniq=    5 SFac= 1.00D+00 NAtFMM=   60 NAOKFM=F Big=F
 No density basis found on file   718.
 Leave Link  301 at Mon May 11 09:53:28 2020, MaxMem= 1073741824 cpu:       0.2
 (Enter /home/matheus/.gaussian/g09/l302.exe)
 NPDir=0 NMtPBC=     1 NCelOv=     1 NCel=       1 NClECP=     1 NCelD=      1
         NCelK=      1 NCelE2=     1 NClLst=     1 CellRange=     0.0.
 One-electron integrals computed using PRISM.
 NBasis=   197 RedAO= T  NBF=   197
 NBsUse=   197 1.00D-06 NBFU=   197
 Precomputing XC quadrature grid using
 IXCGrd= 2 IRadAn=           5 IRanWt=          -1 IRanGd=           0 AccXCQ= 0.00D+00.
 NRdTot=     427 NPtTot=      123512 NUsed=      126579 NTot=      126611
 NSgBfM=   229   229   229   229   229 NAtAll=     5     5.
 Leave Link  302 at Mon May 11 09:53:28 2020, MaxMem= 1073741824 cpu:       1.0
 (Enter /home/matheus/.gaussian/g09/l303.exe)
 DipDrv:  MaxL=1.
 Leave Link  303 at Mon May 11 09:53:28 2020, MaxMem= 1073741824 cpu:       0.2
 (Enter /home/matheus/.gaussian/g09/l401.exe)
 Harris functional with IExCor=10402 diagonalized for initial guess.
 ExpMin= 2.53D-02 ExpMax= 1.17D+07 ExpMxC= 1.33D+04 IAcc=3 IRadAn=         5 AccDes= 0.00D+00
 HarFok:  IExCor=10402 AccDes= 0.00D+00 IRadAn=         5 IDoV= 1
 ScaDFX=  1.000000  1.000000  1.000000  1.000000
 FoFCou: FMM=F IPFlag=           0 FMFlag=      100000 FMFlg1=           0
         NFxFlg=           0 DoJE=T BraDBF=F KetDBF=T FulRan=T
         Omega=  0.000000  0.000000  1.000000  0.000000  0.000000 ICntrl=     500 IOpCl=  0
         NMat0=    1 NMatS0=    1 NMatT0=    0 NMatD0=    1 NMtDS0=    0 NMtDT0=    0
         I1Cent=           4 NGrid=           0.
 Petite list used in FoFCou.
 Harris En= -147.161493106201    
 Initial guess orbital symmetries:
       Occupied  (A) (A) (A) (A) (A) (A) (A) (A) (A)
       Virtual   (A) (A) (A) (A) (A) (A) (A) (A) (A) (A) (A) (A)
                 (A) (A) (A) (A) (A) (A) (A) (A) (A) (A) (A) (A)
                 (A) (A) (A) (A) (A) (A) (A) (A) (A) (A) (A) (A)
                 (A) (A) (A) (A) (A) (A) (A) (A) (A) (A) (A) (A)
                 (A) (A) (A) (A) (A) (A) (A) (A) (A) (A) (A) (A)
                 (A) (A) (A) (A) (A) (A) (A) (A) (A) (A) (A) (A)
                 (A) (A) (A) (A) (A) (A) (A) (A) (A) (A) (A) (A)
                 (A) (A) (A) (A) (A) (A) (A) (A) (A) (A) (A) (A)
                 (A) (A) (A) (A) (A) (A) (A) (A) (A) (A) (A) (A)
                 (A) (A) (A) (A) (A) (A) (A) (A) (A) (A) (A) (A)
                 (A) (A) (A) (A) (A) (A) (A) (A) (A) (A) (A) (A)
                 (A) (A) (A) (A) (A) (A) (A) (A) (A) (A) (A) (A)
                 (A) (A) (A) (A) (A) (A) (A) (A) (A) (A) (A) (A)
                 (A) (A) (A) (A) (A) (A) (A) (A) (A) (A) (A) (A)
                 (A) (A) (A) (A) (A) (A) (A) (A) (A) (A) (A) (A)
                 (A) (A) (A) (A) (A) (A) (A) (A)
 The electronic state of the initial guess is 1-A.
 Leave Link  401 at Mon May 11 09:53:28 2020, MaxMem= 1073741824 cpu:       4.0
 (Enter /home/matheus/.gaussian/g09/l502.exe)
 Closed shell SCF:
 Requested convergence on RMS density matrix=1.00D-08 within 128 cycles.
 Requested convergence on MAX density matrix=1.00D-06.
 Requested convergence on             energy=1.00D-06.
 No special actions if energy rises.
 Using DIIS extrapolation, IDIIS=  1040.
 Integral symmetry usage will be decided dynamically.
       126521 words used for storage of precomputed grid.
 IEnd=      305468 IEndB=      305468 NGot=  1073741824 MDV=  1073505667
 LenX=  1073505667 LenY=  1073452785
 Fock matrices will be formed incrementally for  20 cycles.

 Cycle   1  Pass 1  IDiag  1:
 FoFJK:  IHMeth= 1 ICntrl=     0 DoSepK=T KAlg= 1 I1Cent= 0 FoldK=F
 FoFCou: FMM=F IPFlag=           0 FMFlag=      100000 FMFlg1=           0
         NFxFlg=           0 DoJE=T BraDBF=F KetDBF=F FulRan=T
         Omega=  0.000000  0.000000  1.000000  0.000000  0.000000 ICntrl=     500 IOpCl=  0
         NMat0=    1 NMatS0=    1 NMatT0=    0 NMatD0=    1 NMtDS0=    0 NMtDT0=    0
         I1Cent=           0 NGrid=           0.
 Symmetry not used in FoFCou.
 E= -151.293220038352    
 DIIS: error= 1.25D-02 at cycle   1 NSaved=   1.
 NSaved= 1 IEnMin= 1 EnMin= -151.293220038352     IErMin= 1 ErrMin= 1.25D-02
 ErrMax= 1.25D-02 EMaxC= 1.00D-01 BMatC= 2.44D-02 BMatP= 2.44D-02
 IDIUse=3 WtCom= 8.75D-01 WtEn= 1.25D-01
 Coeff-Com:  0.100D+01
 Coeff-En:   0.100D+01
 Coeff:      0.100D+01
 Gap=     0.452 Goal=   None    Shift=    0.000
 GapD=    0.452 DampG=2.000 DampE=0.500 DampFc=1.0000 IDamp=-1.
 RMSDP=8.98D-04 MaxDP=3.16D-02              OVMax= 5.70D-02

 Cycle   2  Pass 1  IDiag  1:
 RMSU=  6.34D-04    CP:  1.00D+00
 FoFJK:  IHMeth= 1 ICntrl=     0 DoSepK=T KAlg= 1 I1Cent= 0 FoldK=F
 E= -151.315459831259     Delta-E=       -0.022239792907 Rises=F Damp=F
 DIIS: error= 5.66D-03 at cycle   2 NSaved=   2.
 NSaved= 2 IEnMin= 2 EnMin= -151.315459831259     IErMin= 2 ErrMin= 5.66D-03
 ErrMax= 5.66D-03 EMaxC= 1.00D-01 BMatC= 4.22D-03 BMatP= 2.44D-02
 IDIUse=3 WtCom= 9.43D-01 WtEn= 5.66D-02
 Coeff-Com:  0.245D+00 0.755D+00
 Coeff-En:   0.000D+00 0.100D+01
 Coeff:      0.231D+00 0.769D+00
 Gap=     0.415 Goal=   None    Shift=    0.000
 RMSDP=2.12D-04 MaxDP=6.00D-03 DE=-2.22D-02 OVMax= 1.43D-02

 Cycle   3  Pass 1  IDiag  1:
 RMSU=  1.49D-04    CP:  1.00D+00  1.03D+00
 FoFJK:  IHMeth= 1 ICntrl=     0 DoSepK=T KAlg= 1 I1Cent= 0 FoldK=F
 E= -151.317854188899     Delta-E=       -0.002394357640 Rises=F Damp=F
 DIIS: error= 2.06D-03 at cycle   3 NSaved=   3.
 NSaved= 3 IEnMin= 3 EnMin= -151.317854188899     IErMin= 3 ErrMin= 2.06D-03
 ErrMax= 2.06D-03 EMaxC= 1.00D-01 BMatC= 4.86D-04 BMatP= 4.22D-03
 IDIUse=3 WtCom= 9.79D-01 WtEn= 2.06D-02
 Coeff-Com:  0.226D-01 0.238D+00 0.740D+00
 Coeff-En:   0.000D+00 0.000D+00 0.100D+01
 Coeff:      0.222D-01 0.233D+00 0.745D+00
 Gap=     0.424 Goal=   None    Shift=    0.000
 RMSDP=1.06D-04 MaxDP=3.68D-03 DE=-2.39D-03 OVMax= 7.39D-03

 Cycle   4  Pass 1  IDiag  1:
 RMSU=  5.51D-05    CP:  1.00D+00  1.11D+00  9.62D-01
 FoFJK:  IHMeth= 1 ICntrl=     0 DoSepK=T KAlg= 1 I1Cent= 0 FoldK=F
 E= -151.318221994489     Delta-E=       -0.000367805590 Rises=F Damp=F
 DIIS: error= 4.54D-04 at cycle   4 NSaved=   4.
 NSaved= 4 IEnMin= 4 EnMin= -151.318221994489     IErMin= 4 ErrMin= 4.54D-04
 ErrMax= 4.54D-04 EMaxC= 1.00D-01 BMatC= 4.86D-05 BMatP= 4.86D-04
 IDIUse=3 WtCom= 9.95D-01 WtEn= 4.54D-03
 Coeff-Com: -0.215D-01-0.336D-01 0.198D+00 0.857D+00
 Coeff-En:   0.000D+00 0.000D+00 0.000D+00 0.100D+01
 Coeff:     -0.214D-01-0.335D-01 0.197D+00 0.858D+00
 Gap=     0.422 Goal=   None    Shift=    0.000
 RMSDP=4.32D-05 MaxDP=1.56D-03 DE=-3.68D-04 OVMax= 1.82D-03

 Cycle   5  Pass 1  IDiag  1:
 RMSU=  1.05D-05    CP:  1.00D+00  1.14D+00  1.12D+00  1.04D+00
 FoFJK:  IHMeth= 1 ICntrl=     0 DoSepK=T KAlg= 1 I1Cent= 0 FoldK=F
 E= -151.318263130581     Delta-E=       -0.000041136093 Rises=F Damp=F
 DIIS: error= 6.63D-05 at cycle   5 NSaved=   5.
 NSaved= 5 IEnMin= 5 EnMin= -151.318263130581     IErMin= 5 ErrMin= 6.63D-05
 ErrMax= 6.63D-05 EMaxC= 1.00D-01 BMatC= 3.85D-07 BMatP= 4.86D-05
 IDIUse=1 WtCom= 1.00D+00 WtEn= 0.00D+00
 Coeff-Com:  0.664D-03-0.359D-02-0.390D-01-0.780D-01 0.112D+01
 Coeff:      0.664D-03-0.359D-02-0.390D-01-0.780D-01 0.112D+01
 Gap=     0.422 Goal=   None    Shift=    0.000
 RMSDP=1.13D-05 MaxDP=4.45D-04 DE=-4.11D-05 OVMax= 6.76D-04

 Cycle   6  Pass 1  IDiag  1:
 RMSU=  2.78D-06    CP:  1.00D+00  1.14D+00  1.14D+00  1.12D+00  1.26D+00
 FoFJK:  IHMeth= 1 ICntrl=     0 DoSepK=T KAlg= 1 I1Cent= 0 FoldK=F
 E= -151.318264382174     Delta-E=       -0.000001251593 Rises=F Damp=F
 DIIS: error= 1.67D-05 at cycle   6 NSaved=   6.
 NSaved= 6 IEnMin= 6 EnMin= -151.318264382174     IErMin= 6 ErrMin= 1.67D-05
 ErrMax= 1.67D-05 EMaxC= 1.00D-01 BMatC= 1.62D-08 BMatP= 3.85D-07
 IDIUse=1 WtCom= 1.00D+00 WtEn= 0.00D+00
 Coeff-Com:  0.103D-03 0.477D-04-0.745D-03-0.315D-02-0.100D+00 0.110D+01
 Coeff:      0.103D-03 0.477D-04-0.745D-03-0.315D-02-0.100D+00 0.110D+01
 Gap=     0.422 Goal=   None    Shift=    0.000
 RMSDP=1.66D-06 MaxDP=4.91D-05 DE=-1.25D-06 OVMax= 1.14D-04

 Cycle   7  Pass 1  IDiag  1:
 RMSU=  2.97D-07    CP:  1.00D+00  1.14D+00  1.14D+00  1.13D+00  1.31D+00
                    CP:  1.26D+00
 FoFJK:  IHMeth= 1 ICntrl=     0 DoSepK=T KAlg= 1 I1Cent= 0 FoldK=F
 E= -151.318264426477     Delta-E=       -0.000000044303 Rises=F Damp=F
 DIIS: error= 3.60D-06 at cycle   7 NSaved=   7.
 NSaved= 7 IEnMin= 7 EnMin= -151.318264426477     IErMin= 7 ErrMin= 3.60D-06
 ErrMax= 3.60D-06 EMaxC= 1.00D-01 BMatC= 1.14D-09 BMatP= 1.62D-08
 IDIUse=1 WtCom= 1.00D+00 WtEn= 0.00D+00
 Coeff-Com:  0.147D-04 0.231D-03 0.194D-02 0.344D-02-0.727D-01 0.969D-01
 Coeff-Com:  0.970D+00
 Coeff:      0.147D-04 0.231D-03 0.194D-02 0.344D-02-0.727D-01 0.969D-01
 Coeff:      0.970D+00
 Gap=     0.422 Goal=   None    Shift=    0.000
 RMSDP=3.27D-07 MaxDP=8.87D-06 DE=-4.43D-08 OVMax= 2.46D-05

 Cycle   8  Pass 1  IDiag  1:
 RMSU=  1.05D-07    CP:  1.00D+00  1.14D+00  1.15D+00  1.13D+00  1.31D+00
                    CP:  1.32D+00  1.26D+00
 FoFJK:  IHMeth= 1 ICntrl=     0 DoSepK=T KAlg= 1 I1Cent= 0 FoldK=F
 E= -151.318264429051     Delta-E=       -0.000000002574 Rises=F Damp=F
 DIIS: error= 6.14D-07 at cycle   8 NSaved=   8.
 NSaved= 8 IEnMin= 8 EnMin= -151.318264429051     IErMin= 8 ErrMin= 6.14D-07
 ErrMax= 6.14D-07 EMaxC= 1.00D-01 BMatC= 8.73D-11 BMatP= 1.14D-09
 IDIUse=1 WtCom= 1.00D+00 WtEn= 0.00D+00
 Coeff-Com: -0.548D-05 0.139D-04 0.157D-03 0.504D-03-0.516D-03-0.417D-01
 Coeff-Com:  0.672D-01 0.974D+00
 Coeff:     -0.548D-05 0.139D-04 0.157D-03 0.504D-03-0.516D-03-0.417D-01
 Coeff:      0.672D-01 0.974D+00
 Gap=     0.422 Goal=   None    Shift=    0.000
 RMSDP=7.72D-08 MaxDP=1.81D-06 DE=-2.57D-09 OVMax= 6.52D-06

 Cycle   9  Pass 1  IDiag  1:
 RMSU=  3.05D-08    CP:  1.00D+00  1.14D+00  1.15D+00  1.13D+00  1.31D+00
                    CP:  1.32D+00  1.34D+00  1.22D+00
 FoFJK:  IHMeth= 1 ICntrl=     0 DoSepK=T KAlg= 1 I1Cent= 0 FoldK=F
 E= -151.318264429213     Delta-E=       -0.000000000162 Rises=F Damp=F
 DIIS: error= 5.94D-07 at cycle   9 NSaved=   9.
 NSaved= 9 IEnMin= 9 EnMin= -151.318264429213     IErMin= 9 ErrMin= 5.94D-07
 ErrMax= 5.94D-07 EMaxC= 1.00D-01 BMatC= 6.49D-11 BMatP= 8.73D-11
 IDIUse=1 WtCom= 1.00D+00 WtEn= 0.00D+00
 Coeff-Com: -0.591D-05-0.230D-04-0.159D-03-0.103D-03 0.918D-02-0.390D-01
 Coeff-Com: -0.805D-01 0.557D+00 0.554D+00
 Coeff:     -0.591D-05-0.230D-04-0.159D-03-0.103D-03 0.918D-02-0.390D-01
 Coeff:     -0.805D-01 0.557D+00 0.554D+00
 Gap=     0.422 Goal=   None    Shift=    0.000
 RMSDP=2.59D-08 MaxDP=6.29D-07 DE=-1.62D-10 OVMax= 2.42D-06

 Cycle  10  Pass 1  IDiag  1:
 RMSU=  1.28D-08    CP:  1.00D+00  1.14D+00  1.15D+00  1.13D+00  1.31D+00
                    CP:  1.32D+00  1.35D+00  1.32D+00  9.37D-01
 FoFJK:  IHMeth= 1 ICntrl=     0 DoSepK=T KAlg= 1 I1Cent= 0 FoldK=F
 E= -151.318264429271     Delta-E=       -0.000000000059 Rises=F Damp=F
 DIIS: error= 1.48D-07 at cycle  10 NSaved=  10.
 NSaved=10 IEnMin=10 EnMin= -151.318264429271     IErMin=10 ErrMin= 1.48D-07
 ErrMax= 1.48D-07 EMaxC= 1.00D-01 BMatC= 1.79D-12 BMatP= 6.49D-11
 IDIUse=1 WtCom= 1.00D+00 WtEn= 0.00D+00
 Coeff-Com:  0.172D-05 0.306D-05 0.255D-04 0.219D-04-0.269D-02 0.145D-01
 Coeff-Com:  0.296D-01-0.315D+00-0.186D+00 0.146D+01
 Coeff:      0.172D-05 0.306D-05 0.255D-04 0.219D-04-0.269D-02 0.145D-01
 Coeff:      0.296D-01-0.315D+00-0.186D+00 0.146D+01
 Gap=     0.422 Goal=   None    Shift=    0.000
 RMSDP=1.93D-08 MaxDP=4.10D-07 DE=-5.88D-11 OVMax= 2.36D-06

 Cycle  11  Pass 1  IDiag  1:
 RMSU=  4.06D-09    CP:  1.00D+00  1.14D+00  1.15D+00  1.13D+00  1.31D+00
                    CP:  1.32D+00  1.35D+00  1.36D+00  1.18D+00  1.51D+00
 FoFJK:  IHMeth= 1 ICntrl=     0 DoSepK=T KAlg= 1 I1Cent= 0 FoldK=F
 E= -151.318264429281     Delta-E=       -0.000000000009 Rises=F Damp=F
 DIIS: error= 2.65D-08 at cycle  11 NSaved=  11.
 NSaved=11 IEnMin=11 EnMin= -151.318264429281     IErMin=11 ErrMin= 2.65D-08
 ErrMax= 2.65D-08 EMaxC= 1.00D-01 BMatC= 6.42D-14 BMatP= 1.79D-12
 IDIUse=1 WtCom= 1.00D+00 WtEn= 0.00D+00
 Coeff-Com: -0.299D-06 0.913D-06 0.675D-05-0.165D-05 0.155D-03-0.184D-02
 Coeff-Com: -0.146D-02 0.505D-01 0.149D-01-0.393D+00 0.133D+01
 Coeff:     -0.299D-06 0.913D-06 0.675D-05-0.165D-05 0.155D-03-0.184D-02
 Coeff:     -0.146D-02 0.505D-01 0.149D-01-0.393D+00 0.133D+01
 Gap=     0.422 Goal=   None    Shift=    0.000
 RMSDP=4.44D-09 MaxDP=1.50D-07 DE=-9.32D-12 OVMax= 5.53D-07

 SCF Done:  E(RLC-B+HF-LYP) =  -151.318264429     A.U. after   11 cycles
             Convg  =    0.4442D-08             -V/T =  2.0055
 KE= 1.504894181540D+02 PE=-4.314674989736D+02 EE= 9.299385146696D+01
 Leave Link  502 at Mon May 11 09:54:00 2020, MaxMem= 1073741824 cpu:     254.0
 (Enter /home/matheus/.gaussian/g09/l601.exe)
 Copying SCF densities to generalized density rwf, IOpCl= 0 IROHF=0.

 **********************************************************************

            Population analysis using the SCF density.

 **********************************************************************

 Orbital symmetries:
       Occupied  (A) (A) (A) (A) (A) (A) (A) (A) (A)
       Virtual   (A) (A) (A) (A) (A) (A) (A) (A) (A) (A) (A) (A)
                 (A) (A) (A) (A) (A) (A) (A) (A) (A) (A) (A) (A)
                 (A) (A) (A) (A) (A) (A) (A) (A) (A) (A) (A) (A)
                 (A) (A) (A) (A) (A) (A) (A) (A) (A) (A) (A) (A)
                 (A) (A) (A) (A) (A) (A) (A) (A) (A) (A) (A) (A)
                 (A) (A) (A) (A) (A) (A) (A) (A) (A) (A) (A) (A)
                 (A) (A) (A) (A) (A) (A) (A) (A) (A) (A) (A) (A)
                 (A) (A) (A) (A) (A) (A) (A) (A) (A) (A) (A) (A)
                 (A) (A) (A) (A) (A) (A) (A) (A) (A) (A) (A) (A)
                 (A) (A) (A) (A) (A) (A) (A) (A) (A) (A) (A) (A)
                 (A) (A) (A) (A) (A) (A) (A) (A) (A) (A) (A) (A)
                 (A) (A) (A) (A) (A) (A) (A) (A) (A) (A) (A) (A)
                 (A) (A) (A) (A) (A) (A) (A) (A) (A) (A) (A) (A)
                 (A) (A) (A) (A) (A) (A) (A) (A) (A) (A) (A) (A)
                 (A) (A) (A) (A) (A) (A) (A) (A) (A) (A) (A) (A)
                 (A) (A) (A) (A) (A) (A) (A) (A)
 The electronic state is 1-A.
 Alpha  occ. eigenvalues --  -19.07701 -19.07701  -1.29046  -1.06635  -0.73321
 Alpha  occ. eigenvalues --   -0.57924  -0.56779  -0.52872  -0.41074
 Alpha virt. eigenvalues --    0.01090   0.03232   0.06911   0.07240   0.08411
 Alpha virt. eigenvalues --    0.09812   0.10113   0.15929   0.16305   0.17016
 Alpha virt. eigenvalues --    0.17980   0.18817   0.19374   0.20830   0.24911
 Alpha virt. eigenvalues --    0.25773   0.27268   0.27684   0.30505   0.33905
 Alpha virt. eigenvalues --    0.34665   0.35578   0.37003   0.40568   0.42977
 Alpha virt. eigenvalues --    0.44195   0.44519   0.46503   0.48022   0.52547
 Alpha virt. eigenvalues --    0.53794   0.57483   0.58204   0.63242   0.64915
 Alpha virt. eigenvalues --    0.68430   0.70209   0.76042   0.76451   0.79413
 Alpha virt. eigenvalues --    0.81552   0.82989   0.84670   0.87276   0.88442
 Alpha virt. eigenvalues --    0.92925   0.96196   0.96252   0.97658   0.98930
 Alpha virt. eigenvalues --    1.00747   1.02538   1.05140   1.08934   1.09973
 Alpha virt. eigenvalues --    1.10797   1.17747   1.21515   1.22977   1.24653
 Alpha virt. eigenvalues --    1.27223   1.28639   1.30594   1.31847   1.32514
 Alpha virt. eigenvalues --    1.33595   1.36379   1.38014   1.43077   1.47112
 Alpha virt. eigenvalues --    1.49326   1.50523   1.52461   1.54788   1.60895
 Alpha virt. eigenvalues --    1.63034   1.64038   1.70751   1.71710   1.80141
 Alpha virt. eigenvalues --    1.82258   1.85107   1.96822   1.98429   2.03022
 Alpha virt. eigenvalues --    2.04849   2.15077   2.21963   2.23759   2.27750
 Alpha virt. eigenvalues --    2.29130   2.33165   2.35572   2.35834   2.44385
 Alpha virt. eigenvalues --    2.47268   2.54411   2.54999   2.64291   2.70738
 Alpha virt. eigenvalues --    2.72233   2.75239   2.85470   2.87572   2.94092
 Alpha virt. eigenvalues --    3.09030   3.12917   3.16987   3.22946   3.35003
 Alpha virt. eigenvalues --    3.36290   3.55454   3.63642   3.72486   3.77017
 Alpha virt. eigenvalues --    3.77569   3.78206   3.80563   3.82224   3.85018
 Alpha virt. eigenvalues --    3.88768   3.89867   3.93748   3.95682   3.96670
 Alpha virt. eigenvalues --    3.99953   4.04424   4.09235   4.12280   4.13416
 Alpha virt. eigenvalues --    4.15739   4.18227   4.27042   4.28148   4.28994
 Alpha virt. eigenvalues --    4.45424   4.60219   4.62008   4.71035   4.97523
 Alpha virt. eigenvalues --    5.02120   5.04289   5.09919   5.15795   5.18979
 Alpha virt. eigenvalues --    5.54693   5.81816   6.00837   6.07363   6.13679
 Alpha virt. eigenvalues --    6.34321   6.40340   6.50242   6.59567   6.70311
 Alpha virt. eigenvalues --    6.72069   6.76874   6.79201   6.82309   6.87127
 Alpha virt. eigenvalues --    6.87975   6.89445   6.93938   7.13041   7.16692
 Alpha virt. eigenvalues --    7.19791   7.28479   7.28949   7.62344   7.95735
 Alpha virt. eigenvalues --    8.05014   8.20098  11.07935  13.75060  14.67229
 Alpha virt. eigenvalues --   14.80124  14.95060  15.08970  29.01114  29.01817
 Alpha virt. eigenvalues --   29.05379  29.19573  29.23926  49.22883 148.28335
 Alpha virt. eigenvalues --  148.50830 148.71750 752.98815
          Condensed to atoms (all electrons):
              1          2          3          4          5
     1  O    8.216493  -0.239407   0.166164   0.051095   0.002105
     2  O   -0.239407   8.211093   0.052941   0.169758   0.001758
     3  H    0.166164   0.052941   0.617047  -0.028675  -0.003099
     4  H    0.051095   0.169758  -0.028675   0.615432  -0.003687
     5  Kr   0.002105   0.001758  -0.003099  -0.003687   0.002030
 Mulliken atomic charges:
              1
     1  O   -0.196450
     2  O   -0.196144
     3  H    0.195622
     4  H    0.196077
     5  Kr   0.000894
 Sum of Mulliken atomic charges =   0.00000
 Mulliken charges with hydrogens summed into heavy atoms:
              1
     1  O   -0.000828
     2  O   -0.000066
     5  Kr   0.000894
 Sum of Mulliken charges with hydrogens summed into heavy atoms =   0.00000
          Condensed to fragments (all electrons):
     1      -0.000894
     2       0.000894
 Electronic spatial extent (au):  <R**2>=            317.1747
 Charge=              0.0000 electrons
 Dipole moment (field-independent basis, Debye):
    X=             -3.2101    Y=             -0.0051    Z=              0.2865  Tot=              3.2229
 Quadrupole moment (field-independent basis, Debye-Ang):
   XX=            -22.0203   YY=            -10.7896   ZZ=            -13.2565
   XY=             -0.0377   XZ=              0.2187   YZ=             -0.3240
 Traceless Quadrupole moment (field-independent basis, Debye-Ang):
   XX=             -6.6648   YY=              4.5659   ZZ=              2.0989
   XY=             -0.0377   XZ=              0.2187   YZ=             -0.3240
 Octapole moment (field-independent basis, Debye-Ang**2):
  XXX=            -95.0304  YYY=             -0.0294  ZZZ=             -0.0017  XYY=            -25.2236
  XXY=             -0.0690  XXZ=             -0.0164  XZZ=            -25.9970  YZZ=             -0.0581
  YYZ=              0.3650  XYZ=             -0.3372
 Hexadecapole moment (field-independent basis, Debye-Ang**3):
 XXXX=           -345.6025 YYYY=            -46.5814 ZZZZ=            -11.9666 XXXY=             -0.0615
 XXXZ=             -0.5988 YYYX=             -0.0660 YYYZ=             -0.4427 ZZZX=              0.0912
 ZZZY=             -0.1808 XXYY=            -65.5688 XXZZ=            -55.3017 YYZZ=            -11.7391
 XXYZ=             -0.3379 YYXZ=              0.3925 ZZXY=             -0.0710
 N-N= 3.666596492333D+01 E-N=-4.314674985030D+02  KE= 1.504894181540D+02
 No NMR shielding tensors so no spin-rotation constants.
 Leave Link  601 at Mon May 11 09:54:00 2020, MaxMem= 1073741824 cpu:       0.8
 (Enter /home/matheus/.gaussian/g09/l122.exe)
 Counterpoise: doing DCBS calculation for fragment   2 NewBq=T
 Leave Link  122 at Mon May 11 09:54:00 2020, MaxMem= 1073741824 cpu:       0.0
 (Enter /home/matheus/.gaussian/g09/l301.exe)
 Basis read from rwf:  (5D, 7F)
 No pseudopotential information found on rwf file.
 There are   197 symmetry adapted basis functions of A   symmetry.
 Integral buffers will be    131072 words long.
 Raffenetti 2 integral format.
 Two-electron integral symmetry is turned on.
   197 basis functions,   415 primitive gaussians,   229 cartesian basis functions
    18 alpha electrons       18 beta electrons
       nuclear repulsion energy         0.0000000000 Hartrees.
 IExCor=10402 DFT=T Ex=LC-B+HF Corr=LYP ExCW=0 ScaHFX=  1.000000
 ScaDFX=  1.000000  1.000000  1.000000  1.000000 ScalE2=  1.000000  1.000000
 IRadAn=      5 IRanWt=     -1 IRanGd=            0 ICorTp=0
  HFx wShort=  0.000000 wLong=  0.470000 cFull=  0.000000 cShort=  0.000000 cLong=  1.000000
  DFx wShort=  0.000000 wLong=  0.470000 cFull=  0.000000 cShort=  0.000000 cLong=  1.000000
 NAtoms=    5 NActive=    5 NUniq=    5 SFac= 1.00D+00 NAtFMM=   60 NAOKFM=F Big=F
 No density basis found on file   718.
 Leave Link  301 at Mon May 11 09:54:00 2020, MaxMem= 1073741824 cpu:       0.2
 (Enter /home/matheus/.gaussian/g09/l302.exe)
 NPDir=0 NMtPBC=     1 NCelOv=     1 NCel=       1 NClECP=     1 NCelD=      1
         NCelK=      1 NCelE2=     1 NClLst=     1 CellRange=     0.0.
 One-electron integrals computed using PRISM.
 NBasis=   197 RedAO= T  NBF=   197
 NBsUse=   197 1.00D-06 NBFU=   197
 Precomputing XC quadrature grid using
 IXCGrd= 2 IRadAn=           5 IRanWt=          -1 IRanGd=           0 AccXCQ= 0.00D+00.
 NRdTot=     427 NPtTot=      123512 NUsed=      126579 NTot=      126611
 NSgBfM=   229   229   229   229   229 NAtAll=     5     5.
 Leave Link  302 at Mon May 11 09:54:00 2020, MaxMem= 1073741824 cpu:       1.0
 (Enter /home/matheus/.gaussian/g09/l303.exe)
 DipDrv:  MaxL=1.
 Leave Link  303 at Mon May 11 09:54:00 2020, MaxMem= 1073741824 cpu:       0.2
 (Enter /home/matheus/.gaussian/g09/l401.exe)
 Harris functional with IExCor=10402 diagonalized for initial guess.
 ExpMin= 2.53D-02 ExpMax= 1.17D+07 ExpMxC= 1.33D+04 IAcc=3 IRadAn=         5 AccDes= 0.00D+00
 HarFok:  IExCor=10402 AccDes= 0.00D+00 IRadAn=         5 IDoV= 1
 ScaDFX=  1.000000  1.000000  1.000000  1.000000
 FoFCou: FMM=F IPFlag=           0 FMFlag=      100000 FMFlg1=           0
         NFxFlg=           0 DoJE=T BraDBF=F KetDBF=T FulRan=T
         Omega=  0.000000  0.000000  1.000000  0.000000  0.000000 ICntrl=     500 IOpCl=  0
         NMat0=    1 NMatS0=    1 NMatT0=    0 NMatD0=    1 NMtDS0=    0 NMtDT0=    0
         I1Cent=           4 NGrid=           0.
 Petite list used in FoFCou.
 Harris En= -2744.51555048662    
 Initial guess orbital symmetries:
       Occupied  (A) (A) (A) (A) (A) (A) (A) (A) (A) (A) (A) (A)
                 (A) (A) (A) (A) (A) (A)
       Virtual   (A) (A) (A) (A) (A) (A) (A) (A) (A) (A) (A) (A)
                 (A) (A) (A) (A) (A) (A) (A) (A) (A) (A) (A) (A)
                 (A) (A) (A) (A) (A) (A) (A) (A) (A) (A) (A) (A)
                 (A) (A) (A) (A) (A) (A) (A) (A) (A) (A) (A) (A)
                 (A) (A) (A) (A) (A) (A) (A) (A) (A) (A) (A) (A)
                 (A) (A) (A) (A) (A) (A) (A) (A) (A) (A) (A) (A)
                 (A) (A) (A) (A) (A) (A) (A) (A) (A) (A) (A) (A)
                 (A) (A) (A) (A) (A) (A) (A) (A) (A) (A) (A) (A)
                 (A) (A) (A) (A) (A) (A) (A) (A) (A) (A) (A) (A)
                 (A) (A) (A) (A) (A) (A) (A) (A) (A) (A) (A) (A)
                 (A) (A) (A) (A) (A) (A) (A) (A) (A) (A) (A) (A)
                 (A) (A) (A) (A) (A) (A) (A) (A) (A) (A) (A) (A)
                 (A) (A) (A) (A) (A) (A) (A) (A) (A) (A) (A) (A)
                 (A) (A) (A) (A) (A) (A) (A) (A) (A) (A) (A) (A)
                 (A) (A) (A) (A) (A) (A) (A) (A) (A) (A) (A)
 The electronic state of the initial guess is 1-A.
 Leave Link  401 at Mon May 11 09:54:01 2020, MaxMem= 1073741824 cpu:       3.8
 (Enter /home/matheus/.gaussian/g09/l502.exe)
 Closed shell SCF:
 Requested convergence on RMS density matrix=1.00D-08 within 128 cycles.
 Requested convergence on MAX density matrix=1.00D-06.
 Requested convergence on             energy=1.00D-06.
 No special actions if energy rises.
 Using DIIS extrapolation, IDIIS=  1040.
 Integral symmetry usage will be decided dynamically.
       126521 words used for storage of precomputed grid.
 IEnd=      305468 IEndB=      305468 NGot=  1073741824 MDV=  1073505667
 LenX=  1073505667 LenY=  1073452785
 Fock matrices will be formed incrementally for  20 cycles.

 Cycle   1  Pass 1  IDiag  1:
 FoFJK:  IHMeth= 1 ICntrl=     0 DoSepK=T KAlg= 1 I1Cent= 0 FoldK=F
 FoFCou: FMM=F IPFlag=           0 FMFlag=      100000 FMFlg1=           0
         NFxFlg=           0 DoJE=T BraDBF=F KetDBF=F FulRan=T
         Omega=  0.000000  0.000000  1.000000  0.000000  0.000000 ICntrl=     500 IOpCl=  0
         NMat0=    1 NMatS0=    1 NMatT0=    0 NMatD0=    1 NMtDS0=    0 NMtDT0=    0
         I1Cent=           0 NGrid=           0.
 Symmetry not used in FoFCou.
 E= -2753.33335553134    
 DIIS: error= 3.40D-02 at cycle   1 NSaved=   1.
 NSaved= 1 IEnMin= 1 EnMin= -2753.33335553134     IErMin= 1 ErrMin= 3.40D-02
 ErrMax= 3.40D-02 EMaxC= 1.00D-01 BMatC= 2.64D-01 BMatP= 2.64D-01
 IDIUse=3 WtCom= 6.60D-01 WtEn= 3.40D-01
 Coeff-Com:  0.100D+01
 Coeff-En:   0.100D+01
 Coeff:      0.100D+01
 Gap=     0.618 Goal=   None    Shift=    0.000
 GapD=    0.618 DampG=2.000 DampE=0.500 DampFc=1.0000 IDamp=-1.
 RMSDP=2.57D-03 MaxDP=1.57D-01              OVMax= 1.05D-01

 Cycle   2  Pass 1  IDiag  1:
 RMSU=  1.76D-03    CP:  1.03D+00
 FoFJK:  IHMeth= 1 ICntrl=     0 DoSepK=T KAlg= 1 I1Cent= 0 FoldK=F
 E= -2753.38937432472     Delta-E=       -0.056018793378 Rises=F Damp=F
 DIIS: error= 1.52D-02 at cycle   2 NSaved=   2.
 NSaved= 2 IEnMin= 2 EnMin= -2753.38937432472     IErMin= 2 ErrMin= 1.52D-02
 ErrMax= 1.52D-02 EMaxC= 1.00D-01 BMatC= 8.91D-02 BMatP= 2.64D-01
 IDIUse=3 WtCom= 8.48D-01 WtEn= 1.52D-01
 Coeff-Com:  0.365D+00 0.635D+00
 Coeff-En:   0.131D+00 0.869D+00
 Coeff:      0.329D+00 0.671D+00
 Gap=     0.538 Goal=   None    Shift=    0.000
 RMSDP=1.02D-03 MaxDP=6.26D-02 DE=-5.60D-02 OVMax= 3.14D-02

 Cycle   3  Pass 1  IDiag  1:
 RMSU=  1.75D-04    CP:  1.02D+00  6.14D-01
 FoFJK:  IHMeth= 1 ICntrl=     0 DoSepK=T KAlg= 1 I1Cent= 0 FoldK=F
 E= -2753.41753348143     Delta-E=       -0.028159156707 Rises=F Damp=F
 DIIS: error= 1.26D-03 at cycle   3 NSaved=   3.
 NSaved= 3 IEnMin= 3 EnMin= -2753.41753348143     IErMin= 3 ErrMin= 1.26D-03
 ErrMax= 1.26D-03 EMaxC= 1.00D-01 BMatC= 6.11D-04 BMatP= 8.91D-02
 IDIUse=3 WtCom= 9.87D-01 WtEn= 1.26D-02
 Coeff-Com: -0.622D-02 0.645D-01 0.942D+00
 Coeff-En:   0.000D+00 0.000D+00 0.100D+01
 Coeff:     -0.614D-02 0.637D-01 0.942D+00
 Gap=     0.538 Goal=   None    Shift=    0.000
 RMSDP=1.01D-04 MaxDP=5.31D-03 DE=-2.82D-02 OVMax= 3.31D-03

 Cycle   4  Pass 1  IDiag  1:
 RMSU=  3.91D-05    CP:  1.02D+00  6.44D-01  1.13D+00
 FoFJK:  IHMeth= 1 ICntrl=     0 DoSepK=T KAlg= 1 I1Cent= 0 FoldK=F
 E= -2753.41772204811     Delta-E=       -0.000188566682 Rises=F Damp=F
 DIIS: error= 9.03D-05 at cycle   4 NSaved=   4.
 NSaved= 4 IEnMin= 4 EnMin= -2753.41772204811     IErMin= 4 ErrMin= 9.03D-05
 ErrMax= 9.03D-05 EMaxC= 1.00D-01 BMatC= 1.99D-06 BMatP= 6.11D-04
 IDIUse=1 WtCom= 1.00D+00 WtEn= 0.00D+00
 Coeff-Com: -0.140D-02 0.200D-03-0.563D-02 0.101D+01
 Coeff:     -0.140D-02 0.200D-03-0.563D-02 0.101D+01
 Gap=     0.539 Goal=   None    Shift=    0.000
 RMSDP=1.35D-05 MaxDP=5.51D-04 DE=-1.89D-04 OVMax= 9.21D-04

 Cycle   5  Pass 1  IDiag  1:
 RMSU=  5.94D-06    CP:  1.02D+00  6.46D-01  1.16D+00  1.05D+00
 FoFJK:  IHMeth= 1 ICntrl=     0 DoSepK=T KAlg= 1 I1Cent= 0 FoldK=F
 E= -2753.41772600458     Delta-E=       -0.000003956471 Rises=F Damp=F
 DIIS: error= 2.30D-05 at cycle   5 NSaved=   5.
 NSaved= 5 IEnMin= 5 EnMin= -2753.41772600458     IErMin= 5 ErrMin= 2.30D-05
 ErrMax= 2.30D-05 EMaxC= 1.00D-01 BMatC= 1.61D-07 BMatP= 1.99D-06
 IDIUse=1 WtCom= 1.00D+00 WtEn= 0.00D+00
 Coeff-Com: -0.579D-04-0.406D-02-0.334D-01-0.718D-01 0.111D+01
 Coeff:     -0.579D-04-0.406D-02-0.334D-01-0.718D-01 0.111D+01
 Gap=     0.539 Goal=   None    Shift=    0.000
 RMSDP=4.52D-06 MaxDP=1.80D-04 DE=-3.96D-06 OVMax= 1.99D-04

 Cycle   6  Pass 1  IDiag  1:
 RMSU=  3.47D-07    CP:  1.02D+00  6.46D-01  1.18D+00  1.10D+00  1.15D+00
 FoFJK:  IHMeth= 1 ICntrl=     0 DoSepK=T KAlg= 1 I1Cent= 0 FoldK=F
 E= -2753.41772621566     Delta-E=       -0.000000211082 Rises=F Damp=F
 DIIS: error= 6.94D-07 at cycle   6 NSaved=   6.
 NSaved= 6 IEnMin= 6 EnMin= -2753.41772621566     IErMin= 6 ErrMin= 6.94D-07
 ErrMax= 6.94D-07 EMaxC= 1.00D-01 BMatC= 1.11D-10 BMatP= 1.61D-07
 IDIUse=1 WtCom= 1.00D+00 WtEn= 0.00D+00
 Coeff-Com:  0.682D-05 0.289D-03 0.265D-02-0.118D-02-0.648D-01 0.106D+01
 Coeff:      0.682D-05 0.289D-03 0.265D-02-0.118D-02-0.648D-01 0.106D+01
 Gap=     0.539 Goal=   None    Shift=    0.000
 RMSDP=1.47D-07 MaxDP=5.07D-06 DE=-2.11D-07 OVMax= 6.36D-06

 Cycle   7  Pass 1  IDiag  1:
 RMSU=  2.66D-08    CP:  1.02D+00  6.46D-01  1.18D+00  1.10D+00  1.16D+00
                    CP:  1.17D+00
 FoFJK:  IHMeth= 1 ICntrl=     0 DoSepK=T KAlg= 1 I1Cent= 0 FoldK=F
 E= -2753.41772621573     Delta-E=       -0.000000000065 Rises=F Damp=F
 DIIS: error= 1.19D-07 at cycle   7 NSaved=   7.
 NSaved= 7 IEnMin= 7 EnMin= -2753.41772621573     IErMin= 7 ErrMin= 1.19D-07
 ErrMax= 1.19D-07 EMaxC= 1.00D-01 BMatC= 4.37D-12 BMatP= 1.11D-10
 IDIUse=1 WtCom= 1.00D+00 WtEn= 0.00D+00
 Coeff-Com:  0.142D-05 0.820D-04 0.697D-03 0.905D-03-0.214D-01 0.119D+00
 Coeff-Com:  0.900D+00
 Coeff:      0.142D-05 0.820D-04 0.697D-03 0.905D-03-0.214D-01 0.119D+00
 Coeff:      0.900D+00
 Gap=     0.539 Goal=   None    Shift=    0.000
 RMSDP=1.55D-08 MaxDP=5.55D-07 DE=-6.55D-11 OVMax= 9.60D-07

 Cycle   8  Pass 1  IDiag  1:
 RMSU=  6.07D-09    CP:  1.02D+00  6.46D-01  1.18D+00  1.10D+00  1.16D+00
                    CP:  1.19D+00  1.03D+00
 FoFJK:  IHMeth= 1 ICntrl=     0 DoSepK=T KAlg= 1 I1Cent= 0 FoldK=F
 E= -2753.41772621572     Delta-E=        0.000000000006 Rises=F Damp=F
 DIIS: error= 2.84D-08 at cycle   8 NSaved=   8.
 NSaved= 8 IEnMin= 7 EnMin= -2753.41772621573     IErMin= 8 ErrMin= 2.84D-08
 ErrMax= 2.84D-08 EMaxC= 1.00D-01 BMatC= 2.38D-13 BMatP= 4.37D-12
 IDIUse=1 WtCom= 1.00D+00 WtEn= 0.00D+00
 Coeff-Com: -0.341D-06-0.119D-04-0.116D-03 0.209D-03 0.210D-02-0.565D-01
 Coeff-Com:  0.868D-01 0.967D+00
 Coeff:     -0.341D-06-0.119D-04-0.116D-03 0.209D-03 0.210D-02-0.565D-01
 Coeff:      0.868D-01 0.967D+00
 Gap=     0.539 Goal=   None    Shift=    0.000
 RMSDP=4.15D-09 MaxDP=1.64D-07 DE= 5.91D-12 OVMax= 2.22D-07

 SCF Done:  E(RLC-B+HF-LYP) =  -2753.41772622     A.U. after    8 cycles
             Convg  =    0.4148D-08             -V/T =  2.0015
 KE= 2.749298988920D+03 PE=-6.578507972880D+03 EE= 1.075791257745D+03
 Leave Link  502 at Mon May 11 09:54:25 2020, MaxMem= 1073741824 cpu:     192.0
 (Enter /home/matheus/.gaussian/g09/l601.exe)
 Copying SCF densities to generalized density rwf, IOpCl= 0 IROHF=0.

 **********************************************************************

            Population analysis using the SCF density.

 **********************************************************************

 Orbital symmetries:
       Occupied  (A) (A) (A) (A) (A) (A) (A) (A) (A) (A) (A) (A)
                 (A) (A) (A) (A) (A) (A)
       Virtual   (A) (A) (A) (A) (A) (A) (A) (A) (A) (A) (A) (A)
                 (A) (A) (A) (A) (A) (A) (A) (A) (A) (A) (A) (A)
                 (A) (A) (A) (A) (A) (A) (A) (A) (A) (A) (A) (A)
                 (A) (A) (A) (A) (A) (A) (A) (A) (A) (A) (A) (A)
                 (A) (A) (A) (A) (A) (A) (A) (A) (A) (A) (A) (A)
                 (A) (A) (A) (A) (A) (A) (A) (A) (A) (A) (A) (A)
                 (A) (A) (A) (A) (A) (A) (A) (A) (A) (A) (A) (A)
                 (A) (A) (A) (A) (A) (A) (A) (A) (A) (A) (A) (A)
                 (A) (A) (A) (A) (A) (A) (A) (A) (A) (A) (A) (A)
                 (A) (A) (A) (A) (A) (A) (A) (A) (A) (A) (A) (A)
                 (A) (A) (A) (A) (A) (A) (A) (A) (A) (A) (A) (A)
                 (A) (A) (A) (A) (A) (A) (A) (A) (A) (A) (A) (A)
                 (A) (A) (A) (A) (A) (A) (A) (A) (A) (A) (A) (A)
                 (A) (A) (A) (A) (A) (A) (A) (A) (A) (A) (A) (A)
                 (A) (A) (A) (A) (A) (A) (A) (A) (A) (A) (A)
 The electronic state is 1-A.
 Alpha  occ. eigenvalues -- -511.24394 -66.71365 -60.39889 -60.39886 -60.39885
 Alpha  occ. eigenvalues --   -9.60493  -7.35947  -7.35945  -7.35945  -3.32283
 Alpha  occ. eigenvalues --   -3.32283  -3.32283  -3.32282  -3.32282  -1.06078
 Alpha  occ. eigenvalues --   -0.51291  -0.51288  -0.51285
 Alpha virt. eigenvalues --    0.02613   0.04719   0.07757   0.09073   0.11412
 Alpha virt. eigenvalues --    0.12460   0.13154   0.13874   0.15249   0.16878
 Alpha virt. eigenvalues --    0.17232   0.17636   0.20468   0.25578   0.26197
 Alpha virt. eigenvalues --    0.26469   0.29312   0.31156   0.32964   0.36980
 Alpha virt. eigenvalues --    0.37813   0.38899   0.39285   0.40029   0.41208
 Alpha virt. eigenvalues --    0.41909   0.45311   0.53731   0.55413   0.58469
 Alpha virt. eigenvalues --    0.61541   0.62964   0.69522   0.70123   0.71250
 Alpha virt. eigenvalues --    0.72804   0.74042   0.75990   0.76496   0.77837
 Alpha virt. eigenvalues --    0.78179   0.83309   0.84794   0.86537   0.87998
 Alpha virt. eigenvalues --    0.89151   0.89347   0.89910   0.95817   0.98153
 Alpha virt. eigenvalues --    0.98680   0.99027   1.00395   1.01271   1.04642
 Alpha virt. eigenvalues --    1.04908   1.09022   1.11398   1.14857   1.16241
 Alpha virt. eigenvalues --    1.17585   1.24199   1.29911   1.33053   1.40169
 Alpha virt. eigenvalues --    1.41306   1.44234   1.45458   1.48827   1.52150
 Alpha virt. eigenvalues --    1.56597   1.61410   1.65807   1.71201   1.74462
 Alpha virt. eigenvalues --    1.78315   1.84221   1.87508   1.94132   2.16398
 Alpha virt. eigenvalues --    2.22309   2.22873   2.27979   2.28701   2.33985
 Alpha virt. eigenvalues --    2.34713   2.35575   2.36984   2.39017   2.40776
 Alpha virt. eigenvalues --    2.46681   2.48474   2.51368   2.52939   2.53707
 Alpha virt. eigenvalues --    2.54652   2.55391   2.61781   2.61843   2.62505
 Alpha virt. eigenvalues --    2.63876   2.65619   2.66116   2.70772   2.73525
 Alpha virt. eigenvalues --    2.75999   2.77646   2.84922   2.89504   2.90489
 Alpha virt. eigenvalues --    2.96510   2.99101   3.07820   3.14699   3.16236
 Alpha virt. eigenvalues --    3.26447   3.27224   3.28009   3.39375   3.54304
 Alpha virt. eigenvalues --    3.62106   3.65047   3.87317   3.87662   4.01770
 Alpha virt. eigenvalues --    4.41766   4.43519   4.50817   4.59730   4.67701
 Alpha virt. eigenvalues --    4.71956   4.81728   4.86425   4.94342   5.03517
 Alpha virt. eigenvalues --    5.11430   5.29898   5.50878   5.66116   5.68682
 Alpha virt. eigenvalues --    5.91882   6.02189   6.26802   6.69883   6.94425
 Alpha virt. eigenvalues --    7.26448   7.37352   7.64463   7.66176   7.79245
 Alpha virt. eigenvalues --    7.87145   8.02435   8.11570   8.13875   8.27838
 Alpha virt. eigenvalues --    8.30197   8.36919   8.70707   9.01243   9.50000
 Alpha virt. eigenvalues --    9.73810   9.77364   9.88087   9.90437   9.93979
 Alpha virt. eigenvalues --   10.20539  10.21995  10.72653  10.86799  11.44292
 Alpha virt. eigenvalues --   11.62699  11.67206  11.92419  12.05970  13.29130
 Alpha virt. eigenvalues --   13.59204  14.55352  62.37288  64.81894
          Condensed to atoms (all electrons):
              1          2          3          4          5
     1  O    0.002399  -0.000389  -0.002059   0.000559  -0.006692
     2  O   -0.000389   0.002648   0.000502  -0.002262  -0.006044
     3  H   -0.002059   0.000502   0.002493  -0.000357  -0.011349
     4  H    0.000559  -0.002262  -0.000357   0.002676  -0.011760
     5  Kr  -0.006692  -0.006044  -0.011349  -0.011760  36.069487
 Mulliken atomic charges:
              1
     1  O    0.006182
     2  O    0.005545
     3  H    0.010769
     4  H    0.011145
     5  Kr  -0.033642
 Sum of Mulliken atomic charges =   0.00000
 Mulliken charges with hydrogens summed into heavy atoms:
              1
     1  O    0.016951
     2  O    0.016690
     5  Kr  -0.033642
 Sum of Mulliken charges with hydrogens summed into heavy atoms =   0.00000
          Condensed to fragments (all electrons):
     1       0.033642
     2      -0.033642
 Electronic spatial extent (au):  <R**2>=            159.6253
 Charge=              0.0000 electrons
 Dipole moment (field-independent basis, Debye):
    X=              0.0023    Y=              0.0000    Z=              0.0000  Tot=              0.0023
 Quadrupole moment (field-independent basis, Debye-Ang):
   XX=            -17.7470   YY=            -17.7541   ZZ=            -17.7645
   XY=              0.0001   XZ=              0.0012   YZ=             -0.0007
 Traceless Quadrupole moment (field-independent basis, Debye-Ang):
   XX=              0.0082   YY=              0.0011   ZZ=             -0.0093
   XY=              0.0001   XZ=              0.0012   YZ=             -0.0007
 Octapole moment (field-independent basis, Debye-Ang**2):
  XXX=             51.4398  YYY=              0.0069  ZZZ=              0.0660  XYY=             17.1599
  XXY=              0.0021  XXZ=              0.0203  XZZ=             17.1665  YZZ=              0.0024
  YYZ=              0.0219  XYZ=              0.0003
 Hexadecapole moment (field-independent basis, Debye-Ang**3):
 XXXX=           -118.3078 YYYY=            -18.9302 ZZZZ=            -18.9597 XXXY=             -0.0062
 XXXZ=             -0.0604 YYYX=             -0.0064 YYYZ=             -0.0001 ZZZX=             -0.0607
 ZZZY=             -0.0017 XXYY=            -22.8837 XXZZ=            -22.8932 YYZZ=             -6.3118
 XXYZ=             -0.0003 YYXZ=             -0.0207 ZZXY=             -0.0020
 N-N= 0.000000000000D+00 E-N=-6.578507970444D+03  KE= 2.749298988920D+03
 No NMR shielding tensors so no spin-rotation constants.
 Leave Link  601 at Mon May 11 09:54:25 2020, MaxMem= 1073741824 cpu:       0.8
 (Enter /home/matheus/.gaussian/g09/l122.exe)
 Counterpoise: doing MCBS calculation for fragment   1
 Leave Link  122 at Mon May 11 09:54:25 2020, MaxMem= 1073741824 cpu:       0.0
 (Enter /home/matheus/.gaussian/g09/l301.exe)
 Basis read from rwf:  (5D, 7F)
 No pseudopotential information found on rwf file.
 There are   138 symmetry adapted basis functions of A   symmetry.
 Integral buffers will be    131072 words long.
 Raffenetti 2 integral format.
 Two-electron integral symmetry is turned on.
   138 basis functions,   198 primitive gaussians,   160 cartesian basis functions
     9 alpha electrons        9 beta electrons
       nuclear repulsion energy        36.6659649233 Hartrees.
 IExCor=10402 DFT=T Ex=LC-B+HF Corr=LYP ExCW=0 ScaHFX=  1.000000
 ScaDFX=  1.000000  1.000000  1.000000  1.000000 ScalE2=  1.000000  1.000000
 IRadAn=      5 IRanWt=     -1 IRanGd=            0 ICorTp=0
  HFx wShort=  0.000000 wLong=  0.470000 cFull=  0.000000 cShort=  0.000000 cLong=  1.000000
  DFx wShort=  0.000000 wLong=  0.470000 cFull=  0.000000 cShort=  0.000000 cLong=  1.000000
 NAtoms=    5 NActive=    4 NUniq=    4 SFac= 1.00D+00 NAtFMM=   60 NAOKFM=F Big=F
 No density basis found on file   718.
 Leave Link  301 at Mon May 11 09:54:25 2020, MaxMem= 1073741824 cpu:       0.2
 (Enter /home/matheus/.gaussian/g09/l302.exe)
 NPDir=0 NMtPBC=     1 NCelOv=     1 NCel=       1 NClECP=     1 NCelD=      1
         NCelK=      1 NCelE2=     1 NClLst=     1 CellRange=     0.0.
 One-electron integrals computed using PRISM.
 NBasis=   138 RedAO= T  NBF=   138
 NBsUse=   138 1.00D-06 NBFU=   138
 Precomputing XC quadrature grid using
 IXCGrd= 2 IRadAn=           5 IRanWt=          -1 IRanGd=           0 AccXCQ= 0.00D+00.
 NRdTot=     344 NPtTot=       92556 NUsed=       95038 NTot=       95070
 NSgBfM=   160   160   160   160   160 NAtAll=     4     4.
 Leave Link  302 at Mon May 11 09:54:25 2020, MaxMem= 1073741824 cpu:       0.7
 (Enter /home/matheus/.gaussian/g09/l303.exe)
 DipDrv:  MaxL=1.
 Leave Link  303 at Mon May 11 09:54:25 2020, MaxMem= 1073741824 cpu:       0.1
 (Enter /home/matheus/.gaussian/g09/l401.exe)
 Harris functional with IExCor=10402 diagonalized for initial guess.
 ExpMin= 2.53D-02 ExpMax= 1.53D+04 ExpMxC= 5.22D+02 IAcc=3 IRadAn=         5 AccDes= 0.00D+00
 HarFok:  IExCor=10402 AccDes= 0.00D+00 IRadAn=         5 IDoV= 1
 ScaDFX=  1.000000  1.000000  1.000000  1.000000
 FoFCou: FMM=F IPFlag=           0 FMFlag=      100000 FMFlg1=           0
         NFxFlg=           0 DoJE=T BraDBF=F KetDBF=T FulRan=T
         Omega=  0.000000  0.000000  1.000000  0.000000  0.000000 ICntrl=     500 IOpCl=  0
         NMat0=    1 NMatS0=    1 NMatT0=    0 NMatD0=    1 NMtDS0=    0 NMtDT0=    0
         I1Cent=           4 NGrid=           0.
 Petite list used in FoFCou.
 Harris En= -147.161457948386    
 Initial guess orbital symmetries:
       Occupied  (A) (A) (A) (A) (A) (A) (A) (A) (A)
       Virtual   (A) (A) (A) (A) (A) (A) (A) (A) (A) (A) (A) (A)
                 (A) (A) (A) (A) (A) (A) (A) (A) (A) (A) (A) (A)
                 (A) (A) (A) (A) (A) (A) (A) (A) (A) (A) (A) (A)
                 (A) (A) (A) (A) (A) (A) (A) (A) (A) (A) (A) (A)
                 (A) (A) (A) (A) (A) (A) (A) (A) (A) (A) (A) (A)
                 (A) (A) (A) (A) (A) (A) (A) (A) (A) (A) (A) (A)
                 (A) (A) (A) (A) (A) (A) (A) (A) (A) (A) (A) (A)
                 (A) (A) (A) (A) (A) (A) (A) (A) (A) (A) (A) (A)
                 (A) (A) (A) (A) (A) (A) (A) (A) (A) (A) (A) (A)
                 (A) (A) (A) (A) (A) (A) (A) (A) (A) (A) (A) (A)
                 (A) (A) (A) (A) (A) (A) (A) (A) (A)
 The electronic state of the initial guess is 1-A.
 Leave Link  401 at Mon May 11 09:54:26 2020, MaxMem= 1073741824 cpu:       2.3
 (Enter /home/matheus/.gaussian/g09/l502.exe)
 Closed shell SCF:
 Requested convergence on RMS density matrix=1.00D-08 within 128 cycles.
 Requested convergence on MAX density matrix=1.00D-06.
 Requested convergence on             energy=1.00D-06.
 No special actions if energy rises.
 Using DIIS extrapolation, IDIIS=  1040.
 Integral symmetry usage will be decided dynamically.
        94980 words used for storage of precomputed grid.
 IEnd=      192360 IEndB=      192360 NGot=  1073741824 MDV=  1073591865
 LenX=  1073591865 LenY=  1073565824
 Fock matrices will be formed incrementally for  20 cycles.

 Cycle   1  Pass 1  IDiag  1:
 FoFJK:  IHMeth= 1 ICntrl=     0 DoSepK=T KAlg= 1 I1Cent= 0 FoldK=F
 FoFCou: FMM=F IPFlag=           0 FMFlag=      100000 FMFlg1=           0
         NFxFlg=           0 DoJE=T BraDBF=F KetDBF=F FulRan=T
         Omega=  0.000000  0.000000  1.000000  0.000000  0.000000 ICntrl=     500 IOpCl=  0
         NMat0=    1 NMatS0=    1 NMatT0=    0 NMatD0=    1 NMtDS0=    0 NMtDT0=    0
         I1Cent=           0 NGrid=           0.
 Symmetry not used in FoFCou.
 E= -151.293173869904    
 DIIS: error= 1.74D-02 at cycle   1 NSaved=   1.
 NSaved= 1 IEnMin= 1 EnMin= -151.293173869904     IErMin= 1 ErrMin= 1.74D-02
 ErrMax= 1.74D-02 EMaxC= 1.00D-01 BMatC= 2.44D-02 BMatP= 2.44D-02
 IDIUse=3 WtCom= 8.26D-01 WtEn= 1.74D-01
 Coeff-Com:  0.100D+01
 Coeff-En:   0.100D+01
 Coeff:      0.100D+01
 Gap=     0.454 Goal=   None    Shift=    0.000
 GapD=    0.454 DampG=2.000 DampE=0.500 DampFc=1.0000 IDamp=-1.
 RMSDP=1.26D-03 MaxDP=3.15D-02              OVMax= 5.69D-02

 Cycle   2  Pass 1  IDiag  1:
 RMSU=  8.89D-04    CP:  1.01D+00
 FoFJK:  IHMeth= 1 ICntrl=     0 DoSepK=T KAlg= 1 I1Cent= 0 FoldK=F
 E= -151.315406779769     Delta-E=       -0.022232909865 Rises=F Damp=F
 DIIS: error= 7.46D-03 at cycle   2 NSaved=   2.
 NSaved= 2 IEnMin= 2 EnMin= -151.315406779769     IErMin= 2 ErrMin= 7.46D-03
 ErrMax= 7.46D-03 EMaxC= 1.00D-01 BMatC= 4.22D-03 BMatP= 2.44D-02
 IDIUse=3 WtCom= 9.25D-01 WtEn= 7.46D-02
 Coeff-Com:  0.245D+00 0.755D+00
 Coeff-En:   0.000D+00 0.100D+01
 Coeff:      0.227D+00 0.773D+00
 Gap=     0.418 Goal=   None    Shift=    0.000
 RMSDP=3.20D-04 MaxDP=6.21D-03 DE=-2.22D-02 OVMax= 1.44D-02

 Cycle   3  Pass 1  IDiag  1:
 RMSU=  2.23D-04    CP:  1.01D+00  1.04D+00
 FoFJK:  IHMeth= 1 ICntrl=     0 DoSepK=T KAlg= 1 I1Cent= 0 FoldK=F
 E= -151.317792129032     Delta-E=       -0.002385349263 Rises=F Damp=F
 DIIS: error= 2.38D-03 at cycle   3 NSaved=   3.
 NSaved= 3 IEnMin= 3 EnMin= -151.317792129032     IErMin= 3 ErrMin= 2.38D-03
 ErrMax= 2.38D-03 EMaxC= 1.00D-01 BMatC= 5.03D-04 BMatP= 4.22D-03
 IDIUse=3 WtCom= 9.76D-01 WtEn= 2.38D-02
 Coeff-Com:  0.227D-01 0.242D+00 0.736D+00
 Coeff-En:   0.000D+00 0.000D+00 0.100D+01
 Coeff:      0.222D-01 0.236D+00 0.742D+00
 Gap=     0.427 Goal=   None    Shift=    0.000
 RMSDP=1.44D-04 MaxDP=3.65D-03 DE=-2.39D-03 OVMax= 7.42D-03

 Cycle   4  Pass 1  IDiag  1:
 RMSU=  7.63D-05    CP:  1.00D+00  1.11D+00  9.53D-01
 FoFJK:  IHMeth= 1 ICntrl=     0 DoSepK=T KAlg= 1 I1Cent= 0 FoldK=F
 E= -151.318168504154     Delta-E=       -0.000376375122 Rises=F Damp=F
 DIIS: error= 6.02D-04 at cycle   4 NSaved=   4.
 NSaved= 4 IEnMin= 4 EnMin= -151.318168504154     IErMin= 4 ErrMin= 6.02D-04
 ErrMax= 6.02D-04 EMaxC= 1.00D-01 BMatC= 4.92D-05 BMatP= 5.03D-04
 IDIUse=3 WtCom= 9.94D-01 WtEn= 6.02D-03
 Coeff-Com: -0.215D-01-0.327D-01 0.198D+00 0.856D+00
 Coeff-En:   0.000D+00 0.000D+00 0.000D+00 0.100D+01
 Coeff:     -0.214D-01-0.325D-01 0.197D+00 0.857D+00
 Gap=     0.425 Goal=   None    Shift=    0.000
 RMSDP=6.37D-05 MaxDP=1.54D-03 DE=-3.76D-04 OVMax= 1.83D-03

 Cycle   5  Pass 1  IDiag  1:
 RMSU=  1.42D-05    CP:  1.00D+00  1.14D+00  1.11D+00  1.05D+00
 FoFJK:  IHMeth= 1 ICntrl=     0 DoSepK=T KAlg= 1 I1Cent= 0 FoldK=F
 E= -151.318209909909     Delta-E=       -0.000041405755 Rises=F Damp=F
 DIIS: error= 8.80D-05 at cycle   5 NSaved=   5.
 NSaved= 5 IEnMin= 5 EnMin= -151.318209909909     IErMin= 5 ErrMin= 8.80D-05
 ErrMax= 8.80D-05 EMaxC= 1.00D-01 BMatC= 3.85D-07 BMatP= 4.92D-05
 IDIUse=1 WtCom= 1.00D+00 WtEn= 0.00D+00
 Coeff-Com:  0.666D-03-0.377D-02-0.390D-01-0.776D-01 0.112D+01
 Coeff:      0.666D-03-0.377D-02-0.390D-01-0.776D-01 0.112D+01
 Gap=     0.425 Goal=   None    Shift=    0.000
[...]
 Closed shell SCF:
 Requested convergence on RMS density matrix=1.00D-08 within 128 cycles.
 Requested convergence on MAX density matrix=1.00D-06.
 Requested convergence on             energy=1.00D-06.
 No special actions if energy rises.
 Using DIIS extrapolation, IDIIS=  1040.
 Integral symmetry usage will be decided dynamically.
       126823 words used for storage of precomputed grid.
 IEnd=      305770 IEndB=      305770 NGot=  1073741824 MDV=  1073505365
 LenX=  1073505365 LenY=  1073452483
 Fock matrices will be formed incrementally for  20 cycles.

 Cycle   1  Pass 1  IDiag  1:
 FoFJK:  IHMeth= 1 ICntrl=     0 DoSepK=T KAlg= 1 I1Cent= 0 FoldK=F
 FoFCou: FMM=F IPFlag=           0 FMFlag=      100000 FMFlg1=           0
         NFxFlg=           0 DoJE=T BraDBF=F KetDBF=F FulRan=T
         Omega=  0.000000  0.000000  1.000000  0.000000  0.000000 ICntrl=     500 IOpCl=  0
         NMat0=    1 NMatS0=    1 NMatT0=    0 NMatD0=    1 NMtDS0=    0 NMtDT0=    0
         I1Cent=           0 NGrid=           0.
 Symmetry not used in FoFCou.
 E= -2753.41756324300    
 DIIS: error= 2.12D-04 at cycle   1 NSaved=   1.
 NSaved= 1 IEnMin= 1 EnMin= -2753.41756324300     IErMin= 1 ErrMin= 2.12D-04
 ErrMax= 2.12D-04 EMaxC= 1.00D-01 BMatC= 6.07D-06 BMatP= 6.07D-06
 IDIUse=3 WtCom= 9.98D-01 WtEn= 2.12D-03
 Coeff-Com:  0.100D+01
 Coeff-En:   0.100D+01
 Coeff:      0.100D+01
 Gap=     0.540 Goal=   None    Shift=    0.000
 RMSDP=1.31D-05 MaxDP=5.81D-04              OVMax= 3.49D-04

 Cycle   2  Pass 1  IDiag  1:
 RMSU=  9.28D-06    CP:  1.00D+00
 FoFJK:  IHMeth= 1 ICntrl=     0 DoSepK=T KAlg= 1 I1Cent= 0 FoldK=F
 E= -2753.41756396822     Delta-E=       -0.000000725220 Rises=F Damp=F
 DIIS: error= 6.65D-06 at cycle   2 NSaved=   2.
 NSaved= 2 IEnMin= 2 EnMin= -2753.41756396822     IErMin= 2 ErrMin= 6.65D-06
 ErrMax= 6.65D-06 EMaxC= 1.00D-01 BMatC= 5.07D-09 BMatP= 6.07D-06
 IDIUse=1 WtCom= 1.00D+00 WtEn= 0.00D+00
 Coeff-Com: -0.889D-02 0.101D+01
 Coeff:     -0.889D-02 0.101D+01
 Gap=     0.539 Goal=   None    Shift=    0.000
 RMSDP=1.22D-06 MaxDP=4.58D-05 DE=-7.25D-07 OVMax= 5.34D-05

 Cycle   3  Pass 1  IDiag  1:
 RMSU=  4.85D-07    CP:  1.00D+00  1.08D+00
 FoFJK:  IHMeth= 1 ICntrl=     0 DoSepK=T KAlg= 1 I1Cent= 0 FoldK=F
 E= -2753.41756397692     Delta-E=       -0.000000008697 Rises=F Damp=F
 DIIS: error= 9.71D-07 at cycle   3 NSaved=   3.
 NSaved= 3 IEnMin= 3 EnMin= -2753.41756397692     IErMin= 3 ErrMin= 9.71D-07
 ErrMax= 9.71D-07 EMaxC= 1.00D-01 BMatC= 1.96D-10 BMatP= 5.07D-09
 IDIUse=1 WtCom= 1.00D+00 WtEn= 0.00D+00
 Coeff-Com: -0.195D-03-0.646D-01 0.106D+01
 Coeff:     -0.195D-03-0.646D-01 0.106D+01
 Gap=     0.539 Goal=   None    Shift=    0.000
 RMSDP=1.63D-07 MaxDP=5.12D-06 DE=-8.70D-09 OVMax= 1.04D-05

 Cycle   4  Pass 1  IDiag  1:
 RMSU=  6.34D-08    CP:  1.00D+00  1.08D+00  1.18D+00
 FoFJK:  IHMeth= 1 ICntrl=     0 DoSepK=T KAlg= 1 I1Cent= 0 FoldK=F
 E= -2753.41756397720     Delta-E=       -0.000000000282 Rises=F Damp=F
 DIIS: error= 6.32D-07 at cycle   4 NSaved=   4.
 NSaved= 4 IEnMin= 4 EnMin= -2753.41756397720     IErMin= 4 ErrMin= 6.32D-07
 ErrMax= 6.32D-07 EMaxC= 1.00D-01 BMatC= 4.81D-11 BMatP= 1.96D-10
 IDIUse=1 WtCom= 1.00D+00 WtEn= 0.00D+00
 Coeff-Com:  0.275D-03-0.597D-01 0.356D+00 0.703D+00
 Coeff:      0.275D-03-0.597D-01 0.356D+00 0.703D+00
 Gap=     0.539 Goal=   None    Shift=    0.000
 RMSDP=2.99D-08 MaxDP=1.24D-06 DE=-2.82D-10 OVMax= 1.60D-06

 Cycle   5  Pass 1  IDiag  1:
 RMSU=  1.62D-08    CP:  1.00D+00  1.08D+00  1.21D+00  1.03D+00
 FoFJK:  IHMeth= 1 ICntrl=     0 DoSepK=T KAlg= 1 I1Cent= 0 FoldK=F
 E= -2753.41756397723     Delta-E=       -0.000000000031 Rises=F Damp=F
 DIIS: error= 6.63D-08 at cycle   5 NSaved=   5.
 NSaved= 5 IEnMin= 5 EnMin= -2753.41756397723     IErMin= 5 ErrMin= 6.63D-08
 ErrMax= 6.63D-08 EMaxC= 1.00D-01 BMatC= 2.76D-13 BMatP= 4.81D-11
 IDIUse=1 WtCom= 1.00D+00 WtEn= 0.00D+00
 Coeff-Com: -0.588D-05 0.387D-02-0.424D-01-0.298D-01 0.107D+01
 Coeff:     -0.588D-05 0.387D-02-0.424D-01-0.298D-01 0.107D+01
 Gap=     0.539 Goal=   None    Shift=    0.000
 RMSDP=1.09D-08 MaxDP=4.35D-07 DE=-3.14D-11 OVMax= 5.13D-07

 Cycle   6  Pass 1  IDiag  1:
 RMSU=  1.60D-09    CP:  1.00D+00  1.08D+00  1.21D+00  1.10D+00  1.18D+00
 FoFJK:  IHMeth= 1 ICntrl=     0 DoSepK=T KAlg= 1 I1Cent= 0 FoldK=F
 E= -2753.41756397724     Delta-E=       -0.000000000002 Rises=F Damp=F
 DIIS: error= 1.45D-08 at cycle   6 NSaved=   6.
 NSaved= 6 IEnMin= 6 EnMin= -2753.41756397724     IErMin= 6 ErrMin= 1.45D-08
 ErrMax= 1.45D-08 EMaxC= 1.00D-01 BMatC= 2.02D-14 BMatP= 2.76D-13
 IDIUse=1 WtCom= 1.00D+00 WtEn= 0.00D+00
 Coeff-Com: -0.116D-04 0.304D-02-0.221D-01-0.293D-01 0.212D+00 0.837D+00
 Coeff:     -0.116D-04 0.304D-02-0.221D-01-0.293D-01 0.212D+00 0.837D+00
 Gap=     0.539 Goal=   None    Shift=    0.000
 RMSDP=1.35D-09 MaxDP=5.01D-08 DE=-1.82D-12 OVMax= 8.69D-08

 SCF Done:  E(RLC-B+HF-LYP) =  -2753.41756398     A.U. after    6 cycles
             Convg  =    0.1349D-08             -V/T =  2.0015
 KE= 2.749364296432D+03 PE=-6.578579741031D+03 EE= 1.075797880622D+03
 Leave Link  502 at Mon May 11 10:17:16 2020, MaxMem= 1073741824 cpu:     129.7
 (Enter /home/matheus/.gaussian/g09/l122.exe)
 Restoring MOs from calculation   4 to rwf.
 Counterpoise: doing MCBS calculation for fragment   1
 Leave Link  122 at Mon May 11 10:17:16 2020, MaxMem= 1073741824 cpu:       0.0
 (Enter /home/matheus/.gaussian/g09/l301.exe)
 Basis read from rwf:  (5D, 7F)
 No pseudopotential information found on rwf file.
 There are   138 symmetry adapted basis functions of A   symmetry.
 Integral buffers will be    131072 words long.
 Raffenetti 2 integral format.
 Two-electron integral symmetry is turned on.
   138 basis functions,   198 primitive gaussians,   160 cartesian basis functions
     9 alpha electrons        9 beta electrons
       nuclear repulsion energy        36.6659649233 Hartrees.
 IExCor=10402 DFT=T Ex=LC-B+HF Corr=LYP ExCW=0 ScaHFX=  1.000000
 ScaDFX=  1.000000  1.000000  1.000000  1.000000 ScalE2=  1.000000  1.000000
 IRadAn=      5 IRanWt=     -1 IRanGd=            0 ICorTp=0
  HFx wShort=  0.000000 wLong=  0.470000 cFull=  0.000000 cShort=  0.000000 cLong=  1.000000
  DFx wShort=  0.000000 wLong=  0.470000 cFull=  0.000000 cShort=  0.000000 cLong=  1.000000
 NAtoms=    5 NActive=    4 NUniq=    4 SFac= 1.00D+00 NAtFMM=   60 NAOKFM=F Big=F
 No density basis found on file   718.
 Leave Link  301 at Mon May 11 10:17:16 2020, MaxMem= 1073741824 cpu:       0.2
 (Enter /home/matheus/.gaussian/g09/l302.exe)
 NPDir=0 NMtPBC=     1 NCelOv=     1 NCel=       1 NClECP=     1 NCelD=      1
         NCelK=      1 NCelE2=     1 NClLst=     1 CellRange=     0.0.
 One-electron integrals computed using PRISM.
 NBasis=   138 RedAO= T  NBF=   138
 NBsUse=   138 1.00D-06 NBFU=   138
 Precomputing XC quadrature grid using
 IXCGrd= 2 IRadAn=           5 IRanWt=          -1 IRanGd=           0 AccXCQ= 0.00D+00.
 NRdTot=     344 NPtTot=       92556 NUsed=       95038 NTot=       95070
 NSgBfM=   160   160   160   160   160 NAtAll=     4     4.
 Leave Link  302 at Mon May 11 10:17:16 2020, MaxMem= 1073741824 cpu:       0.8
 (Enter /home/matheus/.gaussian/g09/l303.exe)
 DipDrv:  MaxL=1.
 Leave Link  303 at Mon May 11 10:17:16 2020, MaxMem= 1073741824 cpu:       0.2
 (Enter /home/matheus/.gaussian/g09/l401.exe)
 Initial guess read from the read-write file.
 Guess basis will be translated and rotated to current coordinates.
 Initial guess orbital symmetries:
       Occupied  (A) (A) (A) (A) (A) (A) (A) (A) (A)
       Virtual   (A) (A) (A) (A) (A) (A) (A) (A) (A) (A) (A) (A)
                 (A) (A) (A) (A) (A) (A) (A) (A) (A) (A) (A) (A)
                 (A) (A) (A) (A) (A) (A) (A) (A) (A) (A) (A) (A)
                 (A) (A) (A) (A) (A) (A) (A) (A) (A) (A) (A) (A)
                 (A) (A) (A) (A) (A) (A) (A) (A) (A) (A) (A) (A)
                 (A) (A) (A) (A) (A) (A) (A) (A) (A) (A) (A) (A)
                 (A) (A) (A) (A) (A) (A) (A) (A) (A) (A) (A) (A)
                 (A) (A) (A) (A) (A) (A) (A) (A) (A) (A) (A) (A)
                 (A) (A) (A) (A) (A) (A) (A) (A) (A) (A) (A) (A)
                 (A) (A) (A) (A) (A) (A) (A) (A) (A) (A) (A) (A)
                 (A) (A) (A) (A) (A) (A) (A) (A) (A)
 The electronic state of the initial guess is 1-A.
 Generating alternative initial guess.
 Harris functional with IExCor=10402 diagonalized for initial guess.
 ExpMin= 2.53D-02 ExpMax= 1.53D+04 ExpMxC= 5.22D+02 IAcc=3 IRadAn=         5 AccDes= 0.00D+00
 HarFok:  IExCor=10402 AccDes= 0.00D+00 IRadAn=         5 IDoV= 1
 ScaDFX=  1.000000  1.000000  1.000000  1.000000
 FoFCou: FMM=F IPFlag=           0 FMFlag=      100000 FMFlg1=           0
         NFxFlg=           0 DoJE=T BraDBF=F KetDBF=T FulRan=T
         Omega=  0.000000  0.000000  1.000000  0.000000  0.000000 ICntrl=     500 IOpCl=  0
         NMat0=    1 NMatS0=    1 NMatT0=    0 NMatD0=    1 NMtDS0=    0 NMtDT0=    0
         I1Cent=           4 NGrid=           0.
 Petite list used in FoFCou.
 Harris En= -147.161457948409    
 Leave Link  401 at Mon May 11 10:17:16 2020, MaxMem= 1073741824 cpu:       2.7
 (Enter /home/matheus/.gaussian/g09/l502.exe)
 Closed shell SCF:
 Requested convergence on RMS density matrix=1.00D-08 within 128 cycles.
 Requested convergence on MAX density matrix=1.00D-06.
 Requested convergence on             energy=1.00D-06.
 No special actions if energy rises.
 Using DIIS extrapolation, IDIIS=  1040.
 Integral symmetry usage will be decided dynamically.
        94980 words used for storage of precomputed grid.
 IEnd=      192360 IEndB=      192360 NGot=  1073741824 MDV=  1073591865
 LenX=  1073591865 LenY=  1073565824
 Fock matrices will be formed incrementally for  20 cycles.

 Cycle   1  Pass 1  IDiag  1:
 FoFJK:  IHMeth= 1 ICntrl=     0 DoSepK=T KAlg= 1 I1Cent= 0 FoldK=F
 FoFCou: FMM=F IPFlag=           0 FMFlag=      100000 FMFlg1=           0
         NFxFlg=           0 DoJE=T BraDBF=F KetDBF=F FulRan=T
         Omega=  0.000000  0.000000  1.000000  0.000000  0.000000 ICntrl=     500 IOpCl=  0
         NMat0=    1 NMatS0=    1 NMatT0=    0 NMatD0=    1 NMtDS0=    0 NMtDT0=    0
         I1Cent=           0 NGrid=           0.
 Symmetry not used in FoFCou.
 E= -151.318211204294    
 DIIS: error= 9.20D-07 at cycle   1 NSaved=   1.
 NSaved= 1 IEnMin= 1 EnMin= -151.318211204294     IErMin= 1 ErrMin= 9.20D-07
 ErrMax= 9.20D-07 EMaxC= 1.00D-01 BMatC= 9.60D-11 BMatP= 9.60D-11
 IDIUse=1 WtCom= 1.00D+00 WtEn= 0.00D+00
 Coeff-Com:  0.100D+01
 Coeff:      0.100D+01
 Gap=     0.425 Goal=   None    Shift=    0.000
 RMSDP=8.47D-08 MaxDP=1.95D-06              OVMax= 3.07D-06

 Cycle   2  Pass 1  IDiag  1:
 RMSU=  5.99D-08    CP:  1.00D+00
 FoFJK:  IHMeth= 1 ICntrl=     0 DoSepK=T KAlg= 1 I1Cent= 0 FoldK=F
 E= -151.318211204390     Delta-E=       -0.000000000096 Rises=F Damp=F
 DIIS: error= 1.92D-07 at cycle   2 NSaved=   2.
 NSaved= 2 IEnMin= 2 EnMin= -151.318211204390     IErMin= 2 ErrMin= 1.92D-07
 ErrMax= 1.92D-07 EMaxC= 1.00D-01 BMatC= 4.74D-12 BMatP= 9.60D-11
 IDIUse=1 WtCom= 1.00D+00 WtEn= 0.00D+00
 Coeff-Com: -0.122D+00 0.112D+01
 Coeff:     -0.122D+00 0.112D+01
 Gap=     0.425 Goal=   None    Shift=    0.000
 RMSDP=2.03D-08 MaxDP=5.74D-07 DE=-9.61D-11 OVMax= 1.11D-06

 Cycle   3  Pass 1  IDiag  1:
 RMSU=  6.76D-09    CP:  1.00D+00  1.21D+00
 FoFJK:  IHMeth= 1 ICntrl=     0 DoSepK=T KAlg= 1 I1Cent= 0 FoldK=F
 E= -151.318211204396     Delta-E=       -0.000000000006 Rises=F Damp=F
 DIIS: error= 1.24D-07 at cycle   3 NSaved=   3.
 NSaved= 3 IEnMin= 3 EnMin= -151.318211204396     IErMin= 3 ErrMin= 1.24D-07
 ErrMax= 1.24D-07 EMaxC= 1.00D-01 BMatC= 1.67D-12 BMatP= 4.74D-12
 IDIUse=1 WtCom= 1.00D+00 WtEn= 0.00D+00
 Coeff-Com: -0.698D-01 0.415D+00 0.655D+00
 Coeff:     -0.698D-01 0.415D+00 0.655D+00
 Gap=     0.425 Goal=   None    Shift=    0.000
 RMSDP=6.24D-09 MaxDP=1.37D-07 DE=-5.80D-12 OVMax= 4.27D-07

 SCF Done:  E(RLC-B+HF-LYP) =  -151.318211204     A.U. after    3 cycles
             Convg  =    0.6240D-08             -V/T =  2.0055
 KE= 1.504893890148D+02 PE=-4.314668796517D+02 EE= 9.299331450923D+01
 Leave Link  502 at Mon May 11 10:17:20 2020, MaxMem= 1073741824 cpu:      26.8
 (Enter /home/matheus/.gaussian/g09/l122.exe)
 Restoring MOs from calculation   5 to rwf.
 Counterpoise: doing MCBS calculation for fragment   2
 Leave Link  122 at Mon May 11 10:17:20 2020, MaxMem= 1073741824 cpu:       0.0
 (Enter /home/matheus/.gaussian/g09/l301.exe)
 Basis read from rwf:  (5D, 7F)
 No pseudopotential information found on rwf file.
 There are    59 symmetry adapted basis functions of A   symmetry.
 Integral buffers will be    131072 words long.
 Raffenetti 2 integral format.
 Two-electron integral symmetry is turned on.
    59 basis functions,   217 primitive gaussians,    69 cartesian basis functions
    18 alpha electrons       18 beta electrons
       nuclear repulsion energy         0.0000000000 Hartrees.
 IExCor=10402 DFT=T Ex=LC-B+HF Corr=LYP ExCW=0 ScaHFX=  1.000000
 ScaDFX=  1.000000  1.000000  1.000000  1.000000 ScalE2=  1.000000  1.000000
 IRadAn=      5 IRanWt=     -1 IRanGd=            0 ICorTp=0
  HFx wShort=  0.000000 wLong=  0.470000 cFull=  0.000000 cShort=  0.000000 cLong=  1.000000
  DFx wShort=  0.000000 wLong=  0.470000 cFull=  0.000000 cShort=  0.000000 cLong=  1.000000
 NAtoms=    5 NActive=    1 NUniq=    1 SFac= 1.00D+00 NAtFMM=   60 NAOKFM=F Big=F
 No density basis found on file   718.
 Leave Link  301 at Mon May 11 10:17:20 2020, MaxMem= 1073741824 cpu:       0.2
 (Enter /home/matheus/.gaussian/g09/l302.exe)
 NPDir=0 NMtPBC=     1 NCelOv=     1 NCel=       1 NClECP=     1 NCelD=      1
         NCelK=      1 NCelE2=     1 NClLst=     1 CellRange=     0.0.
 One-electron integrals computed using PRISM.
 NBasis=    59 RedAO= T  NBF=    59
 NBsUse=    59 1.00D-06 NBFU=    59
 Precomputing XC quadrature grid using
 IXCGrd= 2 IRadAn=           5 IRanWt=          -1 IRanGd=           0 AccXCQ= 0.00D+00.
 NRdTot=      81 NPtTot=       30352 NUsed=       30981 NTot=       31013
 NSgBfM=    69    69    69    69    69 NAtAll=     1     1.
 Leave Link  302 at Mon May 11 10:17:20 2020, MaxMem= 1073741824 cpu:       0.7
 (Enter /home/matheus/.gaussian/g09/l303.exe)
 DipDrv:  MaxL=1.
 Leave Link  303 at Mon May 11 10:17:20 2020, MaxMem= 1073741824 cpu:       0.2
 (Enter /home/matheus/.gaussian/g09/l401.exe)
 Initial guess read from the read-write file.
 Guess basis will be translated and rotated to current coordinates.
 Initial guess orbital symmetries:
       Occupied  (A) (A) (A) (A) (A) (A) (A) (A) (A) (A) (A) (A)
                 (A) (A) (A) (A) (A) (A)
       Virtual   (A) (A) (A) (A) (A) (A) (A) (A) (A) (A) (A) (A)
                 (A) (A) (A) (A) (A) (A) (A) (A) (A) (A) (A) (A)
                 (A) (A) (A) (A) (A) (A) (A) (A) (A) (A) (A) (A)
                 (A) (A) (A) (A) (A)
 The electronic state of the initial guess is 1-A.
 Generating alternative initial guess.
 Harris functional with IExCor=10402 diagonalized for initial guess.
 ExpMin= 4.00D-02 ExpMax= 1.17D+07 ExpMxC= 1.33D+04 IAcc=3 IRadAn=         5 AccDes= 0.00D+00
 HarFok:  IExCor=10402 AccDes= 0.00D+00 IRadAn=         5 IDoV= 1
 ScaDFX=  1.000000  1.000000  1.000000  1.000000
 FoFCou: FMM=F IPFlag=           0 FMFlag=      100000 FMFlg1=           0
         NFxFlg=           0 DoJE=T BraDBF=F KetDBF=T FulRan=T
         Omega=  0.000000  0.000000  1.000000  0.000000  0.000000 ICntrl=     500 IOpCl=  0
         NMat0=    1 NMatS0=    1 NMatT0=    0 NMatD0=    1 NMtDS0=    0 NMtDT0=    0
         I1Cent=           4 NGrid=           0.
 Petite list used in FoFCou.
 Harris En= -2744.51485235229    
 Leave Link  401 at Mon May 11 10:17:20 2020, MaxMem= 1073741824 cpu:       1.1
 (Enter /home/matheus/.gaussian/g09/l502.exe)
 Closed shell SCF:
 Requested convergence on RMS density matrix=1.00D-08 within 128 cycles.
 Requested convergence on MAX density matrix=1.00D-06.
 Requested convergence on             energy=1.00D-06.
 No special actions if energy rises.
 Using DIIS extrapolation, IDIIS=  1040.
 Integral symmetry usage will be decided dynamically.
        30923 words used for storage of precomputed grid.
 IEnd=       64406 IEndB=       64406 NGot=  1073741824 MDV=  1073698889
 LenX=  1073698889 LenY=  1073693687
 Fock matrices will be formed incrementally for  20 cycles.

 Cycle   1  Pass 1  IDiag  1:
 FoFJK:  IHMeth= 1 ICntrl=     0 DoSepK=T KAlg= 1 I1Cent= 0 FoldK=F
 FoFCou: FMM=F IPFlag=           0 FMFlag=      100000 FMFlg1=           0
         NFxFlg=           0 DoJE=T BraDBF=F KetDBF=F FulRan=T
         Omega=  0.000000  0.000000  1.000000  0.000000  0.000000 ICntrl=     500 IOpCl=  0
         NMat0=    1 NMatS0=    1 NMatT0=    0 NMatD0=    1 NMtDS0=    0 NMtDT0=    0
         I1Cent=           0 NGrid=           0.
 Symmetry not used in FoFCou.
 E= -2753.41754223393    
 DIIS: error= 9.95D-14 at cycle   1 NSaved=   1.
 NSaved= 1 IEnMin= 1 EnMin= -2753.41754223393     IErMin= 1 ErrMin= 9.95D-14
 ErrMax= 9.95D-14 EMaxC= 1.00D-01 BMatC= 3.08D-25 BMatP= 3.08D-25
 IDIUse=1 WtCom= 1.00D+00 WtEn= 0.00D+00
 Coeff-Com:  0.100D+01
 Coeff:      0.100D+01
 Gap=     0.595 Goal=   None    Shift=    0.000
 RMSDP=7.71D-15 MaxDP=1.11D-13              OVMax= 6.20D-14

 SCF Done:  E(RLC-B+HF-LYP) =  -2753.41754223     A.U. after    1 cycles
             Convg  =    0.7706D-14             -V/T =  2.0015
 KE= 2.749372504928D+03 PE=-6.578588569976D+03 EE= 1.075798522814D+03
 Leave Link  502 at Mon May 11 10:17:22 2020, MaxMem= 1073741824 cpu:      12.7
 (Enter /home/matheus/.gaussian/g09/l122.exe)
 Restoring MOs from calculation   1 to rwf.
 Counterpoise: corrected energy =   -2904.735967325400
 Counterpoise: BSSE energy =       0.000027209642
 Leave Link  122 at Mon May 11 10:17:22 2020, MaxMem= 1073741824 cpu:       0.0
 (Enter /home/matheus/.gaussian/g09/l108.exe)
 Scan completed.

 Summary of the potential surface scan:
   N      R1          SCF    
 ----  ---------  -----------
    1     3.0000  -2753.41754
    2     3.1000  -2753.41754
    3     3.2000  -2753.41754
    4     3.3000  -2753.41754
    5     3.4000  -2753.41754
    6     3.5000  -2753.41754
    7     3.6000  -2753.41754
    8     3.7000  -2753.41754
    9     3.8000  -2753.41754
   10     3.9000  -2753.41754
   11     4.0000  -2753.41754
   12     4.1000  -2753.41754
   13     4.2000  -2753.41754
   14     4.3000  -2753.41754
   15     4.4000  -2753.41754
   16     4.5000  -2753.41754
   17     4.6000  -2753.41754
   18     4.7000  -2753.41754
   19     4.8000  -2753.41754
   20     4.9000  -2753.41754
   21     5.0000  -2753.41754
 ----  ---------  -----------
  
 Leave Link  108 at Mon May 11 10:17:22 2020, MaxMem= 1073741824 cpu:       0.0
 (Enter /home/matheus/.gaussian/g09/l9999.exe)
 1\1\GINC-REDGIANT\Scan\RLC-BLYP\Aug-CC-pVTZ\H2Kr1O2\MATHEUS\11-May-202
 0\1\\#p lc-blyp/aug-cc-PVTz int=ultrafine counterpoise=2 Scan\\TCC\\0,
 1\O,0,0.,0.,0.725\O,0,0.,0.,-0.725\H,0,0.1595341571,0.9047631646,1.023
 5104166\H,0,0.,0.9187205947,-1.0235104166\Kr,0,0.,R1,0.\\R1=3.,s,20,0.
 1\\Version=EM64L-G09RevC.01\State=1-A\HF=-2753.4175422,-2753.4175422,-
 2753.4175422,-2753.4175422,-2753.4175422,-2753.4175422,-2753.4175422,-
 2753.4175422,-2753.4175422,-2753.4175422,-2753.4175422,-2753.4175422,-
 2753.4175422,-2753.4175422,-2753.4175422,-2753.4175422,-2753.4175422,-
 2753.4175422,-2753.4175422,-2753.4175422,-2753.4175422\RMSD=1.334e-09,
 5.265e-11,1.630e-11,9.948e-12,5.941e-12,3.614e-12,2.189e-12,1.322e-12,
 8.015e-13,4.937e-13,3.046e-13,1.862e-13,1.075e-13,6.208e-14,4.064e-14,
 2.665e-14,1.483e-14,9.604e-15,5.695e-15,4.947e-15,7.706e-15\PG=C01 [X(
 H2Kr1O2)]\\@


 NOT WHAT WE DID SHALL BE THE TEST
 WHEN ACT AND WILL ARE DONE,
 BUT WHAT OUR LORD INFERS WE WOULD-
 HAD WE DIVINER BEEN.
           EMILY DICKINSON  POEMS NO. CLXXV
 Job cpu time:  0 days  3 hours 14 minutes 49.3 seconds.
 File lengths (MBytes):  RWF=     33 Int=      0 D2E=      0 Chk=      8 Scr=      1
 Normal termination of Gaussian 09 at Mon May 11 10:17:22 2020.
