 Entering Gaussian System, Link 0=g09
 Input=.tcc/Inputs/Inputs-lc-blyp-default/H2O2-Kr_0.com
 Output=.tcc/Logs/Logs-lc-blyp-default/H2O2-Kr_inf.log
 Initial command:
 /home/matheus/.gaussian/g09/l1.exe /home/matheus/.gaussian/g09/scratch/Gau-12044.inp -scrdir=/home/matheus/.gaussian/g09/scratch/
 Entering Link 1 = /home/matheus/.gaussian/g09/l1.exe PID=     12046.
  
 Copyright (c) 1988,1990,1992,1993,1995,1998,2003,2009,2011,
            Gaussian, Inc.  All Rights Reserved.
  
 This is part of the Gaussian(R) 09 program.  It is based on
 the Gaussian(R) 03 system (copyright 2003, Gaussian, Inc.),
 the Gaussian(R) 98 system (copyright 1998, Gaussian, Inc.),
 the Gaussian(R) 94 system (copyright 1995, Gaussian, Inc.),
 the Gaussian 92(TM) system (copyright 1992, Gaussian, Inc.),
 the Gaussian 90(TM) system (copyright 1990, Gaussian, Inc.),
 the Gaussian 88(TM) system (copyright 1988, Gaussian, Inc.),
 the Gaussian 86(TM) system (copyright 1986, Carnegie Mellon
 University), and the Gaussian 82(TM) system (copyright 1983,
 Carnegie Mellon University). Gaussian is a federally registered
 trademark of Gaussian, Inc.
  
 This software contains proprietary and confidential information,
 including trade secrets, belonging to Gaussian, Inc.
  
 This software is provided under written license and may be
 used, copied, transmitted, or stored only in accord with that
 written license.
  
 The following legend is applicable only to US Government
 contracts under FAR:
  
                    RESTRICTED RIGHTS LEGEND
  
 Use, reproduction and disclosure by the US Government is
 subject to restrictions as set forth in subparagraphs (a)
 and (c) of the Commercial Computer Software - Restricted
 Rights clause in FAR 52.227-19.
  
 Gaussian, Inc.
 340 Quinnipiac St., Bldg. 40, Wallingford CT 06492
  
  
 ---------------------------------------------------------------
 Warning -- This program may not be used in any manner that
 competes with the business of Gaussian, Inc. or will provide
 assistance to any competitor of Gaussian, Inc.  The licensee
 of this program is prohibited from giving any competitor of
 Gaussian, Inc. access to this program.  By using this program,
 the user acknowledges that Gaussian, Inc. is engaged in the
 business of creating and licensing software in the field of
 computational chemistry and represents and warrants to the
 licensee that it is not a competitor of Gaussian, Inc. and that
 it will not use this program in any manner prohibited above.
 ---------------------------------------------------------------
  

 Cite this work as:
 Gaussian 09, Revision C.01,
 M. J. Frisch, G. W. Trucks, H. B. Schlegel, G. E. Scuseria, 
 M. A. Robb, J. R. Cheeseman, G. Scalmani, V. Barone, B. Mennucci, 
 G. A. Petersson, H. Nakatsuji, M. Caricato, X. Li, H. P. Hratchian, 
 A. F. Izmaylov, J. Bloino, G. Zheng, J. L. Sonnenberg, M. Hada, 
 M. Ehara, K. Toyota, R. Fukuda, J. Hasegawa, M. Ishida, T. Nakajima, 
 Y. Honda, O. Kitao, H. Nakai, T. Vreven, J. A. Montgomery, Jr., 
 J. E. Peralta, F. Ogliaro, M. Bearpark, J. J. Heyd, E. Brothers, 
 K. N. Kudin, V. N. Staroverov, T. Keith, R. Kobayashi, J. Normand, 
 K. Raghavachari, A. Rendell, J. C. Burant, S. S. Iyengar, J. Tomasi, 
 M. Cossi, N. Rega, J. M. Millam, M. Klene, J. E. Knox, J. B. Cross, 
 V. Bakken, C. Adamo, J. Jaramillo, R. Gomperts, R. E. Stratmann, 
 O. Yazyev, A. J. Austin, R. Cammi, C. Pomelli, J. W. Ochterski, 
 R. L. Martin, K. Morokuma, V. G. Zakrzewski, G. A. Voth, 
 P. Salvador, J. J. Dannenberg, S. Dapprich, A. D. Daniels, 
 O. Farkas, J. B. Foresman, J. V. Ortiz, J. Cioslowski, 
 and D. J. Fox, Gaussian, Inc., Wallingford CT, 2010.
 
 ******************************************
 Gaussian 09:  EM64L-G09RevC.01 23-Sep-2011
                13-May-2020 
 ******************************************
 %mem=8GB
 %nproc=8
 Will use up to    8 processors via shared memory.
 ---------------------------------------------------
 #p lc-blyp/aug-cc-PVTz int=ultrafine counterpoise=2
 ---------------------------------------------------
 1/38=1,62=2/1;
 2/12=2,17=6,18=5,40=1/2;
 1/38=1,53=5172,62=2/22;
 3/5=16,6=1,7=10,11=2,16=1,25=1,30=1,74=1000402,75=-5/1,2,3;
 4//1;
 5/5=2,38=5/2;
 6/7=2,8=2,9=2,10=2,28=1/1;
 1/53=4052,62=2,63=1/22;
 3/5=7,6=11,7=10,11=2,16=1,25=1,30=1,74=1000402,75=-5,82=7/1,2,3;
 4//1;
 5/5=2,38=5/2;
 6/7=2,8=2,9=2,10=2,28=1/1;
 1/53=3042,62=2,63=2/22;
 3/5=7,6=11,7=10,11=2,16=1,25=1,30=1,74=1000402,75=-5,82=7/1,2,3;
 4//1;
 5/5=2,38=5/2;
 6/7=2,8=2,9=2,10=2,28=1/1;
 1/53=2032,62=2,63=3/22;
 3/5=7,6=11,7=10,11=2,16=1,25=1,30=1,74=1000402,75=-5,82=7/1,2,3;
 4//1;
 5/5=2,38=5/2;
 6/7=2,8=2,9=2,10=2,28=1/1;
 1/53=1022,62=2,63=4/22;
 3/5=7,6=11,7=10,11=2,16=1,25=1,30=1,74=1000402,75=-5,82=7/1,2,3;
 4//1;
 5/5=2,38=5/2;
 6/7=2,8=2,9=2,10=2,28=1/1;
 1/53=5014,62=2,63=5/22;
 99/5=1,9=1/99;
 Leave Link    1 at Wed May 13 12:11:55 2020, MaxMem= 1073741824 cpu:       0.1
 (Enter /home/matheus/.gaussian/g09/l101.exe)
 ---
 TCC
 ---
 Charge =  0 Multiplicity = 1 in supermolecule
 Charge =  0 Multiplicity = 1 in fragment  1.
 Charge =  0 Multiplicity = 1 in fragment  2.
 Symbolic Z-Matrix:
 O(Fragment=1)         0.        0.        0.725 
 O(Fragment=1)         0.        0.       -0.725 
 H(Fragment=1)         0.        0.91872   1.02351 
 H(Fragment=1)         0.        0.91872  -1.02351 
 Kr(Fragment=2)        0.       R1        0. 
       Variables:
  R1                   15.                       
 
 NAtoms=      5 NQM=        0 NQMF=       0 NMMI=      5 NMMIF=      0
                NMic=       0 NMicF=      0.
                    Isotopes and Nuclear Properties:
 (Nuclear quadrupole moments (NQMom) in fm**2, nuclear magnetic moments (NMagM)
  in nuclear magnetons)

  Atom         1           2           3           4           5
 IAtWgt=          16          16           1           1          84
 AtmWgt=  15.9949146  15.9949146   1.0078250   1.0078250  83.9115064
 NucSpn=           0           0           1           1           0
 AtZEff=   0.0000000   0.0000000   0.0000000   0.0000000   0.0000000
 NQMom=    0.0000000   0.0000000   0.0000000   0.0000000   0.0000000
 NMagM=    0.0000000   0.0000000   2.7928460   2.7928460   0.0000000
 Leave Link  101 at Wed May 13 12:11:55 2020, MaxMem= 1073741824 cpu:       0.3
 (Enter /home/matheus/.gaussian/g09/l202.exe)
                          Input orientation:                          
 ---------------------------------------------------------------------
 Center     Atomic      Atomic             Coordinates (Angstroms)
 Number     Number       Type             X           Y           Z
 ---------------------------------------------------------------------
      1          8           0        0.000000    0.000000    0.725000
      2          8           0        0.000000    0.000000   -0.725000
      3          1           0        0.000000    0.918721    1.023510
      4          1           0        0.000000    0.918721   -1.023510
      5         36           0        0.000000   15.000000    0.000000
 ---------------------------------------------------------------------
                    Distance matrix (angstroms):
                    1          2          3          4          5
     1  O    0.000000
     2  O    1.450000   0.000000
     3  H    0.966000   1.975180   0.000000
     4  H    1.975180   0.966000   2.047021   0.000000
     5  Kr  15.017511  15.017511  14.118428  14.118428   0.000000
 Stoichiometry    H2KrO2
 Framework group  C2V[C2(Kr),SGV(H2O2)]
 Deg. of freedom     4
 Full point group                 C2V     NOp   4
 Largest Abelian subgroup         C2V     NOp   4
 Largest concise Abelian subgroup C2      NOp   2
                         Standard orientation:                         
 ---------------------------------------------------------------------
 Center     Atomic      Atomic             Coordinates (Angstroms)
 Number     Number       Type             X           Y           Z
 ---------------------------------------------------------------------
      1          8           0        0.000000    0.725000  -10.034027
      2          8           0        0.000000   -0.725000  -10.034027
      3          1           0        0.000000    1.023510   -9.115306
      4          1           0        0.000000   -1.023510   -9.115306
      5         36           0        0.000000    0.000000    4.965973
 ---------------------------------------------------------------------
 Rotational constants (GHZ):     26.7026195      0.0934698      0.0931437
 Leave Link  202 at Wed May 13 12:11:55 2020, MaxMem= 1073741824 cpu:       0.0
 (Enter /home/matheus/.gaussian/g09/l122.exe)
 Leave Link  122 at Wed May 13 12:11:55 2020, MaxMem= 1073741824 cpu:       0.0
 (Enter /home/matheus/.gaussian/g09/l301.exe)
 Standard basis: Aug-CC-pVTZ (5D, 7F)
 Ernie: Thresh=  0.10000D-02 Tol=  0.10000D-05 Strict=F.
 Ernie:  38 primitive shells out of 205 were deleted.
 There are    71 symmetry adapted basis functions of A1  symmetry.
 There are    29 symmetry adapted basis functions of A2  symmetry.
 There are    37 symmetry adapted basis functions of B1  symmetry.
 There are    60 symmetry adapted basis functions of B2  symmetry.
 Integral buffers will be    131072 words long.
 Raffenetti 2 integral format.
 Two-electron integral symmetry is turned on.
   197 basis functions,   415 primitive gaussians,   229 cartesian basis functions
    27 alpha electrons       27 beta electrons
       nuclear repulsion energy        59.6621178727 Hartrees.
 IExCor=10402 DFT=T Ex=LC-B+HF Corr=LYP ExCW=0 ScaHFX=  1.000000
 ScaDFX=  1.000000  1.000000  1.000000  1.000000 ScalE2=  1.000000  1.000000
 IRadAn=      5 IRanWt=     -1 IRanGd=            0 ICorTp=0
  HFx wShort=  0.000000 wLong=  0.470000 cFull=  0.000000 cShort=  0.000000 cLong=  1.000000
  DFx wShort=  0.000000 wLong=  0.470000 cFull=  0.000000 cShort=  0.000000 cLong=  1.000000
 NAtoms=    5 NActive=    5 NUniq=    3 SFac= 2.78D+00 NAtFMM=   60 NAOKFM=F Big=F
 Leave Link  301 at Wed May 13 12:11:55 2020, MaxMem= 1073741824 cpu:       0.2
 (Enter /home/matheus/.gaussian/g09/l302.exe)
 NPDir=0 NMtPBC=     1 NCelOv=     1 NCel=       1 NClECP=     1 NCelD=      1
         NCelK=      1 NCelE2=     1 NClLst=     1 CellRange=     0.0.
 One-electron integrals computed using PRISM.
 One-electron integral symmetry used in STVInt
 NBasis=   197 RedAO= T  NBF=    71    29    37    60
 NBsUse=   197 1.00D-06 NBFU=    71    29    37    60
 Precomputing XC quadrature grid using
 IXCGrd= 2 IRadAn=           5 IRanWt=          -1 IRanGd=           0 AccXCQ= 0.00D+00.
 NRdTot=     437 NPtTot=      127438 NUsed=      130575 NTot=      130607
 NSgBfM=   164   164   164   164   164 NAtAll=     5     5.
 Leave Link  302 at Wed May 13 12:11:55 2020, MaxMem= 1073741824 cpu:       0.8
 (Enter /home/matheus/.gaussian/g09/l303.exe)
 DipDrv:  MaxL=1.
 Leave Link  303 at Wed May 13 12:11:55 2020, MaxMem= 1073741824 cpu:       0.2
 (Enter /home/matheus/.gaussian/g09/l401.exe)
 Harris functional with IExCor=10402 diagonalized for initial guess.
 ExpMin= 2.53D-02 ExpMax= 1.17D+07 ExpMxC= 1.33D+04 IAcc=3 IRadAn=         5 AccDes= 0.00D+00
 HarFok:  IExCor=10402 AccDes= 0.00D+00 IRadAn=         5 IDoV= 1
 ScaDFX=  1.000000  1.000000  1.000000  1.000000
 FoFCou: FMM=F IPFlag=           0 FMFlag=      100000 FMFlg1=           0
         NFxFlg=           0 DoJE=T BraDBF=F KetDBF=T FulRan=T
         Omega=  0.000000  0.000000  1.000000  0.000000  0.000000 ICntrl=     500 IOpCl=  0
         NMat0=    1 NMatS0=    1 NMatT0=    0 NMatD0=    1 NMtDS0=    0 NMtDT0=    0
         I1Cent=           4 NGrid=           0.
 Petite list used in FoFCou.
 Harris En= -2891.67617026062    
 Initial guess orbital symmetries:
       Occupied  (A1) (A1) (A1) (B1) (B2) (B2) (A1) (A1) (A1) (B1)
                 (B2) (B1) (A2) (B2) (A1) (A1) (A1) (B2) (A1) (A1)
                 (A1) (B1) (A1) (B1) (B2) (B2) (A2)
       Virtual   (A1) (B2) (A1) (A1) (B1) (B2) (B2) (A1) (B1) (B2)
                 (A1) (A1) (A2) (B2) (B1) (A1) (B1) (A1) (A1) (A2)
                 (B2) (B2) (A1) (A2) (B2) (A1) (B2) (B2) (A1) (B1)
                 (B2) (A1) (B1) (B2) (A1) (B1) (A1) (A1) (B1) (A1)
                 (A2) (A1) (B2) (A2) (B1) (A2) (B2) (A1) (B2) (A1)
                 (A1) (B1) (B2) (B1) (A1) (A2) (B2) (B2) (B2) (B1)
                 (A1) (A2) (A1) (B2) (B1) (A2) (A1) (B2) (A2) (A1)
                 (B2) (B1) (A1) (B2) (A2) (A1) (B2) (B1) (A1) (B2)
                 (A1) (B1) (A1) (A2) (B2) (A1) (B1) (B2) (B1) (A1)
                 (A2) (A1) (A2) (B1) (A1) (B2) (B2) (A1) (B2) (A1)
                 (B1) (B1) (B2) (A1) (A1) (A2) (B2) (B1) (B2) (B1)
                 (B2) (A2) (A2) (A1) (A1) (B2) (B2) (A2) (B2) (A1)
                 (A1) (B1) (B2) (A1) (B1) (A2) (B1) (A2) (A1) (B2)
                 (A2) (A1) (A1) (B2) (B2) (A1) (A1) (B1) (B2) (B2)
                 (A2) (B2) (A1) (B1) (A1) (B2) (B1) (A1) (A2) (B2)
                 (B1) (A1) (A1) (A2) (B1) (B1) (B2) (A2) (A2) (A1)
                 (B2) (A2) (A1) (B2) (B2) (A1) (B2) (B2) (A1) (B2)
 The electronic state of the initial guess is 1-A1.
 Leave Link  401 at Wed May 13 12:11:55 2020, MaxMem= 1073741824 cpu:       1.3
 (Enter /home/matheus/.gaussian/g09/l502.exe)
 Closed shell SCF:
 Requested convergence on RMS density matrix=1.00D-08 within 128 cycles.
 Requested convergence on MAX density matrix=1.00D-06.
 Requested convergence on             energy=1.00D-06.
 No special actions if energy rises.
 Using DIIS extrapolation, IDIIS=  1040.
 Integral symmetry usage will be decided dynamically.
       130517 words used for storage of precomputed grid.
 IEnd=      309856 IEndB=      309856 NGot=  1073741824 MDV=  1073501279
 LenX=  1073501279 LenY=  1073448397
 Fock matrices will be formed incrementally for  20 cycles.

 Cycle   1  Pass 1  IDiag  1:
 FoFJK:  IHMeth= 1 ICntrl=     0 DoSepK=T KAlg= 1 I1Cent= 0 FoldK=F
 FoFCou: FMM=F IPFlag=           0 FMFlag=      100000 FMFlg1=           0
         NFxFlg=           0 DoJE=T BraDBF=F KetDBF=F FulRan=T
         Omega=  0.000000  0.000000  1.000000  0.000000  0.000000 ICntrl=     500 IOpCl=  0
         NMat0=    1 NMatS0=    1 NMatT0=    0 NMatD0=    1 NMtDS0=    0 NMtDT0=    0
         I1Cent=           0 NGrid=           0.
 Petite list used in FoFCou.
 E= -2904.62677552328    
 DIIS: error= 5.43D-02 at cycle   1 NSaved=   1.
 NSaved= 1 IEnMin= 1 EnMin= -2904.62677552328     IErMin= 1 ErrMin= 5.43D-02
 ErrMax= 5.43D-02 EMaxC= 1.00D-01 BMatC= 2.78D-01 BMatP= 2.78D-01
 IDIUse=3 WtCom= 4.57D-01 WtEn= 5.43D-01
 Coeff-Com:  0.100D+01
 Coeff-En:   0.100D+01
 Coeff:      0.100D+01
 Gap=     0.453 Goal=   None    Shift=    0.000
 GapD=    0.453 DampG=2.000 DampE=0.500 DampFc=1.0000 IDamp=-1.
 RMSDP=2.39D-03 MaxDP=1.38D-01              OVMax= 1.05D-01

 Cycle   2  Pass 1  IDiag  1:
 RMSU=  1.63D-03    CP:  1.02D+00
 FoFJK:  IHMeth= 1 ICntrl=     0 DoSepK=T KAlg= 1 I1Cent= 0 FoldK=F
 E= -2904.70488322458     Delta-E=       -0.078107701303 Rises=F Damp=F
 DIIS: error= 2.77D-02 at cycle   2 NSaved=   2.
 NSaved= 2 IEnMin= 2 EnMin= -2904.70488322458     IErMin= 2 ErrMin= 2.77D-02
 ErrMax= 2.77D-02 EMaxC= 1.00D-01 BMatC= 8.95D-02 BMatP= 2.78D-01
 IDIUse=3 WtCom= 7.23D-01 WtEn= 2.77D-01
 Coeff-Com:  0.357D+00 0.643D+00
 Coeff-En:   0.931D-02 0.991D+00
 Coeff:      0.261D+00 0.739D+00
 Gap=     0.418 Goal=   None    Shift=    0.000
 RMSDP=1.00D-03 MaxDP=6.12D-02 DE=-7.81D-02 OVMax= 3.46D-02

 Cycle   3  Pass 1  IDiag  1:
 RMSU=  3.53D-04    CP:  1.01D+00  6.37D-01
 FoFJK:  IHMeth= 1 ICntrl=     0 DoSepK=T KAlg= 1 I1Cent= 0 FoldK=F
 E= -2904.73423326053     Delta-E=       -0.029350035954 Rises=F Damp=F
 DIIS: error= 5.54D-03 at cycle   3 NSaved=   3.
 NSaved= 3 IEnMin= 3 EnMin= -2904.73423326053     IErMin= 3 ErrMin= 5.54D-03
 ErrMax= 5.54D-03 EMaxC= 1.00D-01 BMatC= 3.55D-03 BMatP= 8.95D-02
 IDIUse=3 WtCom= 9.45D-01 WtEn= 5.54D-02
 Coeff-Com:  0.832D-02 0.172D+00 0.820D+00
 Coeff-En:   0.000D+00 0.000D+00 0.100D+01
 Coeff:      0.786D-02 0.162D+00 0.830D+00
 Gap=     0.427 Goal=   None    Shift=    0.000
 RMSDP=1.88D-04 MaxDP=1.03D-02 DE=-2.94D-02 OVMax= 7.76D-03

 Cycle   4  Pass 1  IDiag  1:
 RMSU=  6.53D-05    CP:  1.02D+00  7.06D-01  1.03D+00
 FoFJK:  IHMeth= 1 ICntrl=     0 DoSepK=T KAlg= 1 I1Cent= 0 FoldK=F
 E= -2904.73545522199     Delta-E=       -0.001221961453 Rises=F Damp=F
 DIIS: error= 7.76D-04 at cycle   4 NSaved=   4.
 NSaved= 4 IEnMin= 4 EnMin= -2904.73545522199     IErMin= 4 ErrMin= 7.76D-04
 ErrMax= 7.76D-04 EMaxC= 1.00D-01 BMatC= 7.62D-05 BMatP= 3.55D-03
 IDIUse=3 WtCom= 9.92D-01 WtEn= 7.76D-03
 Coeff-Com: -0.124D-01 0.254D-01 0.262D+00 0.725D+00
 Coeff-En:   0.000D+00 0.000D+00 0.000D+00 0.100D+01
 Coeff:     -0.123D-01 0.252D-01 0.260D+00 0.727D+00
 Gap=     0.423 Goal=   None    Shift=    0.000
 RMSDP=4.23D-05 MaxDP=1.44D-03 DE=-1.22D-03 OVMax= 2.10D-03

 Cycle   5  Pass 1  IDiag  1:
 RMSU=  2.01D-05    CP:  1.02D+00  7.09D-01  1.09D+00  9.36D-01
 FoFJK:  IHMeth= 1 ICntrl=     0 DoSepK=T KAlg= 1 I1Cent= 0 FoldK=F
 E= -2904.73550752991     Delta-E=       -0.000052307924 Rises=F Damp=F
 DIIS: error= 2.81D-04 at cycle   5 NSaved=   5.
 NSaved= 5 IEnMin= 5 EnMin= -2904.73550752991     IErMin= 5 ErrMin= 2.81D-04
 ErrMax= 2.81D-04 EMaxC= 1.00D-01 BMatC= 5.89D-06 BMatP= 7.62D-05
 IDIUse=3 WtCom= 9.97D-01 WtEn= 2.81D-03
 Coeff-Com: -0.315D-02-0.782D-02-0.928D-02 0.198D+00 0.823D+00
 Coeff-En:   0.000D+00 0.000D+00 0.000D+00 0.000D+00 0.100D+01
 Coeff:     -0.314D-02-0.780D-02-0.926D-02 0.197D+00 0.823D+00
 Gap=     0.424 Goal=   None    Shift=    0.000
 RMSDP=1.50D-05 MaxDP=6.12D-04 DE=-5.23D-05 OVMax= 1.09D-03

 Cycle   6  Pass 1  IDiag  1:
 RMSU=  4.07D-06    CP:  1.02D+00  7.10D-01  1.11D+00  1.04D+00  1.00D+00
 FoFJK:  IHMeth= 1 ICntrl=     0 DoSepK=T KAlg= 1 I1Cent= 0 FoldK=F
 E= -2904.73551350506     Delta-E=       -0.000005975156 Rises=F Damp=F
 DIIS: error= 5.61D-05 at cycle   6 NSaved=   6.
 NSaved= 6 IEnMin= 6 EnMin= -2904.73551350506     IErMin= 6 ErrMin= 5.61D-05
 ErrMax= 5.61D-05 EMaxC= 1.00D-01 BMatC= 2.42D-07 BMatP= 5.89D-06
 IDIUse=1 WtCom= 1.00D+00 WtEn= 0.00D+00
 Coeff-Com:  0.202D-03-0.331D-02-0.177D-01-0.366D-01 0.779D-01 0.980D+00
 Coeff:      0.202D-03-0.331D-02-0.177D-01-0.366D-01 0.779D-01 0.980D+00
 Gap=     0.424 Goal=   None    Shift=    0.000
 RMSDP=5.34D-06 MaxDP=1.91D-04 DE=-5.98D-06 OVMax= 2.73D-04

 Cycle   7  Pass 1  IDiag  1:
 RMSU=  1.08D-06    CP:  1.02D+00  7.11D-01  1.11D+00  1.06D+00  1.09D+00
                    CP:  1.27D+00
 FoFJK:  IHMeth= 1 ICntrl=     0 DoSepK=T KAlg= 1 I1Cent= 0 FoldK=F
 E= -2904.73551388703     Delta-E=       -0.000000381961 Rises=F Damp=F
 DIIS: error= 9.24D-06 at cycle   7 NSaved=   7.
 NSaved= 7 IEnMin= 7 EnMin= -2904.73551388703     IErMin= 7 ErrMin= 9.24D-06
 ErrMax= 9.24D-06 EMaxC= 1.00D-01 BMatC= 4.86D-09 BMatP= 2.42D-07
 IDIUse=1 WtCom= 1.00D+00 WtEn= 0.00D+00
 Coeff-Com:  0.112D-04 0.391D-03 0.213D-02-0.151D-03-0.312D-01-0.118D+00
 Coeff-Com:  0.115D+01
 Coeff:      0.112D-04 0.391D-03 0.213D-02-0.151D-03-0.312D-01-0.118D+00
 Coeff:      0.115D+01
 Gap=     0.424 Goal=   None    Shift=    0.000
 RMSDP=8.85D-07 MaxDP=2.77D-05 DE=-3.82D-07 OVMax= 6.42D-05

 Cycle   8  Pass 1  IDiag  1:
 RMSU=  2.03D-07    CP:  1.02D+00  7.11D-01  1.12D+00  1.06D+00  1.10D+00
                    CP:  1.35D+00  1.25D+00
 FoFJK:  IHMeth= 1 ICntrl=     0 DoSepK=T KAlg= 1 I1Cent= 0 FoldK=F
 E= -2904.73551390069     Delta-E=       -0.000000013663 Rises=F Damp=F
 DIIS: error= 1.73D-06 at cycle   8 NSaved=   8.
 NSaved= 8 IEnMin= 8 EnMin= -2904.73551390069     IErMin= 8 ErrMin= 1.73D-06
 ErrMax= 1.73D-06 EMaxC= 1.00D-01 BMatC= 3.00D-10 BMatP= 4.86D-09
 IDIUse=1 WtCom= 1.00D+00 WtEn= 0.00D+00
 Coeff-Com:  0.138D-05 0.204D-03 0.811D-03 0.193D-02-0.245D-02-0.476D-01
 Coeff-Com: -0.124D-01 0.106D+01
 Coeff:      0.138D-05 0.204D-03 0.811D-03 0.193D-02-0.245D-02-0.476D-01
 Coeff:     -0.124D-01 0.106D+01
 Gap=     0.424 Goal=   None    Shift=    0.000
 DSYEVD returned Info=         107 IAlg= 4 N=    71 NDim=   197 NE2=     5448975 trying DSYEV.
 RMSDP=1.65D-07 MaxDP=4.11D-06 DE=-1.37D-08 OVMax= 1.30D-05

 Cycle   9  Pass 1  IDiag  1:
 RMSU=  4.66D-08    CP:  1.02D+00  7.11D-01  1.12D+00  1.06D+00  1.10D+00
                    CP:  1.37D+00  1.30D+00  1.21D+00
 FoFJK:  IHMeth= 1 ICntrl=     0 DoSepK=T KAlg= 1 I1Cent= 0 FoldK=F
 E= -2904.73551390134     Delta-E=       -0.000000000656 Rises=F Damp=F
 DIIS: error= 3.52D-07 at cycle   9 NSaved=   9.
 NSaved= 9 IEnMin= 9 EnMin= -2904.73551390134     IErMin= 9 ErrMin= 3.52D-07
 ErrMax= 3.52D-07 EMaxC= 1.00D-01 BMatC= 9.58D-12 BMatP= 3.00D-10
 IDIUse=1 WtCom= 1.00D+00 WtEn= 0.00D+00
 Coeff-Com: -0.162D-05-0.184D-04-0.839D-04 0.713D-04 0.117D-02 0.454D-02
 Coeff-Com: -0.465D-01 0.707D-02 0.103D+01
 Coeff:     -0.162D-05-0.184D-04-0.839D-04 0.713D-04 0.117D-02 0.454D-02
 Coeff:     -0.465D-01 0.707D-02 0.103D+01
 Gap=     0.424 Goal=   None    Shift=    0.000
 RMSDP=3.09D-08 MaxDP=6.57D-07 DE=-6.56D-10 OVMax= 3.07D-06

 Cycle  10  Pass 1  IDiag  1:
 RMSU=  9.30D-09    CP:  1.02D+00  7.11D-01  1.12D+00  1.06D+00  1.10D+00
                    CP:  1.37D+00  1.31D+00  1.26D+00  1.28D+00
 FoFJK:  IHMeth= 1 ICntrl=     0 DoSepK=T KAlg= 1 I1Cent= 0 FoldK=F
 E= -2904.73551390138     Delta-E=       -0.000000000033 Rises=F Damp=F
 DIIS: error= 1.72D-07 at cycle  10 NSaved=  10.
 NSaved=10 IEnMin=10 EnMin= -2904.73551390138     IErMin=10 ErrMin= 1.72D-07
 ErrMax= 1.72D-07 EMaxC= 1.00D-01 BMatC= 7.17D-13 BMatP= 9.58D-12
 IDIUse=1 WtCom= 1.00D+00 WtEn= 0.00D+00
 Coeff-Com:  0.311D-07-0.800D-05-0.281D-04-0.809D-04-0.432D-04 0.156D-02
 Coeff-Com:  0.590D-02-0.388D-01-0.192D+00 0.122D+01
 Coeff:      0.311D-07-0.800D-05-0.281D-04-0.809D-04-0.432D-04 0.156D-02
 Coeff:      0.590D-02-0.388D-01-0.192D+00 0.122D+01
 Gap=     0.424 Goal=   None    Shift=    0.000
 RMSDP=1.18D-08 MaxDP=2.49D-07 DE=-3.32D-11 OVMax= 1.44D-06

 Cycle  11  Pass 1  IDiag  1:
 RMSU=  3.07D-09    CP:  1.02D+00  7.11D-01  1.12D+00  1.06D+00  1.10D+00
                    CP:  1.37D+00  1.31D+00  1.26D+00  1.39D+00  1.51D+00
 FoFJK:  IHMeth= 1 ICntrl=     0 DoSepK=T KAlg= 1 I1Cent= 0 FoldK=F
 E= -2904.73551390138     Delta-E=       -0.000000000006 Rises=F Damp=F
 DIIS: error= 5.15D-08 at cycle  11 NSaved=  11.
 NSaved=11 IEnMin=11 EnMin= -2904.73551390138     IErMin=11 ErrMin= 5.15D-08
 ErrMax= 5.15D-08 EMaxC= 1.00D-01 BMatC= 9.04D-14 BMatP= 7.17D-13
 IDIUse=1 WtCom= 1.00D+00 WtEn= 0.00D+00
 Coeff-Com:  0.792D-07 0.499D-05 0.203D-04 0.282D-04-0.130D-03-0.114D-02
 Coeff-Com:  0.371D-02 0.139D-01-0.108D+00-0.151D+00 0.124D+01
 Coeff:      0.792D-07 0.499D-05 0.203D-04 0.282D-04-0.130D-03-0.114D-02
 Coeff:      0.371D-02 0.139D-01-0.108D+00-0.151D+00 0.124D+01
 Gap=     0.424 Goal=   None    Shift=    0.000
 RMSDP=4.57D-09 MaxDP=1.59D-07 DE=-5.91D-12 OVMax= 5.44D-07

 SCF Done:  E(RLC-B+HF-LYP) =  -2904.73551390     A.U. after   11 cycles
             Convg  =    0.4572D-08             -V/T =  2.0017
 KE= 2.899862385546D+03 PE=-7.055987119623D+03 EE= 1.191727102303D+03
 Leave Link  502 at Wed May 13 12:12:09 2020, MaxMem= 1073741824 cpu:     111.1
 (Enter /home/matheus/.gaussian/g09/l601.exe)
 Copying SCF densities to generalized density rwf, IOpCl= 0 IROHF=0.

 **********************************************************************

            Population analysis using the SCF density.

 **********************************************************************

 Orbital symmetries:
       Occupied  (A1) (A1) (A1) (B2) (B1) (A1) (B2) (A1) (A1) (B2)
                 (B1) (A1) (B2) (B1) (A2) (A1) (A1) (B2) (A1) (A1)
                 (A1) (B1) (B2) (A1) (B2) (B1) (A2)
       Virtual   (A1) (B2) (A1) (A1) (B2) (B1) (B2) (A1) (B2) (B1)
                 (A1) (A1) (A2) (B2) (B1) (A1) (B2) (A1) (B2) (B1)
                 (A1) (A2) (A1) (A2) (B2) (A1) (B2) (B2) (A1) (B2)
                 (B1) (A1) (B1) (A1) (B2) (B1) (A1) (A1) (A2) (A1)
                 (B2) (B1) (A1) (A2) (A2) (B1) (B2) (A1) (B2) (A1)
                 (A1) (B1) (A1) (B1) (A2) (B2) (B2) (B2) (A1) (B2)
                 (B1) (A2) (A1) (B2) (B1) (A1) (A2) (B2) (A2) (B2)
                 (A1) (B1) (A1) (B2) (A2) (A1) (B2) (B1) (A1) (B2)
                 (A1) (B1) (A1) (A2) (A1) (B2) (B1) (B2) (B1) (A1)
                 (A2) (A1) (B2) (B1) (A2) (A1) (A1) (B2) (B2) (A1)
                 (B1) (A1) (B2) (B1) (A2) (A1) (B2) (B1) (B2) (B1)
                 (B2) (A2) (A2) (A1) (A1) (B2) (B2) (A2) (B2) (A1)
                 (A1) (B2) (B1) (A1) (B1) (A2) (B1) (A2) (A1) (B2)
                 (A2) (A1) (A1) (B2) (B2) (A1) (A1) (B1) (B2) (B2)
                 (A2) (B2) (A1) (B1) (A1) (B2) (B1) (A1) (A2) (B2)
                 (B1) (A1) (A1) (A2) (B1) (B2) (B1) (A2) (A2) (A1)
                 (B2) (A1) (A2) (B2) (B2) (A1) (B2) (B2) (A1) (B2)
 The electronic state is 1-A1.
 Alpha  occ. eigenvalues -- -511.24410 -66.71465 -60.39979 -60.39979 -60.39979
 Alpha  occ. eigenvalues --  -19.07703 -19.07703  -9.60661  -7.36113  -7.36113
 Alpha  occ. eigenvalues --   -7.36113  -3.32450  -3.32450  -3.32450  -3.32450
 Alpha  occ. eigenvalues --   -3.32450  -1.29055  -1.06637  -1.06256  -0.73361
 Alpha  occ. eigenvalues --   -0.57931  -0.56506  -0.53171  -0.51465  -0.51463
 Alpha  occ. eigenvalues --   -0.51463  -0.41017
 Alpha virt. eigenvalues --    0.01379   0.03254   0.08057   0.09404   0.09419
 Alpha virt. eigenvalues --    0.09419   0.09990   0.10498   0.14663   0.14826
 Alpha virt. eigenvalues --    0.15577   0.17584   0.18767   0.19488   0.22722
 Alpha virt. eigenvalues --    0.25242   0.26047   0.26909   0.26911   0.26911
 Alpha virt. eigenvalues --    0.26914   0.26914   0.28744   0.31581   0.34277
 Alpha virt. eigenvalues --    0.36918   0.40817   0.41770   0.51151   0.51158
 Alpha virt. eigenvalues --    0.51158   0.56050   0.62345   0.63514   0.64413
 Alpha virt. eigenvalues --    0.65983   0.67505   0.67659   0.76254   0.77667
 Alpha virt. eigenvalues --    0.77668   0.77668   0.77670   0.77670   0.77988
 Alpha virt. eigenvalues --    0.78895   0.80469   0.81230   0.83053   0.85933
 Alpha virt. eigenvalues --    0.89384   0.90687   0.93023   0.94230   0.95878
 Alpha virt. eigenvalues --    0.95986   0.97441   0.99689   1.07283   1.07284
 Alpha virt. eigenvalues --    1.07284   1.07285   1.07285   1.07286   1.07286
 Alpha virt. eigenvalues --    1.08335   1.10608   1.15352   1.25761   1.31497
 Alpha virt. eigenvalues --    1.32291   1.40559   1.45355   1.46526   1.52040
 Alpha virt. eigenvalues --    1.56752   1.62245   1.77442   1.82299   1.90580
 Alpha virt. eigenvalues --    1.94072   1.97895   2.02150   2.13308   2.14178
 Alpha virt. eigenvalues --    2.14180   2.14180   2.17093   2.18572   2.21028
 Alpha virt. eigenvalues --    2.27124   2.30229   2.30229   2.30229   2.30230
 Alpha virt. eigenvalues --    2.30230   2.30396   2.33017   2.39171   2.42486
 Alpha virt. eigenvalues --    2.45553   2.51201   2.51201   2.51201   2.51202
 Alpha virt. eigenvalues --    2.51202   2.51203   2.51203   2.51422   2.58221
 Alpha virt. eigenvalues --    2.67725   2.70746   2.74493   2.74494   2.84589
 Alpha virt. eigenvalues --    2.91704   3.01303   3.11285   3.15627   3.43421
 Alpha virt. eigenvalues --    3.61196   3.71541   3.76387   3.89665   3.93339
 Alpha virt. eigenvalues --    4.03928   4.09834   4.13958   4.16019   4.19284
 Alpha virt. eigenvalues --    4.28366   4.32911   4.39261   4.56557   4.67778
 Alpha virt. eigenvalues --    4.94237   5.00513   5.01347   5.03830   5.16238
 Alpha virt. eigenvalues --    5.16567   5.54217   5.78898   5.97603   6.05745
 Alpha virt. eigenvalues --    6.05964   6.25934   6.35118   6.47238   6.58451
 Alpha virt. eigenvalues --    6.68755   6.69086   6.74432   6.76480   6.79587
 Alpha virt. eigenvalues --    6.85559   6.85654   6.88532   6.93722   6.99234
 Alpha virt. eigenvalues --    7.07946   7.21612   7.21646   7.28680   7.62274
 Alpha virt. eigenvalues --    7.93466   8.03999   8.14320  13.44649  14.64222
          Condensed to atoms (all electrons):
              1          2          3          4          5
     1  O    8.215740  -0.244621   0.158067   0.059653   0.000000
     2  O   -0.244621   8.215740   0.059653   0.158067   0.000000
     3  H    0.158067   0.059653   0.621514  -0.028072   0.000000
     4  H    0.059653   0.158067  -0.028072   0.621514   0.000000
     5  Kr   0.000000   0.000000   0.000000   0.000000  36.000000
 Mulliken atomic charges:
              1
     1  O   -0.188839
     2  O   -0.188839
     3  H    0.188839
     4  H    0.188839
     5  Kr   0.000000
 Sum of Mulliken atomic charges =   0.00000
 Mulliken charges with hydrogens summed into heavy atoms:
              1
     1  O    0.000000
     2  O    0.000000
     5  Kr   0.000000
 Sum of Mulliken charges with hydrogens summed into heavy atoms =   0.00000
          Condensed to fragments (all electrons):
     1       0.000000
     2       0.000000
 Electronic spatial extent (au):  <R**2>=           9666.3300
 Charge=              0.0000 electrons
 Dipole moment (field-independent basis, Debye):
    X=              0.0000    Y=              0.0000    Z=              3.2394  Tot=              3.2394
 Quadrupole moment (field-independent basis, Debye-Ang):
   XX=            -31.0725   YY=            -28.5579   ZZ=            -91.5080
   XY=              0.0000   XZ=              0.0000   YZ=              0.0000
 Traceless Quadrupole moment (field-independent basis, Debye-Ang):
   XX=             19.3070   YY=             21.8215   ZZ=            -41.1285
   XY=              0.0000   XZ=              0.0000   YZ=              0.0000
 Octapole moment (field-independent basis, Debye-Ang**2):
  XXX=              0.0000  YYY=              0.0000  ZZZ=            981.0379  XYY=              0.0000
  XXY=              0.0000  XXZ=             44.3928  XZZ=              0.0000  YZZ=              0.0000
  YYZ=             23.4687  XYZ=              0.0000
 Hexadecapole moment (field-independent basis, Debye-Ang**3):
 XXXX=            -30.8587 YYYY=            -65.5051 ZZZZ=         -21120.6939 XXXY=              0.0000
 XXXZ=              0.0000 YYYX=              0.0000 YYYZ=              0.0000 ZZZX=              0.0000
 ZZZY=              0.0000 XXYY=            -18.1011 XXZZ=          -1768.7883 YYZZ=          -1605.1590
 XXYZ=              0.0000 YYXZ=              0.0000 ZZXY=              0.0000
 N-N= 5.966211787272D+01 E-N=-7.055987122094D+03  KE= 2.899862385546D+03
 Symmetry A1   KE= 2.057182969211D+03
 Symmetry A2   KE= 5.288618800375D+01
 Symmetry B1   KE= 3.626665121170D+02
 Symmetry B2   KE= 4.271267162146D+02
 No NMR shielding tensors so no spin-rotation constants.
 Leave Link  601 at Wed May 13 12:12:09 2020, MaxMem= 1073741824 cpu:       0.8
 (Enter /home/matheus/.gaussian/g09/l122.exe)
 Counterpoise: doing DCBS calculation for fragment   1 NewBq=T
 Leave Link  122 at Wed May 13 12:12:09 2020, MaxMem= 1073741824 cpu:       0.0
 (Enter /home/matheus/.gaussian/g09/l301.exe)
 Basis read from rwf:  (5D, 7F)
 No pseudopotential information found on rwf file.
 There are    71 symmetry adapted basis functions of A1  symmetry.
 There are    29 symmetry adapted basis functions of A2  symmetry.
 There are    37 symmetry adapted basis functions of B1  symmetry.
 There are    60 symmetry adapted basis functions of B2  symmetry.
 Integral buffers will be    131072 words long.
 Raffenetti 2 integral format.
 Two-electron integral symmetry is turned on.
   197 basis functions,   415 primitive gaussians,   229 cartesian basis functions
     9 alpha electrons        9 beta electrons
       nuclear repulsion energy        36.6667523957 Hartrees.
 IExCor=10402 DFT=T Ex=LC-B+HF Corr=LYP ExCW=0 ScaHFX=  1.000000
 ScaDFX=  1.000000  1.000000  1.000000  1.000000 ScalE2=  1.000000  1.000000
 IRadAn=      5 IRanWt=     -1 IRanGd=            0 ICorTp=0
  HFx wShort=  0.000000 wLong=  0.470000 cFull=  0.000000 cShort=  0.000000 cLong=  1.000000
  DFx wShort=  0.000000 wLong=  0.470000 cFull=  0.000000 cShort=  0.000000 cLong=  1.000000
 NAtoms=    5 NActive=    5 NUniq=    3 SFac= 2.78D+00 NAtFMM=   60 NAOKFM=F Big=F
 No density basis found on file   718.
 Leave Link  301 at Wed May 13 12:12:09 2020, MaxMem= 1073741824 cpu:       0.2
 (Enter /home/matheus/.gaussian/g09/l302.exe)
 NPDir=0 NMtPBC=     1 NCelOv=     1 NCel=       1 NClECP=     1 NCelD=      1
         NCelK=      1 NCelE2=     1 NClLst=     1 CellRange=     0.0.
 One-electron integrals computed using PRISM.
 One-electron integral symmetry used in STVInt
 NBasis=   197 RedAO= T  NBF=    71    29    37    60
 NBsUse=   197 1.00D-06 NBFU=    71    29    37    60
 Precomputing XC quadrature grid using
 IXCGrd= 2 IRadAn=           5 IRanWt=          -1 IRanGd=           0 AccXCQ= 0.00D+00.
 NRdTot=     437 NPtTot=      127438 NUsed=      130575 NTot=      130607
 NSgBfM=   164   164   164   164   164 NAtAll=     5     5.
 Leave Link  302 at Wed May 13 12:12:09 2020, MaxMem= 1073741824 cpu:       0.8
 (Enter /home/matheus/.gaussian/g09/l303.exe)
 DipDrv:  MaxL=1.
 Leave Link  303 at Wed May 13 12:12:09 2020, MaxMem= 1073741824 cpu:       0.2
 (Enter /home/matheus/.gaussian/g09/l401.exe)
 Harris functional with IExCor=10402 diagonalized for initial guess.
 ExpMin= 2.53D-02 ExpMax= 1.17D+07 ExpMxC= 1.33D+04 IAcc=3 IRadAn=         5 AccDes= 0.00D+00
 HarFok:  IExCor=10402 AccDes= 0.00D+00 IRadAn=         5 IDoV= 1
 ScaDFX=  1.000000  1.000000  1.000000  1.000000
 FoFCou: FMM=F IPFlag=           0 FMFlag=      100000 FMFlg1=           0
         NFxFlg=           0 DoJE=T BraDBF=F KetDBF=T FulRan=T
         Omega=  0.000000  0.000000  1.000000  0.000000  0.000000 ICntrl=     500 IOpCl=  0
         NMat0=    1 NMatS0=    1 NMatT0=    0 NMatD0=    1 NMtDS0=    0 NMtDT0=    0
         I1Cent=           4 NGrid=           0.
 Petite list used in FoFCou.
 Harris En= -147.161317906834    
 Initial guess orbital symmetries:
       Occupied  (B2) (A1) (A1) (B2) (A1) (A1) (B1) (B2) (A2)
       Virtual   (A1) (B2) (A1) (A1) (B2) (B1) (B2) (A1) (B1) (B2)
                 (A1) (A1) (A2) (B2) (B1) (A1) (B2) (A1) (A2) (A1)
                 (B2) (A1) (B1) (B2) (A1) (B2) (B1) (A1) (A2) (A1)
                 (B2) (B2) (A1) (B1) (B2) (B1) (A1) (A1) (A2) (B1)
                 (A2) (B2) (A1) (B2) (A1) (A1) (B1) (B2) (B1) (A1)
                 (A2) (B2) (B2) (A2) (A1) (B1) (B2) (A1) (B2) (A1)
                 (A2) (A1) (B2) (B1) (A1) (A2) (A1) (B2) (B1) (A2)
                 (B1) (A1) (B2) (B2) (A1) (B1) (A1) (B2) (A2) (A1)
                 (B2) (B1) (A1) (B2) (A1) (B1) (A1) (A2) (B2) (B1)
                 (A1) (A2) (B2) (A1) (B2) (A1) (B1) (B2) (B1) (B2)
                 (A2) (A2) (A1) (A1) (B2) (B2) (A2) (B2) (A1) (B1)
                 (B2) (A1) (A1) (B1) (B2) (B1) (A1) (A2) (B2) (A1)
                 (A1) (A2) (B1) (B1) (B2) (B2) (A1) (A1) (B1) (A2)
                 (B1) (A2) (A1) (B2) (A2) (A1) (A1) (B2) (B2) (A1)
                 (A1) (B1) (B2) (B2) (A2) (B2) (A1) (B1) (A1) (B2)
                 (B1) (A1) (A2) (B2) (B1) (A1) (A1) (A2) (B1) (B1)
                 (B2) (A2) (A2) (A1) (B2) (A2) (A1) (B2) (B2) (A1)
                 (B2) (B2) (A1) (A1) (B2) (B1) (B2) (A1) (A1) (B1)
                 (A2) (B2) (A1) (A1) (B1) (B2) (A1) (A1)
 The electronic state of the initial guess is 1-A1.
 Leave Link  401 at Wed May 13 12:12:10 2020, MaxMem= 1073741824 cpu:       1.3
 (Enter /home/matheus/.gaussian/g09/l502.exe)
 Closed shell SCF:
 Requested convergence on RMS density matrix=1.00D-08 within 128 cycles.
 Requested convergence on MAX density matrix=1.00D-06.
 Requested convergence on             energy=1.00D-06.
 No special actions if energy rises.
 Using DIIS extrapolation, IDIIS=  1040.
 Integral symmetry usage will be decided dynamically.
       130517 words used for storage of precomputed grid.
 IEnd=      309856 IEndB=      309856 NGot=  1073741824 MDV=  1073501279
 LenX=  1073501279 LenY=  1073448397
 Fock matrices will be formed incrementally for  20 cycles.

 Cycle   1  Pass 1  IDiag  1:
 FoFJK:  IHMeth= 1 ICntrl=     0 DoSepK=T KAlg= 1 I1Cent= 0 FoldK=F
 FoFCou: FMM=F IPFlag=           0 FMFlag=      100000 FMFlg1=           0
         NFxFlg=           0 DoJE=T BraDBF=F KetDBF=F FulRan=T
         Omega=  0.000000  0.000000  1.000000  0.000000  0.000000 ICntrl=     500 IOpCl=  0
         NMat0=    1 NMatS0=    1 NMatT0=    0 NMatD0=    1 NMtDS0=    0 NMtDT0=    0
         I1Cent=           0 NGrid=           0.
 Petite list used in FoFCou.
 E= -151.292883255862    
 DIIS: error= 1.77D-02 at cycle   1 NSaved=   1.
 NSaved= 1 IEnMin= 1 EnMin= -151.292883255862     IErMin= 1 ErrMin= 1.77D-02
 ErrMax= 1.77D-02 EMaxC= 1.00D-01 BMatC= 2.45D-02 BMatP= 2.45D-02
 IDIUse=3 WtCom= 8.23D-01 WtEn= 1.77D-01
 Coeff-Com:  0.100D+01
 Coeff-En:   0.100D+01
 Coeff:      0.100D+01
 Gap=     0.453 Goal=   None    Shift=    0.000
 GapD=    0.453 DampG=2.000 DampE=0.500 DampFc=1.0000 IDamp=-1.
 RMSDP=8.83D-04 MaxDP=3.17D-02              OVMax= 5.70D-02

 Cycle   2  Pass 1  IDiag  1:
 RMSU=  6.23D-04    CP:  1.01D+00
 FoFJK:  IHMeth= 1 ICntrl=     0 DoSepK=T KAlg= 1 I1Cent= 0 FoldK=F
 E= -151.315176598170     Delta-E=       -0.022293342308 Rises=F Damp=F
 DIIS: error= 7.47D-03 at cycle   2 NSaved=   2.
 NSaved= 2 IEnMin= 2 EnMin= -151.315176598170     IErMin= 2 ErrMin= 7.47D-03
 ErrMax= 7.47D-03 EMaxC= 1.00D-01 BMatC= 4.21D-03 BMatP= 2.45D-02
 IDIUse=3 WtCom= 9.25D-01 WtEn= 7.47D-02
 Coeff-Com:  0.244D+00 0.756D+00
 Coeff-En:   0.000D+00 0.100D+01
 Coeff:      0.226D+00 0.774D+00
 Gap=     0.417 Goal=   None    Shift=    0.000
 RMSDP=2.24D-04 MaxDP=6.19D-03 DE=-2.23D-02 OVMax= 1.44D-02

 Cycle   3  Pass 1  IDiag  1:
 RMSU=  1.57D-04    CP:  1.01D+00  1.04D+00
 FoFJK:  IHMeth= 1 ICntrl=     0 DoSepK=T KAlg= 1 I1Cent= 0 FoldK=F
 E= -151.317554335731     Delta-E=       -0.002377737562 Rises=F Damp=F
 DIIS: error= 2.39D-03 at cycle   3 NSaved=   3.
 NSaved= 3 IEnMin= 3 EnMin= -151.317554335731     IErMin= 3 ErrMin= 2.39D-03
 ErrMax= 2.39D-03 EMaxC= 1.00D-01 BMatC= 5.00D-04 BMatP= 4.21D-03
 IDIUse=3 WtCom= 9.76D-01 WtEn= 2.39D-02
 Coeff-Com:  0.226D-01 0.241D+00 0.736D+00
 Coeff-En:   0.000D+00 0.000D+00 0.100D+01
 Coeff:      0.221D-01 0.236D+00 0.742D+00
 Gap=     0.427 Goal=   None    Shift=    0.000
 RMSDP=1.01D-04 MaxDP=3.66D-03 DE=-2.38D-03 OVMax= 7.42D-03

 Cycle   4  Pass 1  IDiag  1:
 RMSU=  5.37D-05    CP:  1.00D+00  1.11D+00  9.53D-01
 FoFJK:  IHMeth= 1 ICntrl=     0 DoSepK=T KAlg= 1 I1Cent= 0 FoldK=F
 E= -151.317928745058     Delta-E=       -0.000374409326 Rises=F Damp=F
 DIIS: error= 6.09D-04 at cycle   4 NSaved=   4.
 NSaved= 4 IEnMin= 4 EnMin= -151.317928745058     IErMin= 4 ErrMin= 6.09D-04
 ErrMax= 6.09D-04 EMaxC= 1.00D-01 BMatC= 4.94D-05 BMatP= 5.00D-04
 IDIUse=3 WtCom= 9.94D-01 WtEn= 6.09D-03
 Coeff-Com: -0.215D-01-0.327D-01 0.200D+00 0.854D+00
 Coeff-En:   0.000D+00 0.000D+00 0.000D+00 0.100D+01
 Coeff:     -0.214D-01-0.325D-01 0.198D+00 0.855D+00
 Gap=     0.424 Goal=   None    Shift=    0.000
 RMSDP=4.48D-05 MaxDP=1.54D-03 DE=-3.74D-04 OVMax= 1.83D-03

 Cycle   5  Pass 1  IDiag  1:
 RMSU=  9.83D-06    CP:  1.00D+00  1.14D+00  1.11D+00  1.04D+00
 FoFJK:  IHMeth= 1 ICntrl=     0 DoSepK=T KAlg= 1 I1Cent= 0 FoldK=F
 E= -151.317970254216     Delta-E=       -0.000041509159 Rises=F Damp=F
 DIIS: error= 8.96D-05 at cycle   5 NSaved=   5.
 NSaved= 5 IEnMin= 5 EnMin= -151.317970254216     IErMin= 5 ErrMin= 8.96D-05
 ErrMax= 8.96D-05 EMaxC= 1.00D-01 BMatC= 3.84D-07 BMatP= 4.94D-05
 IDIUse=1 WtCom= 1.00D+00 WtEn= 0.00D+00
 Coeff-Com:  0.661D-03-0.377D-02-0.391D-01-0.774D-01 0.112D+01
 Coeff:      0.661D-03-0.377D-02-0.391D-01-0.774D-01 0.112D+01
 Gap=     0.424 Goal=   None    Shift=    0.000
 RMSDP=1.10D-05 MaxDP=4.45D-04 DE=-4.15D-05 OVMax= 6.73D-04

 Cycle   6  Pass 1  IDiag  1:
 RMSU=  2.73D-06    CP:  1.00D+00  1.15D+00  1.13D+00  1.12D+00  1.24D+00
 FoFJK:  IHMeth= 1 ICntrl=     0 DoSepK=T KAlg= 1 I1Cent= 0 FoldK=F
 E= -151.317971494405     Delta-E=       -0.000001240189 Rises=F Damp=F
 DIIS: error= 1.61D-05 at cycle   6 NSaved=   6.
 NSaved= 6 IEnMin= 6 EnMin= -151.317971494405     IErMin= 6 ErrMin= 1.61D-05
 ErrMax= 1.61D-05 EMaxC= 1.00D-01 BMatC= 1.59D-08 BMatP= 3.84D-07
 IDIUse=1 WtCom= 1.00D+00 WtEn= 0.00D+00
 Coeff-Com:  0.999D-04 0.340D-04-0.720D-03-0.308D-02-0.996D-01 0.110D+01
 Coeff:      0.999D-04 0.340D-04-0.720D-03-0.308D-02-0.996D-01 0.110D+01
 Gap=     0.424 Goal=   None    Shift=    0.000
 RMSDP=1.59D-06 MaxDP=4.91D-05 DE=-1.24D-06 OVMax= 1.09D-04

 Cycle   7  Pass 1  IDiag  1:
 RMSU=  2.78D-07    CP:  1.00D+00  1.15D+00  1.13D+00  1.13D+00  1.29D+00
                    CP:  1.26D+00
 FoFJK:  IHMeth= 1 ICntrl=     0 DoSepK=T KAlg= 1 I1Cent= 0 FoldK=F
 E= -151.317971536945     Delta-E=       -0.000000042540 Rises=F Damp=F
 DIIS: error= 4.23D-06 at cycle   7 NSaved=   7.
 NSaved= 7 IEnMin= 7 EnMin= -151.317971536945     IErMin= 7 ErrMin= 4.23D-06
 ErrMax= 4.23D-06 EMaxC= 1.00D-01 BMatC= 1.06D-09 BMatP= 1.59D-08
 IDIUse=1 WtCom= 1.00D+00 WtEn= 0.00D+00
 Coeff-Com:  0.146D-04 0.237D-03 0.193D-02 0.337D-02-0.718D-01 0.958D-01
 Coeff-Com:  0.970D+00
 Coeff:      0.146D-04 0.237D-03 0.193D-02 0.337D-02-0.718D-01 0.958D-01
 Coeff:      0.970D+00
 Gap=     0.424 Goal=   None    Shift=    0.000
 RMSDP=3.11D-07 MaxDP=8.25D-06 DE=-4.25D-08 OVMax= 2.53D-05

 Cycle   8  Pass 1  IDiag  1:
 RMSU=  9.84D-08    CP:  1.00D+00  1.15D+00  1.13D+00  1.13D+00  1.30D+00
                    CP:  1.32D+00  1.26D+00
 FoFJK:  IHMeth= 1 ICntrl=     0 DoSepK=T KAlg= 1 I1Cent= 0 FoldK=F
 E= -151.317971539273     Delta-E=       -0.000000002328 Rises=F Damp=F
 DIIS: error= 8.35D-07 at cycle   8 NSaved=   8.
 NSaved= 8 IEnMin= 8 EnMin= -151.317971539273     IErMin= 8 ErrMin= 8.35D-07
 ErrMax= 8.35D-07 EMaxC= 1.00D-01 BMatC= 3.82D-11 BMatP= 1.06D-09
 IDIUse=1 WtCom= 1.00D+00 WtEn= 0.00D+00
 Coeff-Com: -0.879D-05-0.285D-04-0.188D-03-0.690D-04 0.126D-01-0.614D-01
 Coeff-Com: -0.106D+00 0.116D+01
 Coeff:     -0.879D-05-0.285D-04-0.188D-03-0.690D-04 0.126D-01-0.614D-01
 Coeff:     -0.106D+00 0.116D+01
 Gap=     0.424 Goal=   None    Shift=    0.000
 RMSDP=8.00D-08 MaxDP=1.86D-06 DE=-2.33D-09 OVMax= 7.07D-06

 Cycle   9  Pass 1  IDiag  1:
 RMSU=  2.15D-08    CP:  1.00D+00  1.15D+00  1.13D+00  1.13D+00  1.30D+00
                    CP:  1.32D+00  1.34D+00  1.31D+00
 FoFJK:  IHMeth= 1 ICntrl=     0 DoSepK=T KAlg= 1 I1Cent= 0 FoldK=F
 E= -151.317971539410     Delta-E=       -0.000000000137 Rises=F Damp=F
 DIIS: error= 2.46D-07 at cycle   9 NSaved=   9.
 NSaved= 9 IEnMin= 9 EnMin= -151.317971539410     IErMin= 9 ErrMin= 2.46D-07
 ErrMax= 2.46D-07 EMaxC= 1.00D-01 BMatC= 2.01D-12 BMatP= 3.82D-11
 IDIUse=1 WtCom= 1.00D+00 WtEn= 0.00D+00
 Coeff-Com:  0.191D-05 0.177D-05 0.206D-04 0.337D-04-0.303D-02 0.170D-01
 Coeff-Com:  0.368D-01-0.474D+00 0.142D+01
 Coeff:      0.191D-05 0.177D-05 0.206D-04 0.337D-04-0.303D-02 0.170D-01
 Coeff:      0.368D-01-0.474D+00 0.142D+01
 Gap=     0.424 Goal=   None    Shift=    0.000
 RMSDP=2.20D-08 MaxDP=5.20D-07 DE=-1.37D-10 OVMax= 2.41D-06

 Cycle  10  Pass 1  IDiag  1:
 RMSU=  4.50D-09    CP:  1.00D+00  1.15D+00  1.13D+00  1.13D+00  1.30D+00
                    CP:  1.32D+00  1.34D+00  1.38D+00  1.48D+00
 FoFJK:  IHMeth= 1 ICntrl=     0 DoSepK=T KAlg= 1 I1Cent= 0 FoldK=F
 E= -151.317971539418     Delta-E=       -0.000000000009 Rises=F Damp=F
 DIIS: error= 6.38D-08 at cycle  10 NSaved=  10.
 NSaved=10 IEnMin=10 EnMin= -151.317971539418     IErMin=10 ErrMin= 6.38D-08
 ErrMax= 6.38D-08 EMaxC= 1.00D-01 BMatC= 9.85D-14 BMatP= 2.01D-12
 IDIUse=1 WtCom= 1.00D+00 WtEn= 0.00D+00
 Coeff-Com: -0.511D-06 0.124D-05 0.904D-05-0.525D-05 0.326D-03-0.319D-02
 Coeff-Com: -0.260D-02 0.938D-01-0.492D+00 0.140D+01
 Coeff:     -0.511D-06 0.124D-05 0.904D-05-0.525D-05 0.326D-03-0.319D-02
 Coeff:     -0.260D-02 0.938D-01-0.492D+00 0.140D+01
 Gap=     0.424 Goal=   None    Shift=    0.000
 RMSDP=5.85D-09 MaxDP=2.25D-07 DE=-8.70D-12 OVMax= 6.58D-07

 SCF Done:  E(RLC-B+HF-LYP) =  -151.317971539     A.U. after   10 cycles
             Convg  =    0.5849D-08             -V/T =  2.0055
 KE= 1.504898807794D+02 PE=-4.314682461588D+02 EE= 9.299364144430D+01
 Leave Link  502 at Wed May 13 12:12:20 2020, MaxMem= 1073741824 cpu:      83.5
 (Enter /home/matheus/.gaussian/g09/l601.exe)
 Copying SCF densities to generalized density rwf, IOpCl= 0 IROHF=0.

 **********************************************************************

            Population analysis using the SCF density.

 **********************************************************************

 Orbital symmetries:
       Occupied  (A1) (B2) (A1) (B2) (A1) (A1) (B1) (B2) (A2)
       Virtual   (A1) (B2) (A1) (A1) (B2) (B1) (B2) (A1) (B2) (B1)
                 (A1) (A1) (A2) (B2) (B1) (A1) (B2) (A1) (A2) (A1)
                 (B2) (A1) (B2) (B1) (A1) (A1) (B2) (B1) (A2) (A1)
                 (B2) (B2) (A1) (B1) (A1) (B2) (B1) (A1) (A2) (A2)
                 (B1) (B2) (A1) (B2) (A1) (A1) (B1) (A1) (B1) (A2)
                 (B2) (B2) (B2) (A1) (A2) (A1) (B2) (B1) (B2) (A1)
                 (A2) (A1) (B2) (B1) (A2) (A1) (B2) (A1) (A1) (B2)
                 (B1) (A2) (A1) (B2) (B1) (B1) (A1) (B2) (A2) (A1)
                 (B2) (B1) (A1) (B2) (A1) (B1) (A1) (A2) (B2) (B1)
                 (A1) (A2) (A1) (B2) (B2) (A1) (B1) (B2) (B1) (B2)
                 (A2) (A2) (A1) (A1) (B2) (B2) (A2) (B2) (A1) (A1)
                 (B2) (B1) (A1) (B2) (B1) (A1) (B2) (B1) (A2) (A1)
                 (A1) (B2) (B1) (A2) (A1) (B2) (B1) (A1) (B1) (A2)
                 (B1) (A2) (A1) (B2) (A2) (A1) (A1) (B2) (B2) (A1)
                 (A1) (B1) (B2) (B2) (A2) (B2) (A1) (B1) (A1) (B2)
                 (B1) (A1) (A2) (B2) (B1) (A1) (A1) (A2) (B1) (B2)
                 (B1) (A2) (A2) (A1) (B2) (A1) (A2) (B2) (B2) (A1)
                 (B2) (B2) (A1) (A1) (B2) (A1) (B2) (B1) (A1) (B2)
                 (B1) (A2) (A1) (A1) (A1) (B2) (B1) (A1)
 The electronic state is 1-A1.
 Alpha  occ. eigenvalues --  -19.07703 -19.07703  -1.29055  -1.06637  -0.73361
 Alpha  occ. eigenvalues --   -0.57931  -0.56506  -0.53172  -0.41018
 Alpha virt. eigenvalues --    0.01378   0.03254   0.06307   0.08769   0.08783
 Alpha virt. eigenvalues --    0.08783   0.09990   0.10498   0.14663   0.14825
 Alpha virt. eigenvalues --    0.15577   0.17583   0.18767   0.19488   0.22722
 Alpha virt. eigenvalues --    0.25241   0.26046   0.28744   0.31580   0.33045
 Alpha virt. eigenvalues --    0.34277   0.36204   0.36212   0.36212   0.36918
 Alpha virt. eigenvalues --    0.39171   0.39172   0.39172   0.39177   0.39177
 Alpha virt. eigenvalues --    0.40816   0.41770   0.56050   0.62344   0.63514
 Alpha virt. eigenvalues --    0.64412   0.65983   0.67659   0.76254   0.77988
 Alpha virt. eigenvalues --    0.78895   0.80469   0.81229   0.83053   0.85932
 Alpha virt. eigenvalues --    0.89383   0.90686   0.93023   0.94230   0.95878
 Alpha virt. eigenvalues --    0.95986   0.97441   0.99688   1.08334   1.10608
 Alpha virt. eigenvalues --    1.13409   1.13413   1.13413   1.15351   1.16459
 Alpha virt. eigenvalues --    1.25760   1.29156   1.29156   1.29157   1.29159
 Alpha virt. eigenvalues --    1.29159   1.31496   1.32291   1.32840   1.32840
 Alpha virt. eigenvalues --    1.32840   1.32841   1.32841   1.32843   1.32843
 Alpha virt. eigenvalues --    1.40559   1.45354   1.46525   1.52039   1.56751
 Alpha virt. eigenvalues --    1.62245   1.77442   1.82298   1.90579   1.94072
 Alpha virt. eigenvalues --    1.97895   2.02150   2.13308   2.17092   2.18572
 Alpha virt. eigenvalues --    2.21028   2.27124   2.30396   2.33016   2.39171
 Alpha virt. eigenvalues --    2.42485   2.45553   2.51422   2.58221   2.67725
 Alpha virt. eigenvalues --    2.70746   2.74492   2.74494   2.84588   2.91704
 Alpha virt. eigenvalues --    3.01302   3.11284   3.15627   3.21157   3.25394
 Alpha virt. eigenvalues --    3.25395   3.25395   3.43421   3.71541   3.76387
 Alpha virt. eigenvalues --    3.77911   3.77911   3.77911   3.77912   3.77912
 Alpha virt. eigenvalues --    3.82591   3.82591   3.82591   3.82591   3.82591
 Alpha virt. eigenvalues --    3.82592   3.82592   3.89665   3.93339   4.03928
 Alpha virt. eigenvalues --    4.09833   4.13958   4.16019   4.19283   4.28366
 Alpha virt. eigenvalues --    4.32911   4.39260   4.56557   4.67778   4.94236
 Alpha virt. eigenvalues --    5.00513   5.01347   5.03829   5.16238   5.16567
 Alpha virt. eigenvalues --    5.54217   5.78898   5.97603   6.05745   6.05964
 Alpha virt. eigenvalues --    6.25933   6.35118   6.47238   6.58451   6.68755
 Alpha virt. eigenvalues --    6.69085   6.74432   6.76479   6.79587   6.85559
 Alpha virt. eigenvalues --    6.85654   6.88531   6.93722   6.99234   7.07946
 Alpha virt. eigenvalues --    7.21612   7.21646   7.28680   7.62274   7.93466
 Alpha virt. eigenvalues --    8.03999   8.14320  10.14844  13.44649  14.64222
 Alpha virt. eigenvalues --   14.82843  14.82843  14.82843  29.02302  29.02302
 Alpha virt. eigenvalues --   29.02302  29.02302  29.02302  48.56957 148.30033
 Alpha virt. eigenvalues --  148.30033 148.30033 750.88986
          Condensed to atoms (all electrons):
              1          2          3          4          5
     1  O    8.215739  -0.244621   0.158067   0.059652   0.000000
     2  O   -0.244621   8.215739   0.059652   0.158067   0.000000
     3  H    0.158067   0.059652   0.621514  -0.028072   0.000000
     4  H    0.059652   0.158067  -0.028072   0.621514   0.000000
     5  Kr   0.000000   0.000000   0.000000   0.000000   0.000000
 Mulliken atomic charges:
              1
     1  O   -0.188838
     2  O   -0.188838
     3  H    0.188838
     4  H    0.188838
     5  Kr   0.000000
 Sum of Mulliken atomic charges =   0.00000
 Mulliken charges with hydrogens summed into heavy atoms:
              1
     1  O    0.000000
     2  O    0.000000
     5  Kr   0.000000
 Sum of Mulliken charges with hydrogens summed into heavy atoms =   0.00000
          Condensed to fragments (all electrons):
     1       0.000000
     2       0.000000
 Electronic spatial extent (au):  <R**2>=           6456.3951
 Charge=              0.0000 electrons
 Dipole moment (field-independent basis, Debye):
    X=              0.0000    Y=              0.0000    Z=              3.2342  Tot=              3.2342
 Quadrupole moment (field-independent basis, Debye-Ang):
   XX=            -13.3138   YY=            -10.7993   ZZ=            -73.7999
   XY=              0.0000   XZ=              0.0000   YZ=              0.0000
 Traceless Quadrupole moment (field-independent basis, Debye-Ang):
   XX=             19.3238   YY=             21.8384   ZZ=            -41.1622
   XY=              0.0000   XZ=              0.0000   YZ=              0.0000
 Octapole moment (field-independent basis, Debye-Ang**2):
  XXX=              0.0000  YYY=              0.0000  ZZZ=           1245.2198  XYY=              0.0000
  XXY=              0.0000  XXZ=            132.5784  XZZ=              0.0000  YZZ=              0.0000
  YYZ=            111.6544  XYZ=              0.0000
 Hexadecapole moment (field-independent basis, Debye-Ang**3):
 XXXX=            -11.9402 YYYY=            -46.5865 ZZZZ=         -18476.7277 XXXY=              0.0000
 XXXZ=              0.0000 YYYX=              0.0000 YYYZ=              0.0000 ZZZX=              0.0000
 ZZZY=              0.0000 XXYY=            -11.7949 XXZZ=          -1324.5714 YYZZ=          -1160.9417
 XXYZ=              0.0000 YYXZ=              0.0000 ZZXY=              0.0000
 N-N= 3.666675239568D+01 E-N=-4.314682455306D+02  KE= 1.504898807794D+02
 Symmetry A1   KE= 7.189181707817D+01
 Symmetry A2   KE= 5.442563695957D+00
 Symmetry B1   KE= 4.347644918472D+00
 Symmetry B2   KE= 6.880785508679D+01
 No NMR shielding tensors so no spin-rotation constants.
 Leave Link  601 at Wed May 13 12:12:20 2020, MaxMem= 1073741824 cpu:       1.0
 (Enter /home/matheus/.gaussian/g09/l122.exe)
 Counterpoise: doing DCBS calculation for fragment   2 NewBq=T
 Leave Link  122 at Wed May 13 12:12:20 2020, MaxMem= 1073741824 cpu:       0.0
 (Enter /home/matheus/.gaussian/g09/l301.exe)
 Basis read from rwf:  (5D, 7F)
 No pseudopotential information found on rwf file.
 There are    71 symmetry adapted basis functions of A1  symmetry.
 There are    29 symmetry adapted basis functions of A2  symmetry.
 There are    37 symmetry adapted basis functions of B1  symmetry.
 There are    60 symmetry adapted basis functions of B2  symmetry.
 Integral buffers will be    131072 words long.
 Raffenetti 2 integral format.
 Two-electron integral symmetry is turned on.
   197 basis functions,   415 primitive gaussians,   229 cartesian basis functions
    18 alpha electrons       18 beta electrons
       nuclear repulsion energy         0.0000000000 Hartrees.
 IExCor=10402 DFT=T Ex=LC-B+HF Corr=LYP ExCW=0 ScaHFX=  1.000000
 ScaDFX=  1.000000  1.000000  1.000000  1.000000 ScalE2=  1.000000  1.000000
 IRadAn=      5 IRanWt=     -1 IRanGd=            0 ICorTp=0
  HFx wShort=  0.000000 wLong=  0.470000 cFull=  0.000000 cShort=  0.000000 cLong=  1.000000
  DFx wShort=  0.000000 wLong=  0.470000 cFull=  0.000000 cShort=  0.000000 cLong=  1.000000
 NAtoms=    5 NActive=    5 NUniq=    3 SFac= 2.78D+00 NAtFMM=   60 NAOKFM=F Big=F
 No density basis found on file   718.
 Leave Link  301 at Wed May 13 12:12:20 2020, MaxMem= 1073741824 cpu:       0.2
 (Enter /home/matheus/.gaussian/g09/l302.exe)
 NPDir=0 NMtPBC=     1 NCelOv=     1 NCel=       1 NClECP=     1 NCelD=      1
         NCelK=      1 NCelE2=     1 NClLst=     1 CellRange=     0.0.
 One-electron integrals computed using PRISM.
 One-electron integral symmetry used in STVInt
 NBasis=   197 RedAO= T  NBF=    71    29    37    60
 NBsUse=   197 1.00D-06 NBFU=    71    29    37    60
 Precomputing XC quadrature grid using
 IXCGrd= 2 IRadAn=           5 IRanWt=          -1 IRanGd=           0 AccXCQ= 0.00D+00.
 NRdTot=     437 NPtTot=      127438 NUsed=      130575 NTot=      130607
 NSgBfM=   164   164   164   164   164 NAtAll=     5     5.
 Leave Link  302 at Wed May 13 12:12:20 2020, MaxMem= 1073741824 cpu:       0.9
 (Enter /home/matheus/.gaussian/g09/l303.exe)
 DipDrv:  MaxL=1.
 Leave Link  303 at Wed May 13 12:12:20 2020, MaxMem= 1073741824 cpu:       0.2
 (Enter /home/matheus/.gaussian/g09/l401.exe)
 Harris functional with IExCor=10402 diagonalized for initial guess.
 ExpMin= 2.53D-02 ExpMax= 1.17D+07 ExpMxC= 1.33D+04 IAcc=3 IRadAn=         5 AccDes= 0.00D+00
 HarFok:  IExCor=10402 AccDes= 0.00D+00 IRadAn=         5 IDoV= 1
 ScaDFX=  1.000000  1.000000  1.000000  1.000000
 FoFCou: FMM=F IPFlag=           0 FMFlag=      100000 FMFlg1=           0
         NFxFlg=           0 DoJE=T BraDBF=F KetDBF=T FulRan=T
         Omega=  0.000000  0.000000  1.000000  0.000000  0.000000 ICntrl=     500 IOpCl=  0
         NMat0=    1 NMatS0=    1 NMatT0=    0 NMatD0=    1 NMtDS0=    0 NMtDT0=    0
         I1Cent=           4 NGrid=           0.
 Petite list used in FoFCou.
 Harris En= -2744.51485235379    
 Initial guess orbital symmetries:
       Occupied  (A1) (A1) (A1) (B2) (B1) (A1) (A1) (B1) (B2) (B1)
                 (A2) (B2) (A1) (A1) (A1) (A1) (B1) (B2)
       Virtual   (A1) (B2) (A1) (A1) (B1) (B2) (A1) (B1) (A1) (B2)
                 (B2) (A2) (A1) (B1) (A1) (A1) (A2) (B2) (A1) (B1)
                 (B2) (A1) (B2) (A2) (A1) (B2) (B2) (A1) (B1) (B2)
                 (A1) (B1) (A1) (A1) (B2) (A2) (A1) (B1) (A1) (A2)
                 (A1) (B2) (B1) (B1) (A1) (B2) (B2) (A1) (A2) (B2)
                 (A1) (B1) (B2) (B1) (A1) (A2) (A1) (B2) (B1) (A1)
                 (B2) (A2) (B1) (B2) (A1) (A2) (B2) (A1) (A2) (B2)
                 (A1) (B2) (B2) (B1) (A1) (A1) (A2) (B2) (B2) (B1)
                 (A1) (B2) (A1) (B1) (A1) (A2) (B1) (A1) (B2) (A1)
                 (B1) (A1) (B1) (B1) (B2) (A1) (A1) (A2) (B2) (B1)
                 (B2) (A2) (A1) (A2) (B2) (B1) (A2) (B2) (A1) (B1)
                 (A1) (B2) (A1) (A2) (B2) (B1) (A1) (A2) (B2) (B2)
                 (A1) (B2) (A1) (B2) (A2) (A1) (B1) (A1) (B2) (A2)
                 (B2) (B1) (A1) (A1) (A2) (B2) (B2) (B1) (A1) (A2)
                 (A1) (B2) (B2) (A1) (B2) (B1) (A1) (B1) (A1) (A2)
                 (B2) (A1) (B1) (A2) (B2) (A1) (A2) (B2) (B2) (A1)
                 (B2) (B1) (B1) (A1) (A2) (B2) (A2) (B2) (A1) (B1)
                 (A1) (A2) (A1) (B2) (B2) (A1) (B2) (A1) (B2)
 The electronic state of the initial guess is 1-A1.
 Leave Link  401 at Wed May 13 12:12:20 2020, MaxMem= 1073741824 cpu:       1.3
 (Enter /home/matheus/.gaussian/g09/l502.exe)
 Closed shell SCF:
 Requested convergence on RMS density matrix=1.00D-08 within 128 cycles.
 Requested convergence on MAX density matrix=1.00D-06.
 Requested convergence on             energy=1.00D-06.
 No special actions if energy rises.
 Using DIIS extrapolation, IDIIS=  1040.
 Integral symmetry usage will be decided dynamically.
       130517 words used for storage of precomputed grid.
 IEnd=      309856 IEndB=      309856 NGot=  1073741824 MDV=  1073501279
 LenX=  1073501279 LenY=  1073448397
 Fock matrices will be formed incrementally for  20 cycles.

 Cycle   1  Pass 1  IDiag  1:
 FoFJK:  IHMeth= 1 ICntrl=     0 DoSepK=T KAlg= 1 I1Cent= 0 FoldK=F
 FoFCou: FMM=F IPFlag=           0 FMFlag=      100000 FMFlg1=           0
         NFxFlg=           0 DoJE=T BraDBF=F KetDBF=F FulRan=T
         Omega=  0.000000  0.000000  1.000000  0.000000  0.000000 ICntrl=     500 IOpCl=  0
         NMat0=    1 NMatS0=    1 NMatT0=    0 NMatD0=    1 NMtDS0=    0 NMtDT0=    0
         I1Cent=           0 NGrid=           0.
 Petite list used in FoFCou.
 E= -2753.33389226733    
 DIIS: error= 5.43D-02 at cycle   1 NSaved=   1.
 NSaved= 1 IEnMin= 1 EnMin= -2753.33389226733     IErMin= 1 ErrMin= 5.43D-02
 ErrMax= 5.43D-02 EMaxC= 1.00D-01 BMatC= 2.53D-01 BMatP= 2.53D-01
 IDIUse=3 WtCom= 4.57D-01 WtEn= 5.43D-01
 Coeff-Com:  0.100D+01
 Coeff-En:   0.100D+01
 Coeff:      0.100D+01
 Gap=     0.624 Goal=   None    Shift=    0.000
 GapD=    0.624 DampG=2.000 DampE=0.500 DampFc=1.0000 IDamp=-1.
 RMSDP=2.22D-03 MaxDP=1.38D-01              OVMax= 1.05D-01

 Cycle   2  Pass 1  IDiag  1:
 RMSU=  1.50D-03    CP:  1.03D+00
 FoFJK:  IHMeth= 1 ICntrl=     0 DoSepK=T KAlg= 1 I1Cent= 0 FoldK=F
 E= -2753.38970650630     Delta-E=       -0.055814238970 Rises=F Damp=F
 DIIS: error= 2.77D-02 at cycle   2 NSaved=   2.
 NSaved= 2 IEnMin= 2 EnMin= -2753.38970650630     IErMin= 2 ErrMin= 2.77D-02
 ErrMax= 2.77D-02 EMaxC= 1.00D-01 BMatC= 8.53D-02 BMatP= 2.53D-01
 IDIUse=3 WtCom= 7.23D-01 WtEn= 2.77D-01
 Coeff-Com:  0.365D+00 0.635D+00
 Coeff-En:   0.127D+00 0.873D+00
 Coeff:      0.299D+00 0.701D+00
 Gap=     0.536 Goal=   None    Shift=    0.000
 RMSDP=9.32D-04 MaxDP=5.82D-02 DE=-5.58D-02 OVMax= 3.28D-02

 Cycle   3  Pass 1  IDiag  1:
 RMSU=  1.62D-04    CP:  1.02D+00  5.91D-01
 FoFJK:  IHMeth= 1 ICntrl=     0 DoSepK=T KAlg= 1 I1Cent= 0 FoldK=F
 E= -2753.41711451503     Delta-E=       -0.027408008725 Rises=F Damp=F
 DIIS: error= 3.75D-03 at cycle   3 NSaved=   3.
 NSaved= 3 IEnMin= 3 EnMin= -2753.41711451503     IErMin= 3 ErrMin= 3.75D-03
 ErrMax= 3.75D-03 EMaxC= 1.00D-01 BMatC= 1.44D-03 BMatP= 8.53D-02
 IDIUse=3 WtCom= 9.63D-01 WtEn= 3.75D-02
 Coeff-Com: -0.718D-02 0.103D+00 0.904D+00
 Coeff-En:   0.000D+00 0.000D+00 0.100D+01
 Coeff:     -0.691D-02 0.996D-01 0.907D+00
 Gap=     0.540 Goal=   None    Shift=    0.000
 RMSDP=1.11D-04 MaxDP=7.16D-03 DE=-2.74D-02 OVMax= 4.37D-03

 Cycle   4  Pass 1  IDiag  1:
 RMSU=  3.22D-05    CP:  1.02D+00  6.35D-01  1.11D+00
 FoFJK:  IHMeth= 1 ICntrl=     0 DoSepK=T KAlg= 1 I1Cent= 0 FoldK=F
 E= -2753.41753864244     Delta-E=       -0.000424127414 Rises=F Damp=F
 DIIS: error= 1.84D-04 at cycle   4 NSaved=   4.
 NSaved= 4 IEnMin= 4 EnMin= -2753.41753864244     IErMin= 4 ErrMin= 1.84D-04
 ErrMax= 1.84D-04 EMaxC= 1.00D-01 BMatC= 1.20D-06 BMatP= 1.44D-03
 IDIUse=3 WtCom= 9.98D-01 WtEn= 1.84D-03
 Coeff-Com: -0.160D-02-0.193D-02 0.105D-02 0.100D+01
 Coeff-En:   0.000D+00 0.000D+00 0.000D+00 0.100D+01
 Coeff:     -0.160D-02-0.193D-02 0.105D-02 0.100D+01
 Gap=     0.541 Goal=   None    Shift=    0.000
 RMSDP=1.24D-05 MaxDP=6.38D-04 DE=-4.24D-04 OVMax= 8.67D-04

 Cycle   5  Pass 1  IDiag  1:
 RMSU=  3.25D-06    CP:  1.02D+00  6.37D-01  1.16D+00  1.08D+00
 FoFJK:  IHMeth= 1 ICntrl=     0 DoSepK=T KAlg= 1 I1Cent= 0 FoldK=F
 E= -2753.41754203474     Delta-E=       -0.000003392302 Rises=F Damp=F
 DIIS: error= 6.94D-05 at cycle   5 NSaved=   5.
 NSaved= 5 IEnMin= 5 EnMin= -2753.41754203474     IErMin= 5 ErrMin= 6.94D-05
 ErrMax= 6.94D-05 EMaxC= 1.00D-01 BMatC= 1.53D-07 BMatP= 1.20D-06
 IDIUse=1 WtCom= 1.00D+00 WtEn= 0.00D+00
 Coeff-Com: -0.358D-04-0.511D-02-0.306D-01-0.777D-01 0.111D+01
 Coeff:     -0.358D-04-0.511D-02-0.306D-01-0.777D-01 0.111D+01
 Gap=     0.540 Goal=   None    Shift=    0.000
 RMSDP=4.45D-06 MaxDP=2.24D-04 DE=-3.39D-06 OVMax= 1.97D-04

 Cycle   6  Pass 1  IDiag  1:
 RMSU=  2.22D-07    CP:  1.02D+00  6.36D-01  1.17D+00  1.14D+00  1.15D+00
 FoFJK:  IHMeth= 1 ICntrl=     0 DoSepK=T KAlg= 1 I1Cent= 0 FoldK=F
 E= -2753.41754223688     Delta-E=       -0.000000202140 Rises=F Damp=F
 DIIS: error= 1.78D-06 at cycle   6 NSaved=   6.
 NSaved= 6 IEnMin= 6 EnMin= -2753.41754223688     IErMin= 6 ErrMin= 1.78D-06
 ErrMax= 1.78D-06 EMaxC= 1.00D-01 BMatC= 1.03D-10 BMatP= 1.53D-07
 IDIUse=1 WtCom= 1.00D+00 WtEn= 0.00D+00
 Coeff-Com:  0.637D-05 0.415D-03 0.257D-02-0.103D-02-0.690D-01 0.107D+01
 Coeff:      0.637D-05 0.415D-03 0.257D-02-0.103D-02-0.690D-01 0.107D+01
 Gap=     0.540 Goal=   None    Shift=    0.000
 RMSDP=1.18D-07 MaxDP=4.60D-06 DE=-2.02D-07 OVMax= 5.92D-06

 Cycle   7  Pass 1  IDiag  1:
 RMSU=  2.42D-08    CP:  1.02D+00  6.36D-01  1.17D+00  1.14D+00  1.16D+00
                    CP:  1.17D+00
 FoFJK:  IHMeth= 1 ICntrl=     0 DoSepK=T KAlg= 1 I1Cent= 0 FoldK=F
 E= -2753.41754223696     Delta-E=       -0.000000000077 Rises=F Damp=F
 DIIS: error= 2.17D-07 at cycle   7 NSaved=   7.
 NSaved= 7 IEnMin= 7 EnMin= -2753.41754223696     IErMin= 7 ErrMin= 2.17D-07
 ErrMax= 2.17D-07 EMaxC= 1.00D-01 BMatC= 1.21D-12 BMatP= 1.03D-10
 IDIUse=1 WtCom= 1.00D+00 WtEn= 0.00D+00
 Coeff-Com: -0.103D-05-0.427D-04-0.275D-03 0.101D-02 0.394D-02-0.196D+00
 Coeff-Com:  0.119D+01
 Coeff:     -0.103D-05-0.427D-04-0.275D-03 0.101D-02 0.394D-02-0.196D+00
 Coeff:      0.119D+01
 Gap=     0.540 Goal=   None    Shift=    0.000
 RMSDP=1.64D-08 MaxDP=6.49D-07 DE=-7.73D-11 OVMax= 7.02D-07

 Cycle   8  Pass 1  IDiag  1:
 RMSU=  1.40D-09    CP:  1.02D+00  6.36D-01  1.17D+00  1.14D+00  1.16D+00
                    CP:  1.19D+00  1.19D+00
 FoFJK:  IHMeth= 1 ICntrl=     0 DoSepK=T KAlg= 1 I1Cent= 0 FoldK=F
 E= -2753.41754223695     Delta-E=        0.000000000010 Rises=F Damp=F
 DIIS: error= 6.38D-09 at cycle   8 NSaved=   8.
 NSaved= 8 IEnMin= 7 EnMin= -2753.41754223696     IErMin= 8 ErrMin= 6.38D-09
 ErrMax= 6.38D-09 EMaxC= 1.00D-01 BMatC= 1.92D-15 BMatP= 1.21D-12
 IDIUse=1 WtCom= 1.00D+00 WtEn= 0.00D+00
 Coeff-Com:  0.244D-07 0.105D-06 0.177D-05-0.577D-04 0.130D-03 0.659D-02
 Coeff-Com: -0.691D-01 0.106D+01
 Coeff:      0.244D-07 0.105D-06 0.177D-05-0.577D-04 0.130D-03 0.659D-02
 Coeff:     -0.691D-01 0.106D+01
 Gap=     0.540 Goal=   None    Shift=    0.000
 RMSDP=4.03D-10 MaxDP=1.57D-08 DE= 1.00D-11 OVMax= 2.17D-08

 SCF Done:  E(RLC-B+HF-LYP) =  -2753.41754224     A.U. after    8 cycles
             Convg  =    0.4031D-09             -V/T =  2.0015
 KE= 2.749372504921D+03 PE=-6.578588569759D+03 EE= 1.075798522601D+03
 Leave Link  502 at Wed May 13 12:12:31 2020, MaxMem= 1073741824 cpu:      79.9
 (Enter /home/matheus/.gaussian/g09/l601.exe)
 Copying SCF densities to generalized density rwf, IOpCl= 0 IROHF=0.

 **********************************************************************

            Population analysis using the SCF density.

 **********************************************************************

 Orbital symmetries:
       Occupied  (A1) (A1) (A1) (B1) (B2) (A1) (A1) (B1) (B2) (B1)
                 (A1) (B2) (A2) (A1) (A1) (A1) (B1) (B2)
       Virtual   (A1) (B2) (A1) (A1) (B1) (B2) (A1) (B1) (A1) (B2)
                 (B2) (A2) (A1) (A1) (B1) (A1) (A2) (B2) (A1) (B1)
                 (B2) (A1) (B2) (A2) (A1) (B2) (B2) (A1) (B1) (B2)
                 (A1) (B1) (A1) (A1) (B2) (A2) (A1) (B1) (B1) (A1)
                 (A2) (A1) (B2) (B1) (A1) (B2) (B2) (A1) (A2) (B2)
                 (A1) (B1) (A1) (B2) (A2) (B1) (B2) (B2) (A1) (A2)
                 (B1) (B2) (A1) (B1) (A1) (A2) (B2) (A1) (A2) (B2)
                 (A1) (B2) (B2) (B1) (A1) (A1) (A2) (B2) (B2) (A1)
                 (B1) (B2) (A1) (B1) (A1) (A2) (B1) (A1) (B2) (A1)
                 (B1) (A1) (B1) (B2) (A2) (A1) (B2) (A1) (A2) (B1)
                 (A1) (B2) (B1) (A2) (B2) (B1) (A2) (B2) (A1) (B1)
                 (A1) (B2) (A1) (A2) (B2) (B1) (A1) (A2) (B2) (B2)
                 (A1) (B2) (A1) (B2) (A2) (A1) (B1) (A1) (B2) (A2)
                 (B2) (B1) (A1) (A1) (A2) (B2) (B2) (B1) (A1) (A2)
                 (A1) (B2) (B2) (A1) (B2) (B1) (A1) (B1) (A1) (A2)
                 (B2) (A1) (B1) (A2) (B2) (A1) (A2) (B2) (B2) (A1)
                 (B2) (B1) (B1) (A1) (A2) (B2) (A2) (B2) (A1) (B1)
                 (A1) (A2) (A1) (B2) (B2) (A1) (B2) (A1) (B2)
 The electronic state is 1-A1.
 Alpha  occ. eigenvalues -- -511.24242 -66.71297 -60.39811 -60.39811 -60.39811
 Alpha  occ. eigenvalues --   -9.60493  -7.35945  -7.35945  -7.35945  -3.32282
 Alpha  occ. eigenvalues --   -3.32282  -3.32282  -3.32282  -3.32282  -1.06088
 Alpha  occ. eigenvalues --   -0.51296  -0.51296  -0.51296
 Alpha virt. eigenvalues --    0.02748   0.04856   0.08226   0.09582   0.09582
 Alpha virt. eigenvalues --    0.09582   0.11377   0.12835   0.12931   0.13569
 Alpha virt. eigenvalues --    0.17427   0.18080   0.18398   0.26990   0.27080
 Alpha virt. eigenvalues --    0.27080   0.27080   0.27080   0.27080   0.27319
 Alpha virt. eigenvalues --    0.28443   0.33873   0.34374   0.35362   0.35697
 Alpha virt. eigenvalues --    0.39250   0.45543   0.51324   0.51324   0.51324
 Alpha virt. eigenvalues --    0.52155   0.59348   0.64186   0.67673   0.68490
 Alpha virt. eigenvalues --    0.70528   0.73504   0.76346   0.77837   0.77837
 Alpha virt. eigenvalues --    0.77837   0.77837   0.77837   0.79349   0.80855
 Alpha virt. eigenvalues --    0.82322   0.85741   0.86256   0.89058   0.92919
 Alpha virt. eigenvalues --    0.94118   0.96234   1.01175   1.02060   1.03550
 Alpha virt. eigenvalues --    1.04759   1.06311   1.07453   1.07453   1.07453
 Alpha virt. eigenvalues --    1.07453   1.07453   1.07453   1.07453   1.11804
 Alpha virt. eigenvalues --    1.13721   1.22005   1.22713   1.29400   1.40290
 Alpha virt. eigenvalues --    1.45965   1.48366   1.64449   1.66927   1.72488
 Alpha virt. eigenvalues --    1.78107   1.79056   1.85332   1.96302   2.14347
 Alpha virt. eigenvalues --    2.14347   2.14347   2.14416   2.20943   2.30397
 Alpha virt. eigenvalues --    2.30397   2.30397   2.30397   2.30397   2.31395
 Alpha virt. eigenvalues --    2.33837   2.36004   2.37162   2.44727   2.46402
 Alpha virt. eigenvalues --    2.48969   2.51370   2.51370   2.51370   2.51370
 Alpha virt. eigenvalues --    2.51370   2.51370   2.51370   2.55339   2.61474
 Alpha virt. eigenvalues --    2.62624   2.66397   2.68960   2.70147   2.83780
 Alpha virt. eigenvalues --    2.84096   2.87787   3.02334   3.05825   3.11579
 Alpha virt. eigenvalues --    3.21519   3.23645   3.27392   3.27645   3.50331
 Alpha virt. eigenvalues --    3.57206   3.60601   3.61364   3.87004   3.88109
 Alpha virt. eigenvalues --    3.98340   4.42364   4.47898   4.47915   4.62853
 Alpha virt. eigenvalues --    4.71118   4.81319   4.81822   4.93044   4.97043
 Alpha virt. eigenvalues --    4.98372   5.32563   5.50935   5.64888   5.72530
 Alpha virt. eigenvalues --    5.87472   6.02578   6.30218   6.66980   6.95294
 Alpha virt. eigenvalues --    7.24378   7.28009   7.56481   7.63705   7.78018
 Alpha virt. eigenvalues --    7.87829   7.99670   8.11355   8.12188   8.22194
 Alpha virt. eigenvalues --    8.25185   8.29050   8.70859   9.01765   9.42525
 Alpha virt. eigenvalues --    9.73005   9.75146   9.86204   9.87592   9.90991
 Alpha virt. eigenvalues --   10.16082  10.19347  10.74560  10.86843  11.37550
 Alpha virt. eigenvalues --   11.54886  11.60271  11.85868  12.06984  13.27968
 Alpha virt. eigenvalues --   13.50013  14.55499  61.61780  64.75820
          Condensed to atoms (all electrons):
              1          2          3          4          5
     1  O    0.000000   0.000000   0.000000   0.000000   0.000000
     2  O    0.000000   0.000000   0.000000   0.000000   0.000000
     3  H    0.000000   0.000000   0.000000   0.000000   0.000000
     4  H    0.000000   0.000000   0.000000   0.000000   0.000000
     5  Kr   0.000000   0.000000   0.000000   0.000000  36.000000
 Mulliken atomic charges:
              1
     1  O    0.000000
     2  O    0.000000
     3  H    0.000000
     4  H    0.000000
     5  Kr   0.000000
 Sum of Mulliken atomic charges =   0.00000
 Mulliken charges with hydrogens summed into heavy atoms:
              1
     1  O    0.000000
     2  O    0.000000
     5  Kr   0.000000
 Sum of Mulliken charges with hydrogens summed into heavy atoms =   0.00000
          Condensed to fragments (all electrons):
     1       0.000000
     2       0.000000
 Electronic spatial extent (au):  <R**2>=           3209.9729
 Charge=              0.0000 electrons
 Dipole moment (field-independent basis, Debye):
    X=              0.0000    Y=              0.0000    Z=              0.0000  Tot=              0.0000
 Quadrupole moment (field-independent basis, Debye-Ang):
   XX=            -17.7589   YY=            -17.7589   ZZ=            -17.7589
   XY=              0.0000   XZ=              0.0000   YZ=              0.0000
 Traceless Quadrupole moment (field-independent basis, Debye-Ang):
   XX=              0.0000   YY=              0.0000   ZZ=              0.0000
   XY=              0.0000   XZ=              0.0000   YZ=              0.0000
 Octapole moment (field-independent basis, Debye-Ang**2):
  XXX=              0.0000  YYY=              0.0000  ZZZ=           -264.5703  XYY=              0.0000
  XXY=              0.0000  XXZ=            -88.1901  XZZ=              0.0000  YZZ=              0.0000
  YYZ=            -88.1901  XYZ=              0.0000
 Hexadecapole moment (field-independent basis, Debye-Ang**3):
 XXXX=            -18.9192 YYYY=            -18.9192 ZZZZ=          -2646.6173 XXXY=              0.0000
 XXXZ=              0.0000 YYYX=              0.0000 YYYZ=              0.0000 ZZZX=              0.0000
 ZZZY=              0.0000 XXYY=             -6.3064 XXZZ=           -444.2561 YYZZ=           -444.2561
 XXYZ=              0.0000 YYXZ=              0.0000 ZZXY=              0.0000
 N-N= 0.000000000000D+00 E-N=-6.578588569521D+03  KE= 2.749372504921D+03
 Symmetry A1   KE= 1.985291312316D+03
 Symmetry A2   KE= 4.744362036584D+01
 Symmetry B1   KE= 3.583187861031D+02
 Symmetry B2   KE= 3.583187861364D+02
 No NMR shielding tensors so no spin-rotation constants.
 Leave Link  601 at Wed May 13 12:12:31 2020, MaxMem= 1073741824 cpu:       0.8
 (Enter /home/matheus/.gaussian/g09/l122.exe)
 Counterpoise: doing MCBS calculation for fragment   1
 Leave Link  122 at Wed May 13 12:12:31 2020, MaxMem= 1073741824 cpu:       0.0
 (Enter /home/matheus/.gaussian/g09/l301.exe)
 Basis read from rwf:  (5D, 7F)
 No pseudopotential information found on rwf file.
 There are    46 symmetry adapted basis functions of A1  symmetry.
 There are    23 symmetry adapted basis functions of A2  symmetry.
 There are    23 symmetry adapted basis functions of B1  symmetry.
 There are    46 symmetry adapted basis functions of B2  symmetry.
 Integral buffers will be    131072 words long.
 Raffenetti 2 integral format.
 Two-electron integral symmetry is turned on.
   138 basis functions,   198 primitive gaussians,   160 cartesian basis functions
     9 alpha electrons        9 beta electrons
       nuclear repulsion energy        36.6667523957 Hartrees.
 IExCor=10402 DFT=T Ex=LC-B+HF Corr=LYP ExCW=0 ScaHFX=  1.000000
 ScaDFX=  1.000000  1.000000  1.000000  1.000000 ScalE2=  1.000000  1.000000
 IRadAn=      5 IRanWt=     -1 IRanGd=            0 ICorTp=0
  HFx wShort=  0.000000 wLong=  0.470000 cFull=  0.000000 cShort=  0.000000 cLong=  1.000000
  DFx wShort=  0.000000 wLong=  0.470000 cFull=  0.000000 cShort=  0.000000 cLong=  1.000000
 NAtoms=    5 NActive=    4 NUniq=    2 SFac= 4.00D+00 NAtFMM=   60 NAOKFM=F Big=F
 No density basis found on file   718.
 Leave Link  301 at Wed May 13 12:12:31 2020, MaxMem= 1073741824 cpu:       0.2
 (Enter /home/matheus/.gaussian/g09/l302.exe)
 NPDir=0 NMtPBC=     1 NCelOv=     1 NCel=       1 NClECP=     1 NCelD=      1
         NCelK=      1 NCelE2=     1 NClLst=     1 CellRange=     0.0.
 One-electron integrals computed using PRISM.
 One-electron integral symmetry used in STVInt
 NBasis=   138 RedAO= T  NBF=    46    23    23    46
 NBsUse=   138 1.00D-06 NBFU=    46    23    23    46
 Precomputing XC quadrature grid using
 IXCGrd= 2 IRadAn=           5 IRanWt=          -1 IRanGd=           0 AccXCQ= 0.00D+00.
 NRdTot=     344 NPtTot=       92556 NUsed=       95038 NTot=       95070
 NSgBfM=   160   160   160   160   160 NAtAll=     4     4.
 Leave Link  302 at Wed May 13 12:12:31 2020, MaxMem= 1073741824 cpu:       0.7
 (Enter /home/matheus/.gaussian/g09/l303.exe)
 DipDrv:  MaxL=1.
 Leave Link  303 at Wed May 13 12:12:31 2020, MaxMem= 1073741824 cpu:       0.1
 (Enter /home/matheus/.gaussian/g09/l401.exe)
 Harris functional with IExCor=10402 diagonalized for initial guess.
 ExpMin= 2.53D-02 ExpMax= 1.53D+04 ExpMxC= 5.22D+02 IAcc=3 IRadAn=         5 AccDes= 0.00D+00
 HarFok:  IExCor=10402 AccDes= 0.00D+00 IRadAn=         5 IDoV= 1
 ScaDFX=  1.000000  1.000000  1.000000  1.000000
 FoFCou: FMM=F IPFlag=           0 FMFlag=      100000 FMFlg1=           0
         NFxFlg=           0 DoJE=T BraDBF=F KetDBF=T FulRan=T
         Omega=  0.000000  0.000000  1.000000  0.000000  0.000000 ICntrl=     500 IOpCl=  0
         NMat0=    1 NMatS0=    1 NMatT0=    0 NMatD0=    1 NMtDS0=    0 NMtDT0=    0
         I1Cent=           4 NGrid=           0.
 Petite list used in FoFCou.
 Harris En= -147.161317906834    
 Initial guess orbital symmetries:
       Occupied  (B2) (A1) (A1) (B2) (A1) (A1) (B1) (B2) (A2)
       Virtual   (A1) (B2) (B2) (A1) (B1) (B2) (A1) (A1) (A2) (B2)
                 (B1) (A1) (B2) (A1) (A2) (B2) (A1) (B2) (B2) (A1)
                 (B1) (B2) (B1) (A1) (A1) (A2) (B1) (A2) (B2) (A1)
                 (B2) (A1) (A1) (B1) (B2) (B1) (A1) (A2) (B2) (B2)
                 (A2) (A1) (B2) (A2) (A1) (B2) (B1) (A1) (B2) (A2)
                 (A1) (B2) (B1) (A1) (B2) (A1) (B1) (A1) (A2) (B2)
                 (B1) (A1) (A2) (B2) (A1) (B2) (A1) (B1) (B2) (B1)
                 (B2) (A2) (A2) (A1) (A1) (B2) (B2) (A2) (B2) (A1)
                 (B1) (B2) (A1) (B1) (A2) (B1) (A2) (A1) (B2) (A2)
                 (A1) (A1) (B2) (B2) (A1) (A1) (B1) (B2) (B2) (A2)
                 (B2) (A1) (B1) (A1) (B2) (B1) (A1) (A2) (B2) (B1)
                 (A1) (A1) (A2) (B1) (B1) (B2) (A2) (A2) (A1) (B2)
                 (A2) (A1) (B2) (B2) (A1) (B2) (B2) (A1) (B2)
 The electronic state of the initial guess is 1-A1.
 Leave Link  401 at Wed May 13 12:12:31 2020, MaxMem= 1073741824 cpu:       1.1
 (Enter /home/matheus/.gaussian/g09/l502.exe)
 Closed shell SCF:
 Requested convergence on RMS density matrix=1.00D-08 within 128 cycles.
 Requested convergence on MAX density matrix=1.00D-06.
 Requested convergence on             energy=1.00D-06.
 No special actions if energy rises.
 Using DIIS extrapolation, IDIIS=  1040.
 Integral symmetry usage will be decided dynamically.
        94980 words used for storage of precomputed grid.
 IEnd=      192636 IEndB=      192636 NGot=  1073741824 MDV=  1073591589
 LenX=  1073591589 LenY=  1073565548
 Fock matrices will be formed incrementally for  20 cycles.

 Cycle   1  Pass 1  IDiag  1:
 FoFJK:  IHMeth= 1 ICntrl=     0 DoSepK=T KAlg= 1 I1Cent= 0 FoldK=F
 FoFCou: FMM=F IPFlag=           0 FMFlag=      100000 FMFlg1=           0
         NFxFlg=           0 DoJE=T BraDBF=F KetDBF=F FulRan=T
         Omega=  0.000000  0.000000  1.000000  0.000000  0.000000 ICntrl=     500 IOpCl=  0
         NMat0=    1 NMatS0=    1 NMatT0=    0 NMatD0=    1 NMtDS0=    0 NMtDT0=    0
         I1Cent=           0 NGrid=           0.
 Petite list used in FoFCou.
 E= -151.292883255862    
 DIIS: error= 1.77D-02 at cycle   1 NSaved=   1.
 NSaved= 1 IEnMin= 1 EnMin= -151.292883255862     IErMin= 1 ErrMin= 1.77D-02
 ErrMax= 1.77D-02 EMaxC= 1.00D-01 BMatC= 2.45D-02 BMatP= 2.45D-02
 IDIUse=3 WtCom= 8.23D-01 WtEn= 1.77D-01
 Coeff-Com:  0.100D+01
 Coeff-En:   0.100D+01
 Coeff:      0.100D+01
 Gap=     0.453 Goal=   None    Shift=    0.000
 GapD=    0.453 DampG=2.000 DampE=0.500 DampFc=1.0000 IDamp=-1.
 RMSDP=1.26D-03 MaxDP=3.17D-02              OVMax= 5.70D-02

 Cycle   2  Pass 1  IDiag  1:
 RMSU=  8.90D-04    CP:  1.01D+00
 FoFJK:  IHMeth= 1 ICntrl=     0 DoSepK=T KAlg= 1 I1Cent= 0 FoldK=F
 E= -151.315176598170     Delta-E=       -0.022293342308 Rises=F Damp=F
 DIIS: error= 7.47D-03 at cycle   2 NSaved=   2.
 NSaved= 2 IEnMin= 2 EnMin= -151.315176598170     IErMin= 2 ErrMin= 7.47D-03
 ErrMax= 7.47D-03 EMaxC= 1.00D-01 BMatC= 4.21D-03 BMatP= 2.45D-02
 IDIUse=3 WtCom= 9.25D-01 WtEn= 7.47D-02
 Coeff-Com:  0.244D+00 0.756D+00
 Coeff-En:   0.000D+00 0.100D+01
 Coeff:      0.226D+00 0.774D+00
 Gap=     0.417 Goal=   None    Shift=    0.000
 RMSDP=3.20D-04 MaxDP=6.19D-03 DE=-2.23D-02 OVMax= 1.44D-02

 Cycle   3  Pass 1  IDiag  1:
 RMSU=  2.24D-04    CP:  1.01D+00  1.04D+00
 FoFJK:  IHMeth= 1 ICntrl=     0 DoSepK=T KAlg= 1 I1Cent= 0 FoldK=F
 E= -151.317554335731     Delta-E=       -0.002377737561 Rises=F Damp=F
 DIIS: error= 2.39D-03 at cycle   3 NSaved=   3.
 NSaved= 3 IEnMin= 3 EnMin= -151.317554335731     IErMin= 3 ErrMin= 2.39D-03
 ErrMax= 2.39D-03 EMaxC= 1.00D-01 BMatC= 5.00D-04 BMatP= 4.21D-03
 IDIUse=3 WtCom= 9.76D-01 WtEn= 2.39D-02
 Coeff-Com:  0.226D-01 0.241D+00 0.736D+00
 Coeff-En:   0.000D+00 0.000D+00 0.100D+01
 Coeff:      0.221D-01 0.236D+00 0.742D+00
 Gap=     0.427 Goal=   None    Shift=    0.000
 RMSDP=1.44D-04 MaxDP=3.66D-03 DE=-2.38D-03 OVMax= 7.42D-03

 Cycle   4  Pass 1  IDiag  1:
 RMSU=  7.67D-05    CP:  1.00D+00  1.11D+00  9.53D-01
 FoFJK:  IHMeth= 1 ICntrl=     0 DoSepK=T KAlg= 1 I1Cent= 0 FoldK=F
 E= -151.317928745056     Delta-E=       -0.000374409325 Rises=F Damp=F
 DIIS: error= 6.09D-04 at cycle   4 NSaved=   4.
 NSaved= 4 IEnMin= 4 EnMin= -151.317928745056     IErMin= 4 ErrMin= 6.09D-04
 ErrMax= 6.09D-04 EMaxC= 1.00D-01 BMatC= 4.94D-05 BMatP= 5.00D-04
 IDIUse=3 WtCom= 9.94D-01 WtEn= 6.09D-03
 Coeff-Com: -0.215D-01-0.327D-01 0.200D+00 0.854D+00
 Coeff-En:   0.000D+00 0.000D+00 0.000D+00 0.100D+01
 Coeff:     -0.214D-01-0.325D-01 0.198D+00 0.855D+00
 Gap=     0.424 Goal=   None    Shift=    0.000
 RMSDP=6.39D-05 MaxDP=1.54D-03 DE=-3.74D-04 OVMax= 1.83D-03

 Cycle   5  Pass 1  IDiag  1:
 RMSU=  1.40D-05    CP:  1.00D+00  1.14D+00  1.11D+00  1.04D+00
 FoFJK:  IHMeth= 1 ICntrl=     0 DoSepK=T KAlg= 1 I1Cent= 0 FoldK=F
 E= -151.317970254217     Delta-E=       -0.000041509161 Rises=F Damp=F
 DIIS: error= 8.96D-05 at cycle   5 NSaved=   5.
 NSaved= 5 IEnMin= 5 EnMin= -151.317970254217     IErMin= 5 ErrMin= 8.96D-05
 ErrMax= 8.96D-05 EMaxC= 1.00D-01 BMatC= 3.84D-07 BMatP= 4.94D-05
 IDIUse=1 WtCom= 1.00D+00 WtEn= 0.00D+00
 Coeff-Com:  0.661D-03-0.377D-02-0.391D-01-0.774D-01 0.112D+01
 Coeff:      0.661D-03-0.377D-02-0.391D-01-0.774D-01 0.112D+01
 Gap=     0.424 Goal=   None    Shift=    0.000
 RMSDP=1.57D-05 MaxDP=4.45D-04 DE=-4.15D-05 OVMax= 6.73D-04

 Cycle   6  Pass 1  IDiag  1:
 RMSU=  3.90D-06    CP:  1.00D+00  1.15D+00  1.13D+00  1.12D+00  1.24D+00
 FoFJK:  IHMeth= 1 ICntrl=     0 DoSepK=T KAlg= 1 I1Cent= 0 FoldK=F
 E= -151.317971494404     Delta-E=       -0.000001240187 Rises=F Damp=F
 DIIS: error= 1.61D-05 at cycle   6 NSaved=   6.
 NSaved= 6 IEnMin= 6 EnMin= -151.317971494404     IErMin= 6 ErrMin= 1.61D-05
 ErrMax= 1.61D-05 EMaxC= 1.00D-01 BMatC= 1.59D-08 BMatP= 3.84D-07
[...]
 Alpha virt. eigenvalues --    1.32291   1.40559   1.45354   1.46525   1.52039
 Alpha virt. eigenvalues --    1.56751   1.62245   1.77442   1.82298   1.90579
 Alpha virt. eigenvalues --    1.94072   1.97895   2.02150   2.13308   2.17092
 Alpha virt. eigenvalues --    2.18572   2.21028   2.27124   2.30396   2.33016
 Alpha virt. eigenvalues --    2.39171   2.42485   2.45553   2.51422   2.58221
 Alpha virt. eigenvalues --    2.67725   2.70746   2.74492   2.74494   2.84588
 Alpha virt. eigenvalues --    2.91704   3.01302   3.11284   3.15627   3.43421
 Alpha virt. eigenvalues --    3.71541   3.76387   3.89665   3.93339   4.03928
 Alpha virt. eigenvalues --    4.09833   4.13958   4.16019   4.19283   4.28366
 Alpha virt. eigenvalues --    4.32911   4.39260   4.56557   4.67778   4.94236
 Alpha virt. eigenvalues --    5.00513   5.01347   5.03829   5.16238   5.16567
 Alpha virt. eigenvalues --    5.54217   5.78898   5.97603   6.05745   6.05964
 Alpha virt. eigenvalues --    6.25933   6.35118   6.47238   6.58451   6.68755
 Alpha virt. eigenvalues --    6.69085   6.74432   6.76479   6.79587   6.85559
 Alpha virt. eigenvalues --    6.85654   6.88531   6.93722   6.99234   7.07946
 Alpha virt. eigenvalues --    7.21612   7.21646   7.28680   7.62274   7.93466
 Alpha virt. eigenvalues --    8.03999   8.14320  13.44649  14.64222
          Condensed to atoms (all electrons):
              1          2          3          4
     1  O    8.215739  -0.244621   0.158067   0.059652
     2  O   -0.244621   8.215739   0.059652   0.158067
     3  H    0.158067   0.059652   0.621514  -0.028072
     4  H    0.059652   0.158067  -0.028072   0.621514
 Mulliken atomic charges:
              1
     1  O   -0.188838
     2  O   -0.188838
     3  H    0.188838
     4  H    0.188838
     5  Kr   0.000000
 Sum of Mulliken atomic charges =   0.00000
 Mulliken charges with hydrogens summed into heavy atoms:
              1
     1  O    0.000000
     2  O    0.000000
     5  Kr   0.000000
 Sum of Mulliken charges with hydrogens summed into heavy atoms =   0.00000
          Condensed to fragments (all electrons):
     1       0.000000
     2       0.000000
 Electronic spatial extent (au):  <R**2>=           6456.3951
 Charge=              0.0000 electrons
 Dipole moment (field-independent basis, Debye):
    X=              0.0000    Y=              0.0000    Z=              3.2342  Tot=              3.2342
 Quadrupole moment (field-independent basis, Debye-Ang):
   XX=            -13.3138   YY=            -10.7993   ZZ=            -73.7999
   XY=              0.0000   XZ=              0.0000   YZ=              0.0000
 Traceless Quadrupole moment (field-independent basis, Debye-Ang):
   XX=             19.3238   YY=             21.8384   ZZ=            -41.1622
   XY=              0.0000   XZ=              0.0000   YZ=              0.0000
 Octapole moment (field-independent basis, Debye-Ang**2):
  XXX=              0.0000  YYY=              0.0000  ZZZ=           1245.2198  XYY=              0.0000
  XXY=              0.0000  XXZ=            132.5784  XZZ=              0.0000  YZZ=              0.0000
  YYZ=            111.6544  XYZ=              0.0000
 Hexadecapole moment (field-independent basis, Debye-Ang**3):
 XXXX=            -11.9402 YYYY=            -46.5865 ZZZZ=         -18476.7277 XXXY=              0.0000
 XXXZ=              0.0000 YYYX=              0.0000 YYYZ=              0.0000 ZZZX=              0.0000
 ZZZY=              0.0000 XXYY=            -11.7949 XXZZ=          -1324.5714 YYZZ=          -1160.9417
 XXYZ=              0.0000 YYXZ=              0.0000 ZZXY=              0.0000
 N-N= 3.666675239568D+01 E-N=-4.314682455306D+02  KE= 1.504898807794D+02
 Symmetry A1   KE= 7.189181707817D+01
 Symmetry A2   KE= 5.442563695957D+00
 Symmetry B1   KE= 4.347644918472D+00
 Symmetry B2   KE= 6.880785508678D+01
 No NMR shielding tensors so no spin-rotation constants.
 Leave Link  601 at Wed May 13 12:12:37 2020, MaxMem= 1073741824 cpu:       0.7
 (Enter /home/matheus/.gaussian/g09/l122.exe)
 Counterpoise: doing MCBS calculation for fragment   2
 Leave Link  122 at Wed May 13 12:12:37 2020, MaxMem= 1073741824 cpu:       0.0
 (Enter /home/matheus/.gaussian/g09/l301.exe)
 Basis read from rwf:  (5D, 7F)
 No pseudopotential information found on rwf file.
 There are    25 symmetry adapted basis functions of A1  symmetry.
 There are     6 symmetry adapted basis functions of A2  symmetry.
 There are    14 symmetry adapted basis functions of B1  symmetry.
 There are    14 symmetry adapted basis functions of B2  symmetry.
 Integral buffers will be    131072 words long.
 Raffenetti 2 integral format.
 Two-electron integral symmetry is turned on.
    59 basis functions,   217 primitive gaussians,    69 cartesian basis functions
    18 alpha electrons       18 beta electrons
       nuclear repulsion energy         0.0000000000 Hartrees.
 IExCor=10402 DFT=T Ex=LC-B+HF Corr=LYP ExCW=0 ScaHFX=  1.000000
 ScaDFX=  1.000000  1.000000  1.000000  1.000000 ScalE2=  1.000000  1.000000
 IRadAn=      5 IRanWt=     -1 IRanGd=            0 ICorTp=0
  HFx wShort=  0.000000 wLong=  0.470000 cFull=  0.000000 cShort=  0.000000 cLong=  1.000000
  DFx wShort=  0.000000 wLong=  0.470000 cFull=  0.000000 cShort=  0.000000 cLong=  1.000000
 NAtoms=    5 NActive=    1 NUniq=    1 SFac= 1.00D+00 NAtFMM=   60 NAOKFM=F Big=F
 No density basis found on file   718.
 Leave Link  301 at Wed May 13 12:12:38 2020, MaxMem= 1073741824 cpu:       0.2
 (Enter /home/matheus/.gaussian/g09/l302.exe)
 NPDir=0 NMtPBC=     1 NCelOv=     1 NCel=       1 NClECP=     1 NCelD=      1
         NCelK=      1 NCelE2=     1 NClLst=     1 CellRange=     0.0.
 One-electron integrals computed using PRISM.
 One-electron integral symmetry used in STVInt
 NBasis=    59 RedAO= T  NBF=    25     6    14    14
 NBsUse=    59 1.00D-06 NBFU=    25     6    14    14
 Precomputing XC quadrature grid using
 IXCGrd= 2 IRadAn=           5 IRanWt=          -1 IRanGd=           0 AccXCQ= 0.00D+00.
 NRdTot=      81 NPtTot=       30352 NUsed=       30981 NTot=       31013
 NSgBfM=    69    69    69    69    69 NAtAll=     1     1.
 Leave Link  302 at Wed May 13 12:12:38 2020, MaxMem= 1073741824 cpu:       0.7
 (Enter /home/matheus/.gaussian/g09/l303.exe)
 DipDrv:  MaxL=1.
 Leave Link  303 at Wed May 13 12:12:38 2020, MaxMem= 1073741824 cpu:       0.2
 (Enter /home/matheus/.gaussian/g09/l401.exe)
 Harris functional with IExCor=10402 diagonalized for initial guess.
 ExpMin= 4.00D-02 ExpMax= 1.17D+07 ExpMxC= 1.33D+04 IAcc=3 IRadAn=         5 AccDes= 0.00D+00
 HarFok:  IExCor=10402 AccDes= 0.00D+00 IRadAn=         5 IDoV= 1
 ScaDFX=  1.000000  1.000000  1.000000  1.000000
 FoFCou: FMM=F IPFlag=           0 FMFlag=      100000 FMFlg1=           0
         NFxFlg=           0 DoJE=T BraDBF=F KetDBF=T FulRan=T
         Omega=  0.000000  0.000000  1.000000  0.000000  0.000000 ICntrl=     500 IOpCl=  0
         NMat0=    1 NMatS0=    1 NMatT0=    0 NMatD0=    1 NMtDS0=    0 NMtDT0=    0
         I1Cent=           4 NGrid=           0.
 Petite list used in FoFCou.
 Harris En= -2744.51485235229    
 Initial guess orbital symmetries:
       Occupied  (A1) (A1) (B1) (B2) (A1) (A1) (B1) (B2) (A1) (A2)
                 (B1) (B2) (A1) (A1) (A1) (B2) (B1) (A1)
       Virtual   (A1) (B1) (B2) (A1) (B1) (A2) (B2) (A1) (A1) (B2)
                 (B1) (A1) (A1) (B1) (B2) (A2) (A1) (A1) (A1) (B2)
                 (B1) (A2) (B2) (A1) (B1) (B1) (B2) (A1) (B1) (B2)
                 (A2) (A1) (A1) (A1) (B2) (B1) (A2) (B2) (B1) (A1)
                 (A1)
 The electronic state of the initial guess is 1-A1.
 Leave Link  401 at Wed May 13 12:12:38 2020, MaxMem= 1073741824 cpu:       0.7
 (Enter /home/matheus/.gaussian/g09/l502.exe)
 Closed shell SCF:
 Requested convergence on RMS density matrix=1.00D-08 within 128 cycles.
 Requested convergence on MAX density matrix=1.00D-06.
 Requested convergence on             energy=1.00D-06.
 No special actions if energy rises.
 Using DIIS extrapolation, IDIIS=  1040.
 Integral symmetry usage will be decided dynamically.
        30923 words used for storage of precomputed grid.
 IEnd=       64522 IEndB=       64522 NGot=  1073741824 MDV=  1073698773
 LenX=  1073698773 LenY=  1073693571
 Fock matrices will be formed incrementally for  20 cycles.

 Cycle   1  Pass 1  IDiag  1:
 FoFJK:  IHMeth= 1 ICntrl=     0 DoSepK=T KAlg= 1 I1Cent= 0 FoldK=F
 FoFCou: FMM=F IPFlag=           0 FMFlag=      100000 FMFlg1=           0
         NFxFlg=           0 DoJE=T BraDBF=F KetDBF=F FulRan=T
         Omega=  0.000000  0.000000  1.000000  0.000000  0.000000 ICntrl=     500 IOpCl=  0
         NMat0=    1 NMatS0=    1 NMatT0=    0 NMatD0=    1 NMtDS0=    0 NMtDT0=    0
         I1Cent=           0 NGrid=           0.
 Petite list used in FoFCou.
 E= -2753.33389226652    
 DIIS: error= 5.43D-02 at cycle   1 NSaved=   1.
 NSaved= 1 IEnMin= 1 EnMin= -2753.33389226652     IErMin= 1 ErrMin= 5.43D-02
 ErrMax= 5.43D-02 EMaxC= 1.00D-01 BMatC= 2.53D-01 BMatP= 2.53D-01
 IDIUse=3 WtCom= 4.57D-01 WtEn= 5.43D-01
 Coeff-Com:  0.100D+01
 Coeff-En:   0.100D+01
 Coeff:      0.100D+01
 Gap=     0.662 Goal=   None    Shift=    0.000
 GapD=    0.662 DampG=2.000 DampE=0.500 DampFc=1.0000 IDamp=-1.
 RMSDP=7.41D-03 MaxDP=1.38D-01              OVMax= 9.79D-02

 Cycle   2  Pass 1  IDiag  1:
 RMSU=  5.01D-03    CP:  1.03D+00
 FoFJK:  IHMeth= 1 ICntrl=     0 DoSepK=T KAlg= 1 I1Cent= 0 FoldK=F
 E= -2753.38970650498     Delta-E=       -0.055814238461 Rises=F Damp=F
 DIIS: error= 2.77D-02 at cycle   2 NSaved=   2.
 NSaved= 2 IEnMin= 2 EnMin= -2753.38970650498     IErMin= 2 ErrMin= 2.77D-02
 ErrMax= 2.77D-02 EMaxC= 1.00D-01 BMatC= 8.53D-02 BMatP= 2.53D-01
 IDIUse=3 WtCom= 7.23D-01 WtEn= 2.77D-01
 Coeff-Com:  0.365D+00 0.635D+00
 Coeff-En:   0.127D+00 0.873D+00
 Coeff:      0.299D+00 0.701D+00
 Gap=     0.590 Goal=   None    Shift=    0.000
 RMSDP=3.11D-03 MaxDP=5.82D-02 DE=-5.58D-02 OVMax= 2.91D-02

 Cycle   3  Pass 1  IDiag  1:
 RMSU=  5.42D-04    CP:  1.02D+00  5.91D-01
 FoFJK:  IHMeth= 1 ICntrl=     0 DoSepK=T KAlg= 1 I1Cent= 0 FoldK=F
 E= -2753.41711451176     Delta-E=       -0.027408006783 Rises=F Damp=F
 DIIS: error= 3.75D-03 at cycle   3 NSaved=   3.
 NSaved= 3 IEnMin= 3 EnMin= -2753.41711451176     IErMin= 3 ErrMin= 3.75D-03
 ErrMax= 3.75D-03 EMaxC= 1.00D-01 BMatC= 1.44D-03 BMatP= 8.53D-02
 IDIUse=3 WtCom= 9.63D-01 WtEn= 3.75D-02
 Coeff-Com: -0.718D-02 0.103D+00 0.904D+00
 Coeff-En:   0.000D+00 0.000D+00 0.100D+01
 Coeff:     -0.691D-02 0.996D-01 0.907D+00
 Gap=     0.594 Goal=   None    Shift=    0.000
 RMSDP=3.69D-04 MaxDP=7.16D-03 DE=-2.74D-02 OVMax= 4.18D-03

 Cycle   4  Pass 1  IDiag  1:
 RMSU=  1.08D-04    CP:  1.02D+00  6.35D-01  1.11D+00
 FoFJK:  IHMeth= 1 ICntrl=     0 DoSepK=T KAlg= 1 I1Cent= 0 FoldK=F
 E= -2753.41753863942     Delta-E=       -0.000424127658 Rises=F Damp=F
 DIIS: error= 1.84D-04 at cycle   4 NSaved=   4.
 NSaved= 4 IEnMin= 4 EnMin= -2753.41753863942     IErMin= 4 ErrMin= 1.84D-04
 ErrMax= 1.84D-04 EMaxC= 1.00D-01 BMatC= 1.20D-06 BMatP= 1.44D-03
 IDIUse=3 WtCom= 9.98D-01 WtEn= 1.84D-03
 Coeff-Com: -0.160D-02-0.193D-02 0.105D-02 0.100D+01
 Coeff-En:   0.000D+00 0.000D+00 0.000D+00 0.100D+01
 Coeff:     -0.160D-02-0.193D-02 0.105D-02 0.100D+01
 Gap=     0.595 Goal=   None    Shift=    0.000
 RMSDP=4.15D-05 MaxDP=6.38D-04 DE=-4.24D-04 OVMax= 8.64D-04

 Cycle   5  Pass 1  IDiag  1:
 RMSU=  1.09D-05    CP:  1.02D+00  6.37D-01  1.16D+00  1.08D+00
 FoFJK:  IHMeth= 1 ICntrl=     0 DoSepK=T KAlg= 1 I1Cent= 0 FoldK=F
 E= -2753.41754203173     Delta-E=       -0.000003392307 Rises=F Damp=F
 DIIS: error= 6.94D-05 at cycle   5 NSaved=   5.
 NSaved= 5 IEnMin= 5 EnMin= -2753.41754203173     IErMin= 5 ErrMin= 6.94D-05
 ErrMax= 6.94D-05 EMaxC= 1.00D-01 BMatC= 1.53D-07 BMatP= 1.20D-06
 IDIUse=1 WtCom= 1.00D+00 WtEn= 0.00D+00
 Coeff-Com: -0.358D-04-0.511D-02-0.306D-01-0.777D-01 0.111D+01
 Coeff:     -0.358D-04-0.511D-02-0.306D-01-0.777D-01 0.111D+01
 Gap=     0.595 Goal=   None    Shift=    0.000
 RMSDP=1.48D-05 MaxDP=2.24D-04 DE=-3.39D-06 OVMax= 1.95D-04

 Cycle   6  Pass 1  IDiag  1:
 RMSU=  7.42D-07    CP:  1.02D+00  6.36D-01  1.17D+00  1.14D+00  1.15D+00
 FoFJK:  IHMeth= 1 ICntrl=     0 DoSepK=T KAlg= 1 I1Cent= 0 FoldK=F
 E= -2753.41754223387     Delta-E=       -0.000000202143 Rises=F Damp=F
 DIIS: error= 1.78D-06 at cycle   6 NSaved=   6.
 NSaved= 6 IEnMin= 6 EnMin= -2753.41754223387     IErMin= 6 ErrMin= 1.78D-06
 ErrMax= 1.78D-06 EMaxC= 1.00D-01 BMatC= 1.03D-10 BMatP= 1.53D-07
 IDIUse=1 WtCom= 1.00D+00 WtEn= 0.00D+00
 Coeff-Com:  0.637D-05 0.415D-03 0.257D-02-0.103D-02-0.690D-01 0.107D+01
 Coeff:      0.637D-05 0.415D-03 0.257D-02-0.103D-02-0.690D-01 0.107D+01
 Gap=     0.595 Goal=   None    Shift=    0.000
 RMSDP=3.93D-07 MaxDP=4.60D-06 DE=-2.02D-07 OVMax= 5.90D-06

 Cycle   7  Pass 1  IDiag  1:
 RMSU=  8.07D-08    CP:  1.02D+00  6.36D-01  1.17D+00  1.14D+00  1.16D+00
                    CP:  1.17D+00
 FoFJK:  IHMeth= 1 ICntrl=     0 DoSepK=T KAlg= 1 I1Cent= 0 FoldK=F
 E= -2753.41754223394     Delta-E=       -0.000000000073 Rises=F Damp=F
 DIIS: error= 2.17D-07 at cycle   7 NSaved=   7.
 NSaved= 7 IEnMin= 7 EnMin= -2753.41754223394     IErMin= 7 ErrMin= 2.17D-07
 ErrMax= 2.17D-07 EMaxC= 1.00D-01 BMatC= 1.21D-12 BMatP= 1.03D-10
 IDIUse=1 WtCom= 1.00D+00 WtEn= 0.00D+00
 Coeff-Com: -0.103D-05-0.427D-04-0.275D-03 0.101D-02 0.394D-02-0.196D+00
 Coeff-Com:  0.119D+01
 Coeff:     -0.103D-05-0.427D-04-0.275D-03 0.101D-02 0.394D-02-0.196D+00
 Coeff:      0.119D+01
 Gap=     0.595 Goal=   None    Shift=    0.000
 RMSDP=5.47D-08 MaxDP=6.49D-07 DE=-7.28D-11 OVMax= 7.02D-07

 Cycle   8  Pass 1  IDiag  1:
 RMSU=  4.67D-09    CP:  1.02D+00  6.36D-01  1.17D+00  1.14D+00  1.16D+00
                    CP:  1.19D+00  1.19D+00
 FoFJK:  IHMeth= 1 ICntrl=     0 DoSepK=T KAlg= 1 I1Cent= 0 FoldK=F
 E= -2753.41754223393     Delta-E=        0.000000000010 Rises=F Damp=F
 DIIS: error= 6.38D-09 at cycle   8 NSaved=   8.
 NSaved= 8 IEnMin= 7 EnMin= -2753.41754223394     IErMin= 8 ErrMin= 6.38D-09
 ErrMax= 6.38D-09 EMaxC= 1.00D-01 BMatC= 1.92D-15 BMatP= 1.21D-12
 IDIUse=1 WtCom= 1.00D+00 WtEn= 0.00D+00
 Coeff-Com:  0.244D-07 0.105D-06 0.177D-05-0.577D-04 0.130D-03 0.659D-02
 Coeff-Com: -0.691D-01 0.106D+01
 Coeff:      0.244D-07 0.105D-06 0.177D-05-0.577D-04 0.130D-03 0.659D-02
 Coeff:     -0.691D-01 0.106D+01
 Gap=     0.595 Goal=   None    Shift=    0.000
 RMSDP=1.35D-09 MaxDP=1.57D-08 DE= 1.05D-11 OVMax= 2.10D-08

 SCF Done:  E(RLC-B+HF-LYP) =  -2753.41754223     A.U. after    8 cycles
             Convg  =    0.1346D-08             -V/T =  2.0015
 KE= 2.749372504960D+03 PE=-6.578588570287D+03 EE= 1.075798523093D+03
 Leave Link  502 at Wed May 13 12:12:48 2020, MaxMem= 1073741824 cpu:      84.8
 (Enter /home/matheus/.gaussian/g09/l601.exe)
 Copying SCF densities to generalized density rwf, IOpCl= 0 IROHF=0.

 **********************************************************************

            Population analysis using the SCF density.

 **********************************************************************

 Orbital symmetries:
       Occupied  (A1) (A1) (B1) (B2) (A1) (A1) (B1) (B2) (A1) (B2)
                 (A2) (B1) (A1) (A1) (A1) (B1) (A1) (B2)
       Virtual   (A1) (A1) (B2) (B1) (B2) (A2) (B1) (A1) (A1) (A1)
                 (B2) (B1) (A1) (B2) (A2) (B1) (A1) (A1) (A1) (B2)
                 (B1) (A2) (B2) (A1) (B1) (A1) (B2) (B1) (B2) (A2)
                 (B1) (A1) (A1) (A1) (B2) (B1) (A2) (B1) (A1) (B2)
                 (A1)
 The electronic state is 1-A1.
 Alpha  occ. eigenvalues -- -511.24242 -66.71297 -60.39811 -60.39811 -60.39811
 Alpha  occ. eigenvalues --   -9.60493  -7.35945  -7.35945  -7.35945  -3.32282
 Alpha  occ. eigenvalues --   -3.32282  -3.32282  -3.32282  -3.32282  -1.06088
 Alpha  occ. eigenvalues --   -0.51296  -0.51296  -0.51296
 Alpha virt. eigenvalues --    0.08226   0.09582   0.09582   0.09582   0.27080
 Alpha virt. eigenvalues --    0.27080   0.27080   0.27080   0.27080   0.51324
 Alpha virt. eigenvalues --    0.51324   0.51324   0.67673   0.77837   0.77837
 Alpha virt. eigenvalues --    0.77837   0.77837   0.77837   1.07453   1.07453
 Alpha virt. eigenvalues --    1.07453   1.07453   1.07453   1.07453   1.07453
 Alpha virt. eigenvalues --    2.14347   2.14347   2.14347   2.30397   2.30397
 Alpha virt. eigenvalues --    2.30397   2.30397   2.30397   2.51370   2.51370
 Alpha virt. eigenvalues --    2.51370   2.51370   2.51370   2.51370   2.51370
 Alpha virt. eigenvalues --    3.61364
          Condensed to atoms (all electrons):
              1
     1  Kr  36.000000
 Mulliken atomic charges:
              1
     1  O    0.000000
     2  O    0.000000
     3  H    0.000000
     4  H    0.000000
     5  Kr   0.000000
 Sum of Mulliken atomic charges =   0.00000
 Mulliken charges with hydrogens summed into heavy atoms:
              1
     1  O    0.000000
     2  O    0.000000
     5  Kr   0.000000
 Sum of Mulliken charges with hydrogens summed into heavy atoms =   0.00000
          Condensed to fragments (all electrons):
     1       0.000000
     2       0.000000
 Electronic spatial extent (au):  <R**2>=           3209.9729
 Charge=              0.0000 electrons
 Dipole moment (field-independent basis, Debye):
    X=              0.0000    Y=              0.0000    Z=              0.0000  Tot=              0.0000
 Quadrupole moment (field-independent basis, Debye-Ang):
   XX=            -17.7589   YY=            -17.7589   ZZ=            -17.7589
   XY=              0.0000   XZ=              0.0000   YZ=              0.0000
 Traceless Quadrupole moment (field-independent basis, Debye-Ang):
   XX=              0.0000   YY=              0.0000   ZZ=              0.0000
   XY=              0.0000   XZ=              0.0000   YZ=              0.0000
 Octapole moment (field-independent basis, Debye-Ang**2):
  XXX=              0.0000  YYY=              0.0000  ZZZ=           -264.5703  XYY=              0.0000
  XXY=              0.0000  XXZ=            -88.1901  XZZ=              0.0000  YZZ=              0.0000
  YYZ=            -88.1901  XYZ=              0.0000
 Hexadecapole moment (field-independent basis, Debye-Ang**3):
 XXXX=            -18.9192 YYYY=            -18.9192 ZZZZ=          -2646.6175 XXXY=              0.0000
 XXXZ=              0.0000 YYYX=              0.0000 YYYZ=              0.0000 ZZZX=              0.0000
 ZZZY=              0.0000 XXYY=             -6.3064 XXZZ=           -444.2561 YYZZ=           -444.2561
 XXYZ=              0.0000 YYXZ=              0.0000 ZZXY=              0.0000
 N-N= 0.000000000000D+00 E-N=-6.578588570049D+03  KE= 2.749372504960D+03
 Symmetry A1   KE= 1.985291312408D+03
 Symmetry A2   KE= 4.744362036239D+01
 Symmetry B1   KE= 3.583187860951D+02
 Symmetry B2   KE= 3.583187860951D+02
 No NMR shielding tensors so no spin-rotation constants.
 Leave Link  601 at Wed May 13 12:12:48 2020, MaxMem= 1073741824 cpu:       0.6
 (Enter /home/matheus/.gaussian/g09/l122.exe)
 Restoring MOs from calculation   1 to rwf.
 Counterpoise: corrected energy =   -2904.735513898364
 Counterpoise: BSSE energy =       0.000000003019
 Leave Link  122 at Wed May 13 12:12:48 2020, MaxMem= 1073741824 cpu:       0.0
 (Enter /home/matheus/.gaussian/g09/l9999.exe)
 1\1\GINC-REDGIANT\SP\RLC-BLYP\Aug-CC-pVTZ\H2Kr1O2\ROOT\13-May-2020\0\\
 #p lc-blyp/aug-cc-PVTz int=ultrafine counterpoise=2\\TCC\\0,1\O,0,0.,0
 .,0.725\O,0,0.,0.,-0.725\H,0,0.,0.9187205947,1.0235104166\H,0,0.,0.918
 7205947,-1.0235104166\Kr,0,0.,15.,0.\\Version=EM64L-G09RevC.01\State=1
 -A1\HF=-2753.4175422\RMSD=1.346e-09\Dipole=0.,1.274466,0.\Quadrupole=1
 4.3542891,-30.5780668,16.2237778,0.,0.,0.\PG=C02V [C2(Kr1),SGV(H2O2)]\
 \@


 Children are likely to live up to what you believe of them.
 -- Lady Bird Johnson
 Job cpu time:  0 days  0 hours  7 minutes  7.0 seconds.
 File lengths (MBytes):  RWF=     33 Int=      0 D2E=      0 Chk=      6 Scr=      1
 Normal termination of Gaussian 09 at Wed May 13 12:12:48 2020.
