 Entering Gaussian System, Link 0=g09
 Input=/home/matheus/.tcc/Inputs/Inputs-lc-blyp-default/H2O2-Kr_5.com
 Output=/home/matheus/.tcc/Logs/Logs-lc-blyp-default/H2O2-Kr_5.log
 Initial command:
 /home/matheus/.gaussian/g09/l1.exe /home/matheus/.gaussian/g09/scratch/Gau-18758.inp -scrdir=/home/matheus/.gaussian/g09/scratch/
 Entering Link 1 = /home/matheus/.gaussian/g09/l1.exe PID=     18762.
  
 Copyright (c) 1988,1990,1992,1993,1995,1998,2003,2009,2011,
            Gaussian, Inc.  All Rights Reserved.
  
 This is part of the Gaussian(R) 09 program.  It is based on
 the Gaussian(R) 03 system (copyright 2003, Gaussian, Inc.),
 the Gaussian(R) 98 system (copyright 1998, Gaussian, Inc.),
 the Gaussian(R) 94 system (copyright 1995, Gaussian, Inc.),
 the Gaussian 92(TM) system (copyright 1992, Gaussian, Inc.),
 the Gaussian 90(TM) system (copyright 1990, Gaussian, Inc.),
 the Gaussian 88(TM) system (copyright 1988, Gaussian, Inc.),
 the Gaussian 86(TM) system (copyright 1986, Carnegie Mellon
 University), and the Gaussian 82(TM) system (copyright 1983,
 Carnegie Mellon University). Gaussian is a federally registered
 trademark of Gaussian, Inc.
  
 This software contains proprietary and confidential information,
 including trade secrets, belonging to Gaussian, Inc.
  
 This software is provided under written license and may be
 used, copied, transmitted, or stored only in accord with that
 written license.
  
 The following legend is applicable only to US Government
 contracts under FAR:
  
                    RESTRICTED RIGHTS LEGEND
  
 Use, reproduction and disclosure by the US Government is
 subject to restrictions as set forth in subparagraphs (a)
 and (c) of the Commercial Computer Software - Restricted
 Rights clause in FAR 52.227-19.
  
 Gaussian, Inc.
 340 Quinnipiac St., Bldg. 40, Wallingford CT 06492
  
  
 ---------------------------------------------------------------
 Warning -- This program may not be used in any manner that
 competes with the business of Gaussian, Inc. or will provide
 assistance to any competitor of Gaussian, Inc.  The licensee
 of this program is prohibited from giving any competitor of
 Gaussian, Inc. access to this program.  By using this program,
 the user acknowledges that Gaussian, Inc. is engaged in the
 business of creating and licensing software in the field of
 computational chemistry and represents and warrants to the
 licensee that it is not a competitor of Gaussian, Inc. and that
 it will not use this program in any manner prohibited above.
 ---------------------------------------------------------------
  

 Cite this work as:
 Gaussian 09, Revision C.01,
 M. J. Frisch, G. W. Trucks, H. B. Schlegel, G. E. Scuseria, 
 M. A. Robb, J. R. Cheeseman, G. Scalmani, V. Barone, B. Mennucci, 
 G. A. Petersson, H. Nakatsuji, M. Caricato, X. Li, H. P. Hratchian, 
 A. F. Izmaylov, J. Bloino, G. Zheng, J. L. Sonnenberg, M. Hada, 
 M. Ehara, K. Toyota, R. Fukuda, J. Hasegawa, M. Ishida, T. Nakajima, 
 Y. Honda, O. Kitao, H. Nakai, T. Vreven, J. A. Montgomery, Jr., 
 J. E. Peralta, F. Ogliaro, M. Bearpark, J. J. Heyd, E. Brothers, 
 K. N. Kudin, V. N. Staroverov, T. Keith, R. Kobayashi, J. Normand, 
 K. Raghavachari, A. Rendell, J. C. Burant, S. S. Iyengar, J. Tomasi, 
 M. Cossi, N. Rega, J. M. Millam, M. Klene, J. E. Knox, J. B. Cross, 
 V. Bakken, C. Adamo, J. Jaramillo, R. Gomperts, R. E. Stratmann, 
 O. Yazyev, A. J. Austin, R. Cammi, C. Pomelli, J. W. Ochterski, 
 R. L. Martin, K. Morokuma, V. G. Zakrzewski, G. A. Voth, 
 P. Salvador, J. J. Dannenberg, S. Dapprich, A. D. Daniels, 
 O. Farkas, J. B. Foresman, J. V. Ortiz, J. Cioslowski, 
 and D. J. Fox, Gaussian, Inc., Wallingford CT, 2010.
 
 ******************************************
 Gaussian 09:  EM64L-G09RevC.01 23-Sep-2011
                13-May-2020 
 ******************************************
 %mem=8GB
 %nproc=8
 Will use up to    8 processors via shared memory.
 --------------------------------------------------------
 #p lc-blyp/aug-cc-PVTz int=ultrafine counterpoise=2 Scan
 --------------------------------------------------------
 1/38=1,60=1,62=2/1,8;
 2/12=2,17=6,18=5,29=3,40=1/2;
 1/38=1,53=5172,62=2/22;
 3/5=16,6=1,7=10,11=2,16=1,25=1,30=1,74=1000402,75=-5/1,2,3;
 4//1;
 5/5=2,38=5/2;
 6/7=2,8=2,9=2,10=2,18=1,28=1/1;
 1/53=4052,62=2,63=1/22;
 3/5=7,6=11,7=10,11=2,16=1,25=1,30=1,74=1000402,75=-5,82=7/1,2,3;
 4//1;
 5/5=2,38=5/2;
 6/7=2,8=2,9=2,10=2,18=1,28=1/1;
 1/53=3042,62=2,63=2/22;
 3/5=7,6=11,7=10,11=2,16=1,25=1,30=1,74=1000402,75=-5,82=7/1,2,3;
 4//1;
 5/5=2,38=5/2;
 6/7=2,8=2,9=2,10=2,18=1,28=1/1;
 1/53=2032,62=2,63=3/22;
 3/5=7,6=11,7=10,11=2,16=1,25=1,30=1,74=1000402,75=-5,82=7/1,2,3;
 4//1;
 5/5=2,38=5/2;
 6/7=2,8=2,9=2,10=2,18=1,28=1/1;
 1/53=1022,62=2,63=4/22;
 3/5=7,6=11,7=10,11=2,16=1,25=1,30=1,74=1000402,75=-5,82=7/1,2,3;
 4//1;
 5/5=2,38=5/2;
 6/7=2,8=2,9=2,10=2,18=1,28=1/1;
 1/53=5014,62=2,63=5/22;
 1/60=1,62=2/8(1);
 99/9=1/99;
 2/29=3/2;
 1/53=5173,62=2/22;
 3/5=7,6=11,7=10,11=2,16=1,25=1,30=1,74=1000402,75=-5,82=7/1,2,3;
 4/5=5,16=3/1;
 5/5=2,38=5/2;
 1/53=4053,62=2,63=1/22;
 3/5=7,6=11,7=10,11=2,16=1,25=1,30=1,74=1000402,75=-5,82=7/1,2,3;
 4/5=5,16=3/1;
 5/5=2,38=5/2;
 1/53=3043,62=2,63=2/22;
 3/5=7,6=11,7=10,11=2,16=1,25=1,30=1,74=1000402,75=-5,82=7/1,2,3;
 4/5=5,16=3/1;
 5/5=2,38=5/2;
 1/53=2033,62=2,63=3/22;
 3/5=7,6=11,7=10,11=2,16=1,25=1,30=1,74=1000402,75=-5,82=7/1,2,3;
 4/5=5,16=3/1;
 5/5=2,38=5/2;
 1/53=1024,62=2,63=4/22;
 3/5=7,6=11,7=10,11=2,16=1,25=1,30=1,74=1000402,75=-5,82=7/1,2,3;
 4/5=5,16=3/1;
 5/5=2,38=5/2;
 1/53=5014,62=2,63=5/22;
 1/60=1,62=2/8(-22);
 99/9=1/99;
 Leave Link    1 at Wed May 13 12:50:09 2020, MaxMem= 1073741824 cpu:       0.1
 (Enter /home/matheus/.gaussian/g09/l101.exe)
 ---
 TCC
 ---
 Charge =  0 Multiplicity = 1 in supermolecule
 Charge =  0 Multiplicity = 1 in fragment  1.
 Charge =  0 Multiplicity = 1 in fragment  2.
 Symbolic Z-Matrix:
 O(Fragment=1)         0.        0.        0.725 
 O(Fragment=1)         0.        0.       -0.725 
 H(Fragment=1)         0.70378   0.59054   1.02351 
 H(Fragment=1)         0.        0.91872  -1.02351 
 Kr(Fragment=2)        0.       R1        0. 
       Variables:
  R1                    3.     Scan 20    0.1    
 
 NAtoms=      5 NQM=        0 NQMF=       0 NMMI=      5 NMMIF=      0
                NMic=       0 NMicF=      0.
                    Isotopes and Nuclear Properties:
 (Nuclear quadrupole moments (NQMom) in fm**2, nuclear magnetic moments (NMagM)
  in nuclear magnetons)

  Atom         1           2           3           4           5
 IAtWgt=          16          16           1           1          84
 AtmWgt=  15.9949146  15.9949146   1.0078250   1.0078250  83.9115064
 NucSpn=           0           0           1           1           0
 AtZEff=   0.0000000   0.0000000   0.0000000   0.0000000   0.0000000
 NQMom=    0.0000000   0.0000000   0.0000000   0.0000000   0.0000000
 NMagM=    0.0000000   0.0000000   2.7928460   2.7928460   0.0000000
 Leave Link  101 at Wed May 13 12:50:09 2020, MaxMem= 1073741824 cpu:       0.3
 (Enter /home/matheus/.gaussian/g09/l108.exe)
 Scan the potential surface.
 Variable   Value     No. Steps Step-Size
 -------- ----------- --------- ---------
     1       3.000000      20      0.1000
 A total of     21 points will be computed.
 Leave Link  108 at Wed May 13 12:50:09 2020, MaxMem= 1073741824 cpu:       0.0
 (Enter /home/matheus/.gaussian/g09/l202.exe)
 ---------------------------------------------------------------------------------------------------
                            Z-MATRIX (ANGSTROMS AND DEGREES)
   CD    Cent   Atom    N1       Length/X        N2       Alpha/Y        N3        Beta/Z          J
 ---------------------------------------------------------------------------------------------------
      1      1  O        0   0.000000          0.000000          0.725000
      2      2  O        0   0.000000          0.000000         -0.725000
      3      3  H        0   0.703781          0.590542          1.023510
      4      4  H        0   0.000000          0.918721         -1.023510
      5      5  Kr       0   0.000000          3.000000          0.000000
 ---------------------------------------------------------------------------------------------------
                         Z-Matrix orientation:                         
 ---------------------------------------------------------------------
 Center     Atomic      Atomic             Coordinates (Angstroms)
 Number     Number       Type             X           Y           Z
 ---------------------------------------------------------------------
      1          8           0        0.000000    0.000000    0.725000
      2          8           0        0.000000    0.000000   -0.725000
      3          1           0        0.703781    0.590542    1.023510
      4          1           0        0.000000    0.918721   -1.023510
      5         36           0        0.000000    3.000000    0.000000
 ---------------------------------------------------------------------
                    Distance matrix (angstroms):
                    1          2          3          4          5
     1  O    0.000000
     2  O    1.450000   0.000000
     3  H    0.966000   1.975180   0.000000
     4  H    1.975180   0.966000   2.189361   0.000000
     5  Kr   3.086361   3.086361   2.710787   2.319331   0.000000
 Stoichiometry    H2KrO2
 Framework group  C1[X(H2KrO2)]
 Deg. of freedom     9
 Full point group                 C1      NOp   1
 Largest Abelian subgroup         C1      NOp   1
 Largest concise Abelian subgroup C1      NOp   1
                         Standard orientation:                         
 ---------------------------------------------------------------------
 Center     Atomic      Atomic             Coordinates (Angstroms)
 Number     Number       Type             X           Y           Z
 ---------------------------------------------------------------------
      1          8           0        2.030392   -0.713331   -0.083900
      2          8           0        2.025023    0.733004    0.018989
      3          1           0        1.447943   -1.063593    0.602558
      4          1           0        1.105248    1.026723    0.048985
      5         36           0       -0.972125   -0.003348   -0.003674
 ---------------------------------------------------------------------
 Rotational constants (GHZ):     26.0306695      2.3732907      2.1836508
 Leave Link  202 at Wed May 13 12:50:09 2020, MaxMem= 1073741824 cpu:       0.0
 (Enter /home/matheus/.gaussian/g09/l122.exe)
 Leave Link  122 at Wed May 13 12:50:09 2020, MaxMem= 1073741824 cpu:       0.0
 (Enter /home/matheus/.gaussian/g09/l301.exe)
 Standard basis: Aug-CC-pVTZ (5D, 7F)
 Ernie: Thresh=  0.10000D-02 Tol=  0.10000D-05 Strict=F.
 Ernie:  38 primitive shells out of 205 were deleted.
 There are   197 symmetry adapted basis functions of A   symmetry.
 Integral buffers will be    131072 words long.
 Raffenetti 2 integral format.
 Two-electron integral symmetry is turned on.
   197 basis functions,   415 primitive gaussians,   229 cartesian basis functions
    27 alpha electrons       27 beta electrons
       nuclear repulsion energy       150.6503454741 Hartrees.
 IExCor=10402 DFT=T Ex=LC-B+HF Corr=LYP ExCW=0 ScaHFX=  1.000000
 ScaDFX=  1.000000  1.000000  1.000000  1.000000 ScalE2=  1.000000  1.000000
 IRadAn=      5 IRanWt=     -1 IRanGd=            0 ICorTp=0
  HFx wShort=  0.000000 wLong=  0.470000 cFull=  0.000000 cShort=  0.000000 cLong=  1.000000
  DFx wShort=  0.000000 wLong=  0.470000 cFull=  0.000000 cShort=  0.000000 cLong=  1.000000
 NAtoms=    5 NActive=    5 NUniq=    5 SFac= 1.00D+00 NAtFMM=   60 NAOKFM=F Big=F
 Leave Link  301 at Wed May 13 12:50:09 2020, MaxMem= 1073741824 cpu:       0.2
 (Enter /home/matheus/.gaussian/g09/l302.exe)
 NPDir=0 NMtPBC=     1 NCelOv=     1 NCel=       1 NClECP=     1 NCelD=      1
         NCelK=      1 NCelE2=     1 NClLst=     1 CellRange=     0.0.
 One-electron integrals computed using PRISM.
 NBasis=   197 RedAO= T  NBF=   197
 NBsUse=   197 1.00D-06 NBFU=   197
 Precomputing XC quadrature grid using
 IXCGrd= 2 IRadAn=           5 IRanWt=          -1 IRanGd=           0 AccXCQ= 0.00D+00.
 NRdTot=     427 NPtTot=      123512 NUsed=      126579 NTot=      126611
 NSgBfM=   229   229   229   229   229 NAtAll=     5     5.
 Leave Link  302 at Wed May 13 12:50:09 2020, MaxMem= 1073741824 cpu:       0.9
 (Enter /home/matheus/.gaussian/g09/l303.exe)
 DipDrv:  MaxL=1.
 Leave Link  303 at Wed May 13 12:50:09 2020, MaxMem= 1073741824 cpu:       0.2
 (Enter /home/matheus/.gaussian/g09/l401.exe)
 Harris functional with IExCor=10402 diagonalized for initial guess.
 ExpMin= 2.53D-02 ExpMax= 1.17D+07 ExpMxC= 1.33D+04 IAcc=3 IRadAn=         5 AccDes= 0.00D+00
 HarFok:  IExCor=10402 AccDes= 0.00D+00 IRadAn=         5 IDoV= 1
 ScaDFX=  1.000000  1.000000  1.000000  1.000000
 FoFCou: FMM=F IPFlag=           0 FMFlag=      100000 FMFlg1=           0
         NFxFlg=           0 DoJE=T BraDBF=F KetDBF=T FulRan=T
         Omega=  0.000000  0.000000  1.000000  0.000000  0.000000 ICntrl=     500 IOpCl=  0
         NMat0=    1 NMatS0=    1 NMatT0=    0 NMatD0=    1 NMtDS0=    0 NMtDT0=    0
         I1Cent=           4 NGrid=           0.
 Petite list used in FoFCou.
 Harris En= -2891.66857860734    
 Initial guess orbital symmetries:
       Occupied  (A) (A) (A) (A) (A) (A) (A) (A) (A) (A) (A) (A)
                 (A) (A) (A) (A) (A) (A) (A) (A) (A) (A) (A) (A)
                 (A) (A) (A)
       Virtual   (A) (A) (A) (A) (A) (A) (A) (A) (A) (A) (A) (A)
                 (A) (A) (A) (A) (A) (A) (A) (A) (A) (A) (A) (A)
                 (A) (A) (A) (A) (A) (A) (A) (A) (A) (A) (A) (A)
                 (A) (A) (A) (A) (A) (A) (A) (A) (A) (A) (A) (A)
                 (A) (A) (A) (A) (A) (A) (A) (A) (A) (A) (A) (A)
                 (A) (A) (A) (A) (A) (A) (A) (A) (A) (A) (A) (A)
                 (A) (A) (A) (A) (A) (A) (A) (A) (A) (A) (A) (A)
                 (A) (A) (A) (A) (A) (A) (A) (A) (A) (A) (A) (A)
                 (A) (A) (A) (A) (A) (A) (A) (A) (A) (A) (A) (A)
                 (A) (A) (A) (A) (A) (A) (A) (A) (A) (A) (A) (A)
                 (A) (A) (A) (A) (A) (A) (A) (A) (A) (A) (A) (A)
                 (A) (A) (A) (A) (A) (A) (A) (A) (A) (A) (A) (A)
                 (A) (A) (A) (A) (A) (A) (A) (A) (A) (A) (A) (A)
                 (A) (A) (A) (A) (A) (A) (A) (A) (A) (A) (A) (A)
                 (A) (A)
 The electronic state of the initial guess is 1-A.
 Leave Link  401 at Wed May 13 12:50:10 2020, MaxMem= 1073741824 cpu:       4.2
 (Enter /home/matheus/.gaussian/g09/l502.exe)
 Closed shell SCF:
 Requested convergence on RMS density matrix=1.00D-08 within 128 cycles.
 Requested convergence on MAX density matrix=1.00D-06.
 Requested convergence on             energy=1.00D-06.
 No special actions if energy rises.
 Using DIIS extrapolation, IDIIS=  1040.
 Integral symmetry usage will be decided dynamically.
       126521 words used for storage of precomputed grid.
 IEnd=      305468 IEndB=      305468 NGot=  1073741824 MDV=  1073505667
 LenX=  1073505667 LenY=  1073452785
 Fock matrices will be formed incrementally for  20 cycles.

 Cycle   1  Pass 1  IDiag  1:
 FoFJK:  IHMeth= 1 ICntrl=     0 DoSepK=T KAlg= 1 I1Cent= 0 FoldK=F
 FoFCou: FMM=F IPFlag=           0 FMFlag=      100000 FMFlg1=           0
         NFxFlg=           0 DoJE=T BraDBF=F KetDBF=F FulRan=T
         Omega=  0.000000  0.000000  1.000000  0.000000  0.000000 ICntrl=     500 IOpCl=  0
         NMat0=    1 NMatS0=    1 NMatT0=    0 NMatD0=    1 NMtDS0=    0 NMtDT0=    0
         I1Cent=           0 NGrid=           0.
 Symmetry not used in FoFCou.
 E= -2904.62735613777    
 DIIS: error= 2.80D-02 at cycle   1 NSaved=   1.
 NSaved= 1 IEnMin= 1 EnMin= -2904.62735613777     IErMin= 1 ErrMin= 2.80D-02
 ErrMax= 2.80D-02 EMaxC= 1.00D-01 BMatC= 2.88D-01 BMatP= 2.88D-01
 IDIUse=3 WtCom= 7.20D-01 WtEn= 2.80D-01
 Coeff-Com:  0.100D+01
 Coeff-En:   0.100D+01
 Coeff:      0.100D+01
 Gap=     0.475 Goal=   None    Shift=    0.000
 GapD=    0.475 DampG=2.000 DampE=0.500 DampFc=1.0000 IDamp=-1.
 RMSDP=2.67D-03 MaxDP=1.55D-01              OVMax= 1.09D-01

 Cycle   2  Pass 1  IDiag  1:
 RMSU=  1.84D-03    CP:  1.02D+00
 FoFJK:  IHMeth= 1 ICntrl=     0 DoSepK=T KAlg= 1 I1Cent= 0 FoldK=F
 E= -2904.70621886249     Delta-E=       -0.078862724718 Rises=F Damp=F
 DIIS: error= 1.32D-02 at cycle   2 NSaved=   2.
 NSaved= 2 IEnMin= 2 EnMin= -2904.70621886249     IErMin= 2 ErrMin= 1.32D-02
 ErrMax= 1.32D-02 EMaxC= 1.00D-01 BMatC= 9.44D-02 BMatP= 2.88D-01
 IDIUse=3 WtCom= 8.68D-01 WtEn= 1.32D-01
 Coeff-Com:  0.359D+00 0.641D+00
 Coeff-En:   0.238D-01 0.976D+00
 Coeff:      0.315D+00 0.685D+00
 Gap=     0.442 Goal=   None    Shift=    0.000
 RMSDP=1.03D-03 MaxDP=6.35D-02 DE=-7.89D-02 OVMax= 3.21D-02

 Cycle   3  Pass 1  IDiag  1:
 RMSU=  3.32D-04    CP:  1.01D+00  6.60D-01
 FoFJK:  IHMeth= 1 ICntrl=     0 DoSepK=T KAlg= 1 I1Cent= 0 FoldK=F
 E= -2904.73750287752     Delta-E=       -0.031284015031 Rises=F Damp=F
 DIIS: error= 1.39D-03 at cycle   3 NSaved=   3.
 NSaved= 3 IEnMin= 3 EnMin= -2904.73750287752     IErMin= 3 ErrMin= 1.39D-03
 ErrMax= 1.39D-03 EMaxC= 1.00D-01 BMatC= 1.20D-03 BMatP= 9.44D-02
 IDIUse=3 WtCom= 9.86D-01 WtEn= 1.39D-02
 Coeff-Com:  0.317D-02 0.979D-01 0.899D+00
 Coeff-En:   0.000D+00 0.000D+00 0.100D+01
 Coeff:      0.312D-02 0.966D-01 0.900D+00
 Gap=     0.446 Goal=   None    Shift=    0.000
 RMSDP=1.54D-04 MaxDP=6.51D-03 DE=-3.13D-02 OVMax= 6.81D-03

 Cycle   4  Pass 1  IDiag  1:
 RMSU=  6.73D-05    CP:  1.02D+00  7.02D-01  1.10D+00
 FoFJK:  IHMeth= 1 ICntrl=     0 DoSepK=T KAlg= 1 I1Cent= 0 FoldK=F
 E= -2904.73800470639     Delta-E=       -0.000501828871 Rises=F Damp=F
 DIIS: error= 3.98D-04 at cycle   4 NSaved=   4.
 NSaved= 4 IEnMin= 4 EnMin= -2904.73800470639     IErMin= 4 ErrMin= 3.98D-04
 ErrMax= 3.98D-04 EMaxC= 1.00D-01 BMatC= 6.65D-05 BMatP= 1.20D-03
 IDIUse=3 WtCom= 9.96D-01 WtEn= 3.98D-03
 Coeff-Com: -0.118D-01 0.976D-02 0.282D+00 0.720D+00
 Coeff-En:   0.000D+00 0.000D+00 0.000D+00 0.100D+01
 Coeff:     -0.117D-01 0.972D-02 0.280D+00 0.722D+00
 Gap=     0.442 Goal=   None    Shift=    0.000
 RMSDP=3.72D-05 MaxDP=1.45D-03 DE=-5.02D-04 OVMax= 1.83D-03

 Cycle   5  Pass 1  IDiag  1:
 RMSU=  2.09D-05    CP:  1.02D+00  7.05D-01  1.15D+00  9.93D-01
 FoFJK:  IHMeth= 1 ICntrl=     0 DoSepK=T KAlg= 1 I1Cent= 0 FoldK=F
 E= -2904.73804993544     Delta-E=       -0.000045229053 Rises=F Damp=F
 DIIS: error= 1.32D-04 at cycle   5 NSaved=   5.
 NSaved= 5 IEnMin= 5 EnMin= -2904.73804993544     IErMin= 5 ErrMin= 1.32D-04
 ErrMax= 1.32D-04 EMaxC= 1.00D-01 BMatC= 8.96D-06 BMatP= 6.65D-05
 IDIUse=3 WtCom= 9.99D-01 WtEn= 1.32D-03
 Coeff-Com: -0.356D-02-0.624D-02-0.720D-02 0.250D+00 0.767D+00
 Coeff-En:   0.000D+00 0.000D+00 0.000D+00 0.000D+00 0.100D+01
 Coeff:     -0.356D-02-0.623D-02-0.719D-02 0.249D+00 0.768D+00
 Gap=     0.443 Goal=   None    Shift=    0.000
 RMSDP=1.50D-05 MaxDP=4.90D-04 DE=-4.52D-05 OVMax= 1.00D-03

 Cycle   6  Pass 1  IDiag  1:
 RMSU=  6.22D-06    CP:  1.02D+00  7.06D-01  1.17D+00  1.08D+00  9.88D-01
 FoFJK:  IHMeth= 1 ICntrl=     0 DoSepK=T KAlg= 1 I1Cent= 0 FoldK=F
 E= -2904.73805712966     Delta-E=       -0.000007194222 Rises=F Damp=F
 DIIS: error= 5.27D-05 at cycle   6 NSaved=   6.
 NSaved= 6 IEnMin= 6 EnMin= -2904.73805712966     IErMin= 6 ErrMin= 5.27D-05
 ErrMax= 5.27D-05 EMaxC= 1.00D-01 BMatC= 1.23D-06 BMatP= 8.96D-06
 IDIUse=1 WtCom= 1.00D+00 WtEn= 0.00D+00
 Coeff-Com: -0.474D-03-0.350D-02-0.241D-01 0.316D-01 0.297D+00 0.700D+00
 Coeff:     -0.474D-03-0.350D-02-0.241D-01 0.316D-01 0.297D+00 0.700D+00
 Gap=     0.443 Goal=   None    Shift=    0.000
 RMSDP=5.43D-06 MaxDP=1.80D-04 DE=-7.19D-06 OVMax= 3.34D-04

 Cycle   7  Pass 1  IDiag  1:
 RMSU=  2.34D-06    CP:  1.02D+00  7.06D-01  1.17D+00  1.11D+00  1.07D+00
                    CP:  1.01D+00
 FoFJK:  IHMeth= 1 ICntrl=     0 DoSepK=T KAlg= 1 I1Cent= 0 FoldK=F
 E= -2904.73805801154     Delta-E=       -0.000000881878 Rises=F Damp=F
 DIIS: error= 2.36D-05 at cycle   7 NSaved=   7.
 NSaved= 7 IEnMin= 7 EnMin= -2904.73805801154     IErMin= 7 ErrMin= 2.36D-05
 ErrMax= 2.36D-05 EMaxC= 1.00D-01 BMatC= 2.11D-07 BMatP= 1.23D-06
 IDIUse=1 WtCom= 1.00D+00 WtEn= 0.00D+00
 Coeff-Com:  0.128D-03-0.121D-02-0.107D-01-0.217D-01 0.251D-01 0.321D+00
 Coeff-Com:  0.687D+00
 Coeff:      0.128D-03-0.121D-02-0.107D-01-0.217D-01 0.251D-01 0.321D+00
 Coeff:      0.687D+00
 Gap=     0.443 Goal=   None    Shift=    0.000
 RMSDP=1.97D-06 MaxDP=5.13D-05 DE=-8.82D-07 OVMax= 1.01D-04

 Cycle   8  Pass 1  IDiag  1:
 RMSU=  6.40D-07    CP:  1.02D+00  7.06D-01  1.17D+00  1.12D+00  1.10D+00
                    CP:  1.12D+00  9.06D-01
 FoFJK:  IHMeth= 1 ICntrl=     0 DoSepK=T KAlg= 1 I1Cent= 0 FoldK=F
 E= -2904.73805817643     Delta-E=       -0.000000164892 Rises=F Damp=F
 DIIS: error= 3.48D-06 at cycle   8 NSaved=   8.
 NSaved= 8 IEnMin= 8 EnMin= -2904.73805817643     IErMin= 8 ErrMin= 3.48D-06
 ErrMax= 3.48D-06 EMaxC= 1.00D-01 BMatC= 2.94D-09 BMatP= 2.11D-07
 IDIUse=1 WtCom= 1.00D+00 WtEn= 0.00D+00
 Coeff-Com:  0.212D-04 0.232D-03 0.186D-02-0.107D-02-0.206D-01-0.563D-01
 Coeff-Com: -0.218D-01 0.110D+01
 Coeff:      0.212D-04 0.232D-03 0.186D-02-0.107D-02-0.206D-01-0.563D-01
 Coeff:     -0.218D-01 0.110D+01
 Gap=     0.443 Goal=   None    Shift=    0.000
 RMSDP=5.87D-07 MaxDP=1.53D-05 DE=-1.65D-07 OVMax= 4.64D-05

 Cycle   9  Pass 1  IDiag  1:
 RMSU=  1.65D-07    CP:  1.02D+00  7.06D-01  1.17D+00  1.12D+00  1.11D+00
                    CP:  1.15D+00  9.73D-01  1.31D+00
 FoFJK:  IHMeth= 1 ICntrl=     0 DoSepK=T KAlg= 1 I1Cent= 0 FoldK=F
 E= -2904.73805818406     Delta-E=       -0.000000007624 Rises=F Damp=F
 DIIS: error= 7.70D-07 at cycle   9 NSaved=   9.
 NSaved= 9 IEnMin= 9 EnMin= -2904.73805818406     IErMin= 9 ErrMin= 7.70D-07
 ErrMax= 7.70D-07 EMaxC= 1.00D-01 BMatC= 2.30D-10 BMatP= 2.94D-09
 IDIUse=1 WtCom= 1.00D+00 WtEn= 0.00D+00
 Coeff-Com: -0.293D-05 0.127D-03 0.862D-03 0.154D-02-0.292D-02-0.267D-01
 Coeff-Com: -0.507D-01 0.957D-01 0.982D+00
 Coeff:     -0.293D-05 0.127D-03 0.862D-03 0.154D-02-0.292D-02-0.267D-01
 Coeff:     -0.507D-01 0.957D-01 0.982D+00
 Gap=     0.443 Goal=   None    Shift=    0.000
 RMSDP=1.31D-07 MaxDP=2.62D-06 DE=-7.62D-09 OVMax= 1.02D-05

 Cycle  10  Pass 1  IDiag  1:
 RMSU=  4.64D-08    CP:  1.02D+00  7.06D-01  1.17D+00  1.12D+00  1.11D+00
                    CP:  1.15D+00  9.82D-01  1.39D+00  1.19D+00
 FoFJK:  IHMeth= 1 ICntrl=     0 DoSepK=T KAlg= 1 I1Cent= 0 FoldK=F
 E= -2904.73805818457     Delta-E=       -0.000000000515 Rises=F Damp=F
 DIIS: error= 2.24D-07 at cycle  10 NSaved=  10.
 NSaved=10 IEnMin=10 EnMin= -2904.73805818457     IErMin=10 ErrMin= 2.24D-07
 ErrMax= 2.24D-07 EMaxC= 1.00D-01 BMatC= 1.06D-11 BMatP= 2.30D-10
 IDIUse=1 WtCom= 1.00D+00 WtEn= 0.00D+00
 Coeff-Com: -0.214D-06-0.111D-04-0.107D-03 0.404D-04 0.107D-02 0.333D-02
 Coeff-Com:  0.226D-02-0.627D-01 0.577D-02 0.105D+01
 Coeff:     -0.214D-06-0.111D-04-0.107D-03 0.404D-04 0.107D-02 0.333D-02
 Coeff:      0.226D-02-0.627D-01 0.577D-02 0.105D+01
 Gap=     0.443 Goal=   None    Shift=    0.000
 RMSDP=3.56D-08 MaxDP=8.56D-07 DE=-5.15D-10 OVMax= 3.42D-06

 Cycle  11  Pass 1  IDiag  1:
 RMSU=  1.33D-08    CP:  1.02D+00  7.06D-01  1.17D+00  1.12D+00  1.11D+00
                    CP:  1.15D+00  9.82D-01  1.39D+00  1.27D+00  1.27D+00
 FoFJK:  IHMeth= 1 ICntrl=     0 DoSepK=T KAlg= 1 I1Cent= 0 FoldK=F
 E= -2904.73805818463     Delta-E=       -0.000000000051 Rises=F Damp=F
 DIIS: error= 8.55D-08 at cycle  11 NSaved=  11.
 NSaved=11 IEnMin=11 EnMin= -2904.73805818463     IErMin=11 ErrMin= 8.55D-08
 ErrMax= 8.55D-08 EMaxC= 1.00D-01 BMatC= 1.20D-12 BMatP= 1.06D-11
 IDIUse=1 WtCom= 1.00D+00 WtEn= 0.00D+00
 Coeff-Com: -0.261D-06-0.111D-04-0.610D-04-0.112D-03 0.113D-03 0.176D-02
 Coeff-Com:  0.404D-02-0.233D-02-0.737D-01-0.123D+00 0.119D+01
 Coeff:     -0.261D-06-0.111D-04-0.610D-04-0.112D-03 0.113D-03 0.176D-02
 Coeff:      0.404D-02-0.233D-02-0.737D-01-0.123D+00 0.119D+01
 Gap=     0.443 Goal=   None    Shift=    0.000
 RMSDP=1.41D-08 MaxDP=3.28D-07 DE=-5.14D-11 OVMax= 1.77D-06

 Cycle  12  Pass 1  IDiag  1:
 RMSU=  3.86D-09    CP:  1.02D+00  7.06D-01  1.17D+00  1.12D+00  1.11D+00
                    CP:  1.15D+00  9.81D-01  1.39D+00  1.28D+00  1.39D+00
                    CP:  1.45D+00
 FoFJK:  IHMeth= 1 ICntrl=     0 DoSepK=T KAlg= 1 I1Cent= 0 FoldK=F
 E= -2904.73805818462     Delta-E=        0.000000000002 Rises=F Damp=F
 DIIS: error= 3.13D-08 at cycle  12 NSaved=  12.
 NSaved=12 IEnMin=11 EnMin= -2904.73805818463     IErMin=12 ErrMin= 3.13D-08
 ErrMax= 3.13D-08 EMaxC= 1.00D-01 BMatC= 1.32D-13 BMatP= 1.20D-12
 IDIUse=1 WtCom= 1.00D+00 WtEn= 0.00D+00
 Coeff-Com:  0.136D-06 0.341D-05 0.222D-04 0.140D-04-0.130D-03-0.678D-03
 Coeff-Com: -0.904D-03 0.726D-02 0.120D-01-0.962D-01-0.163D+00 0.124D+01
 Coeff:      0.136D-06 0.341D-05 0.222D-04 0.140D-04-0.130D-03-0.678D-03
 Coeff:     -0.904D-03 0.726D-02 0.120D-01-0.962D-01-0.163D+00 0.124D+01
 Gap=     0.443 Goal=   None    Shift=    0.000
 RMSDP=5.34D-09 MaxDP=1.09D-07 DE= 1.82D-12 OVMax= 7.91D-07

 SCF Done:  E(RLC-B+HF-LYP) =  -2904.73805818     A.U. after   12 cycles
             Convg  =    0.5336D-08             -V/T =  2.0017
 KE= 2.899845252824D+03 PE=-7.237023395644D+03 EE= 1.281789739161D+03
 Leave Link  502 at Wed May 13 12:50:46 2020, MaxMem= 1073741824 cpu:     287.8
 (Enter /home/matheus/.gaussian/g09/l601.exe)
 Copying SCF densities to generalized density rwf, IOpCl= 0 IROHF=0.

 **********************************************************************

            Population analysis using the SCF density.

 **********************************************************************

 Orbital symmetries:
       Occupied  (A) (A) (A) (A) (A) (A) (A) (A) (A) (A) (A) (A)
                 (A) (A) (A) (A) (A) (A) (A) (A) (A) (A) (A) (A)
                 (A) (A) (A)
       Virtual   (A) (A) (A) (A) (A) (A) (A) (A) (A) (A) (A) (A)
                 (A) (A) (A) (A) (A) (A) (A) (A) (A) (A) (A) (A)
                 (A) (A) (A) (A) (A) (A) (A) (A) (A) (A) (A) (A)
                 (A) (A) (A) (A) (A) (A) (A) (A) (A) (A) (A) (A)
                 (A) (A) (A) (A) (A) (A) (A) (A) (A) (A) (A) (A)
                 (A) (A) (A) (A) (A) (A) (A) (A) (A) (A) (A) (A)
                 (A) (A) (A) (A) (A) (A) (A) (A) (A) (A) (A) (A)
                 (A) (A) (A) (A) (A) (A) (A) (A) (A) (A) (A) (A)
                 (A) (A) (A) (A) (A) (A) (A) (A) (A) (A) (A) (A)
                 (A) (A) (A) (A) (A) (A) (A) (A) (A) (A) (A) (A)
                 (A) (A) (A) (A) (A) (A) (A) (A) (A) (A) (A) (A)
                 (A) (A) (A) (A) (A) (A) (A) (A) (A) (A) (A) (A)
                 (A) (A) (A) (A) (A) (A) (A) (A) (A) (A) (A) (A)
                 (A) (A) (A) (A) (A) (A) (A) (A) (A) (A) (A) (A)
                 (A) (A)
 The electronic state is 1-A.
 Alpha  occ. eigenvalues -- -511.27253 -66.74246 -60.42777 -60.42766 -60.42755
 Alpha  occ. eigenvalues --  -19.07270 -19.07011  -9.63397  -7.38881  -7.38851
 Alpha  occ. eigenvalues --   -7.38817  -3.35217  -3.35212  -3.35187  -3.35164
 Alpha  occ. eigenvalues --   -3.35160  -1.28520  -1.09186  -1.06218  -0.72435
 Alpha  occ. eigenvalues --   -0.60035  -0.57964  -0.54609  -0.54060  -0.53090
 Alpha  occ. eigenvalues --   -0.48625  -0.41947
 Alpha virt. eigenvalues --    0.02355   0.03622   0.07391   0.08355   0.09748
 Alpha virt. eigenvalues --    0.10770   0.12041   0.13634   0.16307   0.16797
 Alpha virt. eigenvalues --    0.17133   0.18824   0.19244   0.21014   0.22781
 Alpha virt. eigenvalues --    0.23508   0.24331   0.27841   0.30381   0.31725
 Alpha virt. eigenvalues --    0.32769   0.34260   0.36548   0.37885   0.39126
 Alpha virt. eigenvalues --    0.41172   0.42187   0.46648   0.52347   0.53881
 Alpha virt. eigenvalues --    0.57048   0.58936   0.60668   0.63685   0.67442
 Alpha virt. eigenvalues --    0.68393   0.70709   0.73344   0.75726   0.75990
 Alpha virt. eigenvalues --    0.76785   0.77543   0.78858   0.80730   0.83725
 Alpha virt. eigenvalues --    0.85387   0.86581   0.88142   0.88937   0.90769
 Alpha virt. eigenvalues --    0.91459   0.94958   0.96392   0.97771   0.99699
 Alpha virt. eigenvalues --    1.00654   1.02886   1.05947   1.06904   1.11101
 Alpha virt. eigenvalues --    1.12414   1.15593   1.18565   1.21982   1.24331
 Alpha virt. eigenvalues --    1.29386   1.34958   1.37804   1.41120   1.42743
 Alpha virt. eigenvalues --    1.45002   1.48453   1.51061   1.55140   1.59699
 Alpha virt. eigenvalues --    1.66540   1.69909   1.84343   1.91686   1.94257
 Alpha virt. eigenvalues --    2.01797   2.06909   2.10450   2.11458   2.13797
 Alpha virt. eigenvalues --    2.16201   2.19382   2.21246   2.22599   2.26883
 Alpha virt. eigenvalues --    2.30494   2.30552   2.31631   2.33300   2.34318
 Alpha virt. eigenvalues --    2.39126   2.39566   2.45711   2.49748   2.50034
 Alpha virt. eigenvalues --    2.51141   2.52970   2.56502   2.57467   2.59273
 Alpha virt. eigenvalues --    2.59909   2.64428   2.67730   2.71117   2.73350
 Alpha virt. eigenvalues --    2.74502   2.78557   2.83531   2.89466   2.90469
 Alpha virt. eigenvalues --    2.95817   3.02428   3.09902   3.13567   3.63296
 Alpha virt. eigenvalues --    3.69097   3.93879   3.98585   4.00984   4.05743
 Alpha virt. eigenvalues --    4.10899   4.15124   4.25113   4.25803   4.28463
 Alpha virt. eigenvalues --    4.44428   4.47644   4.59313   4.62132   4.70065
 Alpha virt. eigenvalues --    4.98486   5.02068   5.03401   5.08688   5.16522
 Alpha virt. eigenvalues --    5.18931   5.44610   5.85819   6.02245   6.14362
 Alpha virt. eigenvalues --    6.15279   6.33022   6.41057   6.42386   6.55285
 Alpha virt. eigenvalues --    6.67188   6.75087   6.78951   6.84340   6.86868
 Alpha virt. eigenvalues --    6.90620   6.92151   6.92620   6.93683   7.06160
 Alpha virt. eigenvalues --    7.11239   7.16964   7.24705   7.46014   7.50807
 Alpha virt. eigenvalues --    7.87237   8.04285   8.15362  13.97085  14.58614
          Condensed to atoms (all electrons):
              1          2          3          4          5
     1  O    8.256910  -0.205881   0.164610   0.023755  -0.029047
     2  O   -0.205881   8.207217   0.037524   0.191653  -0.017157
     3  H    0.164610   0.037524   0.607415  -0.014011  -0.001501
     4  H    0.023755   0.191653  -0.014011   0.604548  -0.006556
     5  Kr  -0.029047  -0.017157  -0.001501  -0.006556  36.037129
 Mulliken atomic charges:
              1
     1  O   -0.210347
     2  O   -0.213357
     3  H    0.205962
     4  H    0.200610
     5  Kr   0.017132
 Sum of Mulliken atomic charges =   0.00000
 Mulliken charges with hydrogens summed into heavy atoms:
              1
     1  O   -0.004385
     2  O   -0.012747
     5  Kr   0.017132
 Sum of Mulliken charges with hydrogens summed into heavy atoms =   0.00000
          Condensed to fragments (all electrons):
     1      -0.017132
     2       0.017132
 Electronic spatial extent (au):  <R**2>=            479.3782
 Charge=              0.0000 electrons
 Dipole moment (field-independent basis, Debye):
    X=             -3.0353    Y=             -0.2250    Z=              1.1034  Tot=              3.2374
 Quadrupole moment (field-independent basis, Debye-Ang):
   XX=            -38.4971   YY=            -28.3121   ZZ=            -29.9021
   XY=             -0.8455   XZ=              1.6229   YZ=             -1.4385
 Traceless Quadrupole moment (field-independent basis, Debye-Ang):
   XX=             -6.2600   YY=              3.9250   ZZ=              2.3350
   XY=             -0.8455   XZ=              1.6229   YZ=             -1.4385
 Octapole moment (field-independent basis, Debye-Ang**2):
  XXX=            -45.0328  YYY=             -0.5992  ZZZ=              0.4980  XYY=             -7.4073
  XXY=             -2.1274  XXZ=              1.4266  XZZ=             -7.5815  YZZ=             -1.1266
  YYZ=              1.7304  XYZ=             -2.0923
 Hexadecapole moment (field-independent basis, Debye-Ang**3):
 XXXX=           -470.0487 YYYY=            -64.8780 ZZZZ=            -30.7425 XXXY=             -2.9666
 XXXZ=              1.2163 YYYX=             -1.6235 YYYZ=             -2.0824 ZZZX=              1.1243
 ZZZY=             -1.2593 XXYY=            -86.7196 XXZZ=            -75.9292 YYZZ=            -16.9748
 XXYZ=             -3.1003 YYXZ=              2.5122 ZZXY=             -1.6842
 N-N= 1.506503454741D+02 E-N=-7.237023398038D+03  KE= 2.899845252824D+03
 No NMR shielding tensors so no spin-rotation constants.
 Leave Link  601 at Wed May 13 12:50:46 2020, MaxMem= 1073741824 cpu:       0.8
 (Enter /home/matheus/.gaussian/g09/l122.exe)
 Counterpoise: doing DCBS calculation for fragment   1 NewBq=T
 Leave Link  122 at Wed May 13 12:50:46 2020, MaxMem= 1073741824 cpu:       0.0
 (Enter /home/matheus/.gaussian/g09/l301.exe)
 Basis read from rwf:  (5D, 7F)
 No pseudopotential information found on rwf file.
 There are   197 symmetry adapted basis functions of A   symmetry.
 Integral buffers will be    131072 words long.
 Raffenetti 2 integral format.
 Two-electron integral symmetry is turned on.
   197 basis functions,   415 primitive gaussians,   229 cartesian basis functions
     9 alpha electrons        9 beta electrons
       nuclear repulsion energy        36.6499454140 Hartrees.
 IExCor=10402 DFT=T Ex=LC-B+HF Corr=LYP ExCW=0 ScaHFX=  1.000000
 ScaDFX=  1.000000  1.000000  1.000000  1.000000 ScalE2=  1.000000  1.000000
 IRadAn=      5 IRanWt=     -1 IRanGd=            0 ICorTp=0
  HFx wShort=  0.000000 wLong=  0.470000 cFull=  0.000000 cShort=  0.000000 cLong=  1.000000
  DFx wShort=  0.000000 wLong=  0.470000 cFull=  0.000000 cShort=  0.000000 cLong=  1.000000
 NAtoms=    5 NActive=    5 NUniq=    5 SFac= 1.00D+00 NAtFMM=   60 NAOKFM=F Big=F
 No density basis found on file   718.
 Leave Link  301 at Wed May 13 12:50:46 2020, MaxMem= 1073741824 cpu:       0.2
 (Enter /home/matheus/.gaussian/g09/l302.exe)
 NPDir=0 NMtPBC=     1 NCelOv=     1 NCel=       1 NClECP=     1 NCelD=      1
         NCelK=      1 NCelE2=     1 NClLst=     1 CellRange=     0.0.
 One-electron integrals computed using PRISM.
 NBasis=   197 RedAO= T  NBF=   197
 NBsUse=   197 1.00D-06 NBFU=   197
 Precomputing XC quadrature grid using
 IXCGrd= 2 IRadAn=           5 IRanWt=          -1 IRanGd=           0 AccXCQ= 0.00D+00.
 NRdTot=     427 NPtTot=      123512 NUsed=      126579 NTot=      126611
 NSgBfM=   229   229   229   229   229 NAtAll=     5     5.
 Leave Link  302 at Wed May 13 12:50:46 2020, MaxMem= 1073741824 cpu:       1.0
 (Enter /home/matheus/.gaussian/g09/l303.exe)
 DipDrv:  MaxL=1.
 Leave Link  303 at Wed May 13 12:50:46 2020, MaxMem= 1073741824 cpu:       0.2
 (Enter /home/matheus/.gaussian/g09/l401.exe)
 Harris functional with IExCor=10402 diagonalized for initial guess.
 ExpMin= 2.53D-02 ExpMax= 1.17D+07 ExpMxC= 1.33D+04 IAcc=3 IRadAn=         5 AccDes= 0.00D+00
 HarFok:  IExCor=10402 AccDes= 0.00D+00 IRadAn=         5 IDoV= 1
 ScaDFX=  1.000000  1.000000  1.000000  1.000000
 FoFCou: FMM=F IPFlag=           0 FMFlag=      100000 FMFlg1=           0
         NFxFlg=           0 DoJE=T BraDBF=F KetDBF=T FulRan=T
         Omega=  0.000000  0.000000  1.000000  0.000000  0.000000 ICntrl=     500 IOpCl=  0
         NMat0=    1 NMatS0=    1 NMatT0=    0 NMatD0=    1 NMtDS0=    0 NMtDT0=    0
         I1Cent=           4 NGrid=           0.
 Petite list used in FoFCou.
 Harris En= -147.163933928367    
 Initial guess orbital symmetries:
       Occupied  (A) (A) (A) (A) (A) (A) (A) (A) (A)
       Virtual   (A) (A) (A) (A) (A) (A) (A) (A) (A) (A) (A) (A)
                 (A) (A) (A) (A) (A) (A) (A) (A) (A) (A) (A) (A)
                 (A) (A) (A) (A) (A) (A) (A) (A) (A) (A) (A) (A)
                 (A) (A) (A) (A) (A) (A) (A) (A) (A) (A) (A) (A)
                 (A) (A) (A) (A) (A) (A) (A) (A) (A) (A) (A) (A)
                 (A) (A) (A) (A) (A) (A) (A) (A) (A) (A) (A) (A)
                 (A) (A) (A) (A) (A) (A) (A) (A) (A) (A) (A) (A)
                 (A) (A) (A) (A) (A) (A) (A) (A) (A) (A) (A) (A)
                 (A) (A) (A) (A) (A) (A) (A) (A) (A) (A) (A) (A)
                 (A) (A) (A) (A) (A) (A) (A) (A) (A) (A) (A) (A)
                 (A) (A) (A) (A) (A) (A) (A) (A) (A) (A) (A) (A)
                 (A) (A) (A) (A) (A) (A) (A) (A) (A) (A) (A) (A)
                 (A) (A) (A) (A) (A) (A) (A) (A) (A) (A) (A) (A)
                 (A) (A) (A) (A) (A) (A) (A) (A) (A) (A) (A) (A)
                 (A) (A) (A) (A) (A) (A) (A) (A) (A) (A) (A) (A)
                 (A) (A) (A) (A) (A) (A) (A) (A)
 The electronic state of the initial guess is 1-A.
 Leave Link  401 at Wed May 13 12:50:47 2020, MaxMem= 1073741824 cpu:       3.9
 (Enter /home/matheus/.gaussian/g09/l502.exe)
 Closed shell SCF:
 Requested convergence on RMS density matrix=1.00D-08 within 128 cycles.
 Requested convergence on MAX density matrix=1.00D-06.
 Requested convergence on             energy=1.00D-06.
 No special actions if energy rises.
 Using DIIS extrapolation, IDIIS=  1040.
 Integral symmetry usage will be decided dynamically.
       126521 words used for storage of precomputed grid.
 IEnd=      305468 IEndB=      305468 NGot=  1073741824 MDV=  1073505667
 LenX=  1073505667 LenY=  1073452785
 Fock matrices will be formed incrementally for  20 cycles.

 Cycle   1  Pass 1  IDiag  1:
 FoFJK:  IHMeth= 1 ICntrl=     0 DoSepK=T KAlg= 1 I1Cent= 0 FoldK=F
 FoFCou: FMM=F IPFlag=           0 FMFlag=      100000 FMFlg1=           0
         NFxFlg=           0 DoJE=T BraDBF=F KetDBF=F FulRan=T
         Omega=  0.000000  0.000000  1.000000  0.000000  0.000000 ICntrl=     500 IOpCl=  0
         NMat0=    1 NMatS0=    1 NMatT0=    0 NMatD0=    1 NMtDS0=    0 NMtDT0=    0
         I1Cent=           0 NGrid=           0.
 Symmetry not used in FoFCou.
 E= -151.298659517345    
 DIIS: error= 8.89D-03 at cycle   1 NSaved=   1.
 NSaved= 1 IEnMin= 1 EnMin= -151.298659517345     IErMin= 1 ErrMin= 8.89D-03
 ErrMax= 8.89D-03 EMaxC= 1.00D-01 BMatC= 2.37D-02 BMatP= 2.37D-02
 IDIUse=3 WtCom= 9.11D-01 WtEn= 8.89D-02
 Coeff-Com:  0.100D+01
 Coeff-En:   0.100D+01
 Coeff:      0.100D+01
 Gap=     0.470 Goal=   None    Shift=    0.000
 GapD=    0.470 DampG=2.000 DampE=1.000 DampFc=2.0000 IDamp=-1.
 RMSDP=8.75D-04 MaxDP=2.93D-02              OVMax= 5.56D-02

 Cycle   2  Pass 1  IDiag  1:
 RMSU=  6.18D-04    CP:  1.00D+00
 FoFJK:  IHMeth= 1 ICntrl=     0 DoSepK=T KAlg= 1 I1Cent= 0 FoldK=F
 E= -151.319649469794     Delta-E=       -0.020989952449 Rises=F Damp=F
 DIIS: error= 4.47D-03 at cycle   2 NSaved=   2.
 NSaved= 2 IEnMin= 2 EnMin= -151.319649469794     IErMin= 2 ErrMin= 4.47D-03
 ErrMax= 4.47D-03 EMaxC= 1.00D-01 BMatC= 4.56D-03 BMatP= 2.37D-02
 IDIUse=3 WtCom= 9.55D-01 WtEn= 4.47D-02
 Coeff-Com:  0.257D+00 0.743D+00
 Coeff-En:   0.000D+00 0.100D+01
 Coeff:      0.246D+00 0.754D+00
 Gap=     0.431 Goal=   None    Shift=    0.000
 RMSDP=2.13D-04 MaxDP=6.25D-03 DE=-2.10D-02 OVMax= 1.45D-02

 Cycle   3  Pass 1  IDiag  1:
 RMSU=  1.50D-04    CP:  1.00D+00  1.02D+00
 FoFJK:  IHMeth= 1 ICntrl=     0 DoSepK=T KAlg= 1 I1Cent= 0 FoldK=F
 E= -151.322220540160     Delta-E=       -0.002571070366 Rises=F Damp=F
 DIIS: error= 1.20D-03 at cycle   3 NSaved=   3.
 NSaved= 3 IEnMin= 3 EnMin= -151.322220540160     IErMin= 3 ErrMin= 1.20D-03
 ErrMax= 1.20D-03 EMaxC= 1.00D-01 BMatC= 5.21D-04 BMatP= 4.56D-03
 IDIUse=3 WtCom= 9.88D-01 WtEn= 1.20D-02
 Coeff-Com:  0.230D-01 0.239D+00 0.738D+00
 Coeff-En:   0.000D+00 0.000D+00 0.100D+01
 Coeff:      0.227D-01 0.236D+00 0.742D+00
 Gap=     0.441 Goal=   None    Shift=    0.000
 RMSDP=1.02D-04 MaxDP=3.51D-03 DE=-2.57D-03 OVMax= 7.26D-03

 Cycle   4  Pass 1  IDiag  1:
 RMSU=  5.19D-05    CP:  1.00D+00  1.10D+00  9.59D-01
 FoFJK:  IHMeth= 1 ICntrl=     0 DoSepK=T KAlg= 1 I1Cent= 0 FoldK=F
 E= -151.322617398501     Delta-E=       -0.000396858340 Rises=F Damp=F
 DIIS: error= 3.46D-04 at cycle   4 NSaved=   4.
 NSaved= 4 IEnMin= 4 EnMin= -151.322617398501     IErMin= 4 ErrMin= 3.46D-04
 ErrMax= 3.46D-04 EMaxC= 1.00D-01 BMatC= 4.18D-05 BMatP= 5.21D-04
 IDIUse=3 WtCom= 9.97D-01 WtEn= 3.46D-03
 Coeff-Com: -0.216D-01-0.344D-01 0.170D+00 0.886D+00
 Coeff-En:   0.000D+00 0.000D+00 0.000D+00 0.100D+01
 Coeff:     -0.216D-01-0.342D-01 0.170D+00 0.886D+00
 Gap=     0.438 Goal=   None    Shift=    0.000
 RMSDP=4.15D-05 MaxDP=1.52D-03 DE=-3.97D-04 OVMax= 1.90D-03

 Cycle   5  Pass 1  IDiag  1:
 RMSU=  1.05D-05    CP:  1.00D+00  1.12D+00  1.11D+00  1.09D+00
 FoFJK:  IHMeth= 1 ICntrl=     0 DoSepK=T KAlg= 1 I1Cent= 0 FoldK=F
 E= -151.322655565164     Delta-E=       -0.000038166664 Rises=F Damp=F
 DIIS: error= 4.19D-05 at cycle   5 NSaved=   5.
 NSaved= 5 IEnMin= 5 EnMin= -151.322655565164     IErMin= 5 ErrMin= 4.19D-05
 ErrMax= 4.19D-05 EMaxC= 1.00D-01 BMatC= 4.05D-07 BMatP= 4.18D-05
 IDIUse=1 WtCom= 1.00D+00 WtEn= 0.00D+00
 Coeff-Com:  0.747D-03-0.353D-02-0.373D-01-0.813D-01 0.112D+01
 Coeff:      0.747D-03-0.353D-02-0.373D-01-0.813D-01 0.112D+01
 Gap=     0.438 Goal=   None    Shift=    0.000
 RMSDP=1.06D-05 MaxDP=4.15D-04 DE=-3.82D-05 OVMax= 6.98D-04

 Cycle   6  Pass 1  IDiag  1:
 RMSU=  2.47D-06    CP:  1.00D+00  1.13D+00  1.13D+00  1.17D+00  1.27D+00
 FoFJK:  IHMeth= 1 ICntrl=     0 DoSepK=T KAlg= 1 I1Cent= 0 FoldK=F
 E= -151.322656940196     Delta-E=       -0.000001375032 Rises=F Damp=F
 DIIS: error= 9.43D-06 at cycle   6 NSaved=   6.
 NSaved= 6 IEnMin= 6 EnMin= -151.322656940196     IErMin= 6 ErrMin= 9.43D-06
 ErrMax= 9.43D-06 EMaxC= 1.00D-01 BMatC= 2.13D-08 BMatP= 4.05D-07
 IDIUse=1 WtCom= 1.00D+00 WtEn= 0.00D+00
 Coeff-Com:  0.182D-03 0.236D-03-0.143D-02-0.726D-02-0.871D-01 0.110D+01
 Coeff:      0.182D-03 0.236D-03-0.143D-02-0.726D-02-0.871D-01 0.110D+01
 Gap=     0.438 Goal=   None    Shift=    0.000
 RMSDP=1.63D-06 MaxDP=4.80D-05 DE=-1.38D-06 OVMax= 1.60D-04

 Cycle   7  Pass 1  IDiag  1:
 RMSU=  3.63D-07    CP:  1.00D+00  1.13D+00  1.13D+00  1.19D+00  1.32D+00
                    CP:  1.27D+00
 FoFJK:  IHMeth= 1 ICntrl=     0 DoSepK=T KAlg= 1 I1Cent= 0 FoldK=F
 E= -151.322657005973     Delta-E=       -0.000000065777 Rises=F Damp=F
 DIIS: error= 3.42D-06 at cycle   7 NSaved=   7.
 NSaved= 7 IEnMin= 7 EnMin= -151.322657005973     IErMin= 7 ErrMin= 3.42D-06
 ErrMax= 3.42D-06 EMaxC= 1.00D-01 BMatC= 3.36D-09 BMatP= 2.13D-08
 IDIUse=1 WtCom= 1.00D+00 WtEn= 0.00D+00
 Coeff-Com:  0.255D-04 0.310D-03 0.203D-02 0.347D-02-0.924D-01 0.196D+00
 Coeff-Com:  0.891D+00
 Coeff:      0.255D-04 0.310D-03 0.203D-02 0.347D-02-0.924D-01 0.196D+00
 Coeff:      0.891D+00
 Gap=     0.438 Goal=   None    Shift=    0.000
 RMSDP=3.73D-07 MaxDP=1.30D-05 DE=-6.58D-08 OVMax= 5.17D-05

 Cycle   8  Pass 1  IDiag  1:
 RMSU=  1.77D-07    CP:  1.00D+00  1.13D+00  1.13D+00  1.19D+00  1.33D+00
                    CP:  1.33D+00  1.18D+00
 FoFJK:  IHMeth= 1 ICntrl=     0 DoSepK=T KAlg= 1 I1Cent= 0 FoldK=F
 E= -151.322657011758     Delta-E=       -0.000000005785 Rises=F Damp=F
 DIIS: error= 2.12D-06 at cycle   8 NSaved=   8.
 NSaved= 8 IEnMin= 8 EnMin= -151.322657011758     IErMin= 8 ErrMin= 2.12D-06
 ErrMax= 2.12D-06 EMaxC= 1.00D-01 BMatC= 1.72D-09 BMatP= 3.36D-09
 IDIUse=1 WtCom= 1.00D+00 WtEn= 0.00D+00
 Coeff-Com: -0.939D-06 0.149D-03 0.117D-02 0.251D-02-0.386D-01-0.168D-01
 Coeff-Com:  0.472D+00 0.580D+00
 Coeff:     -0.939D-06 0.149D-03 0.117D-02 0.251D-02-0.386D-01-0.168D-01
 Coeff:      0.472D+00 0.580D+00
 Gap=     0.438 Goal=   None    Shift=    0.000
 RMSDP=1.26D-07 MaxDP=3.29D-06 DE=-5.79D-09 OVMax= 1.70D-05

 Cycle   9  Pass 1  IDiag  1:
 RMSU=  6.21D-08    CP:  1.00D+00  1.13D+00  1.13D+00  1.19D+00  1.33D+00
                    CP:  1.34D+00  1.33D+00  9.25D-01
 FoFJK:  IHMeth= 1 ICntrl=     0 DoSepK=T KAlg= 1 I1Cent= 0 FoldK=F
 E= -151.322657013297     Delta-E=       -0.000000001539 Rises=F Damp=F
 DIIS: error= 5.88D-07 at cycle   9 NSaved=   9.
 NSaved= 9 IEnMin= 9 EnMin= -151.322657013297     IErMin= 9 ErrMin= 5.88D-07
 ErrMax= 5.88D-07 EMaxC= 1.00D-01 BMatC= 7.52D-11 BMatP= 1.72D-09
 IDIUse=1 WtCom= 1.00D+00 WtEn= 0.00D+00
 Coeff-Com: -0.839D-05-0.386D-04-0.272D-03-0.281D-03 0.140D-01-0.414D-01
 Coeff-Com: -0.130D+00 0.398D-01 0.112D+01
 Coeff:     -0.839D-05-0.386D-04-0.272D-03-0.281D-03 0.140D-01-0.414D-01
 Coeff:     -0.130D+00 0.398D-01 0.112D+01
 Gap=     0.438 Goal=   None    Shift=    0.000
 RMSDP=8.35D-08 MaxDP=2.11D-06 DE=-1.54D-09 OVMax= 1.47D-05

 Cycle  10  Pass 1  IDiag  1:
 RMSU=  2.34D-08    CP:  1.00D+00  1.13D+00  1.13D+00  1.19D+00  1.33D+00
                    CP:  1.34D+00  1.40D+00  1.11D+00  1.32D+00
 FoFJK:  IHMeth= 1 ICntrl=     0 DoSepK=T KAlg= 1 I1Cent= 0 FoldK=F
 E= -151.322657013568     Delta-E=       -0.000000000271 Rises=F Damp=F
 DIIS: error= 1.59D-07 at cycle  10 NSaved=  10.
 NSaved=10 IEnMin=10 EnMin= -151.322657013568     IErMin=10 ErrMin= 1.59D-07
 ErrMax= 1.59D-07 EMaxC= 1.00D-01 BMatC= 3.41D-12 BMatP= 7.52D-11
 IDIUse=1 WtCom= 1.00D+00 WtEn= 0.00D+00
 Coeff-Com:  0.224D-05 0.277D-05 0.454D-05-0.550D-04-0.176D-02 0.126D-01
 Coeff-Com:  0.134D-01-0.473D-01-0.351D+00 0.137D+01
 Coeff:      0.224D-05 0.277D-05 0.454D-05-0.550D-04-0.176D-02 0.126D-01
 Coeff:      0.134D-01-0.473D-01-0.351D+00 0.137D+01
 Gap=     0.438 Goal=   None    Shift=    0.000
 RMSDP=2.51D-08 MaxDP=5.68D-07 DE=-2.71D-10 OVMax= 4.80D-06

 Cycle  11  Pass 1  IDiag  1:
 RMSU=  4.81D-09    CP:  1.00D+00  1.13D+00  1.13D+00  1.19D+00  1.33D+00
                    CP:  1.34D+00  1.41D+00  1.14D+00  1.46D+00  1.53D+00
 FoFJK:  IHMeth= 1 ICntrl=     0 DoSepK=T KAlg= 1 I1Cent= 0 FoldK=F
 E= -151.322657013588     Delta-E=       -0.000000000020 Rises=F Damp=F
 DIIS: error= 2.38D-08 at cycle  11 NSaved=  11.
 NSaved=11 IEnMin=11 EnMin= -151.322657013588     IErMin=11 ErrMin= 2.38D-08
 ErrMax= 2.38D-08 EMaxC= 1.00D-01 BMatC= 1.44D-13 BMatP= 3.41D-12
 IDIUse=1 WtCom= 1.00D+00 WtEn= 0.00D+00
 Coeff-Com:  0.770D-07 0.220D-05 0.200D-04 0.213D-04-0.792D-03 0.184D-02
 Coeff-Com:  0.730D-02 0.674D-03-0.457D-01-0.891D-01 0.113D+01
 Coeff:      0.770D-07 0.220D-05 0.200D-04 0.213D-04-0.792D-03 0.184D-02
 Coeff:      0.730D-02 0.674D-03-0.457D-01-0.891D-01 0.113D+01
 Gap=     0.438 Goal=   None    Shift=    0.000
 RMSDP=4.78D-09 MaxDP=1.51D-07 DE=-1.96D-11 OVMax= 7.53D-07

 SCF Done:  E(RLC-B+HF-LYP) =  -151.322657014     A.U. after   11 cycles
             Convg  =    0.4782D-08             -V/T =  2.0056
 KE= 1.504802694057D+02 PE=-4.314409511765D+02 EE= 9.298807934324D+01
 Leave Link  502 at Wed May 13 12:51:18 2020, MaxMem= 1073741824 cpu:     251.7
 (Enter /home/matheus/.gaussian/g09/l601.exe)
 Copying SCF densities to generalized density rwf, IOpCl= 0 IROHF=0.

 **********************************************************************

            Population analysis using the SCF density.

 **********************************************************************

 Orbital symmetries:
       Occupied  (A) (A) (A) (A) (A) (A) (A) (A) (A)
       Virtual   (A) (A) (A) (A) (A) (A) (A) (A) (A) (A) (A) (A)
                 (A) (A) (A) (A) (A) (A) (A) (A) (A) (A) (A) (A)
                 (A) (A) (A) (A) (A) (A) (A) (A) (A) (A) (A) (A)
                 (A) (A) (A) (A) (A) (A) (A) (A) (A) (A) (A) (A)
                 (A) (A) (A) (A) (A) (A) (A) (A) (A) (A) (A) (A)
                 (A) (A) (A) (A) (A) (A) (A) (A) (A) (A) (A) (A)
                 (A) (A) (A) (A) (A) (A) (A) (A) (A) (A) (A) (A)
                 (A) (A) (A) (A) (A) (A) (A) (A) (A) (A) (A) (A)
                 (A) (A) (A) (A) (A) (A) (A) (A) (A) (A) (A) (A)
                 (A) (A) (A) (A) (A) (A) (A) (A) (A) (A) (A) (A)
                 (A) (A) (A) (A) (A) (A) (A) (A) (A) (A) (A) (A)
                 (A) (A) (A) (A) (A) (A) (A) (A) (A) (A) (A) (A)
                 (A) (A) (A) (A) (A) (A) (A) (A) (A) (A) (A) (A)
                 (A) (A) (A) (A) (A) (A) (A) (A) (A) (A) (A) (A)
                 (A) (A) (A) (A) (A) (A) (A) (A) (A) (A) (A) (A)
                 (A) (A) (A) (A) (A) (A) (A) (A)
 The electronic state is 1-A.
 Alpha  occ. eigenvalues --  -19.07710 -19.07709  -1.28905  -1.06644  -0.72507
 Alpha  occ. eigenvalues --   -0.59797  -0.57771  -0.49334  -0.42408
 Alpha virt. eigenvalues --    0.01408   0.03223   0.06702   0.07556   0.09131
 Alpha virt. eigenvalues --    0.09961   0.10050   0.14012   0.16218   0.16953
 Alpha virt. eigenvalues --    0.17738   0.18698   0.19807   0.21166   0.24632
 Alpha virt. eigenvalues --    0.25971   0.28031   0.28740   0.32171   0.32926
 Alpha virt. eigenvalues --    0.33975   0.35722   0.37190   0.39207   0.39906
 Alpha virt. eigenvalues --    0.42479   0.44664   0.45331   0.47218   0.50243
 Alpha virt. eigenvalues --    0.52446   0.56676   0.59061   0.61369   0.66503
 Alpha virt. eigenvalues --    0.69299   0.72665   0.76208   0.77171   0.79082
 Alpha virt. eigenvalues --    0.80662   0.82359   0.85737   0.88561   0.89775
 Alpha virt. eigenvalues --    0.91273   0.92268   0.95046   0.95944   0.97711
 Alpha virt. eigenvalues --    1.02013   1.03058   1.04534   1.07086   1.09023
 Alpha virt. eigenvalues --    1.12024   1.15294   1.19044   1.19245   1.22638
 Alpha virt. eigenvalues --    1.27790   1.28760   1.29939   1.30070   1.31419
 Alpha virt. eigenvalues --    1.33770   1.34063   1.37147   1.40730   1.42163
 Alpha virt. eigenvalues --    1.47360   1.49176   1.52540   1.53727   1.58407
 Alpha virt. eigenvalues --    1.59848   1.63320   1.66225   1.73997   1.76430
 Alpha virt. eigenvalues --    1.82286   1.86658   1.92898   1.99271   2.04277
 Alpha virt. eigenvalues --    2.08816   2.11975   2.15668   2.20155   2.24148
 Alpha virt. eigenvalues --    2.29651   2.31807   2.34559   2.37026   2.38761
 Alpha virt. eigenvalues --    2.51738   2.55685   2.59874   2.62240   2.64608
 Alpha virt. eigenvalues --    2.65423   2.77882   2.86891   2.88113   2.94782
 Alpha virt. eigenvalues --    2.99122   3.08580   3.11694   3.24261   3.29289
 Alpha virt. eigenvalues --    3.41497   3.57358   3.64801   3.66257   3.76741
 Alpha virt. eigenvalues --    3.77620   3.80384   3.80812   3.81316   3.85265
 Alpha virt. eigenvalues --    3.87045   3.89538   3.90976   3.93974   3.97511
 Alpha virt. eigenvalues --    3.99210   4.03923   4.06011   4.09561   4.15162
 Alpha virt. eigenvalues --    4.16705   4.22203   4.25874   4.30871   4.35493
 Alpha virt. eigenvalues --    4.47597   4.50301   4.62097   4.70507   4.98525
 Alpha virt. eigenvalues --    5.02069   5.03441   5.09051   5.16743   5.18944
 Alpha virt. eigenvalues --    5.44290   5.85496   6.01506   6.13928   6.15009
 Alpha virt. eigenvalues --    6.32771   6.40850   6.42064   6.55003   6.66819
 Alpha virt. eigenvalues --    6.74567   6.78582   6.83699   6.86474   6.90225
 Alpha virt. eigenvalues --    6.91711   6.92240   6.93318   7.05798   7.10861
 Alpha virt. eigenvalues --    7.16554   7.24283   7.45641   7.50400   7.86762
 Alpha virt. eigenvalues --    8.03881   8.14047  10.99729  13.96771  14.56477
 Alpha virt. eigenvalues --   14.81544  14.88263  15.09571  29.01163  29.01705
 Alpha virt. eigenvalues --   29.06050  29.14449  29.21185  49.16853 148.29829
 Alpha virt. eigenvalues --  148.39739 148.70344 752.75276
          Condensed to atoms (all electrons):
              1          2          3          4          5
     1  O    8.220758  -0.201964   0.170296   0.023128  -0.000017
     2  O   -0.201964   8.186153   0.036515   0.186896  -0.000403
     3  H    0.170296   0.036515   0.599723  -0.010773  -0.001246
     4  H    0.023128   0.186896  -0.010773   0.596992  -0.004615
     5  Kr  -0.000017  -0.000403  -0.001246  -0.004615   0.000742
 Mulliken atomic charges:
              1
     1  O   -0.212201
     2  O   -0.207196
     3  H    0.205485
     4  H    0.208372
     5  Kr   0.005540
 Sum of Mulliken atomic charges =   0.00000
 Mulliken charges with hydrogens summed into heavy atoms:
              1
     1  O   -0.006716
     2  O    0.001175
     5  Kr   0.005540
 Sum of Mulliken charges with hydrogens summed into heavy atoms =   0.00000
          Condensed to fragments (all electrons):
     1      -0.005540
     2       0.005540
 Electronic spatial extent (au):  <R**2>=            318.5809
 Charge=              0.0000 electrons
 Dipole moment (field-independent basis, Debye):
    X=             -2.6556    Y=             -0.0999    Z=              1.2665  Tot=              2.9439
 Quadrupole moment (field-independent basis, Debye-Ang):
   XX=            -20.9712   YY=            -10.5954   ZZ=            -12.2809
   XY=             -0.9031   XZ=              1.5087   YZ=             -1.4726
 Traceless Quadrupole moment (field-independent basis, Debye-Ang):
   XX=             -6.3554   YY=              4.0204   ZZ=              2.3350
   XY=             -0.9031   XZ=              1.5087   YZ=             -1.4726
 Octapole moment (field-independent basis, Debye-Ang**2):
  XXX=            -94.6286  YYY=             -0.6333  ZZZ=              0.5799  XYY=            -24.2999
  XXY=             -1.9968  XXZ=              1.5154  XZZ=            -24.5482  YZZ=             -1.1479
  YYZ=              1.7654  XYZ=             -2.0974
 Hexadecapole moment (field-independent basis, Debye-Ang**3):
 XXXX=           -350.3812 YYYY=            -46.1933 ZZZZ=            -12.2508 XXXY=             -2.7855
 XXXZ=              1.0584 YYYX=             -1.5953 YYYZ=             -2.1414 ZZZX=              1.1186
 ZZZY=             -1.3146 XXYY=            -63.7023 XXZZ=            -53.1325 YYZZ=            -10.7649
 XXYZ=             -3.1123 YYXZ=              2.4962 ZZXY=             -1.6516
 N-N= 3.664994541398D+01 E-N=-4.314409509463D+02  KE= 1.504802694057D+02
 No NMR shielding tensors so no spin-rotation constants.
 Leave Link  601 at Wed May 13 12:51:19 2020, MaxMem= 1073741824 cpu:       0.8
 (Enter /home/matheus/.gaussian/g09/l122.exe)
 Counterpoise: doing DCBS calculation for fragment   2 NewBq=T
 Leave Link  122 at Wed May 13 12:51:19 2020, MaxMem= 1073741824 cpu:       0.0
 (Enter /home/matheus/.gaussian/g09/l301.exe)
 Basis read from rwf:  (5D, 7F)
 No pseudopotential information found on rwf file.
 There are   197 symmetry adapted basis functions of A   symmetry.
 Integral buffers will be    131072 words long.
 Raffenetti 2 integral format.
 Two-electron integral symmetry is turned on.
   197 basis functions,   415 primitive gaussians,   229 cartesian basis functions
    18 alpha electrons       18 beta electrons
       nuclear repulsion energy         0.0000000000 Hartrees.
 IExCor=10402 DFT=T Ex=LC-B+HF Corr=LYP ExCW=0 ScaHFX=  1.000000
 ScaDFX=  1.000000  1.000000  1.000000  1.000000 ScalE2=  1.000000  1.000000
 IRadAn=      5 IRanWt=     -1 IRanGd=            0 ICorTp=0
  HFx wShort=  0.000000 wLong=  0.470000 cFull=  0.000000 cShort=  0.000000 cLong=  1.000000
  DFx wShort=  0.000000 wLong=  0.470000 cFull=  0.000000 cShort=  0.000000 cLong=  1.000000
 NAtoms=    5 NActive=    5 NUniq=    5 SFac= 1.00D+00 NAtFMM=   60 NAOKFM=F Big=F
 No density basis found on file   718.
 Leave Link  301 at Wed May 13 12:51:19 2020, MaxMem= 1073741824 cpu:       0.2
 (Enter /home/matheus/.gaussian/g09/l302.exe)
 NPDir=0 NMtPBC=     1 NCelOv=     1 NCel=       1 NClECP=     1 NCelD=      1
         NCelK=      1 NCelE2=     1 NClLst=     1 CellRange=     0.0.
 One-electron integrals computed using PRISM.
 NBasis=   197 RedAO= T  NBF=   197
 NBsUse=   197 1.00D-06 NBFU=   197
 Precomputing XC quadrature grid using
 IXCGrd= 2 IRadAn=           5 IRanWt=          -1 IRanGd=           0 AccXCQ= 0.00D+00.
 NRdTot=     427 NPtTot=      123512 NUsed=      126579 NTot=      126611
 NSgBfM=   229   229   229   229   229 NAtAll=     5     5.
 Leave Link  302 at Wed May 13 12:51:19 2020, MaxMem= 1073741824 cpu:       1.0
 (Enter /home/matheus/.gaussian/g09/l303.exe)
 DipDrv:  MaxL=1.
 Leave Link  303 at Wed May 13 12:51:19 2020, MaxMem= 1073741824 cpu:       0.2
 (Enter /home/matheus/.gaussian/g09/l401.exe)
 Harris functional with IExCor=10402 diagonalized for initial guess.
 ExpMin= 2.53D-02 ExpMax= 1.17D+07 ExpMxC= 1.33D+04 IAcc=3 IRadAn=         5 AccDes= 0.00D+00
 HarFok:  IExCor=10402 AccDes= 0.00D+00 IRadAn=         5 IDoV= 1
 ScaDFX=  1.000000  1.000000  1.000000  1.000000
 FoFCou: FMM=F IPFlag=           0 FMFlag=      100000 FMFlg1=           0
         NFxFlg=           0 DoJE=T BraDBF=F KetDBF=T FulRan=T
         Omega=  0.000000  0.000000  1.000000  0.000000  0.000000 ICntrl=     500 IOpCl=  0
         NMat0=    1 NMatS0=    1 NMatT0=    0 NMatD0=    1 NMtDS0=    0 NMtDT0=    0
         I1Cent=           4 NGrid=           0.
 Petite list used in FoFCou.
 Harris En= -2744.51544175044    
 Initial guess orbital symmetries:
       Occupied  (A) (A) (A) (A) (A) (A) (A) (A) (A) (A) (A) (A)
                 (A) (A) (A) (A) (A) (A)
       Virtual   (A) (A) (A) (A) (A) (A) (A) (A) (A) (A) (A) (A)
                 (A) (A) (A) (A) (A) (A) (A) (A) (A) (A) (A) (A)
                 (A) (A) (A) (A) (A) (A) (A) (A) (A) (A) (A) (A)
                 (A) (A) (A) (A) (A) (A) (A) (A) (A) (A) (A) (A)
                 (A) (A) (A) (A) (A) (A) (A) (A) (A) (A) (A) (A)
                 (A) (A) (A) (A) (A) (A) (A) (A) (A) (A) (A) (A)
                 (A) (A) (A) (A) (A) (A) (A) (A) (A) (A) (A) (A)
                 (A) (A) (A) (A) (A) (A) (A) (A) (A) (A) (A) (A)
                 (A) (A) (A) (A) (A) (A) (A) (A) (A) (A) (A) (A)
                 (A) (A) (A) (A) (A) (A) (A) (A) (A) (A) (A) (A)
                 (A) (A) (A) (A) (A) (A) (A) (A) (A) (A) (A) (A)
                 (A) (A) (A) (A) (A) (A) (A) (A) (A) (A) (A) (A)
                 (A) (A) (A) (A) (A) (A) (A) (A) (A) (A) (A) (A)
                 (A) (A) (A) (A) (A) (A) (A) (A) (A) (A) (A) (A)
                 (A) (A) (A) (A) (A) (A) (A) (A) (A) (A) (A)
 The electronic state of the initial guess is 1-A.
 Leave Link  401 at Wed May 13 12:51:19 2020, MaxMem= 1073741824 cpu:       3.7
 (Enter /home/matheus/.gaussian/g09/l502.exe)
 Closed shell SCF:
 Requested convergence on RMS density matrix=1.00D-08 within 128 cycles.
 Requested convergence on MAX density matrix=1.00D-06.
 Requested convergence on             energy=1.00D-06.
 No special actions if energy rises.
 Using DIIS extrapolation, IDIIS=  1040.
 Integral symmetry usage will be decided dynamically.
       126521 words used for storage of precomputed grid.
 IEnd=      305468 IEndB=      305468 NGot=  1073741824 MDV=  1073505667
 LenX=  1073505667 LenY=  1073452785
 Fock matrices will be formed incrementally for  20 cycles.

 Cycle   1  Pass 1  IDiag  1:
 FoFJK:  IHMeth= 1 ICntrl=     0 DoSepK=T KAlg= 1 I1Cent= 0 FoldK=F
 FoFCou: FMM=F IPFlag=           0 FMFlag=      100000 FMFlg1=           0
         NFxFlg=           0 DoJE=T BraDBF=F KetDBF=F FulRan=T
         Omega=  0.000000  0.000000  1.000000  0.000000  0.000000 ICntrl=     500 IOpCl=  0
         NMat0=    1 NMatS0=    1 NMatT0=    0 NMatD0=    1 NMtDS0=    0 NMtDT0=    0
         I1Cent=           0 NGrid=           0.
 Symmetry not used in FoFCou.
 E= -2753.33345404383    
 DIIS: error= 2.78D-02 at cycle   1 NSaved=   1.
 NSaved= 1 IEnMin= 1 EnMin= -2753.33345404383     IErMin= 1 ErrMin= 2.78D-02
 ErrMax= 2.78D-02 EMaxC= 1.00D-01 BMatC= 2.62D-01 BMatP= 2.62D-01
 IDIUse=3 WtCom= 7.22D-01 WtEn= 2.78D-01
 Coeff-Com:  0.100D+01
 Coeff-En:   0.100D+01
 Coeff:      0.100D+01
 Gap=     0.618 Goal=   None    Shift=    0.000
 GapD=    0.618 DampG=2.000 DampE=0.500 DampFc=1.0000 IDamp=-1.
 RMSDP=2.48D-03 MaxDP=1.54D-01              OVMax= 1.05D-01

 Cycle   2  Pass 1  IDiag  1:
 RMSU=  1.70D-03    CP:  1.03D+00
 FoFJK:  IHMeth= 1 ICntrl=     0 DoSepK=T KAlg= 1 I1Cent= 0 FoldK=F
 E= -2753.38944410867     Delta-E=       -0.055990064834 Rises=F Damp=F
 DIIS: error= 1.29D-02 at cycle   2 NSaved=   2.
 NSaved= 2 IEnMin= 2 EnMin= -2753.38944410867     IErMin= 2 ErrMin= 1.29D-02
 ErrMax= 1.29D-02 EMaxC= 1.00D-01 BMatC= 8.84D-02 BMatP= 2.62D-01
 IDIUse=3 WtCom= 8.71D-01 WtEn= 1.29D-01
 Coeff-Com:  0.365D+00 0.635D+00
 Coeff-En:   0.130D+00 0.870D+00
 Coeff:      0.334D+00 0.666D+00
 Gap=     0.539 Goal=   None    Shift=    0.000
 RMSDP=9.75D-04 MaxDP=6.13D-02 DE=-5.60D-02 OVMax= 3.12D-02

 Cycle   3  Pass 1  IDiag  1:
 RMSU=  1.71D-04    CP:  1.02D+00  6.19D-01
 FoFJK:  IHMeth= 1 ICntrl=     0 DoSepK=T KAlg= 1 I1Cent= 0 FoldK=F
 E= -2753.41753883891     Delta-E=       -0.028094730244 Rises=F Damp=F
 DIIS: error= 9.66D-04 at cycle   3 NSaved=   3.
 NSaved= 3 IEnMin= 3 EnMin= -2753.41753883891     IErMin= 3 ErrMin= 9.66D-04
 ErrMax= 9.66D-04 EMaxC= 1.00D-01 BMatC= 4.86D-04 BMatP= 8.84D-02
 IDIUse=3 WtCom= 9.90D-01 WtEn= 9.66D-03
 Coeff-Com: -0.635D-02 0.564D-01 0.950D+00
 Coeff-En:   0.000D+00 0.000D+00 0.100D+01
 Coeff:     -0.629D-02 0.558D-01 0.950D+00
 Gap=     0.538 Goal=   None    Shift=    0.000
 RMSDP=9.16D-05 MaxDP=4.74D-03 DE=-2.81D-02 OVMax= 3.16D-03

 Cycle   4  Pass 1  IDiag  1:
 RMSU=  3.78D-05    CP:  1.02D+00  6.45D-01  1.14D+00
 FoFJK:  IHMeth= 1 ICntrl=     0 DoSepK=T KAlg= 1 I1Cent= 0 FoldK=F
 E= -2753.41769576897     Delta-E=       -0.000156930056 Rises=F Damp=F
 DIIS: error= 8.84D-05 at cycle   4 NSaved=   4.
 NSaved= 4 IEnMin= 4 EnMin= -2753.41769576897     IErMin= 4 ErrMin= 8.84D-05
 ErrMax= 8.84D-05 EMaxC= 1.00D-01 BMatC= 2.06D-06 BMatP= 4.86D-04
 IDIUse=1 WtCom= 1.00D+00 WtEn= 0.00D+00
 Coeff-Com: -0.141D-02 0.309D-03-0.686D-02 0.101D+01
 Coeff:     -0.141D-02 0.309D-03-0.686D-02 0.101D+01
 Gap=     0.539 Goal=   None    Shift=    0.000
 RMSDP=1.37D-05 MaxDP=5.49D-04 DE=-1.57D-04 OVMax= 9.21D-04

 Cycle   5  Pass 1  IDiag  1:
 RMSU=  5.92D-06    CP:  1.02D+00  6.47D-01  1.18D+00  1.05D+00
 FoFJK:  IHMeth= 1 ICntrl=     0 DoSepK=T KAlg= 1 I1Cent= 0 FoldK=F
 E= -2753.41769973511     Delta-E=       -0.000003966143 Rises=F Damp=F
 DIIS: error= 2.46D-05 at cycle   5 NSaved=   5.
 NSaved= 5 IEnMin= 5 EnMin= -2753.41769973511     IErMin= 5 ErrMin= 2.46D-05
 ErrMax= 2.46D-05 EMaxC= 1.00D-01 BMatC= 1.59D-07 BMatP= 2.06D-06
 IDIUse=1 WtCom= 1.00D+00 WtEn= 0.00D+00
 Coeff-Com: -0.557D-04-0.377D-02-0.336D-01-0.710D-01 0.111D+01
 Coeff:     -0.557D-04-0.377D-02-0.336D-01-0.710D-01 0.111D+01
 Gap=     0.539 Goal=   None    Shift=    0.000
 RMSDP=4.52D-06 MaxDP=1.84D-04 DE=-3.97D-06 OVMax= 1.98D-04

 Cycle   6  Pass 1  IDiag  1:
 RMSU=  3.46D-07    CP:  1.02D+00  6.47D-01  1.20D+00  1.10D+00  1.15D+00
 FoFJK:  IHMeth= 1 ICntrl=     0 DoSepK=T KAlg= 1 I1Cent= 0 FoldK=F
 E= -2753.41769994306     Delta-E=       -0.000000207954 Rises=F Damp=F
 DIIS: error= 6.25D-07 at cycle   6 NSaved=   6.
 NSaved= 6 IEnMin= 6 EnMin= -2753.41769994306     IErMin= 6 ErrMin= 6.25D-07
 ErrMax= 6.25D-07 EMaxC= 1.00D-01 BMatC= 9.95D-11 BMatP= 1.59D-07
 IDIUse=1 WtCom= 1.00D+00 WtEn= 0.00D+00
 Coeff-Com:  0.727D-05 0.313D-03 0.309D-02-0.160D-03-0.787D-01 0.108D+01
 Coeff:      0.727D-05 0.313D-03 0.309D-02-0.160D-03-0.787D-01 0.108D+01
 Gap=     0.539 Goal=   None    Shift=    0.000
 RMSDP=1.46D-07 MaxDP=5.06D-06 DE=-2.08D-07 OVMax= 6.23D-06

 Cycle   7  Pass 1  IDiag  1:
 RMSU=  2.41D-08    CP:  1.02D+00  6.47D-01  1.20D+00  1.10D+00  1.16D+00
                    CP:  1.17D+00
 FoFJK:  IHMeth= 1 ICntrl=     0 DoSepK=T KAlg= 1 I1Cent= 0 FoldK=F
 E= -2753.41769994315     Delta-E=       -0.000000000089 Rises=F Damp=F
 DIIS: error= 7.56D-08 at cycle   7 NSaved=   7.
 NSaved= 7 IEnMin= 7 EnMin= -2753.41769994315     IErMin= 7 ErrMin= 7.56D-08
 ErrMax= 7.56D-08 EMaxC= 1.00D-01 BMatC= 2.67D-12 BMatP= 9.95D-11
 IDIUse=1 WtCom= 1.00D+00 WtEn= 0.00D+00
 Coeff-Com:  0.736D-06 0.482D-04 0.430D-03 0.887D-03-0.145D-01 0.409D-01
 Coeff-Com:  0.972D+00
 Coeff:      0.736D-06 0.482D-04 0.430D-03 0.887D-03-0.145D-01 0.409D-01
 Coeff:      0.972D+00
 Gap=     0.539 Goal=   None    Shift=    0.000
 RMSDP=1.50D-08 MaxDP=5.58D-07 DE=-8.91D-11 OVMax= 8.53D-07

 Cycle   8  Pass 1  IDiag  1:
 RMSU=  5.00D-09    CP:  1.02D+00  6.47D-01  1.20D+00  1.10D+00  1.16D+00
                    CP:  1.19D+00  1.09D+00
 FoFJK:  IHMeth= 1 ICntrl=     0 DoSepK=T KAlg= 1 I1Cent= 0 FoldK=F
 E= -2753.41769994313     Delta-E=        0.000000000025 Rises=F Damp=F
 DIIS: error= 2.42D-08 at cycle   8 NSaved=   8.
 NSaved= 8 IEnMin= 7 EnMin= -2753.41769994315     IErMin= 8 ErrMin= 2.42D-08
 ErrMax= 2.42D-08 EMaxC= 1.00D-01 BMatC= 2.15D-13 BMatP= 2.67D-12
 IDIUse=1 WtCom= 1.00D+00 WtEn= 0.00D+00
 Coeff-Com: -0.337D-06-0.113D-04-0.121D-03 0.191D-03 0.225D-02-0.571D-01
 Coeff-Com:  0.165D+00 0.890D+00
 Coeff:     -0.337D-06-0.113D-04-0.121D-03 0.191D-03 0.225D-02-0.571D-01
 Coeff:      0.165D+00 0.890D+00
 Gap=     0.539 Goal=   None    Shift=    0.000
 RMSDP=3.21D-09 MaxDP=1.20D-07 DE= 2.55D-11 OVMax= 1.89D-07

 SCF Done:  E(RLC-B+HF-LYP) =  -2753.41769994     A.U. after    8 cycles
             Convg  =    0.3214D-08             -V/T =  2.0015
 KE= 2.749308398369D+03 PE=-6.578518608023D+03 EE= 1.075792509711D+03
 Leave Link  502 at Wed May 13 12:51:43 2020, MaxMem= 1073741824 cpu:     189.2
 (Enter /home/matheus/.gaussian/g09/l601.exe)
 Copying SCF densities to generalized density rwf, IOpCl= 0 IROHF=0.

 **********************************************************************

            Population analysis using the SCF density.

 **********************************************************************

 Orbital symmetries:
       Occupied  (A) (A) (A) (A) (A) (A) (A) (A) (A) (A) (A) (A)
                 (A) (A) (A) (A) (A) (A)
       Virtual   (A) (A) (A) (A) (A) (A) (A) (A) (A) (A) (A) (A)
                 (A) (A) (A) (A) (A) (A) (A) (A) (A) (A) (A) (A)
                 (A) (A) (A) (A) (A) (A) (A) (A) (A) (A) (A) (A)
                 (A) (A) (A) (A) (A) (A) (A) (A) (A) (A) (A) (A)
                 (A) (A) (A) (A) (A) (A) (A) (A) (A) (A) (A) (A)
                 (A) (A) (A) (A) (A) (A) (A) (A) (A) (A) (A) (A)
                 (A) (A) (A) (A) (A) (A) (A) (A) (A) (A) (A) (A)
                 (A) (A) (A) (A) (A) (A) (A) (A) (A) (A) (A) (A)
                 (A) (A) (A) (A) (A) (A) (A) (A) (A) (A) (A) (A)
                 (A) (A) (A) (A) (A) (A) (A) (A) (A) (A) (A) (A)
                 (A) (A) (A) (A) (A) (A) (A) (A) (A) (A) (A) (A)
                 (A) (A) (A) (A) (A) (A) (A) (A) (A) (A) (A) (A)
                 (A) (A) (A) (A) (A) (A) (A) (A) (A) (A) (A) (A)
                 (A) (A) (A) (A) (A) (A) (A) (A) (A) (A) (A) (A)
                 (A) (A) (A) (A) (A) (A) (A) (A) (A) (A) (A)
 The electronic state is 1-A.
 Alpha  occ. eigenvalues -- -511.24372 -66.71354 -60.39877 -60.39874 -60.39873
 Alpha  occ. eigenvalues --   -9.60493  -7.35946  -7.35944  -7.35944  -3.32283
 Alpha  occ. eigenvalues --   -3.32282  -3.32282  -3.32281  -3.32281  -1.06079
 Alpha  occ. eigenvalues --   -0.51292  -0.51288  -0.51286
 Alpha virt. eigenvalues --    0.02612   0.04772   0.07765   0.08746   0.11422
 Alpha virt. eigenvalues --    0.12124   0.12955   0.13008   0.15568   0.16740
 Alpha virt. eigenvalues --    0.17352   0.18739   0.20254   0.25150   0.26292
 Alpha virt. eigenvalues --    0.26714   0.28795   0.31108   0.32842   0.35272
 Alpha virt. eigenvalues --    0.35576   0.37434   0.38138   0.39472   0.40960
 Alpha virt. eigenvalues --    0.41294   0.44275   0.53008   0.55610   0.58186
 Alpha virt. eigenvalues --    0.60436   0.65270   0.67303   0.69005   0.71145
 Alpha virt. eigenvalues --    0.72134   0.74256   0.76588   0.77641   0.78627
 Alpha virt. eigenvalues --    0.79864   0.81190   0.84473   0.84908   0.87786
 Alpha virt. eigenvalues --    0.88286   0.89671   0.90157   0.91855   0.95844
 Alpha virt. eigenvalues --    0.97775   0.98701   1.00387   1.01168   1.02879
 Alpha virt. eigenvalues --    1.05696   1.07216   1.08106   1.13409   1.16755
 Alpha virt. eigenvalues --    1.17858   1.22553   1.24852   1.31894   1.33042
 Alpha virt. eigenvalues --    1.33714   1.39298   1.45129   1.48139   1.54064
 Alpha virt. eigenvalues --    1.54335   1.56886   1.59182   1.69472   1.78917
 Alpha virt. eigenvalues --    1.81252   1.82729   1.85423   1.91514   2.16587
 Alpha virt. eigenvalues --    2.21604   2.23208   2.28443   2.28872   2.31900
 Alpha virt. eigenvalues --    2.33527   2.34989   2.36624   2.37741   2.41306
 Alpha virt. eigenvalues --    2.42996   2.45857   2.46261   2.51007   2.52386
 Alpha virt. eigenvalues --    2.53429   2.54838   2.57914   2.59991   2.61800
 Alpha virt. eigenvalues --    2.64070   2.64360   2.67621   2.70894   2.72206
 Alpha virt. eigenvalues --    2.74435   2.79804   2.84877   2.86812   2.90290
 Alpha virt. eigenvalues --    2.95103   2.98903   3.04809   3.08042   3.17258
 Alpha virt. eigenvalues --    3.20095   3.25890   3.31371   3.39625   3.44634
 Alpha virt. eigenvalues --    3.60248   3.65574   3.81508   3.86164   4.01912
 Alpha virt. eigenvalues --    4.41676   4.47036   4.50754   4.56817   4.67295
 Alpha virt. eigenvalues --    4.70324   4.84090   4.84665   4.96438   5.07226
 Alpha virt. eigenvalues --    5.12772   5.23313   5.53881   5.67291   5.80569
 Alpha virt. eigenvalues --    5.89485   5.98146   6.12533   6.78579   6.82274
 Alpha virt. eigenvalues --    7.36493   7.40072   7.58800   7.69512   7.70530
 Alpha virt. eigenvalues --    7.81708   7.98218   8.15187   8.16127   8.25152
 Alpha virt. eigenvalues --    8.30995   8.46692   8.61559   8.91225   9.56671
 Alpha virt. eigenvalues --    9.72908   9.82261   9.86926   9.94041   9.96219
 Alpha virt. eigenvalues --   10.16917  10.22206  10.54446  10.92435  11.56503
 Alpha virt. eigenvalues --   11.58645  11.76396  11.98570  12.03833  13.19818
 Alpha virt. eigenvalues --   13.67954  14.51536  62.66906  64.67173
          Condensed to atoms (all electrons):
              1          2          3          4          5
     1  O    0.000817  -0.000678  -0.000361   0.000564  -0.007138
     2  O   -0.000678   0.003764   0.000255  -0.002730  -0.005679
     3  H   -0.000361   0.000255   0.000503  -0.000154  -0.005630
     4  H    0.000564  -0.002730  -0.000154   0.002844  -0.011549
     5  Kr  -0.007138  -0.005679  -0.005630  -0.011549  36.058273
 Mulliken atomic charges:
              1
     1  O    0.006796
     2  O    0.005069
     3  H    0.005387
     4  H    0.011025
     5  Kr  -0.028277
 Sum of Mulliken atomic charges =   0.00000
 Mulliken charges with hydrogens summed into heavy atoms:
              1
     1  O    0.012183
     2  O    0.016094
     5  Kr  -0.028277
 Sum of Mulliken charges with hydrogens summed into heavy atoms =   0.00000
          Condensed to fragments (all electrons):
     1       0.028277
     2      -0.028277
 Electronic spatial extent (au):  <R**2>=            161.0967
 Charge=              0.0000 electrons
 Dipole moment (field-independent basis, Debye):
    X=              0.0017    Y=              0.0004    Z=              0.0001  Tot=              0.0017
 Quadrupole moment (field-independent basis, Debye-Ang):
   XX=            -17.7449   YY=            -17.7568   ZZ=            -17.7649
   XY=              0.0017   XZ=              0.0027   YZ=             -0.0014
 Traceless Quadrupole moment (field-independent basis, Debye-Ang):
   XX=              0.0107   YY=             -0.0013   ZZ=             -0.0094
   XY=              0.0017   XZ=              0.0027   YZ=             -0.0014
 Octapole moment (field-independent basis, Debye-Ang**2):
  XXX=             51.7476  YYY=              0.1790  ZZZ=              0.1946  XYY=             17.2643
  XXY=              0.0556  XXZ=              0.0609  XZZ=             17.2690  YZZ=              0.0597
  YYZ=              0.0656  XYZ=              0.0003
 Hexadecapole moment (field-independent basis, Debye-Ang**3):
 XXXX=           -119.5031 YYYY=            -18.9329 ZZZZ=            -18.9586 XXXY=             -0.1670
 XXXZ=             -0.1811 YYYX=             -0.1679 YYYZ=             -0.0014 ZZZX=             -0.1841
 ZZZY=             -0.0020 XXYY=            -23.0843 XXZZ=            -23.0919 YYZZ=             -6.3145
 XXYZ=             -0.0018 YYXZ=             -0.0612 ZZXY=             -0.0549
 N-N= 0.000000000000D+00 E-N=-6.578518606197D+03  KE= 2.749308398369D+03
 No NMR shielding tensors so no spin-rotation constants.
 Leave Link  601 at Wed May 13 12:51:43 2020, MaxMem= 1073741824 cpu:       0.7
 (Enter /home/matheus/.gaussian/g09/l122.exe)
 Counterpoise: doing MCBS calculation for fragment   1
 Leave Link  122 at Wed May 13 12:51:43 2020, MaxMem= 1073741824 cpu:       0.0
 (Enter /home/matheus/.gaussian/g09/l301.exe)
 Basis read from rwf:  (5D, 7F)
 No pseudopotential information found on rwf file.
 There are   138 symmetry adapted basis functions of A   symmetry.
 Integral buffers will be    131072 words long.
 Raffenetti 2 integral format.
 Two-electron integral symmetry is turned on.
   138 basis functions,   198 primitive gaussians,   160 cartesian basis functions
     9 alpha electrons        9 beta electrons
       nuclear repulsion energy        36.6499454140 Hartrees.
 IExCor=10402 DFT=T Ex=LC-B+HF Corr=LYP ExCW=0 ScaHFX=  1.000000
 ScaDFX=  1.000000  1.000000  1.000000  1.000000 ScalE2=  1.000000  1.000000
 IRadAn=      5 IRanWt=     -1 IRanGd=            0 ICorTp=0
  HFx wShort=  0.000000 wLong=  0.470000 cFull=  0.000000 cShort=  0.000000 cLong=  1.000000
  DFx wShort=  0.000000 wLong=  0.470000 cFull=  0.000000 cShort=  0.000000 cLong=  1.000000
 NAtoms=    5 NActive=    4 NUniq=    4 SFac= 1.00D+00 NAtFMM=   60 NAOKFM=F Big=F
 No density basis found on file   718.
 Leave Link  301 at Wed May 13 12:51:43 2020, MaxMem= 1073741824 cpu:       0.2
 (Enter /home/matheus/.gaussian/g09/l302.exe)
 NPDir=0 NMtPBC=     1 NCelOv=     1 NCel=       1 NClECP=     1 NCelD=      1
         NCelK=      1 NCelE2=     1 NClLst=     1 CellRange=     0.0.
 One-electron integrals computed using PRISM.
 NBasis=   138 RedAO= T  NBF=   138
 NBsUse=   138 1.00D-06 NBFU=   138
 Precomputing XC quadrature grid using
 IXCGrd= 2 IRadAn=           5 IRanWt=          -1 IRanGd=           0 AccXCQ= 0.00D+00.
 NRdTot=     344 NPtTot=       92556 NUsed=       95038 NTot=       95070
 NSgBfM=   160   160   160   160   160 NAtAll=     4     4.
 Leave Link  302 at Wed May 13 12:51:43 2020, MaxMem= 1073741824 cpu:       0.7
 (Enter /home/matheus/.gaussian/g09/l303.exe)
 DipDrv:  MaxL=1.
 Leave Link  303 at Wed May 13 12:51:43 2020, MaxMem= 1073741824 cpu:       0.2
 (Enter /home/matheus/.gaussian/g09/l401.exe)
 Harris functional with IExCor=10402 diagonalized for initial guess.
 ExpMin= 2.53D-02 ExpMax= 1.53D+04 ExpMxC= 5.22D+02 IAcc=3 IRadAn=         5 AccDes= 0.00D+00
 HarFok:  IExCor=10402 AccDes= 0.00D+00 IRadAn=         5 IDoV= 1
 ScaDFX=  1.000000  1.000000  1.000000  1.000000
 FoFCou: FMM=F IPFlag=           0 FMFlag=      100000 FMFlg1=           0
         NFxFlg=           0 DoJE=T BraDBF=F KetDBF=T FulRan=T
         Omega=  0.000000  0.000000  1.000000  0.000000  0.000000 ICntrl=     500 IOpCl=  0
         NMat0=    1 NMatS0=    1 NMatT0=    0 NMatD0=    1 NMtDS0=    0 NMtDT0=    0
         I1Cent=           4 NGrid=           0.
 Petite list used in FoFCou.
 Harris En= -147.163901876033    
 Initial guess orbital symmetries:
       Occupied  (A) (A) (A) (A) (A) (A) (A) (A) (A)
       Virtual   (A) (A) (A) (A) (A) (A) (A) (A) (A) (A) (A) (A)
                 (A) (A) (A) (A) (A) (A) (A) (A) (A) (A) (A) (A)
                 (A) (A) (A) (A) (A) (A) (A) (A) (A) (A) (A) (A)
                 (A) (A) (A) (A) (A) (A) (A) (A) (A) (A) (A) (A)
                 (A) (A) (A) (A) (A) (A) (A) (A) (A) (A) (A) (A)
                 (A) (A) (A) (A) (A) (A) (A) (A) (A) (A) (A) (A)
                 (A) (A) (A) (A) (A) (A) (A) (A) (A) (A) (A) (A)
                 (A) (A) (A) (A) (A) (A) (A) (A) (A) (A) (A) (A)
                 (A) (A) (A) (A) (A) (A) (A) (A) (A) (A) (A) (A)
                 (A) (A) (A) (A) (A) (A) (A) (A) (A) (A) (A) (A)
                 (A) (A) (A) (A) (A) (A) (A) (A) (A)
 The electronic state of the initial guess is 1-A.
 Leave Link  401 at Wed May 13 12:51:43 2020, MaxMem= 1073741824 cpu:       2.1
 (Enter /home/matheus/.gaussian/g09/l502.exe)
 Closed shell SCF:
 Requested convergence on RMS density matrix=1.00D-08 within 128 cycles.
 Requested convergence on MAX density matrix=1.00D-06.
 Requested convergence on             energy=1.00D-06.
 No special actions if energy rises.
 Using DIIS extrapolation, IDIIS=  1040.
 Integral symmetry usage will be decided dynamically.
        94980 words used for storage of precomputed grid.
 IEnd=      192360 IEndB=      192360 NGot=  1073741824 MDV=  1073591865
 LenX=  1073591865 LenY=  1073565824
 Fock matrices will be formed incrementally for  20 cycles.

 Cycle   1  Pass 1  IDiag  1:
 FoFJK:  IHMeth= 1 ICntrl=     0 DoSepK=T KAlg= 1 I1Cent= 0 FoldK=F
 FoFCou: FMM=F IPFlag=           0 FMFlag=      100000 FMFlg1=           0
         NFxFlg=           0 DoJE=T BraDBF=F KetDBF=F FulRan=T
         Omega=  0.000000  0.000000  1.000000  0.000000  0.000000 ICntrl=     500 IOpCl=  0
         NMat0=    1 NMatS0=    1 NMatT0=    0 NMatD0=    1 NMtDS0=    0 NMtDT0=    0
         I1Cent=           0 NGrid=           0.
 Symmetry not used in FoFCou.
 E= -151.298635004288    
 DIIS: error= 1.45D-02 at cycle   1 NSaved=   1.
 NSaved= 1 IEnMin= 1 EnMin= -151.298635004288     IErMin= 1 ErrMin= 1.45D-02
 ErrMax= 1.45D-02 EMaxC= 1.00D-01 BMatC= 2.36D-02 BMatP= 2.36D-02
 IDIUse=3 WtCom= 8.55D-01 WtEn= 1.45D-01
 Coeff-Com:  0.100D+01
 Coeff-En:   0.100D+01
 Coeff:      0.100D+01
 Gap=     0.472 Goal=   None    Shift=    0.000
 GapD=    0.472 DampG=2.000 DampE=0.500 DampFc=1.0000 IDamp=-1.
 RMSDP=1.21D-03 MaxDP=2.91D-02              OVMax= 5.53D-02

 Cycle   2  Pass 1  IDiag  1:
 RMSU=  8.57D-04    CP:  1.01D+00
 FoFJK:  IHMeth= 1 ICntrl=     0 DoSepK=T KAlg= 1 I1Cent= 0 FoldK=F
 E= -151.319605587051     Delta-E=       -0.020970582763 Rises=F Damp=F
 DIIS: error= 6.99D-03 at cycle   2 NSaved=   2.
 NSaved= 2 IEnMin= 2 EnMin= -151.319605587051     IErMin= 2 ErrMin= 6.99D-03
 ErrMax= 6.99D-03 EMaxC= 1.00D-01 BMatC= 4.55D-03 BMatP= 2.36D-02
 IDIUse=3 WtCom= 9.30D-01 WtEn= 6.99D-02
 Coeff-Com:  0.257D+00 0.743D+00
 Coeff-En:   0.000D+00 0.100D+01
 Coeff:      0.239D+00 0.761D+00
 Gap=     0.434 Goal=   None    Shift=    0.000
 RMSDP=3.12D-04 MaxDP=6.54D-03 DE=-2.10D-02 OVMax= 1.46D-02

 Cycle   3  Pass 1  IDiag  1:
 RMSU=  2.20D-04    CP:  1.00D+00  1.02D+00
 FoFJK:  IHMeth= 1 ICntrl=     0 DoSepK=T KAlg= 1 I1Cent= 0 FoldK=F
 E= -151.322158136554     Delta-E=       -0.002552549503 Rises=F Damp=F
 DIIS: error= 2.35D-03 at cycle   3 NSaved=   3.
 NSaved= 3 IEnMin= 3 EnMin= -151.322158136554     IErMin= 3 ErrMin= 2.35D-03
 ErrMax= 2.35D-03 EMaxC= 1.00D-01 BMatC= 5.49D-04 BMatP= 4.55D-03
 IDIUse=3 WtCom= 9.77D-01 WtEn= 2.35D-02
 Coeff-Com:  0.231D-01 0.245D+00 0.732D+00
 Coeff-En:   0.000D+00 0.000D+00 0.100D+01
 Coeff:      0.225D-01 0.239D+00 0.738D+00
 Gap=     0.443 Goal=   None    Shift=    0.000
 RMSDP=1.41D-04 MaxDP=3.48D-03 DE=-2.55D-03 OVMax= 7.32D-03

 Cycle   4  Pass 1  IDiag  1:
 RMSU=  7.27D-05    CP:  1.00D+00  1.10D+00  9.48D-01
 FoFJK:  IHMeth= 1 ICntrl=     0 DoSepK=T KAlg= 1 I1Cent= 0 FoldK=F
 E= -151.322568373635     Delta-E=       -0.000410237081 Rises=F Damp=F
 DIIS: error= 5.30D-04 at cycle   4 NSaved=   4.
 NSaved= 4 IEnMin= 4 EnMin= -151.322568373635     IErMin= 4 ErrMin= 5.30D-04
 ErrMax= 5.30D-04 EMaxC= 1.00D-01 BMatC= 4.37D-05 BMatP= 5.49D-04
 IDIUse=3 WtCom= 9.95D-01 WtEn= 5.30D-03
 Coeff-Com: -0.216D-01-0.337D-01 0.174D+00 0.882D+00
 Coeff-En:   0.000D+00 0.000D+00 0.000D+00 0.100D+01
 Coeff:     -0.215D-01-0.335D-01 0.173D+00 0.882D+00
 Gap=     0.441 Goal=   None    Shift=    0.000
 RMSDP=5.96D-05 MaxDP=1.48D-03 DE=-4.10D-04 OVMax= 1.86D-03

 Cycle   5  Pass 1  IDiag  1:
 RMSU=  1.43D-05    CP:  1.00D+00  1.12D+00  1.09D+00  1.09D+00
 FoFJK:  IHMeth= 1 ICntrl=     0 DoSepK=T KAlg= 1 I1Cent= 0 FoldK=F
 E= -151.322607438908     Delta-E=       -0.000039065273 Rises=F Damp=F
 DIIS: error= 6.52D-05 at cycle   5 NSaved=   5.
 NSaved= 5 IEnMin= 5 EnMin= -151.322607438908     IErMin= 5 ErrMin= 6.52D-05
 ErrMax= 6.52D-05 EMaxC= 1.00D-01 BMatC= 4.05D-07 BMatP= 4.37D-05
 IDIUse=1 WtCom= 1.00D+00 WtEn= 0.00D+00
 Coeff-Com:  0.751D-03-0.375D-02-0.376D-01-0.807D-01 0.112D+01
 Coeff:      0.751D-03-0.375D-02-0.376D-01-0.807D-01 0.112D+01
 Gap=     0.441 Goal=   None    Shift=    0.000
[...]
 FoFCou: FMM=F IPFlag=           0 FMFlag=      100000 FMFlg1=           0
         NFxFlg=           0 DoJE=T BraDBF=F KetDBF=F FulRan=T
         Omega=  0.000000  0.000000  1.000000  0.000000  0.000000 ICntrl=     500 IOpCl=  0
         NMat0=    1 NMatS0=    1 NMatT0=    0 NMatD0=    1 NMtDS0=    0 NMtDT0=    0
         I1Cent=           0 NGrid=           0.
 Symmetry not used in FoFCou.
 E= -2753.41756213580    
 DIIS: error= 2.21D-04 at cycle   1 NSaved=   1.
 NSaved= 1 IEnMin= 1 EnMin= -2753.41756213580     IErMin= 1 ErrMin= 2.21D-04
 ErrMax= 2.21D-04 EMaxC= 1.00D-01 BMatC= 5.80D-06 BMatP= 5.80D-06
 IDIUse=3 WtCom= 9.98D-01 WtEn= 2.21D-03
 Coeff-Com:  0.100D+01
 Coeff-En:   0.100D+01
 Coeff:      0.100D+01
 Gap=     0.539 Goal=   None    Shift=    0.000
 RMSDP=1.18D-05 MaxDP=6.43D-04              OVMax= 3.25D-04

 Cycle   2  Pass 1  IDiag  1:
 RMSU=  8.35D-06    CP:  1.00D+00
 FoFJK:  IHMeth= 1 ICntrl=     0 DoSepK=T KAlg= 1 I1Cent= 0 FoldK=F
 E= -2753.41756276274     Delta-E=       -0.000000626939 Rises=F Damp=F
 DIIS: error= 3.94D-06 at cycle   2 NSaved=   2.
 NSaved= 2 IEnMin= 2 EnMin= -2753.41756276274     IErMin= 2 ErrMin= 3.94D-06
 ErrMax= 3.94D-06 EMaxC= 1.00D-01 BMatC= 3.98D-09 BMatP= 5.80D-06
 IDIUse=1 WtCom= 1.00D+00 WtEn= 0.00D+00
 Coeff-Com: -0.784D-02 0.101D+01
 Coeff:     -0.784D-02 0.101D+01
 Gap=     0.539 Goal=   None    Shift=    0.000
 RMSDP=1.22D-06 MaxDP=5.77D-05 DE=-6.27D-07 OVMax= 4.91D-05

 Cycle   3  Pass 1  IDiag  1:
 RMSU=  5.29D-07    CP:  1.00D+00  1.08D+00
 FoFJK:  IHMeth= 1 ICntrl=     0 DoSepK=T KAlg= 1 I1Cent= 0 FoldK=F
 E= -2753.41756276980     Delta-E=       -0.000000007066 Rises=F Damp=F
 DIIS: error= 6.98D-07 at cycle   3 NSaved=   3.
 NSaved= 3 IEnMin= 3 EnMin= -2753.41756276980     IErMin= 3 ErrMin= 6.98D-07
 ErrMax= 6.98D-07 EMaxC= 1.00D-01 BMatC= 1.30D-10 BMatP= 3.98D-09
 IDIUse=1 WtCom= 1.00D+00 WtEn= 0.00D+00
 Coeff-Com:  0.760D-04-0.924D-01 0.109D+01
 Coeff:      0.760D-04-0.924D-01 0.109D+01
 Gap=     0.539 Goal=   None    Shift=    0.000
 RMSDP=1.93D-07 MaxDP=8.05D-06 DE=-7.07D-09 OVMax= 9.70D-06

 Cycle   4  Pass 1  IDiag  1:
 RMSU=  5.66D-08    CP:  1.00D+00  1.09D+00  1.21D+00
 FoFJK:  IHMeth= 1 ICntrl=     0 DoSepK=T KAlg= 1 I1Cent= 0 FoldK=F
 E= -2753.41756277003     Delta-E=       -0.000000000222 Rises=F Damp=F
 DIIS: error= 4.40D-07 at cycle   4 NSaved=   4.
 NSaved= 4 IEnMin= 4 EnMin= -2753.41756277003     IErMin= 4 ErrMin= 4.40D-07
 ErrMax= 4.40D-07 EMaxC= 1.00D-01 BMatC= 2.69D-11 BMatP= 1.30D-10
 IDIUse=1 WtCom= 1.00D+00 WtEn= 0.00D+00
 Coeff-Com:  0.248D-03-0.578D-01 0.355D+00 0.702D+00
 Coeff:      0.248D-03-0.578D-01 0.355D+00 0.702D+00
 Gap=     0.539 Goal=   None    Shift=    0.000
 RMSDP=2.59D-08 MaxDP=9.40D-07 DE=-2.22D-10 OVMax= 1.24D-06

 Cycle   5  Pass 1  IDiag  1:
 RMSU=  1.26D-08    CP:  1.00D+00  1.09D+00  1.23D+00  1.07D+00
 FoFJK:  IHMeth= 1 ICntrl=     0 DoSepK=T KAlg= 1 I1Cent= 0 FoldK=F
 E= -2753.41756277005     Delta-E=       -0.000000000022 Rises=F Damp=F
 DIIS: error= 3.50D-08 at cycle   5 NSaved=   5.
 NSaved= 5 IEnMin= 5 EnMin= -2753.41756277005     IErMin= 5 ErrMin= 3.50D-08
 ErrMax= 3.50D-08 EMaxC= 1.00D-01 BMatC= 2.60D-13 BMatP= 2.69D-11
 IDIUse=1 WtCom= 1.00D+00 WtEn= 0.00D+00
 Coeff-Com: -0.142D-04 0.577D-02-0.561D-01-0.268D-01 0.108D+01
 Coeff:     -0.142D-04 0.577D-02-0.561D-01-0.268D-01 0.108D+01
 Gap=     0.539 Goal=   None    Shift=    0.000
 RMSDP=9.71D-09 MaxDP=4.58D-07 DE=-2.23D-11 OVMax= 4.78D-07

 SCF Done:  E(RLC-B+HF-LYP) =  -2753.41756277     A.U. after    5 cycles
             Convg  =    0.9711D-08             -V/T =  2.0015
 KE= 2.749364578321D+03 PE=-6.578580018779D+03 EE= 1.075797877689D+03
 Leave Link  502 at Wed May 13 13:12:36 2020, MaxMem= 1073741824 cpu:      90.5
 (Enter /home/matheus/.gaussian/g09/l122.exe)
 Restoring MOs from calculation   4 to rwf.
 Counterpoise: doing MCBS calculation for fragment   1
 Leave Link  122 at Wed May 13 13:12:36 2020, MaxMem= 1073741824 cpu:       0.0
 (Enter /home/matheus/.gaussian/g09/l301.exe)
 Basis read from rwf:  (5D, 7F)
 No pseudopotential information found on rwf file.
 There are   138 symmetry adapted basis functions of A   symmetry.
 Integral buffers will be    131072 words long.
 Raffenetti 2 integral format.
 Two-electron integral symmetry is turned on.
   138 basis functions,   198 primitive gaussians,   160 cartesian basis functions
     9 alpha electrons        9 beta electrons
       nuclear repulsion energy        36.6499454140 Hartrees.
 IExCor=10402 DFT=T Ex=LC-B+HF Corr=LYP ExCW=0 ScaHFX=  1.000000
 ScaDFX=  1.000000  1.000000  1.000000  1.000000 ScalE2=  1.000000  1.000000
 IRadAn=      5 IRanWt=     -1 IRanGd=            0 ICorTp=0
  HFx wShort=  0.000000 wLong=  0.470000 cFull=  0.000000 cShort=  0.000000 cLong=  1.000000
  DFx wShort=  0.000000 wLong=  0.470000 cFull=  0.000000 cShort=  0.000000 cLong=  1.000000
 NAtoms=    5 NActive=    4 NUniq=    4 SFac= 1.00D+00 NAtFMM=   60 NAOKFM=F Big=F
 No density basis found on file   718.
 Leave Link  301 at Wed May 13 13:12:36 2020, MaxMem= 1073741824 cpu:       0.2
 (Enter /home/matheus/.gaussian/g09/l302.exe)
 NPDir=0 NMtPBC=     1 NCelOv=     1 NCel=       1 NClECP=     1 NCelD=      1
         NCelK=      1 NCelE2=     1 NClLst=     1 CellRange=     0.0.
 One-electron integrals computed using PRISM.
 NBasis=   138 RedAO= T  NBF=   138
 NBsUse=   138 1.00D-06 NBFU=   138
 Precomputing XC quadrature grid using
 IXCGrd= 2 IRadAn=           5 IRanWt=          -1 IRanGd=           0 AccXCQ= 0.00D+00.
 NRdTot=     344 NPtTot=       92556 NUsed=       95038 NTot=       95070
 NSgBfM=   160   160   160   160   160 NAtAll=     4     4.
 Leave Link  302 at Wed May 13 13:12:36 2020, MaxMem= 1073741824 cpu:       0.8
 (Enter /home/matheus/.gaussian/g09/l303.exe)
 DipDrv:  MaxL=1.
 Leave Link  303 at Wed May 13 13:12:36 2020, MaxMem= 1073741824 cpu:       0.1
 (Enter /home/matheus/.gaussian/g09/l401.exe)
 Initial guess read from the read-write file.
 Guess basis will be translated and rotated to current coordinates.
 Initial guess orbital symmetries:
       Occupied  (A) (A) (A) (A) (A) (A) (A) (A) (A)
       Virtual   (A) (A) (A) (A) (A) (A) (A) (A) (A) (A) (A) (A)
                 (A) (A) (A) (A) (A) (A) (A) (A) (A) (A) (A) (A)
                 (A) (A) (A) (A) (A) (A) (A) (A) (A) (A) (A) (A)
                 (A) (A) (A) (A) (A) (A) (A) (A) (A) (A) (A) (A)
                 (A) (A) (A) (A) (A) (A) (A) (A) (A) (A) (A) (A)
                 (A) (A) (A) (A) (A) (A) (A) (A) (A) (A) (A) (A)
                 (A) (A) (A) (A) (A) (A) (A) (A) (A) (A) (A) (A)
                 (A) (A) (A) (A) (A) (A) (A) (A) (A) (A) (A) (A)
                 (A) (A) (A) (A) (A) (A) (A) (A) (A) (A) (A) (A)
                 (A) (A) (A) (A) (A) (A) (A) (A) (A) (A) (A) (A)
                 (A) (A) (A) (A) (A) (A) (A) (A) (A)
 The electronic state of the initial guess is 1-A.
 Generating alternative initial guess.
 Harris functional with IExCor=10402 diagonalized for initial guess.
 ExpMin= 2.53D-02 ExpMax= 1.53D+04 ExpMxC= 5.22D+02 IAcc=3 IRadAn=         5 AccDes= 0.00D+00
 HarFok:  IExCor=10402 AccDes= 0.00D+00 IRadAn=         5 IDoV= 1
 ScaDFX=  1.000000  1.000000  1.000000  1.000000
 FoFCou: FMM=F IPFlag=           0 FMFlag=      100000 FMFlg1=           0
         NFxFlg=           0 DoJE=T BraDBF=F KetDBF=T FulRan=T
         Omega=  0.000000  0.000000  1.000000  0.000000  0.000000 ICntrl=     500 IOpCl=  0
         NMat0=    1 NMatS0=    1 NMatT0=    0 NMatD0=    1 NMtDS0=    0 NMtDT0=    0
         I1Cent=           4 NGrid=           0.
 Petite list used in FoFCou.
 Harris En= -147.163901872141    
 Leave Link  401 at Wed May 13 13:12:36 2020, MaxMem= 1073741824 cpu:       2.4
 (Enter /home/matheus/.gaussian/g09/l502.exe)
 Closed shell SCF:
 Requested convergence on RMS density matrix=1.00D-08 within 128 cycles.
 Requested convergence on MAX density matrix=1.00D-06.
 Requested convergence on             energy=1.00D-06.
 No special actions if energy rises.
 Using DIIS extrapolation, IDIIS=  1040.
 Integral symmetry usage will be decided dynamically.
        94980 words used for storage of precomputed grid.
 IEnd=      192360 IEndB=      192360 NGot=  1073741824 MDV=  1073591865
 LenX=  1073591865 LenY=  1073565824
 Fock matrices will be formed incrementally for  20 cycles.

 Cycle   1  Pass 1  IDiag  1:
 FoFJK:  IHMeth= 1 ICntrl=     0 DoSepK=T KAlg= 1 I1Cent= 0 FoldK=F
 FoFCou: FMM=F IPFlag=           0 FMFlag=      100000 FMFlg1=           0
         NFxFlg=           0 DoJE=T BraDBF=F KetDBF=F FulRan=T
         Omega=  0.000000  0.000000  1.000000  0.000000  0.000000 ICntrl=     500 IOpCl=  0
         NMat0=    1 NMatS0=    1 NMatT0=    0 NMatD0=    1 NMtDS0=    0 NMtDT0=    0
         I1Cent=           0 NGrid=           0.
 Symmetry not used in FoFCou.
 E= -151.322608867816    
 DIIS: error= 4.82D-06 at cycle   1 NSaved=   1.
 NSaved= 1 IEnMin= 1 EnMin= -151.322608867816     IErMin= 1 ErrMin= 4.82D-06
 ErrMax= 4.82D-06 EMaxC= 1.00D-01 BMatC= 5.22D-09 BMatP= 5.22D-09
 IDIUse=1 WtCom= 1.00D+00 WtEn= 0.00D+00
 Coeff-Com:  0.100D+01
 Coeff:      0.100D+01
 Gap=     0.441 Goal=   None    Shift=    0.000
 RMSDP=5.13D-07 MaxDP=1.09D-05              OVMax= 1.75D-05

 Cycle   2  Pass 1  IDiag  1:
 RMSU=  3.63D-07    CP:  1.00D+00
 FoFJK:  IHMeth= 1 ICntrl=     0 DoSepK=T KAlg= 1 I1Cent= 0 FoldK=F
 E= -151.322608872780     Delta-E=       -0.000000004964 Rises=F Damp=F
 DIIS: error= 9.89D-07 at cycle   2 NSaved=   2.
 NSaved= 2 IEnMin= 2 EnMin= -151.322608872780     IErMin= 2 ErrMin= 9.89D-07
 ErrMax= 9.89D-07 EMaxC= 1.00D-01 BMatC= 1.99D-10 BMatP= 5.22D-09
 IDIUse=1 WtCom= 1.00D+00 WtEn= 0.00D+00
 Coeff-Com: -0.137D+00 0.114D+01
 Coeff:     -0.137D+00 0.114D+01
 Gap=     0.441 Goal=   None    Shift=    0.000
 RMSDP=1.34D-07 MaxDP=3.50D-06 DE=-4.96D-09 OVMax= 6.43D-06

 Cycle   3  Pass 1  IDiag  1:
 RMSU=  4.71D-08    CP:  1.00D+00  1.23D+00
 FoFJK:  IHMeth= 1 ICntrl=     0 DoSepK=T KAlg= 1 I1Cent= 0 FoldK=F
 E= -151.322608873192     Delta-E=       -0.000000000412 Rises=F Damp=F
 DIIS: error= 3.06D-07 at cycle   3 NSaved=   3.
 NSaved= 3 IEnMin= 3 EnMin= -151.322608873192     IErMin= 3 ErrMin= 3.06D-07
 ErrMax= 3.06D-07 EMaxC= 1.00D-01 BMatC= 1.14D-11 BMatP= 1.99D-10
 IDIUse=1 WtCom= 1.00D+00 WtEn= 0.00D+00
 Coeff-Com: -0.296D-02-0.136D+00 0.114D+01
 Coeff:     -0.296D-02-0.136D+00 0.114D+01
 Gap=     0.441 Goal=   None    Shift=    0.000
 RMSDP=3.71D-08 MaxDP=7.43D-07 DE=-4.12D-10 OVMax= 2.42D-06

 Cycle   4  Pass 1  IDiag  1:
 RMSU=  1.02D-08    CP:  1.00D+00  1.27D+00  1.37D+00
 FoFJK:  IHMeth= 1 ICntrl=     0 DoSepK=T KAlg= 1 I1Cent= 0 FoldK=F
 E= -151.322608873228     Delta-E=       -0.000000000036 Rises=F Damp=F
 DIIS: error= 9.61D-08 at cycle   4 NSaved=   4.
 NSaved= 4 IEnMin= 4 EnMin= -151.322608873228     IErMin= 4 ErrMin= 9.61D-08
 ErrMax= 9.61D-08 EMaxC= 1.00D-01 BMatC= 1.40D-12 BMatP= 1.14D-11
 IDIUse=1 WtCom= 1.00D+00 WtEn= 0.00D+00
 Coeff-Com:  0.893D-02-0.894D-01 0.136D-01 0.107D+01
 Coeff:      0.893D-02-0.894D-01 0.136D-01 0.107D+01
 Gap=     0.441 Goal=   None    Shift=    0.000
 RMSDP=1.30D-08 MaxDP=2.20D-07 DE=-3.65D-11 OVMax= 9.48D-07

 Cycle   5  Pass 1  IDiag  1:
 RMSU=  4.27D-09    CP:  1.00D+00  1.28D+00  1.49D+00  1.45D+00
 FoFJK:  IHMeth= 1 ICntrl=     0 DoSepK=T KAlg= 1 I1Cent= 0 FoldK=F
 E= -151.322608873234     Delta-E=       -0.000000000005 Rises=F Damp=F
 DIIS: error= 6.54D-08 at cycle   5 NSaved=   5.
 NSaved= 5 IEnMin= 5 EnMin= -151.322608873234     IErMin= 5 ErrMin= 6.54D-08
 ErrMax= 6.54D-08 EMaxC= 1.00D-01 BMatC= 4.29D-13 BMatP= 1.40D-12
 IDIUse=1 WtCom= 1.00D+00 WtEn= 0.00D+00
 Coeff-Com:  0.384D-02-0.262D-01-0.800D-01 0.453D+00 0.649D+00
 Coeff:      0.384D-02-0.262D-01-0.800D-01 0.453D+00 0.649D+00
 Gap=     0.441 Goal=   None    Shift=    0.000
 RMSDP=3.69D-09 MaxDP=8.33D-08 DE=-5.23D-12 OVMax= 2.74D-07

 SCF Done:  E(RLC-B+HF-LYP) =  -151.322608873     A.U. after    5 cycles
             Convg  =    0.3690D-08             -V/T =  2.0056
 KE= 1.504798644831D+02 PE=-4.314402354133D+02 EE= 9.298781664305D+01
 Leave Link  502 at Wed May 13 13:12:41 2020, MaxMem= 1073741824 cpu:      36.7
 (Enter /home/matheus/.gaussian/g09/l122.exe)
 Restoring MOs from calculation   5 to rwf.
 Counterpoise: doing MCBS calculation for fragment   2
 Leave Link  122 at Wed May 13 13:12:41 2020, MaxMem= 1073741824 cpu:       0.0
 (Enter /home/matheus/.gaussian/g09/l301.exe)
 Basis read from rwf:  (5D, 7F)
 No pseudopotential information found on rwf file.
 There are    59 symmetry adapted basis functions of A   symmetry.
 Integral buffers will be    131072 words long.
 Raffenetti 2 integral format.
 Two-electron integral symmetry is turned on.
    59 basis functions,   217 primitive gaussians,    69 cartesian basis functions
    18 alpha electrons       18 beta electrons
       nuclear repulsion energy         0.0000000000 Hartrees.
 IExCor=10402 DFT=T Ex=LC-B+HF Corr=LYP ExCW=0 ScaHFX=  1.000000
 ScaDFX=  1.000000  1.000000  1.000000  1.000000 ScalE2=  1.000000  1.000000
 IRadAn=      5 IRanWt=     -1 IRanGd=            0 ICorTp=0
  HFx wShort=  0.000000 wLong=  0.470000 cFull=  0.000000 cShort=  0.000000 cLong=  1.000000
  DFx wShort=  0.000000 wLong=  0.470000 cFull=  0.000000 cShort=  0.000000 cLong=  1.000000
 NAtoms=    5 NActive=    1 NUniq=    1 SFac= 1.00D+00 NAtFMM=   60 NAOKFM=F Big=F
 No density basis found on file   718.
 Leave Link  301 at Wed May 13 13:12:41 2020, MaxMem= 1073741824 cpu:       0.2
 (Enter /home/matheus/.gaussian/g09/l302.exe)
 NPDir=0 NMtPBC=     1 NCelOv=     1 NCel=       1 NClECP=     1 NCelD=      1
         NCelK=      1 NCelE2=     1 NClLst=     1 CellRange=     0.0.
 One-electron integrals computed using PRISM.
 NBasis=    59 RedAO= T  NBF=    59
 NBsUse=    59 1.00D-06 NBFU=    59
 Precomputing XC quadrature grid using
 IXCGrd= 2 IRadAn=           5 IRanWt=          -1 IRanGd=           0 AccXCQ= 0.00D+00.
 NRdTot=      81 NPtTot=       30352 NUsed=       30981 NTot=       31013
 NSgBfM=    69    69    69    69    69 NAtAll=     1     1.
 Leave Link  302 at Wed May 13 13:12:41 2020, MaxMem= 1073741824 cpu:       0.6
 (Enter /home/matheus/.gaussian/g09/l303.exe)
 DipDrv:  MaxL=1.
 Leave Link  303 at Wed May 13 13:12:41 2020, MaxMem= 1073741824 cpu:       0.2
 (Enter /home/matheus/.gaussian/g09/l401.exe)
 Initial guess read from the read-write file.
 Guess basis will be translated and rotated to current coordinates.
 Initial guess orbital symmetries:
       Occupied  (A) (A) (A) (A) (A) (A) (A) (A) (A) (A) (A) (A)
                 (A) (A) (A) (A) (A) (A)
       Virtual   (A) (A) (A) (A) (A) (A) (A) (A) (A) (A) (A) (A)
                 (A) (A) (A) (A) (A) (A) (A) (A) (A) (A) (A) (A)
                 (A) (A) (A) (A) (A) (A) (A) (A) (A) (A) (A) (A)
                 (A) (A) (A) (A) (A)
 The electronic state of the initial guess is 1-A.
 Generating alternative initial guess.
 Harris functional with IExCor=10402 diagonalized for initial guess.
 ExpMin= 4.00D-02 ExpMax= 1.17D+07 ExpMxC= 1.33D+04 IAcc=3 IRadAn=         5 AccDes= 0.00D+00
 HarFok:  IExCor=10402 AccDes= 0.00D+00 IRadAn=         5 IDoV= 1
 ScaDFX=  1.000000  1.000000  1.000000  1.000000
 FoFCou: FMM=F IPFlag=           0 FMFlag=      100000 FMFlg1=           0
         NFxFlg=           0 DoJE=T BraDBF=F KetDBF=T FulRan=T
         Omega=  0.000000  0.000000  1.000000  0.000000  0.000000 ICntrl=     500 IOpCl=  0
         NMat0=    1 NMatS0=    1 NMatT0=    0 NMatD0=    1 NMtDS0=    0 NMtDT0=    0
         I1Cent=           4 NGrid=           0.
 Petite list used in FoFCou.
 Harris En= -2744.51485235229    
 Leave Link  401 at Wed May 13 13:12:41 2020, MaxMem= 1073741824 cpu:       1.0
 (Enter /home/matheus/.gaussian/g09/l502.exe)
 Closed shell SCF:
 Requested convergence on RMS density matrix=1.00D-08 within 128 cycles.
 Requested convergence on MAX density matrix=1.00D-06.
 Requested convergence on             energy=1.00D-06.
 No special actions if energy rises.
 Using DIIS extrapolation, IDIIS=  1040.
 Integral symmetry usage will be decided dynamically.
        30923 words used for storage of precomputed grid.
 IEnd=       64406 IEndB=       64406 NGot=  1073741824 MDV=  1073698889
 LenX=  1073698889 LenY=  1073693687
 Fock matrices will be formed incrementally for  20 cycles.

 Cycle   1  Pass 1  IDiag  1:
 FoFJK:  IHMeth= 1 ICntrl=     0 DoSepK=T KAlg= 1 I1Cent= 0 FoldK=F
 FoFCou: FMM=F IPFlag=           0 FMFlag=      100000 FMFlg1=           0
         NFxFlg=           0 DoJE=T BraDBF=F KetDBF=F FulRan=T
         Omega=  0.000000  0.000000  1.000000  0.000000  0.000000 ICntrl=     500 IOpCl=  0
         NMat0=    1 NMatS0=    1 NMatT0=    0 NMatD0=    1 NMtDS0=    0 NMtDT0=    0
         I1Cent=           0 NGrid=           0.
 Symmetry not used in FoFCou.
 E= -2753.41754223393    
 DIIS: error= 5.26D-14 at cycle   1 NSaved=   1.
 NSaved= 1 IEnMin= 1 EnMin= -2753.41754223393     IErMin= 1 ErrMin= 5.26D-14
 ErrMax= 5.26D-14 EMaxC= 1.00D-01 BMatC= 1.51D-25 BMatP= 1.51D-25
 IDIUse=1 WtCom= 1.00D+00 WtEn= 0.00D+00
 Coeff-Com:  0.100D+01
 Coeff:      0.100D+01
 Gap=     0.595 Goal=   None    Shift=    0.000
 DSYEVD returned Info=        1859 IAlg= 4 N=    59 NDim=    59 NE2=    18198197 trying DSYEV.
 RMSDP=4.70D-15 MaxDP=7.98D-14              OVMax= 3.46D-14

 SCF Done:  E(RLC-B+HF-LYP) =  -2753.41754223     A.U. after    1 cycles
             Convg  =    0.4696D-14             -V/T =  2.0015
 KE= 2.749372504928D+03 PE=-6.578588569976D+03 EE= 1.075798522814D+03
 Leave Link  502 at Wed May 13 13:12:42 2020, MaxMem= 1073741824 cpu:      11.1
 (Enter /home/matheus/.gaussian/g09/l122.exe)
 Restoring MOs from calculation   1 to rwf.
 Counterpoise: corrected energy =   -2904.740294881029
 Counterpoise: BSSE energy =       0.000026805731
 Leave Link  122 at Wed May 13 13:12:42 2020, MaxMem= 1073741824 cpu:       0.0
 (Enter /home/matheus/.gaussian/g09/l108.exe)
 Scan completed.

 Summary of the potential surface scan:
   N      R1          SCF    
 ----  ---------  -----------
    1     3.0000  -2753.41754
    2     3.1000  -2753.41754
    3     3.2000  -2753.41754
    4     3.3000  -2753.41754
    5     3.4000  -2753.41754
    6     3.5000  -2753.41754
    7     3.6000  -2753.41754
    8     3.7000  -2753.41754
    9     3.8000  -2753.41754
   10     3.9000  -2753.41754
   11     4.0000  -2753.41754
   12     4.1000  -2753.41754
   13     4.2000  -2753.41754
   14     4.3000  -2753.41754
   15     4.4000  -2753.41754
   16     4.5000  -2753.41754
   17     4.6000  -2753.41754
   18     4.7000  -2753.41754
   19     4.8000  -2753.41754
   20     4.9000  -2753.41754
   21     5.0000  -2753.41754
 ----  ---------  -----------
  
 Leave Link  108 at Wed May 13 13:12:42 2020, MaxMem= 1073741824 cpu:       0.0
 (Enter /home/matheus/.gaussian/g09/l9999.exe)
 1\1\GINC-REDGIANT\Scan\RLC-BLYP\Aug-CC-pVTZ\H2Kr1O2\MATHEUS\13-May-202
 0\1\\#p lc-blyp/aug-cc-PVTz int=ultrafine counterpoise=2 Scan\\TCC\\0,
 1\O,0,0.,0.,0.725\O,0,0.,0.,-0.725\H,0,0.7037808064,0.5905422151,1.023
 5104166\H,0,0.,0.9187205947,-1.0235104166\Kr,0,0.,R1,0.\\R1=3.,s,20,0.
 1\\Version=EM64L-G09RevC.01\State=1-A\HF=-2753.4175422,-2753.4175422,-
 2753.4175422,-2753.4175422,-2753.4175422,-2753.4175422,-2753.4175422,-
 2753.4175422,-2753.4175422,-2753.4175422,-2753.4175422,-2753.4175422,-
 2753.4175422,-2753.4175422,-2753.4175422,-2753.4175422,-2753.4175422,-
 2753.4175422,-2753.4175422,-2753.4175422,-2753.4175422\RMSD=1.334e-09,
 5.265e-11,1.630e-11,9.948e-12,5.942e-12,3.608e-12,2.185e-12,1.319e-12,
 7.949e-13,4.873e-13,2.981e-13,1.783e-13,1.075e-13,6.997e-14,4.272e-14,
 2.501e-14,1.485e-14,1.098e-14,9.396e-15,1.088e-14,4.696e-15\PG=C01 [X(
 H2Kr1O2)]\\@


 CONFIDENCE IS WHAT YOU FEEL BEFORE YOU FULLY
 COMPREHEND THE SITUATION.
 Job cpu time:  0 days  2 hours 59 minutes 22.6 seconds.
 File lengths (MBytes):  RWF=     33 Int=      0 D2E=      0 Chk=      8 Scr=      1
 Normal termination of Gaussian 09 at Wed May 13 13:12:42 2020.
