 Entering Gaussian System, Link 0=g09
 Input=/home/matheus/.tcc/Inputs/Inputs-lc-blyp-default/H2O2-Kr_18.com
 Output=/home/matheus/.tcc/Logs/Logs-lc-blyp-default/H2O2-Kr_18.log
 Initial command:
 /home/matheus/.gaussian/g09/l1.exe /home/matheus/.gaussian/g09/scratch/Gau-30673.inp -scrdir=/home/matheus/.gaussian/g09/scratch/
 Entering Link 1 = /home/matheus/.gaussian/g09/l1.exe PID=     30677.
  
 Copyright (c) 1988,1990,1992,1993,1995,1998,2003,2009,2011,
            Gaussian, Inc.  All Rights Reserved.
  
 This is part of the Gaussian(R) 09 program.  It is based on
 the Gaussian(R) 03 system (copyright 2003, Gaussian, Inc.),
 the Gaussian(R) 98 system (copyright 1998, Gaussian, Inc.),
 the Gaussian(R) 94 system (copyright 1995, Gaussian, Inc.),
 the Gaussian 92(TM) system (copyright 1992, Gaussian, Inc.),
 the Gaussian 90(TM) system (copyright 1990, Gaussian, Inc.),
 the Gaussian 88(TM) system (copyright 1988, Gaussian, Inc.),
 the Gaussian 86(TM) system (copyright 1986, Carnegie Mellon
 University), and the Gaussian 82(TM) system (copyright 1983,
 Carnegie Mellon University). Gaussian is a federally registered
 trademark of Gaussian, Inc.
  
 This software contains proprietary and confidential information,
 including trade secrets, belonging to Gaussian, Inc.
  
 This software is provided under written license and may be
 used, copied, transmitted, or stored only in accord with that
 written license.
  
 The following legend is applicable only to US Government
 contracts under FAR:
  
                    RESTRICTED RIGHTS LEGEND
  
 Use, reproduction and disclosure by the US Government is
 subject to restrictions as set forth in subparagraphs (a)
 and (c) of the Commercial Computer Software - Restricted
 Rights clause in FAR 52.227-19.
  
 Gaussian, Inc.
 340 Quinnipiac St., Bldg. 40, Wallingford CT 06492
  
  
 ---------------------------------------------------------------
 Warning -- This program may not be used in any manner that
 competes with the business of Gaussian, Inc. or will provide
 assistance to any competitor of Gaussian, Inc.  The licensee
 of this program is prohibited from giving any competitor of
 Gaussian, Inc. access to this program.  By using this program,
 the user acknowledges that Gaussian, Inc. is engaged in the
 business of creating and licensing software in the field of
 computational chemistry and represents and warrants to the
 licensee that it is not a competitor of Gaussian, Inc. and that
 it will not use this program in any manner prohibited above.
 ---------------------------------------------------------------
  

 Cite this work as:
 Gaussian 09, Revision C.01,
 M. J. Frisch, G. W. Trucks, H. B. Schlegel, G. E. Scuseria, 
 M. A. Robb, J. R. Cheeseman, G. Scalmani, V. Barone, B. Mennucci, 
 G. A. Petersson, H. Nakatsuji, M. Caricato, X. Li, H. P. Hratchian, 
 A. F. Izmaylov, J. Bloino, G. Zheng, J. L. Sonnenberg, M. Hada, 
 M. Ehara, K. Toyota, R. Fukuda, J. Hasegawa, M. Ishida, T. Nakajima, 
 Y. Honda, O. Kitao, H. Nakai, T. Vreven, J. A. Montgomery, Jr., 
 J. E. Peralta, F. Ogliaro, M. Bearpark, J. J. Heyd, E. Brothers, 
 K. N. Kudin, V. N. Staroverov, T. Keith, R. Kobayashi, J. Normand, 
 K. Raghavachari, A. Rendell, J. C. Burant, S. S. Iyengar, J. Tomasi, 
 M. Cossi, N. Rega, J. M. Millam, M. Klene, J. E. Knox, J. B. Cross, 
 V. Bakken, C. Adamo, J. Jaramillo, R. Gomperts, R. E. Stratmann, 
 O. Yazyev, A. J. Austin, R. Cammi, C. Pomelli, J. W. Ochterski, 
 R. L. Martin, K. Morokuma, V. G. Zakrzewski, G. A. Voth, 
 P. Salvador, J. J. Dannenberg, S. Dapprich, A. D. Daniels, 
 O. Farkas, J. B. Foresman, J. V. Ortiz, J. Cioslowski, 
 and D. J. Fox, Gaussian, Inc., Wallingford CT, 2010.
 
 ******************************************
 Gaussian 09:  EM64L-G09RevC.01 23-Sep-2011
                13-May-2020 
 ******************************************
 %mem=8GB
 %nproc=8
 Will use up to    8 processors via shared memory.
 --------------------------------------------------------
 #p lc-blyp/aug-cc-PVTz int=ultrafine counterpoise=2 Scan
 --------------------------------------------------------
 1/38=1,60=1,62=2/1,8;
 2/12=2,17=6,18=5,29=3,40=1/2;
 1/38=1,53=5172,62=2/22;
 3/5=16,6=1,7=10,11=2,16=1,25=1,30=1,74=1000402,75=-5/1,2,3;
 4//1;
 5/5=2,38=5/2;
 6/7=2,8=2,9=2,10=2,18=1,28=1/1;
 1/53=4052,62=2,63=1/22;
 3/5=7,6=11,7=10,11=2,16=1,25=1,30=1,74=1000402,75=-5,82=7/1,2,3;
 4//1;
 5/5=2,38=5/2;
 6/7=2,8=2,9=2,10=2,18=1,28=1/1;
 1/53=3042,62=2,63=2/22;
 3/5=7,6=11,7=10,11=2,16=1,25=1,30=1,74=1000402,75=-5,82=7/1,2,3;
 4//1;
 5/5=2,38=5/2;
 6/7=2,8=2,9=2,10=2,18=1,28=1/1;
 1/53=2032,62=2,63=3/22;
 3/5=7,6=11,7=10,11=2,16=1,25=1,30=1,74=1000402,75=-5,82=7/1,2,3;
 4//1;
 5/5=2,38=5/2;
 6/7=2,8=2,9=2,10=2,18=1,28=1/1;
 1/53=1022,62=2,63=4/22;
 3/5=7,6=11,7=10,11=2,16=1,25=1,30=1,74=1000402,75=-5,82=7/1,2,3;
 4//1;
 5/5=2,38=5/2;
 6/7=2,8=2,9=2,10=2,18=1,28=1/1;
 1/53=5014,62=2,63=5/22;
 1/60=1,62=2/8(1);
 99/9=1/99;
 2/29=3/2;
 1/53=5173,62=2/22;
 3/5=7,6=11,7=10,11=2,16=1,25=1,30=1,74=1000402,75=-5,82=7/1,2,3;
 4/5=5,16=3/1;
 5/5=2,38=5/2;
 1/53=4053,62=2,63=1/22;
 3/5=7,6=11,7=10,11=2,16=1,25=1,30=1,74=1000402,75=-5,82=7/1,2,3;
 4/5=5,16=3/1;
 5/5=2,38=5/2;
 1/53=3043,62=2,63=2/22;
 3/5=7,6=11,7=10,11=2,16=1,25=1,30=1,74=1000402,75=-5,82=7/1,2,3;
 4/5=5,16=3/1;
 5/5=2,38=5/2;
 1/53=2033,62=2,63=3/22;
 3/5=7,6=11,7=10,11=2,16=1,25=1,30=1,74=1000402,75=-5,82=7/1,2,3;
 4/5=5,16=3/1;
 5/5=2,38=5/2;
 1/53=1024,62=2,63=4/22;
 3/5=7,6=11,7=10,11=2,16=1,25=1,30=1,74=1000402,75=-5,82=7/1,2,3;
 4/5=5,16=3/1;
 5/5=2,38=5/2;
 1/53=5014,62=2,63=5/22;
 1/60=1,62=2/8(-22);
 99/9=1/99;
 Leave Link    1 at Wed May 13 18:29:43 2020, MaxMem= 1073741824 cpu:       0.2
 (Enter /home/matheus/.gaussian/g09/l101.exe)
 ---
 TCC
 ---
 Charge =  0 Multiplicity = 1 in supermolecule
 Charge =  0 Multiplicity = 1 in fragment  1.
 Charge =  0 Multiplicity = 1 in fragment  2.
 Symbolic Z-Matrix:
 O(Fragment=1)         0.        0.        0.725 
 O(Fragment=1)         0.        0.       -0.725 
 H(Fragment=1)         0.       -0.91872   1.02351 
 H(Fragment=1)         0.        0.91872  -1.02351 
 Kr(Fragment=2)        0.       R1        0. 
       Variables:
  R1                    3.     Scan 20    0.1    
 
 NAtoms=      5 NQM=        0 NQMF=       0 NMMI=      5 NMMIF=      0
                NMic=       0 NMicF=      0.
                    Isotopes and Nuclear Properties:
 (Nuclear quadrupole moments (NQMom) in fm**2, nuclear magnetic moments (NMagM)
  in nuclear magnetons)

  Atom         1           2           3           4           5
 IAtWgt=          16          16           1           1          84
 AtmWgt=  15.9949146  15.9949146   1.0078250   1.0078250  83.9115064
 NucSpn=           0           0           1           1           0
 AtZEff=   0.0000000   0.0000000   0.0000000   0.0000000   0.0000000
 NQMom=    0.0000000   0.0000000   0.0000000   0.0000000   0.0000000
 NMagM=    0.0000000   0.0000000   2.7928460   2.7928460   0.0000000
 Leave Link  101 at Wed May 13 18:29:43 2020, MaxMem= 1073741824 cpu:       0.3
 (Enter /home/matheus/.gaussian/g09/l108.exe)
 Scan the potential surface.
 Variable   Value     No. Steps Step-Size
 -------- ----------- --------- ---------
     1       3.000000      20      0.1000
 A total of     21 points will be computed.
 Leave Link  108 at Wed May 13 18:29:43 2020, MaxMem= 1073741824 cpu:       0.0
 (Enter /home/matheus/.gaussian/g09/l202.exe)
 ---------------------------------------------------------------------------------------------------
                            Z-MATRIX (ANGSTROMS AND DEGREES)
   CD    Cent   Atom    N1       Length/X        N2       Alpha/Y        N3        Beta/Z          J
 ---------------------------------------------------------------------------------------------------
      1      1  O        0   0.000000          0.000000          0.725000
      2      2  O        0   0.000000          0.000000         -0.725000
      3      3  H        0   0.000000         -0.918721          1.023510
      4      4  H        0   0.000000          0.918721         -1.023510
      5      5  Kr       0   0.000000          3.000000          0.000000
 ---------------------------------------------------------------------------------------------------
                         Z-Matrix orientation:                         
 ---------------------------------------------------------------------
 Center     Atomic      Atomic             Coordinates (Angstroms)
 Number     Number       Type             X           Y           Z
 ---------------------------------------------------------------------
      1          8           0        0.000000    0.000000    0.725000
      2          8           0        0.000000    0.000000   -0.725000
      3          1           0        0.000000   -0.918721    1.023510
      4          1           0        0.000000    0.918721   -1.023510
      5         36           0        0.000000    3.000000    0.000000
 ---------------------------------------------------------------------
                    Distance matrix (angstroms):
                    1          2          3          4          5
     1  O    0.000000
     2  O    1.450000   0.000000
     3  H    0.966000   1.975180   0.000000
     4  H    1.975180   0.966000   2.750724   0.000000
     5  Kr   3.086361   3.086361   4.050178   2.319331   0.000000
 Stoichiometry    H2KrO2
 Framework group  CS[SG(H2KrO2)]
 Deg. of freedom     7
 Full point group                 CS      NOp   2
 Largest Abelian subgroup         CS      NOp   2
 Largest concise Abelian subgroup C1      NOp   1
                         Standard orientation:                         
 ---------------------------------------------------------------------
 Center     Atomic      Atomic             Coordinates (Angstroms)
 Number     Number       Type             X           Y           Z
 ---------------------------------------------------------------------
      1          8           0        0.725000   -2.000000    0.000000
      2          8           0       -0.725000   -2.000000    0.000000
      3          1           0        1.023510   -2.918721    0.000000
      4          1           0       -1.023510   -1.081279    0.000000
      5         36           0        0.000000    1.000000    0.000000
 ---------------------------------------------------------------------
 Rotational constants (GHZ):     26.7279120      2.3023206      2.1197289
 Leave Link  202 at Wed May 13 18:29:43 2020, MaxMem= 1073741824 cpu:       0.0
 (Enter /home/matheus/.gaussian/g09/l122.exe)
 Leave Link  122 at Wed May 13 18:29:43 2020, MaxMem= 1073741824 cpu:       0.0
 (Enter /home/matheus/.gaussian/g09/l301.exe)
 Standard basis: Aug-CC-pVTZ (5D, 7F)
 Ernie: Thresh=  0.10000D-02 Tol=  0.10000D-05 Strict=F.
 Ernie:  38 primitive shells out of 205 were deleted.
 There are   131 symmetry adapted basis functions of A'  symmetry.
 There are    66 symmetry adapted basis functions of A"  symmetry.
 Integral buffers will be    131072 words long.
 Raffenetti 2 integral format.
 Two-electron integral symmetry is turned on.
   197 basis functions,   415 primitive gaussians,   229 cartesian basis functions
    27 alpha electrons       27 beta electrons
       nuclear repulsion energy       148.2769905491 Hartrees.
 IExCor=10402 DFT=T Ex=LC-B+HF Corr=LYP ExCW=0 ScaHFX=  1.000000
 ScaDFX=  1.000000  1.000000  1.000000  1.000000 ScalE2=  1.000000  1.000000
 IRadAn=      5 IRanWt=     -1 IRanGd=            0 ICorTp=0
  HFx wShort=  0.000000 wLong=  0.470000 cFull=  0.000000 cShort=  0.000000 cLong=  1.000000
  DFx wShort=  0.000000 wLong=  0.470000 cFull=  0.000000 cShort=  0.000000 cLong=  1.000000
 NAtoms=    5 NActive=    5 NUniq=    5 SFac= 1.00D+00 NAtFMM=   60 NAOKFM=F Big=F
 Leave Link  301 at Wed May 13 18:29:43 2020, MaxMem= 1073741824 cpu:       0.2
 (Enter /home/matheus/.gaussian/g09/l302.exe)
 NPDir=0 NMtPBC=     1 NCelOv=     1 NCel=       1 NClECP=     1 NCelD=      1
         NCelK=      1 NCelE2=     1 NClLst=     1 CellRange=     0.0.
 One-electron integrals computed using PRISM.
 NBasis=   197 RedAO= T  NBF=   131    66
 NBsUse=   197 1.00D-06 NBFU=   131    66
 Precomputing XC quadrature grid using
 IXCGrd= 2 IRadAn=           5 IRanWt=          -1 IRanGd=           0 AccXCQ= 0.00D+00.
 NRdTot=     427 NPtTot=      123814 NUsed=      126881 NTot=      126913
 NSgBfM=   229   229   229   229   229 NAtAll=     5     5.
 Leave Link  302 at Wed May 13 18:29:43 2020, MaxMem= 1073741824 cpu:       0.9
 (Enter /home/matheus/.gaussian/g09/l303.exe)
 DipDrv:  MaxL=1.
 Leave Link  303 at Wed May 13 18:29:43 2020, MaxMem= 1073741824 cpu:       0.2
 (Enter /home/matheus/.gaussian/g09/l401.exe)
 Harris functional with IExCor=10402 diagonalized for initial guess.
 ExpMin= 2.53D-02 ExpMax= 1.17D+07 ExpMxC= 1.33D+04 IAcc=3 IRadAn=         5 AccDes= 0.00D+00
 HarFok:  IExCor=10402 AccDes= 0.00D+00 IRadAn=         5 IDoV= 1
 ScaDFX=  1.000000  1.000000  1.000000  1.000000
 FoFCou: FMM=F IPFlag=           0 FMFlag=      100000 FMFlg1=           0
         NFxFlg=           0 DoJE=T BraDBF=F KetDBF=T FulRan=T
         Omega=  0.000000  0.000000  1.000000  0.000000  0.000000 ICntrl=     500 IOpCl=  0
         NMat0=    1 NMatS0=    1 NMatT0=    0 NMatD0=    1 NMtDS0=    0 NMtDT0=    0
         I1Cent=           4 NGrid=           0.
 Petite list used in FoFCou.
 Harris En= -2891.66917279191    
 Initial guess orbital symmetries:
       Occupied  (A') (A') (A') (A') (A") (A') (A') (A') (A') (A')
                 (A") (A') (A') (A") (A') (A") (A') (A') (A') (A')
                 (A') (A") (A') (A") (A') (A') (A")
       Virtual   (A') (A') (A') (A") (A') (A') (A') (A') (A") (A')
                 (A") (A') (A') (A') (A") (A') (A") (A') (A') (A')
                 (A') (A") (A') (A") (A') (A') (A') (A') (A") (A')
                 (A') (A') (A") (A') (A") (A') (A") (A') (A") (A')
                 (A") (A') (A') (A') (A") (A') (A') (A") (A") (A')
                 (A') (A') (A") (A") (A') (A') (A") (A') (A') (A')
                 (A") (A') (A") (A') (A") (A') (A') (A') (A") (A')
                 (A') (A") (A") (A') (A') (A') (A') (A") (A') (A')
                 (A') (A") (A') (A") (A") (A') (A") (A') (A') (A")
                 (A') (A') (A") (A') (A') (A") (A') (A') (A") (A")
                 (A') (A') (A") (A') (A") (A') (A") (A') (A") (A')
                 (A') (A") (A') (A') (A') (A') (A') (A") (A') (A')
                 (A") (A') (A") (A') (A") (A") (A') (A") (A') (A")
                 (A') (A') (A') (A') (A') (A') (A') (A') (A") (A")
                 (A') (A') (A') (A") (A') (A') (A") (A') (A") (A')
                 (A") (A') (A") (A") (A") (A") (A") (A') (A') (A')
                 (A') (A") (A') (A') (A') (A') (A') (A') (A') (A')
 The electronic state of the initial guess is 1-A'.
 Leave Link  401 at Wed May 13 18:29:43 2020, MaxMem= 1073741824 cpu:       3.1
 (Enter /home/matheus/.gaussian/g09/l502.exe)
 Closed shell SCF:
 Requested convergence on RMS density matrix=1.00D-08 within 128 cycles.
 Requested convergence on MAX density matrix=1.00D-06.
 Requested convergence on             energy=1.00D-06.
 No special actions if energy rises.
 Using DIIS extrapolation, IDIIS=  1040.
 Integral symmetry usage will be decided dynamically.
       126823 words used for storage of precomputed grid.
 IEnd=      305835 IEndB=      305835 NGot=  1073741824 MDV=  1073505300
 LenX=  1073505300 LenY=  1073452418
 Fock matrices will be formed incrementally for  20 cycles.

 Cycle   1  Pass 1  IDiag  1:
 FoFJK:  IHMeth= 1 ICntrl=     0 DoSepK=T KAlg= 1 I1Cent= 0 FoldK=F
 FoFCou: FMM=F IPFlag=           0 FMFlag=      100000 FMFlg1=           0
         NFxFlg=           0 DoJE=T BraDBF=F KetDBF=F FulRan=T
         Omega=  0.000000  0.000000  1.000000  0.000000  0.000000 ICntrl=     500 IOpCl=  0
         NMat0=    1 NMatS0=    1 NMatT0=    0 NMatD0=    1 NMtDS0=    0 NMtDT0=    0
         I1Cent=           0 NGrid=           0.
 Petite list used in FoFCou.
 E= -2904.63401531216    
 DIIS: error= 3.05D-02 at cycle   1 NSaved=   1.
 NSaved= 1 IEnMin= 1 EnMin= -2904.63401531216     IErMin= 1 ErrMin= 3.05D-02
 ErrMax= 3.05D-02 EMaxC= 1.00D-01 BMatC= 2.83D-01 BMatP= 2.83D-01
 IDIUse=3 WtCom= 6.95D-01 WtEn= 3.05D-01
 Coeff-Com:  0.100D+01
 Coeff-En:   0.100D+01
 Coeff:      0.100D+01
 Gap=     0.464 Goal=   None    Shift=    0.000
 GapD=    0.464 DampG=2.000 DampE=0.500 DampFc=1.0000 IDamp=-1.
 RMSDP=2.69D-03 MaxDP=1.52D-01              OVMax= 1.06D-01

 Cycle   2  Pass 1  IDiag  1:
 RMSU=  1.86D-03    CP:  1.02D+00
 FoFJK:  IHMeth= 1 ICntrl=     0 DoSepK=T KAlg= 1 I1Cent= 0 FoldK=F
 E= -2904.70826595478     Delta-E=       -0.074250642621 Rises=F Damp=F
 DIIS: error= 1.60D-02 at cycle   2 NSaved=   2.
 NSaved= 2 IEnMin= 2 EnMin= -2904.70826595478     IErMin= 2 ErrMin= 1.60D-02
 ErrMax= 1.60D-02 EMaxC= 1.00D-01 BMatC= 9.32D-02 BMatP= 2.83D-01
 IDIUse=3 WtCom= 8.40D-01 WtEn= 1.60D-01
 Coeff-Com:  0.360D+00 0.640D+00
 Coeff-En:   0.399D-01 0.960D+00
 Coeff:      0.309D+00 0.691D+00
 Gap=     0.429 Goal=   None    Shift=    0.000
 RMSDP=1.04D-03 MaxDP=6.30D-02 DE=-7.43D-02 OVMax= 3.18D-02

 Cycle   3  Pass 1  IDiag  1:
 RMSU=  3.29D-04    CP:  1.01D+00  6.57D-01
 FoFJK:  IHMeth= 1 ICntrl=     0 DoSepK=T KAlg= 1 I1Cent= 0 FoldK=F
 E= -2904.73906308384     Delta-E=       -0.030797129060 Rises=F Damp=F
 DIIS: error= 1.86D-03 at cycle   3 NSaved=   3.
 NSaved= 3 IEnMin= 3 EnMin= -2904.73906308384     IErMin= 3 ErrMin= 1.86D-03
 ErrMax= 1.86D-03 EMaxC= 1.00D-01 BMatC= 1.52D-03 BMatP= 9.32D-02
 IDIUse=3 WtCom= 9.81D-01 WtEn= 1.86D-02
 Coeff-Com:  0.868D-02 0.117D+00 0.874D+00
 Coeff-En:   0.000D+00 0.000D+00 0.100D+01
 Coeff:      0.851D-02 0.115D+00 0.877D+00
 Gap=     0.435 Goal=   None    Shift=    0.000
 RMSDP=1.65D-04 MaxDP=6.75D-03 DE=-3.08D-02 OVMax= 7.99D-03

 Cycle   4  Pass 1  IDiag  1:
 RMSU=  7.09D-05    CP:  1.01D+00  7.04D-01  1.10D+00
 FoFJK:  IHMeth= 1 ICntrl=     0 DoSepK=T KAlg= 1 I1Cent= 0 FoldK=F
 E= -2904.73967804545     Delta-E=       -0.000614961612 Rises=F Damp=F
 DIIS: error= 6.94D-04 at cycle   4 NSaved=   4.
 NSaved= 4 IEnMin= 4 EnMin= -2904.73967804545     IErMin= 4 ErrMin= 6.94D-04
 ErrMax= 6.94D-04 EMaxC= 1.00D-01 BMatC= 1.06D-04 BMatP= 1.52D-03
 IDIUse=3 WtCom= 9.93D-01 WtEn= 6.94D-03
 Coeff-Com: -0.121D-01 0.189D-01 0.336D+00 0.657D+00
 Coeff-En:   0.000D+00 0.000D+00 0.000D+00 0.100D+01
 Coeff:     -0.120D-01 0.188D-01 0.334D+00 0.659D+00
 Gap=     0.431 Goal=   None    Shift=    0.000
 RMSDP=3.72D-05 MaxDP=1.37D-03 DE=-6.15D-04 OVMax= 2.28D-03

 Cycle   5  Pass 1  IDiag  1:
 RMSU=  2.04D-05    CP:  1.01D+00  7.07D-01  1.14D+00  9.73D-01
 FoFJK:  IHMeth= 1 ICntrl=     0 DoSepK=T KAlg= 1 I1Cent= 0 FoldK=F
 E= -2904.73974536317     Delta-E=       -0.000067317714 Rises=F Damp=F
 DIIS: error= 2.55D-04 at cycle   5 NSaved=   5.
 NSaved= 5 IEnMin= 5 EnMin= -2904.73974536317     IErMin= 5 ErrMin= 2.55D-04
 ErrMax= 2.55D-04 EMaxC= 1.00D-01 BMatC= 9.66D-06 BMatP= 1.06D-04
 IDIUse=3 WtCom= 9.97D-01 WtEn= 2.55D-03
 Coeff-Com: -0.433D-02-0.687D-02-0.333D-03 0.210D+00 0.801D+00
 Coeff-En:   0.000D+00 0.000D+00 0.000D+00 0.000D+00 0.100D+01
 Coeff:     -0.432D-02-0.685D-02-0.332D-03 0.210D+00 0.802D+00
 Gap=     0.431 Goal=   None    Shift=    0.000
 RMSDP=1.82D-05 MaxDP=7.08D-04 DE=-6.73D-05 OVMax= 1.07D-03

 Cycle   6  Pass 1  IDiag  1:
 RMSU=  7.17D-06    CP:  1.01D+00  7.08D-01  1.17D+00  1.07D+00  1.02D+00
 FoFJK:  IHMeth= 1 ICntrl=     0 DoSepK=T KAlg= 1 I1Cent= 0 FoldK=F
 E= -2904.73975312323     Delta-E=       -0.000007760059 Rises=F Damp=F
 DIIS: error= 8.59D-05 at cycle   6 NSaved=   6.
 NSaved= 6 IEnMin= 6 EnMin= -2904.73975312323     IErMin= 6 ErrMin= 8.59D-05
 ErrMax= 8.59D-05 EMaxC= 1.00D-01 BMatC= 2.13D-06 BMatP= 9.66D-06
 IDIUse=1 WtCom= 1.00D+00 WtEn= 0.00D+00
 Coeff-Com: -0.663D-03-0.480D-02-0.304D-01 0.295D-01 0.369D+00 0.637D+00
 Coeff:     -0.663D-03-0.480D-02-0.304D-01 0.295D-01 0.369D+00 0.637D+00
 Gap=     0.431 Goal=   None    Shift=    0.000
 RMSDP=6.07D-06 MaxDP=2.14D-04 DE=-7.76D-06 OVMax= 4.03D-04

 Cycle   7  Pass 1  IDiag  1:
 RMSU=  2.49D-06    CP:  1.01D+00  7.09D-01  1.17D+00  1.10D+00  1.10D+00
                    CP:  9.47D-01
 FoFJK:  IHMeth= 1 ICntrl=     0 DoSepK=T KAlg= 1 I1Cent= 0 FoldK=F
 E= -2904.73975461421     Delta-E=       -0.000001490984 Rises=F Damp=F
 DIIS: error= 2.00D-05 at cycle   7 NSaved=   7.
 NSaved= 7 IEnMin= 7 EnMin= -2904.73975461421     IErMin= 7 ErrMin= 2.00D-05
 ErrMax= 2.00D-05 EMaxC= 1.00D-01 BMatC= 1.23D-07 BMatP= 2.13D-06
 IDIUse=1 WtCom= 1.00D+00 WtEn= 0.00D+00
 Coeff-Com:  0.158D-03-0.110D-02-0.873D-02-0.189D-01 0.536D-03 0.186D+00
 Coeff-Com:  0.842D+00
 Coeff:      0.158D-03-0.110D-02-0.873D-02-0.189D-01 0.536D-03 0.186D+00
 Coeff:      0.842D+00
 Gap=     0.431 Goal=   None    Shift=    0.000
 RMSDP=2.37D-06 MaxDP=8.32D-05 DE=-1.49D-06 OVMax= 1.12D-04

 Cycle   8  Pass 1  IDiag  1:
 RMSU=  5.98D-07    CP:  1.01D+00  7.09D-01  1.18D+00  1.12D+00  1.13D+00
                    CP:  1.05D+00  1.01D+00
 FoFJK:  IHMeth= 1 ICntrl=     0 DoSepK=T KAlg= 1 I1Cent= 0 FoldK=F
 E= -2904.73975474183     Delta-E=       -0.000000127616 Rises=F Damp=F
 DIIS: error= 4.38D-06 at cycle   8 NSaved=   8.
 NSaved= 8 IEnMin= 8 EnMin= -2904.73975474183     IErMin= 8 ErrMin= 4.38D-06
 ErrMax= 4.38D-06 EMaxC= 1.00D-01 BMatC= 2.36D-09 BMatP= 1.23D-07
 IDIUse=1 WtCom= 1.00D+00 WtEn= 0.00D+00
 Coeff-Com:  0.103D-04 0.320D-03 0.227D-02 0.123D-03-0.186D-01-0.471D-01
 Coeff-Com: -0.592D-01 0.112D+01
 Coeff:      0.103D-04 0.320D-03 0.227D-02 0.123D-03-0.186D-01-0.471D-01
 Coeff:     -0.592D-01 0.112D+01
 Gap=     0.431 Goal=   None    Shift=    0.000
 RMSDP=5.38D-07 MaxDP=1.63D-05 DE=-1.28D-07 OVMax= 3.38D-05

 Cycle   9  Pass 1  IDiag  1:
 RMSU=  1.14D-07    CP:  1.01D+00  7.09D-01  1.18D+00  1.12D+00  1.13D+00
                    CP:  1.08D+00  1.07D+00  1.33D+00
 FoFJK:  IHMeth= 1 ICntrl=     0 DoSepK=T KAlg= 1 I1Cent= 0 FoldK=F
 E= -2904.73975474775     Delta-E=       -0.000000005929 Rises=F Damp=F
 DIIS: error= 6.31D-07 at cycle   9 NSaved=   9.
 NSaved= 9 IEnMin= 9 EnMin= -2904.73975474775     IErMin= 9 ErrMin= 6.31D-07
 ErrMax= 6.31D-07 EMaxC= 1.00D-01 BMatC= 1.41D-10 BMatP= 2.36D-09
 IDIUse=1 WtCom= 1.00D+00 WtEn= 0.00D+00
 Coeff-Com: -0.273D-05 0.108D-03 0.621D-03 0.101D-02-0.851D-03-0.131D-01
 Coeff-Com: -0.503D-01 0.504D-01 0.101D+01
 Coeff:     -0.273D-05 0.108D-03 0.621D-03 0.101D-02-0.851D-03-0.131D-01
 Coeff:     -0.503D-01 0.504D-01 0.101D+01
 Gap=     0.431 Goal=   None    Shift=    0.000
 RMSDP=1.04D-07 MaxDP=2.53D-06 DE=-5.93D-09 OVMax= 8.81D-06

 Cycle  10  Pass 1  IDiag  1:
 RMSU=  3.91D-08    CP:  1.01D+00  7.09D-01  1.18D+00  1.12D+00  1.13D+00
                    CP:  1.08D+00  1.08D+00  1.40D+00  1.23D+00
 FoFJK:  IHMeth= 1 ICntrl=     0 DoSepK=T KAlg= 1 I1Cent= 0 FoldK=F
 E= -2904.73975474809     Delta-E=       -0.000000000336 Rises=F Damp=F
 DIIS: error= 2.36D-07 at cycle  10 NSaved=  10.
 NSaved=10 IEnMin=10 EnMin= -2904.73975474809     IErMin=10 ErrMin= 2.36D-07
 ErrMax= 2.36D-07 EMaxC= 1.00D-01 BMatC= 6.92D-12 BMatP= 1.41D-10
 IDIUse=1 WtCom= 1.00D+00 WtEn= 0.00D+00
 Coeff-Com: -0.113D-08-0.256D-04-0.166D-03-0.131D-03 0.876D-03 0.331D-02
 Coeff-Com:  0.947D-02-0.641D-01-0.653D-01 0.112D+01
 Coeff:     -0.113D-08-0.256D-04-0.166D-03-0.131D-03 0.876D-03 0.331D-02
 Coeff:      0.947D-02-0.641D-01-0.653D-01 0.112D+01
 Gap=     0.431 Goal=   None    Shift=    0.000
 RMSDP=2.86D-08 MaxDP=5.78D-07 DE=-3.36D-10 OVMax= 2.13D-06

 Cycle  11  Pass 1  IDiag  1:
 RMSU=  8.47D-09    CP:  1.01D+00  7.09D-01  1.18D+00  1.12D+00  1.13D+00
                    CP:  1.08D+00  1.08D+00  1.41D+00  1.33D+00  1.26D+00
 FoFJK:  IHMeth= 1 ICntrl=     0 DoSepK=T KAlg= 1 I1Cent= 0 FoldK=F
 E= -2904.73975474811     Delta-E=       -0.000000000022 Rises=F Damp=F
 DIIS: error= 6.77D-08 at cycle  11 NSaved=  11.
 NSaved=11 IEnMin=11 EnMin= -2904.73975474811     IErMin=11 ErrMin= 6.77D-08
 ErrMax= 6.77D-08 EMaxC= 1.00D-01 BMatC= 5.33D-13 BMatP= 6.92D-12
 IDIUse=1 WtCom= 1.00D+00 WtEn= 0.00D+00
 Coeff-Com: -0.450D-07-0.106D-04-0.596D-04-0.787D-04 0.162D-03 0.123D-02
 Coeff-Com:  0.463D-02-0.120D-01-0.679D-01 0.952D-01 0.979D+00
 Coeff:     -0.450D-07-0.106D-04-0.596D-04-0.787D-04 0.162D-03 0.123D-02
 Coeff:      0.463D-02-0.120D-01-0.679D-01 0.952D-01 0.979D+00
 Gap=     0.431 Goal=   None    Shift=    0.000
 RMSDP=6.85D-09 MaxDP=1.57D-07 DE=-2.23D-11 OVMax= 5.79D-07

 SCF Done:  E(RLC-B+HF-LYP) =  -2904.73975475     A.U. after   11 cycles
             Convg  =    0.6845D-08             -V/T =  2.0017
 KE= 2.899820564725D+03 PE=-7.233005390070D+03 EE= 1.280168080047D+03
 Leave Link  502 at Wed May 13 18:30:20 2020, MaxMem= 1073741824 cpu:     294.1
 (Enter /home/matheus/.gaussian/g09/l601.exe)
 Copying SCF densities to generalized density rwf, IOpCl= 0 IROHF=0.

 **********************************************************************

            Population analysis using the SCF density.

 **********************************************************************

 Orbital symmetries:
       Occupied  (A') (A') (A') (A") (A') (A') (A') (A') (A') (A")
                 (A') (A') (A") (A') (A") (A') (A') (A') (A') (A')
                 (A') (A") (A') (A") (A') (A') (A")
       Virtual   (A') (A') (A') (A") (A') (A') (A') (A') (A") (A')
                 (A") (A') (A') (A') (A") (A') (A") (A') (A') (A')
                 (A') (A") (A') (A") (A') (A') (A') (A') (A") (A')
                 (A') (A') (A") (A') (A") (A') (A") (A') (A") (A')
                 (A") (A') (A') (A') (A") (A') (A') (A") (A") (A')
                 (A') (A') (A") (A') (A") (A') (A') (A") (A') (A')
                 (A') (A") (A") (A") (A') (A') (A') (A') (A") (A')
                 (A') (A") (A") (A') (A') (A') (A') (A") (A') (A')
                 (A') (A") (A') (A") (A") (A") (A') (A') (A') (A')
                 (A") (A') (A") (A') (A') (A") (A') (A') (A") (A')
                 (A") (A') (A") (A') (A") (A') (A") (A') (A') (A")
                 (A') (A') (A") (A') (A') (A') (A') (A") (A') (A')
                 (A') (A") (A") (A') (A") (A") (A') (A") (A') (A")
                 (A') (A') (A') (A') (A') (A') (A') (A') (A") (A")
                 (A') (A') (A') (A") (A') (A') (A") (A') (A") (A')
                 (A") (A') (A") (A") (A") (A") (A") (A') (A') (A')
                 (A') (A") (A') (A') (A') (A') (A') (A') (A') (A')
 The electronic state is 1-A'.
 Alpha  occ. eigenvalues -- -511.25270 -66.72269 -60.40803 -60.40784 -60.40776
 Alpha  occ. eigenvalues --  -19.07007 -19.06619  -9.61423  -7.36920  -7.36865
 Alpha  occ. eigenvalues --   -7.36841  -3.33250  -3.33238  -3.33221  -3.33180
 Alpha  occ. eigenvalues --   -3.33178  -1.28051  -1.07403  -1.06116  -0.68363
 Alpha  occ. eigenvalues --   -0.65642  -0.56043  -0.52919  -0.52075  -0.51637
 Alpha  occ. eigenvalues --   -0.48872  -0.40418
 Alpha virt. eigenvalues --    0.02695   0.03473   0.07373   0.09494   0.09914
 Alpha virt. eigenvalues --    0.10461   0.12668   0.13861   0.15831   0.15970
 Alpha virt. eigenvalues --    0.18155   0.19252   0.19422   0.22516   0.22951
 Alpha virt. eigenvalues --    0.24045   0.26348   0.28006   0.29940   0.33295
 Alpha virt. eigenvalues --    0.33727   0.33902   0.35883   0.38442   0.39865
 Alpha virt. eigenvalues --    0.40142   0.42255   0.47921   0.52101   0.54554
 Alpha virt. eigenvalues --    0.56901   0.59736   0.64522   0.65507   0.68535
 Alpha virt. eigenvalues --    0.70835   0.72145   0.72989   0.74534   0.76460
 Alpha virt. eigenvalues --    0.77360   0.77519   0.78557   0.80217   0.81308
 Alpha virt. eigenvalues --    0.82901   0.85636   0.87777   0.88307   0.91028
 Alpha virt. eigenvalues --    0.91420   0.94070   0.95694   0.97964   1.00407
 Alpha virt. eigenvalues --    1.03124   1.05129   1.06148   1.06552   1.09512
 Alpha virt. eigenvalues --    1.13313   1.13876   1.15862   1.18969   1.18983
 Alpha virt. eigenvalues --    1.27288   1.32163   1.36479   1.41848   1.42111
 Alpha virt. eigenvalues --    1.50223   1.52507   1.54572   1.56130   1.58760
 Alpha virt. eigenvalues --    1.62231   1.78650   1.80931   1.86940   1.95405
 Alpha virt. eigenvalues --    1.99889   2.00459   2.06465   2.14925   2.15424
 Alpha virt. eigenvalues --    2.17417   2.17911   2.19013   2.19968   2.28588
 Alpha virt. eigenvalues --    2.28765   2.30189   2.32093   2.34717   2.36027
 Alpha virt. eigenvalues --    2.39033   2.41182   2.46072   2.48265   2.50288
 Alpha virt. eigenvalues --    2.51175   2.51743   2.54244   2.57936   2.60113
 Alpha virt. eigenvalues --    2.61479   2.64527   2.67444   2.70289   2.71627
 Alpha virt. eigenvalues --    2.72915   2.77094   2.77158   2.80870   2.90764
 Alpha virt. eigenvalues --    2.98011   3.08823   3.11039   3.17316   3.53562
 Alpha virt. eigenvalues --    3.78712   3.82247   3.92534   4.04203   4.06624
 Alpha virt. eigenvalues --    4.13863   4.16539   4.23831   4.25226   4.29794
 Alpha virt. eigenvalues --    4.38829   4.43346   4.52818   4.56626   4.73373
 Alpha virt. eigenvalues --    4.91222   5.04495   5.05563   5.08830   5.10807
 Alpha virt. eigenvalues --    5.39412   5.44328   5.84157   5.99527   6.09933
 Alpha virt. eigenvalues --    6.15884   6.31710   6.38932   6.47072   6.48424
 Alpha virt. eigenvalues --    6.70862   6.73292   6.75443   6.81256   6.88317
 Alpha virt. eigenvalues --    6.91381   6.92715   6.95051   6.95360   6.99001
 Alpha virt. eigenvalues --    7.02270   7.22063   7.26020   7.40336   7.61228
 Alpha virt. eigenvalues --    7.84039   8.12195   8.15036  14.09104  14.50602
          Condensed to atoms (all electrons):
              1          2          3          4          5
     1  O    8.200128  -0.165573   0.179471   0.004002  -0.035135
     2  O   -0.165573   8.173120   0.014424   0.227877  -0.013006
     3  H    0.179471   0.014424   0.606590   0.002875   0.002766
     4  H    0.004002   0.227877   0.002875   0.557446  -0.004721
     5  Kr  -0.035135  -0.013006   0.002766  -0.004721  36.036754
 Mulliken atomic charges:
              1
     1  O   -0.182895
     2  O   -0.236842
     3  H    0.193874
     4  H    0.212521
     5  Kr   0.013342
 Sum of Mulliken atomic charges =   0.00000
 Mulliken charges with hydrogens summed into heavy atoms:
              1
     1  O    0.010979
     2  O   -0.024321
     5  Kr   0.013342
 Sum of Mulliken charges with hydrogens summed into heavy atoms =   0.00000
          Condensed to fragments (all electrons):
     1      -0.013342
     2       0.013342
 Electronic spatial extent (au):  <R**2>=            493.2071
 Charge=              0.0000 electrons
 Dipole moment (field-independent basis, Debye):
    X=              0.2856    Y=              0.1891    Z=              0.0000  Tot=              0.3426
 Quadrupole moment (field-independent basis, Debye-Ang):
   XX=            -28.5769   YY=            -26.4965   ZZ=            -30.9943
   XY=             -4.0395   XZ=              0.0000   YZ=              0.0000
 Traceless Quadrupole moment (field-independent basis, Debye-Ang):
   XX=              0.1123   YY=              2.1927   ZZ=             -2.3051
   XY=             -4.0395   XZ=              0.0000   YZ=              0.0000
 Octapole moment (field-independent basis, Debye-Ang**2):
  XXX=              0.3991  YYY=              0.3339  ZZZ=              0.0000  XYY=             17.2335
  XXY=              4.1348  XXZ=              0.0000  XZZ=              0.1347  YZZ=              9.0699
  YYZ=              0.0000  XYZ=              0.0000
 Hexadecapole moment (field-independent basis, Debye-Ang**3):
 XXXX=            -65.6270 YYYY=           -346.5527 ZZZZ=            -30.6722 XXXY=             -2.6937
 XXXZ=              0.0000 YYYX=            -52.0522 YYYZ=              0.0000 ZZZX=              0.0000
 ZZZY=              0.0000 XXYY=            -74.8752 XXZZ=            -18.1069 YYZZ=            -81.7599
 XXYZ=              0.0000 YYXZ=              0.0000 ZZXY=              0.8474
 N-N= 1.482769905491D+02 E-N=-7.233005385943D+03  KE= 2.899820564725D+03
 Symmetry A'   KE= 2.484288907343D+03
 Symmetry A"   KE= 4.155316573823D+02
 No NMR shielding tensors so no spin-rotation constants.
 Leave Link  601 at Wed May 13 18:30:20 2020, MaxMem= 1073741824 cpu:       1.0
 (Enter /home/matheus/.gaussian/g09/l122.exe)
 Counterpoise: doing DCBS calculation for fragment   1 NewBq=T
 Leave Link  122 at Wed May 13 18:30:20 2020, MaxMem= 1073741824 cpu:       0.0
 (Enter /home/matheus/.gaussian/g09/l301.exe)
 Basis read from rwf:  (5D, 7F)
 No pseudopotential information found on rwf file.
 There are   131 symmetry adapted basis functions of A'  symmetry.
 There are    66 symmetry adapted basis functions of A"  symmetry.
 Integral buffers will be    131072 words long.
 Raffenetti 2 integral format.
 Two-electron integral symmetry is turned on.
   197 basis functions,   415 primitive gaussians,   229 cartesian basis functions
     9 alpha electrons        9 beta electrons
       nuclear repulsion energy        36.6006188945 Hartrees.
 IExCor=10402 DFT=T Ex=LC-B+HF Corr=LYP ExCW=0 ScaHFX=  1.000000
 ScaDFX=  1.000000  1.000000  1.000000  1.000000 ScalE2=  1.000000  1.000000
 IRadAn=      5 IRanWt=     -1 IRanGd=            0 ICorTp=0
  HFx wShort=  0.000000 wLong=  0.470000 cFull=  0.000000 cShort=  0.000000 cLong=  1.000000
  DFx wShort=  0.000000 wLong=  0.470000 cFull=  0.000000 cShort=  0.000000 cLong=  1.000000
 NAtoms=    5 NActive=    5 NUniq=    5 SFac= 1.00D+00 NAtFMM=   60 NAOKFM=F Big=F
 No density basis found on file   718.
 Leave Link  301 at Wed May 13 18:30:20 2020, MaxMem= 1073741824 cpu:       0.3
 (Enter /home/matheus/.gaussian/g09/l302.exe)
 NPDir=0 NMtPBC=     1 NCelOv=     1 NCel=       1 NClECP=     1 NCelD=      1
         NCelK=      1 NCelE2=     1 NClLst=     1 CellRange=     0.0.
 One-electron integrals computed using PRISM.
 NBasis=   197 RedAO= T  NBF=   131    66
 NBsUse=   197 1.00D-06 NBFU=   131    66
 Precomputing XC quadrature grid using
 IXCGrd= 2 IRadAn=           5 IRanWt=          -1 IRanGd=           0 AccXCQ= 0.00D+00.
 NRdTot=     427 NPtTot=      123814 NUsed=      126881 NTot=      126913
 NSgBfM=   229   229   229   229   229 NAtAll=     5     5.
 Leave Link  302 at Wed May 13 18:30:21 2020, MaxMem= 1073741824 cpu:       1.0
 (Enter /home/matheus/.gaussian/g09/l303.exe)
 DipDrv:  MaxL=1.
 Leave Link  303 at Wed May 13 18:30:21 2020, MaxMem= 1073741824 cpu:       0.2
 (Enter /home/matheus/.gaussian/g09/l401.exe)
 Harris functional with IExCor=10402 diagonalized for initial guess.
 ExpMin= 2.53D-02 ExpMax= 1.17D+07 ExpMxC= 1.33D+04 IAcc=3 IRadAn=         5 AccDes= 0.00D+00
 HarFok:  IExCor=10402 AccDes= 0.00D+00 IRadAn=         5 IDoV= 1
 ScaDFX=  1.000000  1.000000  1.000000  1.000000
 FoFCou: FMM=F IPFlag=           0 FMFlag=      100000 FMFlg1=           0
         NFxFlg=           0 DoJE=T BraDBF=F KetDBF=T FulRan=T
         Omega=  0.000000  0.000000  1.000000  0.000000  0.000000 ICntrl=     500 IOpCl=  0
         NMat0=    1 NMatS0=    1 NMatT0=    0 NMatD0=    1 NMtDS0=    0 NMtDT0=    0
         I1Cent=           4 NGrid=           0.
 Petite list used in FoFCou.
 Harris En= -147.162433390453    
 Initial guess orbital symmetries:
       Occupied  (A') (A') (A') (A') (A') (A') (A") (A') (A")
       Virtual   (A') (A') (A') (A") (A') (A') (A') (A') (A") (A')
                 (A") (A') (A') (A') (A") (A') (A') (A') (A") (A')
                 (A') (A") (A') (A') (A') (A') (A") (A') (A") (A')
                 (A') (A') (A') (A") (A') (A") (A') (A") (A") (A')
                 (A') (A') (A") (A') (A') (A") (A') (A") (A') (A')
                 (A') (A") (A') (A') (A") (A') (A") (A") (A') (A')
                 (A') (A") (A') (A') (A") (A') (A') (A") (A") (A')
                 (A') (A') (A") (A') (A") (A') (A') (A") (A') (A")
                 (A') (A') (A') (A') (A") (A') (A') (A") (A") (A')
                 (A') (A") (A') (A') (A') (A") (A') (A') (A") (A')
                 (A") (A") (A') (A') (A') (A') (A") (A') (A") (A')
                 (A') (A') (A') (A') (A") (A") (A') (A") (A') (A")
                 (A") (A") (A') (A') (A') (A") (A") (A') (A') (A')
                 (A") (A') (A") (A") (A') (A') (A') (A') (A') (A')
                 (A') (A') (A") (A") (A') (A') (A') (A") (A') (A')
                 (A") (A') (A") (A') (A") (A') (A") (A") (A") (A")
                 (A") (A') (A') (A') (A') (A") (A') (A') (A') (A')
                 (A') (A') (A') (A') (A') (A") (A') (A') (A") (A')
                 (A") (A') (A') (A') (A") (A') (A') (A')
 The electronic state of the initial guess is 1-A'.
 Leave Link  401 at Wed May 13 18:30:21 2020, MaxMem= 1073741824 cpu:       3.4
 (Enter /home/matheus/.gaussian/g09/l502.exe)
 Closed shell SCF:
 Requested convergence on RMS density matrix=1.00D-08 within 128 cycles.
 Requested convergence on MAX density matrix=1.00D-06.
 Requested convergence on             energy=1.00D-06.
 No special actions if energy rises.
 Using DIIS extrapolation, IDIIS=  1040.
 Integral symmetry usage will be decided dynamically.
       126823 words used for storage of precomputed grid.
 IEnd=      305835 IEndB=      305835 NGot=  1073741824 MDV=  1073505300
 LenX=  1073505300 LenY=  1073452418
 Fock matrices will be formed incrementally for  20 cycles.

 Cycle   1  Pass 1  IDiag  1:
 FoFJK:  IHMeth= 1 ICntrl=     0 DoSepK=T KAlg= 1 I1Cent= 0 FoldK=F
 FoFCou: FMM=F IPFlag=           0 FMFlag=      100000 FMFlg1=           0
         NFxFlg=           0 DoJE=T BraDBF=F KetDBF=F FulRan=T
         Omega=  0.000000  0.000000  1.000000  0.000000  0.000000 ICntrl=     500 IOpCl=  0
         NMat0=    1 NMatS0=    1 NMatT0=    0 NMatD0=    1 NMtDS0=    0 NMtDT0=    0
         I1Cent=           0 NGrid=           0.
 Petite list used in FoFCou.
 E= -151.303322058176    
 DIIS: error= 9.56D-03 at cycle   1 NSaved=   1.
 NSaved= 1 IEnMin= 1 EnMin= -151.303322058176     IErMin= 1 ErrMin= 9.56D-03
 ErrMax= 9.56D-03 EMaxC= 1.00D-01 BMatC= 2.07D-02 BMatP= 2.07D-02
 IDIUse=3 WtCom= 9.04D-01 WtEn= 9.56D-02
 Coeff-Com:  0.100D+01
 Coeff-En:   0.100D+01
 Coeff:      0.100D+01
 Gap=     0.462 Goal=   None    Shift=    0.000
 GapD=    0.462 DampG=2.000 DampE=1.000 DampFc=2.0000 IDamp=-1.
 RMSDP=8.43D-04 MaxDP=3.04D-02              OVMax= 5.53D-02

 Cycle   2  Pass 1  IDiag  1:
 RMSU=  5.96D-04    CP:  1.00D+00
 FoFJK:  IHMeth= 1 ICntrl=     0 DoSepK=T KAlg= 1 I1Cent= 0 FoldK=F
 E= -151.320280707494     Delta-E=       -0.016958649319 Rises=F Damp=F
 DIIS: error= 4.93D-03 at cycle   2 NSaved=   2.
 NSaved= 2 IEnMin= 2 EnMin= -151.320280707494     IErMin= 2 ErrMin= 4.93D-03
 ErrMax= 4.93D-03 EMaxC= 1.00D-01 BMatC= 5.01D-03 BMatP= 2.07D-02
 IDIUse=3 WtCom= 9.51D-01 WtEn= 4.93D-02
 Coeff-Com:  0.280D+00 0.720D+00
 Coeff-En:   0.000D+00 0.100D+01
 Coeff:      0.266D+00 0.734D+00
 Gap=     0.423 Goal=   None    Shift=    0.000
 RMSDP=2.11D-04 MaxDP=7.05D-03 DE=-1.70D-02 OVMax= 1.45D-02

 Cycle   3  Pass 1  IDiag  1:
 RMSU=  1.49D-04    CP:  1.00D+00  1.01D+00
 FoFJK:  IHMeth= 1 ICntrl=     0 DoSepK=T KAlg= 1 I1Cent= 0 FoldK=F
 E= -151.323154972760     Delta-E=       -0.002874265265 Rises=F Damp=F
 DIIS: error= 1.77D-03 at cycle   3 NSaved=   3.
 NSaved= 3 IEnMin= 3 EnMin= -151.323154972760     IErMin= 3 ErrMin= 1.77D-03
 ErrMax= 1.77D-03 EMaxC= 1.00D-01 BMatC= 5.84D-04 BMatP= 5.01D-03
 IDIUse=3 WtCom= 9.82D-01 WtEn= 1.77D-02
 Coeff-Com:  0.980D-02 0.239D+00 0.751D+00
 Coeff-En:   0.000D+00 0.000D+00 0.100D+01
 Coeff:      0.963D-02 0.235D+00 0.756D+00
 Gap=     0.432 Goal=   None    Shift=    0.000
 RMSDP=1.09D-04 MaxDP=4.06D-03 DE=-2.87D-03 OVMax= 7.75D-03

 Cycle   4  Pass 1  IDiag  1:
 RMSU=  5.33D-05    CP:  1.00D+00  1.10D+00  9.71D-01
 FoFJK:  IHMeth= 1 ICntrl=     0 DoSepK=T KAlg= 1 I1Cent= 0 FoldK=F
 E= -151.323602971810     Delta-E=       -0.000447999050 Rises=F Damp=F
 DIIS: error= 2.76D-04 at cycle   4 NSaved=   4.
 NSaved= 4 IEnMin= 4 EnMin= -151.323602971810     IErMin= 4 ErrMin= 2.76D-04
 ErrMax= 2.76D-04 EMaxC= 1.00D-01 BMatC= 2.54D-05 BMatP= 5.84D-04
 IDIUse=3 WtCom= 9.97D-01 WtEn= 2.76D-03
 Coeff-Com: -0.209D-01-0.304D-01 0.110D+00 0.941D+00
 Coeff-En:   0.000D+00 0.000D+00 0.000D+00 0.100D+01
 Coeff:     -0.208D-01-0.303D-01 0.110D+00 0.941D+00
 Gap=     0.430 Goal=   None    Shift=    0.000
 RMSDP=3.94D-05 MaxDP=1.59D-03 DE=-4.48D-04 OVMax= 1.95D-03

 Cycle   5  Pass 1  IDiag  1:
 RMSU=  9.04D-06    CP:  1.00D+00  1.13D+00  1.09D+00  1.18D+00
 FoFJK:  IHMeth= 1 ICntrl=     0 DoSepK=T KAlg= 1 I1Cent= 0 FoldK=F
 E= -151.323631106819     Delta-E=       -0.000028135009 Rises=F Damp=F
 DIIS: error= 4.50D-05 at cycle   5 NSaved=   5.
 NSaved= 5 IEnMin= 5 EnMin= -151.323631106819     IErMin= 5 ErrMin= 4.50D-05
 ErrMax= 4.50D-05 EMaxC= 1.00D-01 BMatC= 4.11D-07 BMatP= 2.54D-05
 IDIUse=1 WtCom= 1.00D+00 WtEn= 0.00D+00
 Coeff-Com:  0.535D-03-0.722D-02-0.347D-01-0.453D-01 0.109D+01
 Coeff:      0.535D-03-0.722D-02-0.347D-01-0.453D-01 0.109D+01
 Gap=     0.430 Goal=   None    Shift=    0.000
 RMSDP=1.03D-05 MaxDP=4.16D-04 DE=-2.81D-05 OVMax= 6.04D-04

 Cycle   6  Pass 1  IDiag  1:
 RMSU=  1.62D-06    CP:  1.00D+00  1.13D+00  1.11D+00  1.27D+00  1.26D+00
 FoFJK:  IHMeth= 1 ICntrl=     0 DoSepK=T KAlg= 1 I1Cent= 0 FoldK=F
 E= -151.323632290046     Delta-E=       -0.000001183227 Rises=F Damp=F
 DIIS: error= 1.30D-05 at cycle   6 NSaved=   6.
 NSaved= 6 IEnMin= 6 EnMin= -151.323632290046     IErMin= 6 ErrMin= 1.30D-05
 ErrMax= 1.30D-05 EMaxC= 1.00D-01 BMatC= 1.94D-08 BMatP= 4.11D-07
 IDIUse=1 WtCom= 1.00D+00 WtEn= 0.00D+00
 Coeff-Com:  0.454D-03 0.101D-02-0.253D-02-0.257D-01-0.731D-02 0.103D+01
 Coeff:      0.454D-03 0.101D-02-0.253D-02-0.257D-01-0.731D-02 0.103D+01
 Gap=     0.430 Goal=   None    Shift=    0.000
 RMSDP=1.51D-06 MaxDP=4.81D-05 DE=-1.18D-06 OVMax= 8.80D-05

 Cycle   7  Pass 1  IDiag  1:
 RMSU=  3.86D-07    CP:  1.00D+00  1.13D+00  1.11D+00  1.28D+00  1.30D+00
                    CP:  1.29D+00
 FoFJK:  IHMeth= 1 ICntrl=     0 DoSepK=T KAlg= 1 I1Cent= 0 FoldK=F
 E= -151.323632336634     Delta-E=       -0.000000046588 Rises=F Damp=F
 DIIS: error= 3.25D-06 at cycle   7 NSaved=   7.
 NSaved= 7 IEnMin= 7 EnMin= -151.323632336634     IErMin= 7 ErrMin= 3.25D-06
 ErrMax= 3.25D-06 EMaxC= 1.00D-01 BMatC= 2.21D-09 BMatP= 1.94D-08
 IDIUse=1 WtCom= 1.00D+00 WtEn= 0.00D+00
 Coeff-Com:  0.416D-04 0.489D-03 0.114D-02-0.167D-02-0.496D-01 0.758D-01
 Coeff-Com:  0.974D+00
 Coeff:      0.416D-04 0.489D-03 0.114D-02-0.167D-02-0.496D-01 0.758D-01
 Coeff:      0.974D+00
 Gap=     0.430 Goal=   None    Shift=    0.000
 RMSDP=3.13D-07 MaxDP=7.99D-06 DE=-4.66D-08 OVMax= 3.18D-05

 Cycle   8  Pass 1  IDiag  1:
 RMSU=  1.43D-07    CP:  1.00D+00  1.13D+00  1.11D+00  1.28D+00  1.30D+00
                    CP:  1.37D+00  1.12D+00
 FoFJK:  IHMeth= 1 ICntrl=     0 DoSepK=T KAlg= 1 I1Cent= 0 FoldK=F
 E= -151.323632339661     Delta-E=       -0.000000003027 Rises=F Damp=F
 DIIS: error= 2.95D-06 at cycle   8 NSaved=   8.
 NSaved= 8 IEnMin= 8 EnMin= -151.323632339661     IErMin= 8 ErrMin= 2.95D-06
 ErrMax= 2.95D-06 EMaxC= 1.00D-01 BMatC= 1.88D-09 BMatP= 2.21D-09
 IDIUse=1 WtCom= 1.00D+00 WtEn= 0.00D+00
 Coeff-Com: -0.253D-04 0.172D-03 0.870D-03 0.181D-02-0.255D-01-0.855D-01
 Coeff-Com:  0.563D+00 0.545D+00
 Coeff:     -0.253D-04 0.172D-03 0.870D-03 0.181D-02-0.255D-01-0.855D-01
 Coeff:      0.563D+00 0.545D+00
 Gap=     0.430 Goal=   None    Shift=    0.000
 RMSDP=1.15D-07 MaxDP=3.55D-06 DE=-3.03D-09 OVMax= 1.10D-05

 Cycle   9  Pass 1  IDiag  1:
 RMSU=  5.91D-08    CP:  1.00D+00  1.13D+00  1.11D+00  1.28D+00  1.30D+00
                    CP:  1.39D+00  1.22D+00  8.21D-01
 FoFJK:  IHMeth= 1 ICntrl=     0 DoSepK=T KAlg= 1 I1Cent= 0 FoldK=F
 E= -151.323632340964     Delta-E=       -0.000000001303 Rises=F Damp=F
 DIIS: error= 4.14D-07 at cycle   9 NSaved=   9.
 NSaved= 9 IEnMin= 9 EnMin= -151.323632340964     IErMin= 9 ErrMin= 4.14D-07
 ErrMax= 4.14D-07 EMaxC= 1.00D-01 BMatC= 1.90D-11 BMatP= 1.88D-09
 IDIUse=1 WtCom= 1.00D+00 WtEn= 0.00D+00
 Coeff-Com:  0.251D-05-0.392D-04-0.251D-03-0.315D-03 0.898D-02 0.220D-02
 Coeff-Com: -0.168D+00-0.827D-01 0.124D+01
 Coeff:      0.251D-05-0.392D-04-0.251D-03-0.315D-03 0.898D-02 0.220D-02
 Coeff:     -0.168D+00-0.827D-01 0.124D+01
 Gap=     0.430 Goal=   None    Shift=    0.000
 RMSDP=5.32D-08 MaxDP=1.44D-06 DE=-1.30D-09 OVMax= 4.45D-06

 Cycle  10  Pass 1  IDiag  1:
 RMSU=  1.18D-08    CP:  1.00D+00  1.13D+00  1.11D+00  1.28D+00  1.30D+00
                    CP:  1.39D+00  1.25D+00  9.52D-01  1.30D+00
 FoFJK:  IHMeth= 1 ICntrl=     0 DoSepK=T KAlg= 1 I1Cent= 0 FoldK=F
 E= -151.323632341024     Delta-E=       -0.000000000060 Rises=F Damp=F
 DIIS: error= 5.08D-08 at cycle  10 NSaved=  10.
 NSaved=10 IEnMin=10 EnMin= -151.323632341024     IErMin=10 ErrMin= 5.08D-08
 ErrMax= 5.08D-08 EMaxC= 1.00D-01 BMatC= 3.29D-13 BMatP= 1.90D-11
 IDIUse=1 WtCom= 1.00D+00 WtEn= 0.00D+00
 Coeff-Com: -0.845D-07 0.666D-05 0.399D-04-0.915D-06-0.140D-02 0.472D-03
 Coeff-Com:  0.326D-01 0.104D-01-0.340D+00 0.130D+01
 Coeff:     -0.845D-07 0.666D-05 0.399D-04-0.915D-06-0.140D-02 0.472D-03
 Coeff:      0.326D-01 0.104D-01-0.340D+00 0.130D+01
 Gap=     0.430 Goal=   None    Shift=    0.000
 RMSDP=7.79D-09 MaxDP=1.90D-07 DE=-6.00D-11 OVMax= 6.10D-07

 SCF Done:  E(RLC-B+HF-LYP) =  -151.323632341     A.U. after   10 cycles
             Convg  =    0.7787D-08             -V/T =  2.0058
 KE= 1.504567891136D+02 PE=-4.313901608091D+02 EE= 9.300912045996D+01
 Leave Link  502 at Wed May 13 18:30:54 2020, MaxMem= 1073741824 cpu:     264.2
 (Enter /home/matheus/.gaussian/g09/l601.exe)
 Copying SCF densities to generalized density rwf, IOpCl= 0 IROHF=0.

 **********************************************************************

            Population analysis using the SCF density.

 **********************************************************************

 Orbital symmetries:
       Occupied  (A') (A') (A') (A') (A') (A') (A") (A') (A")
       Virtual   (A') (A') (A') (A") (A') (A') (A') (A') (A') (A")
                 (A') (A") (A') (A') (A") (A') (A') (A') (A") (A')
                 (A') (A") (A') (A') (A') (A') (A") (A') (A") (A')
                 (A') (A') (A') (A") (A') (A") (A') (A') (A") (A")
                 (A') (A') (A") (A') (A") (A') (A') (A") (A') (A')
                 (A') (A") (A') (A') (A") (A') (A") (A') (A") (A')
                 (A') (A") (A') (A') (A") (A') (A') (A") (A") (A')
                 (A') (A') (A') (A") (A") (A') (A') (A") (A') (A')
                 (A") (A') (A') (A') (A") (A') (A') (A") (A") (A')
                 (A') (A') (A") (A') (A') (A") (A') (A") (A') (A')
                 (A") (A") (A') (A') (A') (A') (A") (A') (A") (A')
                 (A') (A') (A') (A') (A") (A') (A") (A") (A') (A")
                 (A") (A') (A") (A') (A') (A") (A") (A') (A') (A')
                 (A") (A') (A") (A") (A') (A') (A') (A') (A') (A')
                 (A') (A') (A") (A") (A') (A') (A') (A") (A') (A')
                 (A") (A') (A") (A') (A") (A') (A") (A") (A") (A")
                 (A") (A') (A') (A') (A') (A") (A') (A') (A') (A')
                 (A') (A') (A') (A') (A') (A") (A') (A') (A") (A')
                 (A") (A') (A') (A') (A") (A') (A') (A')
 The electronic state is 1-A'.
 Alpha  occ. eigenvalues --  -19.07181 -19.07179  -1.28265  -1.06587  -0.68504
 Alpha  occ. eigenvalues --   -0.65153  -0.56166  -0.49554  -0.40673
 Alpha virt. eigenvalues --    0.02336   0.03048   0.06756   0.08684   0.09835
 Alpha virt. eigenvalues --    0.10220   0.10554   0.13211   0.15808   0.16170
 Alpha virt. eigenvalues --    0.18317   0.18699   0.20248   0.22465   0.25820
 Alpha virt. eigenvalues --    0.26293   0.28521   0.30006   0.30464   0.32654
 Alpha virt. eigenvalues --    0.36279   0.37166   0.38119   0.38813   0.41320
 Alpha virt. eigenvalues --    0.42588   0.43097   0.47139   0.48190   0.48980
 Alpha virt. eigenvalues --    0.53813   0.57069   0.60666   0.65811   0.67669
 Alpha virt. eigenvalues --    0.68724   0.72597   0.74727   0.75150   0.76033
 Alpha virt. eigenvalues --    0.77933   0.82353   0.84450   0.86257   0.89963
 Alpha virt. eigenvalues --    0.90048   0.91811   0.94497   0.96666   0.99114
 Alpha virt. eigenvalues --    1.00646   1.03664   1.04651   1.09269   1.13102
 Alpha virt. eigenvalues --    1.13394   1.14676   1.16322   1.17622   1.23949
 Alpha virt. eigenvalues --    1.25859   1.28814   1.31879   1.32471   1.33308
 Alpha virt. eigenvalues --    1.33494   1.34696   1.36263   1.36582   1.45957
 Alpha virt. eigenvalues --    1.48402   1.50594   1.53428   1.53585   1.57234
 Alpha virt. eigenvalues --    1.58353   1.65358   1.65979   1.72620   1.79894
 Alpha virt. eigenvalues --    1.80940   1.84426   1.90189   1.99389   2.01753
 Alpha virt. eigenvalues --    2.02660   2.08304   2.15440   2.17710   2.20601
 Alpha virt. eigenvalues --    2.27076   2.30931   2.31682   2.39088   2.44769
 Alpha virt. eigenvalues --    2.50242   2.56688   2.59184   2.59234   2.68265
 Alpha virt. eigenvalues --    2.70071   2.71557   2.74575   2.87177   2.95354
 Alpha virt. eigenvalues --    3.07925   3.10752   3.14026   3.25648   3.30061
 Alpha virt. eigenvalues --    3.39772   3.49766   3.61175   3.72643   3.77390
 Alpha virt. eigenvalues --    3.79106   3.79985   3.81768   3.82338   3.83230
 Alpha virt. eigenvalues --    3.87963   3.90254   3.91236   3.91993   3.94576
 Alpha virt. eigenvalues --    3.97033   4.08138   4.08179   4.11477   4.13264
 Alpha virt. eigenvalues --    4.14782   4.21651   4.25074   4.30177   4.34103
 Alpha virt. eigenvalues --    4.42262   4.46782   4.58901   4.73877   4.91417
 Alpha virt. eigenvalues --    5.04721   5.06399   5.08913   5.10841   5.39744
 Alpha virt. eigenvalues --    5.44247   5.84108   5.99345   6.09692   6.15637
 Alpha virt. eigenvalues --    6.31625   6.38874   6.46907   6.48234   6.70614
 Alpha virt. eigenvalues --    6.73131   6.75222   6.81092   6.88198   6.91221
 Alpha virt. eigenvalues --    6.92441   6.94209   6.95142   6.98837   7.02105
 Alpha virt. eigenvalues --    7.21818   7.25959   7.40081   7.60897   7.83825
 Alpha virt. eigenvalues --    8.11967   8.14641  10.89742  14.09129  14.49201
 Alpha virt. eigenvalues --   14.83081  14.88240  15.10904  29.02842  29.03484
 Alpha virt. eigenvalues --   29.07699  29.13803  29.23161  49.11084 148.31082
 Alpha virt. eigenvalues --  148.38813 148.72029 752.52761
          Condensed to atoms (all electrons):
              1          2          3          4          5
     1  O    8.191917  -0.162060   0.175618   0.000193  -0.005169
     2  O   -0.162060   8.149913   0.013983   0.222527   0.001401
     3  H    0.175618   0.013983   0.605616   0.004380   0.000909
     4  H    0.000193   0.222527   0.004380   0.557522  -0.004736
     5  Kr  -0.005169   0.001401   0.000909  -0.004736   0.000939
 Mulliken atomic charges:
              1
     1  O   -0.200499
     2  O   -0.225765
     3  H    0.199494
     4  H    0.220114
     5  Kr   0.006656
 Sum of Mulliken atomic charges =   0.00000
 Mulliken charges with hydrogens summed into heavy atoms:
              1
     1  O   -0.001005
     2  O   -0.005651
     5  Kr   0.006656
 Sum of Mulliken charges with hydrogens summed into heavy atoms =   0.00000
          Condensed to fragments (all electrons):
     1      -0.006656
     2       0.006656
 Electronic spatial extent (au):  <R**2>=            325.1337
 Charge=              0.0000 electrons
 Dipole moment (field-independent basis, Debye):
    X=              0.0001    Y=              0.0003    Z=              0.0000  Tot=              0.0003
 Quadrupole moment (field-independent basis, Debye-Ang):
   XX=            -10.8480   YY=             -8.7289   ZZ=            -13.3417
   XY=             -4.2142   XZ=              0.0000   YZ=              0.0000
 Traceless Quadrupole moment (field-independent basis, Debye-Ang):
   XX=              0.1248   YY=              2.2440   ZZ=             -2.3688
   XY=             -4.2142   XZ=              0.0000   YZ=              0.0000
 Octapole moment (field-independent basis, Debye-Ang**2):
  XXX=              0.0004  YYY=             52.3751  ZZZ=              0.0000  XYY=             16.8565
  XXY=             21.6965  XXZ=              0.0000  XZZ=              0.0005  YZZ=             26.6843
  YYZ=              0.0000  XYZ=              0.0000
 Hexadecapole moment (field-independent basis, Debye-Ang**3):
 XXXX=            -46.8628 YYYY=           -220.0198 ZZZZ=            -12.0615 XXXY=             -3.0819
 XXXZ=              0.0000 YYYX=            -52.3004 YYYZ=              0.0000 ZZZX=              0.0000
 ZZZY=              0.0000 XXYY=            -50.7331 XXZZ=            -11.8734 YYZZ=            -57.7815
 XXYZ=              0.0000 YYXZ=              0.0000 ZZXY=              0.7586
 N-N= 3.660061889452D+01 E-N=-4.313901603647D+02  KE= 1.504567891136D+02
 Symmetry A'   KE= 1.406795563539D+02
 Symmetry A"   KE= 9.777232759724D+00
 No NMR shielding tensors so no spin-rotation constants.
 Leave Link  601 at Wed May 13 18:30:54 2020, MaxMem= 1073741824 cpu:       1.1
 (Enter /home/matheus/.gaussian/g09/l122.exe)
 Counterpoise: doing DCBS calculation for fragment   2 NewBq=T
 Leave Link  122 at Wed May 13 18:30:54 2020, MaxMem= 1073741824 cpu:       0.0
 (Enter /home/matheus/.gaussian/g09/l301.exe)
 Basis read from rwf:  (5D, 7F)
 No pseudopotential information found on rwf file.
 There are   131 symmetry adapted basis functions of A'  symmetry.
 There are    66 symmetry adapted basis functions of A"  symmetry.
 Integral buffers will be    131072 words long.
 Raffenetti 2 integral format.
 Two-electron integral symmetry is turned on.
   197 basis functions,   415 primitive gaussians,   229 cartesian basis functions
    18 alpha electrons       18 beta electrons
       nuclear repulsion energy         0.0000000000 Hartrees.
 IExCor=10402 DFT=T Ex=LC-B+HF Corr=LYP ExCW=0 ScaHFX=  1.000000
 ScaDFX=  1.000000  1.000000  1.000000  1.000000 ScalE2=  1.000000  1.000000
 IRadAn=      5 IRanWt=     -1 IRanGd=            0 ICorTp=0
  HFx wShort=  0.000000 wLong=  0.470000 cFull=  0.000000 cShort=  0.000000 cLong=  1.000000
  DFx wShort=  0.000000 wLong=  0.470000 cFull=  0.000000 cShort=  0.000000 cLong=  1.000000
 NAtoms=    5 NActive=    5 NUniq=    5 SFac= 1.00D+00 NAtFMM=   60 NAOKFM=F Big=F
 No density basis found on file   718.
 Leave Link  301 at Wed May 13 18:30:54 2020, MaxMem= 1073741824 cpu:       0.3
 (Enter /home/matheus/.gaussian/g09/l302.exe)
 NPDir=0 NMtPBC=     1 NCelOv=     1 NCel=       1 NClECP=     1 NCelD=      1
         NCelK=      1 NCelE2=     1 NClLst=     1 CellRange=     0.0.
 One-electron integrals computed using PRISM.
 NBasis=   197 RedAO= T  NBF=   131    66
 NBsUse=   197 1.00D-06 NBFU=   131    66
 Precomputing XC quadrature grid using
 IXCGrd= 2 IRadAn=           5 IRanWt=          -1 IRanGd=           0 AccXCQ= 0.00D+00.
 NRdTot=     427 NPtTot=      123814 NUsed=      126881 NTot=      126913
 NSgBfM=   229   229   229   229   229 NAtAll=     5     5.
 Leave Link  302 at Wed May 13 18:30:55 2020, MaxMem= 1073741824 cpu:       1.1
 (Enter /home/matheus/.gaussian/g09/l303.exe)
 DipDrv:  MaxL=1.
 Leave Link  303 at Wed May 13 18:30:55 2020, MaxMem= 1073741824 cpu:       0.2
 (Enter /home/matheus/.gaussian/g09/l401.exe)
 Harris functional with IExCor=10402 diagonalized for initial guess.
 ExpMin= 2.53D-02 ExpMax= 1.17D+07 ExpMxC= 1.33D+04 IAcc=3 IRadAn=         5 AccDes= 0.00D+00
 HarFok:  IExCor=10402 AccDes= 0.00D+00 IRadAn=         5 IDoV= 1
 ScaDFX=  1.000000  1.000000  1.000000  1.000000
 FoFCou: FMM=F IPFlag=           0 FMFlag=      100000 FMFlg1=           0
         NFxFlg=           0 DoJE=T BraDBF=F KetDBF=T FulRan=T
         Omega=  0.000000  0.000000  1.000000  0.000000  0.000000 ICntrl=     500 IOpCl=  0
         NMat0=    1 NMatS0=    1 NMatT0=    0 NMatD0=    1 NMtDS0=    0 NMtDT0=    0
         I1Cent=           4 NGrid=           0.
 Petite list used in FoFCou.
 Harris En= -2744.51538821064    
 Initial guess orbital symmetries:
       Occupied  (A') (A') (A') (A') (A") (A') (A') (A') (A") (A')
                 (A') (A") (A') (A") (A') (A') (A') (A")
       Virtual   (A') (A') (A') (A") (A') (A') (A') (A") (A') (A')
                 (A") (A') (A') (A") (A') (A") (A') (A') (A') (A')
                 (A") (A') (A') (A") (A') (A') (A') (A") (A') (A')
                 (A") (A') (A') (A") (A') (A') (A") (A') (A') (A")
                 (A') (A") (A") (A') (A') (A') (A") (A') (A') (A")
                 (A') (A') (A") (A") (A') (A") (A') (A') (A") (A')
                 (A') (A") (A') (A') (A") (A') (A') (A') (A') (A")
                 (A') (A') (A') (A") (A") (A') (A') (A') (A') (A")
                 (A') (A") (A') (A') (A") (A') (A") (A') (A') (A")
                 (A") (A') (A") (A') (A") (A') (A") (A') (A") (A')
                 (A") (A') (A") (A') (A') (A") (A') (A') (A') (A")
                 (A') (A") (A') (A') (A') (A') (A") (A") (A') (A')
                 (A') (A') (A') (A") (A') (A') (A") (A') (A') (A")
                 (A') (A") (A') (A") (A') (A') (A') (A") (A") (A')
                 (A') (A') (A') (A') (A') (A") (A') (A") (A') (A')
                 (A") (A") (A') (A") (A") (A') (A') (A') (A') (A')
                 (A') (A") (A") (A") (A') (A') (A") (A') (A') (A")
                 (A') (A") (A') (A') (A') (A') (A') (A') (A')
 The electronic state of the initial guess is 1-A'.
 Leave Link  401 at Wed May 13 18:30:55 2020, MaxMem= 1073741824 cpu:       2.9
 (Enter /home/matheus/.gaussian/g09/l502.exe)
 Closed shell SCF:
 Requested convergence on RMS density matrix=1.00D-08 within 128 cycles.
 Requested convergence on MAX density matrix=1.00D-06.
 Requested convergence on             energy=1.00D-06.
 No special actions if energy rises.
 Using DIIS extrapolation, IDIIS=  1040.
 Integral symmetry usage will be decided dynamically.
       126823 words used for storage of precomputed grid.
 IEnd=      305835 IEndB=      305835 NGot=  1073741824 MDV=  1073505300
 LenX=  1073505300 LenY=  1073452418
 Fock matrices will be formed incrementally for  20 cycles.

 Cycle   1  Pass 1  IDiag  1:
 FoFJK:  IHMeth= 1 ICntrl=     0 DoSepK=T KAlg= 1 I1Cent= 0 FoldK=F
 FoFCou: FMM=F IPFlag=           0 FMFlag=      100000 FMFlg1=           0
         NFxFlg=           0 DoJE=T BraDBF=F KetDBF=F FulRan=T
         Omega=  0.000000  0.000000  1.000000  0.000000  0.000000 ICntrl=     500 IOpCl=  0
         NMat0=    1 NMatS0=    1 NMatT0=    0 NMatD0=    1 NMtDS0=    0 NMtDT0=    0
         I1Cent=           0 NGrid=           0.
 Petite list used in FoFCou.
 E= -2753.33348927322    
 DIIS: error= 3.05D-02 at cycle   1 NSaved=   1.
 NSaved= 1 IEnMin= 1 EnMin= -2753.33348927322     IErMin= 1 ErrMin= 3.05D-02
 ErrMax= 3.05D-02 EMaxC= 1.00D-01 BMatC= 2.61D-01 BMatP= 2.61D-01
 IDIUse=3 WtCom= 6.95D-01 WtEn= 3.05D-01
 Coeff-Com:  0.100D+01
 Coeff-En:   0.100D+01
 Coeff:      0.100D+01
 Gap=     0.617 Goal=   None    Shift=    0.000
 GapD=    0.617 DampG=2.000 DampE=0.500 DampFc=1.0000 IDamp=-1.
 RMSDP=2.51D-03 MaxDP=1.52D-01              OVMax= 1.05D-01

 Cycle   2  Pass 1  IDiag  1:
 RMSU=  1.72D-03    CP:  1.03D+00
 FoFJK:  IHMeth= 1 ICntrl=     0 DoSepK=T KAlg= 1 I1Cent= 0 FoldK=F
 E= -2753.38946208700     Delta-E=       -0.055972813776 Rises=F Damp=F
 DIIS: error= 1.60D-02 at cycle   2 NSaved=   2.
 NSaved= 2 IEnMin= 2 EnMin= -2753.38946208700     IErMin= 2 ErrMin= 1.60D-02
 ErrMax= 1.60D-02 EMaxC= 1.00D-01 BMatC= 8.81D-02 BMatP= 2.61D-01
 IDIUse=3 WtCom= 8.40D-01 WtEn= 1.60D-01
 Coeff-Com:  0.365D+00 0.635D+00
 Coeff-En:   0.130D+00 0.870D+00
 Coeff:      0.327D+00 0.673D+00
 Gap=     0.537 Goal=   None    Shift=    0.000
 RMSDP=9.92D-04 MaxDP=6.12D-02 DE=-5.60D-02 OVMax= 3.15D-02

 Cycle   3  Pass 1  IDiag  1:
 RMSU=  1.76D-04    CP:  1.02D+00  6.17D-01
 FoFJK:  IHMeth= 1 ICntrl=     0 DoSepK=T KAlg= 1 I1Cent= 0 FoldK=F
 E= -2753.41748082928     Delta-E=       -0.028018742278 Rises=F Damp=F
 DIIS: error= 1.40D-03 at cycle   3 NSaved=   3.
 NSaved= 3 IEnMin= 3 EnMin= -2753.41748082928     IErMin= 3 ErrMin= 1.40D-03
 ErrMax= 1.40D-03 EMaxC= 1.00D-01 BMatC= 6.45D-04 BMatP= 8.81D-02
 IDIUse=3 WtCom= 9.86D-01 WtEn= 1.40D-02
 Coeff-Com: -0.644D-02 0.667D-01 0.940D+00
 Coeff-En:   0.000D+00 0.000D+00 0.100D+01
 Coeff:     -0.635D-02 0.657D-01 0.941D+00
 Gap=     0.537 Goal=   None    Shift=    0.000
 RMSDP=9.98D-05 MaxDP=5.32D-03 DE=-2.80D-02 OVMax= 3.37D-03

 Cycle   4  Pass 1  IDiag  1:
 RMSU=  3.75D-05    CP:  1.02D+00  6.48D-01  1.13D+00
 FoFJK:  IHMeth= 1 ICntrl=     0 DoSepK=T KAlg= 1 I1Cent= 0 FoldK=F
 E= -2753.41767952285     Delta-E=       -0.000198693574 Rises=F Damp=F
 DIIS: error= 8.50D-05 at cycle   4 NSaved=   4.
 NSaved= 4 IEnMin= 4 EnMin= -2753.41767952285     IErMin= 4 ErrMin= 8.50D-05
 ErrMax= 8.50D-05 EMaxC= 1.00D-01 BMatC= 1.91D-06 BMatP= 6.45D-04
 IDIUse=1 WtCom= 1.00D+00 WtEn= 0.00D+00
 Coeff-Com: -0.144D-02 0.514D-05-0.561D-02 0.101D+01
 Coeff:     -0.144D-02 0.514D-05-0.561D-02 0.101D+01
 Gap=     0.538 Goal=   None    Shift=    0.000
 RMSDP=1.42D-05 MaxDP=5.46D-04 DE=-1.99D-04 OVMax= 9.17D-04

 Cycle   5  Pass 1  IDiag  1:
 RMSU=  6.35D-06    CP:  1.02D+00  6.50D-01  1.17D+00  1.05D+00
 FoFJK:  IHMeth= 1 ICntrl=     0 DoSepK=T KAlg= 1 I1Cent= 0 FoldK=F
 E= -2753.41768342116     Delta-E=       -0.000003898310 Rises=F Damp=F
 DIIS: error= 2.63D-05 at cycle   5 NSaved=   5.
 NSaved= 5 IEnMin= 5 EnMin= -2753.41768342116     IErMin= 5 ErrMin= 2.63D-05
 ErrMax= 2.63D-05 EMaxC= 1.00D-01 BMatC= 1.59D-07 BMatP= 1.91D-06
 IDIUse=1 WtCom= 1.00D+00 WtEn= 0.00D+00
 Coeff-Com: -0.531D-04-0.411D-02-0.330D-01-0.724D-01 0.111D+01
 Coeff:     -0.531D-04-0.411D-02-0.330D-01-0.724D-01 0.111D+01
 Gap=     0.538 Goal=   None    Shift=    0.000
 RMSDP=4.61D-06 MaxDP=1.86D-04 DE=-3.90D-06 OVMax= 1.98D-04

 Cycle   6  Pass 1  IDiag  1:
 RMSU=  3.88D-07    CP:  1.02D+00  6.50D-01  1.18D+00  1.10D+00  1.15D+00
 FoFJK:  IHMeth= 1 ICntrl=     0 DoSepK=T KAlg= 1 I1Cent= 0 FoldK=F
 E= -2753.41768362949     Delta-E=       -0.000000208330 Rises=F Damp=F
 DIIS: error= 6.04D-07 at cycle   6 NSaved=   6.
 NSaved= 6 IEnMin= 6 EnMin= -2753.41768362949     IErMin= 6 ErrMin= 6.04D-07
 ErrMax= 6.04D-07 EMaxC= 1.00D-01 BMatC= 1.02D-10 BMatP= 1.59D-07
 IDIUse=1 WtCom= 1.00D+00 WtEn= 0.00D+00
 Coeff-Com:  0.719D-05 0.339D-03 0.298D-02-0.385D-03-0.765D-01 0.107D+01
 Coeff:      0.719D-05 0.339D-03 0.298D-02-0.385D-03-0.765D-01 0.107D+01
 Gap=     0.538 Goal=   None    Shift=    0.000
 RMSDP=1.61D-07 MaxDP=5.23D-06 DE=-2.08D-07 OVMax= 6.36D-06

 Cycle   7  Pass 1  IDiag  1:
 RMSU=  2.61D-08    CP:  1.02D+00  6.50D-01  1.19D+00  1.10D+00  1.17D+00
                    CP:  1.17D+00
 FoFJK:  IHMeth= 1 ICntrl=     0 DoSepK=T KAlg= 1 I1Cent= 0 FoldK=F
 E= -2753.41768362957     Delta-E=       -0.000000000078 Rises=F Damp=F
 DIIS: error= 8.85D-08 at cycle   7 NSaved=   7.
 NSaved= 7 IEnMin= 7 EnMin= -2753.41768362957     IErMin= 7 ErrMin= 8.85D-08
 ErrMax= 8.85D-08 EMaxC= 1.00D-01 BMatC= 2.41D-12 BMatP= 1.02D-10
 IDIUse=1 WtCom= 1.00D+00 WtEn= 0.00D+00
 Coeff-Com:  0.487D-06 0.410D-04 0.324D-03 0.867D-03-0.118D-01 0.127D-01
 Coeff-Com:  0.998D+00
 Coeff:      0.487D-06 0.410D-04 0.324D-03 0.867D-03-0.118D-01 0.127D-01
 Coeff:      0.998D+00
 Gap=     0.538 Goal=   None    Shift=    0.000
 RMSDP=1.63D-08 MaxDP=5.83D-07 DE=-7.78D-11 OVMax= 8.43D-07

 Cycle   8  Pass 1  IDiag  1:
 RMSU=  4.83D-09    CP:  1.02D+00  6.50D-01  1.19D+00  1.10D+00  1.17D+00
                    CP:  1.19D+00  1.12D+00
 FoFJK:  IHMeth= 1 ICntrl=     0 DoSepK=T KAlg= 1 I1Cent= 0 FoldK=F
 E= -2753.41768362956     Delta-E=        0.000000000013 Rises=F Damp=F
 DIIS: error= 2.27D-08 at cycle   8 NSaved=   8.
 NSaved= 8 IEnMin= 7 EnMin= -2753.41768362957     IErMin= 8 ErrMin= 2.27D-08
 ErrMax= 2.27D-08 EMaxC= 1.00D-01 BMatC= 2.10D-13 BMatP= 2.41D-12
 IDIUse=1 WtCom= 1.00D+00 WtEn= 0.00D+00
 Coeff-Com: -0.334D-06-0.120D-04-0.114D-03 0.210D-03 0.206D-02-0.574D-01
 Coeff-Com:  0.187D+00 0.868D+00
 Coeff:     -0.334D-06-0.120D-04-0.114D-03 0.210D-03 0.206D-02-0.574D-01
 Coeff:      0.187D+00 0.868D+00
 Gap=     0.538 Goal=   None    Shift=    0.000
 RMSDP=3.06D-09 MaxDP=1.11D-07 DE= 1.27D-11 OVMax= 1.84D-07

 SCF Done:  E(RLC-B+HF-LYP) =  -2753.41768363     A.U. after    8 cycles
             Convg  =    0.3057D-08             -V/T =  2.0015
 KE= 2.749314923006D+03 PE=-6.578525505012D+03 EE= 1.075792898376D+03
 Leave Link  502 at Wed May 13 18:31:21 2020, MaxMem= 1073741824 cpu:     210.3
 (Enter /home/matheus/.gaussian/g09/l601.exe)
 Copying SCF densities to generalized density rwf, IOpCl= 0 IROHF=0.

 **********************************************************************

            Population analysis using the SCF density.

 **********************************************************************

 Orbital symmetries:
       Occupied  (A') (A') (A') (A') (A") (A') (A') (A') (A") (A')
                 (A') (A") (A') (A") (A') (A') (A') (A")
       Virtual   (A') (A') (A') (A") (A') (A') (A') (A") (A') (A')
                 (A") (A') (A') (A") (A') (A') (A") (A') (A') (A')
                 (A") (A') (A') (A") (A') (A') (A') (A") (A') (A')
                 (A") (A') (A') (A") (A') (A') (A") (A') (A') (A")
                 (A') (A") (A") (A') (A') (A') (A") (A') (A') (A")
                 (A') (A') (A") (A") (A') (A') (A") (A') (A") (A')
                 (A') (A') (A") (A') (A") (A') (A') (A') (A') (A")
                 (A') (A') (A') (A") (A") (A') (A') (A') (A') (A")
                 (A') (A") (A') (A') (A") (A') (A") (A') (A') (A")
                 (A") (A') (A") (A') (A") (A') (A") (A') (A") (A')
                 (A") (A') (A") (A') (A') (A") (A') (A') (A') (A")
                 (A') (A") (A') (A') (A') (A') (A") (A") (A') (A')
                 (A') (A') (A') (A") (A') (A') (A") (A') (A') (A")
                 (A') (A") (A') (A") (A') (A') (A') (A") (A") (A')
                 (A') (A') (A') (A') (A') (A") (A') (A") (A') (A')
                 (A") (A") (A') (A") (A") (A') (A') (A') (A') (A')
                 (A') (A") (A") (A") (A') (A') (A") (A') (A') (A")
                 (A') (A") (A') (A') (A') (A') (A') (A') (A')
 The electronic state is 1-A'.
 Alpha  occ. eigenvalues -- -511.24360 -66.71349 -60.39872 -60.39869 -60.39868
 Alpha  occ. eigenvalues --   -9.60493  -7.35947  -7.35945  -7.35945  -3.32283
 Alpha  occ. eigenvalues --   -3.32283  -3.32283  -3.32281  -3.32281  -1.06080
 Alpha  occ. eigenvalues --   -0.51293  -0.51288  -0.51287
 Alpha virt. eigenvalues --    0.02511   0.04617   0.07664   0.09233   0.10107
 Alpha virt. eigenvalues --    0.11615   0.12521   0.13975   0.15939   0.16538
 Alpha virt. eigenvalues --    0.17440   0.19030   0.20343   0.25551   0.26426
 Alpha virt. eigenvalues --    0.27222   0.27651   0.32345   0.33775   0.35299
 Alpha virt. eigenvalues --    0.35481   0.36376   0.37543   0.38687   0.41134
 Alpha virt. eigenvalues --    0.42788   0.42957   0.52962   0.54628   0.57390
 Alpha virt. eigenvalues --    0.61836   0.63863   0.66948   0.67973   0.69996
 Alpha virt. eigenvalues --    0.74394   0.74695   0.76126   0.77830   0.78389
 Alpha virt. eigenvalues --    0.81085   0.81635   0.83402   0.84063   0.85033
 Alpha virt. eigenvalues --    0.86454   0.87931   0.88450   0.91888   0.94219
 Alpha virt. eigenvalues --    0.97635   1.00189   1.00603   1.03146   1.04938
 Alpha virt. eigenvalues --    1.06521   1.08633   1.09266   1.12257   1.14059
 Alpha virt. eigenvalues --    1.15619   1.18821   1.19199   1.25800   1.28055
 Alpha virt. eigenvalues --    1.32510   1.34579   1.41869   1.43572   1.45131
 Alpha virt. eigenvalues --    1.56881   1.60035   1.71546   1.73519   1.76616
 Alpha virt. eigenvalues --    1.82129   1.85059   1.86468   1.88093   2.15969
 Alpha virt. eigenvalues --    2.20837   2.24065   2.28251   2.31630   2.32718
 Alpha virt. eigenvalues --    2.32842   2.33754   2.36908   2.39706   2.40495
 Alpha virt. eigenvalues --    2.41544   2.45584   2.48752   2.51439   2.51834
 Alpha virt. eigenvalues --    2.52710   2.54851   2.55198   2.57968   2.59916
 Alpha virt. eigenvalues --    2.60739   2.61855   2.62972   2.65415   2.67847
 Alpha virt. eigenvalues --    2.69395   2.69586   2.77648   2.79368   2.87138
 Alpha virt. eigenvalues --    2.89160   3.01636   3.04731   3.10541   3.14606
 Alpha virt. eigenvalues --    3.24268   3.25020   3.27560   3.33980   3.51860
 Alpha virt. eigenvalues --    3.58885   3.63499   3.84447   3.86694   4.02651
 Alpha virt. eigenvalues --    4.33888   4.41822   4.55273   4.57044   4.61541
 Alpha virt. eigenvalues --    4.73060   4.90049   4.91194   4.92609   5.01194
 Alpha virt. eigenvalues --    5.10717   5.13977   5.58646   5.65528   5.83331
 Alpha virt. eigenvalues --    5.85964   5.94430   6.21815   6.83375   6.95073
 Alpha virt. eigenvalues --    7.24972   7.42008   7.59270   7.65052   7.74904
 Alpha virt. eigenvalues --    7.77183   8.08998   8.09133   8.15768   8.25225
 Alpha virt. eigenvalues --    8.32349   8.36940   8.68465   8.89206   9.63906
 Alpha virt. eigenvalues --    9.70289   9.76082   9.82259   9.94831  10.05715
 Alpha virt. eigenvalues --   10.17750  10.18999  10.49108  10.92562  11.41071
 Alpha virt. eigenvalues --   11.55678  11.60778  12.02436  12.13777  13.20844
 Alpha virt. eigenvalues --   13.69203  14.52434  62.95566  64.51301
          Condensed to atoms (all electrons):
              1          2          3          4          5
     1  O    0.002605  -0.002397  -0.001174   0.001188  -0.007313
     2  O   -0.002397   0.005657   0.000906  -0.003203  -0.008134
     3  H   -0.001174   0.000906   0.000682  -0.000393   0.000709
     4  H    0.001188  -0.003203  -0.000393   0.002975  -0.013081
     5  Kr  -0.007313  -0.008134   0.000709  -0.013081  36.053865
 Mulliken atomic charges:
              1
     1  O    0.007092
     2  O    0.007171
     3  H   -0.000731
     4  H    0.012515
     5  Kr  -0.026046
 Sum of Mulliken atomic charges =   0.00000
 Mulliken charges with hydrogens summed into heavy atoms:
              1
     1  O    0.006361
     2  O    0.019685
     5  Kr  -0.026046
 Sum of Mulliken charges with hydrogens summed into heavy atoms =   0.00000
          Condensed to fragments (all electrons):
     1       0.026046
     2      -0.026046
 Electronic spatial extent (au):  <R**2>=            168.1616
 Charge=              0.0000 electrons
 Dipole moment (field-independent basis, Debye):
    X=             -0.0007    Y=             -0.0016    Z=              0.0000  Tot=              0.0018
 Quadrupole moment (field-independent basis, Debye-Ang):
   XX=            -17.7569   YY=            -17.7479   ZZ=            -17.7628
   XY=              0.0045   XZ=              0.0000   YZ=              0.0000
 Traceless Quadrupole moment (field-independent basis, Debye-Ang):
   XX=             -0.0010   YY=              0.0080   ZZ=             -0.0069
   XY=              0.0045   XZ=              0.0000   YZ=              0.0000
 Octapole moment (field-independent basis, Debye-Ang**2):
  XXX=             -0.0029  YYY=            -53.2432  ZZZ=              0.0000  XYY=              0.0098
  XXY=            -17.7590  XXZ=              0.0000  XZZ=             -0.0010  YZZ=            -17.7621
  YYZ=              0.0000  XYZ=              0.0000
 Hexadecapole moment (field-independent basis, Debye-Ang**3):
 XXXX=            -18.9265 YYYY=           -125.3994 ZZZZ=            -18.9416 XXXY=              0.0142
 XXXZ=              0.0000 YYYX=              0.0238 YYYZ=              0.0000 ZZZX=              0.0000
 ZZZY=              0.0000 XXYY=            -24.0632 XXZZ=             -6.3078 YYZZ=            -24.0679
 XXYZ=              0.0000 YYXZ=              0.0000 ZZXY=              0.0059
 N-N= 0.000000000000D+00 E-N=-6.578525503402D+03  KE= 2.749314923006D+03
 Symmetry A'   KE= 2.343552629554D+03
 Symmetry A"   KE= 4.057622934518D+02
 No NMR shielding tensors so no spin-rotation constants.
 Leave Link  601 at Wed May 13 18:31:22 2020, MaxMem= 1073741824 cpu:       0.9
 (Enter /home/matheus/.gaussian/g09/l122.exe)
 Counterpoise: doing MCBS calculation for fragment   1
 Leave Link  122 at Wed May 13 18:31:22 2020, MaxMem= 1073741824 cpu:       0.0
 (Enter /home/matheus/.gaussian/g09/l301.exe)
 Basis read from rwf:  (5D, 7F)
 No pseudopotential information found on rwf file.
 There are    92 symmetry adapted basis functions of A'  symmetry.
 There are    46 symmetry adapted basis functions of A"  symmetry.
 Integral buffers will be    131072 words long.
 Raffenetti 2 integral format.
 Two-electron integral symmetry is turned on.
   138 basis functions,   198 primitive gaussians,   160 cartesian basis functions
     9 alpha electrons        9 beta electrons
       nuclear repulsion energy        36.6006188945 Hartrees.
 IExCor=10402 DFT=T Ex=LC-B+HF Corr=LYP ExCW=0 ScaHFX=  1.000000
 ScaDFX=  1.000000  1.000000  1.000000  1.000000 ScalE2=  1.000000  1.000000
 IRadAn=      5 IRanWt=     -1 IRanGd=            0 ICorTp=0
  HFx wShort=  0.000000 wLong=  0.470000 cFull=  0.000000 cShort=  0.000000 cLong=  1.000000
  DFx wShort=  0.000000 wLong=  0.470000 cFull=  0.000000 cShort=  0.000000 cLong=  1.000000
 NAtoms=    5 NActive=    4 NUniq=    4 SFac= 1.00D+00 NAtFMM=   60 NAOKFM=F Big=F
 No density basis found on file   718.
 Leave Link  301 at Wed May 13 18:31:22 2020, MaxMem= 1073741824 cpu:       0.2
 (Enter /home/matheus/.gaussian/g09/l302.exe)
 NPDir=0 NMtPBC=     1 NCelOv=     1 NCel=       1 NClECP=     1 NCelD=      1
         NCelK=      1 NCelE2=     1 NClLst=     1 CellRange=     0.0.
 One-electron integrals computed using PRISM.
 NBasis=   138 RedAO= T  NBF=    92    46
 NBsUse=   138 1.00D-06 NBFU=    92    46
 Precomputing XC quadrature grid using
 IXCGrd= 2 IRadAn=           5 IRanWt=          -1 IRanGd=           0 AccXCQ= 0.00D+00.
 NRdTot=     344 NPtTot=       92556 NUsed=       95038 NTot=       95070
 NSgBfM=   160   160   160   160   160 NAtAll=     4     4.
 Leave Link  302 at Wed May 13 18:31:22 2020, MaxMem= 1073741824 cpu:       0.8
 (Enter /home/matheus/.gaussian/g09/l303.exe)
 DipDrv:  MaxL=1.
 Leave Link  303 at Wed May 13 18:31:22 2020, MaxMem= 1073741824 cpu:       0.1
 (Enter /home/matheus/.gaussian/g09/l401.exe)
 Harris functional with IExCor=10402 diagonalized for initial guess.
 ExpMin= 2.53D-02 ExpMax= 1.53D+04 ExpMxC= 5.22D+02 IAcc=3 IRadAn=         5 AccDes= 0.00D+00
 HarFok:  IExCor=10402 AccDes= 0.00D+00 IRadAn=         5 IDoV= 1
 ScaDFX=  1.000000  1.000000  1.000000  1.000000
 FoFCou: FMM=F IPFlag=           0 FMFlag=      100000 FMFlg1=           0
         NFxFlg=           0 DoJE=T BraDBF=F KetDBF=T FulRan=T
         Omega=  0.000000  0.000000  1.000000  0.000000  0.000000 ICntrl=     500 IOpCl=  0
         NMat0=    1 NMatS0=    1 NMatT0=    0 NMatD0=    1 NMtDS0=    0 NMtDT0=    0
         I1Cent=           4 NGrid=           0.
 Petite list used in FoFCou.
 Harris En= -147.162403675157    
 Initial guess orbital symmetries:
       Occupied  (A') (A') (A') (A') (A') (A') (A") (A') (A")
       Virtual   (A') (A') (A') (A') (A") (A') (A') (A') (A") (A')
                 (A") (A') (A') (A') (A") (A') (A') (A') (A') (A')
                 (A') (A") (A") (A') (A') (A") (A") (A') (A') (A")
                 (A') (A') (A') (A") (A') (A") (A") (A') (A') (A')
                 (A') (A") (A') (A") (A') (A') (A') (A") (A") (A')
                 (A') (A') (A") (A') (A') (A") (A') (A') (A") (A")
                 (A') (A') (A') (A") (A') (A') (A") (A') (A') (A")
                 (A") (A') (A') (A") (A') (A') (A') (A') (A") (A')
                 (A') (A") (A') (A") (A") (A") (A') (A") (A') (A")
                 (A') (A') (A') (A') (A') (A') (A') (A") (A") (A')
                 (A') (A') (A") (A') (A') (A") (A') (A") (A') (A")
                 (A') (A") (A") (A') (A") (A") (A") (A') (A') (A')
                 (A") (A') (A') (A') (A') (A') (A') (A') (A')
 The electronic state of the initial guess is 1-A'.
 Leave Link  401 at Wed May 13 18:31:22 2020, MaxMem= 1073741824 cpu:       1.7
 (Enter /home/matheus/.gaussian/g09/l502.exe)
 Closed shell SCF:
 Requested convergence on RMS density matrix=1.00D-08 within 128 cycles.
 Requested convergence on MAX density matrix=1.00D-06.
 Requested convergence on             energy=1.00D-06.
 No special actions if energy rises.
 Using DIIS extrapolation, IDIIS=  1040.
 Integral symmetry usage will be decided dynamically.
        94980 words used for storage of precomputed grid.
 IEnd=      192406 IEndB=      192406 NGot=  1073741824 MDV=  1073591819
 LenX=  1073591819 LenY=  1073565778
 Fock matrices will be formed incrementally for  20 cycles.

 Cycle   1  Pass 1  IDiag  1:
 FoFJK:  IHMeth= 1 ICntrl=     0 DoSepK=T KAlg= 1 I1Cent= 0 FoldK=F
 FoFCou: FMM=F IPFlag=           0 FMFlag=      100000 FMFlg1=           0
         NFxFlg=           0 DoJE=T BraDBF=F KetDBF=F FulRan=T
         Omega=  0.000000  0.000000  1.000000  0.000000  0.000000 ICntrl=     500 IOpCl=  0
         NMat0=    1 NMatS0=    1 NMatT0=    0 NMatD0=    1 NMtDS0=    0 NMtDT0=    0
         I1Cent=           0 NGrid=           0.
 Petite list used in FoFCou.
 E= -151.303290729395    
 DIIS: error= 1.74D-02 at cycle   1 NSaved=   1.
 NSaved= 1 IEnMin= 1 EnMin= -151.303290729395     IErMin= 1 ErrMin= 1.74D-02
 ErrMax= 1.74D-02 EMaxC= 1.00D-01 BMatC= 2.07D-02 BMatP= 2.07D-02
 IDIUse=3 WtCom= 8.26D-01 WtEn= 1.74D-01
 Coeff-Com:  0.100D+01
 Coeff-En:   0.100D+01
 Coeff:      0.100D+01
 Gap=     0.464 Goal=   None    Shift=    0.000
 GapD=    0.464 DampG=2.000 DampE=0.500 DampFc=1.0000 IDamp=-1.
 RMSDP=1.18D-03 MaxDP=2.96D-02              OVMax= 5.52D-02

 Cycle   2  Pass 1  IDiag  1:
 RMSU=  8.30D-04    CP:  1.00D+00
 FoFJK:  IHMeth= 1 ICntrl=     0 DoSepK=T KAlg= 1 I1Cent= 0 FoldK=F
 E= -151.320239343677     Delta-E=       -0.016948614283 Rises=F Damp=F
 DIIS: error= 8.41D-03 at cycle   2 NSaved=   2.
 NSaved= 2 IEnMin= 2 EnMin= -151.320239343677     IErMin= 2 ErrMin= 8.41D-03
 ErrMax= 8.41D-03 EMaxC= 1.00D-01 BMatC= 5.01D-03 BMatP= 2.07D-02
 IDIUse=3 WtCom= 9.16D-01 WtEn= 8.41D-02
 Coeff-Com:  0.280D+00 0.720D+00
 Coeff-En:   0.000D+00 0.100D+01
 Coeff:      0.256D+00 0.744D+00
 Gap=     0.424 Goal=   None    Shift=    0.000
 RMSDP=3.13D-04 MaxDP=7.16D-03 DE=-1.69D-02 OVMax= 1.47D-02

 Cycle   3  Pass 1  IDiag  1:
 RMSU=  2.21D-04    CP:  1.00D+00  1.00D+00
 FoFJK:  IHMeth= 1 ICntrl=     0 DoSepK=T KAlg= 1 I1Cent= 0 FoldK=F
 E= -151.323083684360     Delta-E=       -0.002844340683 Rises=F Damp=F
 DIIS: error= 2.64D-03 at cycle   3 NSaved=   3.
 NSaved= 3 IEnMin= 3 EnMin= -151.323083684360     IErMin= 3 ErrMin= 2.64D-03
 ErrMax= 2.64D-03 EMaxC= 1.00D-01 BMatC= 6.36D-04 BMatP= 5.01D-03
 IDIUse=3 WtCom= 9.74D-01 WtEn= 2.64D-02
 Coeff-Com:  0.983D-02 0.249D+00 0.741D+00
 Coeff-En:   0.000D+00 0.000D+00 0.100D+01
 Coeff:      0.957D-02 0.242D+00 0.748D+00
 Gap=     0.434 Goal=   None    Shift=    0.000
 RMSDP=1.54D-04 MaxDP=3.97D-03 DE=-2.84D-03 OVMax= 7.86D-03

 Cycle   4  Pass 1  IDiag  1:
 RMSU=  7.51D-05    CP:  1.00D+00  1.10D+00  9.48D-01
 FoFJK:  IHMeth= 1 ICntrl=     0 DoSepK=T KAlg= 1 I1Cent= 0 FoldK=F
 E= -151.323560132361     Delta-E=       -0.000476448001 Rises=F Damp=F
 DIIS: error= 4.47D-04 at cycle   4 NSaved=   4.
 NSaved= 4 IEnMin= 4 EnMin= -151.323560132361     IErMin= 4 ErrMin= 4.47D-04
 ErrMax= 4.47D-04 EMaxC= 1.00D-01 BMatC= 2.68D-05 BMatP= 6.36D-04
 IDIUse=3 WtCom= 9.96D-01 WtEn= 4.47D-03
 Coeff-Com: -0.209D-01-0.298D-01 0.113D+00 0.938D+00
 Coeff-En:   0.000D+00 0.000D+00 0.000D+00 0.100D+01
 Coeff:     -0.208D-01-0.297D-01 0.112D+00 0.938D+00
 Gap=     0.432 Goal=   None    Shift=    0.000
 RMSDP=5.56D-05 MaxDP=1.56D-03 DE=-4.76D-04 OVMax= 1.92D-03

 Cycle   5  Pass 1  IDiag  1:
 RMSU=  1.25D-05    CP:  1.00D+00  1.12D+00  1.06D+00  1.17D+00
 FoFJK:  IHMeth= 1 ICntrl=     0 DoSepK=T KAlg= 1 I1Cent= 0 FoldK=F
 E= -151.323588874749     Delta-E=       -0.000028742388 Rises=F Damp=F
 DIIS: error= 8.47D-05 at cycle   5 NSaved=   5.
 NSaved= 5 IEnMin= 5 EnMin= -151.323588874749     IErMin= 5 ErrMin= 8.47D-05
 ErrMax= 8.47D-05 EMaxC= 1.00D-01 BMatC= 4.12D-07 BMatP= 2.68D-05
[...]
 Harris functional with IExCor=10402 diagonalized for initial guess.
 ExpMin= 2.53D-02 ExpMax= 1.17D+07 ExpMxC= 1.33D+04 IAcc=3 IRadAn=         5 AccDes= 0.00D+00
 HarFok:  IExCor=10402 AccDes= 0.00D+00 IRadAn=         5 IDoV= 1
 ScaDFX=  1.000000  1.000000  1.000000  1.000000
 FoFCou: FMM=F IPFlag=           0 FMFlag=      100000 FMFlg1=           0
         NFxFlg=           0 DoJE=T BraDBF=F KetDBF=T FulRan=T
         Omega=  0.000000  0.000000  1.000000  0.000000  0.000000 ICntrl=     500 IOpCl=  0
         NMat0=    1 NMatS0=    1 NMatT0=    0 NMatD0=    1 NMtDS0=    0 NMtDT0=    0
         I1Cent=           4 NGrid=           0.
 Petite list used in FoFCou.
 Harris En= -2744.51492631818    
 Leave Link  401 at Wed May 13 18:50:43 2020, MaxMem= 1073741824 cpu:       2.6
 (Enter /home/matheus/.gaussian/g09/l502.exe)
 Closed shell SCF:
 Requested convergence on RMS density matrix=1.00D-08 within 128 cycles.
 Requested convergence on MAX density matrix=1.00D-06.
 Requested convergence on             energy=1.00D-06.
 No special actions if energy rises.
 Using DIIS extrapolation, IDIIS=  1040.
 Integral symmetry usage will be decided dynamically.
       127132 words used for storage of precomputed grid.
 IEnd=      306144 IEndB=      306144 NGot=  1073741824 MDV=  1073504991
 LenX=  1073504991 LenY=  1073452109
 Fock matrices will be formed incrementally for  20 cycles.

 Cycle   1  Pass 1  IDiag  1:
 FoFJK:  IHMeth= 1 ICntrl=     0 DoSepK=T KAlg= 1 I1Cent= 0 FoldK=F
 FoFCou: FMM=F IPFlag=           0 FMFlag=      100000 FMFlg1=           0
         NFxFlg=           0 DoJE=T BraDBF=F KetDBF=F FulRan=T
         Omega=  0.000000  0.000000  1.000000  0.000000  0.000000 ICntrl=     500 IOpCl=  0
         NMat0=    1 NMatS0=    1 NMatT0=    0 NMatD0=    1 NMtDS0=    0 NMtDT0=    0
         I1Cent=           0 NGrid=           0.
 Petite list used in FoFCou.
 E= -2753.41756199484    
 DIIS: error= 2.15D-04 at cycle   1 NSaved=   1.
 NSaved= 1 IEnMin= 1 EnMin= -2753.41756199484     IErMin= 1 ErrMin= 2.15D-04
 ErrMax= 2.15D-04 EMaxC= 1.00D-01 BMatC= 6.14D-06 BMatP= 6.14D-06
 IDIUse=3 WtCom= 9.98D-01 WtEn= 2.15D-03
 Coeff-Com:  0.100D+01
 Coeff-En:   0.100D+01
 Coeff:      0.100D+01
 Gap=     0.539 Goal=   None    Shift=    0.000
 RMSDP=1.93D-05 MaxDP=7.55D-04              OVMax= 3.06D-04

 Cycle   2  Pass 1  IDiag  1:
 RMSU=  1.37D-05    CP:  1.00D+00
 FoFJK:  IHMeth= 1 ICntrl=     0 DoSepK=T KAlg= 1 I1Cent= 0 FoldK=F
 E= -2753.41756257546     Delta-E=       -0.000000580612 Rises=F Damp=F
 DIIS: error= 3.16D-06 at cycle   2 NSaved=   2.
 NSaved= 2 IEnMin= 2 EnMin= -2753.41756257546     IErMin= 2 ErrMin= 3.16D-06
 ErrMax= 3.16D-06 EMaxC= 1.00D-01 BMatC= 3.50D-09 BMatP= 6.14D-06
 IDIUse=1 WtCom= 1.00D+00 WtEn= 0.00D+00
 Coeff-Com: -0.691D-02 0.101D+01
 Coeff:     -0.691D-02 0.101D+01
 Gap=     0.539 Goal=   None    Shift=    0.000
 RMSDP=1.60D-06 MaxDP=5.46D-05 DE=-5.81D-07 OVMax= 4.63D-05

 Cycle   3  Pass 1  IDiag  1:
 RMSU=  5.65D-07    CP:  1.00D+00  1.07D+00
 FoFJK:  IHMeth= 1 ICntrl=     0 DoSepK=T KAlg= 1 I1Cent= 0 FoldK=F
 E= -2753.41756258167     Delta-E=       -0.000000006217 Rises=F Damp=F
 DIIS: error= 4.89D-07 at cycle   3 NSaved=   3.
 NSaved= 3 IEnMin= 3 EnMin= -2753.41756258167     IErMin= 3 ErrMin= 4.89D-07
 ErrMax= 4.89D-07 EMaxC= 1.00D-01 BMatC= 1.07D-10 BMatP= 3.50D-09
 IDIUse=1 WtCom= 1.00D+00 WtEn= 0.00D+00
 Coeff-Com:  0.176D-03-0.105D+00 0.110D+01
 Coeff:      0.176D-03-0.105D+00 0.110D+01
 Gap=     0.539 Goal=   None    Shift=    0.000
 RMSDP=1.91D-07 MaxDP=6.71D-06 DE=-6.22D-09 OVMax= 9.28D-06

 Cycle   4  Pass 1  IDiag  1:
 RMSU=  6.31D-08    CP:  1.00D+00  1.08D+00  1.18D+00
 FoFJK:  IHMeth= 1 ICntrl=     0 DoSepK=T KAlg= 1 I1Cent= 0 FoldK=F
 E= -2753.41756258190     Delta-E=       -0.000000000227 Rises=F Damp=F
 DIIS: error= 3.73D-07 at cycle   4 NSaved=   4.
 NSaved= 4 IEnMin= 4 EnMin= -2753.41756258190     IErMin= 4 ErrMin= 3.73D-07
 ErrMax= 3.73D-07 EMaxC= 1.00D-01 BMatC= 1.94D-11 BMatP= 1.07D-10
 IDIUse=1 WtCom= 1.00D+00 WtEn= 0.00D+00
 Coeff-Com:  0.227D-03-0.569D-01 0.350D+00 0.707D+00
 Coeff:      0.227D-03-0.569D-01 0.350D+00 0.707D+00
 Gap=     0.539 Goal=   None    Shift=    0.000
 RMSDP=2.34D-08 MaxDP=9.34D-07 DE=-2.27D-10 OVMax= 1.05D-06

 Cycle   5  Pass 1  IDiag  1:
 RMSU=  1.15D-08    CP:  1.00D+00  1.08D+00  1.19D+00  1.12D+00
 FoFJK:  IHMeth= 1 ICntrl=     0 DoSepK=T KAlg= 1 I1Cent= 0 FoldK=F
 E= -2753.41756258191     Delta-E=       -0.000000000010 Rises=F Damp=F
 DIIS: error= 4.09D-08 at cycle   5 NSaved=   5.
 NSaved= 5 IEnMin= 5 EnMin= -2753.41756258191     IErMin= 5 ErrMin= 4.09D-08
 ErrMax= 4.09D-08 EMaxC= 1.00D-01 BMatC= 2.54D-13 BMatP= 1.94D-11
 IDIUse=1 WtCom= 1.00D+00 WtEn= 0.00D+00
 Coeff-Com: -0.196D-04 0.725D-02-0.658D-01-0.259D-01 0.108D+01
 Coeff:     -0.196D-04 0.725D-02-0.658D-01-0.259D-01 0.108D+01
 Gap=     0.539 Goal=   None    Shift=    0.000
 RMSDP=1.12D-08 MaxDP=6.51D-07 DE=-9.55D-12 OVMax= 4.46D-07

 Cycle   6  Pass 1  IDiag  1:
 RMSU=  1.57D-09    CP:  1.00D+00  1.08D+00  1.20D+00  1.21D+00  1.16D+00
 FoFJK:  IHMeth= 1 ICntrl=     0 DoSepK=T KAlg= 1 I1Cent= 0 FoldK=F
 E= -2753.41756258192     Delta-E=       -0.000000000006 Rises=F Damp=F
 DIIS: error= 1.24D-08 at cycle   6 NSaved=   6.
 NSaved= 6 IEnMin= 6 EnMin= -2753.41756258192     IErMin= 6 ErrMin= 1.24D-08
 ErrMax= 1.24D-08 EMaxC= 1.00D-01 BMatC= 1.21D-14 BMatP= 2.54D-13
 IDIUse=1 WtCom= 1.00D+00 WtEn= 0.00D+00
 Coeff-Com: -0.103D-04 0.302D-02-0.224D-01-0.251D-01 0.198D+00 0.846D+00
 Coeff:     -0.103D-04 0.302D-02-0.224D-01-0.251D-01 0.198D+00 0.846D+00
 Gap=     0.539 Goal=   None    Shift=    0.000
 RMSDP=9.18D-10 MaxDP=4.56D-08 DE=-6.37D-12 OVMax= 7.87D-08

 SCF Done:  E(RLC-B+HF-LYP) =  -2753.41756258     A.U. after    6 cycles
             Convg  =    0.9183D-09             -V/T =  2.0015
 KE= 2.749364037469D+03 PE=-6.578579400905D+03 EE= 1.075797800854D+03
 Leave Link  502 at Wed May 13 18:50:55 2020, MaxMem= 1073741824 cpu:      94.0
 (Enter /home/matheus/.gaussian/g09/l122.exe)
 Restoring MOs from calculation   4 to rwf.
 Counterpoise: doing MCBS calculation for fragment   1
 Leave Link  122 at Wed May 13 18:50:55 2020, MaxMem= 1073741824 cpu:       0.0
 (Enter /home/matheus/.gaussian/g09/l301.exe)
 Basis read from rwf:  (5D, 7F)
 No pseudopotential information found on rwf file.
 There are    92 symmetry adapted basis functions of A'  symmetry.
 There are    46 symmetry adapted basis functions of A"  symmetry.
 Integral buffers will be    131072 words long.
 Raffenetti 2 integral format.
 Two-electron integral symmetry is turned on.
   138 basis functions,   198 primitive gaussians,   160 cartesian basis functions
     9 alpha electrons        9 beta electrons
       nuclear repulsion energy        36.6006188945 Hartrees.
 IExCor=10402 DFT=T Ex=LC-B+HF Corr=LYP ExCW=0 ScaHFX=  1.000000
 ScaDFX=  1.000000  1.000000  1.000000  1.000000 ScalE2=  1.000000  1.000000
 IRadAn=      5 IRanWt=     -1 IRanGd=            0 ICorTp=0
  HFx wShort=  0.000000 wLong=  0.470000 cFull=  0.000000 cShort=  0.000000 cLong=  1.000000
  DFx wShort=  0.000000 wLong=  0.470000 cFull=  0.000000 cShort=  0.000000 cLong=  1.000000
 NAtoms=    5 NActive=    4 NUniq=    4 SFac= 1.00D+00 NAtFMM=   60 NAOKFM=F Big=F
 No density basis found on file   718.
 Leave Link  301 at Wed May 13 18:50:55 2020, MaxMem= 1073741824 cpu:       0.2
 (Enter /home/matheus/.gaussian/g09/l302.exe)
 NPDir=0 NMtPBC=     1 NCelOv=     1 NCel=       1 NClECP=     1 NCelD=      1
         NCelK=      1 NCelE2=     1 NClLst=     1 CellRange=     0.0.
 One-electron integrals computed using PRISM.
 NBasis=   138 RedAO= T  NBF=    92    46
 NBsUse=   138 1.00D-06 NBFU=    92    46
 Precomputing XC quadrature grid using
 IXCGrd= 2 IRadAn=           5 IRanWt=          -1 IRanGd=           0 AccXCQ= 0.00D+00.
 NRdTot=     344 NPtTot=       92556 NUsed=       95038 NTot=       95070
 NSgBfM=   160   160   160   160   160 NAtAll=     4     4.
 Leave Link  302 at Wed May 13 18:50:55 2020, MaxMem= 1073741824 cpu:       0.7
 (Enter /home/matheus/.gaussian/g09/l303.exe)
 DipDrv:  MaxL=1.
 Leave Link  303 at Wed May 13 18:50:55 2020, MaxMem= 1073741824 cpu:       0.1
 (Enter /home/matheus/.gaussian/g09/l401.exe)
 Initial guess read from the read-write file.
 Guess basis will be translated and rotated to current coordinates.
 Initial guess orbital symmetries:
       Occupied  (A') (A') (A') (A') (A') (A') (A") (A') (A")
       Virtual   (A') (A') (A') (A') (A') (A") (A') (A') (A') (A")
                 (A") (A') (A') (A') (A") (A') (A') (A') (A') (A')
                 (A') (A") (A") (A') (A') (A") (A") (A') (A') (A")
                 (A') (A') (A") (A') (A') (A") (A') (A") (A') (A')
                 (A') (A') (A") (A") (A') (A') (A') (A") (A") (A')
                 (A') (A') (A") (A') (A') (A") (A') (A') (A") (A")
                 (A') (A') (A') (A") (A') (A') (A") (A') (A') (A")
                 (A") (A') (A') (A") (A') (A') (A') (A') (A") (A')
                 (A') (A") (A") (A') (A") (A") (A') (A") (A') (A")
                 (A') (A') (A') (A') (A') (A') (A') (A") (A") (A')
                 (A') (A') (A") (A') (A') (A") (A') (A") (A') (A")
                 (A') (A") (A") (A") (A') (A") (A") (A') (A') (A')
                 (A") (A') (A') (A') (A') (A') (A') (A') (A')
 The electronic state of the initial guess is 1-A'.
 Generating alternative initial guess.
 Harris functional with IExCor=10402 diagonalized for initial guess.
 ExpMin= 2.53D-02 ExpMax= 1.53D+04 ExpMxC= 5.22D+02 IAcc=3 IRadAn=         5 AccDes= 0.00D+00
 HarFok:  IExCor=10402 AccDes= 0.00D+00 IRadAn=         5 IDoV= 1
 ScaDFX=  1.000000  1.000000  1.000000  1.000000
 FoFCou: FMM=F IPFlag=           0 FMFlag=      100000 FMFlg1=           0
         NFxFlg=           0 DoJE=T BraDBF=F KetDBF=T FulRan=T
         Omega=  0.000000  0.000000  1.000000  0.000000  0.000000 ICntrl=     500 IOpCl=  0
         NMat0=    1 NMatS0=    1 NMatT0=    0 NMatD0=    1 NMtDS0=    0 NMtDT0=    0
         I1Cent=           4 NGrid=           0.
 Petite list used in FoFCou.
 Harris En= -147.162403675157    
 Leave Link  401 at Wed May 13 18:50:56 2020, MaxMem= 1073741824 cpu:       1.7
 (Enter /home/matheus/.gaussian/g09/l502.exe)
 Closed shell SCF:
 Requested convergence on RMS density matrix=1.00D-08 within 128 cycles.
 Requested convergence on MAX density matrix=1.00D-06.
 Requested convergence on             energy=1.00D-06.
 No special actions if energy rises.
 Using DIIS extrapolation, IDIIS=  1040.
 Integral symmetry usage will be decided dynamically.
        94980 words used for storage of precomputed grid.
 IEnd=      192406 IEndB=      192406 NGot=  1073741824 MDV=  1073591819
 LenX=  1073591819 LenY=  1073565778
 Fock matrices will be formed incrementally for  20 cycles.

 Cycle   1  Pass 1  IDiag  1:
 FoFJK:  IHMeth= 1 ICntrl=     0 DoSepK=T KAlg= 1 I1Cent= 0 FoldK=F
 FoFCou: FMM=F IPFlag=           0 FMFlag=      100000 FMFlg1=           0
         NFxFlg=           0 DoJE=T BraDBF=F KetDBF=F FulRan=T
         Omega=  0.000000  0.000000  1.000000  0.000000  0.000000 ICntrl=     500 IOpCl=  0
         NMat0=    1 NMatS0=    1 NMatT0=    0 NMatD0=    1 NMtDS0=    0 NMtDT0=    0
         I1Cent=           0 NGrid=           0.
 Petite list used in FoFCou.
 E= -151.323590109231    
 DIIS: error= 1.61D-11 at cycle   1 NSaved=   1.
 NSaved= 1 IEnMin= 1 EnMin= -151.323590109231     IErMin= 1 ErrMin= 1.61D-11
 ErrMax= 1.61D-11 EMaxC= 1.00D-01 BMatC= 2.68D-20 BMatP= 2.68D-20
 IDIUse=1 WtCom= 1.00D+00 WtEn= 0.00D+00
 Coeff-Com:  0.100D+01
 Coeff:      0.100D+01
 Gap=     0.432 Goal=   None    Shift=    0.000
 RMSDP=1.00D-12 MaxDP=3.21D-11              OVMax= 5.03D-11

 SCF Done:  E(RLC-B+HF-LYP) =  -151.323590109     A.U. after    1 cycles
             Convg  =    0.1003D-11             -V/T =  2.0058
 KE= 1.504567032012D+02 PE=-4.313896987917D+02 EE= 9.300878658670D+01
 Leave Link  502 at Wed May 13 18:50:57 2020, MaxMem= 1073741824 cpu:       6.7
 (Enter /home/matheus/.gaussian/g09/l122.exe)
 Restoring MOs from calculation   5 to rwf.
 Counterpoise: doing MCBS calculation for fragment   2
 Leave Link  122 at Wed May 13 18:50:57 2020, MaxMem= 1073741824 cpu:       0.0
 (Enter /home/matheus/.gaussian/g09/l301.exe)
 Basis read from rwf:  (5D, 7F)
 No pseudopotential information found on rwf file.
 There are    39 symmetry adapted basis functions of A'  symmetry.
 There are    20 symmetry adapted basis functions of A"  symmetry.
 Integral buffers will be    131072 words long.
 Raffenetti 2 integral format.
 Two-electron integral symmetry is turned on.
    59 basis functions,   217 primitive gaussians,    69 cartesian basis functions
    18 alpha electrons       18 beta electrons
       nuclear repulsion energy         0.0000000000 Hartrees.
 IExCor=10402 DFT=T Ex=LC-B+HF Corr=LYP ExCW=0 ScaHFX=  1.000000
 ScaDFX=  1.000000  1.000000  1.000000  1.000000 ScalE2=  1.000000  1.000000
 IRadAn=      5 IRanWt=     -1 IRanGd=            0 ICorTp=0
  HFx wShort=  0.000000 wLong=  0.470000 cFull=  0.000000 cShort=  0.000000 cLong=  1.000000
  DFx wShort=  0.000000 wLong=  0.470000 cFull=  0.000000 cShort=  0.000000 cLong=  1.000000
 NAtoms=    5 NActive=    1 NUniq=    1 SFac= 1.00D+00 NAtFMM=   60 NAOKFM=F Big=F
 No density basis found on file   718.
 Leave Link  301 at Wed May 13 18:50:57 2020, MaxMem= 1073741824 cpu:       0.2
 (Enter /home/matheus/.gaussian/g09/l302.exe)
 NPDir=0 NMtPBC=     1 NCelOv=     1 NCel=       1 NClECP=     1 NCelD=      1
         NCelK=      1 NCelE2=     1 NClLst=     1 CellRange=     0.0.
 One-electron integrals computed using PRISM.
 NBasis=    59 RedAO= T  NBF=    39    20
 NBsUse=    59 1.00D-06 NBFU=    39    20
 Precomputing XC quadrature grid using
 IXCGrd= 2 IRadAn=           5 IRanWt=          -1 IRanGd=           0 AccXCQ= 0.00D+00.
 NRdTot=      81 NPtTot=       30352 NUsed=       30981 NTot=       31013
 NSgBfM=    69    69    69    69    69 NAtAll=     1     1.
 Leave Link  302 at Wed May 13 18:50:57 2020, MaxMem= 1073741824 cpu:       0.7
 (Enter /home/matheus/.gaussian/g09/l303.exe)
 DipDrv:  MaxL=1.
 Leave Link  303 at Wed May 13 18:50:57 2020, MaxMem= 1073741824 cpu:       0.1
 (Enter /home/matheus/.gaussian/g09/l401.exe)
 Initial guess read from the read-write file.
 Guess basis will be translated and rotated to current coordinates.
 Initial guess orbital symmetries:
       Occupied  (A') (A') (A') (A") (A') (A') (A") (A') (A') (A')
                 (A") (A") (A') (A') (A') (A') (A') (A")
       Virtual   (A') (A") (A') (A') (A") (A") (A') (A') (A') (A")
                 (A') (A') (A') (A") (A') (A") (A') (A') (A') (A')
                 (A") (A") (A') (A") (A') (A") (A') (A') (A') (A")
                 (A") (A') (A') (A") (A') (A') (A") (A") (A') (A')
                 (A')
 The electronic state of the initial guess is 1-A'.
 Generating alternative initial guess.
 Harris functional with IExCor=10402 diagonalized for initial guess.
 ExpMin= 4.00D-02 ExpMax= 1.17D+07 ExpMxC= 1.33D+04 IAcc=3 IRadAn=         5 AccDes= 0.00D+00
 HarFok:  IExCor=10402 AccDes= 0.00D+00 IRadAn=         5 IDoV= 1
 ScaDFX=  1.000000  1.000000  1.000000  1.000000
 FoFCou: FMM=F IPFlag=           0 FMFlag=      100000 FMFlg1=           0
         NFxFlg=           0 DoJE=T BraDBF=F KetDBF=T FulRan=T
         Omega=  0.000000  0.000000  1.000000  0.000000  0.000000 ICntrl=     500 IOpCl=  0
         NMat0=    1 NMatS0=    1 NMatT0=    0 NMatD0=    1 NMtDS0=    0 NMtDT0=    0
         I1Cent=           4 NGrid=           0.
 Petite list used in FoFCou.
 Harris En= -2744.51485235229    
 Leave Link  401 at Wed May 13 18:50:57 2020, MaxMem= 1073741824 cpu:       0.9
 (Enter /home/matheus/.gaussian/g09/l502.exe)
 Closed shell SCF:
 Requested convergence on RMS density matrix=1.00D-08 within 128 cycles.
 Requested convergence on MAX density matrix=1.00D-06.
 Requested convergence on             energy=1.00D-06.
 No special actions if energy rises.
 Using DIIS extrapolation, IDIIS=  1040.
 Integral symmetry usage will be decided dynamically.
        30923 words used for storage of precomputed grid.
 IEnd=       64425 IEndB=       64425 NGot=  1073741824 MDV=  1073698870
 LenX=  1073698870 LenY=  1073693668
 Fock matrices will be formed incrementally for  20 cycles.

 Cycle   1  Pass 1  IDiag  1:
 FoFJK:  IHMeth= 1 ICntrl=     0 DoSepK=T KAlg= 1 I1Cent= 0 FoldK=F
 FoFCou: FMM=F IPFlag=           0 FMFlag=      100000 FMFlg1=           0
         NFxFlg=           0 DoJE=T BraDBF=F KetDBF=F FulRan=T
         Omega=  0.000000  0.000000  1.000000  0.000000  0.000000 ICntrl=     500 IOpCl=  0
         NMat0=    1 NMatS0=    1 NMatT0=    0 NMatD0=    1 NMtDS0=    0 NMtDT0=    0
         I1Cent=           0 NGrid=           0.
 Petite list used in FoFCou.
 E= -2753.41754223393    
 DIIS: error= 2.36D-13 at cycle   1 NSaved=   1.
 NSaved= 1 IEnMin= 1 EnMin= -2753.41754223393     IErMin= 1 ErrMin= 2.36D-13
 ErrMax= 2.36D-13 EMaxC= 1.00D-01 BMatC= 8.30D-25 BMatP= 8.30D-25
 IDIUse=1 WtCom= 1.00D+00 WtEn= 0.00D+00
 Coeff-Com:  0.100D+01
 Coeff:      0.100D+01
 Gap=     0.595 Goal=   None    Shift=    0.000
 RMSDP=1.55D-14 MaxDP=4.29D-13              OVMax= 4.28D-14

 SCF Done:  E(RLC-B+HF-LYP) =  -2753.41754223     A.U. after    1 cycles
             Convg  =    0.1555D-13             -V/T =  2.0015
 KE= 2.749372504928D+03 PE=-6.578588569976D+03 EE= 1.075798522814D+03
 Leave Link  502 at Wed May 13 18:50:58 2020, MaxMem= 1073741824 cpu:      10.9
 (Enter /home/matheus/.gaussian/g09/l122.exe)
 Restoring MOs from calculation   1 to rwf.
 Counterpoise: corrected energy =   -2904.741210573061
 Counterpoise: BSSE energy =       0.000026093368
 Leave Link  122 at Wed May 13 18:50:58 2020, MaxMem= 1073741824 cpu:       0.0
 (Enter /home/matheus/.gaussian/g09/l108.exe)
 Scan completed.

 Summary of the potential surface scan:
   N      R1          SCF    
 ----  ---------  -----------
    1     3.0000  -2753.41754
    2     3.1000  -2753.41754
    3     3.2000  -2753.41754
    4     3.3000  -2753.41754
    5     3.4000  -2753.41754
    6     3.5000  -2753.41754
    7     3.6000  -2753.41754
    8     3.7000  -2753.41754
    9     3.8000  -2753.41754
   10     3.9000  -2753.41754
   11     4.0000  -2753.41754
   12     4.1000  -2753.41754
   13     4.2000  -2753.41754
   14     4.3000  -2753.41754
   15     4.4000  -2753.41754
   16     4.5000  -2753.41754
   17     4.6000  -2753.41754
   18     4.7000  -2753.41754
   19     4.8000  -2753.41754
   20     4.9000  -2753.41754
   21     5.0000  -2753.41754
 ----  ---------  -----------
  
 Leave Link  108 at Wed May 13 18:50:58 2020, MaxMem= 1073741824 cpu:       0.0
 (Enter /home/matheus/.gaussian/g09/l9999.exe)
 1\1\GINC-REDGIANT\Scan\RLC-BLYP\Aug-CC-pVTZ\H2Kr1O2\MATHEUS\13-May-202
 0\1\\#p lc-blyp/aug-cc-PVTz int=ultrafine counterpoise=2 Scan\\TCC\\0,
 1\O,0,0.,0.,0.725\O,0,0.,0.,-0.725\H,0,0.,-0.9187205947,1.0235104166\H
 ,0,0.,0.9187205947,-1.0235104166\Kr,0,0.,R1,0.\\R1=3.,s,20,0.1\\Versio
 n=EM64L-G09RevC.01\State=1-A'\HF=-2753.4175422,-2753.4175422,-2753.417
 5422,-2753.4175422,-2753.4175422,-2753.4175422,-2753.4175422,-2753.417
 5422,-2753.4175422,-2753.4175422,-2753.4175422,-2753.4175422,-2753.417
 5422,-2753.4175422,-2753.4175422,-2753.4175422,-2753.4175422,-2753.417
 5422,-2753.4175422,-2753.4175422,-2753.4175422\RMSD=1.344e-09,5.351e-1
 1,1.647e-11,1.005e-11,6.004e-12,3.647e-12,2.206e-12,1.337e-12,8.089e-1
 3,4.922e-13,3.031e-13,1.901e-13,1.068e-13,6.094e-14,3.722e-14,2.249e-1
 4,1.509e-14,1.463e-14,7.424e-15,1.118e-14,1.555e-14\PG=CS [SG(H2Kr1O2)
 ]\\@


 EVERYBODY NEEDS BEAUTY AS WELL AS BREAD, PLACES TO PLAY IN AND PRAY IN,
 WHERE NATURE MAY HEAL AND CHEER AND GIVE STRENGTH TO BODY AND SOUL ALIKE.

                                    -- JOHN MUIR
 Job cpu time:  0 days  2 hours 48 minutes 45.2 seconds.
 File lengths (MBytes):  RWF=     33 Int=      0 D2E=      0 Chk=      8 Scr=      1
 Normal termination of Gaussian 09 at Wed May 13 18:50:58 2020.
