 Entering Gaussian System, Link 0=g09
 Input=/home/matheus/.tcc/Inputs/Inputs-lc-blyp-default/H2O2-Kr_29.com
 Output=/home/matheus/.tcc/Logs/Logs-lc-blyp-default/H2O2-Kr_29.log
 Initial command:
 /home/matheus/.gaussian/g09/l1.exe /home/matheus/.gaussian/g09/scratch/Gau-32628.inp -scrdir=/home/matheus/.gaussian/g09/scratch/
 Entering Link 1 = /home/matheus/.gaussian/g09/l1.exe PID=     32632.
  
 Copyright (c) 1988,1990,1992,1993,1995,1998,2003,2009,2011,
            Gaussian, Inc.  All Rights Reserved.
  
 This is part of the Gaussian(R) 09 program.  It is based on
 the Gaussian(R) 03 system (copyright 2003, Gaussian, Inc.),
 the Gaussian(R) 98 system (copyright 1998, Gaussian, Inc.),
 the Gaussian(R) 94 system (copyright 1995, Gaussian, Inc.),
 the Gaussian 92(TM) system (copyright 1992, Gaussian, Inc.),
 the Gaussian 90(TM) system (copyright 1990, Gaussian, Inc.),
 the Gaussian 88(TM) system (copyright 1988, Gaussian, Inc.),
 the Gaussian 86(TM) system (copyright 1986, Carnegie Mellon
 University), and the Gaussian 82(TM) system (copyright 1983,
 Carnegie Mellon University). Gaussian is a federally registered
 trademark of Gaussian, Inc.
  
 This software contains proprietary and confidential information,
 including trade secrets, belonging to Gaussian, Inc.
  
 This software is provided under written license and may be
 used, copied, transmitted, or stored only in accord with that
 written license.
  
 The following legend is applicable only to US Government
 contracts under FAR:
  
                    RESTRICTED RIGHTS LEGEND
  
 Use, reproduction and disclosure by the US Government is
 subject to restrictions as set forth in subparagraphs (a)
 and (c) of the Commercial Computer Software - Restricted
 Rights clause in FAR 52.227-19.
  
 Gaussian, Inc.
 340 Quinnipiac St., Bldg. 40, Wallingford CT 06492
  
  
 ---------------------------------------------------------------
 Warning -- This program may not be used in any manner that
 competes with the business of Gaussian, Inc. or will provide
 assistance to any competitor of Gaussian, Inc.  The licensee
 of this program is prohibited from giving any competitor of
 Gaussian, Inc. access to this program.  By using this program,
 the user acknowledges that Gaussian, Inc. is engaged in the
 business of creating and licensing software in the field of
 computational chemistry and represents and warrants to the
 licensee that it is not a competitor of Gaussian, Inc. and that
 it will not use this program in any manner prohibited above.
 ---------------------------------------------------------------
  

 Cite this work as:
 Gaussian 09, Revision C.01,
 M. J. Frisch, G. W. Trucks, H. B. Schlegel, G. E. Scuseria, 
 M. A. Robb, J. R. Cheeseman, G. Scalmani, V. Barone, B. Mennucci, 
 G. A. Petersson, H. Nakatsuji, M. Caricato, X. Li, H. P. Hratchian, 
 A. F. Izmaylov, J. Bloino, G. Zheng, J. L. Sonnenberg, M. Hada, 
 M. Ehara, K. Toyota, R. Fukuda, J. Hasegawa, M. Ishida, T. Nakajima, 
 Y. Honda, O. Kitao, H. Nakai, T. Vreven, J. A. Montgomery, Jr., 
 J. E. Peralta, F. Ogliaro, M. Bearpark, J. J. Heyd, E. Brothers, 
 K. N. Kudin, V. N. Staroverov, T. Keith, R. Kobayashi, J. Normand, 
 K. Raghavachari, A. Rendell, J. C. Burant, S. S. Iyengar, J. Tomasi, 
 M. Cossi, N. Rega, J. M. Millam, M. Klene, J. E. Knox, J. B. Cross, 
 V. Bakken, C. Adamo, J. Jaramillo, R. Gomperts, R. E. Stratmann, 
 O. Yazyev, A. J. Austin, R. Cammi, C. Pomelli, J. W. Ochterski, 
 R. L. Martin, K. Morokuma, V. G. Zakrzewski, G. A. Voth, 
 P. Salvador, J. J. Dannenberg, S. Dapprich, A. D. Daniels, 
 O. Farkas, J. B. Foresman, J. V. Ortiz, J. Cioslowski, 
 and D. J. Fox, Gaussian, Inc., Wallingford CT, 2010.
 
 ******************************************
 Gaussian 09:  EM64L-G09RevC.01 23-Sep-2011
                13-May-2020 
 ******************************************
 %mem=8GB
 %nproc=8
 Will use up to    8 processors via shared memory.
 --------------------------------------------------------
 #p lc-blyp/aug-cc-PVTz int=ultrafine counterpoise=2 Scan
 --------------------------------------------------------
 1/38=1,60=1,62=2/1,8;
 2/12=2,17=6,18=5,29=3,40=1/2;
 1/38=1,53=5172,62=2/22;
 3/5=16,6=1,7=10,11=2,16=1,25=1,30=1,74=1000402,75=-5/1,2,3;
 4//1;
 5/5=2,38=5/2;
 6/7=2,8=2,9=2,10=2,18=1,28=1/1;
 1/53=4052,62=2,63=1/22;
 3/5=7,6=11,7=10,11=2,16=1,25=1,30=1,74=1000402,75=-5,82=7/1,2,3;
 4//1;
 5/5=2,38=5/2;
 6/7=2,8=2,9=2,10=2,18=1,28=1/1;
 1/53=3042,62=2,63=2/22;
 3/5=7,6=11,7=10,11=2,16=1,25=1,30=1,74=1000402,75=-5,82=7/1,2,3;
 4//1;
 5/5=2,38=5/2;
 6/7=2,8=2,9=2,10=2,18=1,28=1/1;
 1/53=2032,62=2,63=3/22;
 3/5=7,6=11,7=10,11=2,16=1,25=1,30=1,74=1000402,75=-5,82=7/1,2,3;
 4//1;
 5/5=2,38=5/2;
 6/7=2,8=2,9=2,10=2,18=1,28=1/1;
 1/53=1022,62=2,63=4/22;
 3/5=7,6=11,7=10,11=2,16=1,25=1,30=1,74=1000402,75=-5,82=7/1,2,3;
 4//1;
 5/5=2,38=5/2;
 6/7=2,8=2,9=2,10=2,18=1,28=1/1;
 1/53=5014,62=2,63=5/22;
 1/60=1,62=2/8(1);
 99/9=1/99;
 2/29=3/2;
 1/53=5173,62=2/22;
 3/5=7,6=11,7=10,11=2,16=1,25=1,30=1,74=1000402,75=-5,82=7/1,2,3;
 4/5=5,16=3/1;
 5/5=2,38=5/2;
 1/53=4053,62=2,63=1/22;
 3/5=7,6=11,7=10,11=2,16=1,25=1,30=1,74=1000402,75=-5,82=7/1,2,3;
 4/5=5,16=3/1;
 5/5=2,38=5/2;
 1/53=3043,62=2,63=2/22;
 3/5=7,6=11,7=10,11=2,16=1,25=1,30=1,74=1000402,75=-5,82=7/1,2,3;
 4/5=5,16=3/1;
 5/5=2,38=5/2;
 1/53=2033,62=2,63=3/22;
 3/5=7,6=11,7=10,11=2,16=1,25=1,30=1,74=1000402,75=-5,82=7/1,2,3;
 4/5=5,16=3/1;
 5/5=2,38=5/2;
 1/53=1024,62=2,63=4/22;
 3/5=7,6=11,7=10,11=2,16=1,25=1,30=1,74=1000402,75=-5,82=7/1,2,3;
 4/5=5,16=3/1;
 5/5=2,38=5/2;
 1/53=5014,62=2,63=5/22;
 1/60=1,62=2/8(-22);
 99/9=1/99;
 Leave Link    1 at Wed May 13 23:09:31 2020, MaxMem= 1073741824 cpu:       0.1
 (Enter /home/matheus/.gaussian/g09/l101.exe)
 ---
 TCC
 ---
 Charge =  0 Multiplicity = 1 in supermolecule
 Charge =  0 Multiplicity = 1 in fragment  1.
 Charge =  0 Multiplicity = 1 in fragment  2.
 Symbolic Z-Matrix:
 O(Fragment=1)         0.        0.        0.725 
 O(Fragment=1)         0.        0.       -0.725 
 H(Fragment=1)        -0.86331   0.31422   1.02351 
 H(Fragment=1)         0.        0.91872  -1.02351 
 Kr(Fragment=2)        0.       R1        0. 
       Variables:
  R1                    3.     Scan 20    0.1    
 
 NAtoms=      5 NQM=        0 NQMF=       0 NMMI=      5 NMMIF=      0
                NMic=       0 NMicF=      0.
                    Isotopes and Nuclear Properties:
 (Nuclear quadrupole moments (NQMom) in fm**2, nuclear magnetic moments (NMagM)
  in nuclear magnetons)

  Atom         1           2           3           4           5
 IAtWgt=          16          16           1           1          84
 AtmWgt=  15.9949146  15.9949146   1.0078250   1.0078250  83.9115064
 NucSpn=           0           0           1           1           0
 AtZEff=   0.0000000   0.0000000   0.0000000   0.0000000   0.0000000
 NQMom=    0.0000000   0.0000000   0.0000000   0.0000000   0.0000000
 NMagM=    0.0000000   0.0000000   2.7928460   2.7928460   0.0000000
 Leave Link  101 at Wed May 13 23:09:31 2020, MaxMem= 1073741824 cpu:       0.3
 (Enter /home/matheus/.gaussian/g09/l108.exe)
 Scan the potential surface.
 Variable   Value     No. Steps Step-Size
 -------- ----------- --------- ---------
     1       3.000000      20      0.1000
 A total of     21 points will be computed.
 Leave Link  108 at Wed May 13 23:09:31 2020, MaxMem= 1073741824 cpu:       0.0
 (Enter /home/matheus/.gaussian/g09/l202.exe)
 ---------------------------------------------------------------------------------------------------
                            Z-MATRIX (ANGSTROMS AND DEGREES)
   CD    Cent   Atom    N1       Length/X        N2       Alpha/Y        N3        Beta/Z          J
 ---------------------------------------------------------------------------------------------------
      1      1  O        0   0.000000          0.000000          0.725000
      2      2  O        0   0.000000          0.000000         -0.725000
      3      3  H        0  -0.863315          0.314221          1.023510
      4      4  H        0   0.000000          0.918721         -1.023510
      5      5  Kr       0   0.000000          3.000000          0.000000
 ---------------------------------------------------------------------------------------------------
                         Z-Matrix orientation:                         
 ---------------------------------------------------------------------
 Center     Atomic      Atomic             Coordinates (Angstroms)
 Number     Number       Type             X           Y           Z
 ---------------------------------------------------------------------
      1          8           0        0.000000    0.000000    0.725000
      2          8           0        0.000000    0.000000   -0.725000
      3          1           0       -0.863315    0.314221    1.023510
      4          1           0        0.000000    0.918721   -1.023510
      5         36           0        0.000000    3.000000    0.000000
 ---------------------------------------------------------------------
                    Distance matrix (angstroms):
                    1          2          3          4          5
     1  O    0.000000
     2  O    1.450000   0.000000
     3  H    0.966000   1.975180   0.000000
     4  H    1.975180   0.966000   2.302396   0.000000
     5  Kr   3.086361   3.086361   3.001049   2.319331   0.000000
 Stoichiometry    H2KrO2
 Framework group  C1[X(H2KrO2)]
 Deg. of freedom     9
 Full point group                 C1      NOp   1
 Largest Abelian subgroup         C1      NOp   1
 Largest concise Abelian subgroup C1      NOp   1
                         Standard orientation:                         
 ---------------------------------------------------------------------
 Center     Atomic      Atomic             Coordinates (Angstroms)
 Number     Number       Type             X           Y           Z
 ---------------------------------------------------------------------
      1          8           0       -2.027244   -0.704579   -0.107619
      2          8           0       -2.017454    0.739726    0.020400
      3          1           0       -1.727457   -1.080559    0.730189
      4          1           0       -1.096833    1.029722    0.059329
      5         36           0        0.977274   -0.006398   -0.002549
 ---------------------------------------------------------------------
 Rotational constants (GHZ):     25.7099481      2.3602095      2.1745891
 Leave Link  202 at Wed May 13 23:09:31 2020, MaxMem= 1073741824 cpu:       0.0
 (Enter /home/matheus/.gaussian/g09/l122.exe)
 Leave Link  122 at Wed May 13 23:09:31 2020, MaxMem= 1073741824 cpu:       0.0
 (Enter /home/matheus/.gaussian/g09/l301.exe)
 Standard basis: Aug-CC-pVTZ (5D, 7F)
 Ernie: Thresh=  0.10000D-02 Tol=  0.10000D-05 Strict=F.
 Ernie:  38 primitive shells out of 205 were deleted.
 There are   197 symmetry adapted basis functions of A   symmetry.
 Integral buffers will be    131072 words long.
 Raffenetti 2 integral format.
 Two-electron integral symmetry is turned on.
   197 basis functions,   415 primitive gaussians,   229 cartesian basis functions
    27 alpha electrons       27 beta electrons
       nuclear repulsion energy       149.9587672391 Hartrees.
 IExCor=10402 DFT=T Ex=LC-B+HF Corr=LYP ExCW=0 ScaHFX=  1.000000
 ScaDFX=  1.000000  1.000000  1.000000  1.000000 ScalE2=  1.000000  1.000000
 IRadAn=      5 IRanWt=     -1 IRanGd=            0 ICorTp=0
  HFx wShort=  0.000000 wLong=  0.470000 cFull=  0.000000 cShort=  0.000000 cLong=  1.000000
  DFx wShort=  0.000000 wLong=  0.470000 cFull=  0.000000 cShort=  0.000000 cLong=  1.000000
 NAtoms=    5 NActive=    5 NUniq=    5 SFac= 1.00D+00 NAtFMM=   60 NAOKFM=F Big=F
 Leave Link  301 at Wed May 13 23:09:31 2020, MaxMem= 1073741824 cpu:       0.2
 (Enter /home/matheus/.gaussian/g09/l302.exe)
 NPDir=0 NMtPBC=     1 NCelOv=     1 NCel=       1 NClECP=     1 NCelD=      1
         NCelK=      1 NCelE2=     1 NClLst=     1 CellRange=     0.0.
 One-electron integrals computed using PRISM.
 NBasis=   197 RedAO= T  NBF=   197
 NBsUse=   197 1.00D-06 NBFU=   197
 Precomputing XC quadrature grid using
 IXCGrd= 2 IRadAn=           5 IRanWt=          -1 IRanGd=           0 AccXCQ= 0.00D+00.
 NRdTot=     427 NPtTot=      123512 NUsed=      126579 NTot=      126611
 NSgBfM=   229   229   229   229   229 NAtAll=     5     5.
 Leave Link  302 at Wed May 13 23:09:31 2020, MaxMem= 1073741824 cpu:       1.0
 (Enter /home/matheus/.gaussian/g09/l303.exe)
 DipDrv:  MaxL=1.
 Leave Link  303 at Wed May 13 23:09:31 2020, MaxMem= 1073741824 cpu:       0.2
 (Enter /home/matheus/.gaussian/g09/l401.exe)
 Harris functional with IExCor=10402 diagonalized for initial guess.
 ExpMin= 2.53D-02 ExpMax= 1.17D+07 ExpMxC= 1.33D+04 IAcc=3 IRadAn=         5 AccDes= 0.00D+00
 HarFok:  IExCor=10402 AccDes= 0.00D+00 IRadAn=         5 IDoV= 1
 ScaDFX=  1.000000  1.000000  1.000000  1.000000
 FoFCou: FMM=F IPFlag=           0 FMFlag=      100000 FMFlg1=           0
         NFxFlg=           0 DoJE=T BraDBF=F KetDBF=T FulRan=T
         Omega=  0.000000  0.000000  1.000000  0.000000  0.000000 ICntrl=     500 IOpCl=  0
         NMat0=    1 NMatS0=    1 NMatT0=    0 NMatD0=    1 NMtDS0=    0 NMtDT0=    0
         I1Cent=           4 NGrid=           0.
 Petite list used in FoFCou.
 Harris En= -2891.67098180054    
 Initial guess orbital symmetries:
       Occupied  (A) (A) (A) (A) (A) (A) (A) (A) (A) (A) (A) (A)
                 (A) (A) (A) (A) (A) (A) (A) (A) (A) (A) (A) (A)
                 (A) (A) (A)
       Virtual   (A) (A) (A) (A) (A) (A) (A) (A) (A) (A) (A) (A)
                 (A) (A) (A) (A) (A) (A) (A) (A) (A) (A) (A) (A)
                 (A) (A) (A) (A) (A) (A) (A) (A) (A) (A) (A) (A)
                 (A) (A) (A) (A) (A) (A) (A) (A) (A) (A) (A) (A)
                 (A) (A) (A) (A) (A) (A) (A) (A) (A) (A) (A) (A)
                 (A) (A) (A) (A) (A) (A) (A) (A) (A) (A) (A) (A)
                 (A) (A) (A) (A) (A) (A) (A) (A) (A) (A) (A) (A)
                 (A) (A) (A) (A) (A) (A) (A) (A) (A) (A) (A) (A)
                 (A) (A) (A) (A) (A) (A) (A) (A) (A) (A) (A) (A)
                 (A) (A) (A) (A) (A) (A) (A) (A) (A) (A) (A) (A)
                 (A) (A) (A) (A) (A) (A) (A) (A) (A) (A) (A) (A)
                 (A) (A) (A) (A) (A) (A) (A) (A) (A) (A) (A) (A)
                 (A) (A) (A) (A) (A) (A) (A) (A) (A) (A) (A) (A)
                 (A) (A) (A) (A) (A) (A) (A) (A) (A) (A) (A) (A)
                 (A) (A)
 The electronic state of the initial guess is 1-A.
 Leave Link  401 at Wed May 13 23:09:32 2020, MaxMem= 1073741824 cpu:       4.7
 (Enter /home/matheus/.gaussian/g09/l502.exe)
 Closed shell SCF:
 Requested convergence on RMS density matrix=1.00D-08 within 128 cycles.
 Requested convergence on MAX density matrix=1.00D-06.
 Requested convergence on             energy=1.00D-06.
 No special actions if energy rises.
 Using DIIS extrapolation, IDIIS=  1040.
 Integral symmetry usage will be decided dynamically.
       126521 words used for storage of precomputed grid.
 IEnd=      305468 IEndB=      305468 NGot=  1073741824 MDV=  1073505667
 LenX=  1073505667 LenY=  1073452785
 Fock matrices will be formed incrementally for  20 cycles.

 Cycle   1  Pass 1  IDiag  1:
 FoFJK:  IHMeth= 1 ICntrl=     0 DoSepK=T KAlg= 1 I1Cent= 0 FoldK=F
 FoFCou: FMM=F IPFlag=           0 FMFlag=      100000 FMFlg1=           0
         NFxFlg=           0 DoJE=T BraDBF=F KetDBF=F FulRan=T
         Omega=  0.000000  0.000000  1.000000  0.000000  0.000000 ICntrl=     500 IOpCl=  0
         NMat0=    1 NMatS0=    1 NMatT0=    0 NMatD0=    1 NMtDS0=    0 NMtDT0=    0
         I1Cent=           0 NGrid=           0.
 Symmetry not used in FoFCou.
 E= -2904.63208618366    
 DIIS: error= 2.72D-02 at cycle   1 NSaved=   1.
 NSaved= 1 IEnMin= 1 EnMin= -2904.63208618366     IErMin= 1 ErrMin= 2.72D-02
 ErrMax= 2.72D-02 EMaxC= 1.00D-01 BMatC= 2.86D-01 BMatP= 2.86D-01
 IDIUse=3 WtCom= 7.28D-01 WtEn= 2.72D-01
 Coeff-Com:  0.100D+01
 Coeff-En:   0.100D+01
 Coeff:      0.100D+01
 Gap=     0.489 Goal=   None    Shift=    0.000
 GapD=    0.489 DampG=2.000 DampE=0.500 DampFc=1.0000 IDamp=-1.
 RMSDP=2.64D-03 MaxDP=1.53D-01              OVMax= 1.06D-01

 Cycle   2  Pass 1  IDiag  1:
 RMSU=  1.82D-03    CP:  1.02D+00
 FoFJK:  IHMeth= 1 ICntrl=     0 DoSepK=T KAlg= 1 I1Cent= 0 FoldK=F
 E= -2904.70921477941     Delta-E=       -0.077128595745 Rises=F Damp=F
 DIIS: error= 1.34D-02 at cycle   2 NSaved=   2.
 NSaved= 2 IEnMin= 2 EnMin= -2904.70921477941     IErMin= 2 ErrMin= 1.34D-02
 ErrMax= 1.34D-02 EMaxC= 1.00D-01 BMatC= 9.34D-02 BMatP= 2.86D-01
 IDIUse=3 WtCom= 8.66D-01 WtEn= 1.34D-01
 Coeff-Com:  0.359D+00 0.641D+00
 Coeff-En:   0.280D-01 0.972D+00
 Coeff:      0.314D+00 0.686D+00
 Gap=     0.454 Goal=   None    Shift=    0.000
 RMSDP=1.02D-03 MaxDP=6.26D-02 DE=-7.71D-02 OVMax= 3.20D-02

 Cycle   3  Pass 1  IDiag  1:
 RMSU=  3.26D-04    CP:  1.01D+00  6.59D-01
 FoFJK:  IHMeth= 1 ICntrl=     0 DoSepK=T KAlg= 1 I1Cent= 0 FoldK=F
 E= -2904.74017639783     Delta-E=       -0.030961618420 Rises=F Damp=F
 DIIS: error= 1.39D-03 at cycle   3 NSaved=   3.
 NSaved= 3 IEnMin= 3 EnMin= -2904.74017639783     IErMin= 3 ErrMin= 1.39D-03
 ErrMax= 1.39D-03 EMaxC= 1.00D-01 BMatC= 1.23D-03 BMatP= 9.34D-02
 IDIUse=3 WtCom= 9.86D-01 WtEn= 1.39D-02
 Coeff-Com:  0.532D-02 0.102D+00 0.893D+00
 Coeff-En:   0.000D+00 0.000D+00 0.100D+01
 Coeff:      0.524D-02 0.101D+00 0.894D+00
 Gap=     0.458 Goal=   None    Shift=    0.000
 RMSDP=1.52D-04 MaxDP=6.35D-03 DE=-3.10D-02 OVMax= 6.75D-03

 Cycle   4  Pass 1  IDiag  1:
 RMSU=  6.66D-05    CP:  1.02D+00  7.01D-01  1.10D+00
 FoFJK:  IHMeth= 1 ICntrl=     0 DoSepK=T KAlg= 1 I1Cent= 0 FoldK=F
 E= -2904.74069341036     Delta-E=       -0.000517012533 Rises=F Damp=F
 DIIS: error= 4.21D-04 at cycle   4 NSaved=   4.
 NSaved= 4 IEnMin= 4 EnMin= -2904.74069341036     IErMin= 4 ErrMin= 4.21D-04
 ErrMax= 4.21D-04 EMaxC= 1.00D-01 BMatC= 7.84D-05 BMatP= 1.23D-03
 IDIUse=3 WtCom= 9.96D-01 WtEn= 4.21D-03
 Coeff-Com: -0.120D-01 0.117D-01 0.303D+00 0.697D+00
 Coeff-En:   0.000D+00 0.000D+00 0.000D+00 0.100D+01
 Coeff:     -0.119D-01 0.117D-01 0.302D+00 0.699D+00
 Gap=     0.455 Goal=   None    Shift=    0.000
 RMSDP=3.73D-05 MaxDP=1.53D-03 DE=-5.17D-04 OVMax= 1.94D-03

 Cycle   5  Pass 1  IDiag  1:
 RMSU=  2.09D-05    CP:  1.02D+00  7.04D-01  1.15D+00  9.71D-01
 FoFJK:  IHMeth= 1 ICntrl=     0 DoSepK=T KAlg= 1 I1Cent= 0 FoldK=F
 E= -2904.74074549734     Delta-E=       -0.000052086982 Rises=F Damp=F
 DIIS: error= 1.53D-04 at cycle   5 NSaved=   5.
 NSaved= 5 IEnMin= 5 EnMin= -2904.74074549734     IErMin= 5 ErrMin= 1.53D-04
 ErrMax= 1.53D-04 EMaxC= 1.00D-01 BMatC= 8.97D-06 BMatP= 7.84D-05
 IDIUse=3 WtCom= 9.98D-01 WtEn= 1.53D-03
 Coeff-Com: -0.378D-02-0.652D-02-0.573D-02 0.232D+00 0.784D+00
 Coeff-En:   0.000D+00 0.000D+00 0.000D+00 0.000D+00 0.100D+01
 Coeff:     -0.378D-02-0.651D-02-0.572D-02 0.232D+00 0.784D+00
 Gap=     0.456 Goal=   None    Shift=    0.000
 RMSDP=1.51D-05 MaxDP=5.10D-04 DE=-5.21D-05 OVMax= 9.62D-04

 Cycle   6  Pass 1  IDiag  1:
 RMSU=  6.22D-06    CP:  1.02D+00  7.05D-01  1.16D+00  1.06D+00  9.99D-01
 FoFJK:  IHMeth= 1 ICntrl=     0 DoSepK=T KAlg= 1 I1Cent= 0 FoldK=F
 E= -2904.74075279051     Delta-E=       -0.000007293162 Rises=F Damp=F
 DIIS: error= 5.99D-05 at cycle   6 NSaved=   6.
 NSaved= 6 IEnMin= 6 EnMin= -2904.74075279051     IErMin= 6 ErrMin= 5.99D-05
 ErrMax= 5.99D-05 EMaxC= 1.00D-01 BMatC= 1.45D-06 BMatP= 8.97D-06
 IDIUse=1 WtCom= 1.00D+00 WtEn= 0.00D+00
 Coeff-Com: -0.558D-03-0.380D-02-0.255D-01 0.327D-01 0.321D+00 0.676D+00
 Coeff:     -0.558D-03-0.380D-02-0.255D-01 0.327D-01 0.321D+00 0.676D+00
 Gap=     0.456 Goal=   None    Shift=    0.000
 RMSDP=5.37D-06 MaxDP=1.89D-04 DE=-7.29D-06 OVMax= 3.39D-04

 Cycle   7  Pass 1  IDiag  1:
 RMSU=  2.40D-06    CP:  1.02D+00  7.05D-01  1.17D+00  1.09D+00  1.08D+00
                    CP:  9.69D-01
 FoFJK:  IHMeth= 1 ICntrl=     0 DoSepK=T KAlg= 1 I1Cent= 0 FoldK=F
 E= -2904.74075382896     Delta-E=       -0.000001038455 Rises=F Damp=F
 DIIS: error= 2.11D-05 at cycle   7 NSaved=   7.
 NSaved= 7 IEnMin= 7 EnMin= -2904.74075382896     IErMin= 7 ErrMin= 2.11D-05
 ErrMax= 2.11D-05 EMaxC= 1.00D-01 BMatC= 2.00D-07 BMatP= 1.45D-06
 IDIUse=1 WtCom= 1.00D+00 WtEn= 0.00D+00
 Coeff-Com:  0.146D-03-0.118D-02-0.105D-01-0.210D-01 0.170D-01 0.288D+00
 Coeff-Com:  0.728D+00
 Coeff:      0.146D-03-0.118D-02-0.105D-01-0.210D-01 0.170D-01 0.288D+00
 Coeff:      0.728D+00
 Gap=     0.456 Goal=   None    Shift=    0.000
 RMSDP=2.01D-06 MaxDP=5.46D-05 DE=-1.04D-06 OVMax= 1.11D-04

 Cycle   8  Pass 1  IDiag  1:
 RMSU=  6.41D-07    CP:  1.02D+00  7.05D-01  1.17D+00  1.10D+00  1.11D+00
                    CP:  1.08D+00  9.37D-01
 FoFJK:  IHMeth= 1 ICntrl=     0 DoSepK=T KAlg= 1 I1Cent= 0 FoldK=F
 E= -2904.74075399727     Delta-E=       -0.000000168310 Rises=F Damp=F
 DIIS: error= 3.55D-06 at cycle   8 NSaved=   8.
 NSaved= 8 IEnMin= 8 EnMin= -2904.74075399727     IErMin= 8 ErrMin= 3.55D-06
 ErrMax= 3.55D-06 EMaxC= 1.00D-01 BMatC= 2.98D-09 BMatP= 2.00D-07
 IDIUse=1 WtCom= 1.00D+00 WtEn= 0.00D+00
 Coeff-Com:  0.186D-04 0.281D-03 0.221D-02-0.171D-03-0.213D-01-0.613D-01
 Coeff-Com: -0.513D-01 0.113D+01
 Coeff:      0.186D-04 0.281D-03 0.221D-02-0.171D-03-0.213D-01-0.613D-01
 Coeff:     -0.513D-01 0.113D+01
 Gap=     0.456 Goal=   None    Shift=    0.000
 RMSDP=5.74D-07 MaxDP=1.44D-05 DE=-1.68D-07 OVMax= 5.00D-05

 Cycle   9  Pass 1  IDiag  1:
 RMSU=  1.64D-07    CP:  1.02D+00  7.05D-01  1.17D+00  1.10D+00  1.12D+00
                    CP:  1.11D+00  1.00D+00  1.33D+00
 FoFJK:  IHMeth= 1 ICntrl=     0 DoSepK=T KAlg= 1 I1Cent= 0 FoldK=F
 E= -2904.74075400597     Delta-E=       -0.000000008704 Rises=F Damp=F
 DIIS: error= 7.97D-07 at cycle   9 NSaved=   9.
 NSaved= 9 IEnMin= 9 EnMin= -2904.74075400597     IErMin= 9 ErrMin= 7.97D-07
 ErrMax= 7.97D-07 EMaxC= 1.00D-01 BMatC= 2.26D-10 BMatP= 2.98D-09
 IDIUse=1 WtCom= 1.00D+00 WtEn= 0.00D+00
 Coeff-Com: -0.295D-05 0.126D-03 0.834D-03 0.145D-02-0.230D-02-0.233D-01
 Coeff-Com: -0.530D-01 0.872D-01 0.989D+00
 Coeff:     -0.295D-05 0.126D-03 0.834D-03 0.145D-02-0.230D-02-0.233D-01
 Coeff:     -0.530D-01 0.872D-01 0.989D+00
 Gap=     0.456 Goal=   None    Shift=    0.000
 RMSDP=1.30D-07 MaxDP=3.33D-06 DE=-8.70D-09 OVMax= 1.11D-05

 Cycle  10  Pass 1  IDiag  1:
 RMSU=  4.76D-08    CP:  1.02D+00  7.05D-01  1.17D+00  1.10D+00  1.12D+00
                    CP:  1.11D+00  1.01D+00  1.41D+00  1.21D+00
 FoFJK:  IHMeth= 1 ICntrl=     0 DoSepK=T KAlg= 1 I1Cent= 0 FoldK=F
 E= -2904.74075400654     Delta-E=       -0.000000000568 Rises=F Damp=F
 DIIS: error= 2.33D-07 at cycle  10 NSaved=  10.
 NSaved=10 IEnMin=10 EnMin= -2904.74075400654     IErMin=10 ErrMin= 2.33D-07
 ErrMax= 2.33D-07 EMaxC= 1.00D-01 BMatC= 1.15D-11 BMatP= 2.26D-10
 IDIUse=1 WtCom= 1.00D+00 WtEn= 0.00D+00
 Coeff-Com: -0.109D-06-0.157D-04-0.138D-03-0.254D-04 0.115D-02 0.388D-02
 Coeff-Com:  0.467D-02-0.690D-01 0.210D-02 0.106D+01
 Coeff:     -0.109D-06-0.157D-04-0.138D-03-0.254D-04 0.115D-02 0.388D-02
 Coeff:      0.467D-02-0.690D-01 0.210D-02 0.106D+01
 Gap=     0.456 Goal=   None    Shift=    0.000
 RMSDP=3.74D-08 MaxDP=8.97D-07 DE=-5.68D-10 OVMax= 3.58D-06

 Cycle  11  Pass 1  IDiag  1:
 RMSU=  1.25D-08    CP:  1.02D+00  7.05D-01  1.17D+00  1.10D+00  1.12D+00
                    CP:  1.11D+00  1.01D+00  1.42D+00  1.30D+00  1.27D+00
 FoFJK:  IHMeth= 1 ICntrl=     0 DoSepK=T KAlg= 1 I1Cent= 0 FoldK=F
 E= -2904.74075400658     Delta-E=       -0.000000000039 Rises=F Damp=F
 DIIS: error= 8.03D-08 at cycle  11 NSaved=  11.
 NSaved=11 IEnMin=11 EnMin= -2904.74075400658     IErMin=11 ErrMin= 8.03D-08
 ErrMax= 8.03D-08 EMaxC= 1.00D-01 BMatC= 1.13D-12 BMatP= 1.15D-11
 IDIUse=1 WtCom= 1.00D+00 WtEn= 0.00D+00
 Coeff-Com: -0.190D-06-0.111D-04-0.618D-04-0.105D-03 0.114D-03 0.163D-02
 Coeff-Com:  0.426D-02-0.462D-02-0.734D-01-0.709D-01 0.114D+01
 Coeff:     -0.190D-06-0.111D-04-0.618D-04-0.105D-03 0.114D-03 0.163D-02
 Coeff:      0.426D-02-0.462D-02-0.734D-01-0.709D-01 0.114D+01
 Gap=     0.456 Goal=   None    Shift=    0.000
 RMSDP=1.30D-08 MaxDP=3.09D-07 DE=-3.91D-11 OVMax= 1.60D-06

 Cycle  12  Pass 1  IDiag  1:
 RMSU=  3.69D-09    CP:  1.02D+00  7.05D-01  1.17D+00  1.10D+00  1.12D+00
                    CP:  1.11D+00  1.01D+00  1.42D+00  1.32D+00  1.38D+00
                    CP:  1.39D+00
 FoFJK:  IHMeth= 1 ICntrl=     0 DoSepK=T KAlg= 1 I1Cent= 0 FoldK=F
 E= -2904.74075400661     Delta-E=       -0.000000000033 Rises=F Damp=F
 DIIS: error= 2.52D-08 at cycle  12 NSaved=  12.
 NSaved=12 IEnMin=12 EnMin= -2904.74075400661     IErMin=12 ErrMin= 2.52D-08
 ErrMax= 2.52D-08 EMaxC= 1.00D-01 BMatC= 1.15D-13 BMatP= 1.13D-12
 IDIUse=1 WtCom= 1.00D+00 WtEn= 0.00D+00
 Coeff-Com:  0.126D-06 0.328D-05 0.214D-04 0.132D-04-0.120D-03-0.594D-03
 Coeff-Com: -0.951D-03 0.718D-02 0.100D-01-0.945D-01-0.126D+00 0.120D+01
 Coeff:      0.126D-06 0.328D-05 0.214D-04 0.132D-04-0.120D-03-0.594D-03
 Coeff:     -0.951D-03 0.718D-02 0.100D-01-0.945D-01-0.126D+00 0.120D+01
 Gap=     0.456 Goal=   None    Shift=    0.000
 RMSDP=4.42D-09 MaxDP=8.19D-08 DE=-3.32D-11 OVMax= 6.56D-07

 SCF Done:  E(RLC-B+HF-LYP) =  -2904.74075401     A.U. after   12 cycles
             Convg  =    0.4422D-08             -V/T =  2.0017
 KE= 2.899841775610D+03 PE=-7.235894801680D+03 EE= 1.281353504824D+03
 Leave Link  502 at Wed May 13 23:10:17 2020, MaxMem= 1073741824 cpu:     359.8
 (Enter /home/matheus/.gaussian/g09/l601.exe)
 Copying SCF densities to generalized density rwf, IOpCl= 0 IROHF=0.

 **********************************************************************

            Population analysis using the SCF density.

 **********************************************************************

 Orbital symmetries:
       Occupied  (A) (A) (A) (A) (A) (A) (A) (A) (A) (A) (A) (A)
                 (A) (A) (A) (A) (A) (A) (A) (A) (A) (A) (A) (A)
                 (A) (A) (A)
       Virtual   (A) (A) (A) (A) (A) (A) (A) (A) (A) (A) (A) (A)
                 (A) (A) (A) (A) (A) (A) (A) (A) (A) (A) (A) (A)
                 (A) (A) (A) (A) (A) (A) (A) (A) (A) (A) (A) (A)
                 (A) (A) (A) (A) (A) (A) (A) (A) (A) (A) (A) (A)
                 (A) (A) (A) (A) (A) (A) (A) (A) (A) (A) (A) (A)
                 (A) (A) (A) (A) (A) (A) (A) (A) (A) (A) (A) (A)
                 (A) (A) (A) (A) (A) (A) (A) (A) (A) (A) (A) (A)
                 (A) (A) (A) (A) (A) (A) (A) (A) (A) (A) (A) (A)
                 (A) (A) (A) (A) (A) (A) (A) (A) (A) (A) (A) (A)
                 (A) (A) (A) (A) (A) (A) (A) (A) (A) (A) (A) (A)
                 (A) (A) (A) (A) (A) (A) (A) (A) (A) (A) (A) (A)
                 (A) (A) (A) (A) (A) (A) (A) (A) (A) (A) (A) (A)
                 (A) (A) (A) (A) (A) (A) (A) (A) (A) (A) (A) (A)
                 (A) (A) (A) (A) (A) (A) (A) (A) (A) (A) (A) (A)
                 (A) (A)
 The electronic state is 1-A.
 Alpha  occ. eigenvalues -- -511.26512 -66.73511 -60.42043 -60.42030 -60.42019
 Alpha  occ. eigenvalues --  -19.07388 -19.07071  -9.62667  -7.38155  -7.38117
 Alpha  occ. eigenvalues --   -7.38084  -3.34489  -3.34482  -3.34459  -3.34430
 Alpha  occ. eigenvalues --   -3.34427  -1.28505  -1.08476  -1.06290  -0.71738
 Alpha  occ. eigenvalues --   -0.61612  -0.57784  -0.53824  -0.53397  -0.52482
 Alpha  occ. eigenvalues --   -0.46856  -0.43215
 Alpha virt. eigenvalues --    0.02342   0.03570   0.07419   0.08515   0.09846
 Alpha virt. eigenvalues --    0.10633   0.12258   0.13273   0.16271   0.16740
 Alpha virt. eigenvalues --    0.17191   0.18994   0.19096   0.21163   0.22726
 Alpha virt. eigenvalues --    0.23790   0.24875   0.27858   0.30411   0.31267
 Alpha virt. eigenvalues --    0.32662   0.34407   0.36434   0.38066   0.38802
 Alpha virt. eigenvalues --    0.39989   0.42239   0.46604   0.52434   0.54073
 Alpha virt. eigenvalues --    0.55183   0.59753   0.61058   0.63527   0.67720
 Alpha virt. eigenvalues --    0.70692   0.71558   0.73238   0.75618   0.76008
 Alpha virt. eigenvalues --    0.76874   0.77490   0.79769   0.80395   0.83101
 Alpha virt. eigenvalues --    0.84098   0.86358   0.88029   0.89763   0.91002
 Alpha virt. eigenvalues --    0.91453   0.93749   0.94549   0.96420   0.98239
 Alpha virt. eigenvalues --    0.98824   1.03320   1.06475   1.07849   1.10189
 Alpha virt. eigenvalues --    1.10852   1.14611   1.17261   1.22599   1.24755
 Alpha virt. eigenvalues --    1.26264   1.32770   1.36574   1.38278   1.41322
 Alpha virt. eigenvalues --    1.43274   1.48245   1.50543   1.55198   1.59646
 Alpha virt. eigenvalues --    1.69532   1.70448   1.84015   1.93406   1.94837
 Alpha virt. eigenvalues --    2.02215   2.04014   2.07271   2.10956   2.14341
 Alpha virt. eigenvalues --    2.16685   2.19493   2.21671   2.23836   2.26953
 Alpha virt. eigenvalues --    2.27878   2.30819   2.31460   2.32529   2.34427
 Alpha virt. eigenvalues --    2.37370   2.39825   2.45941   2.49562   2.50499
 Alpha virt. eigenvalues --    2.51173   2.52157   2.54139   2.58861   2.59311
 Alpha virt. eigenvalues --    2.61471   2.64143   2.66606   2.72537   2.72633
 Alpha virt. eigenvalues --    2.74071   2.77069   2.79831   2.85949   2.90187
 Alpha virt. eigenvalues --    2.96576   3.04027   3.10482   3.14002   3.62669
 Alpha virt. eigenvalues --    3.70316   3.94738   3.95680   4.00213   4.08119
 Alpha virt. eigenvalues --    4.11418   4.15441   4.25893   4.26455   4.30509
 Alpha virt. eigenvalues --    4.38632   4.48657   4.52364   4.58380   4.73409
 Alpha virt. eigenvalues --    4.96229   4.98921   5.01769   5.14970   5.17943
 Alpha virt. eigenvalues --    5.20592   5.43687   5.86297   6.02871   6.15806
 Alpha virt. eigenvalues --    6.22614   6.27829   6.34877   6.44173   6.52147
 Alpha virt. eigenvalues --    6.64273   6.76721   6.78292   6.83398   6.86418
 Alpha virt. eigenvalues --    6.90874   6.91978   6.94276   6.97991   7.03175
 Alpha virt. eigenvalues --    7.08557   7.14292   7.24958   7.47759   7.54495
 Alpha virt. eigenvalues --    7.80394   8.08725   8.13835  14.04804  14.58483
          Condensed to atoms (all electrons):
              1          2          3          4          5
     1  O    8.253337  -0.188226   0.168811   0.011268  -0.028215
     2  O   -0.188226   8.198346   0.027233   0.198014  -0.017474
     3  H    0.168811   0.027233   0.595623  -0.005558  -0.002088
     4  H    0.011268   0.198014  -0.005558   0.596732  -0.003397
     5  Kr  -0.028215  -0.017474  -0.002088  -0.003397  36.035223
 Mulliken atomic charges:
              1
     1  O   -0.216976
     2  O   -0.217894
     3  H    0.215979
     4  H    0.202941
     5  Kr   0.015950
 Sum of Mulliken atomic charges =   0.00000
 Mulliken charges with hydrogens summed into heavy atoms:
              1
     1  O   -0.000997
     2  O   -0.014953
     5  Kr   0.015950
 Sum of Mulliken charges with hydrogens summed into heavy atoms =   0.00000
          Condensed to fragments (all electrons):
     1      -0.015950
     2       0.015950
 Electronic spatial extent (au):  <R**2>=            482.0040
 Charge=              0.0000 electrons
 Dipole moment (field-independent basis, Debye):
    X=              2.4467    Y=             -0.3402    Z=              1.4072  Tot=              2.8430
 Quadrupole moment (field-independent basis, Debye-Ang):
   XX=            -37.2273   YY=            -28.2236   ZZ=            -29.4381
   XY=              1.5716   XZ=             -2.5337   YZ=             -1.7964
 Traceless Quadrupole moment (field-independent basis, Debye-Ang):
   XX=             -5.5976   YY=              3.4061   ZZ=              2.1916
   XY=              1.5716   XZ=             -2.5337   YZ=             -1.7964
 Octapole moment (field-independent basis, Debye-Ang**2):
  XXX=             41.8587  YYY=             -0.9478  ZZZ=              0.9931  XYY=              6.4447
  XXY=             -4.3903  XXZ=              3.7224  XZZ=              6.3913  YZZ=             -1.7046
  YYZ=              2.2231  XYZ=              3.1866
 Hexadecapole moment (field-independent basis, Debye-Ang**3):
 XXXX=           -469.4130 YYYY=            -64.7269 ZZZZ=            -30.7378 XXXY=              7.7961
 XXXZ=             -6.5357 YYYX=              3.0202 YYYZ=             -2.6673 ZZZX=             -2.2128
 ZZZY=             -1.8774 XXYY=            -84.7793 XXZZ=            -74.2809 YYZZ=            -16.4694
 XXYZ=             -5.7941 YYXZ=             -3.8666 ZZXY=              2.9060
 N-N= 1.499587672391D+02 E-N=-7.235894803912D+03  KE= 2.899841775610D+03
 No NMR shielding tensors so no spin-rotation constants.
 Leave Link  601 at Wed May 13 23:10:17 2020, MaxMem= 1073741824 cpu:       1.0
 (Enter /home/matheus/.gaussian/g09/l122.exe)
 Counterpoise: doing DCBS calculation for fragment   1 NewBq=T
 Leave Link  122 at Wed May 13 23:10:17 2020, MaxMem= 1073741824 cpu:       0.0
 (Enter /home/matheus/.gaussian/g09/l301.exe)
 Basis read from rwf:  (5D, 7F)
 No pseudopotential information found on rwf file.
 There are   197 symmetry adapted basis functions of A   symmetry.
 Integral buffers will be    131072 words long.
 Raffenetti 2 integral format.
 Two-electron integral symmetry is turned on.
   197 basis functions,   415 primitive gaussians,   229 cartesian basis functions
     9 alpha electrons        9 beta electrons
       nuclear repulsion energy        36.6380791177 Hartrees.
 IExCor=10402 DFT=T Ex=LC-B+HF Corr=LYP ExCW=0 ScaHFX=  1.000000
 ScaDFX=  1.000000  1.000000  1.000000  1.000000 ScalE2=  1.000000  1.000000
 IRadAn=      5 IRanWt=     -1 IRanGd=            0 ICorTp=0
  HFx wShort=  0.000000 wLong=  0.470000 cFull=  0.000000 cShort=  0.000000 cLong=  1.000000
  DFx wShort=  0.000000 wLong=  0.470000 cFull=  0.000000 cShort=  0.000000 cLong=  1.000000
 NAtoms=    5 NActive=    5 NUniq=    5 SFac= 1.00D+00 NAtFMM=   60 NAOKFM=F Big=F
 No density basis found on file   718.
 Leave Link  301 at Wed May 13 23:10:17 2020, MaxMem= 1073741824 cpu:       0.2
 (Enter /home/matheus/.gaussian/g09/l302.exe)
 NPDir=0 NMtPBC=     1 NCelOv=     1 NCel=       1 NClECP=     1 NCelD=      1
         NCelK=      1 NCelE2=     1 NClLst=     1 CellRange=     0.0.
 One-electron integrals computed using PRISM.
 NBasis=   197 RedAO= T  NBF=   197
 NBsUse=   197 1.00D-06 NBFU=   197
 Precomputing XC quadrature grid using
 IXCGrd= 2 IRadAn=           5 IRanWt=          -1 IRanGd=           0 AccXCQ= 0.00D+00.
 NRdTot=     427 NPtTot=      123512 NUsed=      126579 NTot=      126611
 NSgBfM=   229   229   229   229   229 NAtAll=     5     5.
 Leave Link  302 at Wed May 13 23:10:17 2020, MaxMem= 1073741824 cpu:       1.2
 (Enter /home/matheus/.gaussian/g09/l303.exe)
 DipDrv:  MaxL=1.
 Leave Link  303 at Wed May 13 23:10:17 2020, MaxMem= 1073741824 cpu:       0.2
 (Enter /home/matheus/.gaussian/g09/l401.exe)
 Harris functional with IExCor=10402 diagonalized for initial guess.
 ExpMin= 2.53D-02 ExpMax= 1.17D+07 ExpMxC= 1.33D+04 IAcc=3 IRadAn=         5 AccDes= 0.00D+00
 HarFok:  IExCor=10402 AccDes= 0.00D+00 IRadAn=         5 IDoV= 1
 ScaDFX=  1.000000  1.000000  1.000000  1.000000
 FoFCou: FMM=F IPFlag=           0 FMFlag=      100000 FMFlg1=           0
         NFxFlg=           0 DoJE=T BraDBF=F KetDBF=T FulRan=T
         Omega=  0.000000  0.000000  1.000000  0.000000  0.000000 ICntrl=     500 IOpCl=  0
         NMat0=    1 NMatS0=    1 NMatT0=    0 NMatD0=    1 NMtDS0=    0 NMtDT0=    0
         I1Cent=           4 NGrid=           0.
 Petite list used in FoFCou.
 Harris En= -147.165129040710    
 Initial guess orbital symmetries:
       Occupied  (A) (A) (A) (A) (A) (A) (A) (A) (A)
       Virtual   (A) (A) (A) (A) (A) (A) (A) (A) (A) (A) (A) (A)
                 (A) (A) (A) (A) (A) (A) (A) (A) (A) (A) (A) (A)
                 (A) (A) (A) (A) (A) (A) (A) (A) (A) (A) (A) (A)
                 (A) (A) (A) (A) (A) (A) (A) (A) (A) (A) (A) (A)
                 (A) (A) (A) (A) (A) (A) (A) (A) (A) (A) (A) (A)
                 (A) (A) (A) (A) (A) (A) (A) (A) (A) (A) (A) (A)
                 (A) (A) (A) (A) (A) (A) (A) (A) (A) (A) (A) (A)
                 (A) (A) (A) (A) (A) (A) (A) (A) (A) (A) (A) (A)
                 (A) (A) (A) (A) (A) (A) (A) (A) (A) (A) (A) (A)
                 (A) (A) (A) (A) (A) (A) (A) (A) (A) (A) (A) (A)
                 (A) (A) (A) (A) (A) (A) (A) (A) (A) (A) (A) (A)
                 (A) (A) (A) (A) (A) (A) (A) (A) (A) (A) (A) (A)
                 (A) (A) (A) (A) (A) (A) (A) (A) (A) (A) (A) (A)
                 (A) (A) (A) (A) (A) (A) (A) (A) (A) (A) (A) (A)
                 (A) (A) (A) (A) (A) (A) (A) (A) (A) (A) (A) (A)
                 (A) (A) (A) (A) (A) (A) (A) (A)
 The electronic state of the initial guess is 1-A.
 Leave Link  401 at Wed May 13 23:10:18 2020, MaxMem= 1073741824 cpu:       4.3
 (Enter /home/matheus/.gaussian/g09/l502.exe)
 Closed shell SCF:
 Requested convergence on RMS density matrix=1.00D-08 within 128 cycles.
 Requested convergence on MAX density matrix=1.00D-06.
 Requested convergence on             energy=1.00D-06.
 No special actions if energy rises.
 Using DIIS extrapolation, IDIIS=  1040.
 Integral symmetry usage will be decided dynamically.
       126521 words used for storage of precomputed grid.
 IEnd=      305468 IEndB=      305468 NGot=  1073741824 MDV=  1073505667
 LenX=  1073505667 LenY=  1073452785
 Fock matrices will be formed incrementally for  20 cycles.

 Cycle   1  Pass 1  IDiag  1:
 FoFJK:  IHMeth= 1 ICntrl=     0 DoSepK=T KAlg= 1 I1Cent= 0 FoldK=F
 FoFCou: FMM=F IPFlag=           0 FMFlag=      100000 FMFlg1=           0
         NFxFlg=           0 DoJE=T BraDBF=F KetDBF=F FulRan=T
         Omega=  0.000000  0.000000  1.000000  0.000000  0.000000 ICntrl=     500 IOpCl=  0
         NMat0=    1 NMatS0=    1 NMatT0=    0 NMatD0=    1 NMtDS0=    0 NMtDT0=    0
         I1Cent=           0 NGrid=           0.
 Symmetry not used in FoFCou.
 E= -151.301967113105    
 DIIS: error= 8.82D-03 at cycle   1 NSaved=   1.
 NSaved= 1 IEnMin= 1 EnMin= -151.301967113105     IErMin= 1 ErrMin= 8.82D-03
 ErrMax= 8.82D-03 EMaxC= 1.00D-01 BMatC= 2.30D-02 BMatP= 2.30D-02
 IDIUse=3 WtCom= 9.12D-01 WtEn= 8.82D-02
 Coeff-Com:  0.100D+01
 Coeff-En:   0.100D+01
 Coeff:      0.100D+01
 Gap=     0.485 Goal=   None    Shift=    0.000
 GapD=    0.485 DampG=2.000 DampE=1.000 DampFc=2.0000 IDamp=-1.
 RMSDP=8.52D-04 MaxDP=2.81D-02              OVMax= 5.39D-02

 Cycle   2  Pass 1  IDiag  1:
 RMSU=  6.02D-04    CP:  1.00D+00
 FoFJK:  IHMeth= 1 ICntrl=     0 DoSepK=T KAlg= 1 I1Cent= 0 FoldK=F
 E= -151.321989052749     Delta-E=       -0.020021939644 Rises=F Damp=F
 DIIS: error= 5.45D-03 at cycle   2 NSaved=   2.
 NSaved= 2 IEnMin= 2 EnMin= -151.321989052749     IErMin= 2 ErrMin= 5.45D-03
 ErrMax= 5.45D-03 EMaxC= 1.00D-01 BMatC= 4.79D-03 BMatP= 2.30D-02
 IDIUse=3 WtCom= 9.46D-01 WtEn= 5.45D-02
 Coeff-Com:  0.266D+00 0.734D+00
 Coeff-En:   0.000D+00 0.100D+01
 Coeff:      0.251D+00 0.749D+00
 Gap=     0.445 Goal=   None    Shift=    0.000
 RMSDP=2.15D-04 MaxDP=6.40D-03 DE=-2.00D-02 OVMax= 1.46D-02

 Cycle   3  Pass 1  IDiag  1:
 RMSU=  1.52D-04    CP:  1.00D+00  1.01D+00
 FoFJK:  IHMeth= 1 ICntrl=     0 DoSepK=T KAlg= 1 I1Cent= 0 FoldK=F
 E= -151.324683267711     Delta-E=       -0.002694214962 Rises=F Damp=F
 DIIS: error= 1.41D-03 at cycle   3 NSaved=   3.
 NSaved= 3 IEnMin= 3 EnMin= -151.324683267711     IErMin= 3 ErrMin= 1.41D-03
 ErrMax= 1.41D-03 EMaxC= 1.00D-01 BMatC= 5.58D-04 BMatP= 4.79D-03
 IDIUse=3 WtCom= 9.86D-01 WtEn= 1.41D-02
 Coeff-Com:  0.222D-01 0.242D+00 0.736D+00
 Coeff-En:   0.000D+00 0.000D+00 0.100D+01
 Coeff:      0.219D-01 0.238D+00 0.740D+00
 Gap=     0.455 Goal=   None    Shift=    0.000
 RMSDP=1.01D-04 MaxDP=3.41D-03 DE=-2.69D-03 OVMax= 7.14D-03

 Cycle   4  Pass 1  IDiag  1:
 RMSU=  5.12D-05    CP:  1.00D+00  1.09D+00  9.49D-01
 FoFJK:  IHMeth= 1 ICntrl=     0 DoSepK=T KAlg= 1 I1Cent= 0 FoldK=F
 E= -151.325105746506     Delta-E=       -0.000422478795 Rises=F Damp=F
 DIIS: error= 2.99D-04 at cycle   4 NSaved=   4.
 NSaved= 4 IEnMin= 4 EnMin= -151.325105746506     IErMin= 4 ErrMin= 2.99D-04
 ErrMax= 2.99D-04 EMaxC= 1.00D-01 BMatC= 3.80D-05 BMatP= 5.58D-04
 IDIUse=3 WtCom= 9.97D-01 WtEn= 2.99D-03
 Coeff-Com: -0.217D-01-0.340D-01 0.153D+00 0.902D+00
 Coeff-En:   0.000D+00 0.000D+00 0.000D+00 0.100D+01
 Coeff:     -0.216D-01-0.339D-01 0.153D+00 0.903D+00
 Gap=     0.452 Goal=   None    Shift=    0.000
 RMSDP=3.99D-05 MaxDP=1.48D-03 DE=-4.22D-04 OVMax= 1.90D-03

 Cycle   5  Pass 1  IDiag  1:
 RMSU=  1.01D-05    CP:  1.00D+00  1.11D+00  1.09D+00  1.11D+00
 FoFJK:  IHMeth= 1 ICntrl=     0 DoSepK=T KAlg= 1 I1Cent= 0 FoldK=F
 E= -151.325142146534     Delta-E=       -0.000036400028 Rises=F Damp=F
 DIIS: error= 4.07D-05 at cycle   5 NSaved=   5.
 NSaved= 5 IEnMin= 5 EnMin= -151.325142146534     IErMin= 5 ErrMin= 4.07D-05
 ErrMax= 4.07D-05 EMaxC= 1.00D-01 BMatC= 4.17D-07 BMatP= 3.80D-05
 IDIUse=1 WtCom= 1.00D+00 WtEn= 0.00D+00
 Coeff-Com:  0.789D-03-0.385D-02-0.363D-01-0.808D-01 0.112D+01
 Coeff:      0.789D-03-0.385D-02-0.363D-01-0.808D-01 0.112D+01
 Gap=     0.452 Goal=   None    Shift=    0.000
 RMSDP=9.95D-06 MaxDP=3.93D-04 DE=-3.64D-05 OVMax= 6.84D-04

 Cycle   6  Pass 1  IDiag  1:
 RMSU=  2.29D-06    CP:  1.00D+00  1.12D+00  1.11D+00  1.19D+00  1.27D+00
 FoFJK:  IHMeth= 1 ICntrl=     0 DoSepK=T KAlg= 1 I1Cent= 0 FoldK=F
 E= -151.325143572046     Delta-E=       -0.000001425512 Rises=F Damp=F
 DIIS: error= 1.30D-05 at cycle   6 NSaved=   6.
 NSaved= 6 IEnMin= 6 EnMin= -151.325143572046     IErMin= 6 ErrMin= 1.30D-05
 ErrMax= 1.30D-05 EMaxC= 1.00D-01 BMatC= 2.32D-08 BMatP= 4.17D-07
 IDIUse=1 WtCom= 1.00D+00 WtEn= 0.00D+00
 Coeff-Com:  0.246D-03 0.410D-03-0.175D-02-0.107D-01-0.782D-01 0.109D+01
 Coeff:      0.246D-03 0.410D-03-0.175D-02-0.107D-01-0.782D-01 0.109D+01
 Gap=     0.452 Goal=   None    Shift=    0.000
 RMSDP=1.58D-06 MaxDP=4.54D-05 DE=-1.43D-06 OVMax= 1.67D-04

 Cycle   7  Pass 1  IDiag  1:
 RMSU=  3.77D-07    CP:  1.00D+00  1.12D+00  1.11D+00  1.20D+00  1.32D+00
                    CP:  1.29D+00
 FoFJK:  IHMeth= 1 ICntrl=     0 DoSepK=T KAlg= 1 I1Cent= 0 FoldK=F
 E= -151.325143646088     Delta-E=       -0.000000074042 Rises=F Damp=F
 DIIS: error= 3.78D-06 at cycle   7 NSaved=   7.
 NSaved= 7 IEnMin= 7 EnMin= -151.325143646088     IErMin= 7 ErrMin= 3.78D-06
 ErrMax= 3.78D-06 EMaxC= 1.00D-01 BMatC= 3.03D-09 BMatP= 2.32D-08
 IDIUse=1 WtCom= 1.00D+00 WtEn= 0.00D+00
 Coeff-Com:  0.259D-04 0.361D-03 0.203D-02 0.334D-02-0.890D-01 0.134D+00
 Coeff-Com:  0.949D+00
 Coeff:      0.259D-04 0.361D-03 0.203D-02 0.334D-02-0.890D-01 0.134D+00
 Coeff:      0.949D+00
 Gap=     0.452 Goal=   None    Shift=    0.000
 RMSDP=3.94D-07 MaxDP=1.23D-05 DE=-7.40D-08 OVMax= 5.68D-05

 Cycle   8  Pass 1  IDiag  1:
 RMSU=  1.78D-07    CP:  1.00D+00  1.12D+00  1.11D+00  1.20D+00  1.33D+00
                    CP:  1.36D+00  1.24D+00
 FoFJK:  IHMeth= 1 ICntrl=     0 DoSepK=T KAlg= 1 I1Cent= 0 FoldK=F
 E= -151.325143652529     Delta-E=       -0.000000006441 Rises=F Damp=F
 DIIS: error= 2.10D-06 at cycle   8 NSaved=   8.
 NSaved= 8 IEnMin= 8 EnMin= -151.325143652529     IErMin= 8 ErrMin= 2.10D-06
 ErrMax= 2.10D-06 EMaxC= 1.00D-01 BMatC= 1.60D-09 BMatP= 3.03D-09
 IDIUse=1 WtCom= 1.00D+00 WtEn= 0.00D+00
 Coeff-Com: -0.368D-05 0.165D-03 0.116D-02 0.257D-02-0.388D-01-0.279D-01
 Coeff-Com:  0.496D+00 0.567D+00
 Coeff:     -0.368D-05 0.165D-03 0.116D-02 0.257D-02-0.388D-01-0.279D-01
 Coeff:      0.496D+00 0.567D+00
 Gap=     0.452 Goal=   None    Shift=    0.000
 RMSDP=1.22D-07 MaxDP=3.26D-06 DE=-6.44D-09 OVMax= 1.52D-05

 Cycle   9  Pass 1  IDiag  1:
 RMSU=  6.29D-08    CP:  1.00D+00  1.12D+00  1.11D+00  1.20D+00  1.33D+00
                    CP:  1.37D+00  1.38D+00  9.38D-01
 FoFJK:  IHMeth= 1 ICntrl=     0 DoSepK=T KAlg= 1 I1Cent= 0 FoldK=F
 E= -151.325143653889     Delta-E=       -0.000000001361 Rises=F Damp=F
 DIIS: error= 5.51D-07 at cycle   9 NSaved=   9.
 NSaved= 9 IEnMin= 9 EnMin= -151.325143653889     IErMin= 9 ErrMin= 5.51D-07
 ErrMax= 5.51D-07 EMaxC= 1.00D-01 BMatC= 7.65D-11 BMatP= 1.60D-09
 IDIUse=1 WtCom= 1.00D+00 WtEn= 0.00D+00
 Coeff-Com: -0.789D-05-0.362D-04-0.237D-03-0.213D-03 0.123D-01-0.338D-01
 Coeff-Com: -0.123D+00 0.724D-01 0.107D+01
 Coeff:     -0.789D-05-0.362D-04-0.237D-03-0.213D-03 0.123D-01-0.338D-01
 Coeff:     -0.123D+00 0.724D-01 0.107D+01
 Gap=     0.452 Goal=   None    Shift=    0.000
 RMSDP=8.16D-08 MaxDP=2.28D-06 DE=-1.36D-09 OVMax= 1.26D-05

 Cycle  10  Pass 1  IDiag  1:
 RMSU=  2.09D-08    CP:  1.00D+00  1.12D+00  1.11D+00  1.20D+00  1.33D+00
                    CP:  1.37D+00  1.45D+00  1.12D+00  1.25D+00
 FoFJK:  IHMeth= 1 ICntrl=     0 DoSepK=T KAlg= 1 I1Cent= 0 FoldK=F
 E= -151.325143654114     Delta-E=       -0.000000000224 Rises=F Damp=F
 DIIS: error= 1.68D-07 at cycle  10 NSaved=  10.
 NSaved=10 IEnMin=10 EnMin= -151.325143654114     IErMin=10 ErrMin= 1.68D-07
 ErrMax= 1.68D-07 EMaxC= 1.00D-01 BMatC= 2.63D-12 BMatP= 7.65D-11
 IDIUse=1 WtCom= 1.00D+00 WtEn= 0.00D+00
 Coeff-Com:  0.203D-05 0.872D-06-0.194D-04-0.111D-03-0.311D-03 0.810D-02
 Coeff-Com: -0.174D-03-0.478D-01-0.231D+00 0.127D+01
 Coeff:      0.203D-05 0.872D-06-0.194D-04-0.111D-03-0.311D-03 0.810D-02
 Coeff:     -0.174D-03-0.478D-01-0.231D+00 0.127D+01
 Gap=     0.452 Goal=   None    Shift=    0.000
 RMSDP=2.08D-08 MaxDP=4.69D-07 DE=-2.24D-10 OVMax= 3.61D-06

 Cycle  11  Pass 1  IDiag  1:
 RMSU=  3.97D-09    CP:  1.00D+00  1.12D+00  1.11D+00  1.20D+00  1.33D+00
                    CP:  1.37D+00  1.46D+00  1.15D+00  1.35D+00  1.47D+00
 FoFJK:  IHMeth= 1 ICntrl=     0 DoSepK=T KAlg= 1 I1Cent= 0 FoldK=F
 E= -151.325143654125     Delta-E=       -0.000000000012 Rises=F Damp=F
 DIIS: error= 2.89D-08 at cycle  11 NSaved=  11.
 NSaved=11 IEnMin=11 EnMin= -151.325143654125     IErMin=11 ErrMin= 2.89D-08
 ErrMax= 2.89D-08 EMaxC= 1.00D-01 BMatC= 1.48D-13 BMatP= 2.63D-12
 IDIUse=1 WtCom= 1.00D+00 WtEn= 0.00D+00
 Coeff-Com:  0.811D-07 0.250D-05 0.207D-04 0.238D-04-0.861D-03 0.173D-02
 Coeff-Com:  0.872D-02-0.715D-03-0.534D-01-0.108D+00 0.115D+01
 Coeff:      0.811D-07 0.250D-05 0.207D-04 0.238D-04-0.861D-03 0.173D-02
 Coeff:      0.872D-02-0.715D-03-0.534D-01-0.108D+00 0.115D+01
 Gap=     0.452 Goal=   None    Shift=    0.000
 RMSDP=4.61D-09 MaxDP=1.39D-07 DE=-1.18D-11 OVMax= 6.88D-07

 SCF Done:  E(RLC-B+HF-LYP) =  -151.325143654     A.U. after   11 cycles
             Convg  =    0.4613D-08             -V/T =  2.0057
 KE= 1.504736955610D+02 PE=-4.314229990697D+02 EE= 9.298608073680D+01
 Leave Link  502 at Wed May 13 23:10:57 2020, MaxMem= 1073741824 cpu:     310.0
 (Enter /home/matheus/.gaussian/g09/l601.exe)
 Copying SCF densities to generalized density rwf, IOpCl= 0 IROHF=0.

 **********************************************************************

            Population analysis using the SCF density.

 **********************************************************************

 Orbital symmetries:
       Occupied  (A) (A) (A) (A) (A) (A) (A) (A) (A)
       Virtual   (A) (A) (A) (A) (A) (A) (A) (A) (A) (A) (A) (A)
                 (A) (A) (A) (A) (A) (A) (A) (A) (A) (A) (A) (A)
                 (A) (A) (A) (A) (A) (A) (A) (A) (A) (A) (A) (A)
                 (A) (A) (A) (A) (A) (A) (A) (A) (A) (A) (A) (A)
                 (A) (A) (A) (A) (A) (A) (A) (A) (A) (A) (A) (A)
                 (A) (A) (A) (A) (A) (A) (A) (A) (A) (A) (A) (A)
                 (A) (A) (A) (A) (A) (A) (A) (A) (A) (A) (A) (A)
                 (A) (A) (A) (A) (A) (A) (A) (A) (A) (A) (A) (A)
                 (A) (A) (A) (A) (A) (A) (A) (A) (A) (A) (A) (A)
                 (A) (A) (A) (A) (A) (A) (A) (A) (A) (A) (A) (A)
                 (A) (A) (A) (A) (A) (A) (A) (A) (A) (A) (A) (A)
                 (A) (A) (A) (A) (A) (A) (A) (A) (A) (A) (A) (A)
                 (A) (A) (A) (A) (A) (A) (A) (A) (A) (A) (A) (A)
                 (A) (A) (A) (A) (A) (A) (A) (A) (A) (A) (A) (A)
                 (A) (A) (A) (A) (A) (A) (A) (A) (A) (A) (A) (A)
                 (A) (A) (A) (A) (A) (A) (A) (A)
 The electronic state is 1-A.
 Alpha  occ. eigenvalues --  -19.07684 -19.07683  -1.28786  -1.06644  -0.71803
 Alpha  occ. eigenvalues --   -0.61281  -0.57605  -0.47345  -0.43595
 Alpha virt. eigenvalues --    0.01637   0.03189   0.06694   0.07760   0.09553
 Alpha virt. eigenvalues --    0.10030   0.10064   0.13460   0.16183   0.16802
 Alpha virt. eigenvalues --    0.17741   0.18219   0.19962   0.21547   0.24660
 Alpha virt. eigenvalues --    0.25842   0.28751   0.29647   0.31728   0.32612
 Alpha virt. eigenvalues --    0.33398   0.36113   0.37085   0.38950   0.39647
 Alpha virt. eigenvalues --    0.42467   0.44068   0.45847   0.46894   0.49306
 Alpha virt. eigenvalues --    0.52032   0.56905   0.59948   0.61651   0.65528
 Alpha virt. eigenvalues --    0.69559   0.74453   0.75747   0.76799   0.78670
 Alpha virt. eigenvalues --    0.79948   0.81425   0.86347   0.88887   0.89956
 Alpha virt. eigenvalues --    0.90718   0.92514   0.94232   0.94927   0.97723
 Alpha virt. eigenvalues --    0.98784   1.00239   1.02961   1.08407   1.11213
 Alpha virt. eigenvalues --    1.12647   1.15638   1.18886   1.20561   1.22466
 Alpha virt. eigenvalues --    1.25860   1.28775   1.29885   1.30265   1.32449
 Alpha virt. eigenvalues --    1.33197   1.34104   1.37518   1.38368   1.39411
 Alpha virt. eigenvalues --    1.45342   1.48085   1.51417   1.53034   1.55223
 Alpha virt. eigenvalues --    1.59253   1.64468   1.65895   1.73331   1.77052
 Alpha virt. eigenvalues --    1.82789   1.86482   1.94569   1.99072   2.03588
 Alpha virt. eigenvalues --    2.05113   2.09856   2.16189   2.21101   2.23484
 Alpha virt. eigenvalues --    2.29764   2.30492   2.34354   2.37760   2.38627
 Alpha virt. eigenvalues --    2.50701   2.55508   2.58382   2.62277   2.64535
 Alpha virt. eigenvalues --    2.68637   2.75910   2.81262   2.87341   2.95253
 Alpha virt. eigenvalues --    3.01860   3.09511   3.12020   3.24899   3.29258
 Alpha virt. eigenvalues --    3.40285   3.54745   3.64231   3.67902   3.76733
 Alpha virt. eigenvalues --    3.77455   3.80635   3.81071   3.81460   3.83303
 Alpha virt. eigenvalues --    3.86864   3.88918   3.92172   3.95186   3.95778
 Alpha virt. eigenvalues --    3.98691   4.01706   4.05952   4.10998   4.13813
 Alpha virt. eigenvalues --    4.17450   4.26217   4.27963   4.31351   4.37968
 Alpha virt. eigenvalues --    4.39296   4.50092   4.58977   4.73648   4.96086
 Alpha virt. eigenvalues --    4.99392   5.02014   5.15228   5.17988   5.20934
 Alpha virt. eigenvalues --    5.43410   5.86024   6.02249   6.15694   6.22436
 Alpha virt. eigenvalues --    6.27732   6.34671   6.43977   6.52030   6.64015
 Alpha virt. eigenvalues --    6.76359   6.78059   6.82908   6.86134   6.90604
 Alpha virt. eigenvalues --    6.91676   6.93996   6.97765   7.02825   7.08285
 Alpha virt. eigenvalues --    7.13999   7.24701   7.47436   7.54230   7.80039
 Alpha virt. eigenvalues --    8.08451   8.12632  10.90951  14.04420  14.57547
 Alpha virt. eigenvalues --   14.82295  14.87591  15.09145  29.01883  29.02126
 Alpha virt. eigenvalues --   29.06629  29.12825  29.21946  49.10938 148.30585
 Alpha virt. eigenvalues --  148.38589 148.70449 752.55188
          Condensed to atoms (all electrons):
              1          2          3          4          5
     1  O    8.211643  -0.183333   0.173447   0.011178  -0.001436
     2  O   -0.183333   8.178271   0.026761   0.192903  -0.000458
     3  H    0.173447   0.026761   0.597960  -0.004277  -0.000584
     4  H    0.011178   0.192903  -0.004277   0.591263  -0.004135
     5  Kr  -0.001436  -0.000458  -0.000584  -0.004135   0.000731
 Mulliken atomic charges:
              1
     1  O   -0.211500
     2  O   -0.214143
     3  H    0.206693
     4  H    0.213068
     5  Kr   0.005883
 Sum of Mulliken atomic charges =   0.00000
 Mulliken charges with hydrogens summed into heavy atoms:
              1
     1  O   -0.004808
     2  O   -0.001075
     5  Kr   0.005883
 Sum of Mulliken charges with hydrogens summed into heavy atoms =   0.00000
          Condensed to fragments (all electrons):
     1      -0.005883
     2       0.005883
 Electronic spatial extent (au):  <R**2>=            319.8095
 Charge=              0.0000 electrons
 Dipole moment (field-independent basis, Debye):
    X=              2.1661    Y=             -0.1525    Z=              1.5556  Tot=              2.6711
 Quadrupole moment (field-independent basis, Debye-Ang):
   XX=            -19.5939   YY=            -10.5021   ZZ=            -11.7893
   XY=              1.6690   XZ=             -2.4283   YZ=             -1.8232
 Traceless Quadrupole moment (field-independent basis, Debye-Ang):
   XX=             -5.6321   YY=              3.4596   ZZ=              2.1725
   XY=              1.6690   XZ=             -2.4283   YZ=             -1.8232
 Octapole moment (field-independent basis, Debye-Ang**2):
  XXX=             92.2160  YYY=             -1.0537  ZZZ=              1.1192  XYY=             23.5192
  XXY=             -4.2483  XXZ=              3.8277  XZZ=             23.5263  YZZ=             -1.7480
  YYZ=              2.2685  XYZ=              3.1938
 Hexadecapole moment (field-independent basis, Debye-Ang**3):
 XXXX=           -348.3195 YYYY=            -46.0162 ZZZZ=            -12.1507 XXXY=              7.5351
 XXXZ=             -6.3543 YYYX=              2.9137 YYYZ=             -2.7172 ZZZX=             -2.1623
 ZZZY=             -1.9260 XXYY=            -61.5272 XXZZ=            -51.2115 YYZZ=            -10.2421
 XXYZ=             -5.8123 YYXZ=             -3.8363 ZZXY=              2.8429
 N-N= 3.663807911772D+01 E-N=-4.314229989899D+02  KE= 1.504736955610D+02
 No NMR shielding tensors so no spin-rotation constants.
 Leave Link  601 at Wed May 13 23:10:57 2020, MaxMem= 1073741824 cpu:       0.8
 (Enter /home/matheus/.gaussian/g09/l122.exe)
 Counterpoise: doing DCBS calculation for fragment   2 NewBq=T
 Leave Link  122 at Wed May 13 23:10:57 2020, MaxMem= 1073741824 cpu:       0.0
 (Enter /home/matheus/.gaussian/g09/l301.exe)
 Basis read from rwf:  (5D, 7F)
 No pseudopotential information found on rwf file.
 There are   197 symmetry adapted basis functions of A   symmetry.
 Integral buffers will be    131072 words long.
 Raffenetti 2 integral format.
 Two-electron integral symmetry is turned on.
   197 basis functions,   415 primitive gaussians,   229 cartesian basis functions
    18 alpha electrons       18 beta electrons
       nuclear repulsion energy         0.0000000000 Hartrees.
 IExCor=10402 DFT=T Ex=LC-B+HF Corr=LYP ExCW=0 ScaHFX=  1.000000
 ScaDFX=  1.000000  1.000000  1.000000  1.000000 ScalE2=  1.000000  1.000000
 IRadAn=      5 IRanWt=     -1 IRanGd=            0 ICorTp=0
  HFx wShort=  0.000000 wLong=  0.470000 cFull=  0.000000 cShort=  0.000000 cLong=  1.000000
  DFx wShort=  0.000000 wLong=  0.470000 cFull=  0.000000 cShort=  0.000000 cLong=  1.000000
 NAtoms=    5 NActive=    5 NUniq=    5 SFac= 1.00D+00 NAtFMM=   60 NAOKFM=F Big=F
 No density basis found on file   718.
 Leave Link  301 at Wed May 13 23:10:57 2020, MaxMem= 1073741824 cpu:       0.2
 (Enter /home/matheus/.gaussian/g09/l302.exe)
 NPDir=0 NMtPBC=     1 NCelOv=     1 NCel=       1 NClECP=     1 NCelD=      1
         NCelK=      1 NCelE2=     1 NClLst=     1 CellRange=     0.0.
 One-electron integrals computed using PRISM.
 NBasis=   197 RedAO= T  NBF=   197
 NBsUse=   197 1.00D-06 NBFU=   197
 Precomputing XC quadrature grid using
 IXCGrd= 2 IRadAn=           5 IRanWt=          -1 IRanGd=           0 AccXCQ= 0.00D+00.
 NRdTot=     427 NPtTot=      123512 NUsed=      126579 NTot=      126611
 NSgBfM=   229   229   229   229   229 NAtAll=     5     5.
 Leave Link  302 at Wed May 13 23:10:57 2020, MaxMem= 1073741824 cpu:       1.0
 (Enter /home/matheus/.gaussian/g09/l303.exe)
 DipDrv:  MaxL=1.
 Leave Link  303 at Wed May 13 23:10:57 2020, MaxMem= 1073741824 cpu:       0.2
 (Enter /home/matheus/.gaussian/g09/l401.exe)
 Harris functional with IExCor=10402 diagonalized for initial guess.
 ExpMin= 2.53D-02 ExpMax= 1.17D+07 ExpMxC= 1.33D+04 IAcc=3 IRadAn=         5 AccDes= 0.00D+00
 HarFok:  IExCor=10402 AccDes= 0.00D+00 IRadAn=         5 IDoV= 1
 ScaDFX=  1.000000  1.000000  1.000000  1.000000
 FoFCou: FMM=F IPFlag=           0 FMFlag=      100000 FMFlg1=           0
         NFxFlg=           0 DoJE=T BraDBF=F KetDBF=T FulRan=T
         Omega=  0.000000  0.000000  1.000000  0.000000  0.000000 ICntrl=     500 IOpCl=  0
         NMat0=    1 NMatS0=    1 NMatT0=    0 NMatD0=    1 NMtDS0=    0 NMtDT0=    0
         I1Cent=           4 NGrid=           0.
 Petite list used in FoFCou.
 Harris En= -2744.51539944272    
 Initial guess orbital symmetries:
       Occupied  (A) (A) (A) (A) (A) (A) (A) (A) (A) (A) (A) (A)
                 (A) (A) (A) (A) (A) (A)
       Virtual   (A) (A) (A) (A) (A) (A) (A) (A) (A) (A) (A) (A)
                 (A) (A) (A) (A) (A) (A) (A) (A) (A) (A) (A) (A)
                 (A) (A) (A) (A) (A) (A) (A) (A) (A) (A) (A) (A)
                 (A) (A) (A) (A) (A) (A) (A) (A) (A) (A) (A) (A)
                 (A) (A) (A) (A) (A) (A) (A) (A) (A) (A) (A) (A)
                 (A) (A) (A) (A) (A) (A) (A) (A) (A) (A) (A) (A)
                 (A) (A) (A) (A) (A) (A) (A) (A) (A) (A) (A) (A)
                 (A) (A) (A) (A) (A) (A) (A) (A) (A) (A) (A) (A)
                 (A) (A) (A) (A) (A) (A) (A) (A) (A) (A) (A) (A)
                 (A) (A) (A) (A) (A) (A) (A) (A) (A) (A) (A) (A)
                 (A) (A) (A) (A) (A) (A) (A) (A) (A) (A) (A) (A)
                 (A) (A) (A) (A) (A) (A) (A) (A) (A) (A) (A) (A)
                 (A) (A) (A) (A) (A) (A) (A) (A) (A) (A) (A) (A)
                 (A) (A) (A) (A) (A) (A) (A) (A) (A) (A) (A) (A)
                 (A) (A) (A) (A) (A) (A) (A) (A) (A) (A) (A)
 The electronic state of the initial guess is 1-A.
 Leave Link  401 at Wed May 13 23:10:58 2020, MaxMem= 1073741824 cpu:       4.8
 (Enter /home/matheus/.gaussian/g09/l502.exe)
 Closed shell SCF:
 Requested convergence on RMS density matrix=1.00D-08 within 128 cycles.
 Requested convergence on MAX density matrix=1.00D-06.
 Requested convergence on             energy=1.00D-06.
 No special actions if energy rises.
 Using DIIS extrapolation, IDIIS=  1040.
 Integral symmetry usage will be decided dynamically.
       126521 words used for storage of precomputed grid.
 IEnd=      305468 IEndB=      305468 NGot=  1073741824 MDV=  1073505667
 LenX=  1073505667 LenY=  1073452785
 Fock matrices will be formed incrementally for  20 cycles.

 Cycle   1  Pass 1  IDiag  1:
 FoFJK:  IHMeth= 1 ICntrl=     0 DoSepK=T KAlg= 1 I1Cent= 0 FoldK=F
 FoFCou: FMM=F IPFlag=           0 FMFlag=      100000 FMFlg1=           0
         NFxFlg=           0 DoJE=T BraDBF=F KetDBF=F FulRan=T
         Omega=  0.000000  0.000000  1.000000  0.000000  0.000000 ICntrl=     500 IOpCl=  0
         NMat0=    1 NMatS0=    1 NMatT0=    0 NMatD0=    1 NMtDS0=    0 NMtDT0=    0
         I1Cent=           0 NGrid=           0.
 Symmetry not used in FoFCou.
 E= -2753.33348240094    
 DIIS: error= 2.71D-02 at cycle   1 NSaved=   1.
 NSaved= 1 IEnMin= 1 EnMin= -2753.33348240094     IErMin= 1 ErrMin= 2.71D-02
 ErrMax= 2.71D-02 EMaxC= 1.00D-01 BMatC= 2.61D-01 BMatP= 2.61D-01
 IDIUse=3 WtCom= 7.29D-01 WtEn= 2.71D-01
 Coeff-Com:  0.100D+01
 Coeff-En:   0.100D+01
 Coeff:      0.100D+01
 Gap=     0.618 Goal=   None    Shift=    0.000
 GapD=    0.618 DampG=2.000 DampE=0.500 DampFc=1.0000 IDamp=-1.
 RMSDP=2.47D-03 MaxDP=1.53D-01              OVMax= 1.05D-01

 Cycle   2  Pass 1  IDiag  1:
 RMSU=  1.69D-03    CP:  1.03D+00
 FoFJK:  IHMeth= 1 ICntrl=     0 DoSepK=T KAlg= 1 I1Cent= 0 FoldK=F
 E= -2753.38945842388     Delta-E=       -0.055976022943 Rises=F Damp=F
 DIIS: error= 1.32D-02 at cycle   2 NSaved=   2.
 NSaved= 2 IEnMin= 2 EnMin= -2753.38945842388     IErMin= 2 ErrMin= 1.32D-02
 ErrMax= 1.32D-02 EMaxC= 1.00D-01 BMatC= 8.82D-02 BMatP= 2.61D-01
 IDIUse=3 WtCom= 8.68D-01 WtEn= 1.32D-01
 Coeff-Com:  0.365D+00 0.635D+00
 Coeff-En:   0.130D+00 0.870D+00
 Coeff:      0.334D+00 0.666D+00
 Gap=     0.539 Goal=   None    Shift=    0.000
 RMSDP=9.70D-04 MaxDP=6.08D-02 DE=-5.60D-02 OVMax= 3.12D-02

 Cycle   3  Pass 1  IDiag  1:
 RMSU=  1.71D-04    CP:  1.02D+00  6.19D-01
 FoFJK:  IHMeth= 1 ICntrl=     0 DoSepK=T KAlg= 1 I1Cent= 0 FoldK=F
 E= -2753.41752259534     Delta-E=       -0.028064171453 Rises=F Damp=F
 DIIS: error= 9.95D-04 at cycle   3 NSaved=   3.
 NSaved= 3 IEnMin= 3 EnMin= -2753.41752259534     IErMin= 3 ErrMin= 9.95D-04
 ErrMax= 9.95D-04 EMaxC= 1.00D-01 BMatC= 5.00D-04 BMatP= 8.82D-02
 IDIUse=3 WtCom= 9.90D-01 WtEn= 9.95D-03
 Coeff-Com: -0.642D-02 0.573D-01 0.949D+00
 Coeff-En:   0.000D+00 0.000D+00 0.100D+01
 Coeff:     -0.636D-02 0.567D-01 0.950D+00
 Gap=     0.538 Goal=   None    Shift=    0.000
 RMSDP=9.14D-05 MaxDP=4.75D-03 DE=-2.81D-02 OVMax= 3.18D-03

 Cycle   4  Pass 1  IDiag  1:
 RMSU=  3.73D-05    CP:  1.02D+00  6.45D-01  1.14D+00
 FoFJK:  IHMeth= 1 ICntrl=     0 DoSepK=T KAlg= 1 I1Cent= 0 FoldK=F
 E= -2753.41768327695     Delta-E=       -0.000160681614 Rises=F Damp=F
 DIIS: error= 8.47D-05 at cycle   4 NSaved=   4.
 NSaved= 4 IEnMin= 4 EnMin= -2753.41768327695     IErMin= 4 ErrMin= 8.47D-05
 ErrMax= 8.47D-05 EMaxC= 1.00D-01 BMatC= 2.04D-06 BMatP= 5.00D-04
 IDIUse=1 WtCom= 1.00D+00 WtEn= 0.00D+00
 Coeff-Com: -0.143D-02 0.260D-03-0.674D-02 0.101D+01
 Coeff:     -0.143D-02 0.260D-03-0.674D-02 0.101D+01
 Gap=     0.539 Goal=   None    Shift=    0.000
 RMSDP=1.38D-05 MaxDP=5.47D-04 DE=-1.61D-04 OVMax= 9.20D-04

 Cycle   5  Pass 1  IDiag  1:
 RMSU=  5.87D-06    CP:  1.02D+00  6.47D-01  1.18D+00  1.06D+00
 FoFJK:  IHMeth= 1 ICntrl=     0 DoSepK=T KAlg= 1 I1Cent= 0 FoldK=F
 E= -2753.41768723030     Delta-E=       -0.000003953349 Rises=F Damp=F
 DIIS: error= 2.61D-05 at cycle   5 NSaved=   5.
 NSaved= 5 IEnMin= 5 EnMin= -2753.41768723030     IErMin= 5 ErrMin= 2.61D-05
 ErrMax= 2.61D-05 EMaxC= 1.00D-01 BMatC= 1.58D-07 BMatP= 2.04D-06
 IDIUse=1 WtCom= 1.00D+00 WtEn= 0.00D+00
 Coeff-Com: -0.542D-04-0.380D-02-0.335D-01-0.713D-01 0.111D+01
 Coeff:     -0.542D-04-0.380D-02-0.335D-01-0.713D-01 0.111D+01
 Gap=     0.539 Goal=   None    Shift=    0.000
 RMSDP=4.53D-06 MaxDP=1.86D-04 DE=-3.95D-06 OVMax= 1.98D-04

 Cycle   6  Pass 1  IDiag  1:
 RMSU=  3.52D-07    CP:  1.02D+00  6.47D-01  1.20D+00  1.11D+00  1.15D+00
 FoFJK:  IHMeth= 1 ICntrl=     0 DoSepK=T KAlg= 1 I1Cent= 0 FoldK=F
 E= -2753.41768743753     Delta-E=       -0.000000207231 Rises=F Damp=F
 DIIS: error= 5.90D-07 at cycle   6 NSaved=   6.
 NSaved= 6 IEnMin= 6 EnMin= -2753.41768743753     IErMin= 6 ErrMin= 5.90D-07
 ErrMax= 5.90D-07 EMaxC= 1.00D-01 BMatC= 9.81D-11 BMatP= 1.58D-07
 IDIUse=1 WtCom= 1.00D+00 WtEn= 0.00D+00
 Coeff-Com:  0.729D-05 0.322D-03 0.313D-02-0.395D-04-0.804D-01 0.108D+01
 Coeff:      0.729D-05 0.322D-03 0.313D-02-0.395D-04-0.804D-01 0.108D+01
 Gap=     0.539 Goal=   None    Shift=    0.000
 RMSDP=1.48D-07 MaxDP=5.05D-06 DE=-2.07D-07 OVMax= 6.23D-06

 Cycle   7  Pass 1  IDiag  1:
 RMSU=  2.38D-08    CP:  1.02D+00  6.47D-01  1.20D+00  1.11D+00  1.16D+00
                    CP:  1.17D+00
 FoFJK:  IHMeth= 1 ICntrl=     0 DoSepK=T KAlg= 1 I1Cent= 0 FoldK=F
 E= -2753.41768743761     Delta-E=       -0.000000000079 Rises=F Damp=F
 DIIS: error= 7.62D-08 at cycle   7 NSaved=   7.
 NSaved= 7 IEnMin= 7 EnMin= -2753.41768743761     IErMin= 7 ErrMin= 7.62D-08
 ErrMax= 7.62D-08 EMaxC= 1.00D-01 BMatC= 2.36D-12 BMatP= 9.81D-11
 IDIUse=1 WtCom= 1.00D+00 WtEn= 0.00D+00
 Coeff-Com:  0.509D-06 0.389D-04 0.336D-03 0.871D-03-0.121D-01 0.143D-01
 Coeff-Com:  0.996D+00
 Coeff:      0.509D-06 0.389D-04 0.336D-03 0.871D-03-0.121D-01 0.143D-01
 Coeff:      0.996D+00
 Gap=     0.539 Goal=   None    Shift=    0.000
 RMSDP=1.53D-08 MaxDP=5.60D-07 DE=-7.91D-11 OVMax= 8.35D-07

 Cycle   8  Pass 1  IDiag  1:
 RMSU=  4.68D-09    CP:  1.02D+00  6.47D-01  1.20D+00  1.11D+00  1.16D+00
                    CP:  1.19D+00  1.11D+00
 FoFJK:  IHMeth= 1 ICntrl=     0 DoSepK=T KAlg= 1 I1Cent= 0 FoldK=F
 E= -2753.41768743758     Delta-E=        0.000000000025 Rises=F Damp=F
 DIIS: error= 1.98D-08 at cycle   8 NSaved=   8.
 NSaved= 8 IEnMin= 7 EnMin= -2753.41768743761     IErMin= 8 ErrMin= 1.98D-08
 ErrMax= 1.98D-08 EMaxC= 1.00D-01 BMatC= 2.03D-13 BMatP= 2.36D-12
 IDIUse=1 WtCom= 1.00D+00 WtEn= 0.00D+00
 Coeff-Com: -0.335D-06-0.114D-04-0.120D-03 0.192D-03 0.223D-02-0.572D-01
 Coeff-Com:  0.187D+00 0.868D+00
 Coeff:     -0.335D-06-0.114D-04-0.120D-03 0.192D-03 0.223D-02-0.572D-01
 Coeff:      0.187D+00 0.868D+00
 Gap=     0.539 Goal=   None    Shift=    0.000
 RMSDP=2.93D-09 MaxDP=1.07D-07 DE= 2.46D-11 OVMax= 1.77D-07

 SCF Done:  E(RLC-B+HF-LYP) =  -2753.41768744     A.U. after    8 cycles
             Convg  =    0.2933D-08             -V/T =  2.0015
 KE= 2.749313846263D+03 PE=-6.578524420723D+03 EE= 1.075792887022D+03
 Leave Link  502 at Wed May 13 23:11:27 2020, MaxMem= 1073741824 cpu:     238.4
 (Enter /home/matheus/.gaussian/g09/l601.exe)
 Copying SCF densities to generalized density rwf, IOpCl= 0 IROHF=0.

 **********************************************************************

            Population analysis using the SCF density.

 **********************************************************************

 Orbital symmetries:
       Occupied  (A) (A) (A) (A) (A) (A) (A) (A) (A) (A) (A) (A)
                 (A) (A) (A) (A) (A) (A)
       Virtual   (A) (A) (A) (A) (A) (A) (A) (A) (A) (A) (A) (A)
                 (A) (A) (A) (A) (A) (A) (A) (A) (A) (A) (A) (A)
                 (A) (A) (A) (A) (A) (A) (A) (A) (A) (A) (A) (A)
                 (A) (A) (A) (A) (A) (A) (A) (A) (A) (A) (A) (A)
                 (A) (A) (A) (A) (A) (A) (A) (A) (A) (A) (A) (A)
                 (A) (A) (A) (A) (A) (A) (A) (A) (A) (A) (A) (A)
                 (A) (A) (A) (A) (A) (A) (A) (A) (A) (A) (A) (A)
                 (A) (A) (A) (A) (A) (A) (A) (A) (A) (A) (A) (A)
                 (A) (A) (A) (A) (A) (A) (A) (A) (A) (A) (A) (A)
                 (A) (A) (A) (A) (A) (A) (A) (A) (A) (A) (A) (A)
                 (A) (A) (A) (A) (A) (A) (A) (A) (A) (A) (A) (A)
                 (A) (A) (A) (A) (A) (A) (A) (A) (A) (A) (A) (A)
                 (A) (A) (A) (A) (A) (A) (A) (A) (A) (A) (A) (A)
                 (A) (A) (A) (A) (A) (A) (A) (A) (A) (A) (A) (A)
                 (A) (A) (A) (A) (A) (A) (A) (A) (A) (A) (A)
 The electronic state is 1-A.
 Alpha  occ. eigenvalues -- -511.24362 -66.71350 -60.39873 -60.39870 -60.39869
 Alpha  occ. eigenvalues --   -9.60493  -7.35946  -7.35945  -7.35944  -3.32283
 Alpha  occ. eigenvalues --   -3.32283  -3.32282  -3.32281  -3.32281  -1.06080
 Alpha  occ. eigenvalues --   -0.51293  -0.51288  -0.51287
 Alpha virt. eigenvalues --    0.02600   0.04757   0.07771   0.08630   0.11335
 Alpha virt. eigenvalues --    0.11835   0.12846   0.13042   0.15612   0.16701
 Alpha virt. eigenvalues --    0.17408   0.19013   0.20118   0.25195   0.26322
 Alpha virt. eigenvalues --    0.26897   0.28413   0.30671   0.32739   0.34473
 Alpha virt. eigenvalues --    0.35248   0.37077   0.37960   0.39433   0.40741
 Alpha virt. eigenvalues --    0.41386   0.43348   0.52919   0.54461   0.58285
 Alpha virt. eigenvalues --    0.58620   0.65847   0.68223   0.68522   0.71427
 Alpha virt. eigenvalues --    0.73159   0.74624   0.76801   0.78260   0.78896
 Alpha virt. eigenvalues --    0.80420   0.80953   0.84094   0.84761   0.87299
 Alpha virt. eigenvalues --    0.87998   0.88792   0.90235   0.91188   0.95938
 Alpha virt. eigenvalues --    0.96865   0.97972   0.99437   1.00128   1.02513
 Alpha virt. eigenvalues --    1.04776   1.06987   1.09139   1.11930   1.14352
 Alpha virt. eigenvalues --    1.17500   1.20657   1.23836   1.28636   1.31266
 Alpha virt. eigenvalues --    1.32685   1.38811   1.43966   1.45516   1.47876
 Alpha virt. eigenvalues --    1.54555   1.56168   1.59323   1.70860   1.75511
 Alpha virt. eigenvalues --    1.81082   1.81573   1.85557   1.96122   2.16602
 Alpha virt. eigenvalues --    2.20520   2.24372   2.28395   2.29852   2.31497
 Alpha virt. eigenvalues --    2.32945   2.34063   2.35125   2.37390   2.41129
 Alpha virt. eigenvalues --    2.42797   2.45226   2.46168   2.50694   2.51887
 Alpha virt. eigenvalues --    2.52934   2.54190   2.56554   2.59348   2.60415
 Alpha virt. eigenvalues --    2.63299   2.63791   2.66633   2.70116   2.72420
 Alpha virt. eigenvalues --    2.75000   2.78800   2.84287   2.86894   2.89732
 Alpha virt. eigenvalues --    2.95680   2.98592   3.04995   3.07339   3.17244
 Alpha virt. eigenvalues --    3.18985   3.28739   3.29390   3.38705   3.44192
 Alpha virt. eigenvalues --    3.60250   3.65047   3.80985   3.85656   4.02693
 Alpha virt. eigenvalues --    4.34765   4.45679   4.53093   4.56963   4.64184
 Alpha virt. eigenvalues --    4.71147   4.85297   4.85950   4.96270   5.04720
 Alpha virt. eigenvalues --    5.09232   5.26922   5.55992   5.66279   5.83917
 Alpha virt. eigenvalues --    5.87269   5.95510   6.13991   6.78126   6.81135
 Alpha virt. eigenvalues --    7.37397   7.47821   7.53526   7.63398   7.73120
 Alpha virt. eigenvalues --    7.78809   7.95243   8.15314   8.16749   8.21073
 Alpha virt. eigenvalues --    8.36216   8.50563   8.56202   8.87080   9.61866
 Alpha virt. eigenvalues --    9.75048   9.83095   9.85401   9.93339   9.98111
 Alpha virt. eigenvalues --   10.15352  10.25722  10.45368  10.95182  11.54101
 Alpha virt. eigenvalues --   11.61347  11.80803  12.02642  12.08408  13.18779
 Alpha virt. eigenvalues --   13.70204  14.50786  62.82215  64.67606
          Condensed to atoms (all electrons):
              1          2          3          4          5
     1  O    0.000837  -0.001003  -0.000348   0.000706  -0.005743
     2  O   -0.001003   0.004222   0.000359  -0.002943  -0.005823
     3  H   -0.000348   0.000359   0.000303  -0.000176  -0.002327
     4  H    0.000706  -0.002943  -0.000176   0.002883  -0.011738
     5  Kr  -0.005743  -0.005823  -0.002327  -0.011738  36.049828
 Mulliken atomic charges:
              1
     1  O    0.005552
     2  O    0.005187
     3  H    0.002189
     4  H    0.011269
     5  Kr  -0.024198
 Sum of Mulliken atomic charges =   0.00000
 Mulliken charges with hydrogens summed into heavy atoms:
              1
     1  O    0.007741
     2  O    0.016456
     5  Kr  -0.024198
 Sum of Mulliken charges with hydrogens summed into heavy atoms =   0.00000
          Condensed to fragments (all electrons):
     1       0.024198
     2      -0.024198
 Electronic spatial extent (au):  <R**2>=            162.3903
 Charge=              0.0000 electrons
 Dipole moment (field-independent basis, Debye):
    X=             -0.0014    Y=              0.0005    Z=              0.0002  Tot=              0.0015
 Quadrupole moment (field-independent basis, Debye-Ang):
   XX=            -17.7450   YY=            -17.7573   ZZ=            -17.7647
   XY=             -0.0027   XZ=             -0.0020   YZ=             -0.0009
 Traceless Quadrupole moment (field-independent basis, Debye-Ang):
   XX=              0.0106   YY=             -0.0016   ZZ=             -0.0090
   XY=             -0.0027   XZ=             -0.0020   YZ=             -0.0009
 Octapole moment (field-independent basis, Debye-Ang**2):
  XXX=            -52.0228  YYY=              0.3420  ZZZ=              0.1360  XYY=            -17.3553
  XXY=              0.1080  XXZ=              0.0421  XZZ=            -17.3595  YZZ=              0.1141
  YYZ=              0.0457  XYZ=             -0.0002
 Hexadecapole moment (field-independent basis, Debye-Ang**3):
 XXXX=           -120.5738 YYYY=            -18.9348 ZZZZ=            -18.9548 XXXY=              0.3228
 XXXZ=              0.1258 YYYX=              0.3245 YYYZ=             -0.0014 ZZZX=              0.1292
 ZZZY=             -0.0013 XXYY=            -23.2635 XXZZ=            -23.2689 YYZZ=             -6.3137
 XXYZ=             -0.0018 YYXZ=              0.0429 ZZXY=              0.1074
 N-N= 0.000000000000D+00 E-N=-6.578524419105D+03  KE= 2.749313846263D+03
 No NMR shielding tensors so no spin-rotation constants.
 Leave Link  601 at Wed May 13 23:11:28 2020, MaxMem= 1073741824 cpu:       0.8
 (Enter /home/matheus/.gaussian/g09/l122.exe)
 Counterpoise: doing MCBS calculation for fragment   1
 Leave Link  122 at Wed May 13 23:11:28 2020, MaxMem= 1073741824 cpu:       0.0
 (Enter /home/matheus/.gaussian/g09/l301.exe)
 Basis read from rwf:  (5D, 7F)
 No pseudopotential information found on rwf file.
 There are   138 symmetry adapted basis functions of A   symmetry.
 Integral buffers will be    131072 words long.
 Raffenetti 2 integral format.
 Two-electron integral symmetry is turned on.
   138 basis functions,   198 primitive gaussians,   160 cartesian basis functions
     9 alpha electrons        9 beta electrons
       nuclear repulsion energy        36.6380791177 Hartrees.
 IExCor=10402 DFT=T Ex=LC-B+HF Corr=LYP ExCW=0 ScaHFX=  1.000000
 ScaDFX=  1.000000  1.000000  1.000000  1.000000 ScalE2=  1.000000  1.000000
 IRadAn=      5 IRanWt=     -1 IRanGd=            0 ICorTp=0
  HFx wShort=  0.000000 wLong=  0.470000 cFull=  0.000000 cShort=  0.000000 cLong=  1.000000
  DFx wShort=  0.000000 wLong=  0.470000 cFull=  0.000000 cShort=  0.000000 cLong=  1.000000
 NAtoms=    5 NActive=    4 NUniq=    4 SFac= 1.00D+00 NAtFMM=   60 NAOKFM=F Big=F
 No density basis found on file   718.
 Leave Link  301 at Wed May 13 23:11:28 2020, MaxMem= 1073741824 cpu:       0.2
 (Enter /home/matheus/.gaussian/g09/l302.exe)
 NPDir=0 NMtPBC=     1 NCelOv=     1 NCel=       1 NClECP=     1 NCelD=      1
         NCelK=      1 NCelE2=     1 NClLst=     1 CellRange=     0.0.
 One-electron integrals computed using PRISM.
 NBasis=   138 RedAO= T  NBF=   138
 NBsUse=   138 1.00D-06 NBFU=   138
 Precomputing XC quadrature grid using
 IXCGrd= 2 IRadAn=           5 IRanWt=          -1 IRanGd=           0 AccXCQ= 0.00D+00.
 NRdTot=     344 NPtTot=       92556 NUsed=       95038 NTot=       95070
 NSgBfM=   160   160   160   160   160 NAtAll=     4     4.
 Leave Link  302 at Wed May 13 23:11:28 2020, MaxMem= 1073741824 cpu:       0.8
 (Enter /home/matheus/.gaussian/g09/l303.exe)
 DipDrv:  MaxL=1.
 Leave Link  303 at Wed May 13 23:11:28 2020, MaxMem= 1073741824 cpu:       0.2
 (Enter /home/matheus/.gaussian/g09/l401.exe)
 Harris functional with IExCor=10402 diagonalized for initial guess.
 ExpMin= 2.53D-02 ExpMax= 1.53D+04 ExpMxC= 5.22D+02 IAcc=3 IRadAn=         5 AccDes= 0.00D+00
 HarFok:  IExCor=10402 AccDes= 0.00D+00 IRadAn=         5 IDoV= 1
 ScaDFX=  1.000000  1.000000  1.000000  1.000000
 FoFCou: FMM=F IPFlag=           0 FMFlag=      100000 FMFlg1=           0
         NFxFlg=           0 DoJE=T BraDBF=F KetDBF=T FulRan=T
         Omega=  0.000000  0.000000  1.000000  0.000000  0.000000 ICntrl=     500 IOpCl=  0
         NMat0=    1 NMatS0=    1 NMatT0=    0 NMatD0=    1 NMtDS0=    0 NMtDT0=    0
         I1Cent=           4 NGrid=           0.
 Petite list used in FoFCou.
 Harris En= -147.165095680510    
 Initial guess orbital symmetries:
       Occupied  (A) (A) (A) (A) (A) (A) (A) (A) (A)
       Virtual   (A) (A) (A) (A) (A) (A) (A) (A) (A) (A) (A) (A)
                 (A) (A) (A) (A) (A) (A) (A) (A) (A) (A) (A) (A)
                 (A) (A) (A) (A) (A) (A) (A) (A) (A) (A) (A) (A)
                 (A) (A) (A) (A) (A) (A) (A) (A) (A) (A) (A) (A)
                 (A) (A) (A) (A) (A) (A) (A) (A) (A) (A) (A) (A)
                 (A) (A) (A) (A) (A) (A) (A) (A) (A) (A) (A) (A)
                 (A) (A) (A) (A) (A) (A) (A) (A) (A) (A) (A) (A)
                 (A) (A) (A) (A) (A) (A) (A) (A) (A) (A) (A) (A)
                 (A) (A) (A) (A) (A) (A) (A) (A) (A) (A) (A) (A)
                 (A) (A) (A) (A) (A) (A) (A) (A) (A) (A) (A) (A)
                 (A) (A) (A) (A) (A) (A) (A) (A) (A)
 The electronic state of the initial guess is 1-A.
 Leave Link  401 at Wed May 13 23:11:28 2020, MaxMem= 1073741824 cpu:       2.3
 (Enter /home/matheus/.gaussian/g09/l502.exe)
 Closed shell SCF:
 Requested convergence on RMS density matrix=1.00D-08 within 128 cycles.
 Requested convergence on MAX density matrix=1.00D-06.
 Requested convergence on             energy=1.00D-06.
 No special actions if energy rises.
 Using DIIS extrapolation, IDIIS=  1040.
 Integral symmetry usage will be decided dynamically.
        94980 words used for storage of precomputed grid.
 IEnd=      192360 IEndB=      192360 NGot=  1073741824 MDV=  1073591865
 LenX=  1073591865 LenY=  1073565824
 Fock matrices will be formed incrementally for  20 cycles.

 Cycle   1  Pass 1  IDiag  1:
 FoFJK:  IHMeth= 1 ICntrl=     0 DoSepK=T KAlg= 1 I1Cent= 0 FoldK=F
 FoFCou: FMM=F IPFlag=           0 FMFlag=      100000 FMFlg1=           0
         NFxFlg=           0 DoJE=T BraDBF=F KetDBF=F FulRan=T
         Omega=  0.000000  0.000000  1.000000  0.000000  0.000000 ICntrl=     500 IOpCl=  0
         NMat0=    1 NMatS0=    1 NMatT0=    0 NMatD0=    1 NMtDS0=    0 NMtDT0=    0
         I1Cent=           0 NGrid=           0.
 Symmetry not used in FoFCou.
 E= -151.301942103898    
 DIIS: error= 1.41D-02 at cycle   1 NSaved=   1.
 NSaved= 1 IEnMin= 1 EnMin= -151.301942103898     IErMin= 1 ErrMin= 1.41D-02
 ErrMax= 1.41D-02 EMaxC= 1.00D-01 BMatC= 2.30D-02 BMatP= 2.30D-02
 IDIUse=3 WtCom= 8.59D-01 WtEn= 1.41D-01
 Coeff-Com:  0.100D+01
 Coeff-En:   0.100D+01
 Coeff:      0.100D+01
 Gap=     0.487 Goal=   None    Shift=    0.000
 GapD=    0.487 DampG=2.000 DampE=0.500 DampFc=1.0000 IDamp=-1.
 RMSDP=1.19D-03 MaxDP=2.78D-02              OVMax= 5.36D-02

 Cycle   2  Pass 1  IDiag  1:
 RMSU=  8.39D-04    CP:  1.01D+00
 FoFJK:  IHMeth= 1 ICntrl=     0 DoSepK=T KAlg= 1 I1Cent= 0 FoldK=F
 E= -151.321941858642     Delta-E=       -0.019999754744 Rises=F Damp=F
 DIIS: error= 7.50D-03 at cycle   2 NSaved=   2.
 NSaved= 2 IEnMin= 2 EnMin= -151.321941858642     IErMin= 2 ErrMin= 7.50D-03
 ErrMax= 7.50D-03 EMaxC= 1.00D-01 BMatC= 4.79D-03 BMatP= 2.30D-02
 IDIUse=3 WtCom= 9.25D-01 WtEn= 7.50D-02
 Coeff-Com:  0.266D+00 0.734D+00
 Coeff-En:   0.000D+00 0.100D+01
 Coeff:      0.246D+00 0.754D+00
 Gap=     0.448 Goal=   None    Shift=    0.000
 RMSDP=3.11D-04 MaxDP=6.71D-03 DE=-2.00D-02 OVMax= 1.47D-02

 Cycle   3  Pass 1  IDiag  1:
 RMSU=  2.19D-04    CP:  1.00D+00  1.01D+00
 FoFJK:  IHMeth= 1 ICntrl=     0 DoSepK=T KAlg= 1 I1Cent= 0 FoldK=F
 E= -151.324617755020     Delta-E=       -0.002675896379 Rises=F Damp=F
 DIIS: error= 2.01D-03 at cycle   3 NSaved=   3.
 NSaved= 3 IEnMin= 3 EnMin= -151.324617755020     IErMin= 3 ErrMin= 2.01D-03
 ErrMax= 2.01D-03 EMaxC= 1.00D-01 BMatC= 5.83D-04 BMatP= 4.79D-03
 IDIUse=3 WtCom= 9.80D-01 WtEn= 2.01D-02
 Coeff-Com:  0.223D-01 0.247D+00 0.731D+00
 Coeff-En:   0.000D+00 0.000D+00 0.100D+01
 Coeff:      0.218D-01 0.242D+00 0.736D+00
 Gap=     0.457 Goal=   None    Shift=    0.000
 RMSDP=1.41D-04 MaxDP=3.39D-03 DE=-2.68D-03 OVMax= 7.18D-03

 Cycle   4  Pass 1  IDiag  1:
 RMSU=  7.16D-05    CP:  1.00D+00  1.09D+00  9.43D-01
 FoFJK:  IHMeth= 1 ICntrl=     0 DoSepK=T KAlg= 1 I1Cent= 0 FoldK=F
 E= -151.325053035641     Delta-E=       -0.000435280620 Rises=F Damp=F
 DIIS: error= 4.85D-04 at cycle   4 NSaved=   4.
 NSaved= 4 IEnMin= 4 EnMin= -151.325053035641     IErMin= 4 ErrMin= 4.85D-04
 ErrMax= 4.85D-04 EMaxC= 1.00D-01 BMatC= 3.91D-05 BMatP= 5.83D-04
 IDIUse=3 WtCom= 9.95D-01 WtEn= 4.85D-03
 Coeff-Com: -0.217D-01-0.333D-01 0.155D+00 0.900D+00
 Coeff-En:   0.000D+00 0.000D+00 0.000D+00 0.100D+01
 Coeff:     -0.216D-01-0.332D-01 0.154D+00 0.900D+00
 Gap=     0.455 Goal=   None    Shift=    0.000
 RMSDP=5.70D-05 MaxDP=1.45D-03 DE=-4.35D-04 OVMax= 1.86D-03

 Cycle   5  Pass 1  IDiag  1:
 RMSU=  1.39D-05    CP:  1.00D+00  1.11D+00  1.08D+00  1.11D+00
 FoFJK:  IHMeth= 1 ICntrl=     0 DoSepK=T KAlg= 1 I1Cent= 0 FoldK=F
 E= -151.325089845885     Delta-E=       -0.000036810245 Rises=F Damp=F
 DIIS: error= 6.92D-05 at cycle   5 NSaved=   5.
 NSaved= 5 IEnMin= 5 EnMin= -151.325089845885     IErMin= 5 ErrMin= 6.92D-05
 ErrMax= 6.92D-05 EMaxC= 1.00D-01 BMatC= 4.17D-07 BMatP= 3.91D-05
 IDIUse=1 WtCom= 1.00D+00 WtEn= 0.00D+00
 Coeff-Com:  0.792D-03-0.405D-02-0.365D-01-0.805D-01 0.112D+01
 Coeff:      0.792D-03-0.405D-02-0.365D-01-0.805D-01 0.112D+01
 Gap=     0.455 Goal=   None    Shift=    0.000
[...]
 Coeff:      0.100D+01
 Gap=     0.539 Goal=   None    Shift=    0.000
 RMSDP=1.39D-05 MaxDP=6.39D-04              OVMax= 3.10D-04

 Cycle   2  Pass 1  IDiag  1:
 RMSU=  9.85D-06    CP:  1.00D+00
 FoFJK:  IHMeth= 1 ICntrl=     0 DoSepK=T KAlg= 1 I1Cent= 0 FoldK=F
 E= -2753.41756221595     Delta-E=       -0.000000569564 Rises=F Damp=F
 DIIS: error= 3.93D-06 at cycle   2 NSaved=   2.
 NSaved= 2 IEnMin= 2 EnMin= -2753.41756221595     IErMin= 2 ErrMin= 3.93D-06
 ErrMax= 3.93D-06 EMaxC= 1.00D-01 BMatC= 3.48D-09 BMatP= 5.54D-06
 IDIUse=1 WtCom= 1.00D+00 WtEn= 0.00D+00
 Coeff-Com: -0.742D-02 0.101D+01
 Coeff:     -0.742D-02 0.101D+01
 Gap=     0.539 Goal=   None    Shift=    0.000
 RMSDP=1.50D-06 MaxDP=6.11D-05 DE=-5.70D-07 OVMax= 4.63D-05

 Cycle   3  Pass 1  IDiag  1:
 RMSU=  5.33D-07    CP:  1.00D+00  1.09D+00
 FoFJK:  IHMeth= 1 ICntrl=     0 DoSepK=T KAlg= 1 I1Cent= 0 FoldK=F
 E= -2753.41756222220     Delta-E=       -0.000000006246 Rises=F Damp=F
 DIIS: error= 6.37D-07 at cycle   3 NSaved=   3.
 NSaved= 3 IEnMin= 3 EnMin= -2753.41756222220     IErMin= 3 ErrMin= 6.37D-07
 ErrMax= 6.37D-07 EMaxC= 1.00D-01 BMatC= 9.66D-11 BMatP= 3.48D-09
 IDIUse=1 WtCom= 1.00D+00 WtEn= 0.00D+00
 Coeff-Com:  0.249D-03-0.114D+00 0.111D+01
 Coeff:      0.249D-03-0.114D+00 0.111D+01
 Gap=     0.539 Goal=   None    Shift=    0.000
 RMSDP=2.10D-07 MaxDP=9.83D-06 DE=-6.25D-09 OVMax= 9.24D-06

 Cycle   4  Pass 1  IDiag  1:
 RMSU=  5.30D-08    CP:  1.00D+00  1.10D+00  1.20D+00
 FoFJK:  IHMeth= 1 ICntrl=     0 DoSepK=T KAlg= 1 I1Cent= 0 FoldK=F
 E= -2753.41756222241     Delta-E=       -0.000000000210 Rises=F Damp=F
 DIIS: error= 3.11D-07 at cycle   4 NSaved=   4.
 NSaved= 4 IEnMin= 4 EnMin= -2753.41756222241     IErMin= 4 ErrMin= 3.11D-07
 ErrMax= 3.11D-07 EMaxC= 1.00D-01 BMatC= 1.47D-11 BMatP= 9.66D-11
 IDIUse=1 WtCom= 1.00D+00 WtEn= 0.00D+00
 Coeff-Com:  0.225D-03-0.540D-01 0.339D+00 0.714D+00
 Coeff:      0.225D-03-0.540D-01 0.339D+00 0.714D+00
 Gap=     0.539 Goal=   None    Shift=    0.000
 RMSDP=2.03D-08 MaxDP=7.51D-07 DE=-2.10D-10 OVMax= 9.89D-07

 Cycle   5  Pass 1  IDiag  1:
 RMSU=  9.89D-09    CP:  1.00D+00  1.10D+00  1.22D+00  1.10D+00
 FoFJK:  IHMeth= 1 ICntrl=     0 DoSepK=T KAlg= 1 I1Cent= 0 FoldK=F
 E= -2753.41756222242     Delta-E=       -0.000000000014 Rises=F Damp=F
 DIIS: error= 3.18D-08 at cycle   5 NSaved=   5.
 NSaved= 5 IEnMin= 5 EnMin= -2753.41756222242     IErMin= 5 ErrMin= 3.18D-08
 ErrMax= 3.18D-08 EMaxC= 1.00D-01 BMatC= 2.64D-13 BMatP= 1.47D-11
 IDIUse=1 WtCom= 1.00D+00 WtEn= 0.00D+00
 Coeff-Com: -0.190D-04 0.702D-02-0.655D-01-0.748D-02 0.107D+01
 Coeff:     -0.190D-04 0.702D-02-0.655D-01-0.748D-02 0.107D+01
 Gap=     0.539 Goal=   None    Shift=    0.000
 RMSDP=8.99D-09 MaxDP=4.78D-07 DE=-1.36D-11 OVMax= 4.54D-07

 SCF Done:  E(RLC-B+HF-LYP) =  -2753.41756222     A.U. after    5 cycles
             Convg  =    0.8992D-08             -V/T =  2.0015
 KE= 2.749364615917D+03 PE=-6.578580069675D+03 EE= 1.075797891535D+03
 Leave Link  502 at Wed May 13 23:38:34 2020, MaxMem= 1073741824 cpu:     100.0
 (Enter /home/matheus/.gaussian/g09/l122.exe)
 Restoring MOs from calculation   4 to rwf.
 Counterpoise: doing MCBS calculation for fragment   1
 Leave Link  122 at Wed May 13 23:38:34 2020, MaxMem= 1073741824 cpu:       0.0
 (Enter /home/matheus/.gaussian/g09/l301.exe)
 Basis read from rwf:  (5D, 7F)
 No pseudopotential information found on rwf file.
 There are   138 symmetry adapted basis functions of A   symmetry.
 Integral buffers will be    131072 words long.
 Raffenetti 2 integral format.
 Two-electron integral symmetry is turned on.
   138 basis functions,   198 primitive gaussians,   160 cartesian basis functions
     9 alpha electrons        9 beta electrons
       nuclear repulsion energy        36.6380791177 Hartrees.
 IExCor=10402 DFT=T Ex=LC-B+HF Corr=LYP ExCW=0 ScaHFX=  1.000000
 ScaDFX=  1.000000  1.000000  1.000000  1.000000 ScalE2=  1.000000  1.000000
 IRadAn=      5 IRanWt=     -1 IRanGd=            0 ICorTp=0
  HFx wShort=  0.000000 wLong=  0.470000 cFull=  0.000000 cShort=  0.000000 cLong=  1.000000
  DFx wShort=  0.000000 wLong=  0.470000 cFull=  0.000000 cShort=  0.000000 cLong=  1.000000
 NAtoms=    5 NActive=    4 NUniq=    4 SFac= 1.00D+00 NAtFMM=   60 NAOKFM=F Big=F
 No density basis found on file   718.
 Leave Link  301 at Wed May 13 23:38:34 2020, MaxMem= 1073741824 cpu:       0.2
 (Enter /home/matheus/.gaussian/g09/l302.exe)
 NPDir=0 NMtPBC=     1 NCelOv=     1 NCel=       1 NClECP=     1 NCelD=      1
         NCelK=      1 NCelE2=     1 NClLst=     1 CellRange=     0.0.
 One-electron integrals computed using PRISM.
 NBasis=   138 RedAO= T  NBF=   138
 NBsUse=   138 1.00D-06 NBFU=   138
 Precomputing XC quadrature grid using
 IXCGrd= 2 IRadAn=           5 IRanWt=          -1 IRanGd=           0 AccXCQ= 0.00D+00.
 NRdTot=     344 NPtTot=       92556 NUsed=       95038 NTot=       95070
 NSgBfM=   160   160   160   160   160 NAtAll=     4     4.
 Leave Link  302 at Wed May 13 23:38:34 2020, MaxMem= 1073741824 cpu:       0.8
 (Enter /home/matheus/.gaussian/g09/l303.exe)
 DipDrv:  MaxL=1.
 Leave Link  303 at Wed May 13 23:38:34 2020, MaxMem= 1073741824 cpu:       0.2
 (Enter /home/matheus/.gaussian/g09/l401.exe)
 Initial guess read from the read-write file.
 Guess basis will be translated and rotated to current coordinates.
 Initial guess orbital symmetries:
       Occupied  (A) (A) (A) (A) (A) (A) (A) (A) (A)
       Virtual   (A) (A) (A) (A) (A) (A) (A) (A) (A) (A) (A) (A)
                 (A) (A) (A) (A) (A) (A) (A) (A) (A) (A) (A) (A)
                 (A) (A) (A) (A) (A) (A) (A) (A) (A) (A) (A) (A)
                 (A) (A) (A) (A) (A) (A) (A) (A) (A) (A) (A) (A)
                 (A) (A) (A) (A) (A) (A) (A) (A) (A) (A) (A) (A)
                 (A) (A) (A) (A) (A) (A) (A) (A) (A) (A) (A) (A)
                 (A) (A) (A) (A) (A) (A) (A) (A) (A) (A) (A) (A)
                 (A) (A) (A) (A) (A) (A) (A) (A) (A) (A) (A) (A)
                 (A) (A) (A) (A) (A) (A) (A) (A) (A) (A) (A) (A)
                 (A) (A) (A) (A) (A) (A) (A) (A) (A) (A) (A) (A)
                 (A) (A) (A) (A) (A) (A) (A) (A) (A)
 The electronic state of the initial guess is 1-A.
 Generating alternative initial guess.
 Harris functional with IExCor=10402 diagonalized for initial guess.
 ExpMin= 2.53D-02 ExpMax= 1.53D+04 ExpMxC= 5.22D+02 IAcc=3 IRadAn=         5 AccDes= 0.00D+00
 HarFok:  IExCor=10402 AccDes= 0.00D+00 IRadAn=         5 IDoV= 1
 ScaDFX=  1.000000  1.000000  1.000000  1.000000
 FoFCou: FMM=F IPFlag=           0 FMFlag=      100000 FMFlg1=           0
         NFxFlg=           0 DoJE=T BraDBF=F KetDBF=T FulRan=T
         Omega=  0.000000  0.000000  1.000000  0.000000  0.000000 ICntrl=     500 IOpCl=  0
         NMat0=    1 NMatS0=    1 NMatT0=    0 NMatD0=    1 NMtDS0=    0 NMtDT0=    0
         I1Cent=           4 NGrid=           0.
 Petite list used in FoFCou.
 Harris En= -147.165095686663    
 Leave Link  401 at Wed May 13 23:38:35 2020, MaxMem= 1073741824 cpu:       2.7
 (Enter /home/matheus/.gaussian/g09/l502.exe)
 Closed shell SCF:
 Requested convergence on RMS density matrix=1.00D-08 within 128 cycles.
 Requested convergence on MAX density matrix=1.00D-06.
 Requested convergence on             energy=1.00D-06.
 No special actions if energy rises.
 Using DIIS extrapolation, IDIIS=  1040.
 Integral symmetry usage will be decided dynamically.
        94980 words used for storage of precomputed grid.
 IEnd=      192360 IEndB=      192360 NGot=  1073741824 MDV=  1073591865
 LenX=  1073591865 LenY=  1073565824
 Fock matrices will be formed incrementally for  20 cycles.

 Cycle   1  Pass 1  IDiag  1:
 FoFJK:  IHMeth= 1 ICntrl=     0 DoSepK=T KAlg= 1 I1Cent= 0 FoldK=F
 FoFCou: FMM=F IPFlag=           0 FMFlag=      100000 FMFlg1=           0
         NFxFlg=           0 DoJE=T BraDBF=F KetDBF=F FulRan=T
         Omega=  0.000000  0.000000  1.000000  0.000000  0.000000 ICntrl=     500 IOpCl=  0
         NMat0=    1 NMatS0=    1 NMatT0=    0 NMatD0=    1 NMtDS0=    0 NMtDT0=    0
         I1Cent=           0 NGrid=           0.
 Symmetry not used in FoFCou.
 E= -151.325091330813    
 DIIS: error= 6.67D-06 at cycle   1 NSaved=   1.
 NSaved= 1 IEnMin= 1 EnMin= -151.325091330813     IErMin= 1 ErrMin= 6.67D-06
 ErrMax= 6.67D-06 EMaxC= 1.00D-01 BMatC= 1.36D-08 BMatP= 1.36D-08
 IDIUse=1 WtCom= 1.00D+00 WtEn= 0.00D+00
 Coeff-Com:  0.100D+01
 Coeff:      0.100D+01
 Gap=     0.455 Goal=   None    Shift=    0.000
 RMSDP=7.81D-07 MaxDP=1.71D-05              OVMax= 2.94D-05

 Cycle   2  Pass 1  IDiag  1:
 RMSU=  5.52D-07    CP:  1.00D+00
 FoFJK:  IHMeth= 1 ICntrl=     0 DoSepK=T KAlg= 1 I1Cent= 0 FoldK=F
 E= -151.325091343886     Delta-E=       -0.000000013073 Rises=F Damp=F
 DIIS: error= 1.78D-06 at cycle   2 NSaved=   2.
 NSaved= 2 IEnMin= 2 EnMin= -151.325091343886     IErMin= 2 ErrMin= 1.78D-06
 ErrMax= 1.78D-06 EMaxC= 1.00D-01 BMatC= 5.24D-10 BMatP= 1.36D-08
 IDIUse=1 WtCom= 1.00D+00 WtEn= 0.00D+00
 Coeff-Com: -0.137D+00 0.114D+01
 Coeff:     -0.137D+00 0.114D+01
 Gap=     0.455 Goal=   None    Shift=    0.000
 RMSDP=2.18D-07 MaxDP=6.02D-06 DE=-1.31D-08 OVMax= 1.15D-05

 Cycle   3  Pass 1  IDiag  1:
 RMSU=  8.03D-08    CP:  1.00D+00  1.24D+00
 FoFJK:  IHMeth= 1 ICntrl=     0 DoSepK=T KAlg= 1 I1Cent= 0 FoldK=F
 E= -151.325091345062     Delta-E=       -0.000000001176 Rises=F Damp=F
 DIIS: error= 5.19D-07 at cycle   3 NSaved=   3.
 NSaved= 3 IEnMin= 3 EnMin= -151.325091345062     IErMin= 3 ErrMin= 5.19D-07
 ErrMax= 5.19D-07 EMaxC= 1.00D-01 BMatC= 3.88D-11 BMatP= 5.24D-10
 IDIUse=1 WtCom= 1.00D+00 WtEn= 0.00D+00
 Coeff-Com: -0.465D-02-0.133D+00 0.114D+01
 Coeff:     -0.465D-02-0.133D+00 0.114D+01
 Gap=     0.455 Goal=   None    Shift=    0.000
 RMSDP=6.70D-08 MaxDP=1.30D-06 DE=-1.18D-09 OVMax= 4.65D-06

 Cycle   4  Pass 1  IDiag  1:
 RMSU=  2.20D-08    CP:  1.00D+00  1.29D+00  1.39D+00
 FoFJK:  IHMeth= 1 ICntrl=     0 DoSepK=T KAlg= 1 I1Cent= 0 FoldK=F
 E= -151.325091345174     Delta-E=       -0.000000000112 Rises=F Damp=F
 DIIS: error= 3.14D-07 at cycle   4 NSaved=   4.
 NSaved= 4 IEnMin= 4 EnMin= -151.325091345174     IErMin= 4 ErrMin= 3.14D-07
 ErrMax= 3.14D-07 EMaxC= 1.00D-01 BMatC= 1.66D-11 BMatP= 3.88D-11
 IDIUse=1 WtCom= 1.00D+00 WtEn= 0.00D+00
 Coeff-Com:  0.853D-02-0.148D+00 0.459D+00 0.681D+00
 Coeff:      0.853D-02-0.148D+00 0.459D+00 0.681D+00
 Gap=     0.455 Goal=   None    Shift=    0.000
 RMSDP=2.24D-08 MaxDP=3.11D-07 DE=-1.12D-10 OVMax= 1.54D-06

 Cycle   5  Pass 1  IDiag  1:
 RMSU=  1.20D-08    CP:  1.00D+00  1.30D+00  1.51D+00  9.27D-01
 FoFJK:  IHMeth= 1 ICntrl=     0 DoSepK=T KAlg= 1 I1Cent= 0 FoldK=F
 E= -151.325091345193     Delta-E=       -0.000000000019 Rises=F Damp=F
 DIIS: error= 1.62D-07 at cycle   5 NSaved=   5.
 NSaved= 5 IEnMin= 5 EnMin= -151.325091345193     IErMin= 5 ErrMin= 1.62D-07
 ErrMax= 1.62D-07 EMaxC= 1.00D-01 BMatC= 3.35D-12 BMatP= 1.66D-11
 IDIUse=1 WtCom= 1.00D+00 WtEn= 0.00D+00
 Coeff-Com:  0.460D-02-0.300D-01-0.103D+00 0.300D+00 0.829D+00
 Coeff:      0.460D-02-0.300D-01-0.103D+00 0.300D+00 0.829D+00
 Gap=     0.455 Goal=   None    Shift=    0.000
 RMSDP=1.30D-08 MaxDP=2.28D-07 DE=-1.88D-11 OVMax= 9.98D-07

 Cycle   6  Pass 1  IDiag  1:
 RMSU=  3.52D-09    CP:  1.00D+00  1.30D+00  1.57D+00  1.22D+00  1.13D+00
 FoFJK:  IHMeth= 1 ICntrl=     0 DoSepK=T KAlg= 1 I1Cent= 0 FoldK=F
 E= -151.325091345198     Delta-E=       -0.000000000005 Rises=F Damp=F
 DIIS: error= 2.63D-08 at cycle   6 NSaved=   6.
 NSaved= 6 IEnMin= 6 EnMin= -151.325091345198     IErMin= 6 ErrMin= 2.63D-08
 ErrMax= 2.63D-08 EMaxC= 1.00D-01 BMatC= 1.33D-13 BMatP= 3.35D-12
 IDIUse=1 WtCom= 1.00D+00 WtEn= 0.00D+00
 Coeff-Com: -0.118D-02 0.187D-01-0.501D-01-0.740D-01-0.462D-02 0.111D+01
 Coeff:     -0.118D-02 0.187D-01-0.501D-01-0.740D-01-0.462D-02 0.111D+01
 Gap=     0.455 Goal=   None    Shift=    0.000
 RMSDP=5.26D-09 MaxDP=1.08D-07 DE=-5.06D-12 OVMax= 4.31D-07

 SCF Done:  E(RLC-B+HF-LYP) =  -151.325091345     A.U. after    6 cycles
             Convg  =    0.5256D-08             -V/T =  2.0057
 KE= 1.504732795792D+02 PE=-4.314222380437D+02 EE= 9.298578800154D+01
 Leave Link  502 at Wed May 13 23:38:41 2020, MaxMem= 1073741824 cpu:      49.4
 (Enter /home/matheus/.gaussian/g09/l122.exe)
 Restoring MOs from calculation   5 to rwf.
 Counterpoise: doing MCBS calculation for fragment   2
 Leave Link  122 at Wed May 13 23:38:41 2020, MaxMem= 1073741824 cpu:       0.0
 (Enter /home/matheus/.gaussian/g09/l301.exe)
 Basis read from rwf:  (5D, 7F)
 No pseudopotential information found on rwf file.
 There are    59 symmetry adapted basis functions of A   symmetry.
 Integral buffers will be    131072 words long.
 Raffenetti 2 integral format.
 Two-electron integral symmetry is turned on.
    59 basis functions,   217 primitive gaussians,    69 cartesian basis functions
    18 alpha electrons       18 beta electrons
       nuclear repulsion energy         0.0000000000 Hartrees.
 IExCor=10402 DFT=T Ex=LC-B+HF Corr=LYP ExCW=0 ScaHFX=  1.000000
 ScaDFX=  1.000000  1.000000  1.000000  1.000000 ScalE2=  1.000000  1.000000
 IRadAn=      5 IRanWt=     -1 IRanGd=            0 ICorTp=0
  HFx wShort=  0.000000 wLong=  0.470000 cFull=  0.000000 cShort=  0.000000 cLong=  1.000000
  DFx wShort=  0.000000 wLong=  0.470000 cFull=  0.000000 cShort=  0.000000 cLong=  1.000000
 NAtoms=    5 NActive=    1 NUniq=    1 SFac= 1.00D+00 NAtFMM=   60 NAOKFM=F Big=F
 No density basis found on file   718.
 Leave Link  301 at Wed May 13 23:38:41 2020, MaxMem= 1073741824 cpu:       0.2
 (Enter /home/matheus/.gaussian/g09/l302.exe)
 NPDir=0 NMtPBC=     1 NCelOv=     1 NCel=       1 NClECP=     1 NCelD=      1
         NCelK=      1 NCelE2=     1 NClLst=     1 CellRange=     0.0.
 One-electron integrals computed using PRISM.
 NBasis=    59 RedAO= T  NBF=    59
 NBsUse=    59 1.00D-06 NBFU=    59
 Precomputing XC quadrature grid using
 IXCGrd= 2 IRadAn=           5 IRanWt=          -1 IRanGd=           0 AccXCQ= 0.00D+00.
 NRdTot=      81 NPtTot=       30352 NUsed=       30981 NTot=       31013
 NSgBfM=    69    69    69    69    69 NAtAll=     1     1.
 Leave Link  302 at Wed May 13 23:38:41 2020, MaxMem= 1073741824 cpu:       0.6
 (Enter /home/matheus/.gaussian/g09/l303.exe)
 DipDrv:  MaxL=1.
 Leave Link  303 at Wed May 13 23:38:41 2020, MaxMem= 1073741824 cpu:       0.1
 (Enter /home/matheus/.gaussian/g09/l401.exe)
 Initial guess read from the read-write file.
 Guess basis will be translated and rotated to current coordinates.
 Initial guess orbital symmetries:
       Occupied  (A) (A) (A) (A) (A) (A) (A) (A) (A) (A) (A) (A)
                 (A) (A) (A) (A) (A) (A)
       Virtual   (A) (A) (A) (A) (A) (A) (A) (A) (A) (A) (A) (A)
                 (A) (A) (A) (A) (A) (A) (A) (A) (A) (A) (A) (A)
                 (A) (A) (A) (A) (A) (A) (A) (A) (A) (A) (A) (A)
                 (A) (A) (A) (A) (A)
 The electronic state of the initial guess is 1-A.
 Generating alternative initial guess.
 Harris functional with IExCor=10402 diagonalized for initial guess.
 ExpMin= 4.00D-02 ExpMax= 1.17D+07 ExpMxC= 1.33D+04 IAcc=3 IRadAn=         5 AccDes= 0.00D+00
 HarFok:  IExCor=10402 AccDes= 0.00D+00 IRadAn=         5 IDoV= 1
 ScaDFX=  1.000000  1.000000  1.000000  1.000000
 FoFCou: FMM=F IPFlag=           0 FMFlag=      100000 FMFlg1=           0
         NFxFlg=           0 DoJE=T BraDBF=F KetDBF=T FulRan=T
         Omega=  0.000000  0.000000  1.000000  0.000000  0.000000 ICntrl=     500 IOpCl=  0
         NMat0=    1 NMatS0=    1 NMatT0=    0 NMatD0=    1 NMtDS0=    0 NMtDT0=    0
         I1Cent=           4 NGrid=           0.
 Petite list used in FoFCou.
 Harris En= -2744.51485235229    
 Leave Link  401 at Wed May 13 23:38:41 2020, MaxMem= 1073741824 cpu:       1.1
 (Enter /home/matheus/.gaussian/g09/l502.exe)
 Closed shell SCF:
 Requested convergence on RMS density matrix=1.00D-08 within 128 cycles.
 Requested convergence on MAX density matrix=1.00D-06.
 Requested convergence on             energy=1.00D-06.
 No special actions if energy rises.
 Using DIIS extrapolation, IDIIS=  1040.
 Integral symmetry usage will be decided dynamically.
        30923 words used for storage of precomputed grid.
 IEnd=       64406 IEndB=       64406 NGot=  1073741824 MDV=  1073698889
 LenX=  1073698889 LenY=  1073693687
 Fock matrices will be formed incrementally for  20 cycles.

 Cycle   1  Pass 1  IDiag  1:
 FoFJK:  IHMeth= 1 ICntrl=     0 DoSepK=T KAlg= 1 I1Cent= 0 FoldK=F
 FoFCou: FMM=F IPFlag=           0 FMFlag=      100000 FMFlg1=           0
         NFxFlg=           0 DoJE=T BraDBF=F KetDBF=F FulRan=T
         Omega=  0.000000  0.000000  1.000000  0.000000  0.000000 ICntrl=     500 IOpCl=  0
         NMat0=    1 NMatS0=    1 NMatT0=    0 NMatD0=    1 NMtDS0=    0 NMtDT0=    0
         I1Cent=           0 NGrid=           0.
 Symmetry not used in FoFCou.
 E= -2753.41754223393    
 DIIS: error= 8.34D-14 at cycle   1 NSaved=   1.
 NSaved= 1 IEnMin= 1 EnMin= -2753.41754223393     IErMin= 1 ErrMin= 8.34D-14
 ErrMax= 8.34D-14 EMaxC= 1.00D-01 BMatC= 2.82D-25 BMatP= 2.82D-25
 IDIUse=1 WtCom= 1.00D+00 WtEn= 0.00D+00
 Coeff-Com:  0.100D+01
 Coeff:      0.100D+01
 Gap=     0.595 Goal=   None    Shift=    0.000
 DSYEVD returned Info=        1859 IAlg= 4 N=    59 NDim=    59 NE2=    18198197 trying DSYEV.
 RMSDP=6.36D-15 MaxDP=1.61D-13              OVMax= 2.10D-14

 SCF Done:  E(RLC-B+HF-LYP) =  -2753.41754223     A.U. after    1 cycles
             Convg  =    0.6362D-14             -V/T =  2.0015
 KE= 2.749372504928D+03 PE=-6.578588569976D+03 EE= 1.075798522814D+03
 Leave Link  502 at Wed May 13 23:38:43 2020, MaxMem= 1073741824 cpu:      12.2
 (Enter /home/matheus/.gaussian/g09/l122.exe)
 Restoring MOs from calculation   1 to rwf.
 Counterpoise: corrected energy =   -2904.742748376295
 Counterpoise: BSSE energy =       0.000025779811
 Leave Link  122 at Wed May 13 23:38:43 2020, MaxMem= 1073741824 cpu:       0.0
 (Enter /home/matheus/.gaussian/g09/l108.exe)
 Scan completed.

 Summary of the potential surface scan:
   N      R1          SCF    
 ----  ---------  -----------
    1     3.0000  -2753.41754
    2     3.1000  -2753.41754
    3     3.2000  -2753.41754
    4     3.3000  -2753.41754
    5     3.4000  -2753.41754
    6     3.5000  -2753.41754
    7     3.6000  -2753.41754
    8     3.7000  -2753.41754
    9     3.8000  -2753.41754
   10     3.9000  -2753.41754
   11     4.0000  -2753.41754
   12     4.1000  -2753.41754
   13     4.2000  -2753.41754
   14     4.3000  -2753.41754
   15     4.4000  -2753.41754
   16     4.5000  -2753.41754
   17     4.6000  -2753.41754
   18     4.7000  -2753.41754
   19     4.8000  -2753.41754
   20     4.9000  -2753.41754
   21     5.0000  -2753.41754
 ----  ---------  -----------
  
 Leave Link  108 at Wed May 13 23:38:43 2020, MaxMem= 1073741824 cpu:       0.0
 (Enter /home/matheus/.gaussian/g09/l9999.exe)
 1\1\GINC-REDGIANT\Scan\RLC-BLYP\Aug-CC-pVTZ\H2Kr1O2\MATHEUS\13-May-202
 0\1\\#p lc-blyp/aug-cc-PVTz int=ultrafine counterpoise=2 Scan\\TCC\\0,
 1\O,0,0.,0.,0.725\O,0,0.,0.,-0.725\H,0,-0.8633149634,0.3142209495,1.02
 35104166\H,0,0.,0.9187205947,-1.0235104166\Kr,0,0.,R1,0.\\R1=3.,s,20,0
 .1\\Version=EM64L-G09RevC.01\State=1-A\HF=-2753.4175422,-2753.4175422,
 -2753.4175422,-2753.4175422,-2753.4175422,-2753.4175422,-2753.4175422,
 -2753.4175422,-2753.4175422,-2753.4175422,-2753.4175422,-2753.4175422,
 -2753.4175422,-2753.4175422,-2753.4175422,-2753.4175422,-2753.4175422,
 -2753.4175422,-2753.4175422,-2753.4175422,-2753.4175422\RMSD=1.334e-09
 ,5.265e-11,1.629e-11,9.943e-12,5.940e-12,3.613e-12,2.186e-12,1.320e-12
 ,7.949e-13,4.796e-13,2.891e-13,1.735e-13,1.081e-13,6.722e-14,3.997e-14
 ,2.480e-14,1.322e-14,8.575e-15,7.478e-15,1.060e-14,6.362e-15\PG=C01 [X
 (H2Kr1O2)]\\@


 THE LENGTH OF A MEETING IS PROPORTIONAL TO THE
 SQUARE OF THE PARTICIPANTS.
 Job cpu time:  0 days  3 hours 51 minutes 49.1 seconds.
 File lengths (MBytes):  RWF=     33 Int=      0 D2E=      0 Chk=      8 Scr=      1
 Normal termination of Gaussian 09 at Wed May 13 23:38:43 2020.
