 Entering Gaussian System, Link 0=g09
 Input=/home/matheus/.tcc/Inputs/Inputs-lc-blyp-default/H2O2-Kr_19.com
 Output=/home/matheus/.tcc/Logs/Logs-lc-blyp-default/H2O2-Kr_19.log
 Initial command:
 /home/matheus/.gaussian/g09/l1.exe /home/matheus/.gaussian/g09/scratch/Gau-5057.inp -scrdir=/home/matheus/.gaussian/g09/scratch/
 Entering Link 1 = /home/matheus/.gaussian/g09/l1.exe PID=      5060.
  
 Copyright (c) 1988,1990,1992,1993,1995,1998,2003,2009,2011,
            Gaussian, Inc.  All Rights Reserved.
  
 This is part of the Gaussian(R) 09 program.  It is based on
 the Gaussian(R) 03 system (copyright 2003, Gaussian, Inc.),
 the Gaussian(R) 98 system (copyright 1998, Gaussian, Inc.),
 the Gaussian(R) 94 system (copyright 1995, Gaussian, Inc.),
 the Gaussian 92(TM) system (copyright 1992, Gaussian, Inc.),
 the Gaussian 90(TM) system (copyright 1990, Gaussian, Inc.),
 the Gaussian 88(TM) system (copyright 1988, Gaussian, Inc.),
 the Gaussian 86(TM) system (copyright 1986, Carnegie Mellon
 University), and the Gaussian 82(TM) system (copyright 1983,
 Carnegie Mellon University). Gaussian is a federally registered
 trademark of Gaussian, Inc.
  
 This software contains proprietary and confidential information,
 including trade secrets, belonging to Gaussian, Inc.
  
 This software is provided under written license and may be
 used, copied, transmitted, or stored only in accord with that
 written license.
  
 The following legend is applicable only to US Government
 contracts under FAR:
  
                    RESTRICTED RIGHTS LEGEND
  
 Use, reproduction and disclosure by the US Government is
 subject to restrictions as set forth in subparagraphs (a)
 and (c) of the Commercial Computer Software - Restricted
 Rights clause in FAR 52.227-19.
  
 Gaussian, Inc.
 340 Quinnipiac St., Bldg. 40, Wallingford CT 06492
  
  
 ---------------------------------------------------------------
 Warning -- This program may not be used in any manner that
 competes with the business of Gaussian, Inc. or will provide
 assistance to any competitor of Gaussian, Inc.  The licensee
 of this program is prohibited from giving any competitor of
 Gaussian, Inc. access to this program.  By using this program,
 the user acknowledges that Gaussian, Inc. is engaged in the
 business of creating and licensing software in the field of
 computational chemistry and represents and warrants to the
 licensee that it is not a competitor of Gaussian, Inc. and that
 it will not use this program in any manner prohibited above.
 ---------------------------------------------------------------
  

 Cite this work as:
 Gaussian 09, Revision C.01,
 M. J. Frisch, G. W. Trucks, H. B. Schlegel, G. E. Scuseria, 
 M. A. Robb, J. R. Cheeseman, G. Scalmani, V. Barone, B. Mennucci, 
 G. A. Petersson, H. Nakatsuji, M. Caricato, X. Li, H. P. Hratchian, 
 A. F. Izmaylov, J. Bloino, G. Zheng, J. L. Sonnenberg, M. Hada, 
 M. Ehara, K. Toyota, R. Fukuda, J. Hasegawa, M. Ishida, T. Nakajima, 
 Y. Honda, O. Kitao, H. Nakai, T. Vreven, J. A. Montgomery, Jr., 
 J. E. Peralta, F. Ogliaro, M. Bearpark, J. J. Heyd, E. Brothers, 
 K. N. Kudin, V. N. Staroverov, T. Keith, R. Kobayashi, J. Normand, 
 K. Raghavachari, A. Rendell, J. C. Burant, S. S. Iyengar, J. Tomasi, 
 M. Cossi, N. Rega, J. M. Millam, M. Klene, J. E. Knox, J. B. Cross, 
 V. Bakken, C. Adamo, J. Jaramillo, R. Gomperts, R. E. Stratmann, 
 O. Yazyev, A. J. Austin, R. Cammi, C. Pomelli, J. W. Ochterski, 
 R. L. Martin, K. Morokuma, V. G. Zakrzewski, G. A. Voth, 
 P. Salvador, J. J. Dannenberg, S. Dapprich, A. D. Daniels, 
 O. Farkas, J. B. Foresman, J. V. Ortiz, J. Cioslowski, 
 and D. J. Fox, Gaussian, Inc., Wallingford CT, 2010.
 
 ******************************************
 Gaussian 09:  EM64L-G09RevC.01 23-Sep-2011
                13-May-2020 
 ******************************************
 %mem=8GB
 %nproc=8
 Will use up to    8 processors via shared memory.
 --------------------------------------------------------
 #p lc-blyp/aug-cc-PVTz int=ultrafine counterpoise=2 Scan
 --------------------------------------------------------
 1/38=1,60=1,62=2/1,8;
 2/12=2,17=6,18=5,29=3,40=1/2;
 1/38=1,53=5172,62=2/22;
 3/5=16,6=1,7=10,11=2,16=1,25=1,30=1,74=1000402,75=-5/1,2,3;
 4//1;
 5/5=2,38=5/2;
 6/7=2,8=2,9=2,10=2,18=1,28=1/1;
 1/53=4052,62=2,63=1/22;
 3/5=7,6=11,7=10,11=2,16=1,25=1,30=1,74=1000402,75=-5,82=7/1,2,3;
 4//1;
 5/5=2,38=5/2;
 6/7=2,8=2,9=2,10=2,18=1,28=1/1;
 1/53=3042,62=2,63=2/22;
 3/5=7,6=11,7=10,11=2,16=1,25=1,30=1,74=1000402,75=-5,82=7/1,2,3;
 4//1;
 5/5=2,38=5/2;
 6/7=2,8=2,9=2,10=2,18=1,28=1/1;
 1/53=2032,62=2,63=3/22;
 3/5=7,6=11,7=10,11=2,16=1,25=1,30=1,74=1000402,75=-5,82=7/1,2,3;
 4//1;
 5/5=2,38=5/2;
 6/7=2,8=2,9=2,10=2,18=1,28=1/1;
 1/53=1022,62=2,63=4/22;
 3/5=7,6=11,7=10,11=2,16=1,25=1,30=1,74=1000402,75=-5,82=7/1,2,3;
 4//1;
 5/5=2,38=5/2;
 6/7=2,8=2,9=2,10=2,18=1,28=1/1;
 1/53=5014,62=2,63=5/22;
 1/60=1,62=2/8(1);
 99/9=1/99;
 2/29=3/2;
 1/53=5173,62=2/22;
 3/5=7,6=11,7=10,11=2,16=1,25=1,30=1,74=1000402,75=-5,82=7/1,2,3;
 4/5=5,16=3/1;
 5/5=2,38=5/2;
 1/53=4053,62=2,63=1/22;
 3/5=7,6=11,7=10,11=2,16=1,25=1,30=1,74=1000402,75=-5,82=7/1,2,3;
 4/5=5,16=3/1;
 5/5=2,38=5/2;
 1/53=3043,62=2,63=2/22;
 3/5=7,6=11,7=10,11=2,16=1,25=1,30=1,74=1000402,75=-5,82=7/1,2,3;
 4/5=5,16=3/1;
 5/5=2,38=5/2;
 1/53=2033,62=2,63=3/22;
 3/5=7,6=11,7=10,11=2,16=1,25=1,30=1,74=1000402,75=-5,82=7/1,2,3;
 4/5=5,16=3/1;
 5/5=2,38=5/2;
 1/53=1024,62=2,63=4/22;
 3/5=7,6=11,7=10,11=2,16=1,25=1,30=1,74=1000402,75=-5,82=7/1,2,3;
 4/5=5,16=3/1;
 5/5=2,38=5/2;
 1/53=5014,62=2,63=5/22;
 1/60=1,62=2/8(-22);
 99/9=1/99;
 Leave Link    1 at Wed May 13 18:51:10 2020, MaxMem= 1073741824 cpu:       0.1
 (Enter /home/matheus/.gaussian/g09/l101.exe)
 ---
 TCC
 ---
 Charge =  0 Multiplicity = 1 in supermolecule
 Charge =  0 Multiplicity = 1 in fragment  1.
 Charge =  0 Multiplicity = 1 in fragment  2.
 Symbolic Z-Matrix:
 O(Fragment=1)         0.        0.        0.725 
 O(Fragment=1)         0.        0.       -0.725 
 H(Fragment=1)        -0.15953  -0.90476   1.02351 
 H(Fragment=1)         0.        0.91872  -1.02351 
 Kr(Fragment=2)        0.       R1        0. 
       Variables:
  R1                    3.     Scan 20    0.1    
 
 NAtoms=      5 NQM=        0 NQMF=       0 NMMI=      5 NMMIF=      0
                NMic=       0 NMicF=      0.
                    Isotopes and Nuclear Properties:
 (Nuclear quadrupole moments (NQMom) in fm**2, nuclear magnetic moments (NMagM)
  in nuclear magnetons)

  Atom         1           2           3           4           5
 IAtWgt=          16          16           1           1          84
 AtmWgt=  15.9949146  15.9949146   1.0078250   1.0078250  83.9115064
 NucSpn=           0           0           1           1           0
 AtZEff=   0.0000000   0.0000000   0.0000000   0.0000000   0.0000000
 NQMom=    0.0000000   0.0000000   0.0000000   0.0000000   0.0000000
 NMagM=    0.0000000   0.0000000   2.7928460   2.7928460   0.0000000
 Leave Link  101 at Wed May 13 18:51:10 2020, MaxMem= 1073741824 cpu:       0.3
 (Enter /home/matheus/.gaussian/g09/l108.exe)
 Scan the potential surface.
 Variable   Value     No. Steps Step-Size
 -------- ----------- --------- ---------
     1       3.000000      20      0.1000
 A total of     21 points will be computed.
 Leave Link  108 at Wed May 13 18:51:10 2020, MaxMem= 1073741824 cpu:       0.0
 (Enter /home/matheus/.gaussian/g09/l202.exe)
 ---------------------------------------------------------------------------------------------------
                            Z-MATRIX (ANGSTROMS AND DEGREES)
   CD    Cent   Atom    N1       Length/X        N2       Alpha/Y        N3        Beta/Z          J
 ---------------------------------------------------------------------------------------------------
      1      1  O        0   0.000000          0.000000          0.725000
      2      2  O        0   0.000000          0.000000         -0.725000
      3      3  H        0  -0.159534         -0.904763          1.023510
      4      4  H        0   0.000000          0.918721         -1.023510
      5      5  Kr       0   0.000000          3.000000          0.000000
 ---------------------------------------------------------------------------------------------------
                         Z-Matrix orientation:                         
 ---------------------------------------------------------------------
 Center     Atomic      Atomic             Coordinates (Angstroms)
 Number     Number       Type             X           Y           Z
 ---------------------------------------------------------------------
      1          8           0        0.000000    0.000000    0.725000
      2          8           0        0.000000    0.000000   -0.725000
      3          1           0       -0.159534   -0.904763    1.023510
      4          1           0        0.000000    0.918721   -1.023510
      5         36           0        0.000000    3.000000    0.000000
 ---------------------------------------------------------------------
                    Distance matrix (angstroms):
                    1          2          3          4          5
     1  O    0.000000
     2  O    1.450000   0.000000
     3  H    0.966000   1.975180   0.000000
     4  H    1.975180   0.966000   2.746059   0.000000
     5  Kr   3.086361   3.086361   4.039827   2.319331   0.000000
 Stoichiometry    H2KrO2
 Framework group  C1[X(H2KrO2)]
 Deg. of freedom     9
 Full point group                 C1      NOp   1
 Largest Abelian subgroup         C1      NOp   1
 Largest concise Abelian subgroup C1      NOp   1
                         Standard orientation:                         
 ---------------------------------------------------------------------
 Center     Atomic      Atomic             Coordinates (Angstroms)
 Number     Number       Type             X           Y           Z
 ---------------------------------------------------------------------
      1          8           0       -2.013524   -0.686962   -0.021683
      2          8           0       -1.986222    0.762620   -0.000129
      3          1           0       -2.924418   -0.970655    0.129799
      4          1           0       -1.062052    1.043690    0.007960
      5         36           0        0.999568   -0.018842    0.001020
 ---------------------------------------------------------------------
 Rotational constants (GHZ):     26.6931850      2.3029701      2.1204694
 Leave Link  202 at Wed May 13 18:51:10 2020, MaxMem= 1073741824 cpu:       0.0
 (Enter /home/matheus/.gaussian/g09/l122.exe)
 Leave Link  122 at Wed May 13 18:51:10 2020, MaxMem= 1073741824 cpu:       0.0
 (Enter /home/matheus/.gaussian/g09/l301.exe)
 Standard basis: Aug-CC-pVTZ (5D, 7F)
 Ernie: Thresh=  0.10000D-02 Tol=  0.10000D-05 Strict=F.
 Ernie:  38 primitive shells out of 205 were deleted.
 There are   197 symmetry adapted basis functions of A   symmetry.
 Integral buffers will be    131072 words long.
 Raffenetti 2 integral format.
 Two-electron integral symmetry is turned on.
   197 basis functions,   415 primitive gaussians,   229 cartesian basis functions
    27 alpha electrons       27 beta electrons
       nuclear repulsion energy       148.2893698349 Hartrees.
 IExCor=10402 DFT=T Ex=LC-B+HF Corr=LYP ExCW=0 ScaHFX=  1.000000
 ScaDFX=  1.000000  1.000000  1.000000  1.000000 ScalE2=  1.000000  1.000000
 IRadAn=      5 IRanWt=     -1 IRanGd=            0 ICorTp=0
  HFx wShort=  0.000000 wLong=  0.470000 cFull=  0.000000 cShort=  0.000000 cLong=  1.000000
  DFx wShort=  0.000000 wLong=  0.470000 cFull=  0.000000 cShort=  0.000000 cLong=  1.000000
 NAtoms=    5 NActive=    5 NUniq=    5 SFac= 1.00D+00 NAtFMM=   60 NAOKFM=F Big=F
 Leave Link  301 at Wed May 13 18:51:10 2020, MaxMem= 1073741824 cpu:       0.2
 (Enter /home/matheus/.gaussian/g09/l302.exe)
 NPDir=0 NMtPBC=     1 NCelOv=     1 NCel=       1 NClECP=     1 NCelD=      1
         NCelK=      1 NCelE2=     1 NClLst=     1 CellRange=     0.0.
 One-electron integrals computed using PRISM.
 NBasis=   197 RedAO= T  NBF=   197
 NBsUse=   197 1.00D-06 NBFU=   197
 Precomputing XC quadrature grid using
 IXCGrd= 2 IRadAn=           5 IRanWt=          -1 IRanGd=           0 AccXCQ= 0.00D+00.
 NRdTot=     427 NPtTot=      123814 NUsed=      126881 NTot=      126913
 NSgBfM=   229   229   229   229   229 NAtAll=     5     5.
 Leave Link  302 at Wed May 13 18:51:10 2020, MaxMem= 1073741824 cpu:       1.0
 (Enter /home/matheus/.gaussian/g09/l303.exe)
 DipDrv:  MaxL=1.
 Leave Link  303 at Wed May 13 18:51:11 2020, MaxMem= 1073741824 cpu:       0.2
 (Enter /home/matheus/.gaussian/g09/l401.exe)
 Harris functional with IExCor=10402 diagonalized for initial guess.
 ExpMin= 2.53D-02 ExpMax= 1.17D+07 ExpMxC= 1.33D+04 IAcc=3 IRadAn=         5 AccDes= 0.00D+00
 HarFok:  IExCor=10402 AccDes= 0.00D+00 IRadAn=         5 IDoV= 1
 ScaDFX=  1.000000  1.000000  1.000000  1.000000
 FoFCou: FMM=F IPFlag=           0 FMFlag=      100000 FMFlg1=           0
         NFxFlg=           0 DoJE=T BraDBF=F KetDBF=T FulRan=T
         Omega=  0.000000  0.000000  1.000000  0.000000  0.000000 ICntrl=     500 IOpCl=  0
         NMat0=    1 NMatS0=    1 NMatT0=    0 NMatD0=    1 NMtDS0=    0 NMtDT0=    0
         I1Cent=           4 NGrid=           0.
 Petite list used in FoFCou.
 Harris En= -2891.66926500385    
 Initial guess orbital symmetries:
       Occupied  (A) (A) (A) (A) (A) (A) (A) (A) (A) (A) (A) (A)
                 (A) (A) (A) (A) (A) (A) (A) (A) (A) (A) (A) (A)
                 (A) (A) (A)
       Virtual   (A) (A) (A) (A) (A) (A) (A) (A) (A) (A) (A) (A)
                 (A) (A) (A) (A) (A) (A) (A) (A) (A) (A) (A) (A)
                 (A) (A) (A) (A) (A) (A) (A) (A) (A) (A) (A) (A)
                 (A) (A) (A) (A) (A) (A) (A) (A) (A) (A) (A) (A)
                 (A) (A) (A) (A) (A) (A) (A) (A) (A) (A) (A) (A)
                 (A) (A) (A) (A) (A) (A) (A) (A) (A) (A) (A) (A)
                 (A) (A) (A) (A) (A) (A) (A) (A) (A) (A) (A) (A)
                 (A) (A) (A) (A) (A) (A) (A) (A) (A) (A) (A) (A)
                 (A) (A) (A) (A) (A) (A) (A) (A) (A) (A) (A) (A)
                 (A) (A) (A) (A) (A) (A) (A) (A) (A) (A) (A) (A)
                 (A) (A) (A) (A) (A) (A) (A) (A) (A) (A) (A) (A)
                 (A) (A) (A) (A) (A) (A) (A) (A) (A) (A) (A) (A)
                 (A) (A) (A) (A) (A) (A) (A) (A) (A) (A) (A) (A)
                 (A) (A) (A) (A) (A) (A) (A) (A) (A) (A) (A) (A)
                 (A) (A)
 The electronic state of the initial guess is 1-A.
 Leave Link  401 at Wed May 13 18:51:11 2020, MaxMem= 1073741824 cpu:       3.8
 (Enter /home/matheus/.gaussian/g09/l502.exe)
 Closed shell SCF:
 Requested convergence on RMS density matrix=1.00D-08 within 128 cycles.
 Requested convergence on MAX density matrix=1.00D-06.
 Requested convergence on             energy=1.00D-06.
 No special actions if energy rises.
 Using DIIS extrapolation, IDIIS=  1040.
 Integral symmetry usage will be decided dynamically.
       126823 words used for storage of precomputed grid.
 IEnd=      305770 IEndB=      305770 NGot=  1073741824 MDV=  1073505365
 LenX=  1073505365 LenY=  1073452483
 Fock matrices will be formed incrementally for  20 cycles.

 Cycle   1  Pass 1  IDiag  1:
 FoFJK:  IHMeth= 1 ICntrl=     0 DoSepK=T KAlg= 1 I1Cent= 0 FoldK=F
 FoFCou: FMM=F IPFlag=           0 FMFlag=      100000 FMFlg1=           0
         NFxFlg=           0 DoJE=T BraDBF=F KetDBF=F FulRan=T
         Omega=  0.000000  0.000000  1.000000  0.000000  0.000000 ICntrl=     500 IOpCl=  0
         NMat0=    1 NMatS0=    1 NMatT0=    0 NMatD0=    1 NMtDS0=    0 NMtDT0=    0
         I1Cent=           0 NGrid=           0.
 Symmetry not used in FoFCou.
 E= -2904.63413834182    
 DIIS: error= 3.00D-02 at cycle   1 NSaved=   1.
 NSaved= 1 IEnMin= 1 EnMin= -2904.63413834182     IErMin= 1 ErrMin= 3.00D-02
 ErrMax= 3.00D-02 EMaxC= 1.00D-01 BMatC= 2.83D-01 BMatP= 2.83D-01
 IDIUse=3 WtCom= 7.00D-01 WtEn= 3.00D-01
 Coeff-Com:  0.100D+01
 Coeff-En:   0.100D+01
 Coeff:      0.100D+01
 Gap=     0.465 Goal=   None    Shift=    0.000
 GapD=    0.465 DampG=2.000 DampE=0.500 DampFc=1.0000 IDamp=-1.
 RMSDP=2.68D-03 MaxDP=1.52D-01              OVMax= 1.06D-01

 Cycle   2  Pass 1  IDiag  1:
 RMSU=  1.85D-03    CP:  1.02D+00
 FoFJK:  IHMeth= 1 ICntrl=     0 DoSepK=T KAlg= 1 I1Cent= 0 FoldK=F
 E= -2904.70838945820     Delta-E=       -0.074251116386 Rises=F Damp=F
 DIIS: error= 1.62D-02 at cycle   2 NSaved=   2.
 NSaved= 2 IEnMin= 2 EnMin= -2904.70838945820     IErMin= 2 ErrMin= 1.62D-02
 ErrMax= 1.62D-02 EMaxC= 1.00D-01 BMatC= 9.32D-02 BMatP= 2.83D-01
 IDIUse=3 WtCom= 8.38D-01 WtEn= 1.62D-01
 Coeff-Com:  0.360D+00 0.640D+00
 Coeff-En:   0.398D-01 0.960D+00
 Coeff:      0.308D+00 0.692D+00
 Gap=     0.430 Goal=   None    Shift=    0.000
 RMSDP=1.04D-03 MaxDP=6.30D-02 DE=-7.43D-02 OVMax= 3.18D-02

 Cycle   3  Pass 1  IDiag  1:
 RMSU=  3.29D-04    CP:  1.01D+00  6.57D-01
 FoFJK:  IHMeth= 1 ICntrl=     0 DoSepK=T KAlg= 1 I1Cent= 0 FoldK=F
 E= -2904.73917359298     Delta-E=       -0.030784134781 Rises=F Damp=F
 DIIS: error= 1.73D-03 at cycle   3 NSaved=   3.
 NSaved= 3 IEnMin= 3 EnMin= -2904.73917359298     IErMin= 3 ErrMin= 1.73D-03
 ErrMax= 1.73D-03 EMaxC= 1.00D-01 BMatC= 1.54D-03 BMatP= 9.32D-02
 IDIUse=3 WtCom= 9.83D-01 WtEn= 1.73D-02
 Coeff-Com:  0.866D-02 0.118D+00 0.874D+00
 Coeff-En:   0.000D+00 0.000D+00 0.100D+01
 Coeff:      0.851D-02 0.116D+00 0.876D+00
 Gap=     0.435 Goal=   None    Shift=    0.000
 RMSDP=1.65D-04 MaxDP=6.79D-03 DE=-3.08D-02 OVMax= 7.97D-03

 Cycle   4  Pass 1  IDiag  1:
 RMSU=  7.07D-05    CP:  1.01D+00  7.03D-01  1.10D+00
 FoFJK:  IHMeth= 1 ICntrl=     0 DoSepK=T KAlg= 1 I1Cent= 0 FoldK=F
 E= -2904.73979506659     Delta-E=       -0.000621473603 Rises=F Damp=F
 DIIS: error= 6.87D-04 at cycle   4 NSaved=   4.
 NSaved= 4 IEnMin= 4 EnMin= -2904.73979506659     IErMin= 4 ErrMin= 6.87D-04
 ErrMax= 6.87D-04 EMaxC= 1.00D-01 BMatC= 1.05D-04 BMatP= 1.54D-03
 IDIUse=3 WtCom= 9.93D-01 WtEn= 6.87D-03
 Coeff-Com: -0.121D-01 0.192D-01 0.335D+00 0.658D+00
 Coeff-En:   0.000D+00 0.000D+00 0.000D+00 0.100D+01
 Coeff:     -0.120D-01 0.190D-01 0.333D+00 0.660D+00
 Gap=     0.431 Goal=   None    Shift=    0.000
 RMSDP=3.73D-05 MaxDP=1.38D-03 DE=-6.21D-04 OVMax= 2.28D-03

 Cycle   5  Pass 1  IDiag  1:
 RMSU=  2.04D-05    CP:  1.01D+00  7.07D-01  1.14D+00  9.73D-01
 FoFJK:  IHMeth= 1 ICntrl=     0 DoSepK=T KAlg= 1 I1Cent= 0 FoldK=F
 E= -2904.73986207283     Delta-E=       -0.000067006245 Rises=F Damp=F
 DIIS: error= 2.07D-04 at cycle   5 NSaved=   5.
 NSaved= 5 IEnMin= 5 EnMin= -2904.73986207283     IErMin= 5 ErrMin= 2.07D-04
 ErrMax= 2.07D-04 EMaxC= 1.00D-01 BMatC= 9.62D-06 BMatP= 1.05D-04
 IDIUse=3 WtCom= 9.98D-01 WtEn= 2.07D-03
 Coeff-Com: -0.432D-02-0.686D-02-0.557D-03 0.210D+00 0.801D+00
 Coeff-En:   0.000D+00 0.000D+00 0.000D+00 0.000D+00 0.100D+01
 Coeff:     -0.431D-02-0.684D-02-0.556D-03 0.210D+00 0.802D+00
 Gap=     0.432 Goal=   None    Shift=    0.000
 RMSDP=1.80D-05 MaxDP=6.93D-04 DE=-6.70D-05 OVMax= 1.07D-03

 Cycle   6  Pass 1  IDiag  1:
 RMSU=  7.13D-06    CP:  1.01D+00  7.08D-01  1.17D+00  1.07D+00  1.02D+00
 FoFJK:  IHMeth= 1 ICntrl=     0 DoSepK=T KAlg= 1 I1Cent= 0 FoldK=F
 E= -2904.73986980791     Delta-E=       -0.000007735081 Rises=F Damp=F
 DIIS: error= 8.38D-05 at cycle   6 NSaved=   6.
 NSaved= 6 IEnMin= 6 EnMin= -2904.73986980791     IErMin= 6 ErrMin= 8.38D-05
 ErrMax= 8.38D-05 EMaxC= 1.00D-01 BMatC= 2.12D-06 BMatP= 9.62D-06
 IDIUse=1 WtCom= 1.00D+00 WtEn= 0.00D+00
 Coeff-Com: -0.663D-03-0.482D-02-0.303D-01 0.297D-01 0.369D+00 0.637D+00
 Coeff:     -0.663D-03-0.482D-02-0.303D-01 0.297D-01 0.369D+00 0.637D+00
 Gap=     0.432 Goal=   None    Shift=    0.000
 RMSDP=6.05D-06 MaxDP=2.13D-04 DE=-7.74D-06 OVMax= 4.03D-04

 Cycle   7  Pass 1  IDiag  1:
 RMSU=  2.49D-06    CP:  1.01D+00  7.08D-01  1.17D+00  1.10D+00  1.10D+00
                    CP:  9.45D-01
 FoFJK:  IHMeth= 1 ICntrl=     0 DoSepK=T KAlg= 1 I1Cent= 0 FoldK=F
 E= -2904.73987129190     Delta-E=       -0.000001483984 Rises=F Damp=F
 DIIS: error= 1.89D-05 at cycle   7 NSaved=   7.
 NSaved= 7 IEnMin= 7 EnMin= -2904.73987129190     IErMin= 7 ErrMin= 1.89D-05
 ErrMax= 1.89D-05 EMaxC= 1.00D-01 BMatC= 1.25D-07 BMatP= 2.12D-06
 IDIUse=1 WtCom= 1.00D+00 WtEn= 0.00D+00
 Coeff-Com:  0.159D-03-0.111D-02-0.873D-02-0.189D-01 0.535D-03 0.187D+00
 Coeff-Com:  0.841D+00
 Coeff:      0.159D-03-0.111D-02-0.873D-02-0.189D-01 0.535D-03 0.187D+00
 Coeff:      0.841D+00
 Gap=     0.432 Goal=   None    Shift=    0.000
 RMSDP=2.36D-06 MaxDP=8.10D-05 DE=-1.48D-06 OVMax= 1.14D-04

 Cycle   8  Pass 1  IDiag  1:
 RMSU=  5.98D-07    CP:  1.01D+00  7.09D-01  1.18D+00  1.11D+00  1.13D+00
                    CP:  1.05D+00  1.01D+00
 FoFJK:  IHMeth= 1 ICntrl=     0 DoSepK=T KAlg= 1 I1Cent= 0 FoldK=F
 E= -2904.73987142089     Delta-E=       -0.000000128990 Rises=F Damp=F
 DIIS: error= 4.24D-06 at cycle   8 NSaved=   8.
 NSaved= 8 IEnMin= 8 EnMin= -2904.73987142089     IErMin= 8 ErrMin= 4.24D-06
 ErrMax= 4.24D-06 EMaxC= 1.00D-01 BMatC= 2.39D-09 BMatP= 1.25D-07
 IDIUse=1 WtCom= 1.00D+00 WtEn= 0.00D+00
 Coeff-Com:  0.103D-04 0.325D-03 0.228D-02 0.150D-03-0.187D-01-0.478D-01
 Coeff-Com: -0.608D-01 0.112D+01
 Coeff:      0.103D-04 0.325D-03 0.228D-02 0.150D-03-0.187D-01-0.478D-01
 Coeff:     -0.608D-01 0.112D+01
 Gap=     0.432 Goal=   None    Shift=    0.000
 RMSDP=5.40D-07 MaxDP=1.63D-05 DE=-1.29D-07 OVMax= 3.61D-05

 Cycle   9  Pass 1  IDiag  1:
 RMSU=  1.15D-07    CP:  1.01D+00  7.09D-01  1.18D+00  1.12D+00  1.13D+00
                    CP:  1.07D+00  1.07D+00  1.33D+00
 FoFJK:  IHMeth= 1 ICntrl=     0 DoSepK=T KAlg= 1 I1Cent= 0 FoldK=F
 E= -2904.73987142701     Delta-E=       -0.000000006124 Rises=F Damp=F
 DIIS: error= 6.07D-07 at cycle   9 NSaved=   9.
 NSaved= 9 IEnMin= 9 EnMin= -2904.73987142701     IErMin= 9 ErrMin= 6.07D-07
 ErrMax= 6.07D-07 EMaxC= 1.00D-01 BMatC= 1.45D-10 BMatP= 2.39D-09
 IDIUse=1 WtCom= 1.00D+00 WtEn= 0.00D+00
 Coeff-Com: -0.276D-05 0.109D-03 0.623D-03 0.102D-02-0.838D-03-0.132D-01
 Coeff-Com: -0.506D-01 0.494D-01 0.101D+01
 Coeff:     -0.276D-05 0.109D-03 0.623D-03 0.102D-02-0.838D-03-0.132D-01
 Coeff:     -0.506D-01 0.494D-01 0.101D+01
 Gap=     0.432 Goal=   None    Shift=    0.000
 RMSDP=1.06D-07 MaxDP=2.45D-06 DE=-6.12D-09 OVMax= 8.78D-06

 Cycle  10  Pass 1  IDiag  1:
 RMSU=  3.97D-08    CP:  1.01D+00  7.09D-01  1.18D+00  1.12D+00  1.13D+00
                    CP:  1.08D+00  1.08D+00  1.40D+00  1.24D+00
 FoFJK:  IHMeth= 1 ICntrl=     0 DoSepK=T KAlg= 1 I1Cent= 0 FoldK=F
 E= -2904.73987142735     Delta-E=       -0.000000000341 Rises=F Damp=F
 DIIS: error= 2.18D-07 at cycle  10 NSaved=  10.
 NSaved=10 IEnMin=10 EnMin= -2904.73987142735     IErMin=10 ErrMin= 2.18D-07
 ErrMax= 2.18D-07 EMaxC= 1.00D-01 BMatC= 7.34D-12 BMatP= 1.45D-10
 IDIUse=1 WtCom= 1.00D+00 WtEn= 0.00D+00
 Coeff-Com:  0.119D-07-0.268D-04-0.172D-03-0.137D-03 0.903D-03 0.347D-02
 Coeff-Com:  0.984D-02-0.656D-01-0.697D-01 0.112D+01
 Coeff:      0.119D-07-0.268D-04-0.172D-03-0.137D-03 0.903D-03 0.347D-02
 Coeff:      0.984D-02-0.656D-01-0.697D-01 0.112D+01
 Gap=     0.432 Goal=   None    Shift=    0.000
 RMSDP=2.96D-08 MaxDP=5.53D-07 DE=-3.41D-10 OVMax= 2.11D-06

 Cycle  11  Pass 1  IDiag  1:
 RMSU=  8.72D-09    CP:  1.01D+00  7.09D-01  1.18D+00  1.12D+00  1.13D+00
                    CP:  1.08D+00  1.08D+00  1.41D+00  1.34D+00  1.27D+00
 FoFJK:  IHMeth= 1 ICntrl=     0 DoSepK=T KAlg= 1 I1Cent= 0 FoldK=F
 E= -2904.73987142739     Delta-E=       -0.000000000035 Rises=F Damp=F
 DIIS: error= 6.09D-08 at cycle  11 NSaved=  11.
 NSaved=11 IEnMin=11 EnMin= -2904.73987142739     IErMin=11 ErrMin= 6.09D-08
 ErrMax= 6.09D-08 EMaxC= 1.00D-01 BMatC= 5.80D-13 BMatP= 7.34D-12
 IDIUse=1 WtCom= 1.00D+00 WtEn= 0.00D+00
 Coeff-Com: -0.384D-07-0.108D-04-0.605D-04-0.811D-04 0.159D-03 0.125D-02
 Coeff-Com:  0.473D-02-0.117D-01-0.701D-01 0.894D-01 0.986D+00
 Coeff:     -0.384D-07-0.108D-04-0.605D-04-0.811D-04 0.159D-03 0.125D-02
 Coeff:      0.473D-02-0.117D-01-0.701D-01 0.894D-01 0.986D+00
 Gap=     0.432 Goal=   None    Shift=    0.000
 RMSDP=7.19D-09 MaxDP=1.60D-07 DE=-3.55D-11 OVMax= 5.74D-07

 SCF Done:  E(RLC-B+HF-LYP) =  -2904.73987143     A.U. after   11 cycles
             Convg  =    0.7188D-08             -V/T =  2.0017
 KE= 2.899820976917D+03 PE=-7.233028757023D+03 EE= 1.280178538843D+03
 Leave Link  502 at Wed May 13 18:51:43 2020, MaxMem= 1073741824 cpu:     258.7
 (Enter /home/matheus/.gaussian/g09/l601.exe)
 Copying SCF densities to generalized density rwf, IOpCl= 0 IROHF=0.

 **********************************************************************

            Population analysis using the SCF density.

 **********************************************************************

 Orbital symmetries:
       Occupied  (A) (A) (A) (A) (A) (A) (A) (A) (A) (A) (A) (A)
                 (A) (A) (A) (A) (A) (A) (A) (A) (A) (A) (A) (A)
                 (A) (A) (A)
       Virtual   (A) (A) (A) (A) (A) (A) (A) (A) (A) (A) (A) (A)
                 (A) (A) (A) (A) (A) (A) (A) (A) (A) (A) (A) (A)
                 (A) (A) (A) (A) (A) (A) (A) (A) (A) (A) (A) (A)
                 (A) (A) (A) (A) (A) (A) (A) (A) (A) (A) (A) (A)
                 (A) (A) (A) (A) (A) (A) (A) (A) (A) (A) (A) (A)
                 (A) (A) (A) (A) (A) (A) (A) (A) (A) (A) (A) (A)
                 (A) (A) (A) (A) (A) (A) (A) (A) (A) (A) (A) (A)
                 (A) (A) (A) (A) (A) (A) (A) (A) (A) (A) (A) (A)
                 (A) (A) (A) (A) (A) (A) (A) (A) (A) (A) (A) (A)
                 (A) (A) (A) (A) (A) (A) (A) (A) (A) (A) (A) (A)
                 (A) (A) (A) (A) (A) (A) (A) (A) (A) (A) (A) (A)
                 (A) (A) (A) (A) (A) (A) (A) (A) (A) (A) (A) (A)
                 (A) (A) (A) (A) (A) (A) (A) (A) (A) (A) (A) (A)
                 (A) (A) (A) (A) (A) (A) (A) (A) (A) (A) (A) (A)
                 (A) (A)
 The electronic state is 1-A.
 Alpha  occ. eigenvalues -- -511.25271 -66.72271 -60.40805 -60.40786 -60.40778
 Alpha  occ. eigenvalues --  -19.07017 -19.06630  -9.61425  -7.36922  -7.36868
 Alpha  occ. eigenvalues --   -7.36843  -3.33252  -3.33241  -3.33223  -3.33182
 Alpha  occ. eigenvalues --   -3.33180  -1.28059  -1.07404  -1.06119  -0.68406
 Alpha  occ. eigenvalues --   -0.65611  -0.56085  -0.52903  -0.52082  -0.51627
 Alpha  occ. eigenvalues --   -0.48808  -0.40487
 Alpha virt. eigenvalues --    0.02691   0.03473   0.07376   0.09467   0.09928
 Alpha virt. eigenvalues --    0.10461   0.12675   0.13855   0.15736   0.16069
 Alpha virt. eigenvalues --    0.18129   0.19248   0.19431   0.22477   0.22914
 Alpha virt. eigenvalues --    0.24041   0.26247   0.28143   0.29990   0.33320
 Alpha virt. eigenvalues --    0.33713   0.33826   0.35885   0.38437   0.39871
 Alpha virt. eigenvalues --    0.40196   0.42164   0.47868   0.52121   0.54631
 Alpha virt. eigenvalues --    0.56891   0.59637   0.64423   0.65387   0.68566
 Alpha virt. eigenvalues --    0.71030   0.72060   0.72779   0.74461   0.76025
 Alpha virt. eigenvalues --    0.77328   0.77878   0.78764   0.80315   0.81222
 Alpha virt. eigenvalues --    0.83516   0.85383   0.87792   0.88338   0.91337
 Alpha virt. eigenvalues --    0.91539   0.94094   0.95547   0.97886   1.00197
 Alpha virt. eigenvalues --    1.03168   1.04700   1.05906   1.06923   1.09638
 Alpha virt. eigenvalues --    1.12987   1.14059   1.16149   1.18460   1.19399
 Alpha virt. eigenvalues --    1.27482   1.32101   1.36358   1.41608   1.41995
 Alpha virt. eigenvalues --    1.49278   1.52510   1.53850   1.56350   1.59313
 Alpha virt. eigenvalues --    1.62637   1.78433   1.81233   1.86765   1.95303
 Alpha virt. eigenvalues --    2.00102   2.00663   2.05995   2.14917   2.15272
 Alpha virt. eigenvalues --    2.17111   2.18624   2.19501   2.20162   2.27702
 Alpha virt. eigenvalues --    2.29205   2.30406   2.32126   2.34384   2.35699
 Alpha virt. eigenvalues --    2.39238   2.40665   2.45877   2.48813   2.50629
 Alpha virt. eigenvalues --    2.51255   2.51792   2.54806   2.57680   2.59008
 Alpha virt. eigenvalues --    2.61681   2.64360   2.67687   2.70120   2.71867
 Alpha virt. eigenvalues --    2.72745   2.76139   2.77408   2.82959   2.90650
 Alpha virt. eigenvalues --    2.97875   3.08608   3.10957   3.17210   3.54192
 Alpha virt. eigenvalues --    3.77347   3.82885   3.93177   4.04238   4.06026
 Alpha virt. eigenvalues --    4.14033   4.17252   4.22070   4.25183   4.28758
 Alpha virt. eigenvalues --    4.40287   4.44092   4.53232   4.56293   4.73316
 Alpha virt. eigenvalues --    4.91773   5.04091   5.05234   5.09862   5.09951
 Alpha virt. eigenvalues --    5.39091   5.44185   5.84176   6.00067   6.09575
 Alpha virt. eigenvalues --    6.15521   6.32262   6.38406   6.45933   6.49459
 Alpha virt. eigenvalues --    6.71078   6.72689   6.75718   6.81591   6.88336
 Alpha virt. eigenvalues --    6.90755   6.92491   6.95077   6.95459   6.99333
 Alpha virt. eigenvalues --    7.02813   7.22486   7.25998   7.40102   7.61717
 Alpha virt. eigenvalues --    7.84047   8.11346   8.14716  14.07488  14.50823
          Condensed to atoms (all electrons):
              1          2          3          4          5
     1  O    8.198179  -0.165814   0.183459   0.003508  -0.034733
     2  O   -0.165814   8.173165   0.014421   0.227485  -0.012955
     3  H    0.183459   0.014421   0.600651   0.002957   0.002858
     4  H    0.003508   0.227485   0.002957   0.558558  -0.004792
     5  Kr  -0.034733  -0.012955   0.002858  -0.004792  36.036657
 Mulliken atomic charges:
              1
     1  O   -0.184600
     2  O   -0.236303
     3  H    0.195654
     4  H    0.212284
     5  Kr   0.012965
 Sum of Mulliken atomic charges =   0.00000
 Mulliken charges with hydrogens summed into heavy atoms:
              1
     1  O    0.011054
     2  O   -0.024019
     5  Kr   0.012965
 Sum of Mulliken charges with hydrogens summed into heavy atoms =   0.00000
          Condensed to fragments (all electrons):
     1      -0.012965
     2       0.012965
 Electronic spatial extent (au):  <R**2>=            493.0844
 Charge=              0.0000 electrons
 Dipole moment (field-independent basis, Debye):
    X=              0.2070    Y=             -0.2938    Z=              0.2845  Tot=              0.4584
 Quadrupole moment (field-independent basis, Debye-Ang):
   XX=            -26.5111   YY=            -28.7172   ZZ=            -30.9449
   XY=              3.9820   XZ=             -0.9073   YZ=             -0.2971
 Traceless Quadrupole moment (field-independent basis, Debye-Ang):
   XX=              2.2133   YY=              0.0072   ZZ=             -2.2205
   XY=              3.9820   XZ=             -0.9073   YZ=             -0.2971
 Octapole moment (field-independent basis, Debye-Ang**2):
  XXX=              0.1432  YYY=             -0.6679  ZZZ=              0.1093  XYY=              4.7641
  XXY=            -16.9232  XXZ=              2.7509  XZZ=              8.9303  YZZ=             -0.3520
  YYZ=              0.3506  XYZ=              0.9320
 Hexadecapole moment (field-independent basis, Debye-Ang**3):
 XXXX=           -345.5306 YYYY=            -65.9218 ZZZZ=            -30.7046 XXXY=             53.5850
 XXXZ=             -8.4453 YYYX=              5.7677 YYYZ=             -0.3658 ZZZX=             -0.3603
 ZZZY=             -0.1619 XXYY=            -76.7643 XXZZ=            -81.3622 YYZZ=            -18.0552
 XXYZ=             -2.8409 YYXZ=             -1.0389 ZZXY=              0.4862
 N-N= 1.482893698349D+02 E-N=-7.233028752710D+03  KE= 2.899820976917D+03
 No NMR shielding tensors so no spin-rotation constants.
 Leave Link  601 at Wed May 13 18:51:44 2020, MaxMem= 1073741824 cpu:       0.7
 (Enter /home/matheus/.gaussian/g09/l122.exe)
 Counterpoise: doing DCBS calculation for fragment   1 NewBq=T
 Leave Link  122 at Wed May 13 18:51:44 2020, MaxMem= 1073741824 cpu:       0.0
 (Enter /home/matheus/.gaussian/g09/l301.exe)
 Basis read from rwf:  (5D, 7F)
 No pseudopotential information found on rwf file.
 There are   197 symmetry adapted basis functions of A   symmetry.
 Integral buffers will be    131072 words long.
 Raffenetti 2 integral format.
 Two-electron integral symmetry is turned on.
   197 basis functions,   415 primitive gaussians,   229 cartesian basis functions
     9 alpha electrons        9 beta electrons
       nuclear repulsion energy        36.6009457491 Hartrees.
 IExCor=10402 DFT=T Ex=LC-B+HF Corr=LYP ExCW=0 ScaHFX=  1.000000
 ScaDFX=  1.000000  1.000000  1.000000  1.000000 ScalE2=  1.000000  1.000000
 IRadAn=      5 IRanWt=     -1 IRanGd=            0 ICorTp=0
  HFx wShort=  0.000000 wLong=  0.470000 cFull=  0.000000 cShort=  0.000000 cLong=  1.000000
  DFx wShort=  0.000000 wLong=  0.470000 cFull=  0.000000 cShort=  0.000000 cLong=  1.000000
 NAtoms=    5 NActive=    5 NUniq=    5 SFac= 1.00D+00 NAtFMM=   60 NAOKFM=F Big=F
 No density basis found on file   718.
 Leave Link  301 at Wed May 13 18:51:44 2020, MaxMem= 1073741824 cpu:       0.2
 (Enter /home/matheus/.gaussian/g09/l302.exe)
 NPDir=0 NMtPBC=     1 NCelOv=     1 NCel=       1 NClECP=     1 NCelD=      1
         NCelK=      1 NCelE2=     1 NClLst=     1 CellRange=     0.0.
 One-electron integrals computed using PRISM.
 NBasis=   197 RedAO= T  NBF=   197
 NBsUse=   197 1.00D-06 NBFU=   197
 Precomputing XC quadrature grid using
 IXCGrd= 2 IRadAn=           5 IRanWt=          -1 IRanGd=           0 AccXCQ= 0.00D+00.
 NRdTot=     427 NPtTot=      123814 NUsed=      126881 NTot=      126913
 NSgBfM=   229   229   229   229   229 NAtAll=     5     5.
 Leave Link  302 at Wed May 13 18:51:44 2020, MaxMem= 1073741824 cpu:       1.0
 (Enter /home/matheus/.gaussian/g09/l303.exe)
 DipDrv:  MaxL=1.
 Leave Link  303 at Wed May 13 18:51:44 2020, MaxMem= 1073741824 cpu:       0.2
 (Enter /home/matheus/.gaussian/g09/l401.exe)
 Harris functional with IExCor=10402 diagonalized for initial guess.
 ExpMin= 2.53D-02 ExpMax= 1.17D+07 ExpMxC= 1.33D+04 IAcc=3 IRadAn=         5 AccDes= 0.00D+00
 HarFok:  IExCor=10402 AccDes= 0.00D+00 IRadAn=         5 IDoV= 1
 ScaDFX=  1.000000  1.000000  1.000000  1.000000
 FoFCou: FMM=F IPFlag=           0 FMFlag=      100000 FMFlg1=           0
         NFxFlg=           0 DoJE=T BraDBF=F KetDBF=T FulRan=T
         Omega=  0.000000  0.000000  1.000000  0.000000  0.000000 ICntrl=     500 IOpCl=  0
         NMat0=    1 NMatS0=    1 NMatT0=    0 NMatD0=    1 NMtDS0=    0 NMtDT0=    0
         I1Cent=           4 NGrid=           0.
 Petite list used in FoFCou.
 Harris En= -147.162526680365    
 Initial guess orbital symmetries:
       Occupied  (A) (A) (A) (A) (A) (A) (A) (A) (A)
       Virtual   (A) (A) (A) (A) (A) (A) (A) (A) (A) (A) (A) (A)
                 (A) (A) (A) (A) (A) (A) (A) (A) (A) (A) (A) (A)
                 (A) (A) (A) (A) (A) (A) (A) (A) (A) (A) (A) (A)
                 (A) (A) (A) (A) (A) (A) (A) (A) (A) (A) (A) (A)
                 (A) (A) (A) (A) (A) (A) (A) (A) (A) (A) (A) (A)
                 (A) (A) (A) (A) (A) (A) (A) (A) (A) (A) (A) (A)
                 (A) (A) (A) (A) (A) (A) (A) (A) (A) (A) (A) (A)
                 (A) (A) (A) (A) (A) (A) (A) (A) (A) (A) (A) (A)
                 (A) (A) (A) (A) (A) (A) (A) (A) (A) (A) (A) (A)
                 (A) (A) (A) (A) (A) (A) (A) (A) (A) (A) (A) (A)
                 (A) (A) (A) (A) (A) (A) (A) (A) (A) (A) (A) (A)
                 (A) (A) (A) (A) (A) (A) (A) (A) (A) (A) (A) (A)
                 (A) (A) (A) (A) (A) (A) (A) (A) (A) (A) (A) (A)
                 (A) (A) (A) (A) (A) (A) (A) (A) (A) (A) (A) (A)
                 (A) (A) (A) (A) (A) (A) (A) (A) (A) (A) (A) (A)
                 (A) (A) (A) (A) (A) (A) (A) (A)
 The electronic state of the initial guess is 1-A.
 Leave Link  401 at Wed May 13 18:51:44 2020, MaxMem= 1073741824 cpu:       3.7
 (Enter /home/matheus/.gaussian/g09/l502.exe)
 Closed shell SCF:
 Requested convergence on RMS density matrix=1.00D-08 within 128 cycles.
 Requested convergence on MAX density matrix=1.00D-06.
 Requested convergence on             energy=1.00D-06.
 No special actions if energy rises.
 Using DIIS extrapolation, IDIIS=  1040.
 Integral symmetry usage will be decided dynamically.
       126823 words used for storage of precomputed grid.
 IEnd=      305770 IEndB=      305770 NGot=  1073741824 MDV=  1073505365
 LenX=  1073505365 LenY=  1073452483
 Fock matrices will be formed incrementally for  20 cycles.

 Cycle   1  Pass 1  IDiag  1:
 FoFJK:  IHMeth= 1 ICntrl=     0 DoSepK=T KAlg= 1 I1Cent= 0 FoldK=F
 FoFCou: FMM=F IPFlag=           0 FMFlag=      100000 FMFlg1=           0
         NFxFlg=           0 DoJE=T BraDBF=F KetDBF=F FulRan=T
         Omega=  0.000000  0.000000  1.000000  0.000000  0.000000 ICntrl=     500 IOpCl=  0
         NMat0=    1 NMatS0=    1 NMatT0=    0 NMatD0=    1 NMtDS0=    0 NMtDT0=    0
         I1Cent=           0 NGrid=           0.
 Symmetry not used in FoFCou.
 E= -151.303417053338    
 DIIS: error= 9.22D-03 at cycle   1 NSaved=   1.
 NSaved= 1 IEnMin= 1 EnMin= -151.303417053338     IErMin= 1 ErrMin= 9.22D-03
 ErrMax= 9.22D-03 EMaxC= 1.00D-01 BMatC= 2.07D-02 BMatP= 2.07D-02
 IDIUse=3 WtCom= 9.08D-01 WtEn= 9.22D-02
 Coeff-Com:  0.100D+01
 Coeff-En:   0.100D+01
 Coeff:      0.100D+01
 Gap=     0.463 Goal=   None    Shift=    0.000
 GapD=    0.463 DampG=2.000 DampE=1.000 DampFc=2.0000 IDamp=-1.
 RMSDP=8.42D-04 MaxDP=2.99D-02              OVMax= 5.52D-02

 Cycle   2  Pass 1  IDiag  1:
 RMSU=  5.95D-04    CP:  1.00D+00
 FoFJK:  IHMeth= 1 ICntrl=     0 DoSepK=T KAlg= 1 I1Cent= 0 FoldK=F
 E= -151.320400022483     Delta-E=       -0.016982969145 Rises=F Damp=F
 DIIS: error= 4.91D-03 at cycle   2 NSaved=   2.
 NSaved= 2 IEnMin= 2 EnMin= -151.320400022483     IErMin= 2 ErrMin= 4.91D-03
 ErrMax= 4.91D-03 EMaxC= 1.00D-01 BMatC= 5.02D-03 BMatP= 2.07D-02
 IDIUse=3 WtCom= 9.51D-01 WtEn= 4.91D-02
 Coeff-Com:  0.280D+00 0.720D+00
 Coeff-En:   0.000D+00 0.100D+01
 Coeff:      0.266D+00 0.734D+00
 Gap=     0.424 Goal=   None    Shift=    0.000
 RMSDP=2.12D-04 MaxDP=6.83D-03 DE=-1.70D-02 OVMax= 1.45D-02

 Cycle   3  Pass 1  IDiag  1:
 RMSU=  1.49D-04    CP:  1.00D+00  1.01D+00
 FoFJK:  IHMeth= 1 ICntrl=     0 DoSepK=T KAlg= 1 I1Cent= 0 FoldK=F
 E= -151.323277192090     Delta-E=       -0.002877169606 Rises=F Damp=F
 DIIS: error= 1.66D-03 at cycle   3 NSaved=   3.
 NSaved= 3 IEnMin= 3 EnMin= -151.323277192090     IErMin= 3 ErrMin= 1.66D-03
 ErrMax= 1.66D-03 EMaxC= 1.00D-01 BMatC= 5.83D-04 BMatP= 5.02D-03
 IDIUse=3 WtCom= 9.83D-01 WtEn= 1.66D-02
 Coeff-Com:  0.100D-01 0.239D+00 0.751D+00
 Coeff-En:   0.000D+00 0.000D+00 0.100D+01
 Coeff:      0.984D-02 0.235D+00 0.755D+00
 Gap=     0.433 Goal=   None    Shift=    0.000
 RMSDP=1.08D-04 MaxDP=3.99D-03 DE=-2.88D-03 OVMax= 7.73D-03

 Cycle   4  Pass 1  IDiag  1:
 RMSU=  5.32D-05    CP:  1.00D+00  1.10D+00  9.70D-01
 FoFJK:  IHMeth= 1 ICntrl=     0 DoSepK=T KAlg= 1 I1Cent= 0 FoldK=F
 E= -151.323725074071     Delta-E=       -0.000447881981 Rises=F Damp=F
 DIIS: error= 2.74D-04 at cycle   4 NSaved=   4.
 NSaved= 4 IEnMin= 4 EnMin= -151.323725074071     IErMin= 4 ErrMin= 2.74D-04
 ErrMax= 2.74D-04 EMaxC= 1.00D-01 BMatC= 2.54D-05 BMatP= 5.83D-04
 IDIUse=3 WtCom= 9.97D-01 WtEn= 2.74D-03
 Coeff-Com: -0.209D-01-0.303D-01 0.110D+00 0.941D+00
 Coeff-En:   0.000D+00 0.000D+00 0.000D+00 0.100D+01
 Coeff:     -0.208D-01-0.303D-01 0.110D+00 0.941D+00
 Gap=     0.431 Goal=   None    Shift=    0.000
 RMSDP=3.94D-05 MaxDP=1.58D-03 DE=-4.48D-04 OVMax= 1.95D-03

 Cycle   5  Pass 1  IDiag  1:
 RMSU=  9.06D-06    CP:  1.00D+00  1.13D+00  1.09D+00  1.18D+00
 FoFJK:  IHMeth= 1 ICntrl=     0 DoSepK=T KAlg= 1 I1Cent= 0 FoldK=F
 E= -151.323753262676     Delta-E=       -0.000028188605 Rises=F Damp=F
 DIIS: error= 4.32D-05 at cycle   5 NSaved=   5.
 NSaved= 5 IEnMin= 5 EnMin= -151.323753262676     IErMin= 5 ErrMin= 4.32D-05
 ErrMax= 4.32D-05 EMaxC= 1.00D-01 BMatC= 4.12D-07 BMatP= 2.54D-05
 IDIUse=1 WtCom= 1.00D+00 WtEn= 0.00D+00
 Coeff-Com:  0.545D-03-0.715D-02-0.347D-01-0.461D-01 0.109D+01
 Coeff:      0.545D-03-0.715D-02-0.347D-01-0.461D-01 0.109D+01
 Gap=     0.431 Goal=   None    Shift=    0.000
 RMSDP=1.03D-05 MaxDP=4.15D-04 DE=-2.82D-05 OVMax= 6.09D-04

 Cycle   6  Pass 1  IDiag  1:
 RMSU=  1.62D-06    CP:  1.00D+00  1.13D+00  1.11D+00  1.27D+00  1.26D+00
 FoFJK:  IHMeth= 1 ICntrl=     0 DoSepK=T KAlg= 1 I1Cent= 0 FoldK=F
 E= -151.323754456365     Delta-E=       -0.000001193690 Rises=F Damp=F
 DIIS: error= 1.27D-05 at cycle   6 NSaved=   6.
 NSaved= 6 IEnMin= 6 EnMin= -151.323754456365     IErMin= 6 ErrMin= 1.27D-05
 ErrMax= 1.27D-05 EMaxC= 1.00D-01 BMatC= 1.96D-08 BMatP= 4.12D-07
 IDIUse=1 WtCom= 1.00D+00 WtEn= 0.00D+00
 Coeff-Com:  0.455D-03 0.101D-02-0.250D-02-0.256D-01-0.908D-02 0.104D+01
 Coeff:      0.455D-03 0.101D-02-0.250D-02-0.256D-01-0.908D-02 0.104D+01
 Gap=     0.431 Goal=   None    Shift=    0.000
 RMSDP=1.51D-06 MaxDP=4.66D-05 DE=-1.19D-06 OVMax= 9.28D-05

 Cycle   7  Pass 1  IDiag  1:
 RMSU=  3.86D-07    CP:  1.00D+00  1.13D+00  1.11D+00  1.28D+00  1.30D+00
                    CP:  1.29D+00
 FoFJK:  IHMeth= 1 ICntrl=     0 DoSepK=T KAlg= 1 I1Cent= 0 FoldK=F
 E= -151.323754504305     Delta-E=       -0.000000047939 Rises=F Damp=F
 DIIS: error= 3.14D-06 at cycle   7 NSaved=   7.
 NSaved= 7 IEnMin= 7 EnMin= -151.323754504305     IErMin= 7 ErrMin= 3.14D-06
 ErrMax= 3.14D-06 EMaxC= 1.00D-01 BMatC= 2.10D-09 BMatP= 1.96D-08
 IDIUse=1 WtCom= 1.00D+00 WtEn= 0.00D+00
 Coeff-Com:  0.349D-04 0.475D-03 0.120D-02-0.120D-02-0.503D-01 0.580D-01
 Coeff-Com:  0.992D+00
 Coeff:      0.349D-04 0.475D-03 0.120D-02-0.120D-02-0.503D-01 0.580D-01
 Coeff:      0.992D+00
 Gap=     0.431 Goal=   None    Shift=    0.000
 RMSDP=3.19D-07 MaxDP=7.83D-06 DE=-4.79D-08 OVMax= 3.23D-05

 Cycle   8  Pass 1  IDiag  1:
 RMSU=  1.43D-07    CP:  1.00D+00  1.13D+00  1.11D+00  1.28D+00  1.30D+00
                    CP:  1.37D+00  1.13D+00
 FoFJK:  IHMeth= 1 ICntrl=     0 DoSepK=T KAlg= 1 I1Cent= 0 FoldK=F
 E= -151.323754507477     Delta-E=       -0.000000003172 Rises=F Damp=F
 DIIS: error= 2.68D-06 at cycle   8 NSaved=   8.
 NSaved= 8 IEnMin= 8 EnMin= -151.323754507477     IErMin= 8 ErrMin= 2.68D-06
 ErrMax= 2.68D-06 EMaxC= 1.00D-01 BMatC= 1.78D-09 BMatP= 2.10D-09
 IDIUse=1 WtCom= 1.00D+00 WtEn= 0.00D+00
 Coeff-Com: -0.247D-04 0.173D-03 0.877D-03 0.182D-02-0.258D-01-0.850D-01
 Coeff-Com:  0.570D+00 0.538D+00
 Coeff:     -0.247D-04 0.173D-03 0.877D-03 0.182D-02-0.258D-01-0.850D-01
 Coeff:      0.570D+00 0.538D+00
 Gap=     0.431 Goal=   None    Shift=    0.000
 RMSDP=1.11D-07 MaxDP=3.38D-06 DE=-3.17D-09 OVMax= 1.05D-05

 Cycle   9  Pass 1  IDiag  1:
 RMSU=  5.87D-08    CP:  1.00D+00  1.13D+00  1.11D+00  1.28D+00  1.30D+00
                    CP:  1.39D+00  1.23D+00  8.35D-01
 FoFJK:  IHMeth= 1 ICntrl=     0 DoSepK=T KAlg= 1 I1Cent= 0 FoldK=F
 E= -151.323754508718     Delta-E=       -0.000000001241 Rises=F Damp=F
 DIIS: error= 4.19D-07 at cycle   9 NSaved=   9.
 NSaved= 9 IEnMin= 9 EnMin= -151.323754508718     IErMin= 9 ErrMin= 4.19D-07
 ErrMax= 4.19D-07 EMaxC= 1.00D-01 BMatC= 2.08D-11 BMatP= 1.78D-09
 IDIUse=1 WtCom= 1.00D+00 WtEn= 0.00D+00
 Coeff-Com:  0.216D-05-0.392D-04-0.248D-03-0.302D-03 0.898D-02 0.116D-02
 Coeff-Com: -0.168D+00-0.691D-01 0.123D+01
 Coeff:      0.216D-05-0.392D-04-0.248D-03-0.302D-03 0.898D-02 0.116D-02
 Coeff:     -0.168D+00-0.691D-01 0.123D+01
 Gap=     0.431 Goal=   None    Shift=    0.000
 RMSDP=5.43D-08 MaxDP=1.44D-06 DE=-1.24D-09 OVMax= 4.41D-06

 Cycle  10  Pass 1  IDiag  1:
 RMSU=  1.21D-08    CP:  1.00D+00  1.13D+00  1.11D+00  1.28D+00  1.30D+00
                    CP:  1.39D+00  1.26D+00  9.77D-01  1.30D+00
 FoFJK:  IHMeth= 1 ICntrl=     0 DoSepK=T KAlg= 1 I1Cent= 0 FoldK=F
 E= -151.323754508785     Delta-E=       -0.000000000067 Rises=F Damp=F
 DIIS: error= 5.39D-08 at cycle  10 NSaved=  10.
 NSaved=10 IEnMin=10 EnMin= -151.323754508785     IErMin=10 ErrMin= 5.39D-08
 ErrMax= 5.39D-08 EMaxC= 1.00D-01 BMatC= 4.49D-13 BMatP= 2.08D-11
 IDIUse=1 WtCom= 1.00D+00 WtEn= 0.00D+00
 Coeff-Com:  0.434D-06 0.244D-05 0.119D-04-0.430D-04-0.452D-03 0.136D-02
 Coeff-Com:  0.137D-01-0.224D-02-0.218D+00 0.121D+01
 Coeff:      0.434D-06 0.244D-05 0.119D-04-0.430D-04-0.452D-03 0.136D-02
 Coeff:      0.137D-01-0.224D-02-0.218D+00 0.121D+01
 Gap=     0.431 Goal=   None    Shift=    0.000
 RMSDP=8.00D-09 MaxDP=1.86D-07 DE=-6.66D-11 OVMax= 6.73D-07

 SCF Done:  E(RLC-B+HF-LYP) =  -151.323754509     A.U. after   10 cycles
             Convg  =    0.8000D-08             -V/T =  2.0058
 KE= 1.504568358988D+02 PE=-4.313900483258D+02 EE= 9.300851216907D+01
 Leave Link  502 at Wed May 13 18:52:13 2020, MaxMem= 1073741824 cpu:     226.0
 (Enter /home/matheus/.gaussian/g09/l601.exe)
 Copying SCF densities to generalized density rwf, IOpCl= 0 IROHF=0.

 **********************************************************************

            Population analysis using the SCF density.

 **********************************************************************

 Orbital symmetries:
       Occupied  (A) (A) (A) (A) (A) (A) (A) (A) (A)
       Virtual   (A) (A) (A) (A) (A) (A) (A) (A) (A) (A) (A) (A)
                 (A) (A) (A) (A) (A) (A) (A) (A) (A) (A) (A) (A)
                 (A) (A) (A) (A) (A) (A) (A) (A) (A) (A) (A) (A)
                 (A) (A) (A) (A) (A) (A) (A) (A) (A) (A) (A) (A)
                 (A) (A) (A) (A) (A) (A) (A) (A) (A) (A) (A) (A)
                 (A) (A) (A) (A) (A) (A) (A) (A) (A) (A) (A) (A)
                 (A) (A) (A) (A) (A) (A) (A) (A) (A) (A) (A) (A)
                 (A) (A) (A) (A) (A) (A) (A) (A) (A) (A) (A) (A)
                 (A) (A) (A) (A) (A) (A) (A) (A) (A) (A) (A) (A)
                 (A) (A) (A) (A) (A) (A) (A) (A) (A) (A) (A) (A)
                 (A) (A) (A) (A) (A) (A) (A) (A) (A) (A) (A) (A)
                 (A) (A) (A) (A) (A) (A) (A) (A) (A) (A) (A) (A)
                 (A) (A) (A) (A) (A) (A) (A) (A) (A) (A) (A) (A)
                 (A) (A) (A) (A) (A) (A) (A) (A) (A) (A) (A) (A)
                 (A) (A) (A) (A) (A) (A) (A) (A) (A) (A) (A) (A)
                 (A) (A) (A) (A) (A) (A) (A) (A)
 The electronic state is 1-A.
 Alpha  occ. eigenvalues --  -19.07191 -19.07190  -1.28271  -1.06588  -0.68545
 Alpha  occ. eigenvalues --   -0.65122  -0.56197  -0.49472  -0.40742
 Alpha virt. eigenvalues --    0.02330   0.03049   0.06757   0.08668   0.09840
 Alpha virt. eigenvalues --    0.10218   0.10550   0.13221   0.15826   0.16137
 Alpha virt. eigenvalues --    0.18320   0.18674   0.20263   0.22474   0.25607
 Alpha virt. eigenvalues --    0.26308   0.28659   0.30037   0.30526   0.32646
 Alpha virt. eigenvalues --    0.36051   0.37221   0.38202   0.38886   0.41269
 Alpha virt. eigenvalues --    0.42481   0.43148   0.47114   0.48214   0.48933
 Alpha virt. eigenvalues --    0.53894   0.57083   0.60388   0.65702   0.67470
 Alpha virt. eigenvalues --    0.68990   0.72842   0.74495   0.75156   0.76069
 Alpha virt. eigenvalues --    0.77969   0.82254   0.84555   0.86418   0.89949
 Alpha virt. eigenvalues --    0.90293   0.91920   0.94550   0.96819   0.99054
 Alpha virt. eigenvalues --    1.00290   1.03894   1.04431   1.09095   1.12784
 Alpha virt. eigenvalues --    1.13201   1.14932   1.16462   1.18162   1.23815
 Alpha virt. eigenvalues --    1.25446   1.29151   1.31834   1.32512   1.33282
 Alpha virt. eigenvalues --    1.33623   1.34394   1.36204   1.36826   1.45517
 Alpha virt. eigenvalues --    1.48309   1.50319   1.53375   1.53580   1.56932
 Alpha virt. eigenvalues --    1.58187   1.64970   1.66519   1.72554   1.79864
 Alpha virt. eigenvalues --    1.81343   1.84307   1.89982   1.99092   2.01731
 Alpha virt. eigenvalues --    2.03320   2.07876   2.16091   2.17469   2.21211
 Alpha virt. eigenvalues --    2.27064   2.30015   2.32548   2.38551   2.44757
 Alpha virt. eigenvalues --    2.50340   2.56929   2.57833   2.59617   2.68148
 Alpha virt. eigenvalues --    2.70310   2.71692   2.75836   2.87060   2.95239
 Alpha virt. eigenvalues --    3.07719   3.10600   3.13716   3.25661   3.30087
 Alpha virt. eigenvalues --    3.40092   3.50182   3.60768   3.72288   3.77594
 Alpha virt. eigenvalues --    3.79013   3.80175   3.81817   3.82326   3.83217
 Alpha virt. eigenvalues --    3.88424   3.89895   3.91614   3.91848   3.94625
 Alpha virt. eigenvalues --    3.97369   4.06311   4.08719   4.11083   4.12960
 Alpha virt. eigenvalues --    4.15444   4.22232   4.23754   4.30119   4.34985
 Alpha virt. eigenvalues --    4.42866   4.47583   4.58526   4.73771   4.91986
 Alpha virt. eigenvalues --    5.04278   5.06042   5.10009   5.10033   5.39434
 Alpha virt. eigenvalues --    5.44097   5.84114   5.99890   6.09360   6.15261
 Alpha virt. eigenvalues --    6.32174   6.38340   6.45766   6.49280   6.70832
 Alpha virt. eigenvalues --    6.72522   6.75502   6.81420   6.88201   6.90591
 Alpha virt. eigenvalues --    6.92135   6.94534   6.95133   6.99152   7.02645
 Alpha virt. eigenvalues --    7.22245   7.25946   7.39859   7.61410   7.83828
 Alpha virt. eigenvalues --    8.11141   8.14298  10.89212  14.07516  14.49413
 Alpha virt. eigenvalues --   14.83110  14.88247  15.10841  29.02856  29.03477
 Alpha virt. eigenvalues --   29.07715  29.13720  29.23115  49.10730 148.31129
 Alpha virt. eigenvalues --  148.38809 148.71967 752.51592
          Condensed to atoms (all electrons):
              1          2          3          4          5
     1  O    8.190587  -0.162418   0.178710  -0.000080  -0.004504
     2  O   -0.162418   8.150201   0.014077   0.222013   0.001272
     3  H    0.178710   0.014077   0.600578   0.004430   0.000837
     4  H   -0.000080   0.222013   0.004430   0.558601  -0.004784
     5  Kr  -0.004504   0.001272   0.000837  -0.004784   0.000923
 Mulliken atomic charges:
              1
     1  O   -0.202297
     2  O   -0.225146
     3  H    0.201368
     4  H    0.219820
     5  Kr   0.006255
 Sum of Mulliken atomic charges =   0.00000
 Mulliken charges with hydrogens summed into heavy atoms:
              1
     1  O   -0.000929
     2  O   -0.005326
     5  Kr   0.006255
 Sum of Mulliken charges with hydrogens summed into heavy atoms =   0.00000
          Condensed to fragments (all electrons):
     1      -0.006255
     2       0.006255
 Electronic spatial extent (au):  <R**2>=            325.0755
 Charge=              0.0000 electrons
 Dipole moment (field-independent basis, Debye):
    X=              0.0244    Y=             -0.0049    Z=              0.2907  Tot=              0.2917
 Quadrupole moment (field-independent basis, Debye-Ang):
   XX=             -8.7361   YY=            -10.9950   ZZ=            -13.2917
   XY=              4.1557   XZ=             -0.9016   YZ=             -0.2957
 Traceless Quadrupole moment (field-independent basis, Debye-Ang):
   XX=              2.2715   YY=              0.0126   ZZ=             -2.2841
   XY=              4.1557   XZ=             -0.9016   YZ=             -0.2957
 Octapole moment (field-independent basis, Debye-Ang**2):
  XXX=             52.1861  YYY=             -1.2617  ZZZ=              0.1743  XYY=             22.3123
  XXY=            -16.8665  XXZ=              2.7780  XZZ=             26.5405  YZZ=             -0.5498
  YYZ=              0.3714  XYZ=              0.9310
 Hexadecapole moment (field-independent basis, Debye-Ang**3):
 XXXX=           -219.0688 YYYY=            -47.1502 ZZZZ=            -12.0921 XXXY=             52.8163
 XXXZ=             -8.3810 YYYX=              5.1442 YYYZ=             -0.3637 ZZZX=             -0.2938
 ZZZY=             -0.1599 XXYY=            -52.6261 XXZZ=            -57.3955 YYZZ=            -11.8187
 XXYZ=             -2.8412 YYXZ=             -1.0157 ZZXY=              0.2404
 N-N= 3.660094574909D+01 E-N=-4.313900479705D+02  KE= 1.504568358988D+02
 No NMR shielding tensors so no spin-rotation constants.
 Leave Link  601 at Wed May 13 18:52:13 2020, MaxMem= 1073741824 cpu:       0.7
 (Enter /home/matheus/.gaussian/g09/l122.exe)
 Counterpoise: doing DCBS calculation for fragment   2 NewBq=T
 Leave Link  122 at Wed May 13 18:52:13 2020, MaxMem= 1073741824 cpu:       0.0
 (Enter /home/matheus/.gaussian/g09/l301.exe)
 Basis read from rwf:  (5D, 7F)
 No pseudopotential information found on rwf file.
 There are   197 symmetry adapted basis functions of A   symmetry.
 Integral buffers will be    131072 words long.
 Raffenetti 2 integral format.
 Two-electron integral symmetry is turned on.
   197 basis functions,   415 primitive gaussians,   229 cartesian basis functions
    18 alpha electrons       18 beta electrons
       nuclear repulsion energy         0.0000000000 Hartrees.
 IExCor=10402 DFT=T Ex=LC-B+HF Corr=LYP ExCW=0 ScaHFX=  1.000000
 ScaDFX=  1.000000  1.000000  1.000000  1.000000 ScalE2=  1.000000  1.000000
 IRadAn=      5 IRanWt=     -1 IRanGd=            0 ICorTp=0
  HFx wShort=  0.000000 wLong=  0.470000 cFull=  0.000000 cShort=  0.000000 cLong=  1.000000
  DFx wShort=  0.000000 wLong=  0.470000 cFull=  0.000000 cShort=  0.000000 cLong=  1.000000
 NAtoms=    5 NActive=    5 NUniq=    5 SFac= 1.00D+00 NAtFMM=   60 NAOKFM=F Big=F
 No density basis found on file   718.
 Leave Link  301 at Wed May 13 18:52:13 2020, MaxMem= 1073741824 cpu:       0.2
 (Enter /home/matheus/.gaussian/g09/l302.exe)
 NPDir=0 NMtPBC=     1 NCelOv=     1 NCel=       1 NClECP=     1 NCelD=      1
         NCelK=      1 NCelE2=     1 NClLst=     1 CellRange=     0.0.
 One-electron integrals computed using PRISM.
 NBasis=   197 RedAO= T  NBF=   197
 NBsUse=   197 1.00D-06 NBFU=   197
 Precomputing XC quadrature grid using
 IXCGrd= 2 IRadAn=           5 IRanWt=          -1 IRanGd=           0 AccXCQ= 0.00D+00.
 NRdTot=     427 NPtTot=      123814 NUsed=      126881 NTot=      126913
 NSgBfM=   229   229   229   229   229 NAtAll=     5     5.
 Leave Link  302 at Wed May 13 18:52:13 2020, MaxMem= 1073741824 cpu:       0.9
 (Enter /home/matheus/.gaussian/g09/l303.exe)
 DipDrv:  MaxL=1.
 Leave Link  303 at Wed May 13 18:52:13 2020, MaxMem= 1073741824 cpu:       0.2
 (Enter /home/matheus/.gaussian/g09/l401.exe)
 Harris functional with IExCor=10402 diagonalized for initial guess.
 ExpMin= 2.53D-02 ExpMax= 1.17D+07 ExpMxC= 1.33D+04 IAcc=3 IRadAn=         5 AccDes= 0.00D+00
 HarFok:  IExCor=10402 AccDes= 0.00D+00 IRadAn=         5 IDoV= 1
 ScaDFX=  1.000000  1.000000  1.000000  1.000000
 FoFCou: FMM=F IPFlag=           0 FMFlag=      100000 FMFlg1=           0
         NFxFlg=           0 DoJE=T BraDBF=F KetDBF=T FulRan=T
         Omega=  0.000000  0.000000  1.000000  0.000000  0.000000 ICntrl=     500 IOpCl=  0
         NMat0=    1 NMatS0=    1 NMatT0=    0 NMatD0=    1 NMtDS0=    0 NMtDT0=    0
         I1Cent=           4 NGrid=           0.
 Petite list used in FoFCou.
 Harris En= -2744.51538708984    
 Initial guess orbital symmetries:
       Occupied  (A) (A) (A) (A) (A) (A) (A) (A) (A) (A) (A) (A)
                 (A) (A) (A) (A) (A) (A)
       Virtual   (A) (A) (A) (A) (A) (A) (A) (A) (A) (A) (A) (A)
                 (A) (A) (A) (A) (A) (A) (A) (A) (A) (A) (A) (A)
                 (A) (A) (A) (A) (A) (A) (A) (A) (A) (A) (A) (A)
                 (A) (A) (A) (A) (A) (A) (A) (A) (A) (A) (A) (A)
                 (A) (A) (A) (A) (A) (A) (A) (A) (A) (A) (A) (A)
                 (A) (A) (A) (A) (A) (A) (A) (A) (A) (A) (A) (A)
                 (A) (A) (A) (A) (A) (A) (A) (A) (A) (A) (A) (A)
                 (A) (A) (A) (A) (A) (A) (A) (A) (A) (A) (A) (A)
                 (A) (A) (A) (A) (A) (A) (A) (A) (A) (A) (A) (A)
                 (A) (A) (A) (A) (A) (A) (A) (A) (A) (A) (A) (A)
                 (A) (A) (A) (A) (A) (A) (A) (A) (A) (A) (A) (A)
                 (A) (A) (A) (A) (A) (A) (A) (A) (A) (A) (A) (A)
                 (A) (A) (A) (A) (A) (A) (A) (A) (A) (A) (A) (A)
                 (A) (A) (A) (A) (A) (A) (A) (A) (A) (A) (A) (A)
                 (A) (A) (A) (A) (A) (A) (A) (A) (A) (A) (A)
 The electronic state of the initial guess is 1-A.
 Leave Link  401 at Wed May 13 18:52:13 2020, MaxMem= 1073741824 cpu:       3.7
 (Enter /home/matheus/.gaussian/g09/l502.exe)
 Closed shell SCF:
 Requested convergence on RMS density matrix=1.00D-08 within 128 cycles.
 Requested convergence on MAX density matrix=1.00D-06.
 Requested convergence on             energy=1.00D-06.
 No special actions if energy rises.
 Using DIIS extrapolation, IDIIS=  1040.
 Integral symmetry usage will be decided dynamically.
       126823 words used for storage of precomputed grid.
 IEnd=      305770 IEndB=      305770 NGot=  1073741824 MDV=  1073505365
 LenX=  1073505365 LenY=  1073452483
 Fock matrices will be formed incrementally for  20 cycles.

 Cycle   1  Pass 1  IDiag  1:
 FoFJK:  IHMeth= 1 ICntrl=     0 DoSepK=T KAlg= 1 I1Cent= 0 FoldK=F
 FoFCou: FMM=F IPFlag=           0 FMFlag=      100000 FMFlg1=           0
         NFxFlg=           0 DoJE=T BraDBF=F KetDBF=F FulRan=T
         Omega=  0.000000  0.000000  1.000000  0.000000  0.000000 ICntrl=     500 IOpCl=  0
         NMat0=    1 NMatS0=    1 NMatT0=    0 NMatD0=    1 NMtDS0=    0 NMtDT0=    0
         I1Cent=           0 NGrid=           0.
 Symmetry not used in FoFCou.
 E= -2753.33349105042    
 DIIS: error= 2.99D-02 at cycle   1 NSaved=   1.
 NSaved= 1 IEnMin= 1 EnMin= -2753.33349105042     IErMin= 1 ErrMin= 2.99D-02
 ErrMax= 2.99D-02 EMaxC= 1.00D-01 BMatC= 2.61D-01 BMatP= 2.61D-01
 IDIUse=3 WtCom= 7.01D-01 WtEn= 2.99D-01
 Coeff-Com:  0.100D+01
 Coeff-En:   0.100D+01
 Coeff:      0.100D+01
 Gap=     0.617 Goal=   None    Shift=    0.000
 GapD=    0.617 DampG=2.000 DampE=0.500 DampFc=1.0000 IDamp=-1.
 RMSDP=2.51D-03 MaxDP=1.52D-01              OVMax= 1.05D-01

 Cycle   2  Pass 1  IDiag  1:
 RMSU=  1.72D-03    CP:  1.03D+00
 FoFJK:  IHMeth= 1 ICntrl=     0 DoSepK=T KAlg= 1 I1Cent= 0 FoldK=F
 E= -2753.38946325629     Delta-E=       -0.055972205871 Rises=F Damp=F
 DIIS: error= 1.62D-02 at cycle   2 NSaved=   2.
 NSaved= 2 IEnMin= 2 EnMin= -2753.38946325629     IErMin= 2 ErrMin= 1.62D-02
 ErrMax= 1.62D-02 EMaxC= 1.00D-01 BMatC= 8.81D-02 BMatP= 2.61D-01
 IDIUse=3 WtCom= 8.38D-01 WtEn= 1.62D-01
 Coeff-Com:  0.365D+00 0.635D+00
 Coeff-En:   0.130D+00 0.870D+00
 Coeff:      0.327D+00 0.673D+00
 Gap=     0.537 Goal=   None    Shift=    0.000
 RMSDP=9.91D-04 MaxDP=6.13D-02 DE=-5.60D-02 OVMax= 3.15D-02

 Cycle   3  Pass 1  IDiag  1:
 RMSU=  1.76D-04    CP:  1.02D+00  6.17D-01
 FoFJK:  IHMeth= 1 ICntrl=     0 DoSepK=T KAlg= 1 I1Cent= 0 FoldK=F
 E= -2753.41747800851     Delta-E=       -0.028014752212 Rises=F Damp=F
 DIIS: error= 1.25D-03 at cycle   3 NSaved=   3.
 NSaved= 3 IEnMin= 3 EnMin= -2753.41747800851     IErMin= 3 ErrMin= 1.25D-03
 ErrMax= 1.25D-03 EMaxC= 1.00D-01 BMatC= 6.57D-04 BMatP= 8.81D-02
 IDIUse=3 WtCom= 9.87D-01 WtEn= 1.25D-02
 Coeff-Com: -0.645D-02 0.674D-01 0.939D+00
 Coeff-En:   0.000D+00 0.000D+00 0.100D+01
 Coeff:     -0.637D-02 0.665D-01 0.940D+00
 Gap=     0.537 Goal=   None    Shift=    0.000
 RMSDP=1.00D-04 MaxDP=5.36D-03 DE=-2.80D-02 OVMax= 3.38D-03

 Cycle   4  Pass 1  IDiag  1:
 RMSU=  3.74D-05    CP:  1.02D+00  6.48D-01  1.13D+00
 FoFJK:  IHMeth= 1 ICntrl=     0 DoSepK=T KAlg= 1 I1Cent= 0 FoldK=F
 E= -2753.41767980744     Delta-E=       -0.000201798938 Rises=F Damp=F
 DIIS: error= 6.32D-05 at cycle   4 NSaved=   4.
 NSaved= 4 IEnMin= 4 EnMin= -2753.41767980744     IErMin= 4 ErrMin= 6.32D-05
 ErrMax= 6.32D-05 EMaxC= 1.00D-01 BMatC= 1.94D-06 BMatP= 6.57D-04
 IDIUse=1 WtCom= 1.00D+00 WtEn= 0.00D+00
 Coeff-Com: -0.144D-02 0.573D-04-0.576D-02 0.101D+01
 Coeff:     -0.144D-02 0.573D-04-0.576D-02 0.101D+01
 Gap=     0.538 Goal=   None    Shift=    0.000
 RMSDP=1.42D-05 MaxDP=5.46D-04 DE=-2.02D-04 OVMax= 9.18D-04

 Cycle   5  Pass 1  IDiag  1:
 RMSU=  6.28D-06    CP:  1.02D+00  6.50D-01  1.17D+00  1.05D+00
 FoFJK:  IHMeth= 1 ICntrl=     0 DoSepK=T KAlg= 1 I1Cent= 0 FoldK=F
 E= -2753.41768372500     Delta-E=       -0.000003917557 Rises=F Damp=F
 DIIS: error= 2.41D-05 at cycle   5 NSaved=   5.
 NSaved= 5 IEnMin= 5 EnMin= -2753.41768372500     IErMin= 5 ErrMin= 2.41D-05
 ErrMax= 2.41D-05 EMaxC= 1.00D-01 BMatC= 1.59D-07 BMatP= 1.94D-06
 IDIUse=1 WtCom= 1.00D+00 WtEn= 0.00D+00
 Coeff-Com: -0.530D-04-0.413D-02-0.330D-01-0.725D-01 0.111D+01
 Coeff:     -0.530D-04-0.413D-02-0.330D-01-0.725D-01 0.111D+01
 Gap=     0.538 Goal=   None    Shift=    0.000
 RMSDP=4.60D-06 MaxDP=1.86D-04 DE=-3.92D-06 OVMax= 1.98D-04

 Cycle   6  Pass 1  IDiag  1:
 RMSU=  3.86D-07    CP:  1.02D+00  6.50D-01  1.19D+00  1.10D+00  1.15D+00
 FoFJK:  IHMeth= 1 ICntrl=     0 DoSepK=T KAlg= 1 I1Cent= 0 FoldK=F
 E= -2753.41768393329     Delta-E=       -0.000000208291 Rises=F Damp=F
 DIIS: error= 6.06D-07 at cycle   6 NSaved=   6.
 NSaved= 6 IEnMin= 6 EnMin= -2753.41768393329     IErMin= 6 ErrMin= 6.06D-07
 ErrMax= 6.06D-07 EMaxC= 1.00D-01 BMatC= 1.02D-10 BMatP= 1.59D-07
 IDIUse=1 WtCom= 1.00D+00 WtEn= 0.00D+00
 Coeff-Com:  0.719D-05 0.340D-03 0.297D-02-0.410D-03-0.762D-01 0.107D+01
 Coeff:      0.719D-05 0.340D-03 0.297D-02-0.410D-03-0.762D-01 0.107D+01
 Gap=     0.538 Goal=   None    Shift=    0.000
 RMSDP=1.60D-07 MaxDP=5.23D-06 DE=-2.08D-07 OVMax= 6.36D-06

 Cycle   7  Pass 1  IDiag  1:
 RMSU=  2.63D-08    CP:  1.02D+00  6.50D-01  1.19D+00  1.10D+00  1.17D+00
                    CP:  1.17D+00
 FoFJK:  IHMeth= 1 ICntrl=     0 DoSepK=T KAlg= 1 I1Cent= 0 FoldK=F
 E= -2753.41768393337     Delta-E=       -0.000000000079 Rises=F Damp=F
 DIIS: error= 8.79D-08 at cycle   7 NSaved=   7.
 NSaved= 7 IEnMin= 7 EnMin= -2753.41768393337     IErMin= 7 ErrMin= 8.79D-08
 ErrMax= 8.79D-08 EMaxC= 1.00D-01 BMatC= 2.40D-12 BMatP= 1.02D-10
 IDIUse=1 WtCom= 1.00D+00 WtEn= 0.00D+00
 Coeff-Com:  0.477D-06 0.408D-04 0.319D-03 0.865D-03-0.117D-01 0.116D-01
 Coeff-Com:  0.999D+00
 Coeff:      0.477D-06 0.408D-04 0.319D-03 0.865D-03-0.117D-01 0.116D-01
 Coeff:      0.999D+00
 Gap=     0.538 Goal=   None    Shift=    0.000
 RMSDP=1.64D-08 MaxDP=5.83D-07 DE=-7.87D-11 OVMax= 8.43D-07

 Cycle   8  Pass 1  IDiag  1:
 RMSU=  4.81D-09    CP:  1.02D+00  6.50D-01  1.19D+00  1.10D+00  1.17D+00
                    CP:  1.19D+00  1.12D+00
 FoFJK:  IHMeth= 1 ICntrl=     0 DoSepK=T KAlg= 1 I1Cent= 0 FoldK=F
 E= -2753.41768393338     Delta-E=       -0.000000000011 Rises=F Damp=F
 DIIS: error= 2.05D-08 at cycle   8 NSaved=   8.
 NSaved= 8 IEnMin= 8 EnMin= -2753.41768393338     IErMin= 8 ErrMin= 2.05D-08
 ErrMax= 2.05D-08 EMaxC= 1.00D-01 BMatC= 2.10D-13 BMatP= 2.40D-12
 IDIUse=1 WtCom= 1.00D+00 WtEn= 0.00D+00
 Coeff-Com: -0.334D-06-0.121D-04-0.113D-03 0.212D-03 0.205D-02-0.574D-01
 Coeff-Com:  0.188D+00 0.867D+00
 Coeff:     -0.334D-06-0.121D-04-0.113D-03 0.212D-03 0.205D-02-0.574D-01
 Coeff:      0.188D+00 0.867D+00
 Gap=     0.538 Goal=   None    Shift=    0.000
 RMSDP=3.05D-09 MaxDP=1.11D-07 DE=-1.09D-11 OVMax= 1.83D-07

 SCF Done:  E(RLC-B+HF-LYP) =  -2753.41768393     A.U. after    8 cycles
             Convg  =    0.3055D-08             -V/T =  2.0015
 KE= 2.749315199336D+03 PE=-6.578525819792D+03 EE= 1.075792936522D+03
 Leave Link  502 at Wed May 13 18:52:37 2020, MaxMem= 1073741824 cpu:     187.5
 (Enter /home/matheus/.gaussian/g09/l601.exe)
 Copying SCF densities to generalized density rwf, IOpCl= 0 IROHF=0.

 **********************************************************************

            Population analysis using the SCF density.

 **********************************************************************

 Orbital symmetries:
       Occupied  (A) (A) (A) (A) (A) (A) (A) (A) (A) (A) (A) (A)
                 (A) (A) (A) (A) (A) (A)
       Virtual   (A) (A) (A) (A) (A) (A) (A) (A) (A) (A) (A) (A)
                 (A) (A) (A) (A) (A) (A) (A) (A) (A) (A) (A) (A)
                 (A) (A) (A) (A) (A) (A) (A) (A) (A) (A) (A) (A)
                 (A) (A) (A) (A) (A) (A) (A) (A) (A) (A) (A) (A)
                 (A) (A) (A) (A) (A) (A) (A) (A) (A) (A) (A) (A)
                 (A) (A) (A) (A) (A) (A) (A) (A) (A) (A) (A) (A)
                 (A) (A) (A) (A) (A) (A) (A) (A) (A) (A) (A) (A)
                 (A) (A) (A) (A) (A) (A) (A) (A) (A) (A) (A) (A)
                 (A) (A) (A) (A) (A) (A) (A) (A) (A) (A) (A) (A)
                 (A) (A) (A) (A) (A) (A) (A) (A) (A) (A) (A) (A)
                 (A) (A) (A) (A) (A) (A) (A) (A) (A) (A) (A) (A)
                 (A) (A) (A) (A) (A) (A) (A) (A) (A) (A) (A) (A)
                 (A) (A) (A) (A) (A) (A) (A) (A) (A) (A) (A) (A)
                 (A) (A) (A) (A) (A) (A) (A) (A) (A) (A) (A) (A)
                 (A) (A) (A) (A) (A) (A) (A) (A) (A) (A) (A)
 The electronic state is 1-A.
 Alpha  occ. eigenvalues -- -511.24360 -66.71349 -60.39872 -60.39869 -60.39868
 Alpha  occ. eigenvalues --   -9.60493  -7.35946  -7.35945  -7.35945  -3.32283
 Alpha  occ. eigenvalues --   -3.32283  -3.32283  -3.32281  -3.32281  -1.06080
 Alpha  occ. eigenvalues --   -0.51293  -0.51288  -0.51287
 Alpha virt. eigenvalues --    0.02513   0.04619   0.07667   0.09208   0.10133
 Alpha virt. eigenvalues --    0.11614   0.12528   0.13950   0.15938   0.16556
 Alpha virt. eigenvalues --    0.17422   0.19041   0.20359   0.25514   0.26432
 Alpha virt. eigenvalues --    0.27212   0.27667   0.32319   0.33729   0.35252
 Alpha virt. eigenvalues --    0.35426   0.36563   0.37464   0.38702   0.41138
 Alpha virt. eigenvalues --    0.42654   0.42949   0.52977   0.54720   0.57442
 Alpha virt. eigenvalues --    0.60820   0.64736   0.66805   0.68203   0.70150
 Alpha virt. eigenvalues --    0.74563   0.74689   0.76105   0.77798   0.78373
 Alpha virt. eigenvalues --    0.80984   0.81684   0.83181   0.84184   0.85056
 Alpha virt. eigenvalues --    0.86566   0.87739   0.88685   0.91812   0.94384
 Alpha virt. eigenvalues --    0.97504   0.99489   1.01468   1.02943   1.04912
 Alpha virt. eigenvalues --    1.06480   1.08647   1.09077   1.12499   1.14036
 Alpha virt. eigenvalues --    1.15449   1.18517   1.19360   1.25929   1.27719
 Alpha virt. eigenvalues --    1.32579   1.34691   1.41849   1.43798   1.45135
 Alpha virt. eigenvalues --    1.57002   1.59932   1.69852   1.74473   1.76132
 Alpha virt. eigenvalues --    1.82210   1.85190   1.86359   1.88068   2.16026
 Alpha virt. eigenvalues --    2.20731   2.24435   2.28148   2.31637   2.32491
 Alpha virt. eigenvalues --    2.32797   2.34201   2.36237   2.39726   2.40339
 Alpha virt. eigenvalues --    2.40990   2.46412   2.48773   2.51440   2.51733
 Alpha virt. eigenvalues --    2.53140   2.54494   2.55109   2.57832   2.59689
 Alpha virt. eigenvalues --    2.61294   2.61964   2.62919   2.65578   2.67586
 Alpha virt. eigenvalues --    2.69570   2.70656   2.77814   2.79138   2.87288
 Alpha virt. eigenvalues --    2.89066   3.01630   3.04582   3.10380   3.14273
 Alpha virt. eigenvalues --    3.23112   3.27106   3.27530   3.34247   3.51905
 Alpha virt. eigenvalues --    3.59007   3.63584   3.84165   3.86676   4.02627
 Alpha virt. eigenvalues --    4.34122   4.42506   4.55032   4.55939   4.61460
 Alpha virt. eigenvalues --    4.72621   4.89526   4.89953   4.93419   5.02195
 Alpha virt. eigenvalues --    5.10749   5.13926   5.58387   5.66121   5.85066
 Alpha virt. eigenvalues --    5.86952   5.93856   6.20732   6.83198   6.93482
 Alpha virt. eigenvalues --    7.25543   7.41561   7.59685   7.64789   7.73682
 Alpha virt. eigenvalues --    7.78325   8.08357   8.09135   8.16058   8.24672
 Alpha virt. eigenvalues --    8.33028   8.37062   8.68024   8.89134   9.63406
 Alpha virt. eigenvalues --    9.70034   9.76307   9.83138   9.95147  10.05355
 Alpha virt. eigenvalues --   10.17104  10.20094  10.48905  10.92526  11.41931
 Alpha virt. eigenvalues --   11.55691  11.60919  12.02345  12.12814  13.20996
 Alpha virt. eigenvalues --   13.68399  14.52415  62.93254  64.51574
          Condensed to atoms (all electrons):
              1          2          3          4          5
     1  O    0.002523  -0.002332  -0.001121   0.001173  -0.007564
     2  O   -0.002332   0.005590   0.000861  -0.003169  -0.007965
     3  H   -0.001121   0.000861   0.000645  -0.000382   0.000887
     4  H    0.001173  -0.003169  -0.000382   0.002945  -0.013106
     5  Kr  -0.007564  -0.007965   0.000887  -0.013106  36.053731
 Mulliken atomic charges:
              1
     1  O    0.007320
     2  O    0.007015
     3  H   -0.000890
     4  H    0.012539
     5  Kr  -0.025984
 Sum of Mulliken atomic charges =   0.00000
 Mulliken charges with hydrogens summed into heavy atoms:
              1
     1  O    0.006430
     2  O    0.019553
     5  Kr  -0.025984
 Sum of Mulliken charges with hydrogens summed into heavy atoms =   0.00000
          Condensed to fragments (all electrons):
     1       0.025984
     2      -0.025984
 Electronic spatial extent (au):  <R**2>=            168.0962
 Charge=              0.0000 electrons
 Dipole moment (field-independent basis, Debye):
    X=             -0.0016    Y=              0.0007    Z=              0.0000  Tot=              0.0017
 Quadrupole moment (field-independent basis, Debye-Ang):
   XX=            -17.7480   YY=            -17.7568   ZZ=            -17.7629
   XY=             -0.0046   XZ=              0.0000   YZ=              0.0001
 Traceless Quadrupole moment (field-independent basis, Debye-Ang):
   XX=              0.0079   YY=             -0.0009   ZZ=             -0.0070
   XY=             -0.0046   XZ=              0.0000   YZ=              0.0001
 Octapole moment (field-independent basis, Debye-Ang**2):
  XXX=            -53.2204  YYY=              1.0066  ZZZ=             -0.0542  XYY=            -17.7509
  XXY=              0.3243  XXZ=             -0.0183  XZZ=            -17.7544  YZZ=              0.3357
  YYZ=             -0.0179  XYZ=              0.0002
 Hexadecapole moment (field-independent basis, Debye-Ang**3):
 XXXX=           -125.3078 YYYY=            -18.9632 ZZZZ=            -18.9422 XXXY=              0.9786
 XXXZ=             -0.0546 YYYX=              0.9891 YYYZ=              0.0007 ZZZX=             -0.0544
 ZZZY=              0.0012 XXYY=            -24.0538 XXZZ=            -24.0528 YYZZ=             -6.3140
 XXYZ=              0.0004 YYXZ=             -0.0181 ZZXY=              0.3287
 N-N= 0.000000000000D+00 E-N=-6.578525818196D+03  KE= 2.749315199336D+03
 No NMR shielding tensors so no spin-rotation constants.
 Leave Link  601 at Wed May 13 18:52:37 2020, MaxMem= 1073741824 cpu:       0.7
 (Enter /home/matheus/.gaussian/g09/l122.exe)
 Counterpoise: doing MCBS calculation for fragment   1
 Leave Link  122 at Wed May 13 18:52:37 2020, MaxMem= 1073741824 cpu:       0.0
 (Enter /home/matheus/.gaussian/g09/l301.exe)
 Basis read from rwf:  (5D, 7F)
 No pseudopotential information found on rwf file.
 There are   138 symmetry adapted basis functions of A   symmetry.
 Integral buffers will be    131072 words long.
 Raffenetti 2 integral format.
 Two-electron integral symmetry is turned on.
   138 basis functions,   198 primitive gaussians,   160 cartesian basis functions
     9 alpha electrons        9 beta electrons
       nuclear repulsion energy        36.6009457491 Hartrees.
 IExCor=10402 DFT=T Ex=LC-B+HF Corr=LYP ExCW=0 ScaHFX=  1.000000
 ScaDFX=  1.000000  1.000000  1.000000  1.000000 ScalE2=  1.000000  1.000000
 IRadAn=      5 IRanWt=     -1 IRanGd=            0 ICorTp=0
  HFx wShort=  0.000000 wLong=  0.470000 cFull=  0.000000 cShort=  0.000000 cLong=  1.000000
  DFx wShort=  0.000000 wLong=  0.470000 cFull=  0.000000 cShort=  0.000000 cLong=  1.000000
 NAtoms=    5 NActive=    4 NUniq=    4 SFac= 1.00D+00 NAtFMM=   60 NAOKFM=F Big=F
 No density basis found on file   718.
 Leave Link  301 at Wed May 13 18:52:37 2020, MaxMem= 1073741824 cpu:       0.2
 (Enter /home/matheus/.gaussian/g09/l302.exe)
 NPDir=0 NMtPBC=     1 NCelOv=     1 NCel=       1 NClECP=     1 NCelD=      1
         NCelK=      1 NCelE2=     1 NClLst=     1 CellRange=     0.0.
 One-electron integrals computed using PRISM.
 NBasis=   138 RedAO= T  NBF=   138
 NBsUse=   138 1.00D-06 NBFU=   138
 Precomputing XC quadrature grid using
 IXCGrd= 2 IRadAn=           5 IRanWt=          -1 IRanGd=           0 AccXCQ= 0.00D+00.
 NRdTot=     344 NPtTot=       92556 NUsed=       95038 NTot=       95070
 NSgBfM=   160   160   160   160   160 NAtAll=     4     4.
 Leave Link  302 at Wed May 13 18:52:37 2020, MaxMem= 1073741824 cpu:       0.8
 (Enter /home/matheus/.gaussian/g09/l303.exe)
 DipDrv:  MaxL=1.
 Leave Link  303 at Wed May 13 18:52:37 2020, MaxMem= 1073741824 cpu:       0.1
 (Enter /home/matheus/.gaussian/g09/l401.exe)
 Harris functional with IExCor=10402 diagonalized for initial guess.
 ExpMin= 2.53D-02 ExpMax= 1.53D+04 ExpMxC= 5.22D+02 IAcc=3 IRadAn=         5 AccDes= 0.00D+00
 HarFok:  IExCor=10402 AccDes= 0.00D+00 IRadAn=         5 IDoV= 1
 ScaDFX=  1.000000  1.000000  1.000000  1.000000
 FoFCou: FMM=F IPFlag=           0 FMFlag=      100000 FMFlg1=           0
         NFxFlg=           0 DoJE=T BraDBF=F KetDBF=T FulRan=T
         Omega=  0.000000  0.000000  1.000000  0.000000  0.000000 ICntrl=     500 IOpCl=  0
         NMat0=    1 NMatS0=    1 NMatT0=    0 NMatD0=    1 NMtDS0=    0 NMtDT0=    0
         I1Cent=           4 NGrid=           0.
 Petite list used in FoFCou.
 Harris En= -147.162497354477    
 Initial guess orbital symmetries:
       Occupied  (A) (A) (A) (A) (A) (A) (A) (A) (A)
       Virtual   (A) (A) (A) (A) (A) (A) (A) (A) (A) (A) (A) (A)
                 (A) (A) (A) (A) (A) (A) (A) (A) (A) (A) (A) (A)
                 (A) (A) (A) (A) (A) (A) (A) (A) (A) (A) (A) (A)
                 (A) (A) (A) (A) (A) (A) (A) (A) (A) (A) (A) (A)
                 (A) (A) (A) (A) (A) (A) (A) (A) (A) (A) (A) (A)
                 (A) (A) (A) (A) (A) (A) (A) (A) (A) (A) (A) (A)
                 (A) (A) (A) (A) (A) (A) (A) (A) (A) (A) (A) (A)
                 (A) (A) (A) (A) (A) (A) (A) (A) (A) (A) (A) (A)
                 (A) (A) (A) (A) (A) (A) (A) (A) (A) (A) (A) (A)
                 (A) (A) (A) (A) (A) (A) (A) (A) (A) (A) (A) (A)
                 (A) (A) (A) (A) (A) (A) (A) (A) (A)
 The electronic state of the initial guess is 1-A.
 Leave Link  401 at Wed May 13 18:52:37 2020, MaxMem= 1073741824 cpu:       2.1
 (Enter /home/matheus/.gaussian/g09/l502.exe)
 Closed shell SCF:
 Requested convergence on RMS density matrix=1.00D-08 within 128 cycles.
 Requested convergence on MAX density matrix=1.00D-06.
 Requested convergence on             energy=1.00D-06.
 No special actions if energy rises.
 Using DIIS extrapolation, IDIIS=  1040.
 Integral symmetry usage will be decided dynamically.
        94980 words used for storage of precomputed grid.
 IEnd=      192360 IEndB=      192360 NGot=  1073741824 MDV=  1073591865
 LenX=  1073591865 LenY=  1073565824
 Fock matrices will be formed incrementally for  20 cycles.

 Cycle   1  Pass 1  IDiag  1:
 FoFJK:  IHMeth= 1 ICntrl=     0 DoSepK=T KAlg= 1 I1Cent= 0 FoldK=F
 FoFCou: FMM=F IPFlag=           0 FMFlag=      100000 FMFlg1=           0
         NFxFlg=           0 DoJE=T BraDBF=F KetDBF=F FulRan=T
         Omega=  0.000000  0.000000  1.000000  0.000000  0.000000 ICntrl=     500 IOpCl=  0
         NMat0=    1 NMatS0=    1 NMatT0=    0 NMatD0=    1 NMtDS0=    0 NMtDT0=    0
         I1Cent=           0 NGrid=           0.
 Symmetry not used in FoFCou.
 E= -151.303387675627    
 DIIS: error= 1.72D-02 at cycle   1 NSaved=   1.
 NSaved= 1 IEnMin= 1 EnMin= -151.303387675627     IErMin= 1 ErrMin= 1.72D-02
 ErrMax= 1.72D-02 EMaxC= 1.00D-01 BMatC= 2.07D-02 BMatP= 2.07D-02
 IDIUse=3 WtCom= 8.28D-01 WtEn= 1.72D-01
 Coeff-Com:  0.100D+01
 Coeff-En:   0.100D+01
 Coeff:      0.100D+01
 Gap=     0.465 Goal=   None    Shift=    0.000
 GapD=    0.465 DampG=2.000 DampE=0.500 DampFc=1.0000 IDamp=-1.
 RMSDP=1.18D-03 MaxDP=2.95D-02              OVMax= 5.51D-02

 Cycle   2  Pass 1  IDiag  1:
 RMSU=  8.31D-04    CP:  1.00D+00
 FoFJK:  IHMeth= 1 ICntrl=     0 DoSepK=T KAlg= 1 I1Cent= 0 FoldK=F
 E= -151.320359416014     Delta-E=       -0.016971740387 Rises=F Damp=F
 DIIS: error= 8.40D-03 at cycle   2 NSaved=   2.
 NSaved= 2 IEnMin= 2 EnMin= -151.320359416014     IErMin= 2 ErrMin= 8.40D-03
 ErrMax= 8.40D-03 EMaxC= 1.00D-01 BMatC= 5.02D-03 BMatP= 2.07D-02
 IDIUse=3 WtCom= 9.16D-01 WtEn= 8.40D-02
 Coeff-Com:  0.280D+00 0.720D+00
 Coeff-En:   0.000D+00 0.100D+01
 Coeff:      0.256D+00 0.744D+00
 Gap=     0.425 Goal=   None    Shift=    0.000
 RMSDP=3.13D-04 MaxDP=7.16D-03 DE=-1.70D-02 OVMax= 1.47D-02

 Cycle   3  Pass 1  IDiag  1:
 RMSU=  2.21D-04    CP:  1.00D+00  1.00D+00
 FoFJK:  IHMeth= 1 ICntrl=     0 DoSepK=T KAlg= 1 I1Cent= 0 FoldK=F
 E= -151.323206236919     Delta-E=       -0.002846820904 Rises=F Damp=F
 DIIS: error= 2.37D-03 at cycle   3 NSaved=   3.
 NSaved= 3 IEnMin= 3 EnMin= -151.323206236919     IErMin= 3 ErrMin= 2.37D-03
 ErrMax= 2.37D-03 EMaxC= 1.00D-01 BMatC= 6.36D-04 BMatP= 5.02D-03
 IDIUse=3 WtCom= 9.76D-01 WtEn= 2.37D-02
 Coeff-Com:  0.100D-01 0.249D+00 0.741D+00
 Coeff-En:   0.000D+00 0.000D+00 0.100D+01
 Coeff:      0.980D-02 0.243D+00 0.747D+00
 Gap=     0.435 Goal=   None    Shift=    0.000
 RMSDP=1.53D-04 MaxDP=3.95D-03 DE=-2.85D-03 OVMax= 7.83D-03

 Cycle   4  Pass 1  IDiag  1:
 RMSU=  7.49D-05    CP:  1.00D+00  1.09D+00  9.48D-01
 FoFJK:  IHMeth= 1 ICntrl=     0 DoSepK=T KAlg= 1 I1Cent= 0 FoldK=F
 E= -151.323682739623     Delta-E=       -0.000476502704 Rises=F Damp=F
 DIIS: error= 4.17D-04 at cycle   4 NSaved=   4.
 NSaved= 4 IEnMin= 4 EnMin= -151.323682739623     IErMin= 4 ErrMin= 4.17D-04
 ErrMax= 4.17D-04 EMaxC= 1.00D-01 BMatC= 2.65D-05 BMatP= 6.36D-04
 IDIUse=3 WtCom= 9.96D-01 WtEn= 4.17D-03
 Coeff-Com: -0.209D-01-0.296D-01 0.112D+00 0.939D+00
 Coeff-En:   0.000D+00 0.000D+00 0.000D+00 0.100D+01
 Coeff:     -0.208D-01-0.295D-01 0.112D+00 0.939D+00
 Gap=     0.433 Goal=   None    Shift=    0.000
 RMSDP=5.55D-05 MaxDP=1.56D-03 DE=-4.77D-04 OVMax= 1.93D-03

 Cycle   5  Pass 1  IDiag  1:
 RMSU=  1.25D-05    CP:  1.00D+00  1.12D+00  1.06D+00  1.17D+00
 FoFJK:  IHMeth= 1 ICntrl=     0 DoSepK=T KAlg= 1 I1Cent= 0 FoldK=F
 E= -151.323711415302     Delta-E=       -0.000028675679 Rises=F Damp=F
 DIIS: error= 8.39D-05 at cycle   5 NSaved=   5.
 NSaved= 5 IEnMin= 5 EnMin= -151.323711415302     IErMin= 5 ErrMin= 8.39D-05
 ErrMax= 8.39D-05 EMaxC= 1.00D-01 BMatC= 4.13D-07 BMatP= 2.65D-05
 IDIUse=1 WtCom= 1.00D+00 WtEn= 0.00D+00
 Coeff-Com:  0.549D-03-0.755D-02-0.346D-01-0.461D-01 0.109D+01
 Coeff:      0.549D-03-0.755D-02-0.346D-01-0.461D-01 0.109D+01
 Gap=     0.433 Goal=   None    Shift=    0.000
 RMSDP=1.45D-05 MaxDP=4.16D-04 DE=-2.87D-05 OVMax= 6.08D-04

 Cycle   6  Pass 1  IDiag  1:
 RMSU=  2.30D-06    CP:  1.00D+00  1.13D+00  1.08D+00  1.26D+00  1.26D+00
 FoFJK:  IHMeth= 1 ICntrl=     0 DoSepK=T KAlg= 1 I1Cent= 0 FoldK=F
 E= -151.323712609083     Delta-E=       -0.000001193782 Rises=F Damp=F
 DIIS: error= 1.74D-05 at cycle   6 NSaved=   6.
 NSaved= 6 IEnMin= 6 EnMin= -151.323712609083     IErMin= 6 ErrMin= 1.74D-05
 ErrMax= 1.74D-05 EMaxC= 1.00D-01 BMatC= 1.89D-08 BMatP= 4.13D-07
 IDIUse=1 WtCom= 1.00D+00 WtEn= 0.00D+00
 Coeff-Com:  0.453D-03 0.104D-02-0.240D-02-0.253D-01-0.146D-01 0.104D+01
 Coeff:      0.453D-03 0.104D-02-0.240D-02-0.253D-01-0.146D-01 0.104D+01
 Gap=     0.433 Goal=   None    Shift=    0.000
 RMSDP=2.09D-06 MaxDP=4.87D-05 DE=-1.19D-06 OVMax= 9.24D-05

 Cycle   7  Pass 1  IDiag  1:
 RMSU=  4.92D-07    CP:  1.00D+00  1.13D+00  1.08D+00  1.28D+00  1.30D+00
                    CP:  1.28D+00
 FoFJK:  IHMeth= 1 ICntrl=     0 DoSepK=T KAlg= 1 I1Cent= 0 FoldK=F
 E= -151.323712657191     Delta-E=       -0.000000048107 Rises=F Damp=F
 DIIS: error= 3.63D-06 at cycle   7 NSaved=   7.
 NSaved= 7 IEnMin= 7 EnMin= -151.323712657191     IErMin= 7 ErrMin= 3.63D-06
 ErrMax= 3.63D-06 EMaxC= 1.00D-01 BMatC= 9.60D-10 BMatP= 1.89D-08
 IDIUse=1 WtCom= 1.00D+00 WtEn= 0.00D+00
 Coeff-Com: -0.344D-04 0.332D-03 0.154D-02 0.273D-02-0.479D-01-0.118D+00
 Coeff-Com:  0.116D+01
 Coeff:     -0.344D-04 0.332D-03 0.154D-02 0.273D-02-0.479D-01-0.118D+00
 Coeff:      0.116D+01
 Gap=     0.433 Goal=   None    Shift=    0.000
 RMSDP=4.54D-07 MaxDP=6.51D-06 DE=-4.81D-08 OVMax= 3.35D-05

 Cycle   8  Pass 1  IDiag  1:
 RMSU=  1.46D-07    CP:  1.00D+00  1.13D+00  1.08D+00  1.28D+00  1.30D+00
                    CP:  1.37D+00  1.25D+00
 FoFJK:  IHMeth= 1 ICntrl=     0 DoSepK=T KAlg= 1 I1Cent= 0 FoldK=F
 E= -151.323712660768     Delta-E=       -0.000000003577 Rises=F Damp=F
 DIIS: error= 6.89D-07 at cycle   8 NSaved=   8.
[...]
 Coeff:      0.228D-03-0.567D-01 0.348D+00 0.708D+00
 Gap=     0.539 Goal=   None    Shift=    0.000
 RMSDP=2.30D-08 MaxDP=9.22D-07 DE=-2.04D-10 OVMax= 1.04D-06

 Cycle   5  Pass 1  IDiag  1:
 RMSU=  1.13D-08    CP:  1.00D+00  1.08D+00  1.19D+00  1.12D+00
 FoFJK:  IHMeth= 1 ICntrl=     0 DoSepK=T KAlg= 1 I1Cent= 0 FoldK=F
 E= -2753.41756255884     Delta-E=       -0.000000000019 Rises=F Damp=F
 DIIS: error= 3.99D-08 at cycle   5 NSaved=   5.
 NSaved= 5 IEnMin= 5 EnMin= -2753.41756255884     IErMin= 5 ErrMin= 3.99D-08
 ErrMax= 3.99D-08 EMaxC= 1.00D-01 BMatC= 2.58D-13 BMatP= 1.87D-11
 IDIUse=1 WtCom= 1.00D+00 WtEn= 0.00D+00
 Coeff-Com: -0.197D-04 0.725D-02-0.659D-01-0.234D-01 0.108D+01
 Coeff:     -0.197D-04 0.725D-02-0.659D-01-0.234D-01 0.108D+01
 Gap=     0.539 Goal=   None    Shift=    0.000
 RMSDP=1.10D-08 MaxDP=6.44D-07 DE=-1.91D-11 OVMax= 4.49D-07

 Cycle   6  Pass 1  IDiag  1:
 RMSU=  1.58D-09    CP:  1.00D+00  1.08D+00  1.20D+00  1.21D+00  1.15D+00
 FoFJK:  IHMeth= 1 ICntrl=     0 DoSepK=T KAlg= 1 I1Cent= 0 FoldK=F
 E= -2753.41756255885     Delta-E=       -0.000000000009 Rises=F Damp=F
 DIIS: error= 1.25D-08 at cycle   6 NSaved=   6.
 NSaved= 6 IEnMin= 6 EnMin= -2753.41756255885     IErMin= 6 ErrMin= 1.25D-08
 ErrMax= 1.25D-08 EMaxC= 1.00D-01 BMatC= 1.22D-14 BMatP= 2.58D-13
 IDIUse=1 WtCom= 1.00D+00 WtEn= 0.00D+00
 Coeff-Com: -0.104D-04 0.303D-02-0.224D-01-0.249D-01 0.198D+00 0.846D+00
 Coeff:     -0.104D-04 0.303D-02-0.224D-01-0.249D-01 0.198D+00 0.846D+00
 Gap=     0.539 Goal=   None    Shift=    0.000
 RMSDP=9.18D-10 MaxDP=4.52D-08 DE=-9.09D-12 OVMax= 7.96D-08

 SCF Done:  E(RLC-B+HF-LYP) =  -2753.41756256     A.U. after    6 cycles
             Convg  =    0.9183D-09             -V/T =  2.0015
 KE= 2.749364050368D+03 PE=-6.578579416774D+03 EE= 1.075797803848D+03
 Leave Link  502 at Wed May 13 19:14:05 2020, MaxMem= 1073741824 cpu:     113.6
 (Enter /home/matheus/.gaussian/g09/l122.exe)
 Restoring MOs from calculation   4 to rwf.
 Counterpoise: doing MCBS calculation for fragment   1
 Leave Link  122 at Wed May 13 19:14:05 2020, MaxMem= 1073741824 cpu:       0.0
 (Enter /home/matheus/.gaussian/g09/l301.exe)
 Basis read from rwf:  (5D, 7F)
 No pseudopotential information found on rwf file.
 There are   138 symmetry adapted basis functions of A   symmetry.
 Integral buffers will be    131072 words long.
 Raffenetti 2 integral format.
 Two-electron integral symmetry is turned on.
   138 basis functions,   198 primitive gaussians,   160 cartesian basis functions
     9 alpha electrons        9 beta electrons
       nuclear repulsion energy        36.6009457491 Hartrees.
 IExCor=10402 DFT=T Ex=LC-B+HF Corr=LYP ExCW=0 ScaHFX=  1.000000
 ScaDFX=  1.000000  1.000000  1.000000  1.000000 ScalE2=  1.000000  1.000000
 IRadAn=      5 IRanWt=     -1 IRanGd=            0 ICorTp=0
  HFx wShort=  0.000000 wLong=  0.470000 cFull=  0.000000 cShort=  0.000000 cLong=  1.000000
  DFx wShort=  0.000000 wLong=  0.470000 cFull=  0.000000 cShort=  0.000000 cLong=  1.000000
 NAtoms=    5 NActive=    4 NUniq=    4 SFac= 1.00D+00 NAtFMM=   60 NAOKFM=F Big=F
 No density basis found on file   718.
 Leave Link  301 at Wed May 13 19:14:05 2020, MaxMem= 1073741824 cpu:       0.2
 (Enter /home/matheus/.gaussian/g09/l302.exe)
 NPDir=0 NMtPBC=     1 NCelOv=     1 NCel=       1 NClECP=     1 NCelD=      1
         NCelK=      1 NCelE2=     1 NClLst=     1 CellRange=     0.0.
 One-electron integrals computed using PRISM.
 NBasis=   138 RedAO= T  NBF=   138
 NBsUse=   138 1.00D-06 NBFU=   138
 Precomputing XC quadrature grid using
 IXCGrd= 2 IRadAn=           5 IRanWt=          -1 IRanGd=           0 AccXCQ= 0.00D+00.
 NRdTot=     344 NPtTot=       92556 NUsed=       95038 NTot=       95070
 NSgBfM=   160   160   160   160   160 NAtAll=     4     4.
 Leave Link  302 at Wed May 13 19:14:05 2020, MaxMem= 1073741824 cpu:       0.8
 (Enter /home/matheus/.gaussian/g09/l303.exe)
 DipDrv:  MaxL=1.
 Leave Link  303 at Wed May 13 19:14:05 2020, MaxMem= 1073741824 cpu:       0.1
 (Enter /home/matheus/.gaussian/g09/l401.exe)
 Initial guess read from the read-write file.
 Guess basis will be translated and rotated to current coordinates.
 Initial guess orbital symmetries:
       Occupied  (A) (A) (A) (A) (A) (A) (A) (A) (A)
       Virtual   (A) (A) (A) (A) (A) (A) (A) (A) (A) (A) (A) (A)
                 (A) (A) (A) (A) (A) (A) (A) (A) (A) (A) (A) (A)
                 (A) (A) (A) (A) (A) (A) (A) (A) (A) (A) (A) (A)
                 (A) (A) (A) (A) (A) (A) (A) (A) (A) (A) (A) (A)
                 (A) (A) (A) (A) (A) (A) (A) (A) (A) (A) (A) (A)
                 (A) (A) (A) (A) (A) (A) (A) (A) (A) (A) (A) (A)
                 (A) (A) (A) (A) (A) (A) (A) (A) (A) (A) (A) (A)
                 (A) (A) (A) (A) (A) (A) (A) (A) (A) (A) (A) (A)
                 (A) (A) (A) (A) (A) (A) (A) (A) (A) (A) (A) (A)
                 (A) (A) (A) (A) (A) (A) (A) (A) (A) (A) (A) (A)
                 (A) (A) (A) (A) (A) (A) (A) (A) (A)
 The electronic state of the initial guess is 1-A.
 Generating alternative initial guess.
 Harris functional with IExCor=10402 diagonalized for initial guess.
 ExpMin= 2.53D-02 ExpMax= 1.53D+04 ExpMxC= 5.22D+02 IAcc=3 IRadAn=         5 AccDes= 0.00D+00
 HarFok:  IExCor=10402 AccDes= 0.00D+00 IRadAn=         5 IDoV= 1
 ScaDFX=  1.000000  1.000000  1.000000  1.000000
 FoFCou: FMM=F IPFlag=           0 FMFlag=      100000 FMFlg1=           0
         NFxFlg=           0 DoJE=T BraDBF=F KetDBF=T FulRan=T
         Omega=  0.000000  0.000000  1.000000  0.000000  0.000000 ICntrl=     500 IOpCl=  0
         NMat0=    1 NMatS0=    1 NMatT0=    0 NMatD0=    1 NMtDS0=    0 NMtDT0=    0
         I1Cent=           4 NGrid=           0.
 Petite list used in FoFCou.
 Harris En= -147.162497378608    
 Leave Link  401 at Wed May 13 19:14:06 2020, MaxMem= 1073741824 cpu:       2.5
 (Enter /home/matheus/.gaussian/g09/l502.exe)
 Closed shell SCF:
 Requested convergence on RMS density matrix=1.00D-08 within 128 cycles.
 Requested convergence on MAX density matrix=1.00D-06.
 Requested convergence on             energy=1.00D-06.
 No special actions if energy rises.
 Using DIIS extrapolation, IDIIS=  1040.
 Integral symmetry usage will be decided dynamically.
        94980 words used for storage of precomputed grid.
 IEnd=      192360 IEndB=      192360 NGot=  1073741824 MDV=  1073591865
 LenX=  1073591865 LenY=  1073565824
 Fock matrices will be formed incrementally for  20 cycles.

 Cycle   1  Pass 1  IDiag  1:
 FoFJK:  IHMeth= 1 ICntrl=     0 DoSepK=T KAlg= 1 I1Cent= 0 FoldK=F
 FoFCou: FMM=F IPFlag=           0 FMFlag=      100000 FMFlg1=           0
         NFxFlg=           0 DoJE=T BraDBF=F KetDBF=F FulRan=T
         Omega=  0.000000  0.000000  1.000000  0.000000  0.000000 ICntrl=     500 IOpCl=  0
         NMat0=    1 NMatS0=    1 NMatT0=    0 NMatD0=    1 NMtDS0=    0 NMtDT0=    0
         I1Cent=           0 NGrid=           0.
 Symmetry not used in FoFCou.
 E= -151.323712620166    
 DIIS: error= 2.77D-05 at cycle   1 NSaved=   1.
 NSaved= 1 IEnMin= 1 EnMin= -151.323712620166     IErMin= 1 ErrMin= 2.77D-05
 ErrMax= 2.77D-05 EMaxC= 1.00D-01 BMatC= 4.51D-08 BMatP= 4.51D-08
 IDIUse=1 WtCom= 1.00D+00 WtEn= 0.00D+00
 Coeff-Com:  0.100D+01
 Coeff:      0.100D+01
 Gap=     0.433 Goal=   None    Shift=    0.000
 RMSDP=9.56D-07 MaxDP=1.88D-05              OVMax= 8.27D-05

 Cycle   2  Pass 1  IDiag  1:
 RMSU=  6.76D-07    CP:  1.00D+00
 FoFJK:  IHMeth= 1 ICntrl=     0 DoSepK=T KAlg= 1 I1Cent= 0 FoldK=F
 E= -151.323712659946     Delta-E=       -0.000000039781 Rises=F Damp=F
 DIIS: error= 5.07D-06 at cycle   2 NSaved=   2.
 NSaved= 2 IEnMin= 2 EnMin= -151.323712659946     IErMin= 2 ErrMin= 5.07D-06
 ErrMax= 5.07D-06 EMaxC= 1.00D-01 BMatC= 1.71D-09 BMatP= 4.51D-08
 IDIUse=1 WtCom= 1.00D+00 WtEn= 0.00D+00
 Coeff-Com: -0.130D+00 0.113D+01
 Coeff:     -0.130D+00 0.113D+01
 Gap=     0.433 Goal=   None    Shift=    0.000
 RMSDP=3.63D-07 MaxDP=6.62D-06 DE=-3.98D-08 OVMax= 3.62D-05

 Cycle   3  Pass 1  IDiag  1:
 RMSU=  1.48D-07    CP:  1.00D+00  1.31D+00
 FoFJK:  IHMeth= 1 ICntrl=     0 DoSepK=T KAlg= 1 I1Cent= 0 FoldK=F
 E= -151.323712664024     Delta-E=       -0.000000004077 Rises=F Damp=F
 DIIS: error= 1.36D-06 at cycle   3 NSaved=   3.
 NSaved= 3 IEnMin= 3 EnMin= -151.323712664024     IErMin= 3 ErrMin= 1.36D-06
 ErrMax= 1.36D-06 EMaxC= 1.00D-01 BMatC= 1.61D-10 BMatP= 1.71D-09
 IDIUse=1 WtCom= 1.00D+00 WtEn= 0.00D+00
 Coeff-Com: -0.122D-01-0.112D+00 0.112D+01
 Coeff:     -0.122D-01-0.112D+00 0.112D+01
 Gap=     0.433 Goal=   None    Shift=    0.000
 RMSDP=1.36D-07 MaxDP=2.81D-06 DE=-4.08D-09 OVMax= 1.36D-05

 Cycle   4  Pass 1  IDiag  1:
 RMSU=  4.58D-08    CP:  1.00D+00  1.40D+00  1.39D+00
 FoFJK:  IHMeth= 1 ICntrl=     0 DoSepK=T KAlg= 1 I1Cent= 0 FoldK=F
 E= -151.323712664393     Delta-E=       -0.000000000370 Rises=F Damp=F
 DIIS: error= 7.84D-07 at cycle   4 NSaved=   4.
 NSaved= 4 IEnMin= 4 EnMin= -151.323712664393     IErMin= 4 ErrMin= 7.84D-07
 ErrMax= 7.84D-07 EMaxC= 1.00D-01 BMatC= 6.39D-11 BMatP= 1.61D-10
 IDIUse=1 WtCom= 1.00D+00 WtEn= 0.00D+00
 Coeff-Com:  0.106D-01-0.192D+00 0.474D+00 0.707D+00
 Coeff:      0.106D-01-0.192D+00 0.474D+00 0.707D+00
 Gap=     0.433 Goal=   None    Shift=    0.000
 RMSDP=4.78D-08 MaxDP=1.40D-06 DE=-3.70D-10 OVMax= 3.91D-06

 Cycle   5  Pass 1  IDiag  1:
 RMSU=  1.40D-08    CP:  1.00D+00  1.42D+00  1.56D+00  8.12D-01
 FoFJK:  IHMeth= 1 ICntrl=     0 DoSepK=T KAlg= 1 I1Cent= 0 FoldK=F
 E= -151.323712664462     Delta-E=       -0.000000000068 Rises=F Damp=F
 DIIS: error= 1.75D-07 at cycle   5 NSaved=   5.
 NSaved= 5 IEnMin= 5 EnMin= -151.323712664462     IErMin= 5 ErrMin= 1.75D-07
 ErrMax= 1.75D-07 EMaxC= 1.00D-01 BMatC= 1.82D-12 BMatP= 6.39D-11
 IDIUse=1 WtCom= 1.00D+00 WtEn= 0.00D+00
 Coeff-Com:  0.200D-02-0.128D-01-0.326D-01 0.730D-01 0.970D+00
 Coeff:      0.200D-02-0.128D-01-0.326D-01 0.730D-01 0.970D+00
 Gap=     0.433 Goal=   None    Shift=    0.000
 RMSDP=1.23D-08 MaxDP=2.20D-07 DE=-6.82D-11 OVMax= 1.12D-06

 Cycle   6  Pass 1  IDiag  1:
 RMSU=  4.78D-09    CP:  1.00D+00  1.42D+00  1.60D+00  8.81D-01  1.19D+00
 FoFJK:  IHMeth= 1 ICntrl=     0 DoSepK=T KAlg= 1 I1Cent= 0 FoldK=F
 E= -151.323712664464     Delta-E=       -0.000000000002 Rises=F Damp=F
 DIIS: error= 7.75D-08 at cycle   6 NSaved=   6.
 NSaved= 6 IEnMin= 6 EnMin= -151.323712664464     IErMin= 6 ErrMin= 7.75D-08
 ErrMax= 7.75D-08 EMaxC= 1.00D-01 BMatC= 7.44D-13 BMatP= 1.82D-12
 IDIUse=1 WtCom= 1.00D+00 WtEn= 0.00D+00
 Coeff-Com: -0.512D-04 0.120D-01-0.587D-01-0.322D-01 0.454D+00 0.625D+00
 Coeff:     -0.512D-04 0.120D-01-0.587D-01-0.322D-01 0.454D+00 0.625D+00
 Gap=     0.433 Goal=   None    Shift=    0.000
 RMSDP=4.28D-09 MaxDP=1.05D-07 DE=-2.39D-12 OVMax= 2.46D-07

 SCF Done:  E(RLC-B+HF-LYP) =  -151.323712664     A.U. after    6 cycles
             Convg  =    0.4282D-08             -V/T =  2.0058
 KE= 1.504567749389D+02 PE=-4.313896264587D+02 EE= 9.300819310625D+01
 Leave Link  502 at Wed May 13 19:14:12 2020, MaxMem= 1073741824 cpu:      49.2
 (Enter /home/matheus/.gaussian/g09/l122.exe)
 Restoring MOs from calculation   5 to rwf.
 Counterpoise: doing MCBS calculation for fragment   2
 Leave Link  122 at Wed May 13 19:14:12 2020, MaxMem= 1073741824 cpu:       0.0
 (Enter /home/matheus/.gaussian/g09/l301.exe)
 Basis read from rwf:  (5D, 7F)
 No pseudopotential information found on rwf file.
 There are    59 symmetry adapted basis functions of A   symmetry.
 Integral buffers will be    131072 words long.
 Raffenetti 2 integral format.
 Two-electron integral symmetry is turned on.
    59 basis functions,   217 primitive gaussians,    69 cartesian basis functions
    18 alpha electrons       18 beta electrons
       nuclear repulsion energy         0.0000000000 Hartrees.
 IExCor=10402 DFT=T Ex=LC-B+HF Corr=LYP ExCW=0 ScaHFX=  1.000000
 ScaDFX=  1.000000  1.000000  1.000000  1.000000 ScalE2=  1.000000  1.000000
 IRadAn=      5 IRanWt=     -1 IRanGd=            0 ICorTp=0
  HFx wShort=  0.000000 wLong=  0.470000 cFull=  0.000000 cShort=  0.000000 cLong=  1.000000
  DFx wShort=  0.000000 wLong=  0.470000 cFull=  0.000000 cShort=  0.000000 cLong=  1.000000
 NAtoms=    5 NActive=    1 NUniq=    1 SFac= 1.00D+00 NAtFMM=   60 NAOKFM=F Big=F
 No density basis found on file   718.
 Leave Link  301 at Wed May 13 19:14:12 2020, MaxMem= 1073741824 cpu:       0.2
 (Enter /home/matheus/.gaussian/g09/l302.exe)
 NPDir=0 NMtPBC=     1 NCelOv=     1 NCel=       1 NClECP=     1 NCelD=      1
         NCelK=      1 NCelE2=     1 NClLst=     1 CellRange=     0.0.
 One-electron integrals computed using PRISM.
 NBasis=    59 RedAO= T  NBF=    59
 NBsUse=    59 1.00D-06 NBFU=    59
 Precomputing XC quadrature grid using
 IXCGrd= 2 IRadAn=           5 IRanWt=          -1 IRanGd=           0 AccXCQ= 0.00D+00.
 NRdTot=      81 NPtTot=       30352 NUsed=       30981 NTot=       31013
 NSgBfM=    69    69    69    69    69 NAtAll=     1     1.
 Leave Link  302 at Wed May 13 19:14:12 2020, MaxMem= 1073741824 cpu:       0.7
 (Enter /home/matheus/.gaussian/g09/l303.exe)
 DipDrv:  MaxL=1.
 Leave Link  303 at Wed May 13 19:14:12 2020, MaxMem= 1073741824 cpu:       0.1
 (Enter /home/matheus/.gaussian/g09/l401.exe)
 Initial guess read from the read-write file.
 Guess basis will be translated and rotated to current coordinates.
 Initial guess orbital symmetries:
       Occupied  (A) (A) (A) (A) (A) (A) (A) (A) (A) (A) (A) (A)
                 (A) (A) (A) (A) (A) (A)
       Virtual   (A) (A) (A) (A) (A) (A) (A) (A) (A) (A) (A) (A)
                 (A) (A) (A) (A) (A) (A) (A) (A) (A) (A) (A) (A)
                 (A) (A) (A) (A) (A) (A) (A) (A) (A) (A) (A) (A)
                 (A) (A) (A) (A) (A)
 The electronic state of the initial guess is 1-A.
 Generating alternative initial guess.
 Harris functional with IExCor=10402 diagonalized for initial guess.
 ExpMin= 4.00D-02 ExpMax= 1.17D+07 ExpMxC= 1.33D+04 IAcc=3 IRadAn=         5 AccDes= 0.00D+00
 HarFok:  IExCor=10402 AccDes= 0.00D+00 IRadAn=         5 IDoV= 1
 ScaDFX=  1.000000  1.000000  1.000000  1.000000
 FoFCou: FMM=F IPFlag=           0 FMFlag=      100000 FMFlg1=           0
         NFxFlg=           0 DoJE=T BraDBF=F KetDBF=T FulRan=T
         Omega=  0.000000  0.000000  1.000000  0.000000  0.000000 ICntrl=     500 IOpCl=  0
         NMat0=    1 NMatS0=    1 NMatT0=    0 NMatD0=    1 NMtDS0=    0 NMtDT0=    0
         I1Cent=           4 NGrid=           0.
 Petite list used in FoFCou.
 Harris En= -2744.51485235229    
 Leave Link  401 at Wed May 13 19:14:12 2020, MaxMem= 1073741824 cpu:       1.1
 (Enter /home/matheus/.gaussian/g09/l502.exe)
 Closed shell SCF:
 Requested convergence on RMS density matrix=1.00D-08 within 128 cycles.
 Requested convergence on MAX density matrix=1.00D-06.
 Requested convergence on             energy=1.00D-06.
 No special actions if energy rises.
 Using DIIS extrapolation, IDIIS=  1040.
 Integral symmetry usage will be decided dynamically.
        30923 words used for storage of precomputed grid.
 IEnd=       64406 IEndB=       64406 NGot=  1073741824 MDV=  1073698889
 LenX=  1073698889 LenY=  1073693687
 Fock matrices will be formed incrementally for  20 cycles.

 Cycle   1  Pass 1  IDiag  1:
 FoFJK:  IHMeth= 1 ICntrl=     0 DoSepK=T KAlg= 1 I1Cent= 0 FoldK=F
 FoFCou: FMM=F IPFlag=           0 FMFlag=      100000 FMFlg1=           0
         NFxFlg=           0 DoJE=T BraDBF=F KetDBF=F FulRan=T
         Omega=  0.000000  0.000000  1.000000  0.000000  0.000000 ICntrl=     500 IOpCl=  0
         NMat0=    1 NMatS0=    1 NMatT0=    0 NMatD0=    1 NMtDS0=    0 NMtDT0=    0
         I1Cent=           0 NGrid=           0.
 Symmetry not used in FoFCou.
 E= -2753.41754223393    
 DIIS: error= 1.46D-13 at cycle   1 NSaved=   1.
 NSaved= 1 IEnMin= 1 EnMin= -2753.41754223393     IErMin= 1 ErrMin= 1.46D-13
 ErrMax= 1.46D-13 EMaxC= 1.00D-01 BMatC= 3.51D-25 BMatP= 3.51D-25
 IDIUse=1 WtCom= 1.00D+00 WtEn= 0.00D+00
 Coeff-Com:  0.100D+01
 Coeff:      0.100D+01
 Gap=     0.595 Goal=   None    Shift=    0.000
 DSYEVD returned Info=          89 IAlg= 4 N=    59 NDim=    59 NE2=    18198197 trying DSYEV.
 RMSDP=1.35D-14 MaxDP=3.37D-13              OVMax= 5.09D-14

 SCF Done:  E(RLC-B+HF-LYP) =  -2753.41754223     A.U. after    1 cycles
             Convg  =    0.1346D-13             -V/T =  2.0015
 KE= 2.749372504928D+03 PE=-6.578588569976D+03 EE= 1.075798522814D+03
 Leave Link  502 at Wed May 13 19:14:14 2020, MaxMem= 1073741824 cpu:      11.9
 (Enter /home/matheus/.gaussian/g09/l122.exe)
 Restoring MOs from calculation   1 to rwf.
 Counterpoise: corrected energy =   -2904.741333296834
 Counterpoise: BSSE energy =       0.000025995757
 Leave Link  122 at Wed May 13 19:14:14 2020, MaxMem= 1073741824 cpu:       0.0
 (Enter /home/matheus/.gaussian/g09/l108.exe)
 Scan completed.

 Summary of the potential surface scan:
   N      R1          SCF    
 ----  ---------  -----------
    1     3.0000  -2753.41754
    2     3.1000  -2753.41754
    3     3.2000  -2753.41754
    4     3.3000  -2753.41754
    5     3.4000  -2753.41754
    6     3.5000  -2753.41754
    7     3.6000  -2753.41754
    8     3.7000  -2753.41754
    9     3.8000  -2753.41754
   10     3.9000  -2753.41754
   11     4.0000  -2753.41754
   12     4.1000  -2753.41754
   13     4.2000  -2753.41754
   14     4.3000  -2753.41754
   15     4.4000  -2753.41754
   16     4.5000  -2753.41754
   17     4.6000  -2753.41754
   18     4.7000  -2753.41754
   19     4.8000  -2753.41754
   20     4.9000  -2753.41754
   21     5.0000  -2753.41754
 ----  ---------  -----------
  
 Leave Link  108 at Wed May 13 19:14:14 2020, MaxMem= 1073741824 cpu:       0.0
 (Enter /home/matheus/.gaussian/g09/l9999.exe)
 1\1\GINC-REDGIANT\Scan\RLC-BLYP\Aug-CC-pVTZ\H2Kr1O2\MATHEUS\13-May-202
 0\1\\#p lc-blyp/aug-cc-PVTz int=ultrafine counterpoise=2 Scan\\TCC\\0,
 1\O,0,0.,0.,0.725\O,0,0.,0.,-0.725\H,0,-0.1595341571,-0.9047631646,1.0
 235104166\H,0,0.,0.9187205947,-1.0235104166\Kr,0,0.,R1,0.\\R1=3.,s,20,
 0.1\\Version=EM64L-G09RevC.01\State=1-A\HF=-2753.4175422,-2753.4175422
 ,-2753.4175422,-2753.4175422,-2753.4175422,-2753.4175422,-2753.4175422
 ,-2753.4175422,-2753.4175422,-2753.4175422,-2753.4175422,-2753.4175422
 ,-2753.4175422,-2753.4175422,-2753.4175422,-2753.4175422,-2753.4175422
 ,-2753.4175422,-2753.4175422,-2753.4175422,-2753.4175422\RMSD=1.334e-0
 9,5.265e-11,1.629e-11,9.947e-12,5.941e-12,3.609e-12,2.189e-12,1.324e-1
 2,8.024e-13,4.920e-13,2.964e-13,1.807e-13,1.141e-13,7.221e-14,4.268e-1
 4,2.196e-14,1.668e-14,1.209e-14,6.833e-15,5.843e-15,1.346e-14\PG=C01 [
 X(H2Kr1O2)]\\@


 NOBODY LOSES ALL THE TIME
 I HAD AN UNCLE NAMED
 SOL WHO WAS A BORN FAILURE AND
 NEARLY EVERYBODY SAID HE SHOULD HAVE GONE
 INTO VAUDEVILLE PERHAPS BECAUSE MY UNCLE SOL COULD
 SING MCCANN HE WAS A DIVER ON XMAS EVE LIKE HELL ITSELF WHICH
 MAY OR MAY NOT ACCOUNT FOR THE FACT THAT MY UNCLE
 SOL INDULGED IN THAT POSSIBLY MOST INEXCUSABLE
 OF ALL TO USE A HIGHFALOOTIN PHRASE
 LUXURIES THAT IS OR TO
 WIT FARMING AND BE
 IT NEEDLESSLY
 ADDED
 MY UNCLE SOL'S FARM
 FAILED BECAUSE THE CHICKENS
 ATE THE VEGETABLES SO
 MY UNCLE SOL HAD A
 CHICKEN FARM TILL THE
 SKUNKS ATE THE CHICKENS WHEN 
 MY UNCLE SOL
 HAD A SKUNK FARM BUT
 THE SKUNKS CAUGHT COLD AND
 DIED AND SO
 MY UNCLE SOL IMITATED THE
 SKUNKS IN A SUBTLE MANNER
 OR BY DROWNING HIMSELF IN THE WATERTANK
 BUT SOMEBODY WHO'D GIVEN MY UNCLE SOL A VICTOR
 VICTROLA AND RECORDS WHILE HE LIVED PRESENTED TO
 HIM UPON THE AUSPICIOUS OCCASION OF HIS DECEASE A
 SCRUMPTIOUS NOT TO MENTION SPLENDIFEROUS FUNERAL WITH
 TALL BOYS IN BLACK GLOVES AND FLOWERS AND EVERYTHING AND
 I REMEMBER WE ALL CRIED LIKE THE MISSOURI
 WHEN MY UNCLE SOL'S COFFIN LURCHED BECAUSE
 SOMEBODY PRESSED A BUTTON
 (AND DOWN WENT
 MY UNCLE
 SOL
 AND STARTED A WORM FARM)
           E. E. CUMMINGS
 Job cpu time:  0 days  3 hours  3 minutes 21.1 seconds.
 File lengths (MBytes):  RWF=     33 Int=      0 D2E=      0 Chk=      8 Scr=      1
 Normal termination of Gaussian 09 at Wed May 13 19:14:14 2020.
