 Entering Gaussian System, Link 0=g09
 Input=/home/matheus/.tcc/Inputs/Inputs-lc-blyp-default/H2O2-Kr_28.com
 Output=/home/matheus/.tcc/Logs/Logs-lc-blyp-default/H2O2-Kr_28.log
 Initial command:
 /home/matheus/.gaussian/g09/l1.exe /home/matheus/.gaussian/g09/scratch/Gau-27290.inp -scrdir=/home/matheus/.gaussian/g09/scratch/
 Entering Link 1 = /home/matheus/.gaussian/g09/l1.exe PID=     27294.
  
 Copyright (c) 1988,1990,1992,1993,1995,1998,2003,2009,2011,
            Gaussian, Inc.  All Rights Reserved.
  
 This is part of the Gaussian(R) 09 program.  It is based on
 the Gaussian(R) 03 system (copyright 2003, Gaussian, Inc.),
 the Gaussian(R) 98 system (copyright 1998, Gaussian, Inc.),
 the Gaussian(R) 94 system (copyright 1995, Gaussian, Inc.),
 the Gaussian 92(TM) system (copyright 1992, Gaussian, Inc.),
 the Gaussian 90(TM) system (copyright 1990, Gaussian, Inc.),
 the Gaussian 88(TM) system (copyright 1988, Gaussian, Inc.),
 the Gaussian 86(TM) system (copyright 1986, Carnegie Mellon
 University), and the Gaussian 82(TM) system (copyright 1983,
 Carnegie Mellon University). Gaussian is a federally registered
 trademark of Gaussian, Inc.
  
 This software contains proprietary and confidential information,
 including trade secrets, belonging to Gaussian, Inc.
  
 This software is provided under written license and may be
 used, copied, transmitted, or stored only in accord with that
 written license.
  
 The following legend is applicable only to US Government
 contracts under FAR:
  
                    RESTRICTED RIGHTS LEGEND
  
 Use, reproduction and disclosure by the US Government is
 subject to restrictions as set forth in subparagraphs (a)
 and (c) of the Commercial Computer Software - Restricted
 Rights clause in FAR 52.227-19.
  
 Gaussian, Inc.
 340 Quinnipiac St., Bldg. 40, Wallingford CT 06492
  
  
 ---------------------------------------------------------------
 Warning -- This program may not be used in any manner that
 competes with the business of Gaussian, Inc. or will provide
 assistance to any competitor of Gaussian, Inc.  The licensee
 of this program is prohibited from giving any competitor of
 Gaussian, Inc. access to this program.  By using this program,
 the user acknowledges that Gaussian, Inc. is engaged in the
 business of creating and licensing software in the field of
 computational chemistry and represents and warrants to the
 licensee that it is not a competitor of Gaussian, Inc. and that
 it will not use this program in any manner prohibited above.
 ---------------------------------------------------------------
  

 Cite this work as:
 Gaussian 09, Revision C.01,
 M. J. Frisch, G. W. Trucks, H. B. Schlegel, G. E. Scuseria, 
 M. A. Robb, J. R. Cheeseman, G. Scalmani, V. Barone, B. Mennucci, 
 G. A. Petersson, H. Nakatsuji, M. Caricato, X. Li, H. P. Hratchian, 
 A. F. Izmaylov, J. Bloino, G. Zheng, J. L. Sonnenberg, M. Hada, 
 M. Ehara, K. Toyota, R. Fukuda, J. Hasegawa, M. Ishida, T. Nakajima, 
 Y. Honda, O. Kitao, H. Nakai, T. Vreven, J. A. Montgomery, Jr., 
 J. E. Peralta, F. Ogliaro, M. Bearpark, J. J. Heyd, E. Brothers, 
 K. N. Kudin, V. N. Staroverov, T. Keith, R. Kobayashi, J. Normand, 
 K. Raghavachari, A. Rendell, J. C. Burant, S. S. Iyengar, J. Tomasi, 
 M. Cossi, N. Rega, J. M. Millam, M. Klene, J. E. Knox, J. B. Cross, 
 V. Bakken, C. Adamo, J. Jaramillo, R. Gomperts, R. E. Stratmann, 
 O. Yazyev, A. J. Austin, R. Cammi, C. Pomelli, J. W. Ochterski, 
 R. L. Martin, K. Morokuma, V. G. Zakrzewski, G. A. Voth, 
 P. Salvador, J. J. Dannenberg, S. Dapprich, A. D. Daniels, 
 O. Farkas, J. B. Foresman, J. V. Ortiz, J. Cioslowski, 
 and D. J. Fox, Gaussian, Inc., Wallingford CT, 2010.
 
 ******************************************
 Gaussian 09:  EM64L-G09RevC.01 23-Sep-2011
                13-May-2020 
 ******************************************
 %mem=8GB
 %nproc=8
 Will use up to    8 processors via shared memory.
 --------------------------------------------------------
 #p lc-blyp/aug-cc-PVTz int=ultrafine counterpoise=2 Scan
 --------------------------------------------------------
 1/38=1,60=1,62=2/1,8;
 2/12=2,17=6,18=5,29=3,40=1/2;
 1/38=1,53=5172,62=2/22;
 3/5=16,6=1,7=10,11=2,16=1,25=1,30=1,74=1000402,75=-5/1,2,3;
 4//1;
 5/5=2,38=5/2;
 6/7=2,8=2,9=2,10=2,18=1,28=1/1;
 1/53=4052,62=2,63=1/22;
 3/5=7,6=11,7=10,11=2,16=1,25=1,30=1,74=1000402,75=-5,82=7/1,2,3;
 4//1;
 5/5=2,38=5/2;
 6/7=2,8=2,9=2,10=2,18=1,28=1/1;
 1/53=3042,62=2,63=2/22;
 3/5=7,6=11,7=10,11=2,16=1,25=1,30=1,74=1000402,75=-5,82=7/1,2,3;
 4//1;
 5/5=2,38=5/2;
 6/7=2,8=2,9=2,10=2,18=1,28=1/1;
 1/53=2032,62=2,63=3/22;
 3/5=7,6=11,7=10,11=2,16=1,25=1,30=1,74=1000402,75=-5,82=7/1,2,3;
 4//1;
 5/5=2,38=5/2;
 6/7=2,8=2,9=2,10=2,18=1,28=1/1;
 1/53=1022,62=2,63=4/22;
 3/5=7,6=11,7=10,11=2,16=1,25=1,30=1,74=1000402,75=-5,82=7/1,2,3;
 4//1;
 5/5=2,38=5/2;
 6/7=2,8=2,9=2,10=2,18=1,28=1/1;
 1/53=5014,62=2,63=5/22;
 1/60=1,62=2/8(1);
 99/9=1/99;
 2/29=3/2;
 1/53=5173,62=2/22;
 3/5=7,6=11,7=10,11=2,16=1,25=1,30=1,74=1000402,75=-5,82=7/1,2,3;
 4/5=5,16=3/1;
 5/5=2,38=5/2;
 1/53=4053,62=2,63=1/22;
 3/5=7,6=11,7=10,11=2,16=1,25=1,30=1,74=1000402,75=-5,82=7/1,2,3;
 4/5=5,16=3/1;
 5/5=2,38=5/2;
 1/53=3043,62=2,63=2/22;
 3/5=7,6=11,7=10,11=2,16=1,25=1,30=1,74=1000402,75=-5,82=7/1,2,3;
 4/5=5,16=3/1;
 5/5=2,38=5/2;
 1/53=2033,62=2,63=3/22;
 3/5=7,6=11,7=10,11=2,16=1,25=1,30=1,74=1000402,75=-5,82=7/1,2,3;
 4/5=5,16=3/1;
 5/5=2,38=5/2;
 1/53=1024,62=2,63=4/22;
 3/5=7,6=11,7=10,11=2,16=1,25=1,30=1,74=1000402,75=-5,82=7/1,2,3;
 4/5=5,16=3/1;
 5/5=2,38=5/2;
 1/53=5014,62=2,63=5/22;
 1/60=1,62=2/8(-22);
 99/9=1/99;
 Leave Link    1 at Wed May 13 22:42:13 2020, MaxMem= 1073741824 cpu:       0.2
 (Enter /home/matheus/.gaussian/g09/l101.exe)
 ---
 TCC
 ---
 Charge =  0 Multiplicity = 1 in supermolecule
 Charge =  0 Multiplicity = 1 in fragment  1.
 Charge =  0 Multiplicity = 1 in fragment  2.
 Symbolic Z-Matrix:
 O(Fragment=1)         0.        0.        0.725 
 O(Fragment=1)         0.        0.       -0.725 
 H(Fragment=1)        -0.90476   0.15953   1.02351 
 H(Fragment=1)         0.        0.91872  -1.02351 
 Kr(Fragment=2)        0.       R1        0. 
       Variables:
  R1                    3.     Scan 20    0.1    
 
 NAtoms=      5 NQM=        0 NQMF=       0 NMMI=      5 NMMIF=      0
                NMic=       0 NMicF=      0.
                    Isotopes and Nuclear Properties:
 (Nuclear quadrupole moments (NQMom) in fm**2, nuclear magnetic moments (NMagM)
  in nuclear magnetons)

  Atom         1           2           3           4           5
 IAtWgt=          16          16           1           1          84
 AtmWgt=  15.9949146  15.9949146   1.0078250   1.0078250  83.9115064
 NucSpn=           0           0           1           1           0
 AtZEff=   0.0000000   0.0000000   0.0000000   0.0000000   0.0000000
 NQMom=    0.0000000   0.0000000   0.0000000   0.0000000   0.0000000
 NMagM=    0.0000000   0.0000000   2.7928460   2.7928460   0.0000000
 Leave Link  101 at Wed May 13 22:42:13 2020, MaxMem= 1073741824 cpu:       0.3
 (Enter /home/matheus/.gaussian/g09/l108.exe)
 Scan the potential surface.
 Variable   Value     No. Steps Step-Size
 -------- ----------- --------- ---------
     1       3.000000      20      0.1000
 A total of     21 points will be computed.
 Leave Link  108 at Wed May 13 22:42:13 2020, MaxMem= 1073741824 cpu:       0.0
 (Enter /home/matheus/.gaussian/g09/l202.exe)
 ---------------------------------------------------------------------------------------------------
                            Z-MATRIX (ANGSTROMS AND DEGREES)
   CD    Cent   Atom    N1       Length/X        N2       Alpha/Y        N3        Beta/Z          J
 ---------------------------------------------------------------------------------------------------
      1      1  O        0   0.000000          0.000000          0.725000
      2      2  O        0   0.000000          0.000000         -0.725000
      3      3  H        0  -0.904763          0.159534          1.023510
      4      4  H        0   0.000000          0.918721         -1.023510
      5      5  Kr       0   0.000000          3.000000          0.000000
 ---------------------------------------------------------------------------------------------------
                         Z-Matrix orientation:                         
 ---------------------------------------------------------------------
 Center     Atomic      Atomic             Coordinates (Angstroms)
 Number     Number       Type             X           Y           Z
 ---------------------------------------------------------------------
      1          8           0        0.000000    0.000000    0.725000
      2          8           0        0.000000    0.000000   -0.725000
      3          1           0       -0.904763    0.159534    1.023510
      4          1           0        0.000000    0.918721   -1.023510
      5         36           0        0.000000    3.000000    0.000000
 ---------------------------------------------------------------------
                    Distance matrix (angstroms):
                    1          2          3          4          5
     1  O    0.000000
     2  O    1.450000   0.000000
     3  H    0.966000   1.975180   0.000000
     4  H    1.975180   0.966000   2.363314   0.000000
     5  Kr   3.086361   3.086361   3.151891   2.319331   0.000000
 Stoichiometry    H2KrO2
 Framework group  C1[X(H2KrO2)]
 Deg. of freedom     9
 Full point group                 C1      NOp   1
 Largest Abelian subgroup         C1      NOp   1
 Largest concise Abelian subgroup C1      NOp   1
                         Standard orientation:                         
 ---------------------------------------------------------------------
 Center     Atomic      Atomic             Coordinates (Angstroms)
 Number     Number       Type             X           Y           Z
 ---------------------------------------------------------------------
      1          8           0       -2.025459   -0.700316   -0.115097
      2          8           0       -2.013251    0.743386    0.019343
      3          1           0       -1.883208   -1.082864    0.760447
      4          1           0       -1.092171    1.031511    0.061209
      5         36           0        0.980140   -0.008145   -0.001545
 ---------------------------------------------------------------------
 Rotational constants (GHZ):     25.6204873      2.3529019      2.1689661
 Leave Link  202 at Wed May 13 22:42:13 2020, MaxMem= 1073741824 cpu:       0.0
 (Enter /home/matheus/.gaussian/g09/l122.exe)
 Leave Link  122 at Wed May 13 22:42:13 2020, MaxMem= 1073741824 cpu:       0.0
 (Enter /home/matheus/.gaussian/g09/l301.exe)
 Standard basis: Aug-CC-pVTZ (5D, 7F)
 Ernie: Thresh=  0.10000D-02 Tol=  0.10000D-05 Strict=F.
 Ernie:  38 primitive shells out of 205 were deleted.
 There are   197 symmetry adapted basis functions of A   symmetry.
 Integral buffers will be    131072 words long.
 Raffenetti 2 integral format.
 Two-electron integral symmetry is turned on.
   197 basis functions,   415 primitive gaussians,   229 cartesian basis functions
    27 alpha electrons       27 beta electrons
       nuclear repulsion energy       149.6490473971 Hartrees.
 IExCor=10402 DFT=T Ex=LC-B+HF Corr=LYP ExCW=0 ScaHFX=  1.000000
 ScaDFX=  1.000000  1.000000  1.000000  1.000000 ScalE2=  1.000000  1.000000
 IRadAn=      5 IRanWt=     -1 IRanGd=            0 ICorTp=0
  HFx wShort=  0.000000 wLong=  0.470000 cFull=  0.000000 cShort=  0.000000 cLong=  1.000000
  DFx wShort=  0.000000 wLong=  0.470000 cFull=  0.000000 cShort=  0.000000 cLong=  1.000000
 NAtoms=    5 NActive=    5 NUniq=    5 SFac= 1.00D+00 NAtFMM=   60 NAOKFM=F Big=F
 Leave Link  301 at Wed May 13 22:42:13 2020, MaxMem= 1073741824 cpu:       0.2
 (Enter /home/matheus/.gaussian/g09/l302.exe)
 NPDir=0 NMtPBC=     1 NCelOv=     1 NCel=       1 NClECP=     1 NCelD=      1
         NCelK=      1 NCelE2=     1 NClLst=     1 CellRange=     0.0.
 One-electron integrals computed using PRISM.
 NBasis=   197 RedAO= T  NBF=   197
 NBsUse=   197 1.00D-06 NBFU=   197
 Precomputing XC quadrature grid using
 IXCGrd= 2 IRadAn=           5 IRanWt=          -1 IRanGd=           0 AccXCQ= 0.00D+00.
 NRdTot=     427 NPtTot=      123512 NUsed=      126579 NTot=      126611
 NSgBfM=   229   229   229   229   229 NAtAll=     5     5.
 Leave Link  302 at Wed May 13 22:42:13 2020, MaxMem= 1073741824 cpu:       0.9
 (Enter /home/matheus/.gaussian/g09/l303.exe)
 DipDrv:  MaxL=1.
 Leave Link  303 at Wed May 13 22:42:13 2020, MaxMem= 1073741824 cpu:       0.2
 (Enter /home/matheus/.gaussian/g09/l401.exe)
 Harris functional with IExCor=10402 diagonalized for initial guess.
 ExpMin= 2.53D-02 ExpMax= 1.17D+07 ExpMxC= 1.33D+04 IAcc=3 IRadAn=         5 AccDes= 0.00D+00
 HarFok:  IExCor=10402 AccDes= 0.00D+00 IRadAn=         5 IDoV= 1
 ScaDFX=  1.000000  1.000000  1.000000  1.000000
 FoFCou: FMM=F IPFlag=           0 FMFlag=      100000 FMFlg1=           0
         NFxFlg=           0 DoJE=T BraDBF=F KetDBF=T FulRan=T
         Omega=  0.000000  0.000000  1.000000  0.000000  0.000000 ICntrl=     500 IOpCl=  0
         NMat0=    1 NMatS0=    1 NMatT0=    0 NMatD0=    1 NMtDS0=    0 NMtDT0=    0
         I1Cent=           4 NGrid=           0.
 Petite list used in FoFCou.
 Harris En= -2891.67166248070    
 Initial guess orbital symmetries:
       Occupied  (A) (A) (A) (A) (A) (A) (A) (A) (A) (A) (A) (A)
                 (A) (A) (A) (A) (A) (A) (A) (A) (A) (A) (A) (A)
                 (A) (A) (A)
       Virtual   (A) (A) (A) (A) (A) (A) (A) (A) (A) (A) (A) (A)
                 (A) (A) (A) (A) (A) (A) (A) (A) (A) (A) (A) (A)
                 (A) (A) (A) (A) (A) (A) (A) (A) (A) (A) (A) (A)
                 (A) (A) (A) (A) (A) (A) (A) (A) (A) (A) (A) (A)
                 (A) (A) (A) (A) (A) (A) (A) (A) (A) (A) (A) (A)
                 (A) (A) (A) (A) (A) (A) (A) (A) (A) (A) (A) (A)
                 (A) (A) (A) (A) (A) (A) (A) (A) (A) (A) (A) (A)
                 (A) (A) (A) (A) (A) (A) (A) (A) (A) (A) (A) (A)
                 (A) (A) (A) (A) (A) (A) (A) (A) (A) (A) (A) (A)
                 (A) (A) (A) (A) (A) (A) (A) (A) (A) (A) (A) (A)
                 (A) (A) (A) (A) (A) (A) (A) (A) (A) (A) (A) (A)
                 (A) (A) (A) (A) (A) (A) (A) (A) (A) (A) (A) (A)
                 (A) (A) (A) (A) (A) (A) (A) (A) (A) (A) (A) (A)
                 (A) (A) (A) (A) (A) (A) (A) (A) (A) (A) (A) (A)
                 (A) (A)
 The electronic state of the initial guess is 1-A.
 Leave Link  401 at Wed May 13 22:42:14 2020, MaxMem= 1073741824 cpu:       4.0
 (Enter /home/matheus/.gaussian/g09/l502.exe)
 Closed shell SCF:
 Requested convergence on RMS density matrix=1.00D-08 within 128 cycles.
 Requested convergence on MAX density matrix=1.00D-06.
 Requested convergence on             energy=1.00D-06.
 No special actions if energy rises.
 Using DIIS extrapolation, IDIIS=  1040.
 Integral symmetry usage will be decided dynamically.
       126521 words used for storage of precomputed grid.
 IEnd=      305468 IEndB=      305468 NGot=  1073741824 MDV=  1073505667
 LenX=  1073505667 LenY=  1073452785
 Fock matrices will be formed incrementally for  20 cycles.

 Cycle   1  Pass 1  IDiag  1:
 FoFJK:  IHMeth= 1 ICntrl=     0 DoSepK=T KAlg= 1 I1Cent= 0 FoldK=F
 FoFCou: FMM=F IPFlag=           0 FMFlag=      100000 FMFlg1=           0
         NFxFlg=           0 DoJE=T BraDBF=F KetDBF=F FulRan=T
         Omega=  0.000000  0.000000  1.000000  0.000000  0.000000 ICntrl=     500 IOpCl=  0
         NMat0=    1 NMatS0=    1 NMatT0=    0 NMatD0=    1 NMtDS0=    0 NMtDT0=    0
         I1Cent=           0 NGrid=           0.
 Symmetry not used in FoFCou.
 E= -2904.63386545974    
 DIIS: error= 2.31D-02 at cycle   1 NSaved=   1.
 NSaved= 1 IEnMin= 1 EnMin= -2904.63386545974     IErMin= 1 ErrMin= 2.31D-02
 ErrMax= 2.31D-02 EMaxC= 1.00D-01 BMatC= 2.85D-01 BMatP= 2.85D-01
 IDIUse=3 WtCom= 7.69D-01 WtEn= 2.31D-01
 Coeff-Com:  0.100D+01
 Coeff-En:   0.100D+01
 Coeff:      0.100D+01
 Gap=     0.497 Goal=   None    Shift=    0.000
 GapD=    0.497 DampG=2.000 DampE=0.500 DampFc=1.0000 IDamp=-1.
 RMSDP=2.64D-03 MaxDP=1.52D-01              OVMax= 1.06D-01

 Cycle   2  Pass 1  IDiag  1:
 RMSU=  1.82D-03    CP:  1.02D+00
 FoFJK:  IHMeth= 1 ICntrl=     0 DoSepK=T KAlg= 1 I1Cent= 0 FoldK=F
 E= -2904.71027539711     Delta-E=       -0.076409937378 Rises=F Damp=F
 DIIS: error= 1.20D-02 at cycle   2 NSaved=   2.
 NSaved= 2 IEnMin= 2 EnMin= -2904.71027539711     IErMin= 2 ErrMin= 1.20D-02
 ErrMax= 1.20D-02 EMaxC= 1.00D-01 BMatC= 9.32D-02 BMatP= 2.85D-01
 IDIUse=3 WtCom= 8.80D-01 WtEn= 1.20D-01
 Coeff-Com:  0.359D+00 0.641D+00
 Coeff-En:   0.302D-01 0.970D+00
 Coeff:      0.320D+00 0.680D+00
 Gap=     0.462 Goal=   None    Shift=    0.000
 RMSDP=1.01D-03 MaxDP=6.19D-02 DE=-7.64D-02 OVMax= 3.16D-02

 Cycle   3  Pass 1  IDiag  1:
 RMSU=  3.22D-04    CP:  1.01D+00  6.61D-01
 FoFJK:  IHMeth= 1 ICntrl=     0 DoSepK=T KAlg= 1 I1Cent= 0 FoldK=F
 E= -2904.74118352321     Delta-E=       -0.030908126092 Rises=F Damp=F
 DIIS: error= 1.21D-03 at cycle   3 NSaved=   3.
 NSaved= 3 IEnMin= 3 EnMin= -2904.74118352321     IErMin= 3 ErrMin= 1.21D-03
 ErrMax= 1.21D-03 EMaxC= 1.00D-01 BMatC= 1.08D-03 BMatP= 9.32D-02
 IDIUse=3 WtCom= 9.88D-01 WtEn= 1.21D-02
 Coeff-Com:  0.615D-02 0.967D-01 0.897D+00
 Coeff-En:   0.000D+00 0.000D+00 0.100D+01
 Coeff:      0.608D-02 0.955D-01 0.898D+00
 Gap=     0.466 Goal=   None    Shift=    0.000
 RMSDP=1.47D-04 MaxDP=5.82D-03 DE=-3.09D-02 OVMax= 6.63D-03

 Cycle   4  Pass 1  IDiag  1:
 RMSU=  6.65D-05    CP:  1.02D+00  7.01D-01  1.11D+00
 FoFJK:  IHMeth= 1 ICntrl=     0 DoSepK=T KAlg= 1 I1Cent= 0 FoldK=F
 E= -2904.74165966539     Delta-E=       -0.000476142187 Rises=F Damp=F
 DIIS: error= 4.96D-04 at cycle   4 NSaved=   4.
 NSaved= 4 IEnMin= 4 EnMin= -2904.74165966539     IErMin= 4 ErrMin= 4.96D-04
 ErrMax= 4.96D-04 EMaxC= 1.00D-01 BMatC= 8.22D-05 BMatP= 1.08D-03
 IDIUse=3 WtCom= 9.95D-01 WtEn= 4.96D-03
 Coeff-Com: -0.121D-01 0.999D-02 0.311D+00 0.691D+00
 Coeff-En:   0.000D+00 0.000D+00 0.000D+00 0.100D+01
 Coeff:     -0.120D-01 0.994D-02 0.310D+00 0.692D+00
 Gap=     0.462 Goal=   None    Shift=    0.000
 RMSDP=3.73D-05 MaxDP=1.52D-03 DE=-4.76D-04 OVMax= 1.97D-03

 Cycle   5  Pass 1  IDiag  1:
 RMSU=  2.09D-05    CP:  1.02D+00  7.04D-01  1.15D+00  9.66D-01
 FoFJK:  IHMeth= 1 ICntrl=     0 DoSepK=T KAlg= 1 I1Cent= 0 FoldK=F
 E= -2904.74171404953     Delta-E=       -0.000054384137 Rises=F Damp=F
 DIIS: error= 1.62D-04 at cycle   5 NSaved=   5.
 NSaved= 5 IEnMin= 5 EnMin= -2904.74171404953     IErMin= 5 ErrMin= 1.62D-04
 ErrMax= 1.62D-04 EMaxC= 1.00D-01 BMatC= 8.73D-06 BMatP= 8.22D-05
 IDIUse=3 WtCom= 9.98D-01 WtEn= 1.62D-03
 Coeff-Com: -0.381D-02-0.654D-02-0.611D-02 0.224D+00 0.793D+00
 Coeff-En:   0.000D+00 0.000D+00 0.000D+00 0.000D+00 0.100D+01
 Coeff:     -0.381D-02-0.653D-02-0.610D-02 0.223D+00 0.793D+00
 Gap=     0.463 Goal=   None    Shift=    0.000
 RMSDP=1.52D-05 MaxDP=5.46D-04 DE=-5.44D-05 OVMax= 9.35D-04

 Cycle   6  Pass 1  IDiag  1:
 RMSU=  6.22D-06    CP:  1.02D+00  7.05D-01  1.17D+00  1.06D+00  1.01D+00
 FoFJK:  IHMeth= 1 ICntrl=     0 DoSepK=T KAlg= 1 I1Cent= 0 FoldK=F
 E= -2904.74172123522     Delta-E=       -0.000007185688 Rises=F Damp=F
 DIIS: error= 6.25D-05 at cycle   6 NSaved=   6.
 NSaved= 6 IEnMin= 6 EnMin= -2904.74172123522     IErMin= 6 ErrMin= 6.25D-05
 ErrMax= 6.25D-05 EMaxC= 1.00D-01 BMatC= 1.52D-06 BMatP= 8.73D-06
 IDIUse=1 WtCom= 1.00D+00 WtEn= 0.00D+00
 Coeff-Com: -0.581D-03-0.371D-02-0.265D-01 0.321D-01 0.331D+00 0.668D+00
 Coeff:     -0.581D-03-0.371D-02-0.265D-01 0.321D-01 0.331D+00 0.668D+00
 Gap=     0.463 Goal=   None    Shift=    0.000
 RMSDP=5.33D-06 MaxDP=1.89D-04 DE=-7.19D-06 OVMax= 3.35D-04

 Cycle   7  Pass 1  IDiag  1:
 RMSU=  2.40D-06    CP:  1.02D+00  7.05D-01  1.18D+00  1.08D+00  1.09D+00
                    CP:  9.58D-01
 FoFJK:  IHMeth= 1 ICntrl=     0 DoSepK=T KAlg= 1 I1Cent= 0 FoldK=F
 E= -2904.74172231848     Delta-E=       -0.000001083265 Rises=F Damp=F
 DIIS: error= 2.11D-05 at cycle   7 NSaved=   7.
 NSaved= 7 IEnMin= 7 EnMin= -2904.74172231848     IErMin= 7 ErrMin= 2.11D-05
 ErrMax= 2.11D-05 EMaxC= 1.00D-01 BMatC= 1.94D-07 BMatP= 1.52D-06
 IDIUse=1 WtCom= 1.00D+00 WtEn= 0.00D+00
 Coeff-Com:  0.152D-03-0.108D-02-0.104D-01-0.207D-01 0.143D-01 0.277D+00
 Coeff-Com:  0.741D+00
 Coeff:      0.152D-03-0.108D-02-0.104D-01-0.207D-01 0.143D-01 0.277D+00
 Coeff:      0.741D+00
 Gap=     0.463 Goal=   None    Shift=    0.000
 RMSDP=2.02D-06 MaxDP=5.89D-05 DE=-1.08D-06 OVMax= 1.17D-04

 Cycle   8  Pass 1  IDiag  1:
 RMSU=  6.41D-07    CP:  1.02D+00  7.05D-01  1.18D+00  1.09D+00  1.12D+00
                    CP:  1.08D+00  9.47D-01
 FoFJK:  IHMeth= 1 ICntrl=     0 DoSepK=T KAlg= 1 I1Cent= 0 FoldK=F
 E= -2904.74172248675     Delta-E=       -0.000000168264 Rises=F Damp=F
 DIIS: error= 3.64D-06 at cycle   8 NSaved=   8.
 NSaved= 8 IEnMin= 8 EnMin= -2904.74172248675     IErMin= 8 ErrMin= 3.64D-06
 ErrMax= 3.64D-06 EMaxC= 1.00D-01 BMatC= 3.01D-09 BMatP= 1.94D-07
 IDIUse=1 WtCom= 1.00D+00 WtEn= 0.00D+00
 Coeff-Com:  0.168D-04 0.284D-03 0.239D-02 0.176D-03-0.217D-01-0.634D-01
 Coeff-Com: -0.629D-01 0.115D+01
 Coeff:      0.168D-04 0.284D-03 0.239D-02 0.176D-03-0.217D-01-0.634D-01
 Coeff:     -0.629D-01 0.115D+01
 Gap=     0.463 Goal=   None    Shift=    0.000
 RMSDP=5.76D-07 MaxDP=1.43D-05 DE=-1.68D-07 OVMax= 5.40D-05

 Cycle   9  Pass 1  IDiag  1:
 RMSU=  1.63D-07    CP:  1.02D+00  7.05D-01  1.18D+00  1.09D+00  1.13D+00
                    CP:  1.10D+00  1.01D+00  1.35D+00
 FoFJK:  IHMeth= 1 ICntrl=     0 DoSepK=T KAlg= 1 I1Cent= 0 FoldK=F
 E= -2904.74172249591     Delta-E=       -0.000000009164 Rises=F Damp=F
 DIIS: error= 8.90D-07 at cycle   9 NSaved=   9.
 NSaved= 9 IEnMin= 9 EnMin= -2904.74172249591     IErMin= 9 ErrMin= 8.90D-07
 ErrMax= 8.90D-07 EMaxC= 1.00D-01 BMatC= 2.21D-10 BMatP= 3.01D-09
 IDIUse=1 WtCom= 1.00D+00 WtEn= 0.00D+00
 Coeff-Com: -0.292D-05 0.118D-03 0.823D-03 0.139D-02-0.210D-02-0.220D-01
 Coeff-Com: -0.533D-01 0.822D-01 0.993D+00
 Coeff:     -0.292D-05 0.118D-03 0.823D-03 0.139D-02-0.210D-02-0.220D-01
 Coeff:     -0.533D-01 0.822D-01 0.993D+00
 Gap=     0.463 Goal=   None    Shift=    0.000
 RMSDP=1.31D-07 MaxDP=4.04D-06 DE=-9.16D-09 OVMax= 1.15D-05

 Cycle  10  Pass 1  IDiag  1:
 RMSU=  4.77D-08    CP:  1.02D+00  7.05D-01  1.18D+00  1.09D+00  1.13D+00
                    CP:  1.11D+00  1.02D+00  1.43D+00  1.23D+00
 FoFJK:  IHMeth= 1 ICntrl=     0 DoSepK=T KAlg= 1 I1Cent= 0 FoldK=F
 E= -2904.74172249645     Delta-E=       -0.000000000541 Rises=F Damp=F
 DIIS: error= 2.45D-07 at cycle  10 NSaved=  10.
 NSaved=10 IEnMin=10 EnMin= -2904.74172249645     IErMin=10 ErrMin= 2.45D-07
 ErrMax= 2.45D-07 EMaxC= 1.00D-01 BMatC= 1.15D-11 BMatP= 2.21D-10
 IDIUse=1 WtCom= 1.00D+00 WtEn= 0.00D+00
 Coeff-Com: -0.610D-07-0.167D-04-0.152D-03-0.522D-04 0.117D-02 0.408D-02
 Coeff-Com:  0.569D-02-0.710D-01-0.112D-03 0.106D+01
 Coeff:     -0.610D-07-0.167D-04-0.152D-03-0.522D-04 0.117D-02 0.408D-02
 Coeff:      0.569D-02-0.710D-01-0.112D-03 0.106D+01
 Gap=     0.463 Goal=   None    Shift=    0.000
 RMSDP=3.79D-08 MaxDP=9.76D-07 DE=-5.41D-10 OVMax= 3.43D-06

 Cycle  11  Pass 1  IDiag  1:
 RMSU=  1.20D-08    CP:  1.02D+00  7.05D-01  1.18D+00  1.09D+00  1.13D+00
                    CP:  1.10D+00  1.02D+00  1.43D+00  1.33D+00  1.27D+00
 FoFJK:  IHMeth= 1 ICntrl=     0 DoSepK=T KAlg= 1 I1Cent= 0 FoldK=F
 E= -2904.74172249652     Delta-E=       -0.000000000066 Rises=F Damp=F
 DIIS: error= 7.49D-08 at cycle  11 NSaved=  11.
 NSaved=11 IEnMin=11 EnMin= -2904.74172249652     IErMin=11 ErrMin= 7.49D-08
 ErrMax= 7.49D-08 EMaxC= 1.00D-01 BMatC= 1.06D-12 BMatP= 1.15D-11
 IDIUse=1 WtCom= 1.00D+00 WtEn= 0.00D+00
 Coeff-Com: -0.154D-06-0.106D-04-0.634D-04-0.102D-03 0.127D-03 0.162D-02
 Coeff-Com:  0.435D-02-0.611D-02-0.724D-01-0.412D-01 0.111D+01
 Coeff:     -0.154D-06-0.106D-04-0.634D-04-0.102D-03 0.127D-03 0.162D-02
 Coeff:      0.435D-02-0.611D-02-0.724D-01-0.412D-01 0.111D+01
 Gap=     0.463 Goal=   None    Shift=    0.000
 RMSDP=1.19D-08 MaxDP=2.71D-07 DE=-6.64D-11 OVMax= 1.41D-06

 Cycle  12  Pass 1  IDiag  1:
 RMSU=  3.51D-09    CP:  1.02D+00  7.05D-01  1.18D+00  1.09D+00  1.12D+00
                    CP:  1.10D+00  1.02D+00  1.43D+00  1.34D+00  1.37D+00
                    CP:  1.35D+00
 FoFJK:  IHMeth= 1 ICntrl=     0 DoSepK=T KAlg= 1 I1Cent= 0 FoldK=F
 E= -2904.74172249652     Delta-E=       -0.000000000002 Rises=F Damp=F
 DIIS: error= 1.99D-08 at cycle  12 NSaved=  12.
 NSaved=12 IEnMin=12 EnMin= -2904.74172249652     IErMin=12 ErrMin= 1.99D-08
 ErrMax= 1.99D-08 EMaxC= 1.00D-01 BMatC= 1.04D-13 BMatP= 1.06D-12
 IDIUse=1 WtCom= 1.00D+00 WtEn= 0.00D+00
 Coeff-Com:  0.121D-06 0.300D-05 0.208D-04 0.123D-04-0.116D-03-0.552D-03
 Coeff-Com: -0.930D-03 0.695D-02 0.907D-02-0.928D-01-0.111D+00 0.119D+01
 Coeff:      0.121D-06 0.300D-05 0.208D-04 0.123D-04-0.116D-03-0.552D-03
 Coeff:     -0.930D-03 0.695D-02 0.907D-02-0.928D-01-0.111D+00 0.119D+01
 Gap=     0.463 Goal=   None    Shift=    0.000
 RMSDP=3.95D-09 MaxDP=8.26D-08 DE=-2.27D-12 OVMax= 5.67D-07

 SCF Done:  E(RLC-B+HF-LYP) =  -2904.74172250     A.U. after   12 cycles
             Convg  =    0.3948D-08             -V/T =  2.0017
 KE= 2.899839576238D+03 PE=-7.235383873590D+03 EE= 1.281153527458D+03
 Leave Link  502 at Wed May 13 22:42:54 2020, MaxMem= 1073741824 cpu:     322.9
 (Enter /home/matheus/.gaussian/g09/l601.exe)
 Copying SCF densities to generalized density rwf, IOpCl= 0 IROHF=0.

 **********************************************************************

            Population analysis using the SCF density.

 **********************************************************************

 Orbital symmetries:
       Occupied  (A) (A) (A) (A) (A) (A) (A) (A) (A) (A) (A) (A)
                 (A) (A) (A) (A) (A) (A) (A) (A) (A) (A) (A) (A)
                 (A) (A) (A)
       Virtual   (A) (A) (A) (A) (A) (A) (A) (A) (A) (A) (A) (A)
                 (A) (A) (A) (A) (A) (A) (A) (A) (A) (A) (A) (A)
                 (A) (A) (A) (A) (A) (A) (A) (A) (A) (A) (A) (A)
                 (A) (A) (A) (A) (A) (A) (A) (A) (A) (A) (A) (A)
                 (A) (A) (A) (A) (A) (A) (A) (A) (A) (A) (A) (A)
                 (A) (A) (A) (A) (A) (A) (A) (A) (A) (A) (A) (A)
                 (A) (A) (A) (A) (A) (A) (A) (A) (A) (A) (A) (A)
                 (A) (A) (A) (A) (A) (A) (A) (A) (A) (A) (A) (A)
                 (A) (A) (A) (A) (A) (A) (A) (A) (A) (A) (A) (A)
                 (A) (A) (A) (A) (A) (A) (A) (A) (A) (A) (A) (A)
                 (A) (A) (A) (A) (A) (A) (A) (A) (A) (A) (A) (A)
                 (A) (A) (A) (A) (A) (A) (A) (A) (A) (A) (A) (A)
                 (A) (A) (A) (A) (A) (A) (A) (A) (A) (A) (A) (A)
                 (A) (A) (A) (A) (A) (A) (A) (A) (A) (A) (A) (A)
                 (A) (A)
 The electronic state is 1-A.
 Alpha  occ. eigenvalues -- -511.26205 -66.73206 -60.41738 -60.41724 -60.41713
 Alpha  occ. eigenvalues --  -19.07402 -19.07073  -9.62362  -7.37853  -7.37812
 Alpha  occ. eigenvalues --   -7.37779  -3.34186  -3.34179  -3.34156  -3.34125
 Alpha  occ. eigenvalues --   -3.34121  -1.28473  -1.08192  -1.06298  -0.71343
 Alpha  occ. eigenvalues --   -0.62322  -0.57662  -0.53511  -0.53107  -0.52224
 Alpha  occ. eigenvalues --   -0.45959  -0.43909
 Alpha virt. eigenvalues --    0.02359   0.03553   0.07435   0.08603   0.09884
 Alpha virt. eigenvalues --    0.10606   0.12390   0.13160   0.16204   0.16737
 Alpha virt. eigenvalues --    0.17251   0.18967   0.19158   0.21195   0.22640
 Alpha virt. eigenvalues --    0.23891   0.25056   0.27771   0.30375   0.31445
 Alpha virt. eigenvalues --    0.32741   0.34503   0.36342   0.38063   0.38560
 Alpha virt. eigenvalues --    0.39889   0.42354   0.46671   0.52305   0.54092
 Alpha virt. eigenvalues --    0.55201   0.60062   0.60920   0.63753   0.67918
 Alpha virt. eigenvalues --    0.71313   0.71547   0.73164   0.75656   0.76001
 Alpha virt. eigenvalues --    0.76497   0.77577   0.79695   0.80874   0.82847
 Alpha virt. eigenvalues --    0.83830   0.86161   0.88144   0.89618   0.90975
 Alpha virt. eigenvalues --    0.91682   0.92582   0.94522   0.95093   0.98042
 Alpha virt. eigenvalues --    0.99301   1.03445   1.06691   1.08063   1.09024
 Alpha virt. eigenvalues --    1.10164   1.15277   1.17625   1.22786   1.24700
 Alpha virt. eigenvalues --    1.25554   1.29773   1.36221   1.37669   1.40866
 Alpha virt. eigenvalues --    1.43638   1.48520   1.50940   1.55096   1.59516
 Alpha virt. eigenvalues --    1.69533   1.71114   1.83603   1.93265   1.96108
 Alpha virt. eigenvalues --    2.00887   2.04158   2.06245   2.10807   2.14608
 Alpha virt. eigenvalues --    2.17116   2.19610   2.21591   2.24758   2.26396
 Alpha virt. eigenvalues --    2.28324   2.31014   2.31529   2.32347   2.33934
 Alpha virt. eigenvalues --    2.38060   2.40005   2.46537   2.48886   2.50111
 Alpha virt. eigenvalues --    2.51144   2.51590   2.53480   2.57938   2.59512
 Alpha virt. eigenvalues --    2.61775   2.64561   2.67302   2.71050   2.73281
 Alpha virt. eigenvalues --    2.74343   2.76535   2.77719   2.85153   2.89714
 Alpha virt. eigenvalues --    2.96801   3.05070   3.11423   3.14260   3.63566
 Alpha virt. eigenvalues --    3.68000   3.93366   3.94810   4.00154   4.08681
 Alpha virt. eigenvalues --    4.14813   4.18151   4.24007   4.26012   4.30774
 Alpha virt. eigenvalues --    4.36195   4.50030   4.50743   4.57250   4.72352
 Alpha virt. eigenvalues --    4.94725   4.98312   5.01106   5.16840   5.17392
 Alpha virt. eigenvalues --    5.21517   5.43765   5.86109   6.03813   6.15843
 Alpha virt. eigenvalues --    6.23672   6.27926   6.32895   6.45867   6.50916
 Alpha virt. eigenvalues --    6.62562   6.77633   6.78430   6.82941   6.86144
 Alpha virt. eigenvalues --    6.90365   6.91526   6.93889   6.99262   7.02103
 Alpha virt. eigenvalues --    7.08447   7.13632   7.24540   7.46932   7.57991
 Alpha virt. eigenvalues --    7.79225   8.09888   8.13014  14.03509  14.59016
          Condensed to atoms (all electrons):
              1          2          3          4          5
     1  O    8.245112  -0.181312   0.173056   0.007193  -0.028431
     2  O   -0.181312   8.193993   0.023255   0.201037  -0.016586
     3  H    0.173056   0.023255   0.592529  -0.002988  -0.001881
     4  H    0.007193   0.201037  -0.002988   0.593444  -0.002953
     5  Kr  -0.028431  -0.016586  -0.001881  -0.002953  36.034141
 Mulliken atomic charges:
              1
     1  O   -0.215619
     2  O   -0.220386
     3  H    0.216028
     4  H    0.204267
     5  Kr   0.015710
 Sum of Mulliken atomic charges =   0.00000
 Mulliken charges with hydrogens summed into heavy atoms:
              1
     1  O    0.000409
     2  O   -0.016119
     5  Kr   0.015710
 Sum of Mulliken charges with hydrogens summed into heavy atoms =   0.00000
          Condensed to fragments (all electrons):
     1      -0.015710
     2       0.015710
 Electronic spatial extent (au):  <R**2>=            483.4524
 Charge=              0.0000 electrons
 Dipole moment (field-independent basis, Debye):
    X=              2.1370    Y=             -0.3812    Z=              1.4987  Tot=              2.6378
 Quadrupole moment (field-independent basis, Debye-Ang):
   XX=            -36.3201   YY=            -28.2077   ZZ=            -29.3121
   XY=              1.9680   XZ=             -2.9752   YZ=             -1.8864
 Traceless Quadrupole moment (field-independent basis, Debye-Ang):
   XX=             -5.0401   YY=              3.0723   ZZ=              1.9679
   XY=              1.9680   XZ=             -2.9752   YZ=             -1.8864
 Octapole moment (field-independent basis, Debye-Ang**2):
  XXX=             39.2306  YYY=             -1.0720  ZZZ=              1.1732  XYY=              5.9719
  XXY=             -5.8285  XXZ=              5.1558  XZZ=              5.9188  YZZ=             -1.8736
  YYZ=              2.3540  XYZ=              3.6786
 Hexadecapole moment (field-independent basis, Debye-Ang**3):
 XXXX=           -465.8099 YYYY=            -64.7140 ZZZZ=            -30.7162 XXXY=             11.5000
 XXXZ=            -10.3569 YYYX=              3.7402 YYYZ=             -2.8084 ZZZX=             -2.7520
 ZZZY=             -2.0558 XXYY=            -83.5544 XXZZ=            -73.4747 YYZZ=            -16.3384
 XXYZ=             -7.3215 YYXZ=             -4.4675 ZZXY=              3.4130
 N-N= 1.496490473971D+02 E-N=-7.235383875656D+03  KE= 2.899839576238D+03
 No NMR shielding tensors so no spin-rotation constants.
 Leave Link  601 at Wed May 13 22:42:54 2020, MaxMem= 1073741824 cpu:       0.8
 (Enter /home/matheus/.gaussian/g09/l122.exe)
 Counterpoise: doing DCBS calculation for fragment   1 NewBq=T
 Leave Link  122 at Wed May 13 22:42:54 2020, MaxMem= 1073741824 cpu:       0.0
 (Enter /home/matheus/.gaussian/g09/l301.exe)
 Basis read from rwf:  (5D, 7F)
 No pseudopotential information found on rwf file.
 There are   197 symmetry adapted basis functions of A   symmetry.
 Integral buffers will be    131072 words long.
 Raffenetti 2 integral format.
 Two-electron integral symmetry is turned on.
   197 basis functions,   415 primitive gaussians,   229 cartesian basis functions
     9 alpha electrons        9 beta electrons
       nuclear repulsion energy        36.6321546607 Hartrees.
 IExCor=10402 DFT=T Ex=LC-B+HF Corr=LYP ExCW=0 ScaHFX=  1.000000
 ScaDFX=  1.000000  1.000000  1.000000  1.000000 ScalE2=  1.000000  1.000000
 IRadAn=      5 IRanWt=     -1 IRanGd=            0 ICorTp=0
  HFx wShort=  0.000000 wLong=  0.470000 cFull=  0.000000 cShort=  0.000000 cLong=  1.000000
  DFx wShort=  0.000000 wLong=  0.470000 cFull=  0.000000 cShort=  0.000000 cLong=  1.000000
 NAtoms=    5 NActive=    5 NUniq=    5 SFac= 1.00D+00 NAtFMM=   60 NAOKFM=F Big=F
 No density basis found on file   718.
 Leave Link  301 at Wed May 13 22:42:54 2020, MaxMem= 1073741824 cpu:       0.2
 (Enter /home/matheus/.gaussian/g09/l302.exe)
 NPDir=0 NMtPBC=     1 NCelOv=     1 NCel=       1 NClECP=     1 NCelD=      1
         NCelK=      1 NCelE2=     1 NClLst=     1 CellRange=     0.0.
 One-electron integrals computed using PRISM.
 NBasis=   197 RedAO= T  NBF=   197
 NBsUse=   197 1.00D-06 NBFU=   197
 Precomputing XC quadrature grid using
 IXCGrd= 2 IRadAn=           5 IRanWt=          -1 IRanGd=           0 AccXCQ= 0.00D+00.
 NRdTot=     427 NPtTot=      123512 NUsed=      126579 NTot=      126611
 NSgBfM=   229   229   229   229   229 NAtAll=     5     5.
 Leave Link  302 at Wed May 13 22:42:54 2020, MaxMem= 1073741824 cpu:       1.0
 (Enter /home/matheus/.gaussian/g09/l303.exe)
 DipDrv:  MaxL=1.
 Leave Link  303 at Wed May 13 22:42:55 2020, MaxMem= 1073741824 cpu:       0.2
 (Enter /home/matheus/.gaussian/g09/l401.exe)
 Harris functional with IExCor=10402 diagonalized for initial guess.
 ExpMin= 2.53D-02 ExpMax= 1.17D+07 ExpMxC= 1.33D+04 IAcc=3 IRadAn=         5 AccDes= 0.00D+00
 HarFok:  IExCor=10402 AccDes= 0.00D+00 IRadAn=         5 IDoV= 1
 ScaDFX=  1.000000  1.000000  1.000000  1.000000
 FoFCou: FMM=F IPFlag=           0 FMFlag=      100000 FMFlg1=           0
         NFxFlg=           0 DoJE=T BraDBF=F KetDBF=T FulRan=T
         Omega=  0.000000  0.000000  1.000000  0.000000  0.000000 ICntrl=     500 IOpCl=  0
         NMat0=    1 NMatS0=    1 NMatT0=    0 NMatD0=    1 NMtDS0=    0 NMtDT0=    0
         I1Cent=           4 NGrid=           0.
 Petite list used in FoFCou.
 Harris En= -147.165468611568    
 Initial guess orbital symmetries:
       Occupied  (A) (A) (A) (A) (A) (A) (A) (A) (A)
       Virtual   (A) (A) (A) (A) (A) (A) (A) (A) (A) (A) (A) (A)
                 (A) (A) (A) (A) (A) (A) (A) (A) (A) (A) (A) (A)
                 (A) (A) (A) (A) (A) (A) (A) (A) (A) (A) (A) (A)
                 (A) (A) (A) (A) (A) (A) (A) (A) (A) (A) (A) (A)
                 (A) (A) (A) (A) (A) (A) (A) (A) (A) (A) (A) (A)
                 (A) (A) (A) (A) (A) (A) (A) (A) (A) (A) (A) (A)
                 (A) (A) (A) (A) (A) (A) (A) (A) (A) (A) (A) (A)
                 (A) (A) (A) (A) (A) (A) (A) (A) (A) (A) (A) (A)
                 (A) (A) (A) (A) (A) (A) (A) (A) (A) (A) (A) (A)
                 (A) (A) (A) (A) (A) (A) (A) (A) (A) (A) (A) (A)
                 (A) (A) (A) (A) (A) (A) (A) (A) (A) (A) (A) (A)
                 (A) (A) (A) (A) (A) (A) (A) (A) (A) (A) (A) (A)
                 (A) (A) (A) (A) (A) (A) (A) (A) (A) (A) (A) (A)
                 (A) (A) (A) (A) (A) (A) (A) (A) (A) (A) (A) (A)
                 (A) (A) (A) (A) (A) (A) (A) (A) (A) (A) (A) (A)
                 (A) (A) (A) (A) (A) (A) (A) (A)
 The electronic state of the initial guess is 1-A.
 Leave Link  401 at Wed May 13 22:42:55 2020, MaxMem= 1073741824 cpu:       4.5
 (Enter /home/matheus/.gaussian/g09/l502.exe)
 Closed shell SCF:
 Requested convergence on RMS density matrix=1.00D-08 within 128 cycles.
 Requested convergence on MAX density matrix=1.00D-06.
 Requested convergence on             energy=1.00D-06.
 No special actions if energy rises.
 Using DIIS extrapolation, IDIIS=  1040.
 Integral symmetry usage will be decided dynamically.
       126521 words used for storage of precomputed grid.
 IEnd=      305468 IEndB=      305468 NGot=  1073741824 MDV=  1073505667
 LenX=  1073505667 LenY=  1073452785
 Fock matrices will be formed incrementally for  20 cycles.

 Cycle   1  Pass 1  IDiag  1:
 FoFJK:  IHMeth= 1 ICntrl=     0 DoSepK=T KAlg= 1 I1Cent= 0 FoldK=F
 FoFCou: FMM=F IPFlag=           0 FMFlag=      100000 FMFlg1=           0
         NFxFlg=           0 DoJE=T BraDBF=F KetDBF=F FulRan=T
         Omega=  0.000000  0.000000  1.000000  0.000000  0.000000 ICntrl=     500 IOpCl=  0
         NMat0=    1 NMatS0=    1 NMatT0=    0 NMatD0=    1 NMtDS0=    0 NMtDT0=    0
         I1Cent=           0 NGrid=           0.
 Symmetry not used in FoFCou.
 E= -151.303286770430    
 DIIS: error= 8.98D-03 at cycle   1 NSaved=   1.
 NSaved= 1 IEnMin= 1 EnMin= -151.303286770430     IErMin= 1 ErrMin= 8.98D-03
 ErrMax= 8.98D-03 EMaxC= 1.00D-01 BMatC= 2.27D-02 BMatP= 2.27D-02
 IDIUse=3 WtCom= 9.10D-01 WtEn= 8.98D-02
 Coeff-Com:  0.100D+01
 Coeff-En:   0.100D+01
 Coeff:      0.100D+01
 Gap=     0.493 Goal=   None    Shift=    0.000
 GapD=    0.493 DampG=2.000 DampE=1.000 DampFc=2.0000 IDamp=-1.
 RMSDP=8.45D-04 MaxDP=2.76D-02              OVMax= 5.28D-02

 Cycle   2  Pass 1  IDiag  1:
 RMSU=  5.97D-04    CP:  1.00D+00
 FoFJK:  IHMeth= 1 ICntrl=     0 DoSepK=T KAlg= 1 I1Cent= 0 FoldK=F
 E= -151.322816851747     Delta-E=       -0.019530081317 Rises=F Damp=F
 DIIS: error= 5.32D-03 at cycle   2 NSaved=   2.
 NSaved= 2 IEnMin= 2 EnMin= -151.322816851747     IErMin= 2 ErrMin= 5.32D-03
 ErrMax= 5.32D-03 EMaxC= 1.00D-01 BMatC= 4.90D-03 BMatP= 2.27D-02
 IDIUse=3 WtCom= 9.47D-01 WtEn= 5.32D-02
 Coeff-Com:  0.270D+00 0.730D+00
 Coeff-En:   0.000D+00 0.100D+01
 Coeff:      0.256D+00 0.744D+00
 Gap=     0.453 Goal=   None    Shift=    0.000
 RMSDP=2.16D-04 MaxDP=6.44D-03 DE=-1.95D-02 OVMax= 1.47D-02

 Cycle   3  Pass 1  IDiag  1:
 RMSU=  1.52D-04    CP:  1.00D+00  1.00D+00
 FoFJK:  IHMeth= 1 ICntrl=     0 DoSepK=T KAlg= 1 I1Cent= 0 FoldK=F
 E= -151.325573333906     Delta-E=       -0.002756482159 Rises=F Damp=F
 DIIS: error= 1.56D-03 at cycle   3 NSaved=   3.
 NSaved= 3 IEnMin= 3 EnMin= -151.325573333906     IErMin= 3 ErrMin= 1.56D-03
 ErrMax= 1.56D-03 EMaxC= 1.00D-01 BMatC= 5.67D-04 BMatP= 4.90D-03
 IDIUse=3 WtCom= 9.84D-01 WtEn= 1.56D-02
 Coeff-Com:  0.214D-01 0.241D+00 0.738D+00
 Coeff-En:   0.000D+00 0.000D+00 0.100D+01
 Coeff:      0.210D-01 0.237D+00 0.742D+00
 Gap=     0.463 Goal=   None    Shift=    0.000
 RMSDP=1.01D-04 MaxDP=3.40D-03 DE=-2.76D-03 OVMax= 7.03D-03

 Cycle   4  Pass 1  IDiag  1:
 RMSU=  5.10D-05    CP:  1.00D+00  1.09D+00  9.48D-01
 FoFJK:  IHMeth= 1 ICntrl=     0 DoSepK=T KAlg= 1 I1Cent= 0 FoldK=F
 E= -151.326002750673     Delta-E=       -0.000429416766 Rises=F Damp=F
 DIIS: error= 3.18D-04 at cycle   4 NSaved=   4.
 NSaved= 4 IEnMin= 4 EnMin= -151.326002750673     IErMin= 4 ErrMin= 3.18D-04
 ErrMax= 3.18D-04 EMaxC= 1.00D-01 BMatC= 3.62D-05 BMatP= 5.67D-04
 IDIUse=3 WtCom= 9.97D-01 WtEn= 3.18D-03
 Coeff-Com: -0.217D-01-0.341D-01 0.146D+00 0.910D+00
 Coeff-En:   0.000D+00 0.000D+00 0.000D+00 0.100D+01
 Coeff:     -0.216D-01-0.339D-01 0.146D+00 0.910D+00
 Gap=     0.460 Goal=   None    Shift=    0.000
 RMSDP=3.93D-05 MaxDP=1.47D-03 DE=-4.29D-04 OVMax= 1.87D-03

 Cycle   5  Pass 1  IDiag  1:
 RMSU=  9.98D-06    CP:  1.00D+00  1.11D+00  1.08D+00  1.12D+00
 FoFJK:  IHMeth= 1 ICntrl=     0 DoSepK=T KAlg= 1 I1Cent= 0 FoldK=F
 E= -151.326038203900     Delta-E=       -0.000035453227 Rises=F Damp=F
 DIIS: error= 4.32D-05 at cycle   5 NSaved=   5.
 NSaved= 5 IEnMin= 5 EnMin= -151.326038203900     IErMin= 5 ErrMin= 4.32D-05
 ErrMax= 4.32D-05 EMaxC= 1.00D-01 BMatC= 4.23D-07 BMatP= 3.62D-05
 IDIUse=1 WtCom= 1.00D+00 WtEn= 0.00D+00
 Coeff-Com:  0.800D-03-0.402D-02-0.361D-01-0.794D-01 0.112D+01
 Coeff:      0.800D-03-0.402D-02-0.361D-01-0.794D-01 0.112D+01
 Gap=     0.460 Goal=   None    Shift=    0.000
 RMSDP=9.75D-06 MaxDP=3.85D-04 DE=-3.55D-05 OVMax= 6.67D-04

 Cycle   6  Pass 1  IDiag  1:
 RMSU=  2.21D-06    CP:  1.00D+00  1.12D+00  1.10D+00  1.20D+00  1.28D+00
 FoFJK:  IHMeth= 1 ICntrl=     0 DoSepK=T KAlg= 1 I1Cent= 0 FoldK=F
 E= -151.326039642316     Delta-E=       -0.000001438416 Rises=F Damp=F
 DIIS: error= 1.38D-05 at cycle   6 NSaved=   6.
 NSaved= 6 IEnMin= 6 EnMin= -151.326039642316     IErMin= 6 ErrMin= 1.38D-05
 ErrMax= 1.38D-05 EMaxC= 1.00D-01 BMatC= 2.37D-08 BMatP= 4.23D-07
 IDIUse=1 WtCom= 1.00D+00 WtEn= 0.00D+00
 Coeff-Com:  0.282D-03 0.511D-03-0.192D-02-0.128D-01-0.718D-01 0.109D+01
 Coeff:      0.282D-03 0.511D-03-0.192D-02-0.128D-01-0.718D-01 0.109D+01
 Gap=     0.460 Goal=   None    Shift=    0.000
 RMSDP=1.57D-06 MaxDP=4.37D-05 DE=-1.44D-06 OVMax= 1.64D-04

 Cycle   7  Pass 1  IDiag  1:
 RMSU=  3.82D-07    CP:  1.00D+00  1.12D+00  1.10D+00  1.21D+00  1.33D+00
                    CP:  1.30D+00
 FoFJK:  IHMeth= 1 ICntrl=     0 DoSepK=T KAlg= 1 I1Cent= 0 FoldK=F
 E= -151.326039718294     Delta-E=       -0.000000075978 Rises=F Damp=F
 DIIS: error= 3.60D-06 at cycle   7 NSaved=   7.
 NSaved= 7 IEnMin= 7 EnMin= -151.326039718294     IErMin= 7 ErrMin= 3.60D-06
 ErrMax= 3.60D-06 EMaxC= 1.00D-01 BMatC= 2.67D-09 BMatP= 2.37D-08
 IDIUse=1 WtCom= 1.00D+00 WtEn= 0.00D+00
 Coeff-Com:  0.230D-04 0.373D-03 0.202D-02 0.327D-02-0.851D-01 0.926D-01
 Coeff-Com:  0.987D+00
 Coeff:      0.230D-04 0.373D-03 0.202D-02 0.327D-02-0.851D-01 0.926D-01
 Coeff:      0.987D+00
 Gap=     0.460 Goal=   None    Shift=    0.000
 RMSDP=4.05D-07 MaxDP=1.25D-05 DE=-7.60D-08 OVMax= 5.70D-05

 Cycle   8  Pass 1  IDiag  1:
 RMSU=  1.72D-07    CP:  1.00D+00  1.11D+00  1.10D+00  1.21D+00  1.33D+00
                    CP:  1.37D+00  1.28D+00
 FoFJK:  IHMeth= 1 ICntrl=     0 DoSepK=T KAlg= 1 I1Cent= 0 FoldK=F
 E= -151.326039724791     Delta-E=       -0.000000006497 Rises=F Damp=F
 DIIS: error= 1.98D-06 at cycle   8 NSaved=   8.
 NSaved= 8 IEnMin= 8 EnMin= -151.326039724791     IErMin= 8 ErrMin= 1.98D-06
 ErrMax= 1.98D-06 EMaxC= 1.00D-01 BMatC= 1.33D-09 BMatP= 2.67D-09
 IDIUse=1 WtCom= 1.00D+00 WtEn= 0.00D+00
 Coeff-Com: -0.496D-05 0.166D-03 0.112D-02 0.247D-02-0.373D-01-0.335D-01
 Coeff-Com:  0.501D+00 0.566D+00
 Coeff:     -0.496D-05 0.166D-03 0.112D-02 0.247D-02-0.373D-01-0.335D-01
 Coeff:      0.501D+00 0.566D+00
 Gap=     0.460 Goal=   None    Shift=    0.000
 RMSDP=1.14D-07 MaxDP=3.17D-06 DE=-6.50D-09 OVMax= 1.32D-05

 Cycle   9  Pass 1  IDiag  1:
 RMSU=  6.09D-08    CP:  1.00D+00  1.11D+00  1.10D+00  1.21D+00  1.33D+00
                    CP:  1.38D+00  1.40D+00  9.57D-01
 FoFJK:  IHMeth= 1 ICntrl=     0 DoSepK=T KAlg= 1 I1Cent= 0 FoldK=F
 E= -151.326039725900     Delta-E=       -0.000000001109 Rises=F Damp=F
 DIIS: error= 5.01D-07 at cycle   9 NSaved=   9.
 NSaved= 9 IEnMin= 9 EnMin= -151.326039725900     IErMin= 9 ErrMin= 5.01D-07
 ErrMax= 5.01D-07 EMaxC= 1.00D-01 BMatC= 7.78D-11 BMatP= 1.33D-09
 IDIUse=1 WtCom= 1.00D+00 WtEn= 0.00D+00
 Coeff-Com: -0.729D-05-0.331D-04-0.216D-03-0.166D-03 0.111D-01-0.299D-01
 Coeff-Com: -0.117D+00 0.108D+00 0.103D+01
 Coeff:     -0.729D-05-0.331D-04-0.216D-03-0.166D-03 0.111D-01-0.299D-01
 Coeff:     -0.117D+00 0.108D+00 0.103D+01
 Gap=     0.460 Goal=   None    Shift=    0.000
 RMSDP=7.79D-08 MaxDP=2.22D-06 DE=-1.11D-09 OVMax= 1.08D-05

 Cycle  10  Pass 1  IDiag  1:
 RMSU=  1.91D-08    CP:  1.00D+00  1.11D+00  1.10D+00  1.21D+00  1.33D+00
                    CP:  1.38D+00  1.47D+00  1.15D+00  1.19D+00
 FoFJK:  IHMeth= 1 ICntrl=     0 DoSepK=T KAlg= 1 I1Cent= 0 FoldK=F
 E= -151.326039726090     Delta-E=       -0.000000000190 Rises=F Damp=F
 DIIS: error= 1.51D-07 at cycle  10 NSaved=  10.
 NSaved=10 IEnMin=10 EnMin= -151.326039726090     IErMin=10 ErrMin= 1.51D-07
 ErrMax= 1.51D-07 EMaxC= 1.00D-01 BMatC= 2.20D-12 BMatP= 7.78D-11
 IDIUse=1 WtCom= 1.00D+00 WtEn= 0.00D+00
 Coeff-Com:  0.192D-05-0.115D-06-0.303D-04-0.134D-03 0.352D-03 0.618D-02
 Coeff-Com: -0.680D-02-0.493D-01-0.172D+00 0.122D+01
 Coeff:      0.192D-05-0.115D-06-0.303D-04-0.134D-03 0.352D-03 0.618D-02
 Coeff:     -0.680D-02-0.493D-01-0.172D+00 0.122D+01
 Gap=     0.460 Goal=   None    Shift=    0.000
 RMSDP=1.87D-08 MaxDP=4.26D-07 DE=-1.90D-10 OVMax= 2.97D-06

 Cycle  11  Pass 1  IDiag  1:
 RMSU=  3.53D-09    CP:  1.00D+00  1.11D+00  1.10D+00  1.21D+00  1.33D+00
                    CP:  1.38D+00  1.48D+00  1.17D+00  1.28D+00  1.44D+00
 FoFJK:  IHMeth= 1 ICntrl=     0 DoSepK=T KAlg= 1 I1Cent= 0 FoldK=F
 E= -151.326039726100     Delta-E=       -0.000000000010 Rises=F Damp=F
 DIIS: error= 2.87D-08 at cycle  11 NSaved=  11.
 NSaved=11 IEnMin=11 EnMin= -151.326039726100     IErMin=11 ErrMin= 2.87D-08
 ErrMax= 2.87D-08 EMaxC= 1.00D-01 BMatC= 1.37D-13 BMatP= 2.20D-12
 IDIUse=1 WtCom= 1.00D+00 WtEn= 0.00D+00
 Coeff-Com:  0.698D-07 0.257D-05 0.200D-04 0.221D-04-0.828D-03 0.147D-02
 Coeff-Com:  0.902D-02-0.179D-02-0.513D-01-0.134D+00 0.118D+01
 Coeff:      0.698D-07 0.257D-05 0.200D-04 0.221D-04-0.828D-03 0.147D-02
 Coeff:      0.902D-02-0.179D-02-0.513D-01-0.134D+00 0.118D+01
 Gap=     0.460 Goal=   None    Shift=    0.000
 RMSDP=4.45D-09 MaxDP=1.18D-07 DE=-9.55D-12 OVMax= 6.26D-07

 SCF Done:  E(RLC-B+HF-LYP) =  -151.326039726     A.U. after   11 cycles
             Convg  =    0.4446D-08             -V/T =  2.0057
 KE= 1.504705163097D+02 PE=-4.314148161984D+02 EE= 9.298610550188D+01
 Leave Link  502 at Wed May 13 22:43:33 2020, MaxMem= 1073741824 cpu:     302.1
 (Enter /home/matheus/.gaussian/g09/l601.exe)
 Copying SCF densities to generalized density rwf, IOpCl= 0 IROHF=0.

 **********************************************************************

            Population analysis using the SCF density.

 **********************************************************************

 Orbital symmetries:
       Occupied  (A) (A) (A) (A) (A) (A) (A) (A) (A)
       Virtual   (A) (A) (A) (A) (A) (A) (A) (A) (A) (A) (A) (A)
                 (A) (A) (A) (A) (A) (A) (A) (A) (A) (A) (A) (A)
                 (A) (A) (A) (A) (A) (A) (A) (A) (A) (A) (A) (A)
                 (A) (A) (A) (A) (A) (A) (A) (A) (A) (A) (A) (A)
                 (A) (A) (A) (A) (A) (A) (A) (A) (A) (A) (A) (A)
                 (A) (A) (A) (A) (A) (A) (A) (A) (A) (A) (A) (A)
                 (A) (A) (A) (A) (A) (A) (A) (A) (A) (A) (A) (A)
                 (A) (A) (A) (A) (A) (A) (A) (A) (A) (A) (A) (A)
                 (A) (A) (A) (A) (A) (A) (A) (A) (A) (A) (A) (A)
                 (A) (A) (A) (A) (A) (A) (A) (A) (A) (A) (A) (A)
                 (A) (A) (A) (A) (A) (A) (A) (A) (A) (A) (A) (A)
                 (A) (A) (A) (A) (A) (A) (A) (A) (A) (A) (A) (A)
                 (A) (A) (A) (A) (A) (A) (A) (A) (A) (A) (A) (A)
                 (A) (A) (A) (A) (A) (A) (A) (A) (A) (A) (A) (A)
                 (A) (A) (A) (A) (A) (A) (A) (A) (A) (A) (A) (A)
                 (A) (A) (A) (A) (A) (A) (A) (A)
 The electronic state is 1-A.
 Alpha  occ. eigenvalues --  -19.07656 -19.07654  -1.28721  -1.06642  -0.71409
 Alpha  occ. eigenvalues --   -0.61948  -0.57497  -0.46377  -0.44270
 Alpha virt. eigenvalues --    0.01750   0.03170   0.06708   0.07864   0.09721
 Alpha virt. eigenvalues --    0.10034   0.10120   0.13275   0.16128   0.16714
 Alpha virt. eigenvalues --    0.17759   0.18109   0.20040   0.21681   0.24665
 Alpha virt. eigenvalues --    0.25713   0.29163   0.30039   0.31297   0.32562
 Alpha virt. eigenvalues --    0.33200   0.36430   0.36992   0.38824   0.39919
 Alpha virt. eigenvalues --    0.42545   0.43869   0.46111   0.46904   0.48948
 Alpha virt. eigenvalues --    0.52115   0.56914   0.60315   0.61611   0.65277
 Alpha virt. eigenvalues --    0.69778   0.74513   0.76003   0.76329   0.78654
 Alpha virt. eigenvalues --    0.79896   0.80904   0.87014   0.88254   0.90035
 Alpha virt. eigenvalues --    0.90570   0.92412   0.93575   0.94952   0.96165
 Alpha virt. eigenvalues --    0.98596   0.99361   1.03265   1.08626   1.11874
 Alpha virt. eigenvalues --    1.12823   1.15275   1.19479   1.21277   1.22592
 Alpha virt. eigenvalues --    1.25189   1.28728   1.29187   1.30380   1.32779
 Alpha virt. eigenvalues --    1.33211   1.33837   1.37340   1.38179   1.40492
 Alpha virt. eigenvalues --    1.44364   1.47723   1.50222   1.51882   1.54888
 Alpha virt. eigenvalues --    1.59248   1.65329   1.65917   1.72407   1.77439
 Alpha virt. eigenvalues --    1.82651   1.86284   1.95286   1.98621   2.03503
 Alpha virt. eigenvalues --    2.05036   2.08510   2.16350   2.21610   2.23817
 Alpha virt. eigenvalues --    2.29301   2.30568   2.35420   2.37969   2.38882
 Alpha virt. eigenvalues --    2.49703   2.54383   2.57558   2.62383   2.65806
 Alpha virt. eigenvalues --    2.67710   2.74868   2.79553   2.87313   2.95512
 Alpha virt. eigenvalues --    3.03315   3.10536   3.12080   3.25142   3.29362
 Alpha virt. eigenvalues --    3.40268   3.53900   3.61925   3.67650   3.77331
 Alpha virt. eigenvalues --    3.77680   3.81030   3.81245   3.81871   3.82781
 Alpha virt. eigenvalues --    3.86645   3.88729   3.93285   3.94904   3.95739
 Alpha virt. eigenvalues --    3.97864   4.01485   4.05585   4.11076   4.16279
 Alpha virt. eigenvalues --    4.19160   4.24091   4.26714   4.33382   4.36890
 Alpha virt. eigenvalues --    4.39648   4.50494   4.57893   4.72503   4.94692
 Alpha virt. eigenvalues --    4.98708   5.01484   5.16966   5.17624   5.21859
 Alpha virt. eigenvalues --    5.43560   5.85895   6.03248   6.15805   6.23518
 Alpha virt. eigenvalues --    6.27840   6.32723   6.45701   6.50840   6.62343
 Alpha virt. eigenvalues --    6.77317   6.78225   6.82496   6.85866   6.90195
 Alpha virt. eigenvalues --    6.91209   6.93659   6.99057   7.01782   7.08232
 Alpha virt. eigenvalues --    7.13356   7.24334   7.46667   7.57752   7.78914
 Alpha virt. eigenvalues --    8.09637   8.11979  10.88344  14.03084  14.58406
 Alpha virt. eigenvalues --   14.82586  14.87360  15.08896  29.02220  29.02392
 Alpha virt. eigenvalues --   29.06998  29.12659  29.22148  49.09275 148.30856
 Alpha virt. eigenvalues --  148.38097 148.70150 752.49680
          Condensed to atoms (all electrons):
              1          2          3          4          5
     1  O    8.205681  -0.176313   0.175123   0.007138  -0.001682
     2  O   -0.176313   8.174491   0.022810   0.195961  -0.000325
     3  H    0.175123   0.022810   0.598407  -0.001963  -0.000407
     4  H    0.007138   0.195961  -0.001963   0.588261  -0.004134
     5  Kr  -0.001682  -0.000325  -0.000407  -0.004134   0.000743
 Mulliken atomic charges:
              1
     1  O   -0.209947
     2  O   -0.216624
     3  H    0.206030
     4  H    0.214737
     5  Kr   0.005804
 Sum of Mulliken atomic charges =   0.00000
 Mulliken charges with hydrogens summed into heavy atoms:
              1
     1  O   -0.003917
     2  O   -0.001887
     5  Kr   0.005804
 Sum of Mulliken charges with hydrogens summed into heavy atoms =   0.00000
          Condensed to fragments (all electrons):
     1      -0.005804
     2       0.005804
 Electronic spatial extent (au):  <R**2>=            320.4932
 Charge=              0.0000 electrons
 Dipole moment (field-independent basis, Debye):
    X=              1.8919    Y=             -0.1680    Z=              1.6316  Tot=              2.5039
 Quadrupole moment (field-independent basis, Debye-Ang):
   XX=            -18.6400   YY=            -10.4853   ZZ=            -11.6561
   XY=              2.0837   XZ=             -2.8793   YZ=             -1.9079
 Traceless Quadrupole moment (field-independent basis, Debye-Ang):
   XX=             -5.0462   YY=              3.1085   ZZ=              1.9377
   XY=              2.0837   XZ=             -2.8793   YZ=             -1.9079
 Octapole moment (field-independent basis, Debye-Ang**2):
  XXX=             89.9153  YYY=             -1.2299  ZZZ=              1.3270  XYY=             23.1293
  XXY=             -5.6936  XXZ=              5.2689  XZZ=             23.1330  YZZ=             -1.9331
  YYZ=              2.4071  XYZ=              3.6857
 Hexadecapole moment (field-independent basis, Debye-Ang**3):
 XXXX=           -343.9351 YYYY=            -45.9966 ZZZZ=            -12.1032 XXXY=             11.1962
 XXXZ=            -10.1603 YYYX=              3.5772 YYYZ=             -2.8497 ZZZX=             -2.6647
 ZZZY=             -2.0961 XXYY=            -60.1748 XXZZ=            -50.2654 YYZZ=            -10.1066
 XXYZ=             -7.3410 YYXZ=             -4.4261 ZZXY=              3.3300
 N-N= 3.663215466067D+01 E-N=-4.314148161612D+02  KE= 1.504705163097D+02
 No NMR shielding tensors so no spin-rotation constants.
 Leave Link  601 at Wed May 13 22:43:33 2020, MaxMem= 1073741824 cpu:       0.8
 (Enter /home/matheus/.gaussian/g09/l122.exe)
 Counterpoise: doing DCBS calculation for fragment   2 NewBq=T
 Leave Link  122 at Wed May 13 22:43:33 2020, MaxMem= 1073741824 cpu:       0.0
 (Enter /home/matheus/.gaussian/g09/l301.exe)
 Basis read from rwf:  (5D, 7F)
 No pseudopotential information found on rwf file.
 There are   197 symmetry adapted basis functions of A   symmetry.
 Integral buffers will be    131072 words long.
 Raffenetti 2 integral format.
 Two-electron integral symmetry is turned on.
   197 basis functions,   415 primitive gaussians,   229 cartesian basis functions
    18 alpha electrons       18 beta electrons
       nuclear repulsion energy         0.0000000000 Hartrees.
 IExCor=10402 DFT=T Ex=LC-B+HF Corr=LYP ExCW=0 ScaHFX=  1.000000
 ScaDFX=  1.000000  1.000000  1.000000  1.000000 ScalE2=  1.000000  1.000000
 IRadAn=      5 IRanWt=     -1 IRanGd=            0 ICorTp=0
  HFx wShort=  0.000000 wLong=  0.470000 cFull=  0.000000 cShort=  0.000000 cLong=  1.000000
  DFx wShort=  0.000000 wLong=  0.470000 cFull=  0.000000 cShort=  0.000000 cLong=  1.000000
 NAtoms=    5 NActive=    5 NUniq=    5 SFac= 1.00D+00 NAtFMM=   60 NAOKFM=F Big=F
 No density basis found on file   718.
 Leave Link  301 at Wed May 13 22:43:33 2020, MaxMem= 1073741824 cpu:       0.2
 (Enter /home/matheus/.gaussian/g09/l302.exe)
 NPDir=0 NMtPBC=     1 NCelOv=     1 NCel=       1 NClECP=     1 NCelD=      1
         NCelK=      1 NCelE2=     1 NClLst=     1 CellRange=     0.0.
 One-electron integrals computed using PRISM.
 NBasis=   197 RedAO= T  NBF=   197
 NBsUse=   197 1.00D-06 NBFU=   197
 Precomputing XC quadrature grid using
 IXCGrd= 2 IRadAn=           5 IRanWt=          -1 IRanGd=           0 AccXCQ= 0.00D+00.
 NRdTot=     427 NPtTot=      123512 NUsed=      126579 NTot=      126611
 NSgBfM=   229   229   229   229   229 NAtAll=     5     5.
 Leave Link  302 at Wed May 13 22:43:33 2020, MaxMem= 1073741824 cpu:       1.0
 (Enter /home/matheus/.gaussian/g09/l303.exe)
 DipDrv:  MaxL=1.
 Leave Link  303 at Wed May 13 22:43:33 2020, MaxMem= 1073741824 cpu:       0.2
 (Enter /home/matheus/.gaussian/g09/l401.exe)
 Harris functional with IExCor=10402 diagonalized for initial guess.
 ExpMin= 2.53D-02 ExpMax= 1.17D+07 ExpMxC= 1.33D+04 IAcc=3 IRadAn=         5 AccDes= 0.00D+00
 HarFok:  IExCor=10402 AccDes= 0.00D+00 IRadAn=         5 IDoV= 1
 ScaDFX=  1.000000  1.000000  1.000000  1.000000
 FoFCou: FMM=F IPFlag=           0 FMFlag=      100000 FMFlg1=           0
         NFxFlg=           0 DoJE=T BraDBF=F KetDBF=T FulRan=T
         Omega=  0.000000  0.000000  1.000000  0.000000  0.000000 ICntrl=     500 IOpCl=  0
         NMat0=    1 NMatS0=    1 NMatT0=    0 NMatD0=    1 NMtDS0=    0 NMtDT0=    0
         I1Cent=           4 NGrid=           0.
 Petite list used in FoFCou.
 Harris En= -2744.51538523227    
 Initial guess orbital symmetries:
       Occupied  (A) (A) (A) (A) (A) (A) (A) (A) (A) (A) (A) (A)
                 (A) (A) (A) (A) (A) (A)
       Virtual   (A) (A) (A) (A) (A) (A) (A) (A) (A) (A) (A) (A)
                 (A) (A) (A) (A) (A) (A) (A) (A) (A) (A) (A) (A)
                 (A) (A) (A) (A) (A) (A) (A) (A) (A) (A) (A) (A)
                 (A) (A) (A) (A) (A) (A) (A) (A) (A) (A) (A) (A)
                 (A) (A) (A) (A) (A) (A) (A) (A) (A) (A) (A) (A)
                 (A) (A) (A) (A) (A) (A) (A) (A) (A) (A) (A) (A)
                 (A) (A) (A) (A) (A) (A) (A) (A) (A) (A) (A) (A)
                 (A) (A) (A) (A) (A) (A) (A) (A) (A) (A) (A) (A)
                 (A) (A) (A) (A) (A) (A) (A) (A) (A) (A) (A) (A)
                 (A) (A) (A) (A) (A) (A) (A) (A) (A) (A) (A) (A)
                 (A) (A) (A) (A) (A) (A) (A) (A) (A) (A) (A) (A)
                 (A) (A) (A) (A) (A) (A) (A) (A) (A) (A) (A) (A)
                 (A) (A) (A) (A) (A) (A) (A) (A) (A) (A) (A) (A)
                 (A) (A) (A) (A) (A) (A) (A) (A) (A) (A) (A) (A)
                 (A) (A) (A) (A) (A) (A) (A) (A) (A) (A) (A)
 The electronic state of the initial guess is 1-A.
 Leave Link  401 at Wed May 13 22:43:34 2020, MaxMem= 1073741824 cpu:       4.1
 (Enter /home/matheus/.gaussian/g09/l502.exe)
 Closed shell SCF:
 Requested convergence on RMS density matrix=1.00D-08 within 128 cycles.
 Requested convergence on MAX density matrix=1.00D-06.
 Requested convergence on             energy=1.00D-06.
 No special actions if energy rises.
 Using DIIS extrapolation, IDIIS=  1040.
 Integral symmetry usage will be decided dynamically.
       126521 words used for storage of precomputed grid.
 IEnd=      305468 IEndB=      305468 NGot=  1073741824 MDV=  1073505667
 LenX=  1073505667 LenY=  1073452785
 Fock matrices will be formed incrementally for  20 cycles.

 Cycle   1  Pass 1  IDiag  1:
 FoFJK:  IHMeth= 1 ICntrl=     0 DoSepK=T KAlg= 1 I1Cent= 0 FoldK=F
 FoFCou: FMM=F IPFlag=           0 FMFlag=      100000 FMFlg1=           0
         NFxFlg=           0 DoJE=T BraDBF=F KetDBF=F FulRan=T
         Omega=  0.000000  0.000000  1.000000  0.000000  0.000000 ICntrl=     500 IOpCl=  0
         NMat0=    1 NMatS0=    1 NMatT0=    0 NMatD0=    1 NMtDS0=    0 NMtDT0=    0
         I1Cent=           0 NGrid=           0.
 Symmetry not used in FoFCou.
 E= -2753.33349220066    
 DIIS: error= 2.30D-02 at cycle   1 NSaved=   1.
 NSaved= 1 IEnMin= 1 EnMin= -2753.33349220066     IErMin= 1 ErrMin= 2.30D-02
 ErrMax= 2.30D-02 EMaxC= 1.00D-01 BMatC= 2.61D-01 BMatP= 2.61D-01
 IDIUse=3 WtCom= 7.70D-01 WtEn= 2.30D-01
 Coeff-Com:  0.100D+01
 Coeff-En:   0.100D+01
 Coeff:      0.100D+01
 Gap=     0.618 Goal=   None    Shift=    0.000
 GapD=    0.618 DampG=2.000 DampE=0.500 DampFc=1.0000 IDamp=-1.
 RMSDP=2.46D-03 MaxDP=1.52D-01              OVMax= 1.05D-01

 Cycle   2  Pass 1  IDiag  1:
 RMSU=  1.68D-03    CP:  1.03D+00
 FoFJK:  IHMeth= 1 ICntrl=     0 DoSepK=T KAlg= 1 I1Cent= 0 FoldK=F
 E= -2753.38946348390     Delta-E=       -0.055971283236 Rises=F Damp=F
 DIIS: error= 1.18D-02 at cycle   2 NSaved=   2.
 NSaved= 2 IEnMin= 2 EnMin= -2753.38946348390     IErMin= 2 ErrMin= 1.18D-02
 ErrMax= 1.18D-02 EMaxC= 1.00D-01 BMatC= 8.81D-02 BMatP= 2.61D-01
 IDIUse=3 WtCom= 8.82D-01 WtEn= 1.18D-01
 Coeff-Com:  0.365D+00 0.635D+00
 Coeff-En:   0.130D+00 0.870D+00
 Coeff:      0.337D+00 0.663D+00
 Gap=     0.539 Goal=   None    Shift=    0.000
 RMSDP=9.63D-04 MaxDP=6.03D-02 DE=-5.60D-02 OVMax= 3.10D-02

 Cycle   3  Pass 1  IDiag  1:
 RMSU=  1.70D-04    CP:  1.02D+00  6.21D-01
 FoFJK:  IHMeth= 1 ICntrl=     0 DoSepK=T KAlg= 1 I1Cent= 0 FoldK=F
 E= -2753.41753616759     Delta-E=       -0.028072683689 Rises=F Damp=F
 DIIS: error= 8.54D-04 at cycle   3 NSaved=   3.
 NSaved= 3 IEnMin= 3 EnMin= -2753.41753616759     IErMin= 3 ErrMin= 8.54D-04
 ErrMax= 8.54D-04 EMaxC= 1.00D-01 BMatC= 4.31D-04 BMatP= 8.81D-02
 IDIUse=3 WtCom= 9.91D-01 WtEn= 8.54D-03
 Coeff-Com: -0.643D-02 0.523D-01 0.954D+00
 Coeff-En:   0.000D+00 0.000D+00 0.100D+01
 Coeff:     -0.638D-02 0.519D-01 0.955D+00
 Gap=     0.538 Goal=   None    Shift=    0.000
 RMSDP=8.85D-05 MaxDP=4.48D-03 DE=-2.81D-02 OVMax= 3.09D-03

 Cycle   4  Pass 1  IDiag  1:
 RMSU=  3.73D-05    CP:  1.02D+00  6.46D-01  1.15D+00
 FoFJK:  IHMeth= 1 ICntrl=     0 DoSepK=T KAlg= 1 I1Cent= 0 FoldK=F
 E= -2753.41767937974     Delta-E=       -0.000143212158 Rises=F Damp=F
 DIIS: error= 8.13D-05 at cycle   4 NSaved=   4.
 NSaved= 4 IEnMin= 4 EnMin= -2753.41767937974     IErMin= 4 ErrMin= 8.13D-05
 ErrMax= 8.13D-05 EMaxC= 1.00D-01 BMatC= 2.08D-06 BMatP= 4.31D-04
 IDIUse=1 WtCom= 1.00D+00 WtEn= 0.00D+00
 Coeff-Com: -0.143D-02 0.349D-03-0.719D-02 0.101D+01
 Coeff:     -0.143D-02 0.349D-03-0.719D-02 0.101D+01
 Gap=     0.539 Goal=   None    Shift=    0.000
 RMSDP=1.38D-05 MaxDP=5.46D-04 DE=-1.43D-04 OVMax= 9.21D-04

 Cycle   5  Pass 1  IDiag  1:
 RMSU=  5.86D-06    CP:  1.02D+00  6.48D-01  1.19D+00  1.06D+00
 FoFJK:  IHMeth= 1 ICntrl=     0 DoSepK=T KAlg= 1 I1Cent= 0 FoldK=F
 E= -2753.41768334621     Delta-E=       -0.000003966470 Rises=F Damp=F
 DIIS: error= 2.56D-05 at cycle   5 NSaved=   5.
 NSaved= 5 IEnMin= 5 EnMin= -2753.41768334621     IErMin= 5 ErrMin= 2.56D-05
 ErrMax= 2.56D-05 EMaxC= 1.00D-01 BMatC= 1.58D-07 BMatP= 2.08D-06
 IDIUse=1 WtCom= 1.00D+00 WtEn= 0.00D+00
 Coeff-Com: -0.541D-04-0.363D-02-0.337D-01-0.708D-01 0.111D+01
 Coeff:     -0.541D-04-0.363D-02-0.337D-01-0.708D-01 0.111D+01
 Gap=     0.539 Goal=   None    Shift=    0.000
 RMSDP=4.52D-06 MaxDP=1.86D-04 DE=-3.97D-06 OVMax= 1.97D-04

 Cycle   6  Pass 1  IDiag  1:
 RMSU=  3.55D-07    CP:  1.02D+00  6.47D-01  1.20D+00  1.11D+00  1.15D+00
 FoFJK:  IHMeth= 1 ICntrl=     0 DoSepK=T KAlg= 1 I1Cent= 0 FoldK=F
 E= -2753.41768355266     Delta-E=       -0.000000206451 Rises=F Damp=F
 DIIS: error= 5.70D-07 at cycle   6 NSaved=   6.
 NSaved= 6 IEnMin= 6 EnMin= -2753.41768355266     IErMin= 6 ErrMin= 5.70D-07
 ErrMax= 5.70D-07 EMaxC= 1.00D-01 BMatC= 9.62D-11 BMatP= 1.58D-07
 IDIUse=1 WtCom= 1.00D+00 WtEn= 0.00D+00
 Coeff-Com:  0.731D-05 0.313D-03 0.322D-02 0.157D-03-0.828D-01 0.108D+01
 Coeff:      0.731D-05 0.313D-03 0.322D-02 0.157D-03-0.828D-01 0.108D+01
 Gap=     0.539 Goal=   None    Shift=    0.000
 RMSDP=1.48D-07 MaxDP=5.01D-06 DE=-2.06D-07 OVMax= 6.19D-06

 Cycle   7  Pass 1  IDiag  1:
 RMSU=  2.33D-08    CP:  1.02D+00  6.47D-01  1.20D+00  1.11D+00  1.16D+00
                    CP:  1.18D+00
 FoFJK:  IHMeth= 1 ICntrl=     0 DoSepK=T KAlg= 1 I1Cent= 0 FoldK=F
 E= -2753.41768355275     Delta-E=       -0.000000000082 Rises=F Damp=F
 DIIS: error= 9.05D-08 at cycle   7 NSaved=   7.
 NSaved= 7 IEnMin= 7 EnMin= -2753.41768355275     IErMin= 7 ErrMin= 9.05D-08
 ErrMax= 9.05D-08 EMaxC= 1.00D-01 BMatC= 2.32D-12 BMatP= 9.62D-11
 IDIUse=1 WtCom= 1.00D+00 WtEn= 0.00D+00
 Coeff-Com:  0.502D-06 0.370D-04 0.336D-03 0.873D-03-0.120D-01 0.136D-01
 Coeff-Com:  0.997D+00
 Coeff:      0.502D-06 0.370D-04 0.336D-03 0.873D-03-0.120D-01 0.136D-01
 Coeff:      0.997D+00
 Gap=     0.539 Goal=   None    Shift=    0.000
 RMSDP=1.52D-08 MaxDP=5.52D-07 DE=-8.19D-11 OVMax= 8.27D-07

 Cycle   8  Pass 1  IDiag  1:
 RMSU=  4.62D-09    CP:  1.02D+00  6.47D-01  1.20D+00  1.11D+00  1.16D+00
                    CP:  1.19D+00  1.11D+00
 FoFJK:  IHMeth= 1 ICntrl=     0 DoSepK=T KAlg= 1 I1Cent= 0 FoldK=F
 E= -2753.41768355275     Delta-E=        0.000000000000 Rises=F Damp=F
 DIIS: error= 1.89D-08 at cycle   8 NSaved=   8.
 NSaved= 8 IEnMin= 7 EnMin= -2753.41768355275     IErMin= 8 ErrMin= 1.89D-08
 ErrMax= 1.89D-08 EMaxC= 1.00D-01 BMatC= 1.99D-13 BMatP= 2.32D-12
 IDIUse=1 WtCom= 1.00D+00 WtEn= 0.00D+00
 Coeff-Com: -0.335D-06-0.110D-04-0.123D-03 0.183D-03 0.233D-02-0.571D-01
 Coeff-Com:  0.188D+00 0.867D+00
 Coeff:     -0.335D-06-0.110D-04-0.123D-03 0.183D-03 0.233D-02-0.571D-01
 Coeff:      0.188D+00 0.867D+00
 Gap=     0.539 Goal=   None    Shift=    0.000
 RMSDP=2.90D-09 MaxDP=1.05D-07 DE= 0.00D+00 OVMax= 1.75D-07

 SCF Done:  E(RLC-B+HF-LYP) =  -2753.41768355     A.U. after    8 cycles
             Convg  =    0.2898D-08             -V/T =  2.0015
 KE= 2.749315505338D+03 PE=-6.578526163999D+03 EE= 1.075792975108D+03
 Leave Link  502 at Wed May 13 22:44:01 2020, MaxMem= 1073741824 cpu:     219.7
 (Enter /home/matheus/.gaussian/g09/l601.exe)
 Copying SCF densities to generalized density rwf, IOpCl= 0 IROHF=0.

 **********************************************************************

            Population analysis using the SCF density.

 **********************************************************************

 Orbital symmetries:
       Occupied  (A) (A) (A) (A) (A) (A) (A) (A) (A) (A) (A) (A)
                 (A) (A) (A) (A) (A) (A)
       Virtual   (A) (A) (A) (A) (A) (A) (A) (A) (A) (A) (A) (A)
                 (A) (A) (A) (A) (A) (A) (A) (A) (A) (A) (A) (A)
                 (A) (A) (A) (A) (A) (A) (A) (A) (A) (A) (A) (A)
                 (A) (A) (A) (A) (A) (A) (A) (A) (A) (A) (A) (A)
                 (A) (A) (A) (A) (A) (A) (A) (A) (A) (A) (A) (A)
                 (A) (A) (A) (A) (A) (A) (A) (A) (A) (A) (A) (A)
                 (A) (A) (A) (A) (A) (A) (A) (A) (A) (A) (A) (A)
                 (A) (A) (A) (A) (A) (A) (A) (A) (A) (A) (A) (A)
                 (A) (A) (A) (A) (A) (A) (A) (A) (A) (A) (A) (A)
                 (A) (A) (A) (A) (A) (A) (A) (A) (A) (A) (A) (A)
                 (A) (A) (A) (A) (A) (A) (A) (A) (A) (A) (A) (A)
                 (A) (A) (A) (A) (A) (A) (A) (A) (A) (A) (A) (A)
                 (A) (A) (A) (A) (A) (A) (A) (A) (A) (A) (A) (A)
                 (A) (A) (A) (A) (A) (A) (A) (A) (A) (A) (A) (A)
                 (A) (A) (A) (A) (A) (A) (A) (A) (A) (A) (A)
 The electronic state is 1-A.
 Alpha  occ. eigenvalues -- -511.24359 -66.71349 -60.39872 -60.39869 -60.39868
 Alpha  occ. eigenvalues --   -9.60493  -7.35946  -7.35945  -7.35944  -3.32283
 Alpha  occ. eigenvalues --   -3.32283  -3.32282  -3.32281  -3.32281  -1.06080
 Alpha  occ. eigenvalues --   -0.51293  -0.51289  -0.51287
 Alpha virt. eigenvalues --    0.02592   0.04743   0.07774   0.08604   0.11246
 Alpha virt. eigenvalues --    0.11743   0.12809   0.13079   0.15650   0.16663
 Alpha virt. eigenvalues --    0.17413   0.19089   0.20075   0.25232   0.26345
 Alpha virt. eigenvalues --    0.26913   0.28253   0.30492   0.32781   0.34174
 Alpha virt. eigenvalues --    0.35368   0.36966   0.37947   0.39368   0.40704
 Alpha virt. eigenvalues --    0.41448   0.42866   0.52895   0.53880   0.58251
 Alpha virt. eigenvalues --    0.58273   0.65949   0.68183   0.68761   0.71459
 Alpha virt. eigenvalues --    0.73873   0.74691   0.76853   0.78533   0.78810
 Alpha virt. eigenvalues --    0.80508   0.81023   0.83728   0.84606   0.87180
 Alpha virt. eigenvalues --    0.87817   0.88727   0.90579   0.90936   0.95827
 Alpha virt. eigenvalues --    0.96826   0.97788   0.98776   0.99584   1.01912
 Alpha virt. eigenvalues --    1.04923   1.07194   1.09349   1.11223   1.12826
 Alpha virt. eigenvalues --    1.17156   1.20048   1.24487   1.28231   1.30955
 Alpha virt. eigenvalues --    1.32296   1.38007   1.39579   1.45665   1.46610
 Alpha virt. eigenvalues --    1.54236   1.56080   1.59419   1.72803   1.74032
 Alpha virt. eigenvalues --    1.80825   1.81740   1.85620   1.97469   2.16629
 Alpha virt. eigenvalues --    2.20142   2.24548   2.28295   2.29862   2.31472
 Alpha virt. eigenvalues --    2.33082   2.33617   2.35132   2.37484   2.41528
 Alpha virt. eigenvalues --    2.42534   2.44990   2.47594   2.50061   2.51431
 Alpha virt. eigenvalues --    2.52703   2.53531   2.56769   2.58350   2.59099
 Alpha virt. eigenvalues --    2.63036   2.63641   2.66152   2.69677   2.72403
 Alpha virt. eigenvalues --    2.75123   2.78653   2.83862   2.87560   2.89661
 Alpha virt. eigenvalues --    2.95052   2.98858   3.03893   3.07946   3.17637
 Alpha virt. eigenvalues --    3.20405   3.27421   3.29628   3.38277   3.44877
 Alpha virt. eigenvalues --    3.60095   3.64094   3.81435   3.85527   4.03015
 Alpha virt. eigenvalues --    4.33880   4.42795   4.54783   4.56500   4.61905
 Alpha virt. eigenvalues --    4.71432   4.86244   4.87512   4.95888   5.02034
 Alpha virt. eigenvalues --    5.10237   5.25801   5.58780   5.63009   5.80749
 Alpha virt. eigenvalues --    5.89661   5.99809   6.09891   6.76401   6.82742
 Alpha virt. eigenvalues --    7.37472   7.49442   7.52952   7.61523   7.75029
 Alpha virt. eigenvalues --    7.77792   7.93796   8.15106   8.15838   8.20659
 Alpha virt. eigenvalues --    8.38216   8.50382   8.55144   8.85798   9.63804
 Alpha virt. eigenvalues --    9.75888   9.82709   9.86215   9.92357   9.98531
 Alpha virt. eigenvalues --   10.14665  10.28212  10.41341  10.96232  11.52756
 Alpha virt. eigenvalues --   11.63137  11.81397  12.05265  12.08575  13.19355
 Alpha virt. eigenvalues --   13.68069  14.50742  62.83793  64.68770
          Condensed to atoms (all electrons):
              1          2          3          4          5
     1  O    0.000967  -0.001156  -0.000444   0.000764  -0.005330
     2  O   -0.001156   0.004381   0.000413  -0.003001  -0.005596
     3  H   -0.000444   0.000413   0.000340  -0.000201  -0.001348
     4  H    0.000764  -0.003001  -0.000201   0.002895  -0.011993
     5  Kr  -0.005330  -0.005596  -0.001348  -0.011993  36.047200
 Mulliken atomic charges:
              1
     1  O    0.005199
     2  O    0.004959
     3  H    0.001239
     4  H    0.011535
     5  Kr  -0.022933
 Sum of Mulliken atomic charges =   0.00000
 Mulliken charges with hydrogens summed into heavy atoms:
              1
     1  O    0.006438
     2  O    0.016495
     5  Kr  -0.022933
 Sum of Mulliken charges with hydrogens summed into heavy atoms =   0.00000
          Condensed to fragments (all electrons):
     1       0.022933
     2      -0.022933
 Electronic spatial extent (au):  <R**2>=            163.1145
 Charge=              0.0000 electrons
 Dipole moment (field-independent basis, Debye):
    X=             -0.0014    Y=              0.0006    Z=              0.0002  Tot=              0.0015
 Quadrupole moment (field-independent basis, Debye-Ang):
   XX=            -17.7455   YY=            -17.7572   ZZ=            -17.7644
   XY=             -0.0032   XZ=             -0.0015   YZ=             -0.0005
 Traceless Quadrupole moment (field-independent basis, Debye-Ang):
   XX=              0.0102   YY=             -0.0015   ZZ=             -0.0087
   XY=             -0.0032   XZ=             -0.0015   YZ=             -0.0005
 Octapole moment (field-independent basis, Debye-Ang**2):
  XXX=            -52.1769  YYY=              0.4347  ZZZ=              0.0832  XYY=            -17.4060
  XXY=              0.1382  XXZ=              0.0250  XZZ=            -17.4102  YZZ=              0.1452
  YYZ=              0.0279  XYZ=             -0.0001
 Hexadecapole moment (field-independent basis, Debye-Ang**3):
 XXXX=           -121.1756 YYYY=            -18.9358 ZZZZ=            -18.9525 XXXY=              0.4127
 XXXZ=              0.0756 YYYX=              0.4153 YYYZ=             -0.0010 ZZZX=              0.0782
 ZZZY=             -0.0008 XXYY=            -23.3641 XXZZ=            -23.3686 YYZZ=             -6.3135
 XXYZ=             -0.0011 YYXZ=              0.0262 ZZXY=              0.1376
 N-N= 0.000000000000D+00 E-N=-6.578526162384D+03  KE= 2.749315505338D+03
 No NMR shielding tensors so no spin-rotation constants.
 Leave Link  601 at Wed May 13 22:44:01 2020, MaxMem= 1073741824 cpu:       0.8
 (Enter /home/matheus/.gaussian/g09/l122.exe)
 Counterpoise: doing MCBS calculation for fragment   1
 Leave Link  122 at Wed May 13 22:44:01 2020, MaxMem= 1073741824 cpu:       0.0
 (Enter /home/matheus/.gaussian/g09/l301.exe)
 Basis read from rwf:  (5D, 7F)
 No pseudopotential information found on rwf file.
 There are   138 symmetry adapted basis functions of A   symmetry.
 Integral buffers will be    131072 words long.
 Raffenetti 2 integral format.
 Two-electron integral symmetry is turned on.
   138 basis functions,   198 primitive gaussians,   160 cartesian basis functions
     9 alpha electrons        9 beta electrons
       nuclear repulsion energy        36.6321546607 Hartrees.
 IExCor=10402 DFT=T Ex=LC-B+HF Corr=LYP ExCW=0 ScaHFX=  1.000000
 ScaDFX=  1.000000  1.000000  1.000000  1.000000 ScalE2=  1.000000  1.000000
 IRadAn=      5 IRanWt=     -1 IRanGd=            0 ICorTp=0
  HFx wShort=  0.000000 wLong=  0.470000 cFull=  0.000000 cShort=  0.000000 cLong=  1.000000
  DFx wShort=  0.000000 wLong=  0.470000 cFull=  0.000000 cShort=  0.000000 cLong=  1.000000
 NAtoms=    5 NActive=    4 NUniq=    4 SFac= 1.00D+00 NAtFMM=   60 NAOKFM=F Big=F
 No density basis found on file   718.
 Leave Link  301 at Wed May 13 22:44:01 2020, MaxMem= 1073741824 cpu:       0.2
 (Enter /home/matheus/.gaussian/g09/l302.exe)
 NPDir=0 NMtPBC=     1 NCelOv=     1 NCel=       1 NClECP=     1 NCelD=      1
         NCelK=      1 NCelE2=     1 NClLst=     1 CellRange=     0.0.
 One-electron integrals computed using PRISM.
 NBasis=   138 RedAO= T  NBF=   138
 NBsUse=   138 1.00D-06 NBFU=   138
 Precomputing XC quadrature grid using
 IXCGrd= 2 IRadAn=           5 IRanWt=          -1 IRanGd=           0 AccXCQ= 0.00D+00.
 NRdTot=     344 NPtTot=       92556 NUsed=       95038 NTot=       95070
 NSgBfM=   160   160   160   160   160 NAtAll=     4     4.
 Leave Link  302 at Wed May 13 22:44:02 2020, MaxMem= 1073741824 cpu:       0.7
 (Enter /home/matheus/.gaussian/g09/l303.exe)
 DipDrv:  MaxL=1.
 Leave Link  303 at Wed May 13 22:44:02 2020, MaxMem= 1073741824 cpu:       0.1
 (Enter /home/matheus/.gaussian/g09/l401.exe)
 Harris functional with IExCor=10402 diagonalized for initial guess.
 ExpMin= 2.53D-02 ExpMax= 1.53D+04 ExpMxC= 5.22D+02 IAcc=3 IRadAn=         5 AccDes= 0.00D+00
 HarFok:  IExCor=10402 AccDes= 0.00D+00 IRadAn=         5 IDoV= 1
 ScaDFX=  1.000000  1.000000  1.000000  1.000000
 FoFCou: FMM=F IPFlag=           0 FMFlag=      100000 FMFlg1=           0
         NFxFlg=           0 DoJE=T BraDBF=F KetDBF=T FulRan=T
         Omega=  0.000000  0.000000  1.000000  0.000000  0.000000 ICntrl=     500 IOpCl=  0
         NMat0=    1 NMatS0=    1 NMatT0=    0 NMatD0=    1 NMtDS0=    0 NMtDT0=    0
         I1Cent=           4 NGrid=           0.
 Petite list used in FoFCou.
 Harris En= -147.165433957069    
 Initial guess orbital symmetries:
       Occupied  (A) (A) (A) (A) (A) (A) (A) (A) (A)
       Virtual   (A) (A) (A) (A) (A) (A) (A) (A) (A) (A) (A) (A)
                 (A) (A) (A) (A) (A) (A) (A) (A) (A) (A) (A) (A)
                 (A) (A) (A) (A) (A) (A) (A) (A) (A) (A) (A) (A)
                 (A) (A) (A) (A) (A) (A) (A) (A) (A) (A) (A) (A)
                 (A) (A) (A) (A) (A) (A) (A) (A) (A) (A) (A) (A)
                 (A) (A) (A) (A) (A) (A) (A) (A) (A) (A) (A) (A)
                 (A) (A) (A) (A) (A) (A) (A) (A) (A) (A) (A) (A)
                 (A) (A) (A) (A) (A) (A) (A) (A) (A) (A) (A) (A)
                 (A) (A) (A) (A) (A) (A) (A) (A) (A) (A) (A) (A)
                 (A) (A) (A) (A) (A) (A) (A) (A) (A) (A) (A) (A)
                 (A) (A) (A) (A) (A) (A) (A) (A) (A)
 The electronic state of the initial guess is 1-A.
 Leave Link  401 at Wed May 13 22:44:02 2020, MaxMem= 1073741824 cpu:       2.1
 (Enter /home/matheus/.gaussian/g09/l502.exe)
 Closed shell SCF:
 Requested convergence on RMS density matrix=1.00D-08 within 128 cycles.
 Requested convergence on MAX density matrix=1.00D-06.
 Requested convergence on             energy=1.00D-06.
 No special actions if energy rises.
 Using DIIS extrapolation, IDIIS=  1040.
 Integral symmetry usage will be decided dynamically.
        94980 words used for storage of precomputed grid.
 IEnd=      192360 IEndB=      192360 NGot=  1073741824 MDV=  1073591865
 LenX=  1073591865 LenY=  1073565824
 Fock matrices will be formed incrementally for  20 cycles.

 Cycle   1  Pass 1  IDiag  1:
 FoFJK:  IHMeth= 1 ICntrl=     0 DoSepK=T KAlg= 1 I1Cent= 0 FoldK=F
 FoFCou: FMM=F IPFlag=           0 FMFlag=      100000 FMFlg1=           0
         NFxFlg=           0 DoJE=T BraDBF=F KetDBF=F FulRan=T
         Omega=  0.000000  0.000000  1.000000  0.000000  0.000000 ICntrl=     500 IOpCl=  0
         NMat0=    1 NMatS0=    1 NMatT0=    0 NMatD0=    1 NMtDS0=    0 NMtDT0=    0
         I1Cent=           0 NGrid=           0.
 Symmetry not used in FoFCou.
 E= -151.303261070911    
 DIIS: error= 1.35D-02 at cycle   1 NSaved=   1.
 NSaved= 1 IEnMin= 1 EnMin= -151.303261070911     IErMin= 1 ErrMin= 1.35D-02
 ErrMax= 1.35D-02 EMaxC= 1.00D-01 BMatC= 2.27D-02 BMatP= 2.27D-02
 IDIUse=3 WtCom= 8.65D-01 WtEn= 1.35D-01
 Coeff-Com:  0.100D+01
 Coeff-En:   0.100D+01
 Coeff:      0.100D+01
 Gap=     0.495 Goal=   None    Shift=    0.000
 GapD=    0.495 DampG=2.000 DampE=0.500 DampFc=1.0000 IDamp=-1.
 RMSDP=1.18D-03 MaxDP=2.74D-02              OVMax= 5.25D-02

 Cycle   2  Pass 1  IDiag  1:
 RMSU=  8.35D-04    CP:  1.01D+00
 FoFJK:  IHMeth= 1 ICntrl=     0 DoSepK=T KAlg= 1 I1Cent= 0 FoldK=F
 E= -151.322767316818     Delta-E=       -0.019506245907 Rises=F Damp=F
 DIIS: error= 7.71D-03 at cycle   2 NSaved=   2.
 NSaved= 2 IEnMin= 2 EnMin= -151.322767316818     IErMin= 2 ErrMin= 7.71D-03
 ErrMax= 7.71D-03 EMaxC= 1.00D-01 BMatC= 4.89D-03 BMatP= 2.27D-02
 IDIUse=3 WtCom= 9.23D-01 WtEn= 7.71D-02
 Coeff-Com:  0.270D+00 0.730D+00
 Coeff-En:   0.000D+00 0.100D+01
 Coeff:      0.249D+00 0.751D+00
 Gap=     0.455 Goal=   None    Shift=    0.000
 RMSDP=3.11D-04 MaxDP=6.79D-03 DE=-1.95D-02 OVMax= 1.48D-02

 Cycle   3  Pass 1  IDiag  1:
 RMSU=  2.20D-04    CP:  1.00D+00  1.00D+00
 FoFJK:  IHMeth= 1 ICntrl=     0 DoSepK=T KAlg= 1 I1Cent= 0 FoldK=F
 E= -151.325501906756     Delta-E=       -0.002734589938 Rises=F Damp=F
 DIIS: error= 1.82D-03 at cycle   3 NSaved=   3.
 NSaved= 3 IEnMin= 3 EnMin= -151.325501906756     IErMin= 3 ErrMin= 1.82D-03
 ErrMax= 1.82D-03 EMaxC= 1.00D-01 BMatC= 5.98D-04 BMatP= 4.89D-03
 IDIUse=3 WtCom= 9.82D-01 WtEn= 1.82D-02
 Coeff-Com:  0.214D-01 0.247D+00 0.731D+00
 Coeff-En:   0.000D+00 0.000D+00 0.100D+01
 Coeff:      0.210D-01 0.243D+00 0.736D+00
 Gap=     0.465 Goal=   None    Shift=    0.000
 RMSDP=1.41D-04 MaxDP=3.37D-03 DE=-2.73D-03 OVMax= 7.07D-03

 Cycle   4  Pass 1  IDiag  1:
 RMSU=  7.13D-05    CP:  1.00D+00  1.09D+00  9.41D-01
 FoFJK:  IHMeth= 1 ICntrl=     0 DoSepK=T KAlg= 1 I1Cent= 0 FoldK=F
 E= -151.325947660324     Delta-E=       -0.000445753567 Rises=F Damp=F
 DIIS: error= 4.38D-04 at cycle   4 NSaved=   4.
 NSaved= 4 IEnMin= 4 EnMin= -151.325947660324     IErMin= 4 ErrMin= 4.38D-04
 ErrMax= 4.38D-04 EMaxC= 1.00D-01 BMatC= 3.67D-05 BMatP= 5.98D-04
 IDIUse=3 WtCom= 9.96D-01 WtEn= 4.38D-03
 Coeff-Com: -0.217D-01-0.330D-01 0.146D+00 0.908D+00
 Coeff-En:   0.000D+00 0.000D+00 0.000D+00 0.100D+01
 Coeff:     -0.216D-01-0.329D-01 0.146D+00 0.909D+00
 Gap=     0.463 Goal=   None    Shift=    0.000
 RMSDP=5.59D-05 MaxDP=1.44D-03 DE=-4.46D-04 OVMax= 1.84D-03

 Cycle   5  Pass 1  IDiag  1:
 RMSU=  1.38D-05    CP:  1.00D+00  1.11D+00  1.07D+00  1.12D+00
 FoFJK:  IHMeth= 1 ICntrl=     0 DoSepK=T KAlg= 1 I1Cent= 0 FoldK=F
 E= -151.325983250395     Delta-E=       -0.000035590071 Rises=F Damp=F
 DIIS: error= 6.63D-05 at cycle   5 NSaved=   5.
 NSaved= 5 IEnMin= 5 EnMin= -151.325983250395     IErMin= 5 ErrMin= 6.63D-05
 ErrMax= 6.63D-05 EMaxC= 1.00D-01 BMatC= 4.22D-07 BMatP= 3.67D-05
 IDIUse=1 WtCom= 1.00D+00 WtEn= 0.00D+00
 Coeff-Com:  0.803D-03-0.429D-02-0.360D-01-0.793D-01 0.112D+01
 Coeff:      0.803D-03-0.429D-02-0.360D-01-0.793D-01 0.112D+01
 Gap=     0.463 Goal=   None    Shift=    0.000
[...]

 Cycle   2  Pass 1  IDiag  1:
 RMSU=  1.06D-05    CP:  1.00D+00
 FoFJK:  IHMeth= 1 ICntrl=     0 DoSepK=T KAlg= 1 I1Cent= 0 FoldK=F
 E= -2753.41756195117     Delta-E=       -0.000000550721 Rises=F Damp=F
 DIIS: error= 4.01D-06 at cycle   2 NSaved=   2.
 NSaved= 2 IEnMin= 2 EnMin= -2753.41756195117     IErMin= 2 ErrMin= 4.01D-06
 ErrMax= 4.01D-06 EMaxC= 1.00D-01 BMatC= 3.35D-09 BMatP= 5.43D-06
 IDIUse=1 WtCom= 1.00D+00 WtEn= 0.00D+00
 Coeff-Com: -0.731D-02 0.101D+01
 Coeff:     -0.731D-02 0.101D+01
 Gap=     0.539 Goal=   None    Shift=    0.000
 RMSDP=1.60D-06 MaxDP=6.63D-05 DE=-5.51D-07 OVMax= 4.55D-05

 Cycle   3  Pass 1  IDiag  1:
 RMSU=  5.37D-07    CP:  1.00D+00  1.09D+00
 FoFJK:  IHMeth= 1 ICntrl=     0 DoSepK=T KAlg= 1 I1Cent= 0 FoldK=F
 E= -2753.41756195717     Delta-E=       -0.000000006001 Rises=F Damp=F
 DIIS: error= 6.36D-07 at cycle   3 NSaved=   3.
 NSaved= 3 IEnMin= 3 EnMin= -2753.41756195717     IErMin= 3 ErrMin= 6.36D-07
 ErrMax= 6.36D-07 EMaxC= 1.00D-01 BMatC= 9.00D-11 BMatP= 3.35D-09
 IDIUse=1 WtCom= 1.00D+00 WtEn= 0.00D+00
 Coeff-Com:  0.278D-03-0.119D+00 0.112D+01
 Coeff:      0.278D-03-0.119D+00 0.112D+01
 Gap=     0.539 Goal=   None    Shift=    0.000
 RMSDP=2.12D-07 MaxDP=9.82D-06 DE=-6.00D-09 OVMax= 9.08D-06

 Cycle   4  Pass 1  IDiag  1:
 RMSU=  5.21D-08    CP:  1.00D+00  1.10D+00  1.19D+00
 FoFJK:  IHMeth= 1 ICntrl=     0 DoSepK=T KAlg= 1 I1Cent= 0 FoldK=F
 E= -2753.41756195737     Delta-E=       -0.000000000203 Rises=F Damp=F
 DIIS: error= 2.41D-07 at cycle   4 NSaved=   4.
 NSaved= 4 IEnMin= 4 EnMin= -2753.41756195737     IErMin= 4 ErrMin= 2.41D-07
 ErrMax= 2.41D-07 EMaxC= 1.00D-01 BMatC= 1.25D-11 BMatP= 9.00D-11
 IDIUse=1 WtCom= 1.00D+00 WtEn= 0.00D+00
 Coeff-Com:  0.218D-03-0.529D-01 0.333D+00 0.720D+00
 Coeff:      0.218D-03-0.529D-01 0.333D+00 0.720D+00
 Gap=     0.539 Goal=   None    Shift=    0.000
 RMSDP=1.88D-08 MaxDP=7.20D-07 DE=-2.03D-10 OVMax= 9.38D-07

 Cycle   5  Pass 1  IDiag  1:
 RMSU=  9.22D-09    CP:  1.00D+00  1.10D+00  1.20D+00  1.11D+00
 FoFJK:  IHMeth= 1 ICntrl=     0 DoSepK=T KAlg= 1 I1Cent= 0 FoldK=F
 E= -2753.41756195739     Delta-E=       -0.000000000021 Rises=F Damp=F
 DIIS: error= 3.23D-08 at cycle   5 NSaved=   5.
 NSaved= 5 IEnMin= 5 EnMin= -2753.41756195739     IErMin= 5 ErrMin= 3.23D-08
 ErrMax= 3.23D-08 EMaxC= 1.00D-01 BMatC= 2.60D-13 BMatP= 1.25D-11
 IDIUse=1 WtCom= 1.00D+00 WtEn= 0.00D+00
 Coeff-Com: -0.197D-04 0.725D-02-0.671D-01-0.997D-03 0.106D+01
 Coeff:     -0.197D-04 0.725D-02-0.671D-01-0.997D-03 0.106D+01
 Gap=     0.539 Goal=   None    Shift=    0.000
 RMSDP=8.83D-09 MaxDP=4.86D-07 DE=-2.09D-11 OVMax= 4.46D-07

 SCF Done:  E(RLC-B+HF-LYP) =  -2753.41756196     A.U. after    5 cycles
             Convg  =    0.8835D-08             -V/T =  2.0015
 KE= 2.749364609178D+03 PE=-6.578580068177D+03 EE= 1.075797897042D+03
 Leave Link  502 at Wed May 13 23:09:09 2020, MaxMem= 1073741824 cpu:     111.3
 (Enter /home/matheus/.gaussian/g09/l122.exe)
 Restoring MOs from calculation   4 to rwf.
 Counterpoise: doing MCBS calculation for fragment   1
 Leave Link  122 at Wed May 13 23:09:09 2020, MaxMem= 1073741824 cpu:       0.0
 (Enter /home/matheus/.gaussian/g09/l301.exe)
 Basis read from rwf:  (5D, 7F)
 No pseudopotential information found on rwf file.
 There are   138 symmetry adapted basis functions of A   symmetry.
 Integral buffers will be    131072 words long.
 Raffenetti 2 integral format.
 Two-electron integral symmetry is turned on.
   138 basis functions,   198 primitive gaussians,   160 cartesian basis functions
     9 alpha electrons        9 beta electrons
       nuclear repulsion energy        36.6321546607 Hartrees.
 IExCor=10402 DFT=T Ex=LC-B+HF Corr=LYP ExCW=0 ScaHFX=  1.000000
 ScaDFX=  1.000000  1.000000  1.000000  1.000000 ScalE2=  1.000000  1.000000
 IRadAn=      5 IRanWt=     -1 IRanGd=            0 ICorTp=0
  HFx wShort=  0.000000 wLong=  0.470000 cFull=  0.000000 cShort=  0.000000 cLong=  1.000000
  DFx wShort=  0.000000 wLong=  0.470000 cFull=  0.000000 cShort=  0.000000 cLong=  1.000000
 NAtoms=    5 NActive=    4 NUniq=    4 SFac= 1.00D+00 NAtFMM=   60 NAOKFM=F Big=F
 No density basis found on file   718.
 Leave Link  301 at Wed May 13 23:09:09 2020, MaxMem= 1073741824 cpu:       0.2
 (Enter /home/matheus/.gaussian/g09/l302.exe)
 NPDir=0 NMtPBC=     1 NCelOv=     1 NCel=       1 NClECP=     1 NCelD=      1
         NCelK=      1 NCelE2=     1 NClLst=     1 CellRange=     0.0.
 One-electron integrals computed using PRISM.
 NBasis=   138 RedAO= T  NBF=   138
 NBsUse=   138 1.00D-06 NBFU=   138
 Precomputing XC quadrature grid using
 IXCGrd= 2 IRadAn=           5 IRanWt=          -1 IRanGd=           0 AccXCQ= 0.00D+00.
 NRdTot=     344 NPtTot=       92556 NUsed=       95038 NTot=       95070
 NSgBfM=   160   160   160   160   160 NAtAll=     4     4.
 Leave Link  302 at Wed May 13 23:09:10 2020, MaxMem= 1073741824 cpu:       0.8
 (Enter /home/matheus/.gaussian/g09/l303.exe)
 DipDrv:  MaxL=1.
 Leave Link  303 at Wed May 13 23:09:10 2020, MaxMem= 1073741824 cpu:       0.2
 (Enter /home/matheus/.gaussian/g09/l401.exe)
 Initial guess read from the read-write file.
 Guess basis will be translated and rotated to current coordinates.
 Initial guess orbital symmetries:
       Occupied  (A) (A) (A) (A) (A) (A) (A) (A) (A)
       Virtual   (A) (A) (A) (A) (A) (A) (A) (A) (A) (A) (A) (A)
                 (A) (A) (A) (A) (A) (A) (A) (A) (A) (A) (A) (A)
                 (A) (A) (A) (A) (A) (A) (A) (A) (A) (A) (A) (A)
                 (A) (A) (A) (A) (A) (A) (A) (A) (A) (A) (A) (A)
                 (A) (A) (A) (A) (A) (A) (A) (A) (A) (A) (A) (A)
                 (A) (A) (A) (A) (A) (A) (A) (A) (A) (A) (A) (A)
                 (A) (A) (A) (A) (A) (A) (A) (A) (A) (A) (A) (A)
                 (A) (A) (A) (A) (A) (A) (A) (A) (A) (A) (A) (A)
                 (A) (A) (A) (A) (A) (A) (A) (A) (A) (A) (A) (A)
                 (A) (A) (A) (A) (A) (A) (A) (A) (A) (A) (A) (A)
                 (A) (A) (A) (A) (A) (A) (A) (A) (A)
 The electronic state of the initial guess is 1-A.
 Generating alternative initial guess.
 Harris functional with IExCor=10402 diagonalized for initial guess.
 ExpMin= 2.53D-02 ExpMax= 1.53D+04 ExpMxC= 5.22D+02 IAcc=3 IRadAn=         5 AccDes= 0.00D+00
 HarFok:  IExCor=10402 AccDes= 0.00D+00 IRadAn=         5 IDoV= 1
 ScaDFX=  1.000000  1.000000  1.000000  1.000000
 FoFCou: FMM=F IPFlag=           0 FMFlag=      100000 FMFlg1=           0
         NFxFlg=           0 DoJE=T BraDBF=F KetDBF=T FulRan=T
         Omega=  0.000000  0.000000  1.000000  0.000000  0.000000 ICntrl=     500 IOpCl=  0
         NMat0=    1 NMatS0=    1 NMatT0=    0 NMatD0=    1 NMtDS0=    0 NMtDT0=    0
         I1Cent=           4 NGrid=           0.
 Petite list used in FoFCou.
 Harris En= -147.165433964824    
 Leave Link  401 at Wed May 13 23:09:10 2020, MaxMem= 1073741824 cpu:       2.6
 (Enter /home/matheus/.gaussian/g09/l502.exe)
 Closed shell SCF:
 Requested convergence on RMS density matrix=1.00D-08 within 128 cycles.
 Requested convergence on MAX density matrix=1.00D-06.
 Requested convergence on             energy=1.00D-06.
 No special actions if energy rises.
 Using DIIS extrapolation, IDIIS=  1040.
 Integral symmetry usage will be decided dynamically.
        94980 words used for storage of precomputed grid.
 IEnd=      192360 IEndB=      192360 NGot=  1073741824 MDV=  1073591865
 LenX=  1073591865 LenY=  1073565824
 Fock matrices will be formed incrementally for  20 cycles.

 Cycle   1  Pass 1  IDiag  1:
 FoFJK:  IHMeth= 1 ICntrl=     0 DoSepK=T KAlg= 1 I1Cent= 0 FoldK=F
 FoFCou: FMM=F IPFlag=           0 FMFlag=      100000 FMFlg1=           0
         NFxFlg=           0 DoJE=T BraDBF=F KetDBF=F FulRan=T
         Omega=  0.000000  0.000000  1.000000  0.000000  0.000000 ICntrl=     500 IOpCl=  0
         NMat0=    1 NMatS0=    1 NMatT0=    0 NMatD0=    1 NMtDS0=    0 NMtDT0=    0
         I1Cent=           0 NGrid=           0.
 Symmetry not used in FoFCou.
 E= -151.325984745284    
 DIIS: error= 8.65D-06 at cycle   1 NSaved=   1.
 NSaved= 1 IEnMin= 1 EnMin= -151.325984745284     IErMin= 1 ErrMin= 8.65D-06
 ErrMax= 8.65D-06 EMaxC= 1.00D-01 BMatC= 1.93D-08 BMatP= 1.93D-08
 IDIUse=1 WtCom= 1.00D+00 WtEn= 0.00D+00
 Coeff-Com:  0.100D+01
 Coeff:      0.100D+01
 Gap=     0.463 Goal=   None    Shift=    0.000
 RMSDP=9.09D-07 MaxDP=2.05D-05              OVMax= 3.53D-05

 Cycle   2  Pass 1  IDiag  1:
 RMSU=  6.43D-07    CP:  1.00D+00
 FoFJK:  IHMeth= 1 ICntrl=     0 DoSepK=T KAlg= 1 I1Cent= 0 FoldK=F
 E= -151.325984763913     Delta-E=       -0.000000018629 Rises=F Damp=F
 DIIS: error= 2.17D-06 at cycle   2 NSaved=   2.
 NSaved= 2 IEnMin= 2 EnMin= -151.325984763913     IErMin= 2 ErrMin= 2.17D-06
 ErrMax= 2.17D-06 EMaxC= 1.00D-01 BMatC= 7.55D-10 BMatP= 1.93D-08
 IDIUse=1 WtCom= 1.00D+00 WtEn= 0.00D+00
 Coeff-Com: -0.137D+00 0.114D+01
 Coeff:     -0.137D+00 0.114D+01
 Gap=     0.463 Goal=   None    Shift=    0.000
 RMSDP=2.62D-07 MaxDP=7.29D-06 DE=-1.86D-08 OVMax= 1.43D-05

 Cycle   3  Pass 1  IDiag  1:
 RMSU=  9.74D-08    CP:  1.00D+00  1.25D+00
 FoFJK:  IHMeth= 1 ICntrl=     0 DoSepK=T KAlg= 1 I1Cent= 0 FoldK=F
 E= -151.325984765637     Delta-E=       -0.000000001724 Rises=F Damp=F
 DIIS: error= 6.64D-07 at cycle   3 NSaved=   3.
 NSaved= 3 IEnMin= 3 EnMin= -151.325984765637     IErMin= 3 ErrMin= 6.64D-07
 ErrMax= 6.64D-07 EMaxC= 1.00D-01 BMatC= 7.33D-11 BMatP= 7.55D-10
 IDIUse=1 WtCom= 1.00D+00 WtEn= 0.00D+00
 Coeff-Com: -0.152D-01-0.475D-01 0.106D+01
 Coeff:     -0.152D-01-0.475D-01 0.106D+01
 Gap=     0.463 Goal=   None    Shift=    0.000
 RMSDP=8.22D-08 MaxDP=1.68D-06 DE=-1.72D-09 OVMax= 5.68D-06

 Cycle   4  Pass 1  IDiag  1:
 RMSU=  3.46D-08    CP:  1.00D+00  1.30D+00  1.34D+00
 FoFJK:  IHMeth= 1 ICntrl=     0 DoSepK=T KAlg= 1 I1Cent= 0 FoldK=F
 E= -151.325984765797     Delta-E=       -0.000000000160 Rises=F Damp=F
 DIIS: error= 5.59D-07 at cycle   4 NSaved=   4.
 NSaved= 4 IEnMin= 4 EnMin= -151.325984765797     IErMin= 4 ErrMin= 5.59D-07
 ErrMax= 5.59D-07 EMaxC= 1.00D-01 BMatC= 5.40D-11 BMatP= 7.33D-11
 IDIUse=1 WtCom= 1.00D+00 WtEn= 0.00D+00
 Coeff-Com:  0.912D-02-0.174D+00 0.558D+00 0.607D+00
 Coeff:      0.912D-02-0.174D+00 0.558D+00 0.607D+00
 Gap=     0.463 Goal=   None    Shift=    0.000
 RMSDP=3.36D-08 MaxDP=5.37D-07 DE=-1.60D-10 OVMax= 2.23D-06

 Cycle   5  Pass 1  IDiag  1:
 RMSU=  1.49D-08    CP:  1.00D+00  1.31D+00  1.50D+00  7.77D-01
 FoFJK:  IHMeth= 1 ICntrl=     0 DoSepK=T KAlg= 1 I1Cent= 0 FoldK=F
 E= -151.325984765847     Delta-E=       -0.000000000050 Rises=F Damp=F
 DIIS: error= 1.35D-07 at cycle   5 NSaved=   5.
 NSaved= 5 IEnMin= 5 EnMin= -151.325984765847     IErMin= 5 ErrMin= 1.35D-07
 ErrMax= 1.35D-07 EMaxC= 1.00D-01 BMatC= 3.29D-12 BMatP= 5.40D-11
 IDIUse=1 WtCom= 1.00D+00 WtEn= 0.00D+00
 Coeff-Com:  0.453D-02-0.282D-01-0.103D+00 0.127D+00 0.999D+00
 Coeff:      0.453D-02-0.282D-01-0.103D+00 0.127D+00 0.999D+00
 Gap=     0.463 Goal=   None    Shift=    0.000
 RMSDP=1.80D-08 MaxDP=3.43D-07 DE=-4.99D-11 OVMax= 1.53D-06

 Cycle   6  Pass 1  IDiag  1:
 RMSU=  4.47D-09    CP:  1.00D+00  1.31D+00  1.58D+00  9.84D-01  1.34D+00
 FoFJK:  IHMeth= 1 ICntrl=     0 DoSepK=T KAlg= 1 I1Cent= 0 FoldK=F
 E= -151.325984765855     Delta-E=       -0.000000000008 Rises=F Damp=F
 DIIS: error= 3.70D-08 at cycle   6 NSaved=   6.
 NSaved= 6 IEnMin= 6 EnMin= -151.325984765855     IErMin= 6 ErrMin= 3.70D-08
 ErrMax= 3.70D-08 EMaxC= 1.00D-01 BMatC= 2.06D-13 BMatP= 3.29D-12
 IDIUse=1 WtCom= 1.00D+00 WtEn= 0.00D+00
 Coeff-Com: -0.102D-02 0.179D-01-0.505D-01-0.553D-01 0.729D-03 0.109D+01
 Coeff:     -0.102D-02 0.179D-01-0.505D-01-0.553D-01 0.729D-03 0.109D+01
 Gap=     0.463 Goal=   None    Shift=    0.000
 RMSDP=6.51D-09 MaxDP=1.39D-07 DE=-8.38D-12 OVMax= 5.70D-07

 SCF Done:  E(RLC-B+HF-LYP) =  -151.325984766     A.U. after    6 cycles
             Convg  =    0.6513D-08             -V/T =  2.0057
 KE= 1.504701005923D+02 PE=-4.314139924019D+02 EE= 9.298575238301D+01
 Leave Link  502 at Wed May 13 23:09:17 2020, MaxMem= 1073741824 cpu:      54.9
 (Enter /home/matheus/.gaussian/g09/l122.exe)
 Restoring MOs from calculation   5 to rwf.
 Counterpoise: doing MCBS calculation for fragment   2
 Leave Link  122 at Wed May 13 23:09:17 2020, MaxMem= 1073741824 cpu:       0.0
 (Enter /home/matheus/.gaussian/g09/l301.exe)
 Basis read from rwf:  (5D, 7F)
 No pseudopotential information found on rwf file.
 There are    59 symmetry adapted basis functions of A   symmetry.
 Integral buffers will be    131072 words long.
 Raffenetti 2 integral format.
 Two-electron integral symmetry is turned on.
    59 basis functions,   217 primitive gaussians,    69 cartesian basis functions
    18 alpha electrons       18 beta electrons
       nuclear repulsion energy         0.0000000000 Hartrees.
 IExCor=10402 DFT=T Ex=LC-B+HF Corr=LYP ExCW=0 ScaHFX=  1.000000
 ScaDFX=  1.000000  1.000000  1.000000  1.000000 ScalE2=  1.000000  1.000000
 IRadAn=      5 IRanWt=     -1 IRanGd=            0 ICorTp=0
  HFx wShort=  0.000000 wLong=  0.470000 cFull=  0.000000 cShort=  0.000000 cLong=  1.000000
  DFx wShort=  0.000000 wLong=  0.470000 cFull=  0.000000 cShort=  0.000000 cLong=  1.000000
 NAtoms=    5 NActive=    1 NUniq=    1 SFac= 1.00D+00 NAtFMM=   60 NAOKFM=F Big=F
 No density basis found on file   718.
 Leave Link  301 at Wed May 13 23:09:17 2020, MaxMem= 1073741824 cpu:       0.2
 (Enter /home/matheus/.gaussian/g09/l302.exe)
 NPDir=0 NMtPBC=     1 NCelOv=     1 NCel=       1 NClECP=     1 NCelD=      1
         NCelK=      1 NCelE2=     1 NClLst=     1 CellRange=     0.0.
 One-electron integrals computed using PRISM.
 NBasis=    59 RedAO= T  NBF=    59
 NBsUse=    59 1.00D-06 NBFU=    59
 Precomputing XC quadrature grid using
 IXCGrd= 2 IRadAn=           5 IRanWt=          -1 IRanGd=           0 AccXCQ= 0.00D+00.
 NRdTot=      81 NPtTot=       30352 NUsed=       30981 NTot=       31013
 NSgBfM=    69    69    69    69    69 NAtAll=     1     1.
 Leave Link  302 at Wed May 13 23:09:17 2020, MaxMem= 1073741824 cpu:       0.7
 (Enter /home/matheus/.gaussian/g09/l303.exe)
 DipDrv:  MaxL=1.
 Leave Link  303 at Wed May 13 23:09:17 2020, MaxMem= 1073741824 cpu:       0.1
 (Enter /home/matheus/.gaussian/g09/l401.exe)
 Initial guess read from the read-write file.
 Guess basis will be translated and rotated to current coordinates.
 Initial guess orbital symmetries:
       Occupied  (A) (A) (A) (A) (A) (A) (A) (A) (A) (A) (A) (A)
                 (A) (A) (A) (A) (A) (A)
       Virtual   (A) (A) (A) (A) (A) (A) (A) (A) (A) (A) (A) (A)
                 (A) (A) (A) (A) (A) (A) (A) (A) (A) (A) (A) (A)
                 (A) (A) (A) (A) (A) (A) (A) (A) (A) (A) (A) (A)
                 (A) (A) (A) (A) (A)
 The electronic state of the initial guess is 1-A.
 Generating alternative initial guess.
 Harris functional with IExCor=10402 diagonalized for initial guess.
 ExpMin= 4.00D-02 ExpMax= 1.17D+07 ExpMxC= 1.33D+04 IAcc=3 IRadAn=         5 AccDes= 0.00D+00
 HarFok:  IExCor=10402 AccDes= 0.00D+00 IRadAn=         5 IDoV= 1
 ScaDFX=  1.000000  1.000000  1.000000  1.000000
 FoFCou: FMM=F IPFlag=           0 FMFlag=      100000 FMFlg1=           0
         NFxFlg=           0 DoJE=T BraDBF=F KetDBF=T FulRan=T
         Omega=  0.000000  0.000000  1.000000  0.000000  0.000000 ICntrl=     500 IOpCl=  0
         NMat0=    1 NMatS0=    1 NMatT0=    0 NMatD0=    1 NMtDS0=    0 NMtDT0=    0
         I1Cent=           4 NGrid=           0.
 Petite list used in FoFCou.
 DSYEVD returned Info=         119 IAlg= 4 N=    59 NDim=    59 NE2=    18198841 trying DSYEV.
 Harris En= -2744.51485235229    
 Leave Link  401 at Wed May 13 23:09:17 2020, MaxMem= 1073741824 cpu:       1.1
 (Enter /home/matheus/.gaussian/g09/l502.exe)
 Closed shell SCF:
 Requested convergence on RMS density matrix=1.00D-08 within 128 cycles.
 Requested convergence on MAX density matrix=1.00D-06.
 Requested convergence on             energy=1.00D-06.
 No special actions if energy rises.
 Using DIIS extrapolation, IDIIS=  1040.
 Integral symmetry usage will be decided dynamically.
        30923 words used for storage of precomputed grid.
 IEnd=       64406 IEndB=       64406 NGot=  1073741824 MDV=  1073698889
 LenX=  1073698889 LenY=  1073693687
 Fock matrices will be formed incrementally for  20 cycles.

 Cycle   1  Pass 1  IDiag  1:
 FoFJK:  IHMeth= 1 ICntrl=     0 DoSepK=T KAlg= 1 I1Cent= 0 FoldK=F
 FoFCou: FMM=F IPFlag=           0 FMFlag=      100000 FMFlg1=           0
         NFxFlg=           0 DoJE=T BraDBF=F KetDBF=F FulRan=T
         Omega=  0.000000  0.000000  1.000000  0.000000  0.000000 ICntrl=     500 IOpCl=  0
         NMat0=    1 NMatS0=    1 NMatT0=    0 NMatD0=    1 NMtDS0=    0 NMtDT0=    0
         I1Cent=           0 NGrid=           0.
 Symmetry not used in FoFCou.
 E= -2753.41754223393    
 DIIS: error= 7.97D-14 at cycle   1 NSaved=   1.
 NSaved= 1 IEnMin= 1 EnMin= -2753.41754223393     IErMin= 1 ErrMin= 7.97D-14
 ErrMax= 7.97D-14 EMaxC= 1.00D-01 BMatC= 2.42D-25 BMatP= 2.42D-25
 IDIUse=1 WtCom= 1.00D+00 WtEn= 0.00D+00
 Coeff-Com:  0.100D+01
 Coeff:      0.100D+01
 Gap=     0.595 Goal=   None    Shift=    0.000
 DSYEVD returned Info=          89 IAlg= 4 N=    59 NDim=    59 NE2=    18198197 trying DSYEV.
 RMSDP=5.32D-15 MaxDP=7.68D-14              OVMax= 2.43D-14

 SCF Done:  E(RLC-B+HF-LYP) =  -2753.41754223     A.U. after    1 cycles
             Convg  =    0.5324D-14             -V/T =  2.0015
 KE= 2.749372504928D+03 PE=-6.578588569976D+03 EE= 1.075798522814D+03
 Leave Link  502 at Wed May 13 23:09:19 2020, MaxMem= 1073741824 cpu:      12.2
 (Enter /home/matheus/.gaussian/g09/l122.exe)
 Restoring MOs from calculation   1 to rwf.
 Counterpoise: corrected energy =   -2904.743631921669
 Counterpoise: BSSE energy =       0.000025242056
 Leave Link  122 at Wed May 13 23:09:19 2020, MaxMem= 1073741824 cpu:       0.0
 (Enter /home/matheus/.gaussian/g09/l108.exe)
 Scan completed.

 Summary of the potential surface scan:
   N      R1          SCF    
 ----  ---------  -----------
    1     3.0000  -2753.41754
    2     3.1000  -2753.41754
    3     3.2000  -2753.41754
    4     3.3000  -2753.41754
    5     3.4000  -2753.41754
    6     3.5000  -2753.41754
    7     3.6000  -2753.41754
    8     3.7000  -2753.41754
    9     3.8000  -2753.41754
   10     3.9000  -2753.41754
   11     4.0000  -2753.41754
   12     4.1000  -2753.41754
   13     4.2000  -2753.41754
   14     4.3000  -2753.41754
   15     4.4000  -2753.41754
   16     4.5000  -2753.41754
   17     4.6000  -2753.41754
   18     4.7000  -2753.41754
   19     4.8000  -2753.41754
   20     4.9000  -2753.41754
   21     5.0000  -2753.41754
 ----  ---------  -----------
  
 Leave Link  108 at Wed May 13 23:09:19 2020, MaxMem= 1073741824 cpu:       0.0
 (Enter /home/matheus/.gaussian/g09/l9999.exe)
 1\1\GINC-REDGIANT\Scan\RLC-BLYP\Aug-CC-pVTZ\H2Kr1O2\MATHEUS\13-May-202
 0\1\\#p lc-blyp/aug-cc-PVTz int=ultrafine counterpoise=2 Scan\\TCC\\0,
 1\O,0,0.,0.,0.725\O,0,0.,0.,-0.725\H,0,-0.9047631646,0.1595341571,1.02
 35104166\H,0,0.,0.9187205947,-1.0235104166\Kr,0,0.,R1,0.\\R1=3.,s,20,0
 .1\\Version=EM64L-G09RevC.01\State=1-A\HF=-2753.4175422,-2753.4175422,
 -2753.4175422,-2753.4175422,-2753.4175422,-2753.4175422,-2753.4175422,
 -2753.4175422,-2753.4175422,-2753.4175422,-2753.4175422,-2753.4175422,
 -2753.4175422,-2753.4175422,-2753.4175422,-2753.4175422,-2753.4175422,
 -2753.4175422,-2753.4175422,-2753.4175422,-2753.4175422\RMSD=1.334e-09
 ,5.265e-11,1.630e-11,9.953e-12,5.949e-12,3.617e-12,2.188e-12,1.318e-12
 ,7.998e-13,4.918e-13,2.953e-13,1.804e-13,1.122e-13,6.582e-14,4.252e-14
 ,3.418e-14,1.437e-14,9.848e-15,7.214e-15,5.457e-15,5.324e-15\PG=C01 [X
 (H2Kr1O2)]\\@


 IF AT FIRST YOU DON'T SUCCEED, TRY LOOKING IN 
 THE WASTEBASKET FOR THE DIRECTIONS.
 Job cpu time:  0 days  3 hours 35 minutes 30.7 seconds.
 File lengths (MBytes):  RWF=     33 Int=      0 D2E=      0 Chk=      8 Scr=      1
 Normal termination of Gaussian 09 at Wed May 13 23:09:19 2020.
