 Entering Gaussian System, Link 0=g09
 Input=/home/matheus/.tcc/Inputs/Inputs-lc-blyp-default/H2O2-Kr_9.com
 Output=/home/matheus/.tcc/Logs/Logs-lc-blyp-default/H2O2-Kr_9.log
 Initial command:
 /home/matheus/.gaussian/g09/l1.exe /home/matheus/.gaussian/g09/scratch/Gau-9381.inp -scrdir=/home/matheus/.gaussian/g09/scratch/
 Entering Link 1 = /home/matheus/.gaussian/g09/l1.exe PID=      9385.
  
 Copyright (c) 1988,1990,1992,1993,1995,1998,2003,2009,2011,
            Gaussian, Inc.  All Rights Reserved.
  
 This is part of the Gaussian(R) 09 program.  It is based on
 the Gaussian(R) 03 system (copyright 2003, Gaussian, Inc.),
 the Gaussian(R) 98 system (copyright 1998, Gaussian, Inc.),
 the Gaussian(R) 94 system (copyright 1995, Gaussian, Inc.),
 the Gaussian 92(TM) system (copyright 1992, Gaussian, Inc.),
 the Gaussian 90(TM) system (copyright 1990, Gaussian, Inc.),
 the Gaussian 88(TM) system (copyright 1988, Gaussian, Inc.),
 the Gaussian 86(TM) system (copyright 1986, Carnegie Mellon
 University), and the Gaussian 82(TM) system (copyright 1983,
 Carnegie Mellon University). Gaussian is a federally registered
 trademark of Gaussian, Inc.
  
 This software contains proprietary and confidential information,
 including trade secrets, belonging to Gaussian, Inc.
  
 This software is provided under written license and may be
 used, copied, transmitted, or stored only in accord with that
 written license.
  
 The following legend is applicable only to US Government
 contracts under FAR:
  
                    RESTRICTED RIGHTS LEGEND
  
 Use, reproduction and disclosure by the US Government is
 subject to restrictions as set forth in subparagraphs (a)
 and (c) of the Commercial Computer Software - Restricted
 Rights clause in FAR 52.227-19.
  
 Gaussian, Inc.
 340 Quinnipiac St., Bldg. 40, Wallingford CT 06492
  
  
 ---------------------------------------------------------------
 Warning -- This program may not be used in any manner that
 competes with the business of Gaussian, Inc. or will provide
 assistance to any competitor of Gaussian, Inc.  The licensee
 of this program is prohibited from giving any competitor of
 Gaussian, Inc. access to this program.  By using this program,
 the user acknowledges that Gaussian, Inc. is engaged in the
 business of creating and licensing software in the field of
 computational chemistry and represents and warrants to the
 licensee that it is not a competitor of Gaussian, Inc. and that
 it will not use this program in any manner prohibited above.
 ---------------------------------------------------------------
  

 Cite this work as:
 Gaussian 09, Revision C.01,
 M. J. Frisch, G. W. Trucks, H. B. Schlegel, G. E. Scuseria, 
 M. A. Robb, J. R. Cheeseman, G. Scalmani, V. Barone, B. Mennucci, 
 G. A. Petersson, H. Nakatsuji, M. Caricato, X. Li, H. P. Hratchian, 
 A. F. Izmaylov, J. Bloino, G. Zheng, J. L. Sonnenberg, M. Hada, 
 M. Ehara, K. Toyota, R. Fukuda, J. Hasegawa, M. Ishida, T. Nakajima, 
 Y. Honda, O. Kitao, H. Nakai, T. Vreven, J. A. Montgomery, Jr., 
 J. E. Peralta, F. Ogliaro, M. Bearpark, J. J. Heyd, E. Brothers, 
 K. N. Kudin, V. N. Staroverov, T. Keith, R. Kobayashi, J. Normand, 
 K. Raghavachari, A. Rendell, J. C. Burant, S. S. Iyengar, J. Tomasi, 
 M. Cossi, N. Rega, J. M. Millam, M. Klene, J. E. Knox, J. B. Cross, 
 V. Bakken, C. Adamo, J. Jaramillo, R. Gomperts, R. E. Stratmann, 
 O. Yazyev, A. J. Austin, R. Cammi, C. Pomelli, J. W. Ochterski, 
 R. L. Martin, K. Morokuma, V. G. Zakrzewski, G. A. Voth, 
 P. Salvador, J. J. Dannenberg, S. Dapprich, A. D. Daniels, 
 O. Farkas, J. B. Foresman, J. V. Ortiz, J. Cioslowski, 
 and D. J. Fox, Gaussian, Inc., Wallingford CT, 2010.
 
 ******************************************
 Gaussian 09:  EM64L-G09RevC.01 23-Sep-2011
                13-May-2020 
 ******************************************
 %mem=8GB
 %nproc=8
 Will use up to    8 processors via shared memory.
 --------------------------------------------------------
 #p lc-blyp/aug-cc-PVTz int=ultrafine counterpoise=2 Scan
 --------------------------------------------------------
 1/38=1,60=1,62=2/1,8;
 2/12=2,17=6,18=5,29=3,40=1/2;
 1/38=1,53=5172,62=2/22;
 3/5=16,6=1,7=10,11=2,16=1,25=1,30=1,74=1000402,75=-5/1,2,3;
 4//1;
 5/5=2,38=5/2;
 6/7=2,8=2,9=2,10=2,18=1,28=1/1;
 1/53=4052,62=2,63=1/22;
 3/5=7,6=11,7=10,11=2,16=1,25=1,30=1,74=1000402,75=-5,82=7/1,2,3;
 4//1;
 5/5=2,38=5/2;
 6/7=2,8=2,9=2,10=2,18=1,28=1/1;
 1/53=3042,62=2,63=2/22;
 3/5=7,6=11,7=10,11=2,16=1,25=1,30=1,74=1000402,75=-5,82=7/1,2,3;
 4//1;
 5/5=2,38=5/2;
 6/7=2,8=2,9=2,10=2,18=1,28=1/1;
 1/53=2032,62=2,63=3/22;
 3/5=7,6=11,7=10,11=2,16=1,25=1,30=1,74=1000402,75=-5,82=7/1,2,3;
 4//1;
 5/5=2,38=5/2;
 6/7=2,8=2,9=2,10=2,18=1,28=1/1;
 1/53=1022,62=2,63=4/22;
 3/5=7,6=11,7=10,11=2,16=1,25=1,30=1,74=1000402,75=-5,82=7/1,2,3;
 4//1;
 5/5=2,38=5/2;
 6/7=2,8=2,9=2,10=2,18=1,28=1/1;
 1/53=5014,62=2,63=5/22;
 1/60=1,62=2/8(1);
 99/9=1/99;
 2/29=3/2;
 1/53=5173,62=2/22;
 3/5=7,6=11,7=10,11=2,16=1,25=1,30=1,74=1000402,75=-5,82=7/1,2,3;
 4/5=5,16=3/1;
 5/5=2,38=5/2;
 1/53=4053,62=2,63=1/22;
 3/5=7,6=11,7=10,11=2,16=1,25=1,30=1,74=1000402,75=-5,82=7/1,2,3;
 4/5=5,16=3/1;
 5/5=2,38=5/2;
 1/53=3043,62=2,63=2/22;
 3/5=7,6=11,7=10,11=2,16=1,25=1,30=1,74=1000402,75=-5,82=7/1,2,3;
 4/5=5,16=3/1;
 5/5=2,38=5/2;
 1/53=2033,62=2,63=3/22;
 3/5=7,6=11,7=10,11=2,16=1,25=1,30=1,74=1000402,75=-5,82=7/1,2,3;
 4/5=5,16=3/1;
 5/5=2,38=5/2;
 1/53=1024,62=2,63=4/22;
 3/5=7,6=11,7=10,11=2,16=1,25=1,30=1,74=1000402,75=-5,82=7/1,2,3;
 4/5=5,16=3/1;
 5/5=2,38=5/2;
 1/53=5014,62=2,63=5/22;
 1/60=1,62=2/8(-22);
 99/9=1/99;
 Leave Link    1 at Wed May 13 14:26:43 2020, MaxMem= 1073741824 cpu:       0.1
 (Enter /home/matheus/.gaussian/g09/l101.exe)
 ---
 TCC
 ---
 Charge =  0 Multiplicity = 1 in supermolecule
 Charge =  0 Multiplicity = 1 in fragment  1.
 Charge =  0 Multiplicity = 1 in fragment  2.
 Symbolic Z-Matrix:
 O(Fragment=1)         0.        0.        0.725 
 O(Fragment=1)         0.        0.       -0.725 
 H(Fragment=1)         0.91872   0.        1.02351 
 H(Fragment=1)         0.        0.91872  -1.02351 
 Kr(Fragment=2)        0.       R1        0. 
       Variables:
  R1                    3.     Scan 20    0.1    
 
 NAtoms=      5 NQM=        0 NQMF=       0 NMMI=      5 NMMIF=      0
                NMic=       0 NMicF=      0.
                    Isotopes and Nuclear Properties:
 (Nuclear quadrupole moments (NQMom) in fm**2, nuclear magnetic moments (NMagM)
  in nuclear magnetons)

  Atom         1           2           3           4           5
 IAtWgt=          16          16           1           1          84
 AtmWgt=  15.9949146  15.9949146   1.0078250   1.0078250  83.9115064
 NucSpn=           0           0           1           1           0
 AtZEff=   0.0000000   0.0000000   0.0000000   0.0000000   0.0000000
 NQMom=    0.0000000   0.0000000   0.0000000   0.0000000   0.0000000
 NMagM=    0.0000000   0.0000000   2.7928460   2.7928460   0.0000000
 Leave Link  101 at Wed May 13 14:26:44 2020, MaxMem= 1073741824 cpu:       0.3
 (Enter /home/matheus/.gaussian/g09/l108.exe)
 Scan the potential surface.
 Variable   Value     No. Steps Step-Size
 -------- ----------- --------- ---------
     1       3.000000      20      0.1000
 A total of     21 points will be computed.
 Leave Link  108 at Wed May 13 14:26:44 2020, MaxMem= 1073741824 cpu:       0.0
 (Enter /home/matheus/.gaussian/g09/l202.exe)
 ---------------------------------------------------------------------------------------------------
                            Z-MATRIX (ANGSTROMS AND DEGREES)
   CD    Cent   Atom    N1       Length/X        N2       Alpha/Y        N3        Beta/Z          J
 ---------------------------------------------------------------------------------------------------
      1      1  O        0   0.000000          0.000000          0.725000
      2      2  O        0   0.000000          0.000000         -0.725000
      3      3  H        0   0.918721          0.000000          1.023510
      4      4  H        0   0.000000          0.918721         -1.023510
      5      5  Kr       0   0.000000          3.000000          0.000000
 ---------------------------------------------------------------------------------------------------
                         Z-Matrix orientation:                         
 ---------------------------------------------------------------------
 Center     Atomic      Atomic             Coordinates (Angstroms)
 Number     Number       Type             X           Y           Z
 ---------------------------------------------------------------------
      1          8           0        0.000000    0.000000    0.725000
      2          8           0        0.000000    0.000000   -0.725000
      3          1           0        0.918721    0.000000    1.023510
      4          1           0        0.000000    0.918721   -1.023510
      5         36           0        0.000000    3.000000    0.000000
 ---------------------------------------------------------------------
                    Distance matrix (angstroms):
                    1          2          3          4          5
     1  O    0.000000
     2  O    1.450000   0.000000
     3  H    0.966000   1.975180   0.000000
     4  H    1.975180   0.966000   2.424539   0.000000
     5  Kr   3.086361   3.086361   3.300246   2.319331   0.000000
 Stoichiometry    H2KrO2
 Framework group  C1[X(H2KrO2)]
 Deg. of freedom     9
 Full point group                 C1      NOp   1
 Largest Abelian subgroup         C1      NOp   1
 Largest concise Abelian subgroup C1      NOp   1
                         Standard orientation:                         
 ---------------------------------------------------------------------
 Center     Atomic      Atomic             Coordinates (Angstroms)
 Number     Number       Type             X           Y           Z
 ---------------------------------------------------------------------
      1          8           0        2.023612   -0.696492   -0.118952
      2          8           0        2.008959    0.747023    0.017247
      3          1           0        2.043021   -1.079789    0.767536
      4          1           0        1.087415    1.033416    0.060735
      5         36           0       -0.983084   -0.009941   -0.000406
 ---------------------------------------------------------------------
 Rotational constants (GHZ):     25.5933462      2.3453767      2.1627661
 Leave Link  202 at Wed May 13 14:26:44 2020, MaxMem= 1073741824 cpu:       0.0
 (Enter /home/matheus/.gaussian/g09/l122.exe)
 Leave Link  122 at Wed May 13 14:26:44 2020, MaxMem= 1073741824 cpu:       0.0
 (Enter /home/matheus/.gaussian/g09/l301.exe)
 Standard basis: Aug-CC-pVTZ (5D, 7F)
 Ernie: Thresh=  0.10000D-02 Tol=  0.10000D-05 Strict=F.
 Ernie:  38 primitive shells out of 205 were deleted.
 There are   197 symmetry adapted basis functions of A   symmetry.
 Integral buffers will be    131072 words long.
 Raffenetti 2 integral format.
 Two-electron integral symmetry is turned on.
   197 basis functions,   415 primitive gaussians,   229 cartesian basis functions
    27 alpha electrons       27 beta electrons
       nuclear repulsion energy       149.3716944117 Hartrees.
 IExCor=10402 DFT=T Ex=LC-B+HF Corr=LYP ExCW=0 ScaHFX=  1.000000
 ScaDFX=  1.000000  1.000000  1.000000  1.000000 ScalE2=  1.000000  1.000000
 IRadAn=      5 IRanWt=     -1 IRanGd=            0 ICorTp=0
  HFx wShort=  0.000000 wLong=  0.470000 cFull=  0.000000 cShort=  0.000000 cLong=  1.000000
  DFx wShort=  0.000000 wLong=  0.470000 cFull=  0.000000 cShort=  0.000000 cLong=  1.000000
 NAtoms=    5 NActive=    5 NUniq=    5 SFac= 1.00D+00 NAtFMM=   60 NAOKFM=F Big=F
 Leave Link  301 at Wed May 13 14:26:44 2020, MaxMem= 1073741824 cpu:       0.2
 (Enter /home/matheus/.gaussian/g09/l302.exe)
 NPDir=0 NMtPBC=     1 NCelOv=     1 NCel=       1 NClECP=     1 NCelD=      1
         NCelK=      1 NCelE2=     1 NClLst=     1 CellRange=     0.0.
 One-electron integrals computed using PRISM.
 NBasis=   197 RedAO= T  NBF=   197
 NBsUse=   197 1.00D-06 NBFU=   197
 Precomputing XC quadrature grid using
 IXCGrd= 2 IRadAn=           5 IRanWt=          -1 IRanGd=           0 AccXCQ= 0.00D+00.
 NRdTot=     427 NPtTot=      123512 NUsed=      126579 NTot=      126611
 NSgBfM=   229   229   229   229   229 NAtAll=     5     5.
 Leave Link  302 at Wed May 13 14:26:44 2020, MaxMem= 1073741824 cpu:       0.9
 (Enter /home/matheus/.gaussian/g09/l303.exe)
 DipDrv:  MaxL=1.
 Leave Link  303 at Wed May 13 14:26:44 2020, MaxMem= 1073741824 cpu:       0.2
 (Enter /home/matheus/.gaussian/g09/l401.exe)
 Harris functional with IExCor=10402 diagonalized for initial guess.
 ExpMin= 2.53D-02 ExpMax= 1.17D+07 ExpMxC= 1.33D+04 IAcc=3 IRadAn=         5 AccDes= 0.00D+00
 HarFok:  IExCor=10402 AccDes= 0.00D+00 IRadAn=         5 IDoV= 1
 ScaDFX=  1.000000  1.000000  1.000000  1.000000
 FoFCou: FMM=F IPFlag=           0 FMFlag=      100000 FMFlg1=           0
         NFxFlg=           0 DoJE=T BraDBF=F KetDBF=T FulRan=T
         Omega=  0.000000  0.000000  1.000000  0.000000  0.000000 ICntrl=     500 IOpCl=  0
         NMat0=    1 NMatS0=    1 NMatT0=    0 NMatD0=    1 NMtDS0=    0 NMtDT0=    0
         I1Cent=           4 NGrid=           0.
 Petite list used in FoFCou.
 Harris En= -2891.67200752703    
 Initial guess orbital symmetries:
       Occupied  (A) (A) (A) (A) (A) (A) (A) (A) (A) (A) (A) (A)
                 (A) (A) (A) (A) (A) (A) (A) (A) (A) (A) (A) (A)
                 (A) (A) (A)
       Virtual   (A) (A) (A) (A) (A) (A) (A) (A) (A) (A) (A) (A)
                 (A) (A) (A) (A) (A) (A) (A) (A) (A) (A) (A) (A)
                 (A) (A) (A) (A) (A) (A) (A) (A) (A) (A) (A) (A)
                 (A) (A) (A) (A) (A) (A) (A) (A) (A) (A) (A) (A)
                 (A) (A) (A) (A) (A) (A) (A) (A) (A) (A) (A) (A)
                 (A) (A) (A) (A) (A) (A) (A) (A) (A) (A) (A) (A)
                 (A) (A) (A) (A) (A) (A) (A) (A) (A) (A) (A) (A)
                 (A) (A) (A) (A) (A) (A) (A) (A) (A) (A) (A) (A)
                 (A) (A) (A) (A) (A) (A) (A) (A) (A) (A) (A) (A)
                 (A) (A) (A) (A) (A) (A) (A) (A) (A) (A) (A) (A)
                 (A) (A) (A) (A) (A) (A) (A) (A) (A) (A) (A) (A)
                 (A) (A) (A) (A) (A) (A) (A) (A) (A) (A) (A) (A)
                 (A) (A) (A) (A) (A) (A) (A) (A) (A) (A) (A) (A)
                 (A) (A) (A) (A) (A) (A) (A) (A) (A) (A) (A) (A)
                 (A) (A)
 The electronic state of the initial guess is 1-A.
 Leave Link  401 at Wed May 13 14:26:44 2020, MaxMem= 1073741824 cpu:       3.9
 (Enter /home/matheus/.gaussian/g09/l502.exe)
 Closed shell SCF:
 Requested convergence on RMS density matrix=1.00D-08 within 128 cycles.
 Requested convergence on MAX density matrix=1.00D-06.
 Requested convergence on             energy=1.00D-06.
 No special actions if energy rises.
 Using DIIS extrapolation, IDIIS=  1040.
 Integral symmetry usage will be decided dynamically.
       126521 words used for storage of precomputed grid.
 IEnd=      305468 IEndB=      305468 NGot=  1073741824 MDV=  1073505667
 LenX=  1073505667 LenY=  1073452785
 Fock matrices will be formed incrementally for  20 cycles.

 Cycle   1  Pass 1  IDiag  1:
 FoFJK:  IHMeth= 1 ICntrl=     0 DoSepK=T KAlg= 1 I1Cent= 0 FoldK=F
 FoFCou: FMM=F IPFlag=           0 FMFlag=      100000 FMFlg1=           0
         NFxFlg=           0 DoJE=T BraDBF=F KetDBF=F FulRan=T
         Omega=  0.000000  0.000000  1.000000  0.000000  0.000000 ICntrl=     500 IOpCl=  0
         NMat0=    1 NMatS0=    1 NMatT0=    0 NMatD0=    1 NMtDS0=    0 NMtDT0=    0
         I1Cent=           0 NGrid=           0.
 Symmetry not used in FoFCou.
 E= -2904.63517235019    
 DIIS: error= 2.46D-02 at cycle   1 NSaved=   1.
 NSaved= 1 IEnMin= 1 EnMin= -2904.63517235019     IErMin= 1 ErrMin= 2.46D-02
 ErrMax= 2.46D-02 EMaxC= 1.00D-01 BMatC= 2.84D-01 BMatP= 2.84D-01
 IDIUse=3 WtCom= 7.54D-01 WtEn= 2.46D-01
 Coeff-Com:  0.100D+01
 Coeff-En:   0.100D+01
 Coeff:      0.100D+01
 Gap=     0.505 Goal=   None    Shift=    0.000
 GapD=    0.505 DampG=2.000 DampE=0.500 DampFc=1.0000 IDamp=-1.
 RMSDP=2.63D-03 MaxDP=1.52D-01              OVMax= 1.06D-01

 Cycle   2  Pass 1  IDiag  1:
 RMSU=  1.82D-03    CP:  1.02D+00
 FoFJK:  IHMeth= 1 ICntrl=     0 DoSepK=T KAlg= 1 I1Cent= 0 FoldK=F
 E= -2904.71097689363     Delta-E=       -0.075804543444 Rises=F Damp=F
 DIIS: error= 1.34D-02 at cycle   2 NSaved=   2.
 NSaved= 2 IEnMin= 2 EnMin= -2904.71097689363     IErMin= 2 ErrMin= 1.34D-02
 ErrMax= 1.34D-02 EMaxC= 1.00D-01 BMatC= 9.30D-02 BMatP= 2.84D-01
 IDIUse=3 WtCom= 8.66D-01 WtEn= 1.34D-01
 Coeff-Com:  0.359D+00 0.641D+00
 Coeff-En:   0.323D-01 0.968D+00
 Coeff:      0.315D+00 0.685D+00
 Gap=     0.469 Goal=   None    Shift=    0.000
 RMSDP=1.01D-03 MaxDP=6.22D-02 DE=-7.58D-02 OVMax= 3.18D-02

 Cycle   3  Pass 1  IDiag  1:
 RMSU=  3.23D-04    CP:  1.01D+00  6.58D-01
 FoFJK:  IHMeth= 1 ICntrl=     0 DoSepK=T KAlg= 1 I1Cent= 0 FoldK=F
 E= -2904.74178016691     Delta-E=       -0.030803273279 Rises=F Damp=F
 DIIS: error= 1.32D-03 at cycle   3 NSaved=   3.
 NSaved= 3 IEnMin= 3 EnMin= -2904.74178016691     IErMin= 3 ErrMin= 1.32D-03
 ErrMax= 1.32D-03 EMaxC= 1.00D-01 BMatC= 1.22D-03 BMatP= 9.30D-02
 IDIUse=3 WtCom= 9.87D-01 WtEn= 1.32D-02
 Coeff-Com:  0.680D-02 0.104D+00 0.889D+00
 Coeff-En:   0.000D+00 0.000D+00 0.100D+01
 Coeff:      0.671D-02 0.102D+00 0.891D+00
 Gap=     0.473 Goal=   None    Shift=    0.000
 RMSDP=1.50D-04 MaxDP=6.17D-03 DE=-3.08D-02 OVMax= 6.64D-03

 Cycle   4  Pass 1  IDiag  1:
 RMSU=  6.65D-05    CP:  1.02D+00  7.00D-01  1.10D+00
 FoFJK:  IHMeth= 1 ICntrl=     0 DoSepK=T KAlg= 1 I1Cent= 0 FoldK=F
 E= -2904.74230038428     Delta-E=       -0.000520217374 Rises=F Damp=F
 DIIS: error= 5.16D-04 at cycle   4 NSaved=   4.
 NSaved= 4 IEnMin= 4 EnMin= -2904.74230038428     IErMin= 4 ErrMin= 5.16D-04
 ErrMax= 5.16D-04 EMaxC= 1.00D-01 BMatC= 8.53D-05 BMatP= 1.22D-03
 IDIUse=3 WtCom= 9.95D-01 WtEn= 5.16D-03
 Coeff-Com: -0.121D-01 0.124D-01 0.313D+00 0.686D+00
 Coeff-En:   0.000D+00 0.000D+00 0.000D+00 0.100D+01
 Coeff:     -0.121D-01 0.123D-01 0.312D+00 0.688D+00
 Gap=     0.470 Goal=   None    Shift=    0.000
 RMSDP=3.74D-05 MaxDP=1.51D-03 DE=-5.20D-04 OVMax= 1.99D-03

 Cycle   5  Pass 1  IDiag  1:
 RMSU=  2.08D-05    CP:  1.02D+00  7.03D-01  1.15D+00  9.64D-01
 FoFJK:  IHMeth= 1 ICntrl=     0 DoSepK=T KAlg= 1 I1Cent= 0 FoldK=F
 E= -2904.74235657562     Delta-E=       -0.000056191339 Rises=F Damp=F
 DIIS: error= 1.47D-04 at cycle   5 NSaved=   5.
 NSaved= 5 IEnMin= 5 EnMin= -2904.74235657562     IErMin= 5 ErrMin= 1.47D-04
 ErrMax= 1.47D-04 EMaxC= 1.00D-01 BMatC= 8.57D-06 BMatP= 8.53D-05
 IDIUse=3 WtCom= 9.99D-01 WtEn= 1.47D-03
 Coeff-Com: -0.384D-02-0.667D-02-0.620D-02 0.218D+00 0.799D+00
 Coeff-En:   0.000D+00 0.000D+00 0.000D+00 0.000D+00 0.100D+01
 Coeff:     -0.383D-02-0.666D-02-0.619D-02 0.217D+00 0.799D+00
 Gap=     0.470 Goal=   None    Shift=    0.000
 RMSDP=1.53D-05 MaxDP=5.56D-04 DE=-5.62D-05 OVMax= 9.04D-04

 Cycle   6  Pass 1  IDiag  1:
 RMSU=  6.25D-06    CP:  1.02D+00  7.04D-01  1.16D+00  1.05D+00  1.01D+00
 FoFJK:  IHMeth= 1 ICntrl=     0 DoSepK=T KAlg= 1 I1Cent= 0 FoldK=F
 E= -2904.74236368457     Delta-E=       -0.000007108944 Rises=F Damp=F
 DIIS: error= 6.36D-05 at cycle   6 NSaved=   6.
 NSaved= 6 IEnMin= 6 EnMin= -2904.74236368457     IErMin= 6 ErrMin= 6.36D-05
 ErrMax= 6.36D-05 EMaxC= 1.00D-01 BMatC= 1.57D-06 BMatP= 8.57D-06
 IDIUse=1 WtCom= 1.00D+00 WtEn= 0.00D+00
 Coeff-Com: -0.598D-03-0.397D-02-0.268D-01 0.317D-01 0.339D+00 0.661D+00
 Coeff:     -0.598D-03-0.397D-02-0.268D-01 0.317D-01 0.339D+00 0.661D+00
 Gap=     0.470 Goal=   None    Shift=    0.000
 RMSDP=5.32D-06 MaxDP=1.89D-04 DE=-7.11D-06 OVMax= 3.47D-04

 Cycle   7  Pass 1  IDiag  1:
 RMSU=  2.39D-06    CP:  1.02D+00  7.05D-01  1.17D+00  1.08D+00  1.09D+00
                    CP:  9.51D-01
 FoFJK:  IHMeth= 1 ICntrl=     0 DoSepK=T KAlg= 1 I1Cent= 0 FoldK=F
 E= -2904.74236480515     Delta-E=       -0.000001120578 Rises=F Damp=F
 DIIS: error= 1.95D-05 at cycle   7 NSaved=   7.
 NSaved= 7 IEnMin= 7 EnMin= -2904.74236480515     IErMin= 7 ErrMin= 1.95D-05
 ErrMax= 1.95D-05 EMaxC= 1.00D-01 BMatC= 1.88D-07 BMatP= 1.57D-06
 IDIUse=1 WtCom= 1.00D+00 WtEn= 0.00D+00
 Coeff-Com:  0.158D-03-0.112D-02-0.102D-01-0.205D-01 0.115D-01 0.267D+00
 Coeff-Com:  0.753D+00
 Coeff:      0.158D-03-0.112D-02-0.102D-01-0.205D-01 0.115D-01 0.267D+00
 Coeff:      0.753D+00
 Gap=     0.470 Goal=   None    Shift=    0.000
 RMSDP=2.04D-06 MaxDP=6.02D-05 DE=-1.12D-06 OVMax= 1.23D-04

 Cycle   8  Pass 1  IDiag  1:
 RMSU=  6.43D-07    CP:  1.02D+00  7.05D-01  1.17D+00  1.09D+00  1.12D+00
                    CP:  1.07D+00  9.56D-01
 FoFJK:  IHMeth= 1 ICntrl=     0 DoSepK=T KAlg= 1 I1Cent= 0 FoldK=F
 E= -2904.74236497291     Delta-E=       -0.000000167764 Rises=F Damp=F
 DIIS: error= 3.85D-06 at cycle   8 NSaved=   8.
 NSaved= 8 IEnMin= 8 EnMin= -2904.74236497291     IErMin= 8 ErrMin= 3.85D-06
 ErrMax= 3.85D-06 EMaxC= 1.00D-01 BMatC= 3.03D-09 BMatP= 1.88D-07
 IDIUse=1 WtCom= 1.00D+00 WtEn= 0.00D+00
 Coeff-Com:  0.151D-04 0.316D-03 0.249D-02 0.393D-03-0.219D-01-0.644D-01
 Coeff-Com: -0.711D-01 0.115D+01
 Coeff:      0.151D-04 0.316D-03 0.249D-02 0.393D-03-0.219D-01-0.644D-01
 Coeff:     -0.711D-01 0.115D+01
 Gap=     0.470 Goal=   None    Shift=    0.000
 RMSDP=5.83D-07 MaxDP=1.61D-05 DE=-1.68D-07 OVMax= 5.77D-05

 Cycle   9  Pass 1  IDiag  1:
 RMSU=  1.62D-07    CP:  1.02D+00  7.05D-01  1.17D+00  1.09D+00  1.13D+00
                    CP:  1.10D+00  1.03D+00  1.36D+00
 FoFJK:  IHMeth= 1 ICntrl=     0 DoSepK=T KAlg= 1 I1Cent= 0 FoldK=F
 E= -2904.74236498241     Delta-E=       -0.000000009505 Rises=F Damp=F
 DIIS: error= 9.30D-07 at cycle   9 NSaved=   9.
 NSaved= 9 IEnMin= 9 EnMin= -2904.74236498241     IErMin= 9 ErrMin= 9.30D-07
 ErrMax= 9.30D-07 EMaxC= 1.00D-01 BMatC= 2.16D-10 BMatP= 3.03D-09
 IDIUse=1 WtCom= 1.00D+00 WtEn= 0.00D+00
 Coeff-Com: -0.292D-05 0.121D-03 0.791D-03 0.135D-02-0.185D-02-0.208D-01
 Coeff-Com: -0.533D-01 0.755D-01 0.998D+00
 Coeff:     -0.292D-05 0.121D-03 0.791D-03 0.135D-02-0.185D-02-0.208D-01
 Coeff:     -0.533D-01 0.755D-01 0.998D+00
 Gap=     0.470 Goal=   None    Shift=    0.000
 RMSDP=1.32D-07 MaxDP=4.46D-06 DE=-9.50D-09 OVMax= 1.25D-05

 Cycle  10  Pass 1  IDiag  1:
 RMSU=  4.75D-08    CP:  1.02D+00  7.05D-01  1.17D+00  1.09D+00  1.13D+00
                    CP:  1.10D+00  1.03D+00  1.44D+00  1.25D+00
 FoFJK:  IHMeth= 1 ICntrl=     0 DoSepK=T KAlg= 1 I1Cent= 0 FoldK=F
 E= -2904.74236498297     Delta-E=       -0.000000000558 Rises=F Damp=F
 DIIS: error= 2.40D-07 at cycle  10 NSaved=  10.
 NSaved=10 IEnMin=10 EnMin= -2904.74236498297     IErMin=10 ErrMin= 2.40D-07
 ErrMax= 2.40D-07 EMaxC= 1.00D-01 BMatC= 1.14D-11 BMatP= 2.16D-10
 IDIUse=1 WtCom= 1.00D+00 WtEn= 0.00D+00
 Coeff-Com: -0.300D-07-0.194D-04-0.161D-03-0.707D-04 0.118D-02 0.419D-02
 Coeff-Com:  0.649D-02-0.721D-01-0.284D-02 0.106D+01
 Coeff:     -0.300D-07-0.194D-04-0.161D-03-0.707D-04 0.118D-02 0.419D-02
 Coeff:      0.649D-02-0.721D-01-0.284D-02 0.106D+01
 Gap=     0.470 Goal=   None    Shift=    0.000
 RMSDP=3.82D-08 MaxDP=1.05D-06 DE=-5.58D-10 OVMax= 3.15D-06

 Cycle  11  Pass 1  IDiag  1:
 RMSU=  1.15D-08    CP:  1.02D+00  7.05D-01  1.17D+00  1.09D+00  1.13D+00
                    CP:  1.10D+00  1.03D+00  1.45D+00  1.35D+00  1.26D+00
 FoFJK:  IHMeth= 1 ICntrl=     0 DoSepK=T KAlg= 1 I1Cent= 0 FoldK=F
 E= -2904.74236498300     Delta-E=       -0.000000000030 Rises=F Damp=F
 DIIS: error= 6.54D-08 at cycle  11 NSaved=  11.
 NSaved=11 IEnMin=11 EnMin= -2904.74236498300     IErMin=11 ErrMin= 6.54D-08
 ErrMax= 6.54D-08 EMaxC= 1.00D-01 BMatC= 9.90D-13 BMatP= 1.14D-11
 IDIUse=1 WtCom= 1.00D+00 WtEn= 0.00D+00
 Coeff-Com: -0.116D-06-0.110D-04-0.640D-04-0.101D-03 0.138D-03 0.163D-02
 Coeff-Com:  0.447D-02-0.749D-02-0.715D-01-0.134D-01 0.109D+01
 Coeff:     -0.116D-06-0.110D-04-0.640D-04-0.101D-03 0.138D-03 0.163D-02
 Coeff:      0.447D-02-0.749D-02-0.715D-01-0.134D-01 0.109D+01
 Gap=     0.470 Goal=   None    Shift=    0.000
 RMSDP=1.12D-08 MaxDP=2.55D-07 DE=-3.00D-11 OVMax= 1.21D-06

 Cycle  12  Pass 1  IDiag  1:
 RMSU=  3.31D-09    CP:  1.02D+00  7.05D-01  1.17D+00  1.09D+00  1.13D+00
                    CP:  1.10D+00  1.03D+00  1.45D+00  1.37D+00  1.36D+00
                    CP:  1.31D+00
 FoFJK:  IHMeth= 1 ICntrl=     0 DoSepK=T KAlg= 1 I1Cent= 0 FoldK=F
 E= -2904.74236498303     Delta-E=       -0.000000000027 Rises=F Damp=F
 DIIS: error= 1.75D-08 at cycle  12 NSaved=  12.
 NSaved=12 IEnMin=12 EnMin= -2904.74236498303     IErMin=12 ErrMin= 1.75D-08
 ErrMax= 1.75D-08 EMaxC= 1.00D-01 BMatC= 9.32D-14 BMatP= 9.90D-13
 IDIUse=1 WtCom= 1.00D+00 WtEn= 0.00D+00
 Coeff-Com:  0.115D-06 0.300D-05 0.198D-04 0.113D-04-0.111D-03-0.511D-03
 Coeff-Com: -0.898D-03 0.668D-02 0.831D-02-0.914D-01-0.980D-01 0.118D+01
 Coeff:      0.115D-06 0.300D-05 0.198D-04 0.113D-04-0.111D-03-0.511D-03
 Coeff:     -0.898D-03 0.668D-02 0.831D-02-0.914D-01-0.980D-01 0.118D+01
 Gap=     0.470 Goal=   None    Shift=    0.000
 RMSDP=3.58D-09 MaxDP=8.06D-08 DE=-2.73D-11 OVMax= 4.84D-07

 SCF Done:  E(RLC-B+HF-LYP) =  -2904.74236498     A.U. after   12 cycles
             Convg  =    0.3579D-08             -V/T =  2.0017
 KE= 2.899836853780D+03 PE=-7.234921544849D+03 EE= 1.280970631674D+03
 Leave Link  502 at Wed May 13 14:27:20 2020, MaxMem= 1073741824 cpu:     285.3
 (Enter /home/matheus/.gaussian/g09/l601.exe)
 Copying SCF densities to generalized density rwf, IOpCl= 0 IROHF=0.

 **********************************************************************

            Population analysis using the SCF density.

 **********************************************************************

 Orbital symmetries:
       Occupied  (A) (A) (A) (A) (A) (A) (A) (A) (A) (A) (A) (A)
                 (A) (A) (A) (A) (A) (A) (A) (A) (A) (A) (A) (A)
                 (A) (A) (A)
       Virtual   (A) (A) (A) (A) (A) (A) (A) (A) (A) (A) (A) (A)
                 (A) (A) (A) (A) (A) (A) (A) (A) (A) (A) (A) (A)
                 (A) (A) (A) (A) (A) (A) (A) (A) (A) (A) (A) (A)
                 (A) (A) (A) (A) (A) (A) (A) (A) (A) (A) (A) (A)
                 (A) (A) (A) (A) (A) (A) (A) (A) (A) (A) (A) (A)
                 (A) (A) (A) (A) (A) (A) (A) (A) (A) (A) (A) (A)
                 (A) (A) (A) (A) (A) (A) (A) (A) (A) (A) (A) (A)
                 (A) (A) (A) (A) (A) (A) (A) (A) (A) (A) (A) (A)
                 (A) (A) (A) (A) (A) (A) (A) (A) (A) (A) (A) (A)
                 (A) (A) (A) (A) (A) (A) (A) (A) (A) (A) (A) (A)
                 (A) (A) (A) (A) (A) (A) (A) (A) (A) (A) (A) (A)
                 (A) (A) (A) (A) (A) (A) (A) (A) (A) (A) (A) (A)
                 (A) (A) (A) (A) (A) (A) (A) (A) (A) (A) (A) (A)
                 (A) (A) (A) (A) (A) (A) (A) (A) (A) (A) (A) (A)
                 (A) (A)
 The electronic state is 1-A.
 Alpha  occ. eigenvalues -- -511.25948 -66.72950 -60.41483 -60.41467 -60.41456
 Alpha  occ. eigenvalues --  -19.07394 -19.07057  -9.62107  -7.37599  -7.37555
 Alpha  occ. eigenvalues --   -7.37523  -3.33932  -3.33923  -3.33901  -3.33867
 Alpha  occ. eigenvalues --   -3.33864  -1.28430  -1.07960  -1.06292  -0.70930
 Alpha  occ. eigenvalues --   -0.62967  -0.57522  -0.53257  -0.52858  -0.52009
 Alpha  occ. eigenvalues --   -0.45079  -0.44624
 Alpha virt. eigenvalues --    0.02390   0.03538   0.07448   0.08694   0.09919
 Alpha virt. eigenvalues --    0.10589   0.12537   0.13061   0.16113   0.16723
 Alpha virt. eigenvalues --    0.17324   0.18946   0.19240   0.21195   0.22579
 Alpha virt. eigenvalues --    0.23951   0.25148   0.27755   0.30414   0.31740
 Alpha virt. eigenvalues --    0.32862   0.34574   0.36034   0.38022   0.38578
 Alpha virt. eigenvalues --    0.39922   0.42444   0.46761   0.52198   0.54339
 Alpha virt. eigenvalues --    0.55346   0.59965   0.60799   0.64154   0.68207
 Alpha virt. eigenvalues --    0.70915   0.71674   0.73191   0.75674   0.76042
 Alpha virt. eigenvalues --    0.76491   0.77501   0.79505   0.80462   0.82924
 Alpha virt. eigenvalues --    0.84175   0.86105   0.88232   0.89009   0.90503
 Alpha virt. eigenvalues --    0.91760   0.92679   0.94187   0.94992   0.98120
 Alpha virt. eigenvalues --    0.99947   1.03416   1.06650   1.07442   1.08745
 Alpha virt. eigenvalues --    1.09824   1.15776   1.18197   1.22433   1.23348
 Alpha virt. eigenvalues --    1.25050   1.28380   1.36104   1.37641   1.40851
 Alpha virt. eigenvalues --    1.44181   1.48973   1.51385   1.54454   1.59315
 Alpha virt. eigenvalues --    1.69267   1.71702   1.83282   1.92709   1.96641
 Alpha virt. eigenvalues --    1.99815   2.04630   2.06410   2.11362   2.14822
 Alpha virt. eigenvalues --    2.17613   2.19352   2.20644   2.23981   2.27238
 Alpha virt. eigenvalues --    2.28941   2.30911   2.31908   2.32516   2.33916
 Alpha virt. eigenvalues --    2.39469   2.39971   2.46904   2.47427   2.48616
 Alpha virt. eigenvalues --    2.51248   2.51392   2.53704   2.57447   2.59361
 Alpha virt. eigenvalues --    2.61699   2.64109   2.68349   2.69477   2.72507
 Alpha virt. eigenvalues --    2.74746   2.76419   2.78380   2.85478   2.89204
 Alpha virt. eigenvalues --    2.96275   3.05707   3.12182   3.14888   3.63999
 Alpha virt. eigenvalues --    3.66106   3.91690   3.93972   4.00620   4.09170
 Alpha virt. eigenvalues --    4.18202   4.20496   4.21924   4.26010   4.30179
 Alpha virt. eigenvalues --    4.34937   4.49632   4.51645   4.56506   4.70553
 Alpha virt. eigenvalues --    4.92885   4.98490   5.00225   5.16914   5.17880
 Alpha virt. eigenvalues --    5.22390   5.43871   5.85705   6.04911   6.15362
 Alpha virt. eigenvalues --    6.21541   6.30477   6.32308   6.48040   6.50294
 Alpha virt. eigenvalues --    6.60895   6.78424   6.79098   6.82449   6.85559
 Alpha virt. eigenvalues --    6.89437   6.90890   6.92660   6.99719   7.01674
 Alpha virt. eigenvalues --    7.08443   7.13959   7.24393   7.46328   7.61249
 Alpha virt. eigenvalues --    7.79361   8.09963   8.12624  13.99765  14.59274
          Condensed to atoms (all electrons):
              1          2          3          4          5
     1  O    8.235156  -0.176374   0.178397   0.004472  -0.029660
     2  O   -0.176374   8.189937   0.020132   0.204376  -0.015210
     3  H    0.178397   0.020132   0.589846  -0.001254  -0.000699
     4  H    0.004472   0.204376  -0.001254   0.589988  -0.003166
     5  Kr  -0.029660  -0.015210  -0.000699  -0.003166  36.033042
 Mulliken atomic charges:
              1
     1  O   -0.211991
     2  O   -0.222862
     3  H    0.213577
     4  H    0.205584
     5  Kr   0.015692
 Sum of Mulliken atomic charges =   0.00000
 Mulliken charges with hydrogens summed into heavy atoms:
              1
     1  O    0.001585
     2  O   -0.017278
     5  Kr   0.015692
 Sum of Mulliken charges with hydrogens summed into heavy atoms =   0.00000
          Condensed to fragments (all electrons):
     1      -0.015692
     2       0.015692
 Electronic spatial extent (au):  <R**2>=            484.9321
 Charge=              0.0000 electrons
 Dipole moment (field-independent basis, Debye):
    X=             -1.8273    Y=             -0.4075    Z=              1.5431  Tot=              2.4262
 Quadrupole moment (field-independent basis, Debye-Ang):
   XX=            -35.2396   YY=            -28.2178   ZZ=            -29.2815
   XY=             -2.3598   XZ=              3.3552   YZ=             -1.9088
 Traceless Quadrupole moment (field-independent basis, Debye-Ang):
   XX=             -4.3267   YY=              2.6952   ZZ=              1.6315
   XY=             -2.3598   XZ=              3.3552   YZ=             -1.9088
 Octapole moment (field-independent basis, Debye-Ang**2):
  XXX=            -35.7950  YYY=             -1.1444  ZZZ=              1.2653  XYY=             -5.5481
  XXY=             -7.4126  XXZ=              6.6231  XZZ=             -5.6150  YZZ=             -1.9335
  YYZ=              2.3904  XYZ=             -4.0663
 Hexadecapole moment (field-independent basis, Debye-Ang**3):
 XXXX=           -459.1875 YYYY=            -64.7615 ZZZZ=            -30.7296 XXXY=            -16.0632
 XXXZ=             14.6551 YYYX=             -4.3974 YYYZ=             -2.8254 ZZZX=              3.1608
 ZZZY=             -2.0993 XXYY=            -82.2505 XXZZ=            -72.8575 YYZZ=            -16.3220
 XXYZ=             -8.7848 YYXZ=              4.9239 ZZXY=             -3.7466
 N-N= 1.493716944117D+02 E-N=-7.234921546749D+03  KE= 2.899836853780D+03
 No NMR shielding tensors so no spin-rotation constants.
 Leave Link  601 at Wed May 13 14:27:20 2020, MaxMem= 1073741824 cpu:       0.8
 (Enter /home/matheus/.gaussian/g09/l122.exe)
 Counterpoise: doing DCBS calculation for fragment   1 NewBq=T
 Leave Link  122 at Wed May 13 14:27:20 2020, MaxMem= 1073741824 cpu:       0.0
 (Enter /home/matheus/.gaussian/g09/l301.exe)
 Basis read from rwf:  (5D, 7F)
 No pseudopotential information found on rwf file.
 There are   197 symmetry adapted basis functions of A   symmetry.
 Integral buffers will be    131072 words long.
 Raffenetti 2 integral format.
 Two-electron integral symmetry is turned on.
   197 basis functions,   415 primitive gaussians,   229 cartesian basis functions
     9 alpha electrons        9 beta electrons
       nuclear repulsion energy        36.6265003879 Hartrees.
 IExCor=10402 DFT=T Ex=LC-B+HF Corr=LYP ExCW=0 ScaHFX=  1.000000
 ScaDFX=  1.000000  1.000000  1.000000  1.000000 ScalE2=  1.000000  1.000000
 IRadAn=      5 IRanWt=     -1 IRanGd=            0 ICorTp=0
  HFx wShort=  0.000000 wLong=  0.470000 cFull=  0.000000 cShort=  0.000000 cLong=  1.000000
  DFx wShort=  0.000000 wLong=  0.470000 cFull=  0.000000 cShort=  0.000000 cLong=  1.000000
 NAtoms=    5 NActive=    5 NUniq=    5 SFac= 1.00D+00 NAtFMM=   60 NAOKFM=F Big=F
 No density basis found on file   718.
 Leave Link  301 at Wed May 13 14:27:20 2020, MaxMem= 1073741824 cpu:       0.2
 (Enter /home/matheus/.gaussian/g09/l302.exe)
 NPDir=0 NMtPBC=     1 NCelOv=     1 NCel=       1 NClECP=     1 NCelD=      1
         NCelK=      1 NCelE2=     1 NClLst=     1 CellRange=     0.0.
 One-electron integrals computed using PRISM.
 NBasis=   197 RedAO= T  NBF=   197
 NBsUse=   197 1.00D-06 NBFU=   197
 Precomputing XC quadrature grid using
 IXCGrd= 2 IRadAn=           5 IRanWt=          -1 IRanGd=           0 AccXCQ= 0.00D+00.
 NRdTot=     427 NPtTot=      123512 NUsed=      126579 NTot=      126611
 NSgBfM=   229   229   229   229   229 NAtAll=     5     5.
 Leave Link  302 at Wed May 13 14:27:20 2020, MaxMem= 1073741824 cpu:       1.0
 (Enter /home/matheus/.gaussian/g09/l303.exe)
 DipDrv:  MaxL=1.
 Leave Link  303 at Wed May 13 14:27:20 2020, MaxMem= 1073741824 cpu:       0.2
 (Enter /home/matheus/.gaussian/g09/l401.exe)
 Harris functional with IExCor=10402 diagonalized for initial guess.
 ExpMin= 2.53D-02 ExpMax= 1.17D+07 ExpMxC= 1.33D+04 IAcc=3 IRadAn=         5 AccDes= 0.00D+00
 HarFok:  IExCor=10402 AccDes= 0.00D+00 IRadAn=         5 IDoV= 1
 ScaDFX=  1.000000  1.000000  1.000000  1.000000
 FoFCou: FMM=F IPFlag=           0 FMFlag=      100000 FMFlg1=           0
         NFxFlg=           0 DoJE=T BraDBF=F KetDBF=T FulRan=T
         Omega=  0.000000  0.000000  1.000000  0.000000  0.000000 ICntrl=     500 IOpCl=  0
         NMat0=    1 NMatS0=    1 NMatT0=    0 NMatD0=    1 NMtDS0=    0 NMtDT0=    0
         I1Cent=           4 NGrid=           0.
 Petite list used in FoFCou.
 Harris En= -147.165594760204    
 Initial guess orbital symmetries:
       Occupied  (A) (A) (A) (A) (A) (A) (A) (A) (A)
       Virtual   (A) (A) (A) (A) (A) (A) (A) (A) (A) (A) (A) (A)
                 (A) (A) (A) (A) (A) (A) (A) (A) (A) (A) (A) (A)
                 (A) (A) (A) (A) (A) (A) (A) (A) (A) (A) (A) (A)
                 (A) (A) (A) (A) (A) (A) (A) (A) (A) (A) (A) (A)
                 (A) (A) (A) (A) (A) (A) (A) (A) (A) (A) (A) (A)
                 (A) (A) (A) (A) (A) (A) (A) (A) (A) (A) (A) (A)
                 (A) (A) (A) (A) (A) (A) (A) (A) (A) (A) (A) (A)
                 (A) (A) (A) (A) (A) (A) (A) (A) (A) (A) (A) (A)
                 (A) (A) (A) (A) (A) (A) (A) (A) (A) (A) (A) (A)
                 (A) (A) (A) (A) (A) (A) (A) (A) (A) (A) (A) (A)
                 (A) (A) (A) (A) (A) (A) (A) (A) (A) (A) (A) (A)
                 (A) (A) (A) (A) (A) (A) (A) (A) (A) (A) (A) (A)
                 (A) (A) (A) (A) (A) (A) (A) (A) (A) (A) (A) (A)
                 (A) (A) (A) (A) (A) (A) (A) (A) (A) (A) (A) (A)
                 (A) (A) (A) (A) (A) (A) (A) (A) (A) (A) (A) (A)
                 (A) (A) (A) (A) (A) (A) (A) (A)
 The electronic state of the initial guess is 1-A.
 Leave Link  401 at Wed May 13 14:27:21 2020, MaxMem= 1073741824 cpu:       4.1
 (Enter /home/matheus/.gaussian/g09/l502.exe)
 Closed shell SCF:
 Requested convergence on RMS density matrix=1.00D-08 within 128 cycles.
 Requested convergence on MAX density matrix=1.00D-06.
 Requested convergence on             energy=1.00D-06.
 No special actions if energy rises.
 Using DIIS extrapolation, IDIIS=  1040.
 Integral symmetry usage will be decided dynamically.
       126521 words used for storage of precomputed grid.
 IEnd=      305468 IEndB=      305468 NGot=  1073741824 MDV=  1073505667
 LenX=  1073505667 LenY=  1073452785
 Fock matrices will be formed incrementally for  20 cycles.

 Cycle   1  Pass 1  IDiag  1:
 FoFJK:  IHMeth= 1 ICntrl=     0 DoSepK=T KAlg= 1 I1Cent= 0 FoldK=F
 FoFCou: FMM=F IPFlag=           0 FMFlag=      100000 FMFlg1=           0
         NFxFlg=           0 DoJE=T BraDBF=F KetDBF=F FulRan=T
         Omega=  0.000000  0.000000  1.000000  0.000000  0.000000 ICntrl=     500 IOpCl=  0
         NMat0=    1 NMatS0=    1 NMatT0=    0 NMatD0=    1 NMtDS0=    0 NMtDT0=    0
         I1Cent=           0 NGrid=           0.
 Symmetry not used in FoFCou.
 E= -151.304277617294    
 DIIS: error= 8.84D-03 at cycle   1 NSaved=   1.
 NSaved= 1 IEnMin= 1 EnMin= -151.304277617294     IErMin= 1 ErrMin= 8.84D-03
 ErrMax= 8.84D-03 EMaxC= 1.00D-01 BMatC= 2.24D-02 BMatP= 2.24D-02
 IDIUse=3 WtCom= 9.12D-01 WtEn= 8.84D-02
 Coeff-Com:  0.100D+01
 Coeff-En:   0.100D+01
 Coeff:      0.100D+01
 Gap=     0.502 Goal=   None    Shift=    0.000
 GapD=    0.502 DampG=2.000 DampE=1.000 DampFc=2.0000 IDamp=-1.
 RMSDP=8.41D-04 MaxDP=2.74D-02              OVMax= 5.15D-02

 Cycle   2  Pass 1  IDiag  1:
 RMSU=  5.94D-04    CP:  1.00D+00
 FoFJK:  IHMeth= 1 ICntrl=     0 DoSepK=T KAlg= 1 I1Cent= 0 FoldK=F
 E= -151.323335471435     Delta-E=       -0.019057854140 Rises=F Damp=F
 DIIS: error= 4.94D-03 at cycle   2 NSaved=   2.
 NSaved= 2 IEnMin= 2 EnMin= -151.323335471435     IErMin= 2 ErrMin= 4.94D-03
 ErrMax= 4.94D-03 EMaxC= 1.00D-01 BMatC= 4.98D-03 BMatP= 2.24D-02
 IDIUse=3 WtCom= 9.51D-01 WtEn= 4.94D-02
 Coeff-Com:  0.274D+00 0.726D+00
 Coeff-En:   0.000D+00 0.100D+01
 Coeff:      0.260D+00 0.740D+00
 Gap=     0.462 Goal=   None    Shift=    0.000
 RMSDP=2.16D-04 MaxDP=6.60D-03 DE=-1.91D-02 OVMax= 1.47D-02

 Cycle   3  Pass 1  IDiag  1:
 RMSU=  1.53D-04    CP:  1.00D+00  1.00D+00
 FoFJK:  IHMeth= 1 ICntrl=     0 DoSepK=T KAlg= 1 I1Cent= 0 FoldK=F
 E= -151.326148501760     Delta-E=       -0.002813030325 Rises=F Damp=F
 DIIS: error= 1.65D-03 at cycle   3 NSaved=   3.
 NSaved= 3 IEnMin= 3 EnMin= -151.326148501760     IErMin= 3 ErrMin= 1.65D-03
 ErrMax= 1.65D-03 EMaxC= 1.00D-01 BMatC= 5.69D-04 BMatP= 4.98D-03
 IDIUse=3 WtCom= 9.84D-01 WtEn= 1.65D-02
 Coeff-Com:  0.203D-01 0.240D+00 0.740D+00
 Coeff-En:   0.000D+00 0.000D+00 0.100D+01
 Coeff:      0.199D-01 0.236D+00 0.744D+00
 Gap=     0.471 Goal=   None    Shift=    0.000
 RMSDP=1.02D-04 MaxDP=3.41D-03 DE=-2.81D-03 OVMax= 6.92D-03

 Cycle   4  Pass 1  IDiag  1:
 RMSU=  5.08D-05    CP:  1.00D+00  1.08D+00  9.49D-01
 FoFJK:  IHMeth= 1 ICntrl=     0 DoSepK=T KAlg= 1 I1Cent= 0 FoldK=F
 E= -151.326581304323     Delta-E=       -0.000432802563 Rises=F Damp=F
 DIIS: error= 3.15D-04 at cycle   4 NSaved=   4.
 NSaved= 4 IEnMin= 4 EnMin= -151.326581304323     IErMin= 4 ErrMin= 3.15D-04
 ErrMax= 3.15D-04 EMaxC= 1.00D-01 BMatC= 3.43D-05 BMatP= 5.69D-04
 IDIUse=3 WtCom= 9.97D-01 WtEn= 3.15D-03
 Coeff-Com: -0.216D-01-0.341D-01 0.139D+00 0.917D+00
 Coeff-En:   0.000D+00 0.000D+00 0.000D+00 0.100D+01
 Coeff:     -0.216D-01-0.339D-01 0.139D+00 0.917D+00
 Gap=     0.468 Goal=   None    Shift=    0.000
 RMSDP=3.89D-05 MaxDP=1.46D-03 DE=-4.33D-04 OVMax= 1.89D-03

 Cycle   5  Pass 1  IDiag  1:
 RMSU=  9.90D-06    CP:  1.00D+00  1.11D+00  1.08D+00  1.13D+00
 FoFJK:  IHMeth= 1 ICntrl=     0 DoSepK=T KAlg= 1 I1Cent= 0 FoldK=F
 E= -151.326615739188     Delta-E=       -0.000034434865 Rises=F Damp=F
 DIIS: error= 4.18D-05 at cycle   5 NSaved=   5.
 NSaved= 5 IEnMin= 5 EnMin= -151.326615739188     IErMin= 5 ErrMin= 4.18D-05
 ErrMax= 4.18D-05 EMaxC= 1.00D-01 BMatC= 4.27D-07 BMatP= 3.43D-05
 IDIUse=1 WtCom= 1.00D+00 WtEn= 0.00D+00
 Coeff-Com:  0.801D-03-0.423D-02-0.359D-01-0.771D-01 0.112D+01
 Coeff:      0.801D-03-0.423D-02-0.359D-01-0.771D-01 0.112D+01
 Gap=     0.468 Goal=   None    Shift=    0.000
 RMSDP=9.65D-06 MaxDP=3.80D-04 DE=-3.44D-05 OVMax= 6.43D-04

 Cycle   6  Pass 1  IDiag  1:
 RMSU=  2.15D-06    CP:  1.00D+00  1.11D+00  1.10D+00  1.21D+00  1.28D+00
 FoFJK:  IHMeth= 1 ICntrl=     0 DoSepK=T KAlg= 1 I1Cent= 0 FoldK=F
 E= -151.326617180527     Delta-E=       -0.000001441339 Rises=F Damp=F
 DIIS: error= 1.37D-05 at cycle   6 NSaved=   6.
 NSaved= 6 IEnMin= 6 EnMin= -151.326617180527     IErMin= 6 ErrMin= 1.37D-05
 ErrMax= 1.37D-05 EMaxC= 1.00D-01 BMatC= 2.40D-08 BMatP= 4.27D-07
 IDIUse=1 WtCom= 1.00D+00 WtEn= 0.00D+00
 Coeff-Com:  0.319D-03 0.615D-03-0.207D-02-0.150D-01-0.644D-01 0.108D+01
 Coeff:      0.319D-03 0.615D-03-0.207D-02-0.150D-01-0.644D-01 0.108D+01
 Gap=     0.468 Goal=   None    Shift=    0.000
 RMSDP=1.57D-06 MaxDP=4.21D-05 DE=-1.44D-06 OVMax= 1.58D-04

 Cycle   7  Pass 1  IDiag  1:
 RMSU=  3.85D-07    CP:  1.00D+00  1.11D+00  1.10D+00  1.22D+00  1.33D+00
                    CP:  1.31D+00
 FoFJK:  IHMeth= 1 ICntrl=     0 DoSepK=T KAlg= 1 I1Cent= 0 FoldK=F
 E= -151.326617257060     Delta-E=       -0.000000076533 Rises=F Damp=F
 DIIS: error= 3.26D-06 at cycle   7 NSaved=   7.
 NSaved= 7 IEnMin= 7 EnMin= -151.326617257060     IErMin= 7 ErrMin= 3.26D-06
 ErrMax= 3.26D-06 EMaxC= 1.00D-01 BMatC= 2.34D-09 BMatP= 2.40D-08
 IDIUse=1 WtCom= 1.00D+00 WtEn= 0.00D+00
 Coeff-Com:  0.183D-04 0.377D-03 0.200D-02 0.319D-02-0.807D-01 0.522D-01
 Coeff-Com:  0.102D+01
 Coeff:      0.183D-04 0.377D-03 0.200D-02 0.319D-02-0.807D-01 0.522D-01
 Coeff:      0.102D+01
 Gap=     0.468 Goal=   None    Shift=    0.000
 RMSDP=4.14D-07 MaxDP=1.37D-05 DE=-7.65D-08 OVMax= 5.56D-05

 Cycle   8  Pass 1  IDiag  1:
 RMSU=  1.65D-07    CP:  1.00D+00  1.11D+00  1.10D+00  1.22D+00  1.34D+00
                    CP:  1.39D+00  1.30D+00
 FoFJK:  IHMeth= 1 ICntrl=     0 DoSepK=T KAlg= 1 I1Cent= 0 FoldK=F
 E= -151.326617263526     Delta-E=       -0.000000006467 Rises=F Damp=F
 DIIS: error= 1.64D-06 at cycle   8 NSaved=   8.
 NSaved= 8 IEnMin= 8 EnMin= -151.326617263526     IErMin= 8 ErrMin= 1.64D-06
 ErrMax= 1.64D-06 EMaxC= 1.00D-01 BMatC= 1.02D-09 BMatP= 2.34D-09
 IDIUse=1 WtCom= 1.00D+00 WtEn= 0.00D+00
 Coeff-Com: -0.632D-05 0.163D-03 0.105D-02 0.230D-02-0.346D-01-0.393D-01
 Coeff-Com:  0.495D+00 0.575D+00
 Coeff:     -0.632D-05 0.163D-03 0.105D-02 0.230D-02-0.346D-01-0.393D-01
 Coeff:      0.495D+00 0.575D+00
 Gap=     0.468 Goal=   None    Shift=    0.000
 RMSDP=1.04D-07 MaxDP=3.11D-06 DE=-6.47D-09 OVMax= 1.13D-05

 Cycle   9  Pass 1  IDiag  1:
 RMSU=  5.74D-08    CP:  1.00D+00  1.11D+00  1.10D+00  1.22D+00  1.34D+00
                    CP:  1.39D+00  1.41D+00  9.90D-01
 FoFJK:  IHMeth= 1 ICntrl=     0 DoSepK=T KAlg= 1 I1Cent= 0 FoldK=F
 E= -151.326617264363     Delta-E=       -0.000000000837 Rises=F Damp=F
 DIIS: error= 4.23D-07 at cycle   9 NSaved=   9.
 NSaved= 9 IEnMin= 9 EnMin= -151.326617264363     IErMin= 9 ErrMin= 4.23D-07
 ErrMax= 4.23D-07 EMaxC= 1.00D-01 BMatC= 8.18D-11 BMatP= 1.02D-09
 IDIUse=1 WtCom= 1.00D+00 WtEn= 0.00D+00
 Coeff-Com: -0.653D-05-0.301D-04-0.197D-03-0.127D-03 0.100D-01-0.264D-01
 Coeff-Com: -0.111D+00 0.155D+00 0.973D+00
 Coeff:     -0.653D-05-0.301D-04-0.197D-03-0.127D-03 0.100D-01-0.264D-01
 Coeff:     -0.111D+00 0.155D+00 0.973D+00
 Gap=     0.468 Goal=   None    Shift=    0.000
 RMSDP=7.31D-08 MaxDP=2.03D-06 DE=-8.37D-10 OVMax= 8.89D-06

 Cycle  10  Pass 1  IDiag  1:
 RMSU=  1.73D-08    CP:  1.00D+00  1.11D+00  1.10D+00  1.22D+00  1.33D+00
                    CP:  1.39D+00  1.47D+00  1.18D+00  1.13D+00
 FoFJK:  IHMeth= 1 ICntrl=     0 DoSepK=T KAlg= 1 I1Cent= 0 FoldK=F
 E= -151.326617264524     Delta-E=       -0.000000000161 Rises=F Damp=F
 DIIS: error= 1.27D-07 at cycle  10 NSaved=  10.
 NSaved=10 IEnMin=10 EnMin= -151.326617264524     IErMin=10 ErrMin= 1.27D-07
 ErrMax= 1.27D-07 EMaxC= 1.00D-01 BMatC= 1.83D-12 BMatP= 8.18D-11
 IDIUse=1 WtCom= 1.00D+00 WtEn= 0.00D+00
 Coeff-Com:  0.184D-05-0.107D-05-0.398D-04-0.151D-03 0.919D-03 0.464D-02
 Coeff-Com: -0.130D-01-0.498D-01-0.114D+00 0.117D+01
 Coeff:      0.184D-05-0.107D-05-0.398D-04-0.151D-03 0.919D-03 0.464D-02
 Coeff:     -0.130D-01-0.498D-01-0.114D+00 0.117D+01
 Gap=     0.468 Goal=   None    Shift=    0.000
 RMSDP=1.69D-08 MaxDP=3.88D-07 DE=-1.61D-10 OVMax= 2.37D-06

 Cycle  11  Pass 1  IDiag  1:
 RMSU=  3.14D-09    CP:  1.00D+00  1.11D+00  1.10D+00  1.22D+00  1.33D+00
                    CP:  1.39D+00  1.48D+00  1.21D+00  1.21D+00  1.41D+00
 FoFJK:  IHMeth= 1 ICntrl=     0 DoSepK=T KAlg= 1 I1Cent= 0 FoldK=F
 E= -151.326617264532     Delta-E=       -0.000000000008 Rises=F Damp=F
 DIIS: error= 2.61D-08 at cycle  11 NSaved=  11.
 NSaved=11 IEnMin=11 EnMin= -151.326617264532     IErMin=11 ErrMin= 2.61D-08
 ErrMax= 2.61D-08 EMaxC= 1.00D-01 BMatC= 1.21D-13 BMatP= 1.83D-12
 IDIUse=1 WtCom= 1.00D+00 WtEn= 0.00D+00
 Coeff-Com:  0.598D-07 0.260D-05 0.187D-04 0.189D-04-0.765D-03 0.117D-02
 Coeff-Com:  0.904D-02-0.305D-02-0.468D-01-0.165D+00 0.121D+01
 Coeff:      0.598D-07 0.260D-05 0.187D-04 0.189D-04-0.765D-03 0.117D-02
 Coeff:      0.904D-02-0.305D-02-0.468D-01-0.165D+00 0.121D+01
 Gap=     0.468 Goal=   None    Shift=    0.000
 RMSDP=4.25D-09 MaxDP=8.80D-08 DE=-8.24D-12 OVMax= 5.39D-07

 SCF Done:  E(RLC-B+HF-LYP) =  -151.326617265     A.U. after   11 cycles
             Convg  =    0.4252D-08             -V/T =  2.0057
 KE= 1.504675439671D+02 PE=-4.314076198255D+02 EE= 9.298695820599D+01
 Leave Link  502 at Wed May 13 14:27:52 2020, MaxMem= 1073741824 cpu:     251.7
 (Enter /home/matheus/.gaussian/g09/l601.exe)
 Copying SCF densities to generalized density rwf, IOpCl= 0 IROHF=0.

 **********************************************************************

            Population analysis using the SCF density.

 **********************************************************************

 Orbital symmetries:
       Occupied  (A) (A) (A) (A) (A) (A) (A) (A) (A)
       Virtual   (A) (A) (A) (A) (A) (A) (A) (A) (A) (A) (A) (A)
                 (A) (A) (A) (A) (A) (A) (A) (A) (A) (A) (A) (A)
                 (A) (A) (A) (A) (A) (A) (A) (A) (A) (A) (A) (A)
                 (A) (A) (A) (A) (A) (A) (A) (A) (A) (A) (A) (A)
                 (A) (A) (A) (A) (A) (A) (A) (A) (A) (A) (A) (A)
                 (A) (A) (A) (A) (A) (A) (A) (A) (A) (A) (A) (A)
                 (A) (A) (A) (A) (A) (A) (A) (A) (A) (A) (A) (A)
                 (A) (A) (A) (A) (A) (A) (A) (A) (A) (A) (A) (A)
                 (A) (A) (A) (A) (A) (A) (A) (A) (A) (A) (A) (A)
                 (A) (A) (A) (A) (A) (A) (A) (A) (A) (A) (A) (A)
                 (A) (A) (A) (A) (A) (A) (A) (A) (A) (A) (A) (A)
                 (A) (A) (A) (A) (A) (A) (A) (A) (A) (A) (A) (A)
                 (A) (A) (A) (A) (A) (A) (A) (A) (A) (A) (A) (A)
                 (A) (A) (A) (A) (A) (A) (A) (A) (A) (A) (A) (A)
                 (A) (A) (A) (A) (A) (A) (A) (A) (A) (A) (A) (A)
                 (A) (A) (A) (A) (A) (A) (A) (A)
 The electronic state is 1-A.
 Alpha  occ. eigenvalues --  -19.07618 -19.07616  -1.28655  -1.06638  -0.71001
 Alpha  occ. eigenvalues --   -0.62557  -0.57372  -0.45443  -0.44977
 Alpha virt. eigenvalues --    0.01856   0.03151   0.06725   0.07969   0.09844
 Alpha virt. eigenvalues --    0.10044   0.10187   0.13141   0.16050   0.16616
 Alpha virt. eigenvalues --    0.17784   0.18090   0.20120   0.21790   0.24637
 Alpha virt. eigenvalues --    0.25589   0.29557   0.30169   0.31181   0.32385
 Alpha virt. eigenvalues --    0.33097   0.36790   0.36897   0.38879   0.40170
 Alpha virt. eigenvalues --    0.42574   0.43721   0.46334   0.47023   0.48752
 Alpha virt. eigenvalues --    0.52311   0.56845   0.60438   0.61369   0.65446
 Alpha virt. eigenvalues --    0.70120   0.73786   0.75681   0.76781   0.78546
 Alpha virt. eigenvalues --    0.79912   0.80554   0.87364   0.88048   0.89546
 Alpha virt. eigenvalues --    0.90345   0.91869   0.93105   0.95125   0.95685
 Alpha virt. eigenvalues --    0.98312   0.99519   1.03727   1.08700   1.11967
 Alpha virt. eigenvalues --    1.12661   1.14891   1.19715   1.21478   1.23031
 Alpha virt. eigenvalues --    1.25372   1.27808   1.29351   1.30665   1.32367
 Alpha virt. eigenvalues --    1.33403   1.34006   1.37180   1.38378   1.41235
 Alpha virt. eigenvalues --    1.43997   1.47838   1.48891   1.51238   1.54993
 Alpha virt. eigenvalues --    1.59234   1.65733   1.66157   1.71125   1.77674
 Alpha virt. eigenvalues --    1.82483   1.86131   1.95059   1.97713   2.04492
 Alpha virt. eigenvalues --    2.05792   2.07947   2.16584   2.20834   2.24925
 Alpha virt. eigenvalues --    2.28089   2.31392   2.36776   2.38266   2.39105
 Alpha virt. eigenvalues --    2.48476   2.53186   2.56551   2.61970   2.65316
 Alpha virt. eigenvalues --    2.68898   2.72325   2.81138   2.87153   2.95086
 Alpha virt. eigenvalues --    3.04246   3.11286   3.12450   3.25314   3.29496
 Alpha virt. eigenvalues --    3.40409   3.53720   3.60376   3.67611   3.77803
 Alpha virt. eigenvalues --    3.77844   3.81428   3.81438   3.82003   3.82696
 Alpha virt. eigenvalues --    3.86589   3.88623   3.93373   3.94344   3.95847
 Alpha virt. eigenvalues --    3.97444   4.01376   4.05630   4.11024   4.19080
 Alpha virt. eigenvalues --    4.20477   4.21694   4.27176   4.31947   4.36102
 Alpha virt. eigenvalues --    4.41091   4.50890   4.57400   4.70625   4.93082
 Alpha virt. eigenvalues --    4.98663   5.00732   5.16983   5.18210   5.22737
 Alpha virt. eigenvalues --    5.43725   5.85554   6.04431   6.15330   6.21384
 Alpha virt. eigenvalues --    6.30399   6.32197   6.47919   6.50202   6.60717
 Alpha virt. eigenvalues --    6.78233   6.78793   6.82038   6.85282   6.89307
 Alpha virt. eigenvalues --    6.90583   6.92443   6.99477   7.01456   7.08276
 Alpha virt. eigenvalues --    7.13702   7.24204   7.46125   7.61027   7.79092
 Alpha virt. eigenvalues --    8.09663   8.11806  10.87240  13.99353  14.58715
 Alpha virt. eigenvalues --   14.82792  14.87223  15.08817  29.02510  29.02616
 Alpha virt. eigenvalues --   29.07329  29.12590  29.22306  49.08682 148.31021
 Alpha virt. eigenvalues --  148.37701 148.69892 752.47577
          Condensed to atoms (all electrons):
              1          2          3          4          5
     1  O    8.200299  -0.171365   0.177506   0.004257  -0.001664
     2  O   -0.171365   8.170969   0.019628   0.199222  -0.000181
     3  H    0.177506   0.019628   0.597649  -0.000190  -0.000316
     4  H    0.004257   0.199222  -0.000190   0.585104  -0.004288
     5  Kr  -0.001664  -0.000181  -0.000316  -0.004288   0.000763
 Mulliken atomic charges:
              1
     1  O   -0.209033
     2  O   -0.218273
     3  H    0.205725
     4  H    0.215895
     5  Kr   0.005686
 Sum of Mulliken atomic charges =   0.00000
 Mulliken charges with hydrogens summed into heavy atoms:
              1
     1  O   -0.003308
     2  O   -0.002378
     5  Kr   0.005686
 Sum of Mulliken charges with hydrogens summed into heavy atoms =   0.00000
          Condensed to fragments (all electrons):
     1      -0.005686
     2       0.005686
 Electronic spatial extent (au):  <R**2>=            321.1948
 Charge=              0.0000 electrons
 Dipole moment (field-independent basis, Debye):
    X=             -1.6095    Y=             -0.1730    Z=              1.6583  Tot=              2.3174
 Quadrupole moment (field-independent basis, Debye-Ang):
   XX=            -17.5217   YY=            -10.4954   ZZ=            -11.6213
   XY=             -2.4915   XZ=              3.2709   YZ=             -1.9249
 Traceless Quadrupole moment (field-independent basis, Debye-Ang):
   XX=             -4.3089   YY=              2.7174   ZZ=              1.5915
   XY=             -2.4915   XZ=              3.2709   YZ=             -1.9249
 Octapole moment (field-independent basis, Debye-Ang**2):
  XXX=            -86.7699  YYY=             -1.3623  ZZZ=              1.4485  XYY=            -22.7822
  XXY=             -7.2890  XXZ=              6.7430  XZZ=            -22.9035  YZZ=             -2.0118
  YYZ=              2.4521  XYZ=             -4.0727
 Hexadecapole moment (field-independent basis, Debye-Ang**3):
 XXXX=           -336.5348 YYYY=            -46.0394 ZZZZ=            -12.1006 XXXY=            -15.7113
 XXXZ=             14.4435 YYYX=             -4.1700 YYYZ=             -2.8573 ZZZX=              3.0322
 ZZZY=             -2.1304 XXYY=            -58.7447 XXZZ=            -49.5136 YYZZ=            -10.0875
 XXYZ=             -8.8048 YYXZ=              4.8701 ZZXY=             -3.6409
 N-N= 3.662650038791D+01 E-N=-4.314076198082D+02  KE= 1.504675439671D+02
 No NMR shielding tensors so no spin-rotation constants.
 Leave Link  601 at Wed May 13 14:27:52 2020, MaxMem= 1073741824 cpu:       0.7
 (Enter /home/matheus/.gaussian/g09/l122.exe)
 Counterpoise: doing DCBS calculation for fragment   2 NewBq=T
 Leave Link  122 at Wed May 13 14:27:52 2020, MaxMem= 1073741824 cpu:       0.0
 (Enter /home/matheus/.gaussian/g09/l301.exe)
 Basis read from rwf:  (5D, 7F)
 No pseudopotential information found on rwf file.
 There are   197 symmetry adapted basis functions of A   symmetry.
 Integral buffers will be    131072 words long.
 Raffenetti 2 integral format.
 Two-electron integral symmetry is turned on.
   197 basis functions,   415 primitive gaussians,   229 cartesian basis functions
    18 alpha electrons       18 beta electrons
       nuclear repulsion energy         0.0000000000 Hartrees.
 IExCor=10402 DFT=T Ex=LC-B+HF Corr=LYP ExCW=0 ScaHFX=  1.000000
 ScaDFX=  1.000000  1.000000  1.000000  1.000000 ScalE2=  1.000000  1.000000
 IRadAn=      5 IRanWt=     -1 IRanGd=            0 ICorTp=0
  HFx wShort=  0.000000 wLong=  0.470000 cFull=  0.000000 cShort=  0.000000 cLong=  1.000000
  DFx wShort=  0.000000 wLong=  0.470000 cFull=  0.000000 cShort=  0.000000 cLong=  1.000000
 NAtoms=    5 NActive=    5 NUniq=    5 SFac= 1.00D+00 NAtFMM=   60 NAOKFM=F Big=F
 No density basis found on file   718.
 Leave Link  301 at Wed May 13 14:27:52 2020, MaxMem= 1073741824 cpu:       0.2
 (Enter /home/matheus/.gaussian/g09/l302.exe)
 NPDir=0 NMtPBC=     1 NCelOv=     1 NCel=       1 NClECP=     1 NCelD=      1
         NCelK=      1 NCelE2=     1 NClLst=     1 CellRange=     0.0.
 One-electron integrals computed using PRISM.
 NBasis=   197 RedAO= T  NBF=   197
 NBsUse=   197 1.00D-06 NBFU=   197
 Precomputing XC quadrature grid using
 IXCGrd= 2 IRadAn=           5 IRanWt=          -1 IRanGd=           0 AccXCQ= 0.00D+00.
 NRdTot=     427 NPtTot=      123512 NUsed=      126579 NTot=      126611
 NSgBfM=   229   229   229   229   229 NAtAll=     5     5.
 Leave Link  302 at Wed May 13 14:27:53 2020, MaxMem= 1073741824 cpu:       1.0
 (Enter /home/matheus/.gaussian/g09/l303.exe)
 DipDrv:  MaxL=1.
 Leave Link  303 at Wed May 13 14:27:53 2020, MaxMem= 1073741824 cpu:       0.2
 (Enter /home/matheus/.gaussian/g09/l401.exe)
 Harris functional with IExCor=10402 diagonalized for initial guess.
 ExpMin= 2.53D-02 ExpMax= 1.17D+07 ExpMxC= 1.33D+04 IAcc=3 IRadAn=         5 AccDes= 0.00D+00
 HarFok:  IExCor=10402 AccDes= 0.00D+00 IRadAn=         5 IDoV= 1
 ScaDFX=  1.000000  1.000000  1.000000  1.000000
 FoFCou: FMM=F IPFlag=           0 FMFlag=      100000 FMFlg1=           0
         NFxFlg=           0 DoJE=T BraDBF=F KetDBF=T FulRan=T
         Omega=  0.000000  0.000000  1.000000  0.000000  0.000000 ICntrl=     500 IOpCl=  0
         NMat0=    1 NMatS0=    1 NMatT0=    0 NMatD0=    1 NMtDS0=    0 NMtDT0=    0
         I1Cent=           4 NGrid=           0.
 Petite list used in FoFCou.
 Harris En= -2744.51537708369    
 Initial guess orbital symmetries:
       Occupied  (A) (A) (A) (A) (A) (A) (A) (A) (A) (A) (A) (A)
                 (A) (A) (A) (A) (A) (A)
       Virtual   (A) (A) (A) (A) (A) (A) (A) (A) (A) (A) (A) (A)
                 (A) (A) (A) (A) (A) (A) (A) (A) (A) (A) (A) (A)
                 (A) (A) (A) (A) (A) (A) (A) (A) (A) (A) (A) (A)
                 (A) (A) (A) (A) (A) (A) (A) (A) (A) (A) (A) (A)
                 (A) (A) (A) (A) (A) (A) (A) (A) (A) (A) (A) (A)
                 (A) (A) (A) (A) (A) (A) (A) (A) (A) (A) (A) (A)
                 (A) (A) (A) (A) (A) (A) (A) (A) (A) (A) (A) (A)
                 (A) (A) (A) (A) (A) (A) (A) (A) (A) (A) (A) (A)
                 (A) (A) (A) (A) (A) (A) (A) (A) (A) (A) (A) (A)
                 (A) (A) (A) (A) (A) (A) (A) (A) (A) (A) (A) (A)
                 (A) (A) (A) (A) (A) (A) (A) (A) (A) (A) (A) (A)
                 (A) (A) (A) (A) (A) (A) (A) (A) (A) (A) (A) (A)
                 (A) (A) (A) (A) (A) (A) (A) (A) (A) (A) (A) (A)
                 (A) (A) (A) (A) (A) (A) (A) (A) (A) (A) (A) (A)
                 (A) (A) (A) (A) (A) (A) (A) (A) (A) (A) (A)
 The electronic state of the initial guess is 1-A.
 Leave Link  401 at Wed May 13 14:27:53 2020, MaxMem= 1073741824 cpu:       3.7
 (Enter /home/matheus/.gaussian/g09/l502.exe)
 Closed shell SCF:
 Requested convergence on RMS density matrix=1.00D-08 within 128 cycles.
 Requested convergence on MAX density matrix=1.00D-06.
 Requested convergence on             energy=1.00D-06.
 No special actions if energy rises.
 Using DIIS extrapolation, IDIIS=  1040.
 Integral symmetry usage will be decided dynamically.
       126521 words used for storage of precomputed grid.
 IEnd=      305468 IEndB=      305468 NGot=  1073741824 MDV=  1073505667
 LenX=  1073505667 LenY=  1073452785
 Fock matrices will be formed incrementally for  20 cycles.

 Cycle   1  Pass 1  IDiag  1:
 FoFJK:  IHMeth= 1 ICntrl=     0 DoSepK=T KAlg= 1 I1Cent= 0 FoldK=F
 FoFCou: FMM=F IPFlag=           0 FMFlag=      100000 FMFlg1=           0
         NFxFlg=           0 DoJE=T BraDBF=F KetDBF=F FulRan=T
         Omega=  0.000000  0.000000  1.000000  0.000000  0.000000 ICntrl=     500 IOpCl=  0
         NMat0=    1 NMatS0=    1 NMatT0=    0 NMatD0=    1 NMtDS0=    0 NMtDT0=    0
         I1Cent=           0 NGrid=           0.
 Symmetry not used in FoFCou.
 E= -2753.33349860678    
 DIIS: error= 2.45D-02 at cycle   1 NSaved=   1.
 NSaved= 1 IEnMin= 1 EnMin= -2753.33349860678     IErMin= 1 ErrMin= 2.45D-02
 ErrMax= 2.45D-02 EMaxC= 1.00D-01 BMatC= 2.61D-01 BMatP= 2.61D-01
 IDIUse=3 WtCom= 7.55D-01 WtEn= 2.45D-01
 Coeff-Com:  0.100D+01
 Coeff-En:   0.100D+01
 Coeff:      0.100D+01
 Gap=     0.618 Goal=   None    Shift=    0.000
 GapD=    0.618 DampG=2.000 DampE=0.500 DampFc=1.0000 IDamp=-1.
 RMSDP=2.47D-03 MaxDP=1.52D-01              OVMax= 1.05D-01

 Cycle   2  Pass 1  IDiag  1:
 RMSU=  1.69D-03    CP:  1.03D+00
 FoFJK:  IHMeth= 1 ICntrl=     0 DoSepK=T KAlg= 1 I1Cent= 0 FoldK=F
 E= -2753.38946701115     Delta-E=       -0.055968404370 Rises=F Damp=F
 DIIS: error= 1.34D-02 at cycle   2 NSaved=   2.
 NSaved= 2 IEnMin= 2 EnMin= -2753.38946701115     IErMin= 2 ErrMin= 1.34D-02
 ErrMax= 1.34D-02 EMaxC= 1.00D-01 BMatC= 8.81D-02 BMatP= 2.61D-01
 IDIUse=3 WtCom= 8.66D-01 WtEn= 1.34D-01
 Coeff-Com:  0.365D+00 0.635D+00
 Coeff-En:   0.130D+00 0.870D+00
 Coeff:      0.333D+00 0.667D+00
 Gap=     0.539 Goal=   None    Shift=    0.000
 RMSDP=9.69D-04 MaxDP=6.06D-02 DE=-5.60D-02 OVMax= 3.12D-02

 Cycle   3  Pass 1  IDiag  1:
 RMSU=  1.71D-04    CP:  1.02D+00  6.19D-01
 FoFJK:  IHMeth= 1 ICntrl=     0 DoSepK=T KAlg= 1 I1Cent= 0 FoldK=F
 E= -2753.41751470941     Delta-E=       -0.028047698254 Rises=F Damp=F
 DIIS: error= 9.19D-04 at cycle   3 NSaved=   3.
 NSaved= 3 IEnMin= 3 EnMin= -2753.41751470941     IErMin= 3 ErrMin= 9.19D-04
 ErrMax= 9.19D-04 EMaxC= 1.00D-01 BMatC= 5.06D-04 BMatP= 8.81D-02
 IDIUse=3 WtCom= 9.91D-01 WtEn= 9.19D-03
 Coeff-Com: -0.645D-02 0.577D-01 0.949D+00
 Coeff-En:   0.000D+00 0.000D+00 0.100D+01
 Coeff:     -0.639D-02 0.572D-01 0.949D+00
 Gap=     0.538 Goal=   None    Shift=    0.000
 RMSDP=9.18D-05 MaxDP=4.76D-03 DE=-2.80D-02 OVMax= 3.19D-03

 Cycle   4  Pass 1  IDiag  1:
 RMSU=  3.72D-05    CP:  1.02D+00  6.46D-01  1.14D+00
 FoFJK:  IHMeth= 1 ICntrl=     0 DoSepK=T KAlg= 1 I1Cent= 0 FoldK=F
 E= -2753.41767702285     Delta-E=       -0.000162313443 Rises=F Damp=F
 DIIS: error= 7.60D-05 at cycle   4 NSaved=   4.
 NSaved= 4 IEnMin= 4 EnMin= -2753.41767702285     IErMin= 4 ErrMin= 7.60D-05
 ErrMax= 7.60D-05 EMaxC= 1.00D-01 BMatC= 2.05D-06 BMatP= 5.06D-04
 IDIUse=1 WtCom= 1.00D+00 WtEn= 0.00D+00
 Coeff-Com: -0.143D-02 0.272D-03-0.678D-02 0.101D+01
 Coeff:     -0.143D-02 0.272D-03-0.678D-02 0.101D+01
 Gap=     0.539 Goal=   None    Shift=    0.000
 RMSDP=1.38D-05 MaxDP=5.46D-04 DE=-1.62D-04 OVMax= 9.21D-04

 Cycle   5  Pass 1  IDiag  1:
 RMSU=  5.87D-06    CP:  1.02D+00  6.48D-01  1.18D+00  1.06D+00
 FoFJK:  IHMeth= 1 ICntrl=     0 DoSepK=T KAlg= 1 I1Cent= 0 FoldK=F
 E= -2753.41768098175     Delta-E=       -0.000003958894 Rises=F Damp=F
 DIIS: error= 2.55D-05 at cycle   5 NSaved=   5.
 NSaved= 5 IEnMin= 5 EnMin= -2753.41768098175     IErMin= 5 ErrMin= 2.55D-05
 ErrMax= 2.55D-05 EMaxC= 1.00D-01 BMatC= 1.58D-07 BMatP= 2.05D-06
 IDIUse=1 WtCom= 1.00D+00 WtEn= 0.00D+00
 Coeff-Com: -0.534D-04-0.381D-02-0.334D-01-0.714D-01 0.111D+01
 Coeff:     -0.534D-04-0.381D-02-0.334D-01-0.714D-01 0.111D+01
 Gap=     0.539 Goal=   None    Shift=    0.000
 RMSDP=4.53D-06 MaxDP=1.87D-04 DE=-3.96D-06 OVMax= 1.98D-04

 Cycle   6  Pass 1  IDiag  1:
 RMSU=  3.62D-07    CP:  1.02D+00  6.48D-01  1.20D+00  1.10D+00  1.15D+00
 FoFJK:  IHMeth= 1 ICntrl=     0 DoSepK=T KAlg= 1 I1Cent= 0 FoldK=F
 E= -2753.41768118866     Delta-E=       -0.000000206914 Rises=F Damp=F
 DIIS: error= 5.56D-07 at cycle   6 NSaved=   6.
 NSaved= 6 IEnMin= 6 EnMin= -2753.41768118866     IErMin= 6 ErrMin= 5.56D-07
 ErrMax= 5.56D-07 EMaxC= 1.00D-01 BMatC= 9.79D-11 BMatP= 1.58D-07
 IDIUse=1 WtCom= 1.00D+00 WtEn= 0.00D+00
 Coeff-Com:  0.726D-05 0.324D-03 0.314D-02-0.190D-04-0.808D-01 0.108D+01
 Coeff:      0.726D-05 0.324D-03 0.314D-02-0.190D-04-0.808D-01 0.108D+01
 Gap=     0.539 Goal=   None    Shift=    0.000
 RMSDP=1.50D-07 MaxDP=5.03D-06 DE=-2.07D-07 OVMax= 6.24D-06

 Cycle   7  Pass 1  IDiag  1:
 RMSU=  2.40D-08    CP:  1.02D+00  6.48D-01  1.20D+00  1.11D+00  1.17D+00
                    CP:  1.17D+00
 FoFJK:  IHMeth= 1 ICntrl=     0 DoSepK=T KAlg= 1 I1Cent= 0 FoldK=F
 E= -2753.41768118874     Delta-E=       -0.000000000081 Rises=F Damp=F
 DIIS: error= 8.89D-08 at cycle   7 NSaved=   7.
 NSaved= 7 IEnMin= 7 EnMin= -2753.41768118874     IErMin= 7 ErrMin= 8.89D-08
 ErrMax= 8.89D-08 EMaxC= 1.00D-01 BMatC= 2.30D-12 BMatP= 9.79D-11
 IDIUse=1 WtCom= 1.00D+00 WtEn= 0.00D+00
 Coeff-Com:  0.454D-06 0.368D-04 0.314D-03 0.868D-03-0.115D-01 0.817D-02
 Coeff-Com:  0.100D+01
 Coeff:      0.454D-06 0.368D-04 0.314D-03 0.868D-03-0.115D-01 0.817D-02
 Coeff:      0.100D+01
 Gap=     0.539 Goal=   None    Shift=    0.000
 RMSDP=1.55D-08 MaxDP=5.55D-07 DE=-8.09D-11 OVMax= 8.30D-07

 Cycle   8  Pass 1  IDiag  1:
 RMSU=  4.61D-09    CP:  1.02D+00  6.48D-01  1.20D+00  1.11D+00  1.17D+00
                    CP:  1.19D+00  1.11D+00
 FoFJK:  IHMeth= 1 ICntrl=     0 DoSepK=T KAlg= 1 I1Cent= 0 FoldK=F
 E= -2753.41768118874     Delta-E=       -0.000000000005 Rises=F Damp=F
 DIIS: error= 1.82D-08 at cycle   8 NSaved=   8.
 NSaved= 8 IEnMin= 8 EnMin= -2753.41768118874     IErMin= 8 ErrMin= 1.82D-08
 ErrMax= 1.82D-08 EMaxC= 1.00D-01 BMatC= 2.00D-13 BMatP= 2.30D-12
 IDIUse=1 WtCom= 1.00D+00 WtEn= 0.00D+00
 Coeff-Com: -0.334D-06-0.114D-04-0.120D-03 0.193D-03 0.223D-02-0.572D-01
 Coeff-Com:  0.192D+00 0.863D+00
 Coeff:     -0.334D-06-0.114D-04-0.120D-03 0.193D-03 0.223D-02-0.572D-01
 Coeff:      0.192D+00 0.863D+00
 Gap=     0.539 Goal=   None    Shift=    0.000
 RMSDP=2.88D-09 MaxDP=1.03D-07 DE=-4.55D-12 OVMax= 1.75D-07

 SCF Done:  E(RLC-B+HF-LYP) =  -2753.41768119     A.U. after    8 cycles
             Convg  =    0.2882D-08             -V/T =  2.0015
 KE= 2.749316317134D+03 PE=-6.578526992713D+03 EE= 1.075792994390D+03
 Leave Link  502 at Wed May 13 14:28:17 2020, MaxMem= 1073741824 cpu:     189.4
 (Enter /home/matheus/.gaussian/g09/l601.exe)
 Copying SCF densities to generalized density rwf, IOpCl= 0 IROHF=0.

 **********************************************************************

            Population analysis using the SCF density.

 **********************************************************************

 Orbital symmetries:
       Occupied  (A) (A) (A) (A) (A) (A) (A) (A) (A) (A) (A) (A)
                 (A) (A) (A) (A) (A) (A)
       Virtual   (A) (A) (A) (A) (A) (A) (A) (A) (A) (A) (A) (A)
                 (A) (A) (A) (A) (A) (A) (A) (A) (A) (A) (A) (A)
                 (A) (A) (A) (A) (A) (A) (A) (A) (A) (A) (A) (A)
                 (A) (A) (A) (A) (A) (A) (A) (A) (A) (A) (A) (A)
                 (A) (A) (A) (A) (A) (A) (A) (A) (A) (A) (A) (A)
                 (A) (A) (A) (A) (A) (A) (A) (A) (A) (A) (A) (A)
                 (A) (A) (A) (A) (A) (A) (A) (A) (A) (A) (A) (A)
                 (A) (A) (A) (A) (A) (A) (A) (A) (A) (A) (A) (A)
                 (A) (A) (A) (A) (A) (A) (A) (A) (A) (A) (A) (A)
                 (A) (A) (A) (A) (A) (A) (A) (A) (A) (A) (A) (A)
                 (A) (A) (A) (A) (A) (A) (A) (A) (A) (A) (A) (A)
                 (A) (A) (A) (A) (A) (A) (A) (A) (A) (A) (A) (A)
                 (A) (A) (A) (A) (A) (A) (A) (A) (A) (A) (A) (A)
                 (A) (A) (A) (A) (A) (A) (A) (A) (A) (A) (A) (A)
                 (A) (A) (A) (A) (A) (A) (A) (A) (A) (A) (A)
 The electronic state is 1-A.
 Alpha  occ. eigenvalues -- -511.24358 -66.71349 -60.39871 -60.39868 -60.39867
 Alpha  occ. eigenvalues --   -9.60493  -7.35947  -7.35945  -7.35945  -3.32283
 Alpha  occ. eigenvalues --   -3.32283  -3.32283  -3.32282  -3.32281  -1.06080
 Alpha  occ. eigenvalues --   -0.51293  -0.51289  -0.51287
 Alpha virt. eigenvalues --    0.02584   0.04726   0.07772   0.08601   0.11127
 Alpha virt. eigenvalues --    0.11682   0.12780   0.13128   0.15700   0.16627
 Alpha virt. eigenvalues --    0.17402   0.19137   0.20046   0.25225   0.26380
 Alpha virt. eigenvalues --    0.26888   0.28132   0.30406   0.32843   0.34017
 Alpha virt. eigenvalues --    0.35526   0.36916   0.37948   0.39239   0.40738
 Alpha virt. eigenvalues --    0.41486   0.42438   0.52829   0.53496   0.58141
 Alpha virt. eigenvalues --    0.58173   0.65990   0.67901   0.69062   0.71497
 Alpha virt. eigenvalues --    0.74298   0.74741   0.76812   0.78358   0.79176
 Alpha virt. eigenvalues --    0.80539   0.81032   0.83177   0.84848   0.86995
 Alpha virt. eigenvalues --    0.87776   0.88665   0.90577   0.90964   0.95397
 Alpha virt. eigenvalues --    0.97283   0.97561   0.98464   0.99203   1.01761
 Alpha virt. eigenvalues --    1.04944   1.07528   1.08991   1.10750   1.12092
 Alpha virt. eigenvalues --    1.16539   1.20138   1.24689   1.28160   1.29563
 Alpha virt. eigenvalues --    1.32386   1.35764   1.38486   1.45446   1.45744
 Alpha virt. eigenvalues --    1.53777   1.56111   1.59462   1.73176   1.74814
 Alpha virt. eigenvalues --    1.79836   1.82059   1.85750   1.98111   2.16607
 Alpha virt. eigenvalues --    2.19874   2.24404   2.28162   2.29902   2.31332
 Alpha virt. eigenvalues --    2.33018   2.33327   2.36093   2.37941   2.42094
 Alpha virt. eigenvalues --    2.42301   2.44906   2.47515   2.50208   2.50970
 Alpha virt. eigenvalues --    2.52529   2.53450   2.56614   2.57044   2.58661
 Alpha virt. eigenvalues --    2.62638   2.63517   2.65839   2.69271   2.72215
 Alpha virt. eigenvalues --    2.74578   2.78642   2.83574   2.88042   2.89379
 Alpha virt. eigenvalues --    2.94604   2.99228   3.03096   3.09027   3.18393
 Alpha virt. eigenvalues --    3.22133   3.25267   3.29836   3.37625   3.46126
 Alpha virt. eigenvalues --    3.60068   3.63254   3.81970   3.85475   4.03217
 Alpha virt. eigenvalues --    4.34374   4.40868   4.52352   4.56160   4.63140
 Alpha virt. eigenvalues --    4.71844   4.86886   4.88470   4.94536   5.00545
 Alpha virt. eigenvalues --    5.11318   5.23520   5.59711   5.62107   5.77574
 Alpha virt. eigenvalues --    5.91176   6.04633   6.05525   6.74584   6.85094
 Alpha virt. eigenvalues --    7.37350   7.47356   7.55497   7.60909   7.75894
 Alpha virt. eigenvalues --    7.78585   7.92402   8.13584   8.15769   8.21046
 Alpha virt. eigenvalues --    8.39418   8.48849   8.55446   8.85209   9.64916
 Alpha virt. eigenvalues --    9.75998   9.83051   9.87296   9.91061   9.98710
 Alpha virt. eigenvalues --   10.14209  10.30918  10.37807  10.96897  11.51746
 Alpha virt. eigenvalues --   11.64599  11.80619  12.06928  12.08290  13.20615
 Alpha virt. eigenvalues --   13.64953  14.50931  62.81945  64.69281
          Condensed to atoms (all electrons):
              1          2          3          4          5
     1  O    0.001250  -0.001314  -0.000664   0.000842  -0.005759
     2  O   -0.001314   0.004506   0.000474  -0.003036  -0.005108
     3  H   -0.000664   0.000474   0.000494  -0.000246  -0.000090
     4  H    0.000842  -0.003036  -0.000246   0.002908  -0.012495
     5  Kr  -0.005759  -0.005108  -0.000090  -0.012495  36.045636
 Mulliken atomic charges:
              1
     1  O    0.005646
     2  O    0.004477
     3  H    0.000032
     4  H    0.012028
     5  Kr  -0.022183
 Sum of Mulliken atomic charges =   0.00000
 Mulliken charges with hydrogens summed into heavy atoms:
              1
     1  O    0.005678
     2  O    0.016505
     5  Kr  -0.022183
 Sum of Mulliken charges with hydrogens summed into heavy atoms =   0.00000
          Condensed to fragments (all electrons):
     1       0.022183
     2      -0.022183
 Electronic spatial extent (au):  <R**2>=            163.8613
 Charge=              0.0000 electrons
 Dipole moment (field-independent basis, Debye):
    X=              0.0014    Y=              0.0006    Z=              0.0002  Tot=              0.0015
 Quadrupole moment (field-independent basis, Debye-Ang):
   XX=            -17.7461   YY=            -17.7571   ZZ=            -17.7642
   XY=              0.0037   XZ=              0.0010   YZ=             -0.0002
 Traceless Quadrupole moment (field-independent basis, Debye-Ang):
   XX=              0.0097   YY=             -0.0013   ZZ=             -0.0084
   XY=              0.0037   XZ=              0.0010   YZ=             -0.0002
 Octapole moment (field-independent basis, Debye-Ang**2):
  XXX=             52.3351  YYY=              0.5300  ZZZ=              0.0230  XYY=             17.4582
  XXY=              0.1692  XXZ=              0.0055  XZZ=             17.4623  YZZ=              0.1773
  YYZ=              0.0077  XYZ=              0.0000
 Hexadecapole moment (field-independent basis, Debye-Ang**3):
 XXXX=           -121.7954 YYYY=            -18.9374 ZZZZ=            -18.9506 XXXY=             -0.5056
 XXXZ=             -0.0181 YYYX=             -0.5095 YYYZ=             -0.0004 ZZZX=             -0.0196
 ZZZY=              0.0001 XXYY=            -23.4679 XXZZ=            -23.4715 YYZZ=             -6.3136
 XXYZ=             -0.0003 YYXZ=             -0.0069 ZZXY=             -0.1688
 N-N= 0.000000000000D+00 E-N=-6.578526991138D+03  KE= 2.749316317134D+03
 No NMR shielding tensors so no spin-rotation constants.
 Leave Link  601 at Wed May 13 14:28:17 2020, MaxMem= 1073741824 cpu:       0.8
 (Enter /home/matheus/.gaussian/g09/l122.exe)
 Counterpoise: doing MCBS calculation for fragment   1
 Leave Link  122 at Wed May 13 14:28:17 2020, MaxMem= 1073741824 cpu:       0.0
 (Enter /home/matheus/.gaussian/g09/l301.exe)
 Basis read from rwf:  (5D, 7F)
 No pseudopotential information found on rwf file.
 There are   138 symmetry adapted basis functions of A   symmetry.
 Integral buffers will be    131072 words long.
 Raffenetti 2 integral format.
 Two-electron integral symmetry is turned on.
   138 basis functions,   198 primitive gaussians,   160 cartesian basis functions
     9 alpha electrons        9 beta electrons
       nuclear repulsion energy        36.6265003879 Hartrees.
 IExCor=10402 DFT=T Ex=LC-B+HF Corr=LYP ExCW=0 ScaHFX=  1.000000
 ScaDFX=  1.000000  1.000000  1.000000  1.000000 ScalE2=  1.000000  1.000000
 IRadAn=      5 IRanWt=     -1 IRanGd=            0 ICorTp=0
  HFx wShort=  0.000000 wLong=  0.470000 cFull=  0.000000 cShort=  0.000000 cLong=  1.000000
  DFx wShort=  0.000000 wLong=  0.470000 cFull=  0.000000 cShort=  0.000000 cLong=  1.000000
 NAtoms=    5 NActive=    4 NUniq=    4 SFac= 1.00D+00 NAtFMM=   60 NAOKFM=F Big=F
 No density basis found on file   718.
 Leave Link  301 at Wed May 13 14:28:17 2020, MaxMem= 1073741824 cpu:       0.2
 (Enter /home/matheus/.gaussian/g09/l302.exe)
 NPDir=0 NMtPBC=     1 NCelOv=     1 NCel=       1 NClECP=     1 NCelD=      1
         NCelK=      1 NCelE2=     1 NClLst=     1 CellRange=     0.0.
 One-electron integrals computed using PRISM.
 NBasis=   138 RedAO= T  NBF=   138
 NBsUse=   138 1.00D-06 NBFU=   138
 Precomputing XC quadrature grid using
 IXCGrd= 2 IRadAn=           5 IRanWt=          -1 IRanGd=           0 AccXCQ= 0.00D+00.
 NRdTot=     344 NPtTot=       92556 NUsed=       95038 NTot=       95070
 NSgBfM=   160   160   160   160   160 NAtAll=     4     4.
 Leave Link  302 at Wed May 13 14:28:17 2020, MaxMem= 1073741824 cpu:       0.7
 (Enter /home/matheus/.gaussian/g09/l303.exe)
 DipDrv:  MaxL=1.
 Leave Link  303 at Wed May 13 14:28:17 2020, MaxMem= 1073741824 cpu:       0.1
 (Enter /home/matheus/.gaussian/g09/l401.exe)
 Harris functional with IExCor=10402 diagonalized for initial guess.
 ExpMin= 2.53D-02 ExpMax= 1.53D+04 ExpMxC= 5.22D+02 IAcc=3 IRadAn=         5 AccDes= 0.00D+00
 HarFok:  IExCor=10402 AccDes= 0.00D+00 IRadAn=         5 IDoV= 1
 ScaDFX=  1.000000  1.000000  1.000000  1.000000
 FoFCou: FMM=F IPFlag=           0 FMFlag=      100000 FMFlg1=           0
         NFxFlg=           0 DoJE=T BraDBF=F KetDBF=T FulRan=T
         Omega=  0.000000  0.000000  1.000000  0.000000  0.000000 ICntrl=     500 IOpCl=  0
         NMat0=    1 NMatS0=    1 NMatT0=    0 NMatD0=    1 NMtDS0=    0 NMtDT0=    0
         I1Cent=           4 NGrid=           0.
 Petite list used in FoFCou.
 Harris En= -147.165559015924    
 Initial guess orbital symmetries:
       Occupied  (A) (A) (A) (A) (A) (A) (A) (A) (A)
       Virtual   (A) (A) (A) (A) (A) (A) (A) (A) (A) (A) (A) (A)
                 (A) (A) (A) (A) (A) (A) (A) (A) (A) (A) (A) (A)
                 (A) (A) (A) (A) (A) (A) (A) (A) (A) (A) (A) (A)
                 (A) (A) (A) (A) (A) (A) (A) (A) (A) (A) (A) (A)
                 (A) (A) (A) (A) (A) (A) (A) (A) (A) (A) (A) (A)
                 (A) (A) (A) (A) (A) (A) (A) (A) (A) (A) (A) (A)
                 (A) (A) (A) (A) (A) (A) (A) (A) (A) (A) (A) (A)
                 (A) (A) (A) (A) (A) (A) (A) (A) (A) (A) (A) (A)
                 (A) (A) (A) (A) (A) (A) (A) (A) (A) (A) (A) (A)
                 (A) (A) (A) (A) (A) (A) (A) (A) (A) (A) (A) (A)
                 (A) (A) (A) (A) (A) (A) (A) (A) (A)
 The electronic state of the initial guess is 1-A.
 Leave Link  401 at Wed May 13 14:28:17 2020, MaxMem= 1073741824 cpu:       2.0
 (Enter /home/matheus/.gaussian/g09/l502.exe)
 Closed shell SCF:
 Requested convergence on RMS density matrix=1.00D-08 within 128 cycles.
 Requested convergence on MAX density matrix=1.00D-06.
 Requested convergence on             energy=1.00D-06.
 No special actions if energy rises.
 Using DIIS extrapolation, IDIIS=  1040.
 Integral symmetry usage will be decided dynamically.
        94980 words used for storage of precomputed grid.
 IEnd=      192360 IEndB=      192360 NGot=  1073741824 MDV=  1073591865
 LenX=  1073591865 LenY=  1073565824
 Fock matrices will be formed incrementally for  20 cycles.

 Cycle   1  Pass 1  IDiag  1:
 FoFJK:  IHMeth= 1 ICntrl=     0 DoSepK=T KAlg= 1 I1Cent= 0 FoldK=F
 FoFCou: FMM=F IPFlag=           0 FMFlag=      100000 FMFlg1=           0
         NFxFlg=           0 DoJE=T BraDBF=F KetDBF=F FulRan=T
         Omega=  0.000000  0.000000  1.000000  0.000000  0.000000 ICntrl=     500 IOpCl=  0
         NMat0=    1 NMatS0=    1 NMatT0=    0 NMatD0=    1 NMtDS0=    0 NMtDT0=    0
         I1Cent=           0 NGrid=           0.
 Symmetry not used in FoFCou.
 E= -151.304252289624    
 DIIS: error= 1.27D-02 at cycle   1 NSaved=   1.
 NSaved= 1 IEnMin= 1 EnMin= -151.304252289624     IErMin= 1 ErrMin= 1.27D-02
 ErrMax= 1.27D-02 EMaxC= 1.00D-01 BMatC= 2.24D-02 BMatP= 2.24D-02
 IDIUse=3 WtCom= 8.73D-01 WtEn= 1.27D-01
 Coeff-Com:  0.100D+01
 Coeff-En:   0.100D+01
 Coeff:      0.100D+01
 Gap=     0.504 Goal=   None    Shift=    0.000
 GapD=    0.504 DampG=2.000 DampE=0.500 DampFc=1.0000 IDamp=-1.
 RMSDP=1.18D-03 MaxDP=2.71D-02              OVMax= 5.13D-02

 Cycle   2  Pass 1  IDiag  1:
 RMSU=  8.33D-04    CP:  1.00D+00
 FoFJK:  IHMeth= 1 ICntrl=     0 DoSepK=T KAlg= 1 I1Cent= 0 FoldK=F
 E= -151.323284307392     Delta-E=       -0.019032017768 Rises=F Damp=F
 DIIS: error= 8.10D-03 at cycle   2 NSaved=   2.
 NSaved= 2 IEnMin= 2 EnMin= -151.323284307392     IErMin= 2 ErrMin= 8.10D-03
 ErrMax= 8.10D-03 EMaxC= 1.00D-01 BMatC= 4.98D-03 BMatP= 2.24D-02
 IDIUse=3 WtCom= 9.19D-01 WtEn= 8.10D-02
 Coeff-Com:  0.274D+00 0.726D+00
 Coeff-En:   0.000D+00 0.100D+01
 Coeff:      0.251D+00 0.749D+00
 Gap=     0.464 Goal=   None    Shift=    0.000
 RMSDP=3.11D-04 MaxDP=6.86D-03 DE=-1.90D-02 OVMax= 1.48D-02

 Cycle   3  Pass 1  IDiag  1:
 RMSU=  2.20D-04    CP:  1.00D+00  1.00D+00
 FoFJK:  IHMeth= 1 ICntrl=     0 DoSepK=T KAlg= 1 I1Cent= 0 FoldK=F
 E= -151.326068433325     Delta-E=       -0.002784125933 Rises=F Damp=F
 DIIS: error= 1.93D-03 at cycle   3 NSaved=   3.
 NSaved= 3 IEnMin= 3 EnMin= -151.326068433325     IErMin= 3 ErrMin= 1.93D-03
 ErrMax= 1.93D-03 EMaxC= 1.00D-01 BMatC= 6.12D-04 BMatP= 4.98D-03
 IDIUse=3 WtCom= 9.81D-01 WtEn= 1.93D-02
 Coeff-Com:  0.203D-01 0.248D+00 0.732D+00
 Coeff-En:   0.000D+00 0.000D+00 0.100D+01
 Coeff:      0.199D-01 0.243D+00 0.737D+00
 Gap=     0.473 Goal=   None    Shift=    0.000
 RMSDP=1.42D-04 MaxDP=3.37D-03 DE=-2.78D-03 OVMax= 6.99D-03

 Cycle   4  Pass 1  IDiag  1:
 RMSU=  7.12D-05    CP:  1.00D+00  1.08D+00  9.40D-01
 FoFJK:  IHMeth= 1 ICntrl=     0 DoSepK=T KAlg= 1 I1Cent= 0 FoldK=F
 E= -151.326524205842     Delta-E=       -0.000455772517 Rises=F Damp=F
 DIIS: error= 4.26D-04 at cycle   4 NSaved=   4.
 NSaved= 4 IEnMin= 4 EnMin= -151.326524205842     IErMin= 4 ErrMin= 4.26D-04
 ErrMax= 4.26D-04 EMaxC= 1.00D-01 BMatC= 3.49D-05 BMatP= 6.12D-04
 IDIUse=3 WtCom= 9.96D-01 WtEn= 4.26D-03
 Coeff-Com: -0.216D-01-0.327D-01 0.139D+00 0.915D+00
 Coeff-En:   0.000D+00 0.000D+00 0.000D+00 0.100D+01
 Coeff:     -0.215D-01-0.326D-01 0.139D+00 0.916D+00
 Gap=     0.471 Goal=   None    Shift=    0.000
 RMSDP=5.51D-05 MaxDP=1.43D-03 DE=-4.56D-04 OVMax= 1.87D-03

 Cycle   5  Pass 1  IDiag  1:
 RMSU=  1.37D-05    CP:  1.00D+00  1.11D+00  1.07D+00  1.13D+00
 FoFJK:  IHMeth= 1 ICntrl=     0 DoSepK=T KAlg= 1 I1Cent= 0 FoldK=F
 E= -151.326558816162     Delta-E=       -0.000034610320 Rises=F Damp=F
 DIIS: error= 6.21D-05 at cycle   5 NSaved=   5.
 NSaved= 5 IEnMin= 5 EnMin= -151.326558816162     IErMin= 5 ErrMin= 6.21D-05
 ErrMax= 6.21D-05 EMaxC= 1.00D-01 BMatC= 4.26D-07 BMatP= 3.49D-05
 IDIUse=1 WtCom= 1.00D+00 WtEn= 0.00D+00
 Coeff-Com:  0.804D-03-0.460D-02-0.357D-01-0.772D-01 0.112D+01
 Coeff:      0.804D-03-0.460D-02-0.357D-01-0.772D-01 0.112D+01
 Gap=     0.471 Goal=   None    Shift=    0.000
[...]

 Cycle   2  Pass 1  IDiag  1:
 RMSU=  1.12D-05    CP:  1.00D+00
 FoFJK:  IHMeth= 1 ICntrl=     0 DoSepK=T KAlg= 1 I1Cent= 0 FoldK=F
 E= -2753.41756189780     Delta-E=       -0.000000542680 Rises=F Damp=F
 DIIS: error= 3.71D-06 at cycle   2 NSaved=   2.
 NSaved= 2 IEnMin= 2 EnMin= -2753.41756189780     IErMin= 2 ErrMin= 3.71D-06
 ErrMax= 3.71D-06 EMaxC= 1.00D-01 BMatC= 3.30D-09 BMatP= 5.40D-06
 IDIUse=1 WtCom= 1.00D+00 WtEn= 0.00D+00
 Coeff-Com: -0.724D-02 0.101D+01
 Coeff:     -0.724D-02 0.101D+01
 Gap=     0.539 Goal=   None    Shift=    0.000
 RMSDP=1.67D-06 MaxDP=6.86D-05 DE=-5.43D-07 OVMax= 4.52D-05

 Cycle   3  Pass 1  IDiag  1:
 RMSU=  5.48D-07    CP:  1.00D+00  1.09D+00
 FoFJK:  IHMeth= 1 ICntrl=     0 DoSepK=T KAlg= 1 I1Cent= 0 FoldK=F
 E= -2753.41756190371     Delta-E=       -0.000000005914 Rises=F Damp=F
 DIIS: error= 5.64D-07 at cycle   3 NSaved=   3.
 NSaved= 3 IEnMin= 3 EnMin= -2753.41756190371     IErMin= 3 ErrMin= 5.64D-07
 ErrMax= 5.64D-07 EMaxC= 1.00D-01 BMatC= 8.84D-11 BMatP= 3.30D-09
 IDIUse=1 WtCom= 1.00D+00 WtEn= 0.00D+00
 Coeff-Com:  0.279D-03-0.119D+00 0.112D+01
 Coeff:      0.279D-03-0.119D+00 0.112D+01
 Gap=     0.539 Goal=   None    Shift=    0.000
 RMSDP=2.14D-07 MaxDP=9.60D-06 DE=-5.91D-09 OVMax= 9.02D-06

 Cycle   4  Pass 1  IDiag  1:
 RMSU=  5.19D-08    CP:  1.00D+00  1.10D+00  1.18D+00
 FoFJK:  IHMeth= 1 ICntrl=     0 DoSepK=T KAlg= 1 I1Cent= 0 FoldK=F
 E= -2753.41756190390     Delta-E=       -0.000000000191 Rises=F Damp=F
 DIIS: error= 2.58D-07 at cycle   4 NSaved=   4.
 NSaved= 4 IEnMin= 4 EnMin= -2753.41756190390     IErMin= 4 ErrMin= 2.58D-07
 ErrMax= 2.58D-07 EMaxC= 1.00D-01 BMatC= 1.21D-11 BMatP= 8.84D-11
 IDIUse=1 WtCom= 1.00D+00 WtEn= 0.00D+00
 Coeff-Com:  0.216D-03-0.529D-01 0.333D+00 0.720D+00
 Coeff:      0.216D-03-0.529D-01 0.333D+00 0.720D+00
 Gap=     0.539 Goal=   None    Shift=    0.000
 RMSDP=1.83D-08 MaxDP=7.10D-07 DE=-1.91D-10 OVMax= 9.25D-07

 Cycle   5  Pass 1  IDiag  1:
 RMSU=  9.10D-09    CP:  1.00D+00  1.10D+00  1.20D+00  1.11D+00
 FoFJK:  IHMeth= 1 ICntrl=     0 DoSepK=T KAlg= 1 I1Cent= 0 FoldK=F
 E= -2753.41756190391     Delta-E=       -0.000000000009 Rises=F Damp=F
 DIIS: error= 3.17D-08 at cycle   5 NSaved=   5.
 NSaved= 5 IEnMin= 5 EnMin= -2753.41756190391     IErMin= 5 ErrMin= 3.17D-08
 ErrMax= 3.17D-08 EMaxC= 1.00D-01 BMatC= 2.55D-13 BMatP= 1.21D-11
 IDIUse=1 WtCom= 1.00D+00 WtEn= 0.00D+00
 Coeff-Com: -0.197D-04 0.727D-02-0.671D-01-0.705D-03 0.106D+01
 Coeff:     -0.197D-04 0.727D-02-0.671D-01-0.705D-03 0.106D+01
 Gap=     0.539 Goal=   None    Shift=    0.000
 RMSDP=8.80D-09 MaxDP=4.92D-07 DE=-9.09D-12 OVMax= 4.43D-07

 SCF Done:  E(RLC-B+HF-LYP) =  -2753.41756190     A.U. after    5 cycles
             Convg  =    0.8800D-08             -V/T =  2.0015
 KE= 2.749364556857D+03 PE=-6.578580011332D+03 EE= 1.075797892571D+03
 Leave Link  502 at Wed May 13 14:52:05 2020, MaxMem= 1073741824 cpu:     100.8
 (Enter /home/matheus/.gaussian/g09/l122.exe)
 Restoring MOs from calculation   4 to rwf.
 Counterpoise: doing MCBS calculation for fragment   1
 Leave Link  122 at Wed May 13 14:52:05 2020, MaxMem= 1073741824 cpu:       0.0
 (Enter /home/matheus/.gaussian/g09/l301.exe)
 Basis read from rwf:  (5D, 7F)
 No pseudopotential information found on rwf file.
 There are   138 symmetry adapted basis functions of A   symmetry.
 Integral buffers will be    131072 words long.
 Raffenetti 2 integral format.
 Two-electron integral symmetry is turned on.
   138 basis functions,   198 primitive gaussians,   160 cartesian basis functions
     9 alpha electrons        9 beta electrons
       nuclear repulsion energy        36.6265003879 Hartrees.
 IExCor=10402 DFT=T Ex=LC-B+HF Corr=LYP ExCW=0 ScaHFX=  1.000000
 ScaDFX=  1.000000  1.000000  1.000000  1.000000 ScalE2=  1.000000  1.000000
 IRadAn=      5 IRanWt=     -1 IRanGd=            0 ICorTp=0
  HFx wShort=  0.000000 wLong=  0.470000 cFull=  0.000000 cShort=  0.000000 cLong=  1.000000
  DFx wShort=  0.000000 wLong=  0.470000 cFull=  0.000000 cShort=  0.000000 cLong=  1.000000
 NAtoms=    5 NActive=    4 NUniq=    4 SFac= 1.00D+00 NAtFMM=   60 NAOKFM=F Big=F
 No density basis found on file   718.
 Leave Link  301 at Wed May 13 14:52:05 2020, MaxMem= 1073741824 cpu:       0.2
 (Enter /home/matheus/.gaussian/g09/l302.exe)
 NPDir=0 NMtPBC=     1 NCelOv=     1 NCel=       1 NClECP=     1 NCelD=      1
         NCelK=      1 NCelE2=     1 NClLst=     1 CellRange=     0.0.
 One-electron integrals computed using PRISM.
 NBasis=   138 RedAO= T  NBF=   138
 NBsUse=   138 1.00D-06 NBFU=   138
 Precomputing XC quadrature grid using
 IXCGrd= 2 IRadAn=           5 IRanWt=          -1 IRanGd=           0 AccXCQ= 0.00D+00.
 NRdTot=     344 NPtTot=       92556 NUsed=       95038 NTot=       95070
 NSgBfM=   160   160   160   160   160 NAtAll=     4     4.
 Leave Link  302 at Wed May 13 14:52:05 2020, MaxMem= 1073741824 cpu:       0.8
 (Enter /home/matheus/.gaussian/g09/l303.exe)
 DipDrv:  MaxL=1.
 Leave Link  303 at Wed May 13 14:52:05 2020, MaxMem= 1073741824 cpu:       0.1
 (Enter /home/matheus/.gaussian/g09/l401.exe)
 Initial guess read from the read-write file.
 Guess basis will be translated and rotated to current coordinates.
 Initial guess orbital symmetries:
       Occupied  (A) (A) (A) (A) (A) (A) (A) (A) (A)
       Virtual   (A) (A) (A) (A) (A) (A) (A) (A) (A) (A) (A) (A)
                 (A) (A) (A) (A) (A) (A) (A) (A) (A) (A) (A) (A)
                 (A) (A) (A) (A) (A) (A) (A) (A) (A) (A) (A) (A)
                 (A) (A) (A) (A) (A) (A) (A) (A) (A) (A) (A) (A)
                 (A) (A) (A) (A) (A) (A) (A) (A) (A) (A) (A) (A)
                 (A) (A) (A) (A) (A) (A) (A) (A) (A) (A) (A) (A)
                 (A) (A) (A) (A) (A) (A) (A) (A) (A) (A) (A) (A)
                 (A) (A) (A) (A) (A) (A) (A) (A) (A) (A) (A) (A)
                 (A) (A) (A) (A) (A) (A) (A) (A) (A) (A) (A) (A)
                 (A) (A) (A) (A) (A) (A) (A) (A) (A) (A) (A) (A)
                 (A) (A) (A) (A) (A) (A) (A) (A) (A)
 The electronic state of the initial guess is 1-A.
 Generating alternative initial guess.
 Harris functional with IExCor=10402 diagonalized for initial guess.
 ExpMin= 2.53D-02 ExpMax= 1.53D+04 ExpMxC= 5.22D+02 IAcc=3 IRadAn=         5 AccDes= 0.00D+00
 HarFok:  IExCor=10402 AccDes= 0.00D+00 IRadAn=         5 IDoV= 1
 ScaDFX=  1.000000  1.000000  1.000000  1.000000
 FoFCou: FMM=F IPFlag=           0 FMFlag=      100000 FMFlg1=           0
         NFxFlg=           0 DoJE=T BraDBF=F KetDBF=T FulRan=T
         Omega=  0.000000  0.000000  1.000000  0.000000  0.000000 ICntrl=     500 IOpCl=  0
         NMat0=    1 NMatS0=    1 NMatT0=    0 NMatD0=    1 NMtDS0=    0 NMtDT0=    0
         I1Cent=           4 NGrid=           0.
 Petite list used in FoFCou.
 Harris En= -147.165559020295    
 Leave Link  401 at Wed May 13 14:52:06 2020, MaxMem= 1073741824 cpu:       2.6
 (Enter /home/matheus/.gaussian/g09/l502.exe)
 Closed shell SCF:
 Requested convergence on RMS density matrix=1.00D-08 within 128 cycles.
 Requested convergence on MAX density matrix=1.00D-06.
 Requested convergence on             energy=1.00D-06.
 No special actions if energy rises.
 Using DIIS extrapolation, IDIIS=  1040.
 Integral symmetry usage will be decided dynamically.
        94980 words used for storage of precomputed grid.
 IEnd=      192360 IEndB=      192360 NGot=  1073741824 MDV=  1073591865
 LenX=  1073591865 LenY=  1073565824
 Fock matrices will be formed incrementally for  20 cycles.

 Cycle   1  Pass 1  IDiag  1:
 FoFJK:  IHMeth= 1 ICntrl=     0 DoSepK=T KAlg= 1 I1Cent= 0 FoldK=F
 FoFCou: FMM=F IPFlag=           0 FMFlag=      100000 FMFlg1=           0
         NFxFlg=           0 DoJE=T BraDBF=F KetDBF=F FulRan=T
         Omega=  0.000000  0.000000  1.000000  0.000000  0.000000 ICntrl=     500 IOpCl=  0
         NMat0=    1 NMatS0=    1 NMatT0=    0 NMatD0=    1 NMtDS0=    0 NMtDT0=    0
         I1Cent=           0 NGrid=           0.
 Symmetry not used in FoFCou.
 E= -151.326560306576    
 DIIS: error= 9.44D-06 at cycle   1 NSaved=   1.
 NSaved= 1 IEnMin= 1 EnMin= -151.326560306576     IErMin= 1 ErrMin= 9.44D-06
 ErrMax= 9.44D-06 EMaxC= 1.00D-01 BMatC= 2.54D-08 BMatP= 2.54D-08
 IDIUse=1 WtCom= 1.00D+00 WtEn= 0.00D+00
 Coeff-Com:  0.100D+01
 Coeff:      0.100D+01
 Gap=     0.471 Goal=   None    Shift=    0.000
 RMSDP=1.02D-06 MaxDP=2.31D-05              OVMax= 4.17D-05

 Cycle   2  Pass 1  IDiag  1:
 RMSU=  7.22D-07    CP:  1.00D+00
 FoFJK:  IHMeth= 1 ICntrl=     0 DoSepK=T KAlg= 1 I1Cent= 0 FoldK=F
 E= -151.326560331250     Delta-E=       -0.000000024674 Rises=F Damp=F
 DIIS: error= 2.50D-06 at cycle   2 NSaved=   2.
 NSaved= 2 IEnMin= 2 EnMin= -151.326560331250     IErMin= 2 ErrMin= 2.50D-06
 ErrMax= 2.50D-06 EMaxC= 1.00D-01 BMatC= 1.02D-09 BMatP= 2.54D-08
 IDIUse=1 WtCom= 1.00D+00 WtEn= 0.00D+00
 Coeff-Com: -0.135D+00 0.114D+01
 Coeff:     -0.135D+00 0.114D+01
 Gap=     0.471 Goal=   None    Shift=    0.000
 RMSDP=3.02D-07 MaxDP=8.20D-06 DE=-2.47D-08 OVMax= 1.82D-05

 Cycle   3  Pass 1  IDiag  1:
 RMSU=  1.15D-07    CP:  1.00D+00  1.25D+00
 FoFJK:  IHMeth= 1 ICntrl=     0 DoSepK=T KAlg= 1 I1Cent= 0 FoldK=F
 E= -151.326560333578     Delta-E=       -0.000000002328 Rises=F Damp=F
 DIIS: error= 9.06D-07 at cycle   3 NSaved=   3.
 NSaved= 3 IEnMin= 3 EnMin= -151.326560333578     IErMin= 3 ErrMin= 9.06D-07
 ErrMax= 9.06D-07 EMaxC= 1.00D-01 BMatC= 1.30D-10 BMatP= 1.02D-09
 IDIUse=1 WtCom= 1.00D+00 WtEn= 0.00D+00
 Coeff-Com: -0.275D-01 0.538D-01 0.974D+00
 Coeff:     -0.275D-01 0.538D-01 0.974D+00
 Gap=     0.471 Goal=   None    Shift=    0.000
 RMSDP=9.56D-08 MaxDP=2.15D-06 DE=-2.33D-09 OVMax= 6.75D-06

 Cycle   4  Pass 1  IDiag  1:
 RMSU=  4.75D-08    CP:  1.00D+00  1.30D+00  1.28D+00
 FoFJK:  IHMeth= 1 ICntrl=     0 DoSepK=T KAlg= 1 I1Cent= 0 FoldK=F
 E= -151.326560333792     Delta-E=       -0.000000000213 Rises=F Damp=F
 DIIS: error= 7.46D-07 at cycle   4 NSaved=   4.
 NSaved= 4 IEnMin= 4 EnMin= -151.326560333792     IErMin= 4 ErrMin= 7.46D-07
 ErrMax= 7.46D-07 EMaxC= 1.00D-01 BMatC= 1.04D-10 BMatP= 1.30D-10
 IDIUse=1 WtCom= 1.00D+00 WtEn= 0.00D+00
 Coeff-Com:  0.958D-02-0.186D+00 0.550D+00 0.627D+00
 Coeff:      0.958D-02-0.186D+00 0.550D+00 0.627D+00
 Gap=     0.471 Goal=   None    Shift=    0.000
 RMSDP=4.72D-08 MaxDP=7.67D-07 DE=-2.13D-10 OVMax= 3.18D-06

 Cycle   5  Pass 1  IDiag  1:
 RMSU=  1.74D-08    CP:  1.00D+00  1.32D+00  1.48D+00  7.77D-01
 FoFJK:  IHMeth= 1 ICntrl=     0 DoSepK=T KAlg= 1 I1Cent= 0 FoldK=F
 E= -151.326560333889     Delta-E=       -0.000000000098 Rises=F Damp=F
 DIIS: error= 1.63D-07 at cycle   5 NSaved=   5.
 NSaved= 5 IEnMin= 5 EnMin= -151.326560333889     IErMin= 5 ErrMin= 1.63D-07
 ErrMax= 1.63D-07 EMaxC= 1.00D-01 BMatC= 3.59D-12 BMatP= 1.04D-10
 IDIUse=1 WtCom= 1.00D+00 WtEn= 0.00D+00
 Coeff-Com:  0.449D-02-0.273D-01-0.963D-01 0.582D-01 0.106D+01
 Coeff:      0.449D-02-0.273D-01-0.963D-01 0.582D-01 0.106D+01
 Gap=     0.471 Goal=   None    Shift=    0.000
 RMSDP=2.18D-08 MaxDP=4.22D-07 DE=-9.76D-11 OVMax= 1.95D-06

 Cycle   6  Pass 1  IDiag  1:
 RMSU=  5.42D-09    CP:  1.00D+00  1.32D+00  1.57D+00  9.37D-01  1.42D+00
 FoFJK:  IHMeth= 1 ICntrl=     0 DoSepK=T KAlg= 1 I1Cent= 0 FoldK=F
 E= -151.326560333900     Delta-E=       -0.000000000011 Rises=F Damp=F
 DIIS: error= 4.79D-08 at cycle   6 NSaved=   6.
 NSaved= 6 IEnMin= 6 EnMin= -151.326560333900     IErMin= 6 ErrMin= 4.79D-08
 ErrMax= 4.79D-08 EMaxC= 1.00D-01 BMatC= 3.01D-13 BMatP= 3.59D-12
 IDIUse=1 WtCom= 1.00D+00 WtEn= 0.00D+00
 Coeff-Com: -0.868D-03 0.170D-01-0.482D-01-0.530D-01 0.193D-01 0.107D+01
 Coeff:     -0.868D-03 0.170D-01-0.482D-01-0.530D-01 0.193D-01 0.107D+01
 Gap=     0.471 Goal=   None    Shift=    0.000
 RMSDP=7.73D-09 MaxDP=1.64D-07 DE=-1.09D-11 OVMax= 7.17D-07

 SCF Done:  E(RLC-B+HF-LYP) =  -151.326560334     A.U. after    6 cycles
             Convg  =    0.7728D-08             -V/T =  2.0057
 KE= 1.504671554128D+02 PE=-4.314067586796D+02 EE= 9.298654254507D+01
 Leave Link  502 at Wed May 13 14:52:12 2020, MaxMem= 1073741824 cpu:      51.1
 (Enter /home/matheus/.gaussian/g09/l122.exe)
 Restoring MOs from calculation   5 to rwf.
 Counterpoise: doing MCBS calculation for fragment   2
 Leave Link  122 at Wed May 13 14:52:12 2020, MaxMem= 1073741824 cpu:       0.0
 (Enter /home/matheus/.gaussian/g09/l301.exe)
 Basis read from rwf:  (5D, 7F)
 No pseudopotential information found on rwf file.
 There are    59 symmetry adapted basis functions of A   symmetry.
 Integral buffers will be    131072 words long.
 Raffenetti 2 integral format.
 Two-electron integral symmetry is turned on.
    59 basis functions,   217 primitive gaussians,    69 cartesian basis functions
    18 alpha electrons       18 beta electrons
       nuclear repulsion energy         0.0000000000 Hartrees.
 IExCor=10402 DFT=T Ex=LC-B+HF Corr=LYP ExCW=0 ScaHFX=  1.000000
 ScaDFX=  1.000000  1.000000  1.000000  1.000000 ScalE2=  1.000000  1.000000
 IRadAn=      5 IRanWt=     -1 IRanGd=            0 ICorTp=0
  HFx wShort=  0.000000 wLong=  0.470000 cFull=  0.000000 cShort=  0.000000 cLong=  1.000000
  DFx wShort=  0.000000 wLong=  0.470000 cFull=  0.000000 cShort=  0.000000 cLong=  1.000000
 NAtoms=    5 NActive=    1 NUniq=    1 SFac= 1.00D+00 NAtFMM=   60 NAOKFM=F Big=F
 No density basis found on file   718.
 Leave Link  301 at Wed May 13 14:52:12 2020, MaxMem= 1073741824 cpu:       0.2
 (Enter /home/matheus/.gaussian/g09/l302.exe)
 NPDir=0 NMtPBC=     1 NCelOv=     1 NCel=       1 NClECP=     1 NCelD=      1
         NCelK=      1 NCelE2=     1 NClLst=     1 CellRange=     0.0.
 One-electron integrals computed using PRISM.
 NBasis=    59 RedAO= T  NBF=    59
 NBsUse=    59 1.00D-06 NBFU=    59
 Precomputing XC quadrature grid using
 IXCGrd= 2 IRadAn=           5 IRanWt=          -1 IRanGd=           0 AccXCQ= 0.00D+00.
 NRdTot=      81 NPtTot=       30352 NUsed=       30981 NTot=       31013
 NSgBfM=    69    69    69    69    69 NAtAll=     1     1.
 Leave Link  302 at Wed May 13 14:52:12 2020, MaxMem= 1073741824 cpu:       0.7
 (Enter /home/matheus/.gaussian/g09/l303.exe)
 DipDrv:  MaxL=1.
 Leave Link  303 at Wed May 13 14:52:12 2020, MaxMem= 1073741824 cpu:       0.2
 (Enter /home/matheus/.gaussian/g09/l401.exe)
 Initial guess read from the read-write file.
 Guess basis will be translated and rotated to current coordinates.
 Initial guess orbital symmetries:
       Occupied  (A) (A) (A) (A) (A) (A) (A) (A) (A) (A) (A) (A)
                 (A) (A) (A) (A) (A) (A)
       Virtual   (A) (A) (A) (A) (A) (A) (A) (A) (A) (A) (A) (A)
                 (A) (A) (A) (A) (A) (A) (A) (A) (A) (A) (A) (A)
                 (A) (A) (A) (A) (A) (A) (A) (A) (A) (A) (A) (A)
                 (A) (A) (A) (A) (A)
 The electronic state of the initial guess is 1-A.
 Generating alternative initial guess.
 Harris functional with IExCor=10402 diagonalized for initial guess.
 ExpMin= 4.00D-02 ExpMax= 1.17D+07 ExpMxC= 1.33D+04 IAcc=3 IRadAn=         5 AccDes= 0.00D+00
 HarFok:  IExCor=10402 AccDes= 0.00D+00 IRadAn=         5 IDoV= 1
 ScaDFX=  1.000000  1.000000  1.000000  1.000000
 FoFCou: FMM=F IPFlag=           0 FMFlag=      100000 FMFlg1=           0
         NFxFlg=           0 DoJE=T BraDBF=F KetDBF=T FulRan=T
         Omega=  0.000000  0.000000  1.000000  0.000000  0.000000 ICntrl=     500 IOpCl=  0
         NMat0=    1 NMatS0=    1 NMatT0=    0 NMatD0=    1 NMtDS0=    0 NMtDT0=    0
         I1Cent=           4 NGrid=           0.
 Petite list used in FoFCou.
 Harris En= -2744.51485235229    
 Leave Link  401 at Wed May 13 14:52:12 2020, MaxMem= 1073741824 cpu:       1.1
 (Enter /home/matheus/.gaussian/g09/l502.exe)
 Closed shell SCF:
 Requested convergence on RMS density matrix=1.00D-08 within 128 cycles.
 Requested convergence on MAX density matrix=1.00D-06.
 Requested convergence on             energy=1.00D-06.
 No special actions if energy rises.
 Using DIIS extrapolation, IDIIS=  1040.
 Integral symmetry usage will be decided dynamically.
        30923 words used for storage of precomputed grid.
 IEnd=       64406 IEndB=       64406 NGot=  1073741824 MDV=  1073698889
 LenX=  1073698889 LenY=  1073693687
 Fock matrices will be formed incrementally for  20 cycles.

 Cycle   1  Pass 1  IDiag  1:
 FoFJK:  IHMeth= 1 ICntrl=     0 DoSepK=T KAlg= 1 I1Cent= 0 FoldK=F
 FoFCou: FMM=F IPFlag=           0 FMFlag=      100000 FMFlg1=           0
         NFxFlg=           0 DoJE=T BraDBF=F KetDBF=F FulRan=T
         Omega=  0.000000  0.000000  1.000000  0.000000  0.000000 ICntrl=     500 IOpCl=  0
         NMat0=    1 NMatS0=    1 NMatT0=    0 NMatD0=    1 NMtDS0=    0 NMtDT0=    0
         I1Cent=           0 NGrid=           0.
 Symmetry not used in FoFCou.
 E= -2753.41754223393    
 DIIS: error= 1.10D-13 at cycle   1 NSaved=   1.
 NSaved= 1 IEnMin= 1 EnMin= -2753.41754223393     IErMin= 1 ErrMin= 1.10D-13
 ErrMax= 1.10D-13 EMaxC= 1.00D-01 BMatC= 3.96D-25 BMatP= 3.96D-25
 IDIUse=1 WtCom= 1.00D+00 WtEn= 0.00D+00
 Coeff-Com:  0.100D+01
 Coeff:      0.100D+01
 Gap=     0.595 Goal=   None    Shift=    0.000
 DSYEVD returned Info=          89 IAlg= 4 N=    59 NDim=    59 NE2=    18198197 trying DSYEV.
 RMSDP=6.78D-15 MaxDP=1.05D-13              OVMax= 4.16D-14

 SCF Done:  E(RLC-B+HF-LYP) =  -2753.41754223     A.U. after    1 cycles
             Convg  =    0.6779D-14             -V/T =  2.0015
 KE= 2.749372504928D+03 PE=-6.578588569976D+03 EE= 1.075798522814D+03
 Leave Link  502 at Wed May 13 14:52:14 2020, MaxMem= 1073741824 cpu:      12.3
 (Enter /home/matheus/.gaussian/g09/l122.exe)
 Restoring MOs from calculation   1 to rwf.
 Counterpoise: corrected energy =   -2904.744200095846
 Counterpoise: BSSE energy =       0.000024997972
 Leave Link  122 at Wed May 13 14:52:14 2020, MaxMem= 1073741824 cpu:       0.0
 (Enter /home/matheus/.gaussian/g09/l108.exe)
 Scan completed.

 Summary of the potential surface scan:
   N      R1          SCF    
 ----  ---------  -----------
    1     3.0000  -2753.41754
    2     3.1000  -2753.41754
    3     3.2000  -2753.41754
    4     3.3000  -2753.41754
    5     3.4000  -2753.41754
    6     3.5000  -2753.41754
    7     3.6000  -2753.41754
    8     3.7000  -2753.41754
    9     3.8000  -2753.41754
   10     3.9000  -2753.41754
   11     4.0000  -2753.41754
   12     4.1000  -2753.41754
   13     4.2000  -2753.41754
   14     4.3000  -2753.41754
   15     4.4000  -2753.41754
   16     4.5000  -2753.41754
   17     4.6000  -2753.41754
   18     4.7000  -2753.41754
   19     4.8000  -2753.41754
   20     4.9000  -2753.41754
   21     5.0000  -2753.41754
 ----  ---------  -----------
  
 Leave Link  108 at Wed May 13 14:52:14 2020, MaxMem= 1073741824 cpu:       0.0
 (Enter /home/matheus/.gaussian/g09/l9999.exe)
 1\1\GINC-REDGIANT\Scan\RLC-BLYP\Aug-CC-pVTZ\H2Kr1O2\MATHEUS\13-May-202
 0\1\\#p lc-blyp/aug-cc-PVTz int=ultrafine counterpoise=2 Scan\\TCC\\0,
 1\O,0,0.,0.,0.725\O,0,0.,0.,-0.725\H,0,0.9187205947,0.,1.0235104166\H,
 0,0.,0.9187205947,-1.0235104166\Kr,0,0.,R1,0.\\R1=3.,s,20,0.1\\Version
 =EM64L-G09RevC.01\State=1-A\HF=-2753.4175422,-2753.4175422,-2753.41754
 22,-2753.4175422,-2753.4175422,-2753.4175422,-2753.4175422,-2753.41754
 22,-2753.4175422,-2753.4175422,-2753.4175422,-2753.4175422,-2753.41754
 22,-2753.4175422,-2753.4175422,-2753.4175422,-2753.4175422,-2753.41754
 22,-2753.4175422,-2753.4175422,-2753.4175422\RMSD=1.334e-09,5.265e-11,
 1.630e-11,9.944e-12,5.936e-12,3.606e-12,2.187e-12,1.324e-12,8.012e-13,
 4.893e-13,2.928e-13,1.773e-13,1.116e-13,6.900e-14,4.222e-14,2.357e-14,
 1.573e-14,1.280e-14,6.456e-15,5.857e-15,6.779e-15\PG=C01 [X(H2Kr1O2)]\
 \@


 I do not feel obliged to believe that the same God who
 has endowed us with sense, reason, and intellect has
 intended us to forgo their use.
                   --Galileo Galilei
 Job cpu time:  0 days  3 hours 22 minutes 47.2 seconds.
 File lengths (MBytes):  RWF=     37 Int=      0 D2E=      0 Chk=      8 Scr=      1
 Normal termination of Gaussian 09 at Wed May 13 14:52:14 2020.
