 Entering Gaussian System, Link 0=g09
 Input=/home/matheus/.tcc/Inputs/Inputs-lc-blyp-default/H2O2-Kr_24.com
 Output=/home/matheus/.tcc/Logs/Logs-lc-blyp-default/H2O2-Kr_24.log
 Initial command:
 /home/matheus/.gaussian/g09/l1.exe /home/matheus/.gaussian/g09/scratch/Gau-3571.inp -scrdir=/home/matheus/.gaussian/g09/scratch/
 Entering Link 1 = /home/matheus/.gaussian/g09/l1.exe PID=      3575.
  
 Copyright (c) 1988,1990,1992,1993,1995,1998,2003,2009,2011,
            Gaussian, Inc.  All Rights Reserved.
  
 This is part of the Gaussian(R) 09 program.  It is based on
 the Gaussian(R) 03 system (copyright 2003, Gaussian, Inc.),
 the Gaussian(R) 98 system (copyright 1998, Gaussian, Inc.),
 the Gaussian(R) 94 system (copyright 1995, Gaussian, Inc.),
 the Gaussian 92(TM) system (copyright 1992, Gaussian, Inc.),
 the Gaussian 90(TM) system (copyright 1990, Gaussian, Inc.),
 the Gaussian 88(TM) system (copyright 1988, Gaussian, Inc.),
 the Gaussian 86(TM) system (copyright 1986, Carnegie Mellon
 University), and the Gaussian 82(TM) system (copyright 1983,
 Carnegie Mellon University). Gaussian is a federally registered
 trademark of Gaussian, Inc.
  
 This software contains proprietary and confidential information,
 including trade secrets, belonging to Gaussian, Inc.
  
 This software is provided under written license and may be
 used, copied, transmitted, or stored only in accord with that
 written license.
  
 The following legend is applicable only to US Government
 contracts under FAR:
  
                    RESTRICTED RIGHTS LEGEND
  
 Use, reproduction and disclosure by the US Government is
 subject to restrictions as set forth in subparagraphs (a)
 and (c) of the Commercial Computer Software - Restricted
 Rights clause in FAR 52.227-19.
  
 Gaussian, Inc.
 340 Quinnipiac St., Bldg. 40, Wallingford CT 06492
  
  
 ---------------------------------------------------------------
 Warning -- This program may not be used in any manner that
 competes with the business of Gaussian, Inc. or will provide
 assistance to any competitor of Gaussian, Inc.  The licensee
 of this program is prohibited from giving any competitor of
 Gaussian, Inc. access to this program.  By using this program,
 the user acknowledges that Gaussian, Inc. is engaged in the
 business of creating and licensing software in the field of
 computational chemistry and represents and warrants to the
 licensee that it is not a competitor of Gaussian, Inc. and that
 it will not use this program in any manner prohibited above.
 ---------------------------------------------------------------
  

 Cite this work as:
 Gaussian 09, Revision C.01,
 M. J. Frisch, G. W. Trucks, H. B. Schlegel, G. E. Scuseria, 
 M. A. Robb, J. R. Cheeseman, G. Scalmani, V. Barone, B. Mennucci, 
 G. A. Petersson, H. Nakatsuji, M. Caricato, X. Li, H. P. Hratchian, 
 A. F. Izmaylov, J. Bloino, G. Zheng, J. L. Sonnenberg, M. Hada, 
 M. Ehara, K. Toyota, R. Fukuda, J. Hasegawa, M. Ishida, T. Nakajima, 
 Y. Honda, O. Kitao, H. Nakai, T. Vreven, J. A. Montgomery, Jr., 
 J. E. Peralta, F. Ogliaro, M. Bearpark, J. J. Heyd, E. Brothers, 
 K. N. Kudin, V. N. Staroverov, T. Keith, R. Kobayashi, J. Normand, 
 K. Raghavachari, A. Rendell, J. C. Burant, S. S. Iyengar, J. Tomasi, 
 M. Cossi, N. Rega, J. M. Millam, M. Klene, J. E. Knox, J. B. Cross, 
 V. Bakken, C. Adamo, J. Jaramillo, R. Gomperts, R. E. Stratmann, 
 O. Yazyev, A. J. Austin, R. Cammi, C. Pomelli, J. W. Ochterski, 
 R. L. Martin, K. Morokuma, V. G. Zakrzewski, G. A. Voth, 
 P. Salvador, J. J. Dannenberg, S. Dapprich, A. D. Daniels, 
 O. Farkas, J. B. Foresman, J. V. Ortiz, J. Cioslowski, 
 and D. J. Fox, Gaussian, Inc., Wallingford CT, 2010.
 
 ******************************************
 Gaussian 09:  EM64L-G09RevC.01 23-Sep-2011
                13-May-2020 
 ******************************************
 %mem=8GB
 %nproc=8
 Will use up to    8 processors via shared memory.
 --------------------------------------------------------
 #p lc-blyp/aug-cc-PVTz int=ultrafine counterpoise=2 Scan
 --------------------------------------------------------
 1/38=1,60=1,62=2/1,8;
 2/12=2,17=6,18=5,29=3,40=1/2;
 1/38=1,53=5172,62=2/22;
 3/5=16,6=1,7=10,11=2,16=1,25=1,30=1,74=1000402,75=-5/1,2,3;
 4//1;
 5/5=2,38=5/2;
 6/7=2,8=2,9=2,10=2,18=1,28=1/1;
 1/53=4052,62=2,63=1/22;
 3/5=7,6=11,7=10,11=2,16=1,25=1,30=1,74=1000402,75=-5,82=7/1,2,3;
 4//1;
 5/5=2,38=5/2;
 6/7=2,8=2,9=2,10=2,18=1,28=1/1;
 1/53=3042,62=2,63=2/22;
 3/5=7,6=11,7=10,11=2,16=1,25=1,30=1,74=1000402,75=-5,82=7/1,2,3;
 4//1;
 5/5=2,38=5/2;
 6/7=2,8=2,9=2,10=2,18=1,28=1/1;
 1/53=2032,62=2,63=3/22;
 3/5=7,6=11,7=10,11=2,16=1,25=1,30=1,74=1000402,75=-5,82=7/1,2,3;
 4//1;
 5/5=2,38=5/2;
 6/7=2,8=2,9=2,10=2,18=1,28=1/1;
 1/53=1022,62=2,63=4/22;
 3/5=7,6=11,7=10,11=2,16=1,25=1,30=1,74=1000402,75=-5,82=7/1,2,3;
 4//1;
 5/5=2,38=5/2;
 6/7=2,8=2,9=2,10=2,18=1,28=1/1;
 1/53=5014,62=2,63=5/22;
 1/60=1,62=2/8(1);
 99/9=1/99;
 2/29=3/2;
 1/53=5173,62=2/22;
 3/5=7,6=11,7=10,11=2,16=1,25=1,30=1,74=1000402,75=-5,82=7/1,2,3;
 4/5=5,16=3/1;
 5/5=2,38=5/2;
 1/53=4053,62=2,63=1/22;
 3/5=7,6=11,7=10,11=2,16=1,25=1,30=1,74=1000402,75=-5,82=7/1,2,3;
 4/5=5,16=3/1;
 5/5=2,38=5/2;
 1/53=3043,62=2,63=2/22;
 3/5=7,6=11,7=10,11=2,16=1,25=1,30=1,74=1000402,75=-5,82=7/1,2,3;
 4/5=5,16=3/1;
 5/5=2,38=5/2;
 1/53=2033,62=2,63=3/22;
 3/5=7,6=11,7=10,11=2,16=1,25=1,30=1,74=1000402,75=-5,82=7/1,2,3;
 4/5=5,16=3/1;
 5/5=2,38=5/2;
 1/53=1024,62=2,63=4/22;
 3/5=7,6=11,7=10,11=2,16=1,25=1,30=1,74=1000402,75=-5,82=7/1,2,3;
 4/5=5,16=3/1;
 5/5=2,38=5/2;
 1/53=5014,62=2,63=5/22;
 1/60=1,62=2/8(-22);
 99/9=1/99;
 Leave Link    1 at Wed May 13 20:54:01 2020, MaxMem= 1073741824 cpu:       0.1
 (Enter /home/matheus/.gaussian/g09/l101.exe)
 ---
 TCC
 ---
 Charge =  0 Multiplicity = 1 in supermolecule
 Charge =  0 Multiplicity = 1 in fragment  1.
 Charge =  0 Multiplicity = 1 in fragment  2.
 Symbolic Z-Matrix:
 O(Fragment=1)         0.        0.        0.725 
 O(Fragment=1)         0.        0.       -0.725 
 H(Fragment=1)        -0.79564  -0.45936   1.02351 
 H(Fragment=1)         0.        0.91872  -1.02351 
 Kr(Fragment=2)        0.       R1        0. 
       Variables:
  R1                    3.     Scan 20    0.1    
 
 NAtoms=      5 NQM=        0 NQMF=       0 NMMI=      5 NMMIF=      0
                NMic=       0 NMicF=      0.
                    Isotopes and Nuclear Properties:
 (Nuclear quadrupole moments (NQMom) in fm**2, nuclear magnetic moments (NMagM)
  in nuclear magnetons)

  Atom         1           2           3           4           5
 IAtWgt=          16          16           1           1          84
 AtmWgt=  15.9949146  15.9949146   1.0078250   1.0078250  83.9115064
 NucSpn=           0           0           1           1           0
 AtZEff=   0.0000000   0.0000000   0.0000000   0.0000000   0.0000000
 NQMom=    0.0000000   0.0000000   0.0000000   0.0000000   0.0000000
 NMagM=    0.0000000   0.0000000   2.7928460   2.7928460   0.0000000
 Leave Link  101 at Wed May 13 20:54:01 2020, MaxMem= 1073741824 cpu:       0.3
 (Enter /home/matheus/.gaussian/g09/l108.exe)
 Scan the potential surface.
 Variable   Value     No. Steps Step-Size
 -------- ----------- --------- ---------
     1       3.000000      20      0.1000
 A total of     21 points will be computed.
 Leave Link  108 at Wed May 13 20:54:01 2020, MaxMem= 1073741824 cpu:       0.0
 (Enter /home/matheus/.gaussian/g09/l202.exe)
 ---------------------------------------------------------------------------------------------------
                            Z-MATRIX (ANGSTROMS AND DEGREES)
   CD    Cent   Atom    N1       Length/X        N2       Alpha/Y        N3        Beta/Z          J
 ---------------------------------------------------------------------------------------------------
      1      1  O        0   0.000000          0.000000          0.725000
      2      2  O        0   0.000000          0.000000         -0.725000
      3      3  H        0  -0.795635         -0.459360          1.023510
      4      4  H        0   0.000000          0.918721         -1.023510
      5      5  Kr       0   0.000000          3.000000          0.000000
 ---------------------------------------------------------------------------------------------------
                         Z-Matrix orientation:                         
 ---------------------------------------------------------------------
 Center     Atomic      Atomic             Coordinates (Angstroms)
 Number     Number       Type             X           Y           Z
 ---------------------------------------------------------------------
      1          8           0        0.000000    0.000000    0.725000
      2          8           0        0.000000    0.000000   -0.725000
      3          1           0       -0.795635   -0.459360    1.023510
      4          1           0        0.000000    0.918721   -1.023510
      5         36           0        0.000000    3.000000    0.000000
 ---------------------------------------------------------------------
                    Distance matrix (angstroms):
                    1          2          3          4          5
     1  O    0.000000
     2  O    1.450000   0.000000
     3  H    0.966000   1.975180   0.000000
     4  H    1.975180   0.966000   2.592766   0.000000
     5  Kr   3.086361   3.086361   3.694291   2.319331   0.000000
 Stoichiometry    H2KrO2
 Framework group  C1[X(H2KrO2)]
 Deg. of freedom     9
 Full point group                 C1      NOp   1
 Largest Abelian subgroup         C1      NOp   1
 Largest concise Abelian subgroup C1      NOp   1
                         Standard orientation:                         
 ---------------------------------------------------------------------
 Center     Atomic      Atomic             Coordinates (Angstroms)
 Number     Number       Type             X           Y           Z
 ---------------------------------------------------------------------
      1          8           0       -2.018349   -0.689087   -0.106614
      2          8           0       -1.996994    0.756239    0.007743
      3          1           0       -2.496711   -1.041750    0.654934
      4          1           0       -1.074134    1.038958    0.047181
      5         36           0        0.991489   -0.014845    0.002468
 ---------------------------------------------------------------------
 Rotational constants (GHZ):     25.8792574      2.3237795      2.1427447
 Leave Link  202 at Wed May 13 20:54:01 2020, MaxMem= 1073741824 cpu:       0.0
 (Enter /home/matheus/.gaussian/g09/l122.exe)
 Leave Link  122 at Wed May 13 20:54:01 2020, MaxMem= 1073741824 cpu:       0.0
 (Enter /home/matheus/.gaussian/g09/l301.exe)
 Standard basis: Aug-CC-pVTZ (5D, 7F)
 Ernie: Thresh=  0.10000D-02 Tol=  0.10000D-05 Strict=F.
 Ernie:  38 primitive shells out of 205 were deleted.
 There are   197 symmetry adapted basis functions of A   symmetry.
 Integral buffers will be    131072 words long.
 Raffenetti 2 integral format.
 Two-electron integral symmetry is turned on.
   197 basis functions,   415 primitive gaussians,   229 cartesian basis functions
    27 alpha electrons       27 beta electrons
       nuclear repulsion energy       148.7418288716 Hartrees.
 IExCor=10402 DFT=T Ex=LC-B+HF Corr=LYP ExCW=0 ScaHFX=  1.000000
 ScaDFX=  1.000000  1.000000  1.000000  1.000000 ScalE2=  1.000000  1.000000
 IRadAn=      5 IRanWt=     -1 IRanGd=            0 ICorTp=0
  HFx wShort=  0.000000 wLong=  0.470000 cFull=  0.000000 cShort=  0.000000 cLong=  1.000000
  DFx wShort=  0.000000 wLong=  0.470000 cFull=  0.000000 cShort=  0.000000 cLong=  1.000000
 NAtoms=    5 NActive=    5 NUniq=    5 SFac= 1.00D+00 NAtFMM=   60 NAOKFM=F Big=F
 Leave Link  301 at Wed May 13 20:54:01 2020, MaxMem= 1073741824 cpu:       0.2
 (Enter /home/matheus/.gaussian/g09/l302.exe)
 NPDir=0 NMtPBC=     1 NCelOv=     1 NCel=       1 NClECP=     1 NCelD=      1
         NCelK=      1 NCelE2=     1 NClLst=     1 CellRange=     0.0.
 One-electron integrals computed using PRISM.
 NBasis=   197 RedAO= T  NBF=   197
 NBsUse=   197 1.00D-06 NBFU=   197
 Precomputing XC quadrature grid using
 IXCGrd= 2 IRadAn=           5 IRanWt=          -1 IRanGd=           0 AccXCQ= 0.00D+00.
 NRdTot=     427 NPtTot=      123512 NUsed=      126579 NTot=      126611
 NSgBfM=   229   229   229   229   229 NAtAll=     5     5.
 Leave Link  302 at Wed May 13 20:54:01 2020, MaxMem= 1073741824 cpu:       0.9
 (Enter /home/matheus/.gaussian/g09/l303.exe)
 DipDrv:  MaxL=1.
 Leave Link  303 at Wed May 13 20:54:01 2020, MaxMem= 1073741824 cpu:       0.2
 (Enter /home/matheus/.gaussian/g09/l401.exe)
 Harris functional with IExCor=10402 diagonalized for initial guess.
 ExpMin= 2.53D-02 ExpMax= 1.17D+07 ExpMxC= 1.33D+04 IAcc=3 IRadAn=         5 AccDes= 0.00D+00
 HarFok:  IExCor=10402 AccDes= 0.00D+00 IRadAn=         5 IDoV= 1
 ScaDFX=  1.000000  1.000000  1.000000  1.000000
 FoFCou: FMM=F IPFlag=           0 FMFlag=      100000 FMFlg1=           0
         NFxFlg=           0 DoJE=T BraDBF=F KetDBF=T FulRan=T
         Omega=  0.000000  0.000000  1.000000  0.000000  0.000000 ICntrl=     500 IOpCl=  0
         NMat0=    1 NMatS0=    1 NMatT0=    0 NMatD0=    1 NMtDS0=    0 NMtDT0=    0
         I1Cent=           4 NGrid=           0.
 Petite list used in FoFCou.
 Harris En= -2891.67148730286    
 Initial guess orbital symmetries:
       Occupied  (A) (A) (A) (A) (A) (A) (A) (A) (A) (A) (A) (A)
                 (A) (A) (A) (A) (A) (A) (A) (A) (A) (A) (A) (A)
                 (A) (A) (A)
       Virtual   (A) (A) (A) (A) (A) (A) (A) (A) (A) (A) (A) (A)
                 (A) (A) (A) (A) (A) (A) (A) (A) (A) (A) (A) (A)
                 (A) (A) (A) (A) (A) (A) (A) (A) (A) (A) (A) (A)
                 (A) (A) (A) (A) (A) (A) (A) (A) (A) (A) (A) (A)
                 (A) (A) (A) (A) (A) (A) (A) (A) (A) (A) (A) (A)
                 (A) (A) (A) (A) (A) (A) (A) (A) (A) (A) (A) (A)
                 (A) (A) (A) (A) (A) (A) (A) (A) (A) (A) (A) (A)
                 (A) (A) (A) (A) (A) (A) (A) (A) (A) (A) (A) (A)
                 (A) (A) (A) (A) (A) (A) (A) (A) (A) (A) (A) (A)
                 (A) (A) (A) (A) (A) (A) (A) (A) (A) (A) (A) (A)
                 (A) (A) (A) (A) (A) (A) (A) (A) (A) (A) (A) (A)
                 (A) (A) (A) (A) (A) (A) (A) (A) (A) (A) (A) (A)
                 (A) (A) (A) (A) (A) (A) (A) (A) (A) (A) (A) (A)
                 (A) (A) (A) (A) (A) (A) (A) (A) (A) (A) (A) (A)
                 (A) (A)
 The electronic state of the initial guess is 1-A.
 Leave Link  401 at Wed May 13 20:54:01 2020, MaxMem= 1073741824 cpu:       3.8
 (Enter /home/matheus/.gaussian/g09/l502.exe)
 Closed shell SCF:
 Requested convergence on RMS density matrix=1.00D-08 within 128 cycles.
 Requested convergence on MAX density matrix=1.00D-06.
 Requested convergence on             energy=1.00D-06.
 No special actions if energy rises.
 Using DIIS extrapolation, IDIIS=  1040.
 Integral symmetry usage will be decided dynamically.
       126521 words used for storage of precomputed grid.
 IEnd=      305468 IEndB=      305468 NGot=  1073741824 MDV=  1073505667
 LenX=  1073505667 LenY=  1073452785
 Fock matrices will be formed incrementally for  20 cycles.

 Cycle   1  Pass 1  IDiag  1:
 FoFJK:  IHMeth= 1 ICntrl=     0 DoSepK=T KAlg= 1 I1Cent= 0 FoldK=F
 FoFCou: FMM=F IPFlag=           0 FMFlag=      100000 FMFlg1=           0
         NFxFlg=           0 DoJE=T BraDBF=F KetDBF=F FulRan=T
         Omega=  0.000000  0.000000  1.000000  0.000000  0.000000 ICntrl=     500 IOpCl=  0
         NMat0=    1 NMatS0=    1 NMatT0=    0 NMatD0=    1 NMtDS0=    0 NMtDT0=    0
         I1Cent=           0 NGrid=           0.
 Symmetry not used in FoFCou.
 E= -2904.63635175857    
 DIIS: error= 2.38D-02 at cycle   1 NSaved=   1.
 NSaved= 1 IEnMin= 1 EnMin= -2904.63635175857     IErMin= 1 ErrMin= 2.38D-02
 ErrMax= 2.38D-02 EMaxC= 1.00D-01 BMatC= 2.83D-01 BMatP= 2.83D-01
 IDIUse=3 WtCom= 7.62D-01 WtEn= 2.38D-01
 Coeff-Com:  0.100D+01
 Coeff-En:   0.100D+01
 Coeff:      0.100D+01
 Gap=     0.485 Goal=   None    Shift=    0.000
 GapD=    0.485 DampG=2.000 DampE=0.500 DampFc=1.0000 IDamp=-1.
 RMSDP=2.65D-03 MaxDP=1.52D-01              OVMax= 1.06D-01

 Cycle   2  Pass 1  IDiag  1:
 RMSU=  1.83D-03    CP:  1.02D+00
 FoFJK:  IHMeth= 1 ICntrl=     0 DoSepK=T KAlg= 1 I1Cent= 0 FoldK=F
 E= -2904.71100415426     Delta-E=       -0.074652395689 Rises=F Damp=F
 DIIS: error= 1.29D-02 at cycle   2 NSaved=   2.
 NSaved= 2 IEnMin= 2 EnMin= -2904.71100415426     IErMin= 2 ErrMin= 1.29D-02
 ErrMax= 1.29D-02 EMaxC= 1.00D-01 BMatC= 9.29D-02 BMatP= 2.83D-01
 IDIUse=3 WtCom= 8.71D-01 WtEn= 1.29D-01
 Coeff-Com:  0.359D+00 0.641D+00
 Coeff-En:   0.371D-01 0.963D+00
 Coeff:      0.318D+00 0.682D+00
 Gap=     0.450 Goal=   None    Shift=    0.000
 RMSDP=1.02D-03 MaxDP=6.20D-02 DE=-7.47D-02 OVMax= 3.15D-02

 Cycle   3  Pass 1  IDiag  1:
 RMSU=  3.23D-04    CP:  1.01D+00  6.59D-01
 FoFJK:  IHMeth= 1 ICntrl=     0 DoSepK=T KAlg= 1 I1Cent= 0 FoldK=F
 E= -2904.74178660440     Delta-E=       -0.030782450145 Rises=F Damp=F
 DIIS: error= 1.53D-03 at cycle   3 NSaved=   3.
 NSaved= 3 IEnMin= 3 EnMin= -2904.74178660440     IErMin= 3 ErrMin= 1.53D-03
 ErrMax= 1.53D-03 EMaxC= 1.00D-01 BMatC= 1.17D-03 BMatP= 9.29D-02
 IDIUse=3 WtCom= 9.85D-01 WtEn= 1.53D-02
 Coeff-Com:  0.812D-02 0.103D+00 0.889D+00
 Coeff-En:   0.000D+00 0.000D+00 0.100D+01
 Coeff:      0.800D-02 0.101D+00 0.891D+00
 Gap=     0.456 Goal=   None    Shift=    0.000
 RMSDP=1.51D-04 MaxDP=5.90D-03 DE=-3.08D-02 OVMax= 7.24D-03

 Cycle   4  Pass 1  IDiag  1:
 RMSU=  6.77D-05    CP:  1.02D+00  7.00D-01  1.10D+00
 FoFJK:  IHMeth= 1 ICntrl=     0 DoSepK=T KAlg= 1 I1Cent= 0 FoldK=F
 E= -2904.74229509651     Delta-E=       -0.000508492104 Rises=F Damp=F
 DIIS: error= 5.32D-04 at cycle   4 NSaved=   4.
 NSaved= 4 IEnMin= 4 EnMin= -2904.74229509651     IErMin= 4 ErrMin= 5.32D-04
 ErrMax= 5.32D-04 EMaxC= 1.00D-01 BMatC= 9.39D-05 BMatP= 1.17D-03
 IDIUse=3 WtCom= 9.95D-01 WtEn= 5.32D-03
 Coeff-Com: -0.122D-01 0.124D-01 0.326D+00 0.673D+00
 Coeff-En:   0.000D+00 0.000D+00 0.000D+00 0.100D+01
 Coeff:     -0.121D-01 0.124D-01 0.325D+00 0.675D+00
 Gap=     0.452 Goal=   None    Shift=    0.000
 RMSDP=3.79D-05 MaxDP=1.45D-03 DE=-5.08D-04 OVMax= 2.08D-03

 Cycle   5  Pass 1  IDiag  1:
 RMSU=  2.07D-05    CP:  1.02D+00  7.03D-01  1.15D+00  9.68D-01
 FoFJK:  IHMeth= 1 ICntrl=     0 DoSepK=T KAlg= 1 I1Cent= 0 FoldK=F
 E= -2904.74235615290     Delta-E=       -0.000061056394 Rises=F Damp=F
 DIIS: error= 1.70D-04 at cycle   5 NSaved=   5.
 NSaved= 5 IEnMin= 5 EnMin= -2904.74235615290     IErMin= 5 ErrMin= 1.70D-04
 ErrMax= 1.70D-04 EMaxC= 1.00D-01 BMatC= 8.51D-06 BMatP= 9.39D-05
 IDIUse=3 WtCom= 9.98D-01 WtEn= 1.70D-03
 Coeff-Com: -0.397D-02-0.678D-02-0.535D-02 0.207D+00 0.809D+00
 Coeff-En:   0.000D+00 0.000D+00 0.000D+00 0.000D+00 0.100D+01
 Coeff:     -0.396D-02-0.677D-02-0.534D-02 0.206D+00 0.810D+00
 Gap=     0.452 Goal=   None    Shift=    0.000
 RMSDP=1.61D-05 MaxDP=5.20D-04 DE=-6.11D-05 OVMax= 9.85D-04

 Cycle   6  Pass 1  IDiag  1:
 RMSU=  6.52D-06    CP:  1.02D+00  7.05D-01  1.17D+00  1.06D+00  1.02D+00
 FoFJK:  IHMeth= 1 ICntrl=     0 DoSepK=T KAlg= 1 I1Cent= 0 FoldK=F
 E= -2904.74236325108     Delta-E=       -0.000007098180 Rises=F Damp=F
 DIIS: error= 7.09D-05 at cycle   6 NSaved=   6.
 NSaved= 6 IEnMin= 6 EnMin= -2904.74236325108     IErMin= 6 ErrMin= 7.09D-05
 ErrMax= 7.09D-05 EMaxC= 1.00D-01 BMatC= 1.81D-06 BMatP= 8.51D-06
 IDIUse=1 WtCom= 1.00D+00 WtEn= 0.00D+00
 Coeff-Com: -0.638D-03-0.413D-02-0.289D-01 0.304D-01 0.361D+00 0.642D+00
 Coeff:     -0.638D-03-0.413D-02-0.289D-01 0.304D-01 0.361D+00 0.642D+00
 Gap=     0.452 Goal=   None    Shift=    0.000
 RMSDP=5.53D-06 MaxDP=1.90D-04 DE=-7.10D-06 OVMax= 3.70D-04

 Cycle   7  Pass 1  IDiag  1:
 RMSU=  2.42D-06    CP:  1.02D+00  7.05D-01  1.18D+00  1.09D+00  1.11D+00
                    CP:  9.39D-01
 FoFJK:  IHMeth= 1 ICntrl=     0 DoSepK=T KAlg= 1 I1Cent= 0 FoldK=F
 E= -2904.74236453130     Delta-E=       -0.000001280221 Rises=F Damp=F
 DIIS: error= 2.25D-05 at cycle   7 NSaved=   7.
 NSaved= 7 IEnMin= 7 EnMin= -2904.74236453130     IErMin= 7 ErrMin= 2.25D-05
 ErrMax= 2.25D-05 EMaxC= 1.00D-01 BMatC= 1.61D-07 BMatP= 1.81D-06
 IDIUse=1 WtCom= 1.00D+00 WtEn= 0.00D+00
 Coeff-Com:  0.165D-03-0.102D-02-0.959D-02-0.198D-01 0.522D-02 0.230D+00
 Coeff-Com:  0.795D+00
 Coeff:      0.165D-03-0.102D-02-0.959D-02-0.198D-01 0.522D-02 0.230D+00
 Coeff:      0.795D+00
 Gap=     0.452 Goal=   None    Shift=    0.000
 RMSDP=2.17D-06 MaxDP=6.39D-05 DE=-1.28D-06 OVMax= 1.33D-04

 Cycle   8  Pass 1  IDiag  1:
 RMSU=  6.45D-07    CP:  1.02D+00  7.05D-01  1.18D+00  1.10D+00  1.14D+00
                    CP:  1.06D+00  9.86D-01
 FoFJK:  IHMeth= 1 ICntrl=     0 DoSepK=T KAlg= 1 I1Cent= 0 FoldK=F
 E= -2904.74236468751     Delta-E=       -0.000000156208 Rises=F Damp=F
 DIIS: error= 3.71D-06 at cycle   8 NSaved=   8.
 NSaved= 8 IEnMin= 8 EnMin= -2904.74236468751     IErMin= 8 ErrMin= 3.71D-06
 ErrMax= 3.71D-06 EMaxC= 1.00D-01 BMatC= 2.94D-09 BMatP= 1.61D-07
 IDIUse=1 WtCom= 1.00D+00 WtEn= 0.00D+00
 Coeff-Com:  0.113D-04 0.328D-03 0.265D-02 0.683D-03-0.216D-01-0.611D-01
 Coeff-Com: -0.829D-01 0.116D+01
 Coeff:      0.113D-04 0.328D-03 0.265D-02 0.683D-03-0.216D-01-0.611D-01
 Coeff:     -0.829D-01 0.116D+01
 Gap=     0.452 Goal=   None    Shift=    0.000
 RMSDP=5.89D-07 MaxDP=1.75D-05 DE=-1.56D-07 OVMax= 5.98D-05

 Cycle   9  Pass 1  IDiag  1:
 RMSU=  1.49D-07    CP:  1.02D+00  7.05D-01  1.18D+00  1.10D+00  1.14D+00
                    CP:  1.08D+00  1.06D+00  1.37D+00
 FoFJK:  IHMeth= 1 ICntrl=     0 DoSepK=T KAlg= 1 I1Cent= 0 FoldK=F
 E= -2904.74236469684     Delta-E=       -0.000000009331 Rises=F Damp=F
 DIIS: error= 7.07D-07 at cycle   9 NSaved=   9.
 NSaved= 9 IEnMin= 9 EnMin= -2904.74236469684     IErMin= 9 ErrMin= 7.07D-07
 ErrMax= 7.07D-07 EMaxC= 1.00D-01 BMatC= 1.96D-10 BMatP= 2.94D-09
 IDIUse=1 WtCom= 1.00D+00 WtEn= 0.00D+00
 Coeff-Com: -0.287D-05 0.110D-03 0.717D-03 0.122D-02-0.123D-02-0.170D-01
 Coeff-Com: -0.533D-01 0.565D-01 0.101D+01
 Coeff:     -0.287D-05 0.110D-03 0.717D-03 0.122D-02-0.123D-02-0.170D-01
 Coeff:     -0.533D-01 0.565D-01 0.101D+01
 Gap=     0.452 Goal=   None    Shift=    0.000
 RMSDP=1.30D-07 MaxDP=4.56D-06 DE=-9.33D-09 OVMax= 1.40D-05

 Cycle  10  Pass 1  IDiag  1:
 RMSU=  4.59D-08    CP:  1.02D+00  7.05D-01  1.18D+00  1.10D+00  1.14D+00
                    CP:  1.08D+00  1.07D+00  1.45D+00  1.28D+00
 FoFJK:  IHMeth= 1 ICntrl=     0 DoSepK=T KAlg= 1 I1Cent= 0 FoldK=F
 E= -2904.74236469740     Delta-E=       -0.000000000558 Rises=F Damp=F
 DIIS: error= 2.42D-07 at cycle  10 NSaved=  10.
 NSaved=10 IEnMin=10 EnMin= -2904.74236469740     IErMin=10 ErrMin= 2.42D-07
 ErrMax= 2.42D-07 EMaxC= 1.00D-01 BMatC= 1.08D-11 BMatP= 1.96D-10
 IDIUse=1 WtCom= 1.00D+00 WtEn= 0.00D+00
 Coeff-Com:  0.401D-07-0.247D-04-0.193D-03-0.129D-03 0.118D-02 0.443D-02
 Coeff-Com:  0.932D-02-0.744D-01-0.352D-01 0.110D+01
 Coeff:      0.401D-07-0.247D-04-0.193D-03-0.129D-03 0.118D-02 0.443D-02
 Coeff:      0.932D-02-0.744D-01-0.352D-01 0.110D+01
 Gap=     0.452 Goal=   None    Shift=    0.000
 RMSDP=3.79D-08 MaxDP=1.01D-06 DE=-5.58D-10 OVMax= 3.96D-06

 Cycle  11  Pass 1  IDiag  1:
 RMSU=  1.07D-08    CP:  1.02D+00  7.05D-01  1.18D+00  1.10D+00  1.14D+00
                    CP:  1.08D+00  1.07D+00  1.46D+00  1.39D+00  1.26D+00
 FoFJK:  IHMeth= 1 ICntrl=     0 DoSepK=T KAlg= 1 I1Cent= 0 FoldK=F
 E= -2904.74236469744     Delta-E=       -0.000000000039 Rises=F Damp=F
 DIIS: error= 5.33D-08 at cycle  11 NSaved=  11.
 NSaved=11 IEnMin=11 EnMin= -2904.74236469744     IErMin=11 ErrMin= 5.33D-08
 ErrMax= 5.33D-08 EMaxC= 1.00D-01 BMatC= 8.90D-13 BMatP= 1.08D-11
 IDIUse=1 WtCom= 1.00D+00 WtEn= 0.00D+00
 Coeff-Com: -0.378D-07-0.110D-04-0.679D-04-0.977D-04 0.163D-03 0.158D-02
 Coeff-Com:  0.491D-02-0.102D-01-0.730D-01 0.481D-01 0.103D+01
 Coeff:     -0.378D-07-0.110D-04-0.679D-04-0.977D-04 0.163D-03 0.158D-02
 Coeff:      0.491D-02-0.102D-01-0.730D-01 0.481D-01 0.103D+01
 Gap=     0.452 Goal=   None    Shift=    0.000
 RMSDP=9.46D-09 MaxDP=2.36D-07 DE=-3.87D-11 OVMax= 1.14D-06

 SCF Done:  E(RLC-B+HF-LYP) =  -2904.74236470     A.U. after   11 cycles
             Convg  =    0.9460D-08             -V/T =  2.0017
 KE= 2.899827416528D+03 PE=-7.233843758621D+03 EE= 1.280532148524D+03
 Leave Link  502 at Wed May 13 20:54:34 2020, MaxMem= 1073741824 cpu:     259.6
 (Enter /home/matheus/.gaussian/g09/l601.exe)
 Copying SCF densities to generalized density rwf, IOpCl= 0 IROHF=0.

 **********************************************************************

            Population analysis using the SCF density.

 **********************************************************************

 Orbital symmetries:
       Occupied  (A) (A) (A) (A) (A) (A) (A) (A) (A) (A) (A) (A)
                 (A) (A) (A) (A) (A) (A) (A) (A) (A) (A) (A) (A)
                 (A) (A) (A)
       Virtual   (A) (A) (A) (A) (A) (A) (A) (A) (A) (A) (A) (A)
                 (A) (A) (A) (A) (A) (A) (A) (A) (A) (A) (A) (A)
                 (A) (A) (A) (A) (A) (A) (A) (A) (A) (A) (A) (A)
                 (A) (A) (A) (A) (A) (A) (A) (A) (A) (A) (A) (A)
                 (A) (A) (A) (A) (A) (A) (A) (A) (A) (A) (A) (A)
                 (A) (A) (A) (A) (A) (A) (A) (A) (A) (A) (A) (A)
                 (A) (A) (A) (A) (A) (A) (A) (A) (A) (A) (A) (A)
                 (A) (A) (A) (A) (A) (A) (A) (A) (A) (A) (A) (A)
                 (A) (A) (A) (A) (A) (A) (A) (A) (A) (A) (A) (A)
                 (A) (A) (A) (A) (A) (A) (A) (A) (A) (A) (A) (A)
                 (A) (A) (A) (A) (A) (A) (A) (A) (A) (A) (A) (A)
                 (A) (A) (A) (A) (A) (A) (A) (A) (A) (A) (A) (A)
                 (A) (A) (A) (A) (A) (A) (A) (A) (A) (A) (A) (A)
                 (A) (A) (A) (A) (A) (A) (A) (A) (A) (A) (A) (A)
                 (A) (A)
 The electronic state is 1-A.
 Alpha  occ. eigenvalues -- -511.25463 -66.72464 -60.40998 -60.40980 -60.40970
 Alpha  occ. eigenvalues --  -19.07270 -19.06914  -9.61619  -7.37115  -7.37066
 Alpha  occ. eigenvalues --   -7.37035  -3.33446  -3.33437  -3.33415  -3.33378
 Alpha  occ. eigenvalues --   -3.33375  -1.28267  -1.07549  -1.06220  -0.69701
 Alpha  occ. eigenvalues --   -0.64480  -0.56989  -0.52832  -0.52356  -0.51625
 Alpha  occ. eigenvalues --   -0.46718  -0.42697
 Alpha virt. eigenvalues --    0.02532   0.03502   0.07446   0.08988   0.10009
 Alpha virt. eigenvalues --    0.10515   0.12815   0.13103   0.15780   0.16599
 Alpha virt. eigenvalues --    0.17591   0.19037   0.19448   0.21226   0.22851
 Alpha virt. eigenvalues --    0.23898   0.25383   0.28044   0.31034   0.32656
 Alpha virt. eigenvalues --    0.33321   0.34068   0.35075   0.38283   0.38977
 Alpha virt. eigenvalues --    0.40397   0.42144   0.47080   0.52281   0.55325
 Alpha virt. eigenvalues --    0.55925   0.58783   0.61557   0.66115   0.67633
 Alpha virt. eigenvalues --    0.70235   0.71817   0.72390   0.74476   0.75732
 Alpha virt. eigenvalues --    0.76564   0.78072   0.78932   0.80934   0.82464
 Alpha virt. eigenvalues --    0.85262   0.85554   0.87466   0.89364   0.90504
 Alpha virt. eigenvalues --    0.92542   0.93542   0.95270   0.95973   1.00122
 Alpha virt. eigenvalues --    1.01290   1.02919   1.05946   1.07215   1.09371
 Alpha virt. eigenvalues --    1.10159   1.15396   1.16308   1.18452   1.23032
 Alpha virt. eigenvalues --    1.24826   1.31283   1.33857   1.38247   1.42428
 Alpha virt. eigenvalues --    1.43810   1.50292   1.52791   1.54169   1.59451
 Alpha virt. eigenvalues --    1.66809   1.74017   1.83566   1.88495   1.94901
 Alpha virt. eigenvalues --    1.99200   2.02256   2.11803   2.13546   2.15084
 Alpha virt. eigenvalues --    2.16489   2.19264   2.20384   2.22613   2.26518
 Alpha virt. eigenvalues --    2.27839   2.31621   2.32387   2.32954   2.37190
 Alpha virt. eigenvalues --    2.38870   2.40530   2.44906   2.45949   2.50215
 Alpha virt. eigenvalues --    2.51381   2.51832   2.56033   2.57532   2.59649
 Alpha virt. eigenvalues --    2.61409   2.64188   2.65272   2.68449   2.73451
 Alpha virt. eigenvalues --    2.74544   2.77584   2.81062   2.87717   2.89563
 Alpha virt. eigenvalues --    2.91764   3.05826   3.11797   3.15691   3.63277
 Alpha virt. eigenvalues --    3.69104   3.88026   3.96983   4.02132   4.09275
 Alpha virt. eigenvalues --    4.10347   4.18394   4.23903   4.27486   4.29874
 Alpha virt. eigenvalues --    4.43377   4.50734   4.51399   4.54998   4.69393
 Alpha virt. eigenvalues --    4.90600   4.98453   5.07169   5.13607   5.14216
 Alpha virt. eigenvalues --    5.23850   5.43361   5.84663   6.06997   6.12561
 Alpha virt. eigenvalues --    6.14328   6.32876   6.36519   6.44929   6.56492
 Alpha virt. eigenvalues --    6.61181   6.77916   6.79523   6.82398   6.84581
 Alpha virt. eigenvalues --    6.87539   6.89723   6.90278   6.98554   7.02605
 Alpha virt. eigenvalues --    7.05997   7.18249   7.26273   7.43661   7.72836
 Alpha virt. eigenvalues --    7.80343   8.07331   8.11766  13.88603  14.58093
          Condensed to atoms (all electrons):
              1          2          3          4          5
     1  O    8.205007  -0.172042   0.196403   0.001335  -0.033424
     2  O   -0.172042   8.181036   0.016102   0.215810  -0.012289
     3  H    0.196403   0.016102   0.578007   0.001626   0.003747
     4  H    0.001335   0.215810   0.001626   0.577663  -0.004364
     5  Kr  -0.033424  -0.012289   0.003747  -0.004364  36.032480
 Mulliken atomic charges:
              1
     1  O   -0.197279
     2  O   -0.228617
     3  H    0.204115
     4  H    0.207930
     5  Kr   0.013850
 Sum of Mulliken atomic charges =   0.00000
 Mulliken charges with hydrogens summed into heavy atoms:
              1
     1  O    0.006836
     2  O   -0.020686
     5  Kr   0.013850
 Sum of Mulliken charges with hydrogens summed into heavy atoms =   0.00000
          Condensed to fragments (all electrons):
     1      -0.013850
     2       0.013850
 Electronic spatial extent (au):  <R**2>=            489.1212
 Charge=              0.0000 electrons
 Dipole moment (field-independent basis, Debye):
    X=              0.9777    Y=             -0.4008    Z=              1.3803  Tot=              1.7383
 Quadrupole moment (field-independent basis, Debye-Ang):
   XX=            -31.3411   YY=            -28.3902   ZZ=            -29.7415
   XY=              3.3324   XZ=             -3.7331   YZ=             -1.5908
 Traceless Quadrupole moment (field-independent basis, Debye-Ang):
   XX=             -1.5168   YY=              1.4341   ZZ=              0.0827
   XY=              3.3324   XZ=             -3.7331   YZ=             -1.5908
 Octapole moment (field-independent basis, Debye-Ang**2):
  XXX=             21.3305  YYY=             -1.0598  ZZZ=              0.9955  XYY=              4.7820
  XXY=            -12.2793  XXZ=              9.5536  XZZ=              6.0667  YZZ=             -1.5006
  YYZ=              1.9624  XYZ=              4.2054
 Hexadecapole moment (field-independent basis, Debye-Ang**3):
 XXXX=           -419.9069 YYYY=            -65.2098 ZZZZ=            -30.9526 XXXY=             33.0302
 XXXZ=            -25.5863 YYYX=              5.6197 YYYZ=             -2.2110 ZZZX=             -2.9684
 ZZZY=             -1.4921 XXYY=            -78.7940 XXZZ=            -73.6320 YYZZ=            -16.8878
 XXYZ=            -11.0389 YYXZ=             -4.9457 ZZXY=              3.2943
 N-N= 1.487418288716D+02 E-N=-7.233843750899D+03  KE= 2.899827416528D+03
 No NMR shielding tensors so no spin-rotation constants.
 Leave Link  601 at Wed May 13 20:54:34 2020, MaxMem= 1073741824 cpu:       0.7
 (Enter /home/matheus/.gaussian/g09/l122.exe)
 Counterpoise: doing DCBS calculation for fragment   1 NewBq=T
 Leave Link  122 at Wed May 13 20:54:34 2020, MaxMem= 1073741824 cpu:       0.0
 (Enter /home/matheus/.gaussian/g09/l301.exe)
 Basis read from rwf:  (5D, 7F)
 No pseudopotential information found on rwf file.
 There are   197 symmetry adapted basis functions of A   symmetry.
 Integral buffers will be    131072 words long.
 Raffenetti 2 integral format.
 Two-electron integral symmetry is turned on.
   197 basis functions,   415 primitive gaussians,   229 cartesian basis functions
     9 alpha electrons        9 beta electrons
       nuclear repulsion energy        36.6123390277 Hartrees.
 IExCor=10402 DFT=T Ex=LC-B+HF Corr=LYP ExCW=0 ScaHFX=  1.000000
 ScaDFX=  1.000000  1.000000  1.000000  1.000000 ScalE2=  1.000000  1.000000
 IRadAn=      5 IRanWt=     -1 IRanGd=            0 ICorTp=0
  HFx wShort=  0.000000 wLong=  0.470000 cFull=  0.000000 cShort=  0.000000 cLong=  1.000000
  DFx wShort=  0.000000 wLong=  0.470000 cFull=  0.000000 cShort=  0.000000 cLong=  1.000000
 NAtoms=    5 NActive=    5 NUniq=    5 SFac= 1.00D+00 NAtFMM=   60 NAOKFM=F Big=F
 No density basis found on file   718.
 Leave Link  301 at Wed May 13 20:54:34 2020, MaxMem= 1073741824 cpu:       0.2
 (Enter /home/matheus/.gaussian/g09/l302.exe)
 NPDir=0 NMtPBC=     1 NCelOv=     1 NCel=       1 NClECP=     1 NCelD=      1
         NCelK=      1 NCelE2=     1 NClLst=     1 CellRange=     0.0.
 One-electron integrals computed using PRISM.
 NBasis=   197 RedAO= T  NBF=   197
 NBsUse=   197 1.00D-06 NBFU=   197
 Precomputing XC quadrature grid using
 IXCGrd= 2 IRadAn=           5 IRanWt=          -1 IRanGd=           0 AccXCQ= 0.00D+00.
 NRdTot=     427 NPtTot=      123512 NUsed=      126579 NTot=      126611
 NSgBfM=   229   229   229   229   229 NAtAll=     5     5.
 Leave Link  302 at Wed May 13 20:54:34 2020, MaxMem= 1073741824 cpu:       0.9
 (Enter /home/matheus/.gaussian/g09/l303.exe)
 DipDrv:  MaxL=1.
 Leave Link  303 at Wed May 13 20:54:34 2020, MaxMem= 1073741824 cpu:       0.2
 (Enter /home/matheus/.gaussian/g09/l401.exe)
 Harris functional with IExCor=10402 diagonalized for initial guess.
 ExpMin= 2.53D-02 ExpMax= 1.17D+07 ExpMxC= 1.33D+04 IAcc=3 IRadAn=         5 AccDes= 0.00D+00
 HarFok:  IExCor=10402 AccDes= 0.00D+00 IRadAn=         5 IDoV= 1
 ScaDFX=  1.000000  1.000000  1.000000  1.000000
 FoFCou: FMM=F IPFlag=           0 FMFlag=      100000 FMFlg1=           0
         NFxFlg=           0 DoJE=T BraDBF=F KetDBF=T FulRan=T
         Omega=  0.000000  0.000000  1.000000  0.000000  0.000000 ICntrl=     500 IOpCl=  0
         NMat0=    1 NMatS0=    1 NMatT0=    0 NMatD0=    1 NMtDS0=    0 NMtDT0=    0
         I1Cent=           4 NGrid=           0.
 Petite list used in FoFCou.
 Harris En= -147.164800012286    
 Initial guess orbital symmetries:
       Occupied  (A) (A) (A) (A) (A) (A) (A) (A) (A)
       Virtual   (A) (A) (A) (A) (A) (A) (A) (A) (A) (A) (A) (A)
                 (A) (A) (A) (A) (A) (A) (A) (A) (A) (A) (A) (A)
                 (A) (A) (A) (A) (A) (A) (A) (A) (A) (A) (A) (A)
                 (A) (A) (A) (A) (A) (A) (A) (A) (A) (A) (A) (A)
                 (A) (A) (A) (A) (A) (A) (A) (A) (A) (A) (A) (A)
                 (A) (A) (A) (A) (A) (A) (A) (A) (A) (A) (A) (A)
                 (A) (A) (A) (A) (A) (A) (A) (A) (A) (A) (A) (A)
                 (A) (A) (A) (A) (A) (A) (A) (A) (A) (A) (A) (A)
                 (A) (A) (A) (A) (A) (A) (A) (A) (A) (A) (A) (A)
                 (A) (A) (A) (A) (A) (A) (A) (A) (A) (A) (A) (A)
                 (A) (A) (A) (A) (A) (A) (A) (A) (A) (A) (A) (A)
                 (A) (A) (A) (A) (A) (A) (A) (A) (A) (A) (A) (A)
                 (A) (A) (A) (A) (A) (A) (A) (A) (A) (A) (A) (A)
                 (A) (A) (A) (A) (A) (A) (A) (A) (A) (A) (A) (A)
                 (A) (A) (A) (A) (A) (A) (A) (A) (A) (A) (A) (A)
                 (A) (A) (A) (A) (A) (A) (A) (A)
 The electronic state of the initial guess is 1-A.
 Leave Link  401 at Wed May 13 20:54:35 2020, MaxMem= 1073741824 cpu:       3.7
 (Enter /home/matheus/.gaussian/g09/l502.exe)
 Closed shell SCF:
 Requested convergence on RMS density matrix=1.00D-08 within 128 cycles.
 Requested convergence on MAX density matrix=1.00D-06.
 Requested convergence on             energy=1.00D-06.
 No special actions if energy rises.
 Using DIIS extrapolation, IDIIS=  1040.
 Integral symmetry usage will be decided dynamically.
       126521 words used for storage of precomputed grid.
 IEnd=      305468 IEndB=      305468 NGot=  1073741824 MDV=  1073505667
 LenX=  1073505667 LenY=  1073452785
 Fock matrices will be formed incrementally for  20 cycles.

 Cycle   1  Pass 1  IDiag  1:
 FoFJK:  IHMeth= 1 ICntrl=     0 DoSepK=T KAlg= 1 I1Cent= 0 FoldK=F
 FoFCou: FMM=F IPFlag=           0 FMFlag=      100000 FMFlg1=           0
         NFxFlg=           0 DoJE=T BraDBF=F KetDBF=F FulRan=T
         Omega=  0.000000  0.000000  1.000000  0.000000  0.000000 ICntrl=     500 IOpCl=  0
         NMat0=    1 NMatS0=    1 NMatT0=    0 NMatD0=    1 NMtDS0=    0 NMtDT0=    0
         I1Cent=           0 NGrid=           0.
 Symmetry not used in FoFCou.
 E= -151.305170526622    
 DIIS: error= 1.00D-02 at cycle   1 NSaved=   1.
 NSaved= 1 IEnMin= 1 EnMin= -151.305170526622     IErMin= 1 ErrMin= 1.00D-02
 ErrMax= 1.00D-02 EMaxC= 1.00D-01 BMatC= 2.15D-02 BMatP= 2.15D-02
 IDIUse=3 WtCom= 9.00D-01 WtEn= 1.00D-01
 Coeff-Com:  0.100D+01
 Coeff-En:   0.100D+01
 Coeff:      0.100D+01
 Gap=     0.483 Goal=   None    Shift=    0.000
 GapD=    0.483 DampG=2.000 DampE=0.500 DampFc=1.0000 IDamp=-1.
 RMSDP=8.37D-04 MaxDP=2.77D-02              OVMax= 5.35D-02

 Cycle   2  Pass 1  IDiag  1:
 RMSU=  5.91D-04    CP:  1.00D+00
 FoFJK:  IHMeth= 1 ICntrl=     0 DoSepK=T KAlg= 1 I1Cent= 0 FoldK=F
 E= -151.323052241793     Delta-E=       -0.017881715171 Rises=F Damp=F
 DIIS: error= 4.28D-03 at cycle   2 NSaved=   2.
 NSaved= 2 IEnMin= 2 EnMin= -151.323052241793     IErMin= 2 ErrMin= 4.28D-03
 ErrMax= 4.28D-03 EMaxC= 1.00D-01 BMatC= 5.10D-03 BMatP= 2.15D-02
 IDIUse=3 WtCom= 9.57D-01 WtEn= 4.28D-02
 Coeff-Com:  0.280D+00 0.720D+00
 Coeff-En:   0.000D+00 0.100D+01
 Coeff:      0.268D+00 0.732D+00
 Gap=     0.444 Goal=   None    Shift=    0.000
 RMSDP=2.18D-04 MaxDP=6.58D-03 DE=-1.79D-02 OVMax= 1.46D-02

 Cycle   3  Pass 1  IDiag  1:
 RMSU=  1.54D-04    CP:  1.00D+00  1.00D+00
 FoFJK:  IHMeth= 1 ICntrl=     0 DoSepK=T KAlg= 1 I1Cent= 0 FoldK=F
 E= -151.325960033102     Delta-E=       -0.002907791309 Rises=F Damp=F
 DIIS: error= 1.80D-03 at cycle   3 NSaved=   3.
 NSaved= 3 IEnMin= 3 EnMin= -151.325960033102     IErMin= 3 ErrMin= 1.80D-03
 ErrMax= 1.80D-03 EMaxC= 1.00D-01 BMatC= 5.70D-04 BMatP= 5.10D-03
 IDIUse=3 WtCom= 9.82D-01 WtEn= 1.80D-02
 Coeff-Com:  0.158D-01 0.236D+00 0.748D+00
 Coeff-En:   0.000D+00 0.000D+00 0.100D+01
 Coeff:      0.156D-01 0.232D+00 0.752D+00
 Gap=     0.453 Goal=   None    Shift=    0.000
 RMSDP=1.03D-04 MaxDP=3.59D-03 DE=-2.91D-03 OVMax= 7.35D-03

 Cycle   4  Pass 1  IDiag  1:
 RMSU=  5.10D-05    CP:  1.00D+00  1.09D+00  9.57D-01
 FoFJK:  IHMeth= 1 ICntrl=     0 DoSepK=T KAlg= 1 I1Cent= 0 FoldK=F
 E= -151.326398206606     Delta-E=       -0.000438173504 Rises=F Damp=F
 DIIS: error= 2.86D-04 at cycle   4 NSaved=   4.
 NSaved= 4 IEnMin= 4 EnMin= -151.326398206606     IErMin= 4 ErrMin= 2.86D-04
 ErrMax= 2.86D-04 EMaxC= 1.00D-01 BMatC= 2.96D-05 BMatP= 5.70D-04
 IDIUse=3 WtCom= 9.97D-01 WtEn= 2.86D-03
 Coeff-Com: -0.214D-01-0.330D-01 0.123D+00 0.932D+00
 Coeff-En:   0.000D+00 0.000D+00 0.000D+00 0.100D+01
 Coeff:     -0.213D-01-0.330D-01 0.122D+00 0.932D+00
 Gap=     0.451 Goal=   None    Shift=    0.000
 RMSDP=3.88D-05 MaxDP=1.48D-03 DE=-4.38D-04 OVMax= 1.99D-03

 Cycle   5  Pass 1  IDiag  1:
 RMSU=  9.58D-06    CP:  1.00D+00  1.11D+00  1.08D+00  1.16D+00
 FoFJK:  IHMeth= 1 ICntrl=     0 DoSepK=T KAlg= 1 I1Cent= 0 FoldK=F
 E= -151.326429694401     Delta-E=       -0.000031487795 Rises=F Damp=F
 DIIS: error= 4.54D-05 at cycle   5 NSaved=   5.
 NSaved= 5 IEnMin= 5 EnMin= -151.326429694401     IErMin= 5 ErrMin= 4.54D-05
 ErrMax= 4.54D-05 EMaxC= 1.00D-01 BMatC= 4.30D-07 BMatP= 2.96D-05
 IDIUse=1 WtCom= 1.00D+00 WtEn= 0.00D+00
 Coeff-Com:  0.741D-03-0.529D-02-0.355D-01-0.659D-01 0.111D+01
 Coeff:      0.741D-03-0.529D-02-0.355D-01-0.659D-01 0.111D+01
 Gap=     0.451 Goal=   None    Shift=    0.000
 RMSDP=9.75D-06 MaxDP=3.85D-04 DE=-3.15D-05 OVMax= 6.72D-04

 Cycle   6  Pass 1  IDiag  1:
 RMSU=  1.93D-06    CP:  1.00D+00  1.12D+00  1.10D+00  1.25D+00  1.27D+00
 FoFJK:  IHMeth= 1 ICntrl=     0 DoSepK=T KAlg= 1 I1Cent= 0 FoldK=F
 E= -151.326431084173     Delta-E=       -0.000001389772 Rises=F Damp=F
 DIIS: error= 1.17D-05 at cycle   6 NSaved=   6.
 NSaved= 6 IEnMin= 6 EnMin= -151.326431084173     IErMin= 6 ErrMin= 1.17D-05
 ErrMax= 1.17D-05 EMaxC= 1.00D-01 BMatC= 2.35D-08 BMatP= 4.30D-07
 IDIUse=1 WtCom= 1.00D+00 WtEn= 0.00D+00
 Coeff-Com:  0.414D-03 0.893D-03-0.238D-02-0.211D-01-0.405D-01 0.106D+01
 Coeff:      0.414D-03 0.893D-03-0.238D-02-0.211D-01-0.405D-01 0.106D+01
 Gap=     0.451 Goal=   None    Shift=    0.000
 RMSDP=1.55D-06 MaxDP=4.33D-05 DE=-1.39D-06 OVMax= 1.43D-04

 Cycle   7  Pass 1  IDiag  1:
 RMSU=  3.87D-07    CP:  1.00D+00  1.12D+00  1.10D+00  1.26D+00  1.32D+00
                    CP:  1.32D+00
 FoFJK:  IHMeth= 1 ICntrl=     0 DoSepK=T KAlg= 1 I1Cent= 0 FoldK=F
 E= -151.326431155278     Delta-E=       -0.000000071105 Rises=F Damp=F
 DIIS: error= 2.63D-06 at cycle   7 NSaved=   7.
 NSaved= 7 IEnMin= 7 EnMin= -151.326431155278     IErMin= 7 ErrMin= 2.63D-06
 ErrMax= 2.63D-06 EMaxC= 1.00D-01 BMatC= 1.64D-09 BMatP= 2.35D-08
 IDIUse=1 WtCom= 1.00D+00 WtEn= 0.00D+00
 Coeff-Com: -0.238D-05 0.370D-03 0.188D-02 0.297D-02-0.667D-01-0.444D-01
 Coeff-Com:  0.111D+01
 Coeff:     -0.238D-05 0.370D-03 0.188D-02 0.297D-02-0.667D-01-0.444D-01
 Coeff:      0.111D+01
 Gap=     0.451 Goal=   None    Shift=    0.000
 RMSDP=4.12D-07 MaxDP=1.31D-05 DE=-7.11D-08 OVMax= 4.70D-05

 Cycle   8  Pass 1  IDiag  1:
 RMSU=  1.44D-07    CP:  1.00D+00  1.12D+00  1.10D+00  1.26D+00  1.33D+00
                    CP:  1.42D+00  1.32D+00
 FoFJK:  IHMeth= 1 ICntrl=     0 DoSepK=T KAlg= 1 I1Cent= 0 FoldK=F
 E= -151.326431161289     Delta-E=       -0.000000006010 Rises=F Damp=F
 DIIS: error= 1.03D-06 at cycle   8 NSaved=   8.
 NSaved= 8 IEnMin= 8 EnMin= -151.326431161289     IErMin= 8 ErrMin= 1.03D-06
 ErrMax= 1.03D-06 EMaxC= 1.00D-01 BMatC= 2.72D-10 BMatP= 1.64D-09
 IDIUse=1 WtCom= 1.00D+00 WtEn= 0.00D+00
 Coeff-Com: -0.107D-04 0.105D-03 0.593D-03 0.140D-02-0.176D-01-0.507D-01
 Coeff-Com:  0.327D+00 0.739D+00
 Coeff:     -0.107D-04 0.105D-03 0.593D-03 0.140D-02-0.176D-01-0.507D-01
 Coeff:      0.327D+00 0.739D+00
 Gap=     0.451 Goal=   None    Shift=    0.000
 RMSDP=8.44D-08 MaxDP=2.58D-06 DE=-6.01D-09 OVMax= 7.38D-06

 Cycle   9  Pass 1  IDiag  1:
 RMSU=  4.22D-08    CP:  1.00D+00  1.12D+00  1.10D+00  1.26D+00  1.33D+00
                    CP:  1.43D+00  1.39D+00  1.14D+00
 FoFJK:  IHMeth= 1 ICntrl=     0 DoSepK=T KAlg= 1 I1Cent= 0 FoldK=F
 E= -151.326431161568     Delta-E=       -0.000000000279 Rises=F Damp=F
 DIIS: error= 6.01D-07 at cycle   9 NSaved=   9.
 NSaved= 9 IEnMin= 9 EnMin= -151.326431161568     IErMin= 9 ErrMin= 6.01D-07
 ErrMax= 6.01D-07 EMaxC= 1.00D-01 BMatC= 1.06D-10 BMatP= 2.72D-10
 IDIUse=1 WtCom= 1.00D+00 WtEn= 0.00D+00
 Coeff-Com: -0.379D-05-0.285D-04-0.186D-03-0.106D-03 0.841D-02-0.171D-01
 Coeff-Com: -0.115D+00 0.395D+00 0.729D+00
 Coeff:     -0.379D-05-0.285D-04-0.186D-03-0.106D-03 0.841D-02-0.171D-01
 Coeff:     -0.115D+00 0.395D+00 0.729D+00
 Gap=     0.451 Goal=   None    Shift=    0.000
 RMSDP=5.13D-08 MaxDP=1.45D-06 DE=-2.79D-10 OVMax= 4.18D-06

 Cycle  10  Pass 1  IDiag  1:
 RMSU=  1.40D-08    CP:  1.00D+00  1.12D+00  1.10D+00  1.26D+00  1.33D+00
                    CP:  1.43D+00  1.43D+00  1.30D+00  9.05D-01
 FoFJK:  IHMeth= 1 ICntrl=     0 DoSepK=T KAlg= 1 I1Cent= 0 FoldK=F
 E= -151.326431161679     Delta-E=       -0.000000000111 Rises=F Damp=F
 DIIS: error= 7.89D-08 at cycle  10 NSaved=  10.
 NSaved=10 IEnMin=10 EnMin= -151.326431161679     IErMin=10 ErrMin= 7.89D-08
 ErrMax= 7.89D-08 EMaxC= 1.00D-01 BMatC= 1.53D-12 BMatP= 1.06D-10
 IDIUse=1 WtCom= 1.00D+00 WtEn= 0.00D+00
 Coeff-Com:  0.190D-05-0.425D-05-0.587D-04-0.178D-03 0.190D-02 0.285D-02
 Coeff-Com: -0.279D-01-0.412D-01 0.191D-01 0.105D+01
 Coeff:      0.190D-05-0.425D-05-0.587D-04-0.178D-03 0.190D-02 0.285D-02
 Coeff:     -0.279D-01-0.412D-01 0.191D-01 0.105D+01
 Gap=     0.451 Goal=   None    Shift=    0.000
 RMSDP=1.30D-08 MaxDP=3.45D-07 DE=-1.11D-10 OVMax= 1.21D-06

 Cycle  11  Pass 1  IDiag  1:
 RMSU=  2.52D-09    CP:  1.00D+00  1.12D+00  1.10D+00  1.26D+00  1.33D+00
                    CP:  1.43D+00  1.44D+00  1.33D+00  9.95D-01  1.32D+00
 FoFJK:  IHMeth= 1 ICntrl=     0 DoSepK=T KAlg= 1 I1Cent= 0 FoldK=F
 E= -151.326431161683     Delta-E=       -0.000000000004 Rises=F Damp=F
 DIIS: error= 2.41D-08 at cycle  11 NSaved=  11.
 NSaved=11 IEnMin=11 EnMin= -151.326431161683     IErMin=11 ErrMin= 2.41D-08
 ErrMax= 2.41D-08 EMaxC= 1.00D-01 BMatC= 9.24D-14 BMatP= 1.53D-12
 IDIUse=1 WtCom= 1.00D+00 WtEn= 0.00D+00
 Coeff-Com:  0.309D-07 0.265D-05 0.151D-04 0.948D-05-0.574D-03 0.395D-03
 Coeff-Com:  0.887D-02-0.752D-02-0.341D-01-0.237D+00 0.127D+01
 Coeff:      0.309D-07 0.265D-05 0.151D-04 0.948D-05-0.574D-03 0.395D-03
 Coeff:      0.887D-02-0.752D-02-0.341D-01-0.237D+00 0.127D+01
 Gap=     0.451 Goal=   None    Shift=    0.000
 RMSDP=3.99D-09 MaxDP=7.24D-08 DE=-3.87D-12 OVMax= 5.89D-07

 SCF Done:  E(RLC-B+HF-LYP) =  -151.326431162     A.U. after   11 cycles
             Convg  =    0.3990D-08             -V/T =  2.0058
 KE= 1.504606672215D+02 PE=-4.313935457777D+02 EE= 9.299410836678D+01
 Leave Link  502 at Wed May 13 20:55:06 2020, MaxMem= 1073741824 cpu:     247.2
 (Enter /home/matheus/.gaussian/g09/l601.exe)
 Copying SCF densities to generalized density rwf, IOpCl= 0 IROHF=0.

 **********************************************************************

            Population analysis using the SCF density.

 **********************************************************************

 Orbital symmetries:
       Occupied  (A) (A) (A) (A) (A) (A) (A) (A) (A)
       Virtual   (A) (A) (A) (A) (A) (A) (A) (A) (A) (A) (A) (A)
                 (A) (A) (A) (A) (A) (A) (A) (A) (A) (A) (A) (A)
                 (A) (A) (A) (A) (A) (A) (A) (A) (A) (A) (A) (A)
                 (A) (A) (A) (A) (A) (A) (A) (A) (A) (A) (A) (A)
                 (A) (A) (A) (A) (A) (A) (A) (A) (A) (A) (A) (A)
                 (A) (A) (A) (A) (A) (A) (A) (A) (A) (A) (A) (A)
                 (A) (A) (A) (A) (A) (A) (A) (A) (A) (A) (A) (A)
                 (A) (A) (A) (A) (A) (A) (A) (A) (A) (A) (A) (A)
                 (A) (A) (A) (A) (A) (A) (A) (A) (A) (A) (A) (A)
                 (A) (A) (A) (A) (A) (A) (A) (A) (A) (A) (A) (A)
                 (A) (A) (A) (A) (A) (A) (A) (A) (A) (A) (A) (A)
                 (A) (A) (A) (A) (A) (A) (A) (A) (A) (A) (A) (A)
                 (A) (A) (A) (A) (A) (A) (A) (A) (A) (A) (A) (A)
                 (A) (A) (A) (A) (A) (A) (A) (A) (A) (A) (A) (A)
                 (A) (A) (A) (A) (A) (A) (A) (A) (A) (A) (A) (A)
                 (A) (A) (A) (A) (A) (A) (A) (A)
 The electronic state is 1-A.
 Alpha  occ. eigenvalues --  -19.07449 -19.07447  -1.28464  -1.06619  -0.69796
 Alpha  occ. eigenvalues --   -0.64008  -0.56909  -0.47116  -0.42975
 Alpha virt. eigenvalues --    0.02122   0.03100   0.06768   0.08279   0.09935
 Alpha virt. eigenvalues --    0.10127   0.10392   0.13063   0.15815   0.16276
 Alpha virt. eigenvalues --    0.18043   0.18267   0.20336   0.22120   0.24375
 Alpha virt. eigenvalues --    0.25715   0.29490   0.30338   0.31742   0.32175
 Alpha virt. eigenvalues --    0.33301   0.37188   0.37823   0.39299   0.40284
 Alpha virt. eigenvalues --    0.42193   0.43574   0.46673   0.47571   0.48883
 Alpha virt. eigenvalues --    0.53485   0.56652   0.59281   0.61865   0.67192
 Alpha virt. eigenvalues --    0.70815   0.72463   0.73925   0.76114   0.77554
 Alpha virt. eigenvalues --    0.79544   0.80885   0.86931   0.88517   0.89377
 Alpha virt. eigenvalues --    0.89844   0.92010   0.94008   0.95749   0.97420
 Alpha virt. eigenvalues --    0.98747   1.01874   1.04318   1.08143   1.10159
 Alpha virt. eigenvalues --    1.12469   1.14612   1.17255   1.21959   1.24629
 Alpha virt. eigenvalues --    1.25326   1.28532   1.29886   1.32013   1.32776
 Alpha virt. eigenvalues --    1.33409   1.34803   1.36503   1.37559   1.38550
 Alpha virt. eigenvalues --    1.44158   1.49683   1.50805   1.53158   1.56120
 Alpha virt. eigenvalues --    1.58554   1.64621   1.65821   1.68944   1.78509
 Alpha virt. eigenvalues --    1.82732   1.86507   1.89968   1.96574   2.02326
 Alpha virt. eigenvalues --    2.08926   2.13444   2.16414   2.18698   2.22845
 Alpha virt. eigenvalues --    2.28779   2.32039   2.33642   2.37981   2.44275
 Alpha virt. eigenvalues --    2.46026   2.52245   2.54821   2.63702   2.66233
 Alpha virt. eigenvalues --    2.67090   2.75223   2.84903   2.87520   2.90461
 Alpha virt. eigenvalues --    3.04877   3.09749   3.13203   3.25582   3.30017
 Alpha virt. eigenvalues --    3.40779   3.54312   3.65165   3.68247   3.78116
 Alpha virt. eigenvalues --    3.78346   3.81392   3.82126   3.82407   3.82646
 Alpha virt. eigenvalues --    3.86286   3.88123   3.91078   3.94052   3.96129
 Alpha virt. eigenvalues --    3.99942   4.00810   4.08247   4.10474   4.11580
 Alpha virt. eigenvalues --    4.20108   4.25685   4.27559   4.29032   4.35225
 Alpha virt. eigenvalues --    4.47598   4.51440   4.56428   4.69356   4.91177
 Alpha virt. eigenvalues --    4.98655   5.07222   5.13847   5.14396   5.24276
 Alpha virt. eigenvalues --    5.43181   5.84467   6.06902   6.12399   6.14077
 Alpha virt. eigenvalues --    6.32878   6.36493   6.44816   6.56395   6.61024
 Alpha virt. eigenvalues --    6.77696   6.79155   6.82231   6.84185   6.87238
 Alpha virt. eigenvalues --    6.89590   6.90102   6.98347   7.02525   7.05828
 Alpha virt. eigenvalues --    7.18055   7.25893   7.43534   7.72617   7.80166
 Alpha virt. eigenvalues --    8.07182   8.11009  10.89465  13.88427  14.56700
 Alpha virt. eigenvalues --   14.83040  14.87881  15.09690  29.02839  29.03218
 Alpha virt. eigenvalues --   29.07715  29.13341  29.22773  49.10518 148.31144
 Alpha virt. eigenvalues --  148.37974 148.70305 752.51721
          Condensed to atoms (all electrons):
              1          2          3          4          5
     1  O    8.186515  -0.167338   0.189952  -0.000006  -0.000041
     2  O   -0.167338   8.162062   0.015491   0.209588   0.000038
     3  H    0.189952   0.015491   0.583776   0.003085  -0.000108
     4  H   -0.000006   0.209588   0.003085   0.575440  -0.004965
     5  Kr  -0.000041   0.000038  -0.000108  -0.004965   0.000815
 Mulliken atomic charges:
              1
     1  O   -0.209081
     2  O   -0.219841
     3  H    0.207804
     4  H    0.216858
     5  Kr   0.004261
 Sum of Mulliken atomic charges =   0.00000
 Mulliken charges with hydrogens summed into heavy atoms:
              1
     1  O   -0.001277
     2  O   -0.002984
     5  Kr   0.004261
 Sum of Mulliken charges with hydrogens summed into heavy atoms =   0.00000
          Condensed to fragments (all electrons):
     1      -0.004261
     2       0.004261
 Electronic spatial extent (au):  <R**2>=            323.1898
 Charge=              0.0000 electrons
 Dipole moment (field-independent basis, Debye):
    X=              0.8004    Y=             -0.1262    Z=              1.4416  Tot=              1.6537
 Quadrupole moment (field-independent basis, Debye-Ang):
   XX=            -13.5643   YY=            -10.6688   ZZ=            -12.0797
   XY=              3.4951   XZ=             -3.6858   YZ=             -1.5936
 Traceless Quadrupole moment (field-independent basis, Debye-Ang):
   XX=             -1.4600   YY=              1.4355   ZZ=              0.0245
   XY=              3.4951   XZ=             -3.6858   YZ=             -1.5936
 Octapole moment (field-independent basis, Debye-Ang**2):
  XXX=             72.9505  YYY=             -1.4679  ZZZ=              1.2348  XYY=             22.1992
  XXY=            -12.1946  XXZ=              9.6738  XZZ=             23.5380  YZZ=             -1.6389
  YYZ=              2.0404  XYZ=              4.2071
 Hexadecapole moment (field-independent basis, Debye-Ang**3):
 XXXX=           -295.1855 YYYY=            -46.4718 ZZZZ=            -12.3113 XXXY=             32.5002
 XXXZ=            -25.3517 YYYX=              5.1894 YYYZ=             -2.2182 ZZZX=             -2.7489
 ZZZY=             -1.4998 XXYY=            -54.9533 XXZZ=            -49.9502 YYZZ=            -10.6509
 XXYZ=            -11.0531 YYXZ=             -4.8654 ZZXY=              3.1158
 N-N= 3.661233902771D+01 E-N=-4.313935457002D+02  KE= 1.504606672215D+02
 No NMR shielding tensors so no spin-rotation constants.
 Leave Link  601 at Wed May 13 20:55:06 2020, MaxMem= 1073741824 cpu:       0.7
 (Enter /home/matheus/.gaussian/g09/l122.exe)
 Counterpoise: doing DCBS calculation for fragment   2 NewBq=T
 Leave Link  122 at Wed May 13 20:55:06 2020, MaxMem= 1073741824 cpu:       0.0
 (Enter /home/matheus/.gaussian/g09/l301.exe)
 Basis read from rwf:  (5D, 7F)
 No pseudopotential information found on rwf file.
 There are   197 symmetry adapted basis functions of A   symmetry.
 Integral buffers will be    131072 words long.
 Raffenetti 2 integral format.
 Two-electron integral symmetry is turned on.
   197 basis functions,   415 primitive gaussians,   229 cartesian basis functions
    18 alpha electrons       18 beta electrons
       nuclear repulsion energy         0.0000000000 Hartrees.
 IExCor=10402 DFT=T Ex=LC-B+HF Corr=LYP ExCW=0 ScaHFX=  1.000000
 ScaDFX=  1.000000  1.000000  1.000000  1.000000 ScalE2=  1.000000  1.000000
 IRadAn=      5 IRanWt=     -1 IRanGd=            0 ICorTp=0
  HFx wShort=  0.000000 wLong=  0.470000 cFull=  0.000000 cShort=  0.000000 cLong=  1.000000
  DFx wShort=  0.000000 wLong=  0.470000 cFull=  0.000000 cShort=  0.000000 cLong=  1.000000
 NAtoms=    5 NActive=    5 NUniq=    5 SFac= 1.00D+00 NAtFMM=   60 NAOKFM=F Big=F
 No density basis found on file   718.
 Leave Link  301 at Wed May 13 20:55:06 2020, MaxMem= 1073741824 cpu:       0.2
 (Enter /home/matheus/.gaussian/g09/l302.exe)
 NPDir=0 NMtPBC=     1 NCelOv=     1 NCel=       1 NClECP=     1 NCelD=      1
         NCelK=      1 NCelE2=     1 NClLst=     1 CellRange=     0.0.
 One-electron integrals computed using PRISM.
 NBasis=   197 RedAO= T  NBF=   197
 NBsUse=   197 1.00D-06 NBFU=   197
 Precomputing XC quadrature grid using
 IXCGrd= 2 IRadAn=           5 IRanWt=          -1 IRanGd=           0 AccXCQ= 0.00D+00.
 NRdTot=     427 NPtTot=      123512 NUsed=      126579 NTot=      126611
 NSgBfM=   229   229   229   229   229 NAtAll=     5     5.
 Leave Link  302 at Wed May 13 20:55:06 2020, MaxMem= 1073741824 cpu:       0.9
 (Enter /home/matheus/.gaussian/g09/l303.exe)
 DipDrv:  MaxL=1.
 Leave Link  303 at Wed May 13 20:55:06 2020, MaxMem= 1073741824 cpu:       0.2
 (Enter /home/matheus/.gaussian/g09/l401.exe)
 Harris functional with IExCor=10402 diagonalized for initial guess.
 ExpMin= 2.53D-02 ExpMax= 1.17D+07 ExpMxC= 1.33D+04 IAcc=3 IRadAn=         5 AccDes= 0.00D+00
 HarFok:  IExCor=10402 AccDes= 0.00D+00 IRadAn=         5 IDoV= 1
 ScaDFX=  1.000000  1.000000  1.000000  1.000000
 FoFCou: FMM=F IPFlag=           0 FMFlag=      100000 FMFlg1=           0
         NFxFlg=           0 DoJE=T BraDBF=F KetDBF=T FulRan=T
         Omega=  0.000000  0.000000  1.000000  0.000000  0.000000 ICntrl=     500 IOpCl=  0
         NMat0=    1 NMatS0=    1 NMatT0=    0 NMatD0=    1 NMtDS0=    0 NMtDT0=    0
         I1Cent=           4 NGrid=           0.
 Petite list used in FoFCou.
 Harris En= -2744.51538019874    
 Initial guess orbital symmetries:
       Occupied  (A) (A) (A) (A) (A) (A) (A) (A) (A) (A) (A) (A)
                 (A) (A) (A) (A) (A) (A)
       Virtual   (A) (A) (A) (A) (A) (A) (A) (A) (A) (A) (A) (A)
                 (A) (A) (A) (A) (A) (A) (A) (A) (A) (A) (A) (A)
                 (A) (A) (A) (A) (A) (A) (A) (A) (A) (A) (A) (A)
                 (A) (A) (A) (A) (A) (A) (A) (A) (A) (A) (A) (A)
                 (A) (A) (A) (A) (A) (A) (A) (A) (A) (A) (A) (A)
                 (A) (A) (A) (A) (A) (A) (A) (A) (A) (A) (A) (A)
                 (A) (A) (A) (A) (A) (A) (A) (A) (A) (A) (A) (A)
                 (A) (A) (A) (A) (A) (A) (A) (A) (A) (A) (A) (A)
                 (A) (A) (A) (A) (A) (A) (A) (A) (A) (A) (A) (A)
                 (A) (A) (A) (A) (A) (A) (A) (A) (A) (A) (A) (A)
                 (A) (A) (A) (A) (A) (A) (A) (A) (A) (A) (A) (A)
                 (A) (A) (A) (A) (A) (A) (A) (A) (A) (A) (A) (A)
                 (A) (A) (A) (A) (A) (A) (A) (A) (A) (A) (A) (A)
                 (A) (A) (A) (A) (A) (A) (A) (A) (A) (A) (A) (A)
                 (A) (A) (A) (A) (A) (A) (A) (A) (A) (A) (A)
 The electronic state of the initial guess is 1-A.
 Leave Link  401 at Wed May 13 20:55:06 2020, MaxMem= 1073741824 cpu:       3.6
 (Enter /home/matheus/.gaussian/g09/l502.exe)
 Closed shell SCF:
 Requested convergence on RMS density matrix=1.00D-08 within 128 cycles.
 Requested convergence on MAX density matrix=1.00D-06.
 Requested convergence on             energy=1.00D-06.
 No special actions if energy rises.
 Using DIIS extrapolation, IDIIS=  1040.
 Integral symmetry usage will be decided dynamically.
       126521 words used for storage of precomputed grid.
 IEnd=      305468 IEndB=      305468 NGot=  1073741824 MDV=  1073505667
 LenX=  1073505667 LenY=  1073452785
 Fock matrices will be formed incrementally for  20 cycles.

 Cycle   1  Pass 1  IDiag  1:
 FoFJK:  IHMeth= 1 ICntrl=     0 DoSepK=T KAlg= 1 I1Cent= 0 FoldK=F
 FoFCou: FMM=F IPFlag=           0 FMFlag=      100000 FMFlg1=           0
         NFxFlg=           0 DoJE=T BraDBF=F KetDBF=F FulRan=T
         Omega=  0.000000  0.000000  1.000000  0.000000  0.000000 ICntrl=     500 IOpCl=  0
         NMat0=    1 NMatS0=    1 NMatT0=    0 NMatD0=    1 NMtDS0=    0 NMtDT0=    0
         I1Cent=           0 NGrid=           0.
 Symmetry not used in FoFCou.
 E= -2753.33349857668    
 DIIS: error= 2.38D-02 at cycle   1 NSaved=   1.
 NSaved= 1 IEnMin= 1 EnMin= -2753.33349857668     IErMin= 1 ErrMin= 2.38D-02
 ErrMax= 2.38D-02 EMaxC= 1.00D-01 BMatC= 2.61D-01 BMatP= 2.61D-01
 IDIUse=3 WtCom= 7.62D-01 WtEn= 2.38D-01
 Coeff-Com:  0.100D+01
 Coeff-En:   0.100D+01
 Coeff:      0.100D+01
 Gap=     0.618 Goal=   None    Shift=    0.000
 GapD=    0.618 DampG=2.000 DampE=0.500 DampFc=1.0000 IDamp=-1.
 RMSDP=2.49D-03 MaxDP=1.52D-01              OVMax= 1.05D-01

 Cycle   2  Pass 1  IDiag  1:
 RMSU=  1.70D-03    CP:  1.03D+00
 FoFJK:  IHMeth= 1 ICntrl=     0 DoSepK=T KAlg= 1 I1Cent= 0 FoldK=F
 E= -2753.38946792457     Delta-E=       -0.055969347895 Rises=F Damp=F
 DIIS: error= 1.29D-02 at cycle   2 NSaved=   2.
 NSaved= 2 IEnMin= 2 EnMin= -2753.38946792457     IErMin= 2 ErrMin= 1.29D-02
 ErrMax= 1.29D-02 EMaxC= 1.00D-01 BMatC= 8.81D-02 BMatP= 2.61D-01
 IDIUse=3 WtCom= 8.71D-01 WtEn= 1.29D-01
 Coeff-Com:  0.365D+00 0.635D+00
 Coeff-En:   0.130D+00 0.870D+00
 Coeff:      0.334D+00 0.666D+00
 Gap=     0.539 Goal=   None    Shift=    0.000
 RMSDP=9.75D-04 MaxDP=6.06D-02 DE=-5.60D-02 OVMax= 3.11D-02

 Cycle   3  Pass 1  IDiag  1:
 RMSU=  1.74D-04    CP:  1.02D+00  6.21D-01
 FoFJK:  IHMeth= 1 ICntrl=     0 DoSepK=T KAlg= 1 I1Cent= 0 FoldK=F
 E= -2753.41752152093     Delta-E=       -0.028053596363 Rises=F Damp=F
 DIIS: error= 9.48D-04 at cycle   3 NSaved=   3.
 NSaved= 3 IEnMin= 3 EnMin= -2753.41752152093     IErMin= 3 ErrMin= 9.48D-04
 ErrMax= 9.48D-04 EMaxC= 1.00D-01 BMatC= 4.82D-04 BMatP= 8.81D-02
 IDIUse=3 WtCom= 9.91D-01 WtEn= 9.48D-03
 Coeff-Com: -0.644D-02 0.560D-01 0.950D+00
 Coeff-En:   0.000D+00 0.000D+00 0.100D+01
 Coeff:     -0.638D-02 0.555D-01 0.951D+00
 Gap=     0.538 Goal=   None    Shift=    0.000
 RMSDP=9.23D-05 MaxDP=4.66D-03 DE=-2.81D-02 OVMax= 3.16D-03

 Cycle   4  Pass 1  IDiag  1:
 RMSU=  3.76D-05    CP:  1.02D+00  6.47D-01  1.14D+00
 FoFJK:  IHMeth= 1 ICntrl=     0 DoSepK=T KAlg= 1 I1Cent= 0 FoldK=F
 E= -2753.41767766221     Delta-E=       -0.000156141280 Rises=F Damp=F
 DIIS: error= 6.67D-05 at cycle   4 NSaved=   4.
 NSaved= 4 IEnMin= 4 EnMin= -2753.41767766221     IErMin= 4 ErrMin= 6.67D-05
 ErrMax= 6.67D-05 EMaxC= 1.00D-01 BMatC= 2.05D-06 BMatP= 4.82D-04
 IDIUse=1 WtCom= 1.00D+00 WtEn= 0.00D+00
 Coeff-Com: -0.143D-02 0.281D-03-0.686D-02 0.101D+01
 Coeff:     -0.143D-02 0.281D-03-0.686D-02 0.101D+01
 Gap=     0.539 Goal=   None    Shift=    0.000
 RMSDP=1.40D-05 MaxDP=5.46D-04 DE=-1.56D-04 OVMax= 9.21D-04

 Cycle   5  Pass 1  IDiag  1:
 RMSU=  6.03D-06    CP:  1.02D+00  6.49D-01  1.18D+00  1.05D+00
 FoFJK:  IHMeth= 1 ICntrl=     0 DoSepK=T KAlg= 1 I1Cent= 0 FoldK=F
 E= -2753.41768161847     Delta-E=       -0.000003956254 Rises=F Damp=F
 DIIS: error= 2.14D-05 at cycle   5 NSaved=   5.
 NSaved= 5 IEnMin= 5 EnMin= -2753.41768161847     IErMin= 5 ErrMin= 2.14D-05
 ErrMax= 2.14D-05 EMaxC= 1.00D-01 BMatC= 1.58D-07 BMatP= 2.05D-06
 IDIUse=1 WtCom= 1.00D+00 WtEn= 0.00D+00
 Coeff-Com: -0.537D-04-0.375D-02-0.335D-01-0.713D-01 0.111D+01
 Coeff:     -0.537D-04-0.375D-02-0.335D-01-0.713D-01 0.111D+01
 Gap=     0.538 Goal=   None    Shift=    0.000
 RMSDP=4.56D-06 MaxDP=1.86D-04 DE=-3.96D-06 OVMax= 1.97D-04

 Cycle   6  Pass 1  IDiag  1:
 RMSU=  3.76D-07    CP:  1.02D+00  6.49D-01  1.20D+00  1.10D+00  1.15D+00
 FoFJK:  IHMeth= 1 ICntrl=     0 DoSepK=T KAlg= 1 I1Cent= 0 FoldK=F
 E= -2753.41768182535     Delta-E=       -0.000000206877 Rises=F Damp=F
 DIIS: error= 5.17D-07 at cycle   6 NSaved=   6.
 NSaved= 6 IEnMin= 6 EnMin= -2753.41768182535     IErMin= 6 ErrMin= 5.17D-07
 ErrMax= 5.17D-07 EMaxC= 1.00D-01 BMatC= 9.76D-11 BMatP= 1.58D-07
 IDIUse=1 WtCom= 1.00D+00 WtEn= 0.00D+00
 Coeff-Com:  0.727D-05 0.320D-03 0.316D-02 0.211D-04-0.811D-01 0.108D+01
 Coeff:      0.727D-05 0.320D-03 0.316D-02 0.211D-04-0.811D-01 0.108D+01
 Gap=     0.538 Goal=   None    Shift=    0.000
 RMSDP=1.55D-07 MaxDP=5.05D-06 DE=-2.07D-07 OVMax= 6.23D-06

 Cycle   7  Pass 1  IDiag  1:
 RMSU=  2.43D-08    CP:  1.02D+00  6.49D-01  1.20D+00  1.10D+00  1.17D+00
                    CP:  1.18D+00
 FoFJK:  IHMeth= 1 ICntrl=     0 DoSepK=T KAlg= 1 I1Cent= 0 FoldK=F
 E= -2753.41768182543     Delta-E=       -0.000000000081 Rises=F Damp=F
 DIIS: error= 7.44D-08 at cycle   7 NSaved=   7.
 NSaved= 7 IEnMin= 7 EnMin= -2753.41768182543     IErMin= 7 ErrMin= 7.44D-08
 ErrMax= 7.44D-08 EMaxC= 1.00D-01 BMatC= 2.36D-12 BMatP= 9.76D-11
 IDIUse=1 WtCom= 1.00D+00 WtEn= 0.00D+00
 Coeff-Com:  0.511D-06 0.388D-04 0.339D-03 0.873D-03-0.121D-01 0.152D-01
 Coeff-Com:  0.996D+00
 Coeff:      0.511D-06 0.388D-04 0.339D-03 0.873D-03-0.121D-01 0.152D-01
 Coeff:      0.996D+00
 Gap=     0.538 Goal=   None    Shift=    0.000
 RMSDP=1.57D-08 MaxDP=5.57D-07 DE=-8.09D-11 OVMax= 8.31D-07

 Cycle   8  Pass 1  IDiag  1:
 RMSU=  4.69D-09    CP:  1.02D+00  6.49D-01  1.20D+00  1.10D+00  1.17D+00
                    CP:  1.19D+00  1.11D+00
 FoFJK:  IHMeth= 1 ICntrl=     0 DoSepK=T KAlg= 1 I1Cent= 0 FoldK=F
 E= -2753.41768182542     Delta-E=        0.000000000009 Rises=F Damp=F
 DIIS: error= 1.69D-08 at cycle   8 NSaved=   8.
 NSaved= 8 IEnMin= 7 EnMin= -2753.41768182543     IErMin= 8 ErrMin= 1.69D-08
 ErrMax= 1.69D-08 EMaxC= 1.00D-01 BMatC= 2.02D-13 BMatP= 2.36D-12
 IDIUse=1 WtCom= 1.00D+00 WtEn= 0.00D+00
 Coeff-Com: -0.334D-06-0.113D-04-0.121D-03 0.189D-03 0.226D-02-0.572D-01
 Coeff-Com:  0.186D+00 0.869D+00
 Coeff:     -0.334D-06-0.113D-04-0.121D-03 0.189D-03 0.226D-02-0.572D-01
 Coeff:      0.186D+00 0.869D+00
 Gap=     0.538 Goal=   None    Shift=    0.000
 RMSDP=2.98D-09 MaxDP=1.07D-07 DE= 8.64D-12 OVMax= 1.78D-07

 SCF Done:  E(RLC-B+HF-LYP) =  -2753.41768183     A.U. after    8 cycles
             Convg  =    0.2982D-08             -V/T =  2.0015
 KE= 2.749315456772D+03 PE=-6.578526015493D+03 EE= 1.075792876895D+03
 Leave Link  502 at Wed May 13 20:55:30 2020, MaxMem= 1073741824 cpu:     187.3
 (Enter /home/matheus/.gaussian/g09/l601.exe)
 Copying SCF densities to generalized density rwf, IOpCl= 0 IROHF=0.

 **********************************************************************

            Population analysis using the SCF density.

 **********************************************************************

 Orbital symmetries:
       Occupied  (A) (A) (A) (A) (A) (A) (A) (A) (A) (A) (A) (A)
                 (A) (A) (A) (A) (A) (A)
       Virtual   (A) (A) (A) (A) (A) (A) (A) (A) (A) (A) (A) (A)
                 (A) (A) (A) (A) (A) (A) (A) (A) (A) (A) (A) (A)
                 (A) (A) (A) (A) (A) (A) (A) (A) (A) (A) (A) (A)
                 (A) (A) (A) (A) (A) (A) (A) (A) (A) (A) (A) (A)
                 (A) (A) (A) (A) (A) (A) (A) (A) (A) (A) (A) (A)
                 (A) (A) (A) (A) (A) (A) (A) (A) (A) (A) (A) (A)
                 (A) (A) (A) (A) (A) (A) (A) (A) (A) (A) (A) (A)
                 (A) (A) (A) (A) (A) (A) (A) (A) (A) (A) (A) (A)
                 (A) (A) (A) (A) (A) (A) (A) (A) (A) (A) (A) (A)
                 (A) (A) (A) (A) (A) (A) (A) (A) (A) (A) (A) (A)
                 (A) (A) (A) (A) (A) (A) (A) (A) (A) (A) (A) (A)
                 (A) (A) (A) (A) (A) (A) (A) (A) (A) (A) (A) (A)
                 (A) (A) (A) (A) (A) (A) (A) (A) (A) (A) (A) (A)
                 (A) (A) (A) (A) (A) (A) (A) (A) (A) (A) (A) (A)
                 (A) (A) (A) (A) (A) (A) (A) (A) (A) (A) (A)
 The electronic state is 1-A.
 Alpha  occ. eigenvalues -- -511.24359 -66.71349 -60.39872 -60.39869 -60.39868
 Alpha  occ. eigenvalues --   -9.60493  -7.35947  -7.35945  -7.35945  -3.32283
 Alpha  occ. eigenvalues --   -3.32283  -3.32283  -3.32282  -3.32282  -1.06080
 Alpha  occ. eigenvalues --   -0.51293  -0.51289  -0.51287
 Alpha virt. eigenvalues --    0.02557   0.04670   0.07738   0.08742   0.10699
 Alpha virt. eigenvalues --    0.11610   0.12695   0.13392   0.15854   0.16635
 Alpha virt. eigenvalues --    0.17307   0.19178   0.20145   0.25019   0.26489
 Alpha virt. eigenvalues --    0.26900   0.27929   0.30883   0.33015   0.34395
 Alpha virt. eigenvalues --    0.35802   0.36976   0.37694   0.38618   0.41036
 Alpha virt. eigenvalues --    0.41175   0.42431   0.53185   0.53334   0.57769
 Alpha virt. eigenvalues --    0.58113   0.65678   0.66911   0.69764   0.71916
 Alpha virt. eigenvalues --    0.74262   0.75183   0.76903   0.77619   0.79363
 Alpha virt. eigenvalues --    0.80431   0.80577   0.83517   0.85562   0.85747
 Alpha virt. eigenvalues --    0.87637   0.88106   0.89224   0.91056   0.95139
 Alpha virt. eigenvalues --    0.96456   0.99011   0.99170   1.02268   1.02567
 Alpha virt. eigenvalues --    1.05382   1.07181   1.08702   1.11071   1.12164
 Alpha virt. eigenvalues --    1.15699   1.20472   1.22588   1.23636   1.28266
 Alpha virt. eigenvalues --    1.33598   1.34865   1.39259   1.44220   1.45317
 Alpha virt. eigenvalues --    1.53388   1.57775   1.59124   1.72217   1.77725
 Alpha virt. eigenvalues --    1.78073   1.83201   1.86536   1.95333   2.16378
 Alpha virt. eigenvalues --    2.19787   2.24323   2.27835   2.30078   2.32099
 Alpha virt. eigenvalues --    2.32934   2.33127   2.36577   2.38332   2.40959
 Alpha virt. eigenvalues --    2.44212   2.46542   2.47254   2.50998   2.51147
 Alpha virt. eigenvalues --    2.52344   2.54403   2.55576   2.56915   2.57288
 Alpha virt. eigenvalues --    2.62606   2.63194   2.65012   2.67076   2.70169
 Alpha virt. eigenvalues --    2.73016   2.77172   2.84450   2.86544   2.88553
 Alpha virt. eigenvalues --    2.92905   2.95706   3.03183   3.12162   3.19991
 Alpha virt. eigenvalues --    3.21867   3.25722   3.30669   3.33723   3.49302
 Alpha virt. eigenvalues --    3.60532   3.65079   3.81743   3.86311   4.03000
 Alpha virt. eigenvalues --    4.35276   4.44289   4.51749   4.56660   4.62162
 Alpha virt. eigenvalues --    4.71570   4.86635   4.87915   4.93480   4.99418
 Alpha virt. eigenvalues --    5.15512   5.17562   5.57580   5.64432   5.74330
 Alpha virt. eigenvalues --    5.91956   6.00420   6.17704   6.73270   6.88842
 Alpha virt. eigenvalues --    7.36066   7.39996   7.60621   7.63804   7.71458
 Alpha virt. eigenvalues --    7.87577   7.91207   8.10185   8.16518   8.20746
 Alpha virt. eigenvalues --    8.38746   8.43427   8.59545   8.86439   9.63247
 Alpha virt. eigenvalues --    9.72602   9.82437   9.88244   9.93119  10.00278
 Alpha virt. eigenvalues --   10.14469  10.29529  10.40216  10.95695  11.50676
 Alpha virt. eigenvalues --   11.64311  11.70819  12.03827  12.09204  13.26107
 Alpha virt. eigenvalues --   13.60163  14.52779  62.69716  64.63645
          Condensed to atoms (all electrons):
              1          2          3          4          5
     1  O    0.002698  -0.001750  -0.001741   0.001086  -0.009606
     2  O   -0.001750   0.004766   0.000595  -0.002959  -0.004604
     3  H   -0.001741   0.000595   0.001387  -0.000391   0.003335
     4  H    0.001086  -0.002959  -0.000391   0.002809  -0.013528
     5  Kr  -0.009606  -0.004604   0.003335  -0.013528  36.047466
 Mulliken atomic charges:
              1
     1  O    0.009313
     2  O    0.003952
     3  H   -0.003185
     4  H    0.012983
     5  Kr  -0.023063
 Sum of Mulliken atomic charges =   0.00000
 Mulliken charges with hydrogens summed into heavy atoms:
              1
     1  O    0.006127
     2  O    0.016936
     5  Kr  -0.023063
 Sum of Mulliken charges with hydrogens summed into heavy atoms =   0.00000
          Condensed to fragments (all electrons):
     1       0.023063
     2      -0.023063
 Electronic spatial extent (au):  <R**2>=            166.0115
 Charge=              0.0000 electrons
 Dipole moment (field-independent basis, Debye):
    X=             -0.0014    Y=              0.0006    Z=              0.0001  Tot=              0.0015
 Quadrupole moment (field-independent basis, Debye-Ang):
   XX=            -17.7471   YY=            -17.7568   ZZ=            -17.7637
   XY=             -0.0045   XZ=              0.0002   YZ=              0.0004
 Traceless Quadrupole moment (field-independent basis, Debye-Ang):
   XX=              0.0088   YY=             -0.0010   ZZ=             -0.0078
   XY=             -0.0045   XZ=              0.0002   YZ=              0.0004
 Octapole moment (field-independent basis, Debye-Ang**2):
  XXX=            -52.7853  YYY=              0.7911  ZZZ=             -0.1301  XYY=            -17.6073
  XXY=              0.2547  XXZ=             -0.0438  XZZ=            -17.6111  YZZ=              0.2647
  YYZ=             -0.0431  XYZ=              0.0003
 Hexadecapole moment (field-independent basis, Debye-Ang**3):
 XXXX=           -123.5738 YYYY=            -18.9475 ZZZZ=            -18.9475 XXXY=              0.7640
 XXXZ=             -0.1298 YYYX=              0.7710 YYYZ=              0.0013 ZZZX=             -0.1299
 ZZZY=              0.0031 XXYY=            -23.7657 XXZZ=            -23.7673 YYZZ=             -6.3146
 XXYZ=              0.0014 YYXZ=             -0.0430 ZZXY=              0.2553
 N-N= 0.000000000000D+00 E-N=-6.578526013865D+03  KE= 2.749315456772D+03
 No NMR shielding tensors so no spin-rotation constants.
 Leave Link  601 at Wed May 13 20:55:30 2020, MaxMem= 1073741824 cpu:       0.8
 (Enter /home/matheus/.gaussian/g09/l122.exe)
 Counterpoise: doing MCBS calculation for fragment   1
 Leave Link  122 at Wed May 13 20:55:30 2020, MaxMem= 1073741824 cpu:       0.0
 (Enter /home/matheus/.gaussian/g09/l301.exe)
 Basis read from rwf:  (5D, 7F)
 No pseudopotential information found on rwf file.
 There are   138 symmetry adapted basis functions of A   symmetry.
 Integral buffers will be    131072 words long.
 Raffenetti 2 integral format.
 Two-electron integral symmetry is turned on.
   138 basis functions,   198 primitive gaussians,   160 cartesian basis functions
     9 alpha electrons        9 beta electrons
       nuclear repulsion energy        36.6123390277 Hartrees.
 IExCor=10402 DFT=T Ex=LC-B+HF Corr=LYP ExCW=0 ScaHFX=  1.000000
 ScaDFX=  1.000000  1.000000  1.000000  1.000000 ScalE2=  1.000000  1.000000
 IRadAn=      5 IRanWt=     -1 IRanGd=            0 ICorTp=0
  HFx wShort=  0.000000 wLong=  0.470000 cFull=  0.000000 cShort=  0.000000 cLong=  1.000000
  DFx wShort=  0.000000 wLong=  0.470000 cFull=  0.000000 cShort=  0.000000 cLong=  1.000000
 NAtoms=    5 NActive=    4 NUniq=    4 SFac= 1.00D+00 NAtFMM=   60 NAOKFM=F Big=F
 No density basis found on file   718.
 Leave Link  301 at Wed May 13 20:55:30 2020, MaxMem= 1073741824 cpu:       0.2
 (Enter /home/matheus/.gaussian/g09/l302.exe)
 NPDir=0 NMtPBC=     1 NCelOv=     1 NCel=       1 NClECP=     1 NCelD=      1
         NCelK=      1 NCelE2=     1 NClLst=     1 CellRange=     0.0.
 One-electron integrals computed using PRISM.
 NBasis=   138 RedAO= T  NBF=   138
 NBsUse=   138 1.00D-06 NBFU=   138
 Precomputing XC quadrature grid using
 IXCGrd= 2 IRadAn=           5 IRanWt=          -1 IRanGd=           0 AccXCQ= 0.00D+00.
 NRdTot=     344 NPtTot=       92556 NUsed=       95038 NTot=       95070
 NSgBfM=   160   160   160   160   160 NAtAll=     4     4.
 Leave Link  302 at Wed May 13 20:55:30 2020, MaxMem= 1073741824 cpu:       0.8
 (Enter /home/matheus/.gaussian/g09/l303.exe)
 DipDrv:  MaxL=1.
 Leave Link  303 at Wed May 13 20:55:30 2020, MaxMem= 1073741824 cpu:       0.1
 (Enter /home/matheus/.gaussian/g09/l401.exe)
 Harris functional with IExCor=10402 diagonalized for initial guess.
 ExpMin= 2.53D-02 ExpMax= 1.53D+04 ExpMxC= 5.22D+02 IAcc=3 IRadAn=         5 AccDes= 0.00D+00
 HarFok:  IExCor=10402 AccDes= 0.00D+00 IRadAn=         5 IDoV= 1
 ScaDFX=  1.000000  1.000000  1.000000  1.000000
 FoFCou: FMM=F IPFlag=           0 FMFlag=      100000 FMFlg1=           0
         NFxFlg=           0 DoJE=T BraDBF=F KetDBF=T FulRan=T
         Omega=  0.000000  0.000000  1.000000  0.000000  0.000000 ICntrl=     500 IOpCl=  0
         NMat0=    1 NMatS0=    1 NMatT0=    0 NMatD0=    1 NMtDS0=    0 NMtDT0=    0
         I1Cent=           4 NGrid=           0.
 Petite list used in FoFCou.
 Harris En= -147.164765653501    
 Initial guess orbital symmetries:
       Occupied  (A) (A) (A) (A) (A) (A) (A) (A) (A)
       Virtual   (A) (A) (A) (A) (A) (A) (A) (A) (A) (A) (A) (A)
                 (A) (A) (A) (A) (A) (A) (A) (A) (A) (A) (A) (A)
                 (A) (A) (A) (A) (A) (A) (A) (A) (A) (A) (A) (A)
                 (A) (A) (A) (A) (A) (A) (A) (A) (A) (A) (A) (A)
                 (A) (A) (A) (A) (A) (A) (A) (A) (A) (A) (A) (A)
                 (A) (A) (A) (A) (A) (A) (A) (A) (A) (A) (A) (A)
                 (A) (A) (A) (A) (A) (A) (A) (A) (A) (A) (A) (A)
                 (A) (A) (A) (A) (A) (A) (A) (A) (A) (A) (A) (A)
                 (A) (A) (A) (A) (A) (A) (A) (A) (A) (A) (A) (A)
                 (A) (A) (A) (A) (A) (A) (A) (A) (A) (A) (A) (A)
                 (A) (A) (A) (A) (A) (A) (A) (A) (A)
 The electronic state of the initial guess is 1-A.
 Leave Link  401 at Wed May 13 20:55:30 2020, MaxMem= 1073741824 cpu:       2.0
 (Enter /home/matheus/.gaussian/g09/l502.exe)
 Closed shell SCF:
 Requested convergence on RMS density matrix=1.00D-08 within 128 cycles.
 Requested convergence on MAX density matrix=1.00D-06.
 Requested convergence on             energy=1.00D-06.
 No special actions if energy rises.
 Using DIIS extrapolation, IDIIS=  1040.
 Integral symmetry usage will be decided dynamically.
        94980 words used for storage of precomputed grid.
 IEnd=      192360 IEndB=      192360 NGot=  1073741824 MDV=  1073591865
 LenX=  1073591865 LenY=  1073565824
 Fock matrices will be formed incrementally for  20 cycles.

 Cycle   1  Pass 1  IDiag  1:
 FoFJK:  IHMeth= 1 ICntrl=     0 DoSepK=T KAlg= 1 I1Cent= 0 FoldK=F
 FoFCou: FMM=F IPFlag=           0 FMFlag=      100000 FMFlg1=           0
         NFxFlg=           0 DoJE=T BraDBF=F KetDBF=F FulRan=T
         Omega=  0.000000  0.000000  1.000000  0.000000  0.000000 ICntrl=     500 IOpCl=  0
         NMat0=    1 NMatS0=    1 NMatT0=    0 NMatD0=    1 NMtDS0=    0 NMtDT0=    0
         I1Cent=           0 NGrid=           0.
 Symmetry not used in FoFCou.
 E= -151.305154327916    
 DIIS: error= 1.46D-02 at cycle   1 NSaved=   1.
 NSaved= 1 IEnMin= 1 EnMin= -151.305154327916     IErMin= 1 ErrMin= 1.46D-02
 ErrMax= 1.46D-02 EMaxC= 1.00D-01 BMatC= 2.15D-02 BMatP= 2.15D-02
 IDIUse=3 WtCom= 8.54D-01 WtEn= 1.46D-01
 Coeff-Com:  0.100D+01
 Coeff-En:   0.100D+01
 Coeff:      0.100D+01
 Gap=     0.485 Goal=   None    Shift=    0.000
 GapD=    0.485 DampG=2.000 DampE=0.500 DampFc=1.0000 IDamp=-1.
 RMSDP=1.18D-03 MaxDP=2.73D-02              OVMax= 5.33D-02

 Cycle   2  Pass 1  IDiag  1:
 RMSU=  8.34D-04    CP:  1.00D+00
 FoFJK:  IHMeth= 1 ICntrl=     0 DoSepK=T KAlg= 1 I1Cent= 0 FoldK=F
 E= -151.323006675136     Delta-E=       -0.017852347220 Rises=F Damp=F
 DIIS: error= 8.31D-03 at cycle   2 NSaved=   2.
 NSaved= 2 IEnMin= 2 EnMin= -151.323006675136     IErMin= 2 ErrMin= 8.31D-03
 ErrMax= 8.31D-03 EMaxC= 1.00D-01 BMatC= 5.09D-03 BMatP= 2.15D-02
 IDIUse=3 WtCom= 9.17D-01 WtEn= 8.31D-02
 Coeff-Com:  0.280D+00 0.720D+00
 Coeff-En:   0.000D+00 0.100D+01
 Coeff:      0.257D+00 0.743D+00
 Gap=     0.446 Goal=   None    Shift=    0.000
 RMSDP=3.12D-04 MaxDP=7.01D-03 DE=-1.79D-02 OVMax= 1.48D-02

 Cycle   3  Pass 1  IDiag  1:
 RMSU=  2.21D-04    CP:  1.00D+00  9.96D-01
 FoFJK:  IHMeth= 1 ICntrl=     0 DoSepK=T KAlg= 1 I1Cent= 0 FoldK=F
 E= -151.325875667391     Delta-E=       -0.002868992255 Rises=F Damp=F
 DIIS: error= 2.07D-03 at cycle   3 NSaved=   3.
 NSaved= 3 IEnMin= 3 EnMin= -151.325875667391     IErMin= 3 ErrMin= 2.07D-03
 ErrMax= 2.07D-03 EMaxC= 1.00D-01 BMatC= 6.30D-04 BMatP= 5.09D-03
 IDIUse=3 WtCom= 9.79D-01 WtEn= 2.07D-02
 Coeff-Com:  0.159D-01 0.248D+00 0.736D+00
 Coeff-En:   0.000D+00 0.000D+00 0.100D+01
 Coeff:      0.156D-01 0.243D+00 0.742D+00
 Gap=     0.455 Goal=   None    Shift=    0.000
 RMSDP=1.47D-04 MaxDP=3.53D-03 DE=-2.87D-03 OVMax= 7.44D-03

 Cycle   4  Pass 1  IDiag  1:
 RMSU=  7.21D-05    CP:  1.00D+00  1.08D+00  9.42D-01
 FoFJK:  IHMeth= 1 ICntrl=     0 DoSepK=T KAlg= 1 I1Cent= 0 FoldK=F
 E= -151.326345935573     Delta-E=       -0.000470268182 Rises=F Damp=F
 DIIS: error= 4.28D-04 at cycle   4 NSaved=   4.
 NSaved= 4 IEnMin= 4 EnMin= -151.326345935573     IErMin= 4 ErrMin= 4.28D-04
 ErrMax= 4.28D-04 EMaxC= 1.00D-01 BMatC= 3.01D-05 BMatP= 6.30D-04
 IDIUse=3 WtCom= 9.96D-01 WtEn= 4.28D-03
 Coeff-Com: -0.214D-01-0.315D-01 0.123D+00 0.930D+00
 Coeff-En:   0.000D+00 0.000D+00 0.000D+00 0.100D+01
 Coeff:     -0.213D-01-0.313D-01 0.122D+00 0.930D+00
 Gap=     0.453 Goal=   None    Shift=    0.000
 RMSDP=5.42D-05 MaxDP=1.46D-03 DE=-4.70D-04 OVMax= 1.96D-03

 Cycle   5  Pass 1  IDiag  1:
 RMSU=  1.33D-05    CP:  1.00D+00  1.11D+00  1.06D+00  1.16D+00
 FoFJK:  IHMeth= 1 ICntrl=     0 DoSepK=T KAlg= 1 I1Cent= 0 FoldK=F
 E= -151.326377595946     Delta-E=       -0.000031660373 Rises=F Damp=F
 DIIS: error= 5.69D-05 at cycle   5 NSaved=   5.
 NSaved= 5 IEnMin= 5 EnMin= -151.326377595946     IErMin= 5 ErrMin= 5.69D-05
 ErrMax= 5.69D-05 EMaxC= 1.00D-01 BMatC= 4.30D-07 BMatP= 3.01D-05
 IDIUse=1 WtCom= 1.00D+00 WtEn= 0.00D+00
 Coeff-Com:  0.744D-03-0.579D-02-0.352D-01-0.660D-01 0.111D+01
 Coeff:      0.744D-03-0.579D-02-0.352D-01-0.660D-01 0.111D+01
 Gap=     0.453 Goal=   None    Shift=    0.000
 RMSDP=1.38D-05 MaxDP=3.88D-04 DE=-3.17D-05 OVMax= 6.69D-04

 Cycle   6  Pass 1  IDiag  1:
 RMSU=  2.66D-06    CP:  1.00D+00  1.11D+00  1.08D+00  1.25D+00  1.27D+00
 FoFJK:  IHMeth= 1 ICntrl=     0 DoSepK=T KAlg= 1 I1Cent= 0 FoldK=F
 E= -151.326378979824     Delta-E=       -0.000001383878 Rises=F Damp=F
 DIIS: error= 1.35D-05 at cycle   6 NSaved=   6.
 NSaved= 6 IEnMin= 6 EnMin= -151.326378979824     IErMin= 6 ErrMin= 1.35D-05
 ErrMax= 1.35D-05 EMaxC= 1.00D-01 BMatC= 2.33D-08 BMatP= 4.30D-07
 IDIUse=1 WtCom= 1.00D+00 WtEn= 0.00D+00
 Coeff-Com:  0.416D-03 0.869D-03-0.241D-02-0.211D-01-0.402D-01 0.106D+01
 Coeff:      0.416D-03 0.869D-03-0.241D-02-0.211D-01-0.402D-01 0.106D+01
 Gap=     0.453 Goal=   None    Shift=    0.000
 RMSDP=2.18D-06 MaxDP=4.56D-05 DE=-1.38D-06 OVMax= 1.43D-04

 Cycle   7  Pass 1  IDiag  1:
 RMSU=  5.27D-07    CP:  1.00D+00  1.11D+00  1.08D+00  1.26D+00  1.31D+00
                    CP:  1.32D+00
 FoFJK:  IHMeth= 1 ICntrl=     0 DoSepK=T KAlg= 1 I1Cent= 0 FoldK=F
[...]
 RMSDP=1.67D-05 MaxDP=7.43D-04              OVMax= 3.02D-04

 Cycle   2  Pass 1  IDiag  1:
 RMSU=  1.18D-05    CP:  1.00D+00
 FoFJK:  IHMeth= 1 ICntrl=     0 DoSepK=T KAlg= 1 I1Cent= 0 FoldK=F
 E= -2753.41756220426     Delta-E=       -0.000000550639 Rises=F Damp=F
 DIIS: error= 3.05D-06 at cycle   2 NSaved=   2.
 NSaved= 2 IEnMin= 2 EnMin= -2753.41756220426     IErMin= 2 ErrMin= 3.05D-06
 ErrMax= 3.05D-06 EMaxC= 1.00D-01 BMatC= 3.32D-09 BMatP= 5.69D-06
 IDIUse=1 WtCom= 1.00D+00 WtEn= 0.00D+00
 Coeff-Com: -0.701D-02 0.101D+01
 Coeff:     -0.701D-02 0.101D+01
 Gap=     0.539 Goal=   None    Shift=    0.000
 RMSDP=1.66D-06 MaxDP=6.15D-05 DE=-5.51D-07 OVMax= 4.54D-05

 Cycle   3  Pass 1  IDiag  1:
 RMSU=  5.43D-07    CP:  1.00D+00  1.09D+00
 FoFJK:  IHMeth= 1 ICntrl=     0 DoSepK=T KAlg= 1 I1Cent= 0 FoldK=F
 E= -2753.41756221021     Delta-E=       -0.000000005955 Rises=F Damp=F
 DIIS: error= 4.95D-07 at cycle   3 NSaved=   3.
 NSaved= 3 IEnMin= 3 EnMin= -2753.41756221021     IErMin= 3 ErrMin= 4.95D-07
 ErrMax= 4.95D-07 EMaxC= 1.00D-01 BMatC= 9.15D-11 BMatP= 3.32D-09
 IDIUse=1 WtCom= 1.00D+00 WtEn= 0.00D+00
 Coeff-Com:  0.261D-03-0.117D+00 0.112D+01
 Coeff:      0.261D-03-0.117D+00 0.112D+01
 Gap=     0.539 Goal=   None    Shift=    0.000
 RMSDP=2.05D-07 MaxDP=7.32D-06 DE=-5.96D-09 OVMax= 9.11D-06

 Cycle   4  Pass 1  IDiag  1:
 RMSU=  5.48D-08    CP:  1.00D+00  1.10D+00  1.17D+00
 FoFJK:  IHMeth= 1 ICntrl=     0 DoSepK=T KAlg= 1 I1Cent= 0 FoldK=F
 E= -2753.41756221039     Delta-E=       -0.000000000178 Rises=F Damp=F
 DIIS: error= 2.19D-07 at cycle   4 NSaved=   4.
 NSaved= 4 IEnMin= 4 EnMin= -2753.41756221039     IErMin= 4 ErrMin= 2.19D-07
 ErrMax= 2.19D-07 EMaxC= 1.00D-01 BMatC= 1.32D-11 BMatP= 9.15D-11
 IDIUse=1 WtCom= 1.00D+00 WtEn= 0.00D+00
 Coeff-Com:  0.216D-03-0.538D-01 0.336D+00 0.718D+00
 Coeff:      0.216D-03-0.538D-01 0.336D+00 0.718D+00
 Gap=     0.539 Goal=   None    Shift=    0.000
 RMSDP=1.89D-08 MaxDP=7.44D-07 DE=-1.78D-10 OVMax= 9.40D-07

 Cycle   5  Pass 1  IDiag  1:
 RMSU=  9.53D-09    CP:  1.00D+00  1.10D+00  1.19D+00  1.11D+00
 FoFJK:  IHMeth= 1 ICntrl=     0 DoSepK=T KAlg= 1 I1Cent= 0 FoldK=F
 E= -2753.41756221042     Delta-E=       -0.000000000030 Rises=F Damp=F
 DIIS: error= 2.70D-08 at cycle   5 NSaved=   5.
 NSaved= 5 IEnMin= 5 EnMin= -2753.41756221042     IErMin= 5 ErrMin= 2.70D-08
 ErrMax= 2.70D-08 EMaxC= 1.00D-01 BMatC= 2.59D-13 BMatP= 1.32D-11
 IDIUse=1 WtCom= 1.00D+00 WtEn= 0.00D+00
 Coeff-Com: -0.197D-04 0.732D-02-0.671D-01-0.607D-02 0.107D+01
 Coeff:     -0.197D-04 0.732D-02-0.671D-01-0.607D-02 0.107D+01
 Gap=     0.539 Goal=   None    Shift=    0.000
 RMSDP=9.13D-09 MaxDP=5.18D-07 DE=-2.96D-11 OVMax= 4.47D-07

 SCF Done:  E(RLC-B+HF-LYP) =  -2753.41756221     A.U. after    5 cycles
             Convg  =    0.9132D-08             -V/T =  2.0015
 KE= 2.749364254856D+03 PE=-6.578579655809D+03 EE= 1.075797838743D+03
 Leave Link  502 at Wed May 13 21:19:36 2020, MaxMem= 1073741824 cpu:      89.7
 (Enter /home/matheus/.gaussian/g09/l122.exe)
 Restoring MOs from calculation   4 to rwf.
 Counterpoise: doing MCBS calculation for fragment   1
 Leave Link  122 at Wed May 13 21:19:36 2020, MaxMem= 1073741824 cpu:       0.0
 (Enter /home/matheus/.gaussian/g09/l301.exe)
 Basis read from rwf:  (5D, 7F)
 No pseudopotential information found on rwf file.
 There are   138 symmetry adapted basis functions of A   symmetry.
 Integral buffers will be    131072 words long.
 Raffenetti 2 integral format.
 Two-electron integral symmetry is turned on.
   138 basis functions,   198 primitive gaussians,   160 cartesian basis functions
     9 alpha electrons        9 beta electrons
       nuclear repulsion energy        36.6123390277 Hartrees.
 IExCor=10402 DFT=T Ex=LC-B+HF Corr=LYP ExCW=0 ScaHFX=  1.000000
 ScaDFX=  1.000000  1.000000  1.000000  1.000000 ScalE2=  1.000000  1.000000
 IRadAn=      5 IRanWt=     -1 IRanGd=            0 ICorTp=0
  HFx wShort=  0.000000 wLong=  0.470000 cFull=  0.000000 cShort=  0.000000 cLong=  1.000000
  DFx wShort=  0.000000 wLong=  0.470000 cFull=  0.000000 cShort=  0.000000 cLong=  1.000000
 NAtoms=    5 NActive=    4 NUniq=    4 SFac= 1.00D+00 NAtFMM=   60 NAOKFM=F Big=F
 No density basis found on file   718.
 Leave Link  301 at Wed May 13 21:19:36 2020, MaxMem= 1073741824 cpu:       0.2
 (Enter /home/matheus/.gaussian/g09/l302.exe)
 NPDir=0 NMtPBC=     1 NCelOv=     1 NCel=       1 NClECP=     1 NCelD=      1
         NCelK=      1 NCelE2=     1 NClLst=     1 CellRange=     0.0.
 One-electron integrals computed using PRISM.
 NBasis=   138 RedAO= T  NBF=   138
 NBsUse=   138 1.00D-06 NBFU=   138
 Precomputing XC quadrature grid using
 IXCGrd= 2 IRadAn=           5 IRanWt=          -1 IRanGd=           0 AccXCQ= 0.00D+00.
 NRdTot=     344 NPtTot=       92556 NUsed=       95038 NTot=       95070
 NSgBfM=   160   160   160   160   160 NAtAll=     4     4.
 Leave Link  302 at Wed May 13 21:19:36 2020, MaxMem= 1073741824 cpu:       0.7
 (Enter /home/matheus/.gaussian/g09/l303.exe)
 DipDrv:  MaxL=1.
 Leave Link  303 at Wed May 13 21:19:36 2020, MaxMem= 1073741824 cpu:       0.2
 (Enter /home/matheus/.gaussian/g09/l401.exe)
 Initial guess read from the read-write file.
 Guess basis will be translated and rotated to current coordinates.
 Initial guess orbital symmetries:
       Occupied  (A) (A) (A) (A) (A) (A) (A) (A) (A)
       Virtual   (A) (A) (A) (A) (A) (A) (A) (A) (A) (A) (A) (A)
                 (A) (A) (A) (A) (A) (A) (A) (A) (A) (A) (A) (A)
                 (A) (A) (A) (A) (A) (A) (A) (A) (A) (A) (A) (A)
                 (A) (A) (A) (A) (A) (A) (A) (A) (A) (A) (A) (A)
                 (A) (A) (A) (A) (A) (A) (A) (A) (A) (A) (A) (A)
                 (A) (A) (A) (A) (A) (A) (A) (A) (A) (A) (A) (A)
                 (A) (A) (A) (A) (A) (A) (A) (A) (A) (A) (A) (A)
                 (A) (A) (A) (A) (A) (A) (A) (A) (A) (A) (A) (A)
                 (A) (A) (A) (A) (A) (A) (A) (A) (A) (A) (A) (A)
                 (A) (A) (A) (A) (A) (A) (A) (A) (A) (A) (A) (A)
                 (A) (A) (A) (A) (A) (A) (A) (A) (A)
 The electronic state of the initial guess is 1-A.
 Generating alternative initial guess.
 Harris functional with IExCor=10402 diagonalized for initial guess.
 ExpMin= 2.53D-02 ExpMax= 1.53D+04 ExpMxC= 5.22D+02 IAcc=3 IRadAn=         5 AccDes= 0.00D+00
 HarFok:  IExCor=10402 AccDes= 0.00D+00 IRadAn=         5 IDoV= 1
 ScaDFX=  1.000000  1.000000  1.000000  1.000000
 FoFCou: FMM=F IPFlag=           0 FMFlag=      100000 FMFlg1=           0
         NFxFlg=           0 DoJE=T BraDBF=F KetDBF=T FulRan=T
         Omega=  0.000000  0.000000  1.000000  0.000000  0.000000 ICntrl=     500 IOpCl=  0
         NMat0=    1 NMatS0=    1 NMatT0=    0 NMatD0=    1 NMtDS0=    0 NMtDT0=    0
         I1Cent=           4 NGrid=           0.
 Petite list used in FoFCou.
 Harris En= -147.164765662193    
 Leave Link  401 at Wed May 13 21:19:36 2020, MaxMem= 1073741824 cpu:       2.4
 (Enter /home/matheus/.gaussian/g09/l502.exe)
 Closed shell SCF:
 Requested convergence on RMS density matrix=1.00D-08 within 128 cycles.
 Requested convergence on MAX density matrix=1.00D-06.
 Requested convergence on             energy=1.00D-06.
 No special actions if energy rises.
 Using DIIS extrapolation, IDIIS=  1040.
 Integral symmetry usage will be decided dynamically.
        94980 words used for storage of precomputed grid.
 IEnd=      192360 IEndB=      192360 NGot=  1073741824 MDV=  1073591865
 LenX=  1073591865 LenY=  1073565824
 Fock matrices will be formed incrementally for  20 cycles.

 Cycle   1  Pass 1  IDiag  1:
 FoFJK:  IHMeth= 1 ICntrl=     0 DoSepK=T KAlg= 1 I1Cent= 0 FoldK=F
 FoFCou: FMM=F IPFlag=           0 FMFlag=      100000 FMFlg1=           0
         NFxFlg=           0 DoJE=T BraDBF=F KetDBF=F FulRan=T
         Omega=  0.000000  0.000000  1.000000  0.000000  0.000000 ICntrl=     500 IOpCl=  0
         NMat0=    1 NMatS0=    1 NMatT0=    0 NMatD0=    1 NMtDS0=    0 NMtDT0=    0
         I1Cent=           0 NGrid=           0.
 Symmetry not used in FoFCou.
 E= -151.326379010380    
 DIIS: error= 1.64D-05 at cycle   1 NSaved=   1.
 NSaved= 1 IEnMin= 1 EnMin= -151.326379010380     IErMin= 1 ErrMin= 1.64D-05
 ErrMax= 1.64D-05 EMaxC= 1.00D-01 BMatC= 4.15D-08 BMatP= 4.15D-08
 IDIUse=1 WtCom= 1.00D+00 WtEn= 0.00D+00
 Coeff-Com:  0.100D+01
 Coeff:      0.100D+01
 Gap=     0.453 Goal=   None    Shift=    0.000
 RMSDP=1.20D-06 MaxDP=2.27D-05              OVMax= 6.53D-05

 Cycle   2  Pass 1  IDiag  1:
 RMSU=  8.45D-07    CP:  1.00D+00
 FoFJK:  IHMeth= 1 ICntrl=     0 DoSepK=T KAlg= 1 I1Cent= 0 FoldK=F
 E= -151.326379049937     Delta-E=       -0.000000039557 Rises=F Damp=F
 DIIS: error= 3.22D-06 at cycle   2 NSaved=   2.
 NSaved= 2 IEnMin= 2 EnMin= -151.326379049937     IErMin= 2 ErrMin= 3.22D-06
 ErrMax= 3.22D-06 EMaxC= 1.00D-01 BMatC= 1.68D-09 BMatP= 4.15D-08
 IDIUse=1 WtCom= 1.00D+00 WtEn= 0.00D+00
 Coeff-Com: -0.132D+00 0.113D+01
 Coeff:     -0.132D+00 0.113D+01
 Gap=     0.453 Goal=   None    Shift=    0.000
 RMSDP=3.77D-07 MaxDP=7.84D-06 DE=-3.96D-08 OVMax= 2.87D-05

 Cycle   3  Pass 1  IDiag  1:
 RMSU=  1.49D-07    CP:  1.00D+00  1.26D+00
 FoFJK:  IHMeth= 1 ICntrl=     0 DoSepK=T KAlg= 1 I1Cent= 0 FoldK=F
 E= -151.326379053770     Delta-E=       -0.000000003833 Rises=F Damp=F
 DIIS: error= 1.21D-06 at cycle   3 NSaved=   3.
 NSaved= 3 IEnMin= 3 EnMin= -151.326379053770     IErMin= 3 ErrMin= 1.21D-06
 ErrMax= 1.21D-06 EMaxC= 1.00D-01 BMatC= 2.68D-10 BMatP= 1.68D-09
 IDIUse=1 WtCom= 1.00D+00 WtEn= 0.00D+00
 Coeff-Com: -0.371D-01 0.130D+00 0.907D+00
 Coeff:     -0.371D-01 0.130D+00 0.907D+00
 Gap=     0.453 Goal=   None    Shift=    0.000
 RMSDP=1.25D-07 MaxDP=3.09D-06 DE=-3.83D-09 OVMax= 8.86D-06

 Cycle   4  Pass 1  IDiag  1:
 RMSU=  6.79D-08    CP:  1.00D+00  1.31D+00  1.22D+00
 FoFJK:  IHMeth= 1 ICntrl=     0 DoSepK=T KAlg= 1 I1Cent= 0 FoldK=F
 E= -151.326379054127     Delta-E=       -0.000000000357 Rises=F Damp=F
 DIIS: error= 9.79D-07 at cycle   4 NSaved=   4.
 NSaved= 4 IEnMin= 4 EnMin= -151.326379054127     IErMin= 4 ErrMin= 9.79D-07
 ErrMax= 9.79D-07 EMaxC= 1.00D-01 BMatC= 1.98D-10 BMatP= 2.68D-10
 IDIUse=1 WtCom= 1.00D+00 WtEn= 0.00D+00
 Coeff-Com:  0.983D-02-0.199D+00 0.525D+00 0.664D+00
 Coeff:      0.983D-02-0.199D+00 0.525D+00 0.664D+00
 Gap=     0.453 Goal=   None    Shift=    0.000
 RMSDP=6.98D-08 MaxDP=1.42D-06 DE=-3.57D-10 OVMax= 4.65D-06

 Cycle   5  Pass 1  IDiag  1:
 RMSU=  2.13D-08    CP:  1.00D+00  1.34D+00  1.48D+00  8.17D-01
 FoFJK:  IHMeth= 1 ICntrl=     0 DoSepK=T KAlg= 1 I1Cent= 0 FoldK=F
 E= -151.326379054316     Delta-E=       -0.000000000189 Rises=F Damp=F
 DIIS: error= 2.23D-07 at cycle   5 NSaved=   5.
 NSaved= 5 IEnMin= 5 EnMin= -151.326379054316     IErMin= 5 ErrMin= 2.23D-07
 ErrMax= 2.23D-07 EMaxC= 1.00D-01 BMatC= 5.11D-12 BMatP= 1.98D-10
 IDIUse=1 WtCom= 1.00D+00 WtEn= 0.00D+00
 Coeff-Com:  0.438D-02-0.296D-01-0.676D-01 0.419D-01 0.105D+01
 Coeff:      0.438D-02-0.296D-01-0.676D-01 0.419D-01 0.105D+01
 Gap=     0.453 Goal=   None    Shift=    0.000
 RMSDP=2.68D-08 MaxDP=4.34D-07 DE=-1.89D-10 OVMax= 2.50D-06

 Cycle   6  Pass 1  IDiag  1:
 RMSU=  7.62D-09    CP:  1.00D+00  1.34D+00  1.55D+00  9.43D-01  1.42D+00
 FoFJK:  IHMeth= 1 ICntrl=     0 DoSepK=T KAlg= 1 I1Cent= 0 FoldK=F
 E= -151.326379054333     Delta-E=       -0.000000000017 Rises=F Damp=F
 DIIS: error= 6.92D-08 at cycle   6 NSaved=   6.
 NSaved= 6 IEnMin= 6 EnMin= -151.326379054333     IErMin= 6 ErrMin= 6.92D-08
 ErrMax= 6.92D-08 EMaxC= 1.00D-01 BMatC= 6.53D-13 BMatP= 5.11D-12
 IDIUse=1 WtCom= 1.00D+00 WtEn= 0.00D+00
 Coeff-Com: -0.268D-03 0.135D-01-0.514D-01-0.503D-01 0.129D+00 0.960D+00
 Coeff:     -0.268D-03 0.135D-01-0.514D-01-0.503D-01 0.129D+00 0.960D+00
 Gap=     0.453 Goal=   None    Shift=    0.000
 RMSDP=9.76D-09 MaxDP=1.61D-07 DE=-1.71D-11 OVMax= 9.99D-07

 SCF Done:  E(RLC-B+HF-LYP) =  -151.326379054     A.U. after    6 cycles
             Convg  =    0.9757D-08             -V/T =  2.0058
 KE= 1.504605304257D+02 PE=-4.313929225053D+02 EE= 9.299367399756D+01
 Leave Link  502 at Wed May 13 21:19:42 2020, MaxMem= 1073741824 cpu:      45.0
 (Enter /home/matheus/.gaussian/g09/l122.exe)
 Restoring MOs from calculation   5 to rwf.
 Counterpoise: doing MCBS calculation for fragment   2
 Leave Link  122 at Wed May 13 21:19:42 2020, MaxMem= 1073741824 cpu:       0.0
 (Enter /home/matheus/.gaussian/g09/l301.exe)
 Basis read from rwf:  (5D, 7F)
 No pseudopotential information found on rwf file.
 There are    59 symmetry adapted basis functions of A   symmetry.
 Integral buffers will be    131072 words long.
 Raffenetti 2 integral format.
 Two-electron integral symmetry is turned on.
    59 basis functions,   217 primitive gaussians,    69 cartesian basis functions
    18 alpha electrons       18 beta electrons
       nuclear repulsion energy         0.0000000000 Hartrees.
 IExCor=10402 DFT=T Ex=LC-B+HF Corr=LYP ExCW=0 ScaHFX=  1.000000
 ScaDFX=  1.000000  1.000000  1.000000  1.000000 ScalE2=  1.000000  1.000000
 IRadAn=      5 IRanWt=     -1 IRanGd=            0 ICorTp=0
  HFx wShort=  0.000000 wLong=  0.470000 cFull=  0.000000 cShort=  0.000000 cLong=  1.000000
  DFx wShort=  0.000000 wLong=  0.470000 cFull=  0.000000 cShort=  0.000000 cLong=  1.000000
 NAtoms=    5 NActive=    1 NUniq=    1 SFac= 1.00D+00 NAtFMM=   60 NAOKFM=F Big=F
 No density basis found on file   718.
 Leave Link  301 at Wed May 13 21:19:42 2020, MaxMem= 1073741824 cpu:       0.2
 (Enter /home/matheus/.gaussian/g09/l302.exe)
 NPDir=0 NMtPBC=     1 NCelOv=     1 NCel=       1 NClECP=     1 NCelD=      1
         NCelK=      1 NCelE2=     1 NClLst=     1 CellRange=     0.0.
 One-electron integrals computed using PRISM.
 NBasis=    59 RedAO= T  NBF=    59
 NBsUse=    59 1.00D-06 NBFU=    59
 Precomputing XC quadrature grid using
 IXCGrd= 2 IRadAn=           5 IRanWt=          -1 IRanGd=           0 AccXCQ= 0.00D+00.
 NRdTot=      81 NPtTot=       30352 NUsed=       30981 NTot=       31013
 NSgBfM=    69    69    69    69    69 NAtAll=     1     1.
 Leave Link  302 at Wed May 13 21:19:42 2020, MaxMem= 1073741824 cpu:       0.6
 (Enter /home/matheus/.gaussian/g09/l303.exe)
 DipDrv:  MaxL=1.
 Leave Link  303 at Wed May 13 21:19:42 2020, MaxMem= 1073741824 cpu:       0.1
 (Enter /home/matheus/.gaussian/g09/l401.exe)
 Initial guess read from the read-write file.
 Guess basis will be translated and rotated to current coordinates.
 Initial guess orbital symmetries:
       Occupied  (A) (A) (A) (A) (A) (A) (A) (A) (A) (A) (A) (A)
                 (A) (A) (A) (A) (A) (A)
       Virtual   (A) (A) (A) (A) (A) (A) (A) (A) (A) (A) (A) (A)
                 (A) (A) (A) (A) (A) (A) (A) (A) (A) (A) (A) (A)
                 (A) (A) (A) (A) (A) (A) (A) (A) (A) (A) (A) (A)
                 (A) (A) (A) (A) (A)
 The electronic state of the initial guess is 1-A.
 Generating alternative initial guess.
 Harris functional with IExCor=10402 diagonalized for initial guess.
 ExpMin= 4.00D-02 ExpMax= 1.17D+07 ExpMxC= 1.33D+04 IAcc=3 IRadAn=         5 AccDes= 0.00D+00
 HarFok:  IExCor=10402 AccDes= 0.00D+00 IRadAn=         5 IDoV= 1
 ScaDFX=  1.000000  1.000000  1.000000  1.000000
 FoFCou: FMM=F IPFlag=           0 FMFlag=      100000 FMFlg1=           0
         NFxFlg=           0 DoJE=T BraDBF=F KetDBF=T FulRan=T
         Omega=  0.000000  0.000000  1.000000  0.000000  0.000000 ICntrl=     500 IOpCl=  0
         NMat0=    1 NMatS0=    1 NMatT0=    0 NMatD0=    1 NMtDS0=    0 NMtDT0=    0
         I1Cent=           4 NGrid=           0.
 Petite list used in FoFCou.
 DSYEVD returned Info=          89 IAlg= 4 N=    59 NDim=    59 NE2=    18198841 trying DSYEV.
 Harris En= -2744.51485235229    
 Leave Link  401 at Wed May 13 21:19:42 2020, MaxMem= 1073741824 cpu:       1.0
 (Enter /home/matheus/.gaussian/g09/l502.exe)
 Closed shell SCF:
 Requested convergence on RMS density matrix=1.00D-08 within 128 cycles.
 Requested convergence on MAX density matrix=1.00D-06.
 Requested convergence on             energy=1.00D-06.
 No special actions if energy rises.
 Using DIIS extrapolation, IDIIS=  1040.
 Integral symmetry usage will be decided dynamically.
        30923 words used for storage of precomputed grid.
 IEnd=       64406 IEndB=       64406 NGot=  1073741824 MDV=  1073698889
 LenX=  1073698889 LenY=  1073693687
 Fock matrices will be formed incrementally for  20 cycles.

 Cycle   1  Pass 1  IDiag  1:
 FoFJK:  IHMeth= 1 ICntrl=     0 DoSepK=T KAlg= 1 I1Cent= 0 FoldK=F
 FoFCou: FMM=F IPFlag=           0 FMFlag=      100000 FMFlg1=           0
         NFxFlg=           0 DoJE=T BraDBF=F KetDBF=F FulRan=T
         Omega=  0.000000  0.000000  1.000000  0.000000  0.000000 ICntrl=     500 IOpCl=  0
         NMat0=    1 NMatS0=    1 NMatT0=    0 NMatD0=    1 NMtDS0=    0 NMtDT0=    0
         I1Cent=           0 NGrid=           0.
 Symmetry not used in FoFCou.
 E= -2753.41754223393    
 DIIS: error= 5.63D-14 at cycle   1 NSaved=   1.
 NSaved= 1 IEnMin= 1 EnMin= -2753.41754223393     IErMin= 1 ErrMin= 5.63D-14
 ErrMax= 5.63D-14 EMaxC= 1.00D-01 BMatC= 1.36D-25 BMatP= 1.36D-25
 IDIUse=1 WtCom= 1.00D+00 WtEn= 0.00D+00
 Coeff-Com:  0.100D+01
 Coeff:      0.100D+01
 Gap=     0.595 Goal=   None    Shift=    0.000
 RMSDP=8.26D-15 MaxDP=1.79D-13              OVMax= 8.62D-14

 SCF Done:  E(RLC-B+HF-LYP) =  -2753.41754223     A.U. after    1 cycles
             Convg  =    0.8256D-14             -V/T =  2.0015
 KE= 2.749372504928D+03 PE=-6.578588569976D+03 EE= 1.075798522814D+03
 Leave Link  502 at Wed May 13 21:19:44 2020, MaxMem= 1073741824 cpu:      11.3
 (Enter /home/matheus/.gaussian/g09/l122.exe)
 Restoring MOs from calculation   1 to rwf.
 Counterpoise: corrected energy =   -2904.744006293736
 Counterpoise: BSSE energy =       0.000025066794
 Leave Link  122 at Wed May 13 21:19:44 2020, MaxMem= 1073741824 cpu:       0.0
 (Enter /home/matheus/.gaussian/g09/l108.exe)
 Scan completed.

 Summary of the potential surface scan:
   N      R1          SCF    
 ----  ---------  -----------
    1     3.0000  -2753.41754
    2     3.1000  -2753.41754
    3     3.2000  -2753.41754
    4     3.3000  -2753.41754
    5     3.4000  -2753.41754
    6     3.5000  -2753.41754
    7     3.6000  -2753.41754
    8     3.7000  -2753.41754
    9     3.8000  -2753.41754
   10     3.9000  -2753.41754
   11     4.0000  -2753.41754
   12     4.1000  -2753.41754
   13     4.2000  -2753.41754
   14     4.3000  -2753.41754
   15     4.4000  -2753.41754
   16     4.5000  -2753.41754
   17     4.6000  -2753.41754
   18     4.7000  -2753.41754
   19     4.8000  -2753.41754
   20     4.9000  -2753.41754
   21     5.0000  -2753.41754
 ----  ---------  -----------
  
 Leave Link  108 at Wed May 13 21:19:44 2020, MaxMem= 1073741824 cpu:       0.0
 (Enter /home/matheus/.gaussian/g09/l9999.exe)
 1\1\GINC-REDGIANT\Scan\RLC-BLYP\Aug-CC-pVTZ\H2Kr1O2\MATHEUS\13-May-202
 0\1\\#p lc-blyp/aug-cc-PVTz int=ultrafine counterpoise=2 Scan\\TCC\\0,
 1\O,0,0.,0.,0.725\O,0,0.,0.,-0.725\H,0,-0.795635374,-0.4593602974,1.02
 35104166\H,0,0.,0.9187205947,-1.0235104166\Kr,0,0.,R1,0.\\R1=3.,s,20,0
 .1\\Version=EM64L-G09RevC.01\State=1-A\HF=-2753.4175422,-2753.4175422,
 -2753.4175422,-2753.4175422,-2753.4175422,-2753.4175422,-2753.4175422,
 -2753.4175422,-2753.4175422,-2753.4175422,-2753.4175422,-2753.4175422,
 -2753.4175422,-2753.4175422,-2753.4175422,-2753.4175422,-2753.4175422,
 -2753.4175422,-2753.4175422,-2753.4175422,-2753.4175422\RMSD=1.334e-09
 ,5.265e-11,1.630e-11,9.946e-12,5.938e-12,3.615e-12,2.189e-12,1.319e-12
 ,7.982e-13,4.836e-13,2.957e-13,1.847e-13,1.085e-13,6.282e-14,4.154e-14
 ,2.557e-14,1.401e-14,1.093e-14,1.061e-14,9.796e-15,8.256e-15\PG=C01 [X
 (H2Kr1O2)]\\@


      SCIENCE SANS CONSCIENCE N'EST QUE RUINE DE L'AME.

                                                  -- RABELAIS
 Job cpu time:  0 days  3 hours 24 minutes 25.3 seconds.
 File lengths (MBytes):  RWF=     33 Int=      0 D2E=      0 Chk=      8 Scr=      1
 Normal termination of Gaussian 09 at Wed May 13 21:19:44 2020.
