 Entering Gaussian System, Link 0=g09
 Input=/home/matheus/.tcc/Inputs/Inputs-lc-blyp-default/H2O2-Kr_0.com
 Output=/home/matheus/.tcc/Logs/Logs-lc-blyp-default/H2O2-Kr_0.log
 Initial command:
 /home/matheus/.gaussian/g09/l1.exe /home/matheus/.gaussian/g09/scratch/Gau-5118.inp -scrdir=/home/matheus/.gaussian/g09/scratch/
 Entering Link 1 = /home/matheus/.gaussian/g09/l1.exe PID=      5122.
  
 Copyright (c) 1988,1990,1992,1993,1995,1998,2003,2009,2011,
            Gaussian, Inc.  All Rights Reserved.
  
 This is part of the Gaussian(R) 09 program.  It is based on
 the Gaussian(R) 03 system (copyright 2003, Gaussian, Inc.),
 the Gaussian(R) 98 system (copyright 1998, Gaussian, Inc.),
 the Gaussian(R) 94 system (copyright 1995, Gaussian, Inc.),
 the Gaussian 92(TM) system (copyright 1992, Gaussian, Inc.),
 the Gaussian 90(TM) system (copyright 1990, Gaussian, Inc.),
 the Gaussian 88(TM) system (copyright 1988, Gaussian, Inc.),
 the Gaussian 86(TM) system (copyright 1986, Carnegie Mellon
 University), and the Gaussian 82(TM) system (copyright 1983,
 Carnegie Mellon University). Gaussian is a federally registered
 trademark of Gaussian, Inc.
  
 This software contains proprietary and confidential information,
 including trade secrets, belonging to Gaussian, Inc.
  
 This software is provided under written license and may be
 used, copied, transmitted, or stored only in accord with that
 written license.
  
 The following legend is applicable only to US Government
 contracts under FAR:
  
                    RESTRICTED RIGHTS LEGEND
  
 Use, reproduction and disclosure by the US Government is
 subject to restrictions as set forth in subparagraphs (a)
 and (c) of the Commercial Computer Software - Restricted
 Rights clause in FAR 52.227-19.
  
 Gaussian, Inc.
 340 Quinnipiac St., Bldg. 40, Wallingford CT 06492
  
  
 ---------------------------------------------------------------
 Warning -- This program may not be used in any manner that
 competes with the business of Gaussian, Inc. or will provide
 assistance to any competitor of Gaussian, Inc.  The licensee
 of this program is prohibited from giving any competitor of
 Gaussian, Inc. access to this program.  By using this program,
 the user acknowledges that Gaussian, Inc. is engaged in the
 business of creating and licensing software in the field of
 computational chemistry and represents and warrants to the
 licensee that it is not a competitor of Gaussian, Inc. and that
 it will not use this program in any manner prohibited above.
 ---------------------------------------------------------------
  

 Cite this work as:
 Gaussian 09, Revision C.01,
 M. J. Frisch, G. W. Trucks, H. B. Schlegel, G. E. Scuseria, 
 M. A. Robb, J. R. Cheeseman, G. Scalmani, V. Barone, B. Mennucci, 
 G. A. Petersson, H. Nakatsuji, M. Caricato, X. Li, H. P. Hratchian, 
 A. F. Izmaylov, J. Bloino, G. Zheng, J. L. Sonnenberg, M. Hada, 
 M. Ehara, K. Toyota, R. Fukuda, J. Hasegawa, M. Ishida, T. Nakajima, 
 Y. Honda, O. Kitao, H. Nakai, T. Vreven, J. A. Montgomery, Jr., 
 J. E. Peralta, F. Ogliaro, M. Bearpark, J. J. Heyd, E. Brothers, 
 K. N. Kudin, V. N. Staroverov, T. Keith, R. Kobayashi, J. Normand, 
 K. Raghavachari, A. Rendell, J. C. Burant, S. S. Iyengar, J. Tomasi, 
 M. Cossi, N. Rega, J. M. Millam, M. Klene, J. E. Knox, J. B. Cross, 
 V. Bakken, C. Adamo, J. Jaramillo, R. Gomperts, R. E. Stratmann, 
 O. Yazyev, A. J. Austin, R. Cammi, C. Pomelli, J. W. Ochterski, 
 R. L. Martin, K. Morokuma, V. G. Zakrzewski, G. A. Voth, 
 P. Salvador, J. J. Dannenberg, S. Dapprich, A. D. Daniels, 
 O. Farkas, J. B. Foresman, J. V. Ortiz, J. Cioslowski, 
 and D. J. Fox, Gaussian, Inc., Wallingford CT, 2010.
 
 ******************************************
 Gaussian 09:  EM64L-G09RevC.01 23-Sep-2011
                11-May-2020 
 ******************************************
 %mem=8GB
 %nproc=8
 Will use up to    8 processors via shared memory.
 --------------------------------------------------------
 #p lc-blyp/aug-cc-PVTz int=ultrafine counterpoise=2 Scan
 --------------------------------------------------------
 1/38=1,60=1,62=2/1,8;
 2/12=2,17=6,18=5,29=3,40=1/2;
 1/38=1,53=5172,62=2/22;
 3/5=16,6=1,7=10,11=2,16=1,25=1,30=1,74=1000402,75=-5/1,2,3;
 4//1;
 5/5=2,38=5/2;
 6/7=2,8=2,9=2,10=2,18=1,28=1/1;
 1/53=4052,62=2,63=1/22;
 3/5=7,6=11,7=10,11=2,16=1,25=1,30=1,74=1000402,75=-5,82=7/1,2,3;
 4//1;
 5/5=2,38=5/2;
 6/7=2,8=2,9=2,10=2,18=1,28=1/1;
 1/53=3042,62=2,63=2/22;
 3/5=7,6=11,7=10,11=2,16=1,25=1,30=1,74=1000402,75=-5,82=7/1,2,3;
 4//1;
 5/5=2,38=5/2;
 6/7=2,8=2,9=2,10=2,18=1,28=1/1;
 1/53=2032,62=2,63=3/22;
 3/5=7,6=11,7=10,11=2,16=1,25=1,30=1,74=1000402,75=-5,82=7/1,2,3;
 4//1;
 5/5=2,38=5/2;
 6/7=2,8=2,9=2,10=2,18=1,28=1/1;
 1/53=1022,62=2,63=4/22;
 3/5=7,6=11,7=10,11=2,16=1,25=1,30=1,74=1000402,75=-5,82=7/1,2,3;
 4//1;
 5/5=2,38=5/2;
 6/7=2,8=2,9=2,10=2,18=1,28=1/1;
 1/53=5014,62=2,63=5/22;
 1/60=1,62=2/8(1);
 99/9=1/99;
 2/29=3/2;
 1/53=5173,62=2/22;
 3/5=7,6=11,7=10,11=2,16=1,25=1,30=1,74=1000402,75=-5,82=7/1,2,3;
 4/5=5,16=3/1;
 5/5=2,38=5/2;
 1/53=4053,62=2,63=1/22;
 3/5=7,6=11,7=10,11=2,16=1,25=1,30=1,74=1000402,75=-5,82=7/1,2,3;
 4/5=5,16=3/1;
 5/5=2,38=5/2;
 1/53=3043,62=2,63=2/22;
 3/5=7,6=11,7=10,11=2,16=1,25=1,30=1,74=1000402,75=-5,82=7/1,2,3;
 4/5=5,16=3/1;
 5/5=2,38=5/2;
 1/53=2033,62=2,63=3/22;
 3/5=7,6=11,7=10,11=2,16=1,25=1,30=1,74=1000402,75=-5,82=7/1,2,3;
 4/5=5,16=3/1;
 5/5=2,38=5/2;
 1/53=1024,62=2,63=4/22;
 3/5=7,6=11,7=10,11=2,16=1,25=1,30=1,74=1000402,75=-5,82=7/1,2,3;
 4/5=5,16=3/1;
 5/5=2,38=5/2;
 1/53=5014,62=2,63=5/22;
 1/60=1,62=2/8(-22);
 99/9=1/99;
 Leave Link    1 at Mon May 11 09:38:42 2020, MaxMem= 1073741824 cpu:       0.1
 (Enter /home/matheus/.gaussian/g09/l101.exe)
 ---
 TCC
 ---
 Charge =  0 Multiplicity = 1 in supermolecule
 Charge =  0 Multiplicity = 1 in fragment  1.
 Charge =  0 Multiplicity = 1 in fragment  2.
 Symbolic Z-Matrix:
 O(Fragment=1)         0.        0.        0.725 
 O(Fragment=1)         0.        0.       -0.725 
 H(Fragment=1)         0.        0.91872   1.02351 
 H(Fragment=1)         0.        0.91872  -1.02351 
 Kr(Fragment=2)        0.       R1        0. 
       Variables:
  R1                    3.     Scan 20    0.1    
 
 NAtoms=      5 NQM=        0 NQMF=       0 NMMI=      5 NMMIF=      0
                NMic=       0 NMicF=      0.
                    Isotopes and Nuclear Properties:
 (Nuclear quadrupole moments (NQMom) in fm**2, nuclear magnetic moments (NMagM)
  in nuclear magnetons)

  Atom         1           2           3           4           5
 IAtWgt=          16          16           1           1          84
 AtmWgt=  15.9949146  15.9949146   1.0078250   1.0078250  83.9115064
 NucSpn=           0           0           1           1           0
 AtZEff=   0.0000000   0.0000000   0.0000000   0.0000000   0.0000000
 NQMom=    0.0000000   0.0000000   0.0000000   0.0000000   0.0000000
 NMagM=    0.0000000   0.0000000   2.7928460   2.7928460   0.0000000
 Leave Link  101 at Mon May 11 09:38:42 2020, MaxMem= 1073741824 cpu:       0.5
 (Enter /home/matheus/.gaussian/g09/l108.exe)
 Scan the potential surface.
 Variable   Value     No. Steps Step-Size
 -------- ----------- --------- ---------
     1       3.000000      20      0.1000
 A total of     21 points will be computed.
 Leave Link  108 at Mon May 11 09:38:42 2020, MaxMem= 1073741824 cpu:       0.0
 (Enter /home/matheus/.gaussian/g09/l202.exe)
 ---------------------------------------------------------------------------------------------------
                            Z-MATRIX (ANGSTROMS AND DEGREES)
   CD    Cent   Atom    N1       Length/X        N2       Alpha/Y        N3        Beta/Z          J
 ---------------------------------------------------------------------------------------------------
      1      1  O        0   0.000000          0.000000          0.725000
      2      2  O        0   0.000000          0.000000         -0.725000
      3      3  H        0   0.000000          0.918721          1.023510
      4      4  H        0   0.000000          0.918721         -1.023510
      5      5  Kr       0   0.000000          3.000000          0.000000
 ---------------------------------------------------------------------------------------------------
                         Z-Matrix orientation:                         
 ---------------------------------------------------------------------
 Center     Atomic      Atomic             Coordinates (Angstroms)
 Number     Number       Type             X           Y           Z
 ---------------------------------------------------------------------
      1          8           0        0.000000    0.000000    0.725000
      2          8           0        0.000000    0.000000   -0.725000
      3          1           0        0.000000    0.918721    1.023510
      4          1           0        0.000000    0.918721   -1.023510
      5         36           0        0.000000    3.000000    0.000000
 ---------------------------------------------------------------------
                    Distance matrix (angstroms):
                    1          2          3          4          5
     1  O    0.000000
     2  O    1.450000   0.000000
     3  H    0.966000   1.975180   0.000000
     4  H    1.975180   0.966000   2.047021   0.000000
     5  Kr   3.086361   3.086361   2.319331   2.319331   0.000000
 Stoichiometry    H2KrO2
 Framework group  C2V[C2(Kr),SGV(H2O2)]
 Deg. of freedom     4
 Full point group                 C2V     NOp   4
 Largest Abelian subgroup         C2V     NOp   4
 Largest concise Abelian subgroup C2      NOp   2
                         Standard orientation:                         
 ---------------------------------------------------------------------
 Center     Atomic      Atomic             Coordinates (Angstroms)
 Number     Number       Type             X           Y           Z
 ---------------------------------------------------------------------
      1          8           0        0.000000    0.725000   -2.034027
      2          8           0        0.000000   -0.725000   -2.034027
      3          1           0        0.000000    1.023510   -1.115306
      4          1           0        0.000000   -1.023510   -1.115306
      5         36           0        0.000000    0.000000    0.965973
 ---------------------------------------------------------------------
 Rotational constants (GHZ):     26.7026195      2.3888795      2.1927141
 Leave Link  202 at Mon May 11 09:38:42 2020, MaxMem= 1073741824 cpu:       0.1
 (Enter /home/matheus/.gaussian/g09/l122.exe)
 Leave Link  122 at Mon May 11 09:38:42 2020, MaxMem= 1073741824 cpu:       0.0
 (Enter /home/matheus/.gaussian/g09/l301.exe)
 Standard basis: Aug-CC-pVTZ (5D, 7F)
 Ernie: Thresh=  0.10000D-02 Tol=  0.10000D-05 Strict=F.
 Ernie:  38 primitive shells out of 205 were deleted.
 There are    71 symmetry adapted basis functions of A1  symmetry.
 There are    29 symmetry adapted basis functions of A2  symmetry.
 There are    37 symmetry adapted basis functions of B1  symmetry.
 There are    60 symmetry adapted basis functions of B2  symmetry.
 Integral buffers will be    131072 words long.
 Raffenetti 2 integral format.
 Two-electron integral symmetry is turned on.
   197 basis functions,   415 primitive gaussians,   229 cartesian basis functions
    27 alpha electrons       27 beta electrons
       nuclear repulsion energy       151.8532718296 Hartrees.
 IExCor=10402 DFT=T Ex=LC-B+HF Corr=LYP ExCW=0 ScaHFX=  1.000000
 ScaDFX=  1.000000  1.000000  1.000000  1.000000 ScalE2=  1.000000  1.000000
 IRadAn=      5 IRanWt=     -1 IRanGd=            0 ICorTp=0
  HFx wShort=  0.000000 wLong=  0.470000 cFull=  0.000000 cShort=  0.000000 cLong=  1.000000
  DFx wShort=  0.000000 wLong=  0.470000 cFull=  0.000000 cShort=  0.000000 cLong=  1.000000
 NAtoms=    5 NActive=    5 NUniq=    3 SFac= 2.78D+00 NAtFMM=   60 NAOKFM=F Big=F
 Leave Link  301 at Mon May 11 09:38:43 2020, MaxMem= 1073741824 cpu:       0.3
 (Enter /home/matheus/.gaussian/g09/l302.exe)
 NPDir=0 NMtPBC=     1 NCelOv=     1 NCel=       1 NClECP=     1 NCelD=      1
         NCelK=      1 NCelE2=     1 NClLst=     1 CellRange=     0.0.
 One-electron integrals computed using PRISM.
 One-electron integral symmetry used in STVInt
 NBasis=   197 RedAO= T  NBF=    71    29    37    60
 NBsUse=   197 1.00D-06 NBFU=    71    29    37    60
 Precomputing XC quadrature grid using
 IXCGrd= 2 IRadAn=           5 IRanWt=          -1 IRanGd=           0 AccXCQ= 0.00D+00.
 NRdTot=     427 NPtTot=      123512 NUsed=      126579 NTot=      126611
 NSgBfM=   229   229   229   229   229 NAtAll=     5     5.
 Leave Link  302 at Mon May 11 09:38:43 2020, MaxMem= 1073741824 cpu:       1.0
 (Enter /home/matheus/.gaussian/g09/l303.exe)
 DipDrv:  MaxL=1.
 Leave Link  303 at Mon May 11 09:38:43 2020, MaxMem= 1073741824 cpu:       0.6
 (Enter /home/matheus/.gaussian/g09/l401.exe)
 Harris functional with IExCor=10402 diagonalized for initial guess.
 ExpMin= 2.53D-02 ExpMax= 1.17D+07 ExpMxC= 1.33D+04 IAcc=3 IRadAn=         5 AccDes= 0.00D+00
 HarFok:  IExCor=10402 AccDes= 0.00D+00 IRadAn=         5 IDoV= 1
 ScaDFX=  1.000000  1.000000  1.000000  1.000000
 FoFCou: FMM=F IPFlag=           0 FMFlag=      100000 FMFlg1=           0
         NFxFlg=           0 DoJE=T BraDBF=F KetDBF=T FulRan=T
         Omega=  0.000000  0.000000  1.000000  0.000000  0.000000 ICntrl=     500 IOpCl=  0
         NMat0=    1 NMatS0=    1 NMatT0=    0 NMatD0=    1 NMtDS0=    0 NMtDT0=    0
         I1Cent=           4 NGrid=           0.
 Petite list used in FoFCou.
 Harris En= -2891.66230065411    
 Initial guess orbital symmetries:
       Occupied  (A1) (A1) (A1) (B2) (B1) (B2) (A1) (A1) (A1) (B2)
                 (B1) (A1) (B2) (B1) (A1) (A2) (A1) (B2) (A1) (A1)
                 (A1) (B2) (B1) (B1) (A1) (B2) (A2)
       Virtual   (A1) (B2) (A1) (B1) (B2) (A1) (B2) (B1) (A1) (A1)
                 (B2) (A2) (B2) (A1) (B1) (A1) (A2) (B2) (A1) (B2)
                 (A1) (B1) (A2) (A1) (B2) (B2) (B2) (A1) (A1) (B1)
                 (A1) (B1) (B2) (B2) (A1) (B1) (A1) (B1) (A2) (A2)
                 (B2) (A1) (A1) (A1) (A2) (B2) (B2) (A1) (B1) (B1)
                 (A2) (A1) (B2) (B2) (B1) (A1) (B2) (A1) (B1) (A2)
                 (B2) (A2) (A1) (B2) (A1) (B2) (A1) (B1) (A2) (B1)
                 (B2) (A1) (A2) (A1) (B2) (B2) (A1) (B1) (A1) (B2)
                 (B1) (A1) (A1) (A2) (B1) (A1) (B2) (B1) (B2) (A2)
                 (B2) (A1) (A1) (A2) (A1) (B1) (A1) (B2) (B2) (B1)
                 (B1) (B2) (A1) (A2) (B1) (B2) (A1) (B1) (A2) (B2)
                 (A1) (A2) (B2) (A1) (A1) (B2) (B2) (A2) (B2) (A1)
                 (B1) (B2) (B1) (A1) (A2) (B1) (A2) (A1) (B2) (A2)
                 (A1) (A1) (B2) (B2) (A1) (A1) (B1) (A1) (B2) (A2)
                 (B2) (B2) (A1) (B1) (B2) (A1) (B1) (A1) (A2) (B2)
                 (B1) (A1) (A2) (A1) (B1) (B1) (A2) (B2) (A2) (B2)
                 (A1) (A2) (A1) (B2) (B2) (A1) (B2) (B2) (A1) (B2)
 The electronic state of the initial guess is 1-A1.
 Leave Link  401 at Mon May 11 09:38:43 2020, MaxMem= 1073741824 cpu:       2.4
 (Enter /home/matheus/.gaussian/g09/l502.exe)
 Closed shell SCF:
 Requested convergence on RMS density matrix=1.00D-08 within 128 cycles.
 Requested convergence on MAX density matrix=1.00D-06.
 Requested convergence on             energy=1.00D-06.
 No special actions if energy rises.
 Using DIIS extrapolation, IDIIS=  1040.
 Integral symmetry usage will be decided dynamically.
       126521 words used for storage of precomputed grid.
 IEnd=      305860 IEndB=      305860 NGot=  1073741824 MDV=  1073505275
 LenX=  1073505275 LenY=  1073452393
 Fock matrices will be formed incrementally for  20 cycles.

 Cycle   1  Pass 1  IDiag  1:
 FoFJK:  IHMeth= 1 ICntrl=     0 DoSepK=T KAlg= 1 I1Cent= 0 FoldK=F
 FoFCou: FMM=F IPFlag=           0 FMFlag=      100000 FMFlg1=           0
         NFxFlg=           0 DoJE=T BraDBF=F KetDBF=F FulRan=T
         Omega=  0.000000  0.000000  1.000000  0.000000  0.000000 ICntrl=     500 IOpCl=  0
         NMat0=    1 NMatS0=    1 NMatT0=    0 NMatD0=    1 NMtDS0=    0 NMtDT0=    0
         I1Cent=           0 NGrid=           0.
 Petite list used in FoFCou.
 E= -2904.61763510632    
 DIIS: error= 3.18D-02 at cycle   1 NSaved=   1.
 NSaved= 1 IEnMin= 1 EnMin= -2904.61763510632     IErMin= 1 ErrMin= 3.18D-02
 ErrMax= 3.18D-02 EMaxC= 1.00D-01 BMatC= 2.95D-01 BMatP= 2.95D-01
 IDIUse=3 WtCom= 6.82D-01 WtEn= 3.18D-01
 Coeff-Com:  0.100D+01
 Coeff-En:   0.100D+01
 Coeff:      0.100D+01
 Gap=     0.456 Goal=   None    Shift=    0.000
 GapD=    0.456 DampG=2.000 DampE=0.500 DampFc=1.0000 IDamp=-1.
 RMSDP=2.79D-03 MaxDP=1.58D-01              OVMax= 1.13D-01

 Cycle   2  Pass 1  IDiag  1:
 RMSU=  1.93D-03    CP:  1.02D+00
 FoFJK:  IHMeth= 1 ICntrl=     0 DoSepK=T KAlg= 1 I1Cent= 0 FoldK=F
 E= -2904.69986673570     Delta-E=       -0.082231629382 Rises=F Damp=F
 DIIS: error= 2.17D-02 at cycle   2 NSaved=   2.
 NSaved= 2 IEnMin= 2 EnMin= -2904.69986673570     IErMin= 2 ErrMin= 2.17D-02
 ErrMax= 2.17D-02 EMaxC= 1.00D-01 BMatC= 9.73D-02 BMatP= 2.95D-01
 IDIUse=3 WtCom= 7.83D-01 WtEn= 2.17D-01
 Coeff-Com:  0.360D+00 0.640D+00
 Coeff-En:   0.204D-01 0.980D+00
 Coeff:      0.287D+00 0.713D+00
 Gap=     0.427 Goal=   None    Shift=    0.000
 RMSDP=1.13D-03 MaxDP=6.79D-02 DE=-8.22D-02 OVMax= 3.08D-02

 Cycle   3  Pass 1  IDiag  1:
 RMSU=  3.55D-04    CP:  1.01D+00  6.40D-01
 FoFJK:  IHMeth= 1 ICntrl=     0 DoSepK=T KAlg= 1 I1Cent= 0 FoldK=F
 E= -2904.73175806753     Delta-E=       -0.031891331828 Rises=F Damp=F
 DIIS: error= 3.48D-03 at cycle   3 NSaved=   3.
 NSaved= 3 IEnMin= 3 EnMin= -2904.73175806753     IErMin= 3 ErrMin= 3.48D-03
 ErrMax= 3.48D-03 EMaxC= 1.00D-01 BMatC= 2.35D-03 BMatP= 9.73D-02
 IDIUse=3 WtCom= 9.65D-01 WtEn= 3.48D-02
 Coeff-Com: -0.130D-02 0.128D+00 0.873D+00
 Coeff-En:   0.000D+00 0.000D+00 0.100D+01
 Coeff:     -0.126D-02 0.124D+00 0.877D+00
 Gap=     0.429 Goal=   None    Shift=    0.000
 RMSDP=1.91D-04 MaxDP=9.66D-03 DE=-3.19D-02 OVMax= 6.58D-03

 Cycle   4  Pass 1  IDiag  1:
 RMSU=  7.04D-05    CP:  1.02D+00  6.98D-01  1.06D+00
 FoFJK:  IHMeth= 1 ICntrl=     0 DoSepK=T KAlg= 1 I1Cent= 0 FoldK=F
 E= -2904.73255941316     Delta-E=       -0.000801345633 Rises=F Damp=F
 DIIS: error= 3.60D-04 at cycle   4 NSaved=   4.
 NSaved= 4 IEnMin= 4 EnMin= -2904.73255941316     IErMin= 4 ErrMin= 3.60D-04
 ErrMax= 3.60D-04 EMaxC= 1.00D-01 BMatC= 3.78D-05 BMatP= 2.35D-03
 IDIUse=3 WtCom= 9.96D-01 WtEn= 3.60D-03
 Coeff-Com: -0.110D-01 0.954D-02 0.190D+00 0.811D+00
 Coeff-En:   0.000D+00 0.000D+00 0.000D+00 0.100D+01
 Coeff:     -0.109D-01 0.950D-02 0.190D+00 0.812D+00
 Gap=     0.426 Goal=   None    Shift=    0.000
 RMSDP=3.48D-05 MaxDP=9.93D-04 DE=-8.01D-04 OVMax= 1.52D-03

 Cycle   5  Pass 1  IDiag  1:
 RMSU=  1.76D-05    CP:  1.02D+00  7.00D-01  1.11D+00  1.01D+00
 FoFJK:  IHMeth= 1 ICntrl=     0 DoSepK=T KAlg= 1 I1Cent= 0 FoldK=F
 E= -2904.73258938762     Delta-E=       -0.000029974452 Rises=F Damp=F
 DIIS: error= 2.49D-04 at cycle   5 NSaved=   5.
 NSaved= 5 IEnMin= 5 EnMin= -2904.73258938762     IErMin= 5 ErrMin= 2.49D-04
 ErrMax= 2.49D-04 EMaxC= 1.00D-01 BMatC= 5.95D-06 BMatP= 3.78D-05
 IDIUse=3 WtCom= 9.98D-01 WtEn= 2.49D-03
 Coeff-Com: -0.254D-02-0.622D-02-0.123D-01 0.265D+00 0.756D+00
 Coeff-En:   0.000D+00 0.000D+00 0.000D+00 0.000D+00 0.100D+01
 Coeff:     -0.254D-02-0.620D-02-0.122D-01 0.265D+00 0.756D+00
 Gap=     0.427 Goal=   None    Shift=    0.000
 RMSDP=1.40D-05 MaxDP=4.81D-04 DE=-3.00D-05 OVMax= 9.65D-04

 Cycle   6  Pass 1  IDiag  1:
 RMSU=  5.79D-06    CP:  1.02D+00  7.01D-01  1.12D+00  1.10D+00  9.52D-01
 FoFJK:  IHMeth= 1 ICntrl=     0 DoSepK=T KAlg= 1 I1Cent= 0 FoldK=F
 E= -2904.73259459073     Delta-E=       -0.000005203116 Rises=F Damp=F
 DIIS: error= 3.74D-05 at cycle   6 NSaved=   6.
 NSaved= 6 IEnMin= 6 EnMin= -2904.73259459073     IErMin= 6 ErrMin= 3.74D-05
 ErrMax= 3.74D-05 EMaxC= 1.00D-01 BMatC= 3.50D-07 BMatP= 5.95D-06
 IDIUse=1 WtCom= 1.00D+00 WtEn= 0.00D+00
 Coeff-Com:  0.925D-04-0.310D-02-0.188D-01-0.299D-01 0.141D+00 0.911D+00
 Coeff:      0.925D-04-0.310D-02-0.188D-01-0.299D-01 0.141D+00 0.911D+00
 Gap=     0.427 Goal=   None    Shift=    0.000
 RMSDP=4.99D-06 MaxDP=1.70D-04 DE=-5.20D-06 OVMax= 2.40D-04

 Cycle   7  Pass 1  IDiag  1:
 RMSU=  1.19D-06    CP:  1.02D+00  7.01D-01  1.13D+00  1.12D+00  1.06D+00
                    CP:  1.14D+00
 FoFJK:  IHMeth= 1 ICntrl=     0 DoSepK=T KAlg= 1 I1Cent= 0 FoldK=F
 E= -2904.73259500009     Delta-E=       -0.000000409361 Rises=F Damp=F
 DIIS: error= 6.96D-06 at cycle   7 NSaved=   7.
 NSaved= 7 IEnMin= 7 EnMin= -2904.73259500009     IErMin= 7 ErrMin= 6.96D-06
 ErrMax= 6.96D-06 EMaxC= 1.00D-01 BMatC= 7.14D-09 BMatP= 3.50D-07
 IDIUse=1 WtCom= 1.00D+00 WtEn= 0.00D+00
 Coeff-Com:  0.500D-04-0.234D-04-0.993D-04-0.999D-02-0.220D-01 0.259D-01
 Coeff-Com:  0.101D+01
 Coeff:      0.500D-04-0.234D-04-0.993D-04-0.999D-02-0.220D-01 0.259D-01
 Coeff:      0.101D+01
 Gap=     0.427 Goal=   None    Shift=    0.000
 RMSDP=9.36D-07 MaxDP=3.00D-05 DE=-4.09D-07 OVMax= 6.67D-05

 Cycle   8  Pass 1  IDiag  1:
 RMSU=  2.87D-07    CP:  1.02D+00  7.01D-01  1.13D+00  1.13D+00  1.08D+00
                    CP:  1.19D+00  1.23D+00
 FoFJK:  IHMeth= 1 ICntrl=     0 DoSepK=T KAlg= 1 I1Cent= 0 FoldK=F
 E= -2904.73259501562     Delta-E=       -0.000000015528 Rises=F Damp=F
 DIIS: error= 1.63D-06 at cycle   8 NSaved=   8.
 NSaved= 8 IEnMin= 8 EnMin= -2904.73259501562     IErMin= 8 ErrMin= 1.63D-06
 ErrMax= 1.63D-06 EMaxC= 1.00D-01 BMatC= 6.38D-10 BMatP= 7.14D-09
 IDIUse=1 WtCom= 1.00D+00 WtEn= 0.00D+00
 Coeff-Com: -0.365D-05 0.271D-03 0.145D-02 0.245D-02-0.109D-01-0.737D-01
 Coeff-Com:  0.528D-01 0.103D+01
 Coeff:     -0.365D-05 0.271D-03 0.145D-02 0.245D-02-0.109D-01-0.737D-01
 Coeff:      0.528D-01 0.103D+01
 Gap=     0.427 Goal=   None    Shift=    0.000
 RMSDP=2.48D-07 MaxDP=4.62D-06 DE=-1.55D-08 OVMax= 1.54D-05

 Cycle   9  Pass 1  IDiag  1:
 RMSU=  7.27D-08    CP:  1.02D+00  7.01D-01  1.13D+00  1.13D+00  1.08D+00
                    CP:  1.20D+00  1.32D+00  1.19D+00
 FoFJK:  IHMeth= 1 ICntrl=     0 DoSepK=T KAlg= 1 I1Cent= 0 FoldK=F
 E= -2904.73259501691     Delta-E=       -0.000000001284 Rises=F Damp=F
 DIIS: error= 3.85D-07 at cycle   9 NSaved=   9.
 NSaved= 9 IEnMin= 9 EnMin= -2904.73259501691     IErMin= 9 ErrMin= 3.85D-07
 ErrMax= 3.85D-07 EMaxC= 1.00D-01 BMatC= 1.98D-11 BMatP= 6.38D-10
 IDIUse=1 WtCom= 1.00D+00 WtEn= 0.00D+00
 Coeff-Com: -0.509D-06 0.154D-04 0.444D-04 0.528D-03 0.757D-03-0.277D-02
 Coeff-Com: -0.451D-01 0.249D-01 0.102D+01
 Coeff:     -0.509D-06 0.154D-04 0.444D-04 0.528D-03 0.757D-03-0.277D-02
 Coeff:     -0.451D-01 0.249D-01 0.102D+01
 Gap=     0.427 Goal=   None    Shift=    0.000
 RMSDP=4.58D-08 MaxDP=9.15D-07 DE=-1.28D-09 OVMax= 4.07D-06

 Cycle  10  Pass 1  IDiag  1:
 RMSU=  1.88D-08    CP:  1.02D+00  7.01D-01  1.13D+00  1.13D+00  1.08D+00
                    CP:  1.20D+00  1.33D+00  1.24D+00  1.19D+00
 FoFJK:  IHMeth= 1 ICntrl=     0 DoSepK=T KAlg= 1 I1Cent= 0 FoldK=F
 E= -2904.73259501699     Delta-E=       -0.000000000085 Rises=F Damp=F
 DIIS: error= 1.34D-07 at cycle  10 NSaved=  10.
 NSaved=10 IEnMin=10 EnMin= -2904.73259501699     IErMin=10 ErrMin= 1.34D-07
 ErrMax= 1.34D-07 EMaxC= 1.00D-01 BMatC= 1.80D-12 BMatP= 1.98D-11
 IDIUse=1 WtCom= 1.00D+00 WtEn= 0.00D+00
 Coeff-Com: -0.615D-06-0.198D-04-0.896D-04-0.142D-03 0.517D-03 0.448D-02
 Coeff-Com: -0.669D-03-0.568D-01-0.741D-01 0.113D+01
 Coeff:     -0.615D-06-0.198D-04-0.896D-04-0.142D-03 0.517D-03 0.448D-02
 Coeff:     -0.669D-03-0.568D-01-0.741D-01 0.113D+01
 Gap=     0.427 Goal=   None    Shift=    0.000
 RMSDP=1.52D-08 MaxDP=3.18D-07 DE=-8.46D-11 OVMax= 1.59D-06

 Cycle  11  Pass 1  IDiag  1:
 RMSU=  3.98D-09    CP:  1.02D+00  7.01D-01  1.13D+00  1.13D+00  1.08D+00
                    CP:  1.20D+00  1.33D+00  1.24D+00  1.25D+00  1.41D+00
 FoFJK:  IHMeth= 1 ICntrl=     0 DoSepK=T KAlg= 1 I1Cent= 0 FoldK=F
 E= -2904.73259501697     Delta-E=        0.000000000017 Rises=F Damp=F
 DIIS: error= 4.38D-08 at cycle  11 NSaved=  11.
 NSaved=11 IEnMin=10 EnMin= -2904.73259501699     IErMin=11 ErrMin= 4.38D-08
 ErrMax= 4.38D-08 EMaxC= 1.00D-01 BMatC= 1.21D-13 BMatP= 1.80D-12
 IDIUse=1 WtCom= 1.00D+00 WtEn= 0.00D+00
 Coeff-Com:  0.130D-06 0.294D-05 0.150D-04-0.299D-05-0.170D-03-0.723D-03
 Coeff-Com:  0.361D-02 0.942D-02-0.622D-01-0.219D+00 0.127D+01
 Coeff:      0.130D-06 0.294D-05 0.150D-04-0.299D-05-0.170D-03-0.723D-03
 Coeff:      0.361D-02 0.942D-02-0.622D-01-0.219D+00 0.127D+01
 Gap=     0.427 Goal=   None    Shift=    0.000
 RMSDP=6.35D-09 MaxDP=1.80D-07 DE= 1.73D-11 OVMax= 6.50D-07

 SCF Done:  E(RLC-B+HF-LYP) =  -2904.73259502     A.U. after   11 cycles
             Convg  =    0.6349D-08             -V/T =  2.0017
 KE= 2.899855684928D+03 PE=-7.238970816871D+03 EE= 1.282529265096D+03
 Leave Link  502 at Mon May 11 09:39:07 2020, MaxMem= 1073741824 cpu:     183.7
 (Enter /home/matheus/.gaussian/g09/l601.exe)
 Copying SCF densities to generalized density rwf, IOpCl= 0 IROHF=0.

 **********************************************************************

            Population analysis using the SCF density.

 **********************************************************************

 Orbital symmetries:
       Occupied  (A1) (A1) (A1) (B2) (B1) (A1) (B2) (A1) (A1) (B2)
                 (B1) (A1) (B2) (B1) (A2) (A1) (A1) (A1) (B2) (A1)
                 (A1) (B2) (B1) (B1) (A1) (B2) (A2)
       Virtual   (A1) (B2) (A1) (B1) (B2) (B2) (A1) (A1) (B1) (B2)
                 (A1) (A2) (B2) (A1) (B1) (A1) (A2) (B2) (A1) (A1)
                 (B2) (B1) (A1) (A2) (B2) (B2) (B2) (A1) (B1) (A1)
                 (A1) (B2) (B1) (A1) (B2) (B1) (A2) (A1) (B1) (B2)
                 (A1) (A2) (A1) (A2) (A1) (B2) (B2) (B1) (A1) (B1)
                 (A2) (A1) (B2) (B2) (B1) (A1) (A1) (B2) (A2) (B1)
                 (B2) (A2) (A1) (B2) (A1) (B2) (A1) (B1) (A2) (B1)
                 (B2) (A1) (A2) (A1) (B2) (B2) (A1) (B1) (A1) (B2)
                 (A1) (B1) (A1) (B1) (A2) (A1) (B2) (B2) (B1) (A2)
                 (A1) (A1) (A2) (B2) (A1) (B1) (A1) (B2) (B2) (B1)
                 (B1) (B2) (A1) (A2) (B1) (B2) (A1) (B1) (A2) (B2)
                 (A1) (A2) (B2) (A1) (A1) (B2) (B2) (A2) (B2) (A1)
                 (B2) (B1) (B1) (A1) (A2) (B1) (A2) (A1) (B2) (A2)
                 (A1) (A1) (B2) (B2) (A1) (A1) (B1) (A1) (B2) (A2)
                 (B2) (B2) (A1) (B1) (B2) (A1) (B1) (A1) (A2) (B2)
                 (B1) (A1) (A2) (A1) (B1) (B1) (B2) (A2) (A2) (B2)
                 (A1) (A2) (A1) (B2) (B2) (A1) (B2) (B2) (A1) (B2)
 The electronic state is 1-A1.
 Alpha  occ. eigenvalues -- -511.28677 -66.75659 -60.44190 -60.44181 -60.44169
 Alpha  occ. eigenvalues --  -19.06766 -19.06766  -9.64801  -7.40283  -7.40256
 Alpha  occ. eigenvalues --   -7.40222  -3.36620  -3.36618  -3.36590  -3.36569
 Alpha  occ. eigenvalues --   -3.36566  -1.28351  -1.10619  -1.05912  -0.73239
 Alpha  occ. eigenvalues --   -0.58430  -0.56737  -0.56360  -0.54788  -0.54233
 Alpha  occ. eigenvalues --   -0.51559  -0.40251
 Alpha virt. eigenvalues --    0.02425   0.03727   0.07430   0.08132   0.09504
 Alpha virt. eigenvalues --    0.11243   0.11707   0.15906   0.16196   0.16828
 Alpha virt. eigenvalues --    0.17516   0.17942   0.20097   0.20722   0.21894
 Alpha virt. eigenvalues --    0.22991   0.23701   0.25573   0.29645   0.32928
 Alpha virt. eigenvalues --    0.33882   0.36831   0.37820   0.37906   0.39164
 Alpha virt. eigenvalues --    0.42744   0.44739   0.48416   0.51126   0.52761
 Alpha virt. eigenvalues --    0.59007   0.61456   0.62248   0.63250   0.63581
 Alpha virt. eigenvalues --    0.68830   0.69656   0.70705   0.72089   0.75081
 Alpha virt. eigenvalues --    0.75617   0.77392   0.79787   0.83853   0.84985
 Alpha virt. eigenvalues --    0.86064   0.86273   0.88771   0.88898   0.90841
 Alpha virt. eigenvalues --    0.94157   0.96662   0.97170   0.99195   1.01376
 Alpha virt. eigenvalues --    1.03007   1.06226   1.08126   1.09527   1.09537
 Alpha virt. eigenvalues --    1.12366   1.19537   1.22238   1.28626   1.29276
 Alpha virt. eigenvalues --    1.31154   1.32849   1.38587   1.41484   1.47297
 Alpha virt. eigenvalues --    1.47847   1.49604   1.55862   1.56462   1.59747
 Alpha virt. eigenvalues --    1.65405   1.67588   1.79523   1.95445   1.95695
 Alpha virt. eigenvalues --    1.98765   1.99621   2.09781   2.12112   2.14925
 Alpha virt. eigenvalues --    2.20534   2.21564   2.23704   2.23985   2.28607
 Alpha virt. eigenvalues --    2.31980   2.33790   2.33881   2.34860   2.38619
 Alpha virt. eigenvalues --    2.39510   2.41582   2.44089   2.49116   2.49205
 Alpha virt. eigenvalues --    2.50165   2.51902   2.59225   2.60167   2.65093
 Alpha virt. eigenvalues --    2.67162   2.68840   2.70830   2.73111   2.73622
 Alpha virt. eigenvalues --    2.74190   2.77509   2.81511   2.89838   2.91355
 Alpha virt. eigenvalues --    2.96815   3.11931   3.13830   3.21345   3.55769
 Alpha virt. eigenvalues --    3.80055   3.81989   3.97119   4.05867   4.09276
 Alpha virt. eigenvalues --    4.11481   4.14288   4.21217   4.22610   4.29508
 Alpha virt. eigenvalues --    4.35788   4.47455   4.59680   4.72151   4.75243
 Alpha virt. eigenvalues --    4.97703   5.01913   5.03155   5.09587   5.17075
 Alpha virt. eigenvalues --    5.20119   5.55790   5.82092   6.00341   6.08535
 Alpha virt. eigenvalues --    6.15251   6.33599   6.41494   6.50939   6.60605
 Alpha virt. eigenvalues --    6.70685   6.73622   6.77380   6.78479   6.82398
 Alpha virt. eigenvalues --    6.88159   6.88181   6.90082   6.94858   7.14256
 Alpha virt. eigenvalues --    7.17115   7.23440   7.26566   7.30001   7.63904
 Alpha virt. eigenvalues --    7.96168   8.07023   8.22057  13.75971  14.69494
          Condensed to atoms (all electrons):
              1          2          3          4          5
     1  O    8.240566  -0.246732   0.168648   0.057736  -0.017615
     2  O   -0.246732   8.240566   0.057736   0.168648  -0.017615
     3  H    0.168648   0.057736   0.631867  -0.039455  -0.009994
     4  H    0.057736   0.168648  -0.039455   0.631867  -0.009994
     5  Kr  -0.017615  -0.017615  -0.009994  -0.009994  36.032406
 Mulliken atomic charges:
              1
     1  O   -0.202603
     2  O   -0.202603
     3  H    0.191197
     4  H    0.191197
     5  Kr   0.022811
 Sum of Mulliken atomic charges =   0.00000
 Mulliken charges with hydrogens summed into heavy atoms:
              1
     1  O   -0.011406
     2  O   -0.011406
     5  Kr   0.022811
 Sum of Mulliken charges with hydrogens summed into heavy atoms =   0.00000
          Condensed to fragments (all electrons):
     1      -0.022811
     2       0.022811
 Electronic spatial extent (au):  <R**2>=            476.1842
 Charge=              0.0000 electrons
 Dipole moment (field-independent basis, Debye):
    X=              0.0000    Y=              0.0000    Z=              3.8674  Tot=              3.8674
 Quadrupole moment (field-independent basis, Debye-Ang):
   XX=            -30.8360   YY=            -28.5051   ZZ=            -39.4330
   XY=              0.0000   XZ=              0.0000   YZ=              0.0000
 Traceless Quadrupole moment (field-independent basis, Debye-Ang):
   XX=              2.0887   YY=              4.4196   ZZ=             -6.5083
   XY=              0.0000   XZ=              0.0000   YZ=              0.0000
 Octapole moment (field-independent basis, Debye-Ang**2):
  XXX=              0.0000  YYY=              0.0000  ZZZ=             46.9823  XYY=              0.0000
  XXY=              0.0000  XXZ=              9.3912  XZZ=              0.0000  YZZ=              0.0000
  YYZ=              8.7251  XYZ=              0.0000
 Hexadecapole moment (field-independent basis, Debye-Ang**3):
 XXXX=            -30.1358 YYYY=            -65.2186 ZZZZ=           -463.4759 XXXY=              0.0000
 XXXZ=              0.0000 YYYX=              0.0000 YYYZ=              0.0000 ZZZX=              0.0000
 ZZZY=              0.0000 XXYY=            -17.9373 XXZZ=            -77.8505 YYZZ=            -88.4226
 XXYZ=              0.0000 YYXZ=              0.0000 ZZXY=              0.0000
 N-N= 1.518532718296D+02 E-N=-7.238970818274D+03  KE= 2.899855684928D+03
 Symmetry A1   KE= 2.057193187515D+03
 Symmetry A2   KE= 5.286603638651D+01
 Symmetry B1   KE= 3.626969726960D+02
 Symmetry B2   KE= 4.270994883304D+02
 No NMR shielding tensors so no spin-rotation constants.
 Leave Link  601 at Mon May 11 09:39:07 2020, MaxMem= 1073741824 cpu:       1.3
 (Enter /home/matheus/.gaussian/g09/l122.exe)
 Counterpoise: doing DCBS calculation for fragment   1 NewBq=T
 Leave Link  122 at Mon May 11 09:39:07 2020, MaxMem= 1073741824 cpu:       0.0
 (Enter /home/matheus/.gaussian/g09/l301.exe)
 Basis read from rwf:  (5D, 7F)
 No pseudopotential information found on rwf file.
 There are    71 symmetry adapted basis functions of A1  symmetry.
 There are    29 symmetry adapted basis functions of A2  symmetry.
 There are    37 symmetry adapted basis functions of B1  symmetry.
 There are    60 symmetry adapted basis functions of B2  symmetry.
 Integral buffers will be    131072 words long.
 Raffenetti 2 integral format.
 Two-electron integral symmetry is turned on.
   197 basis functions,   415 primitive gaussians,   229 cartesian basis functions
     9 alpha electrons        9 beta electrons
       nuclear repulsion energy        36.6667523957 Hartrees.
 IExCor=10402 DFT=T Ex=LC-B+HF Corr=LYP ExCW=0 ScaHFX=  1.000000
 ScaDFX=  1.000000  1.000000  1.000000  1.000000 ScalE2=  1.000000  1.000000
 IRadAn=      5 IRanWt=     -1 IRanGd=            0 ICorTp=0
  HFx wShort=  0.000000 wLong=  0.470000 cFull=  0.000000 cShort=  0.000000 cLong=  1.000000
  DFx wShort=  0.000000 wLong=  0.470000 cFull=  0.000000 cShort=  0.000000 cLong=  1.000000
 NAtoms=    5 NActive=    5 NUniq=    3 SFac= 2.78D+00 NAtFMM=   60 NAOKFM=F Big=F
 No density basis found on file   718.
 Leave Link  301 at Mon May 11 09:39:07 2020, MaxMem= 1073741824 cpu:       0.2
 (Enter /home/matheus/.gaussian/g09/l302.exe)
 NPDir=0 NMtPBC=     1 NCelOv=     1 NCel=       1 NClECP=     1 NCelD=      1
         NCelK=      1 NCelE2=     1 NClLst=     1 CellRange=     0.0.
 One-electron integrals computed using PRISM.
 One-electron integral symmetry used in STVInt
 NBasis=   197 RedAO= T  NBF=    71    29    37    60
 NBsUse=   197 1.00D-06 NBFU=    71    29    37    60
 Precomputing XC quadrature grid using
 IXCGrd= 2 IRadAn=           5 IRanWt=          -1 IRanGd=           0 AccXCQ= 0.00D+00.
 NRdTot=     427 NPtTot=      123512 NUsed=      126579 NTot=      126611
 NSgBfM=   229   229   229   229   229 NAtAll=     5     5.
 Leave Link  302 at Mon May 11 09:39:07 2020, MaxMem= 1073741824 cpu:       0.9
 (Enter /home/matheus/.gaussian/g09/l303.exe)
 DipDrv:  MaxL=1.
 Leave Link  303 at Mon May 11 09:39:07 2020, MaxMem= 1073741824 cpu:       0.2
 (Enter /home/matheus/.gaussian/g09/l401.exe)
 Harris functional with IExCor=10402 diagonalized for initial guess.
 ExpMin= 2.53D-02 ExpMax= 1.17D+07 ExpMxC= 1.33D+04 IAcc=3 IRadAn=         5 AccDes= 0.00D+00
 HarFok:  IExCor=10402 AccDes= 0.00D+00 IRadAn=         5 IDoV= 1
 ScaDFX=  1.000000  1.000000  1.000000  1.000000
 FoFCou: FMM=F IPFlag=           0 FMFlag=      100000 FMFlg1=           0
         NFxFlg=           0 DoJE=T BraDBF=F KetDBF=T FulRan=T
         Omega=  0.000000  0.000000  1.000000  0.000000  0.000000 ICntrl=     500 IOpCl=  0
         NMat0=    1 NMatS0=    1 NMatT0=    0 NMatD0=    1 NMtDS0=    0 NMtDT0=    0
         I1Cent=           4 NGrid=           0.
 Petite list used in FoFCou.
 Harris En= -147.161353593405    
 Initial guess orbital symmetries:
       Occupied  (B2) (A1) (A1) (B2) (A1) (A1) (B1) (B2) (A2)
       Virtual   (A1) (B2) (A1) (B1) (A1) (B2) (B2) (A1) (B1) (A1)
                 (B2) (A2) (B2) (A1) (A1) (B1) (B2) (A1) (A2) (B2)
                 (A1) (B1) (B2) (A1) (B2) (A2) (A1) (B2) (B1) (A1)
                 (A1) (B2) (A1) (B1) (B2) (B1) (A1) (A2) (A1) (A2)
                 (B1) (B2) (A1) (B2) (A1) (B1) (B2) (A2) (A1) (B2)
                 (B2) (A1) (B1) (A2) (A1) (B1) (B2) (A2) (A1) (B2)
                 (B2) (A1) (B1) (A2) (B1) (A1) (A1) (B2) (A1) (A1)
                 (B2) (B1) (A2) (B2) (A1) (B1) (A2) (A1) (B2) (B1)
                 (A1) (B2) (A1) (B1) (B2) (A1) (A2) (B2) (A1) (B1)
                 (A1) (A2) (B2) (A1) (B2) (A1) (B1) (B2) (B1) (A2)
                 (B2) (A2) (A1) (A1) (B2) (B2) (A2) (B2) (B1) (A1)
                 (B2) (A1) (A1) (B1) (B2) (A2) (A1) (B1) (B1) (B2)
                 (A2) (A1) (A1) (B1) (B1) (B2) (A2) (A1) (B2) (B1)
                 (A2) (A1) (B2) (A2) (A1) (A1) (A1) (B2) (B2) (A1)
                 (B1) (A1) (B2) (A2) (B2) (B2) (A1) (B1) (B2) (A1)
                 (B1) (A1) (A2) (B2) (B1) (A1) (A2) (A1) (B1) (B1)
                 (A2) (B2) (A2) (B2) (A1) (A2) (A1) (B2) (B2) (A1)
                 (B2) (B2) (A1) (A1) (B2) (B1) (B2) (A1) (A2) (A1)
                 (B1) (A1) (B2) (A1) (B1) (B2) (A1) (A1)
 The electronic state of the initial guess is 1-A1.
 Leave Link  401 at Mon May 11 09:39:07 2020, MaxMem= 1073741824 cpu:       2.0
 (Enter /home/matheus/.gaussian/g09/l502.exe)
 Closed shell SCF:
 Requested convergence on RMS density matrix=1.00D-08 within 128 cycles.
 Requested convergence on MAX density matrix=1.00D-06.
 Requested convergence on             energy=1.00D-06.
 No special actions if energy rises.
 Using DIIS extrapolation, IDIIS=  1040.
 Integral symmetry usage will be decided dynamically.
       126521 words used for storage of precomputed grid.
 IEnd=      305860 IEndB=      305860 NGot=  1073741824 MDV=  1073505275
 LenX=  1073505275 LenY=  1073452393
 Fock matrices will be formed incrementally for  20 cycles.

 Cycle   1  Pass 1  IDiag  1:
 FoFJK:  IHMeth= 1 ICntrl=     0 DoSepK=T KAlg= 1 I1Cent= 0 FoldK=F
 FoFCou: FMM=F IPFlag=           0 FMFlag=      100000 FMFlg1=           0
         NFxFlg=           0 DoJE=T BraDBF=F KetDBF=F FulRan=T
         Omega=  0.000000  0.000000  1.000000  0.000000  0.000000 ICntrl=     500 IOpCl=  0
         NMat0=    1 NMatS0=    1 NMatT0=    0 NMatD0=    1 NMtDS0=    0 NMtDT0=    0
         I1Cent=           0 NGrid=           0.
 Petite list used in FoFCou.
 E= -151.292933134662    
 DIIS: error= 1.42D-02 at cycle   1 NSaved=   1.
 NSaved= 1 IEnMin= 1 EnMin= -151.292933134662     IErMin= 1 ErrMin= 1.42D-02
 ErrMax= 1.42D-02 EMaxC= 1.00D-01 BMatC= 2.45D-02 BMatP= 2.45D-02
 IDIUse=3 WtCom= 8.58D-01 WtEn= 1.42D-01
 Coeff-Com:  0.100D+01
 Coeff-En:   0.100D+01
 Coeff:      0.100D+01
 Gap=     0.452 Goal=   None    Shift=    0.000
 GapD=    0.452 DampG=2.000 DampE=0.500 DampFc=1.0000 IDamp=-1.
 RMSDP=8.94D-04 MaxDP=3.17D-02              OVMax= 5.70D-02

 Cycle   2  Pass 1  IDiag  1:
 RMSU=  6.32D-04    CP:  1.00D+00
 FoFJK:  IHMeth= 1 ICntrl=     0 DoSepK=T KAlg= 1 I1Cent= 0 FoldK=F
 E= -151.315231333458     Delta-E=       -0.022298198796 Rises=F Damp=F
 DIIS: error= 5.99D-03 at cycle   2 NSaved=   2.
 NSaved= 2 IEnMin= 2 EnMin= -151.315231333458     IErMin= 2 ErrMin= 5.99D-03
 ErrMax= 5.99D-03 EMaxC= 1.00D-01 BMatC= 4.21D-03 BMatP= 2.45D-02
 IDIUse=3 WtCom= 9.40D-01 WtEn= 5.99D-02
 Coeff-Com:  0.244D+00 0.756D+00
 Coeff-En:   0.000D+00 0.100D+01
 Coeff:      0.230D+00 0.770D+00
 Gap=     0.414 Goal=   None    Shift=    0.000
 RMSDP=2.12D-04 MaxDP=5.98D-03 DE=-2.23D-02 OVMax= 1.43D-02

 Cycle   3  Pass 1  IDiag  1:
 RMSU=  1.48D-04    CP:  1.00D+00  1.03D+00
 FoFJK:  IHMeth= 1 ICntrl=     0 DoSepK=T KAlg= 1 I1Cent= 0 FoldK=F
 E= -151.317615939401     Delta-E=       -0.002384605943 Rises=F Damp=F
 DIIS: error= 2.28D-03 at cycle   3 NSaved=   3.
 NSaved= 3 IEnMin= 3 EnMin= -151.317615939401     IErMin= 3 ErrMin= 2.28D-03
 ErrMax= 2.28D-03 EMaxC= 1.00D-01 BMatC= 4.86D-04 BMatP= 4.21D-03
 IDIUse=3 WtCom= 9.77D-01 WtEn= 2.28D-02
 Coeff-Com:  0.226D-01 0.238D+00 0.739D+00
 Coeff-En:   0.000D+00 0.000D+00 0.100D+01
 Coeff:      0.221D-01 0.233D+00 0.745D+00
 Gap=     0.424 Goal=   None    Shift=    0.000
 RMSDP=1.06D-04 MaxDP=3.68D-03 DE=-2.38D-03 OVMax= 7.40D-03

 Cycle   4  Pass 1  IDiag  1:
 RMSU=  5.54D-05    CP:  1.00D+00  1.11D+00  9.58D-01
 FoFJK:  IHMeth= 1 ICntrl=     0 DoSepK=T KAlg= 1 I1Cent= 0 FoldK=F
 E= -151.317983163528     Delta-E=       -0.000367224127 Rises=F Damp=F
 DIIS: error= 4.03D-04 at cycle   4 NSaved=   4.
 NSaved= 4 IEnMin= 4 EnMin= -151.317983163528     IErMin= 4 ErrMin= 4.03D-04
 ErrMax= 4.03D-04 EMaxC= 1.00D-01 BMatC= 4.92D-05 BMatP= 4.86D-04
 IDIUse=3 WtCom= 9.96D-01 WtEn= 4.03D-03
 Coeff-Com: -0.215D-01-0.335D-01 0.200D+00 0.855D+00
 Coeff-En:   0.000D+00 0.000D+00 0.000D+00 0.100D+01
 Coeff:     -0.214D-01-0.334D-01 0.199D+00 0.855D+00
 Gap=     0.421 Goal=   None    Shift=    0.000
 RMSDP=4.30D-05 MaxDP=1.55D-03 DE=-3.67D-04 OVMax= 1.83D-03

 Cycle   5  Pass 1  IDiag  1:
 RMSU=  1.02D-05    CP:  1.00D+00  1.14D+00  1.11D+00  1.03D+00
 FoFJK:  IHMeth= 1 ICntrl=     0 DoSepK=T KAlg= 1 I1Cent= 0 FoldK=F
 E= -151.318024583591     Delta-E=       -0.000041420063 Rises=F Damp=F
 DIIS: error= 6.47D-05 at cycle   5 NSaved=   5.
 NSaved= 5 IEnMin= 5 EnMin= -151.318024583591     IErMin= 5 ErrMin= 6.47D-05
 ErrMax= 6.47D-05 EMaxC= 1.00D-01 BMatC= 3.83D-07 BMatP= 4.92D-05
 IDIUse=1 WtCom= 1.00D+00 WtEn= 0.00D+00
 Coeff-Com:  0.659D-03-0.362D-02-0.390D-01-0.779D-01 0.112D+01
 Coeff:      0.659D-03-0.362D-02-0.390D-01-0.779D-01 0.112D+01
 Gap=     0.421 Goal=   None    Shift=    0.000
 RMSDP=1.12D-05 MaxDP=4.46D-04 DE=-4.14D-05 OVMax= 6.73D-04

 Cycle   6  Pass 1  IDiag  1:
 RMSU=  2.79D-06    CP:  1.00D+00  1.14D+00  1.14D+00  1.11D+00  1.25D+00
 FoFJK:  IHMeth= 1 ICntrl=     0 DoSepK=T KAlg= 1 I1Cent= 0 FoldK=F
 E= -151.318025825979     Delta-E=       -0.000001242388 Rises=F Damp=F
 DIIS: error= 1.51D-05 at cycle   6 NSaved=   6.
 NSaved= 6 IEnMin= 6 EnMin= -151.318025825979     IErMin= 6 ErrMin= 1.51D-05
 ErrMax= 1.51D-05 EMaxC= 1.00D-01 BMatC= 1.60D-08 BMatP= 3.83D-07
 IDIUse=1 WtCom= 1.00D+00 WtEn= 0.00D+00
 Coeff-Com:  0.997D-04 0.379D-04-0.741D-03-0.300D-02-0.100D+00 0.110D+01
 Coeff:      0.997D-04 0.379D-04-0.741D-03-0.300D-02-0.100D+00 0.110D+01
 Gap=     0.421 Goal=   None    Shift=    0.000
 RMSDP=1.63D-06 MaxDP=4.89D-05 DE=-1.24D-06 OVMax= 1.09D-04

 Cycle   7  Pass 1  IDiag  1:
 RMSU=  2.89D-07    CP:  1.00D+00  1.14D+00  1.14D+00  1.12D+00  1.30D+00
                    CP:  1.26D+00
 FoFJK:  IHMeth= 1 ICntrl=     0 DoSepK=T KAlg= 1 I1Cent= 0 FoldK=F
 E= -151.318025868780     Delta-E=       -0.000000042801 Rises=F Damp=F
 DIIS: error= 2.73D-06 at cycle   7 NSaved=   7.
 NSaved= 7 IEnMin= 7 EnMin= -151.318025868780     IErMin= 7 ErrMin= 2.73D-06
 ErrMax= 2.73D-06 EMaxC= 1.00D-01 BMatC= 1.07D-09 BMatP= 1.60D-08
 IDIUse=1 WtCom= 1.00D+00 WtEn= 0.00D+00
 Coeff-Com:  0.147D-04 0.228D-03 0.192D-02 0.340D-02-0.717D-01 0.958D-01
 Coeff-Com:  0.970D+00
 Coeff:      0.147D-04 0.228D-03 0.192D-02 0.340D-02-0.717D-01 0.958D-01
 Coeff:      0.970D+00
 Gap=     0.421 Goal=   None    Shift=    0.000
 RMSDP=3.19D-07 MaxDP=8.06D-06 DE=-4.28D-08 OVMax= 2.54D-05

 Cycle   8  Pass 1  IDiag  1:
 RMSU=  1.02D-07    CP:  1.00D+00  1.14D+00  1.14D+00  1.12D+00  1.31D+00
                    CP:  1.31D+00  1.26D+00
 FoFJK:  IHMeth= 1 ICntrl=     0 DoSepK=T KAlg= 1 I1Cent= 0 FoldK=F
 E= -151.318025871117     Delta-E=       -0.000000002337 Rises=F Damp=F
 DIIS: error= 6.19D-07 at cycle   8 NSaved=   8.
 NSaved= 8 IEnMin= 8 EnMin= -151.318025871117     IErMin= 8 ErrMin= 6.19D-07
 ErrMax= 6.19D-07 EMaxC= 1.00D-01 BMatC= 3.85D-11 BMatP= 1.07D-09
 IDIUse=1 WtCom= 1.00D+00 WtEn= 0.00D+00
 Coeff-Com: -0.887D-05-0.280D-04-0.186D-03-0.780D-04 0.127D-01-0.617D-01
 Coeff-Com: -0.106D+00 0.116D+01
 Coeff:     -0.887D-05-0.280D-04-0.186D-03-0.780D-04 0.127D-01-0.617D-01
 Coeff:     -0.106D+00 0.116D+01
 Gap=     0.421 Goal=   None    Shift=    0.000
 RMSDP=8.05D-08 MaxDP=1.98D-06 DE=-2.34D-09 OVMax= 7.11D-06

 Cycle   9  Pass 1  IDiag  1:
 RMSU=  2.21D-08    CP:  1.00D+00  1.14D+00  1.14D+00  1.12D+00  1.31D+00
                    CP:  1.32D+00  1.34D+00  1.30D+00
 FoFJK:  IHMeth= 1 ICntrl=     0 DoSepK=T KAlg= 1 I1Cent= 0 FoldK=F
 E= -151.318025871256     Delta-E=       -0.000000000139 Rises=F Damp=F
 DIIS: error= 1.52D-07 at cycle   9 NSaved=   9.
 NSaved= 9 IEnMin= 9 EnMin= -151.318025871256     IErMin= 9 ErrMin= 1.52D-07
 ErrMax= 1.52D-07 EMaxC= 1.00D-01 BMatC= 2.03D-12 BMatP= 3.85D-11
 IDIUse=1 WtCom= 1.00D+00 WtEn= 0.00D+00
 Coeff-Com:  0.193D-05 0.174D-05 0.193D-04 0.355D-04-0.302D-02 0.169D-01
 Coeff-Com:  0.365D-01-0.472D+00 0.142D+01
 Coeff:      0.193D-05 0.174D-05 0.193D-04 0.355D-04-0.302D-02 0.169D-01
 Coeff:      0.365D-01-0.472D+00 0.142D+01
 Gap=     0.421 Goal=   None    Shift=    0.000
 RMSDP=2.25D-08 MaxDP=5.20D-07 DE=-1.39D-10 OVMax= 2.41D-06

 Cycle  10  Pass 1  IDiag  1:
 RMSU=  4.60D-09    CP:  1.00D+00  1.14D+00  1.14D+00  1.12D+00  1.31D+00
                    CP:  1.32D+00  1.34D+00  1.36D+00  1.48D+00
 FoFJK:  IHMeth= 1 ICntrl=     0 DoSepK=T KAlg= 1 I1Cent= 0 FoldK=F
 E= -151.318025871266     Delta-E=       -0.000000000010 Rises=F Damp=F
 DIIS: error= 3.57D-08 at cycle  10 NSaved=  10.
 NSaved=10 IEnMin=10 EnMin= -151.318025871266     IErMin=10 ErrMin= 3.57D-08
 ErrMax= 3.57D-08 EMaxC= 1.00D-01 BMatC= 9.96D-14 BMatP= 2.03D-12
 IDIUse=1 WtCom= 1.00D+00 WtEn= 0.00D+00
 Coeff-Com: -0.516D-06 0.119D-05 0.933D-05-0.525D-05 0.323D-03-0.319D-02
 Coeff-Com: -0.256D-02 0.938D-01-0.494D+00 0.141D+01
 Coeff:     -0.516D-06 0.119D-05 0.933D-05-0.525D-05 0.323D-03-0.319D-02
 Coeff:     -0.256D-02 0.938D-01-0.494D+00 0.141D+01
 Gap=     0.421 Goal=   None    Shift=    0.000
 RMSDP=6.16D-09 MaxDP=2.34D-07 DE=-1.00D-11 OVMax= 6.63D-07

 SCF Done:  E(RLC-B+HF-LYP) =  -151.318025871     A.U. after   10 cycles
             Convg  =    0.6157D-08             -V/T =  2.0055
 KE= 1.504898845530D+02 PE=-4.314688461183D+02 EE= 9.299418329843D+01
 Leave Link  502 at Mon May 11 09:39:27 2020, MaxMem= 1073741824 cpu:     154.3
 (Enter /home/matheus/.gaussian/g09/l601.exe)
 Copying SCF densities to generalized density rwf, IOpCl= 0 IROHF=0.

 **********************************************************************

            Population analysis using the SCF density.

 **********************************************************************

 Orbital symmetries:
       Occupied  (A1) (B2) (A1) (B2) (A1) (A1) (B1) (B2) (A2)
       Virtual   (A1) (B2) (A1) (B1) (A1) (B2) (B2) (A1) (B1) (A1)
                 (B2) (A2) (B2) (A1) (B1) (A1) (B2) (A1) (A2) (B2)
                 (A1) (B1) (B2) (A1) (B2) (A1) (A2) (B1) (B2) (A1)
                 (A1) (B2) (A1) (B1) (B2) (A1) (B1) (A1) (A2) (A2)
                 (B1) (B2) (A1) (B2) (A1) (B1) (B2) (A1) (A2) (B2)
                 (B2) (A1) (B1) (A1) (A2) (B1) (B2) (A2) (A1) (B2)
                 (B2) (A1) (B1) (A2) (B1) (A1) (A1) (B2) (A1) (B2)
                 (A1) (B1) (A2) (B2) (A1) (B1) (A2) (A1) (B2) (B1)
                 (A1) (B2) (A1) (B1) (B2) (A1) (A2) (A1) (B2) (B1)
                 (A1) (A2) (A1) (B2) (B2) (A1) (B1) (B2) (B1) (A2)
                 (B2) (A2) (A1) (A1) (B2) (B2) (A2) (B2) (B1) (A1)
                 (B2) (A1) (A1) (B2) (B1) (A2) (A1) (B1) (B2) (B1)
                 (A2) (A1) (A1) (B1) (B1) (B2) (A1) (B2) (A2) (B1)
                 (A2) (A1) (B2) (A1) (A2) (A1) (A1) (B2) (B2) (A1)
                 (B1) (A1) (B2) (A2) (B2) (B2) (A1) (B1) (B2) (A1)
                 (B1) (A1) (A2) (B2) (B1) (A1) (A2) (A1) (B1) (B2)
                 (B1) (A2) (A2) (B2) (A1) (A2) (A1) (B2) (B2) (A1)
                 (B2) (B2) (A1) (A1) (B2) (B1) (B2) (A1) (A2) (A1)
                 (B1) (A1) (B2) (A1) (B1) (B2) (A1) (A1)
 The electronic state is 1-A1.
 Alpha  occ. eigenvalues --  -19.07700 -19.07699  -1.29052  -1.06634  -0.73358
 Alpha  occ. eigenvalues --   -0.57930  -0.56504  -0.53169  -0.41015
 Alpha virt. eigenvalues --    0.01074   0.03229   0.06939   0.07215   0.08370
 Alpha virt. eigenvalues --    0.09803   0.10115   0.15940   0.16621   0.16976
 Alpha virt. eigenvalues --    0.18095   0.18525   0.19351   0.20871   0.24962
 Alpha virt. eigenvalues --    0.25749   0.27196   0.27680   0.30358   0.33914
 Alpha virt. eigenvalues --    0.34576   0.35733   0.36896   0.40562   0.43751
 Alpha virt. eigenvalues --    0.44176   0.44373   0.46970   0.47827   0.52725
 Alpha virt. eigenvalues --    0.53834   0.57493   0.58381   0.63893   0.64366
 Alpha virt. eigenvalues --    0.68267   0.69855   0.76254   0.76438   0.79254
 Alpha virt. eigenvalues --    0.81426   0.82981   0.84357   0.87297   0.88357
 Alpha virt. eigenvalues --    0.93160   0.96253   0.96378   0.97823   0.98993
 Alpha virt. eigenvalues --    1.00545   1.03140   1.04824   1.09095   1.10255
 Alpha virt. eigenvalues --    1.10568   1.18240   1.22662   1.22687   1.24622
 Alpha virt. eigenvalues --    1.27929   1.28835   1.29945   1.31703   1.32692
 Alpha virt. eigenvalues --    1.33541   1.36053   1.38213   1.43019   1.48633
 Alpha virt. eigenvalues --    1.49322   1.49642   1.51850   1.54558   1.61773
 Alpha virt. eigenvalues --    1.62932   1.64338   1.71251   1.71384   1.80245
 Alpha virt. eigenvalues --    1.81300   1.85771   1.97373   2.00461   2.01189
 Alpha virt. eigenvalues --    2.03910   2.14824   2.23559   2.24273   2.28640
 Alpha virt. eigenvalues --    2.28921   2.32294   2.35759   2.36093   2.45190
 Alpha virt. eigenvalues --    2.46991   2.53642   2.54976   2.63119   2.72044
 Alpha virt. eigenvalues --    2.72986   2.76551   2.83847   2.87621   2.94426
 Alpha virt. eigenvalues --    3.09864   3.13049   3.18760   3.22753   3.35270
 Alpha virt. eigenvalues --    3.35811   3.55716   3.64156   3.73776   3.76990
 Alpha virt. eigenvalues --    3.77093   3.78169   3.80471   3.82555   3.84130
 Alpha virt. eigenvalues --    3.88627   3.89671   3.94052   3.95622   3.97899
 Alpha virt. eigenvalues --    3.99052   4.06020   4.09494   4.10397   4.12526
 Alpha virt. eigenvalues --    4.14859   4.16231   4.27271   4.28870   4.29420
 Alpha virt. eigenvalues --    4.43592   4.61364   4.62802   4.72059   4.97218
 Alpha virt. eigenvalues --    5.01678   5.03690   5.10059   5.16888   5.19869
 Alpha virt. eigenvalues --    5.55942   5.81506   5.99700   6.08123   6.14004
 Alpha virt. eigenvalues --    6.33077   6.40891   6.50291   6.59947   6.69924
 Alpha virt. eigenvalues --    6.73203   6.76650   6.77506   6.81718   6.87513
 Alpha virt. eigenvalues --    6.87514   6.89336   6.94207   7.13744   7.16623
 Alpha virt. eigenvalues --    7.22706   7.25624   7.29317   7.63373   7.95325
 Alpha virt. eigenvalues --    8.06284   8.21395  11.08575  13.75764  14.68693
 Alpha virt. eigenvalues --   14.79966  14.95979  15.09029  29.01157  29.01886
 Alpha virt. eigenvalues --   29.05322  29.19672  29.24445  49.23422 148.28162
 Alpha virt. eigenvalues --  148.52167 148.72088 753.00375
          Condensed to atoms (all electrons):
              1          2          3          4          5
     1  O    8.214744  -0.242078   0.167210   0.053585   0.001940
     2  O   -0.242078   8.214744   0.053585   0.167210   0.001940
     3  H    0.167210   0.053585   0.617920  -0.030479  -0.003347
     4  H    0.053585   0.167210  -0.030479   0.617920  -0.003347
     5  Kr   0.001940   0.001940  -0.003347  -0.003347   0.002233
 Mulliken atomic charges:
              1
     1  O   -0.195401
     2  O   -0.195401
     3  H    0.195111
     4  H    0.195111
     5  Kr   0.000581
 Sum of Mulliken atomic charges =   0.00000
 Mulliken charges with hydrogens summed into heavy atoms:
              1
     1  O   -0.000291
     2  O   -0.000291
     5  Kr   0.000581
 Sum of Mulliken charges with hydrogens summed into heavy atoms =   0.00000
          Condensed to fragments (all electrons):
     1      -0.000581
     2       0.000581
 Electronic spatial extent (au):  <R**2>=            317.1121
 Charge=              0.0000 electrons
 Dipole moment (field-independent basis, Debye):
    X=              0.0000    Y=              0.0000    Z=              3.2346  Tot=              3.2346
 Quadrupole moment (field-independent basis, Debye-Ang):
   XX=            -13.3105   YY=            -10.8002   ZZ=            -22.0541
   XY=              0.0000   XZ=              0.0000   YZ=              0.0000
 Traceless Quadrupole moment (field-independent basis, Debye-Ang):
   XX=              2.0778   YY=              4.5881   ZZ=             -6.6659
   XY=              0.0000   XZ=              0.0000   YZ=              0.0000
 Octapole moment (field-independent basis, Debye-Ang**2):
  XXX=              0.0000  YYY=              0.0000  ZZZ=             94.9971  XYY=              0.0000
  XXY=              0.0000  XXZ=             26.0637  XZZ=              0.0000  YZZ=              0.0000
  YYZ=             25.2641  XYZ=              0.0000
 Hexadecapole moment (field-independent basis, Debye-Ang**3):
 XXXX=            -11.9297 YYYY=            -46.6030 ZZZZ=           -345.2475 XXXY=              0.0000
 XXXZ=              0.0000 YYYX=              0.0000 YYYZ=              0.0000 ZZZX=              0.0000
 ZZZY=              0.0000 XXYY=            -11.7898 XXZZ=            -55.3933 YYZZ=            -65.6345
 XXYZ=              0.0000 YYXZ=              0.0000 ZZXY=              0.0000
 N-N= 3.666675239568D+01 E-N=-4.314688454984D+02  KE= 1.504898845530D+02
 Symmetry A1   KE= 7.189184642575D+01
 Symmetry A2   KE= 5.442565244244D+00
 Symmetry B1   KE= 4.347677594017D+00
 Symmetry B2   KE= 6.880779528894D+01
 No NMR shielding tensors so no spin-rotation constants.
 Leave Link  601 at Mon May 11 09:39:27 2020, MaxMem= 1073741824 cpu:       0.9
 (Enter /home/matheus/.gaussian/g09/l122.exe)
 Counterpoise: doing DCBS calculation for fragment   2 NewBq=T
 Leave Link  122 at Mon May 11 09:39:27 2020, MaxMem= 1073741824 cpu:       0.0
 (Enter /home/matheus/.gaussian/g09/l301.exe)
 Basis read from rwf:  (5D, 7F)
 No pseudopotential information found on rwf file.
 There are    71 symmetry adapted basis functions of A1  symmetry.
 There are    29 symmetry adapted basis functions of A2  symmetry.
 There are    37 symmetry adapted basis functions of B1  symmetry.
 There are    60 symmetry adapted basis functions of B2  symmetry.
 Integral buffers will be    131072 words long.
 Raffenetti 2 integral format.
 Two-electron integral symmetry is turned on.
   197 basis functions,   415 primitive gaussians,   229 cartesian basis functions
    18 alpha electrons       18 beta electrons
       nuclear repulsion energy         0.0000000000 Hartrees.
 IExCor=10402 DFT=T Ex=LC-B+HF Corr=LYP ExCW=0 ScaHFX=  1.000000
 ScaDFX=  1.000000  1.000000  1.000000  1.000000 ScalE2=  1.000000  1.000000
 IRadAn=      5 IRanWt=     -1 IRanGd=            0 ICorTp=0
  HFx wShort=  0.000000 wLong=  0.470000 cFull=  0.000000 cShort=  0.000000 cLong=  1.000000
  DFx wShort=  0.000000 wLong=  0.470000 cFull=  0.000000 cShort=  0.000000 cLong=  1.000000
 NAtoms=    5 NActive=    5 NUniq=    3 SFac= 2.78D+00 NAtFMM=   60 NAOKFM=F Big=F
 No density basis found on file   718.
 Leave Link  301 at Mon May 11 09:39:27 2020, MaxMem= 1073741824 cpu:       0.2
 (Enter /home/matheus/.gaussian/g09/l302.exe)
 NPDir=0 NMtPBC=     1 NCelOv=     1 NCel=       1 NClECP=     1 NCelD=      1
         NCelK=      1 NCelE2=     1 NClLst=     1 CellRange=     0.0.
 One-electron integrals computed using PRISM.
 One-electron integral symmetry used in STVInt
 NBasis=   197 RedAO= T  NBF=    71    29    37    60
 NBsUse=   197 1.00D-06 NBFU=    71    29    37    60
 Precomputing XC quadrature grid using
 IXCGrd= 2 IRadAn=           5 IRanWt=          -1 IRanGd=           0 AccXCQ= 0.00D+00.
 NRdTot=     427 NPtTot=      123512 NUsed=      126579 NTot=      126611
 NSgBfM=   229   229   229   229   229 NAtAll=     5     5.
 Leave Link  302 at Mon May 11 09:39:27 2020, MaxMem= 1073741824 cpu:       0.9
 (Enter /home/matheus/.gaussian/g09/l303.exe)
 DipDrv:  MaxL=1.
 Leave Link  303 at Mon May 11 09:39:27 2020, MaxMem= 1073741824 cpu:       0.2
 (Enter /home/matheus/.gaussian/g09/l401.exe)
 Harris functional with IExCor=10402 diagonalized for initial guess.
 ExpMin= 2.53D-02 ExpMax= 1.17D+07 ExpMxC= 1.33D+04 IAcc=3 IRadAn=         5 AccDes= 0.00D+00
 HarFok:  IExCor=10402 AccDes= 0.00D+00 IRadAn=         5 IDoV= 1
 ScaDFX=  1.000000  1.000000  1.000000  1.000000
 FoFCou: FMM=F IPFlag=           0 FMFlag=      100000 FMFlg1=           0
         NFxFlg=           0 DoJE=T BraDBF=F KetDBF=T FulRan=T
         Omega=  0.000000  0.000000  1.000000  0.000000  0.000000 ICntrl=     500 IOpCl=  0
         NMat0=    1 NMatS0=    1 NMatT0=    0 NMatD0=    1 NMtDS0=    0 NMtDT0=    0
         I1Cent=           4 NGrid=           0.
 Petite list used in FoFCou.
 Harris En= -2744.51555886613    
 Initial guess orbital symmetries:
       Occupied  (A1) (A1) (A1) (B2) (B1) (A1) (A1) (B2) (B1) (B2)
                 (A1) (B1) (A1) (A2) (A1) (A1) (B2) (B1)
       Virtual   (A1) (B2) (A1) (B1) (B2) (A1) (A1) (B1) (B2) (A1)
                 (B2) (A2) (A1) (B1) (A1) (A2) (B2) (A1) (B2) (A1)
                 (B1) (A1) (B2) (A2) (A1) (B2) (B2) (B1) (A1) (A1)
                 (B2) (B1) (A2) (A1) (B2) (B1) (A1) (B2) (A1) (A2)
                 (B1) (A1) (A1) (B1) (A1) (B2) (A2) (B2) (B1) (A1)
                 (B2) (B2) (A1) (A2) (B1) (B2) (A2) (A1) (B1) (B2)
                 (A1) (A2) (A1) (B2) (A1) (B2) (B1) (A2) (B2) (A1)
                 (A1) (B2) (B2) (B1) (A1) (A2) (A1) (B2) (B2) (B1)
                 (B1) (A1) (B2) (A1) (B1) (A2) (A1) (A1) (B1) (A1)
                 (A2) (B2) (B1) (A1) (B2) (B1) (A2) (A1) (A2) (B2)
                 (A1) (B1) (B2) (B1) (A2) (A1) (B2) (B2) (A1) (B1)
                 (A1) (B2) (A2) (A1) (B2) (B1) (A2) (B2) (A1) (B2)
                 (B2) (A1) (A2) (B2) (A1) (B1) (A1) (B2) (A2) (A1)
                 (B2) (B1) (A1) (A2) (B2) (A1) (B2) (B1) (A1) (A2)
                 (A1) (B2) (B2) (A1) (B2) (B1) (A1) (B1) (A1) (A2)
                 (B2) (A1) (B1) (A2) (A2) (B2) (A1) (B2) (B2) (A1)
                 (B1) (B2) (B1) (A2) (A1) (A2) (B2) (B2) (A1) (B1)
                 (A2) (A1) (A1) (B2) (B2) (A1) (B2) (A1) (B2)
 The electronic state of the initial guess is 1-A1.
 Leave Link  401 at Mon May 11 09:39:27 2020, MaxMem= 1073741824 cpu:       1.9
 (Enter /home/matheus/.gaussian/g09/l502.exe)
 Closed shell SCF:
 Requested convergence on RMS density matrix=1.00D-08 within 128 cycles.
 Requested convergence on MAX density matrix=1.00D-06.
 Requested convergence on             energy=1.00D-06.
 No special actions if energy rises.
 Using DIIS extrapolation, IDIIS=  1040.
 Integral symmetry usage will be decided dynamically.
       126521 words used for storage of precomputed grid.
 IEnd=      305860 IEndB=      305860 NGot=  1073741824 MDV=  1073505275
 LenX=  1073505275 LenY=  1073452393
 Fock matrices will be formed incrementally for  20 cycles.

 Cycle   1  Pass 1  IDiag  1:
 FoFJK:  IHMeth= 1 ICntrl=     0 DoSepK=T KAlg= 1 I1Cent= 0 FoldK=F
 FoFCou: FMM=F IPFlag=           0 FMFlag=      100000 FMFlg1=           0
         NFxFlg=           0 DoJE=T BraDBF=F KetDBF=F FulRan=T
         Omega=  0.000000  0.000000  1.000000  0.000000  0.000000 ICntrl=     500 IOpCl=  0
         NMat0=    1 NMatS0=    1 NMatT0=    0 NMatD0=    1 NMtDS0=    0 NMtDT0=    0
         I1Cent=           0 NGrid=           0.
 Petite list used in FoFCou.
 E= -2753.33334472042    
 DIIS: error= 3.18D-02 at cycle   1 NSaved=   1.
 NSaved= 1 IEnMin= 1 EnMin= -2753.33334472042     IErMin= 1 ErrMin= 3.18D-02
 ErrMax= 3.18D-02 EMaxC= 1.00D-01 BMatC= 2.64D-01 BMatP= 2.64D-01
 IDIUse=3 WtCom= 6.82D-01 WtEn= 3.18D-01
 Coeff-Com:  0.100D+01
 Coeff-En:   0.100D+01
 Coeff:      0.100D+01
 Gap=     0.618 Goal=   None    Shift=    0.000
 GapD=    0.618 DampG=2.000 DampE=0.500 DampFc=1.0000 IDamp=-1.
 RMSDP=2.58D-03 MaxDP=1.57D-01              OVMax= 1.05D-01

 Cycle   2  Pass 1  IDiag  1:
 RMSU=  1.77D-03    CP:  1.03D+00
 FoFJK:  IHMeth= 1 ICntrl=     0 DoSepK=T KAlg= 1 I1Cent= 0 FoldK=F
 E= -2753.38936611708     Delta-E=       -0.056021396662 Rises=F Damp=F
 DIIS: error= 2.06D-02 at cycle   2 NSaved=   2.
 NSaved= 2 IEnMin= 2 EnMin= -2753.38936611708     IErMin= 2 ErrMin= 2.06D-02
 ErrMax= 2.06D-02 EMaxC= 1.00D-01 BMatC= 8.91D-02 BMatP= 2.64D-01
 IDIUse=3 WtCom= 7.94D-01 WtEn= 2.06D-01
 Coeff-Com:  0.365D+00 0.635D+00
 Coeff-En:   0.131D+00 0.869D+00
 Coeff:      0.317D+00 0.683D+00
 Gap=     0.537 Goal=   None    Shift=    0.000
 RMSDP=1.05D-03 MaxDP=6.38D-02 DE=-5.60D-02 OVMax= 3.20D-02

 Cycle   3  Pass 1  IDiag  1:
 RMSU=  1.78D-04    CP:  1.02D+00  6.06D-01
 FoFJK:  IHMeth= 1 ICntrl=     0 DoSepK=T KAlg= 1 I1Cent= 0 FoldK=F
 E= -2753.41744429270     Delta-E=       -0.028078175623 Rises=F Damp=F
 DIIS: error= 2.20D-03 at cycle   3 NSaved=   3.
 NSaved= 3 IEnMin= 3 EnMin= -2753.41744429270     IErMin= 3 ErrMin= 2.20D-03
 ErrMax= 2.20D-03 EMaxC= 1.00D-01 BMatC= 9.51D-04 BMatP= 8.91D-02
 IDIUse=3 WtCom= 9.78D-01 WtEn= 2.20D-02
 Coeff-Com: -0.623D-02 0.826D-01 0.924D+00
 Coeff-En:   0.000D+00 0.000D+00 0.100D+01
 Coeff:     -0.609D-02 0.808D-01 0.925D+00
 Gap=     0.538 Goal=   None    Shift=    0.000
 RMSDP=1.16D-04 MaxDP=6.50D-03 DE=-2.81D-02 OVMax= 3.72D-03

 Cycle   4  Pass 1  IDiag  1:
 RMSU=  3.91D-05    CP:  1.02D+00  6.45D-01  1.11D+00
 FoFJK:  IHMeth= 1 ICntrl=     0 DoSepK=T KAlg= 1 I1Cent= 0 FoldK=F
 E= -2753.41772297379     Delta-E=       -0.000278681086 Rises=F Damp=F
 DIIS: error= 9.72D-05 at cycle   4 NSaved=   4.
 NSaved= 4 IEnMin= 4 EnMin= -2753.41772297379     IErMin= 4 ErrMin= 9.72D-05
 ErrMax= 9.72D-05 EMaxC= 1.00D-01 BMatC= 1.67D-06 BMatP= 9.51D-04
 IDIUse=1 WtCom= 1.00D+00 WtEn= 0.00D+00
 Coeff-Com: -0.142D-02-0.395D-03-0.296D-02 0.100D+01
 Coeff:     -0.142D-02-0.395D-03-0.296D-02 0.100D+01
 Gap=     0.539 Goal=   None    Shift=    0.000
 RMSDP=1.34D-05 MaxDP=5.49D-04 DE=-2.79D-04 OVMax= 9.09D-04

 Cycle   5  Pass 1  IDiag  1:
 RMSU=  5.99D-06    CP:  1.02D+00  6.46D-01  1.14D+00  1.04D+00
 FoFJK:  IHMeth= 1 ICntrl=     0 DoSepK=T KAlg= 1 I1Cent= 0 FoldK=F
 E= -2753.41772677711     Delta-E=       -0.000003803324 Rises=F Damp=F
 DIIS: error= 2.86D-05 at cycle   5 NSaved=   5.
 NSaved= 5 IEnMin= 5 EnMin= -2753.41772677711     IErMin= 5 ErrMin= 2.86D-05
 ErrMax= 2.86D-05 EMaxC= 1.00D-01 BMatC= 1.63D-07 BMatP= 1.67D-06
 IDIUse=1 WtCom= 1.00D+00 WtEn= 0.00D+00
 Coeff-Com: -0.570D-04-0.463D-02-0.326D-01-0.738D-01 0.111D+01
 Coeff:     -0.570D-04-0.463D-02-0.326D-01-0.738D-01 0.111D+01
 Gap=     0.539 Goal=   None    Shift=    0.000
 RMSDP=4.55D-06 MaxDP=1.81D-04 DE=-3.80D-06 OVMax= 2.00D-04

 Cycle   6  Pass 1  IDiag  1:
 RMSU=  3.58D-07    CP:  1.02D+00  6.46D-01  1.16D+00  1.09D+00  1.15D+00
 FoFJK:  IHMeth= 1 ICntrl=     0 DoSepK=T KAlg= 1 I1Cent= 0 FoldK=F
 E= -2753.41772699058     Delta-E=       -0.000000213468 Rises=F Damp=F
 DIIS: error= 9.54D-07 at cycle   6 NSaved=   6.
 NSaved= 6 IEnMin= 6 EnMin= -2753.41772699058     IErMin= 6 ErrMin= 9.54D-07
 ErrMax= 9.54D-07 EMaxC= 1.00D-01 BMatC= 1.20D-10 BMatP= 1.63D-07
 IDIUse=1 WtCom= 1.00D+00 WtEn= 0.00D+00
 Coeff-Com:  0.674D-05 0.314D-03 0.240D-02-0.184D-02-0.578D-01 0.106D+01
 Coeff:      0.674D-05 0.314D-03 0.240D-02-0.184D-02-0.578D-01 0.106D+01
 Gap=     0.539 Goal=   None    Shift=    0.000
 RMSDP=1.52D-07 MaxDP=5.19D-06 DE=-2.13D-07 OVMax= 6.55D-06

 Cycle   7  Pass 1  IDiag  1:
 RMSU=  2.91D-08    CP:  1.02D+00  6.46D-01  1.16D+00  1.09D+00  1.16D+00
                    CP:  1.16D+00
 FoFJK:  IHMeth= 1 ICntrl=     0 DoSepK=T KAlg= 1 I1Cent= 0 FoldK=F
 E= -2753.41772699068     Delta-E=       -0.000000000099 Rises=F Damp=F
 DIIS: error= 1.66D-07 at cycle   7 NSaved=   7.
 NSaved= 7 IEnMin= 7 EnMin= -2753.41772699068     IErMin= 7 ErrMin= 1.66D-07
 ErrMax= 1.66D-07 EMaxC= 1.00D-01 BMatC= 4.44D-12 BMatP= 1.20D-10
 IDIUse=1 WtCom= 1.00D+00 WtEn= 0.00D+00
 Coeff-Com:  0.134D-05 0.877D-04 0.631D-03 0.820D-03-0.197D-01 0.113D+00
 Coeff-Com:  0.905D+00
 Coeff:      0.134D-05 0.877D-04 0.631D-03 0.820D-03-0.197D-01 0.113D+00
 Coeff:      0.905D+00
 Gap=     0.539 Goal=   None    Shift=    0.000
 RMSDP=1.60D-08 MaxDP=5.70D-07 DE=-9.91D-11 OVMax= 9.76D-07

 Cycle   8  Pass 1  IDiag  1:
 RMSU=  6.24D-09    CP:  1.02D+00  6.46D-01  1.16D+00  1.09D+00  1.16D+00
                    CP:  1.18D+00  1.05D+00
 FoFJK:  IHMeth= 1 ICntrl=     0 DoSepK=T KAlg= 1 I1Cent= 0 FoldK=F
 E= -2753.41772699068     Delta-E=       -0.000000000001 Rises=F Damp=F
 DIIS: error= 4.38D-08 at cycle   8 NSaved=   8.
 NSaved= 8 IEnMin= 8 EnMin= -2753.41772699068     IErMin= 8 ErrMin= 4.38D-08
 ErrMax= 4.38D-08 EMaxC= 1.00D-01 BMatC= 2.53D-13 BMatP= 4.44D-12
 IDIUse=1 WtCom= 1.00D+00 WtEn= 0.00D+00
 Coeff-Com: -0.341D-06-0.130D-04-0.104D-03 0.244D-03 0.177D-02-0.569D-01
 Coeff-Com:  0.917D-01 0.963D+00
 Coeff:     -0.341D-06-0.130D-04-0.104D-03 0.244D-03 0.177D-02-0.569D-01
 Coeff:      0.917D-01 0.963D+00
 Gap=     0.539 Goal=   None    Shift=    0.000
 RMSDP=4.31D-09 MaxDP=1.68D-07 DE=-9.09D-13 OVMax= 2.28D-07

 SCF Done:  E(RLC-B+HF-LYP) =  -2753.41772699     A.U. after    8 cycles
             Convg  =    0.4305D-08             -V/T =  2.0015
 KE= 2.749298169240D+03 PE=-6.578507022600D+03 EE= 1.075791126369D+03
 Leave Link  502 at Mon May 11 09:39:44 2020, MaxMem= 1073741824 cpu:     132.8
 (Enter /home/matheus/.gaussian/g09/l601.exe)
 Copying SCF densities to generalized density rwf, IOpCl= 0 IROHF=0.

 **********************************************************************

            Population analysis using the SCF density.

 **********************************************************************

 Orbital symmetries:
       Occupied  (A1) (A1) (A1) (B2) (B1) (A1) (A1) (B2) (B1) (A1)
                 (B2) (B1) (A1) (A2) (A1) (A1) (B2) (B1)
       Virtual   (A1) (B2) (A1) (B1) (B2) (A1) (A1) (B1) (B2) (A1)
                 (B2) (A2) (A1) (B1) (A1) (A2) (B2) (A1) (B2) (A1)
                 (B1) (A1) (B2) (A2) (A1) (B2) (B2) (B1) (A1) (A1)
                 (B2) (B1) (A2) (A1) (B2) (B1) (A1) (B2) (A1) (A2)
                 (B1) (A1) (A1) (B1) (A1) (B2) (B2) (A2) (B1) (B2)
                 (A1) (B2) (A1) (A2) (B2) (B1) (A2) (A1) (B1) (A1)
                 (B2) (A2) (A1) (B2) (B2) (A1) (B1) (A2) (B2) (A1)
                 (A1) (B2) (B2) (B1) (A1) (A2) (A1) (B2) (B2) (B1)
                 (B1) (A1) (A1) (B2) (B1) (A2) (A1) (A1) (B1) (A1)
                 (A2) (B2) (B1) (A1) (B2) (A2) (B1) (A2) (B2) (A1)
                 (B1) (B2) (A1) (B1) (A1) (A2) (B2) (B2) (A1) (B1)
                 (A1) (B2) (A2) (A1) (B2) (B1) (A2) (B2) (A1) (B2)
                 (B2) (A1) (A2) (B2) (A1) (B1) (A1) (B2) (A2) (A1)
                 (B2) (B1) (A1) (A2) (B2) (A1) (B2) (B1) (A1) (A2)
                 (A1) (B2) (B2) (A1) (B2) (B1) (A1) (B1) (A1) (A2)
                 (B2) (A1) (B1) (A2) (A2) (B2) (A1) (B2) (B2) (A1)
                 (B1) (B2) (B1) (A2) (A1) (A2) (B2) (B2) (A1) (B1)
                 (A2) (A1) (A1) (B2) (B2) (A1) (B2) (A1) (B2)
 The electronic state is 1-A1.
 Alpha  occ. eigenvalues -- -511.24396 -66.71366 -60.39891 -60.39888 -60.39886
 Alpha  occ. eigenvalues --   -9.60493  -7.35947  -7.35945  -7.35945  -3.32283
 Alpha  occ. eigenvalues --   -3.32283  -3.32283  -3.32282  -3.32282  -1.06078
 Alpha  occ. eigenvalues --   -0.51291  -0.51288  -0.51285
 Alpha virt. eigenvalues --    0.02613   0.04712   0.07755   0.09099   0.11406
 Alpha virt. eigenvalues --    0.12447   0.13165   0.14065   0.15155   0.16941
 Alpha virt. eigenvalues --    0.17311   0.17414   0.20467   0.25637   0.26167
 Alpha virt. eigenvalues --    0.26485   0.29333   0.31133   0.32943   0.36985
 Alpha virt. eigenvalues --    0.37985   0.38965   0.39480   0.40193   0.41123
 Alpha virt. eigenvalues --    0.42128   0.45435   0.53879   0.55279   0.58516
 Alpha virt. eigenvalues --    0.61952   0.62199   0.69589   0.70195   0.71116
 Alpha virt. eigenvalues --    0.72877   0.74158   0.76179   0.76411   0.77999
 Alpha virt. eigenvalues --    0.78040   0.83241   0.84735   0.87366   0.87884
 Alpha virt. eigenvalues --    0.88574   0.89158   0.89945   0.97145   0.97871
 Alpha virt. eigenvalues --    0.98629   0.99309   1.00472   1.00632   1.04740
 Alpha virt. eigenvalues --    1.05038   1.09481   1.11581   1.15334   1.16277
 Alpha virt. eigenvalues --    1.16573   1.24776   1.30037   1.32932   1.40358
 Alpha virt. eigenvalues --    1.41112   1.45473   1.45511   1.49568   1.52119
 Alpha virt. eigenvalues --    1.56491   1.61729   1.67842   1.68817   1.73827
 Alpha virt. eigenvalues --    1.78223   1.84138   1.87782   1.95066   2.16250
 Alpha virt. eigenvalues --    2.22002   2.22923   2.28534   2.28979   2.32884
 Alpha virt. eigenvalues --    2.35114   2.35822   2.36963   2.39594   2.40229
 Alpha virt. eigenvalues --    2.46607   2.50236   2.51496   2.52486   2.53512
 Alpha virt. eigenvalues --    2.54407   2.54760   2.62412   2.62705   2.62831
 Alpha virt. eigenvalues --    2.63905   2.65142   2.65683   2.70947   2.75286
 Alpha virt. eigenvalues --    2.75306   2.77543   2.85685   2.89642   2.89718
 Alpha virt. eigenvalues --    2.96565   2.99022   3.11224   3.12247   3.15749
 Alpha virt. eigenvalues --    3.26018   3.27291   3.28848   3.38925   3.55449
 Alpha virt. eigenvalues --    3.62636   3.65509   3.87682   3.87802   4.01866
 Alpha virt. eigenvalues --    4.41987   4.42560   4.50947   4.60199   4.67799
 Alpha virt. eigenvalues --    4.72210   4.79817   4.86246   4.94218   5.04199
 Alpha virt. eigenvalues --    5.11394   5.31085   5.49735   5.65443   5.70713
 Alpha virt. eigenvalues --    5.89962   6.03082   6.29178   6.69243   6.95427
 Alpha virt. eigenvalues --    7.25281   7.37828   7.63377   7.66533   7.79526
 Alpha virt. eigenvalues --    7.87445   8.02990   8.11148   8.12467   8.28517
 Alpha virt. eigenvalues --    8.31767   8.36384   8.71328   9.02096   9.50421
 Alpha virt. eigenvalues --    9.74951   9.76281   9.87376   9.90249   9.94126
 Alpha virt. eigenvalues --   10.20668  10.22318  10.74263  10.86477  11.42650
 Alpha virt. eigenvalues --   11.63031  11.66491  11.91906  12.06884  13.30125
 Alpha virt. eigenvalues --   13.59219  14.55761  62.39566  64.84587
          Condensed to atoms (all electrons):
              1          2          3          4          5
     1  O    0.002670  -0.000501  -0.002286   0.000610  -0.006221
     2  O   -0.000501   0.002670   0.000610  -0.002286  -0.006221
     3  H   -0.002286   0.000610   0.002691  -0.000389  -0.011841
     4  H    0.000610  -0.002286  -0.000389   0.002691  -0.011841
     5  Kr  -0.006221  -0.006221  -0.011841  -0.011841  36.070010
 Mulliken atomic charges:
              1
     1  O    0.005728
     2  O    0.005728
     3  H    0.011215
     4  H    0.011215
     5  Kr  -0.033885
 Sum of Mulliken atomic charges =   0.00000
 Mulliken charges with hydrogens summed into heavy atoms:
              1
     1  O    0.016943
     2  O    0.016943
     5  Kr  -0.033885
 Sum of Mulliken charges with hydrogens summed into heavy atoms =   0.00000
          Condensed to fragments (all electrons):
     1       0.033885
     2      -0.033885
 Electronic spatial extent (au):  <R**2>=            159.5600
 Charge=              0.0000 electrons
 Dipole moment (field-independent basis, Debye):
    X=              0.0000    Y=              0.0000    Z=             -0.0024  Tot=              0.0024
 Quadrupole moment (field-independent basis, Debye-Ang):
   XX=            -17.7645   YY=            -17.7539   ZZ=            -17.7471
   XY=              0.0000   XZ=              0.0000   YZ=              0.0000
 Traceless Quadrupole moment (field-independent basis, Debye-Ang):
   XX=             -0.0093   YY=              0.0013   ZZ=              0.0081
   XY=              0.0000   XZ=              0.0000   YZ=              0.0000
 Octapole moment (field-independent basis, Debye-Ang**2):
  XXX=              0.0000  YYY=              0.0000  ZZZ=            -51.4263  XYY=              0.0000
  XXY=              0.0000  XXZ=            -17.1621  XZZ=              0.0000  YZZ=              0.0000
  YYZ=            -17.1553  XYZ=              0.0000
 Hexadecapole moment (field-independent basis, Debye-Ang**3):
 XXXX=            -18.9599 YYYY=            -18.9302 ZZZZ=           -118.2553 XXXY=              0.0000
 XXXZ=              0.0000 YYYX=              0.0000 YYYZ=              0.0000 ZZZX=              0.0000
 ZZZY=              0.0000 XXYY=             -6.3114 XXZZ=            -22.8846 YYZZ=            -22.8750
 XXYZ=              0.0000 YYXZ=              0.0000 ZZXY=              0.0000
 N-N= 0.000000000000D+00 E-N=-6.578507020284D+03  KE= 2.749298169240D+03
 Symmetry A1   KE= 1.985224192801D+03
 Symmetry A2   KE= 4.744376570193D+01
 Symmetry B1   KE= 3.583184984575D+02
 Symmetry B2   KE= 3.583117122794D+02
 No NMR shielding tensors so no spin-rotation constants.
 Leave Link  601 at Mon May 11 09:39:44 2020, MaxMem= 1073741824 cpu:       1.0
 (Enter /home/matheus/.gaussian/g09/l122.exe)
 Counterpoise: doing MCBS calculation for fragment   1
 Leave Link  122 at Mon May 11 09:39:44 2020, MaxMem= 1073741824 cpu:       0.0
 (Enter /home/matheus/.gaussian/g09/l301.exe)
 Basis read from rwf:  (5D, 7F)
 No pseudopotential information found on rwf file.
 There are    46 symmetry adapted basis functions of A1  symmetry.
 There are    23 symmetry adapted basis functions of A2  symmetry.
 There are    23 symmetry adapted basis functions of B1  symmetry.
 There are    46 symmetry adapted basis functions of B2  symmetry.
 Integral buffers will be    131072 words long.
 Raffenetti 2 integral format.
 Two-electron integral symmetry is turned on.
   138 basis functions,   198 primitive gaussians,   160 cartesian basis functions
     9 alpha electrons        9 beta electrons
       nuclear repulsion energy        36.6667523957 Hartrees.
 IExCor=10402 DFT=T Ex=LC-B+HF Corr=LYP ExCW=0 ScaHFX=  1.000000
 ScaDFX=  1.000000  1.000000  1.000000  1.000000 ScalE2=  1.000000  1.000000
 IRadAn=      5 IRanWt=     -1 IRanGd=            0 ICorTp=0
  HFx wShort=  0.000000 wLong=  0.470000 cFull=  0.000000 cShort=  0.000000 cLong=  1.000000
  DFx wShort=  0.000000 wLong=  0.470000 cFull=  0.000000 cShort=  0.000000 cLong=  1.000000
 NAtoms=    5 NActive=    4 NUniq=    2 SFac= 4.00D+00 NAtFMM=   60 NAOKFM=F Big=F
 No density basis found on file   718.
 Leave Link  301 at Mon May 11 09:39:44 2020, MaxMem= 1073741824 cpu:       0.3
 (Enter /home/matheus/.gaussian/g09/l302.exe)
 NPDir=0 NMtPBC=     1 NCelOv=     1 NCel=       1 NClECP=     1 NCelD=      1
         NCelK=      1 NCelE2=     1 NClLst=     1 CellRange=     0.0.
 One-electron integrals computed using PRISM.
 One-electron integral symmetry used in STVInt
 NBasis=   138 RedAO= T  NBF=    46    23    23    46
 NBsUse=   138 1.00D-06 NBFU=    46    23    23    46
 Precomputing XC quadrature grid using
 IXCGrd= 2 IRadAn=           5 IRanWt=          -1 IRanGd=           0 AccXCQ= 0.00D+00.
 NRdTot=     344 NPtTot=       92556 NUsed=       95038 NTot=       95070
 NSgBfM=   160   160   160   160   160 NAtAll=     4     4.
 Leave Link  302 at Mon May 11 09:39:44 2020, MaxMem= 1073741824 cpu:       0.9
 (Enter /home/matheus/.gaussian/g09/l303.exe)
 DipDrv:  MaxL=1.
 Leave Link  303 at Mon May 11 09:39:44 2020, MaxMem= 1073741824 cpu:       0.2
 (Enter /home/matheus/.gaussian/g09/l401.exe)
 Harris functional with IExCor=10402 diagonalized for initial guess.
 ExpMin= 2.53D-02 ExpMax= 1.53D+04 ExpMxC= 5.22D+02 IAcc=3 IRadAn=         5 AccDes= 0.00D+00
 HarFok:  IExCor=10402 AccDes= 0.00D+00 IRadAn=         5 IDoV= 1
 ScaDFX=  1.000000  1.000000  1.000000  1.000000
 FoFCou: FMM=F IPFlag=           0 FMFlag=      100000 FMFlg1=           0
         NFxFlg=           0 DoJE=T BraDBF=F KetDBF=T FulRan=T
         Omega=  0.000000  0.000000  1.000000  0.000000  0.000000 ICntrl=     500 IOpCl=  0
         NMat0=    1 NMatS0=    1 NMatT0=    0 NMatD0=    1 NMtDS0=    0 NMtDT0=    0
         I1Cent=           4 NGrid=           0.
 Petite list used in FoFCou.
 Harris En= -147.161317906834    
 Initial guess orbital symmetries:
       Occupied  (B2) (A1) (A1) (B2) (A1) (A1) (B1) (B2) (A2)
       Virtual   (A1) (B2) (B2) (A1) (B1) (B2) (A1) (A1) (A2) (B2)
                 (B1) (A1) (B2) (A1) (A2) (B2) (A1) (B2) (B2) (A1)
                 (B1) (B2) (B1) (A1) (A1) (A2) (B1) (A2) (B2) (A1)
                 (B2) (A1) (A1) (B1) (B2) (B1) (A1) (A2) (B2) (B2)
                 (A2) (A1) (B2) (A2) (A1) (B2) (B1) (A1) (B2) (A2)
                 (A1) (B2) (B1) (A1) (B2) (A1) (B1) (A1) (A2) (B2)
                 (B1) (A1) (A2) (B2) (A1) (B2) (A1) (B1) (B2) (B1)
                 (B2) (A2) (A2) (A1) (A1) (B2) (B2) (A2) (B2) (A1)
                 (B1) (B2) (A1) (B1) (A2) (B1) (A2) (A1) (B2) (A2)
                 (A1) (A1) (B2) (B2) (A1) (A1) (B1) (B2) (B2) (A2)
                 (B2) (A1) (B1) (A1) (B2) (B1) (A1) (A2) (B2) (B1)
                 (A1) (A1) (A2) (B1) (B1) (B2) (A2) (A2) (A1) (B2)
                 (A2) (A1) (B2) (B2) (A1) (B2) (B2) (A1) (B2)
 The electronic state of the initial guess is 1-A1.
 Leave Link  401 at Mon May 11 09:39:44 2020, MaxMem= 1073741824 cpu:       1.4
 (Enter /home/matheus/.gaussian/g09/l502.exe)
 Closed shell SCF:
 Requested convergence on RMS density matrix=1.00D-08 within 128 cycles.
 Requested convergence on MAX density matrix=1.00D-06.
 Requested convergence on             energy=1.00D-06.
 No special actions if energy rises.
 Using DIIS extrapolation, IDIIS=  1040.
 Integral symmetry usage will be decided dynamically.
        94980 words used for storage of precomputed grid.
 IEnd=      192636 IEndB=      192636 NGot=  1073741824 MDV=  1073591589
 LenX=  1073591589 LenY=  1073565548
 Fock matrices will be formed incrementally for  20 cycles.

 Cycle   1  Pass 1  IDiag  1:
 FoFJK:  IHMeth= 1 ICntrl=     0 DoSepK=T KAlg= 1 I1Cent= 0 FoldK=F
 FoFCou: FMM=F IPFlag=           0 FMFlag=      100000 FMFlg1=           0
         NFxFlg=           0 DoJE=T BraDBF=F KetDBF=F FulRan=T
         Omega=  0.000000  0.000000  1.000000  0.000000  0.000000 ICntrl=     500 IOpCl=  0
         NMat0=    1 NMatS0=    1 NMatT0=    0 NMatD0=    1 NMtDS0=    0 NMtDT0=    0
         I1Cent=           0 NGrid=           0.
 Petite list used in FoFCou.
 E= -151.292883255862    
 DIIS: error= 1.77D-02 at cycle   1 NSaved=   1.
 NSaved= 1 IEnMin= 1 EnMin= -151.292883255862     IErMin= 1 ErrMin= 1.77D-02
 ErrMax= 1.77D-02 EMaxC= 1.00D-01 BMatC= 2.45D-02 BMatP= 2.45D-02
 IDIUse=3 WtCom= 8.23D-01 WtEn= 1.77D-01
 Coeff-Com:  0.100D+01
 Coeff-En:   0.100D+01
 Coeff:      0.100D+01
 Gap=     0.453 Goal=   None    Shift=    0.000
 GapD=    0.453 DampG=2.000 DampE=0.500 DampFc=1.0000 IDamp=-1.
 RMSDP=1.26D-03 MaxDP=3.17D-02              OVMax= 5.70D-02

 Cycle   2  Pass 1  IDiag  1:
 RMSU=  8.90D-04    CP:  1.01D+00
 FoFJK:  IHMeth= 1 ICntrl=     0 DoSepK=T KAlg= 1 I1Cent= 0 FoldK=F
 E= -151.315176598169     Delta-E=       -0.022293342307 Rises=F Damp=F
 DIIS: error= 7.47D-03 at cycle   2 NSaved=   2.
 NSaved= 2 IEnMin= 2 EnMin= -151.315176598169     IErMin= 2 ErrMin= 7.47D-03
 ErrMax= 7.47D-03 EMaxC= 1.00D-01 BMatC= 4.21D-03 BMatP= 2.45D-02
 IDIUse=3 WtCom= 9.25D-01 WtEn= 7.47D-02
 Coeff-Com:  0.244D+00 0.756D+00
 Coeff-En:   0.000D+00 0.100D+01
 Coeff:      0.226D+00 0.774D+00
 Gap=     0.417 Goal=   None    Shift=    0.000
 RMSDP=3.20D-04 MaxDP=6.19D-03 DE=-2.23D-02 OVMax= 1.44D-02

 Cycle   3  Pass 1  IDiag  1:
 RMSU=  2.24D-04    CP:  1.01D+00  1.04D+00
 FoFJK:  IHMeth= 1 ICntrl=     0 DoSepK=T KAlg= 1 I1Cent= 0 FoldK=F
 E= -151.317554335731     Delta-E=       -0.002377737562 Rises=F Damp=F
 DIIS: error= 2.39D-03 at cycle   3 NSaved=   3.
 NSaved= 3 IEnMin= 3 EnMin= -151.317554335731     IErMin= 3 ErrMin= 2.39D-03
 ErrMax= 2.39D-03 EMaxC= 1.00D-01 BMatC= 5.00D-04 BMatP= 4.21D-03
 IDIUse=3 WtCom= 9.76D-01 WtEn= 2.39D-02
 Coeff-Com:  0.226D-01 0.241D+00 0.736D+00
 Coeff-En:   0.000D+00 0.000D+00 0.100D+01
 Coeff:      0.221D-01 0.236D+00 0.742D+00
 Gap=     0.427 Goal=   None    Shift=    0.000
 RMSDP=1.44D-04 MaxDP=3.66D-03 DE=-2.38D-03 OVMax= 7.42D-03

 Cycle   4  Pass 1  IDiag  1:
 RMSU=  7.67D-05    CP:  1.00D+00  1.11D+00  9.53D-01
[...]
         NFxFlg=           0 DoJE=T BraDBF=F KetDBF=T FulRan=T
         Omega=  0.000000  0.000000  1.000000  0.000000  0.000000 ICntrl=     500 IOpCl=  0
         NMat0=    1 NMatS0=    1 NMatT0=    0 NMatD0=    1 NMtDS0=    0 NMtDT0=    0
         I1Cent=           4 NGrid=           0.
 Petite list used in FoFCou.
 Harris En= -2744.51493148006    
 Leave Link  401 at Mon May 11 09:52:27 2020, MaxMem= 1073741824 cpu:       2.1
 (Enter /home/matheus/.gaussian/g09/l502.exe)
 Closed shell SCF:
 Requested convergence on RMS density matrix=1.00D-08 within 128 cycles.
 Requested convergence on MAX density matrix=1.00D-06.
 Requested convergence on             energy=1.00D-06.
 No special actions if energy rises.
 Using DIIS extrapolation, IDIIS=  1040.
 Integral symmetry usage will be decided dynamically.
       126823 words used for storage of precomputed grid.
 IEnd=      306162 IEndB=      306162 NGot=  1073741824 MDV=  1073504973
 LenX=  1073504973 LenY=  1073452091
 Fock matrices will be formed incrementally for  20 cycles.

 Cycle   1  Pass 1  IDiag  1:
 FoFJK:  IHMeth= 1 ICntrl=     0 DoSepK=T KAlg= 1 I1Cent= 0 FoldK=F
 FoFCou: FMM=F IPFlag=           0 FMFlag=      100000 FMFlg1=           0
         NFxFlg=           0 DoJE=T BraDBF=F KetDBF=F FulRan=T
         Omega=  0.000000  0.000000  1.000000  0.000000  0.000000 ICntrl=     500 IOpCl=  0
         NMat0=    1 NMatS0=    1 NMatT0=    0 NMatD0=    1 NMtDS0=    0 NMtDT0=    0
         I1Cent=           0 NGrid=           0.
 Petite list used in FoFCou.
 E= -2753.41756339378    
 DIIS: error= 1.63D-04 at cycle   1 NSaved=   1.
 NSaved= 1 IEnMin= 1 EnMin= -2753.41756339378     IErMin= 1 ErrMin= 1.63D-04
 ErrMax= 1.63D-04 EMaxC= 1.00D-01 BMatC= 6.12D-06 BMatP= 6.12D-06
 IDIUse=3 WtCom= 9.98D-01 WtEn= 1.63D-03
 Coeff-Com:  0.100D+01
 Coeff-En:   0.100D+01
 Coeff:      0.100D+01
 Gap=     0.540 Goal=   None    Shift=    0.000
 RMSDP=1.32D-05 MaxDP=5.79D-04              OVMax= 3.51D-04

 Cycle   2  Pass 1  IDiag  1:
 RMSU=  9.30D-06    CP:  1.00D+00
 FoFJK:  IHMeth= 1 ICntrl=     0 DoSepK=T KAlg= 1 I1Cent= 0 FoldK=F
 E= -2753.41756412575     Delta-E=       -0.000000731970 Rises=F Damp=F
 DIIS: error= 7.34D-06 at cycle   2 NSaved=   2.
 NSaved= 2 IEnMin= 2 EnMin= -2753.41756412575     IErMin= 2 ErrMin= 7.34D-06
 ErrMax= 7.34D-06 EMaxC= 1.00D-01 BMatC= 5.14D-09 BMatP= 6.12D-06
 IDIUse=1 WtCom= 1.00D+00 WtEn= 0.00D+00
 Coeff-Com: -0.892D-02 0.101D+01
 Coeff:     -0.892D-02 0.101D+01
 Gap=     0.539 Goal=   None    Shift=    0.000
 RMSDP=1.23D-06 MaxDP=4.60D-05 DE=-7.32D-07 OVMax= 5.37D-05

 Cycle   3  Pass 1  IDiag  1:
 RMSU=  4.92D-07    CP:  1.00D+00  1.08D+00
 FoFJK:  IHMeth= 1 ICntrl=     0 DoSepK=T KAlg= 1 I1Cent= 0 FoldK=F
 E= -2753.41756413459     Delta-E=       -0.000000008838 Rises=F Damp=F
 DIIS: error= 1.12D-06 at cycle   3 NSaved=   3.
 NSaved= 3 IEnMin= 3 EnMin= -2753.41756413459     IErMin= 3 ErrMin= 1.12D-06
 ErrMax= 1.12D-06 EMaxC= 1.00D-01 BMatC= 2.02D-10 BMatP= 5.14D-09
 IDIUse=1 WtCom= 1.00D+00 WtEn= 0.00D+00
 Coeff-Com: -0.214D-03-0.629D-01 0.106D+01
 Coeff:     -0.214D-03-0.629D-01 0.106D+01
 Gap=     0.539 Goal=   None    Shift=    0.000
 RMSDP=1.65D-07 MaxDP=5.05D-06 DE=-8.84D-09 OVMax= 1.05D-05

 Cycle   4  Pass 1  IDiag  1:
 RMSU=  6.44D-08    CP:  1.00D+00  1.08D+00  1.18D+00
 FoFJK:  IHMeth= 1 ICntrl=     0 DoSepK=T KAlg= 1 I1Cent= 0 FoldK=F
 E= -2753.41756413490     Delta-E=       -0.000000000312 Rises=F Damp=F
 DIIS: error= 6.54D-07 at cycle   4 NSaved=   4.
 NSaved= 4 IEnMin= 4 EnMin= -2753.41756413490     IErMin= 4 ErrMin= 6.54D-07
 ErrMax= 6.54D-07 EMaxC= 1.00D-01 BMatC= 4.99D-11 BMatP= 2.02D-10
 IDIUse=1 WtCom= 1.00D+00 WtEn= 0.00D+00
 Coeff-Com:  0.277D-03-0.600D-01 0.355D+00 0.704D+00
 Coeff:      0.277D-03-0.600D-01 0.355D+00 0.704D+00
 Gap=     0.539 Goal=   None    Shift=    0.000
 RMSDP=3.04D-08 MaxDP=1.26D-06 DE=-3.12D-10 OVMax= 1.63D-06

 Cycle   5  Pass 1  IDiag  1:
 RMSU=  1.66D-08    CP:  1.00D+00  1.08D+00  1.21D+00  1.03D+00
 FoFJK:  IHMeth= 1 ICntrl=     0 DoSepK=T KAlg= 1 I1Cent= 0 FoldK=F
 E= -2753.41756413492     Delta-E=       -0.000000000024 Rises=F Damp=F
 DIIS: error= 7.25D-08 at cycle   5 NSaved=   5.
 NSaved= 5 IEnMin= 5 EnMin= -2753.41756413492     IErMin= 5 ErrMin= 7.25D-08
 ErrMax= 7.25D-08 EMaxC= 1.00D-01 BMatC= 2.81D-13 BMatP= 4.99D-11
 IDIUse=1 WtCom= 1.00D+00 WtEn= 0.00D+00
 Coeff-Com: -0.495D-05 0.368D-02-0.410D-01-0.285D-01 0.107D+01
 Coeff:     -0.495D-05 0.368D-02-0.410D-01-0.285D-01 0.107D+01
 Gap=     0.539 Goal=   None    Shift=    0.000
 RMSDP=1.09D-08 MaxDP=4.35D-07 DE=-2.41D-11 OVMax= 5.12D-07

 Cycle   6  Pass 1  IDiag  1:
 RMSU=  1.63D-09    CP:  1.00D+00  1.08D+00  1.21D+00  1.10D+00  1.18D+00
 FoFJK:  IHMeth= 1 ICntrl=     0 DoSepK=T KAlg= 1 I1Cent= 0 FoldK=F
 E= -2753.41756413493     Delta-E=       -0.000000000010 Rises=F Damp=F
 DIIS: error= 1.83D-08 at cycle   6 NSaved=   6.
 NSaved= 6 IEnMin= 6 EnMin= -2753.41756413493     IErMin= 6 ErrMin= 1.83D-08
 ErrMax= 1.83D-08 EMaxC= 1.00D-01 BMatC= 2.11D-14 BMatP= 2.81D-13
 IDIUse=1 WtCom= 1.00D+00 WtEn= 0.00D+00
 Coeff-Com: -0.117D-04 0.306D-02-0.221D-01-0.296D-01 0.211D+00 0.838D+00
 Coeff:     -0.117D-04 0.306D-02-0.221D-01-0.296D-01 0.211D+00 0.838D+00
 Gap=     0.539 Goal=   None    Shift=    0.000
 RMSDP=1.39D-09 MaxDP=5.10D-08 DE=-1.00D-11 OVMax= 8.83D-08

 SCF Done:  E(RLC-B+HF-LYP) =  -2753.41756413     A.U. after    6 cycles
             Convg  =    0.1389D-08             -V/T =  2.0015
 KE= 2.749364247611D+03 PE=-6.578579690835D+03 EE= 1.075797879090D+03
 Leave Link  502 at Mon May 11 09:52:36 2020, MaxMem= 1073741824 cpu:      72.6
 (Enter /home/matheus/.gaussian/g09/l122.exe)
 Restoring MOs from calculation   4 to rwf.
 Counterpoise: doing MCBS calculation for fragment   1
 Leave Link  122 at Mon May 11 09:52:36 2020, MaxMem= 1073741824 cpu:       0.0
 (Enter /home/matheus/.gaussian/g09/l301.exe)
 Basis read from rwf:  (5D, 7F)
 No pseudopotential information found on rwf file.
 There are    46 symmetry adapted basis functions of A1  symmetry.
 There are    23 symmetry adapted basis functions of A2  symmetry.
 There are    23 symmetry adapted basis functions of B1  symmetry.
 There are    46 symmetry adapted basis functions of B2  symmetry.
 Integral buffers will be    131072 words long.
 Raffenetti 2 integral format.
 Two-electron integral symmetry is turned on.
   138 basis functions,   198 primitive gaussians,   160 cartesian basis functions
     9 alpha electrons        9 beta electrons
       nuclear repulsion energy        36.6667523957 Hartrees.
 IExCor=10402 DFT=T Ex=LC-B+HF Corr=LYP ExCW=0 ScaHFX=  1.000000
 ScaDFX=  1.000000  1.000000  1.000000  1.000000 ScalE2=  1.000000  1.000000
 IRadAn=      5 IRanWt=     -1 IRanGd=            0 ICorTp=0
  HFx wShort=  0.000000 wLong=  0.470000 cFull=  0.000000 cShort=  0.000000 cLong=  1.000000
  DFx wShort=  0.000000 wLong=  0.470000 cFull=  0.000000 cShort=  0.000000 cLong=  1.000000
 NAtoms=    5 NActive=    4 NUniq=    2 SFac= 4.00D+00 NAtFMM=   60 NAOKFM=F Big=F
 No density basis found on file   718.
 Leave Link  301 at Mon May 11 09:52:36 2020, MaxMem= 1073741824 cpu:       0.2
 (Enter /home/matheus/.gaussian/g09/l302.exe)
 NPDir=0 NMtPBC=     1 NCelOv=     1 NCel=       1 NClECP=     1 NCelD=      1
         NCelK=      1 NCelE2=     1 NClLst=     1 CellRange=     0.0.
 One-electron integrals computed using PRISM.
 One-electron integral symmetry used in STVInt
 NBasis=   138 RedAO= T  NBF=    46    23    23    46
 NBsUse=   138 1.00D-06 NBFU=    46    23    23    46
 Precomputing XC quadrature grid using
 IXCGrd= 2 IRadAn=           5 IRanWt=          -1 IRanGd=           0 AccXCQ= 0.00D+00.
 NRdTot=     344 NPtTot=       92556 NUsed=       95038 NTot=       95070
 NSgBfM=   160   160   160   160   160 NAtAll=     4     4.
 Leave Link  302 at Mon May 11 09:52:36 2020, MaxMem= 1073741824 cpu:       0.7
 (Enter /home/matheus/.gaussian/g09/l303.exe)
 DipDrv:  MaxL=1.
 Leave Link  303 at Mon May 11 09:52:36 2020, MaxMem= 1073741824 cpu:       0.1
 (Enter /home/matheus/.gaussian/g09/l401.exe)
 Initial guess read from the read-write file.
 Guess basis will be translated and rotated to current coordinates.
 Initial guess orbital symmetries:
       Occupied  (A1) (B2) (A1) (B2) (A1) (A1) (B1) (B2) (A2)
       Virtual   (A1) (B2) (B2) (A1) (B2) (B1) (A1) (A1) (A2) (B2)
                 (B1) (A1) (B2) (A1) (A2) (B2) (A1) (B2) (B2) (A1)
                 (B1) (A1) (B2) (B1) (A1) (A2) (A2) (B1) (B2) (A1)
                 (B2) (A1) (A1) (B1) (A1) (B1) (A2) (B2) (B2) (B2)
                 (A1) (A2) (B2) (A2) (B2) (A1) (B1) (A1) (B2) (A2)
                 (A1) (B2) (B1) (A1) (B2) (A1) (B1) (A1) (A2) (B2)
                 (B1) (A1) (A2) (A1) (B2) (B2) (A1) (B1) (B2) (B1)
                 (B2) (A2) (A2) (A1) (A1) (B2) (B2) (A2) (B2) (A1)
                 (B2) (B1) (A1) (B1) (A2) (B1) (A2) (A1) (B2) (A2)
                 (A1) (A1) (B2) (B2) (A1) (A1) (B1) (B2) (B2) (A2)
                 (B2) (A1) (B1) (A1) (B2) (B1) (A1) (A2) (B2) (B1)
                 (A1) (A1) (A2) (B1) (B2) (B1) (A2) (A2) (A1) (B2)
                 (A1) (A2) (B2) (B2) (A1) (B2) (B2) (A1) (B2)
 The electronic state of the initial guess is 1-A1.
 Generating alternative initial guess.
 Harris functional with IExCor=10402 diagonalized for initial guess.
 ExpMin= 2.53D-02 ExpMax= 1.53D+04 ExpMxC= 5.22D+02 IAcc=3 IRadAn=         5 AccDes= 0.00D+00
 HarFok:  IExCor=10402 AccDes= 0.00D+00 IRadAn=         5 IDoV= 1
 ScaDFX=  1.000000  1.000000  1.000000  1.000000
 FoFCou: FMM=F IPFlag=           0 FMFlag=      100000 FMFlg1=           0
         NFxFlg=           0 DoJE=T BraDBF=F KetDBF=T FulRan=T
         Omega=  0.000000  0.000000  1.000000  0.000000  0.000000 ICntrl=     500 IOpCl=  0
         NMat0=    1 NMatS0=    1 NMatT0=    0 NMatD0=    1 NMtDS0=    0 NMtDT0=    0
         I1Cent=           4 NGrid=           0.
 Petite list used in FoFCou.
 Harris En= -147.161317906834    
 Leave Link  401 at Mon May 11 09:52:36 2020, MaxMem= 1073741824 cpu:       1.4
 (Enter /home/matheus/.gaussian/g09/l502.exe)
 Closed shell SCF:
 Requested convergence on RMS density matrix=1.00D-08 within 128 cycles.
 Requested convergence on MAX density matrix=1.00D-06.
 Requested convergence on             energy=1.00D-06.
 No special actions if energy rises.
 Using DIIS extrapolation, IDIIS=  1040.
 Integral symmetry usage will be decided dynamically.
        94980 words used for storage of precomputed grid.
 IEnd=      192636 IEndB=      192636 NGot=  1073741824 MDV=  1073591589
 LenX=  1073591589 LenY=  1073565548
 Fock matrices will be formed incrementally for  20 cycles.

 Cycle   1  Pass 1  IDiag  1:
 FoFJK:  IHMeth= 1 ICntrl=     0 DoSepK=T KAlg= 1 I1Cent= 0 FoldK=F
 FoFCou: FMM=F IPFlag=           0 FMFlag=      100000 FMFlg1=           0
         NFxFlg=           0 DoJE=T BraDBF=F KetDBF=F FulRan=T
         Omega=  0.000000  0.000000  1.000000  0.000000  0.000000 ICntrl=     500 IOpCl=  0
         NMat0=    1 NMatS0=    1 NMatT0=    0 NMatD0=    1 NMtDS0=    0 NMtDT0=    0
         I1Cent=           0 NGrid=           0.
 Petite list used in FoFCou.
 E= -151.317971539423    
 DIIS: error= 2.93D-10 at cycle   1 NSaved=   1.
 NSaved= 1 IEnMin= 1 EnMin= -151.317971539423     IErMin= 1 ErrMin= 2.93D-10
 ErrMax= 2.93D-10 EMaxC= 1.00D-01 BMatC= 8.29D-18 BMatP= 8.29D-18
 IDIUse=1 WtCom= 1.00D+00 WtEn= 0.00D+00
 Coeff-Com:  0.100D+01
 Coeff:      0.100D+01
 Gap=     0.424 Goal=   None    Shift=    0.000
 RMSDP=2.03D-11 MaxDP=4.62D-10              OVMax= 9.21D-10

 SCF Done:  E(RLC-B+HF-LYP) =  -151.317971539     A.U. after    1 cycles
             Convg  =    0.2033D-10             -V/T =  2.0055
 KE= 1.504898808078D+02 PE=-4.314682457777D+02 EE= 9.299364103485D+01
 Leave Link  502 at Mon May 11 09:52:37 2020, MaxMem= 1073741824 cpu:       5.6
 (Enter /home/matheus/.gaussian/g09/l122.exe)
 Restoring MOs from calculation   5 to rwf.
 Counterpoise: doing MCBS calculation for fragment   2
 Leave Link  122 at Mon May 11 09:52:37 2020, MaxMem= 1073741824 cpu:       0.0
 (Enter /home/matheus/.gaussian/g09/l301.exe)
 Basis read from rwf:  (5D, 7F)
 No pseudopotential information found on rwf file.
 There are    25 symmetry adapted basis functions of A1  symmetry.
 There are     6 symmetry adapted basis functions of A2  symmetry.
 There are    14 symmetry adapted basis functions of B1  symmetry.
 There are    14 symmetry adapted basis functions of B2  symmetry.
 Integral buffers will be    131072 words long.
 Raffenetti 2 integral format.
 Two-electron integral symmetry is turned on.
    59 basis functions,   217 primitive gaussians,    69 cartesian basis functions
    18 alpha electrons       18 beta electrons
       nuclear repulsion energy         0.0000000000 Hartrees.
 IExCor=10402 DFT=T Ex=LC-B+HF Corr=LYP ExCW=0 ScaHFX=  1.000000
 ScaDFX=  1.000000  1.000000  1.000000  1.000000 ScalE2=  1.000000  1.000000
 IRadAn=      5 IRanWt=     -1 IRanGd=            0 ICorTp=0
  HFx wShort=  0.000000 wLong=  0.470000 cFull=  0.000000 cShort=  0.000000 cLong=  1.000000
  DFx wShort=  0.000000 wLong=  0.470000 cFull=  0.000000 cShort=  0.000000 cLong=  1.000000
 NAtoms=    5 NActive=    1 NUniq=    1 SFac= 1.00D+00 NAtFMM=   60 NAOKFM=F Big=F
 No density basis found on file   718.
 Leave Link  301 at Mon May 11 09:52:37 2020, MaxMem= 1073741824 cpu:       0.2
 (Enter /home/matheus/.gaussian/g09/l302.exe)
 NPDir=0 NMtPBC=     1 NCelOv=     1 NCel=       1 NClECP=     1 NCelD=      1
         NCelK=      1 NCelE2=     1 NClLst=     1 CellRange=     0.0.
 One-electron integrals computed using PRISM.
 One-electron integral symmetry used in STVInt
 NBasis=    59 RedAO= T  NBF=    25     6    14    14
 NBsUse=    59 1.00D-06 NBFU=    25     6    14    14
 Precomputing XC quadrature grid using
 IXCGrd= 2 IRadAn=           5 IRanWt=          -1 IRanGd=           0 AccXCQ= 0.00D+00.
 NRdTot=      81 NPtTot=       30352 NUsed=       30981 NTot=       31013
 NSgBfM=    69    69    69    69    69 NAtAll=     1     1.
 Leave Link  302 at Mon May 11 09:52:37 2020, MaxMem= 1073741824 cpu:       0.6
 (Enter /home/matheus/.gaussian/g09/l303.exe)
 DipDrv:  MaxL=1.
 Leave Link  303 at Mon May 11 09:52:37 2020, MaxMem= 1073741824 cpu:       0.1
 (Enter /home/matheus/.gaussian/g09/l401.exe)
 Initial guess read from the read-write file.
 Guess basis will be translated and rotated to current coordinates.
 Initial guess orbital symmetries:
       Occupied  (A1) (A1) (B2) (B1) (A1) (A1) (B2) (A1) (B1) (B2)
                 (B1) (A2) (A1) (A1) (A1) (B1) (B2) (A1)
       Virtual   (A1) (A1) (B2) (B1) (B2) (A2) (B1) (A1) (A1) (A1)
                 (B2) (B1) (A1) (B2) (A2) (B1) (A1) (A1) (A1) (B2)
                 (B1) (A2) (A1) (B2) (B1) (A1) (B2) (B1) (A2) (B2)
                 (B1) (A1) (A1) (A1) (B2) (B1) (A2) (B1) (A1) (B2)
                 (A1)
 The electronic state of the initial guess is 1-A1.
 Generating alternative initial guess.
 Harris functional with IExCor=10402 diagonalized for initial guess.
 ExpMin= 4.00D-02 ExpMax= 1.17D+07 ExpMxC= 1.33D+04 IAcc=3 IRadAn=         5 AccDes= 0.00D+00
 HarFok:  IExCor=10402 AccDes= 0.00D+00 IRadAn=         5 IDoV= 1
 ScaDFX=  1.000000  1.000000  1.000000  1.000000
 FoFCou: FMM=F IPFlag=           0 FMFlag=      100000 FMFlg1=           0
         NFxFlg=           0 DoJE=T BraDBF=F KetDBF=T FulRan=T
         Omega=  0.000000  0.000000  1.000000  0.000000  0.000000 ICntrl=     500 IOpCl=  0
         NMat0=    1 NMatS0=    1 NMatT0=    0 NMatD0=    1 NMtDS0=    0 NMtDT0=    0
         I1Cent=           4 NGrid=           0.
 Petite list used in FoFCou.
 Harris En= -2744.51485235229    
 Leave Link  401 at Mon May 11 09:52:37 2020, MaxMem= 1073741824 cpu:       0.9
 (Enter /home/matheus/.gaussian/g09/l502.exe)
 Closed shell SCF:
 Requested convergence on RMS density matrix=1.00D-08 within 128 cycles.
 Requested convergence on MAX density matrix=1.00D-06.
 Requested convergence on             energy=1.00D-06.
 No special actions if energy rises.
 Using DIIS extrapolation, IDIIS=  1040.
 Integral symmetry usage will be decided dynamically.
        30923 words used for storage of precomputed grid.
 IEnd=       64522 IEndB=       64522 NGot=  1073741824 MDV=  1073698773
 LenX=  1073698773 LenY=  1073693571
 Fock matrices will be formed incrementally for  20 cycles.

 Cycle   1  Pass 1  IDiag  1:
 FoFJK:  IHMeth= 1 ICntrl=     0 DoSepK=T KAlg= 1 I1Cent= 0 FoldK=F
 FoFCou: FMM=F IPFlag=           0 FMFlag=      100000 FMFlg1=           0
         NFxFlg=           0 DoJE=T BraDBF=F KetDBF=F FulRan=T
         Omega=  0.000000  0.000000  1.000000  0.000000  0.000000 ICntrl=     500 IOpCl=  0
         NMat0=    1 NMatS0=    1 NMatT0=    0 NMatD0=    1 NMtDS0=    0 NMtDT0=    0
         I1Cent=           0 NGrid=           0.
 Petite list used in FoFCou.
 E= -2753.41754223393    
 DIIS: error= 1.99D-13 at cycle   1 NSaved=   1.
 NSaved= 1 IEnMin= 1 EnMin= -2753.41754223393     IErMin= 1 ErrMin= 1.99D-13
 ErrMax= 1.99D-13 EMaxC= 1.00D-01 BMatC= 1.02D-24 BMatP= 1.02D-24
 IDIUse=1 WtCom= 1.00D+00 WtEn= 0.00D+00
 Coeff-Com:  0.100D+01
 Coeff:      0.100D+01
 Gap=     0.595 Goal=   None    Shift=    0.000
 RMSDP=5.76D-15 MaxDP=1.05D-13              OVMax= 4.01D-14

 SCF Done:  E(RLC-B+HF-LYP) =  -2753.41754223     A.U. after    1 cycles
             Convg  =    0.5761D-14             -V/T =  2.0015
 KE= 2.749372504928D+03 PE=-6.578588569976D+03 EE= 1.075798522814D+03
 Leave Link  502 at Mon May 11 09:52:38 2020, MaxMem= 1073741824 cpu:      10.9
 (Enter /home/matheus/.gaussian/g09/l122.exe)
 Restoring MOs from calculation   1 to rwf.
 Counterpoise: corrected energy =   -2904.735732378689
 Counterpoise: BSSE energy =       0.000027291040
 Leave Link  122 at Mon May 11 09:52:38 2020, MaxMem= 1073741824 cpu:       0.0
 (Enter /home/matheus/.gaussian/g09/l108.exe)
 Scan completed.

 Summary of the potential surface scan:
   N      R1          SCF    
 ----  ---------  -----------
    1     3.0000  -2753.41754
    2     3.1000  -2753.41754
    3     3.2000  -2753.41754
    4     3.3000  -2753.41754
    5     3.4000  -2753.41754
    6     3.5000  -2753.41754
    7     3.6000  -2753.41754
    8     3.7000  -2753.41754
    9     3.8000  -2753.41754
   10     3.9000  -2753.41754
   11     4.0000  -2753.41754
   12     4.1000  -2753.41754
   13     4.2000  -2753.41754
   14     4.3000  -2753.41754
   15     4.4000  -2753.41754
   16     4.5000  -2753.41754
   17     4.6000  -2753.41754
   18     4.7000  -2753.41754
   19     4.8000  -2753.41754
   20     4.9000  -2753.41754
   21     5.0000  -2753.41754
 ----  ---------  -----------
  
 Leave Link  108 at Mon May 11 09:52:38 2020, MaxMem= 1073741824 cpu:       0.0
 (Enter /home/matheus/.gaussian/g09/l9999.exe)
 1\1\GINC-REDGIANT\Scan\RLC-BLYP\Aug-CC-pVTZ\H2Kr1O2\MATHEUS\11-May-202
 0\1\\#p lc-blyp/aug-cc-PVTz int=ultrafine counterpoise=2 Scan\\TCC\\0,
 1\O,0,0.,0.,0.725\O,0,0.,0.,-0.725\H,0,0.,0.9187205947,1.0235104166\H,
 0,0.,0.9187205947,-1.0235104166\Kr,0,0.,R1,0.\\R1=3.,s,20,0.1\\Version
 =EM64L-G09RevC.01\State=1-A1\HF=-2753.4175422,-2753.4175422,-2753.4175
 422,-2753.4175422,-2753.4175422,-2753.4175422,-2753.4175422,-2753.4175
 422,-2753.4175422,-2753.4175422,-2753.4175422,-2753.4175422,-2753.4175
 422,-2753.4175422,-2753.4175422,-2753.4175422,-2753.4175422,-2753.4175
 422,-2753.4175422,-2753.4175422,-2753.4175422\RMSD=1.346e-09,5.365e-11
 ,1.651e-11,1.008e-11,6.018e-12,3.658e-12,2.211e-12,1.340e-12,8.111e-13
 ,4.993e-13,3.024e-13,1.817e-13,1.106e-13,6.955e-14,4.113e-14,2.761e-14
 ,1.447e-14,1.051e-14,5.289e-15,8.052e-15,5.761e-15\PG=C02V [C2(Kr1),SG
 V(H2O2)]\\@


 DEMOCRATS BUY MOST OF THE BOOKS THAT HAVE BEEN
 BANNED; REPUBLICANS FORM CENSORSHIP COMMITTEES AND
 READ THEM AS A GROUP.
 Job cpu time:  0 days  1 hours 50 minutes 30.2 seconds.
 File lengths (MBytes):  RWF=     33 Int=      0 D2E=      0 Chk=      8 Scr=      1
 Normal termination of Gaussian 09 at Mon May 11 09:52:39 2020.
