 Entering Gaussian System, Link 0=g09
 Input=/home/matheus/.tcc/Inputs/Inputs-lc-blyp-default/H2O2-Kr_23.com
 Output=/home/matheus/.tcc/Logs/Logs-lc-blyp-default/H2O2-Kr_23.log
 Initial command:
 /home/matheus/.gaussian/g09/l1.exe /home/matheus/.gaussian/g09/scratch/Gau-30132.inp -scrdir=/home/matheus/.gaussian/g09/scratch/
 Entering Link 1 = /home/matheus/.gaussian/g09/l1.exe PID=     30136.
  
 Copyright (c) 1988,1990,1992,1993,1995,1998,2003,2009,2011,
            Gaussian, Inc.  All Rights Reserved.
  
 This is part of the Gaussian(R) 09 program.  It is based on
 the Gaussian(R) 03 system (copyright 2003, Gaussian, Inc.),
 the Gaussian(R) 98 system (copyright 1998, Gaussian, Inc.),
 the Gaussian(R) 94 system (copyright 1995, Gaussian, Inc.),
 the Gaussian 92(TM) system (copyright 1992, Gaussian, Inc.),
 the Gaussian 90(TM) system (copyright 1990, Gaussian, Inc.),
 the Gaussian 88(TM) system (copyright 1988, Gaussian, Inc.),
 the Gaussian 86(TM) system (copyright 1986, Carnegie Mellon
 University), and the Gaussian 82(TM) system (copyright 1983,
 Carnegie Mellon University). Gaussian is a federally registered
 trademark of Gaussian, Inc.
  
 This software contains proprietary and confidential information,
 including trade secrets, belonging to Gaussian, Inc.
  
 This software is provided under written license and may be
 used, copied, transmitted, or stored only in accord with that
 written license.
  
 The following legend is applicable only to US Government
 contracts under FAR:
  
                    RESTRICTED RIGHTS LEGEND
  
 Use, reproduction and disclosure by the US Government is
 subject to restrictions as set forth in subparagraphs (a)
 and (c) of the Commercial Computer Software - Restricted
 Rights clause in FAR 52.227-19.
  
 Gaussian, Inc.
 340 Quinnipiac St., Bldg. 40, Wallingford CT 06492
  
  
 ---------------------------------------------------------------
 Warning -- This program may not be used in any manner that
 competes with the business of Gaussian, Inc. or will provide
 assistance to any competitor of Gaussian, Inc.  The licensee
 of this program is prohibited from giving any competitor of
 Gaussian, Inc. access to this program.  By using this program,
 the user acknowledges that Gaussian, Inc. is engaged in the
 business of creating and licensing software in the field of
 computational chemistry and represents and warrants to the
 licensee that it is not a competitor of Gaussian, Inc. and that
 it will not use this program in any manner prohibited above.
 ---------------------------------------------------------------
  

 Cite this work as:
 Gaussian 09, Revision C.01,
 M. J. Frisch, G. W. Trucks, H. B. Schlegel, G. E. Scuseria, 
 M. A. Robb, J. R. Cheeseman, G. Scalmani, V. Barone, B. Mennucci, 
 G. A. Petersson, H. Nakatsuji, M. Caricato, X. Li, H. P. Hratchian, 
 A. F. Izmaylov, J. Bloino, G. Zheng, J. L. Sonnenberg, M. Hada, 
 M. Ehara, K. Toyota, R. Fukuda, J. Hasegawa, M. Ishida, T. Nakajima, 
 Y. Honda, O. Kitao, H. Nakai, T. Vreven, J. A. Montgomery, Jr., 
 J. E. Peralta, F. Ogliaro, M. Bearpark, J. J. Heyd, E. Brothers, 
 K. N. Kudin, V. N. Staroverov, T. Keith, R. Kobayashi, J. Normand, 
 K. Raghavachari, A. Rendell, J. C. Burant, S. S. Iyengar, J. Tomasi, 
 M. Cossi, N. Rega, J. M. Millam, M. Klene, J. E. Knox, J. B. Cross, 
 V. Bakken, C. Adamo, J. Jaramillo, R. Gomperts, R. E. Stratmann, 
 O. Yazyev, A. J. Austin, R. Cammi, C. Pomelli, J. W. Ochterski, 
 R. L. Martin, K. Morokuma, V. G. Zakrzewski, G. A. Voth, 
 P. Salvador, J. J. Dannenberg, S. Dapprich, A. D. Daniels, 
 O. Farkas, J. B. Foresman, J. V. Ortiz, J. Cioslowski, 
 and D. J. Fox, Gaussian, Inc., Wallingford CT, 2010.
 
 ******************************************
 Gaussian 09:  EM64L-G09RevC.01 23-Sep-2011
                13-May-2020 
 ******************************************
 %mem=8GB
 %nproc=8
 Will use up to    8 processors via shared memory.
 --------------------------------------------------------
 #p lc-blyp/aug-cc-PVTz int=ultrafine counterpoise=2 Scan
 --------------------------------------------------------
 1/38=1,60=1,62=2/1,8;
 2/12=2,17=6,18=5,29=3,40=1/2;
 1/38=1,53=5172,62=2/22;
 3/5=16,6=1,7=10,11=2,16=1,25=1,30=1,74=1000402,75=-5/1,2,3;
 4//1;
 5/5=2,38=5/2;
 6/7=2,8=2,9=2,10=2,18=1,28=1/1;
 1/53=4052,62=2,63=1/22;
 3/5=7,6=11,7=10,11=2,16=1,25=1,30=1,74=1000402,75=-5,82=7/1,2,3;
 4//1;
 5/5=2,38=5/2;
 6/7=2,8=2,9=2,10=2,18=1,28=1/1;
 1/53=3042,62=2,63=2/22;
 3/5=7,6=11,7=10,11=2,16=1,25=1,30=1,74=1000402,75=-5,82=7/1,2,3;
 4//1;
 5/5=2,38=5/2;
 6/7=2,8=2,9=2,10=2,18=1,28=1/1;
 1/53=2032,62=2,63=3/22;
 3/5=7,6=11,7=10,11=2,16=1,25=1,30=1,74=1000402,75=-5,82=7/1,2,3;
 4//1;
 5/5=2,38=5/2;
 6/7=2,8=2,9=2,10=2,18=1,28=1/1;
 1/53=1022,62=2,63=4/22;
 3/5=7,6=11,7=10,11=2,16=1,25=1,30=1,74=1000402,75=-5,82=7/1,2,3;
 4//1;
 5/5=2,38=5/2;
 6/7=2,8=2,9=2,10=2,18=1,28=1/1;
 1/53=5014,62=2,63=5/22;
 1/60=1,62=2/8(1);
 99/9=1/99;
 2/29=3/2;
 1/53=5173,62=2/22;
 3/5=7,6=11,7=10,11=2,16=1,25=1,30=1,74=1000402,75=-5,82=7/1,2,3;
 4/5=5,16=3/1;
 5/5=2,38=5/2;
 1/53=4053,62=2,63=1/22;
 3/5=7,6=11,7=10,11=2,16=1,25=1,30=1,74=1000402,75=-5,82=7/1,2,3;
 4/5=5,16=3/1;
 5/5=2,38=5/2;
 1/53=3043,62=2,63=2/22;
 3/5=7,6=11,7=10,11=2,16=1,25=1,30=1,74=1000402,75=-5,82=7/1,2,3;
 4/5=5,16=3/1;
 5/5=2,38=5/2;
 1/53=2033,62=2,63=3/22;
 3/5=7,6=11,7=10,11=2,16=1,25=1,30=1,74=1000402,75=-5,82=7/1,2,3;
 4/5=5,16=3/1;
 5/5=2,38=5/2;
 1/53=1024,62=2,63=4/22;
 3/5=7,6=11,7=10,11=2,16=1,25=1,30=1,74=1000402,75=-5,82=7/1,2,3;
 4/5=5,16=3/1;
 5/5=2,38=5/2;
 1/53=5014,62=2,63=5/22;
 1/60=1,62=2/8(-22);
 99/9=1/99;
 Leave Link    1 at Wed May 13 20:29:23 2020, MaxMem= 1073741824 cpu:       0.1
 (Enter /home/matheus/.gaussian/g09/l101.exe)
 ---
 TCC
 ---
 Charge =  0 Multiplicity = 1 in supermolecule
 Charge =  0 Multiplicity = 1 in fragment  1.
 Charge =  0 Multiplicity = 1 in fragment  2.
 Symbolic Z-Matrix:
 O(Fragment=1)         0.        0.        0.725 
 O(Fragment=1)         0.        0.       -0.725 
 H(Fragment=1)        -0.70378  -0.59054   1.02351 
 H(Fragment=1)         0.        0.91872  -1.02351 
 Kr(Fragment=2)        0.       R1        0. 
       Variables:
  R1                    3.     Scan 20    0.1    
 
 NAtoms=      5 NQM=        0 NQMF=       0 NMMI=      5 NMMIF=      0
                NMic=       0 NMicF=      0.
                    Isotopes and Nuclear Properties:
 (Nuclear quadrupole moments (NQMom) in fm**2, nuclear magnetic moments (NMagM)
  in nuclear magnetons)

  Atom         1           2           3           4           5
 IAtWgt=          16          16           1           1          84
 AtmWgt=  15.9949146  15.9949146   1.0078250   1.0078250  83.9115064
 NucSpn=           0           0           1           1           0
 AtZEff=   0.0000000   0.0000000   0.0000000   0.0000000   0.0000000
 NQMom=    0.0000000   0.0000000   0.0000000   0.0000000   0.0000000
 NMagM=    0.0000000   0.0000000   2.7928460   2.7928460   0.0000000
 Leave Link  101 at Wed May 13 20:29:23 2020, MaxMem= 1073741824 cpu:       0.3
 (Enter /home/matheus/.gaussian/g09/l108.exe)
 Scan the potential surface.
 Variable   Value     No. Steps Step-Size
 -------- ----------- --------- ---------
     1       3.000000      20      0.1000
 A total of     21 points will be computed.
 Leave Link  108 at Wed May 13 20:29:23 2020, MaxMem= 1073741824 cpu:       0.0
 (Enter /home/matheus/.gaussian/g09/l202.exe)
 ---------------------------------------------------------------------------------------------------
                            Z-MATRIX (ANGSTROMS AND DEGREES)
   CD    Cent   Atom    N1       Length/X        N2       Alpha/Y        N3        Beta/Z          J
 ---------------------------------------------------------------------------------------------------
      1      1  O        0   0.000000          0.000000          0.725000
      2      2  O        0   0.000000          0.000000         -0.725000
      3      3  H        0  -0.703781         -0.590542          1.023510
      4      4  H        0   0.000000          0.918721         -1.023510
      5      5  Kr       0   0.000000          3.000000          0.000000
 ---------------------------------------------------------------------------------------------------
                         Z-Matrix orientation:                         
 ---------------------------------------------------------------------
 Center     Atomic      Atomic             Coordinates (Angstroms)
 Number     Number       Type             X           Y           Z
 ---------------------------------------------------------------------
      1          8           0        0.000000    0.000000    0.725000
      2          8           0        0.000000    0.000000   -0.725000
      3          1           0       -0.703781   -0.590542    1.023510
      4          1           0        0.000000    0.918721   -1.023510
      5         36           0        0.000000    3.000000    0.000000
 ---------------------------------------------------------------------
                    Distance matrix (angstroms):
                    1          2          3          4          5
     1  O    0.000000
     2  O    1.450000   0.000000
     3  H    0.966000   1.975180   0.000000
     4  H    1.975180   0.966000   2.638840   0.000000
     5  Kr   3.086361   3.086361   3.799326   2.319331   0.000000
 Stoichiometry    H2KrO2
 Framework group  C1[X(H2KrO2)]
 Deg. of freedom     9
 Full point group                 C1      NOp   1
 Largest Abelian subgroup         C1      NOp   1
 Largest concise Abelian subgroup C1      NOp   1
                         Standard orientation:                         
 ---------------------------------------------------------------------
 Center     Atomic      Atomic             Coordinates (Angstroms)
 Number     Number       Type             X           Y           Z
 ---------------------------------------------------------------------
      1          8           0       -2.016888   -0.687971   -0.094863
      2          8           0       -1.993721    0.758416    0.004771
      3          1           0       -2.624080   -1.023798    0.577220
      4          1           0       -1.070483    1.040460    0.039958
      5         36           0        0.993873   -0.016117    0.002877
 ---------------------------------------------------------------------
 Rotational constants (GHZ):     26.0617959      2.3176349      2.1364645
 Leave Link  202 at Wed May 13 20:29:23 2020, MaxMem= 1073741824 cpu:       0.0
 (Enter /home/matheus/.gaussian/g09/l122.exe)
 Leave Link  122 at Wed May 13 20:29:23 2020, MaxMem= 1073741824 cpu:       0.0
 (Enter /home/matheus/.gaussian/g09/l301.exe)
 Standard basis: Aug-CC-pVTZ (5D, 7F)
 Ernie: Thresh=  0.10000D-02 Tol=  0.10000D-05 Strict=F.
 Ernie:  38 primitive shells out of 205 were deleted.
 There are   197 symmetry adapted basis functions of A   symmetry.
 Integral buffers will be    131072 words long.
 Raffenetti 2 integral format.
 Two-electron integral symmetry is turned on.
   197 basis functions,   415 primitive gaussians,   229 cartesian basis functions
    27 alpha electrons       27 beta electrons
       nuclear repulsion energy       148.5957046553 Hartrees.
 IExCor=10402 DFT=T Ex=LC-B+HF Corr=LYP ExCW=0 ScaHFX=  1.000000
 ScaDFX=  1.000000  1.000000  1.000000  1.000000 ScalE2=  1.000000  1.000000
 IRadAn=      5 IRanWt=     -1 IRanGd=            0 ICorTp=0
  HFx wShort=  0.000000 wLong=  0.470000 cFull=  0.000000 cShort=  0.000000 cLong=  1.000000
  DFx wShort=  0.000000 wLong=  0.470000 cFull=  0.000000 cShort=  0.000000 cLong=  1.000000
 NAtoms=    5 NActive=    5 NUniq=    5 SFac= 1.00D+00 NAtFMM=   60 NAOKFM=F Big=F
 Leave Link  301 at Wed May 13 20:29:23 2020, MaxMem= 1073741824 cpu:       0.2
 (Enter /home/matheus/.gaussian/g09/l302.exe)
 NPDir=0 NMtPBC=     1 NCelOv=     1 NCel=       1 NClECP=     1 NCelD=      1
         NCelK=      1 NCelE2=     1 NClLst=     1 CellRange=     0.0.
 One-electron integrals computed using PRISM.
 NBasis=   197 RedAO= T  NBF=   197
 NBsUse=   197 1.00D-06 NBFU=   197
 Precomputing XC quadrature grid using
 IXCGrd= 2 IRadAn=           5 IRanWt=          -1 IRanGd=           0 AccXCQ= 0.00D+00.
 NRdTot=     427 NPtTot=      123512 NUsed=      126579 NTot=      126611
 NSgBfM=   229   229   229   229   229 NAtAll=     5     5.
 Leave Link  302 at Wed May 13 20:29:23 2020, MaxMem= 1073741824 cpu:       0.9
 (Enter /home/matheus/.gaussian/g09/l303.exe)
 DipDrv:  MaxL=1.
 Leave Link  303 at Wed May 13 20:29:23 2020, MaxMem= 1073741824 cpu:       0.2
 (Enter /home/matheus/.gaussian/g09/l401.exe)
 Harris functional with IExCor=10402 diagonalized for initial guess.
 ExpMin= 2.53D-02 ExpMax= 1.17D+07 ExpMxC= 1.33D+04 IAcc=3 IRadAn=         5 AccDes= 0.00D+00
 HarFok:  IExCor=10402 AccDes= 0.00D+00 IRadAn=         5 IDoV= 1
 ScaDFX=  1.000000  1.000000  1.000000  1.000000
 FoFCou: FMM=F IPFlag=           0 FMFlag=      100000 FMFlg1=           0
         NFxFlg=           0 DoJE=T BraDBF=F KetDBF=T FulRan=T
         Omega=  0.000000  0.000000  1.000000  0.000000  0.000000 ICntrl=     500 IOpCl=  0
         NMat0=    1 NMatS0=    1 NMatT0=    0 NMatD0=    1 NMtDS0=    0 NMtDT0=    0
         I1Cent=           4 NGrid=           0.
 Petite list used in FoFCou.
 Harris En= -2891.67099177635    
 Initial guess orbital symmetries:
       Occupied  (A) (A) (A) (A) (A) (A) (A) (A) (A) (A) (A) (A)
                 (A) (A) (A) (A) (A) (A) (A) (A) (A) (A) (A) (A)
                 (A) (A) (A)
       Virtual   (A) (A) (A) (A) (A) (A) (A) (A) (A) (A) (A) (A)
                 (A) (A) (A) (A) (A) (A) (A) (A) (A) (A) (A) (A)
                 (A) (A) (A) (A) (A) (A) (A) (A) (A) (A) (A) (A)
                 (A) (A) (A) (A) (A) (A) (A) (A) (A) (A) (A) (A)
                 (A) (A) (A) (A) (A) (A) (A) (A) (A) (A) (A) (A)
                 (A) (A) (A) (A) (A) (A) (A) (A) (A) (A) (A) (A)
                 (A) (A) (A) (A) (A) (A) (A) (A) (A) (A) (A) (A)
                 (A) (A) (A) (A) (A) (A) (A) (A) (A) (A) (A) (A)
                 (A) (A) (A) (A) (A) (A) (A) (A) (A) (A) (A) (A)
                 (A) (A) (A) (A) (A) (A) (A) (A) (A) (A) (A) (A)
                 (A) (A) (A) (A) (A) (A) (A) (A) (A) (A) (A) (A)
                 (A) (A) (A) (A) (A) (A) (A) (A) (A) (A) (A) (A)
                 (A) (A) (A) (A) (A) (A) (A) (A) (A) (A) (A) (A)
                 (A) (A) (A) (A) (A) (A) (A) (A) (A) (A) (A) (A)
                 (A) (A)
 The electronic state of the initial guess is 1-A.
 Leave Link  401 at Wed May 13 20:29:23 2020, MaxMem= 1073741824 cpu:       3.8
 (Enter /home/matheus/.gaussian/g09/l502.exe)
 Closed shell SCF:
 Requested convergence on RMS density matrix=1.00D-08 within 128 cycles.
 Requested convergence on MAX density matrix=1.00D-06.
 Requested convergence on             energy=1.00D-06.
 No special actions if energy rises.
 Using DIIS extrapolation, IDIIS=  1040.
 Integral symmetry usage will be decided dynamically.
       126521 words used for storage of precomputed grid.
 IEnd=      305468 IEndB=      305468 NGot=  1073741824 MDV=  1073505667
 LenX=  1073505667 LenY=  1073452785
 Fock matrices will be formed incrementally for  20 cycles.

 Cycle   1  Pass 1  IDiag  1:
 FoFJK:  IHMeth= 1 ICntrl=     0 DoSepK=T KAlg= 1 I1Cent= 0 FoldK=F
 FoFCou: FMM=F IPFlag=           0 FMFlag=      100000 FMFlg1=           0
         NFxFlg=           0 DoJE=T BraDBF=F KetDBF=F FulRan=T
         Omega=  0.000000  0.000000  1.000000  0.000000  0.000000 ICntrl=     500 IOpCl=  0
         NMat0=    1 NMatS0=    1 NMatT0=    0 NMatD0=    1 NMtDS0=    0 NMtDT0=    0
         I1Cent=           0 NGrid=           0.
 Symmetry not used in FoFCou.
 E= -2904.63603705496    
 DIIS: error= 2.85D-02 at cycle   1 NSaved=   1.
 NSaved= 1 IEnMin= 1 EnMin= -2904.63603705496     IErMin= 1 ErrMin= 2.85D-02
 ErrMax= 2.85D-02 EMaxC= 1.00D-01 BMatC= 2.83D-01 BMatP= 2.83D-01
 IDIUse=3 WtCom= 7.15D-01 WtEn= 2.85D-01
 Coeff-Com:  0.100D+01
 Coeff-En:   0.100D+01
 Coeff:      0.100D+01
 Gap=     0.479 Goal=   None    Shift=    0.000
 GapD=    0.479 DampG=2.000 DampE=0.500 DampFc=1.0000 IDamp=-1.
 RMSDP=2.65D-03 MaxDP=1.52D-01              OVMax= 1.05D-01

 Cycle   2  Pass 1  IDiag  1:
 RMSU=  1.83D-03    CP:  1.02D+00
 FoFJK:  IHMeth= 1 ICntrl=     0 DoSepK=T KAlg= 1 I1Cent= 0 FoldK=F
 E= -2904.71049875775     Delta-E=       -0.074461702794 Rises=F Damp=F
 DIIS: error= 1.54D-02 at cycle   2 NSaved=   2.
 NSaved= 2 IEnMin= 2 EnMin= -2904.71049875775     IErMin= 2 ErrMin= 1.54D-02
 ErrMax= 1.54D-02 EMaxC= 1.00D-01 BMatC= 9.30D-02 BMatP= 2.83D-01
 IDIUse=3 WtCom= 8.46D-01 WtEn= 1.54D-01
 Coeff-Com:  0.359D+00 0.641D+00
 Coeff-En:   0.381D-01 0.962D+00
 Coeff:      0.310D+00 0.690D+00
 Gap=     0.444 Goal=   None    Shift=    0.000
 RMSDP=1.03D-03 MaxDP=6.27D-02 DE=-7.45D-02 OVMax= 3.18D-02

 Cycle   3  Pass 1  IDiag  1:
 RMSU=  3.27D-04    CP:  1.01D+00  6.56D-01
 FoFJK:  IHMeth= 1 ICntrl=     0 DoSepK=T KAlg= 1 I1Cent= 0 FoldK=F
 E= -2904.74121842919     Delta-E=       -0.030719671437 Rises=F Damp=F
 DIIS: error= 1.59D-03 at cycle   3 NSaved=   3.
 NSaved= 3 IEnMin= 3 EnMin= -2904.74121842919     IErMin= 3 ErrMin= 1.59D-03
 ErrMax= 1.59D-03 EMaxC= 1.00D-01 BMatC= 1.44D-03 BMatP= 9.30D-02
 IDIUse=3 WtCom= 9.84D-01 WtEn= 1.59D-02
 Coeff-Com:  0.831D-02 0.114D+00 0.878D+00
 Coeff-En:   0.000D+00 0.000D+00 0.100D+01
 Coeff:      0.818D-02 0.112D+00 0.880D+00
 Gap=     0.450 Goal=   None    Shift=    0.000
 RMSDP=1.58D-04 MaxDP=6.60D-03 DE=-3.07D-02 OVMax= 7.48D-03

 Cycle   4  Pass 1  IDiag  1:
 RMSU=  6.81D-05    CP:  1.02D+00  7.01D-01  1.09D+00
 FoFJK:  IHMeth= 1 ICntrl=     0 DoSepK=T KAlg= 1 I1Cent= 0 FoldK=F
 E= -2904.74180895071     Delta-E=       -0.000590521525 Rises=F Damp=F
 DIIS: error= 5.77D-04 at cycle   4 NSaved=   4.
 NSaved= 4 IEnMin= 4 EnMin= -2904.74180895071     IErMin= 4 ErrMin= 5.77D-04
 ErrMax= 5.77D-04 EMaxC= 1.00D-01 BMatC= 9.66D-05 BMatP= 1.44D-03
 IDIUse=3 WtCom= 9.94D-01 WtEn= 5.77D-03
 Coeff-Com: -0.122D-01 0.166D-01 0.326D+00 0.670D+00
 Coeff-En:   0.000D+00 0.000D+00 0.000D+00 0.100D+01
 Coeff:     -0.121D-01 0.166D-01 0.324D+00 0.672D+00
 Gap=     0.446 Goal=   None    Shift=    0.000
 RMSDP=3.79D-05 MaxDP=1.44D-03 DE=-5.91D-04 OVMax= 2.12D-03

 Cycle   5  Pass 1  IDiag  1:
 RMSU=  2.06D-05    CP:  1.02D+00  7.04D-01  1.14D+00  9.68D-01
 FoFJK:  IHMeth= 1 ICntrl=     0 DoSepK=T KAlg= 1 I1Cent= 0 FoldK=F
 E= -2904.74187142648     Delta-E=       -0.000062475769 Rises=F Damp=F
 DIIS: error= 1.81D-04 at cycle   5 NSaved=   5.
 NSaved= 5 IEnMin= 5 EnMin= -2904.74187142648     IErMin= 5 ErrMin= 1.81D-04
 ErrMax= 1.81D-04 EMaxC= 1.00D-01 BMatC= 8.78D-06 BMatP= 9.66D-05
 IDIUse=3 WtCom= 9.98D-01 WtEn= 1.81D-03
 Coeff-Com: -0.405D-02-0.687D-02-0.417D-02 0.208D+00 0.807D+00
 Coeff-En:   0.000D+00 0.000D+00 0.000D+00 0.000D+00 0.100D+01
 Coeff:     -0.404D-02-0.685D-02-0.416D-02 0.207D+00 0.808D+00
 Gap=     0.446 Goal=   None    Shift=    0.000
 RMSDP=1.65D-05 MaxDP=5.31D-04 DE=-6.25D-05 OVMax= 1.01D-03

 Cycle   6  Pass 1  IDiag  1:
 RMSU=  6.64D-06    CP:  1.02D+00  7.05D-01  1.16D+00  1.06D+00  1.02D+00
 FoFJK:  IHMeth= 1 ICntrl=     0 DoSepK=T KAlg= 1 I1Cent= 0 FoldK=F
 E= -2904.74187866812     Delta-E=       -0.000007241639 Rises=F Damp=F
 DIIS: error= 7.42D-05 at cycle   6 NSaved=   6.
 NSaved= 6 IEnMin= 6 EnMin= -2904.74187866812     IErMin= 6 ErrMin= 7.42D-05
 ErrMax= 7.42D-05 EMaxC= 1.00D-01 BMatC= 1.90D-06 BMatP= 8.78D-06
 IDIUse=1 WtCom= 1.00D+00 WtEn= 0.00D+00
 Coeff-Com: -0.649D-03-0.454D-02-0.289D-01 0.307D-01 0.364D+00 0.639D+00
 Coeff:     -0.649D-03-0.454D-02-0.289D-01 0.307D-01 0.364D+00 0.639D+00
 Gap=     0.446 Goal=   None    Shift=    0.000
 RMSDP=5.64D-06 MaxDP=1.90D-04 DE=-7.24D-06 OVMax= 3.80D-04

 Cycle   7  Pass 1  IDiag  1:
 RMSU=  2.43D-06    CP:  1.02D+00  7.06D-01  1.17D+00  1.09D+00  1.11D+00
                    CP:  9.36D-01
 FoFJK:  IHMeth= 1 ICntrl=     0 DoSepK=T KAlg= 1 I1Cent= 0 FoldK=F
 E= -2904.74188000740     Delta-E=       -0.000001339281 Rises=F Damp=F
 DIIS: error= 2.32D-05 at cycle   7 NSaved=   7.
 NSaved= 7 IEnMin= 7 EnMin= -2904.74188000740     IErMin= 7 ErrMin= 2.32D-05
 ErrMax= 2.32D-05 EMaxC= 1.00D-01 BMatC= 1.51D-07 BMatP= 1.90D-06
 IDIUse=1 WtCom= 1.00D+00 WtEn= 0.00D+00
 Coeff-Com:  0.165D-03-0.111D-02-0.926D-02-0.196D-01 0.335D-02 0.218D+00
 Coeff-Com:  0.808D+00
 Coeff:      0.165D-03-0.111D-02-0.926D-02-0.196D-01 0.335D-02 0.218D+00
 Coeff:      0.808D+00
 Gap=     0.446 Goal=   None    Shift=    0.000
 RMSDP=2.22D-06 MaxDP=6.73D-05 DE=-1.34D-06 OVMax= 1.33D-04

 Cycle   8  Pass 1  IDiag  1:
 RMSU=  6.36D-07    CP:  1.02D+00  7.06D-01  1.17D+00  1.10D+00  1.14D+00
                    CP:  1.05D+00  9.94D-01
 FoFJK:  IHMeth= 1 ICntrl=     0 DoSepK=T KAlg= 1 I1Cent= 0 FoldK=F
 E= -2904.74188015818     Delta-E=       -0.000000150775 Rises=F Damp=F
 DIIS: error= 3.67D-06 at cycle   8 NSaved=   8.
 NSaved= 8 IEnMin= 8 EnMin= -2904.74188015818     IErMin= 8 ErrMin= 3.67D-06
 ErrMax= 3.67D-06 EMaxC= 1.00D-01 BMatC= 2.86D-09 BMatP= 1.51D-07
 IDIUse=1 WtCom= 1.00D+00 WtEn= 0.00D+00
 Coeff-Com:  0.107D-04 0.354D-03 0.257D-02 0.593D-03-0.210D-01-0.582D-01
 Coeff-Com: -0.806D-01 0.116D+01
 Coeff:      0.107D-04 0.354D-03 0.257D-02 0.593D-03-0.210D-01-0.582D-01
 Coeff:     -0.806D-01 0.116D+01
 Gap=     0.446 Goal=   None    Shift=    0.000
 RMSDP=5.81D-07 MaxDP=1.61D-05 DE=-1.51D-07 OVMax= 5.77D-05

 Cycle   9  Pass 1  IDiag  1:
 RMSU=  1.41D-07    CP:  1.02D+00  7.06D-01  1.17D+00  1.10D+00  1.14D+00
                    CP:  1.08D+00  1.07D+00  1.37D+00
 FoFJK:  IHMeth= 1 ICntrl=     0 DoSepK=T KAlg= 1 I1Cent= 0 FoldK=F
 E= -2904.74188016707     Delta-E=       -0.000000008889 Rises=F Damp=F
 DIIS: error= 7.48D-07 at cycle   9 NSaved=   9.
 NSaved= 9 IEnMin= 9 EnMin= -2904.74188016707     IErMin= 9 ErrMin= 7.48D-07
 ErrMax= 7.48D-07 EMaxC= 1.00D-01 BMatC= 1.89D-10 BMatP= 2.86D-09
 IDIUse=1 WtCom= 1.00D+00 WtEn= 0.00D+00
 Coeff-Com: -0.292D-05 0.115D-03 0.683D-03 0.119D-02-0.102D-02-0.158D-01
 Coeff-Com: -0.533D-01 0.504D-01 0.102D+01
 Coeff:     -0.292D-05 0.115D-03 0.683D-03 0.119D-02-0.102D-02-0.158D-01
 Coeff:     -0.533D-01 0.504D-01 0.102D+01
 Gap=     0.446 Goal=   None    Shift=    0.000
 RMSDP=1.27D-07 MaxDP=4.15D-06 DE=-8.89D-09 OVMax= 1.39D-05

 Cycle  10  Pass 1  IDiag  1:
 RMSU=  4.50D-08    CP:  1.02D+00  7.06D-01  1.17D+00  1.10D+00  1.14D+00
                    CP:  1.08D+00  1.08D+00  1.45D+00  1.28D+00
 FoFJK:  IHMeth= 1 ICntrl=     0 DoSepK=T KAlg= 1 I1Cent= 0 FoldK=F
 E= -2904.74188016760     Delta-E=       -0.000000000533 Rises=F Damp=F
 DIIS: error= 2.47D-07 at cycle  10 NSaved=  10.
 NSaved=10 IEnMin=10 EnMin= -2904.74188016760     IErMin=10 ErrMin= 2.47D-07
 ErrMax= 2.47D-07 EMaxC= 1.00D-01 BMatC= 1.06D-11 BMatP= 1.89D-10
 IDIUse=1 WtCom= 1.00D+00 WtEn= 0.00D+00
 Coeff-Com:  0.493D-07-0.287D-04-0.198D-03-0.143D-03 0.115D-02 0.442D-02
 Coeff-Com:  0.102D-01-0.746D-01-0.513D-01 0.111D+01
 Coeff:      0.493D-07-0.287D-04-0.198D-03-0.143D-03 0.115D-02 0.442D-02
 Coeff:      0.102D-01-0.746D-01-0.513D-01 0.111D+01
 Gap=     0.446 Goal=   None    Shift=    0.000
 RMSDP=3.73D-08 MaxDP=9.63D-07 DE=-5.33D-10 OVMax= 4.17D-06

 Cycle  11  Pass 1  IDiag  1:
 RMSU=  1.06D-08    CP:  1.02D+00  7.06D-01  1.17D+00  1.10D+00  1.14D+00
                    CP:  1.08D+00  1.08D+00  1.46D+00  1.40D+00  1.27D+00
 FoFJK:  IHMeth= 1 ICntrl=     0 DoSepK=T KAlg= 1 I1Cent= 0 FoldK=F
 E= -2904.74188016763     Delta-E=       -0.000000000032 Rises=F Damp=F
 DIIS: error= 5.39D-08 at cycle  11 NSaved=  11.
 NSaved=11 IEnMin=11 EnMin= -2904.74188016763     IErMin=11 ErrMin= 5.39D-08
 ErrMax= 5.39D-08 EMaxC= 1.00D-01 BMatC= 8.77D-13 BMatP= 1.06D-11
 IDIUse=1 WtCom= 1.00D+00 WtEn= 0.00D+00
 Coeff-Com: -0.213D-07-0.118D-04-0.670D-04-0.971D-04 0.158D-03 0.153D-02
 Coeff-Com:  0.502D-02-0.104D-01-0.748D-01 0.589D-01 0.102D+01
 Coeff:     -0.213D-07-0.118D-04-0.670D-04-0.971D-04 0.158D-03 0.153D-02
 Coeff:      0.502D-02-0.104D-01-0.748D-01 0.589D-01 0.102D+01
 Gap=     0.446 Goal=   None    Shift=    0.000
 RMSDP=9.14D-09 MaxDP=2.37D-07 DE=-3.18D-11 OVMax= 1.21D-06

 SCF Done:  E(RLC-B+HF-LYP) =  -2904.74188017     A.U. after   11 cycles
             Convg  =    0.9142D-08             -V/T =  2.0017
 KE= 2.899825312713D+03 PE=-7.233585875753D+03 EE= 1.280422978217D+03
 Leave Link  502 at Wed May 13 20:29:58 2020, MaxMem= 1073741824 cpu:     279.5
 (Enter /home/matheus/.gaussian/g09/l601.exe)
 Copying SCF densities to generalized density rwf, IOpCl= 0 IROHF=0.

 **********************************************************************

            Population analysis using the SCF density.

 **********************************************************************

 Orbital symmetries:
       Occupied  (A) (A) (A) (A) (A) (A) (A) (A) (A) (A) (A) (A)
                 (A) (A) (A) (A) (A) (A) (A) (A) (A) (A) (A) (A)
                 (A) (A) (A)
       Virtual   (A) (A) (A) (A) (A) (A) (A) (A) (A) (A) (A) (A)
                 (A) (A) (A) (A) (A) (A) (A) (A) (A) (A) (A) (A)
                 (A) (A) (A) (A) (A) (A) (A) (A) (A) (A) (A) (A)
                 (A) (A) (A) (A) (A) (A) (A) (A) (A) (A) (A) (A)
                 (A) (A) (A) (A) (A) (A) (A) (A) (A) (A) (A) (A)
                 (A) (A) (A) (A) (A) (A) (A) (A) (A) (A) (A) (A)
                 (A) (A) (A) (A) (A) (A) (A) (A) (A) (A) (A) (A)
                 (A) (A) (A) (A) (A) (A) (A) (A) (A) (A) (A) (A)
                 (A) (A) (A) (A) (A) (A) (A) (A) (A) (A) (A) (A)
                 (A) (A) (A) (A) (A) (A) (A) (A) (A) (A) (A) (A)
                 (A) (A) (A) (A) (A) (A) (A) (A) (A) (A) (A) (A)
                 (A) (A) (A) (A) (A) (A) (A) (A) (A) (A) (A) (A)
                 (A) (A) (A) (A) (A) (A) (A) (A) (A) (A) (A) (A)
                 (A) (A) (A) (A) (A) (A) (A) (A) (A) (A) (A) (A)
                 (A) (A)
 The electronic state is 1-A.
 Alpha  occ. eigenvalues -- -511.25380 -66.72381 -60.40915 -60.40897 -60.40887
 Alpha  occ. eigenvalues --  -19.07210 -19.06846  -9.61536  -7.37033  -7.36982
 Alpha  occ. eigenvalues --   -7.36952  -3.33363  -3.33353  -3.33333  -3.33294
 Alpha  occ. eigenvalues --   -3.33291  -1.28212  -1.07485  -1.06192  -0.69333
 Alpha  occ. eigenvalues --   -0.64842  -0.56783  -0.52789  -0.52259  -0.51579
 Alpha  occ. eigenvalues --   -0.47331  -0.42042
 Alpha virt. eigenvalues --    0.02580   0.03493   0.07433   0.09095   0.10019
 Alpha virt. eigenvalues --    0.10485   0.12773   0.13327   0.15680   0.16526
 Alpha virt. eigenvalues --    0.17712   0.19098   0.19482   0.21396   0.22953
 Alpha virt. eigenvalues --    0.23892   0.25528   0.28238   0.31074   0.32887
 Alpha virt. eigenvalues --    0.33429   0.33770   0.35165   0.38378   0.39157
 Alpha virt. eigenvalues --    0.40694   0.41806   0.47209   0.52285   0.55408
 Alpha virt. eigenvalues --    0.56189   0.58757   0.62065   0.66561   0.67406
 Alpha virt. eigenvalues --    0.70740   0.71752   0.72013   0.73894   0.75777
 Alpha virt. eigenvalues --    0.76750   0.78474   0.79205   0.81151   0.81853
 Alpha virt. eigenvalues --    0.85176   0.85627   0.87257   0.89464   0.90862
 Alpha virt. eigenvalues --    0.92677   0.93659   0.96098   0.96318   0.99402
 Alpha virt. eigenvalues --    1.02124   1.02799   1.05791   1.07988   1.10006
 Alpha virt. eigenvalues --    1.10505   1.14378   1.16094   1.18505   1.22744
 Alpha virt. eigenvalues --    1.25399   1.32814   1.33216   1.38798   1.41965
 Alpha virt. eigenvalues --    1.42859   1.50376   1.53843   1.55132   1.60236
 Alpha virt. eigenvalues --    1.65352   1.75060   1.84037   1.86638   1.94855
 Alpha virt. eigenvalues --    1.99146   2.02022   2.09832   2.14301   2.15160
 Alpha virt. eigenvalues --    2.16902   2.19387   2.21852   2.23165   2.26106
 Alpha virt. eigenvalues --    2.26765   2.31810   2.32333   2.33178   2.36885
 Alpha virt. eigenvalues --    2.37912   2.40473   2.45073   2.47473   2.51057
 Alpha virt. eigenvalues --    2.51429   2.52186   2.54943   2.57851   2.59796
 Alpha virt. eigenvalues --    2.61654   2.63934   2.66351   2.67621   2.72581
 Alpha virt. eigenvalues --    2.74572   2.76805   2.83095   2.87720   2.88479
 Alpha virt. eigenvalues --    2.92903   3.05885   3.11539   3.15398   3.64681
 Alpha virt. eigenvalues --    3.68394   3.87193   3.99530   4.02766   4.06522
 Alpha virt. eigenvalues --    4.09148   4.16965   4.22745   4.26566   4.29404
 Alpha virt. eigenvalues --    4.45653   4.50073   4.53037   4.54427   4.70802
 Alpha virt. eigenvalues --    4.91694   4.99843   5.07803   5.12188   5.12386
 Alpha virt. eigenvalues --    5.26081   5.43044   5.84600   6.07046   6.10503
 Alpha virt. eigenvalues --    6.13089   6.33496   6.37535   6.43101   6.55147
 Alpha virt. eigenvalues --    6.64431   6.76031   6.78565   6.82868   6.85951
 Alpha virt. eigenvalues --    6.87176   6.90426   6.91228   6.98032   7.03238
 Alpha virt. eigenvalues --    7.04815   7.20131   7.26703   7.41786   7.76893
 Alpha virt. eigenvalues --    7.77743   8.06136   8.11777  13.89003  14.57003
          Condensed to atoms (all electrons):
              1          2          3          4          5
     1  O    8.196830  -0.171440   0.201685   0.001123  -0.033559
     2  O   -0.171440   8.178824   0.015688   0.219157  -0.012174
     3  H    0.201685   0.015688   0.572514   0.002251   0.004158
     4  H    0.001123   0.219157   0.002251   0.573477  -0.004650
     5  Kr  -0.033559  -0.012174   0.004158  -0.004650  36.033877
 Mulliken atomic charges:
              1
     1  O   -0.194639
     2  O   -0.230055
     3  H    0.203704
     4  H    0.208642
     5  Kr   0.012348
 Sum of Mulliken atomic charges =   0.00000
 Mulliken charges with hydrogens summed into heavy atoms:
              1
     1  O    0.009066
     2  O   -0.021414
     5  Kr   0.012348
 Sum of Mulliken charges with hydrogens summed into heavy atoms =   0.00000
          Condensed to fragments (all electrons):
     1      -0.012348
     2       0.012348
 Electronic spatial extent (au):  <R**2>=            490.2984
 Charge=              0.0000 electrons
 Dipole moment (field-independent basis, Debye):
    X=              0.7453    Y=             -0.3786    Z=              1.2311  Tot=              1.4880
 Quadrupole moment (field-independent basis, Debye-Ang):
   XX=            -30.0218   YY=            -28.4731   ZZ=            -30.0194
   XY=              3.5564   XZ=             -3.5096   YZ=             -1.3821
 Traceless Quadrupole moment (field-independent basis, Debye-Ang):
   XX=             -0.5171   YY=              1.0317   ZZ=             -0.5146
   XY=              3.5564   XZ=             -3.5096   YZ=             -1.3821
 Octapole moment (field-independent basis, Debye-Ang**2):
  XXX=             15.8541  YYY=             -0.9687  ZZZ=              0.7932  XYY=              4.7014
  XXY=            -13.6812  XXZ=              9.4977  XZZ=              6.6319  YZZ=             -1.2283
  YYZ=              1.6875  XYZ=              3.8554
 Hexadecapole moment (field-independent basis, Debye-Ang**3):
 XXXX=           -402.1430 YYYY=            -65.4005 ZZZZ=            -30.9894 XXXY=             38.7548
 XXXZ=            -26.5635 YYYX=              5.7657 YYYZ=             -1.8645 ZZZX=             -2.4664
 ZZZY=             -1.1668 XXYY=            -78.0180 XXZZ=            -74.9817 YYZZ=            -17.1850
 XXYZ=            -10.6112 YYXZ=             -4.4731 ZZXY=              2.7189
 N-N= 1.485957046553D+02 E-N=-7.233585868789D+03  KE= 2.899825312713D+03
 No NMR shielding tensors so no spin-rotation constants.
 Leave Link  601 at Wed May 13 20:29:59 2020, MaxMem= 1073741824 cpu:       0.9
 (Enter /home/matheus/.gaussian/g09/l122.exe)
 Counterpoise: doing DCBS calculation for fragment   1 NewBq=T
 Leave Link  122 at Wed May 13 20:29:59 2020, MaxMem= 1073741824 cpu:       0.0
 (Enter /home/matheus/.gaussian/g09/l301.exe)
 Basis read from rwf:  (5D, 7F)
 No pseudopotential information found on rwf file.
 There are   197 symmetry adapted basis functions of A   symmetry.
 Integral buffers will be    131072 words long.
 Raffenetti 2 integral format.
 Two-electron integral symmetry is turned on.
   197 basis functions,   415 primitive gaussians,   229 cartesian basis functions
     9 alpha electrons        9 beta electrons
       nuclear repulsion energy        36.6087755249 Hartrees.
 IExCor=10402 DFT=T Ex=LC-B+HF Corr=LYP ExCW=0 ScaHFX=  1.000000
 ScaDFX=  1.000000  1.000000  1.000000  1.000000 ScalE2=  1.000000  1.000000
 IRadAn=      5 IRanWt=     -1 IRanGd=            0 ICorTp=0
  HFx wShort=  0.000000 wLong=  0.470000 cFull=  0.000000 cShort=  0.000000 cLong=  1.000000
  DFx wShort=  0.000000 wLong=  0.470000 cFull=  0.000000 cShort=  0.000000 cLong=  1.000000
 NAtoms=    5 NActive=    5 NUniq=    5 SFac= 1.00D+00 NAtFMM=   60 NAOKFM=F Big=F
 No density basis found on file   718.
 Leave Link  301 at Wed May 13 20:29:59 2020, MaxMem= 1073741824 cpu:       0.2
 (Enter /home/matheus/.gaussian/g09/l302.exe)
 NPDir=0 NMtPBC=     1 NCelOv=     1 NCel=       1 NClECP=     1 NCelD=      1
         NCelK=      1 NCelE2=     1 NClLst=     1 CellRange=     0.0.
 One-electron integrals computed using PRISM.
 NBasis=   197 RedAO= T  NBF=   197
 NBsUse=   197 1.00D-06 NBFU=   197
 Precomputing XC quadrature grid using
 IXCGrd= 2 IRadAn=           5 IRanWt=          -1 IRanGd=           0 AccXCQ= 0.00D+00.
 NRdTot=     427 NPtTot=      123512 NUsed=      126579 NTot=      126611
 NSgBfM=   229   229   229   229   229 NAtAll=     5     5.
 Leave Link  302 at Wed May 13 20:29:59 2020, MaxMem= 1073741824 cpu:       1.1
 (Enter /home/matheus/.gaussian/g09/l303.exe)
 DipDrv:  MaxL=1.
 Leave Link  303 at Wed May 13 20:29:59 2020, MaxMem= 1073741824 cpu:       0.2
 (Enter /home/matheus/.gaussian/g09/l401.exe)
 Harris functional with IExCor=10402 diagonalized for initial guess.
 ExpMin= 2.53D-02 ExpMax= 1.17D+07 ExpMxC= 1.33D+04 IAcc=3 IRadAn=         5 AccDes= 0.00D+00
 HarFok:  IExCor=10402 AccDes= 0.00D+00 IRadAn=         5 IDoV= 1
 ScaDFX=  1.000000  1.000000  1.000000  1.000000
 FoFCou: FMM=F IPFlag=           0 FMFlag=      100000 FMFlg1=           0
         NFxFlg=           0 DoJE=T BraDBF=F KetDBF=T FulRan=T
         Omega=  0.000000  0.000000  1.000000  0.000000  0.000000 ICntrl=     500 IOpCl=  0
         NMat0=    1 NMatS0=    1 NMatT0=    0 NMatD0=    1 NMtDS0=    0 NMtDT0=    0
         I1Cent=           4 NGrid=           0.
 Petite list used in FoFCou.
 Harris En= -147.164277424267    
 Initial guess orbital symmetries:
       Occupied  (A) (A) (A) (A) (A) (A) (A) (A) (A)
       Virtual   (A) (A) (A) (A) (A) (A) (A) (A) (A) (A) (A) (A)
                 (A) (A) (A) (A) (A) (A) (A) (A) (A) (A) (A) (A)
                 (A) (A) (A) (A) (A) (A) (A) (A) (A) (A) (A) (A)
                 (A) (A) (A) (A) (A) (A) (A) (A) (A) (A) (A) (A)
                 (A) (A) (A) (A) (A) (A) (A) (A) (A) (A) (A) (A)
                 (A) (A) (A) (A) (A) (A) (A) (A) (A) (A) (A) (A)
                 (A) (A) (A) (A) (A) (A) (A) (A) (A) (A) (A) (A)
                 (A) (A) (A) (A) (A) (A) (A) (A) (A) (A) (A) (A)
                 (A) (A) (A) (A) (A) (A) (A) (A) (A) (A) (A) (A)
                 (A) (A) (A) (A) (A) (A) (A) (A) (A) (A) (A) (A)
                 (A) (A) (A) (A) (A) (A) (A) (A) (A) (A) (A) (A)
                 (A) (A) (A) (A) (A) (A) (A) (A) (A) (A) (A) (A)
                 (A) (A) (A) (A) (A) (A) (A) (A) (A) (A) (A) (A)
                 (A) (A) (A) (A) (A) (A) (A) (A) (A) (A) (A) (A)
                 (A) (A) (A) (A) (A) (A) (A) (A) (A) (A) (A) (A)
                 (A) (A) (A) (A) (A) (A) (A) (A)
 The electronic state of the initial guess is 1-A.
 Leave Link  401 at Wed May 13 20:29:59 2020, MaxMem= 1073741824 cpu:       4.2
 (Enter /home/matheus/.gaussian/g09/l502.exe)
 Closed shell SCF:
 Requested convergence on RMS density matrix=1.00D-08 within 128 cycles.
 Requested convergence on MAX density matrix=1.00D-06.
 Requested convergence on             energy=1.00D-06.
 No special actions if energy rises.
 Using DIIS extrapolation, IDIIS=  1040.
 Integral symmetry usage will be decided dynamically.
       126521 words used for storage of precomputed grid.
 IEnd=      305468 IEndB=      305468 NGot=  1073741824 MDV=  1073505667
 LenX=  1073505667 LenY=  1073452785
 Fock matrices will be formed incrementally for  20 cycles.

 Cycle   1  Pass 1  IDiag  1:
 FoFJK:  IHMeth= 1 ICntrl=     0 DoSepK=T KAlg= 1 I1Cent= 0 FoldK=F
 FoFCou: FMM=F IPFlag=           0 FMFlag=      100000 FMFlg1=           0
         NFxFlg=           0 DoJE=T BraDBF=F KetDBF=F FulRan=T
         Omega=  0.000000  0.000000  1.000000  0.000000  0.000000 ICntrl=     500 IOpCl=  0
         NMat0=    1 NMatS0=    1 NMatT0=    0 NMatD0=    1 NMtDS0=    0 NMtDT0=    0
         I1Cent=           0 NGrid=           0.
 Symmetry not used in FoFCou.
 E= -151.304915654838    
 DIIS: error= 1.05D-02 at cycle   1 NSaved=   1.
 NSaved= 1 IEnMin= 1 EnMin= -151.304915654838     IErMin= 1 ErrMin= 1.05D-02
 ErrMax= 1.05D-02 EMaxC= 1.00D-01 BMatC= 2.13D-02 BMatP= 2.13D-02
 IDIUse=3 WtCom= 8.95D-01 WtEn= 1.05D-01
 Coeff-Com:  0.100D+01
 Coeff-En:   0.100D+01
 Coeff:      0.100D+01
 Gap=     0.477 Goal=   None    Shift=    0.000
 GapD=    0.477 DampG=2.000 DampE=0.500 DampFc=1.0000 IDamp=-1.
 RMSDP=8.37D-04 MaxDP=2.81D-02              OVMax= 5.41D-02

 Cycle   2  Pass 1  IDiag  1:
 RMSU=  5.91D-04    CP:  1.00D+00
 FoFJK:  IHMeth= 1 ICntrl=     0 DoSepK=T KAlg= 1 I1Cent= 0 FoldK=F
 E= -151.322508147310     Delta-E=       -0.017592492471 Rises=F Damp=F
 DIIS: error= 4.53D-03 at cycle   2 NSaved=   2.
 NSaved= 2 IEnMin= 2 EnMin= -151.322508147310     IErMin= 2 ErrMin= 4.53D-03
 ErrMax= 4.53D-03 EMaxC= 1.00D-01 BMatC= 5.10D-03 BMatP= 2.13D-02
 IDIUse=3 WtCom= 9.55D-01 WtEn= 4.53D-02
 Coeff-Com:  0.281D+00 0.719D+00
 Coeff-En:   0.000D+00 0.100D+01
 Coeff:      0.268D+00 0.732D+00
 Gap=     0.438 Goal=   None    Shift=    0.000
 RMSDP=2.17D-04 MaxDP=6.63D-03 DE=-1.76D-02 OVMax= 1.46D-02

 Cycle   3  Pass 1  IDiag  1:
 RMSU=  1.53D-04    CP:  1.00D+00  1.00D+00
 FoFJK:  IHMeth= 1 ICntrl=     0 DoSepK=T KAlg= 1 I1Cent= 0 FoldK=F
 E= -151.325418912869     Delta-E=       -0.002910765559 Rises=F Damp=F
 DIIS: error= 1.65D-03 at cycle   3 NSaved=   3.
 NSaved= 3 IEnMin= 3 EnMin= -151.325418912869     IErMin= 3 ErrMin= 1.65D-03
 ErrMax= 1.65D-03 EMaxC= 1.00D-01 BMatC= 5.75D-04 BMatP= 5.10D-03
 IDIUse=3 WtCom= 9.84D-01 WtEn= 1.65D-02
 Coeff-Com:  0.143D-01 0.237D+00 0.749D+00
 Coeff-En:   0.000D+00 0.000D+00 0.100D+01
 Coeff:      0.140D-01 0.233D+00 0.753D+00
 Gap=     0.447 Goal=   None    Shift=    0.000
 RMSDP=1.04D-04 MaxDP=3.68D-03 DE=-2.91D-03 OVMax= 7.47D-03

 Cycle   4  Pass 1  IDiag  1:
 RMSU=  5.13D-05    CP:  1.00D+00  1.09D+00  9.59D-01
 FoFJK:  IHMeth= 1 ICntrl=     0 DoSepK=T KAlg= 1 I1Cent= 0 FoldK=F
 E= -151.325860915728     Delta-E=       -0.000442002859 Rises=F Damp=F
 DIIS: error= 2.99D-04 at cycle   4 NSaved=   4.
 NSaved= 4 IEnMin= 4 EnMin= -151.325860915728     IErMin= 4 ErrMin= 2.99D-04
 ErrMax= 2.99D-04 EMaxC= 1.00D-01 BMatC= 2.81D-05 BMatP= 5.75D-04
 IDIUse=3 WtCom= 9.97D-01 WtEn= 2.99D-03
 Coeff-Com: -0.213D-01-0.322D-01 0.118D+00 0.936D+00
 Coeff-En:   0.000D+00 0.000D+00 0.000D+00 0.100D+01
 Coeff:     -0.212D-01-0.321D-01 0.118D+00 0.936D+00
 Gap=     0.445 Goal=   None    Shift=    0.000
 RMSDP=3.88D-05 MaxDP=1.50D-03 DE=-4.42D-04 OVMax= 2.00D-03

 Cycle   5  Pass 1  IDiag  1:
 RMSU=  9.42D-06    CP:  1.00D+00  1.12D+00  1.08D+00  1.16D+00
 FoFJK:  IHMeth= 1 ICntrl=     0 DoSepK=T KAlg= 1 I1Cent= 0 FoldK=F
 E= -151.325891413907     Delta-E=       -0.000030498179 Rises=F Damp=F
 DIIS: error= 4.41D-05 at cycle   5 NSaved=   5.
 NSaved= 5 IEnMin= 5 EnMin= -151.325891413907     IErMin= 5 ErrMin= 4.41D-05
 ErrMax= 4.41D-05 EMaxC= 1.00D-01 BMatC= 4.28D-07 BMatP= 2.81D-05
 IDIUse=1 WtCom= 1.00D+00 WtEn= 0.00D+00
 Coeff-Com:  0.702D-03-0.579D-02-0.354D-01-0.613D-01 0.110D+01
 Coeff:      0.702D-03-0.579D-02-0.354D-01-0.613D-01 0.110D+01
 Gap=     0.445 Goal=   None    Shift=    0.000
 RMSDP=9.83D-06 MaxDP=3.92D-04 DE=-3.05D-05 OVMax= 6.68D-04

 Cycle   6  Pass 1  IDiag  1:
 RMSU=  1.84D-06    CP:  1.00D+00  1.12D+00  1.10D+00  1.25D+00  1.27D+00
 FoFJK:  IHMeth= 1 ICntrl=     0 DoSepK=T KAlg= 1 I1Cent= 0 FoldK=F
 E= -151.325892767257     Delta-E=       -0.000001353350 Rises=F Damp=F
 DIIS: error= 1.20D-05 at cycle   6 NSaved=   6.
 NSaved= 6 IEnMin= 6 EnMin= -151.325892767257     IErMin= 6 ErrMin= 1.20D-05
 ErrMax= 1.20D-05 EMaxC= 1.00D-01 BMatC= 2.27D-08 BMatP= 4.28D-07
 IDIUse=1 WtCom= 1.00D+00 WtEn= 0.00D+00
 Coeff-Com:  0.434D-03 0.956D-03-0.238D-02-0.227D-01-0.336D-01 0.106D+01
 Coeff:      0.434D-03 0.956D-03-0.238D-02-0.227D-01-0.336D-01 0.106D+01
 Gap=     0.445 Goal=   None    Shift=    0.000
 RMSDP=1.54D-06 MaxDP=4.43D-05 DE=-1.35D-06 OVMax= 1.39D-04

 Cycle   7  Pass 1  IDiag  1:
 RMSU=  3.85D-07    CP:  1.00D+00  1.12D+00  1.10D+00  1.27D+00  1.32D+00
                    CP:  1.32D+00
 FoFJK:  IHMeth= 1 ICntrl=     0 DoSepK=T KAlg= 1 I1Cent= 0 FoldK=F
 E= -151.325892834381     Delta-E=       -0.000000067124 Rises=F Damp=F
 DIIS: error= 2.49D-06 at cycle   7 NSaved=   7.
 NSaved= 7 IEnMin= 7 EnMin= -151.325892834381     IErMin= 7 ErrMin= 2.49D-06
 ErrMax= 2.49D-06 EMaxC= 1.00D-01 BMatC= 1.44D-09 BMatP= 2.27D-08
 IDIUse=1 WtCom= 1.00D+00 WtEn= 0.00D+00
 Coeff-Com: -0.123D-04 0.360D-03 0.182D-02 0.301D-02-0.620D-01-0.731D-01
 Coeff-Com:  0.113D+01
 Coeff:     -0.123D-04 0.360D-03 0.182D-02 0.301D-02-0.620D-01-0.731D-01
 Coeff:      0.113D+01
 Gap=     0.445 Goal=   None    Shift=    0.000
 RMSDP=4.01D-07 MaxDP=1.17D-05 DE=-6.71D-08 OVMax= 4.65D-05

 Cycle   8  Pass 1  IDiag  1:
 RMSU=  1.34D-07    CP:  1.00D+00  1.12D+00  1.10D+00  1.27D+00  1.32D+00
                    CP:  1.43D+00  1.31D+00
 FoFJK:  IHMeth= 1 ICntrl=     0 DoSepK=T KAlg= 1 I1Cent= 0 FoldK=F
 E= -151.325892840092     Delta-E=       -0.000000005711 Rises=F Damp=F
 DIIS: error= 5.88D-07 at cycle   8 NSaved=   8.
 NSaved= 8 IEnMin= 8 EnMin= -151.325892840092     IErMin= 8 ErrMin= 5.88D-07
 ErrMax= 5.88D-07 EMaxC= 1.00D-01 BMatC= 7.14D-11 BMatP= 1.44D-09
 IDIUse=1 WtCom= 1.00D+00 WtEn= 0.00D+00
 Coeff-Com: -0.801D-05-0.143D-04-0.901D-04 0.266D-03 0.603D-02-0.328D-01
 Coeff-Com: -0.720D-01 0.110D+01
 Coeff:     -0.801D-05-0.143D-04-0.901D-04 0.266D-03 0.603D-02-0.328D-01
 Coeff:     -0.720D-01 0.110D+01
 Gap=     0.445 Goal=   None    Shift=    0.000
 RMSDP=9.48D-08 MaxDP=2.26D-06 DE=-5.71D-09 OVMax= 8.95D-06

 Cycle   9  Pass 1  IDiag  1:
 RMSU=  2.53D-08    CP:  1.00D+00  1.12D+00  1.10D+00  1.27D+00  1.32D+00
                    CP:  1.43D+00  1.39D+00  1.30D+00
 FoFJK:  IHMeth= 1 ICntrl=     0 DoSepK=T KAlg= 1 I1Cent= 0 FoldK=F
 E= -151.325892840309     Delta-E=       -0.000000000217 Rises=F Damp=F
 DIIS: error= 3.50D-07 at cycle   9 NSaved=   9.
 NSaved= 9 IEnMin= 9 EnMin= -151.325892840309     IErMin= 9 ErrMin= 3.50D-07
 ErrMax= 3.50D-07 EMaxC= 1.00D-01 BMatC= 3.21D-11 BMatP= 7.14D-11
 IDIUse=1 WtCom= 1.00D+00 WtEn= 0.00D+00
 Coeff-Com: -0.176D-05-0.277D-04-0.182D-03-0.155D-03 0.762D-02-0.107D-01
 Coeff-Com: -0.116D+00 0.519D+00 0.601D+00
 Coeff:     -0.176D-05-0.277D-04-0.182D-03-0.155D-03 0.762D-02-0.107D-01
 Coeff:     -0.116D+00 0.519D+00 0.601D+00
 Gap=     0.445 Goal=   None    Shift=    0.000
 RMSDP=2.21D-08 MaxDP=7.47D-07 DE=-2.17D-10 OVMax= 1.90D-06

 Cycle  10  Pass 1  IDiag  1:
 RMSU=  1.05D-08    CP:  1.00D+00  1.12D+00  1.10D+00  1.27D+00  1.32D+00
                    CP:  1.43D+00  1.41D+00  1.37D+00  9.61D-01
 FoFJK:  IHMeth= 1 ICntrl=     0 DoSepK=T KAlg= 1 I1Cent= 0 FoldK=F
 E= -151.325892840337     Delta-E=       -0.000000000028 Rises=F Damp=F
 DIIS: error= 9.94D-08 at cycle  10 NSaved=  10.
 NSaved=10 IEnMin=10 EnMin= -151.325892840337     IErMin=10 ErrMin= 9.94D-08
 ErrMax= 9.94D-08 EMaxC= 1.00D-01 BMatC= 3.26D-12 BMatP= 3.21D-11
 IDIUse=1 WtCom= 1.00D+00 WtEn= 0.00D+00
 Coeff-Com:  0.194D-05-0.534D-05-0.598D-04-0.177D-03 0.196D-02 0.304D-02
 Coeff-Com: -0.309D-01-0.403D-01 0.217D+00 0.849D+00
 Coeff:      0.194D-05-0.534D-05-0.598D-04-0.177D-03 0.196D-02 0.304D-02
 Coeff:     -0.309D-01-0.403D-01 0.217D+00 0.849D+00
 Gap=     0.445 Goal=   None    Shift=    0.000
 RMSDP=1.09D-08 MaxDP=3.00D-07 DE=-2.75D-11 OVMax= 1.18D-06

 Cycle  11  Pass 1  IDiag  1:
 RMSU=  2.48D-09    CP:  1.00D+00  1.12D+00  1.10D+00  1.27D+00  1.32D+00
                    CP:  1.43D+00  1.41D+00  1.39D+00  1.16D+00  1.09D+00
 FoFJK:  IHMeth= 1 ICntrl=     0 DoSepK=T KAlg= 1 I1Cent= 0 FoldK=F
 E= -151.325892840341     Delta-E=       -0.000000000005 Rises=F Damp=F
 DIIS: error= 2.41D-08 at cycle  11 NSaved=  11.
 NSaved=11 IEnMin=11 EnMin= -151.325892840341     IErMin=11 ErrMin= 2.41D-08
 ErrMax= 2.41D-08 EMaxC= 1.00D-01 BMatC= 9.93D-14 BMatP= 3.26D-12
 IDIUse=1 WtCom= 1.00D+00 WtEn= 0.00D+00
 Coeff-Com:  0.230D-08 0.273D-05 0.151D-04 0.950D-05-0.561D-03 0.235D-03
 Coeff-Com:  0.941D-02-0.142D-01-0.835D-01-0.183D+00 0.127D+01
 Coeff:      0.230D-08 0.273D-05 0.151D-04 0.950D-05-0.561D-03 0.235D-03
 Coeff:      0.941D-02-0.142D-01-0.835D-01-0.183D+00 0.127D+01
 Gap=     0.445 Goal=   None    Shift=    0.000
 RMSDP=4.01D-09 MaxDP=7.02D-08 DE=-4.77D-12 OVMax= 6.32D-07

 SCF Done:  E(RLC-B+HF-LYP) =  -151.325892840     A.U. after   11 cycles
             Convg  =    0.4014D-08             -V/T =  2.0058
 KE= 1.504591833829D+02 PE=-4.313913324725D+02 EE= 9.299748072431D+01
 Leave Link  502 at Wed May 13 20:30:32 2020, MaxMem= 1073741824 cpu:     258.1
 (Enter /home/matheus/.gaussian/g09/l601.exe)
 Copying SCF densities to generalized density rwf, IOpCl= 0 IROHF=0.

 **********************************************************************

            Population analysis using the SCF density.

 **********************************************************************

 Orbital symmetries:
       Occupied  (A) (A) (A) (A) (A) (A) (A) (A) (A)
       Virtual   (A) (A) (A) (A) (A) (A) (A) (A) (A) (A) (A) (A)
                 (A) (A) (A) (A) (A) (A) (A) (A) (A) (A) (A) (A)
                 (A) (A) (A) (A) (A) (A) (A) (A) (A) (A) (A) (A)
                 (A) (A) (A) (A) (A) (A) (A) (A) (A) (A) (A) (A)
                 (A) (A) (A) (A) (A) (A) (A) (A) (A) (A) (A) (A)
                 (A) (A) (A) (A) (A) (A) (A) (A) (A) (A) (A) (A)
                 (A) (A) (A) (A) (A) (A) (A) (A) (A) (A) (A) (A)
                 (A) (A) (A) (A) (A) (A) (A) (A) (A) (A) (A) (A)
                 (A) (A) (A) (A) (A) (A) (A) (A) (A) (A) (A) (A)
                 (A) (A) (A) (A) (A) (A) (A) (A) (A) (A) (A) (A)
                 (A) (A) (A) (A) (A) (A) (A) (A) (A) (A) (A) (A)
                 (A) (A) (A) (A) (A) (A) (A) (A) (A) (A) (A) (A)
                 (A) (A) (A) (A) (A) (A) (A) (A) (A) (A) (A) (A)
                 (A) (A) (A) (A) (A) (A) (A) (A) (A) (A) (A) (A)
                 (A) (A) (A) (A) (A) (A) (A) (A) (A) (A) (A) (A)
                 (A) (A) (A) (A) (A) (A) (A) (A)
 The electronic state is 1-A.
 Alpha  occ. eigenvalues --  -19.07384 -19.07382  -1.28409  -1.06611  -0.69438
 Alpha  occ. eigenvalues --   -0.64362  -0.56737  -0.47769  -0.42307
 Alpha virt. eigenvalues --    0.02189   0.03085   0.06772   0.08378   0.09918
 Alpha virt. eigenvalues --    0.10158   0.10443   0.13134   0.15792   0.16170
 Alpha virt. eigenvalues --    0.18185   0.18325   0.20369   0.22267   0.24353
 Alpha virt. eigenvalues --    0.25907   0.29357   0.30362   0.31601   0.32311
 Alpha virt. eigenvalues --    0.33710   0.37566   0.37994   0.39470   0.40098
 Alpha virt. eigenvalues --    0.42102   0.43527   0.46748   0.47768   0.48909
 Alpha virt. eigenvalues --    0.53892   0.56738   0.59153   0.62374   0.67688
 Alpha virt. eigenvalues --    0.70446   0.72945   0.73724   0.75416   0.77062
 Alpha virt. eigenvalues --    0.79217   0.81100   0.86721   0.88766   0.89455
 Alpha virt. eigenvalues --    0.89806   0.92698   0.94268   0.96034   0.98272
 Alpha virt. eigenvalues --    0.98995   1.02831   1.04533   1.07509   1.10451
 Alpha virt. eigenvalues --    1.12036   1.14621   1.17355   1.21994   1.23671
 Alpha virt. eigenvalues --    1.25135   1.29500   1.30706   1.32036   1.32985
 Alpha virt. eigenvalues --    1.33705   1.35051   1.36248   1.37078   1.38131
 Alpha virt. eigenvalues --    1.44912   1.49812   1.52141   1.53852   1.55738
 Alpha virt. eigenvalues --    1.58272   1.64142   1.66936   1.68825   1.79061
 Alpha virt. eigenvalues --    1.82900   1.86636   1.88245   1.96862   2.01723
 Alpha virt. eigenvalues --    2.09042   2.12308   2.16454   2.19008   2.22844
 Alpha virt. eigenvalues --    2.29399   2.30974   2.32427   2.36967   2.44448
 Alpha virt. eigenvalues --    2.47549   2.52954   2.54732   2.64347   2.66400
 Alpha virt. eigenvalues --    2.68168   2.75657   2.84747   2.86956   2.90495
 Alpha virt. eigenvalues --    3.04962   3.09686   3.12490   3.25626   3.30056
 Alpha virt. eigenvalues --    3.40882   3.55138   3.64173   3.68911   3.78314
 Alpha virt. eigenvalues --    3.78420   3.81341   3.82185   3.82621   3.82787
 Alpha virt. eigenvalues --    3.86125   3.89183   3.90497   3.94084   3.96178
 Alpha virt. eigenvalues --    4.00525   4.03125   4.07066   4.08210   4.11620
 Alpha virt. eigenvalues --    4.18203   4.23767   4.26158   4.30858   4.35499
 Alpha virt. eigenvalues --    4.48099   4.53691   4.55157   4.70821   4.92295
 Alpha virt. eigenvalues --    4.99942   5.07904   5.12346   5.12626   5.26515
 Alpha virt. eigenvalues --    5.42862   5.84353   6.06982   6.10368   6.12776
 Alpha virt. eigenvalues --    6.33484   6.37514   6.42962   6.55044   6.64267
 Alpha virt. eigenvalues --    6.75800   6.78256   6.82698   6.85551   6.86880
 Alpha virt. eigenvalues --    6.90282   6.91037   6.97865   7.03146   7.04614
 Alpha virt. eigenvalues --    7.19938   7.26340   7.41669   7.76712   7.77513
 Alpha virt. eigenvalues --    8.05963   8.11109  10.89516  13.88906  14.55460
 Alpha virt. eigenvalues --   14.83111  14.88116  15.09967  29.02888  29.03325
 Alpha virt. eigenvalues --   29.07765  29.13363  29.22838  49.10615 148.31207
 Alpha virt. eigenvalues --  148.38292 148.70692 752.51352
          Condensed to atoms (all electrons):
              1          2          3          4          5
     1  O    8.183558  -0.167266   0.193899  -0.000555   0.000342
     2  O   -0.167266   8.159170   0.015284   0.212745   0.000116
     3  H    0.193899   0.015284   0.577710   0.003690   0.000061
     4  H   -0.000555   0.212745   0.003690   0.572213  -0.005050
     5  Kr   0.000342   0.000116   0.000061  -0.005050   0.000817
 Mulliken atomic charges:
              1
     1  O   -0.209978
     2  O   -0.220050
     3  H    0.209355
     4  H    0.216958
     5  Kr   0.003715
 Sum of Mulliken atomic charges =   0.00000
 Mulliken charges with hydrogens summed into heavy atoms:
              1
     1  O   -0.000623
     2  O   -0.003092
     5  Kr   0.003715
 Sum of Mulliken charges with hydrogens summed into heavy atoms =   0.00000
          Condensed to fragments (all electrons):
     1      -0.003715
     2       0.003715
 Electronic spatial extent (au):  <R**2>=            323.7508
 Charge=              0.0000 electrons
 Dipole moment (field-independent basis, Debye):
    X=              0.5708    Y=             -0.0973    Z=              1.2769  Tot=              1.4021
 Quadrupole moment (field-independent basis, Debye-Ang):
   XX=            -12.2403   YY=            -10.7519   ZZ=            -12.3592
   XY=              3.7240   XZ=             -3.4732   YZ=             -1.3821
 Traceless Quadrupole moment (field-independent basis, Debye-Ang):
   XX=             -0.4565   YY=              1.0319   ZZ=             -0.5754
   XY=              3.7240   XZ=             -3.4732   YZ=             -1.3821
 Octapole moment (field-independent basis, Debye-Ang**2):
  XXX=             67.6168  YYY=             -1.4323  ZZZ=              1.0266  XYY=             22.1620
  XXY=            -13.6065  XXZ=              9.6079  XZZ=             24.1482  YZZ=             -1.3842
  YYZ=              1.7633  XYZ=              3.8554
 Hexadecapole moment (field-independent basis, Debye-Ang**3):
 XXXX=           -276.8809 YYYY=            -46.6555 ZZZZ=            -12.3519 XXXY=             38.1608
 XXXZ=            -26.3366 YYYX=              5.2765 YYYZ=             -1.8662 ZZZX=             -2.2441
 ZZZY=             -1.1692 XXYY=            -54.0882 XXZZ=            -51.2133 YYZZ=            -10.9481
 XXYZ=            -10.6215 YYXZ=             -4.3929 ZZXY=              2.5193
 N-N= 3.660877552490D+01 E-N=-4.313913323602D+02  KE= 1.504591833829D+02
 No NMR shielding tensors so no spin-rotation constants.
 Leave Link  601 at Wed May 13 20:30:32 2020, MaxMem= 1073741824 cpu:       0.7
 (Enter /home/matheus/.gaussian/g09/l122.exe)
 Counterpoise: doing DCBS calculation for fragment   2 NewBq=T
 Leave Link  122 at Wed May 13 20:30:32 2020, MaxMem= 1073741824 cpu:       0.0
 (Enter /home/matheus/.gaussian/g09/l301.exe)
 Basis read from rwf:  (5D, 7F)
 No pseudopotential information found on rwf file.
 There are   197 symmetry adapted basis functions of A   symmetry.
 Integral buffers will be    131072 words long.
 Raffenetti 2 integral format.
 Two-electron integral symmetry is turned on.
   197 basis functions,   415 primitive gaussians,   229 cartesian basis functions
    18 alpha electrons       18 beta electrons
       nuclear repulsion energy         0.0000000000 Hartrees.
 IExCor=10402 DFT=T Ex=LC-B+HF Corr=LYP ExCW=0 ScaHFX=  1.000000
 ScaDFX=  1.000000  1.000000  1.000000  1.000000 ScalE2=  1.000000  1.000000
 IRadAn=      5 IRanWt=     -1 IRanGd=            0 ICorTp=0
  HFx wShort=  0.000000 wLong=  0.470000 cFull=  0.000000 cShort=  0.000000 cLong=  1.000000
  DFx wShort=  0.000000 wLong=  0.470000 cFull=  0.000000 cShort=  0.000000 cLong=  1.000000
 NAtoms=    5 NActive=    5 NUniq=    5 SFac= 1.00D+00 NAtFMM=   60 NAOKFM=F Big=F
 No density basis found on file   718.
 Leave Link  301 at Wed May 13 20:30:32 2020, MaxMem= 1073741824 cpu:       0.2
 (Enter /home/matheus/.gaussian/g09/l302.exe)
 NPDir=0 NMtPBC=     1 NCelOv=     1 NCel=       1 NClECP=     1 NCelD=      1
         NCelK=      1 NCelE2=     1 NClLst=     1 CellRange=     0.0.
 One-electron integrals computed using PRISM.
 NBasis=   197 RedAO= T  NBF=   197
 NBsUse=   197 1.00D-06 NBFU=   197
 Precomputing XC quadrature grid using
 IXCGrd= 2 IRadAn=           5 IRanWt=          -1 IRanGd=           0 AccXCQ= 0.00D+00.
 NRdTot=     427 NPtTot=      123512 NUsed=      126579 NTot=      126611
 NSgBfM=   229   229   229   229   229 NAtAll=     5     5.
 Leave Link  302 at Wed May 13 20:30:32 2020, MaxMem= 1073741824 cpu:       0.9
 (Enter /home/matheus/.gaussian/g09/l303.exe)
 DipDrv:  MaxL=1.
 Leave Link  303 at Wed May 13 20:30:32 2020, MaxMem= 1073741824 cpu:       0.2
 (Enter /home/matheus/.gaussian/g09/l401.exe)
 Harris functional with IExCor=10402 diagonalized for initial guess.
 ExpMin= 2.53D-02 ExpMax= 1.17D+07 ExpMxC= 1.33D+04 IAcc=3 IRadAn=         5 AccDes= 0.00D+00
 HarFok:  IExCor=10402 AccDes= 0.00D+00 IRadAn=         5 IDoV= 1
 ScaDFX=  1.000000  1.000000  1.000000  1.000000
 FoFCou: FMM=F IPFlag=           0 FMFlag=      100000 FMFlg1=           0
         NFxFlg=           0 DoJE=T BraDBF=F KetDBF=T FulRan=T
         Omega=  0.000000  0.000000  1.000000  0.000000  0.000000 ICntrl=     500 IOpCl=  0
         NMat0=    1 NMatS0=    1 NMatT0=    0 NMatD0=    1 NMtDS0=    0 NMtDT0=    0
         I1Cent=           4 NGrid=           0.
 Petite list used in FoFCou.
 Harris En= -2744.51538165088    
 Initial guess orbital symmetries:
       Occupied  (A) (A) (A) (A) (A) (A) (A) (A) (A) (A) (A) (A)
                 (A) (A) (A) (A) (A) (A)
       Virtual   (A) (A) (A) (A) (A) (A) (A) (A) (A) (A) (A) (A)
                 (A) (A) (A) (A) (A) (A) (A) (A) (A) (A) (A) (A)
                 (A) (A) (A) (A) (A) (A) (A) (A) (A) (A) (A) (A)
                 (A) (A) (A) (A) (A) (A) (A) (A) (A) (A) (A) (A)
                 (A) (A) (A) (A) (A) (A) (A) (A) (A) (A) (A) (A)
                 (A) (A) (A) (A) (A) (A) (A) (A) (A) (A) (A) (A)
                 (A) (A) (A) (A) (A) (A) (A) (A) (A) (A) (A) (A)
                 (A) (A) (A) (A) (A) (A) (A) (A) (A) (A) (A) (A)
                 (A) (A) (A) (A) (A) (A) (A) (A) (A) (A) (A) (A)
                 (A) (A) (A) (A) (A) (A) (A) (A) (A) (A) (A) (A)
                 (A) (A) (A) (A) (A) (A) (A) (A) (A) (A) (A) (A)
                 (A) (A) (A) (A) (A) (A) (A) (A) (A) (A) (A) (A)
                 (A) (A) (A) (A) (A) (A) (A) (A) (A) (A) (A) (A)
                 (A) (A) (A) (A) (A) (A) (A) (A) (A) (A) (A) (A)
                 (A) (A) (A) (A) (A) (A) (A) (A) (A) (A) (A)
 The electronic state of the initial guess is 1-A.
 Leave Link  401 at Wed May 13 20:30:32 2020, MaxMem= 1073741824 cpu:       3.8
 (Enter /home/matheus/.gaussian/g09/l502.exe)
 Closed shell SCF:
 Requested convergence on RMS density matrix=1.00D-08 within 128 cycles.
 Requested convergence on MAX density matrix=1.00D-06.
 Requested convergence on             energy=1.00D-06.
 No special actions if energy rises.
 Using DIIS extrapolation, IDIIS=  1040.
 Integral symmetry usage will be decided dynamically.
       126521 words used for storage of precomputed grid.
 IEnd=      305468 IEndB=      305468 NGot=  1073741824 MDV=  1073505667
 LenX=  1073505667 LenY=  1073452785
 Fock matrices will be formed incrementally for  20 cycles.

 Cycle   1  Pass 1  IDiag  1:
 FoFJK:  IHMeth= 1 ICntrl=     0 DoSepK=T KAlg= 1 I1Cent= 0 FoldK=F
 FoFCou: FMM=F IPFlag=           0 FMFlag=      100000 FMFlg1=           0
         NFxFlg=           0 DoJE=T BraDBF=F KetDBF=F FulRan=T
         Omega=  0.000000  0.000000  1.000000  0.000000  0.000000 ICntrl=     500 IOpCl=  0
         NMat0=    1 NMatS0=    1 NMatT0=    0 NMatD0=    1 NMtDS0=    0 NMtDT0=    0
         I1Cent=           0 NGrid=           0.
 Symmetry not used in FoFCou.
 E= -2753.33349725565    
 DIIS: error= 2.84D-02 at cycle   1 NSaved=   1.
 NSaved= 1 IEnMin= 1 EnMin= -2753.33349725565     IErMin= 1 ErrMin= 2.84D-02
 ErrMax= 2.84D-02 EMaxC= 1.00D-01 BMatC= 2.61D-01 BMatP= 2.61D-01
 IDIUse=3 WtCom= 7.16D-01 WtEn= 2.84D-01
 Coeff-Com:  0.100D+01
 Coeff-En:   0.100D+01
 Coeff:      0.100D+01
 Gap=     0.618 Goal=   None    Shift=    0.000
 GapD=    0.618 DampG=2.000 DampE=0.500 DampFc=1.0000 IDamp=-1.
 RMSDP=2.49D-03 MaxDP=1.52D-01              OVMax= 1.05D-01

 Cycle   2  Pass 1  IDiag  1:
 RMSU=  1.70D-03    CP:  1.03D+00
 FoFJK:  IHMeth= 1 ICntrl=     0 DoSepK=T KAlg= 1 I1Cent= 0 FoldK=F
 E= -2753.38946731151     Delta-E=       -0.055970055866 Rises=F Damp=F
 DIIS: error= 1.54D-02 at cycle   2 NSaved=   2.
 NSaved= 2 IEnMin= 2 EnMin= -2753.38946731151     IErMin= 2 ErrMin= 1.54D-02
 ErrMax= 1.54D-02 EMaxC= 1.00D-01 BMatC= 8.81D-02 BMatP= 2.61D-01
 IDIUse=3 WtCom= 8.46D-01 WtEn= 1.54D-01
 Coeff-Com:  0.365D+00 0.635D+00
 Coeff-En:   0.130D+00 0.870D+00
 Coeff:      0.328D+00 0.672D+00
 Gap=     0.538 Goal=   None    Shift=    0.000
 RMSDP=9.83D-04 MaxDP=6.11D-02 DE=-5.60D-02 OVMax= 3.14D-02

 Cycle   3  Pass 1  IDiag  1:
 RMSU=  1.75D-04    CP:  1.02D+00  6.17D-01
 FoFJK:  IHMeth= 1 ICntrl=     0 DoSepK=T KAlg= 1 I1Cent= 0 FoldK=F
 E= -2753.41748791376     Delta-E=       -0.028020602248 Rises=F Damp=F
 DIIS: error= 1.14D-03 at cycle   3 NSaved=   3.
 NSaved= 3 IEnMin= 3 EnMin= -2753.41748791376     IErMin= 3 ErrMin= 1.14D-03
 ErrMax= 1.14D-03 EMaxC= 1.00D-01 BMatC= 6.14D-04 BMatP= 8.81D-02
 IDIUse=3 WtCom= 9.89D-01 WtEn= 1.14D-02
 Coeff-Com: -0.645D-02 0.648D-01 0.942D+00
 Coeff-En:   0.000D+00 0.000D+00 0.100D+01
 Coeff:     -0.637D-02 0.640D-01 0.942D+00
 Gap=     0.538 Goal=   None    Shift=    0.000
 RMSDP=9.77D-05 MaxDP=5.20D-03 DE=-2.80D-02 OVMax= 3.33D-03

 Cycle   4  Pass 1  IDiag  1:
 RMSU=  3.74D-05    CP:  1.02D+00  6.48D-01  1.14D+00
 FoFJK:  IHMeth= 1 ICntrl=     0 DoSepK=T KAlg= 1 I1Cent= 0 FoldK=F
 E= -2753.41767836819     Delta-E=       -0.000190454429 Rises=F Damp=F
 DIIS: error= 6.69D-05 at cycle   4 NSaved=   4.
 NSaved= 4 IEnMin= 4 EnMin= -2753.41767836819     IErMin= 4 ErrMin= 6.69D-05
 ErrMax= 6.69D-05 EMaxC= 1.00D-01 BMatC= 1.98D-06 BMatP= 6.14D-04
 IDIUse=1 WtCom= 1.00D+00 WtEn= 0.00D+00
 Coeff-Com: -0.144D-02 0.127D-03-0.608D-02 0.101D+01
 Coeff:     -0.144D-02 0.127D-03-0.608D-02 0.101D+01
 Gap=     0.539 Goal=   None    Shift=    0.000
 RMSDP=1.40D-05 MaxDP=5.46D-04 DE=-1.90D-04 OVMax= 9.19D-04

 Cycle   5  Pass 1  IDiag  1:
 RMSU=  6.01D-06    CP:  1.02D+00  6.49D-01  1.17D+00  1.05D+00
 FoFJK:  IHMeth= 1 ICntrl=     0 DoSepK=T KAlg= 1 I1Cent= 0 FoldK=F
 E= -2753.41768230045     Delta-E=       -0.000003932260 Rises=F Damp=F
 DIIS: error= 2.40D-05 at cycle   5 NSaved=   5.
 NSaved= 5 IEnMin= 5 EnMin= -2753.41768230045     IErMin= 5 ErrMin= 2.40D-05
 ErrMax= 2.40D-05 EMaxC= 1.00D-01 BMatC= 1.59D-07 BMatP= 1.98D-06
 IDIUse=1 WtCom= 1.00D+00 WtEn= 0.00D+00
 Coeff-Com: -0.531D-04-0.405D-02-0.331D-01-0.722D-01 0.111D+01
 Coeff:     -0.531D-04-0.405D-02-0.331D-01-0.722D-01 0.111D+01
 Gap=     0.538 Goal=   None    Shift=    0.000
 RMSDP=4.57D-06 MaxDP=1.86D-04 DE=-3.93D-06 OVMax= 1.98D-04

 Cycle   6  Pass 1  IDiag  1:
 RMSU=  3.80D-07    CP:  1.02D+00  6.49D-01  1.19D+00  1.10D+00  1.15D+00
 FoFJK:  IHMeth= 1 ICntrl=     0 DoSepK=T KAlg= 1 I1Cent= 0 FoldK=F
 E= -2753.41768250830     Delta-E=       -0.000000207850 Rises=F Damp=F
 DIIS: error= 5.40D-07 at cycle   6 NSaved=   6.
 NSaved= 6 IEnMin= 6 EnMin= -2753.41768250830     IErMin= 6 ErrMin= 5.40D-07
 ErrMax= 5.40D-07 EMaxC= 1.00D-01 BMatC= 1.01D-10 BMatP= 1.59D-07
 IDIUse=1 WtCom= 1.00D+00 WtEn= 0.00D+00
 Coeff-Com:  0.721D-05 0.336D-03 0.302D-02-0.297D-03-0.775D-01 0.107D+01
 Coeff:      0.721D-05 0.336D-03 0.302D-02-0.297D-03-0.775D-01 0.107D+01
 Gap=     0.538 Goal=   None    Shift=    0.000
 RMSDP=1.56D-07 MaxDP=5.14D-06 DE=-2.08D-07 OVMax= 6.32D-06

 Cycle   7  Pass 1  IDiag  1:
 RMSU=  2.53D-08    CP:  1.02D+00  6.49D-01  1.19D+00  1.10D+00  1.17D+00
                    CP:  1.17D+00
 FoFJK:  IHMeth= 1 ICntrl=     0 DoSepK=T KAlg= 1 I1Cent= 0 FoldK=F
 E= -2753.41768250838     Delta-E=       -0.000000000078 Rises=F Damp=F
 DIIS: error= 8.45D-08 at cycle   7 NSaved=   7.
 NSaved= 7 IEnMin= 7 EnMin= -2753.41768250838     IErMin= 7 ErrMin= 8.45D-08
 ErrMax= 8.45D-08 EMaxC= 1.00D-01 BMatC= 2.36D-12 BMatP= 1.01D-10
 IDIUse=1 WtCom= 1.00D+00 WtEn= 0.00D+00
 Coeff-Com:  0.462D-06 0.393D-04 0.314D-03 0.866D-03-0.115D-01 0.953D-02
 Coeff-Com:  0.100D+01
 Coeff:      0.462D-06 0.393D-04 0.314D-03 0.866D-03-0.115D-01 0.953D-02
 Coeff:      0.100D+01
 Gap=     0.538 Goal=   None    Shift=    0.000
 RMSDP=1.61D-08 MaxDP=5.72D-07 DE=-7.82D-11 OVMax= 8.39D-07

 Cycle   8  Pass 1  IDiag  1:
 RMSU=  4.72D-09    CP:  1.02D+00  6.49D-01  1.19D+00  1.10D+00  1.17D+00
                    CP:  1.19D+00  1.11D+00
 FoFJK:  IHMeth= 1 ICntrl=     0 DoSepK=T KAlg= 1 I1Cent= 0 FoldK=F
 E= -2753.41768250838     Delta-E=       -0.000000000003 Rises=F Damp=F
 DIIS: error= 2.09D-08 at cycle   8 NSaved=   8.
 NSaved= 8 IEnMin= 8 EnMin= -2753.41768250838     IErMin= 8 ErrMin= 2.09D-08
 ErrMax= 2.09D-08 EMaxC= 1.00D-01 BMatC= 2.07D-13 BMatP= 2.36D-12
 IDIUse=1 WtCom= 1.00D+00 WtEn= 0.00D+00
 Coeff-Com: -0.334D-06-0.119D-04-0.115D-03 0.206D-03 0.210D-02-0.573D-01
 Coeff-Com:  0.190D+00 0.865D+00
 Coeff:     -0.334D-06-0.119D-04-0.115D-03 0.206D-03 0.210D-02-0.573D-01
 Coeff:      0.190D+00 0.865D+00
 Gap=     0.538 Goal=   None    Shift=    0.000
 RMSDP=3.00D-09 MaxDP=1.08D-07 DE=-2.73D-12 OVMax= 1.79D-07

 SCF Done:  E(RLC-B+HF-LYP) =  -2753.41768251     A.U. after    8 cycles
             Convg  =    0.2999D-08             -V/T =  2.0015
 KE= 2.749315436013D+03 PE=-6.578526043515D+03 EE= 1.075792924994D+03
 Leave Link  502 at Wed May 13 20:30:57 2020, MaxMem= 1073741824 cpu:     195.7
 (Enter /home/matheus/.gaussian/g09/l601.exe)
 Copying SCF densities to generalized density rwf, IOpCl= 0 IROHF=0.

 **********************************************************************

            Population analysis using the SCF density.

 **********************************************************************

 Orbital symmetries:
       Occupied  (A) (A) (A) (A) (A) (A) (A) (A) (A) (A) (A) (A)
                 (A) (A) (A) (A) (A) (A)
       Virtual   (A) (A) (A) (A) (A) (A) (A) (A) (A) (A) (A) (A)
                 (A) (A) (A) (A) (A) (A) (A) (A) (A) (A) (A) (A)
                 (A) (A) (A) (A) (A) (A) (A) (A) (A) (A) (A) (A)
                 (A) (A) (A) (A) (A) (A) (A) (A) (A) (A) (A) (A)
                 (A) (A) (A) (A) (A) (A) (A) (A) (A) (A) (A) (A)
                 (A) (A) (A) (A) (A) (A) (A) (A) (A) (A) (A) (A)
                 (A) (A) (A) (A) (A) (A) (A) (A) (A) (A) (A) (A)
                 (A) (A) (A) (A) (A) (A) (A) (A) (A) (A) (A) (A)
                 (A) (A) (A) (A) (A) (A) (A) (A) (A) (A) (A) (A)
                 (A) (A) (A) (A) (A) (A) (A) (A) (A) (A) (A) (A)
                 (A) (A) (A) (A) (A) (A) (A) (A) (A) (A) (A) (A)
                 (A) (A) (A) (A) (A) (A) (A) (A) (A) (A) (A) (A)
                 (A) (A) (A) (A) (A) (A) (A) (A) (A) (A) (A) (A)
                 (A) (A) (A) (A) (A) (A) (A) (A) (A) (A) (A) (A)
                 (A) (A) (A) (A) (A) (A) (A) (A) (A) (A) (A)
 The electronic state is 1-A.
 Alpha  occ. eigenvalues -- -511.24359 -66.71349 -60.39872 -60.39869 -60.39868
 Alpha  occ. eigenvalues --   -9.60493  -7.35947  -7.35945  -7.35945  -3.32283
 Alpha  occ. eigenvalues --   -3.32283  -3.32283  -3.32282  -3.32282  -1.06080
 Alpha  occ. eigenvalues --   -0.51293  -0.51289  -0.51287
 Alpha virt. eigenvalues --    0.02547   0.04654   0.07721   0.08838   0.10558
 Alpha virt. eigenvalues --    0.11605   0.12657   0.13521   0.15886   0.16665
 Alpha virt. eigenvalues --    0.17286   0.19164   0.20264   0.25034   0.26495
 Alpha virt. eigenvalues --    0.26965   0.27880   0.31274   0.33088   0.34746
 Alpha virt. eigenvalues --    0.35709   0.36966   0.37448   0.38598   0.41173
 Alpha virt. eigenvalues --    0.41178   0.42644   0.53148   0.53973   0.57617
 Alpha virt. eigenvalues --    0.58120   0.65611   0.66714   0.69926   0.72163
 Alpha virt. eigenvalues --    0.74035   0.75390   0.77098   0.77387   0.78821
 Alpha virt. eigenvalues --    0.80310   0.80880   0.83480   0.85186   0.85647
 Alpha virt. eigenvalues --    0.87225   0.87998   0.89092   0.91139   0.94602
 Alpha virt. eigenvalues --    0.97212   0.99132   0.99693   1.02748   1.03343
 Alpha virt. eigenvalues --    1.06134   1.06898   1.08931   1.11444   1.12743
 Alpha virt. eigenvalues --    1.15563   1.20074   1.21896   1.22923   1.27999
 Alpha virt. eigenvalues --    1.33363   1.35242   1.40127   1.44556   1.45184
 Alpha virt. eigenvalues --    1.55088   1.58857   1.59145   1.71062   1.78023
 Alpha virt. eigenvalues --    1.79523   1.83813   1.86786   1.93027   2.16334
 Alpha virt. eigenvalues --    2.19900   2.24927   2.27826   2.30139   2.32251
 Alpha virt. eigenvalues --    2.32945   2.33252   2.36499   2.37839   2.40397
 Alpha virt. eigenvalues --    2.44738   2.47221   2.48151   2.50262   2.51296
 Alpha virt. eigenvalues --    2.52193   2.54413   2.55871   2.56612   2.58150
 Alpha virt. eigenvalues --    2.62561   2.63706   2.64484   2.66073   2.69279
 Alpha virt. eigenvalues --    2.72712   2.76501   2.82194   2.86803   2.87489
 Alpha virt. eigenvalues --    2.92671   2.94116   3.03337   3.11932   3.18475
 Alpha virt. eigenvalues --    3.21480   3.26614   3.32714   3.33076   3.49890
 Alpha virt. eigenvalues --    3.60396   3.65828   3.81699   3.86318   4.02817
 Alpha virt. eigenvalues --    4.35702   4.47841   4.51197   4.56128   4.59415
 Alpha virt. eigenvalues --    4.71261   4.86776   4.87200   4.93685   5.01059
 Alpha virt. eigenvalues --    5.15041   5.17067   5.57872   5.62955   5.77677
 Alpha virt. eigenvalues --    5.97401   5.99613   6.16231   6.75011   6.87405
 Alpha virt. eigenvalues --    7.34547   7.38681   7.61488   7.64830   7.69535
 Alpha virt. eigenvalues --    7.85870   7.95543   8.09834   8.16808   8.20777
 Alpha virt. eigenvalues --    8.37954   8.41648   8.61377   8.87267   9.62040
 Alpha virt. eigenvalues --    9.71300   9.80866   9.87974   9.94992  10.01285
 Alpha virt. eigenvalues --   10.14850  10.27596  10.43039  10.94531  11.50494
 Alpha virt. eigenvalues --   11.62518  11.66340  12.03825  12.07387  13.26022
 Alpha virt. eigenvalues --   13.60815  14.53029  62.69093  64.60508
          Condensed to atoms (all electrons):
              1          2          3          4          5
     1  O    0.002675  -0.001808  -0.001597   0.001106  -0.010222
     2  O   -0.001808   0.004859   0.000581  -0.002928  -0.005199
     3  H   -0.001597   0.000581   0.001212  -0.000379   0.003363
     4  H    0.001106  -0.002928  -0.000379   0.002765  -0.013490
     5  Kr  -0.010222  -0.005199   0.003363  -0.013490  36.049636
 Mulliken atomic charges:
              1
     1  O    0.009847
     2  O    0.004495
     3  H   -0.003180
     4  H    0.012926
     5  Kr  -0.024088
 Sum of Mulliken atomic charges =   0.00000
 Mulliken charges with hydrogens summed into heavy atoms:
              1
     1  O    0.006667
     2  O    0.017421
     5  Kr  -0.024088
 Sum of Mulliken charges with hydrogens summed into heavy atoms =   0.00000
          Condensed to fragments (all electrons):
     1       0.024088
     2      -0.024088
 Electronic spatial extent (au):  <R**2>=            166.6255
 Charge=              0.0000 electrons
 Dipole moment (field-independent basis, Debye):
    X=             -0.0014    Y=              0.0006    Z=              0.0001  Tot=              0.0015
 Quadrupole moment (field-independent basis, Debye-Ang):
   XX=            -17.7472   YY=            -17.7568   ZZ=            -17.7636
   XY=             -0.0045   XZ=              0.0003   YZ=              0.0004
 Traceless Quadrupole moment (field-independent basis, Debye-Ang):
   XX=              0.0087   YY=             -0.0009   ZZ=             -0.0077
   XY=             -0.0045   XZ=              0.0003   YZ=              0.0004
 Octapole moment (field-independent basis, Debye-Ang**2):
  XXX=            -52.9129  YYY=              0.8593  ZZZ=             -0.1520  XYY=            -17.6497
  XXY=              0.2771  XXZ=             -0.0508  XZZ=            -17.6534  YZZ=              0.2873
  YYZ=             -0.0503  XYZ=              0.0003
 Hexadecapole moment (field-independent basis, Debye-Ang**3):
 XXXX=           -124.0819 YYYY=            -18.9519 ZZZZ=            -18.9469 XXXY=              0.8323
 XXXZ=             -0.1516 YYYX=              0.8401 YYYZ=              0.0016 ZZZX=             -0.1516
 ZZZY=              0.0036 XXYY=            -23.8505 XXZZ=            -23.8516 YYZZ=             -6.3148
 XXYZ=              0.0015 YYXZ=             -0.0504 ZZXY=              0.2784
 N-N= 0.000000000000D+00 E-N=-6.578526041934D+03  KE= 2.749315436013D+03
 No NMR shielding tensors so no spin-rotation constants.
 Leave Link  601 at Wed May 13 20:30:57 2020, MaxMem= 1073741824 cpu:       0.8
 (Enter /home/matheus/.gaussian/g09/l122.exe)
 Counterpoise: doing MCBS calculation for fragment   1
 Leave Link  122 at Wed May 13 20:30:57 2020, MaxMem= 1073741824 cpu:       0.0
 (Enter /home/matheus/.gaussian/g09/l301.exe)
 Basis read from rwf:  (5D, 7F)
 No pseudopotential information found on rwf file.
 There are   138 symmetry adapted basis functions of A   symmetry.
 Integral buffers will be    131072 words long.
 Raffenetti 2 integral format.
 Two-electron integral symmetry is turned on.
   138 basis functions,   198 primitive gaussians,   160 cartesian basis functions
     9 alpha electrons        9 beta electrons
       nuclear repulsion energy        36.6087755249 Hartrees.
 IExCor=10402 DFT=T Ex=LC-B+HF Corr=LYP ExCW=0 ScaHFX=  1.000000
 ScaDFX=  1.000000  1.000000  1.000000  1.000000 ScalE2=  1.000000  1.000000
 IRadAn=      5 IRanWt=     -1 IRanGd=            0 ICorTp=0
  HFx wShort=  0.000000 wLong=  0.470000 cFull=  0.000000 cShort=  0.000000 cLong=  1.000000
  DFx wShort=  0.000000 wLong=  0.470000 cFull=  0.000000 cShort=  0.000000 cLong=  1.000000
 NAtoms=    5 NActive=    4 NUniq=    4 SFac= 1.00D+00 NAtFMM=   60 NAOKFM=F Big=F
 No density basis found on file   718.
 Leave Link  301 at Wed May 13 20:30:57 2020, MaxMem= 1073741824 cpu:       0.2
 (Enter /home/matheus/.gaussian/g09/l302.exe)
 NPDir=0 NMtPBC=     1 NCelOv=     1 NCel=       1 NClECP=     1 NCelD=      1
         NCelK=      1 NCelE2=     1 NClLst=     1 CellRange=     0.0.
 One-electron integrals computed using PRISM.
 NBasis=   138 RedAO= T  NBF=   138
 NBsUse=   138 1.00D-06 NBFU=   138
 Precomputing XC quadrature grid using
 IXCGrd= 2 IRadAn=           5 IRanWt=          -1 IRanGd=           0 AccXCQ= 0.00D+00.
 NRdTot=     344 NPtTot=       92556 NUsed=       95038 NTot=       95070
 NSgBfM=   160   160   160   160   160 NAtAll=     4     4.
 Leave Link  302 at Wed May 13 20:30:57 2020, MaxMem= 1073741824 cpu:       0.8
 (Enter /home/matheus/.gaussian/g09/l303.exe)
 DipDrv:  MaxL=1.
 Leave Link  303 at Wed May 13 20:30:57 2020, MaxMem= 1073741824 cpu:       0.1
 (Enter /home/matheus/.gaussian/g09/l401.exe)
 Harris functional with IExCor=10402 diagonalized for initial guess.
 ExpMin= 2.53D-02 ExpMax= 1.53D+04 ExpMxC= 5.22D+02 IAcc=3 IRadAn=         5 AccDes= 0.00D+00
 HarFok:  IExCor=10402 AccDes= 0.00D+00 IRadAn=         5 IDoV= 1
 ScaDFX=  1.000000  1.000000  1.000000  1.000000
 FoFCou: FMM=F IPFlag=           0 FMFlag=      100000 FMFlg1=           0
         NFxFlg=           0 DoJE=T BraDBF=F KetDBF=T FulRan=T
         Omega=  0.000000  0.000000  1.000000  0.000000  0.000000 ICntrl=     500 IOpCl=  0
         NMat0=    1 NMatS0=    1 NMatT0=    0 NMatD0=    1 NMtDS0=    0 NMtDT0=    0
         I1Cent=           4 NGrid=           0.
 Petite list used in FoFCou.
 Harris En= -147.164245345541    
 Initial guess orbital symmetries:
       Occupied  (A) (A) (A) (A) (A) (A) (A) (A) (A)
       Virtual   (A) (A) (A) (A) (A) (A) (A) (A) (A) (A) (A) (A)
                 (A) (A) (A) (A) (A) (A) (A) (A) (A) (A) (A) (A)
                 (A) (A) (A) (A) (A) (A) (A) (A) (A) (A) (A) (A)
                 (A) (A) (A) (A) (A) (A) (A) (A) (A) (A) (A) (A)
                 (A) (A) (A) (A) (A) (A) (A) (A) (A) (A) (A) (A)
                 (A) (A) (A) (A) (A) (A) (A) (A) (A) (A) (A) (A)
                 (A) (A) (A) (A) (A) (A) (A) (A) (A) (A) (A) (A)
                 (A) (A) (A) (A) (A) (A) (A) (A) (A) (A) (A) (A)
                 (A) (A) (A) (A) (A) (A) (A) (A) (A) (A) (A) (A)
                 (A) (A) (A) (A) (A) (A) (A) (A) (A) (A) (A) (A)
                 (A) (A) (A) (A) (A) (A) (A) (A) (A)
 The electronic state of the initial guess is 1-A.
 Leave Link  401 at Wed May 13 20:30:58 2020, MaxMem= 1073741824 cpu:       2.2
 (Enter /home/matheus/.gaussian/g09/l502.exe)
 Closed shell SCF:
 Requested convergence on RMS density matrix=1.00D-08 within 128 cycles.
 Requested convergence on MAX density matrix=1.00D-06.
 Requested convergence on             energy=1.00D-06.
 No special actions if energy rises.
 Using DIIS extrapolation, IDIIS=  1040.
 Integral symmetry usage will be decided dynamically.
        94980 words used for storage of precomputed grid.
 IEnd=      192360 IEndB=      192360 NGot=  1073741824 MDV=  1073591865
 LenX=  1073591865 LenY=  1073565824
 Fock matrices will be formed incrementally for  20 cycles.

 Cycle   1  Pass 1  IDiag  1:
 FoFJK:  IHMeth= 1 ICntrl=     0 DoSepK=T KAlg= 1 I1Cent= 0 FoldK=F
 FoFCou: FMM=F IPFlag=           0 FMFlag=      100000 FMFlg1=           0
         NFxFlg=           0 DoJE=T BraDBF=F KetDBF=F FulRan=T
         Omega=  0.000000  0.000000  1.000000  0.000000  0.000000 ICntrl=     500 IOpCl=  0
         NMat0=    1 NMatS0=    1 NMatT0=    0 NMatD0=    1 NMtDS0=    0 NMtDT0=    0
         I1Cent=           0 NGrid=           0.
 Symmetry not used in FoFCou.
 E= -151.304901274098    
 DIIS: error= 1.53D-02 at cycle   1 NSaved=   1.
 NSaved= 1 IEnMin= 1 EnMin= -151.304901274098     IErMin= 1 ErrMin= 1.53D-02
 ErrMax= 1.53D-02 EMaxC= 1.00D-01 BMatC= 2.12D-02 BMatP= 2.12D-02
 IDIUse=3 WtCom= 8.47D-01 WtEn= 1.53D-01
 Coeff-Com:  0.100D+01
 Coeff-En:   0.100D+01
 Coeff:      0.100D+01
 Gap=     0.479 Goal=   None    Shift=    0.000
 GapD=    0.479 DampG=2.000 DampE=0.500 DampFc=1.0000 IDamp=-1.
 RMSDP=1.18D-03 MaxDP=2.77D-02              OVMax= 5.38D-02

 Cycle   2  Pass 1  IDiag  1:
 RMSU=  8.34D-04    CP:  1.00D+00
 FoFJK:  IHMeth= 1 ICntrl=     0 DoSepK=T KAlg= 1 I1Cent= 0 FoldK=F
 E= -151.322466538664     Delta-E=       -0.017565264566 Rises=F Damp=F
 DIIS: error= 8.35D-03 at cycle   2 NSaved=   2.
 NSaved= 2 IEnMin= 2 EnMin= -151.322466538664     IErMin= 2 ErrMin= 8.35D-03
 ErrMax= 8.35D-03 EMaxC= 1.00D-01 BMatC= 5.09D-03 BMatP= 2.12D-02
 IDIUse=3 WtCom= 9.16D-01 WtEn= 8.35D-02
 Coeff-Com:  0.281D+00 0.719D+00
 Coeff-En:   0.000D+00 0.100D+01
 Coeff:      0.257D+00 0.743D+00
 Gap=     0.440 Goal=   None    Shift=    0.000
 RMSDP=3.12D-04 MaxDP=7.05D-03 DE=-1.76D-02 OVMax= 1.48D-02

 Cycle   3  Pass 1  IDiag  1:
 RMSU=  2.21D-04    CP:  1.00D+00  9.97D-01
 FoFJK:  IHMeth= 1 ICntrl=     0 DoSepK=T KAlg= 1 I1Cent= 0 FoldK=F
 E= -151.325340284699     Delta-E=       -0.002873746035 Rises=F Damp=F
 DIIS: error= 2.05D-03 at cycle   3 NSaved=   3.
 NSaved= 3 IEnMin= 3 EnMin= -151.325340284699     IErMin= 3 ErrMin= 2.05D-03
 ErrMax= 2.05D-03 EMaxC= 1.00D-01 BMatC= 6.32D-04 BMatP= 5.09D-03
 IDIUse=3 WtCom= 9.79D-01 WtEn= 2.05D-02
 Coeff-Com:  0.143D-01 0.248D+00 0.738D+00
 Coeff-En:   0.000D+00 0.000D+00 0.100D+01
 Coeff:      0.140D-01 0.243D+00 0.743D+00
 Gap=     0.449 Goal=   None    Shift=    0.000
 RMSDP=1.48D-04 MaxDP=3.62D-03 DE=-2.87D-03 OVMax= 7.55D-03

 Cycle   4  Pass 1  IDiag  1:
 RMSU=  7.26D-05    CP:  1.00D+00  1.09D+00  9.43D-01
 FoFJK:  IHMeth= 1 ICntrl=     0 DoSepK=T KAlg= 1 I1Cent= 0 FoldK=F
 E= -151.325813030309     Delta-E=       -0.000472745610 Rises=F Damp=F
 DIIS: error= 4.03D-04 at cycle   4 NSaved=   4.
 NSaved= 4 IEnMin= 4 EnMin= -151.325813030309     IErMin= 4 ErrMin= 4.03D-04
 ErrMax= 4.03D-04 EMaxC= 1.00D-01 BMatC= 2.88D-05 BMatP= 6.32D-04
 IDIUse=3 WtCom= 9.96D-01 WtEn= 4.03D-03
 Coeff-Com: -0.213D-01-0.309D-01 0.119D+00 0.934D+00
 Coeff-En:   0.000D+00 0.000D+00 0.000D+00 0.100D+01
 Coeff:     -0.212D-01-0.308D-01 0.118D+00 0.934D+00
 Gap=     0.447 Goal=   None    Shift=    0.000
 RMSDP=5.44D-05 MaxDP=1.48D-03 DE=-4.73D-04 OVMax= 1.97D-03

 Cycle   5  Pass 1  IDiag  1:
 RMSU=  1.31D-05    CP:  1.00D+00  1.11D+00  1.06D+00  1.16D+00
 FoFJK:  IHMeth= 1 ICntrl=     0 DoSepK=T KAlg= 1 I1Cent= 0 FoldK=F
 E= -151.325843786867     Delta-E=       -0.000030756558 Rises=F Damp=F
 DIIS: error= 6.44D-05 at cycle   5 NSaved=   5.
 NSaved= 5 IEnMin= 5 EnMin= -151.325843786867     IErMin= 5 ErrMin= 6.44D-05
 ErrMax= 6.44D-05 EMaxC= 1.00D-01 BMatC= 4.27D-07 BMatP= 2.88D-05
 IDIUse=1 WtCom= 1.00D+00 WtEn= 0.00D+00
 Coeff-Com:  0.704D-03-0.625D-02-0.351D-01-0.614D-01 0.110D+01
 Coeff:      0.704D-03-0.625D-02-0.351D-01-0.614D-01 0.110D+01
 Gap=     0.447 Goal=   None    Shift=    0.000
 RMSDP=1.39D-05 MaxDP=3.95D-04 DE=-3.08D-05 OVMax= 6.64D-04

 Cycle   6  Pass 1  IDiag  1:
 RMSU=  2.56D-06    CP:  1.00D+00  1.12D+00  1.08D+00  1.25D+00  1.27D+00
 FoFJK:  IHMeth= 1 ICntrl=     0 DoSepK=T KAlg= 1 I1Cent= 0 FoldK=F
 E= -151.325845134561     Delta-E=       -0.000001347694 Rises=F Damp=F
 DIIS: error= 1.38D-05 at cycle   6 NSaved=   6.
 NSaved= 6 IEnMin= 6 EnMin= -151.325845134561     IErMin= 6 ErrMin= 1.38D-05
 ErrMax= 1.38D-05 EMaxC= 1.00D-01 BMatC= 2.26D-08 BMatP= 4.27D-07
 IDIUse=1 WtCom= 1.00D+00 WtEn= 0.00D+00
 Coeff-Com:  0.436D-03 0.934D-03-0.244D-02-0.227D-01-0.329D-01 0.106D+01
 Coeff:      0.436D-03 0.934D-03-0.244D-02-0.227D-01-0.329D-01 0.106D+01
 Gap=     0.447 Goal=   None    Shift=    0.000
 RMSDP=2.17D-06 MaxDP=4.66D-05 DE=-1.35D-06 OVMax= 1.38D-04

 Cycle   7  Pass 1  IDiag  1:
 RMSU=  5.22D-07    CP:  1.00D+00  1.12D+00  1.08D+00  1.26D+00  1.31D+00
                    CP:  1.32D+00
 FoFJK:  IHMeth= 1 ICntrl=     0 DoSepK=T KAlg= 1 I1Cent= 0 FoldK=F
[...]
 Coeff:      0.100D+01
 Gap=     0.539 Goal=   None    Shift=    0.000
 RMSDP=1.69D-05 MaxDP=7.40D-04              OVMax= 3.01D-04

 Cycle   2  Pass 1  IDiag  1:
 RMSU=  1.19D-05    CP:  1.00D+00
 FoFJK:  IHMeth= 1 ICntrl=     0 DoSepK=T KAlg= 1 I1Cent= 0 FoldK=F
 E= -2753.41756229185     Delta-E=       -0.000000552505 Rises=F Damp=F
 DIIS: error= 3.11D-06 at cycle   2 NSaved=   2.
 NSaved= 2 IEnMin= 2 EnMin= -2753.41756229185     IErMin= 2 ErrMin= 3.11D-06
 ErrMax= 3.11D-06 EMaxC= 1.00D-01 BMatC= 3.33D-09 BMatP= 5.78D-06
 IDIUse=1 WtCom= 1.00D+00 WtEn= 0.00D+00
 Coeff-Com: -0.694D-02 0.101D+01
 Coeff:     -0.694D-02 0.101D+01
 Gap=     0.539 Goal=   None    Shift=    0.000
 RMSDP=1.63D-06 MaxDP=6.23D-05 DE=-5.53D-07 OVMax= 4.55D-05

 Cycle   3  Pass 1  IDiag  1:
 RMSU=  5.28D-07    CP:  1.00D+00  1.09D+00
 FoFJK:  IHMeth= 1 ICntrl=     0 DoSepK=T KAlg= 1 I1Cent= 0 FoldK=F
 E= -2753.41756229780     Delta-E=       -0.000000005954 Rises=F Damp=F
 DIIS: error= 4.21D-07 at cycle   3 NSaved=   3.
 NSaved= 3 IEnMin= 3 EnMin= -2753.41756229780     IErMin= 3 ErrMin= 4.21D-07
 ErrMax= 4.21D-07 EMaxC= 1.00D-01 BMatC= 9.26D-11 BMatP= 3.33D-09
 IDIUse=1 WtCom= 1.00D+00 WtEn= 0.00D+00
 Coeff-Com:  0.258D-03-0.117D+00 0.112D+01
 Coeff:      0.258D-03-0.117D+00 0.112D+01
 Gap=     0.539 Goal=   None    Shift=    0.000
 RMSDP=1.99D-07 MaxDP=6.68D-06 DE=-5.95D-09 OVMax= 9.15D-06

 Cycle   4  Pass 1  IDiag  1:
 RMSU=  5.62D-08    CP:  1.00D+00  1.09D+00  1.18D+00
 FoFJK:  IHMeth= 1 ICntrl=     0 DoSepK=T KAlg= 1 I1Cent= 0 FoldK=F
 E= -2753.41756229801     Delta-E=       -0.000000000216 Rises=F Damp=F
 DIIS: error= 2.50D-07 at cycle   4 NSaved=   4.
 NSaved= 4 IEnMin= 4 EnMin= -2753.41756229801     IErMin= 4 ErrMin= 2.50D-07
 ErrMax= 2.50D-07 EMaxC= 1.00D-01 BMatC= 1.36D-11 BMatP= 9.26D-11
 IDIUse=1 WtCom= 1.00D+00 WtEn= 0.00D+00
 Coeff-Com:  0.216D-03-0.541D-01 0.337D+00 0.717D+00
 Coeff:      0.216D-03-0.541D-01 0.337D+00 0.717D+00
 Gap=     0.539 Goal=   None    Shift=    0.000
 RMSDP=1.93D-08 MaxDP=7.61D-07 DE=-2.16D-10 OVMax= 9.45D-07

 Cycle   5  Pass 1  IDiag  1:
 RMSU=  9.64D-09    CP:  1.00D+00  1.09D+00  1.19D+00  1.12D+00
 FoFJK:  IHMeth= 1 ICntrl=     0 DoSepK=T KAlg= 1 I1Cent= 0 FoldK=F
 E= -2753.41756229802     Delta-E=       -0.000000000008 Rises=F Damp=F
 DIIS: error= 2.91D-08 at cycle   5 NSaved=   5.
 NSaved= 5 IEnMin= 5 EnMin= -2753.41756229802     IErMin= 5 ErrMin= 2.91D-08
 ErrMax= 2.91D-08 EMaxC= 1.00D-01 BMatC= 2.61D-13 BMatP= 1.36D-11
 IDIUse=1 WtCom= 1.00D+00 WtEn= 0.00D+00
 Coeff-Com: -0.198D-04 0.736D-02-0.673D-01-0.741D-02 0.107D+01
 Coeff:     -0.198D-04 0.736D-02-0.673D-01-0.741D-02 0.107D+01
 Gap=     0.539 Goal=   None    Shift=    0.000
 RMSDP=9.40D-09 MaxDP=5.39D-07 DE=-8.19D-12 OVMax= 4.46D-07

 SCF Done:  E(RLC-B+HF-LYP) =  -2753.41756230     A.U. after    5 cycles
             Convg  =    0.9400D-08             -V/T =  2.0015
 KE= 2.749364190192D+03 PE=-6.578579579369D+03 EE= 1.075797826879D+03
 Leave Link  502 at Wed May 13 20:53:41 2020, MaxMem= 1073741824 cpu:      87.4
 (Enter /home/matheus/.gaussian/g09/l122.exe)
 Restoring MOs from calculation   4 to rwf.
 Counterpoise: doing MCBS calculation for fragment   1
 Leave Link  122 at Wed May 13 20:53:41 2020, MaxMem= 1073741824 cpu:       0.0
 (Enter /home/matheus/.gaussian/g09/l301.exe)
 Basis read from rwf:  (5D, 7F)
 No pseudopotential information found on rwf file.
 There are   138 symmetry adapted basis functions of A   symmetry.
 Integral buffers will be    131072 words long.
 Raffenetti 2 integral format.
 Two-electron integral symmetry is turned on.
   138 basis functions,   198 primitive gaussians,   160 cartesian basis functions
     9 alpha electrons        9 beta electrons
       nuclear repulsion energy        36.6087755249 Hartrees.
 IExCor=10402 DFT=T Ex=LC-B+HF Corr=LYP ExCW=0 ScaHFX=  1.000000
 ScaDFX=  1.000000  1.000000  1.000000  1.000000 ScalE2=  1.000000  1.000000
 IRadAn=      5 IRanWt=     -1 IRanGd=            0 ICorTp=0
  HFx wShort=  0.000000 wLong=  0.470000 cFull=  0.000000 cShort=  0.000000 cLong=  1.000000
  DFx wShort=  0.000000 wLong=  0.470000 cFull=  0.000000 cShort=  0.000000 cLong=  1.000000
 NAtoms=    5 NActive=    4 NUniq=    4 SFac= 1.00D+00 NAtFMM=   60 NAOKFM=F Big=F
 No density basis found on file   718.
 Leave Link  301 at Wed May 13 20:53:41 2020, MaxMem= 1073741824 cpu:       0.2
 (Enter /home/matheus/.gaussian/g09/l302.exe)
 NPDir=0 NMtPBC=     1 NCelOv=     1 NCel=       1 NClECP=     1 NCelD=      1
         NCelK=      1 NCelE2=     1 NClLst=     1 CellRange=     0.0.
 One-electron integrals computed using PRISM.
 NBasis=   138 RedAO= T  NBF=   138
 NBsUse=   138 1.00D-06 NBFU=   138
 Precomputing XC quadrature grid using
 IXCGrd= 2 IRadAn=           5 IRanWt=          -1 IRanGd=           0 AccXCQ= 0.00D+00.
 NRdTot=     344 NPtTot=       92556 NUsed=       95038 NTot=       95070
 NSgBfM=   160   160   160   160   160 NAtAll=     4     4.
 Leave Link  302 at Wed May 13 20:53:41 2020, MaxMem= 1073741824 cpu:       0.8
 (Enter /home/matheus/.gaussian/g09/l303.exe)
 DipDrv:  MaxL=1.
 Leave Link  303 at Wed May 13 20:53:41 2020, MaxMem= 1073741824 cpu:       0.1
 (Enter /home/matheus/.gaussian/g09/l401.exe)
 Initial guess read from the read-write file.
 Guess basis will be translated and rotated to current coordinates.
 Initial guess orbital symmetries:
       Occupied  (A) (A) (A) (A) (A) (A) (A) (A) (A)
       Virtual   (A) (A) (A) (A) (A) (A) (A) (A) (A) (A) (A) (A)
                 (A) (A) (A) (A) (A) (A) (A) (A) (A) (A) (A) (A)
                 (A) (A) (A) (A) (A) (A) (A) (A) (A) (A) (A) (A)
                 (A) (A) (A) (A) (A) (A) (A) (A) (A) (A) (A) (A)
                 (A) (A) (A) (A) (A) (A) (A) (A) (A) (A) (A) (A)
                 (A) (A) (A) (A) (A) (A) (A) (A) (A) (A) (A) (A)
                 (A) (A) (A) (A) (A) (A) (A) (A) (A) (A) (A) (A)
                 (A) (A) (A) (A) (A) (A) (A) (A) (A) (A) (A) (A)
                 (A) (A) (A) (A) (A) (A) (A) (A) (A) (A) (A) (A)
                 (A) (A) (A) (A) (A) (A) (A) (A) (A) (A) (A) (A)
                 (A) (A) (A) (A) (A) (A) (A) (A) (A)
 The electronic state of the initial guess is 1-A.
 Generating alternative initial guess.
 Harris functional with IExCor=10402 diagonalized for initial guess.
 ExpMin= 2.53D-02 ExpMax= 1.53D+04 ExpMxC= 5.22D+02 IAcc=3 IRadAn=         5 AccDes= 0.00D+00
 HarFok:  IExCor=10402 AccDes= 0.00D+00 IRadAn=         5 IDoV= 1
 ScaDFX=  1.000000  1.000000  1.000000  1.000000
 FoFCou: FMM=F IPFlag=           0 FMFlag=      100000 FMFlg1=           0
         NFxFlg=           0 DoJE=T BraDBF=F KetDBF=T FulRan=T
         Omega=  0.000000  0.000000  1.000000  0.000000  0.000000 ICntrl=     500 IOpCl=  0
         NMat0=    1 NMatS0=    1 NMatT0=    0 NMatD0=    1 NMtDS0=    0 NMtDT0=    0
         I1Cent=           4 NGrid=           0.
 Petite list used in FoFCou.
 Harris En= -147.164245367934    
 Leave Link  401 at Wed May 13 20:53:41 2020, MaxMem= 1073741824 cpu:       2.4
 (Enter /home/matheus/.gaussian/g09/l502.exe)
 Closed shell SCF:
 Requested convergence on RMS density matrix=1.00D-08 within 128 cycles.
 Requested convergence on MAX density matrix=1.00D-06.
 Requested convergence on             energy=1.00D-06.
 No special actions if energy rises.
 Using DIIS extrapolation, IDIIS=  1040.
 Integral symmetry usage will be decided dynamically.
        94980 words used for storage of precomputed grid.
 IEnd=      192360 IEndB=      192360 NGot=  1073741824 MDV=  1073591865
 LenX=  1073591865 LenY=  1073565824
 Fock matrices will be formed incrementally for  20 cycles.

 Cycle   1  Pass 1  IDiag  1:
 FoFJK:  IHMeth= 1 ICntrl=     0 DoSepK=T KAlg= 1 I1Cent= 0 FoldK=F
 FoFCou: FMM=F IPFlag=           0 FMFlag=      100000 FMFlg1=           0
         NFxFlg=           0 DoJE=T BraDBF=F KetDBF=F FulRan=T
         Omega=  0.000000  0.000000  1.000000  0.000000  0.000000 ICntrl=     500 IOpCl=  0
         NMat0=    1 NMatS0=    1 NMatT0=    0 NMatD0=    1 NMtDS0=    0 NMtDT0=    0
         I1Cent=           0 NGrid=           0.
 Symmetry not used in FoFCou.
 E= -151.325845164717    
 DIIS: error= 1.89D-05 at cycle   1 NSaved=   1.
 NSaved= 1 IEnMin= 1 EnMin= -151.325845164717     IErMin= 1 ErrMin= 1.89D-05
 ErrMax= 1.89D-05 EMaxC= 1.00D-01 BMatC= 4.45D-08 BMatP= 4.45D-08
 IDIUse=1 WtCom= 1.00D+00 WtEn= 0.00D+00
 Coeff-Com:  0.100D+01
 Coeff:      0.100D+01
 Gap=     0.447 Goal=   None    Shift=    0.000
 RMSDP=1.19D-06 MaxDP=2.04D-05              OVMax= 7.12D-05

 Cycle   2  Pass 1  IDiag  1:
 RMSU=  8.38D-07    CP:  1.00D+00
 FoFJK:  IHMeth= 1 ICntrl=     0 DoSepK=T KAlg= 1 I1Cent= 0 FoldK=F
 E= -151.325845206459     Delta-E=       -0.000000041742 Rises=F Damp=F
 DIIS: error= 3.63D-06 at cycle   2 NSaved=   2.
 NSaved= 2 IEnMin= 2 EnMin= -151.325845206459     IErMin= 2 ErrMin= 3.63D-06
 ErrMax= 3.63D-06 EMaxC= 1.00D-01 BMatC= 1.76D-09 BMatP= 4.45D-08
 IDIUse=1 WtCom= 1.00D+00 WtEn= 0.00D+00
 Coeff-Com: -0.132D+00 0.113D+01
 Coeff:     -0.132D+00 0.113D+01
 Gap=     0.447 Goal=   None    Shift=    0.000
 RMSDP=3.82D-07 MaxDP=6.75D-06 DE=-4.17D-08 OVMax= 3.12D-05

 Cycle   3  Pass 1  IDiag  1:
 RMSU=  1.51D-07    CP:  1.00D+00  1.27D+00
 FoFJK:  IHMeth= 1 ICntrl=     0 DoSepK=T KAlg= 1 I1Cent= 0 FoldK=F
 E= -151.325845210538     Delta-E=       -0.000000004080 Rises=F Damp=F
 DIIS: error= 1.08D-06 at cycle   3 NSaved=   3.
 NSaved= 3 IEnMin= 3 EnMin= -151.325845210538     IErMin= 3 ErrMin= 1.08D-06
 ErrMax= 1.08D-06 EMaxC= 1.00D-01 BMatC= 2.42D-10 BMatP= 1.76D-09
 IDIUse=1 WtCom= 1.00D+00 WtEn= 0.00D+00
 Coeff-Com: -0.295D-01 0.613D-01 0.968D+00
 Coeff:     -0.295D-01 0.613D-01 0.968D+00
 Gap=     0.447 Goal=   None    Shift=    0.000
 RMSDP=1.31D-07 MaxDP=3.08D-06 DE=-4.08D-09 OVMax= 1.01D-05

 Cycle   4  Pass 1  IDiag  1:
 RMSU=  6.55D-08    CP:  1.00D+00  1.33D+00  1.28D+00
 FoFJK:  IHMeth= 1 ICntrl=     0 DoSepK=T KAlg= 1 I1Cent= 0 FoldK=F
 E= -151.325845210906     Delta-E=       -0.000000000367 Rises=F Damp=F
 DIIS: error= 1.01D-06 at cycle   4 NSaved=   4.
 NSaved= 4 IEnMin= 4 EnMin= -151.325845210906     IErMin= 4 ErrMin= 1.01D-06
 ErrMax= 1.01D-06 EMaxC= 1.00D-01 BMatC= 1.94D-10 BMatP= 2.42D-10
 IDIUse=1 WtCom= 1.00D+00 WtEn= 0.00D+00
 Coeff-Com:  0.985D-02-0.201D+00 0.558D+00 0.633D+00
 Coeff:      0.985D-02-0.201D+00 0.558D+00 0.633D+00
 Gap=     0.447 Goal=   None    Shift=    0.000
 RMSDP=6.68D-08 MaxDP=1.54D-06 DE=-3.67D-10 OVMax= 4.50D-06

 Cycle   5  Pass 1  IDiag  1:
 RMSU=  2.12D-08    CP:  1.00D+00  1.35D+00  1.51D+00  7.82D-01
 FoFJK:  IHMeth= 1 ICntrl=     0 DoSepK=T KAlg= 1 I1Cent= 0 FoldK=F
 E= -151.325845211083     Delta-E=       -0.000000000177 Rises=F Damp=F
 DIIS: error= 2.27D-07 at cycle   5 NSaved=   5.
 NSaved= 5 IEnMin= 5 EnMin= -151.325845211083     IErMin= 5 ErrMin= 2.27D-07
 ErrMax= 2.27D-07 EMaxC= 1.00D-01 BMatC= 5.44D-12 BMatP= 1.94D-10
 IDIUse=1 WtCom= 1.00D+00 WtEn= 0.00D+00
 Coeff-Com:  0.426D-02-0.315D-01-0.536D-01 0.672D-01 0.101D+01
 Coeff:      0.426D-02-0.315D-01-0.536D-01 0.672D-01 0.101D+01
 Gap=     0.447 Goal=   None    Shift=    0.000
 RMSDP=2.56D-08 MaxDP=3.68D-07 DE=-1.77D-10 OVMax= 2.34D-06

 Cycle   6  Pass 1  IDiag  1:
 RMSU=  7.74D-09    CP:  1.00D+00  1.35D+00  1.58D+00  9.09D-01  1.36D+00
 FoFJK:  IHMeth= 1 ICntrl=     0 DoSepK=T KAlg= 1 I1Cent= 0 FoldK=F
 E= -151.325845211098     Delta-E=       -0.000000000016 Rises=F Damp=F
 DIIS: error= 7.52D-08 at cycle   6 NSaved=   6.
 NSaved= 6 IEnMin= 6 EnMin= -151.325845211098     IErMin= 6 ErrMin= 7.52D-08
 ErrMax= 7.52D-08 EMaxC= 1.00D-01 BMatC= 7.69D-13 BMatP= 5.44D-12
 IDIUse=1 WtCom= 1.00D+00 WtEn= 0.00D+00
 Coeff-Com: -0.560D-04 0.122D-01-0.580D-01-0.433D-01 0.187D+00 0.902D+00
 Coeff:     -0.560D-04 0.122D-01-0.580D-01-0.433D-01 0.187D+00 0.902D+00
 Gap=     0.447 Goal=   None    Shift=    0.000
 RMSDP=9.41D-09 MaxDP=1.34D-07 DE=-1.55D-11 OVMax= 9.74D-07

 SCF Done:  E(RLC-B+HF-LYP) =  -151.325845211     A.U. after    6 cycles
             Convg  =    0.9408D-08             -V/T =  2.0058
 KE= 1.504591461030D+02 PE=-4.313908808387D+02 EE= 9.299711399966D+01
 Leave Link  502 at Wed May 13 20:53:47 2020, MaxMem= 1073741824 cpu:      44.1
 (Enter /home/matheus/.gaussian/g09/l122.exe)
 Restoring MOs from calculation   5 to rwf.
 Counterpoise: doing MCBS calculation for fragment   2
 Leave Link  122 at Wed May 13 20:53:47 2020, MaxMem= 1073741824 cpu:       0.0
 (Enter /home/matheus/.gaussian/g09/l301.exe)
 Basis read from rwf:  (5D, 7F)
 No pseudopotential information found on rwf file.
 There are    59 symmetry adapted basis functions of A   symmetry.
 Integral buffers will be    131072 words long.
 Raffenetti 2 integral format.
 Two-electron integral symmetry is turned on.
    59 basis functions,   217 primitive gaussians,    69 cartesian basis functions
    18 alpha electrons       18 beta electrons
       nuclear repulsion energy         0.0000000000 Hartrees.
 IExCor=10402 DFT=T Ex=LC-B+HF Corr=LYP ExCW=0 ScaHFX=  1.000000
 ScaDFX=  1.000000  1.000000  1.000000  1.000000 ScalE2=  1.000000  1.000000
 IRadAn=      5 IRanWt=     -1 IRanGd=            0 ICorTp=0
  HFx wShort=  0.000000 wLong=  0.470000 cFull=  0.000000 cShort=  0.000000 cLong=  1.000000
  DFx wShort=  0.000000 wLong=  0.470000 cFull=  0.000000 cShort=  0.000000 cLong=  1.000000
 NAtoms=    5 NActive=    1 NUniq=    1 SFac= 1.00D+00 NAtFMM=   60 NAOKFM=F Big=F
 No density basis found on file   718.
 Leave Link  301 at Wed May 13 20:53:47 2020, MaxMem= 1073741824 cpu:       0.2
 (Enter /home/matheus/.gaussian/g09/l302.exe)
 NPDir=0 NMtPBC=     1 NCelOv=     1 NCel=       1 NClECP=     1 NCelD=      1
         NCelK=      1 NCelE2=     1 NClLst=     1 CellRange=     0.0.
 One-electron integrals computed using PRISM.
 NBasis=    59 RedAO= T  NBF=    59
 NBsUse=    59 1.00D-06 NBFU=    59
 Precomputing XC quadrature grid using
 IXCGrd= 2 IRadAn=           5 IRanWt=          -1 IRanGd=           0 AccXCQ= 0.00D+00.
 NRdTot=      81 NPtTot=       30352 NUsed=       30981 NTot=       31013
 NSgBfM=    69    69    69    69    69 NAtAll=     1     1.
 Leave Link  302 at Wed May 13 20:53:47 2020, MaxMem= 1073741824 cpu:       0.6
 (Enter /home/matheus/.gaussian/g09/l303.exe)
 DipDrv:  MaxL=1.
 Leave Link  303 at Wed May 13 20:53:47 2020, MaxMem= 1073741824 cpu:       0.1
 (Enter /home/matheus/.gaussian/g09/l401.exe)
 Initial guess read from the read-write file.
 Guess basis will be translated and rotated to current coordinates.
 Initial guess orbital symmetries:
       Occupied  (A) (A) (A) (A) (A) (A) (A) (A) (A) (A) (A) (A)
                 (A) (A) (A) (A) (A) (A)
       Virtual   (A) (A) (A) (A) (A) (A) (A) (A) (A) (A) (A) (A)
                 (A) (A) (A) (A) (A) (A) (A) (A) (A) (A) (A) (A)
                 (A) (A) (A) (A) (A) (A) (A) (A) (A) (A) (A) (A)
                 (A) (A) (A) (A) (A)
 The electronic state of the initial guess is 1-A.
 Generating alternative initial guess.
 Harris functional with IExCor=10402 diagonalized for initial guess.
 ExpMin= 4.00D-02 ExpMax= 1.17D+07 ExpMxC= 1.33D+04 IAcc=3 IRadAn=         5 AccDes= 0.00D+00
 HarFok:  IExCor=10402 AccDes= 0.00D+00 IRadAn=         5 IDoV= 1
 ScaDFX=  1.000000  1.000000  1.000000  1.000000
 FoFCou: FMM=F IPFlag=           0 FMFlag=      100000 FMFlg1=           0
         NFxFlg=           0 DoJE=T BraDBF=F KetDBF=T FulRan=T
         Omega=  0.000000  0.000000  1.000000  0.000000  0.000000 ICntrl=     500 IOpCl=  0
         NMat0=    1 NMatS0=    1 NMatT0=    0 NMatD0=    1 NMtDS0=    0 NMtDT0=    0
         I1Cent=           4 NGrid=           0.
 Petite list used in FoFCou.
 Harris En= -2744.51485235229    
 Leave Link  401 at Wed May 13 20:53:47 2020, MaxMem= 1073741824 cpu:       0.9
 (Enter /home/matheus/.gaussian/g09/l502.exe)
 Closed shell SCF:
 Requested convergence on RMS density matrix=1.00D-08 within 128 cycles.
 Requested convergence on MAX density matrix=1.00D-06.
 Requested convergence on             energy=1.00D-06.
 No special actions if energy rises.
 Using DIIS extrapolation, IDIIS=  1040.
 Integral symmetry usage will be decided dynamically.
        30923 words used for storage of precomputed grid.
 IEnd=       64406 IEndB=       64406 NGot=  1073741824 MDV=  1073698889
 LenX=  1073698889 LenY=  1073693687
 Fock matrices will be formed incrementally for  20 cycles.

 Cycle   1  Pass 1  IDiag  1:
 FoFJK:  IHMeth= 1 ICntrl=     0 DoSepK=T KAlg= 1 I1Cent= 0 FoldK=F
 FoFCou: FMM=F IPFlag=           0 FMFlag=      100000 FMFlg1=           0
         NFxFlg=           0 DoJE=T BraDBF=F KetDBF=F FulRan=T
         Omega=  0.000000  0.000000  1.000000  0.000000  0.000000 ICntrl=     500 IOpCl=  0
         NMat0=    1 NMatS0=    1 NMatT0=    0 NMatD0=    1 NMtDS0=    0 NMtDT0=    0
         I1Cent=           0 NGrid=           0.
 Symmetry not used in FoFCou.
 E= -2753.41754223393    
 DIIS: error= 9.88D-14 at cycle   1 NSaved=   1.
 NSaved= 1 IEnMin= 1 EnMin= -2753.41754223393     IErMin= 1 ErrMin= 9.88D-14
 ErrMax= 9.88D-14 EMaxC= 1.00D-01 BMatC= 2.30D-25 BMatP= 2.30D-25
 IDIUse=1 WtCom= 1.00D+00 WtEn= 0.00D+00
 Coeff-Com:  0.100D+01
 Coeff:      0.100D+01
 Gap=     0.595 Goal=   None    Shift=    0.000
 RMSDP=1.00D-14 MaxDP=8.98D-14              OVMax= 3.52D-13

 SCF Done:  E(RLC-B+HF-LYP) =  -2753.41754223     A.U. after    1 cycles
             Convg  =    0.1002D-13             -V/T =  2.0015
 KE= 2.749372504928D+03 PE=-6.578588569976D+03 EE= 1.075798522814D+03
 Leave Link  502 at Wed May 13 20:53:48 2020, MaxMem= 1073741824 cpu:      10.8
 (Enter /home/matheus/.gaussian/g09/l122.exe)
 Restoring MOs from calculation   1 to rwf.
 Counterpoise: corrected energy =   -2904.743470183527
 Counterpoise: BSSE energy =       0.000025146486
 Leave Link  122 at Wed May 13 20:53:48 2020, MaxMem= 1073741824 cpu:       0.0
 (Enter /home/matheus/.gaussian/g09/l108.exe)
 Scan completed.

 Summary of the potential surface scan:
   N      R1          SCF    
 ----  ---------  -----------
    1     3.0000  -2753.41754
    2     3.1000  -2753.41754
    3     3.2000  -2753.41754
    4     3.3000  -2753.41754
    5     3.4000  -2753.41754
    6     3.5000  -2753.41754
    7     3.6000  -2753.41754
    8     3.7000  -2753.41754
    9     3.8000  -2753.41754
   10     3.9000  -2753.41754
   11     4.0000  -2753.41754
   12     4.1000  -2753.41754
   13     4.2000  -2753.41754
   14     4.3000  -2753.41754
   15     4.4000  -2753.41754
   16     4.5000  -2753.41754
   17     4.6000  -2753.41754
   18     4.7000  -2753.41754
   19     4.8000  -2753.41754
   20     4.9000  -2753.41754
   21     5.0000  -2753.41754
 ----  ---------  -----------
  
 Leave Link  108 at Wed May 13 20:53:48 2020, MaxMem= 1073741824 cpu:       0.0
 (Enter /home/matheus/.gaussian/g09/l9999.exe)
 1\1\GINC-REDGIANT\Scan\RLC-BLYP\Aug-CC-pVTZ\H2Kr1O2\MATHEUS\13-May-202
 0\1\\#p lc-blyp/aug-cc-PVTz int=ultrafine counterpoise=2 Scan\\TCC\\0,
 1\O,0,0.,0.,0.725\O,0,0.,0.,-0.725\H,0,-0.7037808064,-0.5905422151,1.0
 235104166\H,0,0.,0.9187205947,-1.0235104166\Kr,0,0.,R1,0.\\R1=3.,s,20,
 0.1\\Version=EM64L-G09RevC.01\State=1-A\HF=-2753.4175422,-2753.4175422
 ,-2753.4175422,-2753.4175422,-2753.4175422,-2753.4175422,-2753.4175422
 ,-2753.4175422,-2753.4175422,-2753.4175422,-2753.4175422,-2753.4175422
 ,-2753.4175422,-2753.4175422,-2753.4175422,-2753.4175422,-2753.4175422
 ,-2753.4175422,-2753.4175422,-2753.4175422,-2753.4175422\RMSD=1.334e-0
 9,5.265e-11,1.630e-11,9.948e-12,5.938e-12,3.610e-12,2.186e-12,1.318e-1
 2,7.978e-13,4.881e-13,2.951e-13,1.818e-13,1.111e-13,6.734e-14,4.117e-1
 4,2.622e-14,1.557e-14,1.114e-14,6.791e-15,4.115e-15,1.002e-14\PG=C01 [
 X(H2Kr1O2)]\\@


 IF AT FIRST YOU DON'T SUCCEED, TRY, TRY AGAIN.
 THEN GIVE UP;
 THERE'S NO USE BEING A DAMN FOOL ABOUT IT.

                                 -- W. C. FIELDS
 Job cpu time:  0 days  3 hours 14 minutes 12.1 seconds.
 File lengths (MBytes):  RWF=     33 Int=      0 D2E=      0 Chk=      8 Scr=      1
 Normal termination of Gaussian 09 at Wed May 13 20:53:48 2020.
