 Entering Gaussian System, Link 0=g09
 Input=/home/matheus/.tcc/Inputs/Inputs-lc-blyp-default/H2O2-Kr_32.com
 Output=/home/matheus/.tcc/Logs/Logs-lc-blyp-default/H2O2-Kr_32.log
 Initial command:
 /home/matheus/.gaussian/g09/l1.exe /home/matheus/.gaussian/g09/scratch/Gau-18422.inp -scrdir=/home/matheus/.gaussian/g09/scratch/
 Entering Link 1 = /home/matheus/.gaussian/g09/l1.exe PID=     18426.
  
 Copyright (c) 1988,1990,1992,1993,1995,1998,2003,2009,2011,
            Gaussian, Inc.  All Rights Reserved.
  
 This is part of the Gaussian(R) 09 program.  It is based on
 the Gaussian(R) 03 system (copyright 2003, Gaussian, Inc.),
 the Gaussian(R) 98 system (copyright 1998, Gaussian, Inc.),
 the Gaussian(R) 94 system (copyright 1995, Gaussian, Inc.),
 the Gaussian 92(TM) system (copyright 1992, Gaussian, Inc.),
 the Gaussian 90(TM) system (copyright 1990, Gaussian, Inc.),
 the Gaussian 88(TM) system (copyright 1988, Gaussian, Inc.),
 the Gaussian 86(TM) system (copyright 1986, Carnegie Mellon
 University), and the Gaussian 82(TM) system (copyright 1983,
 Carnegie Mellon University). Gaussian is a federally registered
 trademark of Gaussian, Inc.
  
 This software contains proprietary and confidential information,
 including trade secrets, belonging to Gaussian, Inc.
  
 This software is provided under written license and may be
 used, copied, transmitted, or stored only in accord with that
 written license.
  
 The following legend is applicable only to US Government
 contracts under FAR:
  
                    RESTRICTED RIGHTS LEGEND
  
 Use, reproduction and disclosure by the US Government is
 subject to restrictions as set forth in subparagraphs (a)
 and (c) of the Commercial Computer Software - Restricted
 Rights clause in FAR 52.227-19.
  
 Gaussian, Inc.
 340 Quinnipiac St., Bldg. 40, Wallingford CT 06492
  
  
 ---------------------------------------------------------------
 Warning -- This program may not be used in any manner that
 competes with the business of Gaussian, Inc. or will provide
 assistance to any competitor of Gaussian, Inc.  The licensee
 of this program is prohibited from giving any competitor of
 Gaussian, Inc. access to this program.  By using this program,
 the user acknowledges that Gaussian, Inc. is engaged in the
 business of creating and licensing software in the field of
 computational chemistry and represents and warrants to the
 licensee that it is not a competitor of Gaussian, Inc. and that
 it will not use this program in any manner prohibited above.
 ---------------------------------------------------------------
  

 Cite this work as:
 Gaussian 09, Revision C.01,
 M. J. Frisch, G. W. Trucks, H. B. Schlegel, G. E. Scuseria, 
 M. A. Robb, J. R. Cheeseman, G. Scalmani, V. Barone, B. Mennucci, 
 G. A. Petersson, H. Nakatsuji, M. Caricato, X. Li, H. P. Hratchian, 
 A. F. Izmaylov, J. Bloino, G. Zheng, J. L. Sonnenberg, M. Hada, 
 M. Ehara, K. Toyota, R. Fukuda, J. Hasegawa, M. Ishida, T. Nakajima, 
 Y. Honda, O. Kitao, H. Nakai, T. Vreven, J. A. Montgomery, Jr., 
 J. E. Peralta, F. Ogliaro, M. Bearpark, J. J. Heyd, E. Brothers, 
 K. N. Kudin, V. N. Staroverov, T. Keith, R. Kobayashi, J. Normand, 
 K. Raghavachari, A. Rendell, J. C. Burant, S. S. Iyengar, J. Tomasi, 
 M. Cossi, N. Rega, J. M. Millam, M. Klene, J. E. Knox, J. B. Cross, 
 V. Bakken, C. Adamo, J. Jaramillo, R. Gomperts, R. E. Stratmann, 
 O. Yazyev, A. J. Austin, R. Cammi, C. Pomelli, J. W. Ochterski, 
 R. L. Martin, K. Morokuma, V. G. Zakrzewski, G. A. Voth, 
 P. Salvador, J. J. Dannenberg, S. Dapprich, A. D. Daniels, 
 O. Farkas, J. B. Foresman, J. V. Ortiz, J. Cioslowski, 
 and D. J. Fox, Gaussian, Inc., Wallingford CT, 2010.
 
 ******************************************
 Gaussian 09:  EM64L-G09RevC.01 23-Sep-2011
                14-May-2020 
 ******************************************
 %mem=8GB
 %nproc=8
 Will use up to    8 processors via shared memory.
 --------------------------------------------------------
 #p lc-blyp/aug-cc-PVTz int=ultrafine counterpoise=2 Scan
 --------------------------------------------------------
 1/38=1,60=1,62=2/1,8;
 2/12=2,17=6,18=5,29=3,40=1/2;
 1/38=1,53=5172,62=2/22;
 3/5=16,6=1,7=10,11=2,16=1,25=1,30=1,74=1000402,75=-5/1,2,3;
 4//1;
 5/5=2,38=5/2;
 6/7=2,8=2,9=2,10=2,18=1,28=1/1;
 1/53=4052,62=2,63=1/22;
 3/5=7,6=11,7=10,11=2,16=1,25=1,30=1,74=1000402,75=-5,82=7/1,2,3;
 4//1;
 5/5=2,38=5/2;
 6/7=2,8=2,9=2,10=2,18=1,28=1/1;
 1/53=3042,62=2,63=2/22;
 3/5=7,6=11,7=10,11=2,16=1,25=1,30=1,74=1000402,75=-5,82=7/1,2,3;
 4//1;
 5/5=2,38=5/2;
 6/7=2,8=2,9=2,10=2,18=1,28=1/1;
 1/53=2032,62=2,63=3/22;
 3/5=7,6=11,7=10,11=2,16=1,25=1,30=1,74=1000402,75=-5,82=7/1,2,3;
 4//1;
 5/5=2,38=5/2;
 6/7=2,8=2,9=2,10=2,18=1,28=1/1;
 1/53=1022,62=2,63=4/22;
 3/5=7,6=11,7=10,11=2,16=1,25=1,30=1,74=1000402,75=-5,82=7/1,2,3;
 4//1;
 5/5=2,38=5/2;
 6/7=2,8=2,9=2,10=2,18=1,28=1/1;
 1/53=5014,62=2,63=5/22;
 1/60=1,62=2/8(1);
 99/9=1/99;
 2/29=3/2;
 1/53=5173,62=2/22;
 3/5=7,6=11,7=10,11=2,16=1,25=1,30=1,74=1000402,75=-5,82=7/1,2,3;
 4/5=5,16=3/1;
 5/5=2,38=5/2;
 1/53=4053,62=2,63=1/22;
 3/5=7,6=11,7=10,11=2,16=1,25=1,30=1,74=1000402,75=-5,82=7/1,2,3;
 4/5=5,16=3/1;
 5/5=2,38=5/2;
 1/53=3043,62=2,63=2/22;
 3/5=7,6=11,7=10,11=2,16=1,25=1,30=1,74=1000402,75=-5,82=7/1,2,3;
 4/5=5,16=3/1;
 5/5=2,38=5/2;
 1/53=2033,62=2,63=3/22;
 3/5=7,6=11,7=10,11=2,16=1,25=1,30=1,74=1000402,75=-5,82=7/1,2,3;
 4/5=5,16=3/1;
 5/5=2,38=5/2;
 1/53=1024,62=2,63=4/22;
 3/5=7,6=11,7=10,11=2,16=1,25=1,30=1,74=1000402,75=-5,82=7/1,2,3;
 4/5=5,16=3/1;
 5/5=2,38=5/2;
 1/53=5014,62=2,63=5/22;
 1/60=1,62=2/8(-22);
 99/9=1/99;
 Leave Link    1 at Thu May 14 00:30:04 2020, MaxMem= 1073741824 cpu:       0.2
 (Enter /home/matheus/.gaussian/g09/l101.exe)
 ---
 TCC
 ---
 Charge =  0 Multiplicity = 1 in supermolecule
 Charge =  0 Multiplicity = 1 in fragment  1.
 Charge =  0 Multiplicity = 1 in fragment  2.
 Symbolic Z-Matrix:
 O(Fragment=1)         0.        0.        0.725 
 O(Fragment=1)         0.        0.       -0.725 
 H(Fragment=1)        -0.59054   0.70378   1.02351 
 H(Fragment=1)         0.        0.91872  -1.02351 
 Kr(Fragment=2)        0.       R1        0. 
       Variables:
  R1                    3.     Scan 20    0.1    
 
 NAtoms=      5 NQM=        0 NQMF=       0 NMMI=      5 NMMIF=      0
                NMic=       0 NMicF=      0.
                    Isotopes and Nuclear Properties:
 (Nuclear quadrupole moments (NQMom) in fm**2, nuclear magnetic moments (NMagM)
  in nuclear magnetons)

  Atom         1           2           3           4           5
 IAtWgt=          16          16           1           1          84
 AtmWgt=  15.9949146  15.9949146   1.0078250   1.0078250  83.9115064
 NucSpn=           0           0           1           1           0
 AtZEff=   0.0000000   0.0000000   0.0000000   0.0000000   0.0000000
 NQMom=    0.0000000   0.0000000   0.0000000   0.0000000   0.0000000
 NMagM=    0.0000000   0.0000000   2.7928460   2.7928460   0.0000000
 Leave Link  101 at Thu May 14 00:30:04 2020, MaxMem= 1073741824 cpu:       0.3
 (Enter /home/matheus/.gaussian/g09/l108.exe)
 Scan the potential surface.
 Variable   Value     No. Steps Step-Size
 -------- ----------- --------- ---------
     1       3.000000      20      0.1000
 A total of     21 points will be computed.
 Leave Link  108 at Thu May 14 00:30:04 2020, MaxMem= 1073741824 cpu:       0.0
 (Enter /home/matheus/.gaussian/g09/l202.exe)
 ---------------------------------------------------------------------------------------------------
                            Z-MATRIX (ANGSTROMS AND DEGREES)
   CD    Cent   Atom    N1       Length/X        N2       Alpha/Y        N3        Beta/Z          J
 ---------------------------------------------------------------------------------------------------
      1      1  O        0   0.000000          0.000000          0.725000
      2      2  O        0   0.000000          0.000000         -0.725000
      3      3  H        0  -0.590542          0.703781          1.023510
      4      4  H        0   0.000000          0.918721         -1.023510
      5      5  Kr       0   0.000000          3.000000          0.000000
 ---------------------------------------------------------------------------------------------------
                         Z-Matrix orientation:                         
 ---------------------------------------------------------------------
 Center     Atomic      Atomic             Coordinates (Angstroms)
 Number     Number       Type             X           Y           Z
 ---------------------------------------------------------------------
      1          8           0        0.000000    0.000000    0.725000
      2          8           0        0.000000    0.000000   -0.725000
      3          1           0       -0.590542    0.703781    1.023510
      4          1           0        0.000000    0.918721   -1.023510
      5         36           0        0.000000    3.000000    0.000000
 ---------------------------------------------------------------------
                    Distance matrix (angstroms):
                    1          2          3          4          5
     1  O    0.000000
     2  O    1.450000   0.000000
     3  H    0.966000   1.975180   0.000000
     4  H    1.975180   0.966000   2.141316   0.000000
     5  Kr   3.086361   3.086361   2.582428   2.319331   0.000000
 Stoichiometry    H2KrO2
 Framework group  C1[X(H2KrO2)]
 Deg. of freedom     9
 Full point group                 C1      NOp   1
 Largest Abelian subgroup         C1      NOp   1
 Largest concise Abelian subgroup C1      NOp   1
                         Standard orientation:                         
 ---------------------------------------------------------------------
 Center     Atomic      Atomic             Coordinates (Angstroms)
 Number     Number       Type             X           Y           Z
 ---------------------------------------------------------------------
      1          8           0       -2.031661   -0.717244   -0.068894
      2          8           0       -2.028133    0.730229    0.016606
      3          1           0       -1.333152   -1.052071    0.508282
      4          1           0       -1.108715    1.025573    0.041099
      5         36           0        0.970006   -0.002150   -0.003641
 ---------------------------------------------------------------------
 Rotational constants (GHZ):     26.2249700      2.3786625      2.1869902
 Leave Link  202 at Thu May 14 00:30:04 2020, MaxMem= 1073741824 cpu:       0.0
 (Enter /home/matheus/.gaussian/g09/l122.exe)
 Leave Link  122 at Thu May 14 00:30:04 2020, MaxMem= 1073741824 cpu:       0.0
 (Enter /home/matheus/.gaussian/g09/l301.exe)
 Standard basis: Aug-CC-pVTZ (5D, 7F)
 Ernie: Thresh=  0.10000D-02 Tol=  0.10000D-05 Strict=F.
 Ernie:  38 primitive shells out of 205 were deleted.
 There are   197 symmetry adapted basis functions of A   symmetry.
 Integral buffers will be    131072 words long.
 Raffenetti 2 integral format.
 Two-electron integral symmetry is turned on.
   197 basis functions,   415 primitive gaussians,   229 cartesian basis functions
    27 alpha electrons       27 beta electrons
       nuclear repulsion energy       151.0050746500 Hartrees.
 IExCor=10402 DFT=T Ex=LC-B+HF Corr=LYP ExCW=0 ScaHFX=  1.000000
 ScaDFX=  1.000000  1.000000  1.000000  1.000000 ScalE2=  1.000000  1.000000
 IRadAn=      5 IRanWt=     -1 IRanGd=            0 ICorTp=0
  HFx wShort=  0.000000 wLong=  0.470000 cFull=  0.000000 cShort=  0.000000 cLong=  1.000000
  DFx wShort=  0.000000 wLong=  0.470000 cFull=  0.000000 cShort=  0.000000 cLong=  1.000000
 NAtoms=    5 NActive=    5 NUniq=    5 SFac= 1.00D+00 NAtFMM=   60 NAOKFM=F Big=F
 Leave Link  301 at Thu May 14 00:30:04 2020, MaxMem= 1073741824 cpu:       0.2
 (Enter /home/matheus/.gaussian/g09/l302.exe)
 NPDir=0 NMtPBC=     1 NCelOv=     1 NCel=       1 NClECP=     1 NCelD=      1
         NCelK=      1 NCelE2=     1 NClLst=     1 CellRange=     0.0.
 One-electron integrals computed using PRISM.
 NBasis=   197 RedAO= T  NBF=   197
 NBsUse=   197 1.00D-06 NBFU=   197
 Precomputing XC quadrature grid using
 IXCGrd= 2 IRadAn=           5 IRanWt=          -1 IRanGd=           0 AccXCQ= 0.00D+00.
 NRdTot=     427 NPtTot=      123512 NUsed=      126579 NTot=      126611
 NSgBfM=   229   229   229   229   229 NAtAll=     5     5.
 Leave Link  302 at Thu May 14 00:30:04 2020, MaxMem= 1073741824 cpu:       0.9
 (Enter /home/matheus/.gaussian/g09/l303.exe)
 DipDrv:  MaxL=1.
 Leave Link  303 at Thu May 14 00:30:04 2020, MaxMem= 1073741824 cpu:       0.2
 (Enter /home/matheus/.gaussian/g09/l401.exe)
 Harris functional with IExCor=10402 diagonalized for initial guess.
 ExpMin= 2.53D-02 ExpMax= 1.17D+07 ExpMxC= 1.33D+04 IAcc=3 IRadAn=         5 AccDes= 0.00D+00
 HarFok:  IExCor=10402 AccDes= 0.00D+00 IRadAn=         5 IDoV= 1
 ScaDFX=  1.000000  1.000000  1.000000  1.000000
 FoFCou: FMM=F IPFlag=           0 FMFlag=      100000 FMFlg1=           0
         NFxFlg=           0 DoJE=T BraDBF=F KetDBF=T FulRan=T
         Omega=  0.000000  0.000000  1.000000  0.000000  0.000000 ICntrl=     500 IOpCl=  0
         NMat0=    1 NMatS0=    1 NMatT0=    0 NMatD0=    1 NMtDS0=    0 NMtDT0=    0
         I1Cent=           4 NGrid=           0.
 Petite list used in FoFCou.
 Harris En= -2891.66696557166    
 Initial guess orbital symmetries:
       Occupied  (A) (A) (A) (A) (A) (A) (A) (A) (A) (A) (A) (A)
                 (A) (A) (A) (A) (A) (A) (A) (A) (A) (A) (A) (A)
                 (A) (A) (A)
       Virtual   (A) (A) (A) (A) (A) (A) (A) (A) (A) (A) (A) (A)
                 (A) (A) (A) (A) (A) (A) (A) (A) (A) (A) (A) (A)
                 (A) (A) (A) (A) (A) (A) (A) (A) (A) (A) (A) (A)
                 (A) (A) (A) (A) (A) (A) (A) (A) (A) (A) (A) (A)
                 (A) (A) (A) (A) (A) (A) (A) (A) (A) (A) (A) (A)
                 (A) (A) (A) (A) (A) (A) (A) (A) (A) (A) (A) (A)
                 (A) (A) (A) (A) (A) (A) (A) (A) (A) (A) (A) (A)
                 (A) (A) (A) (A) (A) (A) (A) (A) (A) (A) (A) (A)
                 (A) (A) (A) (A) (A) (A) (A) (A) (A) (A) (A) (A)
                 (A) (A) (A) (A) (A) (A) (A) (A) (A) (A) (A) (A)
                 (A) (A) (A) (A) (A) (A) (A) (A) (A) (A) (A) (A)
                 (A) (A) (A) (A) (A) (A) (A) (A) (A) (A) (A) (A)
                 (A) (A) (A) (A) (A) (A) (A) (A) (A) (A) (A) (A)
                 (A) (A) (A) (A) (A) (A) (A) (A) (A) (A) (A) (A)
                 (A) (A)
 The electronic state of the initial guess is 1-A.
 Leave Link  401 at Thu May 14 00:30:04 2020, MaxMem= 1073741824 cpu:       3.9
 (Enter /home/matheus/.gaussian/g09/l502.exe)
 Closed shell SCF:
 Requested convergence on RMS density matrix=1.00D-08 within 128 cycles.
 Requested convergence on MAX density matrix=1.00D-06.
 Requested convergence on             energy=1.00D-06.
 No special actions if energy rises.
 Using DIIS extrapolation, IDIIS=  1040.
 Integral symmetry usage will be decided dynamically.
       126521 words used for storage of precomputed grid.
 IEnd=      305468 IEndB=      305468 NGot=  1073741824 MDV=  1073505667
 LenX=  1073505667 LenY=  1073452785
 Fock matrices will be formed incrementally for  20 cycles.

 Cycle   1  Pass 1  IDiag  1:
 FoFJK:  IHMeth= 1 ICntrl=     0 DoSepK=T KAlg= 1 I1Cent= 0 FoldK=F
 FoFCou: FMM=F IPFlag=           0 FMFlag=      100000 FMFlg1=           0
         NFxFlg=           0 DoJE=T BraDBF=F KetDBF=F FulRan=T
         Omega=  0.000000  0.000000  1.000000  0.000000  0.000000 ICntrl=     500 IOpCl=  0
         NMat0=    1 NMatS0=    1 NMatT0=    0 NMatD0=    1 NMtDS0=    0 NMtDT0=    0
         I1Cent=           0 NGrid=           0.
 Symmetry not used in FoFCou.
 E= -2904.62465624979    
 DIIS: error= 2.79D-02 at cycle   1 NSaved=   1.
 NSaved= 1 IEnMin= 1 EnMin= -2904.62465624979     IErMin= 1 ErrMin= 2.79D-02
 ErrMax= 2.79D-02 EMaxC= 1.00D-01 BMatC= 2.90D-01 BMatP= 2.90D-01
 IDIUse=3 WtCom= 7.21D-01 WtEn= 2.79D-01
 Coeff-Com:  0.100D+01
 Coeff-En:   0.100D+01
 Coeff:      0.100D+01
 Gap=     0.469 Goal=   None    Shift=    0.000
 GapD=    0.469 DampG=2.000 DampE=0.500 DampFc=1.0000 IDamp=-1.
 RMSDP=2.69D-03 MaxDP=1.56D-01              OVMax= 1.11D-01

 Cycle   2  Pass 1  IDiag  1:
 RMSU=  1.85D-03    CP:  1.02D+00
 FoFJK:  IHMeth= 1 ICntrl=     0 DoSepK=T KAlg= 1 I1Cent= 0 FoldK=F
 E= -2904.70447067822     Delta-E=       -0.079814428437 Rises=F Damp=F
 DIIS: error= 1.31D-02 at cycle   2 NSaved=   2.
 NSaved= 2 IEnMin= 2 EnMin= -2904.70447067822     IErMin= 2 ErrMin= 1.31D-02
 ErrMax= 1.31D-02 EMaxC= 1.00D-01 BMatC= 9.51D-02 BMatP= 2.90D-01
 IDIUse=3 WtCom= 8.69D-01 WtEn= 1.31D-01
 Coeff-Com:  0.359D+00 0.641D+00
 Coeff-En:   0.222D-01 0.978D+00
 Coeff:      0.315D+00 0.685D+00
 Gap=     0.438 Goal=   None    Shift=    0.000
 RMSDP=1.03D-03 MaxDP=6.40D-02 DE=-7.98D-02 OVMax= 3.20D-02

 Cycle   3  Pass 1  IDiag  1:
 RMSU=  3.36D-04    CP:  1.01D+00  6.60D-01
 FoFJK:  IHMeth= 1 ICntrl=     0 DoSepK=T KAlg= 1 I1Cent= 0 FoldK=F
 E= -2904.73597784871     Delta-E=       -0.031507170484 Rises=F Damp=F
 DIIS: error= 1.37D-03 at cycle   3 NSaved=   3.
 NSaved= 3 IEnMin= 3 EnMin= -2904.73597784871     IErMin= 3 ErrMin= 1.37D-03
 ErrMax= 1.37D-03 EMaxC= 1.00D-01 BMatC= 1.19D-03 BMatP= 9.51D-02
 IDIUse=3 WtCom= 9.86D-01 WtEn= 1.37D-02
 Coeff-Com:  0.187D-02 0.954D-01 0.903D+00
 Coeff-En:   0.000D+00 0.000D+00 0.100D+01
 Coeff:      0.184D-02 0.941D-01 0.904D+00
 Gap=     0.440 Goal=   None    Shift=    0.000
 RMSDP=1.56D-04 MaxDP=6.61D-03 DE=-3.15D-02 OVMax= 6.78D-03

 Cycle   4  Pass 1  IDiag  1:
 RMSU=  6.79D-05    CP:  1.02D+00  7.03D-01  1.10D+00
 FoFJK:  IHMeth= 1 ICntrl=     0 DoSepK=T KAlg= 1 I1Cent= 0 FoldK=F
 E= -2904.73647151833     Delta-E=       -0.000493669620 Rises=F Damp=F
 DIIS: error= 4.09D-04 at cycle   4 NSaved=   4.
 NSaved= 4 IEnMin= 4 EnMin= -2904.73647151833     IErMin= 4 ErrMin= 4.09D-04
 ErrMax= 4.09D-04 EMaxC= 1.00D-01 BMatC= 5.82D-05 BMatP= 1.19D-03
 IDIUse=3 WtCom= 9.96D-01 WtEn= 4.09D-03
 Coeff-Com: -0.116D-01 0.812D-02 0.263D+00 0.740D+00
 Coeff-En:   0.000D+00 0.000D+00 0.000D+00 0.100D+01
 Coeff:     -0.116D-01 0.809D-02 0.262D+00 0.742D+00
 Gap=     0.437 Goal=   None    Shift=    0.000
 RMSDP=3.69D-05 MaxDP=1.35D-03 DE=-4.94D-04 OVMax= 1.74D-03

 Cycle   5  Pass 1  IDiag  1:
 RMSU=  2.05D-05    CP:  1.02D+00  7.05D-01  1.15D+00  1.01D+00
 FoFJK:  IHMeth= 1 ICntrl=     0 DoSepK=T KAlg= 1 I1Cent= 0 FoldK=F
 E= -2904.73651217062     Delta-E=       -0.000040652288 Rises=F Damp=F
 DIIS: error= 1.37D-04 at cycle   5 NSaved=   5.
 NSaved= 5 IEnMin= 5 EnMin= -2904.73651217062     IErMin= 5 ErrMin= 1.37D-04
 ErrMax= 1.37D-04 EMaxC= 1.00D-01 BMatC= 8.43D-06 BMatP= 5.82D-05
 IDIUse=3 WtCom= 9.99D-01 WtEn= 1.37D-03
 Coeff-Com: -0.333D-02-0.603D-02-0.932D-02 0.257D+00 0.761D+00
 Coeff-En:   0.000D+00 0.000D+00 0.000D+00 0.000D+00 0.100D+01
 Coeff:     -0.332D-02-0.602D-02-0.930D-02 0.257D+00 0.762D+00
 Gap=     0.438 Goal=   None    Shift=    0.000
 RMSDP=1.49D-05 MaxDP=4.89D-04 DE=-4.07D-05 OVMax= 1.01D-03

 Cycle   6  Pass 1  IDiag  1:
 RMSU=  6.15D-06    CP:  1.02D+00  7.06D-01  1.17D+00  1.10D+00  9.84D-01
 FoFJK:  IHMeth= 1 ICntrl=     0 DoSepK=T KAlg= 1 I1Cent= 0 FoldK=F
 E= -2904.73651899620     Delta-E=       -0.000006825586 Rises=F Damp=F
 DIIS: error= 5.03D-05 at cycle   6 NSaved=   6.
 NSaved= 6 IEnMin= 6 EnMin= -2904.73651899620     IErMin= 6 ErrMin= 5.03D-05
 ErrMax= 5.03D-05 EMaxC= 1.00D-01 BMatC= 1.03D-06 BMatP= 8.43D-06
 IDIUse=1 WtCom= 1.00D+00 WtEn= 0.00D+00
 Coeff-Com: -0.389D-03-0.328D-02-0.231D-01 0.269D-01 0.277D+00 0.723D+00
 Coeff:     -0.389D-03-0.328D-02-0.231D-01 0.269D-01 0.277D+00 0.723D+00
 Gap=     0.438 Goal=   None    Shift=    0.000
 RMSDP=5.40D-06 MaxDP=1.73D-04 DE=-6.83D-06 OVMax= 3.19D-04

 Cycle   7  Pass 1  IDiag  1:
 RMSU=  2.23D-06    CP:  1.02D+00  7.07D-01  1.17D+00  1.13D+00  1.07D+00
                    CP:  1.04D+00
 FoFJK:  IHMeth= 1 ICntrl=     0 DoSepK=T KAlg= 1 I1Cent= 0 FoldK=F
 E= -2904.73651973904     Delta-E=       -0.000000742835 Rises=F Damp=F
 DIIS: error= 2.43D-05 at cycle   7 NSaved=   7.
 NSaved= 7 IEnMin= 7 EnMin= -2904.73651973904     IErMin= 7 ErrMin= 2.43D-05
 ErrMax= 2.43D-05 EMaxC= 1.00D-01 BMatC= 2.15D-07 BMatP= 1.03D-06
 IDIUse=1 WtCom= 1.00D+00 WtEn= 0.00D+00
 Coeff-Com:  0.119D-03-0.122D-02-0.107D-01-0.222D-01 0.310D-01 0.352D+00
 Coeff-Com:  0.651D+00
 Coeff:      0.119D-03-0.122D-02-0.107D-01-0.222D-01 0.310D-01 0.352D+00
 Coeff:      0.651D+00
 Gap=     0.438 Goal=   None    Shift=    0.000
 RMSDP=1.88D-06 MaxDP=4.74D-05 DE=-7.43D-07 OVMax= 9.82D-05

 Cycle   8  Pass 1  IDiag  1:
 RMSU=  6.35D-07    CP:  1.02D+00  7.07D-01  1.17D+00  1.13D+00  1.10D+00
                    CP:  1.14D+00  8.78D-01
 FoFJK:  IHMeth= 1 ICntrl=     0 DoSepK=T KAlg= 1 I1Cent= 0 FoldK=F
 E= -2904.73651989870     Delta-E=       -0.000000159667 Rises=F Damp=F
 DIIS: error= 3.35D-06 at cycle   8 NSaved=   8.
 NSaved= 8 IEnMin= 8 EnMin= -2904.73651989870     IErMin= 8 ErrMin= 3.35D-06
 ErrMax= 3.35D-06 EMaxC= 1.00D-01 BMatC= 3.01D-09 BMatP= 2.15D-07
 IDIUse=1 WtCom= 1.00D+00 WtEn= 0.00D+00
 Coeff-Com:  0.219D-04 0.207D-03 0.169D-02-0.164D-02-0.205D-01-0.540D-01
 Coeff-Com: -0.140D-02 0.108D+01
 Coeff:      0.219D-04 0.207D-03 0.169D-02-0.164D-02-0.205D-01-0.540D-01
 Coeff:     -0.140D-02 0.108D+01
 Gap=     0.438 Goal=   None    Shift=    0.000
 RMSDP=5.99D-07 MaxDP=1.59D-05 DE=-1.60D-07 OVMax= 4.51D-05

 Cycle   9  Pass 1  IDiag  1:
 RMSU=  1.65D-07    CP:  1.02D+00  7.07D-01  1.17D+00  1.14D+00  1.11D+00
                    CP:  1.17D+00  9.51D-01  1.29D+00
 FoFJK:  IHMeth= 1 ICntrl=     0 DoSepK=T KAlg= 1 I1Cent= 0 FoldK=F
 E= -2904.73651990585     Delta-E=       -0.000000007150 Rises=F Damp=F
 DIIS: error= 8.05D-07 at cycle   9 NSaved=   9.
 NSaved= 9 IEnMin= 9 EnMin= -2904.73651990585     IErMin= 9 ErrMin= 8.05D-07
 ErrMax= 8.05D-07 EMaxC= 1.00D-01 BMatC= 2.31D-10 BMatP= 3.01D-09
 IDIUse=1 WtCom= 1.00D+00 WtEn= 0.00D+00
 Coeff-Com: -0.293D-05 0.127D-03 0.870D-03 0.160D-02-0.341D-02-0.297D-01
 Coeff-Com: -0.477D-01 0.982D-01 0.980D+00
 Coeff:     -0.293D-05 0.127D-03 0.870D-03 0.160D-02-0.341D-02-0.297D-01
 Coeff:     -0.477D-01 0.982D-01 0.980D+00
 Gap=     0.438 Goal=   None    Shift=    0.000
 RMSDP=1.34D-07 MaxDP=2.66D-06 DE=-7.15D-09 OVMax= 9.51D-06

 Cycle  10  Pass 1  IDiag  1:
 RMSU=  4.55D-08    CP:  1.02D+00  7.07D-01  1.17D+00  1.14D+00  1.11D+00
                    CP:  1.18D+00  9.61D-01  1.37D+00  1.18D+00
 FoFJK:  IHMeth= 1 ICntrl=     0 DoSepK=T KAlg= 1 I1Cent= 0 FoldK=F
 E= -2904.73651990631     Delta-E=       -0.000000000458 Rises=F Damp=F
 DIIS: error= 2.46D-07 at cycle  10 NSaved=  10.
 NSaved=10 IEnMin=10 EnMin= -2904.73651990631     IErMin=10 ErrMin= 2.46D-07
 ErrMax= 2.46D-07 EMaxC= 1.00D-01 BMatC= 9.78D-12 BMatP= 2.31D-10
 IDIUse=1 WtCom= 1.00D+00 WtEn= 0.00D+00
 Coeff-Com: -0.272D-06-0.854D-05-0.893D-04 0.808D-04 0.103D-02 0.299D-02
 Coeff-Com:  0.730D-03-0.586D-01 0.916D-02 0.104D+01
 Coeff:     -0.272D-06-0.854D-05-0.893D-04 0.808D-04 0.103D-02 0.299D-02
 Coeff:      0.730D-03-0.586D-01 0.916D-02 0.104D+01
 Gap=     0.438 Goal=   None    Shift=    0.000
 RMSDP=3.43D-08 MaxDP=8.01D-07 DE=-4.58D-10 OVMax= 3.07D-06

 Cycle  11  Pass 1  IDiag  1:
 RMSU=  1.35D-08    CP:  1.02D+00  7.07D-01  1.17D+00  1.14D+00  1.11D+00
                    CP:  1.18D+00  9.61D-01  1.38D+00  1.25D+00  1.26D+00
 FoFJK:  IHMeth= 1 ICntrl=     0 DoSepK=T KAlg= 1 I1Cent= 0 FoldK=F
 E= -2904.73651990637     Delta-E=       -0.000000000057 Rises=F Damp=F
 DIIS: error= 1.12D-07 at cycle  11 NSaved=  11.
 NSaved=11 IEnMin=11 EnMin= -2904.73651990637     IErMin=11 ErrMin= 1.12D-07
 ErrMax= 1.12D-07 EMaxC= 1.00D-01 BMatC= 1.17D-12 BMatP= 9.78D-12
 IDIUse=1 WtCom= 1.00D+00 WtEn= 0.00D+00
 Coeff-Com: -0.290D-06-0.111D-04-0.607D-04-0.115D-03 0.132D-03 0.194D-02
 Coeff-Com:  0.383D-02-0.188D-02-0.725D-01-0.136D+00 0.120D+01
 Coeff:     -0.290D-06-0.111D-04-0.607D-04-0.115D-03 0.132D-03 0.194D-02
 Coeff:      0.383D-02-0.188D-02-0.725D-01-0.136D+00 0.120D+01
 Gap=     0.438 Goal=   None    Shift=    0.000
 RMSDP=1.43D-08 MaxDP=3.28D-07 DE=-5.73D-11 OVMax= 1.68D-06

 Cycle  12  Pass 1  IDiag  1:
 RMSU=  3.77D-09    CP:  1.02D+00  7.07D-01  1.17D+00  1.14D+00  1.11D+00
                    CP:  1.18D+00  9.61D-01  1.38D+00  1.26D+00  1.38D+00
                    CP:  1.48D+00
 FoFJK:  IHMeth= 1 ICntrl=     0 DoSepK=T KAlg= 1 I1Cent= 0 FoldK=F
 E= -2904.73651990638     Delta-E=       -0.000000000010 Rises=F Damp=F
 DIIS: error= 3.82D-08 at cycle  12 NSaved=  12.
 NSaved=12 IEnMin=12 EnMin= -2904.73651990638     IErMin=12 ErrMin= 3.82D-08
 ErrMax= 3.82D-08 EMaxC= 1.00D-01 BMatC= 1.28D-13 BMatP= 1.17D-12
 IDIUse=1 WtCom= 1.00D+00 WtEn= 0.00D+00
 Coeff-Com:  0.137D-06 0.331D-05 0.215D-04 0.133D-04-0.135D-03-0.716D-03
 Coeff-Com: -0.773D-03 0.697D-02 0.123D-01-0.944D-01-0.180D+00 0.126D+01
 Coeff:      0.137D-06 0.331D-05 0.215D-04 0.133D-04-0.135D-03-0.716D-03
 Coeff:     -0.773D-03 0.697D-02 0.123D-01-0.944D-01-0.180D+00 0.126D+01
 Gap=     0.438 Goal=   None    Shift=    0.000
 RMSDP=5.60D-09 MaxDP=1.24D-07 DE=-1.00D-11 OVMax= 7.92D-07

 SCF Done:  E(RLC-B+HF-LYP) =  -2904.73651991     A.U. after   12 cycles
             Convg  =    0.5603D-08             -V/T =  2.0017
 KE= 2.899847288636D+03 PE=-7.237598647942D+03 EE= 1.282009764750D+03
 Leave Link  502 at Thu May 14 00:30:45 2020, MaxMem= 1073741824 cpu:     325.7
 (Enter /home/matheus/.gaussian/g09/l601.exe)
 Copying SCF densities to generalized density rwf, IOpCl= 0 IROHF=0.

 **********************************************************************

            Population analysis using the SCF density.

 **********************************************************************

 Orbital symmetries:
       Occupied  (A) (A) (A) (A) (A) (A) (A) (A) (A) (A) (A) (A)
                 (A) (A) (A) (A) (A) (A) (A) (A) (A) (A) (A) (A)
                 (A) (A) (A)
       Virtual   (A) (A) (A) (A) (A) (A) (A) (A) (A) (A) (A) (A)
                 (A) (A) (A) (A) (A) (A) (A) (A) (A) (A) (A) (A)
                 (A) (A) (A) (A) (A) (A) (A) (A) (A) (A) (A) (A)
                 (A) (A) (A) (A) (A) (A) (A) (A) (A) (A) (A) (A)
                 (A) (A) (A) (A) (A) (A) (A) (A) (A) (A) (A) (A)
                 (A) (A) (A) (A) (A) (A) (A) (A) (A) (A) (A) (A)
                 (A) (A) (A) (A) (A) (A) (A) (A) (A) (A) (A) (A)
                 (A) (A) (A) (A) (A) (A) (A) (A) (A) (A) (A) (A)
                 (A) (A) (A) (A) (A) (A) (A) (A) (A) (A) (A) (A)
                 (A) (A) (A) (A) (A) (A) (A) (A) (A) (A) (A) (A)
                 (A) (A) (A) (A) (A) (A) (A) (A) (A) (A) (A) (A)
                 (A) (A) (A) (A) (A) (A) (A) (A) (A) (A) (A) (A)
                 (A) (A) (A) (A) (A) (A) (A) (A) (A) (A) (A) (A)
                 (A) (A) (A) (A) (A) (A) (A) (A) (A) (A) (A) (A)
                 (A) (A)
 The electronic state is 1-A.
 Alpha  occ. eigenvalues -- -511.27657 -66.74647 -60.43177 -60.43167 -60.43155
 Alpha  occ. eigenvalues --  -19.07163 -19.06956  -9.63795  -7.39277  -7.39250
 Alpha  occ. eigenvalues --   -7.39215  -3.35614  -3.35610  -3.35584  -3.35563
 Alpha  occ. eigenvalues --   -3.35559  -1.28496  -1.09583  -1.06152  -0.72716
 Alpha  occ. eigenvalues --   -0.59234  -0.57998  -0.55055  -0.54391  -0.53410
 Alpha  occ. eigenvalues --   -0.49457  -0.41399
 Alpha virt. eigenvalues --    0.02377   0.03655   0.07388   0.08284   0.09687
 Alpha virt. eigenvalues --    0.10890   0.11947   0.13952   0.16272   0.16900
 Alpha virt. eigenvalues --    0.17132   0.18679   0.19391   0.20901   0.22699
 Alpha virt. eigenvalues --    0.23354   0.24078   0.27477   0.30290   0.32292
 Alpha virt. eigenvalues --    0.33046   0.34374   0.36765   0.37788   0.39124
 Alpha virt. eigenvalues --    0.41577   0.42729   0.46851   0.52286   0.53551
 Alpha virt. eigenvalues --    0.58118   0.59141   0.60607   0.63739   0.66978
 Alpha virt. eigenvalues --    0.67607   0.70228   0.73182   0.75119   0.75978
 Alpha virt. eigenvalues --    0.76139   0.77154   0.79455   0.81450   0.84140
 Alpha virt. eigenvalues --    0.85758   0.86645   0.87622   0.89254   0.91433
 Alpha virt. eigenvalues --    0.91958   0.94783   0.96544   0.97733   1.01061
 Alpha virt. eigenvalues --    1.01869   1.02843   1.05861   1.06294   1.11049
 Alpha virt. eigenvalues --    1.12950   1.18653   1.19129   1.22364   1.23954
 Alpha virt. eigenvalues --    1.30903   1.35509   1.37256   1.40749   1.44202
 Alpha virt. eigenvalues --    1.48064   1.49461   1.52164   1.55543   1.60022
 Alpha virt. eigenvalues --    1.63864   1.69113   1.84607   1.90457   1.94487
 Alpha virt. eigenvalues --    2.01126   2.07405   2.10358   2.12952   2.13563
 Alpha virt. eigenvalues --    2.15383   2.20045   2.22012   2.22500   2.27847
 Alpha virt. eigenvalues --    2.30023   2.31579   2.32719   2.33788   2.34424
 Alpha virt. eigenvalues --    2.39238   2.40490   2.45358   2.49225   2.49911
 Alpha virt. eigenvalues --    2.52078   2.52779   2.56404   2.57829   2.59567
 Alpha virt. eigenvalues --    2.60056   2.66738   2.67305   2.72015   2.73608
 Alpha virt. eigenvalues --    2.74584   2.78738   2.81841   2.90487   2.91827
 Alpha virt. eigenvalues --    2.94769   3.04151   3.10449   3.13354   3.64021
 Alpha virt. eigenvalues --    3.67247   3.92392   4.01055   4.01465   4.04060
 Alpha virt. eigenvalues --    4.13585   4.17308   4.23545   4.25153   4.25999
 Alpha virt. eigenvalues --    4.45052   4.50474   4.61841   4.65025   4.65703
 Alpha virt. eigenvalues --    4.99575   5.02351   5.06202   5.07689   5.12882
 Alpha virt. eigenvalues --    5.17473   5.46236   5.85089   6.02687   6.11242
 Alpha virt. eigenvalues --    6.14341   6.35475   6.41266   6.44790   6.56954
 Alpha virt. eigenvalues --    6.68349   6.74231   6.79143   6.84893   6.86455
 Alpha virt. eigenvalues --    6.89847   6.90583   6.91771   6.93207   7.07578
 Alpha virt. eigenvalues --    7.13319   7.18124   7.23975   7.41710   7.53361
 Alpha virt. eigenvalues --    7.92348   8.01747   8.15699  13.89288  14.59694
          Condensed to atoms (all electrons):
              1          2          3          4          5
     1  O    8.253210  -0.215802   0.163239   0.031579  -0.028258
     2  O   -0.215802   8.212154   0.043698   0.187825  -0.016455
     3  H    0.163239   0.043698   0.616666  -0.019728  -0.001910
     4  H    0.031579   0.187825  -0.019728   0.609693  -0.008510
     5  Kr  -0.028258  -0.016455  -0.001910  -0.008510  36.036920
 Mulliken atomic charges:
              1
     1  O   -0.203968
     2  O   -0.211420
     3  H    0.198035
     4  H    0.199141
     5  Kr   0.018212
 Sum of Mulliken atomic charges =   0.00000
 Mulliken charges with hydrogens summed into heavy atoms:
              1
     1  O   -0.005933
     2  O   -0.012279
     5  Kr   0.018212
 Sum of Mulliken charges with hydrogens summed into heavy atoms =   0.00000
          Condensed to fragments (all electrons):
     1      -0.018212
     2       0.018212
 Electronic spatial extent (au):  <R**2>=            478.2858
 Charge=              0.0000 electrons
 Dipole moment (field-independent basis, Debye):
    X=              3.2984    Y=             -0.1600    Z=              0.9057  Tot=              3.4242
 Quadrupole moment (field-independent basis, Debye-Ang):
   XX=            -38.8875   YY=            -28.3686   ZZ=            -30.1799
   XY=              0.5492   XZ=             -1.2119   YZ=             -1.1914
 Traceless Quadrupole moment (field-independent basis, Debye-Ang):
   XX=             -6.4089   YY=              4.1101   ZZ=              2.2988
   XY=              0.5492   XZ=             -1.2119   YZ=             -1.1914
 Octapole moment (field-independent basis, Debye-Ang**2):
  XXX=             45.8668  YYY=             -0.4136  ZZZ=              0.2685  XYY=              7.8381
  XXY=             -1.3271  XXZ=              0.6868  XZZ=              8.1682  YZZ=             -0.7890
  YYZ=              1.4083  XYZ=              1.5743
 Hexadecapole moment (field-independent basis, Debye-Ang**3):
 XXXX=           -468.5272 YYYY=            -64.9779 ZZZZ=            -30.6568 XXXY=              1.6283
 XXXZ=              0.1763 YYYX=              1.0452 YYYZ=             -1.6935 ZZZX=             -0.7107
 ZZZY=             -0.9195 XXYY=            -87.3846 XXZZ=            -76.6099 YYZZ=            -17.2711
 XXYZ=             -2.0885 YYXZ=             -1.8770 ZZXY=              1.1142
 N-N= 1.510050746500D+02 E-N=-7.237598650277D+03  KE= 2.899847288636D+03
 No NMR shielding tensors so no spin-rotation constants.
 Leave Link  601 at Thu May 14 00:30:45 2020, MaxMem= 1073741824 cpu:       0.9
 (Enter /home/matheus/.gaussian/g09/l122.exe)
 Counterpoise: doing DCBS calculation for fragment   1 NewBq=T
 Leave Link  122 at Thu May 14 00:30:45 2020, MaxMem= 1073741824 cpu:       0.0
 (Enter /home/matheus/.gaussian/g09/l301.exe)
 Basis read from rwf:  (5D, 7F)
 No pseudopotential information found on rwf file.
 There are   197 symmetry adapted basis functions of A   symmetry.
 Integral buffers will be    131072 words long.
 Raffenetti 2 integral format.
 Two-electron integral symmetry is turned on.
   197 basis functions,   415 primitive gaussians,   229 cartesian basis functions
     9 alpha electrons        9 beta electrons
       nuclear repulsion energy        36.6553686071 Hartrees.
 IExCor=10402 DFT=T Ex=LC-B+HF Corr=LYP ExCW=0 ScaHFX=  1.000000
 ScaDFX=  1.000000  1.000000  1.000000  1.000000 ScalE2=  1.000000  1.000000
 IRadAn=      5 IRanWt=     -1 IRanGd=            0 ICorTp=0
  HFx wShort=  0.000000 wLong=  0.470000 cFull=  0.000000 cShort=  0.000000 cLong=  1.000000
  DFx wShort=  0.000000 wLong=  0.470000 cFull=  0.000000 cShort=  0.000000 cLong=  1.000000
 NAtoms=    5 NActive=    5 NUniq=    5 SFac= 1.00D+00 NAtFMM=   60 NAOKFM=F Big=F
 No density basis found on file   718.
 Leave Link  301 at Thu May 14 00:30:45 2020, MaxMem= 1073741824 cpu:       0.2
 (Enter /home/matheus/.gaussian/g09/l302.exe)
 NPDir=0 NMtPBC=     1 NCelOv=     1 NCel=       1 NClECP=     1 NCelD=      1
         NCelK=      1 NCelE2=     1 NClLst=     1 CellRange=     0.0.
 One-electron integrals computed using PRISM.
 NBasis=   197 RedAO= T  NBF=   197
 NBsUse=   197 1.00D-06 NBFU=   197
 Precomputing XC quadrature grid using
 IXCGrd= 2 IRadAn=           5 IRanWt=          -1 IRanGd=           0 AccXCQ= 0.00D+00.
 NRdTot=     427 NPtTot=      123512 NUsed=      126579 NTot=      126611
 NSgBfM=   229   229   229   229   229 NAtAll=     5     5.
 Leave Link  302 at Thu May 14 00:30:45 2020, MaxMem= 1073741824 cpu:       1.0
 (Enter /home/matheus/.gaussian/g09/l303.exe)
 DipDrv:  MaxL=1.
 Leave Link  303 at Thu May 14 00:30:46 2020, MaxMem= 1073741824 cpu:       0.2
 (Enter /home/matheus/.gaussian/g09/l401.exe)
 Harris functional with IExCor=10402 diagonalized for initial guess.
 ExpMin= 2.53D-02 ExpMax= 1.17D+07 ExpMxC= 1.33D+04 IAcc=3 IRadAn=         5 AccDes= 0.00D+00
 HarFok:  IExCor=10402 AccDes= 0.00D+00 IRadAn=         5 IDoV= 1
 ScaDFX=  1.000000  1.000000  1.000000  1.000000
 FoFCou: FMM=F IPFlag=           0 FMFlag=      100000 FMFlg1=           0
         NFxFlg=           0 DoJE=T BraDBF=F KetDBF=T FulRan=T
         Omega=  0.000000  0.000000  1.000000  0.000000  0.000000 ICntrl=     500 IOpCl=  0
         NMat0=    1 NMatS0=    1 NMatT0=    0 NMatD0=    1 NMtDS0=    0 NMtDT0=    0
         I1Cent=           4 NGrid=           0.
 Petite list used in FoFCou.
 Harris En= -147.163200164019    
 Initial guess orbital symmetries:
       Occupied  (A) (A) (A) (A) (A) (A) (A) (A) (A)
       Virtual   (A) (A) (A) (A) (A) (A) (A) (A) (A) (A) (A) (A)
                 (A) (A) (A) (A) (A) (A) (A) (A) (A) (A) (A) (A)
                 (A) (A) (A) (A) (A) (A) (A) (A) (A) (A) (A) (A)
                 (A) (A) (A) (A) (A) (A) (A) (A) (A) (A) (A) (A)
                 (A) (A) (A) (A) (A) (A) (A) (A) (A) (A) (A) (A)
                 (A) (A) (A) (A) (A) (A) (A) (A) (A) (A) (A) (A)
                 (A) (A) (A) (A) (A) (A) (A) (A) (A) (A) (A) (A)
                 (A) (A) (A) (A) (A) (A) (A) (A) (A) (A) (A) (A)
                 (A) (A) (A) (A) (A) (A) (A) (A) (A) (A) (A) (A)
                 (A) (A) (A) (A) (A) (A) (A) (A) (A) (A) (A) (A)
                 (A) (A) (A) (A) (A) (A) (A) (A) (A) (A) (A) (A)
                 (A) (A) (A) (A) (A) (A) (A) (A) (A) (A) (A) (A)
                 (A) (A) (A) (A) (A) (A) (A) (A) (A) (A) (A) (A)
                 (A) (A) (A) (A) (A) (A) (A) (A) (A) (A) (A) (A)
                 (A) (A) (A) (A) (A) (A) (A) (A) (A) (A) (A) (A)
                 (A) (A) (A) (A) (A) (A) (A) (A)
 The electronic state of the initial guess is 1-A.
 Leave Link  401 at Thu May 14 00:30:46 2020, MaxMem= 1073741824 cpu:       3.9
 (Enter /home/matheus/.gaussian/g09/l502.exe)
 Closed shell SCF:
 Requested convergence on RMS density matrix=1.00D-08 within 128 cycles.
 Requested convergence on MAX density matrix=1.00D-06.
 Requested convergence on             energy=1.00D-06.
 No special actions if energy rises.
 Using DIIS extrapolation, IDIIS=  1040.
 Integral symmetry usage will be decided dynamically.
       126521 words used for storage of precomputed grid.
 IEnd=      305468 IEndB=      305468 NGot=  1073741824 MDV=  1073505667
 LenX=  1073505667 LenY=  1073452785
 Fock matrices will be formed incrementally for  20 cycles.

 Cycle   1  Pass 1  IDiag  1:
 FoFJK:  IHMeth= 1 ICntrl=     0 DoSepK=T KAlg= 1 I1Cent= 0 FoldK=F
 FoFCou: FMM=F IPFlag=           0 FMFlag=      100000 FMFlg1=           0
         NFxFlg=           0 DoJE=T BraDBF=F KetDBF=F FulRan=T
         Omega=  0.000000  0.000000  1.000000  0.000000  0.000000 ICntrl=     500 IOpCl=  0
         NMat0=    1 NMatS0=    1 NMatT0=    0 NMatD0=    1 NMtDS0=    0 NMtDT0=    0
         I1Cent=           0 NGrid=           0.
 Symmetry not used in FoFCou.
 E= -151.296919430690    
 DIIS: error= 9.75D-03 at cycle   1 NSaved=   1.
 NSaved= 1 IEnMin= 1 EnMin= -151.296919430690     IErMin= 1 ErrMin= 9.75D-03
 ErrMax= 9.75D-03 EMaxC= 1.00D-01 BMatC= 2.39D-02 BMatP= 2.39D-02
 IDIUse=3 WtCom= 9.03D-01 WtEn= 9.75D-02
 Coeff-Com:  0.100D+01
 Coeff-En:   0.100D+01
 Coeff:      0.100D+01
 Gap=     0.464 Goal=   None    Shift=    0.000
 GapD=    0.464 DampG=2.000 DampE=1.000 DampFc=2.0000 IDamp=-1.
 RMSDP=8.89D-04 MaxDP=3.00D-02              OVMax= 5.62D-02

 Cycle   2  Pass 1  IDiag  1:
 RMSU=  6.28D-04    CP:  1.00D+00
 FoFJK:  IHMeth= 1 ICntrl=     0 DoSepK=T KAlg= 1 I1Cent= 0 FoldK=F
 E= -151.318341732870     Delta-E=       -0.021422302180 Rises=F Damp=F
 DIIS: error= 3.65D-03 at cycle   2 NSaved=   2.
 NSaved= 2 IEnMin= 2 EnMin= -151.318341732870     IErMin= 2 ErrMin= 3.65D-03
 ErrMax= 3.65D-03 EMaxC= 1.00D-01 BMatC= 4.44D-03 BMatP= 2.39D-02
 IDIUse=3 WtCom= 9.63D-01 WtEn= 3.65D-02
 Coeff-Com:  0.253D+00 0.747D+00
 Coeff-En:   0.000D+00 0.100D+01
 Coeff:      0.244D+00 0.756D+00
 Gap=     0.425 Goal=   None    Shift=    0.000
 RMSDP=2.12D-04 MaxDP=6.16D-03 DE=-2.14D-02 OVMax= 1.44D-02

 Cycle   3  Pass 1  IDiag  1:
 RMSU=  1.49D-04    CP:  1.00D+00  1.02D+00
 FoFJK:  IHMeth= 1 ICntrl=     0 DoSepK=T KAlg= 1 I1Cent= 0 FoldK=F
 E= -151.320858301805     Delta-E=       -0.002516568936 Rises=F Damp=F
 DIIS: error= 1.19D-03 at cycle   3 NSaved=   3.
 NSaved= 3 IEnMin= 3 EnMin= -151.320858301805     IErMin= 3 ErrMin= 1.19D-03
 ErrMax= 1.19D-03 EMaxC= 1.00D-01 BMatC= 4.99D-04 BMatP= 4.44D-03
 IDIUse=3 WtCom= 9.88D-01 WtEn= 1.19D-02
 Coeff-Com:  0.231D-01 0.236D+00 0.741D+00
 Coeff-En:   0.000D+00 0.000D+00 0.100D+01
 Coeff:      0.228D-01 0.233D+00 0.744D+00
 Gap=     0.435 Goal=   None    Shift=    0.000
 RMSDP=1.03D-04 MaxDP=3.58D-03 DE=-2.52D-03 OVMax= 7.29D-03

 Cycle   4  Pass 1  IDiag  1:
 RMSU=  5.25D-05    CP:  1.00D+00  1.10D+00  9.67D-01
 FoFJK:  IHMeth= 1 ICntrl=     0 DoSepK=T KAlg= 1 I1Cent= 0 FoldK=F
 E= -151.321240142865     Delta-E=       -0.000381841060 Rises=F Damp=F
 DIIS: error= 3.53D-04 at cycle   4 NSaved=   4.
 NSaved= 4 IEnMin= 4 EnMin= -151.321240142865     IErMin= 4 ErrMin= 3.53D-04
 ErrMax= 3.53D-04 EMaxC= 1.00D-01 BMatC= 4.36D-05 BMatP= 4.99D-04
 IDIUse=3 WtCom= 9.96D-01 WtEn= 3.53D-03
 Coeff-Com: -0.216D-01-0.347D-01 0.179D+00 0.877D+00
 Coeff-En:   0.000D+00 0.000D+00 0.000D+00 0.100D+01
 Coeff:     -0.215D-01-0.346D-01 0.178D+00 0.878D+00
 Gap=     0.432 Goal=   None    Shift=    0.000
 RMSDP=4.24D-05 MaxDP=1.54D-03 DE=-3.82D-04 OVMax= 1.89D-03

 Cycle   5  Pass 1  IDiag  1:
 RMSU=  1.07D-05    CP:  1.00D+00  1.13D+00  1.12D+00  1.08D+00
 FoFJK:  IHMeth= 1 ICntrl=     0 DoSepK=T KAlg= 1 I1Cent= 0 FoldK=F
 E= -151.321279107083     Delta-E=       -0.000038964218 Rises=F Damp=F
 DIIS: error= 3.95D-05 at cycle   5 NSaved=   5.
 NSaved= 5 IEnMin= 5 EnMin= -151.321279107083     IErMin= 5 ErrMin= 3.95D-05
 ErrMax= 3.95D-05 EMaxC= 1.00D-01 BMatC= 3.99D-07 BMatP= 4.36D-05
 IDIUse=1 WtCom= 1.00D+00 WtEn= 0.00D+00
 Coeff-Com:  0.722D-03-0.339D-02-0.378D-01-0.807D-01 0.112D+01
 Coeff:      0.722D-03-0.339D-02-0.378D-01-0.807D-01 0.112D+01
 Gap=     0.432 Goal=   None    Shift=    0.000
 RMSDP=1.10D-05 MaxDP=4.26D-04 DE=-3.90D-05 OVMax= 6.97D-04

 Cycle   6  Pass 1  IDiag  1:
 RMSU=  2.57D-06    CP:  1.00D+00  1.13D+00  1.14D+00  1.17D+00  1.27D+00
 FoFJK:  IHMeth= 1 ICntrl=     0 DoSepK=T KAlg= 1 I1Cent= 0 FoldK=F
 E= -151.321280447798     Delta-E=       -0.000001340715 Rises=F Damp=F
 DIIS: error= 1.05D-05 at cycle   6 NSaved=   6.
 NSaved= 6 IEnMin= 6 EnMin= -151.321280447798     IErMin= 6 ErrMin= 1.05D-05
 ErrMax= 1.05D-05 EMaxC= 1.00D-01 BMatC= 2.00D-08 BMatP= 3.99D-07
 IDIUse=1 WtCom= 1.00D+00 WtEn= 0.00D+00
 Coeff-Com:  0.155D-03 0.168D-03-0.125D-02-0.584D-02-0.909D-01 0.110D+01
 Coeff:      0.155D-03 0.168D-03-0.125D-02-0.584D-02-0.909D-01 0.110D+01
 Gap=     0.432 Goal=   None    Shift=    0.000
 RMSDP=1.68D-06 MaxDP=4.85D-05 DE=-1.34D-06 OVMax= 1.51D-04

 Cycle   7  Pass 1  IDiag  1:
 RMSU=  3.51D-07    CP:  1.00D+00  1.13D+00  1.14D+00  1.18D+00  1.32D+00
                    CP:  1.27D+00
 FoFJK:  IHMeth= 1 ICntrl=     0 DoSepK=T KAlg= 1 I1Cent= 0 FoldK=F
 E= -151.321280507744     Delta-E=       -0.000000059945 Rises=F Damp=F
 DIIS: error= 3.27D-06 at cycle   7 NSaved=   7.
 NSaved= 7 IEnMin= 7 EnMin= -151.321280507744     IErMin= 7 ErrMin= 3.27D-06
 ErrMax= 3.27D-06 EMaxC= 1.00D-01 BMatC= 3.06D-09 BMatP= 2.00D-08
 IDIUse=1 WtCom= 1.00D+00 WtEn= 0.00D+00
 Coeff-Com:  0.228D-04 0.277D-03 0.202D-02 0.352D-02-0.903D-01 0.199D+00
 Coeff-Com:  0.886D+00
 Coeff:      0.228D-04 0.277D-03 0.202D-02 0.352D-02-0.903D-01 0.199D+00
 Coeff:      0.886D+00
 Gap=     0.432 Goal=   None    Shift=    0.000
 RMSDP=3.63D-07 MaxDP=1.28D-05 DE=-5.99D-08 OVMax= 4.67D-05

 Cycle   8  Pass 1  IDiag  1:
 RMSU=  1.67D-07    CP:  1.00D+00  1.13D+00  1.14D+00  1.18D+00  1.33D+00
                    CP:  1.33D+00  1.17D+00
 FoFJK:  IHMeth= 1 ICntrl=     0 DoSepK=T KAlg= 1 I1Cent= 0 FoldK=F
 E= -151.321280512774     Delta-E=       -0.000000005030 Rises=F Damp=F
 DIIS: error= 1.82D-06 at cycle   8 NSaved=   8.
 NSaved= 8 IEnMin= 8 EnMin= -151.321280512774     IErMin= 8 ErrMin= 1.82D-06
 ErrMax= 1.82D-06 EMaxC= 1.00D-01 BMatC= 1.52D-09 BMatP= 3.06D-09
 IDIUse=1 WtCom= 1.00D+00 WtEn= 0.00D+00
 Coeff-Com:  0.452D-06 0.136D-03 0.114D-02 0.237D-02-0.372D-01-0.106D-01
 Coeff-Com:  0.465D+00 0.579D+00
 Coeff:      0.452D-06 0.136D-03 0.114D-02 0.237D-02-0.372D-01-0.106D-01
 Coeff:      0.465D+00 0.579D+00
 Gap=     0.432 Goal=   None    Shift=    0.000
 RMSDP=1.18D-07 MaxDP=3.31D-06 DE=-5.03D-09 OVMax= 1.56D-05

 Cycle   9  Pass 1  IDiag  1:
 RMSU=  5.91D-08    CP:  1.00D+00  1.13D+00  1.14D+00  1.18D+00  1.33D+00
                    CP:  1.33D+00  1.31D+00  9.25D-01
 FoFJK:  IHMeth= 1 ICntrl=     0 DoSepK=T KAlg= 1 I1Cent= 0 FoldK=F
 E= -151.321280514130     Delta-E=       -0.000000001357 Rises=F Damp=F
 DIIS: error= 6.63D-07 at cycle   9 NSaved=   9.
 NSaved= 9 IEnMin= 9 EnMin= -151.321280514130     IErMin= 9 ErrMin= 6.63D-07
 ErrMax= 6.63D-07 EMaxC= 1.00D-01 BMatC= 7.24D-11 BMatP= 1.52D-09
 IDIUse=1 WtCom= 1.00D+00 WtEn= 0.00D+00
 Coeff-Com: -0.817D-05-0.367D-04-0.271D-03-0.281D-03 0.139D-01-0.440D-01
 Coeff-Com: -0.129D+00 0.496D-01 0.111D+01
 Coeff:     -0.817D-05-0.367D-04-0.271D-03-0.281D-03 0.139D-01-0.440D-01
 Coeff:     -0.129D+00 0.496D-01 0.111D+01
 Gap=     0.432 Goal=   None    Shift=    0.000
 RMSDP=7.93D-08 MaxDP=2.00D-06 DE=-1.36D-09 OVMax= 1.42D-05

 Cycle  10  Pass 1  IDiag  1:
 RMSU=  2.32D-08    CP:  1.00D+00  1.13D+00  1.14D+00  1.18D+00  1.33D+00
                    CP:  1.33D+00  1.38D+00  1.11D+00  1.33D+00
 FoFJK:  IHMeth= 1 ICntrl=     0 DoSepK=T KAlg= 1 I1Cent= 0 FoldK=F
 E= -151.321280514391     Delta-E=       -0.000000000261 Rises=F Damp=F
 DIIS: error= 1.62D-07 at cycle  10 NSaved=  10.
 NSaved=10 IEnMin=10 EnMin= -151.321280514391     IErMin=10 ErrMin= 1.62D-07
 ErrMax= 1.62D-07 EMaxC= 1.00D-01 BMatC= 3.56D-12 BMatP= 7.24D-11
 IDIUse=1 WtCom= 1.00D+00 WtEn= 0.00D+00
 Coeff-Com:  0.231D-05 0.345D-05 0.157D-04-0.279D-04-0.242D-02 0.148D-01
 Coeff-Com:  0.200D-01-0.535D-01-0.409D+00 0.143D+01
 Coeff:      0.231D-05 0.345D-05 0.157D-04-0.279D-04-0.242D-02 0.148D-01
 Coeff:      0.200D-01-0.535D-01-0.409D+00 0.143D+01
 Gap=     0.432 Goal=   None    Shift=    0.000
 RMSDP=2.64D-08 MaxDP=6.05D-07 DE=-2.61D-10 OVMax= 5.16D-06

 Cycle  11  Pass 1  IDiag  1:
 RMSU=  5.09D-09    CP:  1.00D+00  1.13D+00  1.14D+00  1.18D+00  1.32D+00
                    CP:  1.33D+00  1.38D+00  1.14D+00  1.48D+00  1.57D+00
 FoFJK:  IHMeth= 1 ICntrl=     0 DoSepK=T KAlg= 1 I1Cent= 0 FoldK=F
 E= -151.321280514412     Delta-E=       -0.000000000021 Rises=F Damp=F
 DIIS: error= 2.56D-08 at cycle  11 NSaved=  11.
 NSaved=11 IEnMin=11 EnMin= -151.321280514412     IErMin=11 ErrMin= 2.56D-08
 ErrMax= 2.56D-08 EMaxC= 1.00D-01 BMatC= 1.30D-13 BMatP= 3.56D-12
 IDIUse=1 WtCom= 1.00D+00 WtEn= 0.00D+00
 Coeff-Com:  0.384D-07 0.196D-05 0.183D-04 0.171D-04-0.660D-03 0.149D-02
 Coeff-Com:  0.603D-02 0.133D-02-0.321D-01-0.112D+00 0.114D+01
 Coeff:      0.384D-07 0.196D-05 0.183D-04 0.171D-04-0.660D-03 0.149D-02
 Coeff:      0.603D-02 0.133D-02-0.321D-01-0.112D+00 0.114D+01
 Gap=     0.432 Goal=   None    Shift=    0.000
 RMSDP=4.76D-09 MaxDP=1.46D-07 DE=-2.08D-11 OVMax= 7.63D-07

 SCF Done:  E(RLC-B+HF-LYP) =  -151.321280514     A.U. after   11 cycles
             Convg  =    0.4763D-08             -V/T =  2.0056
 KE= 1.504833653760D+02 PE=-4.314497329638D+02 EE= 9.298971846624D+01
 Leave Link  502 at Thu May 14 00:31:24 2020, MaxMem= 1073741824 cpu:     301.0
 (Enter /home/matheus/.gaussian/g09/l601.exe)
 Copying SCF densities to generalized density rwf, IOpCl= 0 IROHF=0.

 **********************************************************************

            Population analysis using the SCF density.

 **********************************************************************

 Orbital symmetries:
       Occupied  (A) (A) (A) (A) (A) (A) (A) (A) (A)
       Virtual   (A) (A) (A) (A) (A) (A) (A) (A) (A) (A) (A) (A)
                 (A) (A) (A) (A) (A) (A) (A) (A) (A) (A) (A) (A)
                 (A) (A) (A) (A) (A) (A) (A) (A) (A) (A) (A) (A)
                 (A) (A) (A) (A) (A) (A) (A) (A) (A) (A) (A) (A)
                 (A) (A) (A) (A) (A) (A) (A) (A) (A) (A) (A) (A)
                 (A) (A) (A) (A) (A) (A) (A) (A) (A) (A) (A) (A)
                 (A) (A) (A) (A) (A) (A) (A) (A) (A) (A) (A) (A)
                 (A) (A) (A) (A) (A) (A) (A) (A) (A) (A) (A) (A)
                 (A) (A) (A) (A) (A) (A) (A) (A) (A) (A) (A) (A)
                 (A) (A) (A) (A) (A) (A) (A) (A) (A) (A) (A) (A)
                 (A) (A) (A) (A) (A) (A) (A) (A) (A) (A) (A) (A)
                 (A) (A) (A) (A) (A) (A) (A) (A) (A) (A) (A) (A)
                 (A) (A) (A) (A) (A) (A) (A) (A) (A) (A) (A) (A)
                 (A) (A) (A) (A) (A) (A) (A) (A) (A) (A) (A) (A)
                 (A) (A) (A) (A) (A) (A) (A) (A) (A) (A) (A) (A)
                 (A) (A) (A) (A) (A) (A) (A) (A)
 The electronic state is 1-A.
 Alpha  occ. eigenvalues --  -19.07712 -19.07710  -1.28955  -1.06642  -0.72798
 Alpha  occ. eigenvalues --   -0.59001  -0.57830  -0.50324  -0.41926
 Alpha virt. eigenvalues --    0.01302   0.03234   0.06733   0.07461   0.08908
 Alpha virt. eigenvalues --    0.09915   0.10068   0.14410   0.16203   0.17004
 Alpha virt. eigenvalues --    0.17762   0.18998   0.19720   0.20929   0.24647
 Alpha virt. eigenvalues --    0.25953   0.27780   0.28318   0.31819   0.33372
 Alpha virt. eigenvalues --    0.34358   0.35528   0.37295   0.39340   0.40437
 Alpha virt. eigenvalues --    0.42754   0.44781   0.45369   0.47512   0.50742
 Alpha virt. eigenvalues --    0.52955   0.56652   0.58653   0.61425   0.66577
 Alpha virt. eigenvalues --    0.69171   0.71981   0.76163   0.77026   0.79379
 Alpha virt. eigenvalues --    0.81241   0.82652   0.85954   0.87594   0.89585
 Alpha virt. eigenvalues --    0.91455   0.93165   0.95195   0.97043   0.97775
 Alpha virt. eigenvalues --    1.01620   1.04545   1.05438   1.06372   1.08476
 Alpha virt. eigenvalues --    1.11870   1.15271   1.18914   1.20211   1.23131
 Alpha virt. eigenvalues --    1.26755   1.28850   1.29719   1.30629   1.32226
 Alpha virt. eigenvalues --    1.33821   1.34407   1.37095   1.42205   1.45211
 Alpha virt. eigenvalues --    1.46968   1.49556   1.52732   1.54514   1.60043
 Alpha virt. eigenvalues --    1.60717   1.62924   1.66997   1.73826   1.76257
 Alpha virt. eigenvalues --    1.82164   1.86945   1.92562   1.99111   2.04128
 Alpha virt. eigenvalues --    2.10860   2.11212   2.16811   2.20992   2.24354
 Alpha virt. eigenvalues --    2.29389   2.32935   2.34760   2.36436   2.39934
 Alpha virt. eigenvalues --    2.51424   2.54220   2.60419   2.62674   2.64772
 Alpha virt. eigenvalues --    2.66906   2.76217   2.87047   2.89795   2.93802
 Alpha virt. eigenvalues --    3.00848   3.08908   3.11548   3.23934   3.30047
 Alpha virt. eigenvalues --    3.42265   3.58968   3.60852   3.65945   3.76635
 Alpha virt. eigenvalues --    3.77637   3.80000   3.80914   3.81464   3.85554
 Alpha virt. eigenvalues --    3.88801   3.90824   3.91379   3.93480   3.96695
 Alpha virt. eigenvalues --    4.00453   4.04276   4.06143   4.10550   4.15504
 Alpha virt. eigenvalues --    4.18490   4.21129   4.25257   4.29584   4.34499
 Alpha virt. eigenvalues --    4.51394   4.52204   4.63558   4.65276   4.99573
 Alpha virt. eigenvalues --    5.02409   5.06051   5.08094   5.13071   5.17460
 Alpha virt. eigenvalues --    5.45977   5.84732   6.01969   6.10709   6.13854
 Alpha virt. eigenvalues --    6.35107   6.40880   6.44507   6.56560   6.67902
 Alpha virt. eigenvalues --    6.73589   6.78659   6.84194   6.85996   6.89411
 Alpha virt. eigenvalues --    6.90103   6.91387   6.92641   7.07191   7.12855
 Alpha virt. eigenvalues --    7.17728   7.23403   7.41238   7.52913   7.91803
 Alpha virt. eigenvalues --    8.01231   8.14586  11.03891  13.88704  14.57559
 Alpha virt. eigenvalues --   14.81160  14.89116  15.09643  29.00912  29.01601
 Alpha virt. eigenvalues --   29.05762  29.16547  29.20804  49.19674 148.29438
 Alpha virt. eigenvalues --  148.41244 148.70329 752.85657
          Condensed to atoms (all electrons):
              1          2          3          4          5
     1  O    8.222509  -0.212486   0.167521   0.030372   0.001088
     2  O   -0.212486   8.190403   0.042025   0.183773  -0.000053
     3  H    0.167521   0.042025   0.604398  -0.014845  -0.001669
     4  H    0.030372   0.183773  -0.014845   0.600177  -0.004884
     5  Kr   0.001088  -0.000053  -0.001669  -0.004884   0.000830
 Mulliken atomic charges:
              1
     1  O   -0.209004
     2  O   -0.203661
     3  H    0.202571
     4  H    0.205407
     5  Kr   0.004688
 Sum of Mulliken atomic charges =   0.00000
 Mulliken charges with hydrogens summed into heavy atoms:
              1
     1  O   -0.006434
     2  O    0.001746
     5  Kr   0.004688
 Sum of Mulliken charges with hydrogens summed into heavy atoms =   0.00000
          Condensed to fragments (all electrons):
     1      -0.004688
     2       0.004688
 Electronic spatial extent (au):  <R**2>=            318.0751
 Charge=              0.0000 electrons
 Dipole moment (field-independent basis, Debye):
    X=              2.8559    Y=             -0.0698    Z=              1.0621  Tot=              3.0478
 Quadrupole moment (field-independent basis, Debye-Ang):
   XX=            -21.4129   YY=            -10.6553   ZZ=            -12.5802
   XY=              0.5880   XZ=             -1.1022   YZ=             -1.2253
 Traceless Quadrupole moment (field-independent basis, Debye-Ang):
   XX=             -6.5301   YY=              4.2275   ZZ=              2.3026
   XY=              0.5880   XZ=             -1.1022   YZ=             -1.2253
 Octapole moment (field-independent basis, Debye-Ang**2):
  XXX=             95.0397  YYY=             -0.4287  ZZZ=              0.3324  XYY=             24.6340
  XXY=             -1.2193  XXZ=              0.7658  XZZ=             25.0497  YZZ=             -0.8037
  YYZ=              1.4398  XYZ=              1.5778
 Hexadecapole moment (field-independent basis, Debye-Ang**3):
 XXXX=           -349.4220 YYYY=            -46.3120 ZZZZ=            -12.2357 XXXY=              1.4909
 XXXZ=              0.3244 YYYX=              1.0376 YYYZ=             -1.7502 ZZZX=             -0.7120
 ZZZY=             -0.9698 XXYY=            -64.4597 XXZZ=            -53.9322 YYZZ=            -11.0748
 XXYZ=             -2.0953 YYXZ=             -1.8639 ZZXY=              1.0926
 N-N= 3.665536860714D+01 E-N=-4.314497326326D+02  KE= 1.504833653760D+02
 No NMR shielding tensors so no spin-rotation constants.
 Leave Link  601 at Thu May 14 00:31:24 2020, MaxMem= 1073741824 cpu:       0.9
 (Enter /home/matheus/.gaussian/g09/l122.exe)
 Counterpoise: doing DCBS calculation for fragment   2 NewBq=T
 Leave Link  122 at Thu May 14 00:31:24 2020, MaxMem= 1073741824 cpu:       0.0
 (Enter /home/matheus/.gaussian/g09/l301.exe)
 Basis read from rwf:  (5D, 7F)
 No pseudopotential information found on rwf file.
 There are   197 symmetry adapted basis functions of A   symmetry.
 Integral buffers will be    131072 words long.
 Raffenetti 2 integral format.
 Two-electron integral symmetry is turned on.
   197 basis functions,   415 primitive gaussians,   229 cartesian basis functions
    18 alpha electrons       18 beta electrons
       nuclear repulsion energy         0.0000000000 Hartrees.
 IExCor=10402 DFT=T Ex=LC-B+HF Corr=LYP ExCW=0 ScaHFX=  1.000000
 ScaDFX=  1.000000  1.000000  1.000000  1.000000 ScalE2=  1.000000  1.000000
 IRadAn=      5 IRanWt=     -1 IRanGd=            0 ICorTp=0
  HFx wShort=  0.000000 wLong=  0.470000 cFull=  0.000000 cShort=  0.000000 cLong=  1.000000
  DFx wShort=  0.000000 wLong=  0.470000 cFull=  0.000000 cShort=  0.000000 cLong=  1.000000
 NAtoms=    5 NActive=    5 NUniq=    5 SFac= 1.00D+00 NAtFMM=   60 NAOKFM=F Big=F
 No density basis found on file   718.
 Leave Link  301 at Thu May 14 00:31:24 2020, MaxMem= 1073741824 cpu:       0.2
 (Enter /home/matheus/.gaussian/g09/l302.exe)
 NPDir=0 NMtPBC=     1 NCelOv=     1 NCel=       1 NClECP=     1 NCelD=      1
         NCelK=      1 NCelE2=     1 NClLst=     1 CellRange=     0.0.
 One-electron integrals computed using PRISM.
 NBasis=   197 RedAO= T  NBF=   197
 NBsUse=   197 1.00D-06 NBFU=   197
 Precomputing XC quadrature grid using
 IXCGrd= 2 IRadAn=           5 IRanWt=          -1 IRanGd=           0 AccXCQ= 0.00D+00.
 NRdTot=     427 NPtTot=      123512 NUsed=      126579 NTot=      126611
 NSgBfM=   229   229   229   229   229 NAtAll=     5     5.
 Leave Link  302 at Thu May 14 00:31:24 2020, MaxMem= 1073741824 cpu:       0.9
 (Enter /home/matheus/.gaussian/g09/l303.exe)
 DipDrv:  MaxL=1.
 Leave Link  303 at Thu May 14 00:31:24 2020, MaxMem= 1073741824 cpu:       0.2
 (Enter /home/matheus/.gaussian/g09/l401.exe)
 Harris functional with IExCor=10402 diagonalized for initial guess.
 ExpMin= 2.53D-02 ExpMax= 1.17D+07 ExpMxC= 1.33D+04 IAcc=3 IRadAn=         5 AccDes= 0.00D+00
 HarFok:  IExCor=10402 AccDes= 0.00D+00 IRadAn=         5 IDoV= 1
 ScaDFX=  1.000000  1.000000  1.000000  1.000000
 FoFCou: FMM=F IPFlag=           0 FMFlag=      100000 FMFlg1=           0
         NFxFlg=           0 DoJE=T BraDBF=F KetDBF=T FulRan=T
         Omega=  0.000000  0.000000  1.000000  0.000000  0.000000 ICntrl=     500 IOpCl=  0
         NMat0=    1 NMatS0=    1 NMatT0=    0 NMatD0=    1 NMtDS0=    0 NMtDT0=    0
         I1Cent=           4 NGrid=           0.
 Petite list used in FoFCou.
 Harris En= -2744.51546989897    
 Initial guess orbital symmetries:
       Occupied  (A) (A) (A) (A) (A) (A) (A) (A) (A) (A) (A) (A)
                 (A) (A) (A) (A) (A) (A)
       Virtual   (A) (A) (A) (A) (A) (A) (A) (A) (A) (A) (A) (A)
                 (A) (A) (A) (A) (A) (A) (A) (A) (A) (A) (A) (A)
                 (A) (A) (A) (A) (A) (A) (A) (A) (A) (A) (A) (A)
                 (A) (A) (A) (A) (A) (A) (A) (A) (A) (A) (A) (A)
                 (A) (A) (A) (A) (A) (A) (A) (A) (A) (A) (A) (A)
                 (A) (A) (A) (A) (A) (A) (A) (A) (A) (A) (A) (A)
                 (A) (A) (A) (A) (A) (A) (A) (A) (A) (A) (A) (A)
                 (A) (A) (A) (A) (A) (A) (A) (A) (A) (A) (A) (A)
                 (A) (A) (A) (A) (A) (A) (A) (A) (A) (A) (A) (A)
                 (A) (A) (A) (A) (A) (A) (A) (A) (A) (A) (A) (A)
                 (A) (A) (A) (A) (A) (A) (A) (A) (A) (A) (A) (A)
                 (A) (A) (A) (A) (A) (A) (A) (A) (A) (A) (A) (A)
                 (A) (A) (A) (A) (A) (A) (A) (A) (A) (A) (A) (A)
                 (A) (A) (A) (A) (A) (A) (A) (A) (A) (A) (A) (A)
                 (A) (A) (A) (A) (A) (A) (A) (A) (A) (A) (A)
 The electronic state of the initial guess is 1-A.
 Leave Link  401 at Thu May 14 00:31:24 2020, MaxMem= 1073741824 cpu:       3.8
 (Enter /home/matheus/.gaussian/g09/l502.exe)
 Closed shell SCF:
 Requested convergence on RMS density matrix=1.00D-08 within 128 cycles.
 Requested convergence on MAX density matrix=1.00D-06.
 Requested convergence on             energy=1.00D-06.
 No special actions if energy rises.
 Using DIIS extrapolation, IDIIS=  1040.
 Integral symmetry usage will be decided dynamically.
       126521 words used for storage of precomputed grid.
 IEnd=      305468 IEndB=      305468 NGot=  1073741824 MDV=  1073505667
 LenX=  1073505667 LenY=  1073452785
 Fock matrices will be formed incrementally for  20 cycles.

 Cycle   1  Pass 1  IDiag  1:
 FoFJK:  IHMeth= 1 ICntrl=     0 DoSepK=T KAlg= 1 I1Cent= 0 FoldK=F
 FoFCou: FMM=F IPFlag=           0 FMFlag=      100000 FMFlg1=           0
         NFxFlg=           0 DoJE=T BraDBF=F KetDBF=F FulRan=T
         Omega=  0.000000  0.000000  1.000000  0.000000  0.000000 ICntrl=     500 IOpCl=  0
         NMat0=    1 NMatS0=    1 NMatT0=    0 NMatD0=    1 NMtDS0=    0 NMtDT0=    0
         I1Cent=           0 NGrid=           0.
 Symmetry not used in FoFCou.
 E= -2753.33343218906    
 DIIS: error= 2.77D-02 at cycle   1 NSaved=   1.
 NSaved= 1 IEnMin= 1 EnMin= -2753.33343218906     IErMin= 1 ErrMin= 2.77D-02
 ErrMax= 2.77D-02 EMaxC= 1.00D-01 BMatC= 2.63D-01 BMatP= 2.63D-01
 IDIUse=3 WtCom= 7.23D-01 WtEn= 2.77D-01
 Coeff-Com:  0.100D+01
 Coeff-En:   0.100D+01
 Coeff:      0.100D+01
 Gap=     0.618 Goal=   None    Shift=    0.000
 GapD=    0.618 DampG=2.000 DampE=0.500 DampFc=1.0000 IDamp=-1.
 RMSDP=2.49D-03 MaxDP=1.55D-01              OVMax= 1.05D-01

 Cycle   2  Pass 1  IDiag  1:
 RMSU=  1.70D-03    CP:  1.03D+00
 FoFJK:  IHMeth= 1 ICntrl=     0 DoSepK=T KAlg= 1 I1Cent= 0 FoldK=F
 E= -2753.38943046545     Delta-E=       -0.055998276392 Rises=F Damp=F
 DIIS: error= 1.27D-02 at cycle   2 NSaved=   2.
 NSaved= 2 IEnMin= 2 EnMin= -2753.38943046545     IErMin= 2 ErrMin= 1.27D-02
 ErrMax= 1.27D-02 EMaxC= 1.00D-01 BMatC= 8.86D-02 BMatP= 2.63D-01
 IDIUse=3 WtCom= 8.73D-01 WtEn= 1.27D-01
 Coeff-Com:  0.365D+00 0.635D+00
 Coeff-En:   0.131D+00 0.869D+00
 Coeff:      0.335D+00 0.665D+00
 Gap=     0.539 Goal=   None    Shift=    0.000
 RMSDP=9.79D-04 MaxDP=6.16D-02 DE=-5.60D-02 OVMax= 3.11D-02

 Cycle   3  Pass 1  IDiag  1:
 RMSU=  1.71D-04    CP:  1.02D+00  6.19D-01
 FoFJK:  IHMeth= 1 ICntrl=     0 DoSepK=T KAlg= 1 I1Cent= 0 FoldK=F
 E= -2753.41754747841     Delta-E=       -0.028117012960 Rises=F Damp=F
 DIIS: error= 9.41D-04 at cycle   3 NSaved=   3.
 NSaved= 3 IEnMin= 3 EnMin= -2753.41754747841     IErMin= 3 ErrMin= 9.41D-04
 ErrMax= 9.41D-04 EMaxC= 1.00D-01 BMatC= 4.81D-04 BMatP= 8.86D-02
 IDIUse=3 WtCom= 9.91D-01 WtEn= 9.41D-03
 Coeff-Com: -0.631D-02 0.560D-01 0.950D+00
 Coeff-En:   0.000D+00 0.000D+00 0.100D+01
 Coeff:     -0.625D-02 0.555D-01 0.951D+00
 Gap=     0.538 Goal=   None    Shift=    0.000
 RMSDP=9.19D-05 MaxDP=4.74D-03 DE=-2.81D-02 OVMax= 3.15D-03

 Cycle   4  Pass 1  IDiag  1:
 RMSU=  3.80D-05    CP:  1.02D+00  6.45D-01  1.14D+00
 FoFJK:  IHMeth= 1 ICntrl=     0 DoSepK=T KAlg= 1 I1Cent= 0 FoldK=F
 E= -2753.41770307797     Delta-E=       -0.000155599557 Rises=F Damp=F
 DIIS: error= 8.95D-05 at cycle   4 NSaved=   4.
 NSaved= 4 IEnMin= 4 EnMin= -2753.41770307797     IErMin= 4 ErrMin= 8.95D-05
 ErrMax= 8.95D-05 EMaxC= 1.00D-01 BMatC= 2.07D-06 BMatP= 4.81D-04
 IDIUse=1 WtCom= 1.00D+00 WtEn= 0.00D+00
 Coeff-Com: -0.140D-02 0.340D-03-0.687D-02 0.101D+01
 Coeff:     -0.140D-02 0.340D-03-0.687D-02 0.101D+01
 Gap=     0.539 Goal=   None    Shift=    0.000
 RMSDP=1.37D-05 MaxDP=5.50D-04 DE=-1.56D-04 OVMax= 9.22D-04

 Cycle   5  Pass 1  IDiag  1:
 RMSU=  5.90D-06    CP:  1.02D+00  6.47D-01  1.18D+00  1.05D+00
 FoFJK:  IHMeth= 1 ICntrl=     0 DoSepK=T KAlg= 1 I1Cent= 0 FoldK=F
 E= -2753.41770705425     Delta-E=       -0.000003976279 Rises=F Damp=F
 DIIS: error= 2.31D-05 at cycle   5 NSaved=   5.
 NSaved= 5 IEnMin= 5 EnMin= -2753.41770705425     IErMin= 5 ErrMin= 2.31D-05
 ErrMax= 2.31D-05 EMaxC= 1.00D-01 BMatC= 1.59D-07 BMatP= 2.07D-06
 IDIUse=1 WtCom= 1.00D+00 WtEn= 0.00D+00
 Coeff-Com: -0.566D-04-0.376D-02-0.337D-01-0.709D-01 0.111D+01
 Coeff:     -0.566D-04-0.376D-02-0.337D-01-0.709D-01 0.111D+01
 Gap=     0.539 Goal=   None    Shift=    0.000
 RMSDP=4.52D-06 MaxDP=1.83D-04 DE=-3.98D-06 OVMax= 1.98D-04

 Cycle   6  Pass 1  IDiag  1:
 RMSU=  3.43D-07    CP:  1.02D+00  6.47D-01  1.19D+00  1.10D+00  1.15D+00
 FoFJK:  IHMeth= 1 ICntrl=     0 DoSepK=T KAlg= 1 I1Cent= 0 FoldK=F
 E= -2753.41770726273     Delta-E=       -0.000000208480 Rises=F Damp=F
 DIIS: error= 6.44D-07 at cycle   6 NSaved=   6.
 NSaved= 6 IEnMin= 6 EnMin= -2753.41770726273     IErMin= 6 ErrMin= 6.44D-07
 ErrMax= 6.44D-07 EMaxC= 1.00D-01 BMatC= 1.01D-10 BMatP= 1.59D-07
 IDIUse=1 WtCom= 1.00D+00 WtEn= 0.00D+00
 Coeff-Com:  0.720D-05 0.305D-03 0.303D-02-0.309D-03-0.766D-01 0.107D+01
 Coeff:      0.720D-05 0.305D-03 0.303D-02-0.309D-03-0.766D-01 0.107D+01
 Gap=     0.539 Goal=   None    Shift=    0.000
 RMSDP=1.44D-07 MaxDP=5.06D-06 DE=-2.08D-07 OVMax= 6.25D-06

 Cycle   7  Pass 1  IDiag  1:
 RMSU=  2.43D-08    CP:  1.02D+00  6.47D-01  1.19D+00  1.10D+00  1.16D+00
                    CP:  1.17D+00
 FoFJK:  IHMeth= 1 ICntrl=     0 DoSepK=T KAlg= 1 I1Cent= 0 FoldK=F
 E= -2753.41770726279     Delta-E=       -0.000000000063 Rises=F Damp=F
 DIIS: error= 8.97D-08 at cycle   7 NSaved=   7.
 NSaved= 7 IEnMin= 7 EnMin= -2753.41770726279     IErMin= 7 ErrMin= 8.97D-08
 ErrMax= 8.97D-08 EMaxC= 1.00D-01 BMatC= 3.02D-12 BMatP= 1.01D-10
 IDIUse=1 WtCom= 1.00D+00 WtEn= 0.00D+00
 Coeff-Com:  0.936D-06 0.567D-04 0.515D-03 0.901D-03-0.167D-01 0.643D-01
 Coeff-Com:  0.951D+00
 Coeff:      0.936D-06 0.567D-04 0.515D-03 0.901D-03-0.167D-01 0.643D-01
 Coeff:      0.951D+00
 Gap=     0.539 Goal=   None    Shift=    0.000
 RMSDP=1.49D-08 MaxDP=5.56D-07 DE=-6.32D-11 OVMax= 8.79D-07

 Cycle   8  Pass 1  IDiag  1:
 RMSU=  5.40D-09    CP:  1.02D+00  6.47D-01  1.19D+00  1.10D+00  1.16D+00
                    CP:  1.19D+00  1.07D+00
 FoFJK:  IHMeth= 1 ICntrl=     0 DoSepK=T KAlg= 1 I1Cent= 0 FoldK=F
 E= -2753.41770726280     Delta-E=       -0.000000000013 Rises=F Damp=F
 DIIS: error= 2.56D-08 at cycle   8 NSaved=   8.
 NSaved= 8 IEnMin= 8 EnMin= -2753.41770726280     IErMin= 8 ErrMin= 2.56D-08
 ErrMax= 2.56D-08 EMaxC= 1.00D-01 BMatC= 2.23D-13 BMatP= 3.02D-12
 IDIUse=1 WtCom= 1.00D+00 WtEn= 0.00D+00
 Coeff-Com: -0.339D-06-0.113D-04-0.122D-03 0.191D-03 0.226D-02-0.571D-01
 Coeff-Com:  0.144D+00 0.911D+00
 Coeff:     -0.339D-06-0.113D-04-0.122D-03 0.191D-03 0.226D-02-0.571D-01
 Coeff:      0.144D+00 0.911D+00
 Gap=     0.539 Goal=   None    Shift=    0.000
 RMSDP=3.45D-09 MaxDP=1.32D-07 DE=-1.27D-11 OVMax= 2.00D-07

 SCF Done:  E(RLC-B+HF-LYP) =  -2753.41770726     A.U. after    8 cycles
             Convg  =    0.3447D-08             -V/T =  2.0015
 KE= 2.749305276536D+03 PE=-6.578515159593D+03 EE= 1.075792175794D+03
 Leave Link  502 at Thu May 14 00:31:50 2020, MaxMem= 1073741824 cpu:     202.4
 (Enter /home/matheus/.gaussian/g09/l601.exe)
 Copying SCF densities to generalized density rwf, IOpCl= 0 IROHF=0.

 **********************************************************************

            Population analysis using the SCF density.

 **********************************************************************

 Orbital symmetries:
       Occupied  (A) (A) (A) (A) (A) (A) (A) (A) (A) (A) (A) (A)
                 (A) (A) (A) (A) (A) (A)
       Virtual   (A) (A) (A) (A) (A) (A) (A) (A) (A) (A) (A) (A)
                 (A) (A) (A) (A) (A) (A) (A) (A) (A) (A) (A) (A)
                 (A) (A) (A) (A) (A) (A) (A) (A) (A) (A) (A) (A)
                 (A) (A) (A) (A) (A) (A) (A) (A) (A) (A) (A) (A)
                 (A) (A) (A) (A) (A) (A) (A) (A) (A) (A) (A) (A)
                 (A) (A) (A) (A) (A) (A) (A) (A) (A) (A) (A) (A)
                 (A) (A) (A) (A) (A) (A) (A) (A) (A) (A) (A) (A)
                 (A) (A) (A) (A) (A) (A) (A) (A) (A) (A) (A) (A)
                 (A) (A) (A) (A) (A) (A) (A) (A) (A) (A) (A) (A)
                 (A) (A) (A) (A) (A) (A) (A) (A) (A) (A) (A) (A)
                 (A) (A) (A) (A) (A) (A) (A) (A) (A) (A) (A) (A)
                 (A) (A) (A) (A) (A) (A) (A) (A) (A) (A) (A) (A)
                 (A) (A) (A) (A) (A) (A) (A) (A) (A) (A) (A) (A)
                 (A) (A) (A) (A) (A) (A) (A) (A) (A) (A) (A) (A)
                 (A) (A) (A) (A) (A) (A) (A) (A) (A) (A) (A)
 The electronic state is 1-A.
 Alpha  occ. eigenvalues -- -511.24378 -66.71357 -60.39881 -60.39877 -60.39876
 Alpha  occ. eigenvalues --   -9.60493  -7.35946  -7.35945  -7.35944  -3.32283
 Alpha  occ. eigenvalues --   -3.32283  -3.32282  -3.32281  -3.32281  -1.06079
 Alpha  occ. eigenvalues --   -0.51292  -0.51288  -0.51286
 Alpha virt. eigenvalues --    0.02614   0.04768   0.07764   0.08829   0.11434
 Alpha virt. eigenvalues --    0.12302   0.13020   0.13045   0.15544   0.16738
 Alpha virt. eigenvalues --    0.17309   0.18523   0.20337   0.25202   0.26284
 Alpha virt. eigenvalues --    0.26594   0.28977   0.31217   0.32956   0.35758
 Alpha virt. eigenvalues --    0.36174   0.37631   0.38342   0.39516   0.41091
 Alpha virt. eigenvalues --    0.41291   0.44636   0.53112   0.55897   0.58147
 Alpha virt. eigenvalues --    0.61393   0.64681   0.67544   0.69289   0.71175
 Alpha virt. eigenvalues --    0.72137   0.73942   0.76551   0.76943   0.78257
 Alpha virt. eigenvalues --    0.79455   0.81761   0.84714   0.85004   0.88146
 Alpha virt. eigenvalues --    0.88259   0.89742   0.90680   0.92239   0.96312
 Alpha virt. eigenvalues --    0.98522   0.98796   1.00665   1.01304   1.02629
 Alpha virt. eigenvalues --    1.06959   1.07457   1.07681   1.13888   1.16253
 Alpha virt. eigenvalues --    1.19002   1.22508   1.26801   1.33262   1.34791
 Alpha virt. eigenvalues --    1.35887   1.39859   1.45124   1.48004   1.52843
 Alpha virt. eigenvalues --    1.56575   1.58076   1.59557   1.71318   1.77720
 Alpha virt. eigenvalues --    1.82910   1.84421   1.85764   1.88533   2.16656
 Alpha virt. eigenvalues --    2.22472   2.22801   2.26912   2.29122   2.32719
 Alpha virt. eigenvalues --    2.33984   2.35383   2.36614   2.38104   2.41878
 Alpha virt. eigenvalues --    2.42944   2.46471   2.48738   2.50869   2.52675
 Alpha virt. eigenvalues --    2.53749   2.54828   2.58886   2.60287   2.61622
 Alpha virt. eigenvalues --    2.63932   2.65209   2.67756   2.70743   2.71896
 Alpha virt. eigenvalues --    2.74864   2.80455   2.83621   2.88259   2.91575
 Alpha virt. eigenvalues --    2.94124   2.98850   3.04328   3.08826   3.17985
 Alpha virt. eigenvalues --    3.21898   3.25418   3.31314   3.40024   3.46036
 Alpha virt. eigenvalues --    3.60072   3.64909   3.82772   3.86610   4.01606
 Alpha virt. eigenvalues --    4.44173   4.45227   4.52480   4.55890   4.67937
 Alpha virt. eigenvalues --    4.70111   4.84437   4.86400   4.96391   5.05587
 Alpha virt. eigenvalues --    5.17447   5.18923   5.55564   5.63457   5.76794
 Alpha virt. eigenvalues --    5.92713   6.04797   6.07200   6.76840   6.84910
 Alpha virt. eigenvalues --    7.35600   7.36684   7.61403   7.69246   7.73252
 Alpha virt. eigenvalues --    7.83384   7.99508   8.14405   8.16912   8.25911
 Alpha virt. eigenvalues --    8.28483   8.43800   8.64617   8.93663   9.53721
 Alpha virt. eigenvalues --    9.72052   9.81288   9.88396   9.93915   9.94697
 Alpha virt. eigenvalues --   10.17759  10.21581  10.59178  10.90843  11.54647
 Alpha virt. eigenvalues --   11.60205  11.73229  11.98444  12.00438  13.21466
 Alpha virt. eigenvalues --   13.64465  14.52296  62.54301  64.68562
          Condensed to atoms (all electrons):
              1          2          3          4          5
     1  O    0.000947  -0.000475  -0.000534   0.000477  -0.007483
     2  O   -0.000475   0.003421   0.000198  -0.002552  -0.005635
     3  H   -0.000534   0.000198   0.000830  -0.000159  -0.007920
     4  H    0.000477  -0.002552  -0.000159   0.002773  -0.011346
     5  Kr  -0.007483  -0.005635  -0.007920  -0.011346  36.062885
 Mulliken atomic charges:
              1
     1  O    0.007068
     2  O    0.005043
     3  H    0.007584
     4  H    0.010807
     5  Kr  -0.030502
 Sum of Mulliken atomic charges =   0.00000
 Mulliken charges with hydrogens summed into heavy atoms:
              1
     1  O    0.014652
     2  O    0.015850
     5  Kr  -0.030502
 Sum of Mulliken charges with hydrogens summed into heavy atoms =   0.00000
          Condensed to fragments (all electrons):
     1       0.030502
     2      -0.030502
 Electronic spatial extent (au):  <R**2>=            160.5665
 Charge=              0.0000 electrons
 Dipole moment (field-independent basis, Debye):
    X=             -0.0018    Y=              0.0002    Z=              0.0001  Tot=              0.0018
 Quadrupole moment (field-independent basis, Debye-Ang):
   XX=            -17.7453   YY=            -17.7562   ZZ=            -17.7648
   XY=             -0.0013   XZ=             -0.0027   YZ=             -0.0015
 Traceless Quadrupole moment (field-independent basis, Debye-Ang):
   XX=              0.0101   YY=             -0.0008   ZZ=             -0.0094
   XY=             -0.0013   XZ=             -0.0027   YZ=             -0.0015
 Octapole moment (field-independent basis, Debye-Ang**2):
  XXX=            -51.6358  YYY=              0.1145  ZZZ=              0.1925  XYY=            -17.2268
  XXY=              0.0353  XXZ=              0.0602  XZZ=            -17.2319  YZZ=              0.0384
  YYZ=              0.0648  XYZ=             -0.0004
 Hexadecapole moment (field-independent basis, Debye-Ang**3):
 XXXX=           -119.0692 YYYY=            -18.9318 ZZZZ=            -18.9591 XXXY=              0.1062
 XXXZ=              0.1788 YYYX=              0.1070 YYYZ=             -0.0009 ZZZX=              0.1809
 ZZZY=             -0.0024 XXYY=            -23.0114 XXZZ=            -23.0200 YYZZ=             -6.3145
 XXYZ=             -0.0014 YYXZ=              0.0605 ZZXY=              0.0345
 N-N= 0.000000000000D+00 E-N=-6.578515157585D+03  KE= 2.749305276536D+03
 No NMR shielding tensors so no spin-rotation constants.
 Leave Link  601 at Thu May 14 00:31:50 2020, MaxMem= 1073741824 cpu:       0.8
 (Enter /home/matheus/.gaussian/g09/l122.exe)
 Counterpoise: doing MCBS calculation for fragment   1
 Leave Link  122 at Thu May 14 00:31:50 2020, MaxMem= 1073741824 cpu:       0.0
 (Enter /home/matheus/.gaussian/g09/l301.exe)
 Basis read from rwf:  (5D, 7F)
 No pseudopotential information found on rwf file.
 There are   138 symmetry adapted basis functions of A   symmetry.
 Integral buffers will be    131072 words long.
 Raffenetti 2 integral format.
 Two-electron integral symmetry is turned on.
   138 basis functions,   198 primitive gaussians,   160 cartesian basis functions
     9 alpha electrons        9 beta electrons
       nuclear repulsion energy        36.6553686071 Hartrees.
 IExCor=10402 DFT=T Ex=LC-B+HF Corr=LYP ExCW=0 ScaHFX=  1.000000
 ScaDFX=  1.000000  1.000000  1.000000  1.000000 ScalE2=  1.000000  1.000000
 IRadAn=      5 IRanWt=     -1 IRanGd=            0 ICorTp=0
  HFx wShort=  0.000000 wLong=  0.470000 cFull=  0.000000 cShort=  0.000000 cLong=  1.000000
  DFx wShort=  0.000000 wLong=  0.470000 cFull=  0.000000 cShort=  0.000000 cLong=  1.000000
 NAtoms=    5 NActive=    4 NUniq=    4 SFac= 1.00D+00 NAtFMM=   60 NAOKFM=F Big=F
 No density basis found on file   718.
 Leave Link  301 at Thu May 14 00:31:50 2020, MaxMem= 1073741824 cpu:       0.2
 (Enter /home/matheus/.gaussian/g09/l302.exe)
 NPDir=0 NMtPBC=     1 NCelOv=     1 NCel=       1 NClECP=     1 NCelD=      1
         NCelK=      1 NCelE2=     1 NClLst=     1 CellRange=     0.0.
 One-electron integrals computed using PRISM.
 NBasis=   138 RedAO= T  NBF=   138
 NBsUse=   138 1.00D-06 NBFU=   138
 Precomputing XC quadrature grid using
 IXCGrd= 2 IRadAn=           5 IRanWt=          -1 IRanGd=           0 AccXCQ= 0.00D+00.
 NRdTot=     344 NPtTot=       92556 NUsed=       95038 NTot=       95070
 NSgBfM=   160   160   160   160   160 NAtAll=     4     4.
 Leave Link  302 at Thu May 14 00:31:50 2020, MaxMem= 1073741824 cpu:       0.7
 (Enter /home/matheus/.gaussian/g09/l303.exe)
 DipDrv:  MaxL=1.
 Leave Link  303 at Thu May 14 00:31:50 2020, MaxMem= 1073741824 cpu:       0.1
 (Enter /home/matheus/.gaussian/g09/l401.exe)
 Harris functional with IExCor=10402 diagonalized for initial guess.
 ExpMin= 2.53D-02 ExpMax= 1.53D+04 ExpMxC= 5.22D+02 IAcc=3 IRadAn=         5 AccDes= 0.00D+00
 HarFok:  IExCor=10402 AccDes= 0.00D+00 IRadAn=         5 IDoV= 1
 ScaDFX=  1.000000  1.000000  1.000000  1.000000
 FoFCou: FMM=F IPFlag=           0 FMFlag=      100000 FMFlg1=           0
         NFxFlg=           0 DoJE=T BraDBF=F KetDBF=T FulRan=T
         Omega=  0.000000  0.000000  1.000000  0.000000  0.000000 ICntrl=     500 IOpCl=  0
         NMat0=    1 NMatS0=    1 NMatT0=    0 NMatD0=    1 NMtDS0=    0 NMtDT0=    0
         I1Cent=           4 NGrid=           0.
 Petite list used in FoFCou.
 Harris En= -147.163167844789    
 Initial guess orbital symmetries:
       Occupied  (A) (A) (A) (A) (A) (A) (A) (A) (A)
       Virtual   (A) (A) (A) (A) (A) (A) (A) (A) (A) (A) (A) (A)
                 (A) (A) (A) (A) (A) (A) (A) (A) (A) (A) (A) (A)
                 (A) (A) (A) (A) (A) (A) (A) (A) (A) (A) (A) (A)
                 (A) (A) (A) (A) (A) (A) (A) (A) (A) (A) (A) (A)
                 (A) (A) (A) (A) (A) (A) (A) (A) (A) (A) (A) (A)
                 (A) (A) (A) (A) (A) (A) (A) (A) (A) (A) (A) (A)
                 (A) (A) (A) (A) (A) (A) (A) (A) (A) (A) (A) (A)
                 (A) (A) (A) (A) (A) (A) (A) (A) (A) (A) (A) (A)
                 (A) (A) (A) (A) (A) (A) (A) (A) (A) (A) (A) (A)
                 (A) (A) (A) (A) (A) (A) (A) (A) (A) (A) (A) (A)
                 (A) (A) (A) (A) (A) (A) (A) (A) (A)
 The electronic state of the initial guess is 1-A.
 Leave Link  401 at Thu May 14 00:31:50 2020, MaxMem= 1073741824 cpu:       2.2
 (Enter /home/matheus/.gaussian/g09/l502.exe)
 Closed shell SCF:
 Requested convergence on RMS density matrix=1.00D-08 within 128 cycles.
 Requested convergence on MAX density matrix=1.00D-06.
 Requested convergence on             energy=1.00D-06.
 No special actions if energy rises.
 Using DIIS extrapolation, IDIIS=  1040.
 Integral symmetry usage will be decided dynamically.
        94980 words used for storage of precomputed grid.
 IEnd=      192360 IEndB=      192360 NGot=  1073741824 MDV=  1073591865
 LenX=  1073591865 LenY=  1073565824
 Fock matrices will be formed incrementally for  20 cycles.

 Cycle   1  Pass 1  IDiag  1:
 FoFJK:  IHMeth= 1 ICntrl=     0 DoSepK=T KAlg= 1 I1Cent= 0 FoldK=F
 FoFCou: FMM=F IPFlag=           0 FMFlag=      100000 FMFlg1=           0
         NFxFlg=           0 DoJE=T BraDBF=F KetDBF=F FulRan=T
         Omega=  0.000000  0.000000  1.000000  0.000000  0.000000 ICntrl=     500 IOpCl=  0
         NMat0=    1 NMatS0=    1 NMatT0=    0 NMatD0=    1 NMtDS0=    0 NMtDT0=    0
         I1Cent=           0 NGrid=           0.
 Symmetry not used in FoFCou.
 E= -151.296893000706    
 DIIS: error= 1.28D-02 at cycle   1 NSaved=   1.
 NSaved= 1 IEnMin= 1 EnMin= -151.296893000706     IErMin= 1 ErrMin= 1.28D-02
 ErrMax= 1.28D-02 EMaxC= 1.00D-01 BMatC= 2.39D-02 BMatP= 2.39D-02
 IDIUse=3 WtCom= 8.72D-01 WtEn= 1.28D-01
 Coeff-Com:  0.100D+01
 Coeff-En:   0.100D+01
 Coeff:      0.100D+01
 Gap=     0.466 Goal=   None    Shift=    0.000
 GapD=    0.466 DampG=2.000 DampE=0.500 DampFc=1.0000 IDamp=-1.
 RMSDP=1.23D-03 MaxDP=2.98D-02              OVMax= 5.60D-02

 Cycle   2  Pass 1  IDiag  1:
 RMSU=  8.68D-04    CP:  1.01D+00
 FoFJK:  IHMeth= 1 ICntrl=     0 DoSepK=T KAlg= 1 I1Cent= 0 FoldK=F
 E= -151.318297644631     Delta-E=       -0.021404643925 Rises=F Damp=F
 DIIS: error= 5.87D-03 at cycle   2 NSaved=   2.
 NSaved= 2 IEnMin= 2 EnMin= -151.318297644631     IErMin= 2 ErrMin= 5.87D-03
 ErrMax= 5.87D-03 EMaxC= 1.00D-01 BMatC= 4.44D-03 BMatP= 2.39D-02
 IDIUse=3 WtCom= 9.41D-01 WtEn= 5.87D-02
 Coeff-Com:  0.253D+00 0.747D+00
 Coeff-En:   0.000D+00 0.100D+01
 Coeff:      0.238D+00 0.762D+00
 Gap=     0.428 Goal=   None    Shift=    0.000
 RMSDP=3.12D-04 MaxDP=6.42D-03 DE=-2.14D-02 OVMax= 1.45D-02

 Cycle   3  Pass 1  IDiag  1:
 RMSU=  2.20D-04    CP:  1.00D+00  1.02D+00
 FoFJK:  IHMeth= 1 ICntrl=     0 DoSepK=T KAlg= 1 I1Cent= 0 FoldK=F
 E= -151.320799094312     Delta-E=       -0.002501449681 Rises=F Damp=F
 DIIS: error= 2.30D-03 at cycle   3 NSaved=   3.
 NSaved= 3 IEnMin= 3 EnMin= -151.320799094312     IErMin= 3 ErrMin= 2.30D-03
 ErrMax= 2.30D-03 EMaxC= 1.00D-01 BMatC= 5.21D-04 BMatP= 4.44D-03
 IDIUse=3 WtCom= 9.77D-01 WtEn= 2.30D-02
 Coeff-Com:  0.231D-01 0.241D+00 0.736D+00
 Coeff-En:   0.000D+00 0.000D+00 0.100D+01
 Coeff:      0.226D-01 0.236D+00 0.742D+00
 Gap=     0.438 Goal=   None    Shift=    0.000
 RMSDP=1.41D-04 MaxDP=3.54D-03 DE=-2.50D-03 OVMax= 7.34D-03

 Cycle   4  Pass 1  IDiag  1:
 RMSU=  7.34D-05    CP:  1.00D+00  1.10D+00  9.54D-01
 FoFJK:  IHMeth= 1 ICntrl=     0 DoSepK=T KAlg= 1 I1Cent= 0 FoldK=F
 E= -151.321191611420     Delta-E=       -0.000392517108 Rises=F Damp=F
 DIIS: error= 5.46D-04 at cycle   4 NSaved=   4.
 NSaved= 4 IEnMin= 4 EnMin= -151.321191611420     IErMin= 4 ErrMin= 5.46D-04
 ErrMax= 5.46D-04 EMaxC= 1.00D-01 BMatC= 4.54D-05 BMatP= 5.21D-04
 IDIUse=3 WtCom= 9.95D-01 WtEn= 5.46D-03
 Coeff-Com: -0.216D-01-0.341D-01 0.182D+00 0.874D+00
 Coeff-En:   0.000D+00 0.000D+00 0.000D+00 0.100D+01
 Coeff:     -0.215D-01-0.339D-01 0.181D+00 0.874D+00
 Gap=     0.435 Goal=   None    Shift=    0.000
 RMSDP=6.10D-05 MaxDP=1.50D-03 DE=-3.93D-04 OVMax= 1.85D-03

 Cycle   5  Pass 1  IDiag  1:
 RMSU=  1.45D-05    CP:  1.00D+00  1.13D+00  1.10D+00  1.08D+00
 FoFJK:  IHMeth= 1 ICntrl=     0 DoSepK=T KAlg= 1 I1Cent= 0 FoldK=F
 E= -151.321231429258     Delta-E=       -0.000039817838 Rises=F Damp=F
 DIIS: error= 5.49D-05 at cycle   5 NSaved=   5.
 NSaved= 5 IEnMin= 5 EnMin= -151.321231429258     IErMin= 5 ErrMin= 5.49D-05
 ErrMax= 5.49D-05 EMaxC= 1.00D-01 BMatC= 3.99D-07 BMatP= 4.54D-05
 IDIUse=1 WtCom= 1.00D+00 WtEn= 0.00D+00
 Coeff-Com:  0.725D-03-0.358D-02-0.382D-01-0.801D-01 0.112D+01
 Coeff:      0.725D-03-0.358D-02-0.382D-01-0.801D-01 0.112D+01
 Gap=     0.435 Goal=   None    Shift=    0.000
[...]
 Coeff-Com:  0.100D+01
 Coeff-En:   0.100D+01
 Coeff:      0.100D+01
 Gap=     0.540 Goal=   None    Shift=    0.000
 RMSDP=1.17D-05 MaxDP=5.85D-04              OVMax= 3.33D-04

 Cycle   2  Pass 1  IDiag  1:
 RMSU=  8.30D-06    CP:  1.00D+00
 FoFJK:  IHMeth= 1 ICntrl=     0 DoSepK=T KAlg= 1 I1Cent= 0 FoldK=F
 E= -2753.41756287671     Delta-E=       -0.000000657789 Rises=F Damp=F
 DIIS: error= 4.58D-06 at cycle   2 NSaved=   2.
 NSaved= 2 IEnMin= 2 EnMin= -2753.41756287671     IErMin= 2 ErrMin= 4.58D-06
 ErrMax= 4.58D-06 EMaxC= 1.00D-01 BMatC= 4.28D-09 BMatP= 5.86D-06
 IDIUse=1 WtCom= 1.00D+00 WtEn= 0.00D+00
 Coeff-Com: -0.820D-02 0.101D+01
 Coeff:     -0.820D-02 0.101D+01
 Gap=     0.539 Goal=   None    Shift=    0.000
 RMSDP=1.13D-06 MaxDP=5.42D-05 DE=-6.58D-07 OVMax= 5.04D-05

 Cycle   3  Pass 1  IDiag  1:
 RMSU=  5.02D-07    CP:  1.00D+00  1.07D+00
 FoFJK:  IHMeth= 1 ICntrl=     0 DoSepK=T KAlg= 1 I1Cent= 0 FoldK=F
 E= -2753.41756288425     Delta-E=       -0.000000007543 Rises=F Damp=F
 DIIS: error= 8.11D-07 at cycle   3 NSaved=   3.
 NSaved= 3 IEnMin= 3 EnMin= -2753.41756288425     IErMin= 3 ErrMin= 8.11D-07
 ErrMax= 8.11D-07 EMaxC= 1.00D-01 BMatC= 1.46D-10 BMatP= 4.28D-09
 IDIUse=1 WtCom= 1.00D+00 WtEn= 0.00D+00
 Coeff-Com:  0.511D-05-0.844D-01 0.108D+01
 Coeff:      0.511D-05-0.844D-01 0.108D+01
 Gap=     0.539 Goal=   None    Shift=    0.000
 RMSDP=1.77D-07 MaxDP=6.15D-06 DE=-7.54D-09 OVMax= 9.92D-06

 Cycle   4  Pass 1  IDiag  1:
 RMSU=  5.81D-08    CP:  1.00D+00  1.08D+00  1.21D+00
 FoFJK:  IHMeth= 1 ICntrl=     0 DoSepK=T KAlg= 1 I1Cent= 0 FoldK=F
 E= -2753.41756288449     Delta-E=       -0.000000000240 Rises=F Damp=F
 DIIS: error= 4.27D-07 at cycle   4 NSaved=   4.
 NSaved= 4 IEnMin= 4 EnMin= -2753.41756288449     IErMin= 4 ErrMin= 4.27D-07
 ErrMax= 4.27D-07 EMaxC= 1.00D-01 BMatC= 3.22D-11 BMatP= 1.46D-10
 IDIUse=1 WtCom= 1.00D+00 WtEn= 0.00D+00
 Coeff-Com:  0.257D-03-0.583D-01 0.356D+00 0.702D+00
 Coeff:      0.257D-03-0.583D-01 0.356D+00 0.702D+00
 Gap=     0.539 Goal=   None    Shift=    0.000
 RMSDP=2.72D-08 MaxDP=1.02D-06 DE=-2.40D-10 OVMax= 1.35D-06

 Cycle   5  Pass 1  IDiag  1:
 RMSU=  1.36D-08    CP:  1.00D+00  1.08D+00  1.23D+00  1.05D+00
 FoFJK:  IHMeth= 1 ICntrl=     0 DoSepK=T KAlg= 1 I1Cent= 0 FoldK=F
 E= -2753.41756288451     Delta-E=       -0.000000000021 Rises=F Damp=F
 DIIS: error= 4.23D-08 at cycle   5 NSaved=   5.
 NSaved= 5 IEnMin= 5 EnMin= -2753.41756288451     IErMin= 5 ErrMin= 4.23D-08
 ErrMax= 4.23D-08 EMaxC= 1.00D-01 BMatC= 2.63D-13 BMatP= 3.22D-11
 IDIUse=1 WtCom= 1.00D+00 WtEn= 0.00D+00
 Coeff-Com: -0.117D-04 0.514D-02-0.518D-01-0.278D-01 0.107D+01
 Coeff:     -0.117D-04 0.514D-02-0.518D-01-0.278D-01 0.107D+01
 Gap=     0.539 Goal=   None    Shift=    0.000
 RMSDP=1.01D-08 MaxDP=4.44D-07 DE=-2.14D-11 OVMax= 4.93D-07

 Cycle   6  Pass 1  IDiag  1:
 RMSU=  1.49D-09    CP:  1.00D+00  1.08D+00  1.24D+00  1.13D+00  1.17D+00
 FoFJK:  IHMeth= 1 ICntrl=     0 DoSepK=T KAlg= 1 I1Cent= 0 FoldK=F
 E= -2753.41756288451     Delta-E=        0.000000000004 Rises=F Damp=F
 DIIS: error= 1.12D-08 at cycle   6 NSaved=   6.
 NSaved= 6 IEnMin= 5 EnMin= -2753.41756288451     IErMin= 6 ErrMin= 1.12D-08
 ErrMax= 1.12D-08 EMaxC= 1.00D-01 BMatC= 1.61D-14 BMatP= 2.63D-13
 IDIUse=1 WtCom= 1.00D+00 WtEn= 0.00D+00
 Coeff-Com: -0.112D-04 0.306D-02-0.228D-01-0.273D-01 0.214D+00 0.833D+00
 Coeff:     -0.112D-04 0.306D-02-0.228D-01-0.273D-01 0.214D+00 0.833D+00
 Gap=     0.539 Goal=   None    Shift=    0.000
 RMSDP=1.08D-09 MaxDP=4.67D-08 DE= 3.64D-12 OVMax= 8.31D-08

 SCF Done:  E(RLC-B+HF-LYP) =  -2753.41756288     A.U. after    6 cycles
             Convg  =    0.1075D-08             -V/T =  2.0015
 KE= 2.749364549078D+03 PE=-6.578579989164D+03 EE= 1.075797877201D+03
 Leave Link  502 at Thu May 14 00:54:13 2020, MaxMem= 1073741824 cpu:     120.7
 (Enter /home/matheus/.gaussian/g09/l122.exe)
 Restoring MOs from calculation   4 to rwf.
 Counterpoise: doing MCBS calculation for fragment   1
 Leave Link  122 at Thu May 14 00:54:13 2020, MaxMem= 1073741824 cpu:       0.0
 (Enter /home/matheus/.gaussian/g09/l301.exe)
 Basis read from rwf:  (5D, 7F)
 No pseudopotential information found on rwf file.
 There are   138 symmetry adapted basis functions of A   symmetry.
 Integral buffers will be    131072 words long.
 Raffenetti 2 integral format.
 Two-electron integral symmetry is turned on.
   138 basis functions,   198 primitive gaussians,   160 cartesian basis functions
     9 alpha electrons        9 beta electrons
       nuclear repulsion energy        36.6553686071 Hartrees.
 IExCor=10402 DFT=T Ex=LC-B+HF Corr=LYP ExCW=0 ScaHFX=  1.000000
 ScaDFX=  1.000000  1.000000  1.000000  1.000000 ScalE2=  1.000000  1.000000
 IRadAn=      5 IRanWt=     -1 IRanGd=            0 ICorTp=0
  HFx wShort=  0.000000 wLong=  0.470000 cFull=  0.000000 cShort=  0.000000 cLong=  1.000000
  DFx wShort=  0.000000 wLong=  0.470000 cFull=  0.000000 cShort=  0.000000 cLong=  1.000000
 NAtoms=    5 NActive=    4 NUniq=    4 SFac= 1.00D+00 NAtFMM=   60 NAOKFM=F Big=F
 No density basis found on file   718.
 Leave Link  301 at Thu May 14 00:54:13 2020, MaxMem= 1073741824 cpu:       0.2
 (Enter /home/matheus/.gaussian/g09/l302.exe)
 NPDir=0 NMtPBC=     1 NCelOv=     1 NCel=       1 NClECP=     1 NCelD=      1
         NCelK=      1 NCelE2=     1 NClLst=     1 CellRange=     0.0.
 One-electron integrals computed using PRISM.
 NBasis=   138 RedAO= T  NBF=   138
 NBsUse=   138 1.00D-06 NBFU=   138
 Precomputing XC quadrature grid using
 IXCGrd= 2 IRadAn=           5 IRanWt=          -1 IRanGd=           0 AccXCQ= 0.00D+00.
 NRdTot=     344 NPtTot=       92556 NUsed=       95038 NTot=       95070
 NSgBfM=   160   160   160   160   160 NAtAll=     4     4.
 Leave Link  302 at Thu May 14 00:54:14 2020, MaxMem= 1073741824 cpu:       0.8
 (Enter /home/matheus/.gaussian/g09/l303.exe)
 DipDrv:  MaxL=1.
 Leave Link  303 at Thu May 14 00:54:14 2020, MaxMem= 1073741824 cpu:       0.1
 (Enter /home/matheus/.gaussian/g09/l401.exe)
 Initial guess read from the read-write file.
 Guess basis will be translated and rotated to current coordinates.
 Initial guess orbital symmetries:
       Occupied  (A) (A) (A) (A) (A) (A) (A) (A) (A)
       Virtual   (A) (A) (A) (A) (A) (A) (A) (A) (A) (A) (A) (A)
                 (A) (A) (A) (A) (A) (A) (A) (A) (A) (A) (A) (A)
                 (A) (A) (A) (A) (A) (A) (A) (A) (A) (A) (A) (A)
                 (A) (A) (A) (A) (A) (A) (A) (A) (A) (A) (A) (A)
                 (A) (A) (A) (A) (A) (A) (A) (A) (A) (A) (A) (A)
                 (A) (A) (A) (A) (A) (A) (A) (A) (A) (A) (A) (A)
                 (A) (A) (A) (A) (A) (A) (A) (A) (A) (A) (A) (A)
                 (A) (A) (A) (A) (A) (A) (A) (A) (A) (A) (A) (A)
                 (A) (A) (A) (A) (A) (A) (A) (A) (A) (A) (A) (A)
                 (A) (A) (A) (A) (A) (A) (A) (A) (A) (A) (A) (A)
                 (A) (A) (A) (A) (A) (A) (A) (A) (A)
 The electronic state of the initial guess is 1-A.
 Generating alternative initial guess.
 Harris functional with IExCor=10402 diagonalized for initial guess.
 ExpMin= 2.53D-02 ExpMax= 1.53D+04 ExpMxC= 5.22D+02 IAcc=3 IRadAn=         5 AccDes= 0.00D+00
 HarFok:  IExCor=10402 AccDes= 0.00D+00 IRadAn=         5 IDoV= 1
 ScaDFX=  1.000000  1.000000  1.000000  1.000000
 FoFCou: FMM=F IPFlag=           0 FMFlag=      100000 FMFlg1=           0
         NFxFlg=           0 DoJE=T BraDBF=F KetDBF=T FulRan=T
         Omega=  0.000000  0.000000  1.000000  0.000000  0.000000 ICntrl=     500 IOpCl=  0
         NMat0=    1 NMatS0=    1 NMatT0=    0 NMatD0=    1 NMtDS0=    0 NMtDT0=    0
         I1Cent=           4 NGrid=           0.
 Petite list used in FoFCou.
 Harris En= -147.163167847115    
 Leave Link  401 at Thu May 14 00:54:14 2020, MaxMem= 1073741824 cpu:       2.3
 (Enter /home/matheus/.gaussian/g09/l502.exe)
 Closed shell SCF:
 Requested convergence on RMS density matrix=1.00D-08 within 128 cycles.
 Requested convergence on MAX density matrix=1.00D-06.
 Requested convergence on             energy=1.00D-06.
 No special actions if energy rises.
 Using DIIS extrapolation, IDIIS=  1040.
 Integral symmetry usage will be decided dynamically.
        94980 words used for storage of precomputed grid.
 IEnd=      192360 IEndB=      192360 NGot=  1073741824 MDV=  1073591865
 LenX=  1073591865 LenY=  1073565824
 Fock matrices will be formed incrementally for  20 cycles.

 Cycle   1  Pass 1  IDiag  1:
 FoFJK:  IHMeth= 1 ICntrl=     0 DoSepK=T KAlg= 1 I1Cent= 0 FoldK=F
 FoFCou: FMM=F IPFlag=           0 FMFlag=      100000 FMFlg1=           0
         NFxFlg=           0 DoJE=T BraDBF=F KetDBF=F FulRan=T
         Omega=  0.000000  0.000000  1.000000  0.000000  0.000000 ICntrl=     500 IOpCl=  0
         NMat0=    1 NMatS0=    1 NMatT0=    0 NMatD0=    1 NMtDS0=    0 NMtDT0=    0
         I1Cent=           0 NGrid=           0.
 Symmetry not used in FoFCou.
 E= -151.321232826651    
 DIIS: error= 3.51D-06 at cycle   1 NSaved=   1.
 NSaved= 1 IEnMin= 1 EnMin= -151.321232826651     IErMin= 1 ErrMin= 3.51D-06
 ErrMax= 3.51D-06 EMaxC= 1.00D-01 BMatC= 2.74D-09 BMatP= 2.74D-09
 IDIUse=1 WtCom= 1.00D+00 WtEn= 0.00D+00
 Coeff-Com:  0.100D+01
 Coeff:      0.100D+01
 Gap=     0.435 Goal=   None    Shift=    0.000
 RMSDP=3.87D-07 MaxDP=8.38D-06              OVMax= 1.28D-05

 Cycle   2  Pass 1  IDiag  1:
 RMSU=  2.74D-07    CP:  1.00D+00
 FoFJK:  IHMeth= 1 ICntrl=     0 DoSepK=T KAlg= 1 I1Cent= 0 FoldK=F
 E= -151.321232829255     Delta-E=       -0.000000002604 Rises=F Damp=F
 DIIS: error= 7.04D-07 at cycle   2 NSaved=   2.
 NSaved= 2 IEnMin= 2 EnMin= -151.321232829255     IErMin= 2 ErrMin= 7.04D-07
 ErrMax= 7.04D-07 EMaxC= 1.00D-01 BMatC= 1.05D-10 BMatP= 2.74D-09
 IDIUse=1 WtCom= 1.00D+00 WtEn= 0.00D+00
 Coeff-Com: -0.137D+00 0.114D+01
 Coeff:     -0.137D+00 0.114D+01
 Gap=     0.435 Goal=   None    Shift=    0.000
 RMSDP=9.72D-08 MaxDP=2.64D-06 DE=-2.60D-09 OVMax= 4.53D-06

 Cycle   3  Pass 1  IDiag  1:
 RMSU=  3.30D-08    CP:  1.00D+00  1.22D+00
 FoFJK:  IHMeth= 1 ICntrl=     0 DoSepK=T KAlg= 1 I1Cent= 0 FoldK=F
 E= -151.321232829462     Delta-E=       -0.000000000207 Rises=F Damp=F
 DIIS: error= 2.36D-07 at cycle   3 NSaved=   3.
 NSaved= 3 IEnMin= 3 EnMin= -151.321232829462     IErMin= 3 ErrMin= 2.36D-07
 ErrMax= 2.36D-07 EMaxC= 1.00D-01 BMatC= 5.74D-12 BMatP= 1.05D-10
 IDIUse=1 WtCom= 1.00D+00 WtEn= 0.00D+00
 Coeff-Com: -0.681D-02-0.979D-01 0.110D+01
 Coeff:     -0.681D-02-0.979D-01 0.110D+01
 Gap=     0.435 Goal=   None    Shift=    0.000
 RMSDP=2.52D-08 MaxDP=5.42D-07 DE=-2.07D-10 OVMax= 1.64D-06

 Cycle   4  Pass 1  IDiag  1:
 RMSU=  7.60D-09    CP:  1.00D+00  1.26D+00  1.33D+00
 FoFJK:  IHMeth= 1 ICntrl=     0 DoSepK=T KAlg= 1 I1Cent= 0 FoldK=F
 E= -151.321232829478     Delta-E=       -0.000000000016 Rises=F Damp=F
 DIIS: error= 7.42D-08 at cycle   4 NSaved=   4.
 NSaved= 4 IEnMin= 4 EnMin= -151.321232829478     IErMin= 4 ErrMin= 7.42D-08
 ErrMax= 7.42D-08 EMaxC= 1.00D-01 BMatC= 1.09D-12 BMatP= 5.74D-12
 IDIUse=1 WtCom= 1.00D+00 WtEn= 0.00D+00
 Coeff-Com:  0.794D-02-0.101D+00 0.174D+00 0.918D+00
 Coeff:      0.794D-02-0.101D+00 0.174D+00 0.918D+00
 Gap=     0.435 Goal=   None    Shift=    0.000
 RMSDP=9.18D-09 MaxDP=1.90D-07 DE=-1.59D-11 OVMax= 6.67D-07

 SCF Done:  E(RLC-B+HF-LYP) =  -151.321232829     A.U. after    4 cycles
             Convg  =    0.9182D-08             -V/T =  2.0056
 KE= 1.504829908284D+02 PE=-4.314489886745D+02 EE= 9.298939640947D+01
 Leave Link  502 at Thu May 14 00:54:18 2020, MaxMem= 1073741824 cpu:      31.7
 (Enter /home/matheus/.gaussian/g09/l122.exe)
 Restoring MOs from calculation   5 to rwf.
 Counterpoise: doing MCBS calculation for fragment   2
 Leave Link  122 at Thu May 14 00:54:18 2020, MaxMem= 1073741824 cpu:       0.0
 (Enter /home/matheus/.gaussian/g09/l301.exe)
 Basis read from rwf:  (5D, 7F)
 No pseudopotential information found on rwf file.
 There are    59 symmetry adapted basis functions of A   symmetry.
 Integral buffers will be    131072 words long.
 Raffenetti 2 integral format.
 Two-electron integral symmetry is turned on.
    59 basis functions,   217 primitive gaussians,    69 cartesian basis functions
    18 alpha electrons       18 beta electrons
       nuclear repulsion energy         0.0000000000 Hartrees.
 IExCor=10402 DFT=T Ex=LC-B+HF Corr=LYP ExCW=0 ScaHFX=  1.000000
 ScaDFX=  1.000000  1.000000  1.000000  1.000000 ScalE2=  1.000000  1.000000
 IRadAn=      5 IRanWt=     -1 IRanGd=            0 ICorTp=0
  HFx wShort=  0.000000 wLong=  0.470000 cFull=  0.000000 cShort=  0.000000 cLong=  1.000000
  DFx wShort=  0.000000 wLong=  0.470000 cFull=  0.000000 cShort=  0.000000 cLong=  1.000000
 NAtoms=    5 NActive=    1 NUniq=    1 SFac= 1.00D+00 NAtFMM=   60 NAOKFM=F Big=F
 No density basis found on file   718.
 Leave Link  301 at Thu May 14 00:54:18 2020, MaxMem= 1073741824 cpu:       0.2
 (Enter /home/matheus/.gaussian/g09/l302.exe)
 NPDir=0 NMtPBC=     1 NCelOv=     1 NCel=       1 NClECP=     1 NCelD=      1
         NCelK=      1 NCelE2=     1 NClLst=     1 CellRange=     0.0.
 One-electron integrals computed using PRISM.
 NBasis=    59 RedAO= T  NBF=    59
 NBsUse=    59 1.00D-06 NBFU=    59
 Precomputing XC quadrature grid using
 IXCGrd= 2 IRadAn=           5 IRanWt=          -1 IRanGd=           0 AccXCQ= 0.00D+00.
 NRdTot=      81 NPtTot=       30352 NUsed=       30981 NTot=       31013
 NSgBfM=    69    69    69    69    69 NAtAll=     1     1.
 Leave Link  302 at Thu May 14 00:54:18 2020, MaxMem= 1073741824 cpu:       0.6
 (Enter /home/matheus/.gaussian/g09/l303.exe)
 DipDrv:  MaxL=1.
 Leave Link  303 at Thu May 14 00:54:18 2020, MaxMem= 1073741824 cpu:       0.1
 (Enter /home/matheus/.gaussian/g09/l401.exe)
 Initial guess read from the read-write file.
 Guess basis will be translated and rotated to current coordinates.
 Initial guess orbital symmetries:
       Occupied  (A) (A) (A) (A) (A) (A) (A) (A) (A) (A) (A) (A)
                 (A) (A) (A) (A) (A) (A)
       Virtual   (A) (A) (A) (A) (A) (A) (A) (A) (A) (A) (A) (A)
                 (A) (A) (A) (A) (A) (A) (A) (A) (A) (A) (A) (A)
                 (A) (A) (A) (A) (A) (A) (A) (A) (A) (A) (A) (A)
                 (A) (A) (A) (A) (A)
 The electronic state of the initial guess is 1-A.
 Generating alternative initial guess.
 Harris functional with IExCor=10402 diagonalized for initial guess.
 ExpMin= 4.00D-02 ExpMax= 1.17D+07 ExpMxC= 1.33D+04 IAcc=3 IRadAn=         5 AccDes= 0.00D+00
 HarFok:  IExCor=10402 AccDes= 0.00D+00 IRadAn=         5 IDoV= 1
 ScaDFX=  1.000000  1.000000  1.000000  1.000000
 FoFCou: FMM=F IPFlag=           0 FMFlag=      100000 FMFlg1=           0
         NFxFlg=           0 DoJE=T BraDBF=F KetDBF=T FulRan=T
         Omega=  0.000000  0.000000  1.000000  0.000000  0.000000 ICntrl=     500 IOpCl=  0
         NMat0=    1 NMatS0=    1 NMatT0=    0 NMatD0=    1 NMtDS0=    0 NMtDT0=    0
         I1Cent=           4 NGrid=           0.
 Petite list used in FoFCou.
 DSYEVD returned Info=         119 IAlg= 4 N=    59 NDim=    59 NE2=    18198841 trying DSYEV.
 Harris En= -2744.51485235229    
 Leave Link  401 at Thu May 14 00:54:18 2020, MaxMem= 1073741824 cpu:       1.0
 (Enter /home/matheus/.gaussian/g09/l502.exe)
 Closed shell SCF:
 Requested convergence on RMS density matrix=1.00D-08 within 128 cycles.
 Requested convergence on MAX density matrix=1.00D-06.
 Requested convergence on             energy=1.00D-06.
 No special actions if energy rises.
 Using DIIS extrapolation, IDIIS=  1040.
 Integral symmetry usage will be decided dynamically.
        30923 words used for storage of precomputed grid.
 IEnd=       64406 IEndB=       64406 NGot=  1073741824 MDV=  1073698889
 LenX=  1073698889 LenY=  1073693687
 Fock matrices will be formed incrementally for  20 cycles.

 Cycle   1  Pass 1  IDiag  1:
 FoFJK:  IHMeth= 1 ICntrl=     0 DoSepK=T KAlg= 1 I1Cent= 0 FoldK=F
 FoFCou: FMM=F IPFlag=           0 FMFlag=      100000 FMFlg1=           0
         NFxFlg=           0 DoJE=T BraDBF=F KetDBF=F FulRan=T
         Omega=  0.000000  0.000000  1.000000  0.000000  0.000000 ICntrl=     500 IOpCl=  0
         NMat0=    1 NMatS0=    1 NMatT0=    0 NMatD0=    1 NMtDS0=    0 NMtDT0=    0
         I1Cent=           0 NGrid=           0.
 Symmetry not used in FoFCou.
 E= -2753.41754223393    
 DIIS: error= 7.60D-14 at cycle   1 NSaved=   1.
 NSaved= 1 IEnMin= 1 EnMin= -2753.41754223393     IErMin= 1 ErrMin= 7.60D-14
 ErrMax= 7.60D-14 EMaxC= 1.00D-01 BMatC= 2.15D-25 BMatP= 2.15D-25
 IDIUse=1 WtCom= 1.00D+00 WtEn= 0.00D+00
 Coeff-Com:  0.100D+01
 Coeff:      0.100D+01
 Gap=     0.595 Goal=   None    Shift=    0.000
 DSYEVD returned Info=          89 IAlg= 4 N=    59 NDim=    59 NE2=    18198197 trying DSYEV.
 RMSDP=5.65D-15 MaxDP=8.64D-14              OVMax= 4.73D-14

 SCF Done:  E(RLC-B+HF-LYP) =  -2753.41754223     A.U. after    1 cycles
             Convg  =    0.5652D-14             -V/T =  2.0015
 KE= 2.749372504928D+03 PE=-6.578588569976D+03 EE= 1.075798522814D+03
 Leave Link  502 at Thu May 14 00:54:20 2020, MaxMem= 1073741824 cpu:      11.4
 (Enter /home/matheus/.gaussian/g09/l122.exe)
 Restoring MOs from calculation   1 to rwf.
 Counterpoise: corrected energy =   -2904.738937717841
 Counterpoise: BSSE energy =       0.000026885371
 Leave Link  122 at Thu May 14 00:54:20 2020, MaxMem= 1073741824 cpu:       0.0
 (Enter /home/matheus/.gaussian/g09/l108.exe)
 Scan completed.

 Summary of the potential surface scan:
   N      R1          SCF    
 ----  ---------  -----------
    1     3.0000  -2753.41754
    2     3.1000  -2753.41754
    3     3.2000  -2753.41754
    4     3.3000  -2753.41754
    5     3.4000  -2753.41754
    6     3.5000  -2753.41754
    7     3.6000  -2753.41754
    8     3.7000  -2753.41754
    9     3.8000  -2753.41754
   10     3.9000  -2753.41754
   11     4.0000  -2753.41754
   12     4.1000  -2753.41754
   13     4.2000  -2753.41754
   14     4.3000  -2753.41754
   15     4.4000  -2753.41754
   16     4.5000  -2753.41754
   17     4.6000  -2753.41754
   18     4.7000  -2753.41754
   19     4.8000  -2753.41754
   20     4.9000  -2753.41754
   21     5.0000  -2753.41754
 ----  ---------  -----------
  
 Leave Link  108 at Thu May 14 00:54:20 2020, MaxMem= 1073741824 cpu:       0.0
 (Enter /home/matheus/.gaussian/g09/l9999.exe)
 1\1\GINC-REDGIANT\Scan\RLC-BLYP\Aug-CC-pVTZ\H2Kr1O2\MATHEUS\14-May-202
 0\1\\#p lc-blyp/aug-cc-PVTz int=ultrafine counterpoise=2 Scan\\TCC\\0,
 1\O,0,0.,0.,0.725\O,0,0.,0.,-0.725\H,0,-0.5905422151,0.7037808064,1.02
 35104166\H,0,0.,0.9187205947,-1.0235104166\Kr,0,0.,R1,0.\\R1=3.,s,20,0
 .1\\Version=EM64L-G09RevC.01\State=1-A\HF=-2753.4175422,-2753.4175422,
 -2753.4175422,-2753.4175422,-2753.4175422,-2753.4175422,-2753.4175422,
 -2753.4175422,-2753.4175422,-2753.4175422,-2753.4175422,-2753.4175422,
 -2753.4175422,-2753.4175422,-2753.4175422,-2753.4175422,-2753.4175422,
 -2753.4175422,-2753.4175422,-2753.4175422,-2753.4175422\RMSD=1.334e-09
 ,5.265e-11,1.629e-11,9.949e-12,5.944e-12,3.613e-12,2.189e-12,1.323e-12
 ,7.982e-13,4.863e-13,2.977e-13,1.794e-13,1.050e-13,6.282e-14,3.705e-14
 ,2.401e-14,1.518e-14,9.500e-15,8.476e-15,1.175e-14,5.652e-15\PG=C01 [X
 (H2Kr1O2)]\\@


 I (ERNEST RUTHERFORD) CAME INTO THE ROOM, WHICH WAS HALF DARK, AND PRESENTLY
 SPOTTED LORD KELVIN IN THE AUDIENCE AND REALIZED I WAS IN TROUBLE AT
 THE LAST PART OF MY SPEECH DEALING THE AGE OF THE EARTH, WHERE MY VIEWS
 CONFLICTED WITH HIS.  TO MY RELIEF KELVIN FELL FAST ASLEEP, BUT AS I CAME
 TO THE IMPORTANT POINT, I SAW THE OLD BIRD SIT UP AND COCK A BALEFUL GLANCE
 AT ME! THEN A SUDDEN INSPIRATION CAME AND I SAID LORD KELVIN HAD LIMITED
 THE AGE OF THE EARTH PROVIDED NO NEW SOURCE WAS DISCOVERED. THAT
 PROPHETIC UTTERANCE REFERS TO WHAT WE ARE NOW CONSIDERING TONIGHT, RADIUM!
 BEHOLD!  THE OLD BOY BEAMED UPON ME.
 Job cpu time:  0 days  3 hours 13 minutes 18.7 seconds.
 File lengths (MBytes):  RWF=     33 Int=      0 D2E=      0 Chk=      8 Scr=      1
 Normal termination of Gaussian 09 at Thu May 14 00:54:20 2020.
