 Entering Gaussian System, Link 0=g09
 Input=/home/matheus/.tcc/Inputs/Inputs-lc-blyp-default/H2O2-Kr_34.com
 Output=/home/matheus/.tcc/Logs/Logs-lc-blyp-default/H2O2-Kr_34.log
 Initial command:
 /home/matheus/.gaussian/g09/l1.exe /home/matheus/.gaussian/g09/scratch/Gau-28732.inp -scrdir=/home/matheus/.gaussian/g09/scratch/
 Entering Link 1 = /home/matheus/.gaussian/g09/l1.exe PID=     28736.
  
 Copyright (c) 1988,1990,1992,1993,1995,1998,2003,2009,2011,
            Gaussian, Inc.  All Rights Reserved.
  
 This is part of the Gaussian(R) 09 program.  It is based on
 the Gaussian(R) 03 system (copyright 2003, Gaussian, Inc.),
 the Gaussian(R) 98 system (copyright 1998, Gaussian, Inc.),
 the Gaussian(R) 94 system (copyright 1995, Gaussian, Inc.),
 the Gaussian 92(TM) system (copyright 1992, Gaussian, Inc.),
 the Gaussian 90(TM) system (copyright 1990, Gaussian, Inc.),
 the Gaussian 88(TM) system (copyright 1988, Gaussian, Inc.),
 the Gaussian 86(TM) system (copyright 1986, Carnegie Mellon
 University), and the Gaussian 82(TM) system (copyright 1983,
 Carnegie Mellon University). Gaussian is a federally registered
 trademark of Gaussian, Inc.
  
 This software contains proprietary and confidential information,
 including trade secrets, belonging to Gaussian, Inc.
  
 This software is provided under written license and may be
 used, copied, transmitted, or stored only in accord with that
 written license.
  
 The following legend is applicable only to US Government
 contracts under FAR:
  
                    RESTRICTED RIGHTS LEGEND
  
 Use, reproduction and disclosure by the US Government is
 subject to restrictions as set forth in subparagraphs (a)
 and (c) of the Commercial Computer Software - Restricted
 Rights clause in FAR 52.227-19.
  
 Gaussian, Inc.
 340 Quinnipiac St., Bldg. 40, Wallingford CT 06492
  
  
 ---------------------------------------------------------------
 Warning -- This program may not be used in any manner that
 competes with the business of Gaussian, Inc. or will provide
 assistance to any competitor of Gaussian, Inc.  The licensee
 of this program is prohibited from giving any competitor of
 Gaussian, Inc. access to this program.  By using this program,
 the user acknowledges that Gaussian, Inc. is engaged in the
 business of creating and licensing software in the field of
 computational chemistry and represents and warrants to the
 licensee that it is not a competitor of Gaussian, Inc. and that
 it will not use this program in any manner prohibited above.
 ---------------------------------------------------------------
  

 Cite this work as:
 Gaussian 09, Revision C.01,
 M. J. Frisch, G. W. Trucks, H. B. Schlegel, G. E. Scuseria, 
 M. A. Robb, J. R. Cheeseman, G. Scalmani, V. Barone, B. Mennucci, 
 G. A. Petersson, H. Nakatsuji, M. Caricato, X. Li, H. P. Hratchian, 
 A. F. Izmaylov, J. Bloino, G. Zheng, J. L. Sonnenberg, M. Hada, 
 M. Ehara, K. Toyota, R. Fukuda, J. Hasegawa, M. Ishida, T. Nakajima, 
 Y. Honda, O. Kitao, H. Nakai, T. Vreven, J. A. Montgomery, Jr., 
 J. E. Peralta, F. Ogliaro, M. Bearpark, J. J. Heyd, E. Brothers, 
 K. N. Kudin, V. N. Staroverov, T. Keith, R. Kobayashi, J. Normand, 
 K. Raghavachari, A. Rendell, J. C. Burant, S. S. Iyengar, J. Tomasi, 
 M. Cossi, N. Rega, J. M. Millam, M. Klene, J. E. Knox, J. B. Cross, 
 V. Bakken, C. Adamo, J. Jaramillo, R. Gomperts, R. E. Stratmann, 
 O. Yazyev, A. J. Austin, R. Cammi, C. Pomelli, J. W. Ochterski, 
 R. L. Martin, K. Morokuma, V. G. Zakrzewski, G. A. Voth, 
 P. Salvador, J. J. Dannenberg, S. Dapprich, A. D. Daniels, 
 O. Farkas, J. B. Foresman, J. V. Ortiz, J. Cioslowski, 
 and D. J. Fox, Gaussian, Inc., Wallingford CT, 2010.
 
 ******************************************
 Gaussian 09:  EM64L-G09RevC.01 23-Sep-2011
                14-May-2020 
 ******************************************
 %mem=8GB
 %nproc=8
 Will use up to    8 processors via shared memory.
 --------------------------------------------------------
 #p lc-blyp/aug-cc-PVTz int=ultrafine counterpoise=2 Scan
 --------------------------------------------------------
 1/38=1,60=1,62=2/1,8;
 2/12=2,17=6,18=5,29=3,40=1/2;
 1/38=1,53=5172,62=2/22;
 3/5=16,6=1,7=10,11=2,16=1,25=1,30=1,74=1000402,75=-5/1,2,3;
 4//1;
 5/5=2,38=5/2;
 6/7=2,8=2,9=2,10=2,18=1,28=1/1;
 1/53=4052,62=2,63=1/22;
 3/5=7,6=11,7=10,11=2,16=1,25=1,30=1,74=1000402,75=-5,82=7/1,2,3;
 4//1;
 5/5=2,38=5/2;
 6/7=2,8=2,9=2,10=2,18=1,28=1/1;
 1/53=3042,62=2,63=2/22;
 3/5=7,6=11,7=10,11=2,16=1,25=1,30=1,74=1000402,75=-5,82=7/1,2,3;
 4//1;
 5/5=2,38=5/2;
 6/7=2,8=2,9=2,10=2,18=1,28=1/1;
 1/53=2032,62=2,63=3/22;
 3/5=7,6=11,7=10,11=2,16=1,25=1,30=1,74=1000402,75=-5,82=7/1,2,3;
 4//1;
 5/5=2,38=5/2;
 6/7=2,8=2,9=2,10=2,18=1,28=1/1;
 1/53=1022,62=2,63=4/22;
 3/5=7,6=11,7=10,11=2,16=1,25=1,30=1,74=1000402,75=-5,82=7/1,2,3;
 4//1;
 5/5=2,38=5/2;
 6/7=2,8=2,9=2,10=2,18=1,28=1/1;
 1/53=5014,62=2,63=5/22;
 1/60=1,62=2/8(1);
 99/9=1/99;
 2/29=3/2;
 1/53=5173,62=2/22;
 3/5=7,6=11,7=10,11=2,16=1,25=1,30=1,74=1000402,75=-5,82=7/1,2,3;
 4/5=5,16=3/1;
 5/5=2,38=5/2;
 1/53=4053,62=2,63=1/22;
 3/5=7,6=11,7=10,11=2,16=1,25=1,30=1,74=1000402,75=-5,82=7/1,2,3;
 4/5=5,16=3/1;
 5/5=2,38=5/2;
 1/53=3043,62=2,63=2/22;
 3/5=7,6=11,7=10,11=2,16=1,25=1,30=1,74=1000402,75=-5,82=7/1,2,3;
 4/5=5,16=3/1;
 5/5=2,38=5/2;
 1/53=2033,62=2,63=3/22;
 3/5=7,6=11,7=10,11=2,16=1,25=1,30=1,74=1000402,75=-5,82=7/1,2,3;
 4/5=5,16=3/1;
 5/5=2,38=5/2;
 1/53=1024,62=2,63=4/22;
 3/5=7,6=11,7=10,11=2,16=1,25=1,30=1,74=1000402,75=-5,82=7/1,2,3;
 4/5=5,16=3/1;
 5/5=2,38=5/2;
 1/53=5014,62=2,63=5/22;
 1/60=1,62=2/8(-22);
 99/9=1/99;
 Leave Link    1 at Thu May 14 01:18:54 2020, MaxMem= 1073741824 cpu:       0.1
 (Enter /home/matheus/.gaussian/g09/l101.exe)
 ---
 TCC
 ---
 Charge =  0 Multiplicity = 1 in supermolecule
 Charge =  0 Multiplicity = 1 in fragment  1.
 Charge =  0 Multiplicity = 1 in fragment  2.
 Symbolic Z-Matrix:
 O(Fragment=1)         0.        0.        0.725 
 O(Fragment=1)         0.        0.       -0.725 
 H(Fragment=1)        -0.31422   0.86331   1.02351 
 H(Fragment=1)         0.        0.91872  -1.02351 
 Kr(Fragment=2)        0.       R1        0. 
       Variables:
  R1                    3.     Scan 20    0.1    
 
 NAtoms=      5 NQM=        0 NQMF=       0 NMMI=      5 NMMIF=      0
                NMic=       0 NMicF=      0.
                    Isotopes and Nuclear Properties:
 (Nuclear quadrupole moments (NQMom) in fm**2, nuclear magnetic moments (NMagM)
  in nuclear magnetons)

  Atom         1           2           3           4           5
 IAtWgt=          16          16           1           1          84
 AtmWgt=  15.9949146  15.9949146   1.0078250   1.0078250  83.9115064
 NucSpn=           0           0           1           1           0
 AtZEff=   0.0000000   0.0000000   0.0000000   0.0000000   0.0000000
 NQMom=    0.0000000   0.0000000   0.0000000   0.0000000   0.0000000
 NMagM=    0.0000000   0.0000000   2.7928460   2.7928460   0.0000000
 Leave Link  101 at Thu May 14 01:18:54 2020, MaxMem= 1073741824 cpu:       0.3
 (Enter /home/matheus/.gaussian/g09/l108.exe)
 Scan the potential surface.
 Variable   Value     No. Steps Step-Size
 -------- ----------- --------- ---------
     1       3.000000      20      0.1000
 A total of     21 points will be computed.
 Leave Link  108 at Thu May 14 01:18:54 2020, MaxMem= 1073741824 cpu:       0.0
 (Enter /home/matheus/.gaussian/g09/l202.exe)
 ---------------------------------------------------------------------------------------------------
                            Z-MATRIX (ANGSTROMS AND DEGREES)
   CD    Cent   Atom    N1       Length/X        N2       Alpha/Y        N3        Beta/Z          J
 ---------------------------------------------------------------------------------------------------
      1      1  O        0   0.000000          0.000000          0.725000
      2      2  O        0   0.000000          0.000000         -0.725000
      3      3  H        0  -0.314221          0.863315          1.023510
      4      4  H        0   0.000000          0.918721         -1.023510
      5      5  Kr       0   0.000000          3.000000          0.000000
 ---------------------------------------------------------------------------------------------------
                         Z-Matrix orientation:                         
 ---------------------------------------------------------------------
 Center     Atomic      Atomic             Coordinates (Angstroms)
 Number     Number       Type             X           Y           Z
 ---------------------------------------------------------------------
      1          8           0        0.000000    0.000000    0.725000
      2          8           0        0.000000    0.000000   -0.725000
      3          1           0       -0.314221    0.863315    1.023510
      4          1           0        0.000000    0.918721   -1.023510
      5         36           0        0.000000    3.000000    0.000000
 ---------------------------------------------------------------------
                    Distance matrix (angstroms):
                    1          2          3          4          5
     1  O    0.000000
     2  O    1.450000   0.000000
     3  H    0.966000   1.975180   0.000000
     4  H    1.975180   0.966000   2.071738   0.000000
     5  Kr   3.086361   3.086361   2.389923   2.319331   0.000000
 Stoichiometry    H2KrO2
 Framework group  C1[X(H2KrO2)]
 Deg. of freedom     9
 Full point group                 C1      NOp   1
 Largest Abelian subgroup         C1      NOp   1
 Largest concise Abelian subgroup C1      NOp   1
                         Standard orientation:                         
 ---------------------------------------------------------------------
 Center     Atomic      Atomic             Coordinates (Angstroms)
 Number     Number       Type             X           Y           Z
 ---------------------------------------------------------------------
      1          8           0       -2.033423   -0.722971   -0.035434
      2          8           0       -2.032510    0.726339    0.009272
      3          1           0       -1.171431   -1.031666    0.272517
      4          1           0       -1.113607    1.024028    0.021759
      5         36           0        0.967014   -0.000536   -0.002361
 ---------------------------------------------------------------------
 Rotational constants (GHZ):     26.5652681      2.3862430      2.1913165
 Leave Link  202 at Thu May 14 01:18:54 2020, MaxMem= 1073741824 cpu:       0.0
 (Enter /home/matheus/.gaussian/g09/l122.exe)
 Leave Link  122 at Thu May 14 01:18:54 2020, MaxMem= 1073741824 cpu:       0.0
 (Enter /home/matheus/.gaussian/g09/l301.exe)
 Standard basis: Aug-CC-pVTZ (5D, 7F)
 Ernie: Thresh=  0.10000D-02 Tol=  0.10000D-05 Strict=F.
 Ernie:  38 primitive shells out of 205 were deleted.
 There are   197 symmetry adapted basis functions of A   symmetry.
 Integral buffers will be    131072 words long.
 Raffenetti 2 integral format.
 Two-electron integral symmetry is turned on.
   197 basis functions,   415 primitive gaussians,   229 cartesian basis functions
    27 alpha electrons       27 beta electrons
       nuclear repulsion energy       151.6075768884 Hartrees.
 IExCor=10402 DFT=T Ex=LC-B+HF Corr=LYP ExCW=0 ScaHFX=  1.000000
 ScaDFX=  1.000000  1.000000  1.000000  1.000000 ScalE2=  1.000000  1.000000
 IRadAn=      5 IRanWt=     -1 IRanGd=            0 ICorTp=0
  HFx wShort=  0.000000 wLong=  0.470000 cFull=  0.000000 cShort=  0.000000 cLong=  1.000000
  DFx wShort=  0.000000 wLong=  0.470000 cFull=  0.000000 cShort=  0.000000 cLong=  1.000000
 NAtoms=    5 NActive=    5 NUniq=    5 SFac= 1.00D+00 NAtFMM=   60 NAOKFM=F Big=F
 Leave Link  301 at Thu May 14 01:18:54 2020, MaxMem= 1073741824 cpu:       0.2
 (Enter /home/matheus/.gaussian/g09/l302.exe)
 NPDir=0 NMtPBC=     1 NCelOv=     1 NCel=       1 NClECP=     1 NCelD=      1
         NCelK=      1 NCelE2=     1 NClLst=     1 CellRange=     0.0.
 One-electron integrals computed using PRISM.
 NBasis=   197 RedAO= T  NBF=   197
 NBsUse=   197 1.00D-06 NBFU=   197
 Precomputing XC quadrature grid using
 IXCGrd= 2 IRadAn=           5 IRanWt=          -1 IRanGd=           0 AccXCQ= 0.00D+00.
 NRdTot=     427 NPtTot=      123512 NUsed=      126579 NTot=      126611
 NSgBfM=   229   229   229   229   229 NAtAll=     5     5.
 Leave Link  302 at Thu May 14 01:18:54 2020, MaxMem= 1073741824 cpu:       1.0
 (Enter /home/matheus/.gaussian/g09/l303.exe)
 DipDrv:  MaxL=1.
 Leave Link  303 at Thu May 14 01:18:54 2020, MaxMem= 1073741824 cpu:       0.2
 (Enter /home/matheus/.gaussian/g09/l401.exe)
 Harris functional with IExCor=10402 diagonalized for initial guess.
 ExpMin= 2.53D-02 ExpMax= 1.17D+07 ExpMxC= 1.33D+04 IAcc=3 IRadAn=         5 AccDes= 0.00D+00
 HarFok:  IExCor=10402 AccDes= 0.00D+00 IRadAn=         5 IDoV= 1
 ScaDFX=  1.000000  1.000000  1.000000  1.000000
 FoFCou: FMM=F IPFlag=           0 FMFlag=      100000 FMFlg1=           0
         NFxFlg=           0 DoJE=T BraDBF=F KetDBF=T FulRan=T
         Omega=  0.000000  0.000000  1.000000  0.000000  0.000000 ICntrl=     500 IOpCl=  0
         NMat0=    1 NMatS0=    1 NMatT0=    0 NMatD0=    1 NMtDS0=    0 NMtDT0=    0
         I1Cent=           4 NGrid=           0.
 Petite list used in FoFCou.
 Harris En= -2891.66375407740    
 Initial guess orbital symmetries:
       Occupied  (A) (A) (A) (A) (A) (A) (A) (A) (A) (A) (A) (A)
                 (A) (A) (A) (A) (A) (A) (A) (A) (A) (A) (A) (A)
                 (A) (A) (A)
       Virtual   (A) (A) (A) (A) (A) (A) (A) (A) (A) (A) (A) (A)
                 (A) (A) (A) (A) (A) (A) (A) (A) (A) (A) (A) (A)
                 (A) (A) (A) (A) (A) (A) (A) (A) (A) (A) (A) (A)
                 (A) (A) (A) (A) (A) (A) (A) (A) (A) (A) (A) (A)
                 (A) (A) (A) (A) (A) (A) (A) (A) (A) (A) (A) (A)
                 (A) (A) (A) (A) (A) (A) (A) (A) (A) (A) (A) (A)
                 (A) (A) (A) (A) (A) (A) (A) (A) (A) (A) (A) (A)
                 (A) (A) (A) (A) (A) (A) (A) (A) (A) (A) (A) (A)
                 (A) (A) (A) (A) (A) (A) (A) (A) (A) (A) (A) (A)
                 (A) (A) (A) (A) (A) (A) (A) (A) (A) (A) (A) (A)
                 (A) (A) (A) (A) (A) (A) (A) (A) (A) (A) (A) (A)
                 (A) (A) (A) (A) (A) (A) (A) (A) (A) (A) (A) (A)
                 (A) (A) (A) (A) (A) (A) (A) (A) (A) (A) (A) (A)
                 (A) (A) (A) (A) (A) (A) (A) (A) (A) (A) (A) (A)
                 (A) (A)
 The electronic state of the initial guess is 1-A.
 Leave Link  401 at Thu May 14 01:18:55 2020, MaxMem= 1073741824 cpu:       4.4
 (Enter /home/matheus/.gaussian/g09/l502.exe)
 Closed shell SCF:
 Requested convergence on RMS density matrix=1.00D-08 within 128 cycles.
 Requested convergence on MAX density matrix=1.00D-06.
 Requested convergence on             energy=1.00D-06.
 No special actions if energy rises.
 Using DIIS extrapolation, IDIIS=  1040.
 Integral symmetry usage will be decided dynamically.
       126521 words used for storage of precomputed grid.
 IEnd=      305468 IEndB=      305468 NGot=  1073741824 MDV=  1073505667
 LenX=  1073505667 LenY=  1073452785
 Fock matrices will be formed incrementally for  20 cycles.

 Cycle   1  Pass 1  IDiag  1:
 FoFJK:  IHMeth= 1 ICntrl=     0 DoSepK=T KAlg= 1 I1Cent= 0 FoldK=F
 FoFCou: FMM=F IPFlag=           0 FMFlag=      100000 FMFlg1=           0
         NFxFlg=           0 DoJE=T BraDBF=F KetDBF=F FulRan=T
         Omega=  0.000000  0.000000  1.000000  0.000000  0.000000 ICntrl=     500 IOpCl=  0
         NMat0=    1 NMatS0=    1 NMatT0=    0 NMatD0=    1 NMtDS0=    0 NMtDT0=    0
         I1Cent=           0 NGrid=           0.
 Symmetry not used in FoFCou.
 E= -2904.61974948063    
 DIIS: error= 3.12D-02 at cycle   1 NSaved=   1.
 NSaved= 1 IEnMin= 1 EnMin= -2904.61974948063     IErMin= 1 ErrMin= 3.12D-02
 ErrMax= 3.12D-02 EMaxC= 1.00D-01 BMatC= 2.93D-01 BMatP= 2.93D-01
 IDIUse=3 WtCom= 6.88D-01 WtEn= 3.12D-01
 Coeff-Com:  0.100D+01
 Coeff-En:   0.100D+01
 Coeff:      0.100D+01
 Gap=     0.460 Goal=   None    Shift=    0.000
 GapD=    0.460 DampG=2.000 DampE=0.500 DampFc=1.0000 IDamp=-1.
 RMSDP=2.74D-03 MaxDP=1.57D-01              OVMax= 1.13D-01

 Cycle   2  Pass 1  IDiag  1:
 RMSU=  1.89D-03    CP:  1.02D+00
 FoFJK:  IHMeth= 1 ICntrl=     0 DoSepK=T KAlg= 1 I1Cent= 0 FoldK=F
 E= -2904.70126323001     Delta-E=       -0.081513749382 Rises=F Damp=F
 DIIS: error= 1.48D-02 at cycle   2 NSaved=   2.
 NSaved= 2 IEnMin= 2 EnMin= -2904.70126323001     IErMin= 2 ErrMin= 1.48D-02
 ErrMax= 1.48D-02 EMaxC= 1.00D-01 BMatC= 9.65D-02 BMatP= 2.93D-01
 IDIUse=3 WtCom= 8.52D-01 WtEn= 1.48D-01
 Coeff-Com:  0.360D+00 0.640D+00
 Coeff-En:   0.206D-01 0.979D+00
 Coeff:      0.309D+00 0.691D+00
 Gap=     0.430 Goal=   None    Shift=    0.000
 RMSDP=1.07D-03 MaxDP=6.54D-02 DE=-8.15D-02 OVMax= 3.09D-02

 Cycle   3  Pass 1  IDiag  1:
 RMSU=  3.44D-04    CP:  1.01D+00  6.55D-01
 FoFJK:  IHMeth= 1 ICntrl=     0 DoSepK=T KAlg= 1 I1Cent= 0 FoldK=F
 E= -2904.73319132608     Delta-E=       -0.031928096071 Rises=F Damp=F
 DIIS: error= 1.71D-03 at cycle   3 NSaved=   3.
 NSaved= 3 IEnMin= 3 EnMin= -2904.73319132608     IErMin= 3 ErrMin= 1.71D-03
 ErrMax= 1.71D-03 EMaxC= 1.00D-01 BMatC= 1.37D-03 BMatP= 9.65D-02
 IDIUse=3 WtCom= 9.83D-01 WtEn= 1.71D-02
 Coeff-Com: -0.438D-03 0.994D-01 0.901D+00
 Coeff-En:   0.000D+00 0.000D+00 0.100D+01
 Coeff:     -0.431D-03 0.977D-01 0.903D+00
 Gap=     0.432 Goal=   None    Shift=    0.000
 RMSDP=1.65D-04 MaxDP=7.34D-03 DE=-3.19D-02 OVMax= 6.63D-03

 Cycle   4  Pass 1  IDiag  1:
 RMSU=  6.97D-05    CP:  1.02D+00  7.00D-01  1.10D+00
 FoFJK:  IHMeth= 1 ICntrl=     0 DoSepK=T KAlg= 1 I1Cent= 0 FoldK=F
 E= -2904.73372799409     Delta-E=       -0.000536668012 Rises=F Damp=F
 DIIS: error= 4.09D-04 at cycle   4 NSaved=   4.
 NSaved= 4 IEnMin= 4 EnMin= -2904.73372799409     IErMin= 4 ErrMin= 4.09D-04
 ErrMax= 4.09D-04 EMaxC= 1.00D-01 BMatC= 4.26D-05 BMatP= 1.37D-03
 IDIUse=3 WtCom= 9.96D-01 WtEn= 4.09D-03
 Coeff-Com: -0.112D-01 0.606D-02 0.215D+00 0.790D+00
 Coeff-En:   0.000D+00 0.000D+00 0.000D+00 0.100D+01
 Coeff:     -0.111D-01 0.603D-02 0.214D+00 0.791D+00
 Gap=     0.429 Goal=   None    Shift=    0.000
 RMSDP=3.58D-05 MaxDP=1.07D-03 DE=-5.37D-04 OVMax= 1.53D-03

 Cycle   5  Pass 1  IDiag  1:
 RMSU=  1.89D-05    CP:  1.02D+00  7.03D-01  1.14D+00  1.02D+00
 FoFJK:  IHMeth= 1 ICntrl=     0 DoSepK=T KAlg= 1 I1Cent= 0 FoldK=F
 E= -2904.73376069143     Delta-E=       -0.000032697335 Rises=F Damp=F
 DIIS: error= 1.61D-04 at cycle   5 NSaved=   5.
 NSaved= 5 IEnMin= 5 EnMin= -2904.73376069143     IErMin= 5 ErrMin= 1.61D-04
 ErrMax= 1.61D-04 EMaxC= 1.00D-01 BMatC= 6.50D-06 BMatP= 4.26D-05
 IDIUse=3 WtCom= 9.98D-01 WtEn= 1.61D-03
 Coeff-Com: -0.271D-02-0.569D-02-0.140D-01 0.261D+00 0.761D+00
 Coeff-En:   0.000D+00 0.000D+00 0.000D+00 0.000D+00 0.100D+01
 Coeff:     -0.271D-02-0.568D-02-0.139D-01 0.261D+00 0.762D+00
 Gap=     0.430 Goal=   None    Shift=    0.000
 RMSDP=1.44D-05 MaxDP=4.85D-04 DE=-3.27D-05 OVMax= 9.91D-04

 Cycle   6  Pass 1  IDiag  1:
 RMSU=  5.88D-06    CP:  1.02D+00  7.04D-01  1.16D+00  1.11D+00  9.74D-01
 FoFJK:  IHMeth= 1 ICntrl=     0 DoSepK=T KAlg= 1 I1Cent= 0 FoldK=F
 E= -2904.73376632257     Delta-E=       -0.000005631144 Rises=F Damp=F
 DIIS: error= 4.11D-05 at cycle   6 NSaved=   6.
 NSaved= 6 IEnMin= 6 EnMin= -2904.73376632257     IErMin= 6 ErrMin= 4.11D-05
 ErrMax= 4.11D-05 EMaxC= 1.00D-01 BMatC= 4.79D-07 BMatP= 6.50D-06
 IDIUse=1 WtCom= 1.00D+00 WtEn= 0.00D+00
 Coeff-Com: -0.501D-04-0.278D-02-0.204D-01-0.957D-02 0.183D+00 0.850D+00
 Coeff:     -0.501D-04-0.278D-02-0.204D-01-0.957D-02 0.183D+00 0.850D+00
 Gap=     0.430 Goal=   None    Shift=    0.000
 RMSDP=5.22D-06 MaxDP=1.74D-04 DE=-5.63D-06 OVMax= 2.64D-04

 Cycle   7  Pass 1  IDiag  1:
 RMSU=  1.58D-06    CP:  1.02D+00  7.04D-01  1.16D+00  1.14D+00  1.08D+00
                    CP:  1.13D+00
 FoFJK:  IHMeth= 1 ICntrl=     0 DoSepK=T KAlg= 1 I1Cent= 0 FoldK=F
 E= -2904.73376675375     Delta-E=       -0.000000431177 Rises=F Damp=F
 DIIS: error= 2.21D-05 at cycle   7 NSaved=   7.
 NSaved= 7 IEnMin= 7 EnMin= -2904.73376675375     IErMin= 7 ErrMin= 2.21D-05
 ErrMax= 2.21D-05 EMaxC= 1.00D-01 BMatC= 1.20D-07 BMatP= 4.79D-07
 IDIUse=1 WtCom= 1.00D+00 WtEn= 0.00D+00
 Coeff-Com:  0.100D-03-0.121D-02-0.956D-02-0.224D-01 0.412D-01 0.426D+00
 Coeff-Com:  0.566D+00
 Coeff:      0.100D-03-0.121D-02-0.956D-02-0.224D-01 0.412D-01 0.426D+00
 Coeff:      0.566D+00
 Gap=     0.430 Goal=   None    Shift=    0.000
 RMSDP=1.19D-06 MaxDP=3.28D-05 DE=-4.31D-07 OVMax= 7.11D-05

 Cycle   8  Pass 1  IDiag  1:
 RMSU=  5.63D-07    CP:  1.02D+00  7.04D-01  1.16D+00  1.14D+00  1.09D+00
                    CP:  1.18D+00  8.78D-01
 FoFJK:  IHMeth= 1 ICntrl=     0 DoSepK=T KAlg= 1 I1Cent= 0 FoldK=F
 E= -2904.73376683580     Delta-E=       -0.000000082050 Rises=F Damp=F
 DIIS: error= 3.95D-06 at cycle   8 NSaved=   8.
 NSaved= 8 IEnMin= 8 EnMin= -2904.73376683580     IErMin= 8 ErrMin= 3.95D-06
 ErrMax= 3.95D-06 EMaxC= 1.00D-01 BMatC= 4.96D-09 BMatP= 1.20D-07
 IDIUse=1 WtCom= 1.00D+00 WtEn= 0.00D+00
 Coeff-Com:  0.221D-04 0.178D-03 0.137D-02-0.276D-02-0.210D-01-0.512D-01
 Coeff-Com:  0.116D+00 0.957D+00
 Coeff:      0.221D-04 0.178D-03 0.137D-02-0.276D-02-0.210D-01-0.512D-01
 Coeff:      0.116D+00 0.957D+00
 Gap=     0.430 Goal=   None    Shift=    0.000
 RMSDP=5.71D-07 MaxDP=1.58D-05 DE=-8.21D-08 OVMax= 4.13D-05

 Cycle   9  Pass 1  IDiag  1:
 RMSU=  1.61D-07    CP:  1.02D+00  7.04D-01  1.16D+00  1.15D+00  1.11D+00
                    CP:  1.21D+00  1.00D+00  1.18D+00
 FoFJK:  IHMeth= 1 ICntrl=     0 DoSepK=T KAlg= 1 I1Cent= 0 FoldK=F
 E= -2904.73376684282     Delta-E=       -0.000000007022 Rises=F Damp=F
 DIIS: error= 9.32D-07 at cycle   9 NSaved=   9.
 NSaved= 9 IEnMin= 9 EnMin= -2904.73376684282     IErMin= 9 ErrMin= 9.32D-07
 ErrMax= 9.32D-07 EMaxC= 1.00D-01 BMatC= 2.37D-10 BMatP= 4.96D-09
 IDIUse=1 WtCom= 1.00D+00 WtEn= 0.00D+00
 Coeff-Com: -0.302D-05 0.134D-03 0.865D-03 0.172D-02-0.474D-02-0.397D-01
 Coeff-Com: -0.333D-01 0.100D+00 0.975D+00
 Coeff:     -0.302D-05 0.134D-03 0.865D-03 0.172D-02-0.474D-02-0.397D-01
 Coeff:     -0.333D-01 0.100D+00 0.975D+00
 Gap=     0.430 Goal=   None    Shift=    0.000
 RMSDP=1.38D-07 MaxDP=2.72D-06 DE=-7.02D-09 OVMax= 8.20D-06

 Cycle  10  Pass 1  IDiag  1:
 RMSU=  4.33D-08    CP:  1.02D+00  7.04D-01  1.16D+00  1.15D+00  1.11D+00
                    CP:  1.22D+00  1.03D+00  1.27D+00  1.16D+00
 FoFJK:  IHMeth= 1 ICntrl=     0 DoSepK=T KAlg= 1 I1Cent= 0 FoldK=F
 E= -2904.73376684327     Delta-E=       -0.000000000447 Rises=F Damp=F
 DIIS: error= 2.98D-07 at cycle  10 NSaved=  10.
 NSaved=10 IEnMin=10 EnMin= -2904.73376684327     IErMin=10 ErrMin= 2.98D-07
 ErrMax= 2.98D-07 EMaxC= 1.00D-01 BMatC= 8.13D-12 BMatP= 2.37D-10
 IDIUse=1 WtCom= 1.00D+00 WtEn= 0.00D+00
 Coeff-Com: -0.387D-06-0.473D-05-0.564D-04 0.162D-03 0.942D-03 0.228D-02
 Coeff-Com: -0.593D-02-0.474D-01 0.182D-01 0.103D+01
 Coeff:     -0.387D-06-0.473D-05-0.564D-04 0.162D-03 0.942D-03 0.228D-02
 Coeff:     -0.593D-02-0.474D-01 0.182D-01 0.103D+01
 Gap=     0.430 Goal=   None    Shift=    0.000
 RMSDP=3.04D-08 MaxDP=5.29D-07 DE=-4.47D-10 OVMax= 2.15D-06

 Cycle  11  Pass 1  IDiag  1:
 RMSU=  1.30D-08    CP:  1.02D+00  7.04D-01  1.16D+00  1.15D+00  1.11D+00
                    CP:  1.22D+00  1.03D+00  1.28D+00  1.22D+00  1.23D+00
 FoFJK:  IHMeth= 1 ICntrl=     0 DoSepK=T KAlg= 1 I1Cent= 0 FoldK=F
 E= -2904.73376684333     Delta-E=       -0.000000000057 Rises=F Damp=F
 DIIS: error= 1.11D-07 at cycle  11 NSaved=  11.
 NSaved=11 IEnMin=11 EnMin= -2904.73376684333     IErMin=11 ErrMin= 1.11D-07
 ErrMax= 1.11D-07 EMaxC= 1.00D-01 BMatC= 9.45D-13 BMatP= 8.13D-12
 IDIUse=1 WtCom= 1.00D+00 WtEn= 0.00D+00
 Coeff-Com: -0.331D-06-0.112D-04-0.582D-04-0.116D-03 0.203D-03 0.258D-02
 Coeff-Com:  0.306D-02-0.267D-02-0.669D-01-0.126D+00 0.119D+01
 Coeff:     -0.331D-06-0.112D-04-0.582D-04-0.116D-03 0.203D-03 0.258D-02
 Coeff:      0.306D-02-0.267D-02-0.669D-01-0.126D+00 0.119D+01
 Gap=     0.430 Goal=   None    Shift=    0.000
 RMSDP=1.27D-08 MaxDP=2.57D-07 DE=-5.73D-11 OVMax= 1.05D-06

 Cycle  12  Pass 1  IDiag  1:
 RMSU=  3.17D-09    CP:  1.02D+00  7.04D-01  1.16D+00  1.15D+00  1.11D+00
                    CP:  1.22D+00  1.03D+00  1.28D+00  1.23D+00  1.33D+00
                    CP:  1.47D+00
 FoFJK:  IHMeth= 1 ICntrl=     0 DoSepK=T KAlg= 1 I1Cent= 0 FoldK=F
 E= -2904.73376684332     Delta-E=        0.000000000002 Rises=F Damp=F
 DIIS: error= 4.34D-08 at cycle  12 NSaved=  12.
 NSaved=12 IEnMin=11 EnMin= -2904.73376684333     IErMin=12 ErrMin= 4.34D-08
 ErrMax= 4.34D-08 EMaxC= 1.00D-01 BMatC= 8.67D-14 BMatP= 9.45D-13
 IDIUse=1 WtCom= 1.00D+00 WtEn= 0.00D+00
 Coeff-Com:  0.115D-06 0.281D-05 0.171D-04 0.952D-05-0.135D-03-0.744D-03
 Coeff-Com:  0.429D-04 0.535D-02 0.106D-01-0.824D-01-0.186D+00 0.125D+01
 Coeff:      0.115D-06 0.281D-05 0.171D-04 0.952D-05-0.135D-03-0.744D-03
 Coeff:      0.429D-04 0.535D-02 0.106D-01-0.824D-01-0.186D+00 0.125D+01
 Gap=     0.430 Goal=   None    Shift=    0.000
 RMSDP=5.08D-09 MaxDP=1.38D-07 DE= 1.82D-12 OVMax= 5.38D-07

 SCF Done:  E(RLC-B+HF-LYP) =  -2904.73376684     A.U. after   12 cycles
             Convg  =    0.5077D-08             -V/T =  2.0017
 KE= 2.899853096249D+03 PE=-7.238574079039D+03 EE= 1.282379639058D+03
 Leave Link  502 at Thu May 14 01:19:35 2020, MaxMem= 1073741824 cpu:     324.9
 (Enter /home/matheus/.gaussian/g09/l601.exe)
 Copying SCF densities to generalized density rwf, IOpCl= 0 IROHF=0.

 **********************************************************************

            Population analysis using the SCF density.

 **********************************************************************

 Orbital symmetries:
       Occupied  (A) (A) (A) (A) (A) (A) (A) (A) (A) (A) (A) (A)
                 (A) (A) (A) (A) (A) (A) (A) (A) (A) (A) (A) (A)
                 (A) (A) (A)
       Virtual   (A) (A) (A) (A) (A) (A) (A) (A) (A) (A) (A) (A)
                 (A) (A) (A) (A) (A) (A) (A) (A) (A) (A) (A) (A)
                 (A) (A) (A) (A) (A) (A) (A) (A) (A) (A) (A) (A)
                 (A) (A) (A) (A) (A) (A) (A) (A) (A) (A) (A) (A)
                 (A) (A) (A) (A) (A) (A) (A) (A) (A) (A) (A) (A)
                 (A) (A) (A) (A) (A) (A) (A) (A) (A) (A) (A) (A)
                 (A) (A) (A) (A) (A) (A) (A) (A) (A) (A) (A) (A)
                 (A) (A) (A) (A) (A) (A) (A) (A) (A) (A) (A) (A)
                 (A) (A) (A) (A) (A) (A) (A) (A) (A) (A) (A) (A)
                 (A) (A) (A) (A) (A) (A) (A) (A) (A) (A) (A) (A)
                 (A) (A) (A) (A) (A) (A) (A) (A) (A) (A) (A) (A)
                 (A) (A) (A) (A) (A) (A) (A) (A) (A) (A) (A) (A)
                 (A) (A) (A) (A) (A) (A) (A) (A) (A) (A) (A) (A)
                 (A) (A) (A) (A) (A) (A) (A) (A) (A) (A) (A) (A)
                 (A) (A)
 The electronic state is 1-A.
 Alpha  occ. eigenvalues -- -511.28373 -66.75358 -60.43888 -60.43880 -60.43868
 Alpha  occ. eigenvalues --  -19.06901 -19.06829  -9.64502  -7.39983  -7.39958
 Alpha  occ. eigenvalues --   -7.39922  -3.36320  -3.36318  -3.36290  -3.36271
 Alpha  occ. eigenvalues --   -3.36267  -1.28406  -1.10306  -1.05994  -0.73105
 Alpha  occ. eigenvalues --   -0.58427  -0.57399  -0.55894  -0.54830  -0.53961
 Alpha  occ. eigenvalues --   -0.50884  -0.40566
 Alpha virt. eigenvalues --    0.02415   0.03710   0.07411   0.08173   0.09563
 Alpha virt. eigenvalues --    0.11148   0.11776   0.14997   0.16130   0.17072
 Alpha virt. eigenvalues --    0.17304   0.18280   0.19849   0.20644   0.22302
 Alpha virt. eigenvalues --    0.23097   0.23762   0.26291   0.29894   0.32902
 Alpha virt. eigenvalues --    0.33684   0.35897   0.37454   0.37690   0.39141
 Alpha virt. eigenvalues --    0.41989   0.44100   0.47779   0.51719   0.53101
 Alpha virt. eigenvalues --    0.58560   0.60868   0.61257   0.63446   0.64824
 Alpha virt. eigenvalues --    0.68772   0.69502   0.72011   0.72938   0.74838
 Alpha virt. eigenvalues --    0.75860   0.77173   0.80704   0.82235   0.85378
 Alpha virt. eigenvalues --    0.85897   0.86765   0.88344   0.88868   0.91335
 Alpha virt. eigenvalues --    0.93728   0.95393   0.96619   0.98652   1.00079
 Alpha virt. eigenvalues --    1.03849   1.04362   1.06093   1.08523   1.10694
 Alpha virt. eigenvalues --    1.13579   1.18645   1.22222   1.25678   1.27063
 Alpha virt. eigenvalues --    1.31445   1.33328   1.39150   1.40031   1.46393
 Alpha virt. eigenvalues --    1.49449   1.53191   1.54718   1.55841   1.59026
 Alpha virt. eigenvalues --    1.62825   1.67394   1.83213   1.90759   1.95142
 Alpha virt. eigenvalues --    1.99329   2.05633   2.08789   2.12981   2.14962
 Alpha virt. eigenvalues --    2.17735   2.21205   2.22381   2.23198   2.29330
 Alpha virt. eigenvalues --    2.30778   2.32867   2.34006   2.35173   2.36589
 Alpha virt. eigenvalues --    2.38863   2.41192   2.43947   2.48824   2.49741
 Alpha virt. eigenvalues --    2.51788   2.51880   2.58235   2.59805   2.61277
 Alpha virt. eigenvalues --    2.64455   2.68134   2.69265   2.72410   2.73962
 Alpha virt. eigenvalues --    2.74907   2.78532   2.81850   2.90449   2.90762
 Alpha virt. eigenvalues --    2.95918   3.09283   3.13814   3.15492   3.57556
 Alpha virt. eigenvalues --    3.74967   3.87107   3.99484   4.02547   4.09735
 Alpha virt. eigenvalues --    4.16340   4.16842   4.20722   4.22304   4.25952
 Alpha virt. eigenvalues --    4.41723   4.50191   4.57141   4.68397   4.72576
 Alpha virt. eigenvalues --    4.98571   5.02181   5.05648   5.10449   5.13034
 Alpha virt. eigenvalues --    5.16782   5.51784   5.83139   6.04074   6.06118
 Alpha virt. eigenvalues --    6.14246   6.37385   6.39653   6.49967   6.59375
 Alpha virt. eigenvalues --    6.70899   6.72085   6.78260   6.82826   6.84443
 Alpha virt. eigenvalues --    6.86922   6.89680   6.90423   6.93879   7.11567
 Alpha virt. eigenvalues --    7.17266   7.17709   7.27076   7.33880   7.60146
 Alpha virt. eigenvalues --    7.97701   8.02366   8.18089  13.76342  14.64688
          Condensed to atoms (all electrons):
              1          2          3          4          5
     1  O    8.244952  -0.235924   0.164224   0.048096  -0.022816
     2  O   -0.235924   8.227314   0.054191   0.177396  -0.016189
     3  H    0.164224   0.054191   0.629587  -0.032251  -0.005200
     4  H    0.048096   0.177396  -0.032251   0.622815  -0.010556
     5  Kr  -0.022816  -0.016189  -0.005200  -0.010556  36.033389
 Mulliken atomic charges:
              1
     1  O   -0.198532
     2  O   -0.206789
     3  H    0.189449
     4  H    0.194500
     5  Kr   0.021371
 Sum of Mulliken atomic charges =   0.00000
 Mulliken charges with hydrogens summed into heavy atoms:
              1
     1  O   -0.009083
     2  O   -0.012288
     5  Kr   0.021371
 Sum of Mulliken charges with hydrogens summed into heavy atoms =   0.00000
          Condensed to fragments (all electrons):
     1      -0.021371
     2       0.021371
 Electronic spatial extent (au):  <R**2>=            476.7292
 Charge=              0.0000 electrons
 Dipole moment (field-independent basis, Debye):
    X=              3.7087    Y=             -0.0467    Z=              0.4626  Tot=              3.7378
 Quadrupole moment (field-independent basis, Debye-Ang):
   XX=            -39.3152   YY=            -28.4662   ZZ=            -30.6521
   XY=              0.1396   XZ=             -0.5358   YZ=             -0.6186
 Traceless Quadrupole moment (field-independent basis, Debye-Ang):
   XX=             -6.5040   YY=              4.3450   ZZ=              2.1591
   XY=              0.1396   XZ=             -0.5358   YZ=             -0.6186
 Octapole moment (field-independent basis, Debye-Ang**2):
  XXX=             46.7301  YYY=             -0.1142  ZZZ=              0.0080  XYY=              8.4851
  XXY=             -0.3214  XXZ=              0.0061  XZZ=              9.0650  YZZ=             -0.2207
  YYZ=              0.7085  XYZ=              0.6996
 Hexadecapole moment (field-independent basis, Debye-Ang**3):
 XXXX=           -465.0060 YYYY=            -65.1495 ZZZZ=            -30.3322 XXXY=              0.3165
 XXXZ=              0.8812 YYYX=              0.2596 YYYZ=             -0.8502 ZZZX=             -0.2191
 ZZZY=             -0.3667 XXYY=            -88.1801 XXZZ=            -77.5372 YYZZ=            -17.7560
 XXYZ=             -0.7568 YYXZ=             -0.8270 ZZXY=              0.2878
 N-N= 1.516075768884D+02 E-N=-7.238574080991D+03  KE= 2.899853096249D+03
 No NMR shielding tensors so no spin-rotation constants.
 Leave Link  601 at Thu May 14 01:19:35 2020, MaxMem= 1073741824 cpu:       0.8
 (Enter /home/matheus/.gaussian/g09/l122.exe)
 Counterpoise: doing DCBS calculation for fragment   1 NewBq=T
 Leave Link  122 at Thu May 14 01:19:36 2020, MaxMem= 1073741824 cpu:       0.0
 (Enter /home/matheus/.gaussian/g09/l301.exe)
 Basis read from rwf:  (5D, 7F)
 No pseudopotential information found on rwf file.
 There are   197 symmetry adapted basis functions of A   symmetry.
 Integral buffers will be    131072 words long.
 Raffenetti 2 integral format.
 Two-electron integral symmetry is turned on.
   197 basis functions,   415 primitive gaussians,   229 cartesian basis functions
     9 alpha electrons        9 beta electrons
       nuclear repulsion energy        36.6636681782 Hartrees.
 IExCor=10402 DFT=T Ex=LC-B+HF Corr=LYP ExCW=0 ScaHFX=  1.000000
 ScaDFX=  1.000000  1.000000  1.000000  1.000000 ScalE2=  1.000000  1.000000
 IRadAn=      5 IRanWt=     -1 IRanGd=            0 ICorTp=0
  HFx wShort=  0.000000 wLong=  0.470000 cFull=  0.000000 cShort=  0.000000 cLong=  1.000000
  DFx wShort=  0.000000 wLong=  0.470000 cFull=  0.000000 cShort=  0.000000 cLong=  1.000000
 NAtoms=    5 NActive=    5 NUniq=    5 SFac= 1.00D+00 NAtFMM=   60 NAOKFM=F Big=F
 No density basis found on file   718.
 Leave Link  301 at Thu May 14 01:19:36 2020, MaxMem= 1073741824 cpu:       0.2
 (Enter /home/matheus/.gaussian/g09/l302.exe)
 NPDir=0 NMtPBC=     1 NCelOv=     1 NCel=       1 NClECP=     1 NCelD=      1
         NCelK=      1 NCelE2=     1 NClLst=     1 CellRange=     0.0.
 One-electron integrals computed using PRISM.
 NBasis=   197 RedAO= T  NBF=   197
 NBsUse=   197 1.00D-06 NBFU=   197
 Precomputing XC quadrature grid using
 IXCGrd= 2 IRadAn=           5 IRanWt=          -1 IRanGd=           0 AccXCQ= 0.00D+00.
 NRdTot=     427 NPtTot=      123512 NUsed=      126579 NTot=      126611
 NSgBfM=   229   229   229   229   229 NAtAll=     5     5.
 Leave Link  302 at Thu May 14 01:19:36 2020, MaxMem= 1073741824 cpu:       1.0
 (Enter /home/matheus/.gaussian/g09/l303.exe)
 DipDrv:  MaxL=1.
 Leave Link  303 at Thu May 14 01:19:36 2020, MaxMem= 1073741824 cpu:       0.2
 (Enter /home/matheus/.gaussian/g09/l401.exe)
 Harris functional with IExCor=10402 diagonalized for initial guess.
 ExpMin= 2.53D-02 ExpMax= 1.17D+07 ExpMxC= 1.33D+04 IAcc=3 IRadAn=         5 AccDes= 0.00D+00
 HarFok:  IExCor=10402 AccDes= 0.00D+00 IRadAn=         5 IDoV= 1
 ScaDFX=  1.000000  1.000000  1.000000  1.000000
 FoFCou: FMM=F IPFlag=           0 FMFlag=      100000 FMFlg1=           0
         NFxFlg=           0 DoJE=T BraDBF=F KetDBF=T FulRan=T
         Omega=  0.000000  0.000000  1.000000  0.000000  0.000000 ICntrl=     500 IOpCl=  0
         NMat0=    1 NMatS0=    1 NMatT0=    0 NMatD0=    1 NMtDS0=    0 NMtDT0=    0
         I1Cent=           4 NGrid=           0.
 Petite list used in FoFCou.
 Harris En= -147.161890748670    
 Initial guess orbital symmetries:
       Occupied  (A) (A) (A) (A) (A) (A) (A) (A) (A)
       Virtual   (A) (A) (A) (A) (A) (A) (A) (A) (A) (A) (A) (A)
                 (A) (A) (A) (A) (A) (A) (A) (A) (A) (A) (A) (A)
                 (A) (A) (A) (A) (A) (A) (A) (A) (A) (A) (A) (A)
                 (A) (A) (A) (A) (A) (A) (A) (A) (A) (A) (A) (A)
                 (A) (A) (A) (A) (A) (A) (A) (A) (A) (A) (A) (A)
                 (A) (A) (A) (A) (A) (A) (A) (A) (A) (A) (A) (A)
                 (A) (A) (A) (A) (A) (A) (A) (A) (A) (A) (A) (A)
                 (A) (A) (A) (A) (A) (A) (A) (A) (A) (A) (A) (A)
                 (A) (A) (A) (A) (A) (A) (A) (A) (A) (A) (A) (A)
                 (A) (A) (A) (A) (A) (A) (A) (A) (A) (A) (A) (A)
                 (A) (A) (A) (A) (A) (A) (A) (A) (A) (A) (A) (A)
                 (A) (A) (A) (A) (A) (A) (A) (A) (A) (A) (A) (A)
                 (A) (A) (A) (A) (A) (A) (A) (A) (A) (A) (A) (A)
                 (A) (A) (A) (A) (A) (A) (A) (A) (A) (A) (A) (A)
                 (A) (A) (A) (A) (A) (A) (A) (A) (A) (A) (A) (A)
                 (A) (A) (A) (A) (A) (A) (A) (A)
 The electronic state of the initial guess is 1-A.
 Leave Link  401 at Thu May 14 01:19:36 2020, MaxMem= 1073741824 cpu:       4.3
 (Enter /home/matheus/.gaussian/g09/l502.exe)
 Closed shell SCF:
 Requested convergence on RMS density matrix=1.00D-08 within 128 cycles.
 Requested convergence on MAX density matrix=1.00D-06.
 Requested convergence on             energy=1.00D-06.
 No special actions if energy rises.
 Using DIIS extrapolation, IDIIS=  1040.
 Integral symmetry usage will be decided dynamically.
       126521 words used for storage of precomputed grid.
 IEnd=      305468 IEndB=      305468 NGot=  1073741824 MDV=  1073505667
 LenX=  1073505667 LenY=  1073452785
 Fock matrices will be formed incrementally for  20 cycles.

 Cycle   1  Pass 1  IDiag  1:
 FoFJK:  IHMeth= 1 ICntrl=     0 DoSepK=T KAlg= 1 I1Cent= 0 FoldK=F
 FoFCou: FMM=F IPFlag=           0 FMFlag=      100000 FMFlg1=           0
         NFxFlg=           0 DoJE=T BraDBF=F KetDBF=F FulRan=T
         Omega=  0.000000  0.000000  1.000000  0.000000  0.000000 ICntrl=     500 IOpCl=  0
         NMat0=    1 NMatS0=    1 NMatT0=    0 NMatD0=    1 NMtDS0=    0 NMtDT0=    0
         I1Cent=           0 NGrid=           0.
 Symmetry not used in FoFCou.
 E= -151.294049176914    
 DIIS: error= 1.04D-02 at cycle   1 NSaved=   1.
 NSaved= 1 IEnMin= 1 EnMin= -151.294049176914     IErMin= 1 ErrMin= 1.04D-02
 ErrMax= 1.04D-02 EMaxC= 1.00D-01 BMatC= 2.43D-02 BMatP= 2.43D-02
 IDIUse=3 WtCom= 8.96D-01 WtEn= 1.04D-01
 Coeff-Com:  0.100D+01
 Coeff-En:   0.100D+01
 Coeff:      0.100D+01
 Gap=     0.455 Goal=   None    Shift=    0.000
 GapD=    0.455 DampG=2.000 DampE=0.500 DampFc=1.0000 IDamp=-1.
 RMSDP=9.02D-04 MaxDP=3.12D-02              OVMax= 5.68D-02

 Cycle   2  Pass 1  IDiag  1:
 RMSU=  6.38D-04    CP:  1.00D+00
 FoFJK:  IHMeth= 1 ICntrl=     0 DoSepK=T KAlg= 1 I1Cent= 0 FoldK=F
 E= -151.316116155533     Delta-E=       -0.022066978619 Rises=F Damp=F
 DIIS: error= 5.30D-03 at cycle   2 NSaved=   2.
 NSaved= 2 IEnMin= 2 EnMin= -151.316116155533     IErMin= 2 ErrMin= 5.30D-03
 ErrMax= 5.30D-03 EMaxC= 1.00D-01 BMatC= 4.27D-03 BMatP= 2.43D-02
 IDIUse=3 WtCom= 9.47D-01 WtEn= 5.30D-02
 Coeff-Com:  0.247D+00 0.753D+00
 Coeff-En:   0.000D+00 0.100D+01
 Coeff:      0.234D+00 0.766D+00
 Gap=     0.417 Goal=   None    Shift=    0.000
 RMSDP=2.12D-04 MaxDP=6.05D-03 DE=-2.21D-02 OVMax= 1.43D-02

 Cycle   3  Pass 1  IDiag  1:
 RMSU=  1.49D-04    CP:  1.00D+00  1.03D+00
 FoFJK:  IHMeth= 1 ICntrl=     0 DoSepK=T KAlg= 1 I1Cent= 0 FoldK=F
 E= -151.318536075614     Delta-E=       -0.002419920081 Rises=F Damp=F
 DIIS: error= 1.51D-03 at cycle   3 NSaved=   3.
 NSaved= 3 IEnMin= 3 EnMin= -151.318536075614     IErMin= 3 ErrMin= 1.51D-03
 ErrMax= 1.51D-03 EMaxC= 1.00D-01 BMatC= 4.91D-04 BMatP= 4.27D-03
 IDIUse=3 WtCom= 9.85D-01 WtEn= 1.51D-02
 Coeff-Com:  0.228D-01 0.237D+00 0.740D+00
 Coeff-En:   0.000D+00 0.000D+00 0.100D+01
 Coeff:      0.224D-01 0.234D+00 0.744D+00
 Gap=     0.426 Goal=   None    Shift=    0.000
 RMSDP=1.05D-04 MaxDP=3.65D-03 DE=-2.42D-03 OVMax= 7.37D-03

 Cycle   4  Pass 1  IDiag  1:
 RMSU=  5.43D-05    CP:  1.00D+00  1.11D+00  9.66D-01
 FoFJK:  IHMeth= 1 ICntrl=     0 DoSepK=T KAlg= 1 I1Cent= 0 FoldK=F
 E= -151.318908201078     Delta-E=       -0.000372125464 Rises=F Damp=F
 DIIS: error= 3.99D-04 at cycle   4 NSaved=   4.
 NSaved= 4 IEnMin= 4 EnMin= -151.318908201078     IErMin= 4 ErrMin= 3.99D-04
 ErrMax= 3.99D-04 EMaxC= 1.00D-01 BMatC= 4.69D-05 BMatP= 4.91D-04
 IDIUse=3 WtCom= 9.96D-01 WtEn= 3.99D-03
 Coeff-Com: -0.215D-01-0.337D-01 0.193D+00 0.863D+00
 Coeff-En:   0.000D+00 0.000D+00 0.000D+00 0.100D+01
 Coeff:     -0.215D-01-0.335D-01 0.192D+00 0.863D+00
 Gap=     0.424 Goal=   None    Shift=    0.000
 RMSDP=4.33D-05 MaxDP=1.56D-03 DE=-3.72D-04 OVMax= 1.84D-03

 Cycle   5  Pass 1  IDiag  1:
 RMSU=  1.08D-05    CP:  1.00D+00  1.14D+00  1.12D+00  1.06D+00
 FoFJK:  IHMeth= 1 ICntrl=     0 DoSepK=T KAlg= 1 I1Cent= 0 FoldK=F
 E= -151.318948597995     Delta-E=       -0.000040396917 Rises=F Damp=F
 DIIS: error= 5.84D-05 at cycle   5 NSaved=   5.
 NSaved= 5 IEnMin= 5 EnMin= -151.318948597995     IErMin= 5 ErrMin= 5.84D-05
 ErrMax= 5.84D-05 EMaxC= 1.00D-01 BMatC= 3.88D-07 BMatP= 4.69D-05
 IDIUse=1 WtCom= 1.00D+00 WtEn= 0.00D+00
 Coeff-Com:  0.678D-03-0.357D-02-0.385D-01-0.789D-01 0.112D+01
 Coeff:      0.678D-03-0.357D-02-0.385D-01-0.789D-01 0.112D+01
 Gap=     0.424 Goal=   None    Shift=    0.000
 RMSDP=1.14D-05 MaxDP=4.42D-04 DE=-4.04D-05 OVMax= 6.83D-04

 Cycle   6  Pass 1  IDiag  1:
 RMSU=  2.74D-06    CP:  1.00D+00  1.14D+00  1.15D+00  1.14D+00  1.26D+00
 FoFJK:  IHMeth= 1 ICntrl=     0 DoSepK=T KAlg= 1 I1Cent= 0 FoldK=F
 E= -151.318949871490     Delta-E=       -0.000001273495 Rises=F Damp=F
 DIIS: error= 1.49D-05 at cycle   6 NSaved=   6.
 NSaved= 6 IEnMin= 6 EnMin= -151.318949871490     IErMin= 6 ErrMin= 1.49D-05
 ErrMax= 1.49D-05 EMaxC= 1.00D-01 BMatC= 1.71D-08 BMatP= 3.88D-07
 IDIUse=1 WtCom= 1.00D+00 WtEn= 0.00D+00
 Coeff-Com:  0.113D-03 0.725D-04-0.839D-03-0.365D-02-0.989D-01 0.110D+01
 Coeff:      0.113D-03 0.725D-04-0.839D-03-0.365D-02-0.989D-01 0.110D+01
 Gap=     0.424 Goal=   None    Shift=    0.000
 RMSDP=1.71D-06 MaxDP=4.91D-05 DE=-1.27D-06 OVMax= 1.25D-04

 Cycle   7  Pass 1  IDiag  1:
 RMSU=  3.16D-07    CP:  1.00D+00  1.14D+00  1.15D+00  1.15D+00  1.31D+00
                    CP:  1.26D+00
 FoFJK:  IHMeth= 1 ICntrl=     0 DoSepK=T KAlg= 1 I1Cent= 0 FoldK=F
 E= -151.318949919781     Delta-E=       -0.000000048291 Rises=F Damp=F
 DIIS: error= 3.11D-06 at cycle   7 NSaved=   7.
 NSaved= 7 IEnMin= 7 EnMin= -151.318949919781     IErMin= 7 ErrMin= 3.11D-06
 ErrMax= 3.11D-06 EMaxC= 1.00D-01 BMatC= 1.56D-09 BMatP= 1.71D-08
 IDIUse=1 WtCom= 1.00D+00 WtEn= 0.00D+00
 Coeff-Com:  0.159D-04 0.241D-03 0.196D-02 0.352D-02-0.775D-01 0.125D+00
 Coeff-Com:  0.947D+00
 Coeff:      0.159D-04 0.241D-03 0.196D-02 0.352D-02-0.775D-01 0.125D+00
 Coeff:      0.947D+00
 Gap=     0.424 Goal=   None    Shift=    0.000
 RMSDP=3.42D-07 MaxDP=1.06D-05 DE=-4.83D-08 OVMax= 3.25D-05

 Cycle   8  Pass 1  IDiag  1:
 RMSU=  1.23D-07    CP:  1.00D+00  1.14D+00  1.15D+00  1.15D+00  1.32D+00
                    CP:  1.32D+00  1.24D+00
 FoFJK:  IHMeth= 1 ICntrl=     0 DoSepK=T KAlg= 1 I1Cent= 0 FoldK=F
 E= -151.318949922963     Delta-E=       -0.000000003182 Rises=F Damp=F
 DIIS: error= 1.17D-06 at cycle   8 NSaved=   8.
 NSaved= 8 IEnMin= 8 EnMin= -151.318949922963     IErMin= 8 ErrMin= 1.17D-06
 ErrMax= 1.17D-06 EMaxC= 1.00D-01 BMatC= 4.89D-10 BMatP= 1.56D-09
 IDIUse=1 WtCom= 1.00D+00 WtEn= 0.00D+00
 Coeff-Com:  0.966D-06 0.101D-03 0.863D-03 0.174D-02-0.275D-01-0.603D-02
 Coeff-Com:  0.404D+00 0.627D+00
 Coeff:      0.966D-06 0.101D-03 0.863D-03 0.174D-02-0.275D-01-0.603D-02
 Coeff:      0.404D+00 0.627D+00
 Gap=     0.424 Goal=   None    Shift=    0.000
 RMSDP=8.03D-08 MaxDP=2.18D-06 DE=-3.18D-09 OVMax= 8.74D-06

 Cycle   9  Pass 1  IDiag  1:
 RMSU=  4.47D-08    CP:  1.00D+00  1.14D+00  1.15D+00  1.15D+00  1.32D+00
                    CP:  1.32D+00  1.33D+00  1.02D+00
 FoFJK:  IHMeth= 1 ICntrl=     0 DoSepK=T KAlg= 1 I1Cent= 0 FoldK=F
 E= -151.318949923416     Delta-E=       -0.000000000453 Rises=F Damp=F
 DIIS: error= 5.95D-07 at cycle   9 NSaved=   9.
 NSaved= 9 IEnMin= 9 EnMin= -151.318949923416     IErMin= 9 ErrMin= 5.95D-07
 ErrMax= 5.95D-07 EMaxC= 1.00D-01 BMatC= 7.92D-11 BMatP= 4.89D-10
 IDIUse=1 WtCom= 1.00D+00 WtEn= 0.00D+00
 Coeff-Com: -0.682D-05-0.290D-04-0.207D-03-0.180D-03 0.113D-01-0.429D-01
 Coeff-Com: -0.104D+00 0.247D+00 0.890D+00
 Coeff:     -0.682D-05-0.290D-04-0.207D-03-0.180D-03 0.113D-01-0.429D-01
 Coeff:     -0.104D+00 0.247D+00 0.890D+00
 Gap=     0.424 Goal=   None    Shift=    0.000
 RMSDP=5.56D-08 MaxDP=1.19D-06 DE=-4.53D-10 OVMax= 8.04D-06

 Cycle  10  Pass 1  IDiag  1:
 RMSU=  1.86D-08    CP:  1.00D+00  1.14D+00  1.15D+00  1.15D+00  1.32D+00
                    CP:  1.32D+00  1.37D+00  1.21D+00  1.13D+00
 FoFJK:  IHMeth= 1 ICntrl=     0 DoSepK=T KAlg= 1 I1Cent= 0 FoldK=F
 E= -151.318949923565     Delta-E=       -0.000000000149 Rises=F Damp=F
 DIIS: error= 1.90D-07 at cycle  10 NSaved=  10.
 NSaved=10 IEnMin=10 EnMin= -151.318949923565     IErMin=10 ErrMin= 1.90D-07
 ErrMax= 1.90D-07 EMaxC= 1.00D-01 BMatC= 2.65D-12 BMatP= 7.92D-11
 IDIUse=1 WtCom= 1.00D+00 WtEn= 0.00D+00
 Coeff-Com:  0.215D-05 0.395D-05 0.284D-04 0.126D-04-0.305D-02 0.167D-01
 Coeff-Com:  0.302D-01-0.154D+00-0.422D+00 0.153D+01
 Coeff:      0.215D-05 0.395D-05 0.284D-04 0.126D-04-0.305D-02 0.167D-01
 Coeff:      0.302D-01-0.154D+00-0.422D+00 0.153D+01
 Gap=     0.424 Goal=   None    Shift=    0.000
 RMSDP=2.39D-08 MaxDP=4.78D-07 DE=-1.49D-10 OVMax= 4.25D-06

 Cycle  11  Pass 1  IDiag  1:
 RMSU=  4.93D-09    CP:  1.00D+00  1.14D+00  1.15D+00  1.15D+00  1.32D+00
                    CP:  1.32D+00  1.37D+00  1.26D+00  1.31D+00  1.61D+00
 FoFJK:  IHMeth= 1 ICntrl=     0 DoSepK=T KAlg= 1 I1Cent= 0 FoldK=F
 E= -151.318949923581     Delta-E=       -0.000000000017 Rises=F Damp=F
 DIIS: error= 3.08D-08 at cycle  11 NSaved=  11.
 NSaved=11 IEnMin=11 EnMin= -151.318949923581     IErMin=11 ErrMin= 3.08D-08
 ErrMax= 3.08D-08 EMaxC= 1.00D-01 BMatC= 8.99D-14 BMatP= 2.65D-12
 IDIUse=1 WtCom= 1.00D+00 WtEn= 0.00D+00
 Coeff-Com: -0.169D-06 0.136D-05 0.110D-04 0.404D-05-0.136D-03-0.563D-03
 Coeff-Com:  0.130D-02 0.135D-01 0.234D-01-0.274D+00 0.124D+01
 Coeff:     -0.169D-06 0.136D-05 0.110D-04 0.404D-05-0.136D-03-0.563D-03
 Coeff:      0.130D-02 0.135D-01 0.234D-01-0.274D+00 0.124D+01
 Gap=     0.424 Goal=   None    Shift=    0.000
 RMSDP=4.61D-09 MaxDP=1.19D-07 DE=-1.68D-11 OVMax= 7.25D-07

 SCF Done:  E(RLC-B+HF-LYP) =  -151.318949924     A.U. after   11 cycles
             Convg  =    0.4611D-08             -V/T =  2.0055
 KE= 1.504880939182D+02 PE=-4.314636000137D+02 EE= 9.299288799373D+01
 Leave Link  502 at Thu May 14 01:20:11 2020, MaxMem= 1073741824 cpu:     275.3
 (Enter /home/matheus/.gaussian/g09/l601.exe)
 Copying SCF densities to generalized density rwf, IOpCl= 0 IROHF=0.

 **********************************************************************

            Population analysis using the SCF density.

 **********************************************************************

 Orbital symmetries:
       Occupied  (A) (A) (A) (A) (A) (A) (A) (A) (A)
       Virtual   (A) (A) (A) (A) (A) (A) (A) (A) (A) (A) (A) (A)
                 (A) (A) (A) (A) (A) (A) (A) (A) (A) (A) (A) (A)
                 (A) (A) (A) (A) (A) (A) (A) (A) (A) (A) (A) (A)
                 (A) (A) (A) (A) (A) (A) (A) (A) (A) (A) (A) (A)
                 (A) (A) (A) (A) (A) (A) (A) (A) (A) (A) (A) (A)
                 (A) (A) (A) (A) (A) (A) (A) (A) (A) (A) (A) (A)
                 (A) (A) (A) (A) (A) (A) (A) (A) (A) (A) (A) (A)
                 (A) (A) (A) (A) (A) (A) (A) (A) (A) (A) (A) (A)
                 (A) (A) (A) (A) (A) (A) (A) (A) (A) (A) (A) (A)
                 (A) (A) (A) (A) (A) (A) (A) (A) (A) (A) (A) (A)
                 (A) (A) (A) (A) (A) (A) (A) (A) (A) (A) (A) (A)
                 (A) (A) (A) (A) (A) (A) (A) (A) (A) (A) (A) (A)
                 (A) (A) (A) (A) (A) (A) (A) (A) (A) (A) (A) (A)
                 (A) (A) (A) (A) (A) (A) (A) (A) (A) (A) (A) (A)
                 (A) (A) (A) (A) (A) (A) (A) (A) (A) (A) (A) (A)
                 (A) (A) (A) (A) (A) (A) (A) (A)
 The electronic state is 1-A.
 Alpha  occ. eigenvalues --  -19.07705 -19.07704  -1.29027  -1.06637  -0.73212
 Alpha  occ. eigenvalues --   -0.57905  -0.57418  -0.52168  -0.41250
 Alpha virt. eigenvalues --    0.01136   0.03236   0.06849   0.07299   0.08527
 Alpha virt. eigenvalues --    0.09837   0.10104   0.15523   0.16122   0.17034
 Alpha virt. eigenvalues --    0.17875   0.19171   0.19448   0.20744   0.24801
 Alpha virt. eigenvalues --    0.25833   0.27435   0.27747   0.30882   0.33838
 Alpha virt. eigenvalues --    0.34903   0.35246   0.37191   0.40502   0.41652
 Alpha virt. eigenvalues --    0.44044   0.44398   0.46026   0.48037   0.52040
 Alpha virt. eigenvalues --    0.53684   0.57326   0.58018   0.62370   0.65626
 Alpha virt. eigenvalues --    0.68786   0.70837   0.75881   0.76533   0.79561
 Alpha virt. eigenvalues --    0.81800   0.82942   0.85455   0.87000   0.88768
 Alpha virt. eigenvalues --    0.92321   0.95651   0.95927   0.97571   0.99126
 Alpha virt. eigenvalues --    1.00445   1.02377   1.05578   1.08530   1.09169
 Alpha virt. eigenvalues --    1.11272   1.16588   1.20043   1.22679   1.24983
 Alpha virt. eigenvalues --    1.25882   1.28581   1.30708   1.31255   1.32972
 Alpha virt. eigenvalues --    1.33505   1.36800   1.37485   1.43358   1.45561
 Alpha virt. eigenvalues --    1.48970   1.50496   1.53604   1.55789   1.59180
 Alpha virt. eigenvalues --    1.62538   1.63852   1.69436   1.72808   1.78673
 Alpha virt. eigenvalues --    1.83611   1.84918   1.94851   1.97902   2.03327
 Alpha virt. eigenvalues --    2.07450   2.15809   2.18525   2.23029   2.26046
 Alpha virt. eigenvalues --    2.29141   2.34607   2.35083   2.35221   2.42891
 Alpha virt. eigenvalues --    2.48219   2.54007   2.56922   2.66322   2.68426
 Alpha virt. eigenvalues --    2.70652   2.72622   2.87317   2.88625   2.93175
 Alpha virt. eigenvalues --    3.06946   3.12317   3.13400   3.23309   3.33232
 Alpha virt. eigenvalues --    3.38989   3.55392   3.62447   3.69700   3.76823
 Alpha virt. eigenvalues --    3.77724   3.78841   3.80799   3.81711   3.85927
 Alpha virt. eigenvalues --    3.89967   3.90377   3.93147   3.94549   3.96367
 Alpha virt. eigenvalues --    4.00143   4.03086   4.08328   4.12858   4.14495
 Alpha virt. eigenvalues --    4.19852   4.22074   4.25327   4.27012   4.29528
 Alpha virt. eigenvalues --    4.50054   4.57493   4.59742   4.68651   4.98568
 Alpha virt. eigenvalues --    5.02186   5.05951   5.10630   5.13006   5.16648
 Alpha virt. eigenvalues --    5.51734   5.82646   6.03416   6.05684   6.13295
 Alpha virt. eigenvalues --    6.36873   6.39107   6.49472   6.58798   6.70347
 Alpha virt. eigenvalues --    6.71308   6.77416   6.82261   6.83840   6.86290
 Alpha virt. eigenvalues --    6.89053   6.89831   6.93279   7.11104   7.16573
 Alpha virt. eigenvalues --    7.17317   7.26416   7.33125   7.59640   7.96926
 Alpha virt. eigenvalues --    8.01689   8.17459  11.07078  13.75444  14.63822
 Alpha virt. eigenvalues --   14.80447  14.92928  15.09120  29.00995  29.01679
 Alpha virt. eigenvalues --   29.05459  29.19310  29.22554  49.22044 148.28706
 Alpha virt. eigenvalues --  148.47558 148.71146 752.95985
          Condensed to atoms (all electrons):
              1          2          3          4          5
     1  O    8.220018  -0.232431   0.164555   0.045068   0.002302
     2  O   -0.232431   8.203215   0.050870   0.175163   0.001240
     3  H    0.164555   0.050870   0.614481  -0.024357  -0.002579
     4  H    0.045068   0.175163  -0.024357   0.609842  -0.004384
     5  Kr   0.002302   0.001240  -0.002579  -0.004384   0.001550
 Mulliken atomic charges:
              1
     1  O   -0.199512
     2  O   -0.198058
     3  H    0.197031
     4  H    0.198668
     5  Kr   0.001871
 Sum of Mulliken atomic charges =   0.00000
 Mulliken charges with hydrogens summed into heavy atoms:
              1
     1  O   -0.002481
     2  O    0.000610
     5  Kr   0.001871
 Sum of Mulliken charges with hydrogens summed into heavy atoms =   0.00000
          Condensed to fragments (all electrons):
     1      -0.001871
     2       0.001871
 Electronic spatial extent (au):  <R**2>=            317.3606
 Charge=              0.0000 electrons
 Dipole moment (field-independent basis, Debye):
    X=              3.1372    Y=             -0.0196    Z=              0.5646  Tot=              3.1876
 Quadrupole moment (field-independent basis, Debye-Ang):
   XX=            -21.9135   YY=            -10.7591   ZZ=            -13.1017
   XY=              0.1499   XZ=             -0.4630   YZ=             -0.6414
 Traceless Quadrupole moment (field-independent basis, Debye-Ang):
   XX=             -6.6554   YY=              4.4990   ZZ=              2.1564
   XY=              0.1499   XZ=             -0.4630   YZ=             -0.6414
 Octapole moment (field-independent basis, Debye-Ang**2):
  XXX=             95.1051  YYY=             -0.1153  ZZZ=              0.0378  XYY=             25.1032
  XXY=             -0.2821  XXZ=              0.0543  XZZ=             25.7990  YZZ=             -0.2258
  YYZ=              0.7293  XYZ=              0.7005
 Hexadecapole moment (field-independent basis, Debye-Ang**3):
 XXXX=           -346.5916 YYYY=            -46.5196 ZZZZ=            -12.0589 XXXY=              0.2712
 XXXZ=              0.9856 YYYX=              0.2633 YYYZ=             -0.8857 ZZZX=             -0.2184
 ZZZY=             -0.3926 XXYY=            -65.3652 XXZZ=            -55.0264 YYZZ=            -11.5918
 XXYZ=             -0.7540 YYXZ=             -0.8176 ZZXY=              0.2819
 N-N= 3.666366817825D+01 E-N=-4.314635995190D+02  KE= 1.504880939182D+02
 No NMR shielding tensors so no spin-rotation constants.
 Leave Link  601 at Thu May 14 01:20:11 2020, MaxMem= 1073741824 cpu:       0.8
 (Enter /home/matheus/.gaussian/g09/l122.exe)
 Counterpoise: doing DCBS calculation for fragment   2 NewBq=T
 Leave Link  122 at Thu May 14 01:20:11 2020, MaxMem= 1073741824 cpu:       0.0
 (Enter /home/matheus/.gaussian/g09/l301.exe)
 Basis read from rwf:  (5D, 7F)
 No pseudopotential information found on rwf file.
 There are   197 symmetry adapted basis functions of A   symmetry.
 Integral buffers will be    131072 words long.
 Raffenetti 2 integral format.
 Two-electron integral symmetry is turned on.
   197 basis functions,   415 primitive gaussians,   229 cartesian basis functions
    18 alpha electrons       18 beta electrons
       nuclear repulsion energy         0.0000000000 Hartrees.
 IExCor=10402 DFT=T Ex=LC-B+HF Corr=LYP ExCW=0 ScaHFX=  1.000000
 ScaDFX=  1.000000  1.000000  1.000000  1.000000 ScalE2=  1.000000  1.000000
 IRadAn=      5 IRanWt=     -1 IRanGd=            0 ICorTp=0
  HFx wShort=  0.000000 wLong=  0.470000 cFull=  0.000000 cShort=  0.000000 cLong=  1.000000
  DFx wShort=  0.000000 wLong=  0.470000 cFull=  0.000000 cShort=  0.000000 cLong=  1.000000
 NAtoms=    5 NActive=    5 NUniq=    5 SFac= 1.00D+00 NAtFMM=   60 NAOKFM=F Big=F
 No density basis found on file   718.
 Leave Link  301 at Thu May 14 01:20:11 2020, MaxMem= 1073741824 cpu:       0.2
 (Enter /home/matheus/.gaussian/g09/l302.exe)
 NPDir=0 NMtPBC=     1 NCelOv=     1 NCel=       1 NClECP=     1 NCelD=      1
         NCelK=      1 NCelE2=     1 NClLst=     1 CellRange=     0.0.
 One-electron integrals computed using PRISM.
 NBasis=   197 RedAO= T  NBF=   197
 NBsUse=   197 1.00D-06 NBFU=   197
 Precomputing XC quadrature grid using
 IXCGrd= 2 IRadAn=           5 IRanWt=          -1 IRanGd=           0 AccXCQ= 0.00D+00.
 NRdTot=     427 NPtTot=      123512 NUsed=      126579 NTot=      126611
 NSgBfM=   229   229   229   229   229 NAtAll=     5     5.
 Leave Link  302 at Thu May 14 01:20:11 2020, MaxMem= 1073741824 cpu:       1.0
 (Enter /home/matheus/.gaussian/g09/l303.exe)
 DipDrv:  MaxL=1.
 Leave Link  303 at Thu May 14 01:20:11 2020, MaxMem= 1073741824 cpu:       0.2
 (Enter /home/matheus/.gaussian/g09/l401.exe)
 Harris functional with IExCor=10402 diagonalized for initial guess.
 ExpMin= 2.53D-02 ExpMax= 1.17D+07 ExpMxC= 1.33D+04 IAcc=3 IRadAn=         5 AccDes= 0.00D+00
 HarFok:  IExCor=10402 AccDes= 0.00D+00 IRadAn=         5 IDoV= 1
 ScaDFX=  1.000000  1.000000  1.000000  1.000000
 FoFCou: FMM=F IPFlag=           0 FMFlag=      100000 FMFlg1=           0
         NFxFlg=           0 DoJE=T BraDBF=F KetDBF=T FulRan=T
         Omega=  0.000000  0.000000  1.000000  0.000000  0.000000 ICntrl=     500 IOpCl=  0
         NMat0=    1 NMatS0=    1 NMatT0=    0 NMatD0=    1 NMtDS0=    0 NMtDT0=    0
         I1Cent=           4 NGrid=           0.
 Petite list used in FoFCou.
 Harris En= -2744.51552822423    
 Initial guess orbital symmetries:
       Occupied  (A) (A) (A) (A) (A) (A) (A) (A) (A) (A) (A) (A)
                 (A) (A) (A) (A) (A) (A)
       Virtual   (A) (A) (A) (A) (A) (A) (A) (A) (A) (A) (A) (A)
                 (A) (A) (A) (A) (A) (A) (A) (A) (A) (A) (A) (A)
                 (A) (A) (A) (A) (A) (A) (A) (A) (A) (A) (A) (A)
                 (A) (A) (A) (A) (A) (A) (A) (A) (A) (A) (A) (A)
                 (A) (A) (A) (A) (A) (A) (A) (A) (A) (A) (A) (A)
                 (A) (A) (A) (A) (A) (A) (A) (A) (A) (A) (A) (A)
                 (A) (A) (A) (A) (A) (A) (A) (A) (A) (A) (A) (A)
                 (A) (A) (A) (A) (A) (A) (A) (A) (A) (A) (A) (A)
                 (A) (A) (A) (A) (A) (A) (A) (A) (A) (A) (A) (A)
                 (A) (A) (A) (A) (A) (A) (A) (A) (A) (A) (A) (A)
                 (A) (A) (A) (A) (A) (A) (A) (A) (A) (A) (A) (A)
                 (A) (A) (A) (A) (A) (A) (A) (A) (A) (A) (A) (A)
                 (A) (A) (A) (A) (A) (A) (A) (A) (A) (A) (A) (A)
                 (A) (A) (A) (A) (A) (A) (A) (A) (A) (A) (A) (A)
                 (A) (A) (A) (A) (A) (A) (A) (A) (A) (A) (A)
 The electronic state of the initial guess is 1-A.
 Leave Link  401 at Thu May 14 01:20:12 2020, MaxMem= 1073741824 cpu:       4.2
 (Enter /home/matheus/.gaussian/g09/l502.exe)
 Closed shell SCF:
 Requested convergence on RMS density matrix=1.00D-08 within 128 cycles.
 Requested convergence on MAX density matrix=1.00D-06.
 Requested convergence on             energy=1.00D-06.
 No special actions if energy rises.
 Using DIIS extrapolation, IDIIS=  1040.
 Integral symmetry usage will be decided dynamically.
       126521 words used for storage of precomputed grid.
 IEnd=      305468 IEndB=      305468 NGot=  1073741824 MDV=  1073505667
 LenX=  1073505667 LenY=  1073452785
 Fock matrices will be formed incrementally for  20 cycles.

 Cycle   1  Pass 1  IDiag  1:
 FoFJK:  IHMeth= 1 ICntrl=     0 DoSepK=T KAlg= 1 I1Cent= 0 FoldK=F
 FoFCou: FMM=F IPFlag=           0 FMFlag=      100000 FMFlg1=           0
         NFxFlg=           0 DoJE=T BraDBF=F KetDBF=F FulRan=T
         Omega=  0.000000  0.000000  1.000000  0.000000  0.000000 ICntrl=     500 IOpCl=  0
         NMat0=    1 NMatS0=    1 NMatT0=    0 NMatD0=    1 NMtDS0=    0 NMtDT0=    0
         I1Cent=           0 NGrid=           0.
 Symmetry not used in FoFCou.
 E= -2753.33337920559    
 DIIS: error= 3.12D-02 at cycle   1 NSaved=   1.
 NSaved= 1 IEnMin= 1 EnMin= -2753.33337920559     IErMin= 1 ErrMin= 3.12D-02
 ErrMax= 3.12D-02 EMaxC= 1.00D-01 BMatC= 2.63D-01 BMatP= 2.63D-01
 IDIUse=3 WtCom= 6.88D-01 WtEn= 3.12D-01
 Coeff-Com:  0.100D+01
 Coeff-En:   0.100D+01
 Coeff:      0.100D+01
 Gap=     0.618 Goal=   None    Shift=    0.000
 GapD=    0.618 DampG=2.000 DampE=0.500 DampFc=1.0000 IDamp=-1.
 RMSDP=2.53D-03 MaxDP=1.56D-01              OVMax= 1.05D-01

 Cycle   2  Pass 1  IDiag  1:
 RMSU=  1.73D-03    CP:  1.03D+00
 FoFJK:  IHMeth= 1 ICntrl=     0 DoSepK=T KAlg= 1 I1Cent= 0 FoldK=F
 E= -2753.38939226517     Delta-E=       -0.056013059572 Rises=F Damp=F
 DIIS: error= 1.43D-02 at cycle   2 NSaved=   2.
 NSaved= 2 IEnMin= 2 EnMin= -2753.38939226517     IErMin= 2 ErrMin= 1.43D-02
 ErrMax= 1.43D-02 EMaxC= 1.00D-01 BMatC= 8.89D-02 BMatP= 2.63D-01
 IDIUse=3 WtCom= 8.57D-01 WtEn= 1.43D-01
 Coeff-Com:  0.365D+00 0.635D+00
 Coeff-En:   0.131D+00 0.869D+00
 Coeff:      0.331D+00 0.669D+00
 Gap=     0.539 Goal=   None    Shift=    0.000
 RMSDP=1.00D-03 MaxDP=6.23D-02 DE=-5.60D-02 OVMax= 3.13D-02

 Cycle   3  Pass 1  IDiag  1:
 RMSU=  1.73D-04    CP:  1.02D+00  6.15D-01
 FoFJK:  IHMeth= 1 ICntrl=     0 DoSepK=T KAlg= 1 I1Cent= 0 FoldK=F
 E= -2753.41754203977     Delta-E=       -0.028149774609 Rises=F Damp=F
 DIIS: error= 1.15D-03 at cycle   3 NSaved=   3.
 NSaved= 3 IEnMin= 3 EnMin= -2753.41754203977     IErMin= 3 ErrMin= 1.15D-03
 ErrMax= 1.15D-03 EMaxC= 1.00D-01 BMatC= 5.61D-04 BMatP= 8.89D-02
 IDIUse=3 WtCom= 9.89D-01 WtEn= 1.15D-02
 Coeff-Com: -0.625D-02 0.614D-01 0.945D+00
 Coeff-En:   0.000D+00 0.000D+00 0.100D+01
 Coeff:     -0.617D-02 0.607D-01 0.945D+00
 Gap=     0.538 Goal=   None    Shift=    0.000
 RMSDP=9.73D-05 MaxDP=5.11D-03 DE=-2.81D-02 OVMax= 3.25D-03

 Cycle   4  Pass 1  IDiag  1:
 RMSU=  3.87D-05    CP:  1.02D+00  6.44D-01  1.13D+00
 FoFJK:  IHMeth= 1 ICntrl=     0 DoSepK=T KAlg= 1 I1Cent= 0 FoldK=F
 E= -2753.41771784392     Delta-E=       -0.000175804149 Rises=F Damp=F
 DIIS: error= 8.98D-05 at cycle   4 NSaved=   4.
 NSaved= 4 IEnMin= 4 EnMin= -2753.41771784392     IErMin= 4 ErrMin= 8.98D-05
 ErrMax= 8.98D-05 EMaxC= 1.00D-01 BMatC= 2.02D-06 BMatP= 5.61D-04
 IDIUse=1 WtCom= 1.00D+00 WtEn= 0.00D+00
 Coeff-Com: -0.140D-02 0.254D-03-0.608D-02 0.101D+01
 Coeff:     -0.140D-02 0.254D-03-0.608D-02 0.101D+01
 Gap=     0.539 Goal=   None    Shift=    0.000
 RMSDP=1.35D-05 MaxDP=5.51D-04 DE=-1.76D-04 OVMax= 9.21D-04

 Cycle   5  Pass 1  IDiag  1:
 RMSU=  5.87D-06    CP:  1.02D+00  6.46D-01  1.17D+00  1.05D+00
 FoFJK:  IHMeth= 1 ICntrl=     0 DoSepK=T KAlg= 1 I1Cent= 0 FoldK=F
 E= -2753.41772180979     Delta-E=       -0.000003965866 Rises=F Damp=F
 DIIS: error= 2.24D-05 at cycle   5 NSaved=   5.
 NSaved= 5 IEnMin= 5 EnMin= -2753.41772180979     IErMin= 5 ErrMin= 2.24D-05
 ErrMax= 2.24D-05 EMaxC= 1.00D-01 BMatC= 1.61D-07 BMatP= 2.02D-06
 IDIUse=1 WtCom= 1.00D+00 WtEn= 0.00D+00
 Coeff-Com: -0.576D-04-0.395D-02-0.335D-01-0.714D-01 0.111D+01
 Coeff:     -0.576D-04-0.395D-02-0.335D-01-0.714D-01 0.111D+01
 Gap=     0.539 Goal=   None    Shift=    0.000
 RMSDP=4.51D-06 MaxDP=1.81D-04 DE=-3.97D-06 OVMax= 1.99D-04

 Cycle   6  Pass 1  IDiag  1:
 RMSU=  3.43D-07    CP:  1.02D+00  6.46D-01  1.18D+00  1.10D+00  1.15D+00
 FoFJK:  IHMeth= 1 ICntrl=     0 DoSepK=T KAlg= 1 I1Cent= 0 FoldK=F
 E= -2753.41772202001     Delta-E=       -0.000000210221 Rises=F Damp=F
 DIIS: error= 6.81D-07 at cycle   6 NSaved=   6.
 NSaved= 6 IEnMin= 6 EnMin= -2753.41772202001     IErMin= 6 ErrMin= 6.81D-07
 ErrMax= 6.81D-07 EMaxC= 1.00D-01 BMatC= 1.08D-10 BMatP= 1.61D-07
 IDIUse=1 WtCom= 1.00D+00 WtEn= 0.00D+00
 Coeff-Com:  0.694D-05 0.293D-03 0.277D-02-0.908D-03-0.684D-01 0.107D+01
 Coeff:      0.694D-05 0.293D-03 0.277D-02-0.908D-03-0.684D-01 0.107D+01
 Gap=     0.539 Goal=   None    Shift=    0.000
 RMSDP=1.45D-07 MaxDP=5.06D-06 DE=-2.10D-07 OVMax= 6.32D-06

 Cycle   7  Pass 1  IDiag  1:
 RMSU=  2.57D-08    CP:  1.02D+00  6.46D-01  1.18D+00  1.10D+00  1.16D+00
                    CP:  1.17D+00
 FoFJK:  IHMeth= 1 ICntrl=     0 DoSepK=T KAlg= 1 I1Cent= 0 FoldK=F
 E= -2753.41772202011     Delta-E=       -0.000000000097 Rises=F Damp=F
 DIIS: error= 1.15D-07 at cycle   7 NSaved=   7.
 NSaved= 7 IEnMin= 7 EnMin= -2753.41772202011     IErMin= 7 ErrMin= 1.15D-07
 ErrMax= 1.15D-07 EMaxC= 1.00D-01 BMatC= 3.98D-12 BMatP= 1.08D-10
 IDIUse=1 WtCom= 1.00D+00 WtEn= 0.00D+00
 Coeff-Com:  0.131D-05 0.757D-04 0.662D-03 0.912D-03-0.205D-01 0.108D+00
 Coeff-Com:  0.911D+00
 Coeff:      0.131D-05 0.757D-04 0.662D-03 0.912D-03-0.205D-01 0.108D+00
 Coeff:      0.911D+00
 Gap=     0.539 Goal=   None    Shift=    0.000
 RMSDP=1.52D-08 MaxDP=5.53D-07 DE=-9.69D-11 OVMax= 9.35D-07

 Cycle   8  Pass 1  IDiag  1:
 RMSU=  5.87D-09    CP:  1.02D+00  6.46D-01  1.18D+00  1.10D+00  1.16D+00
                    CP:  1.19D+00  1.04D+00
 FoFJK:  IHMeth= 1 ICntrl=     0 DoSepK=T KAlg= 1 I1Cent= 0 FoldK=F
 E= -2753.41772202009     Delta-E=        0.000000000015 Rises=F Damp=F
 DIIS: error= 2.76D-08 at cycle   8 NSaved=   8.
 NSaved= 8 IEnMin= 7 EnMin= -2753.41772202011     IErMin= 8 ErrMin= 2.76D-08
 ErrMax= 2.76D-08 EMaxC= 1.00D-01 BMatC= 2.35D-13 BMatP= 3.98D-12
 IDIUse=1 WtCom= 1.00D+00 WtEn= 0.00D+00
 Coeff-Com: -0.341D-06-0.117D-04-0.118D-03 0.202D-03 0.215D-02-0.566D-01
 Coeff-Com:  0.100D+00 0.954D+00
 Coeff:     -0.341D-06-0.117D-04-0.118D-03 0.202D-03 0.215D-02-0.566D-01
 Coeff:      0.100D+00 0.954D+00
 Gap=     0.539 Goal=   None    Shift=    0.000
 RMSDP=3.98D-09 MaxDP=1.55D-07 DE= 1.46D-11 OVMax= 2.17D-07

 SCF Done:  E(RLC-B+HF-LYP) =  -2753.41772202     A.U. after    8 cycles
             Convg  =    0.3977D-08             -V/T =  2.0015
 KE= 2.749300703864D+03 PE=-6.578509963676D+03 EE= 1.075791537792D+03
 Leave Link  502 at Thu May 14 01:20:39 2020, MaxMem= 1073741824 cpu:     218.7
 (Enter /home/matheus/.gaussian/g09/l601.exe)
 Copying SCF densities to generalized density rwf, IOpCl= 0 IROHF=0.

 **********************************************************************

            Population analysis using the SCF density.

 **********************************************************************

 Orbital symmetries:
       Occupied  (A) (A) (A) (A) (A) (A) (A) (A) (A) (A) (A) (A)
                 (A) (A) (A) (A) (A) (A)
       Virtual   (A) (A) (A) (A) (A) (A) (A) (A) (A) (A) (A) (A)
                 (A) (A) (A) (A) (A) (A) (A) (A) (A) (A) (A) (A)
                 (A) (A) (A) (A) (A) (A) (A) (A) (A) (A) (A) (A)
                 (A) (A) (A) (A) (A) (A) (A) (A) (A) (A) (A) (A)
                 (A) (A) (A) (A) (A) (A) (A) (A) (A) (A) (A) (A)
                 (A) (A) (A) (A) (A) (A) (A) (A) (A) (A) (A) (A)
                 (A) (A) (A) (A) (A) (A) (A) (A) (A) (A) (A) (A)
                 (A) (A) (A) (A) (A) (A) (A) (A) (A) (A) (A) (A)
                 (A) (A) (A) (A) (A) (A) (A) (A) (A) (A) (A) (A)
                 (A) (A) (A) (A) (A) (A) (A) (A) (A) (A) (A) (A)
                 (A) (A) (A) (A) (A) (A) (A) (A) (A) (A) (A) (A)
                 (A) (A) (A) (A) (A) (A) (A) (A) (A) (A) (A) (A)
                 (A) (A) (A) (A) (A) (A) (A) (A) (A) (A) (A) (A)
                 (A) (A) (A) (A) (A) (A) (A) (A) (A) (A) (A) (A)
                 (A) (A) (A) (A) (A) (A) (A) (A) (A) (A) (A)
 The electronic state is 1-A.
 Alpha  occ. eigenvalues -- -511.24389 -66.71362 -60.39887 -60.39884 -60.39882
 Alpha  occ. eigenvalues --   -9.60493  -7.35947  -7.35945  -7.35945  -3.32283
 Alpha  occ. eigenvalues --   -3.32283  -3.32283  -3.32281  -3.32281  -1.06078
 Alpha  occ. eigenvalues --   -0.51291  -0.51288  -0.51285
 Alpha virt. eigenvalues --    0.02614   0.04737   0.07760   0.09007   0.11424
 Alpha virt. eigenvalues --    0.12477   0.13120   0.13506   0.15396   0.16786
 Alpha virt. eigenvalues --    0.17230   0.17947   0.20455   0.25447   0.26252
 Alpha virt. eigenvalues --    0.26453   0.29246   0.31204   0.33004   0.36927
 Alpha virt. eigenvalues --    0.37291   0.38567   0.38859   0.39780   0.41295
 Alpha virt. eigenvalues --    0.41518   0.45104   0.53468   0.55672   0.58355
 Alpha virt. eigenvalues --    0.61516   0.63705   0.69154   0.69898   0.71691
 Alpha virt. eigenvalues --    0.72404   0.73780   0.75786   0.76609   0.77687
 Alpha virt. eigenvalues --    0.78572   0.83284   0.84692   0.85789   0.87995
 Alpha virt. eigenvalues --    0.89129   0.89462   0.90679   0.93955   0.97589
 Alpha virt. eigenvalues --    0.98706   0.99442   1.00133   1.01721   1.03921
 Alpha virt. eigenvalues --    1.05240   1.08326   1.10695   1.14472   1.15979
 Alpha virt. eigenvalues --    1.19069   1.23056   1.29409   1.33320   1.39209
 Alpha virt. eigenvalues --    1.40532   1.42574   1.45489   1.47377   1.52020
 Alpha virt. eigenvalues --    1.56937   1.60703   1.63410   1.73800   1.74741
 Alpha virt. eigenvalues --    1.79928   1.84291   1.86843   1.91768   2.16624
 Alpha virt. eigenvalues --    2.22265   2.23755   2.26270   2.28922   2.33888
 Alpha virt. eigenvalues --    2.35065   2.35717   2.36979   2.38105   2.41407
 Alpha virt. eigenvalues --    2.46034   2.47035   2.50408   2.52951   2.53846
 Alpha virt. eigenvalues --    2.54683   2.56199   2.60458   2.61120   2.61478
 Alpha virt. eigenvalues --    2.63795   2.65736   2.67111   2.69893   2.72299
 Alpha virt. eigenvalues --    2.76125   2.78482   2.84007   2.89216   2.91239
 Alpha virt. eigenvalues --    2.96157   2.98965   3.05423   3.12620   3.18886
 Alpha virt. eigenvalues --    3.25449   3.26640   3.28686   3.40307   3.51355
 Alpha virt. eigenvalues --    3.60967   3.64355   3.86090   3.87504   4.01577
 Alpha virt. eigenvalues --    4.41754   4.45220   4.50873   4.58743   4.68145
 Alpha virt. eigenvalues --    4.71220   4.84435   4.87255   4.95338   5.01881
 Alpha virt. eigenvalues --    5.12310   5.26714   5.54019   5.63545   5.69187
 Alpha virt. eigenvalues --    5.95929   5.99884   6.20663   6.71709   6.91784
 Alpha virt. eigenvalues --    7.29282   7.36449   7.65153   7.66649   7.78194
 Alpha virt. eigenvalues --    7.86304   8.01441   8.12490   8.16935   8.26509
 Alpha virt. eigenvalues --    8.27113   8.38431   8.69215   8.99045   9.49725
 Alpha virt. eigenvalues --    9.72467   9.78832   9.89452   9.91025   9.93775
 Alpha virt. eigenvalues --   10.19815  10.21639  10.68717  10.87751  11.47962
 Alpha virt. eigenvalues --   11.62426  11.68461  11.93963  12.03617  13.26674
 Alpha virt. eigenvalues --   13.59642  14.54384  62.35809  64.76223
          Condensed to atoms (all electrons):
              1          2          3          4          5
     1  O    0.001812  -0.000240  -0.001515   0.000466  -0.007464
     2  O   -0.000240   0.002727   0.000298  -0.002262  -0.005758
     3  H   -0.001515   0.000298   0.001986  -0.000280  -0.010422
     4  H    0.000466  -0.002262  -0.000280   0.002663  -0.011537
     5  Kr  -0.007464  -0.005758  -0.010422  -0.011537  36.068240
 Mulliken atomic charges:
              1
     1  O    0.006941
     2  O    0.005235
     3  H    0.009933
     4  H    0.010950
     5  Kr  -0.033059
 Sum of Mulliken atomic charges =   0.00000
 Mulliken charges with hydrogens summed into heavy atoms:
              1
     1  O    0.016874
     2  O    0.016186
     5  Kr  -0.033059
 Sum of Mulliken charges with hydrogens summed into heavy atoms =   0.00000
          Condensed to fragments (all electrons):
     1       0.033059
     2      -0.033059
 Electronic spatial extent (au):  <R**2>=            159.8194
 Charge=              0.0000 electrons
 Dipole moment (field-independent basis, Debye):
    X=             -0.0022    Y=              0.0001    Z=              0.0000  Tot=              0.0022
 Quadrupole moment (field-independent basis, Debye-Ang):
   XX=            -17.7465   YY=            -17.7546   ZZ=            -17.7645
   XY=             -0.0005   XZ=             -0.0020   YZ=             -0.0012
 Traceless Quadrupole moment (field-independent basis, Debye-Ang):
   XX=              0.0087   YY=              0.0006   ZZ=             -0.0093
   XY=             -0.0005   XZ=             -0.0020   YZ=             -0.0012
 Octapole moment (field-independent basis, Debye-Ang**2):
  XXX=            -51.4800  YYY=              0.0280  ZZZ=              0.1244  XYY=            -17.1737
  XXY=              0.0084  XXZ=              0.0385  XZZ=            -17.1797  YZZ=              0.0097
  YYZ=              0.0415  XYZ=             -0.0004
 Hexadecapole moment (field-independent basis, Debye-Ang**3):
 XXXX=           -118.4642 YYYY=            -18.9303 ZZZZ=            -18.9593 XXXY=              0.0254
 XXXZ=              0.1144 YYYX=              0.0260 YYYZ=             -0.0002 ZZZX=              0.1151
 ZZZY=             -0.0026 XXYY=            -22.9098 XXZZ=            -22.9190 YYZZ=             -6.3128
 XXYZ=             -0.0006 YYXZ=              0.0390 ZZXY=              0.0081
 N-N= 0.000000000000D+00 E-N=-6.578509961326D+03  KE= 2.749300703864D+03
 No NMR shielding tensors so no spin-rotation constants.
 Leave Link  601 at Thu May 14 01:20:39 2020, MaxMem= 1073741824 cpu:       0.8
 (Enter /home/matheus/.gaussian/g09/l122.exe)
 Counterpoise: doing MCBS calculation for fragment   1
 Leave Link  122 at Thu May 14 01:20:39 2020, MaxMem= 1073741824 cpu:       0.0
 (Enter /home/matheus/.gaussian/g09/l301.exe)
 Basis read from rwf:  (5D, 7F)
 No pseudopotential information found on rwf file.
 There are   138 symmetry adapted basis functions of A   symmetry.
 Integral buffers will be    131072 words long.
 Raffenetti 2 integral format.
 Two-electron integral symmetry is turned on.
   138 basis functions,   198 primitive gaussians,   160 cartesian basis functions
     9 alpha electrons        9 beta electrons
       nuclear repulsion energy        36.6636681782 Hartrees.
 IExCor=10402 DFT=T Ex=LC-B+HF Corr=LYP ExCW=0 ScaHFX=  1.000000
 ScaDFX=  1.000000  1.000000  1.000000  1.000000 ScalE2=  1.000000  1.000000
 IRadAn=      5 IRanWt=     -1 IRanGd=            0 ICorTp=0
  HFx wShort=  0.000000 wLong=  0.470000 cFull=  0.000000 cShort=  0.000000 cLong=  1.000000
  DFx wShort=  0.000000 wLong=  0.470000 cFull=  0.000000 cShort=  0.000000 cLong=  1.000000
 NAtoms=    5 NActive=    4 NUniq=    4 SFac= 1.00D+00 NAtFMM=   60 NAOKFM=F Big=F
 No density basis found on file   718.
 Leave Link  301 at Thu May 14 01:20:39 2020, MaxMem= 1073741824 cpu:       0.2
 (Enter /home/matheus/.gaussian/g09/l302.exe)
 NPDir=0 NMtPBC=     1 NCelOv=     1 NCel=       1 NClECP=     1 NCelD=      1
         NCelK=      1 NCelE2=     1 NClLst=     1 CellRange=     0.0.
 One-electron integrals computed using PRISM.
 NBasis=   138 RedAO= T  NBF=   138
 NBsUse=   138 1.00D-06 NBFU=   138
 Precomputing XC quadrature grid using
 IXCGrd= 2 IRadAn=           5 IRanWt=          -1 IRanGd=           0 AccXCQ= 0.00D+00.
 NRdTot=     344 NPtTot=       92556 NUsed=       95038 NTot=       95070
 NSgBfM=   160   160   160   160   160 NAtAll=     4     4.
 Leave Link  302 at Thu May 14 01:20:39 2020, MaxMem= 1073741824 cpu:       0.8
 (Enter /home/matheus/.gaussian/g09/l303.exe)
 DipDrv:  MaxL=1.
 Leave Link  303 at Thu May 14 01:20:39 2020, MaxMem= 1073741824 cpu:       0.1
 (Enter /home/matheus/.gaussian/g09/l401.exe)
 Harris functional with IExCor=10402 diagonalized for initial guess.
 ExpMin= 2.53D-02 ExpMax= 1.53D+04 ExpMxC= 5.22D+02 IAcc=3 IRadAn=         5 AccDes= 0.00D+00
 HarFok:  IExCor=10402 AccDes= 0.00D+00 IRadAn=         5 IDoV= 1
 ScaDFX=  1.000000  1.000000  1.000000  1.000000
 FoFCou: FMM=F IPFlag=           0 FMFlag=      100000 FMFlg1=           0
         NFxFlg=           0 DoJE=T BraDBF=F KetDBF=T FulRan=T
         Omega=  0.000000  0.000000  1.000000  0.000000  0.000000 ICntrl=     500 IOpCl=  0
         NMat0=    1 NMatS0=    1 NMatT0=    0 NMatD0=    1 NMtDS0=    0 NMtDT0=    0
         I1Cent=           4 NGrid=           0.
 Petite list used in FoFCou.
 Harris En= -147.161856732950    
 Initial guess orbital symmetries:
       Occupied  (A) (A) (A) (A) (A) (A) (A) (A) (A)
       Virtual   (A) (A) (A) (A) (A) (A) (A) (A) (A) (A) (A) (A)
                 (A) (A) (A) (A) (A) (A) (A) (A) (A) (A) (A) (A)
                 (A) (A) (A) (A) (A) (A) (A) (A) (A) (A) (A) (A)
                 (A) (A) (A) (A) (A) (A) (A) (A) (A) (A) (A) (A)
                 (A) (A) (A) (A) (A) (A) (A) (A) (A) (A) (A) (A)
                 (A) (A) (A) (A) (A) (A) (A) (A) (A) (A) (A) (A)
                 (A) (A) (A) (A) (A) (A) (A) (A) (A) (A) (A) (A)
                 (A) (A) (A) (A) (A) (A) (A) (A) (A) (A) (A) (A)
                 (A) (A) (A) (A) (A) (A) (A) (A) (A) (A) (A) (A)
                 (A) (A) (A) (A) (A) (A) (A) (A) (A) (A) (A) (A)
                 (A) (A) (A) (A) (A) (A) (A) (A) (A)
 The electronic state of the initial guess is 1-A.
 Leave Link  401 at Thu May 14 01:20:39 2020, MaxMem= 1073741824 cpu:       2.2
 (Enter /home/matheus/.gaussian/g09/l502.exe)
 Closed shell SCF:
 Requested convergence on RMS density matrix=1.00D-08 within 128 cycles.
 Requested convergence on MAX density matrix=1.00D-06.
 Requested convergence on             energy=1.00D-06.
 No special actions if energy rises.
 Using DIIS extrapolation, IDIIS=  1040.
 Integral symmetry usage will be decided dynamically.
        94980 words used for storage of precomputed grid.
 IEnd=      192360 IEndB=      192360 NGot=  1073741824 MDV=  1073591865
 LenX=  1073591865 LenY=  1073565824
 Fock matrices will be formed incrementally for  20 cycles.

 Cycle   1  Pass 1  IDiag  1:
 FoFJK:  IHMeth= 1 ICntrl=     0 DoSepK=T KAlg= 1 I1Cent= 0 FoldK=F
 FoFCou: FMM=F IPFlag=           0 FMFlag=      100000 FMFlg1=           0
         NFxFlg=           0 DoJE=T BraDBF=F KetDBF=F FulRan=T
         Omega=  0.000000  0.000000  1.000000  0.000000  0.000000 ICntrl=     500 IOpCl=  0
         NMat0=    1 NMatS0=    1 NMatT0=    0 NMatD0=    1 NMtDS0=    0 NMtDT0=    0
         I1Cent=           0 NGrid=           0.
 Symmetry not used in FoFCou.
 E= -151.294011061818    
 DIIS: error= 1.64D-02 at cycle   1 NSaved=   1.
 NSaved= 1 IEnMin= 1 EnMin= -151.294011061818     IErMin= 1 ErrMin= 1.64D-02
 ErrMax= 1.64D-02 EMaxC= 1.00D-01 BMatC= 2.43D-02 BMatP= 2.43D-02
 IDIUse=3 WtCom= 8.36D-01 WtEn= 1.64D-01
 Coeff-Com:  0.100D+01
 Coeff-En:   0.100D+01
 Coeff:      0.100D+01
 Gap=     0.456 Goal=   None    Shift=    0.000
 GapD=    0.456 DampG=2.000 DampE=0.500 DampFc=1.0000 IDamp=-1.
 RMSDP=1.25D-03 MaxDP=3.11D-02              OVMax= 5.67D-02

 Cycle   2  Pass 1  IDiag  1:
 RMSU=  8.85D-04    CP:  1.01D+00
 FoFJK:  IHMeth= 1 ICntrl=     0 DoSepK=T KAlg= 1 I1Cent= 0 FoldK=F
 E= -151.316066817675     Delta-E=       -0.022055755857 Rises=F Damp=F
 DIIS: error= 7.42D-03 at cycle   2 NSaved=   2.
 NSaved= 2 IEnMin= 2 EnMin= -151.316066817675     IErMin= 2 ErrMin= 7.42D-03
 ErrMax= 7.42D-03 EMaxC= 1.00D-01 BMatC= 4.27D-03 BMatP= 2.43D-02
 IDIUse=3 WtCom= 9.26D-01 WtEn= 7.42D-02
 Coeff-Com:  0.247D+00 0.753D+00
 Coeff-En:   0.000D+00 0.100D+01
 Coeff:      0.228D+00 0.772D+00
 Gap=     0.420 Goal=   None    Shift=    0.000
 RMSDP=3.18D-04 MaxDP=6.28D-03 DE=-2.21D-02 OVMax= 1.44D-02

 Cycle   3  Pass 1  IDiag  1:
 RMSU=  2.23D-04    CP:  1.00D+00  1.03D+00
 FoFJK:  IHMeth= 1 ICntrl=     0 DoSepK=T KAlg= 1 I1Cent= 0 FoldK=F
 E= -151.318474819754     Delta-E=       -0.002408002079 Rises=F Damp=F
 DIIS: error= 2.37D-03 at cycle   3 NSaved=   3.
 NSaved= 3 IEnMin= 3 EnMin= -151.318474819754     IErMin= 3 ErrMin= 2.37D-03
 ErrMax= 2.37D-03 EMaxC= 1.00D-01 BMatC= 5.11D-04 BMatP= 4.27D-03
 IDIUse=3 WtCom= 9.76D-01 WtEn= 2.37D-02
 Coeff-Com:  0.228D-01 0.243D+00 0.735D+00
 Coeff-En:   0.000D+00 0.000D+00 0.100D+01
 Coeff:      0.223D-01 0.237D+00 0.741D+00
 Gap=     0.429 Goal=   None    Shift=    0.000
 RMSDP=1.43D-04 MaxDP=3.62D-03 DE=-2.41D-03 OVMax= 7.41D-03

 Cycle   4  Pass 1  IDiag  1:
 RMSU=  7.55D-05    CP:  1.00D+00  1.11D+00  9.52D-01
 FoFJK:  IHMeth= 1 ICntrl=     0 DoSepK=T KAlg= 1 I1Cent= 0 FoldK=F
 E= -151.318856719659     Delta-E=       -0.000381899904 Rises=F Damp=F
 DIIS: error= 5.81D-04 at cycle   4 NSaved=   4.
 NSaved= 4 IEnMin= 4 EnMin= -151.318856719659     IErMin= 4 ErrMin= 5.81D-04
 ErrMax= 5.81D-04 EMaxC= 1.00D-01 BMatC= 4.84D-05 BMatP= 5.11D-04
 IDIUse=3 WtCom= 9.94D-01 WtEn= 5.81D-03
 Coeff-Com: -0.215D-01-0.329D-01 0.195D+00 0.860D+00
 Coeff-En:   0.000D+00 0.000D+00 0.000D+00 0.100D+01
 Coeff:     -0.214D-01-0.327D-01 0.194D+00 0.861D+00
 Gap=     0.427 Goal=   None    Shift=    0.000
 RMSDP=6.32D-05 MaxDP=1.53D-03 DE=-3.82D-04 OVMax= 1.82D-03

 Cycle   5  Pass 1  IDiag  1:
 RMSU=  1.45D-05    CP:  1.00D+00  1.14D+00  1.11D+00  1.05D+00
 FoFJK:  IHMeth= 1 ICntrl=     0 DoSepK=T KAlg= 1 I1Cent= 0 FoldK=F
 E= -151.318897813463     Delta-E=       -0.000041093805 Rises=F Damp=F
 DIIS: error= 8.21D-05 at cycle   5 NSaved=   5.
 NSaved= 5 IEnMin= 5 EnMin= -151.318897813463     IErMin= 5 ErrMin= 8.21D-05
 ErrMax= 8.21D-05 EMaxC= 1.00D-01 BMatC= 3.88D-07 BMatP= 4.84D-05
 IDIUse=1 WtCom= 1.00D+00 WtEn= 0.00D+00
 Coeff-Com:  0.680D-03-0.376D-02-0.388D-01-0.783D-01 0.112D+01
 Coeff:      0.680D-03-0.376D-02-0.388D-01-0.783D-01 0.112D+01
 Gap=     0.427 Goal=   None    Shift=    0.000
[...]
 FoFCou: FMM=F IPFlag=           0 FMFlag=      100000 FMFlg1=           0
         NFxFlg=           0 DoJE=T BraDBF=F KetDBF=F FulRan=T
         Omega=  0.000000  0.000000  1.000000  0.000000  0.000000 ICntrl=     500 IOpCl=  0
         NMat0=    1 NMatS0=    1 NMatT0=    0 NMatD0=    1 NMtDS0=    0 NMtDT0=    0
         I1Cent=           0 NGrid=           0.
 Symmetry not used in FoFCou.
 E= -2753.41756312564    
 DIIS: error= 2.01D-04 at cycle   1 NSaved=   1.
 NSaved= 1 IEnMin= 1 EnMin= -2753.41756312564     IErMin= 1 ErrMin= 2.01D-04
 ErrMax= 2.01D-04 EMaxC= 1.00D-01 BMatC= 5.97D-06 BMatP= 5.97D-06
 IDIUse=3 WtCom= 9.98D-01 WtEn= 2.01D-03
 Coeff-Com:  0.100D+01
 Coeff-En:   0.100D+01
 Coeff:      0.100D+01
 Gap=     0.540 Goal=   None    Shift=    0.000
 RMSDP=1.29D-05 MaxDP=5.65D-04              OVMax= 3.45D-04

 Cycle   2  Pass 1  IDiag  1:
 RMSU=  9.13D-06    CP:  1.00D+00
 FoFJK:  IHMeth= 1 ICntrl=     0 DoSepK=T KAlg= 1 I1Cent= 0 FoldK=F
 E= -2753.41756383403     Delta-E=       -0.000000708382 Rises=F Damp=F
 DIIS: error= 6.31D-06 at cycle   2 NSaved=   2.
 NSaved= 2 IEnMin= 2 EnMin= -2753.41756383403     IErMin= 2 ErrMin= 6.31D-06
 ErrMax= 6.31D-06 EMaxC= 1.00D-01 BMatC= 4.86D-09 BMatP= 5.97D-06
 IDIUse=1 WtCom= 1.00D+00 WtEn= 0.00D+00
 Coeff-Com: -0.878D-02 0.101D+01
 Coeff:     -0.878D-02 0.101D+01
 Gap=     0.539 Goal=   None    Shift=    0.000
 RMSDP=1.18D-06 MaxDP=4.25D-05 DE=-7.08D-07 OVMax= 5.25D-05

 Cycle   3  Pass 1  IDiag  1:
 RMSU=  4.73D-07    CP:  1.00D+00  1.07D+00
 FoFJK:  IHMeth= 1 ICntrl=     0 DoSepK=T KAlg= 1 I1Cent= 0 FoldK=F
 E= -2753.41756384240     Delta-E=       -0.000000008372 Rises=F Damp=F
 DIIS: error= 9.34D-07 at cycle   3 NSaved=   3.
 NSaved= 3 IEnMin= 3 EnMin= -2753.41756384240     IErMin= 3 ErrMin= 9.34D-07
 ErrMax= 9.34D-07 EMaxC= 1.00D-01 BMatC= 1.82D-10 BMatP= 4.86D-09
 IDIUse=1 WtCom= 1.00D+00 WtEn= 0.00D+00
 Coeff-Com: -0.144D-03-0.695D-01 0.107D+01
 Coeff:     -0.144D-03-0.695D-01 0.107D+01
 Gap=     0.539 Goal=   None    Shift=    0.000
 RMSDP=1.61D-07 MaxDP=5.36D-06 DE=-8.37D-09 OVMax= 1.02D-05

 Cycle   4  Pass 1  IDiag  1:
 RMSU=  6.16D-08    CP:  1.00D+00  1.08D+00  1.19D+00
 FoFJK:  IHMeth= 1 ICntrl=     0 DoSepK=T KAlg= 1 I1Cent= 0 FoldK=F
 E= -2753.41756384267     Delta-E=       -0.000000000272 Rises=F Damp=F
 DIIS: error= 5.59D-07 at cycle   4 NSaved=   4.
 NSaved= 4 IEnMin= 4 EnMin= -2753.41756384267     IErMin= 4 ErrMin= 5.59D-07
 ErrMax= 5.59D-07 EMaxC= 1.00D-01 BMatC= 4.38D-11 BMatP= 1.82D-10
 IDIUse=1 WtCom= 1.00D+00 WtEn= 0.00D+00
 Coeff-Com:  0.272D-03-0.594D-01 0.357D+00 0.702D+00
 Coeff:      0.272D-03-0.594D-01 0.357D+00 0.702D+00
 Gap=     0.539 Goal=   None    Shift=    0.000
 RMSDP=2.89D-08 MaxDP=1.18D-06 DE=-2.72D-10 OVMax= 1.53D-06

 Cycle   5  Pass 1  IDiag  1:
 RMSU=  1.55D-08    CP:  1.00D+00  1.08D+00  1.21D+00  1.03D+00
 FoFJK:  IHMeth= 1 ICntrl=     0 DoSepK=T KAlg= 1 I1Cent= 0 FoldK=F
 E= -2753.41756384271     Delta-E=       -0.000000000035 Rises=F Damp=F
 DIIS: error= 5.78D-08 at cycle   5 NSaved=   5.
 NSaved= 5 IEnMin= 5 EnMin= -2753.41756384271     IErMin= 5 ErrMin= 5.78D-08
 ErrMax= 5.78D-08 EMaxC= 1.00D-01 BMatC= 2.65D-13 BMatP= 4.38D-11
 IDIUse=1 WtCom= 1.00D+00 WtEn= 0.00D+00
 Coeff-Com: -0.836D-05 0.439D-02-0.458D-01-0.323D-01 0.107D+01
 Coeff:     -0.836D-05 0.439D-02-0.458D-01-0.323D-01 0.107D+01
 Gap=     0.539 Goal=   None    Shift=    0.000
 RMSDP=1.07D-08 MaxDP=4.32D-07 DE=-3.50D-11 OVMax= 5.10D-07

 Cycle   6  Pass 1  IDiag  1:
 RMSU=  1.53D-09    CP:  1.00D+00  1.08D+00  1.22D+00  1.11D+00  1.18D+00
 FoFJK:  IHMeth= 1 ICntrl=     0 DoSepK=T KAlg= 1 I1Cent= 0 FoldK=F
 E= -2753.41756384271     Delta-E=       -0.000000000005 Rises=F Damp=F
 DIIS: error= 1.38D-08 at cycle   6 NSaved=   6.
 NSaved= 6 IEnMin= 6 EnMin= -2753.41756384271     IErMin= 6 ErrMin= 1.38D-08
 ErrMax= 1.38D-08 EMaxC= 1.00D-01 BMatC= 1.83D-14 BMatP= 2.65D-13
 IDIUse=1 WtCom= 1.00D+00 WtEn= 0.00D+00
 Coeff-Com: -0.114D-04 0.302D-02-0.222D-01-0.286D-01 0.214D+00 0.834D+00
 Coeff:     -0.114D-04 0.302D-02-0.222D-01-0.286D-01 0.214D+00 0.834D+00
 Gap=     0.539 Goal=   None    Shift=    0.000
 RMSDP=1.25D-09 MaxDP=4.75D-08 DE=-4.55D-12 OVMax= 8.37D-08

 SCF Done:  E(RLC-B+HF-LYP) =  -2753.41756384     A.U. after    6 cycles
             Convg  =    0.1246D-08             -V/T =  2.0015
 KE= 2.749364405067D+03 PE=-6.578579856014D+03 EE= 1.075797887104D+03
 Leave Link  502 at Thu May 14 01:42:45 2020, MaxMem= 1073741824 cpu:     110.4
 (Enter /home/matheus/.gaussian/g09/l122.exe)
 Restoring MOs from calculation   4 to rwf.
 Counterpoise: doing MCBS calculation for fragment   1
 Leave Link  122 at Thu May 14 01:42:45 2020, MaxMem= 1073741824 cpu:       0.0
 (Enter /home/matheus/.gaussian/g09/l301.exe)
 Basis read from rwf:  (5D, 7F)
 No pseudopotential information found on rwf file.
 There are   138 symmetry adapted basis functions of A   symmetry.
 Integral buffers will be    131072 words long.
 Raffenetti 2 integral format.
 Two-electron integral symmetry is turned on.
   138 basis functions,   198 primitive gaussians,   160 cartesian basis functions
     9 alpha electrons        9 beta electrons
       nuclear repulsion energy        36.6636681782 Hartrees.
 IExCor=10402 DFT=T Ex=LC-B+HF Corr=LYP ExCW=0 ScaHFX=  1.000000
 ScaDFX=  1.000000  1.000000  1.000000  1.000000 ScalE2=  1.000000  1.000000
 IRadAn=      5 IRanWt=     -1 IRanGd=            0 ICorTp=0
  HFx wShort=  0.000000 wLong=  0.470000 cFull=  0.000000 cShort=  0.000000 cLong=  1.000000
  DFx wShort=  0.000000 wLong=  0.470000 cFull=  0.000000 cShort=  0.000000 cLong=  1.000000
 NAtoms=    5 NActive=    4 NUniq=    4 SFac= 1.00D+00 NAtFMM=   60 NAOKFM=F Big=F
 No density basis found on file   718.
 Leave Link  301 at Thu May 14 01:42:45 2020, MaxMem= 1073741824 cpu:       0.2
 (Enter /home/matheus/.gaussian/g09/l302.exe)
 NPDir=0 NMtPBC=     1 NCelOv=     1 NCel=       1 NClECP=     1 NCelD=      1
         NCelK=      1 NCelE2=     1 NClLst=     1 CellRange=     0.0.
 One-electron integrals computed using PRISM.
 NBasis=   138 RedAO= T  NBF=   138
 NBsUse=   138 1.00D-06 NBFU=   138
 Precomputing XC quadrature grid using
 IXCGrd= 2 IRadAn=           5 IRanWt=          -1 IRanGd=           0 AccXCQ= 0.00D+00.
 NRdTot=     344 NPtTot=       92556 NUsed=       95038 NTot=       95070
 NSgBfM=   160   160   160   160   160 NAtAll=     4     4.
 Leave Link  302 at Thu May 14 01:42:45 2020, MaxMem= 1073741824 cpu:       0.8
 (Enter /home/matheus/.gaussian/g09/l303.exe)
 DipDrv:  MaxL=1.
 Leave Link  303 at Thu May 14 01:42:45 2020, MaxMem= 1073741824 cpu:       0.1
 (Enter /home/matheus/.gaussian/g09/l401.exe)
 Initial guess read from the read-write file.
 Guess basis will be translated and rotated to current coordinates.
 Initial guess orbital symmetries:
       Occupied  (A) (A) (A) (A) (A) (A) (A) (A) (A)
       Virtual   (A) (A) (A) (A) (A) (A) (A) (A) (A) (A) (A) (A)
                 (A) (A) (A) (A) (A) (A) (A) (A) (A) (A) (A) (A)
                 (A) (A) (A) (A) (A) (A) (A) (A) (A) (A) (A) (A)
                 (A) (A) (A) (A) (A) (A) (A) (A) (A) (A) (A) (A)
                 (A) (A) (A) (A) (A) (A) (A) (A) (A) (A) (A) (A)
                 (A) (A) (A) (A) (A) (A) (A) (A) (A) (A) (A) (A)
                 (A) (A) (A) (A) (A) (A) (A) (A) (A) (A) (A) (A)
                 (A) (A) (A) (A) (A) (A) (A) (A) (A) (A) (A) (A)
                 (A) (A) (A) (A) (A) (A) (A) (A) (A) (A) (A) (A)
                 (A) (A) (A) (A) (A) (A) (A) (A) (A) (A) (A) (A)
                 (A) (A) (A) (A) (A) (A) (A) (A) (A)
 The electronic state of the initial guess is 1-A.
 Generating alternative initial guess.
 Harris functional with IExCor=10402 diagonalized for initial guess.
 ExpMin= 2.53D-02 ExpMax= 1.53D+04 ExpMxC= 5.22D+02 IAcc=3 IRadAn=         5 AccDes= 0.00D+00
 HarFok:  IExCor=10402 AccDes= 0.00D+00 IRadAn=         5 IDoV= 1
 ScaDFX=  1.000000  1.000000  1.000000  1.000000
 FoFCou: FMM=F IPFlag=           0 FMFlag=      100000 FMFlg1=           0
         NFxFlg=           0 DoJE=T BraDBF=F KetDBF=T FulRan=T
         Omega=  0.000000  0.000000  1.000000  0.000000  0.000000 ICntrl=     500 IOpCl=  0
         NMat0=    1 NMatS0=    1 NMatT0=    0 NMatD0=    1 NMtDS0=    0 NMtDT0=    0
         I1Cent=           4 NGrid=           0.
 Petite list used in FoFCou.
 Harris En= -147.161856732201    
 Leave Link  401 at Thu May 14 01:42:45 2020, MaxMem= 1073741824 cpu:       2.3
 (Enter /home/matheus/.gaussian/g09/l502.exe)
 Closed shell SCF:
 Requested convergence on RMS density matrix=1.00D-08 within 128 cycles.
 Requested convergence on MAX density matrix=1.00D-06.
 Requested convergence on             energy=1.00D-06.
 No special actions if energy rises.
 Using DIIS extrapolation, IDIIS=  1040.
 Integral symmetry usage will be decided dynamically.
        94980 words used for storage of precomputed grid.
 IEnd=      192360 IEndB=      192360 NGot=  1073741824 MDV=  1073591865
 LenX=  1073591865 LenY=  1073565824
 Fock matrices will be formed incrementally for  20 cycles.

 Cycle   1  Pass 1  IDiag  1:
 FoFJK:  IHMeth= 1 ICntrl=     0 DoSepK=T KAlg= 1 I1Cent= 0 FoldK=F
 FoFCou: FMM=F IPFlag=           0 FMFlag=      100000 FMFlg1=           0
         NFxFlg=           0 DoJE=T BraDBF=F KetDBF=F FulRan=T
         Omega=  0.000000  0.000000  1.000000  0.000000  0.000000 ICntrl=     500 IOpCl=  0
         NMat0=    1 NMatS0=    1 NMatT0=    0 NMatD0=    1 NMtDS0=    0 NMtDT0=    0
         I1Cent=           0 NGrid=           0.
 Symmetry not used in FoFCou.
 E= -151.318899132547    
 DIIS: error= 1.72D-06 at cycle   1 NSaved=   1.
 NSaved= 1 IEnMin= 1 EnMin= -151.318899132547     IErMin= 1 ErrMin= 1.72D-06
 ErrMax= 1.72D-06 EMaxC= 1.00D-01 BMatC= 4.44D-10 BMatP= 4.44D-10
 IDIUse=1 WtCom= 1.00D+00 WtEn= 0.00D+00
 Coeff-Com:  0.100D+01
 Coeff:      0.100D+01
 Gap=     0.427 Goal=   None    Shift=    0.000
 RMSDP=1.73D-07 MaxDP=3.90D-06              OVMax= 6.00D-06

 Cycle   2  Pass 1  IDiag  1:
 RMSU=  1.22D-07    CP:  1.00D+00
 FoFJK:  IHMeth= 1 ICntrl=     0 DoSepK=T KAlg= 1 I1Cent= 0 FoldK=F
 E= -151.318899132977     Delta-E=       -0.000000000430 Rises=F Damp=F
 DIIS: error= 3.63D-07 at cycle   2 NSaved=   2.
 NSaved= 2 IEnMin= 2 EnMin= -151.318899132977     IErMin= 2 ErrMin= 3.63D-07
 ErrMax= 3.63D-07 EMaxC= 1.00D-01 BMatC= 1.80D-11 BMatP= 4.44D-10
 IDIUse=1 WtCom= 1.00D+00 WtEn= 0.00D+00
 Coeff-Com: -0.138D+00 0.114D+01
 Coeff:     -0.138D+00 0.114D+01
 Gap=     0.427 Goal=   None    Shift=    0.000
 RMSDP=4.08D-08 MaxDP=1.18D-06 DE=-4.30D-10 OVMax= 2.10D-06

 Cycle   3  Pass 1  IDiag  1:
 RMSU=  1.20D-08    CP:  1.00D+00  1.21D+00
 FoFJK:  IHMeth= 1 ICntrl=     0 DoSepK=T KAlg= 1 I1Cent= 0 FoldK=F
 E= -151.318899133008     Delta-E=       -0.000000000031 Rises=F Damp=F
 DIIS: error= 1.17D-07 at cycle   3 NSaved=   3.
 NSaved= 3 IEnMin= 3 EnMin= -151.318899133008     IErMin= 3 ErrMin= 1.17D-07
 ErrMax= 1.17D-07 EMaxC= 1.00D-01 BMatC= 9.72D-13 BMatP= 1.80D-11
 IDIUse=1 WtCom= 1.00D+00 WtEn= 0.00D+00
 Coeff-Com: -0.161D-01-0.830D-02 0.102D+01
 Coeff:     -0.161D-01-0.830D-02 0.102D+01
 Gap=     0.427 Goal=   None    Shift=    0.000
 RMSDP=1.01D-08 MaxDP=2.29D-07 DE=-3.13D-11 OVMax= 7.28D-07

 Cycle   4  Pass 1  IDiag  1:
 RMSU=  3.90D-09    CP:  1.00D+00  1.26D+00  1.24D+00
 FoFJK:  IHMeth= 1 ICntrl=     0 DoSepK=T KAlg= 1 I1Cent= 0 FoldK=F
 E= -151.318899133010     Delta-E=       -0.000000000002 Rises=F Damp=F
 DIIS: error= 6.47D-08 at cycle   4 NSaved=   4.
 NSaved= 4 IEnMin= 4 EnMin= -151.318899133010     IErMin= 4 ErrMin= 6.47D-08
 ErrMax= 6.47D-08 EMaxC= 1.00D-01 BMatC= 5.03D-13 BMatP= 9.72D-13
 IDIUse=1 WtCom= 1.00D+00 WtEn= 0.00D+00
 Coeff-Com:  0.380D-02-0.960D-01 0.422D+00 0.670D+00
 Coeff:      0.380D-02-0.960D-01 0.422D+00 0.670D+00
 Gap=     0.427 Goal=   None    Shift=    0.000
 RMSDP=3.50D-09 MaxDP=6.21D-08 DE=-2.13D-12 OVMax= 2.55D-07

 SCF Done:  E(RLC-B+HF-LYP) =  -151.318899133     A.U. after    4 cycles
             Convg  =    0.3497D-08             -V/T =  2.0055
 KE= 1.504879676587D+02 PE=-4.314629216683D+02 EE= 9.299238669837D+01
 Leave Link  502 at Thu May 14 01:42:49 2020, MaxMem= 1073741824 cpu:      33.3
 (Enter /home/matheus/.gaussian/g09/l122.exe)
 Restoring MOs from calculation   5 to rwf.
 Counterpoise: doing MCBS calculation for fragment   2
 Leave Link  122 at Thu May 14 01:42:49 2020, MaxMem= 1073741824 cpu:       0.0
 (Enter /home/matheus/.gaussian/g09/l301.exe)
 Basis read from rwf:  (5D, 7F)
 No pseudopotential information found on rwf file.
 There are    59 symmetry adapted basis functions of A   symmetry.
 Integral buffers will be    131072 words long.
 Raffenetti 2 integral format.
 Two-electron integral symmetry is turned on.
    59 basis functions,   217 primitive gaussians,    69 cartesian basis functions
    18 alpha electrons       18 beta electrons
       nuclear repulsion energy         0.0000000000 Hartrees.
 IExCor=10402 DFT=T Ex=LC-B+HF Corr=LYP ExCW=0 ScaHFX=  1.000000
 ScaDFX=  1.000000  1.000000  1.000000  1.000000 ScalE2=  1.000000  1.000000
 IRadAn=      5 IRanWt=     -1 IRanGd=            0 ICorTp=0
  HFx wShort=  0.000000 wLong=  0.470000 cFull=  0.000000 cShort=  0.000000 cLong=  1.000000
  DFx wShort=  0.000000 wLong=  0.470000 cFull=  0.000000 cShort=  0.000000 cLong=  1.000000
 NAtoms=    5 NActive=    1 NUniq=    1 SFac= 1.00D+00 NAtFMM=   60 NAOKFM=F Big=F
 No density basis found on file   718.
 Leave Link  301 at Thu May 14 01:42:49 2020, MaxMem= 1073741824 cpu:       0.2
 (Enter /home/matheus/.gaussian/g09/l302.exe)
 NPDir=0 NMtPBC=     1 NCelOv=     1 NCel=       1 NClECP=     1 NCelD=      1
         NCelK=      1 NCelE2=     1 NClLst=     1 CellRange=     0.0.
 One-electron integrals computed using PRISM.
 NBasis=    59 RedAO= T  NBF=    59
 NBsUse=    59 1.00D-06 NBFU=    59
 Precomputing XC quadrature grid using
 IXCGrd= 2 IRadAn=           5 IRanWt=          -1 IRanGd=           0 AccXCQ= 0.00D+00.
 NRdTot=      81 NPtTot=       30352 NUsed=       30981 NTot=       31013
 NSgBfM=    69    69    69    69    69 NAtAll=     1     1.
 Leave Link  302 at Thu May 14 01:42:49 2020, MaxMem= 1073741824 cpu:       0.6
 (Enter /home/matheus/.gaussian/g09/l303.exe)
 DipDrv:  MaxL=1.
 Leave Link  303 at Thu May 14 01:42:49 2020, MaxMem= 1073741824 cpu:       0.1
 (Enter /home/matheus/.gaussian/g09/l401.exe)
 Initial guess read from the read-write file.
 Guess basis will be translated and rotated to current coordinates.
 Initial guess orbital symmetries:
       Occupied  (A) (A) (A) (A) (A) (A) (A) (A) (A) (A) (A) (A)
                 (A) (A) (A) (A) (A) (A)
       Virtual   (A) (A) (A) (A) (A) (A) (A) (A) (A) (A) (A) (A)
                 (A) (A) (A) (A) (A) (A) (A) (A) (A) (A) (A) (A)
                 (A) (A) (A) (A) (A) (A) (A) (A) (A) (A) (A) (A)
                 (A) (A) (A) (A) (A)
 The electronic state of the initial guess is 1-A.
 Generating alternative initial guess.
 Harris functional with IExCor=10402 diagonalized for initial guess.
 ExpMin= 4.00D-02 ExpMax= 1.17D+07 ExpMxC= 1.33D+04 IAcc=3 IRadAn=         5 AccDes= 0.00D+00
 HarFok:  IExCor=10402 AccDes= 0.00D+00 IRadAn=         5 IDoV= 1
 ScaDFX=  1.000000  1.000000  1.000000  1.000000
 FoFCou: FMM=F IPFlag=           0 FMFlag=      100000 FMFlg1=           0
         NFxFlg=           0 DoJE=T BraDBF=F KetDBF=T FulRan=T
         Omega=  0.000000  0.000000  1.000000  0.000000  0.000000 ICntrl=     500 IOpCl=  0
         NMat0=    1 NMatS0=    1 NMatT0=    0 NMatD0=    1 NMtDS0=    0 NMtDT0=    0
         I1Cent=           4 NGrid=           0.
 Petite list used in FoFCou.
 Harris En= -2744.51485235229    
 Leave Link  401 at Thu May 14 01:42:49 2020, MaxMem= 1073741824 cpu:       1.0
 (Enter /home/matheus/.gaussian/g09/l502.exe)
 Closed shell SCF:
 Requested convergence on RMS density matrix=1.00D-08 within 128 cycles.
 Requested convergence on MAX density matrix=1.00D-06.
 Requested convergence on             energy=1.00D-06.
 No special actions if energy rises.
 Using DIIS extrapolation, IDIIS=  1040.
 Integral symmetry usage will be decided dynamically.
        30923 words used for storage of precomputed grid.
 IEnd=       64406 IEndB=       64406 NGot=  1073741824 MDV=  1073698889
 LenX=  1073698889 LenY=  1073693687
 Fock matrices will be formed incrementally for  20 cycles.

 Cycle   1  Pass 1  IDiag  1:
 FoFJK:  IHMeth= 1 ICntrl=     0 DoSepK=T KAlg= 1 I1Cent= 0 FoldK=F
 FoFCou: FMM=F IPFlag=           0 FMFlag=      100000 FMFlg1=           0
         NFxFlg=           0 DoJE=T BraDBF=F KetDBF=F FulRan=T
         Omega=  0.000000  0.000000  1.000000  0.000000  0.000000 ICntrl=     500 IOpCl=  0
         NMat0=    1 NMatS0=    1 NMatT0=    0 NMatD0=    1 NMtDS0=    0 NMtDT0=    0
         I1Cent=           0 NGrid=           0.
 Symmetry not used in FoFCou.
 E= -2753.41754223393    
 DIIS: error= 1.16D-13 at cycle   1 NSaved=   1.
 NSaved= 1 IEnMin= 1 EnMin= -2753.41754223393     IErMin= 1 ErrMin= 1.16D-13
 ErrMax= 1.16D-13 EMaxC= 1.00D-01 BMatC= 2.96D-25 BMatP= 2.96D-25
 IDIUse=1 WtCom= 1.00D+00 WtEn= 0.00D+00
 Coeff-Com:  0.100D+01
 Coeff:      0.100D+01
 Gap=     0.595 Goal=   None    Shift=    0.000
 DSYEVD returned Info=          89 IAlg= 4 N=    59 NDim=    59 NE2=    18198197 trying DSYEV.
 RMSDP=1.04D-14 MaxDP=2.14D-13              OVMax= 2.03D-14

 SCF Done:  E(RLC-B+HF-LYP) =  -2753.41754223     A.U. after    1 cycles
             Convg  =    0.1041D-13             -V/T =  2.0015
 KE= 2.749372504928D+03 PE=-6.578588569976D+03 EE= 1.075798522814D+03
 Leave Link  502 at Thu May 14 01:42:51 2020, MaxMem= 1073741824 cpu:      11.1
 (Enter /home/matheus/.gaussian/g09/l122.exe)
 Restoring MOs from calculation   1 to rwf.
 Counterpoise: corrected energy =   -2904.736642276834
 Counterpoise: BSSE energy =       0.000027296910
 Leave Link  122 at Thu May 14 01:42:51 2020, MaxMem= 1073741824 cpu:       0.0
 (Enter /home/matheus/.gaussian/g09/l108.exe)
 Scan completed.

 Summary of the potential surface scan:
   N      R1          SCF    
 ----  ---------  -----------
    1     3.0000  -2753.41754
    2     3.1000  -2753.41754
    3     3.2000  -2753.41754
    4     3.3000  -2753.41754
    5     3.4000  -2753.41754
    6     3.5000  -2753.41754
    7     3.6000  -2753.41754
    8     3.7000  -2753.41754
    9     3.8000  -2753.41754
   10     3.9000  -2753.41754
   11     4.0000  -2753.41754
   12     4.1000  -2753.41754
   13     4.2000  -2753.41754
   14     4.3000  -2753.41754
   15     4.4000  -2753.41754
   16     4.5000  -2753.41754
   17     4.6000  -2753.41754
   18     4.7000  -2753.41754
   19     4.8000  -2753.41754
   20     4.9000  -2753.41754
   21     5.0000  -2753.41754
 ----  ---------  -----------
  
 Leave Link  108 at Thu May 14 01:42:51 2020, MaxMem= 1073741824 cpu:       0.0
 (Enter /home/matheus/.gaussian/g09/l9999.exe)
 1\1\GINC-REDGIANT\Scan\RLC-BLYP\Aug-CC-pVTZ\H2Kr1O2\MATHEUS\14-May-202
 0\1\\#p lc-blyp/aug-cc-PVTz int=ultrafine counterpoise=2 Scan\\TCC\\0,
 1\O,0,0.,0.,0.725\O,0,0.,0.,-0.725\H,0,-0.3142209495,0.8633149634,1.02
 35104166\H,0,0.,0.9187205947,-1.0235104166\Kr,0,0.,R1,0.\\R1=3.,s,20,0
 .1\\Version=EM64L-G09RevC.01\State=1-A\HF=-2753.4175422,-2753.4175422,
 -2753.4175422,-2753.4175422,-2753.4175422,-2753.4175422,-2753.4175422,
 -2753.4175422,-2753.4175422,-2753.4175422,-2753.4175422,-2753.4175422,
 -2753.4175422,-2753.4175422,-2753.4175422,-2753.4175422,-2753.4175422,
 -2753.4175422,-2753.4175422,-2753.4175422,-2753.4175422\RMSD=1.334e-09
 ,5.265e-11,1.629e-11,9.945e-12,5.941e-12,3.614e-12,2.183e-12,1.316e-12
 ,7.982e-13,4.876e-13,2.961e-13,1.801e-13,1.065e-13,6.278e-14,3.739e-14
 ,2.264e-14,1.409e-14,1.662e-14,6.787e-15,8.533e-15,1.041e-14\PG=C01 [X
 (H2Kr1O2)]\\@


 THE MEEK SHALL INHERIT THE EARTH.
 (THE REST OF US WILL ESCAPE TO THE STARS)
 Job cpu time:  0 days  3 hours 10 minutes 47.5 seconds.
 File lengths (MBytes):  RWF=     33 Int=      0 D2E=      0 Chk=      8 Scr=      1
 Normal termination of Gaussian 09 at Thu May 14 01:42:51 2020.
