 Entering Gaussian System, Link 0=g09
 Input=/home/matheus/.tcc/Inputs/Inputs-lc-blyp-default/H2O2-Kr_20.com
 Output=/home/matheus/.tcc/Logs/Logs-lc-blyp-default/H2O2-Kr_20.log
 Initial command:
 /home/matheus/.gaussian/g09/l1.exe /home/matheus/.gaussian/g09/scratch/Gau-10671.inp -scrdir=/home/matheus/.gaussian/g09/scratch/
 Entering Link 1 = /home/matheus/.gaussian/g09/l1.exe PID=     10675.
  
 Copyright (c) 1988,1990,1992,1993,1995,1998,2003,2009,2011,
            Gaussian, Inc.  All Rights Reserved.
  
 This is part of the Gaussian(R) 09 program.  It is based on
 the Gaussian(R) 03 system (copyright 2003, Gaussian, Inc.),
 the Gaussian(R) 98 system (copyright 1998, Gaussian, Inc.),
 the Gaussian(R) 94 system (copyright 1995, Gaussian, Inc.),
 the Gaussian 92(TM) system (copyright 1992, Gaussian, Inc.),
 the Gaussian 90(TM) system (copyright 1990, Gaussian, Inc.),
 the Gaussian 88(TM) system (copyright 1988, Gaussian, Inc.),
 the Gaussian 86(TM) system (copyright 1986, Carnegie Mellon
 University), and the Gaussian 82(TM) system (copyright 1983,
 Carnegie Mellon University). Gaussian is a federally registered
 trademark of Gaussian, Inc.
  
 This software contains proprietary and confidential information,
 including trade secrets, belonging to Gaussian, Inc.
  
 This software is provided under written license and may be
 used, copied, transmitted, or stored only in accord with that
 written license.
  
 The following legend is applicable only to US Government
 contracts under FAR:
  
                    RESTRICTED RIGHTS LEGEND
  
 Use, reproduction and disclosure by the US Government is
 subject to restrictions as set forth in subparagraphs (a)
 and (c) of the Commercial Computer Software - Restricted
 Rights clause in FAR 52.227-19.
  
 Gaussian, Inc.
 340 Quinnipiac St., Bldg. 40, Wallingford CT 06492
  
  
 ---------------------------------------------------------------
 Warning -- This program may not be used in any manner that
 competes with the business of Gaussian, Inc. or will provide
 assistance to any competitor of Gaussian, Inc.  The licensee
 of this program is prohibited from giving any competitor of
 Gaussian, Inc. access to this program.  By using this program,
 the user acknowledges that Gaussian, Inc. is engaged in the
 business of creating and licensing software in the field of
 computational chemistry and represents and warrants to the
 licensee that it is not a competitor of Gaussian, Inc. and that
 it will not use this program in any manner prohibited above.
 ---------------------------------------------------------------
  

 Cite this work as:
 Gaussian 09, Revision C.01,
 M. J. Frisch, G. W. Trucks, H. B. Schlegel, G. E. Scuseria, 
 M. A. Robb, J. R. Cheeseman, G. Scalmani, V. Barone, B. Mennucci, 
 G. A. Petersson, H. Nakatsuji, M. Caricato, X. Li, H. P. Hratchian, 
 A. F. Izmaylov, J. Bloino, G. Zheng, J. L. Sonnenberg, M. Hada, 
 M. Ehara, K. Toyota, R. Fukuda, J. Hasegawa, M. Ishida, T. Nakajima, 
 Y. Honda, O. Kitao, H. Nakai, T. Vreven, J. A. Montgomery, Jr., 
 J. E. Peralta, F. Ogliaro, M. Bearpark, J. J. Heyd, E. Brothers, 
 K. N. Kudin, V. N. Staroverov, T. Keith, R. Kobayashi, J. Normand, 
 K. Raghavachari, A. Rendell, J. C. Burant, S. S. Iyengar, J. Tomasi, 
 M. Cossi, N. Rega, J. M. Millam, M. Klene, J. E. Knox, J. B. Cross, 
 V. Bakken, C. Adamo, J. Jaramillo, R. Gomperts, R. E. Stratmann, 
 O. Yazyev, A. J. Austin, R. Cammi, C. Pomelli, J. W. Ochterski, 
 R. L. Martin, K. Morokuma, V. G. Zakrzewski, G. A. Voth, 
 P. Salvador, J. J. Dannenberg, S. Dapprich, A. D. Daniels, 
 O. Farkas, J. B. Foresman, J. V. Ortiz, J. Cioslowski, 
 and D. J. Fox, Gaussian, Inc., Wallingford CT, 2010.
 
 ******************************************
 Gaussian 09:  EM64L-G09RevC.01 23-Sep-2011
                13-May-2020 
 ******************************************
 %mem=8GB
 %nproc=8
 Will use up to    8 processors via shared memory.
 --------------------------------------------------------
 #p lc-blyp/aug-cc-PVTz int=ultrafine counterpoise=2 Scan
 --------------------------------------------------------
 1/38=1,60=1,62=2/1,8;
 2/12=2,17=6,18=5,29=3,40=1/2;
 1/38=1,53=5172,62=2/22;
 3/5=16,6=1,7=10,11=2,16=1,25=1,30=1,74=1000402,75=-5/1,2,3;
 4//1;
 5/5=2,38=5/2;
 6/7=2,8=2,9=2,10=2,18=1,28=1/1;
 1/53=4052,62=2,63=1/22;
 3/5=7,6=11,7=10,11=2,16=1,25=1,30=1,74=1000402,75=-5,82=7/1,2,3;
 4//1;
 5/5=2,38=5/2;
 6/7=2,8=2,9=2,10=2,18=1,28=1/1;
 1/53=3042,62=2,63=2/22;
 3/5=7,6=11,7=10,11=2,16=1,25=1,30=1,74=1000402,75=-5,82=7/1,2,3;
 4//1;
 5/5=2,38=5/2;
 6/7=2,8=2,9=2,10=2,18=1,28=1/1;
 1/53=2032,62=2,63=3/22;
 3/5=7,6=11,7=10,11=2,16=1,25=1,30=1,74=1000402,75=-5,82=7/1,2,3;
 4//1;
 5/5=2,38=5/2;
 6/7=2,8=2,9=2,10=2,18=1,28=1/1;
 1/53=1022,62=2,63=4/22;
 3/5=7,6=11,7=10,11=2,16=1,25=1,30=1,74=1000402,75=-5,82=7/1,2,3;
 4//1;
 5/5=2,38=5/2;
 6/7=2,8=2,9=2,10=2,18=1,28=1/1;
 1/53=5014,62=2,63=5/22;
 1/60=1,62=2/8(1);
 99/9=1/99;
 2/29=3/2;
 1/53=5173,62=2/22;
 3/5=7,6=11,7=10,11=2,16=1,25=1,30=1,74=1000402,75=-5,82=7/1,2,3;
 4/5=5,16=3/1;
 5/5=2,38=5/2;
 1/53=4053,62=2,63=1/22;
 3/5=7,6=11,7=10,11=2,16=1,25=1,30=1,74=1000402,75=-5,82=7/1,2,3;
 4/5=5,16=3/1;
 5/5=2,38=5/2;
 1/53=3043,62=2,63=2/22;
 3/5=7,6=11,7=10,11=2,16=1,25=1,30=1,74=1000402,75=-5,82=7/1,2,3;
 4/5=5,16=3/1;
 5/5=2,38=5/2;
 1/53=2033,62=2,63=3/22;
 3/5=7,6=11,7=10,11=2,16=1,25=1,30=1,74=1000402,75=-5,82=7/1,2,3;
 4/5=5,16=3/1;
 5/5=2,38=5/2;
 1/53=1024,62=2,63=4/22;
 3/5=7,6=11,7=10,11=2,16=1,25=1,30=1,74=1000402,75=-5,82=7/1,2,3;
 4/5=5,16=3/1;
 5/5=2,38=5/2;
 1/53=5014,62=2,63=5/22;
 1/60=1,62=2/8(-22);
 99/9=1/99;
 Leave Link    1 at Wed May 13 19:14:26 2020, MaxMem= 1073741824 cpu:       0.1
 (Enter /home/matheus/.gaussian/g09/l101.exe)
 ---
 TCC
 ---
 Charge =  0 Multiplicity = 1 in supermolecule
 Charge =  0 Multiplicity = 1 in fragment  1.
 Charge =  0 Multiplicity = 1 in fragment  2.
 Symbolic Z-Matrix:
 O(Fragment=1)         0.        0.        0.725 
 O(Fragment=1)         0.        0.       -0.725 
 H(Fragment=1)        -0.31422  -0.86331   1.02351 
 H(Fragment=1)         0.        0.91872  -1.02351 
 Kr(Fragment=2)        0.       R1        0. 
       Variables:
  R1                    3.     Scan 20    0.1    
 
 NAtoms=      5 NQM=        0 NQMF=       0 NMMI=      5 NMMIF=      0
                NMic=       0 NMicF=      0.
                    Isotopes and Nuclear Properties:
 (Nuclear quadrupole moments (NQMom) in fm**2, nuclear magnetic moments (NMagM)
  in nuclear magnetons)

  Atom         1           2           3           4           5
 IAtWgt=          16          16           1           1          84
 AtmWgt=  15.9949146  15.9949146   1.0078250   1.0078250  83.9115064
 NucSpn=           0           0           1           1           0
 AtZEff=   0.0000000   0.0000000   0.0000000   0.0000000   0.0000000
 NQMom=    0.0000000   0.0000000   0.0000000   0.0000000   0.0000000
 NMagM=    0.0000000   0.0000000   2.7928460   2.7928460   0.0000000
 Leave Link  101 at Wed May 13 19:14:26 2020, MaxMem= 1073741824 cpu:       0.4
 (Enter /home/matheus/.gaussian/g09/l108.exe)
 Scan the potential surface.
 Variable   Value     No. Steps Step-Size
 -------- ----------- --------- ---------
     1       3.000000      20      0.1000
 A total of     21 points will be computed.
 Leave Link  108 at Wed May 13 19:14:26 2020, MaxMem= 1073741824 cpu:       0.0
 (Enter /home/matheus/.gaussian/g09/l202.exe)
 ---------------------------------------------------------------------------------------------------
                            Z-MATRIX (ANGSTROMS AND DEGREES)
   CD    Cent   Atom    N1       Length/X        N2       Alpha/Y        N3        Beta/Z          J
 ---------------------------------------------------------------------------------------------------
      1      1  O        0   0.000000          0.000000          0.725000
      2      2  O        0   0.000000          0.000000         -0.725000
      3      3  H        0  -0.314221         -0.863315          1.023510
      4      4  H        0   0.000000          0.918721         -1.023510
      5      5  Kr       0   0.000000          3.000000          0.000000
 ---------------------------------------------------------------------------------------------------
                         Z-Matrix orientation:                         
 ---------------------------------------------------------------------
 Center     Atomic      Atomic             Coordinates (Angstroms)
 Number     Number       Type             X           Y           Z
 ---------------------------------------------------------------------
      1          8           0        0.000000    0.000000    0.725000
      2          8           0        0.000000    0.000000   -0.725000
      3          1           0       -0.314221   -0.863315    1.023510
      4          1           0        0.000000    0.918721   -1.023510
      5         36           0        0.000000    3.000000    0.000000
 ---------------------------------------------------------------------
                    Distance matrix (angstroms):
                    1          2          3          4          5
     1  O    0.000000
     2  O    1.450000   0.000000
     3  H    0.966000   1.975180   0.000000
     4  H    1.975180   0.966000   2.732157   0.000000
     5  Kr   3.086361   3.086361   4.008929   2.319331   0.000000
 Stoichiometry    H2KrO2
 Framework group  C1[X(H2KrO2)]
 Deg. of freedom     9
 Full point group                 C1      NOp   1
 Largest Abelian subgroup         C1      NOp   1
 Largest concise Abelian subgroup C1      NOp   1
                         Standard orientation:                         
 ---------------------------------------------------------------------
 Center     Atomic      Atomic             Coordinates (Angstroms)
 Number     Number       Type             X           Y           Z
 ---------------------------------------------------------------------
      1          8           0       -2.013955   -0.686971   -0.042678
      2          8           0       -1.987181    0.762152    0.000071
      3          1           0       -2.885209   -0.978373    0.255914
      4          1           0       -1.063137    1.043301    0.015982
      5         36           0        0.998818   -0.018511    0.001916
 ---------------------------------------------------------------------
 Rotational constants (GHZ):     26.5935251      2.3048996      2.1226538
 Leave Link  202 at Wed May 13 19:14:26 2020, MaxMem= 1073741824 cpu:       0.0
 (Enter /home/matheus/.gaussian/g09/l122.exe)
 Leave Link  122 at Wed May 13 19:14:26 2020, MaxMem= 1073741824 cpu:       0.0
 (Enter /home/matheus/.gaussian/g09/l301.exe)
 Standard basis: Aug-CC-pVTZ (5D, 7F)
 Ernie: Thresh=  0.10000D-02 Tol=  0.10000D-05 Strict=F.
 Ernie:  38 primitive shells out of 205 were deleted.
 There are   197 symmetry adapted basis functions of A   symmetry.
 Integral buffers will be    131072 words long.
 Raffenetti 2 integral format.
 Two-electron integral symmetry is turned on.
   197 basis functions,   415 primitive gaussians,   229 cartesian basis functions
    27 alpha electrons       27 beta electrons
       nuclear repulsion energy       148.3266950462 Hartrees.
 IExCor=10402 DFT=T Ex=LC-B+HF Corr=LYP ExCW=0 ScaHFX=  1.000000
 ScaDFX=  1.000000  1.000000  1.000000  1.000000 ScalE2=  1.000000  1.000000
 IRadAn=      5 IRanWt=     -1 IRanGd=            0 ICorTp=0
  HFx wShort=  0.000000 wLong=  0.470000 cFull=  0.000000 cShort=  0.000000 cLong=  1.000000
  DFx wShort=  0.000000 wLong=  0.470000 cFull=  0.000000 cShort=  0.000000 cLong=  1.000000
 NAtoms=    5 NActive=    5 NUniq=    5 SFac= 1.00D+00 NAtFMM=   60 NAOKFM=F Big=F
 Leave Link  301 at Wed May 13 19:14:26 2020, MaxMem= 1073741824 cpu:       0.2
 (Enter /home/matheus/.gaussian/g09/l302.exe)
 NPDir=0 NMtPBC=     1 NCelOv=     1 NCel=       1 NClECP=     1 NCelD=      1
         NCelK=      1 NCelE2=     1 NClLst=     1 CellRange=     0.0.
 One-electron integrals computed using PRISM.
 NBasis=   197 RedAO= T  NBF=   197
 NBsUse=   197 1.00D-06 NBFU=   197
 Precomputing XC quadrature grid using
 IXCGrd= 2 IRadAn=           5 IRanWt=          -1 IRanGd=           0 AccXCQ= 0.00D+00.
 NRdTot=     427 NPtTot=      123814 NUsed=      126881 NTot=      126913
 NSgBfM=   229   229   229   229   229 NAtAll=     5     5.
 Leave Link  302 at Wed May 13 19:14:26 2020, MaxMem= 1073741824 cpu:       1.0
 (Enter /home/matheus/.gaussian/g09/l303.exe)
 DipDrv:  MaxL=1.
 Leave Link  303 at Wed May 13 19:14:26 2020, MaxMem= 1073741824 cpu:       0.2
 (Enter /home/matheus/.gaussian/g09/l401.exe)
 Harris functional with IExCor=10402 diagonalized for initial guess.
 ExpMin= 2.53D-02 ExpMax= 1.17D+07 ExpMxC= 1.33D+04 IAcc=3 IRadAn=         5 AccDes= 0.00D+00
 HarFok:  IExCor=10402 AccDes= 0.00D+00 IRadAn=         5 IDoV= 1
 ScaDFX=  1.000000  1.000000  1.000000  1.000000
 FoFCou: FMM=F IPFlag=           0 FMFlag=      100000 FMFlg1=           0
         NFxFlg=           0 DoJE=T BraDBF=F KetDBF=T FulRan=T
         Omega=  0.000000  0.000000  1.000000  0.000000  0.000000 ICntrl=     500 IOpCl=  0
         NMat0=    1 NMatS0=    1 NMatT0=    0 NMatD0=    1 NMtDS0=    0 NMtDT0=    0
         I1Cent=           4 NGrid=           0.
 Petite list used in FoFCou.
 Harris En= -2891.66953101344    
 Initial guess orbital symmetries:
       Occupied  (A) (A) (A) (A) (A) (A) (A) (A) (A) (A) (A) (A)
                 (A) (A) (A) (A) (A) (A) (A) (A) (A) (A) (A) (A)
                 (A) (A) (A)
       Virtual   (A) (A) (A) (A) (A) (A) (A) (A) (A) (A) (A) (A)
                 (A) (A) (A) (A) (A) (A) (A) (A) (A) (A) (A) (A)
                 (A) (A) (A) (A) (A) (A) (A) (A) (A) (A) (A) (A)
                 (A) (A) (A) (A) (A) (A) (A) (A) (A) (A) (A) (A)
                 (A) (A) (A) (A) (A) (A) (A) (A) (A) (A) (A) (A)
                 (A) (A) (A) (A) (A) (A) (A) (A) (A) (A) (A) (A)
                 (A) (A) (A) (A) (A) (A) (A) (A) (A) (A) (A) (A)
                 (A) (A) (A) (A) (A) (A) (A) (A) (A) (A) (A) (A)
                 (A) (A) (A) (A) (A) (A) (A) (A) (A) (A) (A) (A)
                 (A) (A) (A) (A) (A) (A) (A) (A) (A) (A) (A) (A)
                 (A) (A) (A) (A) (A) (A) (A) (A) (A) (A) (A) (A)
                 (A) (A) (A) (A) (A) (A) (A) (A) (A) (A) (A) (A)
                 (A) (A) (A) (A) (A) (A) (A) (A) (A) (A) (A) (A)
                 (A) (A) (A) (A) (A) (A) (A) (A) (A) (A) (A) (A)
                 (A) (A)
 The electronic state of the initial guess is 1-A.
 Leave Link  401 at Wed May 13 19:14:27 2020, MaxMem= 1073741824 cpu:       4.3
 (Enter /home/matheus/.gaussian/g09/l502.exe)
 Closed shell SCF:
 Requested convergence on RMS density matrix=1.00D-08 within 128 cycles.
 Requested convergence on MAX density matrix=1.00D-06.
 Requested convergence on             energy=1.00D-06.
 No special actions if energy rises.
 Using DIIS extrapolation, IDIIS=  1040.
 Integral symmetry usage will be decided dynamically.
       126823 words used for storage of precomputed grid.
 IEnd=      305770 IEndB=      305770 NGot=  1073741824 MDV=  1073505365
 LenX=  1073505365 LenY=  1073452483
 Fock matrices will be formed incrementally for  20 cycles.

 Cycle   1  Pass 1  IDiag  1:
 FoFJK:  IHMeth= 1 ICntrl=     0 DoSepK=T KAlg= 1 I1Cent= 0 FoldK=F
 FoFCou: FMM=F IPFlag=           0 FMFlag=      100000 FMFlg1=           0
         NFxFlg=           0 DoJE=T BraDBF=F KetDBF=F FulRan=T
         Omega=  0.000000  0.000000  1.000000  0.000000  0.000000 ICntrl=     500 IOpCl=  0
         NMat0=    1 NMatS0=    1 NMatT0=    0 NMatD0=    1 NMtDS0=    0 NMtDT0=    0
         I1Cent=           0 NGrid=           0.
 Symmetry not used in FoFCou.
 E= -2904.63448212761    
 DIIS: error= 2.88D-02 at cycle   1 NSaved=   1.
 NSaved= 1 IEnMin= 1 EnMin= -2904.63448212761     IErMin= 1 ErrMin= 2.88D-02
 ErrMax= 2.88D-02 EMaxC= 1.00D-01 BMatC= 2.83D-01 BMatP= 2.83D-01
 IDIUse=3 WtCom= 7.12D-01 WtEn= 2.88D-01
 Coeff-Com:  0.100D+01
 Coeff-En:   0.100D+01
 Coeff:      0.100D+01
 Gap=     0.467 Goal=   None    Shift=    0.000
 GapD=    0.467 DampG=2.000 DampE=0.500 DampFc=1.0000 IDamp=-1.
 RMSDP=2.67D-03 MaxDP=1.52D-01              OVMax= 1.06D-01

 Cycle   2  Pass 1  IDiag  1:
 RMSU=  1.84D-03    CP:  1.02D+00
 FoFJK:  IHMeth= 1 ICntrl=     0 DoSepK=T KAlg= 1 I1Cent= 0 FoldK=F
 E= -2904.70873965551     Delta-E=       -0.074257527906 Rises=F Damp=F
 DIIS: error= 1.56D-02 at cycle   2 NSaved=   2.
 NSaved= 2 IEnMin= 2 EnMin= -2904.70873965551     IErMin= 2 ErrMin= 1.56D-02
 ErrMax= 1.56D-02 EMaxC= 1.00D-01 BMatC= 9.32D-02 BMatP= 2.83D-01
 IDIUse=3 WtCom= 8.44D-01 WtEn= 1.56D-01
 Coeff-Com:  0.360D+00 0.640D+00
 Coeff-En:   0.396D-01 0.960D+00
 Coeff:      0.310D+00 0.690D+00
 Gap=     0.432 Goal=   None    Shift=    0.000
 RMSDP=1.03D-03 MaxDP=6.27D-02 DE=-7.43D-02 OVMax= 3.18D-02

 Cycle   3  Pass 1  IDiag  1:
 RMSU=  3.28D-04    CP:  1.01D+00  6.57D-01
 FoFJK:  IHMeth= 1 ICntrl=     0 DoSepK=T KAlg= 1 I1Cent= 0 FoldK=F
 E= -2904.73952878374     Delta-E=       -0.030789128224 Rises=F Damp=F
 DIIS: error= 1.61D-03 at cycle   3 NSaved=   3.
 NSaved= 3 IEnMin= 3 EnMin= -2904.73952878374     IErMin= 3 ErrMin= 1.61D-03
 ErrMax= 1.61D-03 EMaxC= 1.00D-01 BMatC= 1.46D-03 BMatP= 9.32D-02
 IDIUse=3 WtCom= 9.84D-01 WtEn= 1.61D-02
 Coeff-Com:  0.865D-02 0.115D+00 0.876D+00
 Coeff-En:   0.000D+00 0.000D+00 0.100D+01
 Coeff:      0.851D-02 0.113D+00 0.878D+00
 Gap=     0.437 Goal=   None    Shift=    0.000
 RMSDP=1.62D-04 MaxDP=6.60D-03 DE=-3.08D-02 OVMax= 7.89D-03

 Cycle   4  Pass 1  IDiag  1:
 RMSU=  7.01D-05    CP:  1.01D+00  7.03D-01  1.10D+00
 FoFJK:  IHMeth= 1 ICntrl=     0 DoSepK=T KAlg= 1 I1Cent= 0 FoldK=F
 E= -2904.74012752949     Delta-E=       -0.000598745755 Rises=F Damp=F
 DIIS: error= 6.71D-04 at cycle   4 NSaved=   4.
 NSaved= 4 IEnMin= 4 EnMin= -2904.74012752949     IErMin= 4 ErrMin= 6.71D-04
 ErrMax= 6.71D-04 EMaxC= 1.00D-01 BMatC= 1.04D-04 BMatP= 1.46D-03
 IDIUse=3 WtCom= 9.93D-01 WtEn= 6.71D-03
 Coeff-Com: -0.121D-01 0.180D-01 0.335D+00 0.659D+00
 Coeff-En:   0.000D+00 0.000D+00 0.000D+00 0.100D+01
 Coeff:     -0.121D-01 0.179D-01 0.332D+00 0.662D+00
 Gap=     0.433 Goal=   None    Shift=    0.000
 RMSDP=3.75D-05 MaxDP=1.40D-03 DE=-5.99D-04 OVMax= 2.25D-03

 Cycle   5  Pass 1  IDiag  1:
 RMSU=  2.04D-05    CP:  1.02D+00  7.06D-01  1.15D+00  9.72D-01
 FoFJK:  IHMeth= 1 ICntrl=     0 DoSepK=T KAlg= 1 I1Cent= 0 FoldK=F
 E= -2904.74019381710     Delta-E=       -0.000066287610 Rises=F Damp=F
 DIIS: error= 1.94D-04 at cycle   5 NSaved=   5.
 NSaved= 5 IEnMin= 5 EnMin= -2904.74019381710     IErMin= 5 ErrMin= 1.94D-04
 ErrMax= 1.94D-04 EMaxC= 1.00D-01 BMatC= 9.46D-06 BMatP= 1.04D-04
 IDIUse=3 WtCom= 9.98D-01 WtEn= 1.94D-03
 Coeff-Com: -0.428D-02-0.685D-02-0.116D-02 0.210D+00 0.803D+00
 Coeff-En:   0.000D+00 0.000D+00 0.000D+00 0.000D+00 0.100D+01
 Coeff:     -0.427D-02-0.683D-02-0.116D-02 0.209D+00 0.803D+00
 Gap=     0.433 Goal=   None    Shift=    0.000
 RMSDP=1.77D-05 MaxDP=6.49D-04 DE=-6.63D-05 OVMax= 1.06D-03

 Cycle   6  Pass 1  IDiag  1:
 RMSU=  7.04D-06    CP:  1.01D+00  7.08D-01  1.17D+00  1.07D+00  1.02D+00
 FoFJK:  IHMeth= 1 ICntrl=     0 DoSepK=T KAlg= 1 I1Cent= 0 FoldK=F
 E= -2904.74020146031     Delta-E=       -0.000007643205 Rises=F Damp=F
 DIIS: error= 8.48D-05 at cycle   6 NSaved=   6.
 NSaved= 6 IEnMin= 6 EnMin= -2904.74020146031     IErMin= 6 ErrMin= 8.48D-05
 ErrMax= 8.48D-05 EMaxC= 1.00D-01 BMatC= 2.09D-06 BMatP= 9.46D-06
 IDIUse=1 WtCom= 1.00D+00 WtEn= 0.00D+00
 Coeff-Com: -0.662D-03-0.470D-02-0.303D-01 0.298D-01 0.369D+00 0.637D+00
 Coeff:     -0.662D-03-0.470D-02-0.303D-01 0.298D-01 0.369D+00 0.637D+00
 Gap=     0.434 Goal=   None    Shift=    0.000
 RMSDP=5.98D-06 MaxDP=2.08D-04 DE=-7.64D-06 OVMax= 4.00D-04

 Cycle   7  Pass 1  IDiag  1:
 RMSU=  2.47D-06    CP:  1.01D+00  7.08D-01  1.17D+00  1.10D+00  1.10D+00
                    CP:  9.42D-01
 FoFJK:  IHMeth= 1 ICntrl=     0 DoSepK=T KAlg= 1 I1Cent= 0 FoldK=F
 E= -2904.74020292779     Delta-E=       -0.000001467486 Rises=F Damp=F
 DIIS: error= 1.83D-05 at cycle   7 NSaved=   7.
 NSaved= 7 IEnMin= 7 EnMin= -2904.74020292779     IErMin= 7 ErrMin= 1.83D-05
 ErrMax= 1.83D-05 EMaxC= 1.00D-01 BMatC= 1.28D-07 BMatP= 2.09D-06
 IDIUse=1 WtCom= 1.00D+00 WtEn= 0.00D+00
 Coeff-Com:  0.160D-03-0.109D-02-0.883D-02-0.190D-01 0.830D-03 0.191D+00
 Coeff-Com:  0.837D+00
 Coeff:      0.160D-03-0.109D-02-0.883D-02-0.190D-01 0.830D-03 0.191D+00
 Coeff:      0.837D+00
 Gap=     0.434 Goal=   None    Shift=    0.000
 RMSDP=2.34D-06 MaxDP=7.49D-05 DE=-1.47D-06 OVMax= 1.19D-04

 Cycle   8  Pass 1  IDiag  1:
 RMSU=  6.01D-07    CP:  1.01D+00  7.08D-01  1.18D+00  1.11D+00  1.13D+00
                    CP:  1.05D+00  1.01D+00
 FoFJK:  IHMeth= 1 ICntrl=     0 DoSepK=T KAlg= 1 I1Cent= 0 FoldK=F
 E= -2904.74020306022     Delta-E=       -0.000000132428 Rises=F Damp=F
 DIIS: error= 3.85D-06 at cycle   8 NSaved=   8.
 NSaved= 8 IEnMin= 8 EnMin= -2904.74020306022     IErMin= 8 ErrMin= 3.85D-06
 ErrMax= 3.85D-06 EMaxC= 1.00D-01 BMatC= 2.49D-09 BMatP= 1.28D-07
 IDIUse=1 WtCom= 1.00D+00 WtEn= 0.00D+00
 Coeff-Com:  0.102D-04 0.327D-03 0.235D-02 0.251D-03-0.191D-01-0.496D-01
 Coeff-Com: -0.654D-01 0.113D+01
 Coeff:      0.102D-04 0.327D-03 0.235D-02 0.251D-03-0.191D-01-0.496D-01
 Coeff:     -0.654D-01 0.113D+01
 Gap=     0.434 Goal=   None    Shift=    0.000
 RMSDP=5.47D-07 MaxDP=1.64D-05 DE=-1.32D-07 OVMax= 4.17D-05

 Cycle   9  Pass 1  IDiag  1:
 RMSU=  1.19D-07    CP:  1.01D+00  7.08D-01  1.18D+00  1.11D+00  1.13D+00
                    CP:  1.07D+00  1.07D+00  1.34D+00
 FoFJK:  IHMeth= 1 ICntrl=     0 DoSepK=T KAlg= 1 I1Cent= 0 FoldK=F
 E= -2904.74020306691     Delta-E=       -0.000000006687 Rises=F Damp=F
 DIIS: error= 5.89D-07 at cycle   9 NSaved=   9.
 NSaved= 9 IEnMin= 9 EnMin= -2904.74020306691     IErMin= 9 ErrMin= 5.89D-07
 ErrMax= 5.89D-07 EMaxC= 1.00D-01 BMatC= 1.55D-10 BMatP= 2.49D-09
 IDIUse=1 WtCom= 1.00D+00 WtEn= 0.00D+00
 Coeff-Com: -0.283D-05 0.109D-03 0.633D-03 0.105D-02-0.829D-03-0.135D-01
 Coeff-Com: -0.514D-01 0.475D-01 0.102D+01
 Coeff:     -0.283D-05 0.109D-03 0.633D-03 0.105D-02-0.829D-03-0.135D-01
 Coeff:     -0.514D-01 0.475D-01 0.102D+01
 Gap=     0.434 Goal=   None    Shift=    0.000
 RMSDP=1.10D-07 MaxDP=2.29D-06 DE=-6.69D-09 OVMax= 8.84D-06

 Cycle  10  Pass 1  IDiag  1:
 RMSU=  4.10D-08    CP:  1.01D+00  7.08D-01  1.18D+00  1.11D+00  1.13D+00
                    CP:  1.08D+00  1.08D+00  1.42D+00  1.25D+00
 FoFJK:  IHMeth= 1 ICntrl=     0 DoSepK=T KAlg= 1 I1Cent= 0 FoldK=F
 E= -2904.74020306732     Delta-E=       -0.000000000411 Rises=F Damp=F
 DIIS: error= 2.11D-07 at cycle  10 NSaved=  10.
 NSaved=10 IEnMin=10 EnMin= -2904.74020306732     IErMin=10 ErrMin= 2.11D-07
 ErrMax= 2.11D-07 EMaxC= 1.00D-01 BMatC= 8.37D-12 BMatP= 1.55D-10
 IDIUse=1 WtCom= 1.00D+00 WtEn= 0.00D+00
 Coeff-Com:  0.392D-07-0.284D-04-0.187D-03-0.150D-03 0.974D-03 0.381D-02
 Coeff-Com:  0.106D-01-0.691D-01-0.767D-01 0.113D+01
 Coeff:      0.392D-07-0.284D-04-0.187D-03-0.150D-03 0.974D-03 0.381D-02
 Coeff:      0.106D-01-0.691D-01-0.767D-01 0.113D+01
 Gap=     0.434 Goal=   None    Shift=    0.000
 RMSDP=3.21D-08 MaxDP=5.85D-07 DE=-4.11D-10 OVMax= 2.94D-06

 Cycle  11  Pass 1  IDiag  1:
 RMSU=  9.39D-09    CP:  1.01D+00  7.08D-01  1.18D+00  1.11D+00  1.13D+00
                    CP:  1.08D+00  1.08D+00  1.42D+00  1.37D+00  1.28D+00
 FoFJK:  IHMeth= 1 ICntrl=     0 DoSepK=T KAlg= 1 I1Cent= 0 FoldK=F
 E= -2904.74020306735     Delta-E=       -0.000000000036 Rises=F Damp=F
 DIIS: error= 5.52D-08 at cycle  11 NSaved=  11.
 NSaved=11 IEnMin=11 EnMin= -2904.74020306735     IErMin=11 ErrMin= 5.52D-08
 ErrMax= 5.52D-08 EMaxC= 1.00D-01 BMatC= 6.85D-13 BMatP= 8.37D-12
 IDIUse=1 WtCom= 1.00D+00 WtEn= 0.00D+00
 Coeff-Com: -0.271D-07-0.111D-04-0.629D-04-0.862D-04 0.156D-03 0.132D-02
 Coeff-Com:  0.490D-02-0.112D-01-0.739D-01 0.804D-01 0.999D+00
 Coeff:     -0.271D-07-0.111D-04-0.629D-04-0.862D-04 0.156D-03 0.132D-02
 Coeff:      0.490D-02-0.112D-01-0.739D-01 0.804D-01 0.999D+00
 Gap=     0.434 Goal=   None    Shift=    0.000
 RMSDP=7.88D-09 MaxDP=1.71D-07 DE=-3.59D-11 OVMax= 9.11D-07

 SCF Done:  E(RLC-B+HF-LYP) =  -2904.74020307     A.U. after   11 cycles
             Convg  =    0.7879D-08             -V/T =  2.0017
 KE= 2.899821918124D+03 PE=-7.233098555824D+03 EE= 1.280209739587D+03
 Leave Link  502 at Wed May 13 19:15:03 2020, MaxMem= 1073741824 cpu:     292.0
 (Enter /home/matheus/.gaussian/g09/l601.exe)
 Copying SCF densities to generalized density rwf, IOpCl= 0 IROHF=0.

 **********************************************************************

            Population analysis using the SCF density.

 **********************************************************************

 Orbital symmetries:
       Occupied  (A) (A) (A) (A) (A) (A) (A) (A) (A) (A) (A) (A)
                 (A) (A) (A) (A) (A) (A) (A) (A) (A) (A) (A) (A)
                 (A) (A) (A)
       Virtual   (A) (A) (A) (A) (A) (A) (A) (A) (A) (A) (A) (A)
                 (A) (A) (A) (A) (A) (A) (A) (A) (A) (A) (A) (A)
                 (A) (A) (A) (A) (A) (A) (A) (A) (A) (A) (A) (A)
                 (A) (A) (A) (A) (A) (A) (A) (A) (A) (A) (A) (A)
                 (A) (A) (A) (A) (A) (A) (A) (A) (A) (A) (A) (A)
                 (A) (A) (A) (A) (A) (A) (A) (A) (A) (A) (A) (A)
                 (A) (A) (A) (A) (A) (A) (A) (A) (A) (A) (A) (A)
                 (A) (A) (A) (A) (A) (A) (A) (A) (A) (A) (A) (A)
                 (A) (A) (A) (A) (A) (A) (A) (A) (A) (A) (A) (A)
                 (A) (A) (A) (A) (A) (A) (A) (A) (A) (A) (A) (A)
                 (A) (A) (A) (A) (A) (A) (A) (A) (A) (A) (A) (A)
                 (A) (A) (A) (A) (A) (A) (A) (A) (A) (A) (A) (A)
                 (A) (A) (A) (A) (A) (A) (A) (A) (A) (A) (A) (A)
                 (A) (A) (A) (A) (A) (A) (A) (A) (A) (A) (A) (A)
                 (A) (A)
 The electronic state is 1-A.
 Alpha  occ. eigenvalues -- -511.25278 -66.72278 -60.40812 -60.40793 -60.40785
 Alpha  occ. eigenvalues --  -19.07047 -19.06663  -9.61433  -7.36930  -7.36876
 Alpha  occ. eigenvalues --   -7.36850  -3.33260  -3.33249  -3.33231  -3.33190
 Alpha  occ. eigenvalues --   -3.33188  -1.28081  -1.07410  -1.06129  -0.68533
 Alpha  occ. eigenvalues --   -0.65517  -0.56203  -0.52862  -0.52103  -0.51603
 Alpha  occ. eigenvalues --   -0.48616  -0.40692
 Alpha virt. eigenvalues --    0.02678   0.03476   0.07386   0.09398   0.09958
 Alpha virt. eigenvalues --    0.10459   0.12694   0.13819   0.15629   0.16202
 Alpha virt. eigenvalues --    0.18059   0.19233   0.19453   0.22301   0.22889
 Alpha virt. eigenvalues --    0.24024   0.26048   0.28382   0.30165   0.33384
 Alpha virt. eigenvalues --    0.33627   0.33686   0.35823   0.38440   0.39786
 Alpha virt. eigenvalues --    0.40435   0.41913   0.47729   0.52169   0.54832
 Alpha virt. eigenvalues --    0.56833   0.59388   0.64023   0.65338   0.68582
 Alpha virt. eigenvalues --    0.71348   0.71991   0.72342   0.74004   0.75742
 Alpha virt. eigenvalues --    0.77253   0.78264   0.79066   0.80373   0.81658
 Alpha virt. eigenvalues --    0.84551   0.84946   0.87699   0.88478   0.91659
 Alpha virt. eigenvalues --    0.92084   0.94176   0.95311   0.97601   0.99753
 Alpha virt. eigenvalues --    1.02832   1.04189   1.05687   1.07430   1.10007
 Alpha virt. eigenvalues --    1.12344   1.14143   1.16638   1.18061   1.19880
 Alpha virt. eigenvalues --    1.27838   1.31994   1.36016   1.40752   1.41900
 Alpha virt. eigenvalues --    1.47002   1.52541   1.52870   1.56462   1.60525
 Alpha virt. eigenvalues --    1.63203   1.77858   1.82070   1.86254   1.95068
 Alpha virt. eigenvalues --    2.00535   2.01396   2.04878   2.14970   2.15185
 Alpha virt. eigenvalues --    2.16824   2.19461   2.20618   2.21084   2.26602
 Alpha virt. eigenvalues --    2.29007   2.30957   2.32193   2.33687   2.35106
 Alpha virt. eigenvalues --    2.38976   2.40345   2.45937   2.49314   2.51318
 Alpha virt. eigenvalues --    2.51388   2.52249   2.55562   2.56591   2.58362
 Alpha virt. eigenvalues --    2.61481   2.63928   2.67737   2.69170   2.71447
 Alpha virt. eigenvalues --    2.73533   2.75966   2.78615   2.85557   2.90504
 Alpha virt. eigenvalues --    2.97367   3.08006   3.10811   3.16901   3.56191
 Alpha virt. eigenvalues --    3.74538   3.83985   3.95043   4.03987   4.05370
 Alpha virt. eigenvalues --    4.13364   4.17886   4.20264   4.24527   4.27410
 Alpha virt. eigenvalues --    4.42868   4.45738   4.54031   4.55598   4.73125
 Alpha virt. eigenvalues --    4.93417   5.02212   5.05267   5.08335   5.11910
 Alpha virt. eigenvalues --    5.37614   5.43811   5.84252   6.01634   6.08753
 Alpha virt. eigenvalues --    6.14651   6.33758   6.37100   6.44306   6.50880
 Alpha virt. eigenvalues --    6.71254   6.71740   6.76250   6.82331   6.88018
 Alpha virt. eigenvalues --    6.89344   6.92640   6.94355   6.96113   6.99992
 Alpha virt. eigenvalues --    7.04055   7.23272   7.25960   7.39624   7.63553
 Alpha virt. eigenvalues --    7.83964   8.09137   8.13950  14.03175  14.51639
          Condensed to atoms (all electrons):
              1          2          3          4          5
     1  O    8.194102  -0.166686   0.192315   0.002460  -0.033944
     2  O   -0.166686   8.173595   0.014506   0.226309  -0.012796
     3  H    0.192315   0.014506   0.587500   0.003074   0.003146
     4  H    0.002460   0.226309   0.003074   0.561475  -0.004932
     5  Kr  -0.033944  -0.012796   0.003146  -0.004932  36.036420
 Mulliken atomic charges:
              1
     1  O   -0.188248
     2  O   -0.234928
     3  H    0.199458
     4  H    0.211613
     5  Kr   0.012105
 Sum of Mulliken atomic charges =   0.00000
 Mulliken charges with hydrogens summed into heavy atoms:
              1
     1  O    0.011210
     2  O   -0.023315
     5  Kr   0.012105
 Sum of Mulliken charges with hydrogens summed into heavy atoms =   0.00000
          Condensed to fragments (all electrons):
     1      -0.012105
     2       0.012105
 Electronic spatial extent (au):  <R**2>=            492.7195
 Charge=              0.0000 electrons
 Dipole moment (field-independent basis, Debye):
    X=              0.2765    Y=             -0.3073    Z=              0.5589  Tot=              0.6952
 Quadrupole moment (field-independent basis, Debye-Ang):
   XX=            -27.0015   YY=            -28.6818   ZZ=            -30.8021
   XY=              3.9349   XZ=             -1.7582   YZ=             -0.5897
 Traceless Quadrupole moment (field-independent basis, Debye-Ang):
   XX=              1.8270   YY=              0.1467   ZZ=             -1.9736
   XY=              3.9349   XZ=             -1.7582   YZ=             -0.5897
 Octapole moment (field-independent basis, Debye-Ang**2):
  XXX=              2.4290  YYY=             -0.7127  ZZZ=              0.2371  XYY=              4.7356
  XXY=            -16.5088  XXZ=              5.2587  XZZ=              8.5457  YZZ=             -0.4839
  YYZ=              0.6994  XYZ=              1.8230
 Hexadecapole moment (field-independent basis, Debye-Ang**3):
 XXXX=           -354.2090 YYYY=            -65.8488 ZZZZ=            -30.7884 XXXY=             51.5565
 XXXZ=            -15.9578 YYYX=              5.7935 YYYZ=             -0.7360 ZZZX=             -0.7806
 ZZZY=             -0.3479 XXYY=            -76.8750 XXZZ=            -80.2220 YYZZ=            -17.9307
 XXYZ=             -5.4869 YYXZ=             -2.0439 ZZXY=              0.8492
 N-N= 1.483266950462D+02 E-N=-7.233098551020D+03  KE= 2.899821918124D+03
 No NMR shielding tensors so no spin-rotation constants.
 Leave Link  601 at Wed May 13 19:15:03 2020, MaxMem= 1073741824 cpu:       0.8
 (Enter /home/matheus/.gaussian/g09/l122.exe)
 Counterpoise: doing DCBS calculation for fragment   1 NewBq=T
 Leave Link  122 at Wed May 13 19:15:03 2020, MaxMem= 1073741824 cpu:       0.0
 (Enter /home/matheus/.gaussian/g09/l301.exe)
 Basis read from rwf:  (5D, 7F)
 No pseudopotential information found on rwf file.
 There are   197 symmetry adapted basis functions of A   symmetry.
 Integral buffers will be    131072 words long.
 Raffenetti 2 integral format.
 Two-electron integral symmetry is turned on.
   197 basis functions,   415 primitive gaussians,   229 cartesian basis functions
     9 alpha electrons        9 beta electrons
       nuclear repulsion energy        36.6019262901 Hartrees.
 IExCor=10402 DFT=T Ex=LC-B+HF Corr=LYP ExCW=0 ScaHFX=  1.000000
 ScaDFX=  1.000000  1.000000  1.000000  1.000000 ScalE2=  1.000000  1.000000
 IRadAn=      5 IRanWt=     -1 IRanGd=            0 ICorTp=0
  HFx wShort=  0.000000 wLong=  0.470000 cFull=  0.000000 cShort=  0.000000 cLong=  1.000000
  DFx wShort=  0.000000 wLong=  0.470000 cFull=  0.000000 cShort=  0.000000 cLong=  1.000000
 NAtoms=    5 NActive=    5 NUniq=    5 SFac= 1.00D+00 NAtFMM=   60 NAOKFM=F Big=F
 No density basis found on file   718.
 Leave Link  301 at Wed May 13 19:15:03 2020, MaxMem= 1073741824 cpu:       0.2
 (Enter /home/matheus/.gaussian/g09/l302.exe)
 NPDir=0 NMtPBC=     1 NCelOv=     1 NCel=       1 NClECP=     1 NCelD=      1
         NCelK=      1 NCelE2=     1 NClLst=     1 CellRange=     0.0.
 One-electron integrals computed using PRISM.
 NBasis=   197 RedAO= T  NBF=   197
 NBsUse=   197 1.00D-06 NBFU=   197
 Precomputing XC quadrature grid using
 IXCGrd= 2 IRadAn=           5 IRanWt=          -1 IRanGd=           0 AccXCQ= 0.00D+00.
 NRdTot=     427 NPtTot=      123814 NUsed=      126881 NTot=      126913
 NSgBfM=   229   229   229   229   229 NAtAll=     5     5.
 Leave Link  302 at Wed May 13 19:15:04 2020, MaxMem= 1073741824 cpu:       1.0
 (Enter /home/matheus/.gaussian/g09/l303.exe)
 DipDrv:  MaxL=1.
 Leave Link  303 at Wed May 13 19:15:04 2020, MaxMem= 1073741824 cpu:       0.2
 (Enter /home/matheus/.gaussian/g09/l401.exe)
 Harris functional with IExCor=10402 diagonalized for initial guess.
 ExpMin= 2.53D-02 ExpMax= 1.17D+07 ExpMxC= 1.33D+04 IAcc=3 IRadAn=         5 AccDes= 0.00D+00
 HarFok:  IExCor=10402 AccDes= 0.00D+00 IRadAn=         5 IDoV= 1
 ScaDFX=  1.000000  1.000000  1.000000  1.000000
 FoFCou: FMM=F IPFlag=           0 FMFlag=      100000 FMFlg1=           0
         NFxFlg=           0 DoJE=T BraDBF=F KetDBF=T FulRan=T
         Omega=  0.000000  0.000000  1.000000  0.000000  0.000000 ICntrl=     500 IOpCl=  0
         NMat0=    1 NMatS0=    1 NMatT0=    0 NMatD0=    1 NMtDS0=    0 NMtDT0=    0
         I1Cent=           4 NGrid=           0.
 Petite list used in FoFCou.
 Harris En= -147.162796276629    
 Initial guess orbital symmetries:
       Occupied  (A) (A) (A) (A) (A) (A) (A) (A) (A)
       Virtual   (A) (A) (A) (A) (A) (A) (A) (A) (A) (A) (A) (A)
                 (A) (A) (A) (A) (A) (A) (A) (A) (A) (A) (A) (A)
                 (A) (A) (A) (A) (A) (A) (A) (A) (A) (A) (A) (A)
                 (A) (A) (A) (A) (A) (A) (A) (A) (A) (A) (A) (A)
                 (A) (A) (A) (A) (A) (A) (A) (A) (A) (A) (A) (A)
                 (A) (A) (A) (A) (A) (A) (A) (A) (A) (A) (A) (A)
                 (A) (A) (A) (A) (A) (A) (A) (A) (A) (A) (A) (A)
                 (A) (A) (A) (A) (A) (A) (A) (A) (A) (A) (A) (A)
                 (A) (A) (A) (A) (A) (A) (A) (A) (A) (A) (A) (A)
                 (A) (A) (A) (A) (A) (A) (A) (A) (A) (A) (A) (A)
                 (A) (A) (A) (A) (A) (A) (A) (A) (A) (A) (A) (A)
                 (A) (A) (A) (A) (A) (A) (A) (A) (A) (A) (A) (A)
                 (A) (A) (A) (A) (A) (A) (A) (A) (A) (A) (A) (A)
                 (A) (A) (A) (A) (A) (A) (A) (A) (A) (A) (A) (A)
                 (A) (A) (A) (A) (A) (A) (A) (A) (A) (A) (A) (A)
                 (A) (A) (A) (A) (A) (A) (A) (A)
 The electronic state of the initial guess is 1-A.
 Leave Link  401 at Wed May 13 19:15:04 2020, MaxMem= 1073741824 cpu:       4.1
 (Enter /home/matheus/.gaussian/g09/l502.exe)
 Closed shell SCF:
 Requested convergence on RMS density matrix=1.00D-08 within 128 cycles.
 Requested convergence on MAX density matrix=1.00D-06.
 Requested convergence on             energy=1.00D-06.
 No special actions if energy rises.
 Using DIIS extrapolation, IDIIS=  1040.
 Integral symmetry usage will be decided dynamically.
       126823 words used for storage of precomputed grid.
 IEnd=      305770 IEndB=      305770 NGot=  1073741824 MDV=  1073505365
 LenX=  1073505365 LenY=  1073452483
 Fock matrices will be formed incrementally for  20 cycles.

 Cycle   1  Pass 1  IDiag  1:
 FoFJK:  IHMeth= 1 ICntrl=     0 DoSepK=T KAlg= 1 I1Cent= 0 FoldK=F
 FoFCou: FMM=F IPFlag=           0 FMFlag=      100000 FMFlg1=           0
         NFxFlg=           0 DoJE=T BraDBF=F KetDBF=F FulRan=T
         Omega=  0.000000  0.000000  1.000000  0.000000  0.000000 ICntrl=     500 IOpCl=  0
         NMat0=    1 NMatS0=    1 NMatT0=    0 NMatD0=    1 NMtDS0=    0 NMtDT0=    0
         I1Cent=           0 NGrid=           0.
 Symmetry not used in FoFCou.
 E= -151.303685310903    
 DIIS: error= 8.35D-03 at cycle   1 NSaved=   1.
 NSaved= 1 IEnMin= 1 EnMin= -151.303685310903     IErMin= 1 ErrMin= 8.35D-03
 ErrMax= 8.35D-03 EMaxC= 1.00D-01 BMatC= 2.08D-02 BMatP= 2.08D-02
 IDIUse=3 WtCom= 9.16D-01 WtEn= 8.35D-02
 Coeff-Com:  0.100D+01
 Coeff-En:   0.100D+01
 Coeff:      0.100D+01
 Gap=     0.465 Goal=   None    Shift=    0.000
 GapD=    0.465 DampG=2.000 DampE=1.000 DampFc=2.0000 IDamp=-1.
 RMSDP=8.40D-04 MaxDP=2.95D-02              OVMax= 5.51D-02

 Cycle   2  Pass 1  IDiag  1:
 RMSU=  5.94D-04    CP:  1.00D+00
 FoFJK:  IHMeth= 1 ICntrl=     0 DoSepK=T KAlg= 1 I1Cent= 0 FoldK=F
 E= -151.320741846727     Delta-E=       -0.017056535824 Rises=F Damp=F
 DIIS: error= 4.88D-03 at cycle   2 NSaved=   2.
 NSaved= 2 IEnMin= 2 EnMin= -151.320741846727     IErMin= 2 ErrMin= 4.88D-03
 ErrMax= 4.88D-03 EMaxC= 1.00D-01 BMatC= 5.03D-03 BMatP= 2.08D-02
 IDIUse=3 WtCom= 9.51D-01 WtEn= 4.88D-02
 Coeff-Com:  0.280D+00 0.720D+00
 Coeff-En:   0.000D+00 0.100D+01
 Coeff:      0.266D+00 0.734D+00
 Gap=     0.425 Goal=   None    Shift=    0.000
 RMSDP=2.13D-04 MaxDP=6.75D-03 DE=-1.71D-02 OVMax= 1.46D-02

 Cycle   3  Pass 1  IDiag  1:
 RMSU=  1.50D-04    CP:  1.00D+00  1.01D+00
 FoFJK:  IHMeth= 1 ICntrl=     0 DoSepK=T KAlg= 1 I1Cent= 0 FoldK=F
 E= -151.323626897791     Delta-E=       -0.002885051064 Rises=F Damp=F
 DIIS: error= 1.57D-03 at cycle   3 NSaved=   3.
 NSaved= 3 IEnMin= 3 EnMin= -151.323626897791     IErMin= 3 ErrMin= 1.57D-03
 ErrMax= 1.57D-03 EMaxC= 1.00D-01 BMatC= 5.83D-04 BMatP= 5.03D-03
 IDIUse=3 WtCom= 9.84D-01 WtEn= 1.57D-02
 Coeff-Com:  0.106D-01 0.239D+00 0.751D+00
 Coeff-En:   0.000D+00 0.000D+00 0.100D+01
 Coeff:      0.104D-01 0.235D+00 0.755D+00
 Gap=     0.435 Goal=   None    Shift=    0.000
 RMSDP=1.08D-04 MaxDP=3.94D-03 DE=-2.89D-03 OVMax= 7.70D-03

 Cycle   4  Pass 1  IDiag  1:
 RMSU=  5.27D-05    CP:  1.00D+00  1.10D+00  9.67D-01
 FoFJK:  IHMeth= 1 ICntrl=     0 DoSepK=T KAlg= 1 I1Cent= 0 FoldK=F
 E= -151.324074266367     Delta-E=       -0.000447368576 Rises=F Damp=F
 DIIS: error= 2.70D-04 at cycle   4 NSaved=   4.
 NSaved= 4 IEnMin= 4 EnMin= -151.324074266367     IErMin= 4 ErrMin= 2.70D-04
 ErrMax= 2.70D-04 EMaxC= 1.00D-01 BMatC= 2.56D-05 BMatP= 5.83D-04
 IDIUse=3 WtCom= 9.97D-01 WtEn= 2.70D-03
 Coeff-Com: -0.210D-01-0.305D-01 0.110D+00 0.941D+00
 Coeff-En:   0.000D+00 0.000D+00 0.000D+00 0.100D+01
 Coeff:     -0.209D-01-0.304D-01 0.110D+00 0.941D+00
 Gap=     0.433 Goal=   None    Shift=    0.000
 RMSDP=3.93D-05 MaxDP=1.57D-03 DE=-4.47D-04 OVMax= 1.97D-03

 Cycle   5  Pass 1  IDiag  1:
 RMSU=  9.10D-06    CP:  1.00D+00  1.13D+00  1.08D+00  1.18D+00
 FoFJK:  IHMeth= 1 ICntrl=     0 DoSepK=T KAlg= 1 I1Cent= 0 FoldK=F
 E= -151.324102728900     Delta-E=       -0.000028462533 Rises=F Damp=F
 DIIS: error= 4.28D-05 at cycle   5 NSaved=   5.
 NSaved= 5 IEnMin= 5 EnMin= -151.324102728900     IErMin= 5 ErrMin= 4.28D-05
 ErrMax= 4.28D-05 EMaxC= 1.00D-01 BMatC= 4.15D-07 BMatP= 2.56D-05
 IDIUse=1 WtCom= 1.00D+00 WtEn= 0.00D+00
 Coeff-Com:  0.572D-03-0.696D-02-0.348D-01-0.486D-01 0.109D+01
 Coeff:      0.572D-03-0.696D-02-0.348D-01-0.486D-01 0.109D+01
 Gap=     0.433 Goal=   None    Shift=    0.000
 RMSDP=1.02D-05 MaxDP=4.12D-04 DE=-2.85D-05 OVMax= 6.22D-04

 Cycle   6  Pass 1  IDiag  1:
 RMSU=  1.65D-06    CP:  1.00D+00  1.13D+00  1.10D+00  1.27D+00  1.26D+00
 FoFJK:  IHMeth= 1 ICntrl=     0 DoSepK=T KAlg= 1 I1Cent= 0 FoldK=F
 E= -151.324103951409     Delta-E=       -0.000001222509 Rises=F Damp=F
 DIIS: error= 1.17D-05 at cycle   6 NSaved=   6.
 NSaved= 6 IEnMin= 6 EnMin= -151.324103951409     IErMin= 6 ErrMin= 1.17D-05
 ErrMax= 1.17D-05 EMaxC= 1.00D-01 BMatC= 2.01D-08 BMatP= 4.15D-07
 IDIUse=1 WtCom= 1.00D+00 WtEn= 0.00D+00
 Coeff-Com:  0.455D-03 0.102D-02-0.244D-02-0.253D-01-0.138D-01 0.104D+01
 Coeff:      0.455D-03 0.102D-02-0.244D-02-0.253D-01-0.138D-01 0.104D+01
 Gap=     0.433 Goal=   None    Shift=    0.000
 RMSDP=1.51D-06 MaxDP=4.61D-05 DE=-1.22D-06 OVMax= 1.04D-04

 Cycle   7  Pass 1  IDiag  1:
 RMSU=  3.83D-07    CP:  1.00D+00  1.13D+00  1.10D+00  1.28D+00  1.30D+00
                    CP:  1.29D+00
 FoFJK:  IHMeth= 1 ICntrl=     0 DoSepK=T KAlg= 1 I1Cent= 0 FoldK=F
 E= -151.324104003049     Delta-E=       -0.000000051640 Rises=F Damp=F
 DIIS: error= 2.83D-06 at cycle   7 NSaved=   7.
 NSaved= 7 IEnMin= 7 EnMin= -151.324104003049     IErMin= 7 ErrMin= 2.83D-06
 ErrMax= 2.83D-06 EMaxC= 1.00D-01 BMatC= 1.82D-09 BMatP= 2.01D-08
 IDIUse=1 WtCom= 1.00D+00 WtEn= 0.00D+00
 Coeff-Com:  0.165D-04 0.435D-03 0.135D-02 0.853D-04-0.522D-01 0.943D-02
 Coeff-Com:  0.104D+01
 Coeff:      0.165D-04 0.435D-03 0.135D-02 0.853D-04-0.522D-01 0.943D-02
 Coeff:      0.104D+01
 Gap=     0.433 Goal=   None    Shift=    0.000
 RMSDP=3.34D-07 MaxDP=7.40D-06 DE=-5.16D-08 OVMax= 3.37D-05

 Cycle   8  Pass 1  IDiag  1:
 RMSU=  1.39D-07    CP:  1.00D+00  1.13D+00  1.10D+00  1.28D+00  1.30D+00
                    CP:  1.39D+00  1.18D+00
 FoFJK:  IHMeth= 1 ICntrl=     0 DoSepK=T KAlg= 1 I1Cent= 0 FoldK=F
 E= -151.324104006687     Delta-E=       -0.000000003638 Rises=F Damp=F
 DIIS: error= 2.51D-06 at cycle   8 NSaved=   8.
 NSaved= 8 IEnMin= 8 EnMin= -151.324104006687     IErMin= 8 ErrMin= 2.51D-06
 ErrMax= 2.51D-06 EMaxC= 1.00D-01 BMatC= 1.43D-09 BMatP= 1.82D-09
 IDIUse=1 WtCom= 1.00D+00 WtEn= 0.00D+00
 Coeff-Com: -0.231D-04 0.174D-03 0.886D-03 0.185D-02-0.263D-01-0.827D-01
 Coeff-Com:  0.580D+00 0.526D+00
 Coeff:     -0.231D-04 0.174D-03 0.886D-03 0.185D-02-0.263D-01-0.827D-01
 Coeff:      0.580D+00 0.526D+00
 Gap=     0.433 Goal=   None    Shift=    0.000
 RMSDP=9.97D-08 MaxDP=2.91D-06 DE=-3.64D-09 OVMax= 9.16D-06

 Cycle   9  Pass 1  IDiag  1:
 RMSU=  5.67D-08    CP:  1.00D+00  1.13D+00  1.10D+00  1.28D+00  1.30D+00
                    CP:  1.40D+00  1.26D+00  8.82D-01
 FoFJK:  IHMeth= 1 ICntrl=     0 DoSepK=T KAlg= 1 I1Cent= 0 FoldK=F
 E= -151.324104007693     Delta-E=       -0.000000001007 Rises=F Damp=F
 DIIS: error= 4.40D-07 at cycle   9 NSaved=   9.
 NSaved= 9 IEnMin= 9 EnMin= -151.324104007693     IErMin= 9 ErrMin= 4.40D-07
 ErrMax= 4.40D-07 EMaxC= 1.00D-01 BMatC= 2.72D-11 BMatP= 1.43D-09
 IDIUse=1 WtCom= 1.00D+00 WtEn= 0.00D+00
 Coeff-Com:  0.121D-05-0.385D-04-0.241D-03-0.266D-03 0.893D-02-0.171D-02
 Coeff-Com: -0.165D+00-0.215D-01 0.118D+01
 Coeff:      0.121D-05-0.385D-04-0.241D-03-0.266D-03 0.893D-02-0.171D-02
 Coeff:     -0.165D+00-0.215D-01 0.118D+01
 Gap=     0.433 Goal=   None    Shift=    0.000
 RMSDP=5.67D-08 MaxDP=1.46D-06 DE=-1.01D-09 OVMax= 4.71D-06

 Cycle  10  Pass 1  IDiag  1:
 RMSU=  1.28D-08    CP:  1.00D+00  1.13D+00  1.10D+00  1.28D+00  1.30D+00
                    CP:  1.40D+00  1.29D+00  1.05D+00  1.27D+00
 FoFJK:  IHMeth= 1 ICntrl=     0 DoSepK=T KAlg= 1 I1Cent= 0 FoldK=F
 E= -151.324104007772     Delta-E=       -0.000000000079 Rises=F Damp=F
 DIIS: error= 6.24D-08 at cycle  10 NSaved=  10.
 NSaved=10 IEnMin=10 EnMin= -151.324104007772     IErMin=10 ErrMin= 6.24D-08
 ErrMax= 6.24D-08 EMaxC= 1.00D-01 BMatC= 7.36D-13 BMatP= 2.72D-11
 IDIUse=1 WtCom= 1.00D+00 WtEn= 0.00D+00
 Coeff-Com:  0.119D-05-0.293D-05-0.255D-04-0.104D-03 0.806D-03 0.259D-02
 Coeff-Com: -0.117D-01-0.176D-01-0.727D-01 0.110D+01
 Coeff:      0.119D-05-0.293D-05-0.255D-04-0.104D-03 0.806D-03 0.259D-02
 Coeff:     -0.117D-01-0.176D-01-0.727D-01 0.110D+01
 Gap=     0.433 Goal=   None    Shift=    0.000
 RMSDP=8.91D-09 MaxDP=1.93D-07 DE=-7.92D-11 OVMax= 1.04D-06

 SCF Done:  E(RLC-B+HF-LYP) =  -151.324104008     A.U. after   10 cycles
             Convg  =    0.8910D-08             -V/T =  2.0058
 KE= 1.504570127204D+02 PE=-4.313898173304D+02 EE= 9.300677431208D+01
 Leave Link  502 at Wed May 13 19:15:35 2020, MaxMem= 1073741824 cpu:     243.3
 (Enter /home/matheus/.gaussian/g09/l601.exe)
 Copying SCF densities to generalized density rwf, IOpCl= 0 IROHF=0.

 **********************************************************************

            Population analysis using the SCF density.

 **********************************************************************

 Orbital symmetries:
       Occupied  (A) (A) (A) (A) (A) (A) (A) (A) (A)
       Virtual   (A) (A) (A) (A) (A) (A) (A) (A) (A) (A) (A) (A)
                 (A) (A) (A) (A) (A) (A) (A) (A) (A) (A) (A) (A)
                 (A) (A) (A) (A) (A) (A) (A) (A) (A) (A) (A) (A)
                 (A) (A) (A) (A) (A) (A) (A) (A) (A) (A) (A) (A)
                 (A) (A) (A) (A) (A) (A) (A) (A) (A) (A) (A) (A)
                 (A) (A) (A) (A) (A) (A) (A) (A) (A) (A) (A) (A)
                 (A) (A) (A) (A) (A) (A) (A) (A) (A) (A) (A) (A)
                 (A) (A) (A) (A) (A) (A) (A) (A) (A) (A) (A) (A)
                 (A) (A) (A) (A) (A) (A) (A) (A) (A) (A) (A) (A)
                 (A) (A) (A) (A) (A) (A) (A) (A) (A) (A) (A) (A)
                 (A) (A) (A) (A) (A) (A) (A) (A) (A) (A) (A) (A)
                 (A) (A) (A) (A) (A) (A) (A) (A) (A) (A) (A) (A)
                 (A) (A) (A) (A) (A) (A) (A) (A) (A) (A) (A) (A)
                 (A) (A) (A) (A) (A) (A) (A) (A) (A) (A) (A) (A)
                 (A) (A) (A) (A) (A) (A) (A) (A) (A) (A) (A) (A)
                 (A) (A) (A) (A) (A) (A) (A) (A)
 The electronic state is 1-A.
 Alpha  occ. eigenvalues --  -19.07219 -19.07219  -1.28290  -1.06592  -0.68666
 Alpha  occ. eigenvalues --   -0.65028  -0.56282  -0.49232  -0.40947
 Alpha virt. eigenvalues --    0.02314   0.03054   0.06761   0.08623   0.09854
 Alpha virt. eigenvalues --    0.10212   0.10538   0.13239   0.15869   0.16057
 Alpha virt. eigenvalues --    0.18325   0.18605   0.20300   0.22487   0.25171
 Alpha virt. eigenvalues --    0.26294   0.28920   0.30112   0.30728   0.32610
 Alpha virt. eigenvalues --    0.35519   0.37383   0.38311   0.39076   0.41071
 Alpha virt. eigenvalues --    0.42266   0.43249   0.47043   0.48240   0.48844
 Alpha virt. eigenvalues --    0.54065   0.57099   0.59815   0.65063   0.67514
 Alpha virt. eigenvalues --    0.69384   0.73486   0.74116   0.75065   0.75906
 Alpha virt. eigenvalues --    0.78168   0.82019   0.84932   0.86914   0.89894
 Alpha virt. eigenvalues --    0.90569   0.92337   0.94694   0.97065   0.98928
 Alpha virt. eigenvalues --    0.99614   1.03758   1.04518   1.08672   1.12069
 Alpha virt. eigenvalues --    1.12907   1.15119   1.16815   1.19380   1.23323
 Alpha virt. eigenvalues --    1.24942   1.29760   1.31699   1.32563   1.33270
 Alpha virt. eigenvalues --    1.33700   1.34157   1.36064   1.37212   1.44002
 Alpha virt. eigenvalues --    1.47808   1.49966   1.53315   1.53771   1.56231
 Alpha virt. eigenvalues --    1.57709   1.64526   1.67320   1.72075   1.79907
 Alpha virt. eigenvalues --    1.82317   1.84000   1.89438   1.98325   2.02907
 Alpha virt. eigenvalues --    2.03676   2.07576   2.17055   2.17481   2.22567
 Alpha virt. eigenvalues --    2.27079   2.29060   2.33400   2.37306   2.44743
 Alpha virt. eigenvalues --    2.50369   2.55980   2.57446   2.59306   2.67917
 Alpha virt. eigenvalues --    2.70485   2.73214   2.78132   2.86712   2.94778
 Alpha virt. eigenvalues --    3.07141   3.10317   3.12921   3.25687   3.30127
 Alpha virt. eigenvalues --    3.40679   3.51804   3.59852   3.71582   3.77965
 Alpha virt. eigenvalues --    3.78830   3.80605   3.81940   3.82296   3.83121
 Alpha virt. eigenvalues --    3.89184   3.89299   3.91161   3.92845   3.94854
 Alpha virt. eigenvalues --    3.98333   4.04083   4.08091   4.11107   4.13089
 Alpha virt. eigenvalues --    4.14607   4.21654   4.23572   4.30347   4.36111
 Alpha virt. eigenvalues --    4.44397   4.49489   4.57703   4.73460   4.93663
 Alpha virt. eigenvalues --    5.02584   5.05667   5.08563   5.12174   5.37988
 Alpha virt. eigenvalues --    5.43706   5.84146   6.01471   6.08582   6.14368
 Alpha virt. eigenvalues --    6.33669   6.37025   6.44151   6.50712   6.71087
 Alpha virt. eigenvalues --    6.71497   6.76031   6.82147   6.87830   6.89154
 Alpha virt. eigenvalues --    6.92224   6.94092   6.95852   6.99749   7.03892
 Alpha virt. eigenvalues --    7.23038   7.25910   7.39411   7.63302   7.83725
 Alpha virt. eigenvalues --    8.08962   8.13491  10.88275  14.03204  14.50206
 Alpha virt. eigenvalues --   14.83166  14.88266  15.10681  29.02887  29.03459
 Alpha virt. eigenvalues --   29.07751  29.13535  29.23015  49.10086 148.31224
 Alpha virt. eigenvalues --  148.38789 148.71797 752.49430
          Condensed to atoms (all electrons):
              1          2          3          4          5
     1  O    8.187539  -0.163486   0.185624  -0.000606  -0.002909
     2  O   -0.163486   8.151268   0.014351   0.220538   0.000955
     3  H    0.185624   0.014351   0.589436   0.004484   0.000664
     4  H   -0.000606   0.220538   0.004484   0.561420  -0.004891
     5  Kr  -0.002909   0.000955   0.000664  -0.004891   0.000889
 Mulliken atomic charges:
              1
     1  O   -0.206162
     2  O   -0.223627
     3  H    0.205441
     4  H    0.219055
     5  Kr   0.005293
 Sum of Mulliken atomic charges =   0.00000
 Mulliken charges with hydrogens summed into heavy atoms:
              1
     1  O   -0.000721
     2  O   -0.004572
     5  Kr   0.005293
 Sum of Mulliken charges with hydrogens summed into heavy atoms =   0.00000
          Condensed to fragments (all electrons):
     1      -0.005293
     2       0.005293
 Electronic spatial extent (au):  <R**2>=            324.9023
 Charge=              0.0000 electrons
 Dipole moment (field-independent basis, Debye):
    X=              0.0962    Y=             -0.0187    Z=              0.5721  Tot=              0.5805
 Quadrupole moment (field-independent basis, Debye-Ang):
   XX=             -9.2244   YY=            -10.9600   ZZ=            -13.1477
   XY=              4.1082   XZ=             -1.7464   YZ=             -0.5873
 Traceless Quadrupole moment (field-independent basis, Debye-Ang):
   XX=              1.8863   YY=              0.1507   ZZ=             -2.0370
   XY=              4.1082   XZ=             -1.7464   YZ=             -0.5873
 Octapole moment (field-independent basis, Debye-Ang**2):
  XXX=             54.4396  YYY=             -1.2897  ZZZ=              0.3619  XYY=             22.2738
  XXY=            -16.4503  XXZ=              5.3114  XZZ=             26.1446  YZZ=             -0.6762
  YYZ=              0.7396  XYZ=              1.8213
 Hexadecapole moment (field-independent basis, Debye-Ang**3):
 XXXX=           -227.8993 YYYY=            -47.0819 ZZZZ=            -12.1710 XXXY=             50.8121
 XXXZ=            -15.8348 YYYX=              5.1866 YYYZ=             -0.7326 ZZZX=             -0.6542
 ZZZY=             -0.3446 XXYY=            -52.7645 XXZZ=            -56.2813 YYZZ=            -11.6941
 XXYZ=             -5.4883 YYXZ=             -1.9996 ZZXY=              0.6088
 N-N= 3.660192629008D+01 E-N=-4.313898171283D+02  KE= 1.504570127204D+02
 No NMR shielding tensors so no spin-rotation constants.
 Leave Link  601 at Wed May 13 19:15:35 2020, MaxMem= 1073741824 cpu:       0.7
 (Enter /home/matheus/.gaussian/g09/l122.exe)
 Counterpoise: doing DCBS calculation for fragment   2 NewBq=T
 Leave Link  122 at Wed May 13 19:15:35 2020, MaxMem= 1073741824 cpu:       0.0
 (Enter /home/matheus/.gaussian/g09/l301.exe)
 Basis read from rwf:  (5D, 7F)
 No pseudopotential information found on rwf file.
 There are   197 symmetry adapted basis functions of A   symmetry.
 Integral buffers will be    131072 words long.
 Raffenetti 2 integral format.
 Two-electron integral symmetry is turned on.
   197 basis functions,   415 primitive gaussians,   229 cartesian basis functions
    18 alpha electrons       18 beta electrons
       nuclear repulsion energy         0.0000000000 Hartrees.
 IExCor=10402 DFT=T Ex=LC-B+HF Corr=LYP ExCW=0 ScaHFX=  1.000000
 ScaDFX=  1.000000  1.000000  1.000000  1.000000 ScalE2=  1.000000  1.000000
 IRadAn=      5 IRanWt=     -1 IRanGd=            0 ICorTp=0
  HFx wShort=  0.000000 wLong=  0.470000 cFull=  0.000000 cShort=  0.000000 cLong=  1.000000
  DFx wShort=  0.000000 wLong=  0.470000 cFull=  0.000000 cShort=  0.000000 cLong=  1.000000
 NAtoms=    5 NActive=    5 NUniq=    5 SFac= 1.00D+00 NAtFMM=   60 NAOKFM=F Big=F
 No density basis found on file   718.
 Leave Link  301 at Wed May 13 19:15:35 2020, MaxMem= 1073741824 cpu:       0.2
 (Enter /home/matheus/.gaussian/g09/l302.exe)
 NPDir=0 NMtPBC=     1 NCelOv=     1 NCel=       1 NClECP=     1 NCelD=      1
         NCelK=      1 NCelE2=     1 NClLst=     1 CellRange=     0.0.
 One-electron integrals computed using PRISM.
 NBasis=   197 RedAO= T  NBF=   197
 NBsUse=   197 1.00D-06 NBFU=   197
 Precomputing XC quadrature grid using
 IXCGrd= 2 IRadAn=           5 IRanWt=          -1 IRanGd=           0 AccXCQ= 0.00D+00.
 NRdTot=     427 NPtTot=      123814 NUsed=      126881 NTot=      126913
 NSgBfM=   229   229   229   229   229 NAtAll=     5     5.
 Leave Link  302 at Wed May 13 19:15:35 2020, MaxMem= 1073741824 cpu:       1.0
 (Enter /home/matheus/.gaussian/g09/l303.exe)
 DipDrv:  MaxL=1.
 Leave Link  303 at Wed May 13 19:15:35 2020, MaxMem= 1073741824 cpu:       0.2
 (Enter /home/matheus/.gaussian/g09/l401.exe)
 Harris functional with IExCor=10402 diagonalized for initial guess.
 ExpMin= 2.53D-02 ExpMax= 1.17D+07 ExpMxC= 1.33D+04 IAcc=3 IRadAn=         5 AccDes= 0.00D+00
 HarFok:  IExCor=10402 AccDes= 0.00D+00 IRadAn=         5 IDoV= 1
 ScaDFX=  1.000000  1.000000  1.000000  1.000000
 FoFCou: FMM=F IPFlag=           0 FMFlag=      100000 FMFlg1=           0
         NFxFlg=           0 DoJE=T BraDBF=F KetDBF=T FulRan=T
         Omega=  0.000000  0.000000  1.000000  0.000000  0.000000 ICntrl=     500 IOpCl=  0
         NMat0=    1 NMatS0=    1 NMatT0=    0 NMatD0=    1 NMtDS0=    0 NMtDT0=    0
         I1Cent=           4 NGrid=           0.
 Petite list used in FoFCou.
 Harris En= -2744.51538380144    
 Initial guess orbital symmetries:
       Occupied  (A) (A) (A) (A) (A) (A) (A) (A) (A) (A) (A) (A)
                 (A) (A) (A) (A) (A) (A)
       Virtual   (A) (A) (A) (A) (A) (A) (A) (A) (A) (A) (A) (A)
                 (A) (A) (A) (A) (A) (A) (A) (A) (A) (A) (A) (A)
                 (A) (A) (A) (A) (A) (A) (A) (A) (A) (A) (A) (A)
                 (A) (A) (A) (A) (A) (A) (A) (A) (A) (A) (A) (A)
                 (A) (A) (A) (A) (A) (A) (A) (A) (A) (A) (A) (A)
                 (A) (A) (A) (A) (A) (A) (A) (A) (A) (A) (A) (A)
                 (A) (A) (A) (A) (A) (A) (A) (A) (A) (A) (A) (A)
                 (A) (A) (A) (A) (A) (A) (A) (A) (A) (A) (A) (A)
                 (A) (A) (A) (A) (A) (A) (A) (A) (A) (A) (A) (A)
                 (A) (A) (A) (A) (A) (A) (A) (A) (A) (A) (A) (A)
                 (A) (A) (A) (A) (A) (A) (A) (A) (A) (A) (A) (A)
                 (A) (A) (A) (A) (A) (A) (A) (A) (A) (A) (A) (A)
                 (A) (A) (A) (A) (A) (A) (A) (A) (A) (A) (A) (A)
                 (A) (A) (A) (A) (A) (A) (A) (A) (A) (A) (A) (A)
                 (A) (A) (A) (A) (A) (A) (A) (A) (A) (A) (A)
 The electronic state of the initial guess is 1-A.
 Leave Link  401 at Wed May 13 19:15:35 2020, MaxMem= 1073741824 cpu:       3.7
 (Enter /home/matheus/.gaussian/g09/l502.exe)
 Closed shell SCF:
 Requested convergence on RMS density matrix=1.00D-08 within 128 cycles.
 Requested convergence on MAX density matrix=1.00D-06.
 Requested convergence on             energy=1.00D-06.
 No special actions if energy rises.
 Using DIIS extrapolation, IDIIS=  1040.
 Integral symmetry usage will be decided dynamically.
       126823 words used for storage of precomputed grid.
 IEnd=      305770 IEndB=      305770 NGot=  1073741824 MDV=  1073505365
 LenX=  1073505365 LenY=  1073452483
 Fock matrices will be formed incrementally for  20 cycles.

 Cycle   1  Pass 1  IDiag  1:
 FoFJK:  IHMeth= 1 ICntrl=     0 DoSepK=T KAlg= 1 I1Cent= 0 FoldK=F
 FoFCou: FMM=F IPFlag=           0 FMFlag=      100000 FMFlg1=           0
         NFxFlg=           0 DoJE=T BraDBF=F KetDBF=F FulRan=T
         Omega=  0.000000  0.000000  1.000000  0.000000  0.000000 ICntrl=     500 IOpCl=  0
         NMat0=    1 NMatS0=    1 NMatT0=    0 NMatD0=    1 NMtDS0=    0 NMtDT0=    0
         I1Cent=           0 NGrid=           0.
 Symmetry not used in FoFCou.
 E= -2753.33349317310    
 DIIS: error= 2.87D-02 at cycle   1 NSaved=   1.
 NSaved= 1 IEnMin= 1 EnMin= -2753.33349317310     IErMin= 1 ErrMin= 2.87D-02
 ErrMax= 2.87D-02 EMaxC= 1.00D-01 BMatC= 2.61D-01 BMatP= 2.61D-01
 IDIUse=3 WtCom= 7.13D-01 WtEn= 2.87D-01
 Coeff-Com:  0.100D+01
 Coeff-En:   0.100D+01
 Coeff:      0.100D+01
 Gap=     0.618 Goal=   None    Shift=    0.000
 GapD=    0.618 DampG=2.000 DampE=0.500 DampFc=1.0000 IDamp=-1.
 RMSDP=2.49D-03 MaxDP=1.52D-01              OVMax= 1.05D-01

 Cycle   2  Pass 1  IDiag  1:
 RMSU=  1.71D-03    CP:  1.03D+00
 FoFJK:  IHMeth= 1 ICntrl=     0 DoSepK=T KAlg= 1 I1Cent= 0 FoldK=F
 E= -2753.38946432400     Delta-E=       -0.055971150903 Rises=F Damp=F
 DIIS: error= 1.56D-02 at cycle   2 NSaved=   2.
 NSaved= 2 IEnMin= 2 EnMin= -2753.38946432400     IErMin= 2 ErrMin= 1.56D-02
 ErrMax= 1.56D-02 EMaxC= 1.00D-01 BMatC= 8.81D-02 BMatP= 2.61D-01
 IDIUse=3 WtCom= 8.44D-01 WtEn= 1.56D-01
 Coeff-Com:  0.365D+00 0.635D+00
 Coeff-En:   0.130D+00 0.870D+00
 Coeff:      0.328D+00 0.672D+00
 Gap=     0.538 Goal=   None    Shift=    0.000
 RMSDP=9.85D-04 MaxDP=6.11D-02 DE=-5.60D-02 OVMax= 3.14D-02

 Cycle   3  Pass 1  IDiag  1:
 RMSU=  1.75D-04    CP:  1.02D+00  6.17D-01
 FoFJK:  IHMeth= 1 ICntrl=     0 DoSepK=T KAlg= 1 I1Cent= 0 FoldK=F
 E= -2753.41748625175     Delta-E=       -0.028021927747 Rises=F Damp=F
 DIIS: error= 1.16D-03 at cycle   3 NSaved=   3.
 NSaved= 3 IEnMin= 3 EnMin= -2753.41748625175     IErMin= 3 ErrMin= 1.16D-03
 ErrMax= 1.16D-03 EMaxC= 1.00D-01 BMatC= 6.23D-04 BMatP= 8.81D-02
 IDIUse=3 WtCom= 9.88D-01 WtEn= 1.16D-02
 Coeff-Com: -0.645D-02 0.653D-01 0.941D+00
 Coeff-En:   0.000D+00 0.000D+00 0.100D+01
 Coeff:     -0.638D-02 0.646D-01 0.942D+00
 Gap=     0.537 Goal=   None    Shift=    0.000
 RMSDP=9.82D-05 MaxDP=5.22D-03 DE=-2.80D-02 OVMax= 3.34D-03

 Cycle   4  Pass 1  IDiag  1:
 RMSU=  3.73D-05    CP:  1.02D+00  6.48D-01  1.14D+00
 FoFJK:  IHMeth= 1 ICntrl=     0 DoSepK=T KAlg= 1 I1Cent= 0 FoldK=F
 E= -2753.41767908073     Delta-E=       -0.000192828985 Rises=F Damp=F
 DIIS: error= 6.22D-05 at cycle   4 NSaved=   4.
 NSaved= 4 IEnMin= 4 EnMin= -2753.41767908073     IErMin= 4 ErrMin= 6.22D-05
 ErrMax= 6.22D-05 EMaxC= 1.00D-01 BMatC= 1.97D-06 BMatP= 6.23D-04
 IDIUse=1 WtCom= 1.00D+00 WtEn= 0.00D+00
 Coeff-Com: -0.144D-02 0.111D-03-0.600D-02 0.101D+01
 Coeff:     -0.144D-02 0.111D-03-0.600D-02 0.101D+01
 Gap=     0.538 Goal=   None    Shift=    0.000
 RMSDP=1.41D-05 MaxDP=5.46D-04 DE=-1.93D-04 OVMax= 9.19D-04

 Cycle   5  Pass 1  IDiag  1:
 RMSU=  6.12D-06    CP:  1.02D+00  6.50D-01  1.17D+00  1.05D+00
 FoFJK:  IHMeth= 1 ICntrl=     0 DoSepK=T KAlg= 1 I1Cent= 0 FoldK=F
 E= -2753.41768301029     Delta-E=       -0.000003929553 Rises=F Damp=F
 DIIS: error= 2.29D-05 at cycle   5 NSaved=   5.
 NSaved= 5 IEnMin= 5 EnMin= -2753.41768301029     IErMin= 5 ErrMin= 2.29D-05
 ErrMax= 2.29D-05 EMaxC= 1.00D-01 BMatC= 1.59D-07 BMatP= 1.97D-06
 IDIUse=1 WtCom= 1.00D+00 WtEn= 0.00D+00
 Coeff-Com: -0.531D-04-0.407D-02-0.331D-01-0.723D-01 0.111D+01
 Coeff:     -0.531D-04-0.407D-02-0.331D-01-0.723D-01 0.111D+01
 Gap=     0.538 Goal=   None    Shift=    0.000
 RMSDP=4.59D-06 MaxDP=1.86D-04 DE=-3.93D-06 OVMax= 1.98D-04

 Cycle   6  Pass 1  IDiag  1:
 RMSU=  3.80D-07    CP:  1.02D+00  6.49D-01  1.19D+00  1.10D+00  1.15D+00
 FoFJK:  IHMeth= 1 ICntrl=     0 DoSepK=T KAlg= 1 I1Cent= 0 FoldK=F
 E= -2753.41768321827     Delta-E=       -0.000000207987 Rises=F Damp=F
 DIIS: error= 6.04D-07 at cycle   6 NSaved=   6.
 NSaved= 6 IEnMin= 6 EnMin= -2753.41768321827     IErMin= 6 ErrMin= 6.04D-07
 ErrMax= 6.04D-07 EMaxC= 1.00D-01 BMatC= 1.01D-10 BMatP= 1.59D-07
 IDIUse=1 WtCom= 1.00D+00 WtEn= 0.00D+00
 Coeff-Com:  0.720D-05 0.337D-03 0.301D-02-0.328D-03-0.772D-01 0.107D+01
 Coeff:      0.720D-05 0.337D-03 0.301D-02-0.328D-03-0.772D-01 0.107D+01
 Gap=     0.538 Goal=   None    Shift=    0.000
 RMSDP=1.58D-07 MaxDP=5.23D-06 DE=-2.08D-07 OVMax= 6.34D-06

 Cycle   7  Pass 1  IDiag  1:
 RMSU=  2.59D-08    CP:  1.02D+00  6.49D-01  1.19D+00  1.10D+00  1.17D+00
                    CP:  1.17D+00
 FoFJK:  IHMeth= 1 ICntrl=     0 DoSepK=T KAlg= 1 I1Cent= 0 FoldK=F
 E= -2753.41768321835     Delta-E=       -0.000000000074 Rises=F Damp=F
 DIIS: error= 8.55D-08 at cycle   7 NSaved=   7.
 NSaved= 7 IEnMin= 7 EnMin= -2753.41768321835     IErMin= 7 ErrMin= 8.55D-08
 ErrMax= 8.55D-08 EMaxC= 1.00D-01 BMatC= 2.40D-12 BMatP= 1.01D-10
 IDIUse=1 WtCom= 1.00D+00 WtEn= 0.00D+00
 Coeff-Com:  0.472D-06 0.402D-04 0.320D-03 0.865D-03-0.117D-01 0.110D-01
 Coeff-Com:  0.999D+00
 Coeff:      0.472D-06 0.402D-04 0.320D-03 0.865D-03-0.117D-01 0.110D-01
 Coeff:      0.999D+00
 Gap=     0.538 Goal=   None    Shift=    0.000
 RMSDP=1.62D-08 MaxDP=5.87D-07 DE=-7.41D-11 OVMax= 8.43D-07

 Cycle   8  Pass 1  IDiag  1:
 RMSU=  5.05D-09    CP:  1.02D+00  6.49D-01  1.19D+00  1.10D+00  1.17D+00
                    CP:  1.19D+00  1.11D+00
 FoFJK:  IHMeth= 1 ICntrl=     0 DoSepK=T KAlg= 1 I1Cent= 0 FoldK=F
 E= -2753.41768321835     Delta-E=        0.000000000002 Rises=F Damp=F
 DIIS: error= 1.89D-08 at cycle   8 NSaved=   8.
 NSaved= 8 IEnMin= 7 EnMin= -2753.41768321835     IErMin= 8 ErrMin= 1.89D-08
 ErrMax= 1.89D-08 EMaxC= 1.00D-01 BMatC= 2.09D-13 BMatP= 2.40D-12
 IDIUse=1 WtCom= 1.00D+00 WtEn= 0.00D+00
 Coeff-Com: -0.335D-06-0.120D-04-0.115D-03 0.208D-03 0.209D-02-0.575D-01
 Coeff-Com:  0.189D+00 0.867D+00
 Coeff:     -0.335D-06-0.120D-04-0.115D-03 0.208D-03 0.209D-02-0.575D-01
 Coeff:      0.189D+00 0.867D+00
 Gap=     0.538 Goal=   None    Shift=    0.000
 RMSDP=3.03D-09 MaxDP=1.10D-07 DE= 1.82D-12 OVMax= 1.82D-07

 SCF Done:  E(RLC-B+HF-LYP) =  -2753.41768322     A.U. after    8 cycles
             Convg  =    0.3029D-08             -V/T =  2.0015
 KE= 2.749315703358D+03 PE=-6.578526382738D+03 EE= 1.075792996162D+03
 Leave Link  502 at Wed May 13 19:16:01 2020, MaxMem= 1073741824 cpu:     201.4
 (Enter /home/matheus/.gaussian/g09/l601.exe)
 Copying SCF densities to generalized density rwf, IOpCl= 0 IROHF=0.

 **********************************************************************

            Population analysis using the SCF density.

 **********************************************************************

 Orbital symmetries:
       Occupied  (A) (A) (A) (A) (A) (A) (A) (A) (A) (A) (A) (A)
                 (A) (A) (A) (A) (A) (A)
       Virtual   (A) (A) (A) (A) (A) (A) (A) (A) (A) (A) (A) (A)
                 (A) (A) (A) (A) (A) (A) (A) (A) (A) (A) (A) (A)
                 (A) (A) (A) (A) (A) (A) (A) (A) (A) (A) (A) (A)
                 (A) (A) (A) (A) (A) (A) (A) (A) (A) (A) (A) (A)
                 (A) (A) (A) (A) (A) (A) (A) (A) (A) (A) (A) (A)
                 (A) (A) (A) (A) (A) (A) (A) (A) (A) (A) (A) (A)
                 (A) (A) (A) (A) (A) (A) (A) (A) (A) (A) (A) (A)
                 (A) (A) (A) (A) (A) (A) (A) (A) (A) (A) (A) (A)
                 (A) (A) (A) (A) (A) (A) (A) (A) (A) (A) (A) (A)
                 (A) (A) (A) (A) (A) (A) (A) (A) (A) (A) (A) (A)
                 (A) (A) (A) (A) (A) (A) (A) (A) (A) (A) (A) (A)
                 (A) (A) (A) (A) (A) (A) (A) (A) (A) (A) (A) (A)
                 (A) (A) (A) (A) (A) (A) (A) (A) (A) (A) (A) (A)
                 (A) (A) (A) (A) (A) (A) (A) (A) (A) (A) (A) (A)
                 (A) (A) (A) (A) (A) (A) (A) (A) (A) (A) (A)
 The electronic state is 1-A.
 Alpha  occ. eigenvalues -- -511.24359 -66.71349 -60.39872 -60.39868 -60.39868
 Alpha  occ. eigenvalues --   -9.60493  -7.35946  -7.35945  -7.35944  -3.32283
 Alpha  occ. eigenvalues --   -3.32283  -3.32282  -3.32281  -3.32281  -1.06080
 Alpha  occ. eigenvalues --   -0.51293  -0.51289  -0.51287
 Alpha virt. eigenvalues --    0.02519   0.04623   0.07676   0.09142   0.10205
 Alpha virt. eigenvalues --    0.11612   0.12548   0.13882   0.15933   0.16599
 Alpha virt. eigenvalues --    0.17377   0.19068   0.20392   0.25412   0.26448
 Alpha virt. eigenvalues --    0.27177   0.27710   0.32223   0.33582   0.35175
 Alpha virt. eigenvalues --    0.35437   0.36858   0.37269   0.38723   0.41153
 Alpha virt. eigenvalues --    0.42288   0.42939   0.53017   0.54910   0.57565
 Alpha virt. eigenvalues --    0.59383   0.65723   0.66476   0.68866   0.70545
 Alpha virt. eigenvalues --    0.74492   0.75186   0.76054   0.77699   0.78328
 Alpha virt. eigenvalues --    0.80740   0.81727   0.82855   0.84458   0.85086
 Alpha virt. eigenvalues --    0.86703   0.87684   0.88926   0.91681   0.94534
 Alpha virt. eigenvalues --    0.97526   0.98923   1.01839   1.02909   1.04713
 Alpha virt. eigenvalues --    1.06396   1.08598   1.08726   1.12979   1.13801
 Alpha virt. eigenvalues --    1.15053   1.18402   1.19496   1.26024   1.27038
 Alpha virt. eigenvalues --    1.32752   1.34934   1.41731   1.44357   1.45144
 Alpha virt. eigenvalues --    1.57377   1.59673   1.66491   1.74789   1.75786
 Alpha virt. eigenvalues --    1.82262   1.85667   1.86083   1.88144   2.16139
 Alpha virt. eigenvalues --    2.20503   2.25316   2.27866   2.31600   2.31907
 Alpha virt. eigenvalues --    2.32947   2.34269   2.35679   2.39213   2.39811
 Alpha virt. eigenvalues --    2.41293   2.47494   2.48762   2.51429   2.51650
 Alpha virt. eigenvalues --    2.53445   2.54157   2.54926   2.57423   2.59541
 Alpha virt. eigenvalues --    2.61861   2.62729   2.62862   2.65750   2.67274
 Alpha virt. eigenvalues --    2.70678   2.72494   2.77438   2.79843   2.87603
 Alpha virt. eigenvalues --    2.89220   3.00439   3.04422   3.10835   3.13691
 Alpha virt. eigenvalues --    3.22372   3.27030   3.29763   3.35122   3.51822
 Alpha virt. eigenvalues --    3.59366   3.63972   3.83467   3.86589   4.02595
 Alpha virt. eigenvalues --    4.34906   4.44409   4.53039   4.55233   4.60466
 Alpha virt. eigenvalues --    4.71773   4.88323   4.88687   4.94129   5.03662
 Alpha virt. eigenvalues --    5.11012   5.14196   5.57977   5.66145   5.88349
 Alpha virt. eigenvalues --    5.90041   5.94233   6.17460   6.82977   6.89241
 Alpha virt. eigenvalues --    7.27124   7.40493   7.60855   7.64108   7.71799
 Alpha virt. eigenvalues --    7.80109   8.06300   8.09360   8.16652   8.23510
 Alpha virt. eigenvalues --    8.34492   8.37503   8.66825   8.88921   9.62341
 Alpha virt. eigenvalues --    9.69725   9.76959   9.84913   9.95853  10.04449
 Alpha virt. eigenvalues --   10.16370  10.21959  10.48290  10.92517  11.44313
 Alpha virt. eigenvalues --   11.55879  11.61361  12.02399  12.10348  13.21597
 Alpha virt. eigenvalues --   13.66423  14.52428  62.87138  64.52571
          Condensed to atoms (all electrons):
              1          2          3          4          5
     1  O    0.002365  -0.002171  -0.001031   0.001140  -0.008267
     2  O   -0.002171   0.005416   0.000754  -0.003086  -0.007496
     3  H   -0.001031   0.000754   0.000589  -0.000360   0.001391
     4  H    0.001140  -0.003086  -0.000360   0.002874  -0.013170
     5  Kr  -0.008267  -0.007496   0.001391  -0.013170  36.053350
 Mulliken atomic charges:
              1
     1  O    0.007965
     2  O    0.006584
     3  H   -0.001342
     4  H    0.012602
     5  Kr  -0.025808
 Sum of Mulliken atomic charges =   0.00000
 Mulliken charges with hydrogens summed into heavy atoms:
              1
     1  O    0.006622
     2  O    0.019186
     5  Kr  -0.025808
 Sum of Mulliken charges with hydrogens summed into heavy atoms =   0.00000
          Condensed to fragments (all electrons):
     1       0.025808
     2      -0.025808
 Electronic spatial extent (au):  <R**2>=            167.9022
 Charge=              0.0000 electrons
 Dipole moment (field-independent basis, Debye):
    X=             -0.0016    Y=              0.0007    Z=              0.0000  Tot=              0.0017
 Quadrupole moment (field-independent basis, Debye-Ang):
   XX=            -17.7478   YY=            -17.7568   ZZ=            -17.7631
   XY=             -0.0045   XZ=              0.0000   YZ=              0.0002
 Traceless Quadrupole moment (field-independent basis, Debye-Ang):
   XX=              0.0081   YY=             -0.0009   ZZ=             -0.0072
   XY=             -0.0045   XZ=              0.0000   YZ=              0.0002
 Octapole moment (field-independent basis, Debye-Ang**2):
  XXX=            -53.1794  YYY=              0.9887  ZZZ=             -0.1017  XYY=            -17.7376
  XXY=              0.3188  XXZ=             -0.0342  XZZ=            -17.7412  YZZ=              0.3298
  YYZ=             -0.0336  XYZ=              0.0003
 Hexadecapole moment (field-independent basis, Debye-Ang**3):
 XXXX=           -125.1446 YYYY=            -18.9618 ZZZZ=            -18.9435 XXXY=              0.9610
 XXXZ=             -0.1022 YYYX=              0.9711 YYYZ=              0.0013 ZZZX=             -0.1019
 ZZZY=              0.0023 XXYY=            -24.0269 XXZZ=            -24.0262 YYZZ=             -6.3143
 XXYZ=              0.0008 YYXZ=             -0.0340 ZZXY=              0.3226
 N-N= 0.000000000000D+00 E-N=-6.578526381146D+03  KE= 2.749315703358D+03
 No NMR shielding tensors so no spin-rotation constants.
 Leave Link  601 at Wed May 13 19:16:01 2020, MaxMem= 1073741824 cpu:       0.7
 (Enter /home/matheus/.gaussian/g09/l122.exe)
 Counterpoise: doing MCBS calculation for fragment   1
 Leave Link  122 at Wed May 13 19:16:01 2020, MaxMem= 1073741824 cpu:       0.0
 (Enter /home/matheus/.gaussian/g09/l301.exe)
 Basis read from rwf:  (5D, 7F)
 No pseudopotential information found on rwf file.
 There are   138 symmetry adapted basis functions of A   symmetry.
 Integral buffers will be    131072 words long.
 Raffenetti 2 integral format.
 Two-electron integral symmetry is turned on.
   138 basis functions,   198 primitive gaussians,   160 cartesian basis functions
     9 alpha electrons        9 beta electrons
       nuclear repulsion energy        36.6019262901 Hartrees.
 IExCor=10402 DFT=T Ex=LC-B+HF Corr=LYP ExCW=0 ScaHFX=  1.000000
 ScaDFX=  1.000000  1.000000  1.000000  1.000000 ScalE2=  1.000000  1.000000
 IRadAn=      5 IRanWt=     -1 IRanGd=            0 ICorTp=0
  HFx wShort=  0.000000 wLong=  0.470000 cFull=  0.000000 cShort=  0.000000 cLong=  1.000000
  DFx wShort=  0.000000 wLong=  0.470000 cFull=  0.000000 cShort=  0.000000 cLong=  1.000000
 NAtoms=    5 NActive=    4 NUniq=    4 SFac= 1.00D+00 NAtFMM=   60 NAOKFM=F Big=F
 No density basis found on file   718.
 Leave Link  301 at Wed May 13 19:16:01 2020, MaxMem= 1073741824 cpu:       0.2
 (Enter /home/matheus/.gaussian/g09/l302.exe)
 NPDir=0 NMtPBC=     1 NCelOv=     1 NCel=       1 NClECP=     1 NCelD=      1
         NCelK=      1 NCelE2=     1 NClLst=     1 CellRange=     0.0.
 One-electron integrals computed using PRISM.
 NBasis=   138 RedAO= T  NBF=   138
 NBsUse=   138 1.00D-06 NBFU=   138
 Precomputing XC quadrature grid using
 IXCGrd= 2 IRadAn=           5 IRanWt=          -1 IRanGd=           0 AccXCQ= 0.00D+00.
 NRdTot=     344 NPtTot=       92556 NUsed=       95038 NTot=       95070
 NSgBfM=   160   160   160   160   160 NAtAll=     4     4.
 Leave Link  302 at Wed May 13 19:16:01 2020, MaxMem= 1073741824 cpu:       0.7
 (Enter /home/matheus/.gaussian/g09/l303.exe)
 DipDrv:  MaxL=1.
 Leave Link  303 at Wed May 13 19:16:01 2020, MaxMem= 1073741824 cpu:       0.1
 (Enter /home/matheus/.gaussian/g09/l401.exe)
 Harris functional with IExCor=10402 diagonalized for initial guess.
 ExpMin= 2.53D-02 ExpMax= 1.53D+04 ExpMxC= 5.22D+02 IAcc=3 IRadAn=         5 AccDes= 0.00D+00
 HarFok:  IExCor=10402 AccDes= 0.00D+00 IRadAn=         5 IDoV= 1
 ScaDFX=  1.000000  1.000000  1.000000  1.000000
 FoFCou: FMM=F IPFlag=           0 FMFlag=      100000 FMFlg1=           0
         NFxFlg=           0 DoJE=T BraDBF=F KetDBF=T FulRan=T
         Omega=  0.000000  0.000000  1.000000  0.000000  0.000000 ICntrl=     500 IOpCl=  0
         NMat0=    1 NMatS0=    1 NMatT0=    0 NMatD0=    1 NMtDS0=    0 NMtDT0=    0
         I1Cent=           4 NGrid=           0.
 Petite list used in FoFCou.
 Harris En= -147.162767623776    
 Initial guess orbital symmetries:
       Occupied  (A) (A) (A) (A) (A) (A) (A) (A) (A)
       Virtual   (A) (A) (A) (A) (A) (A) (A) (A) (A) (A) (A) (A)
                 (A) (A) (A) (A) (A) (A) (A) (A) (A) (A) (A) (A)
                 (A) (A) (A) (A) (A) (A) (A) (A) (A) (A) (A) (A)
                 (A) (A) (A) (A) (A) (A) (A) (A) (A) (A) (A) (A)
                 (A) (A) (A) (A) (A) (A) (A) (A) (A) (A) (A) (A)
                 (A) (A) (A) (A) (A) (A) (A) (A) (A) (A) (A) (A)
                 (A) (A) (A) (A) (A) (A) (A) (A) (A) (A) (A) (A)
                 (A) (A) (A) (A) (A) (A) (A) (A) (A) (A) (A) (A)
                 (A) (A) (A) (A) (A) (A) (A) (A) (A) (A) (A) (A)
                 (A) (A) (A) (A) (A) (A) (A) (A) (A) (A) (A) (A)
                 (A) (A) (A) (A) (A) (A) (A) (A) (A)
 The electronic state of the initial guess is 1-A.
 Leave Link  401 at Wed May 13 19:16:01 2020, MaxMem= 1073741824 cpu:       2.1
 (Enter /home/matheus/.gaussian/g09/l502.exe)
 Closed shell SCF:
 Requested convergence on RMS density matrix=1.00D-08 within 128 cycles.
 Requested convergence on MAX density matrix=1.00D-06.
 Requested convergence on             energy=1.00D-06.
 No special actions if energy rises.
 Using DIIS extrapolation, IDIIS=  1040.
 Integral symmetry usage will be decided dynamically.
        94980 words used for storage of precomputed grid.
 IEnd=      192360 IEndB=      192360 NGot=  1073741824 MDV=  1073591865
 LenX=  1073591865 LenY=  1073565824
 Fock matrices will be formed incrementally for  20 cycles.

 Cycle   1  Pass 1  IDiag  1:
 FoFJK:  IHMeth= 1 ICntrl=     0 DoSepK=T KAlg= 1 I1Cent= 0 FoldK=F
 FoFCou: FMM=F IPFlag=           0 FMFlag=      100000 FMFlg1=           0
         NFxFlg=           0 DoJE=T BraDBF=F KetDBF=F FulRan=T
         Omega=  0.000000  0.000000  1.000000  0.000000  0.000000 ICntrl=     500 IOpCl=  0
         NMat0=    1 NMatS0=    1 NMatT0=    0 NMatD0=    1 NMtDS0=    0 NMtDT0=    0
         I1Cent=           0 NGrid=           0.
 Symmetry not used in FoFCou.
 E= -151.303660684832    
 DIIS: error= 1.68D-02 at cycle   1 NSaved=   1.
 NSaved= 1 IEnMin= 1 EnMin= -151.303660684832     IErMin= 1 ErrMin= 1.68D-02
 ErrMax= 1.68D-02 EMaxC= 1.00D-01 BMatC= 2.08D-02 BMatP= 2.08D-02
 IDIUse=3 WtCom= 8.32D-01 WtEn= 1.68D-01
 Coeff-Com:  0.100D+01
 Coeff-En:   0.100D+01
 Coeff:      0.100D+01
 Gap=     0.466 Goal=   None    Shift=    0.000
 GapD=    0.466 DampG=2.000 DampE=0.500 DampFc=1.0000 IDamp=-1.
 RMSDP=1.18D-03 MaxDP=2.92D-02              OVMax= 5.50D-02

 Cycle   2  Pass 1  IDiag  1:
 RMSU=  8.31D-04    CP:  1.00D+00
 FoFJK:  IHMeth= 1 ICntrl=     0 DoSepK=T KAlg= 1 I1Cent= 0 FoldK=F
 E= -151.320702792909     Delta-E=       -0.017042108076 Rises=F Damp=F
 DIIS: error= 8.40D-03 at cycle   2 NSaved=   2.
 NSaved= 2 IEnMin= 2 EnMin= -151.320702792909     IErMin= 2 ErrMin= 8.40D-03
 ErrMax= 8.40D-03 EMaxC= 1.00D-01 BMatC= 5.03D-03 BMatP= 2.08D-02
 IDIUse=3 WtCom= 9.16D-01 WtEn= 8.40D-02
 Coeff-Com:  0.280D+00 0.720D+00
 Coeff-En:   0.000D+00 0.100D+01
 Coeff:      0.257D+00 0.743D+00
 Gap=     0.427 Goal=   None    Shift=    0.000
 RMSDP=3.13D-04 MaxDP=7.14D-03 DE=-1.70D-02 OVMax= 1.47D-02

 Cycle   3  Pass 1  IDiag  1:
 RMSU=  2.21D-04    CP:  1.00D+00  1.00D+00
 FoFJK:  IHMeth= 1 ICntrl=     0 DoSepK=T KAlg= 1 I1Cent= 0 FoldK=F
 E= -151.323556328690     Delta-E=       -0.002853535781 Rises=F Damp=F
 DIIS: error= 2.29D-03 at cycle   3 NSaved=   3.
 NSaved= 3 IEnMin= 3 EnMin= -151.323556328690     IErMin= 3 ErrMin= 2.29D-03
 ErrMax= 2.29D-03 EMaxC= 1.00D-01 BMatC= 6.36D-04 BMatP= 5.03D-03
 IDIUse=3 WtCom= 9.77D-01 WtEn= 2.29D-02
 Coeff-Com:  0.106D-01 0.249D+00 0.741D+00
 Coeff-En:   0.000D+00 0.000D+00 0.100D+01
 Coeff:      0.104D-01 0.243D+00 0.747D+00
 Gap=     0.437 Goal=   None    Shift=    0.000
 RMSDP=1.52D-04 MaxDP=3.90D-03 DE=-2.85D-03 OVMax= 7.80D-03

 Cycle   4  Pass 1  IDiag  1:
 RMSU=  7.45D-05    CP:  1.00D+00  1.09D+00  9.47D-01
 FoFJK:  IHMeth= 1 ICntrl=     0 DoSepK=T KAlg= 1 I1Cent= 0 FoldK=F
 E= -151.324032489119     Delta-E=       -0.000476160429 Rises=F Damp=F
 DIIS: error= 4.14D-04 at cycle   4 NSaved=   4.
 NSaved= 4 IEnMin= 4 EnMin= -151.324032489119     IErMin= 4 ErrMin= 4.14D-04
 ErrMax= 4.14D-04 EMaxC= 1.00D-01 BMatC= 2.67D-05 BMatP= 6.36D-04
 IDIUse=3 WtCom= 9.96D-01 WtEn= 4.14D-03
 Coeff-Com: -0.210D-01-0.298D-01 0.113D+00 0.938D+00
 Coeff-En:   0.000D+00 0.000D+00 0.000D+00 0.100D+01
 Coeff:     -0.209D-01-0.297D-01 0.112D+00 0.938D+00
 Gap=     0.435 Goal=   None    Shift=    0.000
 RMSDP=5.53D-05 MaxDP=1.55D-03 DE=-4.76D-04 OVMax= 1.94D-03

 Cycle   5  Pass 1  IDiag  1:
 RMSU=  1.26D-05    CP:  1.00D+00  1.12D+00  1.06D+00  1.17D+00
 FoFJK:  IHMeth= 1 ICntrl=     0 DoSepK=T KAlg= 1 I1Cent= 0 FoldK=F
 E= -151.324061436384     Delta-E=       -0.000028947265 Rises=F Damp=F
 DIIS: error= 8.14D-05 at cycle   5 NSaved=   5.
 NSaved= 5 IEnMin= 5 EnMin= -151.324061436384     IErMin= 5 ErrMin= 8.14D-05
 ErrMax= 8.14D-05 EMaxC= 1.00D-01 BMatC= 4.16D-07 BMatP= 2.67D-05
 IDIUse=1 WtCom= 1.00D+00 WtEn= 0.00D+00
 Coeff-Com:  0.576D-03-0.736D-02-0.347D-01-0.485D-01 0.109D+01
 Coeff:      0.576D-03-0.736D-02-0.347D-01-0.485D-01 0.109D+01
 Gap=     0.435 Goal=   None    Shift=    0.000
 RMSDP=1.44D-05 MaxDP=4.13D-04 DE=-2.89D-05 OVMax= 6.21D-04

 Cycle   6  Pass 1  IDiag  1:
 RMSU=  2.34D-06    CP:  1.00D+00  1.13D+00  1.08D+00  1.26D+00  1.26D+00
 FoFJK:  IHMeth= 1 ICntrl=     0 DoSepK=T KAlg= 1 I1Cent= 0 FoldK=F
 E= -151.324062657821     Delta-E=       -0.000001221437 Rises=F Damp=F
 DIIS: error= 1.66D-05 at cycle   6 NSaved=   6.
 NSaved= 6 IEnMin= 6 EnMin= -151.324062657821     IErMin= 6 ErrMin= 1.66D-05
 ErrMax= 1.66D-05 EMaxC= 1.00D-01 BMatC= 1.96D-08 BMatP= 4.16D-07
 IDIUse=1 WtCom= 1.00D+00 WtEn= 0.00D+00
 Coeff-Com:  0.455D-03 0.103D-02-0.241D-02-0.251D-01-0.172D-01 0.104D+01
 Coeff:      0.455D-03 0.103D-02-0.241D-02-0.251D-01-0.172D-01 0.104D+01
 Gap=     0.435 Goal=   None    Shift=    0.000
 RMSDP=2.10D-06 MaxDP=4.85D-05 DE=-1.22D-06 OVMax= 1.04D-04

 Cycle   7  Pass 1  IDiag  1:
 RMSU=  4.99D-07    CP:  1.00D+00  1.13D+00  1.08D+00  1.27D+00  1.30D+00
                    CP:  1.29D+00
 FoFJK:  IHMeth= 1 ICntrl=     0 DoSepK=T KAlg= 1 I1Cent= 0 FoldK=F
 E= -151.324062709447     Delta-E=       -0.000000051626 Rises=F Damp=F
 DIIS: error= 3.35D-06 at cycle   7 NSaved=   7.
 NSaved= 7 IEnMin= 7 EnMin= -151.324062709447     IErMin= 7 ErrMin= 3.35D-06
 ErrMax= 3.35D-06 EMaxC= 1.00D-01 BMatC= 1.05D-09 BMatP= 1.96D-08
 IDIUse=1 WtCom= 1.00D+00 WtEn= 0.00D+00
 Coeff-Com: -0.309D-04 0.343D-03 0.158D-02 0.276D-02-0.502D-01-0.112D+00
 Coeff-Com:  0.116D+01
 Coeff:     -0.309D-04 0.343D-03 0.158D-02 0.276D-02-0.502D-01-0.112D+00
 Coeff:      0.116D+01
 Gap=     0.435 Goal=   None    Shift=    0.000
 RMSDP=4.77D-07 MaxDP=6.50D-06 DE=-5.16D-08 OVMax= 3.47D-05

 Cycle   8  Pass 1  IDiag  1:
 RMSU=  1.54D-07    CP:  1.00D+00  1.13D+00  1.08D+00  1.28D+00  1.31D+00
                    CP:  1.39D+00  1.26D+00
 FoFJK:  IHMeth= 1 ICntrl=     0 DoSepK=T KAlg= 1 I1Cent= 0 FoldK=F
 E= -151.324062713479     Delta-E=       -0.000000004032 Rises=F Damp=F
 DIIS: error= 6.69D-07 at cycle   8 NSaved=   8.
[...]

 Cycle   3  Pass 1  IDiag  1:
 RMSU=  5.47D-07    CP:  1.00D+00  1.07D+00
 FoFJK:  IHMeth= 1 ICntrl=     0 DoSepK=T KAlg= 1 I1Cent= 0 FoldK=F
 E= -2753.41756248611     Delta-E=       -0.000000006126 Rises=F Damp=F
 DIIS: error= 5.14D-07 at cycle   3 NSaved=   3.
 NSaved= 3 IEnMin= 3 EnMin= -2753.41756248611     IErMin= 3 ErrMin= 5.14D-07
 ErrMax= 5.14D-07 EMaxC= 1.00D-01 BMatC= 1.02D-10 BMatP= 3.44D-09
 IDIUse=1 WtCom= 1.00D+00 WtEn= 0.00D+00
 Coeff-Com:  0.206D-03-0.110D+00 0.111D+01
 Coeff:      0.206D-03-0.110D+00 0.111D+01
 Gap=     0.539 Goal=   None    Shift=    0.000
 RMSDP=1.90D-07 MaxDP=6.73D-06 DE=-6.13D-09 OVMax= 9.28D-06

 Cycle   4  Pass 1  IDiag  1:
 RMSU=  6.13D-08    CP:  1.00D+00  1.08D+00  1.18D+00
 FoFJK:  IHMeth= 1 ICntrl=     0 DoSepK=T KAlg= 1 I1Cent= 0 FoldK=F
 E= -2753.41756248631     Delta-E=       -0.000000000201 Rises=F Damp=F
 DIIS: error= 2.61D-07 at cycle   4 NSaved=   4.
 NSaved= 4 IEnMin= 4 EnMin= -2753.41756248631     IErMin= 4 ErrMin= 2.61D-07
 ErrMax= 2.61D-07 EMaxC= 1.00D-01 BMatC= 1.74D-11 BMatP= 1.02D-10
 IDIUse=1 WtCom= 1.00D+00 WtEn= 0.00D+00
 Coeff-Com:  0.225D-03-0.562D-01 0.346D+00 0.710D+00
 Coeff:      0.225D-03-0.562D-01 0.346D+00 0.710D+00
 Gap=     0.539 Goal=   None    Shift=    0.000
 RMSDP=2.21D-08 MaxDP=8.91D-07 DE=-2.01D-10 OVMax= 1.02D-06

 Cycle   5  Pass 1  IDiag  1:
 RMSU=  1.09D-08    CP:  1.00D+00  1.08D+00  1.19D+00  1.12D+00
 FoFJK:  IHMeth= 1 ICntrl=     0 DoSepK=T KAlg= 1 I1Cent= 0 FoldK=F
 E= -2753.41756248633     Delta-E=       -0.000000000015 Rises=F Damp=F
 DIIS: error= 3.76D-08 at cycle   5 NSaved=   5.
 NSaved= 5 IEnMin= 5 EnMin= -2753.41756248633     IErMin= 5 ErrMin= 3.76D-08
 ErrMax= 3.76D-08 EMaxC= 1.00D-01 BMatC= 2.58D-13 BMatP= 1.74D-11
 IDIUse=1 WtCom= 1.00D+00 WtEn= 0.00D+00
 Coeff-Com: -0.198D-04 0.731D-02-0.664D-01-0.199D-01 0.108D+01
 Coeff:     -0.198D-04 0.731D-02-0.664D-01-0.199D-01 0.108D+01
 Gap=     0.539 Goal=   None    Shift=    0.000
 RMSDP=1.07D-08 MaxDP=6.25D-07 DE=-1.50D-11 OVMax= 4.47D-07

 Cycle   6  Pass 1  IDiag  1:
 RMSU=  1.56D-09    CP:  1.00D+00  1.08D+00  1.20D+00  1.21D+00  1.15D+00
 FoFJK:  IHMeth= 1 ICntrl=     0 DoSepK=T KAlg= 1 I1Cent= 0 FoldK=F
 E= -2753.41756248633     Delta-E=       -0.000000000002 Rises=F Damp=F
 DIIS: error= 1.24D-08 at cycle   6 NSaved=   6.
 NSaved= 6 IEnMin= 6 EnMin= -2753.41756248633     IErMin= 6 ErrMin= 1.24D-08
 ErrMax= 1.24D-08 EMaxC= 1.00D-01 BMatC= 1.21D-14 BMatP= 2.58D-13
 IDIUse=1 WtCom= 1.00D+00 WtEn= 0.00D+00
 Coeff-Com: -0.103D-04 0.303D-02-0.224D-01-0.246D-01 0.198D+00 0.846D+00
 Coeff:     -0.103D-04 0.303D-02-0.224D-01-0.246D-01 0.198D+00 0.846D+00
 Gap=     0.539 Goal=   None    Shift=    0.000
 RMSDP=9.05D-10 MaxDP=4.36D-08 DE=-2.27D-12 OVMax= 8.04D-08

 SCF Done:  E(RLC-B+HF-LYP) =  -2753.41756249     A.U. after    6 cycles
             Convg  =    0.9052D-09             -V/T =  2.0015
 KE= 2.749364080485D+03 PE=-6.578579454193D+03 EE= 1.075797811221D+03
 Leave Link  502 at Wed May 13 19:39:00 2020, MaxMem= 1073741824 cpu:     108.1
 (Enter /home/matheus/.gaussian/g09/l122.exe)
 Restoring MOs from calculation   4 to rwf.
 Counterpoise: doing MCBS calculation for fragment   1
 Leave Link  122 at Wed May 13 19:39:00 2020, MaxMem= 1073741824 cpu:       0.0
 (Enter /home/matheus/.gaussian/g09/l301.exe)
 Basis read from rwf:  (5D, 7F)
 No pseudopotential information found on rwf file.
 There are   138 symmetry adapted basis functions of A   symmetry.
 Integral buffers will be    131072 words long.
 Raffenetti 2 integral format.
 Two-electron integral symmetry is turned on.
   138 basis functions,   198 primitive gaussians,   160 cartesian basis functions
     9 alpha electrons        9 beta electrons
       nuclear repulsion energy        36.6019262901 Hartrees.
 IExCor=10402 DFT=T Ex=LC-B+HF Corr=LYP ExCW=0 ScaHFX=  1.000000
 ScaDFX=  1.000000  1.000000  1.000000  1.000000 ScalE2=  1.000000  1.000000
 IRadAn=      5 IRanWt=     -1 IRanGd=            0 ICorTp=0
  HFx wShort=  0.000000 wLong=  0.470000 cFull=  0.000000 cShort=  0.000000 cLong=  1.000000
  DFx wShort=  0.000000 wLong=  0.470000 cFull=  0.000000 cShort=  0.000000 cLong=  1.000000
 NAtoms=    5 NActive=    4 NUniq=    4 SFac= 1.00D+00 NAtFMM=   60 NAOKFM=F Big=F
 No density basis found on file   718.
 Leave Link  301 at Wed May 13 19:39:00 2020, MaxMem= 1073741824 cpu:       0.2
 (Enter /home/matheus/.gaussian/g09/l302.exe)
 NPDir=0 NMtPBC=     1 NCelOv=     1 NCel=       1 NClECP=     1 NCelD=      1
         NCelK=      1 NCelE2=     1 NClLst=     1 CellRange=     0.0.
 One-electron integrals computed using PRISM.
 NBasis=   138 RedAO= T  NBF=   138
 NBsUse=   138 1.00D-06 NBFU=   138
 Precomputing XC quadrature grid using
 IXCGrd= 2 IRadAn=           5 IRanWt=          -1 IRanGd=           0 AccXCQ= 0.00D+00.
 NRdTot=     344 NPtTot=       92556 NUsed=       95038 NTot=       95070
 NSgBfM=   160   160   160   160   160 NAtAll=     4     4.
 Leave Link  302 at Wed May 13 19:39:00 2020, MaxMem= 1073741824 cpu:       0.9
 (Enter /home/matheus/.gaussian/g09/l303.exe)
 DipDrv:  MaxL=1.
 Leave Link  303 at Wed May 13 19:39:00 2020, MaxMem= 1073741824 cpu:       0.1
 (Enter /home/matheus/.gaussian/g09/l401.exe)
 Initial guess read from the read-write file.
 Guess basis will be translated and rotated to current coordinates.
 Initial guess orbital symmetries:
       Occupied  (A) (A) (A) (A) (A) (A) (A) (A) (A)
       Virtual   (A) (A) (A) (A) (A) (A) (A) (A) (A) (A) (A) (A)
                 (A) (A) (A) (A) (A) (A) (A) (A) (A) (A) (A) (A)
                 (A) (A) (A) (A) (A) (A) (A) (A) (A) (A) (A) (A)
                 (A) (A) (A) (A) (A) (A) (A) (A) (A) (A) (A) (A)
                 (A) (A) (A) (A) (A) (A) (A) (A) (A) (A) (A) (A)
                 (A) (A) (A) (A) (A) (A) (A) (A) (A) (A) (A) (A)
                 (A) (A) (A) (A) (A) (A) (A) (A) (A) (A) (A) (A)
                 (A) (A) (A) (A) (A) (A) (A) (A) (A) (A) (A) (A)
                 (A) (A) (A) (A) (A) (A) (A) (A) (A) (A) (A) (A)
                 (A) (A) (A) (A) (A) (A) (A) (A) (A) (A) (A) (A)
                 (A) (A) (A) (A) (A) (A) (A) (A) (A)
 The electronic state of the initial guess is 1-A.
 Generating alternative initial guess.
 Harris functional with IExCor=10402 diagonalized for initial guess.
 ExpMin= 2.53D-02 ExpMax= 1.53D+04 ExpMxC= 5.22D+02 IAcc=3 IRadAn=         5 AccDes= 0.00D+00
 HarFok:  IExCor=10402 AccDes= 0.00D+00 IRadAn=         5 IDoV= 1
 ScaDFX=  1.000000  1.000000  1.000000  1.000000
 FoFCou: FMM=F IPFlag=           0 FMFlag=      100000 FMFlg1=           0
         NFxFlg=           0 DoJE=T BraDBF=F KetDBF=T FulRan=T
         Omega=  0.000000  0.000000  1.000000  0.000000  0.000000 ICntrl=     500 IOpCl=  0
         NMat0=    1 NMatS0=    1 NMatT0=    0 NMatD0=    1 NMtDS0=    0 NMtDT0=    0
         I1Cent=           4 NGrid=           0.
 Petite list used in FoFCou.
 Harris En= -147.162767642158    
 Leave Link  401 at Wed May 13 19:39:00 2020, MaxMem= 1073741824 cpu:       2.3
 (Enter /home/matheus/.gaussian/g09/l502.exe)
 Closed shell SCF:
 Requested convergence on RMS density matrix=1.00D-08 within 128 cycles.
 Requested convergence on MAX density matrix=1.00D-06.
 Requested convergence on             energy=1.00D-06.
 No special actions if energy rises.
 Using DIIS extrapolation, IDIIS=  1040.
 Integral symmetry usage will be decided dynamically.
        94980 words used for storage of precomputed grid.
 IEnd=      192360 IEndB=      192360 NGot=  1073741824 MDV=  1073591865
 LenX=  1073591865 LenY=  1073565824
 Fock matrices will be formed incrementally for  20 cycles.

 Cycle   1  Pass 1  IDiag  1:
 FoFJK:  IHMeth= 1 ICntrl=     0 DoSepK=T KAlg= 1 I1Cent= 0 FoldK=F
 FoFCou: FMM=F IPFlag=           0 FMFlag=      100000 FMFlg1=           0
         NFxFlg=           0 DoJE=T BraDBF=F KetDBF=F FulRan=T
         Omega=  0.000000  0.000000  1.000000  0.000000  0.000000 ICntrl=     500 IOpCl=  0
         NMat0=    1 NMatS0=    1 NMatT0=    0 NMatD0=    1 NMtDS0=    0 NMtDT0=    0
         I1Cent=           0 NGrid=           0.
 Symmetry not used in FoFCou.
 E= -151.324062681127    
 DIIS: error= 2.54D-05 at cycle   1 NSaved=   1.
 NSaved= 1 IEnMin= 1 EnMin= -151.324062681127     IErMin= 1 ErrMin= 2.54D-05
 ErrMax= 2.54D-05 EMaxC= 1.00D-01 BMatC= 4.56D-08 BMatP= 4.56D-08
 IDIUse=1 WtCom= 1.00D+00 WtEn= 0.00D+00
 Coeff-Com:  0.100D+01
 Coeff:      0.100D+01
 Gap=     0.435 Goal=   None    Shift=    0.000
 RMSDP=1.01D-06 MaxDP=1.86D-05              OVMax= 8.14D-05

 Cycle   2  Pass 1  IDiag  1:
 RMSU=  7.15D-07    CP:  1.00D+00
 FoFJK:  IHMeth= 1 ICntrl=     0 DoSepK=T KAlg= 1 I1Cent= 0 FoldK=F
 E= -151.324062721861     Delta-E=       -0.000000040734 Rises=F Damp=F
 DIIS: error= 4.70D-06 at cycle   2 NSaved=   2.
 NSaved= 2 IEnMin= 2 EnMin= -151.324062721861     IErMin= 2 ErrMin= 4.70D-06
 ErrMax= 4.70D-06 EMaxC= 1.00D-01 BMatC= 1.73D-09 BMatP= 4.56D-08
 IDIUse=1 WtCom= 1.00D+00 WtEn= 0.00D+00
 Coeff-Com: -0.131D+00 0.113D+01
 Coeff:     -0.131D+00 0.113D+01
 Gap=     0.435 Goal=   None    Shift=    0.000
 RMSDP=3.67D-07 MaxDP=6.57D-06 DE=-4.07D-08 OVMax= 3.57D-05

 Cycle   3  Pass 1  IDiag  1:
 RMSU=  1.49D-07    CP:  1.00D+00  1.30D+00
 FoFJK:  IHMeth= 1 ICntrl=     0 DoSepK=T KAlg= 1 I1Cent= 0 FoldK=F
 E= -151.324062725998     Delta-E=       -0.000000004137 Rises=F Damp=F
 DIIS: error= 1.30D-06 at cycle   3 NSaved=   3.
 NSaved= 3 IEnMin= 3 EnMin= -151.324062725998     IErMin= 3 ErrMin= 1.30D-06
 ErrMax= 1.30D-06 EMaxC= 1.00D-01 BMatC= 1.56D-10 BMatP= 1.73D-09
 IDIUse=1 WtCom= 1.00D+00 WtEn= 0.00D+00
 Coeff-Com: -0.881D-02-0.139D+00 0.115D+01
 Coeff:     -0.881D-02-0.139D+00 0.115D+01
 Gap=     0.435 Goal=   None    Shift=    0.000
 RMSDP=1.39D-07 MaxDP=2.76D-06 DE=-4.14D-09 OVMax= 1.35D-05

 Cycle   4  Pass 1  IDiag  1:
 RMSU=  4.50D-08    CP:  1.00D+00  1.38D+00  1.41D+00
 FoFJK:  IHMeth= 1 ICntrl=     0 DoSepK=T KAlg= 1 I1Cent= 0 FoldK=F
 E= -151.324062726380     Delta-E=       -0.000000000382 Rises=F Damp=F
 DIIS: error= 6.94D-07 at cycle   4 NSaved=   4.
 NSaved= 4 IEnMin= 4 EnMin= -151.324062726380     IErMin= 4 ErrMin= 6.94D-07
 ErrMax= 6.94D-07 EMaxC= 1.00D-01 BMatC= 6.73D-11 BMatP= 1.56D-10
 IDIUse=1 WtCom= 1.00D+00 WtEn= 0.00D+00
 Coeff-Com:  0.102D-01-0.190D+00 0.505D+00 0.675D+00
 Coeff:      0.102D-01-0.190D+00 0.505D+00 0.675D+00
 Gap=     0.435 Goal=   None    Shift=    0.000
 RMSDP=4.60D-08 MaxDP=1.42D-06 DE=-3.82D-10 OVMax= 3.52D-06

 Cycle   5  Pass 1  IDiag  1:
 RMSU=  1.61D-08    CP:  1.00D+00  1.40D+00  1.58D+00  8.03D-01
 FoFJK:  IHMeth= 1 ICntrl=     0 DoSepK=T KAlg= 1 I1Cent= 0 FoldK=F
 E= -151.324062726449     Delta-E=       -0.000000000069 Rises=F Damp=F
 DIIS: error= 1.84D-07 at cycle   5 NSaved=   5.
 NSaved= 5 IEnMin= 5 EnMin= -151.324062726449     IErMin= 5 ErrMin= 1.84D-07
 ErrMax= 1.84D-07 EMaxC= 1.00D-01 BMatC= 4.33D-12 BMatP= 6.73D-11
 IDIUse=1 WtCom= 1.00D+00 WtEn= 0.00D+00
 Coeff-Com:  0.371D-02-0.400D-01 0.249D-01 0.186D+00 0.825D+00
 Coeff:      0.371D-02-0.400D-01 0.249D-01 0.186D+00 0.825D+00
 Gap=     0.435 Goal=   None    Shift=    0.000
 RMSDP=1.51D-08 MaxDP=3.13D-07 DE=-6.86D-11 OVMax= 1.13D-06

 Cycle   6  Pass 1  IDiag  1:
 RMSU=  6.95D-09    CP:  1.00D+00  1.40D+00  1.62D+00  9.00D-01  1.11D+00
 FoFJK:  IHMeth= 1 ICntrl=     0 DoSepK=T KAlg= 1 I1Cent= 0 FoldK=F
 E= -151.324062726453     Delta-E=       -0.000000000005 Rises=F Damp=F
 DIIS: error= 8.74D-08 at cycle   6 NSaved=   6.
 NSaved= 6 IEnMin= 6 EnMin= -151.324062726453     IErMin= 6 ErrMin= 8.74D-08
 ErrMax= 8.74D-08 EMaxC= 1.00D-01 BMatC= 1.38D-12 BMatP= 4.33D-12
 IDIUse=1 WtCom= 1.00D+00 WtEn= 0.00D+00
 Coeff-Com:  0.118D-03 0.115D-01-0.679D-01-0.203D-01 0.396D+00 0.681D+00
 Coeff:      0.118D-03 0.115D-01-0.679D-01-0.203D-01 0.396D+00 0.681D+00
 Gap=     0.435 Goal=   None    Shift=    0.000
 RMSDP=6.51D-09 MaxDP=1.06D-07 DE=-4.89D-12 OVMax= 5.26D-07

 SCF Done:  E(RLC-B+HF-LYP) =  -151.324062726     A.U. after    6 cycles
             Convg  =    0.6513D-08             -V/T =  2.0058
 KE= 1.504570054857D+02 PE=-4.313894773148D+02 EE= 9.300648281260D+01
 Leave Link  502 at Wed May 13 19:39:06 2020, MaxMem= 1073741824 cpu:      46.2
 (Enter /home/matheus/.gaussian/g09/l122.exe)
 Restoring MOs from calculation   5 to rwf.
 Counterpoise: doing MCBS calculation for fragment   2
 Leave Link  122 at Wed May 13 19:39:06 2020, MaxMem= 1073741824 cpu:       0.0
 (Enter /home/matheus/.gaussian/g09/l301.exe)
 Basis read from rwf:  (5D, 7F)
 No pseudopotential information found on rwf file.
 There are    59 symmetry adapted basis functions of A   symmetry.
 Integral buffers will be    131072 words long.
 Raffenetti 2 integral format.
 Two-electron integral symmetry is turned on.
    59 basis functions,   217 primitive gaussians,    69 cartesian basis functions
    18 alpha electrons       18 beta electrons
       nuclear repulsion energy         0.0000000000 Hartrees.
 IExCor=10402 DFT=T Ex=LC-B+HF Corr=LYP ExCW=0 ScaHFX=  1.000000
 ScaDFX=  1.000000  1.000000  1.000000  1.000000 ScalE2=  1.000000  1.000000
 IRadAn=      5 IRanWt=     -1 IRanGd=            0 ICorTp=0
  HFx wShort=  0.000000 wLong=  0.470000 cFull=  0.000000 cShort=  0.000000 cLong=  1.000000
  DFx wShort=  0.000000 wLong=  0.470000 cFull=  0.000000 cShort=  0.000000 cLong=  1.000000
 NAtoms=    5 NActive=    1 NUniq=    1 SFac= 1.00D+00 NAtFMM=   60 NAOKFM=F Big=F
 No density basis found on file   718.
 Leave Link  301 at Wed May 13 19:39:06 2020, MaxMem= 1073741824 cpu:       0.2
 (Enter /home/matheus/.gaussian/g09/l302.exe)
 NPDir=0 NMtPBC=     1 NCelOv=     1 NCel=       1 NClECP=     1 NCelD=      1
         NCelK=      1 NCelE2=     1 NClLst=     1 CellRange=     0.0.
 One-electron integrals computed using PRISM.
 NBasis=    59 RedAO= T  NBF=    59
 NBsUse=    59 1.00D-06 NBFU=    59
 Precomputing XC quadrature grid using
 IXCGrd= 2 IRadAn=           5 IRanWt=          -1 IRanGd=           0 AccXCQ= 0.00D+00.
 NRdTot=      81 NPtTot=       30352 NUsed=       30981 NTot=       31013
 NSgBfM=    69    69    69    69    69 NAtAll=     1     1.
 Leave Link  302 at Wed May 13 19:39:06 2020, MaxMem= 1073741824 cpu:       0.7
 (Enter /home/matheus/.gaussian/g09/l303.exe)
 DipDrv:  MaxL=1.
 Leave Link  303 at Wed May 13 19:39:06 2020, MaxMem= 1073741824 cpu:       0.1
 (Enter /home/matheus/.gaussian/g09/l401.exe)
 Initial guess read from the read-write file.
 Guess basis will be translated and rotated to current coordinates.
 Initial guess orbital symmetries:
       Occupied  (A) (A) (A) (A) (A) (A) (A) (A) (A) (A) (A) (A)
                 (A) (A) (A) (A) (A) (A)
       Virtual   (A) (A) (A) (A) (A) (A) (A) (A) (A) (A) (A) (A)
                 (A) (A) (A) (A) (A) (A) (A) (A) (A) (A) (A) (A)
                 (A) (A) (A) (A) (A) (A) (A) (A) (A) (A) (A) (A)
                 (A) (A) (A) (A) (A)
 The electronic state of the initial guess is 1-A.
 Generating alternative initial guess.
 Harris functional with IExCor=10402 diagonalized for initial guess.
 ExpMin= 4.00D-02 ExpMax= 1.17D+07 ExpMxC= 1.33D+04 IAcc=3 IRadAn=         5 AccDes= 0.00D+00
 HarFok:  IExCor=10402 AccDes= 0.00D+00 IRadAn=         5 IDoV= 1
 ScaDFX=  1.000000  1.000000  1.000000  1.000000
 FoFCou: FMM=F IPFlag=           0 FMFlag=      100000 FMFlg1=           0
         NFxFlg=           0 DoJE=T BraDBF=F KetDBF=T FulRan=T
         Omega=  0.000000  0.000000  1.000000  0.000000  0.000000 ICntrl=     500 IOpCl=  0
         NMat0=    1 NMatS0=    1 NMatT0=    0 NMatD0=    1 NMtDS0=    0 NMtDT0=    0
         I1Cent=           4 NGrid=           0.
 Petite list used in FoFCou.
 Harris En= -2744.51485235229    
 Leave Link  401 at Wed May 13 19:39:06 2020, MaxMem= 1073741824 cpu:       1.0
 (Enter /home/matheus/.gaussian/g09/l502.exe)
 Closed shell SCF:
 Requested convergence on RMS density matrix=1.00D-08 within 128 cycles.
 Requested convergence on MAX density matrix=1.00D-06.
 Requested convergence on             energy=1.00D-06.
 No special actions if energy rises.
 Using DIIS extrapolation, IDIIS=  1040.
 Integral symmetry usage will be decided dynamically.
        30923 words used for storage of precomputed grid.
 IEnd=       64406 IEndB=       64406 NGot=  1073741824 MDV=  1073698889
 LenX=  1073698889 LenY=  1073693687
 Fock matrices will be formed incrementally for  20 cycles.

 Cycle   1  Pass 1  IDiag  1:
 FoFJK:  IHMeth= 1 ICntrl=     0 DoSepK=T KAlg= 1 I1Cent= 0 FoldK=F
 FoFCou: FMM=F IPFlag=           0 FMFlag=      100000 FMFlg1=           0
         NFxFlg=           0 DoJE=T BraDBF=F KetDBF=F FulRan=T
         Omega=  0.000000  0.000000  1.000000  0.000000  0.000000 ICntrl=     500 IOpCl=  0
         NMat0=    1 NMatS0=    1 NMatT0=    0 NMatD0=    1 NMtDS0=    0 NMtDT0=    0
         I1Cent=           0 NGrid=           0.
 Symmetry not used in FoFCou.
 E= -2753.41754223393    
 DIIS: error= 1.14D-13 at cycle   1 NSaved=   1.
 NSaved= 1 IEnMin= 1 EnMin= -2753.41754223393     IErMin= 1 ErrMin= 1.14D-13
 ErrMax= 1.14D-13 EMaxC= 1.00D-01 BMatC= 3.43D-25 BMatP= 3.43D-25
 IDIUse=1 WtCom= 1.00D+00 WtEn= 0.00D+00
 Coeff-Com:  0.100D+01
 Coeff:      0.100D+01
 Gap=     0.595 Goal=   None    Shift=    0.000
 DSYEVD returned Info=          89 IAlg= 4 N=    59 NDim=    59 NE2=    18198197 trying DSYEV.
 RMSDP=4.02D-15 MaxDP=6.55D-14              OVMax= 2.61D-14

 SCF Done:  E(RLC-B+HF-LYP) =  -2753.41754223     A.U. after    1 cycles
             Convg  =    0.4020D-14             -V/T =  2.0015
 KE= 2.749372504928D+03 PE=-6.578588569976D+03 EE= 1.075798522814D+03
 Leave Link  502 at Wed May 13 19:39:08 2020, MaxMem= 1073741824 cpu:      11.0
 (Enter /home/matheus/.gaussian/g09/l122.exe)
 Restoring MOs from calculation   1 to rwf.
 Counterpoise: corrected energy =   -2904.741683870800
 Counterpoise: BSSE energy =       0.000025741589
 Leave Link  122 at Wed May 13 19:39:08 2020, MaxMem= 1073741824 cpu:       0.0
 (Enter /home/matheus/.gaussian/g09/l108.exe)
 Scan completed.

 Summary of the potential surface scan:
   N      R1          SCF    
 ----  ---------  -----------
    1     3.0000  -2753.41754
    2     3.1000  -2753.41754
    3     3.2000  -2753.41754
    4     3.3000  -2753.41754
    5     3.4000  -2753.41754
    6     3.5000  -2753.41754
    7     3.6000  -2753.41754
    8     3.7000  -2753.41754
    9     3.8000  -2753.41754
   10     3.9000  -2753.41754
   11     4.0000  -2753.41754
   12     4.1000  -2753.41754
   13     4.2000  -2753.41754
   14     4.3000  -2753.41754
   15     4.4000  -2753.41754
   16     4.5000  -2753.41754
   17     4.6000  -2753.41754
   18     4.7000  -2753.41754
   19     4.8000  -2753.41754
   20     4.9000  -2753.41754
   21     5.0000  -2753.41754
 ----  ---------  -----------
  
 Leave Link  108 at Wed May 13 19:39:08 2020, MaxMem= 1073741824 cpu:       0.0
 (Enter /home/matheus/.gaussian/g09/l9999.exe)
 1\1\GINC-REDGIANT\Scan\RLC-BLYP\Aug-CC-pVTZ\H2Kr1O2\MATHEUS\13-May-202
 0\1\\#p lc-blyp/aug-cc-PVTz int=ultrafine counterpoise=2 Scan\\TCC\\0,
 1\O,0,0.,0.,0.725\O,0,0.,0.,-0.725\H,0,-0.3142209495,-0.8633149634,1.0
 235104166\H,0,0.,0.9187205947,-1.0235104166\Kr,0,0.,R1,0.\\R1=3.,s,20,
 0.1\\Version=EM64L-G09RevC.01\State=1-A\HF=-2753.4175422,-2753.4175422
 ,-2753.4175422,-2753.4175422,-2753.4175422,-2753.4175422,-2753.4175422
 ,-2753.4175422,-2753.4175422,-2753.4175422,-2753.4175422,-2753.4175422
 ,-2753.4175422,-2753.4175422,-2753.4175422,-2753.4175422,-2753.4175422
 ,-2753.4175422,-2753.4175422,-2753.4175422,-2753.4175422\RMSD=1.334e-0
 9,5.265e-11,1.630e-11,9.945e-12,5.945e-12,3.617e-12,2.186e-12,1.317e-1
 2,7.970e-13,4.838e-13,2.922e-13,1.837e-13,1.106e-13,6.025e-14,3.614e-1
 4,2.263e-14,1.370e-14,9.060e-15,9.636e-15,6.124e-15,4.020e-15\PG=C01 [
 X(H2Kr1O2)]\\@


 Sacred cows make the best hamburger.
                               -- Mark Twain
 Job cpu time:  0 days  3 hours 16 minutes  9.6 seconds.
 File lengths (MBytes):  RWF=     33 Int=      0 D2E=      0 Chk=      8 Scr=      1
 Normal termination of Gaussian 09 at Wed May 13 19:39:08 2020.
