 Entering Gaussian System, Link 0=g09
 Input=/home/matheus/.tcc/Inputs/Inputs-lc-wpbe-default/H2O2-Kr_6.com
 Output=/home/matheus/.tcc/Logs/Logs-lc-wpbe-default/H2O2-Kr_6.log
 Initial command:
 /home/matheus/.gaussian/g09/l1.exe /home/matheus/.gaussian/g09/scratch/Gau-7299.inp -scrdir=/home/matheus/.gaussian/g09/scratch/
 Entering Link 1 = /home/matheus/.gaussian/g09/l1.exe PID=      7303.
  
 Copyright (c) 1988,1990,1992,1993,1995,1998,2003,2009,2011,
            Gaussian, Inc.  All Rights Reserved.
  
 This is part of the Gaussian(R) 09 program.  It is based on
 the Gaussian(R) 03 system (copyright 2003, Gaussian, Inc.),
 the Gaussian(R) 98 system (copyright 1998, Gaussian, Inc.),
 the Gaussian(R) 94 system (copyright 1995, Gaussian, Inc.),
 the Gaussian 92(TM) system (copyright 1992, Gaussian, Inc.),
 the Gaussian 90(TM) system (copyright 1990, Gaussian, Inc.),
 the Gaussian 88(TM) system (copyright 1988, Gaussian, Inc.),
 the Gaussian 86(TM) system (copyright 1986, Carnegie Mellon
 University), and the Gaussian 82(TM) system (copyright 1983,
 Carnegie Mellon University). Gaussian is a federally registered
 trademark of Gaussian, Inc.
  
 This software contains proprietary and confidential information,
 including trade secrets, belonging to Gaussian, Inc.
  
 This software is provided under written license and may be
 used, copied, transmitted, or stored only in accord with that
 written license.
  
 The following legend is applicable only to US Government
 contracts under FAR:
  
                    RESTRICTED RIGHTS LEGEND
  
 Use, reproduction and disclosure by the US Government is
 subject to restrictions as set forth in subparagraphs (a)
 and (c) of the Commercial Computer Software - Restricted
 Rights clause in FAR 52.227-19.
  
 Gaussian, Inc.
 340 Quinnipiac St., Bldg. 40, Wallingford CT 06492
  
  
 ---------------------------------------------------------------
 Warning -- This program may not be used in any manner that
 competes with the business of Gaussian, Inc. or will provide
 assistance to any competitor of Gaussian, Inc.  The licensee
 of this program is prohibited from giving any competitor of
 Gaussian, Inc. access to this program.  By using this program,
 the user acknowledges that Gaussian, Inc. is engaged in the
 business of creating and licensing software in the field of
 computational chemistry and represents and warrants to the
 licensee that it is not a competitor of Gaussian, Inc. and that
 it will not use this program in any manner prohibited above.
 ---------------------------------------------------------------
  

 Cite this work as:
 Gaussian 09, Revision C.01,
 M. J. Frisch, G. W. Trucks, H. B. Schlegel, G. E. Scuseria, 
 M. A. Robb, J. R. Cheeseman, G. Scalmani, V. Barone, B. Mennucci, 
 G. A. Petersson, H. Nakatsuji, M. Caricato, X. Li, H. P. Hratchian, 
 A. F. Izmaylov, J. Bloino, G. Zheng, J. L. Sonnenberg, M. Hada, 
 M. Ehara, K. Toyota, R. Fukuda, J. Hasegawa, M. Ishida, T. Nakajima, 
 Y. Honda, O. Kitao, H. Nakai, T. Vreven, J. A. Montgomery, Jr., 
 J. E. Peralta, F. Ogliaro, M. Bearpark, J. J. Heyd, E. Brothers, 
 K. N. Kudin, V. N. Staroverov, T. Keith, R. Kobayashi, J. Normand, 
 K. Raghavachari, A. Rendell, J. C. Burant, S. S. Iyengar, J. Tomasi, 
 M. Cossi, N. Rega, J. M. Millam, M. Klene, J. E. Knox, J. B. Cross, 
 V. Bakken, C. Adamo, J. Jaramillo, R. Gomperts, R. E. Stratmann, 
 O. Yazyev, A. J. Austin, R. Cammi, C. Pomelli, J. W. Ochterski, 
 R. L. Martin, K. Morokuma, V. G. Zakrzewski, G. A. Voth, 
 P. Salvador, J. J. Dannenberg, S. Dapprich, A. D. Daniels, 
 O. Farkas, J. B. Foresman, J. V. Ortiz, J. Cioslowski, 
 and D. J. Fox, Gaussian, Inc., Wallingford CT, 2010.
 
 ******************************************
 Gaussian 09:  EM64L-G09RevC.01 23-Sep-2011
                12-May-2020 
 ******************************************
 %mem=8GB
 %nproc=8
 Will use up to    8 processors via shared memory.
 --------------------------------------------------------
 #p lc-wpbe/aug-cc-PVTz int=ultrafine counterpoise=2 Scan
 --------------------------------------------------------
 1/38=1,60=1,62=2/1,8;
 2/12=2,17=6,18=5,29=3,40=1/2;
 1/38=1,53=5172,62=2/22;
 3/5=16,6=1,7=10,11=2,16=1,25=1,30=1,74=-41,75=-5/1,2,3;
 4//1;
 5/5=2,38=5/2;
 6/7=2,8=2,9=2,10=2,18=1,28=1/1;
 1/53=4052,62=2,63=1/22;
 3/5=7,6=11,7=10,11=2,16=1,25=1,30=1,74=-41,75=-5,82=7/1,2,3;
 4//1;
 5/5=2,38=5/2;
 6/7=2,8=2,9=2,10=2,18=1,28=1/1;
 1/53=3042,62=2,63=2/22;
 3/5=7,6=11,7=10,11=2,16=1,25=1,30=1,74=-41,75=-5,82=7/1,2,3;
 4//1;
 5/5=2,38=5/2;
 6/7=2,8=2,9=2,10=2,18=1,28=1/1;
 1/53=2032,62=2,63=3/22;
 3/5=7,6=11,7=10,11=2,16=1,25=1,30=1,74=-41,75=-5,82=7/1,2,3;
 4//1;
 5/5=2,38=5/2;
 6/7=2,8=2,9=2,10=2,18=1,28=1/1;
 1/53=1022,62=2,63=4/22;
 3/5=7,6=11,7=10,11=2,16=1,25=1,30=1,74=-41,75=-5,82=7/1,2,3;
 4//1;
 5/5=2,38=5/2;
 6/7=2,8=2,9=2,10=2,18=1,28=1/1;
 1/53=5014,62=2,63=5/22;
 1/60=1,62=2/8(1);
 99/9=1/99;
 2/29=3/2;
 1/53=5173,62=2/22;
 3/5=7,6=11,7=10,11=2,16=1,25=1,30=1,74=-41,75=-5,82=7/1,2,3;
 4/5=5,16=3/1;
 5/5=2,38=5/2;
 1/53=4053,62=2,63=1/22;
 3/5=7,6=11,7=10,11=2,16=1,25=1,30=1,74=-41,75=-5,82=7/1,2,3;
 4/5=5,16=3/1;
 5/5=2,38=5/2;
 1/53=3043,62=2,63=2/22;
 3/5=7,6=11,7=10,11=2,16=1,25=1,30=1,74=-41,75=-5,82=7/1,2,3;
 4/5=5,16=3/1;
 5/5=2,38=5/2;
 1/53=2033,62=2,63=3/22;
 3/5=7,6=11,7=10,11=2,16=1,25=1,30=1,74=-41,75=-5,82=7/1,2,3;
 4/5=5,16=3/1;
 5/5=2,38=5/2;
 1/53=1024,62=2,63=4/22;
 3/5=7,6=11,7=10,11=2,16=1,25=1,30=1,74=-41,75=-5,82=7/1,2,3;
 4/5=5,16=3/1;
 5/5=2,38=5/2;
 1/53=5014,62=2,63=5/22;
 1/60=1,62=2/8(-22);
 99/9=1/99;
 Leave Link    1 at Tue May 12 11:33:37 2020, MaxMem= 1073741824 cpu:       0.2
 (Enter /home/matheus/.gaussian/g09/l101.exe)
 ---
 TCC
 ---
 Charge =  0 Multiplicity = 1 in supermolecule
 Charge =  0 Multiplicity = 1 in fragment  1.
 Charge =  0 Multiplicity = 1 in fragment  2.
 Symbolic Z-Matrix:
 O(Fragment=1)         0.        0.        0.725 
 O(Fragment=1)         0.        0.       -0.725 
 H(Fragment=1)         0.79564   0.45936   1.02351 
 H(Fragment=1)         0.        0.91872  -1.02351 
 Kr(Fragment=2)        0.       R1        0. 
       Variables:
  R1                    3.     Scan 20    0.1    
 
 NAtoms=      5 NQM=        0 NQMF=       0 NMMI=      5 NMMIF=      0
                NMic=       0 NMicF=      0.
                    Isotopes and Nuclear Properties:
 (Nuclear quadrupole moments (NQMom) in fm**2, nuclear magnetic moments (NMagM)
  in nuclear magnetons)

  Atom         1           2           3           4           5
 IAtWgt=          16          16           1           1          84
 AtmWgt=  15.9949146  15.9949146   1.0078250   1.0078250  83.9115064
 NucSpn=           0           0           1           1           0
 AtZEff=   0.0000000   0.0000000   0.0000000   0.0000000   0.0000000
 NQMom=    0.0000000   0.0000000   0.0000000   0.0000000   0.0000000
 NMagM=    0.0000000   0.0000000   2.7928460   2.7928460   0.0000000
 Leave Link  101 at Tue May 12 11:33:37 2020, MaxMem= 1073741824 cpu:       0.3
 (Enter /home/matheus/.gaussian/g09/l108.exe)
 Scan the potential surface.
 Variable   Value     No. Steps Step-Size
 -------- ----------- --------- ---------
     1       3.000000      20      0.1000
 A total of     21 points will be computed.
 Leave Link  108 at Tue May 12 11:33:37 2020, MaxMem= 1073741824 cpu:       0.0
 (Enter /home/matheus/.gaussian/g09/l202.exe)
 ---------------------------------------------------------------------------------------------------
                            Z-MATRIX (ANGSTROMS AND DEGREES)
   CD    Cent   Atom    N1       Length/X        N2       Alpha/Y        N3        Beta/Z          J
 ---------------------------------------------------------------------------------------------------
      1      1  O        0   0.000000          0.000000          0.725000
      2      2  O        0   0.000000          0.000000         -0.725000
      3      3  H        0   0.795635          0.459360          1.023510
      4      4  H        0   0.000000          0.918721         -1.023510
      5      5  Kr       0   0.000000          3.000000          0.000000
 ---------------------------------------------------------------------------------------------------
                         Z-Matrix orientation:                         
 ---------------------------------------------------------------------
 Center     Atomic      Atomic             Coordinates (Angstroms)
 Number     Number       Type             X           Y           Z
 ---------------------------------------------------------------------
      1          8           0        0.000000    0.000000    0.725000
      2          8           0        0.000000    0.000000   -0.725000
      3          1           0        0.795635    0.459360    1.023510
      4          1           0        0.000000    0.918721   -1.023510
      5         36           0        0.000000    3.000000    0.000000
 ---------------------------------------------------------------------
                    Distance matrix (angstroms):
                    1          2          3          4          5
     1  O    0.000000
     2  O    1.450000   0.000000
     3  H    0.966000   1.975180   0.000000
     4  H    1.975180   0.966000   2.243734   0.000000
     5  Kr   3.086361   3.086361   2.852273   2.319331   0.000000
 Stoichiometry    H2KrO2
 Framework group  C1[X(H2KrO2)]
 Deg. of freedom     9
 Full point group                 C1      NOp   1
 Largest Abelian subgroup         C1      NOp   1
 Largest concise Abelian subgroup C1      NOp   1
                         Standard orientation:                         
 ---------------------------------------------------------------------
 Center     Atomic      Atomic             Coordinates (Angstroms)
 Number     Number       Type             X           Y           Z
 ---------------------------------------------------------------------
      1          8           0        2.028906   -0.709015   -0.097019
      2          8           0        2.021423    0.736213    0.020285
      3          1           0        1.580792   -1.073669    0.677176
      4          1           0        1.101242    1.028113    0.055175
      5         36           0       -0.974574   -0.004779   -0.003291
 ---------------------------------------------------------------------
 Rotational constants (GHZ):     25.8520084      2.3670759      2.1795084
 Leave Link  202 at Tue May 12 11:33:37 2020, MaxMem= 1073741824 cpu:       0.0
 (Enter /home/matheus/.gaussian/g09/l122.exe)
 Leave Link  122 at Tue May 12 11:33:37 2020, MaxMem= 1073741824 cpu:       0.0
 (Enter /home/matheus/.gaussian/g09/l301.exe)
 Standard basis: Aug-CC-pVTZ (5D, 7F)
 Ernie: Thresh=  0.10000D-02 Tol=  0.10000D-05 Strict=F.
 Ernie:  38 primitive shells out of 205 were deleted.
 There are   197 symmetry adapted basis functions of A   symmetry.
 Integral buffers will be    131072 words long.
 Raffenetti 2 integral format.
 Two-electron integral symmetry is turned on.
   197 basis functions,   415 primitive gaussians,   229 cartesian basis functions
    27 alpha electrons       27 beta electrons
       nuclear repulsion energy       150.2958872335 Hartrees.
 IExCor=32609 DFT=T Ex+Corr=LC-wPBE ExCW=0 ScaHFX=  1.000000
 ScaDFX=  1.000000  0.000000  1.000000  1.000000 ScalE2=  1.000000  1.000000
 IRadAn=      5 IRanWt=     -1 IRanGd=            0 ICorTp=0
  HFx wShort=  0.000000 wLong=  0.400000 cFull=  0.000000 cShort=  0.000000 cLong=  1.000000
  DFx wShort=  0.000000 wLong=  0.400000 cFull=  0.000000 cShort=  0.000000 cLong=  1.000000
 NAtoms=    5 NActive=    5 NUniq=    5 SFac= 1.00D+00 NAtFMM=   60 NAOKFM=F Big=F
 Leave Link  301 at Tue May 12 11:33:37 2020, MaxMem= 1073741824 cpu:       0.2
 (Enter /home/matheus/.gaussian/g09/l302.exe)
 NPDir=0 NMtPBC=     1 NCelOv=     1 NCel=       1 NClECP=     1 NCelD=      1
         NCelK=      1 NCelE2=     1 NClLst=     1 CellRange=     0.0.
 One-electron integrals computed using PRISM.
 NBasis=   197 RedAO= T  NBF=   197
 NBsUse=   197 1.00D-06 NBFU=   197
 Precomputing XC quadrature grid using
 IXCGrd= 2 IRadAn=           5 IRanWt=          -1 IRanGd=           0 AccXCQ= 0.00D+00.
 NRdTot=     427 NPtTot=      123512 NUsed=      126579 NTot=      126611
 NSgBfM=   229   229   229   229   229 NAtAll=     5     5.
 Leave Link  302 at Tue May 12 11:33:37 2020, MaxMem= 1073741824 cpu:       1.0
 (Enter /home/matheus/.gaussian/g09/l303.exe)
 DipDrv:  MaxL=1.
 Leave Link  303 at Tue May 12 11:33:37 2020, MaxMem= 1073741824 cpu:       0.2
 (Enter /home/matheus/.gaussian/g09/l401.exe)
 Harris functional with IExCor=32609 diagonalized for initial guess.
 ExpMin= 2.53D-02 ExpMax= 1.17D+07 ExpMxC= 1.33D+04 IAcc=3 IRadAn=         5 AccDes= 0.00D+00
 HarFok:  IExCor=32609 AccDes= 0.00D+00 IRadAn=         5 IDoV= 1
 ScaDFX=  1.000000  1.000000  1.000000  1.000000
 FoFCou: FMM=F IPFlag=           0 FMFlag=      100000 FMFlg1=           0
         NFxFlg=           0 DoJE=T BraDBF=F KetDBF=T FulRan=T
         Omega=  0.000000  0.000000  1.000000  0.000000  0.000000 ICntrl=     500 IOpCl=  0
         NMat0=    1 NMatS0=    1 NMatT0=    0 NMatD0=    1 NMtDS0=    0 NMtDT0=    0
         I1Cent=           4 NGrid=           0.
 Petite list used in FoFCou.
 Harris En= -2904.73707885165    
 Initial guess orbital symmetries:
       Occupied  (A) (A) (A) (A) (A) (A) (A) (A) (A) (A) (A) (A)
                 (A) (A) (A) (A) (A) (A) (A) (A) (A) (A) (A) (A)
                 (A) (A) (A)
       Virtual   (A) (A) (A) (A) (A) (A) (A) (A) (A) (A) (A) (A)
                 (A) (A) (A) (A) (A) (A) (A) (A) (A) (A) (A) (A)
                 (A) (A) (A) (A) (A) (A) (A) (A) (A) (A) (A) (A)
                 (A) (A) (A) (A) (A) (A) (A) (A) (A) (A) (A) (A)
                 (A) (A) (A) (A) (A) (A) (A) (A) (A) (A) (A) (A)
                 (A) (A) (A) (A) (A) (A) (A) (A) (A) (A) (A) (A)
                 (A) (A) (A) (A) (A) (A) (A) (A) (A) (A) (A) (A)
                 (A) (A) (A) (A) (A) (A) (A) (A) (A) (A) (A) (A)
                 (A) (A) (A) (A) (A) (A) (A) (A) (A) (A) (A) (A)
                 (A) (A) (A) (A) (A) (A) (A) (A) (A) (A) (A) (A)
                 (A) (A) (A) (A) (A) (A) (A) (A) (A) (A) (A) (A)
                 (A) (A) (A) (A) (A) (A) (A) (A) (A) (A) (A) (A)
                 (A) (A) (A) (A) (A) (A) (A) (A) (A) (A) (A) (A)
                 (A) (A) (A) (A) (A) (A) (A) (A) (A) (A) (A) (A)
                 (A) (A)
 The electronic state of the initial guess is 1-A.
 Leave Link  401 at Tue May 12 11:33:37 2020, MaxMem= 1073741824 cpu:       4.2
 (Enter /home/matheus/.gaussian/g09/l502.exe)
 Closed shell SCF:
 Requested convergence on RMS density matrix=1.00D-08 within 128 cycles.
 Requested convergence on MAX density matrix=1.00D-06.
 Requested convergence on             energy=1.00D-06.
 No special actions if energy rises.
 Using DIIS extrapolation, IDIIS=  1040.
 Integral symmetry usage will be decided dynamically.
       126521 words used for storage of precomputed grid.
 IEnd=      305468 IEndB=      305468 NGot=  1073741824 MDV=  1073505667
 LenX=  1073505667 LenY=  1073452785
 Fock matrices will be formed incrementally for  20 cycles.

 Cycle   1  Pass 1  IDiag  1:
 FoFJK:  IHMeth= 1 ICntrl=     0 DoSepK=T KAlg= 1 I1Cent= 0 FoldK=F
 FoFCou: FMM=F IPFlag=           0 FMFlag=      100000 FMFlg1=           0
         NFxFlg=           0 DoJE=T BraDBF=F KetDBF=F FulRan=T
         Omega=  0.000000  0.000000  1.000000  0.000000  0.000000 ICntrl=     500 IOpCl=  0
         NMat0=    1 NMatS0=    1 NMatT0=    0 NMatD0=    1 NMtDS0=    0 NMtDT0=    0
         I1Cent=           0 NGrid=           0.
 Symmetry not used in FoFCou.
 E= -2904.87873479200    
 DIIS: error= 2.74D-02 at cycle   1 NSaved=   1.
 NSaved= 1 IEnMin= 1 EnMin= -2904.87873479200     IErMin= 1 ErrMin= 2.74D-02
 ErrMax= 2.74D-02 EMaxC= 1.00D-01 BMatC= 2.65D-01 BMatP= 2.65D-01
 IDIUse=3 WtCom= 7.26D-01 WtEn= 2.74D-01
 Coeff-Com:  0.100D+01
 Coeff-En:   0.100D+01
 Coeff:      0.100D+01
 Gap=     0.499 Goal=   None    Shift=    0.000
 GapD=    0.499 DampG=2.000 DampE=0.500 DampFc=1.0000 IDamp=-1.
 RMSDP=2.30D-03 MaxDP=1.49D-01              OVMax= 6.04D-02

 Cycle   2  Pass 1  IDiag  1:
 RMSU=  1.60D-03    CP:  1.02D+00
 FoFJK:  IHMeth= 1 ICntrl=     0 DoSepK=T KAlg= 1 I1Cent= 0 FoldK=F
 E= -2904.92268490669     Delta-E=       -0.043950114693 Rises=F Damp=F
 DIIS: error= 1.08D-02 at cycle   2 NSaved=   2.
 NSaved= 2 IEnMin= 2 EnMin= -2904.92268490669     IErMin= 2 ErrMin= 1.08D-02
 ErrMax= 1.08D-02 EMaxC= 1.00D-01 BMatC= 8.09D-02 BMatP= 2.65D-01
 IDIUse=3 WtCom= 8.92D-01 WtEn= 1.08D-01
 Coeff-Com:  0.349D+00 0.651D+00
 Coeff-En:   0.202D+00 0.798D+00
 Coeff:      0.333D+00 0.667D+00
 Gap=     0.451 Goal=   None    Shift=    0.000
 RMSDP=9.54D-04 MaxDP=5.12D-02 DE=-4.40D-02 OVMax= 3.25D-02

 Cycle   3  Pass 1  IDiag  1:
 RMSU=  3.23D-04    CP:  1.01D+00  6.40D-01
 FoFJK:  IHMeth= 1 ICntrl=     0 DoSepK=T KAlg= 1 I1Cent= 0 FoldK=F
 E= -2904.95191858520     Delta-E=       -0.029233678512 Rises=F Damp=F
 DIIS: error= 2.05D-03 at cycle   3 NSaved=   3.
 NSaved= 3 IEnMin= 3 EnMin= -2904.95191858520     IErMin= 3 ErrMin= 2.05D-03
 ErrMax= 2.05D-03 EMaxC= 1.00D-01 BMatC= 1.93D-03 BMatP= 8.09D-02
 IDIUse=3 WtCom= 9.79D-01 WtEn= 2.05D-02
 Coeff-Com:  0.677D-01 0.200D+00 0.733D+00
 Coeff-En:   0.000D+00 0.000D+00 0.100D+01
 Coeff:      0.663D-01 0.196D+00 0.738D+00
 Gap=     0.431 Goal=   None    Shift=    0.000
 RMSDP=1.25D-04 MaxDP=3.24D-03 DE=-2.92D-02 OVMax= 8.26D-03

 Cycle   4  Pass 1  IDiag  1:
 RMSU=  6.46D-05    CP:  1.01D+00  6.68D-01  8.73D-01
 FoFJK:  IHMeth= 1 ICntrl=     0 DoSepK=T KAlg= 1 I1Cent= 0 FoldK=F
 E= -2904.95296158152     Delta-E=       -0.001042996322 Rises=F Damp=F
 DIIS: error= 5.15D-04 at cycle   4 NSaved=   4.
 NSaved= 4 IEnMin= 4 EnMin= -2904.95296158152     IErMin= 4 ErrMin= 5.15D-04
 ErrMax= 5.15D-04 EMaxC= 1.00D-01 BMatC= 1.48D-04 BMatP= 1.93D-03
 IDIUse=3 WtCom= 9.95D-01 WtEn= 5.15D-03
 Coeff-Com: -0.193D-02 0.262D-01 0.276D+00 0.700D+00
 Coeff-En:   0.000D+00 0.000D+00 0.000D+00 0.100D+01
 Coeff:     -0.192D-02 0.261D-01 0.274D+00 0.702D+00
 Gap=     0.437 Goal=   None    Shift=    0.000
 RMSDP=3.69D-05 MaxDP=1.98D-03 DE=-1.04D-03 OVMax= 1.99D-03

 Cycle   5  Pass 1  IDiag  1:
 RMSU=  1.25D-05    CP:  1.01D+00  6.72D-01  9.32D-01  8.23D-01
 FoFJK:  IHMeth= 1 ICntrl=     0 DoSepK=T KAlg= 1 I1Cent= 0 FoldK=F
 E= -2904.95304437762     Delta-E=       -0.000082796098 Rises=F Damp=F
 DIIS: error= 7.69D-05 at cycle   5 NSaved=   5.
 NSaved= 5 IEnMin= 5 EnMin= -2904.95304437762     IErMin= 5 ErrMin= 7.69D-05
 ErrMax= 7.69D-05 EMaxC= 1.00D-01 BMatC= 2.61D-06 BMatP= 1.48D-04
 IDIUse=1 WtCom= 1.00D+00 WtEn= 0.00D+00
 Coeff-Com: -0.194D-02 0.101D-02 0.444D-01 0.169D+00 0.788D+00
 Coeff:     -0.194D-02 0.101D-02 0.444D-01 0.169D+00 0.788D+00
 Gap=     0.437 Goal=   None    Shift=    0.000
 RMSDP=6.72D-06 MaxDP=2.21D-04 DE=-8.28D-05 OVMax= 5.33D-04

 Cycle   6  Pass 1  IDiag  1:
 RMSU=  4.21D-06    CP:  1.01D+00  6.72D-01  9.32D-01  8.56D-01  1.03D+00
 FoFJK:  IHMeth= 1 ICntrl=     0 DoSepK=T KAlg= 1 I1Cent= 0 FoldK=F
 E= -2904.95304587931     Delta-E=       -0.000001501689 Rises=F Damp=F
 DIIS: error= 5.43D-05 at cycle   6 NSaved=   6.
 NSaved= 6 IEnMin= 6 EnMin= -2904.95304587931     IErMin= 6 ErrMin= 5.43D-05
 ErrMax= 5.43D-05 EMaxC= 1.00D-01 BMatC= 1.08D-06 BMatP= 2.61D-06
 IDIUse=1 WtCom= 1.00D+00 WtEn= 0.00D+00
 Coeff-Com: -0.678D-03-0.301D-02-0.145D-01-0.684D-02 0.401D+00 0.624D+00
 Coeff:     -0.678D-03-0.301D-02-0.145D-01-0.684D-02 0.401D+00 0.624D+00
 Gap=     0.437 Goal=   None    Shift=    0.000
 RMSDP=3.32D-06 MaxDP=1.14D-04 DE=-1.50D-06 OVMax= 2.39D-04

 Cycle   7  Pass 1  IDiag  1:
 RMSU=  1.71D-06    CP:  1.01D+00  6.72D-01  9.32D-01  8.68D-01  1.13D+00
                    CP:  8.58D-01
 FoFJK:  IHMeth= 1 ICntrl=     0 DoSepK=T KAlg= 1 I1Cent= 0 FoldK=F
 E= -2904.95304652085     Delta-E=       -0.000000641537 Rises=F Damp=F
 DIIS: error= 1.12D-05 at cycle   7 NSaved=   7.
 NSaved= 7 IEnMin= 7 EnMin= -2904.95304652085     IErMin= 7 ErrMin= 1.12D-05
 ErrMax= 1.12D-05 EMaxC= 1.00D-01 BMatC= 5.37D-08 BMatP= 1.08D-06
 IDIUse=1 WtCom= 1.00D+00 WtEn= 0.00D+00
 Coeff-Com: -0.512D-05-0.118D-02-0.106D-01-0.241D-01 0.127D-01 0.196D+00
 Coeff-Com:  0.827D+00
 Coeff:     -0.512D-05-0.118D-02-0.106D-01-0.241D-01 0.127D-01 0.196D+00
 Coeff:      0.827D+00
 Gap=     0.437 Goal=   None    Shift=    0.000
 RMSDP=1.07D-06 MaxDP=4.30D-05 DE=-6.42D-07 OVMax= 7.23D-05

 Cycle   8  Pass 1  IDiag  1:
 RMSU=  3.51D-07    CP:  1.01D+00  6.72D-01  9.33D-01  8.72D-01  1.16D+00
                    CP:  9.70D-01  1.02D+00
 FoFJK:  IHMeth= 1 ICntrl=     0 DoSepK=T KAlg= 1 I1Cent= 0 FoldK=F
 E= -2904.95304656396     Delta-E=       -0.000000043117 Rises=F Damp=F
 DIIS: error= 1.75D-06 at cycle   8 NSaved=   8.
 NSaved= 8 IEnMin= 8 EnMin= -2904.95304656396     IErMin= 8 ErrMin= 1.75D-06
 ErrMax= 1.75D-06 EMaxC= 1.00D-01 BMatC= 7.16D-10 BMatP= 5.37D-08
 IDIUse=1 WtCom= 1.00D+00 WtEn= 0.00D+00
 Coeff-Com:  0.291D-04 0.271D-03 0.193D-02 0.353D-02-0.156D-01-0.508D-01
 Coeff-Com: -0.120D+00 0.118D+01
 Coeff:      0.291D-04 0.271D-03 0.193D-02 0.353D-02-0.156D-01-0.508D-01
 Coeff:     -0.120D+00 0.118D+01
 Gap=     0.437 Goal=   None    Shift=    0.000
 RMSDP=2.95D-07 MaxDP=7.21D-06 DE=-4.31D-08 OVMax= 2.54D-05

 Cycle   9  Pass 1  IDiag  1:
 RMSU=  8.48D-08    CP:  1.01D+00  6.72D-01  9.33D-01  8.72D-01  1.17D+00
                    CP:  9.86D-01  1.07D+00  1.36D+00
 FoFJK:  IHMeth= 1 ICntrl=     0 DoSepK=T KAlg= 1 I1Cent= 0 FoldK=F
 E= -2904.95304655871     Delta-E=        0.000000005255 Rises=F Damp=F
 DIIS: error= 4.29D-07 at cycle   9 NSaved=   9.
 NSaved= 9 IEnMin= 8 EnMin= -2904.95304656396     IErMin= 9 ErrMin= 4.29D-07
 ErrMax= 4.29D-07 EMaxC= 1.00D-01 BMatC= 4.26D-11 BMatP= 7.16D-10
 IDIUse=1 WtCom= 1.00D+00 WtEn= 0.00D+00
 Coeff-Com: -0.111D-05 0.475D-04 0.452D-03 0.117D-02-0.675D-03-0.958D-02
 Coeff-Com: -0.402D-01 0.320D-01 0.102D+01
 Coeff:     -0.111D-05 0.475D-04 0.452D-03 0.117D-02-0.675D-03-0.958D-02
 Coeff:     -0.402D-01 0.320D-01 0.102D+01
 Gap=     0.437 Goal=   None    Shift=    0.000
 RMSDP=5.85D-08 MaxDP=2.01D-06 DE= 5.26D-09 OVMax= 6.28D-06

 Cycle  10  Pass 1  IDiag  1:
 RMSU=  2.19D-08    CP:  1.01D+00  6.72D-01  9.33D-01  8.72D-01  1.17D+00
                    CP:  9.86D-01  1.07D+00  1.44D+00  1.22D+00
 FoFJK:  IHMeth= 1 ICntrl=     0 DoSepK=T KAlg= 1 I1Cent= 0 FoldK=F
 E= -2904.95304655883     Delta-E=       -0.000000000123 Rises=F Damp=F
 DIIS: error= 1.09D-07 at cycle  10 NSaved=  10.
 NSaved=10 IEnMin= 8 EnMin= -2904.95304656396     IErMin=10 ErrMin= 1.09D-07
 ErrMax= 1.09D-07 EMaxC= 1.00D-01 BMatC= 3.53D-12 BMatP= 4.26D-11
 IDIUse=1 WtCom= 1.00D+00 WtEn= 0.00D+00
 Coeff-Com: -0.194D-05-0.163D-04-0.117D-03-0.203D-03 0.114D-02 0.335D-02
 Coeff-Com:  0.619D-02-0.842D-01 0.556D-01 0.102D+01
 Coeff:     -0.194D-05-0.163D-04-0.117D-03-0.203D-03 0.114D-02 0.335D-02
 Coeff:      0.619D-02-0.842D-01 0.556D-01 0.102D+01
 Gap=     0.437 Goal=   None    Shift=    0.000
 RMSDP=1.97D-08 MaxDP=8.92D-07 DE=-1.23D-10 OVMax= 2.24D-06

 Cycle  11  Pass 1  IDiag  1:
 RMSU=  6.41D-09    CP:  1.01D+00  6.72D-01  9.33D-01  8.72D-01  1.17D+00
                    CP:  9.85D-01  1.07D+00  1.45D+00  1.32D+00  1.27D+00
 FoFJK:  IHMeth= 1 ICntrl=     0 DoSepK=T KAlg= 1 I1Cent= 0 FoldK=F
 E= -2904.95304655885     Delta-E=       -0.000000000017 Rises=F Damp=F
 DIIS: error= 4.59D-08 at cycle  11 NSaved=  11.
 NSaved=11 IEnMin= 8 EnMin= -2904.95304656396     IErMin=11 ErrMin= 4.59D-08
 ErrMax= 4.59D-08 EMaxC= 1.00D-01 BMatC= 3.45D-13 BMatP= 3.53D-12
 IDIUse=1 WtCom= 1.00D+00 WtEn= 0.00D+00
 Coeff-Com:  0.187D-06-0.312D-05-0.319D-04-0.958D-04 0.630D-04 0.850D-03
 Coeff-Com:  0.304D-02-0.425D-02-0.718D-01-0.542D-02 0.108D+01
 Coeff:      0.187D-06-0.312D-05-0.319D-04-0.958D-04 0.630D-04 0.850D-03
 Coeff:      0.304D-02-0.425D-02-0.718D-01-0.542D-02 0.108D+01
 Gap=     0.437 Goal=   None    Shift=    0.000
 RMSDP=6.87D-09 MaxDP=2.21D-07 DE=-1.68D-11 OVMax= 8.67D-07

 SCF Done:  E(RLC-wPBE) =  -2904.95304656     A.U. after   11 cycles
             Convg  =    0.6869D-08             -V/T =  2.0017
 KE= 2.900056577088D+03 PE=-7.236954170737D+03 EE= 1.281648659857D+03
 Leave Link  502 at Tue May 12 11:34:11 2020, MaxMem= 1073741824 cpu:     267.8
 (Enter /home/matheus/.gaussian/g09/l601.exe)
 Copying SCF densities to generalized density rwf, IOpCl= 0 IROHF=0.

 **********************************************************************

            Population analysis using the SCF density.

 **********************************************************************

 Orbital symmetries:
       Occupied  (A) (A) (A) (A) (A) (A) (A) (A) (A) (A) (A) (A)
                 (A) (A) (A) (A) (A) (A) (A) (A) (A) (A) (A) (A)
                 (A) (A) (A)
       Virtual   (A) (A) (A) (A) (A) (A) (A) (A) (A) (A) (A) (A)
                 (A) (A) (A) (A) (A) (A) (A) (A) (A) (A) (A) (A)
                 (A) (A) (A) (A) (A) (A) (A) (A) (A) (A) (A) (A)
                 (A) (A) (A) (A) (A) (A) (A) (A) (A) (A) (A) (A)
                 (A) (A) (A) (A) (A) (A) (A) (A) (A) (A) (A) (A)
                 (A) (A) (A) (A) (A) (A) (A) (A) (A) (A) (A) (A)
                 (A) (A) (A) (A) (A) (A) (A) (A) (A) (A) (A) (A)
                 (A) (A) (A) (A) (A) (A) (A) (A) (A) (A) (A) (A)
                 (A) (A) (A) (A) (A) (A) (A) (A) (A) (A) (A) (A)
                 (A) (A) (A) (A) (A) (A) (A) (A) (A) (A) (A) (A)
                 (A) (A) (A) (A) (A) (A) (A) (A) (A) (A) (A) (A)
                 (A) (A) (A) (A) (A) (A) (A) (A) (A) (A) (A) (A)
                 (A) (A) (A) (A) (A) (A) (A) (A) (A) (A) (A) (A)
                 (A) (A) (A) (A) (A) (A) (A) (A) (A) (A) (A) (A)
                 (A) (A)
 The electronic state is 1-A.
 Alpha  occ. eigenvalues -- -511.13057 -66.67745 -60.33968 -60.33955 -60.33944
 Alpha  occ. eigenvalues --  -19.03577 -19.03265  -9.61025  -7.35485  -7.35445
 Alpha  occ. eigenvalues --   -7.35414  -3.31025  -3.31018  -3.30996  -3.30966
 Alpha  occ. eigenvalues --   -3.30963  -1.25467  -1.05873  -1.03814  -0.70332
 Alpha  occ. eigenvalues --   -0.58792  -0.56196  -0.52969  -0.52555  -0.51468
 Alpha  occ. eigenvalues --   -0.45826  -0.40533
 Alpha virt. eigenvalues --    0.03123   0.04142   0.08227   0.09191   0.10192
 Alpha virt. eigenvalues --    0.11421   0.13051   0.14248   0.17278   0.17781
 Alpha virt. eigenvalues --    0.18111   0.19313   0.20211   0.22027   0.23920
 Alpha virt. eigenvalues --    0.24612   0.25654   0.28591   0.31071   0.32552
 Alpha virt. eigenvalues --    0.33846   0.35361   0.37386   0.39112   0.40083
 Alpha virt. eigenvalues --    0.41333   0.42836   0.47621   0.53338   0.55004
 Alpha virt. eigenvalues --    0.56314   0.59999   0.61714   0.64392   0.68290
 Alpha virt. eigenvalues --    0.70035   0.71571   0.73937   0.75531   0.76038
 Alpha virt. eigenvalues --    0.77177   0.77798   0.79480   0.80578   0.84048
 Alpha virt. eigenvalues --    0.84895   0.87130   0.89013   0.90013   0.91400
 Alpha virt. eigenvalues --    0.91812   0.95439   0.96220   0.98532   0.99252
 Alpha virt. eigenvalues --    0.99981   1.03263   1.05748   1.07800   1.11057
 Alpha virt. eigenvalues --    1.11234   1.14695   1.18339   1.22559   1.25005
 Alpha virt. eigenvalues --    1.27762   1.33430   1.37919   1.39264   1.41326
 Alpha virt. eigenvalues --    1.43610   1.48105   1.50477   1.54947   1.59556
 Alpha virt. eigenvalues --    1.67874   1.69710   1.83576   1.91343   1.92954
 Alpha virt. eigenvalues --    2.00697   2.04836   2.07103   2.09869   2.13127
 Alpha virt. eigenvalues --    2.15693   2.17807   2.19424   2.21728   2.25519
 Alpha virt. eigenvalues --    2.27576   2.29357   2.30092   2.31528   2.33223
 Alpha virt. eigenvalues --    2.36706   2.38373   2.44292   2.47919   2.48262
 Alpha virt. eigenvalues --    2.49460   2.51230   2.53697   2.56696   2.57553
 Alpha virt. eigenvalues --    2.59229   2.62141   2.65843   2.69541   2.71842
 Alpha virt. eigenvalues --    2.72604   2.75978   2.81786   2.85987   2.88910
 Alpha virt. eigenvalues --    2.94641   3.01268   3.08550   3.12220   3.60103
 Alpha virt. eigenvalues --    3.68898   3.93357   3.95122   3.99183   4.05728
 Alpha virt. eigenvalues --    4.08149   4.11744   4.23928   4.24555   4.27841
 Alpha virt. eigenvalues --    4.39622   4.45879   4.53745   4.58520   4.71063
 Alpha virt. eigenvalues --    4.95320   4.97880   4.99649   5.09836   5.16377
 Alpha virt. eigenvalues --    5.17028   5.41707   5.83507   5.99717   6.12148
 Alpha virt. eigenvalues --    6.15273   6.26744   6.34147   6.39398   6.49891
 Alpha virt. eigenvalues --    6.62182   6.72547   6.75159   6.80469   6.83136
 Alpha virt. eigenvalues --    6.87503   6.88697   6.90284   6.92421   7.01096
 Alpha virt. eigenvalues --    7.06228   7.12438   7.22033   7.45723   7.47354
 Alpha virt. eigenvalues --    7.80227   8.03921   8.11638  14.00705  14.56356
          Condensed to atoms (all electrons):
              1          2          3          4          5
     1  O    8.291257  -0.248534   0.176000   0.013604  -0.022978
     2  O   -0.248534   8.274789   0.023973   0.185722  -0.014173
     3  H    0.176000   0.023973   0.595368  -0.004158  -0.001529
     4  H    0.013604   0.185722  -0.004158   0.607218  -0.013599
     5  Kr  -0.022978  -0.014173  -0.001529  -0.013599  36.042710
 Mulliken atomic charges:
              1
     1  O   -0.209350
     2  O   -0.221778
     3  H    0.210345
     4  H    0.211214
     5  Kr   0.009568
 Sum of Mulliken atomic charges =   0.00000
 Mulliken charges with hydrogens summed into heavy atoms:
              1
     1  O    0.000995
     2  O   -0.010564
     5  Kr   0.009568
 Sum of Mulliken charges with hydrogens summed into heavy atoms =   0.00000
          Condensed to fragments (all electrons):
     1      -0.009568
     2       0.009568
 Electronic spatial extent (au):  <R**2>=            479.7887
 Charge=              0.0000 electrons
 Dipole moment (field-independent basis, Debye):
    X=             -2.6660    Y=             -0.2827    Z=              1.2340  Tot=              2.9513
 Quadrupole moment (field-independent basis, Debye-Ang):
   XX=            -37.4036   YY=            -27.9488   ZZ=            -29.3691
   XY=             -1.1613   XZ=              1.9956   YZ=             -1.5979
 Traceless Quadrupole moment (field-independent basis, Debye-Ang):
   XX=             -5.8298   YY=              3.6251   ZZ=              2.2047
   XY=             -1.1613   XZ=              1.9956   YZ=             -1.5979
 Octapole moment (field-independent basis, Debye-Ang**2):
  XXX=            -42.3990  YYY=             -0.7627  ZZZ=              0.7256  XYY=             -6.6044
  XXY=             -3.0611  XXZ=              2.3206  XZZ=             -6.7886  YZZ=             -1.4252
  YYZ=              1.9569  XYZ=             -2.5595
 Hexadecapole moment (field-independent basis, Debye-Ang**3):
 XXXX=           -463.2470 YYYY=            -63.2330 ZZZZ=            -29.8334 XXXY=             -4.7901
 XXXZ=              3.1532 YYYX=             -2.2357 YYYZ=             -2.3400 ZZZX=              1.5647
 ZZZY=             -1.5428 XXYY=            -84.2855 XXZZ=            -74.0780 YYZZ=            -16.2831
 XXYZ=             -4.1877 YYXZ=              3.0930 ZZXY=             -2.2746
 N-N= 1.502958872335D+02 E-N=-7.236954174084D+03  KE= 2.900056577088D+03
 No NMR shielding tensors so no spin-rotation constants.
 Leave Link  601 at Tue May 12 11:34:11 2020, MaxMem= 1073741824 cpu:       0.9
 (Enter /home/matheus/.gaussian/g09/l122.exe)
 Counterpoise: doing DCBS calculation for fragment   1 NewBq=T
 Leave Link  122 at Tue May 12 11:34:11 2020, MaxMem= 1073741824 cpu:       0.0
 (Enter /home/matheus/.gaussian/g09/l301.exe)
 Basis read from rwf:  (5D, 7F)
 No pseudopotential information found on rwf file.
 There are   197 symmetry adapted basis functions of A   symmetry.
 Integral buffers will be    131072 words long.
 Raffenetti 2 integral format.
 Two-electron integral symmetry is turned on.
   197 basis functions,   415 primitive gaussians,   229 cartesian basis functions
     9 alpha electrons        9 beta electrons
       nuclear repulsion energy        36.6440881780 Hartrees.
 IExCor=32609 DFT=T Ex+Corr=LC-wPBE ExCW=0 ScaHFX=  1.000000
 ScaDFX=  1.000000  0.000000  1.000000  1.000000 ScalE2=  1.000000  1.000000
 IRadAn=      5 IRanWt=     -1 IRanGd=            0 ICorTp=0
  HFx wShort=  0.000000 wLong=  0.400000 cFull=  0.000000 cShort=  0.000000 cLong=  1.000000
  DFx wShort=  0.000000 wLong=  0.400000 cFull=  0.000000 cShort=  0.000000 cLong=  1.000000
 NAtoms=    5 NActive=    5 NUniq=    5 SFac= 1.00D+00 NAtFMM=   60 NAOKFM=F Big=F
 No density basis found on file   718.
 Leave Link  301 at Tue May 12 11:34:11 2020, MaxMem= 1073741824 cpu:       0.2
 (Enter /home/matheus/.gaussian/g09/l302.exe)
 NPDir=0 NMtPBC=     1 NCelOv=     1 NCel=       1 NClECP=     1 NCelD=      1
         NCelK=      1 NCelE2=     1 NClLst=     1 CellRange=     0.0.
 One-electron integrals computed using PRISM.
 NBasis=   197 RedAO= T  NBF=   197
 NBsUse=   197 1.00D-06 NBFU=   197
 Precomputing XC quadrature grid using
 IXCGrd= 2 IRadAn=           5 IRanWt=          -1 IRanGd=           0 AccXCQ= 0.00D+00.
 NRdTot=     427 NPtTot=      123512 NUsed=      126579 NTot=      126611
 NSgBfM=   229   229   229   229   229 NAtAll=     5     5.
 Leave Link  302 at Tue May 12 11:34:11 2020, MaxMem= 1073741824 cpu:       1.0
 (Enter /home/matheus/.gaussian/g09/l303.exe)
 DipDrv:  MaxL=1.
 Leave Link  303 at Tue May 12 11:34:11 2020, MaxMem= 1073741824 cpu:       0.2
 (Enter /home/matheus/.gaussian/g09/l401.exe)
 Harris functional with IExCor=32609 diagonalized for initial guess.
 ExpMin= 2.53D-02 ExpMax= 1.17D+07 ExpMxC= 1.33D+04 IAcc=3 IRadAn=         5 AccDes= 0.00D+00
 HarFok:  IExCor=32609 AccDes= 0.00D+00 IRadAn=         5 IDoV= 1
 ScaDFX=  1.000000  1.000000  1.000000  1.000000
 FoFCou: FMM=F IPFlag=           0 FMFlag=      100000 FMFlg1=           0
         NFxFlg=           0 DoJE=T BraDBF=F KetDBF=T FulRan=T
         Omega=  0.000000  0.000000  1.000000  0.000000  0.000000 ICntrl=     500 IOpCl=  0
         NMat0=    1 NMatS0=    1 NMatT0=    0 NMatD0=    1 NMtDS0=    0 NMtDT0=    0
         I1Cent=           4 NGrid=           0.
 Petite list used in FoFCou.
 Harris En= -151.501775673436    
 Initial guess orbital symmetries:
       Occupied  (A) (A) (A) (A) (A) (A) (A) (A) (A)
       Virtual   (A) (A) (A) (A) (A) (A) (A) (A) (A) (A) (A) (A)
                 (A) (A) (A) (A) (A) (A) (A) (A) (A) (A) (A) (A)
                 (A) (A) (A) (A) (A) (A) (A) (A) (A) (A) (A) (A)
                 (A) (A) (A) (A) (A) (A) (A) (A) (A) (A) (A) (A)
                 (A) (A) (A) (A) (A) (A) (A) (A) (A) (A) (A) (A)
                 (A) (A) (A) (A) (A) (A) (A) (A) (A) (A) (A) (A)
                 (A) (A) (A) (A) (A) (A) (A) (A) (A) (A) (A) (A)
                 (A) (A) (A) (A) (A) (A) (A) (A) (A) (A) (A) (A)
                 (A) (A) (A) (A) (A) (A) (A) (A) (A) (A) (A) (A)
                 (A) (A) (A) (A) (A) (A) (A) (A) (A) (A) (A) (A)
                 (A) (A) (A) (A) (A) (A) (A) (A) (A) (A) (A) (A)
                 (A) (A) (A) (A) (A) (A) (A) (A) (A) (A) (A) (A)
                 (A) (A) (A) (A) (A) (A) (A) (A) (A) (A) (A) (A)
                 (A) (A) (A) (A) (A) (A) (A) (A) (A) (A) (A) (A)
                 (A) (A) (A) (A) (A) (A) (A) (A) (A) (A) (A) (A)
                 (A) (A) (A) (A) (A) (A) (A) (A)
 The electronic state of the initial guess is 1-A.
 Leave Link  401 at Tue May 12 11:34:12 2020, MaxMem= 1073741824 cpu:       3.9
 (Enter /home/matheus/.gaussian/g09/l502.exe)
 Closed shell SCF:
 Requested convergence on RMS density matrix=1.00D-08 within 128 cycles.
 Requested convergence on MAX density matrix=1.00D-06.
 Requested convergence on             energy=1.00D-06.
 No special actions if energy rises.
 Using DIIS extrapolation, IDIIS=  1040.
 Integral symmetry usage will be decided dynamically.
       126521 words used for storage of precomputed grid.
 IEnd=      305468 IEndB=      305468 NGot=  1073741824 MDV=  1073505667
 LenX=  1073505667 LenY=  1073452785
 Fock matrices will be formed incrementally for  20 cycles.

 Cycle   1  Pass 1  IDiag  1:
 FoFJK:  IHMeth= 1 ICntrl=     0 DoSepK=T KAlg= 1 I1Cent= 0 FoldK=F
 FoFCou: FMM=F IPFlag=           0 FMFlag=      100000 FMFlg1=           0
         NFxFlg=           0 DoJE=T BraDBF=F KetDBF=F FulRan=T
         Omega=  0.000000  0.000000  1.000000  0.000000  0.000000 ICntrl=     500 IOpCl=  0
         NMat0=    1 NMatS0=    1 NMatT0=    0 NMatD0=    1 NMtDS0=    0 NMtDT0=    0
         I1Cent=           0 NGrid=           0.
 Symmetry not used in FoFCou.
 E= -151.494608312978    
 DIIS: error= 1.19D-02 at cycle   1 NSaved=   1.
 NSaved= 1 IEnMin= 1 EnMin= -151.494608312978     IErMin= 1 ErrMin= 1.19D-02
 ErrMax= 1.19D-02 EMaxC= 1.00D-01 BMatC= 4.03D-02 BMatP= 4.03D-02
 IDIUse=3 WtCom= 8.81D-01 WtEn= 1.19D-01
 Coeff-Com:  0.100D+01
 Coeff-En:   0.100D+01
 Coeff:      0.100D+01
 Gap=     0.500 Goal=   None    Shift=    0.000
 GapD=    0.500 DampG=2.000 DampE=0.500 DampFc=1.0000 IDamp=-1.
 RMSDP=8.53D-04 MaxDP=2.36D-02              OVMax= 6.12D-02

 Cycle   2  Pass 1  IDiag  1:
 RMSU=  6.00D-04    CP:  9.91D-01
 FoFJK:  IHMeth= 1 ICntrl=     0 DoSepK=T KAlg= 1 I1Cent= 0 FoldK=F
 E= -151.508643225291     Delta-E=       -0.014034912313 Rises=F Damp=F
 DIIS: error= 8.31D-03 at cycle   2 NSaved=   2.
 NSaved= 2 IEnMin= 2 EnMin= -151.508643225291     IErMin= 2 ErrMin= 8.31D-03
 ErrMax= 8.31D-03 EMaxC= 1.00D-01 BMatC= 2.34D-02 BMatP= 4.03D-02
 IDIUse=3 WtCom= 9.17D-01 WtEn= 8.31D-02
 Coeff-Com:  0.425D+00 0.575D+00
 Coeff-En:   0.269D+00 0.731D+00
 Coeff:      0.412D+00 0.588D+00
 Gap=     0.434 Goal=   None    Shift=    0.000
 RMSDP=4.77D-04 MaxDP=2.32D-02 DE=-1.40D-02 OVMax= 2.75D-02

 Cycle   3  Pass 1  IDiag  1:
 RMSU=  2.34D-04    CP:  9.87D-01  5.98D-01
 FoFJK:  IHMeth= 1 ICntrl=     0 DoSepK=T KAlg= 1 I1Cent= 0 FoldK=F
 E= -151.522382757114     Delta-E=       -0.013739531823 Rises=F Damp=F
 DIIS: error= 1.48D-03 at cycle   3 NSaved=   3.
 NSaved= 3 IEnMin= 3 EnMin= -151.522382757114     IErMin= 3 ErrMin= 1.48D-03
 ErrMax= 1.48D-03 EMaxC= 1.00D-01 BMatC= 3.93D-04 BMatP= 2.34D-02
 IDIUse=3 WtCom= 9.85D-01 WtEn= 1.48D-02
 Coeff-Com:  0.661D-01 0.146D+00 0.788D+00
 Coeff-En:   0.000D+00 0.000D+00 0.100D+01
 Coeff:      0.651D-01 0.144D+00 0.791D+00
 Gap=     0.429 Goal=   None    Shift=    0.000
 RMSDP=5.58D-05 MaxDP=1.91D-03 DE=-1.37D-02 OVMax= 4.02D-03

 Cycle   4  Pass 1  IDiag  1:
 RMSU=  2.85D-05    CP:  9.85D-01  6.39D-01  1.02D+00
 FoFJK:  IHMeth= 1 ICntrl=     0 DoSepK=T KAlg= 1 I1Cent= 0 FoldK=F
 E= -151.522623071894     Delta-E=       -0.000240314780 Rises=F Damp=F
 DIIS: error= 1.87D-04 at cycle   4 NSaved=   4.
 NSaved= 4 IEnMin= 4 EnMin= -151.522623071894     IErMin= 4 ErrMin= 1.87D-04
 ErrMax= 1.87D-04 EMaxC= 1.00D-01 BMatC= 1.39D-05 BMatP= 3.93D-04
 IDIUse=3 WtCom= 9.98D-01 WtEn= 1.87D-03
 Coeff-Com: -0.537D-02-0.981D-02 0.115D+00 0.900D+00
 Coeff-En:   0.000D+00 0.000D+00 0.000D+00 0.100D+01
 Coeff:     -0.536D-02-0.980D-02 0.115D+00 0.900D+00
 Gap=     0.431 Goal=   None    Shift=    0.000
 RMSDP=1.27D-05 MaxDP=7.24D-04 DE=-2.40D-04 OVMax= 7.51D-04

 Cycle   5  Pass 1  IDiag  1:
 RMSU=  5.78D-06    CP:  9.85D-01  6.37D-01  1.05D+00  1.00D+00
 FoFJK:  IHMeth= 1 ICntrl=     0 DoSepK=T KAlg= 1 I1Cent= 0 FoldK=F
 E= -151.522632619239     Delta-E=       -0.000009547345 Rises=F Damp=F
 DIIS: error= 2.59D-05 at cycle   5 NSaved=   5.
 NSaved= 5 IEnMin= 5 EnMin= -151.522632619239     IErMin= 5 ErrMin= 2.59D-05
 ErrMax= 2.59D-05 EMaxC= 1.00D-01 BMatC= 1.11D-07 BMatP= 1.39D-05
 IDIUse=1 WtCom= 1.00D+00 WtEn= 0.00D+00
 Coeff-Com: -0.782D-03-0.192D-02-0.277D-01-0.854D-01 0.112D+01
 Coeff:     -0.782D-03-0.192D-02-0.277D-01-0.854D-01 0.112D+01
 Gap=     0.431 Goal=   None    Shift=    0.000
 RMSDP=2.88D-06 MaxDP=1.02D-04 DE=-9.55D-06 OVMax= 2.41D-04

 Cycle   6  Pass 1  IDiag  1:
 RMSU=  8.80D-07    CP:  9.85D-01  6.38D-01  1.05D+00  1.02D+00  1.28D+00
 FoFJK:  IHMeth= 1 ICntrl=     0 DoSepK=T KAlg= 1 I1Cent= 0 FoldK=F
 E= -151.522632867655     Delta-E=       -0.000000248416 Rises=F Damp=F
 DIIS: error= 5.05D-06 at cycle   6 NSaved=   6.
 NSaved= 6 IEnMin= 6 EnMin= -151.522632867655     IErMin= 6 ErrMin= 5.05D-06
 ErrMax= 5.05D-06 EMaxC= 1.00D-01 BMatC= 4.80D-09 BMatP= 1.11D-07
 IDIUse=1 WtCom= 1.00D+00 WtEn= 0.00D+00
 Coeff-Com:  0.140D-03 0.331D-03-0.489D-03-0.113D-01-0.556D-01 0.107D+01
 Coeff:      0.140D-03 0.331D-03-0.489D-03-0.113D-01-0.556D-01 0.107D+01
 Gap=     0.431 Goal=   None    Shift=    0.000
 RMSDP=5.45D-07 MaxDP=1.49D-05 DE=-2.48D-07 OVMax= 8.49D-05

 Cycle   7  Pass 1  IDiag  1:
 RMSU=  2.09D-07    CP:  9.85D-01  6.38D-01  1.05D+00  1.02D+00  1.32D+00
                    CP:  1.23D+00
 FoFJK:  IHMeth= 1 ICntrl=     0 DoSepK=T KAlg= 1 I1Cent= 0 FoldK=F
 E= -151.522632897379     Delta-E=       -0.000000029724 Rises=F Damp=F
 DIIS: error= 2.13D-06 at cycle   7 NSaved=   7.
 NSaved= 7 IEnMin= 7 EnMin= -151.522632897379     IErMin= 7 ErrMin= 2.13D-06
 ErrMax= 2.13D-06 EMaxC= 1.00D-01 BMatC= 7.54D-10 BMatP= 4.80D-09
 IDIUse=1 WtCom= 1.00D+00 WtEn= 0.00D+00
 Coeff-Com:  0.526D-04 0.128D-03 0.133D-02 0.371D-02-0.726D-01 0.846D-01
 Coeff-Com:  0.983D+00
 Coeff:      0.526D-04 0.128D-03 0.133D-02 0.371D-02-0.726D-01 0.846D-01
 Coeff:      0.983D+00
 Gap=     0.431 Goal=   None    Shift=    0.000
 RMSDP=1.92D-07 MaxDP=5.32D-06 DE=-2.97D-08 OVMax= 3.58D-05

 Cycle   8  Pass 1  IDiag  1:
 RMSU=  7.66D-08    CP:  9.85D-01  6.38D-01  1.05D+00  1.02D+00  1.33D+00
                    CP:  1.32D+00  1.30D+00
 FoFJK:  IHMeth= 1 ICntrl=     0 DoSepK=T KAlg= 1 I1Cent= 0 FoldK=F
 E= -151.522632899369     Delta-E=       -0.000000001990 Rises=F Damp=F
 DIIS: error= 1.01D-06 at cycle   8 NSaved=   8.
 NSaved= 8 IEnMin= 8 EnMin= -151.522632899369     IErMin= 8 ErrMin= 1.01D-06
 ErrMax= 1.01D-06 EMaxC= 1.00D-01 BMatC= 4.01D-10 BMatP= 7.54D-10
 IDIUse=1 WtCom= 1.00D+00 WtEn= 0.00D+00
 Coeff-Com:  0.978D-05 0.212D-04 0.648D-03 0.308D-02-0.284D-01-0.822D-01
 Coeff-Com:  0.489D+00 0.618D+00
 Coeff:      0.978D-05 0.212D-04 0.648D-03 0.308D-02-0.284D-01-0.822D-01
 Coeff:      0.489D+00 0.618D+00
 Gap=     0.431 Goal=   None    Shift=    0.000
 RMSDP=6.78D-08 MaxDP=2.35D-06 DE=-1.99D-09 OVMax= 1.17D-05

 Cycle   9  Pass 1  IDiag  1:
 RMSU=  3.56D-08    CP:  9.85D-01  6.38D-01  1.05D+00  1.02D+00  1.33D+00
                    CP:  1.33D+00  1.43D+00  8.80D-01
 FoFJK:  IHMeth= 1 ICntrl=     0 DoSepK=T KAlg= 1 I1Cent= 0 FoldK=F
 E= -151.522632899812     Delta-E=       -0.000000000442 Rises=F Damp=F
 DIIS: error= 4.10D-07 at cycle   9 NSaved=   9.
 NSaved= 9 IEnMin= 9 EnMin= -151.522632899812     IErMin= 9 ErrMin= 4.10D-07
 ErrMax= 4.10D-07 EMaxC= 1.00D-01 BMatC= 3.78D-11 BMatP= 4.01D-10
 IDIUse=1 WtCom= 1.00D+00 WtEn= 0.00D+00
 Coeff-Com: -0.117D-04-0.332D-04-0.266D-03-0.382D-03 0.154D-01-0.410D-01
 Coeff-Com: -0.178D+00 0.148D+00 0.106D+01
 Coeff:     -0.117D-04-0.332D-04-0.266D-03-0.382D-03 0.154D-01-0.410D-01
 Coeff:     -0.178D+00 0.148D+00 0.106D+01
 Gap=     0.431 Goal=   None    Shift=    0.000
 RMSDP=4.62D-08 MaxDP=1.55D-06 DE=-4.42D-10 OVMax= 9.28D-06

 Cycle  10  Pass 1  IDiag  1:
 RMSU=  1.16D-08    CP:  9.85D-01  6.38D-01  1.05D+00  1.03D+00  1.33D+00
                    CP:  1.33D+00  1.52D+00  1.12D+00  1.28D+00
 FoFJK:  IHMeth= 1 ICntrl=     0 DoSepK=T KAlg= 1 I1Cent= 0 FoldK=F
 E= -151.522632899907     Delta-E=       -0.000000000095 Rises=F Damp=F
 DIIS: error= 7.32D-08 at cycle  10 NSaved=  10.
 NSaved=10 IEnMin=10 EnMin= -151.522632899907     IErMin=10 ErrMin= 7.32D-08
 ErrMax= 7.32D-08 EMaxC= 1.00D-01 BMatC= 7.83D-13 BMatP= 3.78D-11
 IDIUse=1 WtCom= 1.00D+00 WtEn= 0.00D+00
 Coeff-Com:  0.101D-05 0.328D-05-0.520D-05-0.149D-03-0.885D-04 0.950D-02
 Coeff-Com: -0.146D-01-0.530D-01-0.115D+00 0.117D+01
 Coeff:      0.101D-05 0.328D-05-0.520D-05-0.149D-03-0.885D-04 0.950D-02
 Coeff:     -0.146D-01-0.530D-01-0.115D+00 0.117D+01
 Gap=     0.431 Goal=   None    Shift=    0.000
 RMSDP=1.05D-08 MaxDP=2.71D-07 DE=-9.52D-11 OVMax= 1.82D-06

 Cycle  11  Pass 1  IDiag  1:
 RMSU=  2.08D-09    CP:  9.85D-01  6.38D-01  1.05D+00  1.03D+00  1.33D+00
                    CP:  1.33D+00  1.53D+00  1.15D+00  1.39D+00  1.31D+00
 FoFJK:  IHMeth= 1 ICntrl=     0 DoSepK=T KAlg= 1 I1Cent= 0 FoldK=F
 E= -151.522632899909     Delta-E=       -0.000000000003 Rises=F Damp=F
 DIIS: error= 1.40D-08 at cycle  11 NSaved=  11.
 NSaved=11 IEnMin=11 EnMin= -151.522632899909     IErMin=11 ErrMin= 1.40D-08
 ErrMax= 1.40D-08 EMaxC= 1.00D-01 BMatC= 2.34D-14 BMatP= 7.83D-13
 IDIUse=1 WtCom= 1.00D+00 WtEn= 0.00D+00
 Coeff-Com:  0.564D-06 0.179D-05 0.132D-04 0.187D-04-0.723D-03 0.197D-02
 Coeff-Com:  0.925D-02-0.271D-02-0.375D-01-0.620D-01 0.109D+01
 Coeff:      0.564D-06 0.179D-05 0.132D-04 0.187D-04-0.723D-03 0.197D-02
 Coeff:      0.925D-02-0.271D-02-0.375D-01-0.620D-01 0.109D+01
 Gap=     0.431 Goal=   None    Shift=    0.000
 RMSDP=1.99D-09 MaxDP=8.83D-08 DE=-2.73D-12 OVMax= 1.39D-07

 SCF Done:  E(RLC-wPBE) =  -151.522632900     A.U. after   11 cycles
             Convg  =    0.1995D-08             -V/T =  2.0067
 KE= 1.505183742353D+02 PE=-4.315444444038D+02 EE= 9.285934909051D+01
 Leave Link  502 at Tue May 12 11:34:44 2020, MaxMem= 1073741824 cpu:     254.0
 (Enter /home/matheus/.gaussian/g09/l601.exe)
 Copying SCF densities to generalized density rwf, IOpCl= 0 IROHF=0.

 **********************************************************************

            Population analysis using the SCF density.

 **********************************************************************

 Orbital symmetries:
       Occupied  (A) (A) (A) (A) (A) (A) (A) (A) (A)
       Virtual   (A) (A) (A) (A) (A) (A) (A) (A) (A) (A) (A) (A)
                 (A) (A) (A) (A) (A) (A) (A) (A) (A) (A) (A) (A)
                 (A) (A) (A) (A) (A) (A) (A) (A) (A) (A) (A) (A)
                 (A) (A) (A) (A) (A) (A) (A) (A) (A) (A) (A) (A)
                 (A) (A) (A) (A) (A) (A) (A) (A) (A) (A) (A) (A)
                 (A) (A) (A) (A) (A) (A) (A) (A) (A) (A) (A) (A)
                 (A) (A) (A) (A) (A) (A) (A) (A) (A) (A) (A) (A)
                 (A) (A) (A) (A) (A) (A) (A) (A) (A) (A) (A) (A)
                 (A) (A) (A) (A) (A) (A) (A) (A) (A) (A) (A) (A)
                 (A) (A) (A) (A) (A) (A) (A) (A) (A) (A) (A) (A)
                 (A) (A) (A) (A) (A) (A) (A) (A) (A) (A) (A) (A)
                 (A) (A) (A) (A) (A) (A) (A) (A) (A) (A) (A) (A)
                 (A) (A) (A) (A) (A) (A) (A) (A) (A) (A) (A) (A)
                 (A) (A) (A) (A) (A) (A) (A) (A) (A) (A) (A) (A)
                 (A) (A) (A) (A) (A) (A) (A) (A) (A) (A) (A) (A)
                 (A) (A) (A) (A) (A) (A) (A) (A)
 The electronic state is 1-A.
 Alpha  occ. eigenvalues --  -19.03912 -19.03910  -1.25801  -1.04209  -0.70422
 Alpha  occ. eigenvalues --   -0.58425  -0.55936  -0.46372  -0.40931
 Alpha virt. eigenvalues --    0.02162   0.03688   0.07005   0.08035   0.09920
 Alpha virt. eigenvalues --    0.10192   0.10299   0.14375   0.17119   0.17672
 Alpha virt. eigenvalues --    0.18537   0.18888   0.20587   0.22240   0.25409
 Alpha virt. eigenvalues --    0.27325   0.29587   0.30314   0.33192   0.33825
 Alpha virt. eigenvalues --    0.34756   0.36414   0.37710   0.39748   0.39877
 Alpha virt. eigenvalues --    0.42983   0.44980   0.46002   0.47899   0.50682
 Alpha virt. eigenvalues --    0.53103   0.57874   0.60135   0.62329   0.67028
 Alpha virt. eigenvalues --    0.70243   0.74506   0.76984   0.77868   0.79767
 Alpha virt. eigenvalues --    0.81261   0.82734   0.87205   0.90672   0.90923
 Alpha virt. eigenvalues --    0.92164   0.93850   0.95987   0.96414   0.98901
 Alpha virt. eigenvalues --    1.02255   1.03221   1.04290   1.08914   1.10961
 Alpha virt. eigenvalues --    1.12914   1.16153   1.19967   1.20947   1.23313
 Alpha virt. eigenvalues --    1.28030   1.29486   1.30517   1.31024   1.32625
 Alpha virt. eigenvalues --    1.33864   1.35044   1.38154   1.39929   1.40352
 Alpha virt. eigenvalues --    1.47187   1.48926   1.52407   1.54094   1.56798
 Alpha virt. eigenvalues --    1.59641   1.63827   1.66502   1.74110   1.77056
 Alpha virt. eigenvalues --    1.82756   1.86070   1.92258   1.98402   2.02674
 Alpha virt. eigenvalues --    2.06012   2.09847   2.14756   2.18788   2.22626
 Alpha virt. eigenvalues --    2.28454   2.29591   2.32918   2.36460   2.37157
 Alpha virt. eigenvalues --    2.50083   2.55388   2.57401   2.61635   2.62491
 Alpha virt. eigenvalues --    2.66121   2.76099   2.83760   2.85672   2.93435
 Alpha virt. eigenvalues --    2.98500   3.07521   3.10393   3.25133   3.29668
 Alpha virt. eigenvalues --    3.40561   3.56066   3.64317   3.66570   3.77184
 Alpha virt. eigenvalues --    3.77885   3.80789   3.81506   3.81627   3.84521
 Alpha virt. eigenvalues --    3.86974   3.88986   3.91339   3.94741   3.96831
 Alpha virt. eigenvalues --    3.97687   4.01429   4.05475   4.10879   4.11315
 Alpha virt. eigenvalues --    4.14993   4.24238   4.25431   4.28664   4.35412
 Alpha virt. eigenvalues --    4.41257   4.48404   4.59006   4.71357   4.95184
 Alpha virt. eigenvalues --    4.98125   4.99782   5.10071   5.16384   5.17299
 Alpha virt. eigenvalues --    5.41357   5.83215   5.99066   6.11940   6.15060
 Alpha virt. eigenvalues --    6.26582   6.33950   6.39165   6.49713   6.61883
 Alpha virt. eigenvalues --    6.72144   6.74894   6.79928   6.82823   6.87149
 Alpha virt. eigenvalues --    6.88370   6.89945   6.92159   7.00768   7.05909
 Alpha virt. eigenvalues --    7.12105   7.21722   7.45333   7.47074   7.79821
 Alpha virt. eigenvalues --    8.03599   8.10359  10.95510  14.00391  14.54861
 Alpha virt. eigenvalues --   14.82414  14.88334  15.09924  29.01997  29.02340
 Alpha virt. eigenvalues --   29.06843  29.13777  29.22170  49.14091 148.30687
 Alpha virt. eigenvalues --  148.39511 148.70970 752.63860
          Condensed to atoms (all electrons):
              1          2          3          4          5
     1  O    8.248509  -0.242171   0.182729   0.011332   0.000621
     2  O   -0.242171   8.238666   0.024636   0.187514  -0.000691
     3  H    0.182729   0.024636   0.597944  -0.002329  -0.001135
     4  H    0.011332   0.187514  -0.002329   0.601514  -0.004237
     5  Kr   0.000621  -0.000691  -0.001135  -0.004237   0.000829
 Mulliken atomic charges:
              1
     1  O   -0.201020
     2  O   -0.207953
     3  H    0.198155
     4  H    0.206206
     5  Kr   0.004613
 Sum of Mulliken atomic charges =   0.00000
 Mulliken charges with hydrogens summed into heavy atoms:
              1
     1  O   -0.002866
     2  O   -0.001747
     5  Kr   0.004613
 Sum of Mulliken charges with hydrogens summed into heavy atoms =   0.00000
          Condensed to fragments (all electrons):
     1      -0.004613
     2       0.004613
 Electronic spatial extent (au):  <R**2>=            318.6270
 Charge=              0.0000 electrons
 Dipole moment (field-independent basis, Debye):
    X=             -2.3514    Y=             -0.1248    Z=              1.3900  Tot=              2.7344
 Quadrupole moment (field-independent basis, Debye-Ang):
   XX=            -19.9640   YY=            -10.3658   ZZ=            -11.8636
   XY=             -1.2355   XZ=              1.8863   YZ=             -1.6277
 Traceless Quadrupole moment (field-independent basis, Debye-Ang):
   XX=             -5.8995   YY=              3.6986   ZZ=              2.2009
   XY=             -1.2355   XZ=              1.8863   YZ=             -1.6277
 Octapole moment (field-independent basis, Debye-Ang**2):
  XXX=            -92.1118  YYY=             -0.8272  ZZZ=              0.8185  XYY=            -23.4823
  XXY=             -2.9161  XXZ=              2.4125  XZZ=            -23.7211  YZZ=             -1.4532
  YYZ=              1.9916  XYZ=             -2.5637
 Hexadecapole moment (field-independent basis, Debye-Ang**3):
 XXXX=           -344.3117 YYYY=            -45.1048 ZZZZ=            -11.8445 XXXY=             -4.5417
 XXXZ=              3.0044 YYYX=             -2.1647 YYYZ=             -2.3925 ZZZX=              1.5477
 ZZZY=             -1.5934 XXYY=            -61.4797 XXZZ=            -51.4565 YYZZ=            -10.2546
 XXYZ=             -4.2029 YYXZ=              3.0722 ZZXY=             -2.2230
 N-N= 3.664408817804D+01 E-N=-4.315444443144D+02  KE= 1.505183742353D+02
 No NMR shielding tensors so no spin-rotation constants.
 Leave Link  601 at Tue May 12 11:34:44 2020, MaxMem= 1073741824 cpu:       0.7
 (Enter /home/matheus/.gaussian/g09/l122.exe)
 Counterpoise: doing DCBS calculation for fragment   2 NewBq=T
 Leave Link  122 at Tue May 12 11:34:44 2020, MaxMem= 1073741824 cpu:       0.0
 (Enter /home/matheus/.gaussian/g09/l301.exe)
 Basis read from rwf:  (5D, 7F)
 No pseudopotential information found on rwf file.
 There are   197 symmetry adapted basis functions of A   symmetry.
 Integral buffers will be    131072 words long.
 Raffenetti 2 integral format.
 Two-electron integral symmetry is turned on.
   197 basis functions,   415 primitive gaussians,   229 cartesian basis functions
    18 alpha electrons       18 beta electrons
       nuclear repulsion energy         0.0000000000 Hartrees.
 IExCor=32609 DFT=T Ex+Corr=LC-wPBE ExCW=0 ScaHFX=  1.000000
 ScaDFX=  1.000000  0.000000  1.000000  1.000000 ScalE2=  1.000000  1.000000
 IRadAn=      5 IRanWt=     -1 IRanGd=            0 ICorTp=0
  HFx wShort=  0.000000 wLong=  0.400000 cFull=  0.000000 cShort=  0.000000 cLong=  1.000000
  DFx wShort=  0.000000 wLong=  0.400000 cFull=  0.000000 cShort=  0.000000 cLong=  1.000000
 NAtoms=    5 NActive=    5 NUniq=    5 SFac= 1.00D+00 NAtFMM=   60 NAOKFM=F Big=F
 No density basis found on file   718.
 Leave Link  301 at Tue May 12 11:34:44 2020, MaxMem= 1073741824 cpu:       0.2
 (Enter /home/matheus/.gaussian/g09/l302.exe)
 NPDir=0 NMtPBC=     1 NCelOv=     1 NCel=       1 NClECP=     1 NCelD=      1
         NCelK=      1 NCelE2=     1 NClLst=     1 CellRange=     0.0.
 One-electron integrals computed using PRISM.
 NBasis=   197 RedAO= T  NBF=   197
 NBsUse=   197 1.00D-06 NBFU=   197
 Precomputing XC quadrature grid using
 IXCGrd= 2 IRadAn=           5 IRanWt=          -1 IRanGd=           0 AccXCQ= 0.00D+00.
 NRdTot=     427 NPtTot=      123512 NUsed=      126579 NTot=      126611
 NSgBfM=   229   229   229   229   229 NAtAll=     5     5.
 Leave Link  302 at Tue May 12 11:34:44 2020, MaxMem= 1073741824 cpu:       1.0
 (Enter /home/matheus/.gaussian/g09/l303.exe)
 DipDrv:  MaxL=1.
 Leave Link  303 at Tue May 12 11:34:44 2020, MaxMem= 1073741824 cpu:       0.2
 (Enter /home/matheus/.gaussian/g09/l401.exe)
 Harris functional with IExCor=32609 diagonalized for initial guess.
 ExpMin= 2.53D-02 ExpMax= 1.17D+07 ExpMxC= 1.33D+04 IAcc=3 IRadAn=         5 AccDes= 0.00D+00
 HarFok:  IExCor=32609 AccDes= 0.00D+00 IRadAn=         5 IDoV= 1
 ScaDFX=  1.000000  1.000000  1.000000  1.000000
 FoFCou: FMM=F IPFlag=           0 FMFlag=      100000 FMFlg1=           0
         NFxFlg=           0 DoJE=T BraDBF=F KetDBF=T FulRan=T
         Omega=  0.000000  0.000000  1.000000  0.000000  0.000000 ICntrl=     500 IOpCl=  0
         NMat0=    1 NMatS0=    1 NMatT0=    0 NMatD0=    1 NMtDS0=    0 NMtDT0=    0
         I1Cent=           4 NGrid=           0.
 Petite list used in FoFCou.
 Harris En= -2753.24653525126    
 Initial guess orbital symmetries:
       Occupied  (A) (A) (A) (A) (A) (A) (A) (A) (A) (A) (A) (A)
                 (A) (A) (A) (A) (A) (A)
       Virtual   (A) (A) (A) (A) (A) (A) (A) (A) (A) (A) (A) (A)
                 (A) (A) (A) (A) (A) (A) (A) (A) (A) (A) (A) (A)
                 (A) (A) (A) (A) (A) (A) (A) (A) (A) (A) (A) (A)
                 (A) (A) (A) (A) (A) (A) (A) (A) (A) (A) (A) (A)
                 (A) (A) (A) (A) (A) (A) (A) (A) (A) (A) (A) (A)
                 (A) (A) (A) (A) (A) (A) (A) (A) (A) (A) (A) (A)
                 (A) (A) (A) (A) (A) (A) (A) (A) (A) (A) (A) (A)
                 (A) (A) (A) (A) (A) (A) (A) (A) (A) (A) (A) (A)
                 (A) (A) (A) (A) (A) (A) (A) (A) (A) (A) (A) (A)
                 (A) (A) (A) (A) (A) (A) (A) (A) (A) (A) (A) (A)
                 (A) (A) (A) (A) (A) (A) (A) (A) (A) (A) (A) (A)
                 (A) (A) (A) (A) (A) (A) (A) (A) (A) (A) (A) (A)
                 (A) (A) (A) (A) (A) (A) (A) (A) (A) (A) (A) (A)
                 (A) (A) (A) (A) (A) (A) (A) (A) (A) (A) (A) (A)
                 (A) (A) (A) (A) (A) (A) (A) (A) (A) (A) (A)
 The electronic state of the initial guess is 1-A.
 Leave Link  401 at Tue May 12 11:34:44 2020, MaxMem= 1073741824 cpu:       3.8
 (Enter /home/matheus/.gaussian/g09/l502.exe)
 Closed shell SCF:
 Requested convergence on RMS density matrix=1.00D-08 within 128 cycles.
 Requested convergence on MAX density matrix=1.00D-06.
 Requested convergence on             energy=1.00D-06.
 No special actions if energy rises.
 Using DIIS extrapolation, IDIIS=  1040.
 Integral symmetry usage will be decided dynamically.
       126521 words used for storage of precomputed grid.
 IEnd=      305468 IEndB=      305468 NGot=  1073741824 MDV=  1073505667
 LenX=  1073505667 LenY=  1073452785
 Fock matrices will be formed incrementally for  20 cycles.

 Cycle   1  Pass 1  IDiag  1:
 FoFJK:  IHMeth= 1 ICntrl=     0 DoSepK=T KAlg= 1 I1Cent= 0 FoldK=F
 FoFCou: FMM=F IPFlag=           0 FMFlag=      100000 FMFlg1=           0
         NFxFlg=           0 DoJE=T BraDBF=F KetDBF=F FulRan=T
         Omega=  0.000000  0.000000  1.000000  0.000000  0.000000 ICntrl=     500 IOpCl=  0
         NMat0=    1 NMatS0=    1 NMatT0=    0 NMatD0=    1 NMtDS0=    0 NMtDT0=    0
         I1Cent=           0 NGrid=           0.
 Symmetry not used in FoFCou.
 E= -2753.38968838755    
 DIIS: error= 2.72D-02 at cycle   1 NSaved=   1.
 NSaved= 1 IEnMin= 1 EnMin= -2753.38968838755     IErMin= 1 ErrMin= 2.72D-02
 ErrMax= 2.72D-02 EMaxC= 1.00D-01 BMatC= 2.22D-01 BMatP= 2.22D-01
 IDIUse=3 WtCom= 7.28D-01 WtEn= 2.72D-01
 Coeff-Com:  0.100D+01
 Coeff-En:   0.100D+01
 Coeff:      0.100D+01
 Gap=     0.609 Goal=   None    Shift=    0.000
 GapD=    0.609 DampG=2.000 DampE=0.500 DampFc=1.0000 IDamp=-1.
 RMSDP=2.11D-03 MaxDP=1.48D-01              OVMax= 5.10D-02

 Cycle   2  Pass 1  IDiag  1:
 RMSU=  1.45D-03    CP:  1.02D+00
 FoFJK:  IHMeth= 1 ICntrl=     0 DoSepK=T KAlg= 1 I1Cent= 0 FoldK=F
 E= -2753.42034983041     Delta-E=       -0.030661442860 Rises=F Damp=F
 DIIS: error= 1.03D-02 at cycle   2 NSaved=   2.
 NSaved= 2 IEnMin= 2 EnMin= -2753.42034983041     IErMin= 2 ErrMin= 1.03D-02
 ErrMax= 1.03D-02 EMaxC= 1.00D-01 BMatC= 5.53D-02 BMatP= 2.22D-01
 IDIUse=3 WtCom= 8.97D-01 WtEn= 1.03D-01
 Coeff-Com:  0.328D+00 0.672D+00
 Coeff-En:   0.131D+00 0.869D+00
 Coeff:      0.308D+00 0.692D+00
 Gap=     0.525 Goal=   None    Shift=    0.000
 RMSDP=7.90D-04 MaxDP=5.17D-02 DE=-3.07D-02 OVMax= 2.08D-02

 Cycle   3  Pass 1  IDiag  1:
 RMSU=  1.56D-04    CP:  1.01D+00  6.42D-01
 FoFJK:  IHMeth= 1 ICntrl=     0 DoSepK=T KAlg= 1 I1Cent= 0 FoldK=F
 E= -2753.43559243887     Delta-E=       -0.015242608460 Rises=F Damp=F
 DIIS: error= 9.91D-04 at cycle   3 NSaved=   3.
 NSaved= 3 IEnMin= 3 EnMin= -2753.43559243887     IErMin= 3 ErrMin= 9.91D-04
 ErrMax= 9.91D-04 EMaxC= 1.00D-01 BMatC= 5.55D-04 BMatP= 5.53D-02
 IDIUse=3 WtCom= 9.90D-01 WtEn= 9.91D-03
 Coeff-Com: -0.212D-03 0.902D-01 0.910D+00
 Coeff-En:   0.000D+00 0.000D+00 0.100D+01
 Coeff:     -0.210D-03 0.893D-01 0.911D+00
 Gap=     0.532 Goal=   None    Shift=    0.000
 RMSDP=7.21D-05 MaxDP=4.24D-03 DE=-1.52D-02 OVMax= 2.59D-03

 Cycle   4  Pass 1  IDiag  1:
 RMSU=  1.78D-05    CP:  1.01D+00  6.74D-01  9.93D-01
 FoFJK:  IHMeth= 1 ICntrl=     0 DoSepK=T KAlg= 1 I1Cent= 0 FoldK=F
 E= -2753.43576101665     Delta-E=       -0.000168577787 Rises=F Damp=F
 DIIS: error= 2.78D-05 at cycle   4 NSaved=   4.
 NSaved= 4 IEnMin= 4 EnMin= -2753.43576101665     IErMin= 4 ErrMin= 2.78D-05
 ErrMax= 2.78D-05 EMaxC= 1.00D-01 BMatC= 4.08D-07 BMatP= 5.55D-04
 IDIUse=1 WtCom= 1.00D+00 WtEn= 0.00D+00
 Coeff-Com: -0.125D-02-0.155D-01-0.113D+00 0.113D+01
 Coeff:     -0.125D-02-0.155D-01-0.113D+00 0.113D+01
 Gap=     0.532 Goal=   None    Shift=    0.000
 RMSDP=6.17D-06 MaxDP=2.45D-04 DE=-1.69D-04 OVMax= 3.88D-04

 Cycle   5  Pass 1  IDiag  1:
 RMSU=  2.19D-06    CP:  1.01D+00  6.74D-01  1.01D+00  1.13D+00
 FoFJK:  IHMeth= 1 ICntrl=     0 DoSepK=T KAlg= 1 I1Cent= 0 FoldK=F
 E= -2753.43576153126     Delta-E=       -0.000000514607 Rises=F Damp=F
 DIIS: error= 7.38D-06 at cycle   5 NSaved=   5.
 NSaved= 5 IEnMin= 5 EnMin= -2753.43576153126     IErMin= 5 ErrMin= 7.38D-06
 ErrMax= 7.38D-06 EMaxC= 1.00D-01 BMatC= 1.17D-08 BMatP= 4.08D-07
 IDIUse=1 WtCom= 1.00D+00 WtEn= 0.00D+00
 Coeff-Com:  0.268D-04-0.224D-02-0.246D-01 0.932D-01 0.934D+00
 Coeff:      0.268D-04-0.224D-02-0.246D-01 0.932D-01 0.934D+00
 Gap=     0.532 Goal=   None    Shift=    0.000
 RMSDP=7.24D-07 MaxDP=3.19D-05 DE=-5.15D-07 OVMax= 3.07D-05

 Cycle   6  Pass 1  IDiag  1:
 RMSU=  2.10D-07    CP:  1.01D+00  6.74D-01  1.01D+00  1.15D+00  1.03D+00
 FoFJK:  IHMeth= 1 ICntrl=     0 DoSepK=T KAlg= 1 I1Cent= 0 FoldK=F
 E= -2753.43576154090     Delta-E=       -0.000000009636 Rises=F Damp=F
 DIIS: error= 4.05D-07 at cycle   6 NSaved=   6.
 NSaved= 6 IEnMin= 6 EnMin= -2753.43576154090     IErMin= 6 ErrMin= 4.05D-07
 ErrMax= 4.05D-07 EMaxC= 1.00D-01 BMatC= 4.18D-11 BMatP= 1.17D-08
 IDIUse=1 WtCom= 1.00D+00 WtEn= 0.00D+00
 Coeff-Com:  0.257D-05 0.142D-03 0.162D-02-0.112D-01-0.802D-01 0.109D+01
 Coeff:      0.257D-05 0.142D-03 0.162D-02-0.112D-01-0.802D-01 0.109D+01
 Gap=     0.532 Goal=   None    Shift=    0.000
 RMSDP=9.79D-08 MaxDP=3.53D-06 DE=-9.64D-09 OVMax= 4.50D-06

 Cycle   7  Pass 1  IDiag  1:
 RMSU=  1.61D-08    CP:  1.01D+00  6.74D-01  1.01D+00  1.15D+00  1.04D+00
                    CP:  1.22D+00
 FoFJK:  IHMeth= 1 ICntrl=     0 DoSepK=T KAlg= 1 I1Cent= 0 FoldK=F
 E= -2753.43576153785     Delta-E=        0.000000003050 Rises=F Damp=F
 DIIS: error= 7.33D-08 at cycle   7 NSaved=   7.
 NSaved= 7 IEnMin= 6 EnMin= -2753.43576154090     IErMin= 7 ErrMin= 7.33D-08
 ErrMax= 7.33D-08 EMaxC= 1.00D-01 BMatC= 1.47D-12 BMatP= 4.18D-11
 IDIUse=1 WtCom= 1.00D+00 WtEn= 0.00D+00
 Coeff-Com: -0.210D-06 0.255D-04 0.299D-03-0.153D-02-0.168D-01 0.131D+00
 Coeff-Com:  0.887D+00
 Coeff:     -0.210D-06 0.255D-04 0.299D-03-0.153D-02-0.168D-01 0.131D+00
 Coeff:      0.887D+00
 Gap=     0.532 Goal=   None    Shift=    0.000
 RMSDP=1.08D-08 MaxDP=3.96D-07 DE= 3.05D-09 OVMax= 6.32D-07

 Cycle   8  Pass 1  IDiag  1:
 RMSU=  3.78D-09    CP:  1.01D+00  6.74D-01  1.01D+00  1.15D+00  1.04D+00
                    CP:  1.25D+00  1.10D+00
 FoFJK:  IHMeth= 1 ICntrl=     0 DoSepK=T KAlg= 1 I1Cent= 0 FoldK=F
 E= -2753.43576153784     Delta-E=        0.000000000008 Rises=F Damp=F
 DIIS: error= 2.35D-08 at cycle   8 NSaved=   8.
 NSaved= 8 IEnMin= 6 EnMin= -2753.43576154090     IErMin= 8 ErrMin= 2.35D-08
 ErrMax= 2.35D-08 EMaxC= 1.00D-01 BMatC= 1.13D-13 BMatP= 1.47D-12
 IDIUse=1 WtCom= 1.00D+00 WtEn= 0.00D+00
 Coeff-Com: -0.285D-06-0.115D-04-0.129D-03 0.971D-03 0.518D-02-0.854D-01
 Coeff-Com:  0.621D-01 0.102D+01
 Coeff:     -0.285D-06-0.115D-04-0.129D-03 0.971D-03 0.518D-02-0.854D-01
 Coeff:      0.621D-01 0.102D+01
 Gap=     0.532 Goal=   None    Shift=    0.000
 RMSDP=3.87D-09 MaxDP=1.59D-07 DE= 8.19D-12 OVMax= 2.44D-07

 SCF Done:  E(RLC-wPBE) =  -2753.43576154     A.U. after    8 cycles
             Convg  =    0.3874D-08             -V/T =  2.0014
 KE= 2.749484714872D+03 PE=-6.578892950096D+03 EE= 1.075972473686D+03
 Leave Link  502 at Tue May 12 11:35:08 2020, MaxMem= 1073741824 cpu:     190.0
 (Enter /home/matheus/.gaussian/g09/l601.exe)
 Copying SCF densities to generalized density rwf, IOpCl= 0 IROHF=0.

 **********************************************************************

            Population analysis using the SCF density.

 **********************************************************************

 Orbital symmetries:
       Occupied  (A) (A) (A) (A) (A) (A) (A) (A) (A) (A) (A) (A)
                 (A) (A) (A) (A) (A) (A)
       Virtual   (A) (A) (A) (A) (A) (A) (A) (A) (A) (A) (A) (A)
                 (A) (A) (A) (A) (A) (A) (A) (A) (A) (A) (A) (A)
                 (A) (A) (A) (A) (A) (A) (A) (A) (A) (A) (A) (A)
                 (A) (A) (A) (A) (A) (A) (A) (A) (A) (A) (A) (A)
                 (A) (A) (A) (A) (A) (A) (A) (A) (A) (A) (A) (A)
                 (A) (A) (A) (A) (A) (A) (A) (A) (A) (A) (A) (A)
                 (A) (A) (A) (A) (A) (A) (A) (A) (A) (A) (A) (A)
                 (A) (A) (A) (A) (A) (A) (A) (A) (A) (A) (A) (A)
                 (A) (A) (A) (A) (A) (A) (A) (A) (A) (A) (A) (A)
                 (A) (A) (A) (A) (A) (A) (A) (A) (A) (A) (A) (A)
                 (A) (A) (A) (A) (A) (A) (A) (A) (A) (A) (A) (A)
                 (A) (A) (A) (A) (A) (A) (A) (A) (A) (A) (A) (A)
                 (A) (A) (A) (A) (A) (A) (A) (A) (A) (A) (A) (A)
                 (A) (A) (A) (A) (A) (A) (A) (A) (A) (A) (A) (A)
                 (A) (A) (A) (A) (A) (A) (A) (A) (A) (A) (A)
 The electronic state is 1-A.
 Alpha  occ. eigenvalues -- -511.10632 -66.65307 -60.31522 -60.31519 -60.31518
 Alpha  occ. eigenvalues --   -9.58572  -7.32996  -7.32994  -7.32994  -3.28540
 Alpha  occ. eigenvalues --   -3.28539  -3.28539  -3.28538  -3.28537  -1.03232
 Alpha  occ. eigenvalues --   -0.50220  -0.50217  -0.50216
 Alpha virt. eigenvalues --    0.02984   0.04943   0.08450   0.09218   0.12057
 Alpha virt. eigenvalues --    0.12524   0.13367   0.13562   0.15997   0.17083
 Alpha virt. eigenvalues --    0.17803   0.19311   0.20917   0.25956   0.27108
 Alpha virt. eigenvalues --    0.27648   0.28979   0.31455   0.33156   0.35356
 Alpha virt. eigenvalues --    0.35625   0.37806   0.38598   0.40049   0.41396
 Alpha virt. eigenvalues --    0.41980   0.44618   0.53621   0.55616   0.58718
 Alpha virt. eigenvalues --    0.59819   0.66005   0.68069   0.69127   0.71557
 Alpha virt. eigenvalues --    0.73034   0.74551   0.76564   0.77908   0.78580
 Alpha virt. eigenvalues --    0.79834   0.80851   0.84575   0.85024   0.87801
 Alpha virt. eigenvalues --    0.88500   0.89566   0.90465   0.91939   0.96213
 Alpha virt. eigenvalues --    0.97452   0.98610   1.00070   1.00643   1.03259
 Alpha virt. eigenvalues --    1.04688   1.07040   1.08294   1.12662   1.15916
 Alpha virt. eigenvalues --    1.17122   1.22243   1.23648   1.29376   1.32159
 Alpha virt. eigenvalues --    1.32849   1.39600   1.44820   1.47839   1.49487
 Alpha virt. eigenvalues --    1.55445   1.57136   1.59046   1.70359   1.78915
 Alpha virt. eigenvalues --    1.81496   1.82681   1.86088   1.94926   2.15600
 Alpha virt. eigenvalues --    2.20035   2.24086   2.28099   2.29251   2.30521
 Alpha virt. eigenvalues --    2.32325   2.34332   2.35147   2.37768   2.41100
 Alpha virt. eigenvalues --    2.42845   2.44773   2.45766   2.50064   2.50885
 Alpha virt. eigenvalues --    2.51736   2.53988   2.56421   2.59013   2.61828
 Alpha virt. eigenvalues --    2.62085   2.63108   2.66845   2.70115   2.72063
 Alpha virt. eigenvalues --    2.74205   2.78565   2.85488   2.86379   2.89903
 Alpha virt. eigenvalues --    2.95884   2.99356   3.06041   3.08030   3.17946
 Alpha virt. eigenvalues --    3.19451   3.28225   3.31737   3.39904   3.44759
 Alpha virt. eigenvalues --    3.61183   3.66627   3.81786   3.86677   4.03007
 Alpha virt. eigenvalues --    4.37535   4.49715   4.51256   4.58742   4.67102
 Alpha virt. eigenvalues --    4.71705   4.85296   4.86191   4.97726   5.08996
 Alpha virt. eigenvalues --    5.10106   5.27420   5.55437   5.69638   5.84835
 Alpha virt. eigenvalues --    5.88553   5.95467   6.16236   6.80049   6.82189
 Alpha virt. eigenvalues --    7.37763   7.44671   7.56835   7.67097   7.72336
 Alpha virt. eigenvalues --    7.80937   7.97508   8.16204   8.17181   8.23801
 Alpha virt. eigenvalues --    8.34383   8.49981   8.59407   8.89802   9.59977
 Alpha virt. eigenvalues --    9.74648   9.83729   9.86335   9.94587   9.98045
 Alpha virt. eigenvalues --   10.16777  10.24280  10.50479  10.94566  11.56409
 Alpha virt. eigenvalues --   11.60227  11.79710  12.00960  12.07514  13.19636
 Alpha virt. eigenvalues --   13.70940  14.51686  62.77216  64.67506
          Condensed to atoms (all electrons):
              1          2          3          4          5
     1  O    0.000659  -0.000819  -0.000226   0.000749  -0.007385
     2  O   -0.000819   0.003500   0.000186  -0.002885   0.000432
     3  H   -0.000226   0.000186   0.000242  -0.000079  -0.003355
     4  H    0.000749  -0.002885  -0.000079   0.003665  -0.028028
     5  Kr  -0.007385   0.000432  -0.003355  -0.028028  36.074754
 Mulliken atomic charges:
              1
     1  O    0.007023
     2  O   -0.000414
     3  H    0.003231
     4  H    0.026578
     5  Kr  -0.036418
 Sum of Mulliken atomic charges =   0.00000
 Mulliken charges with hydrogens summed into heavy atoms:
              1
     1  O    0.010254
     2  O    0.026164
     5  Kr  -0.036418
 Sum of Mulliken charges with hydrogens summed into heavy atoms =   0.00000
          Condensed to fragments (all electrons):
     1       0.036418
     2      -0.036418
 Electronic spatial extent (au):  <R**2>=            161.4122
 Charge=              0.0000 electrons
 Dipole moment (field-independent basis, Debye):
    X=              0.0008    Y=              0.0002    Z=              0.0001  Tot=              0.0008
 Quadrupole moment (field-independent basis, Debye-Ang):
   XX=            -17.6129   YY=            -17.6232   ZZ=            -17.6290
   XY=              0.0018   XZ=              0.0019   YZ=             -0.0009
 Traceless Quadrupole moment (field-independent basis, Debye-Ang):
   XX=              0.0087   YY=             -0.0015   ZZ=             -0.0073
   XY=              0.0018   XZ=              0.0019   YZ=             -0.0009
 Octapole moment (field-independent basis, Debye-Ang**2):
  XXX=             51.4937  YYY=              0.2526  ZZZ=              0.1732  XYY=             17.1759
  XXY=              0.0807  XXZ=              0.0552  XZZ=             17.1787  YZZ=              0.0844
  YYZ=              0.0583  XYZ=              0.0000
 Hexadecapole moment (field-independent basis, Debye-Ang**3):
 XXXX=           -118.7192 YYYY=            -18.3799 ZZZZ=            -18.3964 XXXY=             -0.2418
 XXXZ=             -0.1637 YYYX=             -0.2402 YYYZ=             -0.0012 ZZZX=             -0.1655
 ZZZY=             -0.0013 XXYY=            -22.8581 XXZZ=            -22.8617 YYZZ=             -6.1284
 XXYZ=             -0.0014 YYXZ=             -0.0550 ZZXY=             -0.0792
 N-N= 0.000000000000D+00 E-N=-6.578892951870D+03  KE= 2.749484714872D+03
 No NMR shielding tensors so no spin-rotation constants.
 Leave Link  601 at Tue May 12 11:35:08 2020, MaxMem= 1073741824 cpu:       0.8
 (Enter /home/matheus/.gaussian/g09/l122.exe)
 Counterpoise: doing MCBS calculation for fragment   1
 Leave Link  122 at Tue May 12 11:35:08 2020, MaxMem= 1073741824 cpu:       0.0
 (Enter /home/matheus/.gaussian/g09/l301.exe)
 Basis read from rwf:  (5D, 7F)
 No pseudopotential information found on rwf file.
 There are   138 symmetry adapted basis functions of A   symmetry.
 Integral buffers will be    131072 words long.
 Raffenetti 2 integral format.
 Two-electron integral symmetry is turned on.
   138 basis functions,   198 primitive gaussians,   160 cartesian basis functions
     9 alpha electrons        9 beta electrons
       nuclear repulsion energy        36.6440881780 Hartrees.
 IExCor=32609 DFT=T Ex+Corr=LC-wPBE ExCW=0 ScaHFX=  1.000000
 ScaDFX=  1.000000  0.000000  1.000000  1.000000 ScalE2=  1.000000  1.000000
 IRadAn=      5 IRanWt=     -1 IRanGd=            0 ICorTp=0
  HFx wShort=  0.000000 wLong=  0.400000 cFull=  0.000000 cShort=  0.000000 cLong=  1.000000
  DFx wShort=  0.000000 wLong=  0.400000 cFull=  0.000000 cShort=  0.000000 cLong=  1.000000
 NAtoms=    5 NActive=    4 NUniq=    4 SFac= 1.00D+00 NAtFMM=   60 NAOKFM=F Big=F
 No density basis found on file   718.
 Leave Link  301 at Tue May 12 11:35:08 2020, MaxMem= 1073741824 cpu:       0.2
 (Enter /home/matheus/.gaussian/g09/l302.exe)
 NPDir=0 NMtPBC=     1 NCelOv=     1 NCel=       1 NClECP=     1 NCelD=      1
         NCelK=      1 NCelE2=     1 NClLst=     1 CellRange=     0.0.
 One-electron integrals computed using PRISM.
 NBasis=   138 RedAO= T  NBF=   138
 NBsUse=   138 1.00D-06 NBFU=   138
 Precomputing XC quadrature grid using
 IXCGrd= 2 IRadAn=           5 IRanWt=          -1 IRanGd=           0 AccXCQ= 0.00D+00.
 NRdTot=     344 NPtTot=       92556 NUsed=       95038 NTot=       95070
 NSgBfM=   160   160   160   160   160 NAtAll=     4     4.
 Leave Link  302 at Tue May 12 11:35:08 2020, MaxMem= 1073741824 cpu:       0.8
 (Enter /home/matheus/.gaussian/g09/l303.exe)
 DipDrv:  MaxL=1.
 Leave Link  303 at Tue May 12 11:35:09 2020, MaxMem= 1073741824 cpu:       0.1
 (Enter /home/matheus/.gaussian/g09/l401.exe)
 Harris functional with IExCor=32609 diagonalized for initial guess.
 ExpMin= 2.53D-02 ExpMax= 1.53D+04 ExpMxC= 5.22D+02 IAcc=3 IRadAn=         5 AccDes= 0.00D+00
 HarFok:  IExCor=32609 AccDes= 0.00D+00 IRadAn=         5 IDoV= 1
 ScaDFX=  1.000000  1.000000  1.000000  1.000000
 FoFCou: FMM=F IPFlag=           0 FMFlag=      100000 FMFlg1=           0
         NFxFlg=           0 DoJE=T BraDBF=F KetDBF=T FulRan=T
         Omega=  0.000000  0.000000  1.000000  0.000000  0.000000 ICntrl=     500 IOpCl=  0
         NMat0=    1 NMatS0=    1 NMatT0=    0 NMatD0=    1 NMtDS0=    0 NMtDT0=    0
         I1Cent=           4 NGrid=           0.
 Petite list used in FoFCou.
 Harris En= -151.501697703283    
 Initial guess orbital symmetries:
       Occupied  (A) (A) (A) (A) (A) (A) (A) (A) (A)
       Virtual   (A) (A) (A) (A) (A) (A) (A) (A) (A) (A) (A) (A)
                 (A) (A) (A) (A) (A) (A) (A) (A) (A) (A) (A) (A)
                 (A) (A) (A) (A) (A) (A) (A) (A) (A) (A) (A) (A)
                 (A) (A) (A) (A) (A) (A) (A) (A) (A) (A) (A) (A)
                 (A) (A) (A) (A) (A) (A) (A) (A) (A) (A) (A) (A)
                 (A) (A) (A) (A) (A) (A) (A) (A) (A) (A) (A) (A)
                 (A) (A) (A) (A) (A) (A) (A) (A) (A) (A) (A) (A)
                 (A) (A) (A) (A) (A) (A) (A) (A) (A) (A) (A) (A)
                 (A) (A) (A) (A) (A) (A) (A) (A) (A) (A) (A) (A)
                 (A) (A) (A) (A) (A) (A) (A) (A) (A) (A) (A) (A)
                 (A) (A) (A) (A) (A) (A) (A) (A) (A)
 The electronic state of the initial guess is 1-A.
 Leave Link  401 at Tue May 12 11:35:09 2020, MaxMem= 1073741824 cpu:       2.2
 (Enter /home/matheus/.gaussian/g09/l502.exe)
 Closed shell SCF:
 Requested convergence on RMS density matrix=1.00D-08 within 128 cycles.
 Requested convergence on MAX density matrix=1.00D-06.
 Requested convergence on             energy=1.00D-06.
 No special actions if energy rises.
 Using DIIS extrapolation, IDIIS=  1040.
 Integral symmetry usage will be decided dynamically.
        94980 words used for storage of precomputed grid.
 IEnd=      192360 IEndB=      192360 NGot=  1073741824 MDV=  1073591865
 LenX=  1073591865 LenY=  1073565824
 Fock matrices will be formed incrementally for  20 cycles.

 Cycle   1  Pass 1  IDiag  1:
 FoFJK:  IHMeth= 1 ICntrl=     0 DoSepK=T KAlg= 1 I1Cent= 0 FoldK=F
 FoFCou: FMM=F IPFlag=           0 FMFlag=      100000 FMFlg1=           0
         NFxFlg=           0 DoJE=T BraDBF=F KetDBF=F FulRan=T
         Omega=  0.000000  0.000000  1.000000  0.000000  0.000000 ICntrl=     500 IOpCl=  0
         NMat0=    1 NMatS0=    1 NMatT0=    0 NMatD0=    1 NMtDS0=    0 NMtDT0=    0
         I1Cent=           0 NGrid=           0.
 Symmetry not used in FoFCou.
 E= -151.494572935460    
 DIIS: error= 1.68D-02 at cycle   1 NSaved=   1.
 NSaved= 1 IEnMin= 1 EnMin= -151.494572935460     IErMin= 1 ErrMin= 1.68D-02
 ErrMax= 1.68D-02 EMaxC= 1.00D-01 BMatC= 4.03D-02 BMatP= 4.03D-02
 IDIUse=3 WtCom= 8.32D-01 WtEn= 1.68D-01
 Coeff-Com:  0.100D+01
 Coeff-En:   0.100D+01
 Coeff:      0.100D+01
 Gap=     0.500 Goal=   None    Shift=    0.000
 GapD=    0.500 DampG=2.000 DampE=0.500 DampFc=1.0000 IDamp=-1.
 RMSDP=1.21D-03 MaxDP=2.28D-02              OVMax= 6.12D-02

 Cycle   2  Pass 1  IDiag  1:
 RMSU=  8.54D-04    CP:  9.91D-01
 FoFJK:  IHMeth= 1 ICntrl=     0 DoSepK=T KAlg= 1 I1Cent= 0 FoldK=F
 E= -151.508597622403     Delta-E=       -0.014024686943 Rises=F Damp=F
 DIIS: error= 1.27D-02 at cycle   2 NSaved=   2.
 NSaved= 2 IEnMin= 2 EnMin= -151.508597622403     IErMin= 2 ErrMin= 1.27D-02
 ErrMax= 1.27D-02 EMaxC= 1.00D-01 BMatC= 2.34D-02 BMatP= 4.03D-02
 IDIUse=3 WtCom= 8.73D-01 WtEn= 1.27D-01
 Coeff-Com:  0.425D+00 0.575D+00
 Coeff-En:   0.269D+00 0.731D+00
 Coeff:      0.406D+00 0.594D+00
 Gap=     0.438 Goal=   None    Shift=    0.000
 RMSDP=6.76D-04 MaxDP=2.31D-02 DE=-1.40D-02 OVMax= 2.78D-02

 Cycle   3  Pass 1  IDiag  1:
 RMSU=  3.31D-04    CP:  9.87D-01  5.98D-01
 FoFJK:  IHMeth= 1 ICntrl=     0 DoSepK=T KAlg= 1 I1Cent= 0 FoldK=F
 E= -151.522288956898     Delta-E=       -0.013691334495 Rises=F Damp=F
 DIIS: error= 2.12D-03 at cycle   3 NSaved=   3.
 NSaved= 3 IEnMin= 3 EnMin= -151.522288956898     IErMin= 3 ErrMin= 2.12D-03
 ErrMax= 2.12D-03 EMaxC= 1.00D-01 BMatC= 4.54D-04 BMatP= 2.34D-02
 IDIUse=3 WtCom= 9.79D-01 WtEn= 2.12D-02
 Coeff-Com:  0.662D-01 0.155D+00 0.779D+00
 Coeff-En:   0.000D+00 0.000D+00 0.100D+01
 Coeff:      0.648D-01 0.151D+00 0.784D+00
 Gap=     0.432 Goal=   None    Shift=    0.000
 RMSDP=8.26D-05 MaxDP=1.64D-03 DE=-1.37D-02 OVMax= 4.14D-03

 Cycle   4  Pass 1  IDiag  1:
 RMSU=  4.03D-05    CP:  9.86D-01  6.44D-01  1.01D+00
 FoFJK:  IHMeth= 1 ICntrl=     0 DoSepK=T KAlg= 1 I1Cent= 0 FoldK=F
 E= -151.522566989891     Delta-E=       -0.000278032993 Rises=F Damp=F
 DIIS: error= 3.28D-04 at cycle   4 NSaved=   4.
 NSaved= 4 IEnMin= 4 EnMin= -151.522566989891     IErMin= 4 ErrMin= 3.28D-04
 ErrMax= 3.28D-04 EMaxC= 1.00D-01 BMatC= 1.45D-05 BMatP= 4.54D-04
 IDIUse=3 WtCom= 9.97D-01 WtEn= 3.28D-03
 Coeff-Com: -0.538D-02-0.885D-02 0.116D+00 0.898D+00
 Coeff-En:   0.000D+00 0.000D+00 0.000D+00 0.100D+01
 Coeff:     -0.536D-02-0.882D-02 0.116D+00 0.899D+00
 Gap=     0.434 Goal=   None    Shift=    0.000
 RMSDP=1.79D-05 MaxDP=7.25D-04 DE=-2.78D-04 OVMax= 7.61D-04

 Cycle   5  Pass 1  IDiag  1:
 RMSU=  7.80D-06    CP:  9.86D-01  6.42D-01  1.04D+00  9.96D-01
 FoFJK:  IHMeth= 1 ICntrl=     0 DoSepK=T KAlg= 1 I1Cent= 0 FoldK=F
 E= -151.522576896600     Delta-E=       -0.000009906708 Rises=F Damp=F
 DIIS: error= 4.96D-05 at cycle   5 NSaved=   5.
 NSaved= 5 IEnMin= 5 EnMin= -151.522576896600     IErMin= 5 ErrMin= 4.96D-05
 ErrMax= 4.96D-05 EMaxC= 1.00D-01 BMatC= 1.12D-07 BMatP= 1.45D-05
 IDIUse=1 WtCom= 1.00D+00 WtEn= 0.00D+00
 Coeff-Com: -0.781D-03-0.218D-02-0.279D-01-0.861D-01 0.112D+01
 Coeff:     -0.781D-03-0.218D-02-0.279D-01-0.861D-01 0.112D+01
 Gap=     0.434 Goal=   None    Shift=    0.000
 RMSDP=3.93D-06 MaxDP=7.83D-05 DE=-9.91D-06 OVMax= 2.42D-04

 Cycle   6  Pass 1  IDiag  1:
 RMSU=  1.22D-06    CP:  9.86D-01  6.43D-01  1.04D+00  1.02D+00  1.28D+00
 FoFJK:  IHMeth= 1 ICntrl=     0 DoSepK=T KAlg= 1 I1Cent= 0 FoldK=F
 E= -151.522577157710     Delta-E=       -0.000000261111 Rises=F Damp=F
 DIIS: error= 8.94D-06 at cycle   6 NSaved=   6.
 NSaved= 6 IEnMin= 6 EnMin= -151.522577157710     IErMin= 6 ErrMin= 8.94D-06
 ErrMax= 8.94D-06 EMaxC= 1.00D-01 BMatC= 4.68D-09 BMatP= 1.12D-07
 IDIUse=1 WtCom= 1.00D+00 WtEn= 0.00D+00
 Coeff-Com:  0.144D-03 0.337D-03-0.373D-03-0.109D-01-0.606D-01 0.107D+01
 Coeff:      0.144D-03 0.337D-03-0.373D-03-0.109D-01-0.606D-01 0.107D+01
 Gap=     0.434 Goal=   None    Shift=    0.000
 RMSDP=7.57D-07 MaxDP=1.10D-05 DE=-2.61D-07 OVMax= 8.52D-05

 Cycle   7  Pass 1  IDiag  1:
 RMSU=  2.87D-07    CP:  9.86D-01  6.43D-01  1.04D+00  1.02D+00  1.32D+00
                    CP:  1.24D+00
 FoFJK:  IHMeth= 1 ICntrl=     0 DoSepK=T KAlg= 1 I1Cent= 0 FoldK=F
 E= -151.522577186392     Delta-E=       -0.000000028681 Rises=F Damp=F
 DIIS: error= 3.89D-06 at cycle   7 NSaved=   7.
[...]
         NFxFlg=           0 DoJE=T BraDBF=F KetDBF=F FulRan=T
         Omega=  0.000000  0.000000  1.000000  0.000000  0.000000 ICntrl=     500 IOpCl=  0
         NMat0=    1 NMatS0=    1 NMatT0=    0 NMatD0=    1 NMtDS0=    0 NMtDT0=    0
         I1Cent=           0 NGrid=           0.
 Symmetry not used in FoFCou.
 E= -2753.43565011562    
 DIIS: error= 2.01D-04 at cycle   1 NSaved=   1.
 NSaved= 1 IEnMin= 1 EnMin= -2753.43565011562     IErMin= 1 ErrMin= 2.01D-04
 ErrMax= 2.01D-04 EMaxC= 1.00D-01 BMatC= 4.90D-06 BMatP= 4.90D-06
 IDIUse=3 WtCom= 9.98D-01 WtEn= 2.01D-03
 Coeff-Com:  0.100D+01
 Coeff-En:   0.100D+01
 Coeff:      0.100D+01
 Gap=     0.531 Goal=   None    Shift=    0.000
 RMSDP=1.10D-05 MaxDP=5.76D-04              OVMax= 2.72D-04

 Cycle   2  Pass 1  IDiag  1:
 RMSU=  7.77D-06    CP:  1.00D+00
 FoFJK:  IHMeth= 1 ICntrl=     0 DoSepK=T KAlg= 1 I1Cent= 0 FoldK=F
 E= -2753.43565059669     Delta-E=       -0.000000481074 Rises=F Damp=F
 DIIS: error= 3.00D-06 at cycle   2 NSaved=   2.
 NSaved= 2 IEnMin= 2 EnMin= -2753.43565059669     IErMin= 2 ErrMin= 3.00D-06
 ErrMax= 3.00D-06 EMaxC= 1.00D-01 BMatC= 2.90D-09 BMatP= 4.90D-06
 IDIUse=1 WtCom= 1.00D+00 WtEn= 0.00D+00
 Coeff-Com: -0.696D-02 0.101D+01
 Coeff:     -0.696D-02 0.101D+01
 Gap=     0.530 Goal=   None    Shift=    0.000
 RMSDP=1.18D-06 MaxDP=5.26D-05 DE=-4.81D-07 OVMax= 4.01D-05

 Cycle   3  Pass 1  IDiag  1:
 RMSU=  4.78D-07    CP:  1.00D+00  1.09D+00
 FoFJK:  IHMeth= 1 ICntrl=     0 DoSepK=T KAlg= 1 I1Cent= 0 FoldK=F
 E= -2753.43565060172     Delta-E=       -0.000000005029 Rises=F Damp=F
 DIIS: error= 5.05D-07 at cycle   3 NSaved=   3.
 NSaved= 3 IEnMin= 3 EnMin= -2753.43565060172     IErMin= 3 ErrMin= 5.05D-07
 ErrMax= 5.05D-07 EMaxC= 1.00D-01 BMatC= 7.30D-11 BMatP= 2.90D-09
 IDIUse=1 WtCom= 1.00D+00 WtEn= 0.00D+00
 Coeff-Com:  0.261D-03-0.115D+00 0.111D+01
 Coeff:      0.261D-03-0.115D+00 0.111D+01
 Gap=     0.530 Goal=   None    Shift=    0.000
 RMSDP=1.76D-07 MaxDP=8.34D-06 DE=-5.03D-09 OVMax= 8.01D-06

 Cycle   4  Pass 1  IDiag  1:
 RMSU=  4.60D-08    CP:  1.00D+00  1.10D+00  1.21D+00
 FoFJK:  IHMeth= 1 ICntrl=     0 DoSepK=T KAlg= 1 I1Cent= 0 FoldK=F
 E= -2753.43565060186     Delta-E=       -0.000000000136 Rises=F Damp=F
 DIIS: error= 2.54D-07 at cycle   4 NSaved=   4.
 NSaved= 4 IEnMin= 4 EnMin= -2753.43565060186     IErMin= 4 ErrMin= 2.54D-07
 ErrMax= 2.54D-07 EMaxC= 1.00D-01 BMatC= 7.76D-12 BMatP= 7.30D-11
 IDIUse=1 WtCom= 1.00D+00 WtEn= 0.00D+00
 Coeff-Com:  0.178D-03-0.468D-01 0.291D+00 0.755D+00
 Coeff:      0.178D-03-0.468D-01 0.291D+00 0.755D+00
 Gap=     0.530 Goal=   None    Shift=    0.000
 RMSDP=1.73D-08 MaxDP=6.82D-07 DE=-1.36D-10 OVMax= 9.11D-07

 Cycle   5  Pass 1  IDiag  1:
 RMSU=  7.83D-09    CP:  1.00D+00  1.10D+00  1.22D+00  1.11D+00
 FoFJK:  IHMeth= 1 ICntrl=     0 DoSepK=T KAlg= 1 I1Cent= 0 FoldK=F
 E= -2753.43565060186     Delta-E=       -0.000000000008 Rises=F Damp=F
 DIIS: error= 2.94D-08 at cycle   5 NSaved=   5.
 NSaved= 5 IEnMin= 5 EnMin= -2753.43565060186     IErMin= 5 ErrMin= 2.94D-08
 ErrMax= 2.94D-08 EMaxC= 1.00D-01 BMatC= 1.76D-13 BMatP= 7.76D-12
 IDIUse=1 WtCom= 1.00D+00 WtEn= 0.00D+00
 Coeff-Com: -0.488D-05 0.379D-02-0.420D-01 0.181D-01 0.102D+01
 Coeff:     -0.488D-05 0.379D-02-0.420D-01 0.181D-01 0.102D+01
 Gap=     0.530 Goal=   None    Shift=    0.000
 RMSDP=6.95D-09 MaxDP=3.62D-07 DE=-8.19D-12 OVMax= 3.30D-07

 SCF Done:  E(RLC-wPBE) =  -2753.43565060     A.U. after    5 cycles
             Convg  =    0.6954D-08             -V/T =  2.0014
 KE= 2.749528637574D+03 PE=-6.578941566821D+03 EE= 1.075977278645D+03
 Leave Link  502 at Tue May 12 11:58:47 2020, MaxMem= 1073741824 cpu:     106.3
 (Enter /home/matheus/.gaussian/g09/l122.exe)
 Restoring MOs from calculation   4 to rwf.
 Counterpoise: doing MCBS calculation for fragment   1
 Leave Link  122 at Tue May 12 11:58:48 2020, MaxMem= 1073741824 cpu:       0.0
 (Enter /home/matheus/.gaussian/g09/l301.exe)
 Basis read from rwf:  (5D, 7F)
 No pseudopotential information found on rwf file.
 There are   138 symmetry adapted basis functions of A   symmetry.
 Integral buffers will be    131072 words long.
 Raffenetti 2 integral format.
 Two-electron integral symmetry is turned on.
   138 basis functions,   198 primitive gaussians,   160 cartesian basis functions
     9 alpha electrons        9 beta electrons
       nuclear repulsion energy        36.6440881780 Hartrees.
 IExCor=32609 DFT=T Ex+Corr=LC-wPBE ExCW=0 ScaHFX=  1.000000
 ScaDFX=  1.000000  0.000000  1.000000  1.000000 ScalE2=  1.000000  1.000000
 IRadAn=      5 IRanWt=     -1 IRanGd=            0 ICorTp=0
  HFx wShort=  0.000000 wLong=  0.400000 cFull=  0.000000 cShort=  0.000000 cLong=  1.000000
  DFx wShort=  0.000000 wLong=  0.400000 cFull=  0.000000 cShort=  0.000000 cLong=  1.000000
 NAtoms=    5 NActive=    4 NUniq=    4 SFac= 1.00D+00 NAtFMM=   60 NAOKFM=F Big=F
 No density basis found on file   718.
 Leave Link  301 at Tue May 12 11:58:48 2020, MaxMem= 1073741824 cpu:       0.2
 (Enter /home/matheus/.gaussian/g09/l302.exe)
 NPDir=0 NMtPBC=     1 NCelOv=     1 NCel=       1 NClECP=     1 NCelD=      1
         NCelK=      1 NCelE2=     1 NClLst=     1 CellRange=     0.0.
 One-electron integrals computed using PRISM.
 NBasis=   138 RedAO= T  NBF=   138
 NBsUse=   138 1.00D-06 NBFU=   138
 Precomputing XC quadrature grid using
 IXCGrd= 2 IRadAn=           5 IRanWt=          -1 IRanGd=           0 AccXCQ= 0.00D+00.
 NRdTot=     344 NPtTot=       92556 NUsed=       95038 NTot=       95070
 NSgBfM=   160   160   160   160   160 NAtAll=     4     4.
 Leave Link  302 at Tue May 12 11:58:48 2020, MaxMem= 1073741824 cpu:       0.8
 (Enter /home/matheus/.gaussian/g09/l303.exe)
 DipDrv:  MaxL=1.
 Leave Link  303 at Tue May 12 11:58:48 2020, MaxMem= 1073741824 cpu:       0.1
 (Enter /home/matheus/.gaussian/g09/l401.exe)
 Initial guess read from the read-write file.
 Guess basis will be translated and rotated to current coordinates.
 Initial guess orbital symmetries:
       Occupied  (A) (A) (A) (A) (A) (A) (A) (A) (A)
       Virtual   (A) (A) (A) (A) (A) (A) (A) (A) (A) (A) (A) (A)
                 (A) (A) (A) (A) (A) (A) (A) (A) (A) (A) (A) (A)
                 (A) (A) (A) (A) (A) (A) (A) (A) (A) (A) (A) (A)
                 (A) (A) (A) (A) (A) (A) (A) (A) (A) (A) (A) (A)
                 (A) (A) (A) (A) (A) (A) (A) (A) (A) (A) (A) (A)
                 (A) (A) (A) (A) (A) (A) (A) (A) (A) (A) (A) (A)
                 (A) (A) (A) (A) (A) (A) (A) (A) (A) (A) (A) (A)
                 (A) (A) (A) (A) (A) (A) (A) (A) (A) (A) (A) (A)
                 (A) (A) (A) (A) (A) (A) (A) (A) (A) (A) (A) (A)
                 (A) (A) (A) (A) (A) (A) (A) (A) (A) (A) (A) (A)
                 (A) (A) (A) (A) (A) (A) (A) (A) (A)
 The electronic state of the initial guess is 1-A.
 Generating alternative initial guess.
 Harris functional with IExCor=32609 diagonalized for initial guess.
 ExpMin= 2.53D-02 ExpMax= 1.53D+04 ExpMxC= 5.22D+02 IAcc=3 IRadAn=         5 AccDes= 0.00D+00
 HarFok:  IExCor=32609 AccDes= 0.00D+00 IRadAn=         5 IDoV= 1
 ScaDFX=  1.000000  1.000000  1.000000  1.000000
 FoFCou: FMM=F IPFlag=           0 FMFlag=      100000 FMFlg1=           0
         NFxFlg=           0 DoJE=T BraDBF=F KetDBF=T FulRan=T
         Omega=  0.000000  0.000000  1.000000  0.000000  0.000000 ICntrl=     500 IOpCl=  0
         NMat0=    1 NMatS0=    1 NMatT0=    0 NMatD0=    1 NMtDS0=    0 NMtDT0=    0
         I1Cent=           4 NGrid=           0.
 Petite list used in FoFCou.
 Harris En= -151.501697769253    
 Leave Link  401 at Tue May 12 11:58:48 2020, MaxMem= 1073741824 cpu:       2.7
 (Enter /home/matheus/.gaussian/g09/l502.exe)
 Closed shell SCF:
 Requested convergence on RMS density matrix=1.00D-08 within 128 cycles.
 Requested convergence on MAX density matrix=1.00D-06.
 Requested convergence on             energy=1.00D-06.
 No special actions if energy rises.
 Using DIIS extrapolation, IDIIS=  1040.
 Integral symmetry usage will be decided dynamically.
        94980 words used for storage of precomputed grid.
 IEnd=      192360 IEndB=      192360 NGot=  1073741824 MDV=  1073591865
 LenX=  1073591865 LenY=  1073565824
 Fock matrices will be formed incrementally for  20 cycles.

 Cycle   1  Pass 1  IDiag  1:
 FoFJK:  IHMeth= 1 ICntrl=     0 DoSepK=T KAlg= 1 I1Cent= 0 FoldK=F
 FoFCou: FMM=F IPFlag=           0 FMFlag=      100000 FMFlg1=           0
         NFxFlg=           0 DoJE=T BraDBF=F KetDBF=F FulRan=T
         Omega=  0.000000  0.000000  1.000000  0.000000  0.000000 ICntrl=     500 IOpCl=  0
         NMat0=    1 NMatS0=    1 NMatT0=    0 NMatD0=    1 NMtDS0=    0 NMtDT0=    0
         I1Cent=           0 NGrid=           0.
 Symmetry not used in FoFCou.
 E= -151.522577156070    
 DIIS: error= 6.69D-06 at cycle   1 NSaved=   1.
 NSaved= 1 IEnMin= 1 EnMin= -151.522577156070     IErMin= 1 ErrMin= 6.69D-06
 ErrMax= 6.69D-06 EMaxC= 1.00D-01 BMatC= 9.29D-09 BMatP= 9.29D-09
 IDIUse=1 WtCom= 1.00D+00 WtEn= 0.00D+00
 Coeff-Com:  0.100D+01
 Coeff:      0.100D+01
 Gap=     0.434 Goal=   None    Shift=    0.000
 RMSDP=6.53D-07 MaxDP=1.43D-05              OVMax= 2.45D-05

 Cycle   2  Pass 1  IDiag  1:
 RMSU=  4.62D-07    CP:  1.00D+00
 FoFJK:  IHMeth= 1 ICntrl=     0 DoSepK=T KAlg= 1 I1Cent= 0 FoldK=F
 E= -151.522577164846     Delta-E=       -0.000000008776 Rises=F Damp=F
 DIIS: error= 1.32D-06 at cycle   2 NSaved=   2.
 NSaved= 2 IEnMin= 2 EnMin= -151.522577164846     IErMin= 2 ErrMin= 1.32D-06
 ErrMax= 1.32D-06 EMaxC= 1.00D-01 BMatC= 3.25D-10 BMatP= 9.29D-09
 IDIUse=1 WtCom= 1.00D+00 WtEn= 0.00D+00
 Coeff-Com: -0.121D+00 0.112D+01
 Coeff:     -0.121D+00 0.112D+01
 Gap=     0.434 Goal=   None    Shift=    0.000
 RMSDP=1.73D-07 MaxDP=4.66D-06 DE=-8.78D-09 OVMax= 8.74D-06

 Cycle   3  Pass 1  IDiag  1:
 RMSU=  6.30D-08    CP:  1.00D+00  1.23D+00
 FoFJK:  IHMeth= 1 ICntrl=     0 DoSepK=T KAlg= 1 I1Cent= 0 FoldK=F
 E= -151.522577165534     Delta-E=       -0.000000000688 Rises=F Damp=F
 DIIS: error= 3.71D-07 at cycle   3 NSaved=   3.
 NSaved= 3 IEnMin= 3 EnMin= -151.522577165534     IErMin= 3 ErrMin= 3.71D-07
 ErrMax= 3.71D-07 EMaxC= 1.00D-01 BMatC= 1.89D-11 BMatP= 3.25D-10
 IDIUse=1 WtCom= 1.00D+00 WtEn= 0.00D+00
 Coeff-Com: -0.662D-02-0.107D+00 0.111D+01
 Coeff:     -0.662D-02-0.107D+00 0.111D+01
 Gap=     0.434 Goal=   None    Shift=    0.000
 RMSDP=4.93D-08 MaxDP=1.08D-06 DE=-6.88D-10 OVMax= 3.32D-06

 Cycle   4  Pass 1  IDiag  1:
 RMSU=  1.25D-08    CP:  1.00D+00  1.28D+00  1.37D+00
 FoFJK:  IHMeth= 1 ICntrl=     0 DoSepK=T KAlg= 1 I1Cent= 0 FoldK=F
 E= -151.522577165594     Delta-E=       -0.000000000061 Rises=F Damp=F
 DIIS: error= 1.36D-07 at cycle   4 NSaved=   4.
 NSaved= 4 IEnMin= 4 EnMin= -151.522577165594     IErMin= 4 ErrMin= 1.36D-07
 ErrMax= 1.36D-07 EMaxC= 1.00D-01 BMatC= 2.14D-12 BMatP= 1.89D-11
 IDIUse=1 WtCom= 1.00D+00 WtEn= 0.00D+00
 Coeff-Com:  0.794D-02-0.857D-01-0.739D-03 0.108D+01
 Coeff:      0.794D-02-0.857D-01-0.739D-03 0.108D+01
 Gap=     0.434 Goal=   None    Shift=    0.000
 RMSDP=1.77D-08 MaxDP=2.92D-07 DE=-6.08D-11 OVMax= 1.30D-06

 Cycle   5  Pass 1  IDiag  1:
 RMSU=  4.88D-09    CP:  1.00D+00  1.29D+00  1.51D+00  1.44D+00
 FoFJK:  IHMeth= 1 ICntrl=     0 DoSepK=T KAlg= 1 I1Cent= 0 FoldK=F
 E= -151.522577165601     Delta-E=       -0.000000000006 Rises=F Damp=F
 DIIS: error= 3.88D-08 at cycle   5 NSaved=   5.
 NSaved= 5 IEnMin= 5 EnMin= -151.522577165601     IErMin= 5 ErrMin= 3.88D-08
 ErrMax= 3.88D-08 EMaxC= 1.00D-01 BMatC= 4.03D-13 BMatP= 2.14D-12
 IDIUse=1 WtCom= 1.00D+00 WtEn= 0.00D+00
 Coeff-Com:  0.256D-02-0.171D-01-0.712D-01 0.328D+00 0.758D+00
 Coeff:      0.256D-02-0.171D-01-0.712D-01 0.328D+00 0.758D+00
 Gap=     0.434 Goal=   None    Shift=    0.000
 RMSDP=4.63D-09 MaxDP=8.70D-08 DE=-6.25D-12 OVMax= 3.44D-07

 SCF Done:  E(RLC-wPBE) =  -151.522577166     A.U. after    5 cycles
             Convg  =    0.4629D-08             -V/T =  2.0067
 KE= 1.505172412274D+02 PE=-4.315426958378D+02 EE= 9.285878926678D+01
 Leave Link  502 at Tue May 12 11:58:54 2020, MaxMem= 1073741824 cpu:      44.1
 (Enter /home/matheus/.gaussian/g09/l122.exe)
 Restoring MOs from calculation   5 to rwf.
 Counterpoise: doing MCBS calculation for fragment   2
 Leave Link  122 at Tue May 12 11:58:54 2020, MaxMem= 1073741824 cpu:       0.0
 (Enter /home/matheus/.gaussian/g09/l301.exe)
 Basis read from rwf:  (5D, 7F)
 No pseudopotential information found on rwf file.
 There are    59 symmetry adapted basis functions of A   symmetry.
 Integral buffers will be    131072 words long.
 Raffenetti 2 integral format.
 Two-electron integral symmetry is turned on.
    59 basis functions,   217 primitive gaussians,    69 cartesian basis functions
    18 alpha electrons       18 beta electrons
       nuclear repulsion energy         0.0000000000 Hartrees.
 IExCor=32609 DFT=T Ex+Corr=LC-wPBE ExCW=0 ScaHFX=  1.000000
 ScaDFX=  1.000000  0.000000  1.000000  1.000000 ScalE2=  1.000000  1.000000
 IRadAn=      5 IRanWt=     -1 IRanGd=            0 ICorTp=0
  HFx wShort=  0.000000 wLong=  0.400000 cFull=  0.000000 cShort=  0.000000 cLong=  1.000000
  DFx wShort=  0.000000 wLong=  0.400000 cFull=  0.000000 cShort=  0.000000 cLong=  1.000000
 NAtoms=    5 NActive=    1 NUniq=    1 SFac= 1.00D+00 NAtFMM=   60 NAOKFM=F Big=F
 No density basis found on file   718.
 Leave Link  301 at Tue May 12 11:58:54 2020, MaxMem= 1073741824 cpu:       0.2
 (Enter /home/matheus/.gaussian/g09/l302.exe)
 NPDir=0 NMtPBC=     1 NCelOv=     1 NCel=       1 NClECP=     1 NCelD=      1
         NCelK=      1 NCelE2=     1 NClLst=     1 CellRange=     0.0.
 One-electron integrals computed using PRISM.
 NBasis=    59 RedAO= T  NBF=    59
 NBsUse=    59 1.00D-06 NBFU=    59
 Precomputing XC quadrature grid using
 IXCGrd= 2 IRadAn=           5 IRanWt=          -1 IRanGd=           0 AccXCQ= 0.00D+00.
 NRdTot=      81 NPtTot=       30352 NUsed=       30981 NTot=       31013
 NSgBfM=    69    69    69    69    69 NAtAll=     1     1.
 Leave Link  302 at Tue May 12 11:58:54 2020, MaxMem= 1073741824 cpu:       0.7
 (Enter /home/matheus/.gaussian/g09/l303.exe)
 DipDrv:  MaxL=1.
 Leave Link  303 at Tue May 12 11:58:54 2020, MaxMem= 1073741824 cpu:       0.2
 (Enter /home/matheus/.gaussian/g09/l401.exe)
 Initial guess read from the read-write file.
 Guess basis will be translated and rotated to current coordinates.
 Initial guess orbital symmetries:
       Occupied  (A) (A) (A) (A) (A) (A) (A) (A) (A) (A) (A) (A)
                 (A) (A) (A) (A) (A) (A)
       Virtual   (A) (A) (A) (A) (A) (A) (A) (A) (A) (A) (A) (A)
                 (A) (A) (A) (A) (A) (A) (A) (A) (A) (A) (A) (A)
                 (A) (A) (A) (A) (A) (A) (A) (A) (A) (A) (A) (A)
                 (A) (A) (A) (A) (A)
 The electronic state of the initial guess is 1-A.
 Generating alternative initial guess.
 Harris functional with IExCor=32609 diagonalized for initial guess.
 ExpMin= 4.00D-02 ExpMax= 1.17D+07 ExpMxC= 1.33D+04 IAcc=3 IRadAn=         5 AccDes= 0.00D+00
 HarFok:  IExCor=32609 AccDes= 0.00D+00 IRadAn=         5 IDoV= 1
 ScaDFX=  1.000000  1.000000  1.000000  1.000000
 FoFCou: FMM=F IPFlag=           0 FMFlag=      100000 FMFlg1=           0
         NFxFlg=           0 DoJE=T BraDBF=F KetDBF=T FulRan=T
         Omega=  0.000000  0.000000  1.000000  0.000000  0.000000 ICntrl=     500 IOpCl=  0
         NMat0=    1 NMatS0=    1 NMatT0=    0 NMatD0=    1 NMtDS0=    0 NMtDT0=    0
         I1Cent=           4 NGrid=           0.
 Petite list used in FoFCou.
 DSYEVD returned Info=          89 IAlg= 4 N=    59 NDim=    59 NE2=    18198841 trying DSYEV.
 Harris En= -2753.24576836237    
 Leave Link  401 at Tue May 12 11:58:54 2020, MaxMem= 1073741824 cpu:       1.2
 (Enter /home/matheus/.gaussian/g09/l502.exe)
 Closed shell SCF:
 Requested convergence on RMS density matrix=1.00D-08 within 128 cycles.
 Requested convergence on MAX density matrix=1.00D-06.
 Requested convergence on             energy=1.00D-06.
 No special actions if energy rises.
 Using DIIS extrapolation, IDIIS=  1040.
 Integral symmetry usage will be decided dynamically.
        30923 words used for storage of precomputed grid.
 IEnd=       64406 IEndB=       64406 NGot=  1073741824 MDV=  1073698889
 LenX=  1073698889 LenY=  1073693687
 Fock matrices will be formed incrementally for  20 cycles.

 Cycle   1  Pass 1  IDiag  1:
 FoFJK:  IHMeth= 1 ICntrl=     0 DoSepK=T KAlg= 1 I1Cent= 0 FoldK=F
 FoFCou: FMM=F IPFlag=           0 FMFlag=      100000 FMFlg1=           0
         NFxFlg=           0 DoJE=T BraDBF=F KetDBF=F FulRan=T
         Omega=  0.000000  0.000000  1.000000  0.000000  0.000000 ICntrl=     500 IOpCl=  0
         NMat0=    1 NMatS0=    1 NMatT0=    0 NMatD0=    1 NMtDS0=    0 NMtDT0=    0
         I1Cent=           0 NGrid=           0.
 Symmetry not used in FoFCou.
 E= -2753.43563276534    
 DIIS: error= 1.14D-13 at cycle   1 NSaved=   1.
 NSaved= 1 IEnMin= 1 EnMin= -2753.43563276534     IErMin= 1 ErrMin= 1.14D-13
 ErrMax= 1.14D-13 EMaxC= 1.00D-01 BMatC= 3.98D-25 BMatP= 3.98D-25
 IDIUse=1 WtCom= 1.00D+00 WtEn= 0.00D+00
 Coeff-Com:  0.100D+01
 Coeff:      0.100D+01
 Gap=     0.599 Goal=   None    Shift=    0.000
 RMSDP=9.81D-15 MaxDP=1.61D-13              OVMax= 3.40D-13

 SCF Done:  E(RLC-wPBE) =  -2753.43563277     A.U. after    1 cycles
             Convg  =    0.9808D-14             -V/T =  2.0014
 KE= 2.749535160915D+03 PE=-6.578948648680D+03 EE= 1.075977855000D+03
 Leave Link  502 at Tue May 12 11:58:55 2020, MaxMem= 1073741824 cpu:      12.6
 (Enter /home/matheus/.gaussian/g09/l122.exe)
 Restoring MOs from calculation   1 to rwf.
 Counterpoise: corrected energy =   -2904.958269364724
 Counterpoise: BSSE energy =       0.000021919977
 Leave Link  122 at Tue May 12 11:58:55 2020, MaxMem= 1073741824 cpu:       0.0
 (Enter /home/matheus/.gaussian/g09/l108.exe)
 Scan completed.

 Summary of the potential surface scan:
   N      R1          SCF    
 ----  ---------  -----------
    1     3.0000  -2753.43563
    2     3.1000  -2753.43563
    3     3.2000  -2753.43563
    4     3.3000  -2753.43563
    5     3.4000  -2753.43563
    6     3.5000  -2753.43563
    7     3.6000  -2753.43563
    8     3.7000  -2753.43563
    9     3.8000  -2753.43563
   10     3.9000  -2753.43563
   11     4.0000  -2753.43563
   12     4.1000  -2753.43563
   13     4.2000  -2753.43563
   14     4.3000  -2753.43563
   15     4.4000  -2753.43563
   16     4.5000  -2753.43563
   17     4.6000  -2753.43563
   18     4.7000  -2753.43563
   19     4.8000  -2753.43563
   20     4.9000  -2753.43563
   21     5.0000  -2753.43563
 ----  ---------  -----------
  
 Leave Link  108 at Tue May 12 11:58:56 2020, MaxMem= 1073741824 cpu:       0.0
 (Enter /home/matheus/.gaussian/g09/l9999.exe)
 1\1\GINC-REDGIANT\Scan\RLC-wPBE\Aug-CC-pVTZ\H2Kr1O2\MATHEUS\12-May-202
 0\1\\#p lc-wpbe/aug-cc-PVTz int=ultrafine counterpoise=2 Scan\\TCC\\0,
 1\O,0,0.,0.,0.725\O,0,0.,0.,-0.725\H,0,0.795635374,0.4593602974,1.0235
 104166\H,0,0.,0.9187205947,-1.0235104166\Kr,0,0.,R1,0.\\R1=3.,s,20,0.1
 \\Version=EM64L-G09RevC.01\State=1-A\HF=-2753.4356328,-2753.4356328,-2
 753.4356328,-2753.4356328,-2753.4356328,-2753.4356328,-2753.4356328,-2
 753.4356328,-2753.4356328,-2753.4356328,-2753.4356328,-2753.4356328,-2
 753.4356328,-2753.4356328,-2753.4356328,-2753.4356328,-2753.4356328,-2
 753.4356328,-2753.4356328,-2753.4356328,-2753.4356328\RMSD=1.428e-09,5
 .221e-11,1.075e-11,2.474e-12,6.355e-13,1.617e-13,4.076e-14,1.457e-14,7
 .235e-15,1.146e-14,1.389e-14,7.629e-15,7.794e-15,6.796e-15,6.461e-15,4
 .479e-15,9.649e-15,9.837e-15,6.840e-15,9.541e-15,9.808e-15\PG=C01 [X(H
 2Kr1O2)]\\@


 SEE YOU NOW,
 YOUR BAIT OF FALSEHOOD TAKES THIS CARP OF TRUTH.
 AND THUS DO WE OF WISDOM AND OF REACH...
 BY INDIRECTIONS FIND DIRECTIONS OUT.    -- HAMLET, II, 1
 Job cpu time:  0 days  3 hours 21 minutes  7.3 seconds.
 File lengths (MBytes):  RWF=     33 Int=      0 D2E=      0 Chk=      8 Scr=      1
 Normal termination of Gaussian 09 at Tue May 12 11:58:56 2020.
