 Entering Gaussian System, Link 0=g09
 Input=/home/matheus/.tcc/Inputs/Inputs-lc-wpbe-default/H2O2-Kr_35.com
 Output=/home/matheus/.tcc/Logs/Logs-lc-wpbe-default/H2O2-Kr_35.log
 Initial command:
 /home/matheus/.gaussian/g09/l1.exe /home/matheus/.gaussian/g09/scratch/Gau-18144.inp -scrdir=/home/matheus/.gaussian/g09/scratch/
 Entering Link 1 = /home/matheus/.gaussian/g09/l1.exe PID=     18148.
  
 Copyright (c) 1988,1990,1992,1993,1995,1998,2003,2009,2011,
            Gaussian, Inc.  All Rights Reserved.
  
 This is part of the Gaussian(R) 09 program.  It is based on
 the Gaussian(R) 03 system (copyright 2003, Gaussian, Inc.),
 the Gaussian(R) 98 system (copyright 1998, Gaussian, Inc.),
 the Gaussian(R) 94 system (copyright 1995, Gaussian, Inc.),
 the Gaussian 92(TM) system (copyright 1992, Gaussian, Inc.),
 the Gaussian 90(TM) system (copyright 1990, Gaussian, Inc.),
 the Gaussian 88(TM) system (copyright 1988, Gaussian, Inc.),
 the Gaussian 86(TM) system (copyright 1986, Carnegie Mellon
 University), and the Gaussian 82(TM) system (copyright 1983,
 Carnegie Mellon University). Gaussian is a federally registered
 trademark of Gaussian, Inc.
  
 This software contains proprietary and confidential information,
 including trade secrets, belonging to Gaussian, Inc.
  
 This software is provided under written license and may be
 used, copied, transmitted, or stored only in accord with that
 written license.
  
 The following legend is applicable only to US Government
 contracts under FAR:
  
                    RESTRICTED RIGHTS LEGEND
  
 Use, reproduction and disclosure by the US Government is
 subject to restrictions as set forth in subparagraphs (a)
 and (c) of the Commercial Computer Software - Restricted
 Rights clause in FAR 52.227-19.
  
 Gaussian, Inc.
 340 Quinnipiac St., Bldg. 40, Wallingford CT 06492
  
  
 ---------------------------------------------------------------
 Warning -- This program may not be used in any manner that
 competes with the business of Gaussian, Inc. or will provide
 assistance to any competitor of Gaussian, Inc.  The licensee
 of this program is prohibited from giving any competitor of
 Gaussian, Inc. access to this program.  By using this program,
 the user acknowledges that Gaussian, Inc. is engaged in the
 business of creating and licensing software in the field of
 computational chemistry and represents and warrants to the
 licensee that it is not a competitor of Gaussian, Inc. and that
 it will not use this program in any manner prohibited above.
 ---------------------------------------------------------------
  

 Cite this work as:
 Gaussian 09, Revision C.01,
 M. J. Frisch, G. W. Trucks, H. B. Schlegel, G. E. Scuseria, 
 M. A. Robb, J. R. Cheeseman, G. Scalmani, V. Barone, B. Mennucci, 
 G. A. Petersson, H. Nakatsuji, M. Caricato, X. Li, H. P. Hratchian, 
 A. F. Izmaylov, J. Bloino, G. Zheng, J. L. Sonnenberg, M. Hada, 
 M. Ehara, K. Toyota, R. Fukuda, J. Hasegawa, M. Ishida, T. Nakajima, 
 Y. Honda, O. Kitao, H. Nakai, T. Vreven, J. A. Montgomery, Jr., 
 J. E. Peralta, F. Ogliaro, M. Bearpark, J. J. Heyd, E. Brothers, 
 K. N. Kudin, V. N. Staroverov, T. Keith, R. Kobayashi, J. Normand, 
 K. Raghavachari, A. Rendell, J. C. Burant, S. S. Iyengar, J. Tomasi, 
 M. Cossi, N. Rega, J. M. Millam, M. Klene, J. E. Knox, J. B. Cross, 
 V. Bakken, C. Adamo, J. Jaramillo, R. Gomperts, R. E. Stratmann, 
 O. Yazyev, A. J. Austin, R. Cammi, C. Pomelli, J. W. Ochterski, 
 R. L. Martin, K. Morokuma, V. G. Zakrzewski, G. A. Voth, 
 P. Salvador, J. J. Dannenberg, S. Dapprich, A. D. Daniels, 
 O. Farkas, J. B. Foresman, J. V. Ortiz, J. Cioslowski, 
 and D. J. Fox, Gaussian, Inc., Wallingford CT, 2010.
 
 ******************************************
 Gaussian 09:  EM64L-G09RevC.01 23-Sep-2011
                12-May-2020 
 ******************************************
 %mem=8GB
 %nproc=8
 Will use up to    8 processors via shared memory.
 --------------------------------------------------------
 #p lc-wpbe/aug-cc-PVTz int=ultrafine counterpoise=2 Scan
 --------------------------------------------------------
 1/38=1,60=1,62=2/1,8;
 2/12=2,17=6,18=5,29=3,40=1/2;
 1/38=1,53=5172,62=2/22;
 3/5=16,6=1,7=10,11=2,16=1,25=1,30=1,74=-41,75=-5/1,2,3;
 4//1;
 5/5=2,38=5/2;
 6/7=2,8=2,9=2,10=2,18=1,28=1/1;
 1/53=4052,62=2,63=1/22;
 3/5=7,6=11,7=10,11=2,16=1,25=1,30=1,74=-41,75=-5,82=7/1,2,3;
 4//1;
 5/5=2,38=5/2;
 6/7=2,8=2,9=2,10=2,18=1,28=1/1;
 1/53=3042,62=2,63=2/22;
 3/5=7,6=11,7=10,11=2,16=1,25=1,30=1,74=-41,75=-5,82=7/1,2,3;
 4//1;
 5/5=2,38=5/2;
 6/7=2,8=2,9=2,10=2,18=1,28=1/1;
 1/53=2032,62=2,63=3/22;
 3/5=7,6=11,7=10,11=2,16=1,25=1,30=1,74=-41,75=-5,82=7/1,2,3;
 4//1;
 5/5=2,38=5/2;
 6/7=2,8=2,9=2,10=2,18=1,28=1/1;
 1/53=1022,62=2,63=4/22;
 3/5=7,6=11,7=10,11=2,16=1,25=1,30=1,74=-41,75=-5,82=7/1,2,3;
 4//1;
 5/5=2,38=5/2;
 6/7=2,8=2,9=2,10=2,18=1,28=1/1;
 1/53=5014,62=2,63=5/22;
 1/60=1,62=2/8(1);
 99/9=1/99;
 2/29=3/2;
 1/53=5173,62=2/22;
 3/5=7,6=11,7=10,11=2,16=1,25=1,30=1,74=-41,75=-5,82=7/1,2,3;
 4/5=5,16=3/1;
 5/5=2,38=5/2;
 1/53=4053,62=2,63=1/22;
 3/5=7,6=11,7=10,11=2,16=1,25=1,30=1,74=-41,75=-5,82=7/1,2,3;
 4/5=5,16=3/1;
 5/5=2,38=5/2;
 1/53=3043,62=2,63=2/22;
 3/5=7,6=11,7=10,11=2,16=1,25=1,30=1,74=-41,75=-5,82=7/1,2,3;
 4/5=5,16=3/1;
 5/5=2,38=5/2;
 1/53=2033,62=2,63=3/22;
 3/5=7,6=11,7=10,11=2,16=1,25=1,30=1,74=-41,75=-5,82=7/1,2,3;
 4/5=5,16=3/1;
 5/5=2,38=5/2;
 1/53=1024,62=2,63=4/22;
 3/5=7,6=11,7=10,11=2,16=1,25=1,30=1,74=-41,75=-5,82=7/1,2,3;
 4/5=5,16=3/1;
 5/5=2,38=5/2;
 1/53=5014,62=2,63=5/22;
 1/60=1,62=2/8(-22);
 99/9=1/99;
 Leave Link    1 at Tue May 12 23:18:49 2020, MaxMem= 1073741824 cpu:       0.1
 (Enter /home/matheus/.gaussian/g09/l101.exe)
 ---
 TCC
 ---
 Charge =  0 Multiplicity = 1 in supermolecule
 Charge =  0 Multiplicity = 1 in fragment  1.
 Charge =  0 Multiplicity = 1 in fragment  2.
 Symbolic Z-Matrix:
 O(Fragment=1)         0.        0.        0.725 
 O(Fragment=1)         0.        0.       -0.725 
 H(Fragment=1)        -0.15953   0.90476   1.02351 
 H(Fragment=1)         0.        0.91872  -1.02351 
 Kr(Fragment=2)        0.       R1        0. 
       Variables:
  R1                    3.     Scan 20    0.1    
 
 NAtoms=      5 NQM=        0 NQMF=       0 NMMI=      5 NMMIF=      0
                NMic=       0 NMicF=      0.
                    Isotopes and Nuclear Properties:
 (Nuclear quadrupole moments (NQMom) in fm**2, nuclear magnetic moments (NMagM)
  in nuclear magnetons)

  Atom         1           2           3           4           5
 IAtWgt=          16          16           1           1          84
 AtmWgt=  15.9949146  15.9949146   1.0078250   1.0078250  83.9115064
 NucSpn=           0           0           1           1           0
 AtZEff=   0.0000000   0.0000000   0.0000000   0.0000000   0.0000000
 NQMom=    0.0000000   0.0000000   0.0000000   0.0000000   0.0000000
 NMagM=    0.0000000   0.0000000   2.7928460   2.7928460   0.0000000
 Leave Link  101 at Tue May 12 23:18:49 2020, MaxMem= 1073741824 cpu:       0.3
 (Enter /home/matheus/.gaussian/g09/l108.exe)
 Scan the potential surface.
 Variable   Value     No. Steps Step-Size
 -------- ----------- --------- ---------
     1       3.000000      20      0.1000
 A total of     21 points will be computed.
 Leave Link  108 at Tue May 12 23:18:49 2020, MaxMem= 1073741824 cpu:       0.0
 (Enter /home/matheus/.gaussian/g09/l202.exe)
 ---------------------------------------------------------------------------------------------------
                            Z-MATRIX (ANGSTROMS AND DEGREES)
   CD    Cent   Atom    N1       Length/X        N2       Alpha/Y        N3        Beta/Z          J
 ---------------------------------------------------------------------------------------------------
      1      1  O        0   0.000000          0.000000          0.725000
      2      2  O        0   0.000000          0.000000         -0.725000
      3      3  H        0  -0.159534          0.904763          1.023510
      4      4  H        0   0.000000          0.918721         -1.023510
      5      5  Kr       0   0.000000          3.000000          0.000000
 ---------------------------------------------------------------------------------------------------
                         Z-Matrix orientation:                         
 ---------------------------------------------------------------------
 Center     Atomic      Atomic             Coordinates (Angstroms)
 Number     Number       Type             X           Y           Z
 ---------------------------------------------------------------------
      1          8           0        0.000000    0.000000    0.725000
      2          8           0        0.000000    0.000000   -0.725000
      3          1           0       -0.159534    0.904763    1.023510
      4          1           0        0.000000    0.918721   -1.023510
      5         36           0        0.000000    3.000000    0.000000
 ---------------------------------------------------------------------
                    Distance matrix (angstroms):
                    1          2          3          4          5
     1  O    0.000000
     2  O    1.450000   0.000000
     3  H    0.966000   1.975180   0.000000
     4  H    1.975180   0.966000   2.053275   0.000000
     5  Kr   3.086361   3.086361   2.337315   2.319331   0.000000
 Stoichiometry    H2KrO2
 Framework group  C1[X(H2KrO2)]
 Deg. of freedom     9
 Full point group                 C1      NOp   1
 Largest Abelian subgroup         C1      NOp   1
 Largest concise Abelian subgroup C1      NOp   1
                         Standard orientation:                         
 ---------------------------------------------------------------------
 Center     Atomic      Atomic             Coordinates (Angstroms)
 Number     Number       Type             X           Y           Z
 ---------------------------------------------------------------------
      1          8           0       -2.033875   -0.724487   -0.017820
      2          8           0       -2.033645    0.725337    0.004759
      3          1           0       -1.129442   -1.025614    0.138637
      4          1           0       -1.114878    1.023640    0.011023
      5         36           0        0.966235   -0.000134   -0.001255
 ---------------------------------------------------------------------
 Rotational constants (GHZ):     26.6670558      2.3882151      2.1923671
 Leave Link  202 at Tue May 12 23:18:49 2020, MaxMem= 1073741824 cpu:       0.0
 (Enter /home/matheus/.gaussian/g09/l122.exe)
 Leave Link  122 at Tue May 12 23:18:49 2020, MaxMem= 1073741824 cpu:       0.0
 (Enter /home/matheus/.gaussian/g09/l301.exe)
 Standard basis: Aug-CC-pVTZ (5D, 7F)
 Ernie: Thresh=  0.10000D-02 Tol=  0.10000D-05 Strict=F.
 Ernie:  38 primitive shells out of 205 were deleted.
 There are   197 symmetry adapted basis functions of A   symmetry.
 Integral buffers will be    131072 words long.
 Raffenetti 2 integral format.
 Two-electron integral symmetry is turned on.
   197 basis functions,   415 primitive gaussians,   229 cartesian basis functions
    27 alpha electrons       27 beta electrons
       nuclear repulsion energy       151.7892858201 Hartrees.
 IExCor=32609 DFT=T Ex+Corr=LC-wPBE ExCW=0 ScaHFX=  1.000000
 ScaDFX=  1.000000  0.000000  1.000000  1.000000 ScalE2=  1.000000  1.000000
 IRadAn=      5 IRanWt=     -1 IRanGd=            0 ICorTp=0
  HFx wShort=  0.000000 wLong=  0.400000 cFull=  0.000000 cShort=  0.000000 cLong=  1.000000
  DFx wShort=  0.000000 wLong=  0.400000 cFull=  0.000000 cShort=  0.000000 cLong=  1.000000
 NAtoms=    5 NActive=    5 NUniq=    5 SFac= 1.00D+00 NAtFMM=   60 NAOKFM=F Big=F
 Leave Link  301 at Tue May 12 23:18:49 2020, MaxMem= 1073741824 cpu:       0.2
 (Enter /home/matheus/.gaussian/g09/l302.exe)
 NPDir=0 NMtPBC=     1 NCelOv=     1 NCel=       1 NClECP=     1 NCelD=      1
         NCelK=      1 NCelE2=     1 NClLst=     1 CellRange=     0.0.
 One-electron integrals computed using PRISM.
 NBasis=   197 RedAO= T  NBF=   197
 NBsUse=   197 1.00D-06 NBFU=   197
 Precomputing XC quadrature grid using
 IXCGrd= 2 IRadAn=           5 IRanWt=          -1 IRanGd=           0 AccXCQ= 0.00D+00.
 NRdTot=     427 NPtTot=      123512 NUsed=      126579 NTot=      126611
 NSgBfM=   229   229   229   229   229 NAtAll=     5     5.
 Leave Link  302 at Tue May 12 23:18:49 2020, MaxMem= 1073741824 cpu:       1.0
 (Enter /home/matheus/.gaussian/g09/l303.exe)
 DipDrv:  MaxL=1.
 Leave Link  303 at Tue May 12 23:18:50 2020, MaxMem= 1073741824 cpu:       0.2
 (Enter /home/matheus/.gaussian/g09/l401.exe)
 Harris functional with IExCor=32609 diagonalized for initial guess.
 ExpMin= 2.53D-02 ExpMax= 1.17D+07 ExpMxC= 1.33D+04 IAcc=3 IRadAn=         5 AccDes= 0.00D+00
 HarFok:  IExCor=32609 AccDes= 0.00D+00 IRadAn=         5 IDoV= 1
 ScaDFX=  1.000000  1.000000  1.000000  1.000000
 FoFCou: FMM=F IPFlag=           0 FMFlag=      100000 FMFlg1=           0
         NFxFlg=           0 DoJE=T BraDBF=F KetDBF=T FulRan=T
         Omega=  0.000000  0.000000  1.000000  0.000000  0.000000 ICntrl=     500 IOpCl=  0
         NMat0=    1 NMatS0=    1 NMatT0=    0 NMatD0=    1 NMtDS0=    0 NMtDT0=    0
         I1Cent=           4 NGrid=           0.
 Petite list used in FoFCou.
 Harris En= -2904.72952075202    
 Initial guess orbital symmetries:
       Occupied  (A) (A) (A) (A) (A) (A) (A) (A) (A) (A) (A) (A)
                 (A) (A) (A) (A) (A) (A) (A) (A) (A) (A) (A) (A)
                 (A) (A) (A)
       Virtual   (A) (A) (A) (A) (A) (A) (A) (A) (A) (A) (A) (A)
                 (A) (A) (A) (A) (A) (A) (A) (A) (A) (A) (A) (A)
                 (A) (A) (A) (A) (A) (A) (A) (A) (A) (A) (A) (A)
                 (A) (A) (A) (A) (A) (A) (A) (A) (A) (A) (A) (A)
                 (A) (A) (A) (A) (A) (A) (A) (A) (A) (A) (A) (A)
                 (A) (A) (A) (A) (A) (A) (A) (A) (A) (A) (A) (A)
                 (A) (A) (A) (A) (A) (A) (A) (A) (A) (A) (A) (A)
                 (A) (A) (A) (A) (A) (A) (A) (A) (A) (A) (A) (A)
                 (A) (A) (A) (A) (A) (A) (A) (A) (A) (A) (A) (A)
                 (A) (A) (A) (A) (A) (A) (A) (A) (A) (A) (A) (A)
                 (A) (A) (A) (A) (A) (A) (A) (A) (A) (A) (A) (A)
                 (A) (A) (A) (A) (A) (A) (A) (A) (A) (A) (A) (A)
                 (A) (A) (A) (A) (A) (A) (A) (A) (A) (A) (A) (A)
                 (A) (A) (A) (A) (A) (A) (A) (A) (A) (A) (A) (A)
                 (A) (A)
 The electronic state of the initial guess is 1-A.
 Leave Link  401 at Tue May 12 23:18:50 2020, MaxMem= 1073741824 cpu:       3.8
 (Enter /home/matheus/.gaussian/g09/l502.exe)
 Closed shell SCF:
 Requested convergence on RMS density matrix=1.00D-08 within 128 cycles.
 Requested convergence on MAX density matrix=1.00D-06.
 Requested convergence on             energy=1.00D-06.
 No special actions if energy rises.
 Using DIIS extrapolation, IDIIS=  1040.
 Integral symmetry usage will be decided dynamically.
       126521 words used for storage of precomputed grid.
 IEnd=      305468 IEndB=      305468 NGot=  1073741824 MDV=  1073505667
 LenX=  1073505667 LenY=  1073452785
 Fock matrices will be formed incrementally for  20 cycles.

 Cycle   1  Pass 1  IDiag  1:
 FoFJK:  IHMeth= 1 ICntrl=     0 DoSepK=T KAlg= 1 I1Cent= 0 FoldK=F
 FoFCou: FMM=F IPFlag=           0 FMFlag=      100000 FMFlg1=           0
         NFxFlg=           0 DoJE=T BraDBF=F KetDBF=F FulRan=T
         Omega=  0.000000  0.000000  1.000000  0.000000  0.000000 ICntrl=     500 IOpCl=  0
         NMat0=    1 NMatS0=    1 NMatT0=    0 NMatD0=    1 NMtDS0=    0 NMtDT0=    0
         I1Cent=           0 NGrid=           0.
 Symmetry not used in FoFCou.
 E= -2904.86744333578    
 DIIS: error= 3.39D-02 at cycle   1 NSaved=   1.
 NSaved= 1 IEnMin= 1 EnMin= -2904.86744333578     IErMin= 1 ErrMin= 3.39D-02
 ErrMax= 3.39D-02 EMaxC= 1.00D-01 BMatC= 2.73D-01 BMatP= 2.73D-01
 IDIUse=3 WtCom= 6.61D-01 WtEn= 3.39D-01
 Coeff-Com:  0.100D+01
 Coeff-En:   0.100D+01
 Coeff:      0.100D+01
 Gap=     0.477 Goal=   None    Shift=    0.000
 GapD=    0.477 DampG=2.000 DampE=0.500 DampFc=1.0000 IDamp=-1.
 RMSDP=2.45D-03 MaxDP=1.54D-01              OVMax= 7.91D-02

 Cycle   2  Pass 1  IDiag  1:
 RMSU=  1.71D-03    CP:  1.02D+00
 FoFJK:  IHMeth= 1 ICntrl=     0 DoSepK=T KAlg= 1 I1Cent= 0 FoldK=F
 E= -2904.91259259705     Delta-E=       -0.045149261273 Rises=F Damp=F
 DIIS: error= 1.29D-02 at cycle   2 NSaved=   2.
 NSaved= 2 IEnMin= 2 EnMin= -2904.91259259705     IErMin= 2 ErrMin= 1.29D-02
 ErrMax= 1.29D-02 EMaxC= 1.00D-01 BMatC= 8.76D-02 BMatP= 2.73D-01
 IDIUse=3 WtCom= 8.71D-01 WtEn= 1.29D-01
 Coeff-Com:  0.355D+00 0.645D+00
 Coeff-En:   0.221D+00 0.779D+00
 Coeff:      0.338D+00 0.662D+00
 Gap=     0.431 Goal=   None    Shift=    0.000
 RMSDP=1.05D-03 MaxDP=5.32D-02 DE=-4.51D-02 OVMax= 3.76D-02

 Cycle   3  Pass 1  IDiag  1:
 RMSU=  3.42D-04    CP:  1.01D+00  6.25D-01
 FoFJK:  IHMeth= 1 ICntrl=     0 DoSepK=T KAlg= 1 I1Cent= 0 FoldK=F
 E= -2904.94500675770     Delta-E=       -0.032414160647 Rises=F Damp=F
 DIIS: error= 3.85D-03 at cycle   3 NSaved=   3.
 NSaved= 3 IEnMin= 3 EnMin= -2904.94500675770     IErMin= 3 ErrMin= 3.85D-03
 ErrMax= 3.85D-03 EMaxC= 1.00D-01 BMatC= 2.18D-03 BMatP= 8.76D-02
 IDIUse=3 WtCom= 9.61D-01 WtEn= 3.85D-02
 Coeff-Com:  0.715D-01 0.203D+00 0.725D+00
 Coeff-En:   0.000D+00 0.000D+00 0.100D+01
 Coeff:      0.687D-01 0.195D+00 0.736D+00
 Gap=     0.409 Goal=   None    Shift=    0.000
 RMSDP=1.42D-04 MaxDP=3.60D-03 DE=-3.24D-02 OVMax= 9.08D-03

 Cycle   4  Pass 1  IDiag  1:
 RMSU=  6.92D-05    CP:  1.01D+00  6.54D-01  8.43D-01
 FoFJK:  IHMeth= 1 ICntrl=     0 DoSepK=T KAlg= 1 I1Cent= 0 FoldK=F
 E= -2904.94619610250     Delta-E=       -0.001189344801 Rises=F Damp=F
 DIIS: error= 1.02D-03 at cycle   4 NSaved=   4.
 NSaved= 4 IEnMin= 4 EnMin= -2904.94619610250     IErMin= 4 ErrMin= 1.02D-03
 ErrMax= 1.02D-03 EMaxC= 1.00D-01 BMatC= 1.66D-04 BMatP= 2.18D-03
 IDIUse=3 WtCom= 9.90D-01 WtEn= 1.02D-02
 Coeff-Com: -0.277D-02 0.235D-01 0.272D+00 0.707D+00
 Coeff-En:   0.000D+00 0.000D+00 0.000D+00 0.100D+01
 Coeff:     -0.274D-02 0.233D-01 0.269D+00 0.710D+00
 Gap=     0.415 Goal=   None    Shift=    0.000
 RMSDP=4.17D-05 MaxDP=1.76D-03 DE=-1.19D-03 OVMax= 2.21D-03

 Cycle   5  Pass 1  IDiag  1:
 RMSU=  1.18D-05    CP:  1.01D+00  6.56D-01  9.09D-01  7.97D-01
 FoFJK:  IHMeth= 1 ICntrl=     0 DoSepK=T KAlg= 1 I1Cent= 0 FoldK=F
 E= -2904.94629092014     Delta-E=       -0.000094817643 Rises=F Damp=F
 DIIS: error= 8.02D-05 at cycle   5 NSaved=   5.
 NSaved= 5 IEnMin= 5 EnMin= -2904.94629092014     IErMin= 5 ErrMin= 8.02D-05
 ErrMax= 8.02D-05 EMaxC= 1.00D-01 BMatC= 1.17D-06 BMatP= 1.66D-04
 IDIUse=1 WtCom= 1.00D+00 WtEn= 0.00D+00
 Coeff-Com: -0.154D-02-0.245D-02 0.517D-02 0.704D-01 0.928D+00
 Coeff:     -0.154D-02-0.245D-02 0.517D-02 0.704D-01 0.928D+00
 Gap=     0.415 Goal=   None    Shift=    0.000
 RMSDP=5.83D-06 MaxDP=1.75D-04 DE=-9.48D-05 OVMax= 4.02D-04

 Cycle   6  Pass 1  IDiag  1:
 RMSU=  3.02D-06    CP:  1.01D+00  6.56D-01  9.09D-01  8.30D-01  1.13D+00
 FoFJK:  IHMeth= 1 ICntrl=     0 DoSepK=T KAlg= 1 I1Cent= 0 FoldK=F
 E= -2904.94629213822     Delta-E=       -0.000001218075 Rises=F Damp=F
 DIIS: error= 2.32D-05 at cycle   6 NSaved=   6.
 NSaved= 6 IEnMin= 6 EnMin= -2904.94629213822     IErMin= 6 ErrMin= 2.32D-05
 ErrMax= 2.32D-05 EMaxC= 1.00D-01 BMatC= 7.04D-08 BMatP= 1.17D-06
 IDIUse=1 WtCom= 1.00D+00 WtEn= 0.00D+00
 Coeff-Com: -0.586D-04-0.209D-02-0.183D-01-0.386D-01 0.857D-01 0.973D+00
 Coeff:     -0.586D-04-0.209D-02-0.183D-01-0.386D-01 0.857D-01 0.973D+00
 Gap=     0.415 Goal=   None    Shift=    0.000
 RMSDP=2.02D-06 MaxDP=6.39D-05 DE=-1.22D-06 OVMax= 1.57D-04

 Cycle   7  Pass 1  IDiag  1:
 RMSU=  6.74D-07    CP:  1.01D+00  6.56D-01  9.10D-01  8.36D-01  1.21D+00
                    CP:  1.19D+00
 FoFJK:  IHMeth= 1 ICntrl=     0 DoSepK=T KAlg= 1 I1Cent= 0 FoldK=F
 E= -2904.94629222765     Delta-E=       -0.000000089434 Rises=F Damp=F
 DIIS: error= 9.06D-06 at cycle   7 NSaved=   7.
 NSaved= 7 IEnMin= 7 EnMin= -2904.94629222765     IErMin= 7 ErrMin= 9.06D-06
 ErrMax= 9.06D-06 EMaxC= 1.00D-01 BMatC= 1.38D-08 BMatP= 7.04D-08
 IDIUse=1 WtCom= 1.00D+00 WtEn= 0.00D+00
 Coeff-Com:  0.149D-04-0.774D-03-0.737D-02-0.170D-01 0.100D-01 0.382D+00
 Coeff-Com:  0.633D+00
 Coeff:      0.149D-04-0.774D-03-0.737D-02-0.170D-01 0.100D-01 0.382D+00
 Coeff:      0.633D+00
 Gap=     0.415 Goal=   None    Shift=    0.000
 RMSDP=4.25D-07 MaxDP=1.37D-05 DE=-8.94D-08 OVMax= 3.79D-05

 Cycle   8  Pass 1  IDiag  1:
 RMSU=  2.64D-07    CP:  1.01D+00  6.56D-01  9.10D-01  8.36D-01  1.22D+00
                    CP:  1.22D+00  9.84D-01
 FoFJK:  IHMeth= 1 ICntrl=     0 DoSepK=T KAlg= 1 I1Cent= 0 FoldK=F
 E= -2904.94629224506     Delta-E=       -0.000000017409 Rises=F Damp=F
 DIIS: error= 4.01D-06 at cycle   8 NSaved=   8.
 NSaved= 8 IEnMin= 8 EnMin= -2904.94629224506     IErMin= 8 ErrMin= 4.01D-06
 ErrMax= 4.01D-06 EMaxC= 1.00D-01 BMatC= 2.93D-09 BMatP= 1.38D-08
 IDIUse=1 WtCom= 1.00D+00 WtEn= 0.00D+00
 Coeff-Com:  0.223D-04 0.243D-03 0.190D-02 0.348D-02-0.185D-01-0.111D+00
 Coeff-Com:  0.290D+00 0.834D+00
 Coeff:      0.223D-04 0.243D-03 0.190D-02 0.348D-02-0.185D-01-0.111D+00
 Coeff:      0.290D+00 0.834D+00
 Gap=     0.415 Goal=   None    Shift=    0.000
 RMSDP=2.49D-07 MaxDP=5.84D-06 DE=-1.74D-08 OVMax= 2.17D-05

 Cycle   9  Pass 1  IDiag  1:
 RMSU=  7.46D-08    CP:  1.01D+00  6.56D-01  9.10D-01  8.36D-01  1.23D+00
                    CP:  1.24D+00  1.17D+00  1.00D+00
 FoFJK:  IHMeth= 1 ICntrl=     0 DoSepK=T KAlg= 1 I1Cent= 0 FoldK=F
 E= -2904.94629224785     Delta-E=       -0.000000002793 Rises=F Damp=F
 DIIS: error= 4.85D-07 at cycle   9 NSaved=   9.
 NSaved= 9 IEnMin= 9 EnMin= -2904.94629224785     IErMin= 9 ErrMin= 4.85D-07
 ErrMax= 4.85D-07 EMaxC= 1.00D-01 BMatC= 4.41D-11 BMatP= 2.93D-09
 IDIUse=1 WtCom= 1.00D+00 WtEn= 0.00D+00
 Coeff-Com:  0.281D-06 0.608D-04 0.551D-03 0.129D-02-0.197D-02-0.329D-01
 Coeff-Com: -0.253D-02 0.880D-01 0.948D+00
 Coeff:      0.281D-06 0.608D-04 0.551D-03 0.129D-02-0.197D-02-0.329D-01
 Coeff:     -0.253D-02 0.880D-01 0.948D+00
 Gap=     0.415 Goal=   None    Shift=    0.000
 RMSDP=5.18D-08 MaxDP=1.58D-06 DE=-2.79D-09 OVMax= 4.43D-06

 Cycle  10  Pass 1  IDiag  1:
 RMSU=  2.08D-08    CP:  1.01D+00  6.56D-01  9.10D-01  8.36D-01  1.23D+00
                    CP:  1.24D+00  1.20D+00  1.06D+00  1.13D+00
 FoFJK:  IHMeth= 1 ICntrl=     0 DoSepK=T KAlg= 1 I1Cent= 0 FoldK=F
 E= -2904.94629224795     Delta-E=       -0.000000000099 Rises=F Damp=F
 DIIS: error= 2.07D-07 at cycle  10 NSaved=  10.
 NSaved=10 IEnMin=10 EnMin= -2904.94629224795     IErMin=10 ErrMin= 2.07D-07
 ErrMax= 2.07D-07 EMaxC= 1.00D-01 BMatC= 3.08D-12 BMatP= 4.41D-11
 IDIUse=1 WtCom= 1.00D+00 WtEn= 0.00D+00
 Coeff-Com: -0.173D-05-0.141D-04-0.107D-03-0.183D-03 0.140D-02 0.609D-02
 Coeff-Com: -0.235D-01-0.595D-01 0.692D-01 0.101D+01
 Coeff:     -0.173D-05-0.141D-04-0.107D-03-0.183D-03 0.140D-02 0.609D-02
 Coeff:     -0.235D-01-0.595D-01 0.692D-01 0.101D+01
 Gap=     0.415 Goal=   None    Shift=    0.000
 RMSDP=1.86D-08 MaxDP=8.28D-07 DE=-9.91D-11 OVMax= 1.72D-06

 Cycle  11  Pass 1  IDiag  1:
 RMSU=  5.55D-09    CP:  1.01D+00  6.56D-01  9.10D-01  8.36D-01  1.23D+00
                    CP:  1.24D+00  1.21D+00  1.08D+00  1.23D+00  1.22D+00
 FoFJK:  IHMeth= 1 ICntrl=     0 DoSepK=T KAlg= 1 I1Cent= 0 FoldK=F
 E= -2904.94629224797     Delta-E=       -0.000000000019 Rises=F Damp=F
 DIIS: error= 6.96D-08 at cycle  11 NSaved=  11.
 NSaved=11 IEnMin=11 EnMin= -2904.94629224797     IErMin=11 ErrMin= 6.96D-08
 ErrMax= 6.96D-08 EMaxC= 1.00D-01 BMatC= 2.81D-13 BMatP= 3.08D-12
 IDIUse=1 WtCom= 1.00D+00 WtEn= 0.00D+00
 Coeff-Com:  0.165D-06-0.227D-05-0.217D-04-0.722D-04 0.449D-04 0.175D-02
 Coeff-Com:  0.141D-02-0.195D-02-0.590D-01-0.846D-01 0.114D+01
 Coeff:      0.165D-06-0.227D-05-0.217D-04-0.722D-04 0.449D-04 0.175D-02
 Coeff:      0.141D-02-0.195D-02-0.590D-01-0.846D-01 0.114D+01
 Gap=     0.415 Goal=   None    Shift=    0.000
 RMSDP=6.40D-09 MaxDP=2.34D-07 DE=-1.91D-11 OVMax= 5.68D-07

 SCF Done:  E(RLC-wPBE) =  -2904.94629225     A.U. after   11 cycles
             Convg  =    0.6402D-08             -V/T =  2.0017
 KE= 2.900069274516D+03 PE=-7.239385020442D+03 EE= 1.282580167858D+03
 Leave Link  502 at Tue May 12 23:19:24 2020, MaxMem= 1073741824 cpu:     267.8
 (Enter /home/matheus/.gaussian/g09/l601.exe)
 Copying SCF densities to generalized density rwf, IOpCl= 0 IROHF=0.

 **********************************************************************

            Population analysis using the SCF density.

 **********************************************************************

 Orbital symmetries:
       Occupied  (A) (A) (A) (A) (A) (A) (A) (A) (A) (A) (A) (A)
                 (A) (A) (A) (A) (A) (A) (A) (A) (A) (A) (A) (A)
                 (A) (A) (A)
       Virtual   (A) (A) (A) (A) (A) (A) (A) (A) (A) (A) (A) (A)
                 (A) (A) (A) (A) (A) (A) (A) (A) (A) (A) (A) (A)
                 (A) (A) (A) (A) (A) (A) (A) (A) (A) (A) (A) (A)
                 (A) (A) (A) (A) (A) (A) (A) (A) (A) (A) (A) (A)
                 (A) (A) (A) (A) (A) (A) (A) (A) (A) (A) (A) (A)
                 (A) (A) (A) (A) (A) (A) (A) (A) (A) (A) (A) (A)
                 (A) (A) (A) (A) (A) (A) (A) (A) (A) (A) (A) (A)
                 (A) (A) (A) (A) (A) (A) (A) (A) (A) (A) (A) (A)
                 (A) (A) (A) (A) (A) (A) (A) (A) (A) (A) (A) (A)
                 (A) (A) (A) (A) (A) (A) (A) (A) (A) (A) (A) (A)
                 (A) (A) (A) (A) (A) (A) (A) (A) (A) (A) (A) (A)
                 (A) (A) (A) (A) (A) (A) (A) (A) (A) (A) (A) (A)
                 (A) (A) (A) (A) (A) (A) (A) (A) (A) (A) (A) (A)
                 (A) (A) (A) (A) (A) (A) (A) (A) (A) (A) (A) (A)
                 (A) (A)
 The electronic state is 1-A.
 Alpha  occ. eigenvalues -- -511.14769 -66.69445 -60.35668 -60.35658 -60.35645
 Alpha  occ. eigenvalues --  -19.03012 -19.02991  -9.62717  -7.37175  -7.37141
 Alpha  occ. eigenvalues --   -7.37105  -3.32717  -3.32713  -3.32685  -3.32659
 Alpha  occ. eigenvalues --   -3.32656  -1.25298  -1.07569  -1.03473  -0.71372
 Alpha  occ. eigenvalues --   -0.56946  -0.55443  -0.54580  -0.53187  -0.52696
 Alpha  occ. eigenvalues --   -0.49714  -0.38259
 Alpha virt. eigenvalues --    0.03253   0.04235   0.08216   0.09004   0.09970
 Alpha virt. eigenvalues --    0.11689   0.12719   0.16647   0.17086   0.17865
 Alpha virt. eigenvalues --    0.18433   0.19113   0.20082   0.21813   0.23190
 Alpha virt. eigenvalues --    0.24009   0.24699   0.26248   0.30377   0.33874
 Alpha virt. eigenvalues --    0.35203   0.37664   0.38822   0.38982   0.40005
 Alpha virt. eigenvalues --    0.43318   0.45634   0.49120   0.52281   0.53999
 Alpha virt. eigenvalues --    0.59262   0.62336   0.62615   0.63958   0.64626
 Alpha virt. eigenvalues --    0.69555   0.69624   0.71534   0.72916   0.74619
 Alpha virt. eigenvalues --    0.75263   0.78062   0.80331   0.83676   0.85763
 Alpha virt. eigenvalues --    0.87016   0.87189   0.88893   0.89236   0.91515
 Alpha virt. eigenvalues --    0.94285   0.96756   0.97722   0.99439   1.00893
 Alpha virt. eigenvalues --    1.03631   1.06113   1.07444   1.09910   1.10286
 Alpha virt. eigenvalues --    1.12936   1.19835   1.22565   1.27402   1.28811
 Alpha virt. eigenvalues --    1.31591   1.31682   1.38232   1.40961   1.47252
 Alpha virt. eigenvalues --    1.49032   1.51127   1.55014   1.56137   1.59102
 Alpha virt. eigenvalues --    1.64428   1.66724   1.79013   1.92709   1.94583
 Alpha virt. eigenvalues --    1.97174   2.00978   2.07833   2.11472   2.13165
 Alpha virt. eigenvalues --    2.18633   2.20396   2.21449   2.22542   2.27441
 Alpha virt. eigenvalues --    2.30399   2.31947   2.32607   2.33778   2.36715
 Alpha virt. eigenvalues --    2.38006   2.40612   2.42787   2.47106   2.47913
 Alpha virt. eigenvalues --    2.49200   2.49801   2.56955   2.58128   2.63621
 Alpha virt. eigenvalues --    2.64630   2.65630   2.69195   2.71975   2.72307
 Alpha virt. eigenvalues --    2.73229   2.76919   2.79848   2.88356   2.89236
 Alpha virt. eigenvalues --    2.95017   3.09643   3.12354   3.18283   3.53997
 Alpha virt. eigenvalues --    3.76257   3.82312   3.96387   4.02467   4.09176
 Alpha virt. eigenvalues --    4.10715   4.13236   4.19600   4.20684   4.25714
 Alpha virt. eigenvalues --    4.35860   4.46348   4.57401   4.69468   4.72945
 Alpha virt. eigenvalues --    4.95895   5.00114   5.01586   5.07389   5.13705
 Alpha virt. eigenvalues --    5.16661   5.52370   5.79813   5.97936   6.05176
 Alpha virt. eigenvalues --    6.11626   6.31233   6.37318   6.47096   6.56498
 Alpha virt. eigenvalues --    6.67720   6.68897   6.74353   6.76262   6.79415
 Alpha virt. eigenvalues --    6.84523   6.85234   6.86961   6.90905   7.09834
 Alpha virt. eigenvalues --    7.13999   7.17344   7.26144   7.26606   7.59714
 Alpha virt. eigenvalues --    7.93721   8.02960   8.17629  13.73575  14.66099
          Condensed to atoms (all electrons):
              1          2          3          4          5
     1  O    8.292061  -0.285642   0.167029   0.043955  -0.016206
     2  O   -0.285642   8.288639   0.045291   0.170795  -0.014251
     3  H    0.167029   0.045291   0.632466  -0.026647  -0.013945
     4  H    0.043955   0.170795  -0.026647   0.629891  -0.016429
     5  Kr  -0.016206  -0.014251  -0.013945  -0.016429  36.049043
 Mulliken atomic charges:
              1
     1  O   -0.201197
     2  O   -0.204832
     3  H    0.195806
     4  H    0.198435
     5  Kr   0.011788
 Sum of Mulliken atomic charges =   0.00000
 Mulliken charges with hydrogens summed into heavy atoms:
              1
     1  O   -0.005391
     2  O   -0.006397
     5  Kr   0.011788
 Sum of Mulliken charges with hydrogens summed into heavy atoms =   0.00000
          Condensed to fragments (all electrons):
     1      -0.011788
     2       0.011788
 Electronic spatial extent (au):  <R**2>=            475.4178
 Charge=              0.0000 electrons
 Dipole moment (field-independent basis, Debye):
    X=              3.7236    Y=             -0.0121    Z=              0.2241  Tot=              3.7303
 Quadrupole moment (field-independent basis, Debye-Ang):
   XX=            -38.7890   YY=            -28.1771   ZZ=            -30.5066
   XY=              0.0343   XZ=             -0.2449   YZ=             -0.3032
 Traceless Quadrupole moment (field-independent basis, Debye-Ang):
   XX=             -6.2981   YY=              4.3138   ZZ=              1.9843
   XY=              0.0343   XZ=             -0.2449   YZ=             -0.3032
 Octapole moment (field-independent basis, Debye-Ang**2):
  XXX=             45.3735  YYY=             -0.0287  ZZZ=             -0.0185  XYY=              8.2952
  XXY=             -0.0781  XXZ=             -0.0643  XZZ=              9.1124  YZZ=             -0.0561
  YYZ=              0.3447  XYZ=              0.3240
 Hexadecapole moment (field-independent basis, Debye-Ang**3):
 XXXX=           -456.0785 YYYY=            -63.6356 ZZZZ=            -29.2869 XXXY=              0.0704
 XXXZ=              0.5998 YYYX=              0.0632 YYYZ=             -0.4098 ZZZX=             -0.0803
 ZZZY=             -0.1617 XXYY=            -86.7263 XXZZ=            -76.7097 YYZZ=            -17.4646
 XXYZ=             -0.3139 YYXZ=             -0.3825 ZZXY=              0.0722
 N-N= 1.517892858201D+02 E-N=-7.239385022795D+03  KE= 2.900069274516D+03
 No NMR shielding tensors so no spin-rotation constants.
 Leave Link  601 at Tue May 12 23:19:24 2020, MaxMem= 1073741824 cpu:       0.9
 (Enter /home/matheus/.gaussian/g09/l122.exe)
 Counterpoise: doing DCBS calculation for fragment   1 NewBq=T
 Leave Link  122 at Tue May 12 23:19:24 2020, MaxMem= 1073741824 cpu:       0.0
 (Enter /home/matheus/.gaussian/g09/l301.exe)
 Basis read from rwf:  (5D, 7F)
 No pseudopotential information found on rwf file.
 There are   197 symmetry adapted basis functions of A   symmetry.
 Integral buffers will be    131072 words long.
 Raffenetti 2 integral format.
 Two-electron integral symmetry is turned on.
   197 basis functions,   415 primitive gaussians,   229 cartesian basis functions
     9 alpha electrons        9 beta electrons
       nuclear repulsion energy        36.6659649233 Hartrees.
 IExCor=32609 DFT=T Ex+Corr=LC-wPBE ExCW=0 ScaHFX=  1.000000
 ScaDFX=  1.000000  0.000000  1.000000  1.000000 ScalE2=  1.000000  1.000000
 IRadAn=      5 IRanWt=     -1 IRanGd=            0 ICorTp=0
  HFx wShort=  0.000000 wLong=  0.400000 cFull=  0.000000 cShort=  0.000000 cLong=  1.000000
  DFx wShort=  0.000000 wLong=  0.400000 cFull=  0.000000 cShort=  0.000000 cLong=  1.000000
 NAtoms=    5 NActive=    5 NUniq=    5 SFac= 1.00D+00 NAtFMM=   60 NAOKFM=F Big=F
 No density basis found on file   718.
 Leave Link  301 at Tue May 12 23:19:24 2020, MaxMem= 1073741824 cpu:       0.2
 (Enter /home/matheus/.gaussian/g09/l302.exe)
 NPDir=0 NMtPBC=     1 NCelOv=     1 NCel=       1 NClECP=     1 NCelD=      1
         NCelK=      1 NCelE2=     1 NClLst=     1 CellRange=     0.0.
 One-electron integrals computed using PRISM.
 NBasis=   197 RedAO= T  NBF=   197
 NBsUse=   197 1.00D-06 NBFU=   197
 Precomputing XC quadrature grid using
 IXCGrd= 2 IRadAn=           5 IRanWt=          -1 IRanGd=           0 AccXCQ= 0.00D+00.
 NRdTot=     427 NPtTot=      123512 NUsed=      126579 NTot=      126611
 NSgBfM=   229   229   229   229   229 NAtAll=     5     5.
 Leave Link  302 at Tue May 12 23:19:24 2020, MaxMem= 1073741824 cpu:       0.9
 (Enter /home/matheus/.gaussian/g09/l303.exe)
 DipDrv:  MaxL=1.
 Leave Link  303 at Tue May 12 23:19:24 2020, MaxMem= 1073741824 cpu:       0.2
 (Enter /home/matheus/.gaussian/g09/l401.exe)
 Harris functional with IExCor=32609 diagonalized for initial guess.
 ExpMin= 2.53D-02 ExpMax= 1.17D+07 ExpMxC= 1.33D+04 IAcc=3 IRadAn=         5 AccDes= 0.00D+00
 HarFok:  IExCor=32609 AccDes= 0.00D+00 IRadAn=         5 IDoV= 1
 ScaDFX=  1.000000  1.000000  1.000000  1.000000
 FoFCou: FMM=F IPFlag=           0 FMFlag=      100000 FMFlg1=           0
         NFxFlg=           0 DoJE=T BraDBF=F KetDBF=T FulRan=T
         Omega=  0.000000  0.000000  1.000000  0.000000  0.000000 ICntrl=     500 IOpCl=  0
         NMat0=    1 NMatS0=    1 NMatT0=    0 NMatD0=    1 NMtDS0=    0 NMtDT0=    0
         I1Cent=           4 NGrid=           0.
 Petite list used in FoFCou.
 Harris En= -151.498669390015    
 Initial guess orbital symmetries:
       Occupied  (A) (A) (A) (A) (A) (A) (A) (A) (A)
       Virtual   (A) (A) (A) (A) (A) (A) (A) (A) (A) (A) (A) (A)
                 (A) (A) (A) (A) (A) (A) (A) (A) (A) (A) (A) (A)
                 (A) (A) (A) (A) (A) (A) (A) (A) (A) (A) (A) (A)
                 (A) (A) (A) (A) (A) (A) (A) (A) (A) (A) (A) (A)
                 (A) (A) (A) (A) (A) (A) (A) (A) (A) (A) (A) (A)
                 (A) (A) (A) (A) (A) (A) (A) (A) (A) (A) (A) (A)
                 (A) (A) (A) (A) (A) (A) (A) (A) (A) (A) (A) (A)
                 (A) (A) (A) (A) (A) (A) (A) (A) (A) (A) (A) (A)
                 (A) (A) (A) (A) (A) (A) (A) (A) (A) (A) (A) (A)
                 (A) (A) (A) (A) (A) (A) (A) (A) (A) (A) (A) (A)
                 (A) (A) (A) (A) (A) (A) (A) (A) (A) (A) (A) (A)
                 (A) (A) (A) (A) (A) (A) (A) (A) (A) (A) (A) (A)
                 (A) (A) (A) (A) (A) (A) (A) (A) (A) (A) (A) (A)
                 (A) (A) (A) (A) (A) (A) (A) (A) (A) (A) (A) (A)
                 (A) (A) (A) (A) (A) (A) (A) (A) (A) (A) (A) (A)
                 (A) (A) (A) (A) (A) (A) (A) (A)
 The electronic state of the initial guess is 1-A.
 Leave Link  401 at Tue May 12 23:19:24 2020, MaxMem= 1073741824 cpu:       4.0
 (Enter /home/matheus/.gaussian/g09/l502.exe)
 Closed shell SCF:
 Requested convergence on RMS density matrix=1.00D-08 within 128 cycles.
 Requested convergence on MAX density matrix=1.00D-06.
 Requested convergence on             energy=1.00D-06.
 No special actions if energy rises.
 Using DIIS extrapolation, IDIIS=  1040.
 Integral symmetry usage will be decided dynamically.
       126521 words used for storage of precomputed grid.
 IEnd=      305468 IEndB=      305468 NGot=  1073741824 MDV=  1073505667
 LenX=  1073505667 LenY=  1073452785
 Fock matrices will be formed incrementally for  20 cycles.

 Cycle   1  Pass 1  IDiag  1:
 FoFJK:  IHMeth= 1 ICntrl=     0 DoSepK=T KAlg= 1 I1Cent= 0 FoldK=F
 FoFCou: FMM=F IPFlag=           0 FMFlag=      100000 FMFlg1=           0
         NFxFlg=           0 DoJE=T BraDBF=F KetDBF=F FulRan=T
         Omega=  0.000000  0.000000  1.000000  0.000000  0.000000 ICntrl=     500 IOpCl=  0
         NMat0=    1 NMatS0=    1 NMatT0=    0 NMatD0=    1 NMtDS0=    0 NMtDT0=    0
         I1Cent=           0 NGrid=           0.
 Symmetry not used in FoFCou.
 E= -151.486856445822    
 DIIS: error= 1.52D-02 at cycle   1 NSaved=   1.
 NSaved= 1 IEnMin= 1 EnMin= -151.486856445822     IErMin= 1 ErrMin= 1.52D-02
 ErrMax= 1.52D-02 EMaxC= 1.00D-01 BMatC= 4.25D-02 BMatP= 4.25D-02
 IDIUse=3 WtCom= 8.48D-01 WtEn= 1.52D-01
 Coeff-Com:  0.100D+01
 Coeff-En:   0.100D+01
 Coeff:      0.100D+01
 Gap=     0.479 Goal=   None    Shift=    0.000
 GapD=    0.479 DampG=2.000 DampE=0.500 DampFc=1.0000 IDamp=-1.
 RMSDP=9.20D-04 MaxDP=2.19D-02              OVMax= 6.70D-02

 Cycle   2  Pass 1  IDiag  1:
 RMSU=  6.50D-04    CP:  9.95D-01
 FoFJK:  IHMeth= 1 ICntrl=     0 DoSepK=T KAlg= 1 I1Cent= 0 FoldK=F
 E= -151.501570295898     Delta-E=       -0.014713850076 Rises=F Damp=F
 DIIS: error= 1.08D-02 at cycle   2 NSaved=   2.
 NSaved= 2 IEnMin= 2 EnMin= -151.501570295898     IErMin= 2 ErrMin= 1.08D-02
 ErrMax= 1.08D-02 EMaxC= 1.00D-01 BMatC= 2.55D-02 BMatP= 4.25D-02
 IDIUse=3 WtCom= 8.92D-01 WtEn= 1.08D-01
 Coeff-Com:  0.430D+00 0.570D+00
 Coeff-En:   0.279D+00 0.721D+00
 Coeff:      0.414D+00 0.586D+00
 Gap=     0.411 Goal=   None    Shift=    0.000
 RMSDP=5.30D-04 MaxDP=2.32D-02 DE=-1.47D-02 OVMax= 3.07D-02

 Cycle   3  Pass 1  IDiag  1:
 RMSU=  2.27D-04    CP:  9.90D-01  5.46D-01
 FoFJK:  IHMeth= 1 ICntrl=     0 DoSepK=T KAlg= 1 I1Cent= 0 FoldK=F
 E= -151.516695579975     Delta-E=       -0.015125284077 Rises=F Damp=F
 DIIS: error= 1.99D-03 at cycle   3 NSaved=   3.
 NSaved= 3 IEnMin= 3 EnMin= -151.516695579975     IErMin= 3 ErrMin= 1.99D-03
 ErrMax= 1.99D-03 EMaxC= 1.00D-01 BMatC= 4.40D-04 BMatP= 2.55D-02
 IDIUse=3 WtCom= 9.80D-01 WtEn= 1.99D-02
 Coeff-Com:  0.672D-01 0.148D+00 0.784D+00
 Coeff-En:   0.000D+00 0.000D+00 0.100D+01
 Coeff:      0.659D-01 0.145D+00 0.789D+00
 Gap=     0.405 Goal=   None    Shift=    0.000
 RMSDP=5.72D-05 MaxDP=1.35D-03 DE=-1.51D-02 OVMax= 4.18D-03

 Cycle   4  Pass 1  IDiag  1:
 RMSU=  2.85D-05    CP:  9.89D-01  5.88D-01  1.01D+00
 FoFJK:  IHMeth= 1 ICntrl=     0 DoSepK=T KAlg= 1 I1Cent= 0 FoldK=F
 E= -151.516962657559     Delta-E=       -0.000267077584 Rises=F Damp=F
 DIIS: error= 3.58D-04 at cycle   4 NSaved=   4.
 NSaved= 4 IEnMin= 4 EnMin= -151.516962657559     IErMin= 4 ErrMin= 3.58D-04
 ErrMax= 3.58D-04 EMaxC= 1.00D-01 BMatC= 1.47D-05 BMatP= 4.40D-04
 IDIUse=3 WtCom= 9.96D-01 WtEn= 3.58D-03
 Coeff-Com: -0.577D-02-0.976D-02 0.114D+00 0.902D+00
 Coeff-En:   0.000D+00 0.000D+00 0.000D+00 0.100D+01
 Coeff:     -0.575D-02-0.972D-02 0.113D+00 0.902D+00
 Gap=     0.408 Goal=   None    Shift=    0.000
 RMSDP=1.18D-05 MaxDP=5.64D-04 DE=-2.67D-04 OVMax= 7.90D-04

 Cycle   5  Pass 1  IDiag  1:
 RMSU=  5.82D-06    CP:  9.88D-01  5.84D-01  1.03D+00  9.88D-01
 FoFJK:  IHMeth= 1 ICntrl=     0 DoSepK=T KAlg= 1 I1Cent= 0 FoldK=F
 E= -151.516972519732     Delta-E=       -0.000009862172 Rises=F Damp=F
 DIIS: error= 3.86D-05 at cycle   5 NSaved=   5.
 NSaved= 5 IEnMin= 5 EnMin= -151.516972519732     IErMin= 5 ErrMin= 3.86D-05
 ErrMax= 3.86D-05 EMaxC= 1.00D-01 BMatC= 1.01D-07 BMatP= 1.47D-05
 IDIUse=1 WtCom= 1.00D+00 WtEn= 0.00D+00
 Coeff-Com: -0.674D-03-0.168D-02-0.267D-01-0.840D-01 0.111D+01
 Coeff:     -0.674D-03-0.168D-02-0.267D-01-0.840D-01 0.111D+01
 Gap=     0.408 Goal=   None    Shift=    0.000
 RMSDP=2.71D-06 MaxDP=8.76D-05 DE=-9.86D-06 OVMax= 2.21D-04

 Cycle   6  Pass 1  IDiag  1:
 RMSU=  7.85D-07    CP:  9.88D-01  5.85D-01  1.03D+00  1.01D+00  1.26D+00
 FoFJK:  IHMeth= 1 ICntrl=     0 DoSepK=T KAlg= 1 I1Cent= 0 FoldK=F
 E= -151.516972725051     Delta-E=       -0.000000205320 Rises=F Damp=F
 DIIS: error= 6.42D-06 at cycle   6 NSaved=   6.
 NSaved= 6 IEnMin= 6 EnMin= -151.516972725051     IErMin= 6 ErrMin= 6.42D-06
 ErrMax= 6.42D-06 EMaxC= 1.00D-01 BMatC= 2.50D-09 BMatP= 1.01D-07
 IDIUse=1 WtCom= 1.00D+00 WtEn= 0.00D+00
 Coeff-Com:  0.111D-03 0.246D-03 0.172D-03-0.665D-02-0.622D-01 0.107D+01
 Coeff:      0.111D-03 0.246D-03 0.172D-03-0.665D-02-0.622D-01 0.107D+01
 Gap=     0.408 Goal=   None    Shift=    0.000
 RMSDP=4.01D-07 MaxDP=1.57D-05 DE=-2.05D-07 OVMax= 3.68D-05

 Cycle   7  Pass 1  IDiag  1:
 RMSU=  1.37D-07    CP:  9.89D-01  5.85D-01  1.03D+00  1.01D+00  1.28D+00
                    CP:  1.20D+00
 FoFJK:  IHMeth= 1 ICntrl=     0 DoSepK=T KAlg= 1 I1Cent= 0 FoldK=F
 E= -151.516972730910     Delta-E=       -0.000000005859 Rises=F Damp=F
 DIIS: error= 1.38D-06 at cycle   7 NSaved=   7.
 NSaved= 7 IEnMin= 7 EnMin= -151.516972730910     IErMin= 7 ErrMin= 1.38D-06
 ErrMax= 1.38D-06 EMaxC= 1.00D-01 BMatC= 2.09D-10 BMatP= 2.50D-09
 IDIUse=1 WtCom= 1.00D+00 WtEn= 0.00D+00
 Coeff-Com:  0.332D-04 0.795D-04 0.971D-03 0.282D-02-0.570D-01 0.105D+00
 Coeff-Com:  0.948D+00
 Coeff:      0.332D-04 0.795D-04 0.971D-03 0.282D-02-0.570D-01 0.105D+00
 Coeff:      0.948D+00
 Gap=     0.408 Goal=   None    Shift=    0.000
 RMSDP=8.81D-08 MaxDP=2.81D-06 DE=-5.86D-09 OVMax= 8.74D-06

 Cycle   8  Pass 1  IDiag  1:
 RMSU=  3.62D-08    CP:  9.89D-01  5.85D-01  1.03D+00  1.01D+00  1.29D+00
                    CP:  1.25D+00  1.14D+00
 FoFJK:  IHMeth= 1 ICntrl=     0 DoSepK=T KAlg= 1 I1Cent= 0 FoldK=F
 E= -151.516972731306     Delta-E=       -0.000000000396 Rises=F Damp=F
 DIIS: error= 3.59D-07 at cycle   8 NSaved=   8.
 NSaved= 8 IEnMin= 8 EnMin= -151.516972731306     IErMin= 8 ErrMin= 3.59D-07
 ErrMax= 3.59D-07 EMaxC= 1.00D-01 BMatC= 2.05D-11 BMatP= 2.09D-10
 IDIUse=1 WtCom= 1.00D+00 WtEn= 0.00D+00
 Coeff-Com: -0.280D-06-0.415D-05 0.865D-04 0.722D-03-0.471D-02-0.267D-01
 Coeff-Com:  0.109D+00 0.922D+00
 Coeff:     -0.280D-06-0.415D-05 0.865D-04 0.722D-03-0.471D-02-0.267D-01
 Coeff:      0.109D+00 0.922D+00
 Gap=     0.408 Goal=   None    Shift=    0.000
 RMSDP=2.52D-08 MaxDP=1.07D-06 DE=-3.96D-10 OVMax= 3.81D-06

 Cycle   9  Pass 1  IDiag  1:
 RMSU=  1.47D-08    CP:  9.89D-01  5.85D-01  1.03D+00  1.01D+00  1.29D+00
                    CP:  1.25D+00  1.19D+00  1.15D+00
 FoFJK:  IHMeth= 1 ICntrl=     0 DoSepK=T KAlg= 1 I1Cent= 0 FoldK=F
 E= -151.516972731339     Delta-E=       -0.000000000033 Rises=F Damp=F
 DIIS: error= 3.05D-07 at cycle   9 NSaved=   9.
 NSaved= 9 IEnMin= 9 EnMin= -151.516972731339     IErMin= 9 ErrMin= 3.05D-07
 ErrMax= 3.05D-07 EMaxC= 1.00D-01 BMatC= 1.64D-11 BMatP= 2.05D-11
 IDIUse=1 WtCom= 1.00D+00 WtEn= 0.00D+00
 Coeff-Com: -0.686D-05-0.195D-04-0.149D-03-0.111D-03 0.870D-02-0.366D-01
 Coeff-Com: -0.130D+00 0.553D+00 0.605D+00
 Coeff:     -0.686D-05-0.195D-04-0.149D-03-0.111D-03 0.870D-02-0.366D-01
 Coeff:     -0.130D+00 0.553D+00 0.605D+00
 Gap=     0.408 Goal=   None    Shift=    0.000
 RMSDP=1.24D-08 MaxDP=5.48D-07 DE=-3.27D-11 OVMax= 1.93D-06

 Cycle  10  Pass 1  IDiag  1:
 RMSU=  6.53D-09    CP:  9.89D-01  5.85D-01  1.03D+00  1.01D+00  1.29D+00
                    CP:  1.25D+00  1.20D+00  1.29D+00  9.33D-01
 FoFJK:  IHMeth= 1 ICntrl=     0 DoSepK=T KAlg= 1 I1Cent= 0 FoldK=F
 E= -151.516972731354     Delta-E=       -0.000000000015 Rises=F Damp=F
 DIIS: error= 8.28D-08 at cycle  10 NSaved=  10.
 NSaved=10 IEnMin=10 EnMin= -151.516972731354     IErMin=10 ErrMin= 8.28D-08
 ErrMax= 8.28D-08 EMaxC= 1.00D-01 BMatC= 3.14D-13 BMatP= 1.64D-11
 IDIUse=1 WtCom= 1.00D+00 WtEn= 0.00D+00
 Coeff-Com:  0.193D-05 0.555D-05 0.316D-04-0.422D-04-0.190D-02 0.138D-01
 Coeff-Com:  0.212D-01-0.257D+00-0.177D+00 0.140D+01
 Coeff:      0.193D-05 0.555D-05 0.316D-04-0.422D-04-0.190D-02 0.138D-01
 Coeff:      0.212D-01-0.257D+00-0.177D+00 0.140D+01
 Gap=     0.408 Goal=   None    Shift=    0.000
 RMSDP=6.89D-09 MaxDP=1.68D-07 DE=-1.52D-11 OVMax= 1.50D-06

 SCF Done:  E(RLC-wPBE) =  -151.516972731     A.U. after   10 cycles
             Convg  =    0.6894D-08             -V/T =  2.0065
 KE= 1.505310353106D+02 PE=-4.315813290745D+02 EE= 9.286735610920D+01
 Leave Link  502 at Tue May 12 23:19:54 2020, MaxMem= 1073741824 cpu:     235.4
 (Enter /home/matheus/.gaussian/g09/l601.exe)
 Copying SCF densities to generalized density rwf, IOpCl= 0 IROHF=0.

 **********************************************************************

            Population analysis using the SCF density.

 **********************************************************************

 Orbital symmetries:
       Occupied  (A) (A) (A) (A) (A) (A) (A) (A) (A)
       Virtual   (A) (A) (A) (A) (A) (A) (A) (A) (A) (A) (A) (A)
                 (A) (A) (A) (A) (A) (A) (A) (A) (A) (A) (A) (A)
                 (A) (A) (A) (A) (A) (A) (A) (A) (A) (A) (A) (A)
                 (A) (A) (A) (A) (A) (A) (A) (A) (A) (A) (A) (A)
                 (A) (A) (A) (A) (A) (A) (A) (A) (A) (A) (A) (A)
                 (A) (A) (A) (A) (A) (A) (A) (A) (A) (A) (A) (A)
                 (A) (A) (A) (A) (A) (A) (A) (A) (A) (A) (A) (A)
                 (A) (A) (A) (A) (A) (A) (A) (A) (A) (A) (A) (A)
                 (A) (A) (A) (A) (A) (A) (A) (A) (A) (A) (A) (A)
                 (A) (A) (A) (A) (A) (A) (A) (A) (A) (A) (A) (A)
                 (A) (A) (A) (A) (A) (A) (A) (A) (A) (A) (A) (A)
                 (A) (A) (A) (A) (A) (A) (A) (A) (A) (A) (A) (A)
                 (A) (A) (A) (A) (A) (A) (A) (A) (A) (A) (A) (A)
                 (A) (A) (A) (A) (A) (A) (A) (A) (A) (A) (A) (A)
                 (A) (A) (A) (A) (A) (A) (A) (A) (A) (A) (A) (A)
                 (A) (A) (A) (A) (A) (A) (A) (A)
 The electronic state is 1-A.
 Alpha  occ. eigenvalues --  -19.03902 -19.03899  -1.25992  -1.04193  -0.71525
 Alpha  occ. eigenvalues --   -0.56236  -0.54447  -0.51107  -0.38989
 Alpha virt. eigenvalues --    0.01780   0.03703   0.07232   0.07626   0.09079
 Alpha virt. eigenvalues --    0.09930   0.10309   0.16890   0.17198   0.17813
 Alpha virt. eigenvalues --    0.18723   0.19346   0.19705   0.21644   0.26243
 Alpha virt. eigenvalues --    0.26992   0.28116   0.28897   0.31611   0.35092
 Alpha virt. eigenvalues --    0.35228   0.36112   0.37497   0.41072   0.43544
 Alpha virt. eigenvalues --    0.44563   0.45199   0.47402   0.48871   0.53636
 Alpha virt. eigenvalues --    0.55164   0.58514   0.58638   0.63946   0.65654
 Alpha virt. eigenvalues --    0.69315   0.71424   0.76927   0.77456   0.80343
 Alpha virt. eigenvalues --    0.82595   0.83934   0.86073   0.88481   0.89527
 Alpha virt. eigenvalues --    0.94542   0.97075   0.97174   0.99207   1.00099
 Alpha virt. eigenvalues --    1.02242   1.04023   1.06159   1.09629   1.11327
 Alpha virt. eigenvalues --    1.11478   1.18434   1.22770   1.23903   1.25512
 Alpha virt. eigenvalues --    1.28184   1.29277   1.31238   1.32643   1.33317
 Alpha virt. eigenvalues --    1.34216   1.37180   1.38580   1.43785   1.47718
 Alpha virt. eigenvalues --    1.50201   1.50740   1.52644   1.54946   1.61101
 Alpha virt. eigenvalues --    1.63632   1.64456   1.71024   1.72045   1.79424
 Alpha virt. eigenvalues --    1.81876   1.86049   1.96010   1.97644   2.02107
 Alpha virt. eigenvalues --    2.03792   2.13369   2.21092   2.22515   2.26592
 Alpha virt. eigenvalues --    2.28031   2.31661   2.34265   2.34725   2.43408
 Alpha virt. eigenvalues --    2.46481   2.53367   2.53908   2.63132   2.69465
 Alpha virt. eigenvalues --    2.71094   2.74202   2.84293   2.85621   2.92375
 Alpha virt. eigenvalues --    3.07657   3.11322   3.15942   3.23570   3.35288
 Alpha virt. eigenvalues --    3.36045   3.55287   3.63960   3.70686   3.77471
 Alpha virt. eigenvalues --    3.77722   3.78710   3.81216   3.82884   3.84836
 Alpha virt. eigenvalues --    3.89337   3.90550   3.93959   3.94994   3.97045
 Alpha virt. eigenvalues --    3.99525   4.03358   4.09390   4.10527   4.12223
 Alpha virt. eigenvalues --    4.14048   4.16812   4.25665   4.26169   4.28387
 Alpha virt. eigenvalues --    4.43767   4.59171   4.60246   4.69427   4.95440
 Alpha virt. eigenvalues --    4.99866   5.01999   5.07656   5.13444   5.16476
 Alpha virt. eigenvalues --    5.52411   5.79261   5.97313   6.04780   6.10503
 Alpha virt. eigenvalues --    6.30721   6.36744   6.46504   6.55866   6.66960
 Alpha virt. eigenvalues --    6.68409   6.73459   6.75612   6.78769   6.83884
 Alpha virt. eigenvalues --    6.84616   6.86263   6.90271   7.09365   7.13542
 Alpha virt. eigenvalues --    7.16622   7.25433   7.25809   7.59155   7.92897
 Alpha virt. eigenvalues --    8.02239   8.17015  11.08577  13.73168  14.65364
 Alpha virt. eigenvalues --   14.80685  14.95639  15.09663  29.01666  29.02372
 Alpha virt. eigenvalues --   29.05997  29.20216  29.24563  49.23429 148.28843
 Alpha virt. eigenvalues --  148.51343 148.72300 752.99502
          Condensed to atoms (all electrons):
              1          2          3          4          5
     1  O    8.253257  -0.276457   0.169924   0.039436   0.002182
     2  O   -0.276457   8.248382   0.040947   0.173608   0.001682
     3  H    0.169924   0.040947   0.622032  -0.018629  -0.002709
     4  H    0.039436   0.173608  -0.018629   0.620356  -0.003280
     5  Kr   0.002182   0.001682  -0.002709  -0.003280   0.002566
 Mulliken atomic charges:
              1
     1  O   -0.188342
     2  O   -0.188162
     3  H    0.188435
     4  H    0.188509
     5  Kr  -0.000440
 Sum of Mulliken atomic charges =   0.00000
 Mulliken charges with hydrogens summed into heavy atoms:
              1
     1  O    0.000093
     2  O    0.000347
     5  Kr  -0.000440
 Sum of Mulliken charges with hydrogens summed into heavy atoms =   0.00000
          Condensed to fragments (all electrons):
     1       0.000440
     2      -0.000440
 Electronic spatial extent (au):  <R**2>=            316.5709
 Charge=              0.0000 electrons
 Dipole moment (field-independent basis, Debye):
    X=              3.1163    Y=             -0.0049    Z=              0.2780  Tot=              3.1287
 Quadrupole moment (field-independent basis, Debye-Ang):
   XX=            -21.5455   YY=            -10.6067   ZZ=            -13.1021
   XY=              0.0367   XZ=             -0.2061   YZ=             -0.3148
 Traceless Quadrupole moment (field-independent basis, Debye-Ang):
   XX=             -6.4607   YY=              4.4781   ZZ=              1.9827
   XY=              0.0367   XZ=             -0.2061   YZ=             -0.3148
 Octapole moment (field-independent basis, Debye-Ang**2):
  XXX=             93.2208  YYY=             -0.0288  ZZZ=             -0.0060  XYY=             24.7528
  XXY=             -0.0668  XXZ=             -0.0393  XZZ=             25.6815  YZZ=             -0.0573
  YYZ=              0.3547  XYZ=              0.3235
 Hexadecapole moment (field-independent basis, Debye-Ang**3):
 XXXX=           -339.2065 YYYY=            -45.5820 ZZZZ=            -11.6060 XXXY=              0.0565
 XXXZ=              0.6504 YYYX=              0.0641 YYYZ=             -0.4269 ZZZX=             -0.0808
 ZZZY=             -0.1730 XXYY=            -64.2430 XXZZ=            -54.5353 YYZZ=            -11.4985
 XXYZ=             -0.3118 YYXZ=             -0.3772 ZZXY=              0.0704
 N-N= 3.666596492333D+01 E-N=-4.315813296777D+02  KE= 1.505310353106D+02
 No NMR shielding tensors so no spin-rotation constants.
 Leave Link  601 at Tue May 12 23:19:54 2020, MaxMem= 1073741824 cpu:       0.8
 (Enter /home/matheus/.gaussian/g09/l122.exe)
 Counterpoise: doing DCBS calculation for fragment   2 NewBq=T
 Leave Link  122 at Tue May 12 23:19:54 2020, MaxMem= 1073741824 cpu:       0.0
 (Enter /home/matheus/.gaussian/g09/l301.exe)
 Basis read from rwf:  (5D, 7F)
 No pseudopotential information found on rwf file.
 There are   197 symmetry adapted basis functions of A   symmetry.
 Integral buffers will be    131072 words long.
 Raffenetti 2 integral format.
 Two-electron integral symmetry is turned on.
   197 basis functions,   415 primitive gaussians,   229 cartesian basis functions
    18 alpha electrons       18 beta electrons
       nuclear repulsion energy         0.0000000000 Hartrees.
 IExCor=32609 DFT=T Ex+Corr=LC-wPBE ExCW=0 ScaHFX=  1.000000
 ScaDFX=  1.000000  0.000000  1.000000  1.000000 ScalE2=  1.000000  1.000000
 IRadAn=      5 IRanWt=     -1 IRanGd=            0 ICorTp=0
  HFx wShort=  0.000000 wLong=  0.400000 cFull=  0.000000 cShort=  0.000000 cLong=  1.000000
  DFx wShort=  0.000000 wLong=  0.400000 cFull=  0.000000 cShort=  0.000000 cLong=  1.000000
 NAtoms=    5 NActive=    5 NUniq=    5 SFac= 1.00D+00 NAtFMM=   60 NAOKFM=F Big=F
 No density basis found on file   718.
 Leave Link  301 at Tue May 12 23:19:54 2020, MaxMem= 1073741824 cpu:       0.2
 (Enter /home/matheus/.gaussian/g09/l302.exe)
 NPDir=0 NMtPBC=     1 NCelOv=     1 NCel=       1 NClECP=     1 NCelD=      1
         NCelK=      1 NCelE2=     1 NClLst=     1 CellRange=     0.0.
 One-electron integrals computed using PRISM.
 NBasis=   197 RedAO= T  NBF=   197
 NBsUse=   197 1.00D-06 NBFU=   197
 Precomputing XC quadrature grid using
 IXCGrd= 2 IRadAn=           5 IRanWt=          -1 IRanGd=           0 AccXCQ= 0.00D+00.
 NRdTot=     427 NPtTot=      123512 NUsed=      126579 NTot=      126611
 NSgBfM=   229   229   229   229   229 NAtAll=     5     5.
 Leave Link  302 at Tue May 12 23:19:54 2020, MaxMem= 1073741824 cpu:       1.0
 (Enter /home/matheus/.gaussian/g09/l303.exe)
 DipDrv:  MaxL=1.
 Leave Link  303 at Tue May 12 23:19:54 2020, MaxMem= 1073741824 cpu:       0.2
 (Enter /home/matheus/.gaussian/g09/l401.exe)
 Harris functional with IExCor=32609 diagonalized for initial guess.
 ExpMin= 2.53D-02 ExpMax= 1.17D+07 ExpMxC= 1.33D+04 IAcc=3 IRadAn=         5 AccDes= 0.00D+00
 HarFok:  IExCor=32609 AccDes= 0.00D+00 IRadAn=         5 IDoV= 1
 ScaDFX=  1.000000  1.000000  1.000000  1.000000
 FoFCou: FMM=F IPFlag=           0 FMFlag=      100000 FMFlg1=           0
         NFxFlg=           0 DoJE=T BraDBF=F KetDBF=T FulRan=T
         Omega=  0.000000  0.000000  1.000000  0.000000  0.000000 ICntrl=     500 IOpCl=  0
         NMat0=    1 NMatS0=    1 NMatT0=    0 NMatD0=    1 NMtDS0=    0 NMtDT0=    0
         I1Cent=           4 NGrid=           0.
 Petite list used in FoFCou.
 Harris En= -2753.24671075492    
 Initial guess orbital symmetries:
       Occupied  (A) (A) (A) (A) (A) (A) (A) (A) (A) (A) (A) (A)
                 (A) (A) (A) (A) (A) (A)
       Virtual   (A) (A) (A) (A) (A) (A) (A) (A) (A) (A) (A) (A)
                 (A) (A) (A) (A) (A) (A) (A) (A) (A) (A) (A) (A)
                 (A) (A) (A) (A) (A) (A) (A) (A) (A) (A) (A) (A)
                 (A) (A) (A) (A) (A) (A) (A) (A) (A) (A) (A) (A)
                 (A) (A) (A) (A) (A) (A) (A) (A) (A) (A) (A) (A)
                 (A) (A) (A) (A) (A) (A) (A) (A) (A) (A) (A) (A)
                 (A) (A) (A) (A) (A) (A) (A) (A) (A) (A) (A) (A)
                 (A) (A) (A) (A) (A) (A) (A) (A) (A) (A) (A) (A)
                 (A) (A) (A) (A) (A) (A) (A) (A) (A) (A) (A) (A)
                 (A) (A) (A) (A) (A) (A) (A) (A) (A) (A) (A) (A)
                 (A) (A) (A) (A) (A) (A) (A) (A) (A) (A) (A) (A)
                 (A) (A) (A) (A) (A) (A) (A) (A) (A) (A) (A) (A)
                 (A) (A) (A) (A) (A) (A) (A) (A) (A) (A) (A) (A)
                 (A) (A) (A) (A) (A) (A) (A) (A) (A) (A) (A) (A)
                 (A) (A) (A) (A) (A) (A) (A) (A) (A) (A) (A)
 The electronic state of the initial guess is 1-A.
 Leave Link  401 at Tue May 12 23:19:55 2020, MaxMem= 1073741824 cpu:       4.1
 (Enter /home/matheus/.gaussian/g09/l502.exe)
 Closed shell SCF:
 Requested convergence on RMS density matrix=1.00D-08 within 128 cycles.
 Requested convergence on MAX density matrix=1.00D-06.
 Requested convergence on             energy=1.00D-06.
 No special actions if energy rises.
 Using DIIS extrapolation, IDIIS=  1040.
 Integral symmetry usage will be decided dynamically.
       126521 words used for storage of precomputed grid.
 IEnd=      305468 IEndB=      305468 NGot=  1073741824 MDV=  1073505667
 LenX=  1073505667 LenY=  1073452785
 Fock matrices will be formed incrementally for  20 cycles.

 Cycle   1  Pass 1  IDiag  1:
 FoFJK:  IHMeth= 1 ICntrl=     0 DoSepK=T KAlg= 1 I1Cent= 0 FoldK=F
 FoFCou: FMM=F IPFlag=           0 FMFlag=      100000 FMFlg1=           0
         NFxFlg=           0 DoJE=T BraDBF=F KetDBF=F FulRan=T
         Omega=  0.000000  0.000000  1.000000  0.000000  0.000000 ICntrl=     500 IOpCl=  0
         NMat0=    1 NMatS0=    1 NMatT0=    0 NMatD0=    1 NMtDS0=    0 NMtDT0=    0
         I1Cent=           0 NGrid=           0.
 Symmetry not used in FoFCou.
 E= -2753.38954781214    
 DIIS: error= 3.37D-02 at cycle   1 NSaved=   1.
 NSaved= 1 IEnMin= 1 EnMin= -2753.38954781214     IErMin= 1 ErrMin= 3.37D-02
 ErrMax= 3.37D-02 EMaxC= 1.00D-01 BMatC= 2.25D-01 BMatP= 2.25D-01
 IDIUse=3 WtCom= 6.63D-01 WtEn= 3.37D-01
 Coeff-Com:  0.100D+01
 Coeff-En:   0.100D+01
 Coeff:      0.100D+01
 Gap=     0.608 Goal=   None    Shift=    0.000
 GapD=    0.608 DampG=2.000 DampE=0.500 DampFc=1.0000 IDamp=-1.
 RMSDP=2.22D-03 MaxDP=1.52D-01              OVMax= 5.10D-02

 Cycle   2  Pass 1  IDiag  1:
 RMSU=  1.54D-03    CP:  1.02D+00
 FoFJK:  IHMeth= 1 ICntrl=     0 DoSepK=T KAlg= 1 I1Cent= 0 FoldK=F
 E= -2753.42028475073     Delta-E=       -0.030736938584 Rises=F Damp=F
 DIIS: error= 1.24D-02 at cycle   2 NSaved=   2.
 NSaved= 2 IEnMin= 2 EnMin= -2753.42028475073     IErMin= 2 ErrMin= 1.24D-02
 ErrMax= 1.24D-02 EMaxC= 1.00D-01 BMatC= 5.59D-02 BMatP= 2.25D-01
 IDIUse=3 WtCom= 8.76D-01 WtEn= 1.24D-01
 Coeff-Com:  0.328D+00 0.672D+00
 Coeff-En:   0.132D+00 0.868D+00
 Coeff:      0.304D+00 0.696D+00
 Gap=     0.525 Goal=   None    Shift=    0.000
 RMSDP=8.38D-04 MaxDP=5.32D-02 DE=-3.07D-02 OVMax= 2.10D-02

 Cycle   3  Pass 1  IDiag  1:
 RMSU=  1.64D-04    CP:  1.01D+00  6.40D-01
 FoFJK:  IHMeth= 1 ICntrl=     0 DoSepK=T KAlg= 1 I1Cent= 0 FoldK=F
 E= -2753.43559696395     Delta-E=       -0.015312213220 Rises=F Damp=F
 DIIS: error= 1.23D-03 at cycle   3 NSaved=   3.
 NSaved= 3 IEnMin= 3 EnMin= -2753.43559696395     IErMin= 3 ErrMin= 1.23D-03
 ErrMax= 1.23D-03 EMaxC= 1.00D-01 BMatC= 6.42D-04 BMatP= 5.59D-02
 IDIUse=3 WtCom= 9.88D-01 WtEn= 1.23D-02
 Coeff-Com: -0.182D-03 0.960D-01 0.904D+00
 Coeff-En:   0.000D+00 0.000D+00 0.100D+01
 Coeff:     -0.180D-03 0.948D-01 0.905D+00
 Gap=     0.533 Goal=   None    Shift=    0.000
 RMSDP=7.99D-05 MaxDP=4.66D-03 DE=-1.53D-02 OVMax= 2.73D-03

 Cycle   4  Pass 1  IDiag  1:
 RMSU=  1.83D-05    CP:  1.01D+00  6.73D-01  9.87D-01
 FoFJK:  IHMeth= 1 ICntrl=     0 DoSepK=T KAlg= 1 I1Cent= 0 FoldK=F
 E= -2753.43578898943     Delta-E=       -0.000192025483 Rises=F Damp=F
 DIIS: error= 3.71D-05 at cycle   4 NSaved=   4.
 NSaved= 4 IEnMin= 4 EnMin= -2753.43578898943     IErMin= 4 ErrMin= 3.71D-05
 ErrMax= 3.71D-05 EMaxC= 1.00D-01 BMatC= 4.50D-07 BMatP= 6.42D-04
 IDIUse=1 WtCom= 1.00D+00 WtEn= 0.00D+00
 Coeff-Com: -0.125D-02-0.164D-01-0.112D+00 0.113D+01
 Coeff:     -0.125D-02-0.164D-01-0.112D+00 0.113D+01
 Gap=     0.532 Goal=   None    Shift=    0.000
 RMSDP=6.39D-06 MaxDP=2.50D-04 DE=-1.92D-04 OVMax= 3.92D-04

 Cycle   5  Pass 1  IDiag  1:
 RMSU=  2.29D-06    CP:  1.01D+00  6.73D-01  1.01D+00  1.13D+00
 FoFJK:  IHMeth= 1 ICntrl=     0 DoSepK=T KAlg= 1 I1Cent= 0 FoldK=F
 E= -2753.43578951046     Delta-E=       -0.000000521036 Rises=F Damp=F
 DIIS: error= 6.85D-06 at cycle   5 NSaved=   5.
 NSaved= 5 IEnMin= 5 EnMin= -2753.43578951046     IErMin= 5 ErrMin= 6.85D-06
 ErrMax= 6.85D-06 EMaxC= 1.00D-01 BMatC= 1.19D-08 BMatP= 4.50D-07
 IDIUse=1 WtCom= 1.00D+00 WtEn= 0.00D+00
 Coeff-Com:  0.239D-04-0.243D-02-0.245D-01 0.954D-01 0.931D+00
 Coeff:      0.239D-04-0.243D-02-0.245D-01 0.954D-01 0.931D+00
 Gap=     0.532 Goal=   None    Shift=    0.000
 RMSDP=7.29D-07 MaxDP=3.29D-05 DE=-5.21D-07 OVMax= 3.08D-05

 Cycle   6  Pass 1  IDiag  1:
 RMSU=  2.22D-07    CP:  1.01D+00  6.73D-01  1.01D+00  1.15D+00  1.02D+00
 FoFJK:  IHMeth= 1 ICntrl=     0 DoSepK=T KAlg= 1 I1Cent= 0 FoldK=F
 E= -2753.43578951425     Delta-E=       -0.000000003786 Rises=F Damp=F
 DIIS: error= 4.38D-07 at cycle   6 NSaved=   6.
 NSaved= 6 IEnMin= 6 EnMin= -2753.43578951425     IErMin= 6 ErrMin= 4.38D-07
 ErrMax= 4.38D-07 EMaxC= 1.00D-01 BMatC= 4.68D-11 BMatP= 1.19D-08
 IDIUse=1 WtCom= 1.00D+00 WtEn= 0.00D+00
 Coeff-Com:  0.344D-05 0.137D-03 0.140D-02-0.108D-01-0.706D-01 0.108D+01
 Coeff:      0.344D-05 0.137D-03 0.140D-02-0.108D-01-0.706D-01 0.108D+01
 Gap=     0.532 Goal=   None    Shift=    0.000
 RMSDP=9.83D-08 MaxDP=3.46D-06 DE=-3.79D-09 OVMax= 4.57D-06

 Cycle   7  Pass 1  IDiag  1:
 RMSU=  1.86D-08    CP:  1.01D+00  6.73D-01  1.01D+00  1.15D+00  1.04D+00
                    CP:  1.21D+00
 FoFJK:  IHMeth= 1 ICntrl=     0 DoSepK=T KAlg= 1 I1Cent= 0 FoldK=F
 E= -2753.43578951436     Delta-E=       -0.000000000113 Rises=F Damp=F
 DIIS: error= 9.20D-08 at cycle   7 NSaved=   7.
 NSaved= 7 IEnMin= 7 EnMin= -2753.43578951436     IErMin= 7 ErrMin= 9.20D-08
 ErrMax= 9.20D-08 EMaxC= 1.00D-01 BMatC= 2.56D-12 BMatP= 4.68D-11
 IDIUse=1 WtCom= 1.00D+00 WtEn= 0.00D+00
 Coeff-Com: -0.266D-07 0.411D-04 0.437D-03-0.252D-02-0.235D-01 0.210D+00
 Coeff-Com:  0.816D+00
 Coeff:     -0.266D-07 0.411D-04 0.437D-03-0.252D-02-0.235D-01 0.210D+00
 Coeff:      0.816D+00
 Gap=     0.532 Goal=   None    Shift=    0.000
 RMSDP=1.14D-08 MaxDP=3.93D-07 DE=-1.13D-10 OVMax= 6.98D-07

 Cycle   8  Pass 1  IDiag  1:
 RMSU=  4.68D-09    CP:  1.01D+00  6.73D-01  1.01D+00  1.15D+00  1.04D+00
                    CP:  1.24D+00  1.03D+00
 FoFJK:  IHMeth= 1 ICntrl=     0 DoSepK=T KAlg= 1 I1Cent= 0 FoldK=F
 E= -2753.43578951435     Delta-E=        0.000000000013 Rises=F Damp=F
 DIIS: error= 2.54D-08 at cycle   8 NSaved=   8.
 NSaved= 8 IEnMin= 7 EnMin= -2753.43578951436     IErMin= 8 ErrMin= 2.54D-08
 ErrMax= 2.54D-08 EMaxC= 1.00D-01 BMatC= 1.19D-13 BMatP= 2.56D-12
 IDIUse=1 WtCom= 1.00D+00 WtEn= 0.00D+00
 Coeff-Com: -0.297D-06-0.123D-04-0.126D-03 0.976D-03 0.506D-02-0.834D-01
 Coeff-Com: -0.349D-01 0.111D+01
 Coeff:     -0.297D-06-0.123D-04-0.126D-03 0.976D-03 0.506D-02-0.834D-01
 Coeff:     -0.349D-01 0.111D+01
 Gap=     0.532 Goal=   None    Shift=    0.000
 RMSDP=4.55D-09 MaxDP=1.88D-07 DE= 1.27D-11 OVMax= 2.74D-07

 SCF Done:  E(RLC-wPBE) =  -2753.43578951     A.U. after    8 cycles
             Convg  =    0.4546D-08             -V/T =  2.0014
 KE= 2.749474734309D+03 PE=-6.578881664204D+03 EE= 1.075971140380D+03
 Leave Link  502 at Tue May 12 23:20:19 2020, MaxMem= 1073741824 cpu:     193.4
 (Enter /home/matheus/.gaussian/g09/l601.exe)
 Copying SCF densities to generalized density rwf, IOpCl= 0 IROHF=0.

 **********************************************************************

            Population analysis using the SCF density.

 **********************************************************************

 Orbital symmetries:
       Occupied  (A) (A) (A) (A) (A) (A) (A) (A) (A) (A) (A) (A)
                 (A) (A) (A) (A) (A) (A)
       Virtual   (A) (A) (A) (A) (A) (A) (A) (A) (A) (A) (A) (A)
                 (A) (A) (A) (A) (A) (A) (A) (A) (A) (A) (A) (A)
                 (A) (A) (A) (A) (A) (A) (A) (A) (A) (A) (A) (A)
                 (A) (A) (A) (A) (A) (A) (A) (A) (A) (A) (A) (A)
                 (A) (A) (A) (A) (A) (A) (A) (A) (A) (A) (A) (A)
                 (A) (A) (A) (A) (A) (A) (A) (A) (A) (A) (A) (A)
                 (A) (A) (A) (A) (A) (A) (A) (A) (A) (A) (A) (A)
                 (A) (A) (A) (A) (A) (A) (A) (A) (A) (A) (A) (A)
                 (A) (A) (A) (A) (A) (A) (A) (A) (A) (A) (A) (A)
                 (A) (A) (A) (A) (A) (A) (A) (A) (A) (A) (A) (A)
                 (A) (A) (A) (A) (A) (A) (A) (A) (A) (A) (A) (A)
                 (A) (A) (A) (A) (A) (A) (A) (A) (A) (A) (A) (A)
                 (A) (A) (A) (A) (A) (A) (A) (A) (A) (A) (A) (A)
                 (A) (A) (A) (A) (A) (A) (A) (A) (A) (A) (A) (A)
                 (A) (A) (A) (A) (A) (A) (A) (A) (A) (A) (A)
 The electronic state is 1-A.
 Alpha  occ. eigenvalues -- -511.10655 -66.65317 -60.31533 -60.31530 -60.31529
 Alpha  occ. eigenvalues --   -9.58573  -7.32998  -7.32995  -7.32995  -3.28541
 Alpha  occ. eigenvalues --   -3.28541  -3.28540  -3.28539  -3.28539  -1.03231
 Alpha  occ. eigenvalues --   -0.50219  -0.50217  -0.50215
 Alpha virt. eigenvalues --    0.03012   0.04890   0.08428   0.09716   0.12001
 Alpha virt. eigenvalues --    0.13138   0.13662   0.14285   0.15625   0.17225
 Alpha virt. eigenvalues --    0.17648   0.18009   0.21188   0.26450   0.27060
 Alpha virt. eigenvalues --    0.27350   0.29652   0.31717   0.33341   0.37649
 Alpha virt. eigenvalues --    0.38397   0.39561   0.39758   0.40707   0.41837
 Alpha virt. eigenvalues --    0.42501   0.46276   0.54426   0.55822   0.58873
 Alpha virt. eigenvalues --    0.62096   0.63378   0.69647   0.70619   0.71519
 Alpha virt. eigenvalues --    0.73292   0.74330   0.75869   0.76050   0.77813
 Alpha virt. eigenvalues --    0.78081   0.83475   0.84862   0.86840   0.88514
 Alpha virt. eigenvalues --    0.89389   0.90112   0.90372   0.96029   0.98236
 Alpha virt. eigenvalues --    0.98747   0.99657   1.00332   1.01276   1.04360
 Alpha virt. eigenvalues --    1.04677   1.09478   1.11872   1.14497   1.15987
 Alpha virt. eigenvalues --    1.17317   1.24734   1.29496   1.32949   1.40363
 Alpha virt. eigenvalues --    1.41281   1.43935   1.45032   1.49511   1.52517
 Alpha virt. eigenvalues --    1.56471   1.61259   1.66511   1.72326   1.75524
 Alpha virt. eigenvalues --    1.79635   1.84626   1.88078   1.95335   2.15437
 Alpha virt. eigenvalues --    2.22824   2.23444   2.27061   2.28050   2.33458
 Alpha virt. eigenvalues --    2.33649   2.34668   2.36966   2.39025   2.40640
 Alpha virt. eigenvalues --    2.46965   2.48396   2.50439   2.51971   2.52106
 Alpha virt. eigenvalues --    2.53849   2.54912   2.60974   2.61259   2.61455
 Alpha virt. eigenvalues --    2.63490   2.64636   2.66040   2.69686   2.73371
 Alpha virt. eigenvalues --    2.76237   2.77398   2.83678   2.89658   2.90690
 Alpha virt. eigenvalues --    2.96578   2.99794   3.08530   3.15371   3.16878
 Alpha virt. eigenvalues --    3.27540   3.28274   3.28812   3.40079   3.55054
 Alpha virt. eigenvalues --    3.63144   3.66096   3.88307   3.88391   4.02498
 Alpha virt. eigenvalues --    4.42344   4.44981   4.52366   4.61348   4.68494
 Alpha virt. eigenvalues --    4.73015   4.83618   4.88060   4.96215   5.04924
 Alpha virt. eigenvalues --    5.12397   5.31525   5.52452   5.67552   5.70200
 Alpha virt. eigenvalues --    5.93153   6.03535   6.28163   6.71336   6.95758
 Alpha virt. eigenvalues --    7.27058   7.37987   7.65280   7.66976   7.80033
 Alpha virt. eigenvalues --    7.87941   8.03268   8.12359   8.14516   8.28640
 Alpha virt. eigenvalues --    8.30829   8.37867   8.71584   9.02269   9.50528
 Alpha virt. eigenvalues --    9.74426   9.77970   9.88747   9.91135   9.94742
 Alpha virt. eigenvalues --   10.21153  10.22617  10.73408  10.87493  11.44954
 Alpha virt. eigenvalues --   11.63383  11.67959  11.93167  12.06852  13.29910
 Alpha virt. eigenvalues --   13.59985  14.56014  62.37925  64.82518
          Condensed to atoms (all electrons):
              1          2          3          4          5
     1  O    0.001640  -0.000179  -0.001477   0.000247  -0.004247
     2  O   -0.000179   0.001853   0.000162  -0.001705  -0.003148
     3  H   -0.001477   0.000162   0.002369   0.000359  -0.023132
     4  H    0.000247  -0.001705   0.000359   0.002636  -0.024539
     5  Kr  -0.004247  -0.003148  -0.023132  -0.024539  36.106822
 Mulliken atomic charges:
              1
     1  O    0.004017
     2  O    0.003018
     3  H    0.021719
     4  H    0.023002
     5  Kr  -0.051756
 Sum of Mulliken atomic charges =   0.00000
 Mulliken charges with hydrogens summed into heavy atoms:
              1
     1  O    0.025736
     2  O    0.026020
     5  Kr  -0.051756
 Sum of Mulliken charges with hydrogens summed into heavy atoms =   0.00000
          Condensed to fragments (all electrons):
     1       0.051756
     2      -0.051756
 Electronic spatial extent (au):  <R**2>=            159.3269
 Charge=              0.0000 electrons
 Dipole moment (field-independent basis, Debye):
    X=             -0.0013    Y=              0.0000    Z=              0.0000  Tot=              0.0013
 Quadrupole moment (field-independent basis, Debye-Ang):
   XX=            -17.6145   YY=            -17.6209   ZZ=            -17.6288
   XY=             -0.0001   XZ=             -0.0009   YZ=             -0.0005
 Traceless Quadrupole moment (field-independent basis, Debye-Ang):
   XX=              0.0069   YY=              0.0005   ZZ=             -0.0074
   XY=             -0.0001   XZ=             -0.0009   YZ=             -0.0005
 Octapole moment (field-independent basis, Debye-Ang**2):
  XXX=            -51.0572  YYY=              0.0068  ZZZ=              0.0656  XYY=            -17.0296
  XXY=              0.0021  XXZ=              0.0206  XZZ=            -17.0337  YZZ=              0.0024
  YYZ=              0.0217  XYZ=             -0.0001
 Hexadecapole moment (field-independent basis, Debye-Ang**3):
 XXXX=           -117.0249 YYYY=            -18.3769 ZZZZ=            -18.3996 XXXY=              0.0064
 XXXZ=              0.0611 YYYX=              0.0064 YYYZ=              0.0000 ZZZX=              0.0608
 ZZZY=             -0.0013 XXYY=            -22.5747 XXZZ=            -22.5799 YYZZ=             -6.1268
 XXYZ=             -0.0001 YYXZ=              0.0206 ZZXY=              0.0020
 N-N= 0.000000000000D+00 E-N=-6.578881666350D+03  KE= 2.749474734309D+03
 No NMR shielding tensors so no spin-rotation constants.
 Leave Link  601 at Tue May 12 23:20:19 2020, MaxMem= 1073741824 cpu:       0.9
 (Enter /home/matheus/.gaussian/g09/l122.exe)
 Counterpoise: doing MCBS calculation for fragment   1
 Leave Link  122 at Tue May 12 23:20:19 2020, MaxMem= 1073741824 cpu:       0.0
 (Enter /home/matheus/.gaussian/g09/l301.exe)
 Basis read from rwf:  (5D, 7F)
 No pseudopotential information found on rwf file.
 There are   138 symmetry adapted basis functions of A   symmetry.
 Integral buffers will be    131072 words long.
 Raffenetti 2 integral format.
 Two-electron integral symmetry is turned on.
   138 basis functions,   198 primitive gaussians,   160 cartesian basis functions
     9 alpha electrons        9 beta electrons
       nuclear repulsion energy        36.6659649233 Hartrees.
 IExCor=32609 DFT=T Ex+Corr=LC-wPBE ExCW=0 ScaHFX=  1.000000
 ScaDFX=  1.000000  0.000000  1.000000  1.000000 ScalE2=  1.000000  1.000000
 IRadAn=      5 IRanWt=     -1 IRanGd=            0 ICorTp=0
  HFx wShort=  0.000000 wLong=  0.400000 cFull=  0.000000 cShort=  0.000000 cLong=  1.000000
  DFx wShort=  0.000000 wLong=  0.400000 cFull=  0.000000 cShort=  0.000000 cLong=  1.000000
 NAtoms=    5 NActive=    4 NUniq=    4 SFac= 1.00D+00 NAtFMM=   60 NAOKFM=F Big=F
 No density basis found on file   718.
 Leave Link  301 at Tue May 12 23:20:19 2020, MaxMem= 1073741824 cpu:       0.2
 (Enter /home/matheus/.gaussian/g09/l302.exe)
 NPDir=0 NMtPBC=     1 NCelOv=     1 NCel=       1 NClECP=     1 NCelD=      1
         NCelK=      1 NCelE2=     1 NClLst=     1 CellRange=     0.0.
 One-electron integrals computed using PRISM.
 NBasis=   138 RedAO= T  NBF=   138
 NBsUse=   138 1.00D-06 NBFU=   138
 Precomputing XC quadrature grid using
 IXCGrd= 2 IRadAn=           5 IRanWt=          -1 IRanGd=           0 AccXCQ= 0.00D+00.
 NRdTot=     344 NPtTot=       92556 NUsed=       95038 NTot=       95070
 NSgBfM=   160   160   160   160   160 NAtAll=     4     4.
 Leave Link  302 at Tue May 12 23:20:19 2020, MaxMem= 1073741824 cpu:       0.7
 (Enter /home/matheus/.gaussian/g09/l303.exe)
 DipDrv:  MaxL=1.
 Leave Link  303 at Tue May 12 23:20:19 2020, MaxMem= 1073741824 cpu:       0.1
 (Enter /home/matheus/.gaussian/g09/l401.exe)
 Harris functional with IExCor=32609 diagonalized for initial guess.
 ExpMin= 2.53D-02 ExpMax= 1.53D+04 ExpMxC= 5.22D+02 IAcc=3 IRadAn=         5 AccDes= 0.00D+00
 HarFok:  IExCor=32609 AccDes= 0.00D+00 IRadAn=         5 IDoV= 1
 ScaDFX=  1.000000  1.000000  1.000000  1.000000
 FoFCou: FMM=F IPFlag=           0 FMFlag=      100000 FMFlg1=           0
         NFxFlg=           0 DoJE=T BraDBF=F KetDBF=T FulRan=T
         Omega=  0.000000  0.000000  1.000000  0.000000  0.000000 ICntrl=     500 IOpCl=  0
         NMat0=    1 NMatS0=    1 NMatT0=    0 NMatD0=    1 NMtDS0=    0 NMtDT0=    0
         I1Cent=           4 NGrid=           0.
 Petite list used in FoFCou.
 Harris En= -151.498575464273    
 Initial guess orbital symmetries:
       Occupied  (A) (A) (A) (A) (A) (A) (A) (A) (A)
       Virtual   (A) (A) (A) (A) (A) (A) (A) (A) (A) (A) (A) (A)
                 (A) (A) (A) (A) (A) (A) (A) (A) (A) (A) (A) (A)
                 (A) (A) (A) (A) (A) (A) (A) (A) (A) (A) (A) (A)
                 (A) (A) (A) (A) (A) (A) (A) (A) (A) (A) (A) (A)
                 (A) (A) (A) (A) (A) (A) (A) (A) (A) (A) (A) (A)
                 (A) (A) (A) (A) (A) (A) (A) (A) (A) (A) (A) (A)
                 (A) (A) (A) (A) (A) (A) (A) (A) (A) (A) (A) (A)
                 (A) (A) (A) (A) (A) (A) (A) (A) (A) (A) (A) (A)
                 (A) (A) (A) (A) (A) (A) (A) (A) (A) (A) (A) (A)
                 (A) (A) (A) (A) (A) (A) (A) (A) (A) (A) (A) (A)
                 (A) (A) (A) (A) (A) (A) (A) (A) (A)
 The electronic state of the initial guess is 1-A.
 Leave Link  401 at Tue May 12 23:20:20 2020, MaxMem= 1073741824 cpu:       2.2
 (Enter /home/matheus/.gaussian/g09/l502.exe)
 Closed shell SCF:
 Requested convergence on RMS density matrix=1.00D-08 within 128 cycles.
 Requested convergence on MAX density matrix=1.00D-06.
 Requested convergence on             energy=1.00D-06.
 No special actions if energy rises.
 Using DIIS extrapolation, IDIIS=  1040.
 Integral symmetry usage will be decided dynamically.
        94980 words used for storage of precomputed grid.
 IEnd=      192360 IEndB=      192360 NGot=  1073741824 MDV=  1073591865
 LenX=  1073591865 LenY=  1073565824
 Fock matrices will be formed incrementally for  20 cycles.

 Cycle   1  Pass 1  IDiag  1:
 FoFJK:  IHMeth= 1 ICntrl=     0 DoSepK=T KAlg= 1 I1Cent= 0 FoldK=F
 FoFCou: FMM=F IPFlag=           0 FMFlag=      100000 FMFlg1=           0
         NFxFlg=           0 DoJE=T BraDBF=F KetDBF=F FulRan=T
         Omega=  0.000000  0.000000  1.000000  0.000000  0.000000 ICntrl=     500 IOpCl=  0
         NMat0=    1 NMatS0=    1 NMatT0=    0 NMatD0=    1 NMtDS0=    0 NMtDT0=    0
         I1Cent=           0 NGrid=           0.
 Symmetry not used in FoFCou.
 E= -151.486819175115    
 DIIS: error= 2.18D-02 at cycle   1 NSaved=   1.
 NSaved= 1 IEnMin= 1 EnMin= -151.486819175115     IErMin= 1 ErrMin= 2.18D-02
 ErrMax= 2.18D-02 EMaxC= 1.00D-01 BMatC= 4.25D-02 BMatP= 4.25D-02
 IDIUse=3 WtCom= 7.82D-01 WtEn= 2.18D-01
 Coeff-Com:  0.100D+01
 Coeff-En:   0.100D+01
 Coeff:      0.100D+01
 Gap=     0.479 Goal=   None    Shift=    0.000
 GapD=    0.479 DampG=2.000 DampE=0.500 DampFc=1.0000 IDamp=-1.
 RMSDP=1.33D-03 MaxDP=2.35D-02              OVMax= 6.69D-02

 Cycle   2  Pass 1  IDiag  1:
 RMSU=  9.42D-04    CP:  9.96D-01
 FoFJK:  IHMeth= 1 ICntrl=     0 DoSepK=T KAlg= 1 I1Cent= 0 FoldK=F
 E= -151.501521379754     Delta-E=       -0.014702204638 Rises=F Damp=F
 DIIS: error= 1.56D-02 at cycle   2 NSaved=   2.
 NSaved= 2 IEnMin= 2 EnMin= -151.501521379754     IErMin= 2 ErrMin= 1.56D-02
 ErrMax= 1.56D-02 EMaxC= 1.00D-01 BMatC= 2.55D-02 BMatP= 4.25D-02
 IDIUse=3 WtCom= 8.44D-01 WtEn= 1.56D-01
 Coeff-Com:  0.430D+00 0.570D+00
 Coeff-En:   0.279D+00 0.721D+00
 Coeff:      0.406D+00 0.594D+00
 Gap=     0.416 Goal=   None    Shift=    0.000
 RMSDP=7.45D-04 MaxDP=2.35D-02 DE=-1.47D-02 OVMax= 3.10D-02

 Cycle   3  Pass 1  IDiag  1:
 RMSU=  3.16D-04    CP:  9.91D-01  5.55D-01
 FoFJK:  IHMeth= 1 ICntrl=     0 DoSepK=T KAlg= 1 I1Cent= 0 FoldK=F
 E= -151.516587771037     Delta-E=       -0.015066391283 Rises=F Damp=F
 DIIS: error= 2.49D-03 at cycle   3 NSaved=   3.
 NSaved= 3 IEnMin= 3 EnMin= -151.516587771037     IErMin= 3 ErrMin= 2.49D-03
 ErrMax= 2.49D-03 EMaxC= 1.00D-01 BMatC= 5.14D-04 BMatP= 2.55D-02
 IDIUse=3 WtCom= 9.75D-01 WtEn= 2.49D-02
 Coeff-Com:  0.673D-01 0.158D+00 0.775D+00
 Coeff-En:   0.000D+00 0.000D+00 0.100D+01
 Coeff:      0.656D-01 0.154D+00 0.780D+00
 Gap=     0.409 Goal=   None    Shift=    0.000
 RMSDP=8.91D-05 MaxDP=1.28D-03 DE=-1.51D-02 OVMax= 4.31D-03

 Cycle   4  Pass 1  IDiag  1:
 RMSU=  4.10D-05    CP:  9.90D-01  6.05D-01  9.96D-01
 FoFJK:  IHMeth= 1 ICntrl=     0 DoSepK=T KAlg= 1 I1Cent= 0 FoldK=F
 E= -151.516900565437     Delta-E=       -0.000312794400 Rises=F Damp=F
 DIIS: error= 4.29D-04 at cycle   4 NSaved=   4.
 NSaved= 4 IEnMin= 4 EnMin= -151.516900565437     IErMin= 4 ErrMin= 4.29D-04
 ErrMax= 4.29D-04 EMaxC= 1.00D-01 BMatC= 1.53D-05 BMatP= 5.14D-04
 IDIUse=3 WtCom= 9.96D-01 WtEn= 4.29D-03
 Coeff-Com: -0.577D-02-0.870D-02 0.114D+00 0.901D+00
 Coeff-En:   0.000D+00 0.000D+00 0.000D+00 0.100D+01
 Coeff:     -0.574D-02-0.866D-02 0.113D+00 0.901D+00
 Gap=     0.412 Goal=   None    Shift=    0.000
 RMSDP=1.64D-05 MaxDP=5.82D-04 DE=-3.13D-04 OVMax= 8.00D-04

 Cycle   5  Pass 1  IDiag  1:
 RMSU=  7.70D-06    CP:  9.90D-01  6.01D-01  1.02D+00  9.86D-01
 FoFJK:  IHMeth= 1 ICntrl=     0 DoSepK=T KAlg= 1 I1Cent= 0 FoldK=F
 E= -151.516910770946     Delta-E=       -0.000010205510 Rises=F Damp=F
 DIIS: error= 5.50D-05 at cycle   5 NSaved=   5.
 NSaved= 5 IEnMin= 5 EnMin= -151.516910770946     IErMin= 5 ErrMin= 5.50D-05
 ErrMax= 5.50D-05 EMaxC= 1.00D-01 BMatC= 1.02D-07 BMatP= 1.53D-05
 IDIUse=1 WtCom= 1.00D+00 WtEn= 0.00D+00
 Coeff-Com: -0.672D-03-0.195D-02-0.267D-01-0.848D-01 0.111D+01
 Coeff:     -0.672D-03-0.195D-02-0.267D-01-0.848D-01 0.111D+01
 Gap=     0.412 Goal=   None    Shift=    0.000
 RMSDP=3.42D-06 MaxDP=6.75D-05 DE=-1.02D-05 OVMax= 2.22D-04

 Cycle   6  Pass 1  IDiag  1:
 RMSU=  1.06D-06    CP:  9.90D-01  6.02D-01  1.02D+00  1.00D+00  1.24D+00
 FoFJK:  IHMeth= 1 ICntrl=     0 DoSepK=T KAlg= 1 I1Cent= 0 FoldK=F
 E= -151.516910963938     Delta-E=       -0.000000192992 Rises=F Damp=F
 DIIS: error= 9.54D-06 at cycle   6 NSaved=   6.
 NSaved= 6 IEnMin= 6 EnMin= -151.516910963938     IErMin= 6 ErrMin= 9.54D-06
 ErrMax= 9.54D-06 EMaxC= 1.00D-01 BMatC= 2.47D-09 BMatP= 1.02D-07
 IDIUse=1 WtCom= 1.00D+00 WtEn= 0.00D+00
 Coeff-Com:  0.112D-03 0.249D-03 0.199D-03-0.649D-02-0.635D-01 0.107D+01
 Coeff:      0.112D-03 0.249D-03 0.199D-03-0.649D-02-0.635D-01 0.107D+01
 Gap=     0.412 Goal=   None    Shift=    0.000
 RMSDP=4.98D-07 MaxDP=1.37D-05 DE=-1.93D-07 OVMax= 3.67D-05

 Cycle   7  Pass 1  IDiag  1:
 RMSU=  1.89D-07    CP:  9.90D-01  6.02D-01  1.02D+00  1.00D+00  1.26D+00
                    CP:  1.19D+00
 FoFJK:  IHMeth= 1 ICntrl=     0 DoSepK=T KAlg= 1 I1Cent= 0 FoldK=F
 E= -151.516910967946     Delta-E=       -0.000000004009 Rises=F Damp=F
 DIIS: error= 2.43D-06 at cycle   7 NSaved=   7.
 NSaved= 7 IEnMin= 7 EnMin= -151.516910967946     IErMin= 7 ErrMin= 2.43D-06
 ErrMax= 2.43D-06 EMaxC= 1.00D-01 BMatC= 1.98D-10 BMatP= 2.47D-09
 IDIUse=1 WtCom= 1.00D+00 WtEn= 0.00D+00
 Coeff-Com:  0.323D-04 0.870D-04 0.969D-03 0.290D-02-0.565D-01 0.993D-01
 Coeff-Com:  0.953D+00
 Coeff:      0.323D-04 0.870D-04 0.969D-03 0.290D-02-0.565D-01 0.993D-01
 Coeff:      0.953D+00
 Gap=     0.412 Goal=   None    Shift=    0.000
 RMSDP=1.11D-07 MaxDP=1.93D-06 DE=-4.01D-09 OVMax= 8.61D-06

 Cycle   8  Pass 1  IDiag  1:
 RMSU=  4.78D-08    CP:  9.90D-01  6.02D-01  1.02D+00  1.00D+00  1.26D+00
                    CP:  1.24D+00  1.15D+00
 FoFJK:  IHMeth= 1 ICntrl=     0 DoSepK=T KAlg= 1 I1Cent= 0 FoldK=F
 E= -151.516910968342     Delta-E=       -0.000000000395 Rises=F Damp=F
 DIIS: error= 4.86D-07 at cycle   8 NSaved=   8.
 NSaved= 8 IEnMin= 8 EnMin= -151.516910968342     IErMin= 8 ErrMin= 4.86D-07
 ErrMax= 4.86D-07 EMaxC= 1.00D-01 BMatC= 8.38D-12 BMatP= 1.98D-10
[...]
         I1Cent=           4 NGrid=           0.
 Petite list used in FoFCou.
 Harris En= -2753.24587748904    
 Leave Link  401 at Tue May 12 23:40:34 2020, MaxMem= 1073741824 cpu:       3.6
 (Enter /home/matheus/.gaussian/g09/l502.exe)
 Closed shell SCF:
 Requested convergence on RMS density matrix=1.00D-08 within 128 cycles.
 Requested convergence on MAX density matrix=1.00D-06.
 Requested convergence on             energy=1.00D-06.
 No special actions if energy rises.
 Using DIIS extrapolation, IDIIS=  1040.
 Integral symmetry usage will be decided dynamically.
       126823 words used for storage of precomputed grid.
 IEnd=      305770 IEndB=      305770 NGot=  1073741824 MDV=  1073505365
 LenX=  1073505365 LenY=  1073452483
 Fock matrices will be formed incrementally for  20 cycles.

 Cycle   1  Pass 1  IDiag  1:
 FoFJK:  IHMeth= 1 ICntrl=     0 DoSepK=T KAlg= 1 I1Cent= 0 FoldK=F
 FoFCou: FMM=F IPFlag=           0 FMFlag=      100000 FMFlg1=           0
         NFxFlg=           0 DoJE=T BraDBF=F KetDBF=F FulRan=T
         Omega=  0.000000  0.000000  1.000000  0.000000  0.000000 ICntrl=     500 IOpCl=  0
         NMat0=    1 NMatS0=    1 NMatT0=    0 NMatD0=    1 NMtDS0=    0 NMtDT0=    0
         I1Cent=           0 NGrid=           0.
 Symmetry not used in FoFCou.
 E= -2753.43565074183    
 DIIS: error= 2.06D-04 at cycle   1 NSaved=   1.
 NSaved= 1 IEnMin= 1 EnMin= -2753.43565074183     IErMin= 1 ErrMin= 2.06D-04
 ErrMax= 2.06D-04 EMaxC= 1.00D-01 BMatC= 5.23D-06 BMatP= 5.23D-06
 IDIUse=3 WtCom= 9.98D-01 WtEn= 2.06D-03
 Coeff-Com:  0.100D+01
 Coeff-En:   0.100D+01
 Coeff:      0.100D+01
 Gap=     0.531 Goal=   None    Shift=    0.000
 RMSDP=1.17D-05 MaxDP=5.44D-04              OVMax= 2.99D-04

 Cycle   2  Pass 1  IDiag  1:
 RMSU=  8.27D-06    CP:  1.00D+00
 FoFJK:  IHMeth= 1 ICntrl=     0 DoSepK=T KAlg= 1 I1Cent= 0 FoldK=F
 E= -2753.43565131119     Delta-E=       -0.000000569360 Rises=F Damp=F
 DIIS: error= 5.86D-06 at cycle   2 NSaved=   2.
 NSaved= 2 IEnMin= 2 EnMin= -2753.43565131119     IErMin= 2 ErrMin= 5.86D-06
 ErrMax= 5.86D-06 EMaxC= 1.00D-01 BMatC= 3.77D-09 BMatP= 5.23D-06
 IDIUse=1 WtCom= 1.00D+00 WtEn= 0.00D+00
 Coeff-Com: -0.801D-02 0.101D+01
 Coeff:     -0.801D-02 0.101D+01
 Gap=     0.531 Goal=   None    Shift=    0.000
 RMSDP=1.07D-06 MaxDP=4.30D-05 DE=-5.69D-07 OVMax= 4.47D-05

 Cycle   3  Pass 1  IDiag  1:
 RMSU=  4.35D-07    CP:  1.00D+00  1.07D+00
 FoFJK:  IHMeth= 1 ICntrl=     0 DoSepK=T KAlg= 1 I1Cent= 0 FoldK=F
 E= -2753.43565131761     Delta-E=       -0.000000006411 Rises=F Damp=F
 DIIS: error= 9.85D-07 at cycle   3 NSaved=   3.
 NSaved= 3 IEnMin= 3 EnMin= -2753.43565131761     IErMin= 3 ErrMin= 9.85D-07
 ErrMax= 9.85D-07 EMaxC= 1.00D-01 BMatC= 9.21D-11 BMatP= 3.77D-09
 IDIUse=1 WtCom= 1.00D+00 WtEn= 0.00D+00
 Coeff-Com:  0.253D-03-0.114D+00 0.111D+01
 Coeff:      0.253D-03-0.114D+00 0.111D+01
 Gap=     0.531 Goal=   None    Shift=    0.000
 RMSDP=1.43D-07 MaxDP=4.65D-06 DE=-6.41D-09 OVMax= 8.96D-06

 Cycle   4  Pass 1  IDiag  1:
 RMSU=  4.81D-08    CP:  1.00D+00  1.08D+00  1.19D+00
 FoFJK:  IHMeth= 1 ICntrl=     0 DoSepK=T KAlg= 1 I1Cent= 0 FoldK=F
 E= -2753.43565131778     Delta-E=       -0.000000000173 Rises=F Damp=F
 DIIS: error= 4.06D-07 at cycle   4 NSaved=   4.
 NSaved= 4 IEnMin= 4 EnMin= -2753.43565131778     IErMin= 4 ErrMin= 4.06D-07
 ErrMax= 4.06D-07 EMaxC= 1.00D-01 BMatC= 7.33D-12 BMatP= 9.21D-11
 IDIUse=1 WtCom= 1.00D+00 WtEn= 0.00D+00
 Coeff-Com:  0.187D-03-0.429D-01 0.256D+00 0.786D+00
 Coeff:      0.187D-03-0.429D-01 0.256D+00 0.786D+00
 Gap=     0.531 Goal=   None    Shift=    0.000
 RMSDP=1.83D-08 MaxDP=6.45D-07 DE=-1.73D-10 OVMax= 1.13D-06

 Cycle   5  Pass 1  IDiag  1:
 RMSU=  8.23D-09    CP:  1.00D+00  1.08D+00  1.21D+00  1.12D+00
 FoFJK:  IHMeth= 1 ICntrl=     0 DoSepK=T KAlg= 1 I1Cent= 0 FoldK=F
 E= -2753.43565131779     Delta-E=       -0.000000000007 Rises=F Damp=F
 DIIS: error= 3.34D-08 at cycle   5 NSaved=   5.
 NSaved= 5 IEnMin= 5 EnMin= -2753.43565131779     IErMin= 5 ErrMin= 3.34D-08
 ErrMax= 3.34D-08 EMaxC= 1.00D-01 BMatC= 1.17D-13 BMatP= 7.33D-12
 IDIUse=1 WtCom= 1.00D+00 WtEn= 0.00D+00
 Coeff-Com: -0.277D-04 0.843D-02-0.674D-01-0.614D-01 0.112D+01
 Coeff:     -0.277D-04 0.843D-02-0.674D-01-0.614D-01 0.112D+01
 Gap=     0.531 Goal=   None    Shift=    0.000
 RMSDP=8.02D-09 MaxDP=3.37D-07 DE=-6.82D-12 OVMax= 3.55D-07

 SCF Done:  E(RLC-wPBE) =  -2753.43565132     A.U. after    5 cycles
             Convg  =    0.8018D-08             -V/T =  2.0014
 KE= 2.749528384399D+03 PE=-6.578941277436D+03 EE= 1.075977241719D+03
 Leave Link  502 at Tue May 12 23:40:45 2020, MaxMem= 1073741824 cpu:      86.6
 (Enter /home/matheus/.gaussian/g09/l122.exe)
 Restoring MOs from calculation   4 to rwf.
 Counterpoise: doing MCBS calculation for fragment   1
 Leave Link  122 at Tue May 12 23:40:45 2020, MaxMem= 1073741824 cpu:       0.0
 (Enter /home/matheus/.gaussian/g09/l301.exe)
 Basis read from rwf:  (5D, 7F)
 No pseudopotential information found on rwf file.
 There are   138 symmetry adapted basis functions of A   symmetry.
 Integral buffers will be    131072 words long.
 Raffenetti 2 integral format.
 Two-electron integral symmetry is turned on.
   138 basis functions,   198 primitive gaussians,   160 cartesian basis functions
     9 alpha electrons        9 beta electrons
       nuclear repulsion energy        36.6659649233 Hartrees.
 IExCor=32609 DFT=T Ex+Corr=LC-wPBE ExCW=0 ScaHFX=  1.000000
 ScaDFX=  1.000000  0.000000  1.000000  1.000000 ScalE2=  1.000000  1.000000
 IRadAn=      5 IRanWt=     -1 IRanGd=            0 ICorTp=0
  HFx wShort=  0.000000 wLong=  0.400000 cFull=  0.000000 cShort=  0.000000 cLong=  1.000000
  DFx wShort=  0.000000 wLong=  0.400000 cFull=  0.000000 cShort=  0.000000 cLong=  1.000000
 NAtoms=    5 NActive=    4 NUniq=    4 SFac= 1.00D+00 NAtFMM=   60 NAOKFM=F Big=F
 No density basis found on file   718.
 Leave Link  301 at Tue May 12 23:40:45 2020, MaxMem= 1073741824 cpu:       0.2
 (Enter /home/matheus/.gaussian/g09/l302.exe)
 NPDir=0 NMtPBC=     1 NCelOv=     1 NCel=       1 NClECP=     1 NCelD=      1
         NCelK=      1 NCelE2=     1 NClLst=     1 CellRange=     0.0.
 One-electron integrals computed using PRISM.
 NBasis=   138 RedAO= T  NBF=   138
 NBsUse=   138 1.00D-06 NBFU=   138
 Precomputing XC quadrature grid using
 IXCGrd= 2 IRadAn=           5 IRanWt=          -1 IRanGd=           0 AccXCQ= 0.00D+00.
 NRdTot=     344 NPtTot=       92556 NUsed=       95038 NTot=       95070
 NSgBfM=   160   160   160   160   160 NAtAll=     4     4.
 Leave Link  302 at Tue May 12 23:40:45 2020, MaxMem= 1073741824 cpu:       0.7
 (Enter /home/matheus/.gaussian/g09/l303.exe)
 DipDrv:  MaxL=1.
 Leave Link  303 at Tue May 12 23:40:45 2020, MaxMem= 1073741824 cpu:       0.1
 (Enter /home/matheus/.gaussian/g09/l401.exe)
 Initial guess read from the read-write file.
 Guess basis will be translated and rotated to current coordinates.
 Initial guess orbital symmetries:
       Occupied  (A) (A) (A) (A) (A) (A) (A) (A) (A)
       Virtual   (A) (A) (A) (A) (A) (A) (A) (A) (A) (A) (A) (A)
                 (A) (A) (A) (A) (A) (A) (A) (A) (A) (A) (A) (A)
                 (A) (A) (A) (A) (A) (A) (A) (A) (A) (A) (A) (A)
                 (A) (A) (A) (A) (A) (A) (A) (A) (A) (A) (A) (A)
                 (A) (A) (A) (A) (A) (A) (A) (A) (A) (A) (A) (A)
                 (A) (A) (A) (A) (A) (A) (A) (A) (A) (A) (A) (A)
                 (A) (A) (A) (A) (A) (A) (A) (A) (A) (A) (A) (A)
                 (A) (A) (A) (A) (A) (A) (A) (A) (A) (A) (A) (A)
                 (A) (A) (A) (A) (A) (A) (A) (A) (A) (A) (A) (A)
                 (A) (A) (A) (A) (A) (A) (A) (A) (A) (A) (A) (A)
                 (A) (A) (A) (A) (A) (A) (A) (A) (A)
 The electronic state of the initial guess is 1-A.
 Generating alternative initial guess.
 Harris functional with IExCor=32609 diagonalized for initial guess.
 ExpMin= 2.53D-02 ExpMax= 1.53D+04 ExpMxC= 5.22D+02 IAcc=3 IRadAn=         5 AccDes= 0.00D+00
 HarFok:  IExCor=32609 AccDes= 0.00D+00 IRadAn=         5 IDoV= 1
 ScaDFX=  1.000000  1.000000  1.000000  1.000000
 FoFCou: FMM=F IPFlag=           0 FMFlag=      100000 FMFlg1=           0
         NFxFlg=           0 DoJE=T BraDBF=F KetDBF=T FulRan=T
         Omega=  0.000000  0.000000  1.000000  0.000000  0.000000 ICntrl=     500 IOpCl=  0
         NMat0=    1 NMatS0=    1 NMatT0=    0 NMatD0=    1 NMtDS0=    0 NMtDT0=    0
         I1Cent=           4 NGrid=           0.
 Petite list used in FoFCou.
 Harris En= -151.498575473348    
 Leave Link  401 at Tue May 12 23:40:45 2020, MaxMem= 1073741824 cpu:       2.3
 (Enter /home/matheus/.gaussian/g09/l502.exe)
 Closed shell SCF:
 Requested convergence on RMS density matrix=1.00D-08 within 128 cycles.
 Requested convergence on MAX density matrix=1.00D-06.
 Requested convergence on             energy=1.00D-06.
 No special actions if energy rises.
 Using DIIS extrapolation, IDIIS=  1040.
 Integral symmetry usage will be decided dynamically.
        94980 words used for storage of precomputed grid.
 IEnd=      192360 IEndB=      192360 NGot=  1073741824 MDV=  1073591865
 LenX=  1073591865 LenY=  1073565824
 Fock matrices will be formed incrementally for  20 cycles.

 Cycle   1  Pass 1  IDiag  1:
 FoFJK:  IHMeth= 1 ICntrl=     0 DoSepK=T KAlg= 1 I1Cent= 0 FoldK=F
 FoFCou: FMM=F IPFlag=           0 FMFlag=      100000 FMFlg1=           0
         NFxFlg=           0 DoJE=T BraDBF=F KetDBF=F FulRan=T
         Omega=  0.000000  0.000000  1.000000  0.000000  0.000000 ICntrl=     500 IOpCl=  0
         NMat0=    1 NMatS0=    1 NMatT0=    0 NMatD0=    1 NMtDS0=    0 NMtDT0=    0
         I1Cent=           0 NGrid=           0.
 Symmetry not used in FoFCou.
 E= -151.516910969835    
 DIIS: error= 9.02D-07 at cycle   1 NSaved=   1.
 NSaved= 1 IEnMin= 1 EnMin= -151.516910969835     IErMin= 1 ErrMin= 9.02D-07
 ErrMax= 9.02D-07 EMaxC= 1.00D-01 BMatC= 9.65D-11 BMatP= 9.65D-11
 IDIUse=1 WtCom= 1.00D+00 WtEn= 0.00D+00
 Coeff-Com:  0.100D+01
 Coeff:      0.100D+01
 Gap=     0.412 Goal=   None    Shift=    0.000
 RMSDP=8.42D-08 MaxDP=2.06D-06              OVMax= 3.26D-06

 Cycle   2  Pass 1  IDiag  1:
 RMSU=  5.95D-08    CP:  1.00D+00
 FoFJK:  IHMeth= 1 ICntrl=     0 DoSepK=T KAlg= 1 I1Cent= 0 FoldK=F
 E= -151.516910969934     Delta-E=       -0.000000000099 Rises=F Damp=F
 DIIS: error= 1.73D-07 at cycle   2 NSaved=   2.
 NSaved= 2 IEnMin= 2 EnMin= -151.516910969934     IErMin= 2 ErrMin= 1.73D-07
 ErrMax= 1.73D-07 EMaxC= 1.00D-01 BMatC= 5.09D-12 BMatP= 9.65D-11
 IDIUse=1 WtCom= 1.00D+00 WtEn= 0.00D+00
 Coeff-Com: -0.949D-01 0.109D+01
 Coeff:     -0.949D-01 0.109D+01
 Gap=     0.412 Goal=   None    Shift=    0.000
 RMSDP=2.08D-08 MaxDP=6.01D-07 DE=-9.89D-11 OVMax= 1.07D-06

 Cycle   3  Pass 1  IDiag  1:
 RMSU=  7.84D-09    CP:  1.00D+00  1.21D+00
 FoFJK:  IHMeth= 1 ICntrl=     0 DoSepK=T KAlg= 1 I1Cent= 0 FoldK=F
 E= -151.516910969938     Delta-E=       -0.000000000004 Rises=F Damp=F
 DIIS: error= 1.64D-07 at cycle   3 NSaved=   3.
 NSaved= 3 IEnMin= 3 EnMin= -151.516910969938     IErMin= 3 ErrMin= 1.64D-07
 ErrMax= 1.64D-07 EMaxC= 1.00D-01 BMatC= 2.49D-12 BMatP= 5.09D-12
 IDIUse=1 WtCom= 1.00D+00 WtEn= 0.00D+00
 Coeff-Com: -0.704D-01 0.458D+00 0.612D+00
 Coeff:     -0.704D-01 0.458D+00 0.612D+00
 Gap=     0.412 Goal=   None    Shift=    0.000
 RMSDP=6.83D-09 MaxDP=1.46D-07 DE=-4.26D-12 OVMax= 4.29D-07

 SCF Done:  E(RLC-wPBE) =  -151.516910970     A.U. after    3 cycles
             Convg  =    0.6828D-08             -V/T =  2.0066
 KE= 1.505302617058D+02 PE=-4.315796372315D+02 EE= 9.286649963235D+01
 Leave Link  502 at Tue May 12 23:40:48 2020, MaxMem= 1073741824 cpu:      21.4
 (Enter /home/matheus/.gaussian/g09/l122.exe)
 Restoring MOs from calculation   5 to rwf.
 Counterpoise: doing MCBS calculation for fragment   2
 Leave Link  122 at Tue May 12 23:40:48 2020, MaxMem= 1073741824 cpu:       0.0
 (Enter /home/matheus/.gaussian/g09/l301.exe)
 Basis read from rwf:  (5D, 7F)
 No pseudopotential information found on rwf file.
 There are    59 symmetry adapted basis functions of A   symmetry.
 Integral buffers will be    131072 words long.
 Raffenetti 2 integral format.
 Two-electron integral symmetry is turned on.
    59 basis functions,   217 primitive gaussians,    69 cartesian basis functions
    18 alpha electrons       18 beta electrons
       nuclear repulsion energy         0.0000000000 Hartrees.
 IExCor=32609 DFT=T Ex+Corr=LC-wPBE ExCW=0 ScaHFX=  1.000000
 ScaDFX=  1.000000  0.000000  1.000000  1.000000 ScalE2=  1.000000  1.000000
 IRadAn=      5 IRanWt=     -1 IRanGd=            0 ICorTp=0
  HFx wShort=  0.000000 wLong=  0.400000 cFull=  0.000000 cShort=  0.000000 cLong=  1.000000
  DFx wShort=  0.000000 wLong=  0.400000 cFull=  0.000000 cShort=  0.000000 cLong=  1.000000
 NAtoms=    5 NActive=    1 NUniq=    1 SFac= 1.00D+00 NAtFMM=   60 NAOKFM=F Big=F
 No density basis found on file   718.
 Leave Link  301 at Tue May 12 23:40:48 2020, MaxMem= 1073741824 cpu:       0.2
 (Enter /home/matheus/.gaussian/g09/l302.exe)
 NPDir=0 NMtPBC=     1 NCelOv=     1 NCel=       1 NClECP=     1 NCelD=      1
         NCelK=      1 NCelE2=     1 NClLst=     1 CellRange=     0.0.
 One-electron integrals computed using PRISM.
 NBasis=    59 RedAO= T  NBF=    59
 NBsUse=    59 1.00D-06 NBFU=    59
 Precomputing XC quadrature grid using
 IXCGrd= 2 IRadAn=           5 IRanWt=          -1 IRanGd=           0 AccXCQ= 0.00D+00.
 NRdTot=      81 NPtTot=       30352 NUsed=       30981 NTot=       31013
 NSgBfM=    69    69    69    69    69 NAtAll=     1     1.
 Leave Link  302 at Tue May 12 23:40:48 2020, MaxMem= 1073741824 cpu:       0.6
 (Enter /home/matheus/.gaussian/g09/l303.exe)
 DipDrv:  MaxL=1.
 Leave Link  303 at Tue May 12 23:40:48 2020, MaxMem= 1073741824 cpu:       0.1
 (Enter /home/matheus/.gaussian/g09/l401.exe)
 Initial guess read from the read-write file.
 Guess basis will be translated and rotated to current coordinates.
 Initial guess orbital symmetries:
       Occupied  (A) (A) (A) (A) (A) (A) (A) (A) (A) (A) (A) (A)
                 (A) (A) (A) (A) (A) (A)
       Virtual   (A) (A) (A) (A) (A) (A) (A) (A) (A) (A) (A) (A)
                 (A) (A) (A) (A) (A) (A) (A) (A) (A) (A) (A) (A)
                 (A) (A) (A) (A) (A) (A) (A) (A) (A) (A) (A) (A)
                 (A) (A) (A) (A) (A)
 The electronic state of the initial guess is 1-A.
 Generating alternative initial guess.
 Harris functional with IExCor=32609 diagonalized for initial guess.
 ExpMin= 4.00D-02 ExpMax= 1.17D+07 ExpMxC= 1.33D+04 IAcc=3 IRadAn=         5 AccDes= 0.00D+00
 HarFok:  IExCor=32609 AccDes= 0.00D+00 IRadAn=         5 IDoV= 1
 ScaDFX=  1.000000  1.000000  1.000000  1.000000
 FoFCou: FMM=F IPFlag=           0 FMFlag=      100000 FMFlg1=           0
         NFxFlg=           0 DoJE=T BraDBF=F KetDBF=T FulRan=T
         Omega=  0.000000  0.000000  1.000000  0.000000  0.000000 ICntrl=     500 IOpCl=  0
         NMat0=    1 NMatS0=    1 NMatT0=    0 NMatD0=    1 NMtDS0=    0 NMtDT0=    0
         I1Cent=           4 NGrid=           0.
 Petite list used in FoFCou.
 Harris En= -2753.24576836237    
 Leave Link  401 at Tue May 12 23:40:48 2020, MaxMem= 1073741824 cpu:       1.0
 (Enter /home/matheus/.gaussian/g09/l502.exe)
 Closed shell SCF:
 Requested convergence on RMS density matrix=1.00D-08 within 128 cycles.
 Requested convergence on MAX density matrix=1.00D-06.
 Requested convergence on             energy=1.00D-06.
 No special actions if energy rises.
 Using DIIS extrapolation, IDIIS=  1040.
 Integral symmetry usage will be decided dynamically.
        30923 words used for storage of precomputed grid.
 IEnd=       64406 IEndB=       64406 NGot=  1073741824 MDV=  1073698889
 LenX=  1073698889 LenY=  1073693687
 Fock matrices will be formed incrementally for  20 cycles.

 Cycle   1  Pass 1  IDiag  1:
 FoFJK:  IHMeth= 1 ICntrl=     0 DoSepK=T KAlg= 1 I1Cent= 0 FoldK=F
 FoFCou: FMM=F IPFlag=           0 FMFlag=      100000 FMFlg1=           0
         NFxFlg=           0 DoJE=T BraDBF=F KetDBF=F FulRan=T
         Omega=  0.000000  0.000000  1.000000  0.000000  0.000000 ICntrl=     500 IOpCl=  0
         NMat0=    1 NMatS0=    1 NMatT0=    0 NMatD0=    1 NMtDS0=    0 NMtDT0=    0
         I1Cent=           0 NGrid=           0.
 Symmetry not used in FoFCou.
 E= -2753.43563276534    
 DIIS: error= 6.53D-14 at cycle   1 NSaved=   1.
 NSaved= 1 IEnMin= 1 EnMin= -2753.43563276534     IErMin= 1 ErrMin= 6.53D-14
 ErrMax= 6.53D-14 EMaxC= 1.00D-01 BMatC= 1.94D-25 BMatP= 1.94D-25
 IDIUse=1 WtCom= 1.00D+00 WtEn= 0.00D+00
 Coeff-Com:  0.100D+01
 Coeff:      0.100D+01
 Gap=     0.599 Goal=   None    Shift=    0.000
 DSYEVD returned Info=        1859 IAlg= 4 N=    59 NDim=    59 NE2=    18198197 trying DSYEV.
 RMSDP=9.22D-15 MaxDP=2.03D-13              OVMax= 1.40D-13

 SCF Done:  E(RLC-wPBE) =  -2753.43563277     A.U. after    1 cycles
             Convg  =    0.9221D-14             -V/T =  2.0014
 KE= 2.749535160915D+03 PE=-6.578948648680D+03 EE= 1.075977855000D+03
 Leave Link  502 at Tue May 12 23:40:50 2020, MaxMem= 1073741824 cpu:      10.7
 (Enter /home/matheus/.gaussian/g09/l122.exe)
 Restoring MOs from calculation   1 to rwf.
 Counterpoise: corrected energy =   -2904.952668958729
 Counterpoise: BSSE energy =       0.000021942372
 Leave Link  122 at Tue May 12 23:40:50 2020, MaxMem= 1073741824 cpu:       0.0
 (Enter /home/matheus/.gaussian/g09/l108.exe)
 Scan completed.

 Summary of the potential surface scan:
   N      R1          SCF    
 ----  ---------  -----------
    1     3.0000  -2753.43563
    2     3.1000  -2753.43563
    3     3.2000  -2753.43563
    4     3.3000  -2753.43563
    5     3.4000  -2753.43563
    6     3.5000  -2753.43563
    7     3.6000  -2753.43563
    8     3.7000  -2753.43563
    9     3.8000  -2753.43563
   10     3.9000  -2753.43563
   11     4.0000  -2753.43563
   12     4.1000  -2753.43563
   13     4.2000  -2753.43563
   14     4.3000  -2753.43563
   15     4.4000  -2753.43563
   16     4.5000  -2753.43563
   17     4.6000  -2753.43563
   18     4.7000  -2753.43563
   19     4.8000  -2753.43563
   20     4.9000  -2753.43563
   21     5.0000  -2753.43563
 ----  ---------  -----------
  
 Leave Link  108 at Tue May 12 23:40:50 2020, MaxMem= 1073741824 cpu:       0.0
 (Enter /home/matheus/.gaussian/g09/l9999.exe)
 1\1\GINC-REDGIANT\Scan\RLC-wPBE\Aug-CC-pVTZ\H2Kr1O2\MATHEUS\12-May-202
 0\1\\#p lc-wpbe/aug-cc-PVTz int=ultrafine counterpoise=2 Scan\\TCC\\0,
 1\O,0,0.,0.,0.725\O,0,0.,0.,-0.725\H,0,-0.1595341571,0.9047631646,1.02
 35104166\H,0,0.,0.9187205947,-1.0235104166\Kr,0,0.,R1,0.\\R1=3.,s,20,0
 .1\\Version=EM64L-G09RevC.01\State=1-A\HF=-2753.4356328,-2753.4356328,
 -2753.4356328,-2753.4356328,-2753.4356328,-2753.4356328,-2753.4356328,
 -2753.4356328,-2753.4356328,-2753.4356328,-2753.4356328,-2753.4356328,
 -2753.4356328,-2753.4356328,-2753.4356328,-2753.4356328,-2753.4356328,
 -2753.4356328,-2753.4356328,-2753.4356328,-2753.4356328\RMSD=1.428e-09
 ,5.220e-11,1.075e-11,2.473e-12,6.373e-13,1.564e-13,4.100e-14,1.238e-14
 ,2.044e-14,1.425e-14,6.886e-15,6.480e-15,7.977e-15,6.018e-15,9.819e-15
 ,6.624e-15,5.349e-15,4.682e-15,4.970e-15,1.045e-14,9.221e-15\PG=C01 [X
 (H2Kr1O2)]\\@


 THESE ARE THE TIMES THAT TRY MENS SOULS.
 THE SUMMER SOLDIER AND THE SUNSHINE PATRIOT WILL IN THIS CRISIS,
 SHRINK FROM THE SERVICE OF HIS COUNTRY.  BUT HE THAT STANDS NOW,
 DESERVES THE LOVE AND THANKS OF MAN AND WOMAN.
 TYRANNY, LIKE HELL, IS NOT EASILY CONQUERED,
 YET WE HAVE THIS CONSOLATION WITH US,
 THAT THE HARDER THE CONFLICT, THE MORE GLORIOUS THE TRIUMPH.
 WHAT WE OBTAIN TOO CHEAP, WE ESTEEM TOO LIGHTLY, 
 'TIS DEARNESS ONLY THAT GIVES EVERYTHING ITS VALUE.

                                              -- TOM PAINE
 Job cpu time:  0 days  2 hours 55 minutes  3.0 seconds.
 File lengths (MBytes):  RWF=     33 Int=      0 D2E=      0 Chk=      8 Scr=      1
 Normal termination of Gaussian 09 at Tue May 12 23:40:50 2020.
