 Entering Gaussian System, Link 0=g09
 Input=/home/matheus/.tcc/Inputs/Inputs-lc-wpbe-default/H2O2-Kr_26.com
 Output=/home/matheus/.tcc/Logs/Logs-lc-wpbe-default/H2O2-Kr_26.log
 Initial command:
 /home/matheus/.gaussian/g09/l1.exe /home/matheus/.gaussian/g09/scratch/Gau-19784.inp -scrdir=/home/matheus/.gaussian/g09/scratch/
 Entering Link 1 = /home/matheus/.gaussian/g09/l1.exe PID=     19788.
  
 Copyright (c) 1988,1990,1992,1993,1995,1998,2003,2009,2011,
            Gaussian, Inc.  All Rights Reserved.
  
 This is part of the Gaussian(R) 09 program.  It is based on
 the Gaussian(R) 03 system (copyright 2003, Gaussian, Inc.),
 the Gaussian(R) 98 system (copyright 1998, Gaussian, Inc.),
 the Gaussian(R) 94 system (copyright 1995, Gaussian, Inc.),
 the Gaussian 92(TM) system (copyright 1992, Gaussian, Inc.),
 the Gaussian 90(TM) system (copyright 1990, Gaussian, Inc.),
 the Gaussian 88(TM) system (copyright 1988, Gaussian, Inc.),
 the Gaussian 86(TM) system (copyright 1986, Carnegie Mellon
 University), and the Gaussian 82(TM) system (copyright 1983,
 Carnegie Mellon University). Gaussian is a federally registered
 trademark of Gaussian, Inc.
  
 This software contains proprietary and confidential information,
 including trade secrets, belonging to Gaussian, Inc.
  
 This software is provided under written license and may be
 used, copied, transmitted, or stored only in accord with that
 written license.
  
 The following legend is applicable only to US Government
 contracts under FAR:
  
                    RESTRICTED RIGHTS LEGEND
  
 Use, reproduction and disclosure by the US Government is
 subject to restrictions as set forth in subparagraphs (a)
 and (c) of the Commercial Computer Software - Restricted
 Rights clause in FAR 52.227-19.
  
 Gaussian, Inc.
 340 Quinnipiac St., Bldg. 40, Wallingford CT 06492
  
  
 ---------------------------------------------------------------
 Warning -- This program may not be used in any manner that
 competes with the business of Gaussian, Inc. or will provide
 assistance to any competitor of Gaussian, Inc.  The licensee
 of this program is prohibited from giving any competitor of
 Gaussian, Inc. access to this program.  By using this program,
 the user acknowledges that Gaussian, Inc. is engaged in the
 business of creating and licensing software in the field of
 computational chemistry and represents and warrants to the
 licensee that it is not a competitor of Gaussian, Inc. and that
 it will not use this program in any manner prohibited above.
 ---------------------------------------------------------------
  

 Cite this work as:
 Gaussian 09, Revision C.01,
 M. J. Frisch, G. W. Trucks, H. B. Schlegel, G. E. Scuseria, 
 M. A. Robb, J. R. Cheeseman, G. Scalmani, V. Barone, B. Mennucci, 
 G. A. Petersson, H. Nakatsuji, M. Caricato, X. Li, H. P. Hratchian, 
 A. F. Izmaylov, J. Bloino, G. Zheng, J. L. Sonnenberg, M. Hada, 
 M. Ehara, K. Toyota, R. Fukuda, J. Hasegawa, M. Ishida, T. Nakajima, 
 Y. Honda, O. Kitao, H. Nakai, T. Vreven, J. A. Montgomery, Jr., 
 J. E. Peralta, F. Ogliaro, M. Bearpark, J. J. Heyd, E. Brothers, 
 K. N. Kudin, V. N. Staroverov, T. Keith, R. Kobayashi, J. Normand, 
 K. Raghavachari, A. Rendell, J. C. Burant, S. S. Iyengar, J. Tomasi, 
 M. Cossi, N. Rega, J. M. Millam, M. Klene, J. E. Knox, J. B. Cross, 
 V. Bakken, C. Adamo, J. Jaramillo, R. Gomperts, R. E. Stratmann, 
 O. Yazyev, A. J. Austin, R. Cammi, C. Pomelli, J. W. Ochterski, 
 R. L. Martin, K. Morokuma, V. G. Zakrzewski, G. A. Voth, 
 P. Salvador, J. J. Dannenberg, S. Dapprich, A. D. Daniels, 
 O. Farkas, J. B. Foresman, J. V. Ortiz, J. Cioslowski, 
 and D. J. Fox, Gaussian, Inc., Wallingford CT, 2010.
 
 ******************************************
 Gaussian 09:  EM64L-G09RevC.01 23-Sep-2011
                12-May-2020 
 ******************************************
 %mem=8GB
 %nproc=8
 Will use up to    8 processors via shared memory.
 --------------------------------------------------------
 #p lc-wpbe/aug-cc-PVTz int=ultrafine counterpoise=2 Scan
 --------------------------------------------------------
 1/38=1,60=1,62=2/1,8;
 2/12=2,17=6,18=5,29=3,40=1/2;
 1/38=1,53=5172,62=2/22;
 3/5=16,6=1,7=10,11=2,16=1,25=1,30=1,74=-41,75=-5/1,2,3;
 4//1;
 5/5=2,38=5/2;
 6/7=2,8=2,9=2,10=2,18=1,28=1/1;
 1/53=4052,62=2,63=1/22;
 3/5=7,6=11,7=10,11=2,16=1,25=1,30=1,74=-41,75=-5,82=7/1,2,3;
 4//1;
 5/5=2,38=5/2;
 6/7=2,8=2,9=2,10=2,18=1,28=1/1;
 1/53=3042,62=2,63=2/22;
 3/5=7,6=11,7=10,11=2,16=1,25=1,30=1,74=-41,75=-5,82=7/1,2,3;
 4//1;
 5/5=2,38=5/2;
 6/7=2,8=2,9=2,10=2,18=1,28=1/1;
 1/53=2032,62=2,63=3/22;
 3/5=7,6=11,7=10,11=2,16=1,25=1,30=1,74=-41,75=-5,82=7/1,2,3;
 4//1;
 5/5=2,38=5/2;
 6/7=2,8=2,9=2,10=2,18=1,28=1/1;
 1/53=1022,62=2,63=4/22;
 3/5=7,6=11,7=10,11=2,16=1,25=1,30=1,74=-41,75=-5,82=7/1,2,3;
 4//1;
 5/5=2,38=5/2;
 6/7=2,8=2,9=2,10=2,18=1,28=1/1;
 1/53=5014,62=2,63=5/22;
 1/60=1,62=2/8(1);
 99/9=1/99;
 2/29=3/2;
 1/53=5173,62=2/22;
 3/5=7,6=11,7=10,11=2,16=1,25=1,30=1,74=-41,75=-5,82=7/1,2,3;
 4/5=5,16=3/1;
 5/5=2,38=5/2;
 1/53=4053,62=2,63=1/22;
 3/5=7,6=11,7=10,11=2,16=1,25=1,30=1,74=-41,75=-5,82=7/1,2,3;
 4/5=5,16=3/1;
 5/5=2,38=5/2;
 1/53=3043,62=2,63=2/22;
 3/5=7,6=11,7=10,11=2,16=1,25=1,30=1,74=-41,75=-5,82=7/1,2,3;
 4/5=5,16=3/1;
 5/5=2,38=5/2;
 1/53=2033,62=2,63=3/22;
 3/5=7,6=11,7=10,11=2,16=1,25=1,30=1,74=-41,75=-5,82=7/1,2,3;
 4/5=5,16=3/1;
 5/5=2,38=5/2;
 1/53=1024,62=2,63=4/22;
 3/5=7,6=11,7=10,11=2,16=1,25=1,30=1,74=-41,75=-5,82=7/1,2,3;
 4/5=5,16=3/1;
 5/5=2,38=5/2;
 1/53=5014,62=2,63=5/22;
 1/60=1,62=2/8(-22);
 99/9=1/99;
 Leave Link    1 at Tue May 12 19:41:10 2020, MaxMem= 1073741824 cpu:       0.1
 (Enter /home/matheus/.gaussian/g09/l101.exe)
 ---
 TCC
 ---
 Charge =  0 Multiplicity = 1 in supermolecule
 Charge =  0 Multiplicity = 1 in fragment  1.
 Charge =  0 Multiplicity = 1 in fragment  2.
 Symbolic Z-Matrix:
 O(Fragment=1)         0.        0.        0.725 
 O(Fragment=1)         0.        0.       -0.725 
 H(Fragment=1)        -0.90476  -0.15953   1.02351 
 H(Fragment=1)         0.        0.91872  -1.02351 
 Kr(Fragment=2)        0.       R1        0. 
       Variables:
  R1                    3.     Scan 20    0.1    
 
 NAtoms=      5 NQM=        0 NQMF=       0 NMMI=      5 NMMIF=      0
                NMic=       0 NMicF=      0.
                    Isotopes and Nuclear Properties:
 (Nuclear quadrupole moments (NQMom) in fm**2, nuclear magnetic moments (NMagM)
  in nuclear magnetons)

  Atom         1           2           3           4           5
 IAtWgt=          16          16           1           1          84
 AtmWgt=  15.9949146  15.9949146   1.0078250   1.0078250  83.9115064
 NucSpn=           0           0           1           1           0
 AtZEff=   0.0000000   0.0000000   0.0000000   0.0000000   0.0000000
 NQMom=    0.0000000   0.0000000   0.0000000   0.0000000   0.0000000
 NMagM=    0.0000000   0.0000000   2.7928460   2.7928460   0.0000000
 Leave Link  101 at Tue May 12 19:41:10 2020, MaxMem= 1073741824 cpu:       0.3
 (Enter /home/matheus/.gaussian/g09/l108.exe)
 Scan the potential surface.
 Variable   Value     No. Steps Step-Size
 -------- ----------- --------- ---------
     1       3.000000      20      0.1000
 A total of     21 points will be computed.
 Leave Link  108 at Tue May 12 19:41:10 2020, MaxMem= 1073741824 cpu:       0.0
 (Enter /home/matheus/.gaussian/g09/l202.exe)
 ---------------------------------------------------------------------------------------------------
                            Z-MATRIX (ANGSTROMS AND DEGREES)
   CD    Cent   Atom    N1       Length/X        N2       Alpha/Y        N3        Beta/Z          J
 ---------------------------------------------------------------------------------------------------
      1      1  O        0   0.000000          0.000000          0.725000
      2      2  O        0   0.000000          0.000000         -0.725000
      3      3  H        0  -0.904763         -0.159534          1.023510
      4      4  H        0   0.000000          0.918721         -1.023510
      5      5  Kr       0   0.000000          3.000000          0.000000
 ---------------------------------------------------------------------------------------------------
                         Z-Matrix orientation:                         
 ---------------------------------------------------------------------
 Center     Atomic      Atomic             Coordinates (Angstroms)
 Number     Number       Type             X           Y           Z
 ---------------------------------------------------------------------
      1          8           0        0.000000    0.000000    0.725000
      2          8           0        0.000000    0.000000   -0.725000
      3          1           0       -0.904763   -0.159534    1.023510
      4          1           0        0.000000    0.918721   -1.023510
      5         36           0        0.000000    3.000000    0.000000
 ---------------------------------------------------------------------
                    Distance matrix (angstroms):
                    1          2          3          4          5
     1  O    0.000000
     2  O    1.450000   0.000000
     3  H    0.966000   1.975180   0.000000
     4  H    1.975180   0.966000   2.484255   0.000000
     5  Kr   3.086361   3.086361   3.442212   2.319331   0.000000
 Stoichiometry    H2KrO2
 Framework group  C1[X(H2KrO2)]
 Deg. of freedom     9
 Full point group                 C1      NOp   1
 Largest Abelian subgroup         C1      NOp   1
 Largest concise Abelian subgroup C1      NOp   1
                         Standard orientation:                         
 ---------------------------------------------------------------------
 Center     Atomic      Atomic             Coordinates (Angstroms)
 Number     Number       Type             X           Y           Z
 ---------------------------------------------------------------------
      1          8           0       -2.021768   -0.693300   -0.118861
      2          8           0       -2.004728    0.750466    0.014370
      3          1           0       -2.201795   -1.071309    0.751687
      4          1           0       -1.082725    1.035355    0.058021
      5         36           0        0.986014   -0.011705    0.000728
 ---------------------------------------------------------------------
 Rotational constants (GHZ):     25.6313314      2.3378634      2.1561704
 Leave Link  202 at Tue May 12 19:41:10 2020, MaxMem= 1073741824 cpu:       0.0
 (Enter /home/matheus/.gaussian/g09/l122.exe)
 Leave Link  122 at Tue May 12 19:41:10 2020, MaxMem= 1073741824 cpu:       0.0
 (Enter /home/matheus/.gaussian/g09/l301.exe)
 Standard basis: Aug-CC-pVTZ (5D, 7F)
 Ernie: Thresh=  0.10000D-02 Tol=  0.10000D-05 Strict=F.
 Ernie:  38 primitive shells out of 205 were deleted.
 There are   197 symmetry adapted basis functions of A   symmetry.
 Integral buffers will be    131072 words long.
 Raffenetti 2 integral format.
 Two-electron integral symmetry is turned on.
   197 basis functions,   415 primitive gaussians,   229 cartesian basis functions
    27 alpha electrons       27 beta electrons
       nuclear repulsion energy       149.1283769891 Hartrees.
 IExCor=32609 DFT=T Ex+Corr=LC-wPBE ExCW=0 ScaHFX=  1.000000
 ScaDFX=  1.000000  0.000000  1.000000  1.000000 ScalE2=  1.000000  1.000000
 IRadAn=      5 IRanWt=     -1 IRanGd=            0 ICorTp=0
  HFx wShort=  0.000000 wLong=  0.400000 cFull=  0.000000 cShort=  0.000000 cLong=  1.000000
  DFx wShort=  0.000000 wLong=  0.400000 cFull=  0.000000 cShort=  0.000000 cLong=  1.000000
 NAtoms=    5 NActive=    5 NUniq=    5 SFac= 1.00D+00 NAtFMM=   60 NAOKFM=F Big=F
 Leave Link  301 at Tue May 12 19:41:11 2020, MaxMem= 1073741824 cpu:       0.2
 (Enter /home/matheus/.gaussian/g09/l302.exe)
 NPDir=0 NMtPBC=     1 NCelOv=     1 NCel=       1 NClECP=     1 NCelD=      1
         NCelK=      1 NCelE2=     1 NClLst=     1 CellRange=     0.0.
 One-electron integrals computed using PRISM.
 NBasis=   197 RedAO= T  NBF=   197
 NBsUse=   197 1.00D-06 NBFU=   197
 Precomputing XC quadrature grid using
 IXCGrd= 2 IRadAn=           5 IRanWt=          -1 IRanGd=           0 AccXCQ= 0.00D+00.
 NRdTot=     427 NPtTot=      123512 NUsed=      126579 NTot=      126611
 NSgBfM=   229   229   229   229   229 NAtAll=     5     5.
 Leave Link  302 at Tue May 12 19:41:11 2020, MaxMem= 1073741824 cpu:       0.9
 (Enter /home/matheus/.gaussian/g09/l303.exe)
 DipDrv:  MaxL=1.
 Leave Link  303 at Tue May 12 19:41:11 2020, MaxMem= 1073741824 cpu:       0.2
 (Enter /home/matheus/.gaussian/g09/l401.exe)
 Harris functional with IExCor=32609 diagonalized for initial guess.
 ExpMin= 2.53D-02 ExpMax= 1.17D+07 ExpMxC= 1.33D+04 IAcc=3 IRadAn=         5 AccDes= 0.00D+00
 HarFok:  IExCor=32609 AccDes= 0.00D+00 IRadAn=         5 IDoV= 1
 ScaDFX=  1.000000  1.000000  1.000000  1.000000
 FoFCou: FMM=F IPFlag=           0 FMFlag=      100000 FMFlg1=           0
         NFxFlg=           0 DoJE=T BraDBF=F KetDBF=T FulRan=T
         Omega=  0.000000  0.000000  1.000000  0.000000  0.000000 ICntrl=     500 IOpCl=  0
         NMat0=    1 NMatS0=    1 NMatT0=    0 NMatD0=    1 NMtDS0=    0 NMtDT0=    0
         I1Cent=           4 NGrid=           0.
 Petite list used in FoFCou.
 Harris En= -2904.73996631590    
 Initial guess orbital symmetries:
       Occupied  (A) (A) (A) (A) (A) (A) (A) (A) (A) (A) (A) (A)
                 (A) (A) (A) (A) (A) (A) (A) (A) (A) (A) (A) (A)
                 (A) (A) (A)
       Virtual   (A) (A) (A) (A) (A) (A) (A) (A) (A) (A) (A) (A)
                 (A) (A) (A) (A) (A) (A) (A) (A) (A) (A) (A) (A)
                 (A) (A) (A) (A) (A) (A) (A) (A) (A) (A) (A) (A)
                 (A) (A) (A) (A) (A) (A) (A) (A) (A) (A) (A) (A)
                 (A) (A) (A) (A) (A) (A) (A) (A) (A) (A) (A) (A)
                 (A) (A) (A) (A) (A) (A) (A) (A) (A) (A) (A) (A)
                 (A) (A) (A) (A) (A) (A) (A) (A) (A) (A) (A) (A)
                 (A) (A) (A) (A) (A) (A) (A) (A) (A) (A) (A) (A)
                 (A) (A) (A) (A) (A) (A) (A) (A) (A) (A) (A) (A)
                 (A) (A) (A) (A) (A) (A) (A) (A) (A) (A) (A) (A)
                 (A) (A) (A) (A) (A) (A) (A) (A) (A) (A) (A) (A)
                 (A) (A) (A) (A) (A) (A) (A) (A) (A) (A) (A) (A)
                 (A) (A) (A) (A) (A) (A) (A) (A) (A) (A) (A) (A)
                 (A) (A) (A) (A) (A) (A) (A) (A) (A) (A) (A) (A)
                 (A) (A)
 The electronic state of the initial guess is 1-A.
 Leave Link  401 at Tue May 12 19:41:11 2020, MaxMem= 1073741824 cpu:       3.7
 (Enter /home/matheus/.gaussian/g09/l502.exe)
 Closed shell SCF:
 Requested convergence on RMS density matrix=1.00D-08 within 128 cycles.
 Requested convergence on MAX density matrix=1.00D-06.
 Requested convergence on             energy=1.00D-06.
 No special actions if energy rises.
 Using DIIS extrapolation, IDIIS=  1040.
 Integral symmetry usage will be decided dynamically.
       126521 words used for storage of precomputed grid.
 IEnd=      305468 IEndB=      305468 NGot=  1073741824 MDV=  1073505667
 LenX=  1073505667 LenY=  1073452785
 Fock matrices will be formed incrementally for  20 cycles.

 Cycle   1  Pass 1  IDiag  1:
 FoFJK:  IHMeth= 1 ICntrl=     0 DoSepK=T KAlg= 1 I1Cent= 0 FoldK=F
 FoFCou: FMM=F IPFlag=           0 FMFlag=      100000 FMFlg1=           0
         NFxFlg=           0 DoJE=T BraDBF=F KetDBF=F FulRan=T
         Omega=  0.000000  0.000000  1.000000  0.000000  0.000000 ICntrl=     500 IOpCl=  0
         NMat0=    1 NMatS0=    1 NMatT0=    0 NMatD0=    1 NMtDS0=    0 NMtDT0=    0
         I1Cent=           0 NGrid=           0.
 Symmetry not used in FoFCou.
 E= -2904.88374540699    
 DIIS: error= 2.33D-02 at cycle   1 NSaved=   1.
 NSaved= 1 IEnMin= 1 EnMin= -2904.88374540699     IErMin= 1 ErrMin= 2.33D-02
 ErrMax= 2.33D-02 EMaxC= 1.00D-01 BMatC= 2.61D-01 BMatP= 2.61D-01
 IDIUse=3 WtCom= 7.67D-01 WtEn= 2.33D-01
 Coeff-Com:  0.100D+01
 Coeff-En:   0.100D+01
 Coeff:      0.100D+01
 Gap=     0.516 Goal=   None    Shift=    0.000
 GapD=    0.516 DampG=2.000 DampE=0.500 DampFc=1.0000 IDamp=-1.
 RMSDP=2.28D-03 MaxDP=1.47D-01              OVMax= 6.14D-02

 Cycle   2  Pass 1  IDiag  1:
 RMSU=  1.58D-03    CP:  1.02D+00
 FoFJK:  IHMeth= 1 ICntrl=     0 DoSepK=T KAlg= 1 I1Cent= 0 FoldK=F
 E= -2904.92742279623     Delta-E=       -0.043677389240 Rises=F Damp=F
 DIIS: error= 9.88D-03 at cycle   2 NSaved=   2.
 NSaved= 2 IEnMin= 2 EnMin= -2904.92742279623     IErMin= 2 ErrMin= 9.88D-03
 ErrMax= 9.88D-03 EMaxC= 1.00D-01 BMatC= 7.80D-02 BMatP= 2.61D-01
 IDIUse=3 WtCom= 9.01D-01 WtEn= 9.88D-02
 Coeff-Com:  0.346D+00 0.654D+00
 Coeff-En:   0.188D+00 0.812D+00
 Coeff:      0.331D+00 0.669D+00
 Gap=     0.467 Goal=   None    Shift=    0.000
 RMSDP=9.28D-04 MaxDP=5.06D-02 DE=-4.37D-02 OVMax= 2.96D-02

 Cycle   3  Pass 1  IDiag  1:
 RMSU=  3.24D-04    CP:  1.01D+00  6.50D-01
 FoFJK:  IHMeth= 1 ICntrl=     0 DoSepK=T KAlg= 1 I1Cent= 0 FoldK=F
 E= -2904.95505737421     Delta-E=       -0.027634577974 Rises=F Damp=F
 DIIS: error= 1.96D-03 at cycle   3 NSaved=   3.
 NSaved= 3 IEnMin= 3 EnMin= -2904.95505737421     IErMin= 3 ErrMin= 1.96D-03
 ErrMax= 1.96D-03 EMaxC= 1.00D-01 BMatC= 1.76D-03 BMatP= 7.80D-02
 IDIUse=3 WtCom= 9.80D-01 WtEn= 1.96D-02
 Coeff-Com:  0.641D-01 0.195D+00 0.741D+00
 Coeff-En:   0.000D+00 0.000D+00 0.100D+01
 Coeff:      0.628D-01 0.191D+00 0.746D+00
 Gap=     0.449 Goal=   None    Shift=    0.000
 RMSDP=1.17D-04 MaxDP=3.08D-03 DE=-2.76D-02 OVMax= 7.99D-03

 Cycle   4  Pass 1  IDiag  1:
 RMSU=  6.30D-05    CP:  1.01D+00  6.78D-01  9.02D-01
 FoFJK:  IHMeth= 1 ICntrl=     0 DoSepK=T KAlg= 1 I1Cent= 0 FoldK=F
 E= -2904.95599264134     Delta-E=       -0.000935267132 Rises=F Damp=F
 DIIS: error= 5.37D-04 at cycle   4 NSaved=   4.
 NSaved= 4 IEnMin= 4 EnMin= -2904.95599264134     IErMin= 4 ErrMin= 5.37D-04
 ErrMax= 5.37D-04 EMaxC= 1.00D-01 BMatC= 1.40D-04 BMatP= 1.76D-03
 IDIUse=3 WtCom= 9.95D-01 WtEn= 5.37D-03
 Coeff-Com: -0.162D-02 0.270D-01 0.282D+00 0.692D+00
 Coeff-En:   0.000D+00 0.000D+00 0.000D+00 0.100D+01
 Coeff:     -0.161D-02 0.269D-01 0.281D+00 0.694D+00
 Gap=     0.454 Goal=   None    Shift=    0.000
 RMSDP=3.56D-05 MaxDP=2.09D-03 DE=-9.35D-04 OVMax= 1.94D-03

 Cycle   5  Pass 1  IDiag  1:
 RMSU=  1.30D-05    CP:  1.01D+00  6.82D-01  9.56D-01  8.28D-01
 FoFJK:  IHMeth= 1 ICntrl=     0 DoSepK=T KAlg= 1 I1Cent= 0 FoldK=F
 E= -2904.95607134425     Delta-E=       -0.000078702907 Rises=F Damp=F
 DIIS: error= 7.52D-05 at cycle   5 NSaved=   5.
 NSaved= 5 IEnMin= 5 EnMin= -2904.95607134425     IErMin= 5 ErrMin= 7.52D-05
 ErrMax= 7.52D-05 EMaxC= 1.00D-01 BMatC= 3.15D-06 BMatP= 1.40D-04
 IDIUse=1 WtCom= 1.00D+00 WtEn= 0.00D+00
 Coeff-Com: -0.202D-02 0.158D-02 0.526D-01 0.188D+00 0.760D+00
 Coeff:     -0.202D-02 0.158D-02 0.526D-01 0.188D+00 0.760D+00
 Gap=     0.454 Goal=   None    Shift=    0.000
 RMSDP=7.19D-06 MaxDP=2.33D-04 DE=-7.87D-05 OVMax= 5.22D-04

 Cycle   6  Pass 1  IDiag  1:
 RMSU=  4.52D-06    CP:  1.01D+00  6.82D-01  9.57D-01  8.64D-01  1.02D+00
 FoFJK:  IHMeth= 1 ICntrl=     0 DoSepK=T KAlg= 1 I1Cent= 0 FoldK=F
 E= -2904.95607313965     Delta-E=       -0.000001795404 Rises=F Damp=F
 DIIS: error= 5.02D-05 at cycle   6 NSaved=   6.
 NSaved= 6 IEnMin= 6 EnMin= -2904.95607313965     IErMin= 6 ErrMin= 5.02D-05
 ErrMax= 5.02D-05 EMaxC= 1.00D-01 BMatC= 1.22D-06 BMatP= 3.15D-06
 IDIUse=1 WtCom= 1.00D+00 WtEn= 0.00D+00
 Coeff-Com: -0.703D-03-0.314D-02-0.150D-01-0.510D-02 0.392D+00 0.632D+00
 Coeff:     -0.703D-03-0.314D-02-0.150D-01-0.510D-02 0.392D+00 0.632D+00
 Gap=     0.454 Goal=   None    Shift=    0.000
 RMSDP=3.56D-06 MaxDP=1.29D-04 DE=-1.80D-06 OVMax= 2.45D-04

 Cycle   7  Pass 1  IDiag  1:
 RMSU=  1.81D-06    CP:  1.01D+00  6.82D-01  9.57D-01  8.78D-01  1.12D+00
                    CP:  8.70D-01
 FoFJK:  IHMeth= 1 ICntrl=     0 DoSepK=T KAlg= 1 I1Cent= 0 FoldK=F
 E= -2904.95607387061     Delta-E=       -0.000000730955 Rises=F Damp=F
 DIIS: error= 1.14D-05 at cycle   7 NSaved=   7.
 NSaved= 7 IEnMin= 7 EnMin= -2904.95607387061     IErMin= 7 ErrMin= 1.14D-05
 ErrMax= 1.14D-05 EMaxC= 1.00D-01 BMatC= 4.73D-08 BMatP= 1.22D-06
 IDIUse=1 WtCom= 1.00D+00 WtEn= 0.00D+00
 Coeff-Com: -0.570D-05-0.118D-02-0.109D-01-0.241D-01 0.863D-02 0.174D+00
 Coeff-Com:  0.853D+00
 Coeff:     -0.570D-05-0.118D-02-0.109D-01-0.241D-01 0.863D-02 0.174D+00
 Coeff:      0.853D+00
 Gap=     0.454 Goal=   None    Shift=    0.000
 RMSDP=1.19D-06 MaxDP=3.90D-05 DE=-7.31D-07 OVMax= 8.59D-05

 Cycle   8  Pass 1  IDiag  1:
 RMSU=  3.66D-07    CP:  1.01D+00  6.82D-01  9.58D-01  8.83D-01  1.16D+00
                    CP:  9.87D-01  1.06D+00
 FoFJK:  IHMeth= 1 ICntrl=     0 DoSepK=T KAlg= 1 I1Cent= 0 FoldK=F
 E= -2904.95607398472     Delta-E=       -0.000000114110 Rises=F Damp=F
 DIIS: error= 1.91D-06 at cycle   8 NSaved=   8.
 NSaved= 8 IEnMin= 8 EnMin= -2904.95607398472     IErMin= 8 ErrMin= 1.91D-06
 ErrMax= 1.91D-06 EMaxC= 1.00D-01 BMatC= 8.02D-10 BMatP= 4.73D-08
 IDIUse=1 WtCom= 1.00D+00 WtEn= 0.00D+00
 Coeff-Com:  0.323D-04 0.284D-03 0.199D-02 0.349D-02-0.148D-01-0.483D-01
 Coeff-Com: -0.126D+00 0.118D+01
 Coeff:      0.323D-04 0.284D-03 0.199D-02 0.349D-02-0.148D-01-0.483D-01
 Coeff:     -0.126D+00 0.118D+01
 Gap=     0.454 Goal=   None    Shift=    0.000
 RMSDP=3.35D-07 MaxDP=1.16D-05 DE=-1.14D-07 OVMax= 3.24D-05

 Cycle   9  Pass 1  IDiag  1:
 RMSU=  9.13D-08    CP:  1.01D+00  6.82D-01  9.58D-01  8.84D-01  1.16D+00
                    CP:  1.01D+00  1.11D+00  1.38D+00
 FoFJK:  IHMeth= 1 ICntrl=     0 DoSepK=T KAlg= 1 I1Cent= 0 FoldK=F
 E= -2904.95607398746     Delta-E=       -0.000000002743 Rises=F Damp=F
 DIIS: error= 4.10D-07 at cycle   9 NSaved=   9.
 NSaved= 9 IEnMin= 9 EnMin= -2904.95607398746     IErMin= 9 ErrMin= 4.10D-07
 ErrMax= 4.10D-07 EMaxC= 1.00D-01 BMatC= 4.47D-11 BMatP= 8.02D-10
 IDIUse=1 WtCom= 1.00D+00 WtEn= 0.00D+00
 Coeff-Com: -0.264D-05 0.356D-04 0.382D-03 0.106D-02 0.236D-03-0.681D-02
 Coeff-Com: -0.375D-01-0.208D-01 0.106D+01
 Coeff:     -0.264D-05 0.356D-04 0.382D-03 0.106D-02 0.236D-03-0.681D-02
 Coeff:     -0.375D-01-0.208D-01 0.106D+01
 Gap=     0.454 Goal=   None    Shift=    0.000
 RMSDP=6.60D-08 MaxDP=2.21D-06 DE=-2.74D-09 OVMax= 7.73D-06

 Cycle  10  Pass 1  IDiag  1:
 RMSU=  2.13D-08    CP:  1.01D+00  6.82D-01  9.58D-01  8.84D-01  1.16D+00
                    CP:  1.01D+00  1.11D+00  1.46D+00  1.25D+00
 FoFJK:  IHMeth= 1 ICntrl=     0 DoSepK=T KAlg= 1 I1Cent= 0 FoldK=F
 E= -2904.95607398761     Delta-E=       -0.000000000156 Rises=F Damp=F
 DIIS: error= 1.08D-07 at cycle  10 NSaved=  10.
 NSaved=10 IEnMin=10 EnMin= -2904.95607398761     IErMin=10 ErrMin= 1.08D-07
 ErrMax= 1.08D-07 EMaxC= 1.00D-01 BMatC= 3.33D-12 BMatP= 4.47D-11
 IDIUse=1 WtCom= 1.00D+00 WtEn= 0.00D+00
 Coeff-Com: -0.174D-05-0.161D-04-0.121D-03-0.218D-03 0.103D-02 0.310D-02
 Coeff-Com:  0.679D-02-0.756D-01 0.129D-01 0.105D+01
 Coeff:     -0.174D-05-0.161D-04-0.121D-03-0.218D-03 0.103D-02 0.310D-02
 Coeff:      0.679D-02-0.756D-01 0.129D-01 0.105D+01
 Gap=     0.454 Goal=   None    Shift=    0.000
 RMSDP=1.90D-08 MaxDP=8.56D-07 DE=-1.56D-10 OVMax= 2.05D-06

 Cycle  11  Pass 1  IDiag  1:
 RMSU=  6.01D-09    CP:  1.01D+00  6.82D-01  9.58D-01  8.84D-01  1.16D+00
                    CP:  1.01D+00  1.11D+00  1.47D+00  1.34D+00  1.29D+00
 FoFJK:  IHMeth= 1 ICntrl=     0 DoSepK=T KAlg= 1 I1Cent= 0 FoldK=F
 E= -2904.95607398761     Delta-E=        0.000000000001 Rises=F Damp=F
 DIIS: error= 2.94D-08 at cycle  11 NSaved=  11.
 NSaved=11 IEnMin=10 EnMin= -2904.95607398761     IErMin=11 ErrMin= 2.94D-08
 ErrMax= 2.94D-08 EMaxC= 1.00D-01 BMatC= 3.01D-13 BMatP= 3.33D-12
 IDIUse=1 WtCom= 1.00D+00 WtEn= 0.00D+00
 Coeff-Com:  0.159D-06-0.355D-05-0.363D-04-0.101D-03 0.669D-04 0.790D-03
 Coeff-Com:  0.317D-02-0.472D-02-0.735D-01 0.611D-01 0.101D+01
 Coeff:      0.159D-06-0.355D-05-0.363D-04-0.101D-03 0.669D-04 0.790D-03
 Coeff:      0.317D-02-0.472D-02-0.735D-01 0.611D-01 0.101D+01
 Gap=     0.454 Goal=   None    Shift=    0.000
 RMSDP=5.50D-09 MaxDP=1.44D-07 DE= 9.09D-13 OVMax= 6.33D-07

 SCF Done:  E(RLC-wPBE) =  -2904.95607399     A.U. after   11 cycles
             Convg  =    0.5497D-08             -V/T =  2.0017
 KE= 2.900046287946D+03 PE=-7.235007237852D+03 EE= 1.280876498929D+03
 Leave Link  502 at Tue May 12 19:41:43 2020, MaxMem= 1073741824 cpu:     257.5
 (Enter /home/matheus/.gaussian/g09/l601.exe)
 Copying SCF densities to generalized density rwf, IOpCl= 0 IROHF=0.

 **********************************************************************

            Population analysis using the SCF density.

 **********************************************************************

 Orbital symmetries:
       Occupied  (A) (A) (A) (A) (A) (A) (A) (A) (A) (A) (A) (A)
                 (A) (A) (A) (A) (A) (A) (A) (A) (A) (A) (A) (A)
                 (A) (A) (A)
       Virtual   (A) (A) (A) (A) (A) (A) (A) (A) (A) (A) (A) (A)
                 (A) (A) (A) (A) (A) (A) (A) (A) (A) (A) (A) (A)
                 (A) (A) (A) (A) (A) (A) (A) (A) (A) (A) (A) (A)
                 (A) (A) (A) (A) (A) (A) (A) (A) (A) (A) (A) (A)
                 (A) (A) (A) (A) (A) (A) (A) (A) (A) (A) (A) (A)
                 (A) (A) (A) (A) (A) (A) (A) (A) (A) (A) (A) (A)
                 (A) (A) (A) (A) (A) (A) (A) (A) (A) (A) (A) (A)
                 (A) (A) (A) (A) (A) (A) (A) (A) (A) (A) (A) (A)
                 (A) (A) (A) (A) (A) (A) (A) (A) (A) (A) (A) (A)
                 (A) (A) (A) (A) (A) (A) (A) (A) (A) (A) (A) (A)
                 (A) (A) (A) (A) (A) (A) (A) (A) (A) (A) (A) (A)
                 (A) (A) (A) (A) (A) (A) (A) (A) (A) (A) (A) (A)
                 (A) (A) (A) (A) (A) (A) (A) (A) (A) (A) (A) (A)
                 (A) (A) (A) (A) (A) (A) (A) (A) (A) (A) (A) (A)
                 (A) (A)
 The electronic state is 1-A.
 Alpha  occ. eigenvalues -- -511.11963 -66.66655 -60.32880 -60.32863 -60.32853
 Alpha  occ. eigenvalues --  -19.03598 -19.03240  -9.59939  -7.34405  -7.34354
 Alpha  occ. eigenvalues --   -7.34325  -3.29942  -3.29933  -3.29912  -3.29874
 Alpha  occ. eigenvalues --   -3.29872  -1.25331  -1.04911  -1.03792  -0.68832
 Alpha  occ. eigenvalues --   -0.61458  -0.55513  -0.51884  -0.51521  -0.50602
 Alpha  occ. eigenvalues --   -0.43408  -0.42231
 Alpha virt. eigenvalues --    0.03127   0.04107   0.08245   0.09523   0.10362
 Alpha virt. eigenvalues --    0.11378   0.13586   0.13744   0.16981   0.17771
 Alpha virt. eigenvalues --    0.18414   0.19173   0.20388   0.22246   0.23891
 Alpha virt. eigenvalues --    0.24821   0.26323   0.28550   0.31559   0.32998
 Alpha virt. eigenvalues --    0.34085   0.35539   0.36661   0.38786   0.39746
 Alpha virt. eigenvalues --    0.40984   0.43174   0.47890   0.53078   0.55620
 Alpha virt. eigenvalues --    0.56281   0.60172   0.61689   0.65578   0.68926
 Alpha virt. eigenvalues --    0.70843   0.71964   0.73579   0.75909   0.76019
 Alpha virt. eigenvalues --    0.77208   0.77750   0.78599   0.80241   0.83178
 Alpha virt. eigenvalues --    0.85279   0.87064   0.89083   0.90014   0.90746
 Alpha virt. eigenvalues --    0.92447   0.93882   0.94835   0.96222   0.99582
 Alpha virt. eigenvalues --    1.01180   1.03529   1.06000   1.06222   1.08437
 Alpha virt. eigenvalues --    1.10072   1.16303   1.18301   1.20612   1.22819
 Alpha virt. eigenvalues --    1.25447   1.29311   1.34983   1.37381   1.40975
 Alpha virt. eigenvalues --    1.44867   1.49735   1.51219   1.53461   1.59033
 Alpha virt. eigenvalues --    1.68353   1.71650   1.82470   1.90234   1.94841
 Alpha virt. eigenvalues --    1.98115   2.02455   2.06833   2.11708   2.14013
 Alpha virt. eigenvalues --    2.16676   2.17071   2.18097   2.22018   2.26140
 Alpha virt. eigenvalues --    2.27730   2.29458   2.30878   2.31484   2.33508
 Alpha virt. eigenvalues --    2.38524   2.39766   2.43437   2.45416   2.47017
 Alpha virt. eigenvalues --    2.49099   2.49282   2.53060   2.55854   2.57306
 Alpha virt. eigenvalues --    2.59568   2.62157   2.64580   2.69783   2.70300
 Alpha virt. eigenvalues --    2.73383   2.75574   2.77672   2.85277   2.86970
 Alpha virt. eigenvalues --    2.93454   3.04531   3.10885   3.14115   3.60465
 Alpha virt. eigenvalues --    3.64791   3.88570   3.92296   3.99737   4.08175
 Alpha virt. eigenvalues --    4.14083   4.19674   4.22282   4.24734   4.26515
 Alpha virt. eigenvalues --    4.33977   4.47633   4.50796   4.54543   4.67128
 Alpha virt. eigenvalues --    4.88780   4.95870   4.99387   5.14375   5.15065
 Alpha virt. eigenvalues --    5.20416   5.41756   5.82636   6.03235   6.11259
 Alpha virt. eigenvalues --    6.15681   6.28045   6.29986   6.44198   6.49280
 Alpha virt. eigenvalues --    6.55674   6.75502   6.76995   6.78405   6.81072
 Alpha virt. eigenvalues --    6.85011   6.86714   6.87884   6.95919   6.98379
 Alpha virt. eigenvalues --    7.04666   7.11879   7.21580   7.42512   7.61496
 Alpha virt. eigenvalues --    7.77533   8.06402   8.09446  13.93162  14.57226
          Condensed to atoms (all electrons):
              1          2          3          4          5
     1  O    8.251928  -0.227243   0.197111   0.002039  -0.024894
     2  O   -0.227243   8.264440   0.013735   0.194189  -0.010912
     3  H    0.197111   0.013735   0.583398   0.001489  -0.000626
     4  H    0.002039   0.194189   0.001489   0.595227  -0.012401
     5  Kr  -0.024894  -0.010912  -0.000626  -0.012401  36.040032
 Mulliken atomic charges:
              1
     1  O   -0.198942
     2  O   -0.234209
     3  H    0.204893
     4  H    0.219458
     5  Kr   0.008801
 Sum of Mulliken atomic charges =   0.00000
 Mulliken charges with hydrogens summed into heavy atoms:
              1
     1  O    0.005951
     2  O   -0.014752
     5  Kr   0.008801
 Sum of Mulliken charges with hydrogens summed into heavy atoms =   0.00000
          Condensed to fragments (all electrons):
     1      -0.008801
     2       0.008801
 Electronic spatial extent (au):  <R**2>=            485.6536
 Charge=              0.0000 electrons
 Dipole moment (field-independent basis, Debye):
    X=              1.4791    Y=             -0.4112    Z=              1.4915  Tot=              2.1405
 Quadrupole moment (field-independent basis, Debye-Ang):
   XX=            -33.5972   YY=            -27.9435   ZZ=            -29.0774
   XY=              2.6584   XZ=             -3.5280   YZ=             -1.8101
 Traceless Quadrupole moment (field-independent basis, Debye-Ang):
   XX=             -3.3911   YY=              2.2625   ZZ=              1.1287
   XY=              2.6584   XZ=             -3.5280   YZ=             -1.8101
 Octapole moment (field-independent basis, Debye-Ang**2):
  XXX=             30.6343  YYY=             -1.1242  ZZZ=              1.2136  XYY=              4.9207
  XXY=             -8.8281  XXZ=              7.7428  XZZ=              5.3782  YZZ=             -1.8521
  YYZ=              2.2650  XYZ=              4.1853
 Hexadecapole moment (field-independent basis, Debye-Ang**3):
 XXXX=           -442.8997 YYYY=            -63.3133 ZZZZ=            -29.8595 XXXY=             20.7286
 XXXZ=            -18.4865 YYYX=              4.8112 YYYZ=             -2.6311 ZZZX=             -3.2371
 ZZZY=             -1.9352 XXYY=            -79.5555 XXZZ=            -71.6128 YYZZ=            -16.0169
 XXYZ=             -9.7357 YYXZ=             -5.0312 ZZXY=              3.7831
 N-N= 1.491283769891D+02 E-N=-7.235007240626D+03  KE= 2.900046287946D+03
 No NMR shielding tensors so no spin-rotation constants.
 Leave Link  601 at Tue May 12 19:41:44 2020, MaxMem= 1073741824 cpu:       0.7
 (Enter /home/matheus/.gaussian/g09/l122.exe)
 Counterpoise: doing DCBS calculation for fragment   1 NewBq=T
 Leave Link  122 at Tue May 12 19:41:44 2020, MaxMem= 1073741824 cpu:       0.0
 (Enter /home/matheus/.gaussian/g09/l301.exe)
 Basis read from rwf:  (5D, 7F)
 No pseudopotential information found on rwf file.
 There are   197 symmetry adapted basis functions of A   symmetry.
 Integral buffers will be    131072 words long.
 Raffenetti 2 integral format.
 Two-electron integral symmetry is turned on.
   197 basis functions,   415 primitive gaussians,   229 cartesian basis functions
     9 alpha electrons        9 beta electrons
       nuclear repulsion energy        36.6212539076 Hartrees.
 IExCor=32609 DFT=T Ex+Corr=LC-wPBE ExCW=0 ScaHFX=  1.000000
 ScaDFX=  1.000000  0.000000  1.000000  1.000000 ScalE2=  1.000000  1.000000
 IRadAn=      5 IRanWt=     -1 IRanGd=            0 ICorTp=0
  HFx wShort=  0.000000 wLong=  0.400000 cFull=  0.000000 cShort=  0.000000 cLong=  1.000000
  DFx wShort=  0.000000 wLong=  0.400000 cFull=  0.000000 cShort=  0.000000 cLong=  1.000000
 NAtoms=    5 NActive=    5 NUniq=    5 SFac= 1.00D+00 NAtFMM=   60 NAOKFM=F Big=F
 No density basis found on file   718.
 Leave Link  301 at Tue May 12 19:41:44 2020, MaxMem= 1073741824 cpu:       0.2
 (Enter /home/matheus/.gaussian/g09/l302.exe)
 NPDir=0 NMtPBC=     1 NCelOv=     1 NCel=       1 NClECP=     1 NCelD=      1
         NCelK=      1 NCelE2=     1 NClLst=     1 CellRange=     0.0.
 One-electron integrals computed using PRISM.
 NBasis=   197 RedAO= T  NBF=   197
 NBsUse=   197 1.00D-06 NBFU=   197
 Precomputing XC quadrature grid using
 IXCGrd= 2 IRadAn=           5 IRanWt=          -1 IRanGd=           0 AccXCQ= 0.00D+00.
 NRdTot=     427 NPtTot=      123512 NUsed=      126579 NTot=      126611
 NSgBfM=   229   229   229   229   229 NAtAll=     5     5.
 Leave Link  302 at Tue May 12 19:41:44 2020, MaxMem= 1073741824 cpu:       1.0
 (Enter /home/matheus/.gaussian/g09/l303.exe)
 DipDrv:  MaxL=1.
 Leave Link  303 at Tue May 12 19:41:44 2020, MaxMem= 1073741824 cpu:       0.2
 (Enter /home/matheus/.gaussian/g09/l401.exe)
 Harris functional with IExCor=32609 diagonalized for initial guess.
 ExpMin= 2.53D-02 ExpMax= 1.17D+07 ExpMxC= 1.33D+04 IAcc=3 IRadAn=         5 AccDes= 0.00D+00
 HarFok:  IExCor=32609 AccDes= 0.00D+00 IRadAn=         5 IDoV= 1
 ScaDFX=  1.000000  1.000000  1.000000  1.000000
 FoFCou: FMM=F IPFlag=           0 FMFlag=      100000 FMFlg1=           0
         NFxFlg=           0 DoJE=T BraDBF=F KetDBF=T FulRan=T
         Omega=  0.000000  0.000000  1.000000  0.000000  0.000000 ICntrl=     500 IOpCl=  0
         NMat0=    1 NMatS0=    1 NMatT0=    0 NMatD0=    1 NMtDS0=    0 NMtDT0=    0
         I1Cent=           4 NGrid=           0.
 Petite list used in FoFCou.
 Harris En= -151.502736849915    
 Initial guess orbital symmetries:
       Occupied  (A) (A) (A) (A) (A) (A) (A) (A) (A)
       Virtual   (A) (A) (A) (A) (A) (A) (A) (A) (A) (A) (A) (A)
                 (A) (A) (A) (A) (A) (A) (A) (A) (A) (A) (A) (A)
                 (A) (A) (A) (A) (A) (A) (A) (A) (A) (A) (A) (A)
                 (A) (A) (A) (A) (A) (A) (A) (A) (A) (A) (A) (A)
                 (A) (A) (A) (A) (A) (A) (A) (A) (A) (A) (A) (A)
                 (A) (A) (A) (A) (A) (A) (A) (A) (A) (A) (A) (A)
                 (A) (A) (A) (A) (A) (A) (A) (A) (A) (A) (A) (A)
                 (A) (A) (A) (A) (A) (A) (A) (A) (A) (A) (A) (A)
                 (A) (A) (A) (A) (A) (A) (A) (A) (A) (A) (A) (A)
                 (A) (A) (A) (A) (A) (A) (A) (A) (A) (A) (A) (A)
                 (A) (A) (A) (A) (A) (A) (A) (A) (A) (A) (A) (A)
                 (A) (A) (A) (A) (A) (A) (A) (A) (A) (A) (A) (A)
                 (A) (A) (A) (A) (A) (A) (A) (A) (A) (A) (A) (A)
                 (A) (A) (A) (A) (A) (A) (A) (A) (A) (A) (A) (A)
                 (A) (A) (A) (A) (A) (A) (A) (A) (A) (A) (A) (A)
                 (A) (A) (A) (A) (A) (A) (A) (A)
 The electronic state of the initial guess is 1-A.
 Leave Link  401 at Tue May 12 19:41:44 2020, MaxMem= 1073741824 cpu:       3.7
 (Enter /home/matheus/.gaussian/g09/l502.exe)
 Closed shell SCF:
 Requested convergence on RMS density matrix=1.00D-08 within 128 cycles.
 Requested convergence on MAX density matrix=1.00D-06.
 Requested convergence on             energy=1.00D-06.
 No special actions if energy rises.
 Using DIIS extrapolation, IDIIS=  1040.
 Integral symmetry usage will be decided dynamically.
       126521 words used for storage of precomputed grid.
 IEnd=      305468 IEndB=      305468 NGot=  1073741824 MDV=  1073505667
 LenX=  1073505667 LenY=  1073452785
 Fock matrices will be formed incrementally for  20 cycles.

 Cycle   1  Pass 1  IDiag  1:
 FoFJK:  IHMeth= 1 ICntrl=     0 DoSepK=T KAlg= 1 I1Cent= 0 FoldK=F
 FoFCou: FMM=F IPFlag=           0 FMFlag=      100000 FMFlg1=           0
         NFxFlg=           0 DoJE=T BraDBF=F KetDBF=F FulRan=T
         Omega=  0.000000  0.000000  1.000000  0.000000  0.000000 ICntrl=     500 IOpCl=  0
         NMat0=    1 NMatS0=    1 NMatT0=    0 NMatD0=    1 NMtDS0=    0 NMtDT0=    0
         I1Cent=           0 NGrid=           0.
 Symmetry not used in FoFCou.
 E= -151.499000758265    
 DIIS: error= 1.45D-02 at cycle   1 NSaved=   1.
 NSaved= 1 IEnMin= 1 EnMin= -151.499000758265     IErMin= 1 ErrMin= 1.45D-02
 ErrMax= 1.45D-02 EMaxC= 1.00D-01 BMatC= 3.86D-02 BMatP= 3.86D-02
 IDIUse=3 WtCom= 8.55D-01 WtEn= 1.45D-01
 Coeff-Com:  0.100D+01
 Coeff-En:   0.100D+01
 Coeff:      0.100D+01
 Gap=     0.516 Goal=   None    Shift=    0.000
 GapD=    0.516 DampG=2.000 DampE=0.500 DampFc=1.0000 IDamp=-1.
 RMSDP=8.33D-04 MaxDP=2.38D-02              OVMax= 5.67D-02

 Cycle   2  Pass 1  IDiag  1:
 RMSU=  5.83D-04    CP:  9.88D-01
 FoFJK:  IHMeth= 1 ICntrl=     0 DoSepK=T KAlg= 1 I1Cent= 0 FoldK=F
 E= -151.512577717431     Delta-E=       -0.013576959165 Rises=F Damp=F
 DIIS: error= 9.70D-03 at cycle   2 NSaved=   2.
 NSaved= 2 IEnMin= 2 EnMin= -151.512577717431     IErMin= 2 ErrMin= 9.70D-03
 ErrMax= 9.70D-03 EMaxC= 1.00D-01 BMatC= 2.16D-02 BMatP= 3.86D-02
 IDIUse=3 WtCom= 9.03D-01 WtEn= 9.70D-02
 Coeff-Com:  0.420D+00 0.580D+00
 Coeff-En:   0.256D+00 0.744D+00
 Coeff:      0.404D+00 0.596D+00
 Gap=     0.455 Goal=   None    Shift=    0.000
 RMSDP=4.52D-04 MaxDP=2.35D-02 DE=-1.36D-02 OVMax= 2.60D-02

 Cycle   3  Pass 1  IDiag  1:
 RMSU=  2.44D-04    CP:  9.84D-01  6.50D-01
 FoFJK:  IHMeth= 1 ICntrl=     0 DoSepK=T KAlg= 1 I1Cent= 0 FoldK=F
 E= -151.525053856757     Delta-E=       -0.012476139326 Rises=F Damp=F
 DIIS: error= 1.31D-03 at cycle   3 NSaved=   3.
 NSaved= 3 IEnMin= 3 EnMin= -151.525053856757     IErMin= 3 ErrMin= 1.31D-03
 ErrMax= 1.31D-03 EMaxC= 1.00D-01 BMatC= 4.00D-04 BMatP= 2.16D-02
 IDIUse=3 WtCom= 9.87D-01 WtEn= 1.31D-02
 Coeff-Com:  0.644D-01 0.151D+00 0.785D+00
 Coeff-En:   0.000D+00 0.000D+00 0.100D+01
 Coeff:      0.635D-01 0.149D+00 0.788D+00
 Gap=     0.449 Goal=   None    Shift=    0.000
 RMSDP=5.79D-05 MaxDP=2.31D-03 DE=-1.25D-02 OVMax= 3.97D-03

 Cycle   4  Pass 1  IDiag  1:
 RMSU=  2.88D-05    CP:  9.82D-01  6.94D-01  1.02D+00
 FoFJK:  IHMeth= 1 ICntrl=     0 DoSepK=T KAlg= 1 I1Cent= 0 FoldK=F
 E= -151.525299465191     Delta-E=       -0.000245608434 Rises=F Damp=F
 DIIS: error= 2.02D-04 at cycle   4 NSaved=   4.
 NSaved= 4 IEnMin= 4 EnMin= -151.525299465191     IErMin= 4 ErrMin= 2.02D-04
 ErrMax= 2.02D-04 EMaxC= 1.00D-01 BMatC= 1.36D-05 BMatP= 4.00D-04
 IDIUse=3 WtCom= 9.98D-01 WtEn= 2.02D-03
 Coeff-Com: -0.483D-02-0.879D-02 0.118D+00 0.896D+00
 Coeff-En:   0.000D+00 0.000D+00 0.000D+00 0.100D+01
 Coeff:     -0.482D-02-0.877D-02 0.117D+00 0.896D+00
 Gap=     0.451 Goal=   None    Shift=    0.000
 RMSDP=1.39D-05 MaxDP=8.82D-04 DE=-2.46D-04 OVMax= 7.40D-04

 Cycle   5  Pass 1  IDiag  1:
 RMSU=  5.59D-06    CP:  9.82D-01  6.93D-01  1.05D+00  1.02D+00
 FoFJK:  IHMeth= 1 ICntrl=     0 DoSepK=T KAlg= 1 I1Cent= 0 FoldK=F
 E= -151.525308895123     Delta-E=       -0.000009429932 Rises=F Damp=F
 DIIS: error= 2.71D-05 at cycle   5 NSaved=   5.
 NSaved= 5 IEnMin= 5 EnMin= -151.525308895123     IErMin= 5 ErrMin= 2.71D-05
 ErrMax= 2.71D-05 EMaxC= 1.00D-01 BMatC= 1.19D-07 BMatP= 1.36D-05
 IDIUse=1 WtCom= 1.00D+00 WtEn= 0.00D+00
 Coeff-Com: -0.919D-03-0.256D-02-0.285D-01-0.813D-01 0.111D+01
 Coeff:     -0.919D-03-0.256D-02-0.285D-01-0.813D-01 0.111D+01
 Gap=     0.451 Goal=   None    Shift=    0.000
 RMSDP=3.11D-06 MaxDP=1.12D-04 DE=-9.43D-06 OVMax= 2.54D-04

 Cycle   6  Pass 1  IDiag  1:
 RMSU=  9.88D-07    CP:  9.82D-01  6.94D-01  1.05D+00  1.04D+00  1.31D+00
 FoFJK:  IHMeth= 1 ICntrl=     0 DoSepK=T KAlg= 1 I1Cent= 0 FoldK=F
 E= -151.525309189760     Delta-E=       -0.000000294638 Rises=F Damp=F
 DIIS: error= 6.95D-06 at cycle   6 NSaved=   6.
 NSaved= 6 IEnMin= 6 EnMin= -151.525309189760     IErMin= 6 ErrMin= 6.95D-06
 ErrMax= 6.95D-06 EMaxC= 1.00D-01 BMatC= 5.35D-09 BMatP= 1.19D-07
 IDIUse=1 WtCom= 1.00D+00 WtEn= 0.00D+00
 Coeff-Com:  0.154D-03 0.383D-03-0.108D-02-0.154D-01-0.475D-01 0.106D+01
 Coeff:      0.154D-03 0.383D-03-0.108D-02-0.154D-01-0.475D-01 0.106D+01
 Gap=     0.451 Goal=   None    Shift=    0.000
 RMSDP=6.23D-07 MaxDP=2.04D-05 DE=-2.95D-07 OVMax= 8.13D-05

 Cycle   7  Pass 1  IDiag  1:
 RMSU=  2.34D-07    CP:  9.82D-01  6.94D-01  1.05D+00  1.05D+00  1.35D+00
                    CP:  1.22D+00
 FoFJK:  IHMeth= 1 ICntrl=     0 DoSepK=T KAlg= 1 I1Cent= 0 FoldK=F
 E= -151.525309206698     Delta-E=       -0.000000016938 Rises=F Damp=F
 DIIS: error= 2.03D-06 at cycle   7 NSaved=   7.
 NSaved= 7 IEnMin= 7 EnMin= -151.525309206698     IErMin= 7 ErrMin= 2.03D-06
 ErrMax= 2.03D-06 EMaxC= 1.00D-01 BMatC= 5.32D-10 BMatP= 5.35D-09
 IDIUse=1 WtCom= 1.00D+00 WtEn= 0.00D+00
 Coeff-Com:  0.386D-04 0.109D-03 0.141D-02 0.518D-02-0.634D-01-0.740D-01
 Coeff-Com:  0.113D+01
 Coeff:      0.386D-04 0.109D-03 0.141D-02 0.518D-02-0.634D-01-0.740D-01
 Coeff:      0.113D+01
 Gap=     0.451 Goal=   None    Shift=    0.000
 RMSDP=2.13D-07 MaxDP=5.30D-06 DE=-1.69D-08 OVMax= 3.40D-05

 Cycle   8  Pass 1  IDiag  1:
 RMSU=  5.77D-08    CP:  9.82D-01  6.94D-01  1.05D+00  1.05D+00  1.36D+00
                    CP:  1.30D+00  1.38D+00
 FoFJK:  IHMeth= 1 ICntrl=     0 DoSepK=T KAlg= 1 I1Cent= 0 FoldK=F
 E= -151.525309208764     Delta-E=       -0.000000002066 Rises=F Damp=F
 DIIS: error= 4.14D-07 at cycle   8 NSaved=   8.
 NSaved= 8 IEnMin= 8 EnMin= -151.525309208764     IErMin= 8 ErrMin= 4.14D-07
 ErrMax= 4.14D-07 EMaxC= 1.00D-01 BMatC= 3.46D-11 BMatP= 5.32D-10
 IDIUse=1 WtCom= 1.00D+00 WtEn= 0.00D+00
 Coeff-Com: -0.148D-04-0.474D-04-0.278D-03-0.107D-03 0.164D-01-0.458D-01
 Coeff-Com: -0.227D+00 0.126D+01
 Coeff:     -0.148D-04-0.474D-04-0.278D-03-0.107D-03 0.164D-01-0.458D-01
 Coeff:     -0.227D+00 0.126D+01
 Gap=     0.451 Goal=   None    Shift=    0.000
 RMSDP=7.40D-08 MaxDP=2.20D-06 DE=-2.07D-09 OVMax= 9.82D-06

 Cycle   9  Pass 1  IDiag  1:
 RMSU=  1.98D-08    CP:  9.82D-01  6.94D-01  1.05D+00  1.05D+00  1.36D+00
                    CP:  1.31D+00  1.52D+00  1.54D+00
 FoFJK:  IHMeth= 1 ICntrl=     0 DoSepK=T KAlg= 1 I1Cent= 0 FoldK=F
 E= -151.525309208938     Delta-E=       -0.000000000175 Rises=F Damp=F
 DIIS: error= 1.32D-07 at cycle   9 NSaved=   9.
 NSaved= 9 IEnMin= 9 EnMin= -151.525309208938     IErMin= 9 ErrMin= 1.32D-07
 ErrMax= 1.32D-07 EMaxC= 1.00D-01 BMatC= 7.32D-12 BMatP= 3.46D-11
 IDIUse=1 WtCom= 1.00D+00 WtEn= 0.00D+00
 Coeff-Com: -0.627D-05-0.200D-04-0.169D-03-0.357D-03 0.871D-02-0.835D-02
 Coeff-Com: -0.150D+00 0.413D+00 0.737D+00
 Coeff:     -0.627D-05-0.200D-04-0.169D-03-0.357D-03 0.871D-02-0.835D-02
 Coeff:     -0.150D+00 0.413D+00 0.737D+00
 Gap=     0.451 Goal=   None    Shift=    0.000
 RMSDP=1.62D-08 MaxDP=3.95D-07 DE=-1.75D-10 OVMax= 2.10D-06

 Cycle  10  Pass 1  IDiag  1:
 RMSU=  6.39D-09    CP:  9.82D-01  6.94D-01  1.05D+00  1.05D+00  1.36D+00
                    CP:  1.31D+00  1.54D+00  1.65D+00  1.18D+00
 FoFJK:  IHMeth= 1 ICntrl=     0 DoSepK=T KAlg= 1 I1Cent= 0 FoldK=F
 E= -151.525309208949     Delta-E=       -0.000000000011 Rises=F Damp=F
 DIIS: error= 8.33D-08 at cycle  10 NSaved=  10.
 NSaved=10 IEnMin=10 EnMin= -151.525309208949     IErMin=10 ErrMin= 8.33D-08
 ErrMax= 8.33D-08 EMaxC= 1.00D-01 BMatC= 2.45D-12 BMatP= 7.32D-12
 IDIUse=1 WtCom= 1.00D+00 WtEn= 0.00D+00
 Coeff-Com:  0.591D-06 0.186D-05-0.276D-04-0.220D-03 0.745D-03 0.958D-02
 Coeff-Com: -0.357D-01-0.969D-01 0.386D+00 0.736D+00
 Coeff:      0.591D-06 0.186D-05-0.276D-04-0.220D-03 0.745D-03 0.958D-02
 Coeff:     -0.357D-01-0.969D-01 0.386D+00 0.736D+00
 Gap=     0.451 Goal=   None    Shift=    0.000
 RMSDP=1.04D-08 MaxDP=2.63D-07 DE=-1.11D-11 OVMax= 1.41D-06

 Cycle  11  Pass 1  IDiag  1:
 RMSU=  2.56D-09    CP:  9.82D-01  6.94D-01  1.05D+00  1.05D+00  1.36D+00
                    CP:  1.31D+00  1.54D+00  1.71D+00  1.41D+00  1.01D+00
 FoFJK:  IHMeth= 1 ICntrl=     0 DoSepK=T KAlg= 1 I1Cent= 0 FoldK=F
 E= -151.525309208953     Delta-E=       -0.000000000003 Rises=F Damp=F
 DIIS: error= 2.20D-08 at cycle  11 NSaved=  11.
 NSaved=11 IEnMin=11 EnMin= -151.525309208953     IErMin=11 ErrMin= 2.20D-08
 ErrMax= 2.20D-08 EMaxC= 1.00D-01 BMatC= 1.17D-13 BMatP= 2.45D-12
 IDIUse=1 WtCom= 1.00D+00 WtEn= 0.00D+00
 Coeff-Com:  0.937D-06 0.301D-05 0.230D-04 0.468D-04-0.116D-02 0.163D-02
 Coeff-Com:  0.191D-01-0.274D-01-0.158D+00-0.677D-01 0.123D+01
 Coeff:      0.937D-06 0.301D-05 0.230D-04 0.468D-04-0.116D-02 0.163D-02
 Coeff:      0.191D-01-0.274D-01-0.158D+00-0.677D-01 0.123D+01
 Gap=     0.451 Goal=   None    Shift=    0.000
 RMSDP=5.02D-09 MaxDP=1.91D-07 DE=-3.30D-12 OVMax= 6.53D-07

 SCF Done:  E(RLC-wPBE) =  -151.525309209     A.U. after   11 cycles
             Convg  =    0.5019D-08             -V/T =  2.0068
 KE= 1.505060048412D+02 PE=-4.315132204671D+02 EE= 9.286065250936D+01
 Leave Link  502 at Tue May 12 19:42:15 2020, MaxMem= 1073741824 cpu:     244.6
 (Enter /home/matheus/.gaussian/g09/l601.exe)
 Copying SCF densities to generalized density rwf, IOpCl= 0 IROHF=0.

 **********************************************************************

            Population analysis using the SCF density.

 **********************************************************************

 Orbital symmetries:
       Occupied  (A) (A) (A) (A) (A) (A) (A) (A) (A)
       Virtual   (A) (A) (A) (A) (A) (A) (A) (A) (A) (A) (A) (A)
                 (A) (A) (A) (A) (A) (A) (A) (A) (A) (A) (A) (A)
                 (A) (A) (A) (A) (A) (A) (A) (A) (A) (A) (A) (A)
                 (A) (A) (A) (A) (A) (A) (A) (A) (A) (A) (A) (A)
                 (A) (A) (A) (A) (A) (A) (A) (A) (A) (A) (A) (A)
                 (A) (A) (A) (A) (A) (A) (A) (A) (A) (A) (A) (A)
                 (A) (A) (A) (A) (A) (A) (A) (A) (A) (A) (A) (A)
                 (A) (A) (A) (A) (A) (A) (A) (A) (A) (A) (A) (A)
                 (A) (A) (A) (A) (A) (A) (A) (A) (A) (A) (A) (A)
                 (A) (A) (A) (A) (A) (A) (A) (A) (A) (A) (A) (A)
                 (A) (A) (A) (A) (A) (A) (A) (A) (A) (A) (A) (A)
                 (A) (A) (A) (A) (A) (A) (A) (A) (A) (A) (A) (A)
                 (A) (A) (A) (A) (A) (A) (A) (A) (A) (A) (A) (A)
                 (A) (A) (A) (A) (A) (A) (A) (A) (A) (A) (A) (A)
                 (A) (A) (A) (A) (A) (A) (A) (A) (A) (A) (A) (A)
                 (A) (A) (A) (A) (A) (A) (A) (A)
 The electronic state is 1-A.
 Alpha  occ. eigenvalues --  -19.03786 -19.03783  -1.25550  -1.04205  -0.68930
 Alpha  occ. eigenvalues --   -0.60998  -0.55314  -0.43746  -0.42544
 Alpha virt. eigenvalues --    0.02546   0.03615   0.07061   0.08425   0.10074
 Alpha virt. eigenvalues --    0.10339   0.10837   0.13764   0.16760   0.17322
 Alpha virt. eigenvalues --    0.18534   0.18752   0.20854   0.22830   0.25285
 Alpha virt. eigenvalues --    0.26950   0.31092   0.31124   0.32601   0.33340
 Alpha virt. eigenvalues --    0.34107   0.37288   0.37712   0.39482   0.40765
 Alpha virt. eigenvalues --    0.43108   0.44228   0.46881   0.48111   0.49622
 Alpha virt. eigenvalues --    0.53607   0.57827   0.60665   0.62135   0.66894
 Alpha virt. eigenvalues --    0.71295   0.73844   0.75822   0.78348   0.79096
 Alpha virt. eigenvalues --    0.80811   0.81589   0.88217   0.90176   0.90628
 Alpha virt. eigenvalues --    0.91506   0.92477   0.94509   0.96795   0.97042
 Alpha virt. eigenvalues --    0.99591   1.01277   1.05434   1.09699   1.12183
 Alpha virt. eigenvalues --    1.13491   1.15279   1.20068   1.22379   1.24692
 Alpha virt. eigenvalues --    1.26852   1.28151   1.30172   1.31869   1.32761
 Alpha virt. eigenvalues --    1.34039   1.34904   1.37625   1.39108   1.41544
 Alpha virt. eigenvalues --    1.44332   1.48829   1.49212   1.51431   1.55651
 Alpha virt. eigenvalues --    1.59216   1.65648   1.67043   1.69624   1.78101
 Alpha virt. eigenvalues --    1.82397   1.85740   1.92678   1.95715   2.03427
 Alpha virt. eigenvalues --    2.05569   2.08277   2.15770   2.18559   2.23776
 Alpha virt. eigenvalues --    2.26204   2.30817   2.35190   2.37521   2.39534
 Alpha virt. eigenvalues --    2.45830   2.51329   2.54422   2.60100   2.64128
 Alpha virt. eigenvalues --    2.68866   2.70146   2.82064   2.84936   2.92488
 Alpha virt. eigenvalues --    3.03289   3.09615   3.11842   3.25923   3.30149
 Alpha virt. eigenvalues --    3.40477   3.54184   3.58929   3.66713   3.78336
 Alpha virt. eigenvalues --    3.78624   3.81851   3.81984   3.82409   3.83209
 Alpha virt. eigenvalues --    3.86468   3.88632   3.92315   3.93647   3.95867
 Alpha virt. eigenvalues --    3.97610   4.00905   4.05441   4.10404   4.15502
 Alpha virt. eigenvalues --    4.20873   4.21041   4.25779   4.29508   4.33117
 Alpha virt. eigenvalues --    4.41166   4.49479   4.55836   4.67154   4.89128
 Alpha virt. eigenvalues --    4.96114   4.99563   5.14398   5.15382   5.20759
 Alpha virt. eigenvalues --    5.41613   5.82522   6.02906   6.11206   6.15495
 Alpha virt. eigenvalues --    6.28000   6.29924   6.44129   6.49146   6.55535
 Alpha virt. eigenvalues --    6.75371   6.76598   6.78090   6.80798   6.84879
 Alpha virt. eigenvalues --    6.86444   6.87671   6.95676   6.98266   7.04522
 Alpha virt. eigenvalues --    7.11663   7.21351   7.42344   7.61282   7.77310
 Alpha virt. eigenvalues --    8.06122   8.08751  10.87904  13.92815  14.56530
 Alpha virt. eigenvalues --   14.83333  14.87737  15.09507  29.03093  29.03262
 Alpha virt. eigenvalues --   29.08001  29.13233  29.22950  49.09387 148.31496
 Alpha virt. eigenvalues --  148.37990 148.70286 752.47825
          Condensed to atoms (all electrons):
              1          2          3          4          5
     1  O    8.232218  -0.221507   0.189620  -0.000137  -0.000067
     2  O   -0.221507   8.231337   0.014474   0.194859  -0.000433
     3  H    0.189620   0.014474   0.595225   0.002619  -0.000946
     4  H   -0.000137   0.194859   0.002619   0.592112  -0.004415
     5  Kr  -0.000067  -0.000433  -0.000946  -0.004415   0.000977
 Mulliken atomic charges:
              1
     1  O   -0.200125
     2  O   -0.218731
     3  H    0.199008
     4  H    0.214963
     5  Kr   0.004885
 Sum of Mulliken atomic charges =   0.00000
 Mulliken charges with hydrogens summed into heavy atoms:
              1
     1  O   -0.001117
     2  O   -0.003768
     5  Kr   0.004885
 Sum of Mulliken charges with hydrogens summed into heavy atoms =   0.00000
          Condensed to fragments (all electrons):
     1      -0.004885
     2       0.004885
 Electronic spatial extent (au):  <R**2>=            321.4507
 Charge=              0.0000 electrons
 Dipole moment (field-independent basis, Debye):
    X=              1.2881    Y=             -0.1617    Z=              1.5859  Tot=              2.0495
 Quadrupole moment (field-independent basis, Debye-Ang):
   XX=            -15.9898   YY=            -10.3580   ZZ=            -11.5480
   XY=              2.7986   XZ=             -3.4589   YZ=             -1.8208
 Traceless Quadrupole moment (field-independent basis, Debye-Ang):
   XX=             -3.3578   YY=              2.2739   ZZ=              1.0840
   XY=              2.7986   XZ=             -3.4589   YZ=             -1.8208
 Octapole moment (field-independent basis, Debye-Ang**2):
  XXX=             81.5436  YYY=             -1.4092  ZZZ=              1.4161  XYY=             22.1071
  XXY=             -8.7197  XXZ=              7.8641  XZZ=             22.6099  YZZ=             -1.9503
  YYZ=              2.3322  XYZ=              4.1905
 Hexadecapole moment (field-independent basis, Debye-Ang**3):
 XXXX=           -320.9125 YYYY=            -45.1592 ZZZZ=            -11.7832 XXXY=             20.2901
 XXXZ=            -18.2770 YYYX=              4.5031 YYYZ=             -2.6531 ZZZX=             -3.0753
 ZZZY=             -1.9565 XXYY=            -56.2519 XXZZ=            -48.4566 YYZZ=             -9.9714
 XXYZ=             -9.7558 YYXZ=             -4.9684 ZZXY=              3.6488
 N-N= 3.662125390757D+01 E-N=-4.315132204111D+02  KE= 1.505060048412D+02
 No NMR shielding tensors so no spin-rotation constants.
 Leave Link  601 at Tue May 12 19:42:15 2020, MaxMem= 1073741824 cpu:       0.7
 (Enter /home/matheus/.gaussian/g09/l122.exe)
 Counterpoise: doing DCBS calculation for fragment   2 NewBq=T
 Leave Link  122 at Tue May 12 19:42:15 2020, MaxMem= 1073741824 cpu:       0.0
 (Enter /home/matheus/.gaussian/g09/l301.exe)
 Basis read from rwf:  (5D, 7F)
 No pseudopotential information found on rwf file.
 There are   197 symmetry adapted basis functions of A   symmetry.
 Integral buffers will be    131072 words long.
 Raffenetti 2 integral format.
 Two-electron integral symmetry is turned on.
   197 basis functions,   415 primitive gaussians,   229 cartesian basis functions
    18 alpha electrons       18 beta electrons
       nuclear repulsion energy         0.0000000000 Hartrees.
 IExCor=32609 DFT=T Ex+Corr=LC-wPBE ExCW=0 ScaHFX=  1.000000
 ScaDFX=  1.000000  0.000000  1.000000  1.000000 ScalE2=  1.000000  1.000000
 IRadAn=      5 IRanWt=     -1 IRanGd=            0 ICorTp=0
  HFx wShort=  0.000000 wLong=  0.400000 cFull=  0.000000 cShort=  0.000000 cLong=  1.000000
  DFx wShort=  0.000000 wLong=  0.400000 cFull=  0.000000 cShort=  0.000000 cLong=  1.000000
 NAtoms=    5 NActive=    5 NUniq=    5 SFac= 1.00D+00 NAtFMM=   60 NAOKFM=F Big=F
 No density basis found on file   718.
 Leave Link  301 at Tue May 12 19:42:15 2020, MaxMem= 1073741824 cpu:       0.2
 (Enter /home/matheus/.gaussian/g09/l302.exe)
 NPDir=0 NMtPBC=     1 NCelOv=     1 NCel=       1 NClECP=     1 NCelD=      1
         NCelK=      1 NCelE2=     1 NClLst=     1 CellRange=     0.0.
 One-electron integrals computed using PRISM.
 NBasis=   197 RedAO= T  NBF=   197
 NBsUse=   197 1.00D-06 NBFU=   197
 Precomputing XC quadrature grid using
 IXCGrd= 2 IRadAn=           5 IRanWt=          -1 IRanGd=           0 AccXCQ= 0.00D+00.
 NRdTot=     427 NPtTot=      123512 NUsed=      126579 NTot=      126611
 NSgBfM=   229   229   229   229   229 NAtAll=     5     5.
 Leave Link  302 at Tue May 12 19:42:15 2020, MaxMem= 1073741824 cpu:       0.9
 (Enter /home/matheus/.gaussian/g09/l303.exe)
 DipDrv:  MaxL=1.
 Leave Link  303 at Tue May 12 19:42:15 2020, MaxMem= 1073741824 cpu:       0.2
 (Enter /home/matheus/.gaussian/g09/l401.exe)
 Harris functional with IExCor=32609 diagonalized for initial guess.
 ExpMin= 2.53D-02 ExpMax= 1.17D+07 ExpMxC= 1.33D+04 IAcc=3 IRadAn=         5 AccDes= 0.00D+00
 HarFok:  IExCor=32609 AccDes= 0.00D+00 IRadAn=         5 IDoV= 1
 ScaDFX=  1.000000  1.000000  1.000000  1.000000
 FoFCou: FMM=F IPFlag=           0 FMFlag=      100000 FMFlg1=           0
         NFxFlg=           0 DoJE=T BraDBF=F KetDBF=T FulRan=T
         Omega=  0.000000  0.000000  1.000000  0.000000  0.000000 ICntrl=     500 IOpCl=  0
         NMat0=    1 NMatS0=    1 NMatT0=    0 NMatD0=    1 NMtDS0=    0 NMtDT0=    0
         I1Cent=           4 NGrid=           0.
 Petite list used in FoFCou.
 Harris En= -2753.24647730613    
 Initial guess orbital symmetries:
       Occupied  (A) (A) (A) (A) (A) (A) (A) (A) (A) (A) (A) (A)
                 (A) (A) (A) (A) (A) (A)
       Virtual   (A) (A) (A) (A) (A) (A) (A) (A) (A) (A) (A) (A)
                 (A) (A) (A) (A) (A) (A) (A) (A) (A) (A) (A) (A)
                 (A) (A) (A) (A) (A) (A) (A) (A) (A) (A) (A) (A)
                 (A) (A) (A) (A) (A) (A) (A) (A) (A) (A) (A) (A)
                 (A) (A) (A) (A) (A) (A) (A) (A) (A) (A) (A) (A)
                 (A) (A) (A) (A) (A) (A) (A) (A) (A) (A) (A) (A)
                 (A) (A) (A) (A) (A) (A) (A) (A) (A) (A) (A) (A)
                 (A) (A) (A) (A) (A) (A) (A) (A) (A) (A) (A) (A)
                 (A) (A) (A) (A) (A) (A) (A) (A) (A) (A) (A) (A)
                 (A) (A) (A) (A) (A) (A) (A) (A) (A) (A) (A) (A)
                 (A) (A) (A) (A) (A) (A) (A) (A) (A) (A) (A) (A)
                 (A) (A) (A) (A) (A) (A) (A) (A) (A) (A) (A) (A)
                 (A) (A) (A) (A) (A) (A) (A) (A) (A) (A) (A) (A)
                 (A) (A) (A) (A) (A) (A) (A) (A) (A) (A) (A) (A)
                 (A) (A) (A) (A) (A) (A) (A) (A) (A) (A) (A)
 The electronic state of the initial guess is 1-A.
 Leave Link  401 at Tue May 12 19:42:16 2020, MaxMem= 1073741824 cpu:       3.6
 (Enter /home/matheus/.gaussian/g09/l502.exe)
 Closed shell SCF:
 Requested convergence on RMS density matrix=1.00D-08 within 128 cycles.
 Requested convergence on MAX density matrix=1.00D-06.
 Requested convergence on             energy=1.00D-06.
 No special actions if energy rises.
 Using DIIS extrapolation, IDIIS=  1040.
 Integral symmetry usage will be decided dynamically.
       126521 words used for storage of precomputed grid.
 IEnd=      305468 IEndB=      305468 NGot=  1073741824 MDV=  1073505667
 LenX=  1073505667 LenY=  1073452785
 Fock matrices will be formed incrementally for  20 cycles.

 Cycle   1  Pass 1  IDiag  1:
 FoFJK:  IHMeth= 1 ICntrl=     0 DoSepK=T KAlg= 1 I1Cent= 0 FoldK=F
 FoFCou: FMM=F IPFlag=           0 FMFlag=      100000 FMFlg1=           0
         NFxFlg=           0 DoJE=T BraDBF=F KetDBF=F FulRan=T
         Omega=  0.000000  0.000000  1.000000  0.000000  0.000000 ICntrl=     500 IOpCl=  0
         NMat0=    1 NMatS0=    1 NMatT0=    0 NMatD0=    1 NMtDS0=    0 NMtDT0=    0
         I1Cent=           0 NGrid=           0.
 Symmetry not used in FoFCou.
 E= -2753.38972567062    
 DIIS: error= 2.32D-02 at cycle   1 NSaved=   1.
 NSaved= 1 IEnMin= 1 EnMin= -2753.38972567062     IErMin= 1 ErrMin= 2.32D-02
 ErrMax= 2.32D-02 EMaxC= 1.00D-01 BMatC= 2.22D-01 BMatP= 2.22D-01
 IDIUse=3 WtCom= 7.68D-01 WtEn= 2.32D-01
 Coeff-Com:  0.100D+01
 Coeff-En:   0.100D+01
 Coeff:      0.100D+01
 Gap=     0.610 Goal=   None    Shift=    0.000
 GapD=    0.610 DampG=2.000 DampE=0.500 DampFc=1.0000 IDamp=-1.
 RMSDP=2.10D-03 MaxDP=1.47D-01              OVMax= 5.10D-02

 Cycle   2  Pass 1  IDiag  1:
 RMSU=  1.44D-03    CP:  1.02D+00
 FoFJK:  IHMeth= 1 ICntrl=     0 DoSepK=T KAlg= 1 I1Cent= 0 FoldK=F
 E= -2753.42036249481     Delta-E=       -0.030636824195 Rises=F Damp=F
 DIIS: error= 9.57D-03 at cycle   2 NSaved=   2.
 NSaved= 2 IEnMin= 2 EnMin= -2753.42036249481     IErMin= 2 ErrMin= 9.57D-03
 ErrMax= 9.57D-03 EMaxC= 1.00D-01 BMatC= 5.51D-02 BMatP= 2.22D-01
 IDIUse=3 WtCom= 9.04D-01 WtEn= 9.57D-02
 Coeff-Com:  0.328D+00 0.672D+00
 Coeff-En:   0.130D+00 0.870D+00
 Coeff:      0.309D+00 0.691D+00
 Gap=     0.525 Goal=   None    Shift=    0.000
 RMSDP=7.88D-04 MaxDP=5.11D-02 DE=-3.06D-02 OVMax= 2.08D-02

 Cycle   3  Pass 1  IDiag  1:
 RMSU=  1.61D-04    CP:  1.01D+00  6.42D-01
 FoFJK:  IHMeth= 1 ICntrl=     0 DoSepK=T KAlg= 1 I1Cent= 0 FoldK=F
 E= -2753.43559008632     Delta-E=       -0.015227591502 Rises=F Damp=F
 DIIS: error= 1.03D-03 at cycle   3 NSaved=   3.
 NSaved= 3 IEnMin= 3 EnMin= -2753.43559008632     IErMin= 3 ErrMin= 1.03D-03
 ErrMax= 1.03D-03 EMaxC= 1.00D-01 BMatC= 5.25D-04 BMatP= 5.51D-02
 IDIUse=3 WtCom= 9.90D-01 WtEn= 1.03D-02
 Coeff-Com: -0.232D-03 0.880D-01 0.912D+00
 Coeff-En:   0.000D+00 0.000D+00 0.100D+01
 Coeff:     -0.230D-03 0.871D-01 0.913D+00
 Gap=     0.532 Goal=   None    Shift=    0.000
 RMSDP=7.02D-05 MaxDP=4.09D-03 DE=-1.52D-02 OVMax= 2.55D-03

 Cycle   4  Pass 1  IDiag  1:
 RMSU=  1.78D-05    CP:  1.01D+00  6.73D-01  1.00D+00
 FoFJK:  IHMeth= 1 ICntrl=     0 DoSepK=T KAlg= 1 I1Cent= 0 FoldK=F
 E= -2753.43575037211     Delta-E=       -0.000160285790 Rises=F Damp=F
 DIIS: error= 3.25D-05 at cycle   4 NSaved=   4.
 NSaved= 4 IEnMin= 4 EnMin= -2753.43575037211     IErMin= 4 ErrMin= 3.25D-05
 ErrMax= 3.25D-05 EMaxC= 1.00D-01 BMatC= 4.08D-07 BMatP= 5.25D-04
 IDIUse=1 WtCom= 1.00D+00 WtEn= 0.00D+00
 Coeff-Com: -0.125D-02-0.152D-01-0.113D+00 0.113D+01
 Coeff:     -0.125D-02-0.152D-01-0.113D+00 0.113D+01
 Gap=     0.531 Goal=   None    Shift=    0.000
 RMSDP=6.22D-06 MaxDP=2.45D-04 DE=-1.60D-04 OVMax= 3.88D-04

 Cycle   5  Pass 1  IDiag  1:
 RMSU=  2.17D-06    CP:  1.01D+00  6.73D-01  1.02D+00  1.12D+00
 FoFJK:  IHMeth= 1 ICntrl=     0 DoSepK=T KAlg= 1 I1Cent= 0 FoldK=F
 E= -2753.43575088760     Delta-E=       -0.000000515496 Rises=F Damp=F
 DIIS: error= 6.46D-06 at cycle   5 NSaved=   5.
 NSaved= 5 IEnMin= 5 EnMin= -2753.43575088760     IErMin= 5 ErrMin= 6.46D-06
 ErrMax= 6.46D-06 EMaxC= 1.00D-01 BMatC= 1.16D-08 BMatP= 4.08D-07
 IDIUse=1 WtCom= 1.00D+00 WtEn= 0.00D+00
 Coeff-Com:  0.277D-04-0.217D-02-0.247D-01 0.927D-01 0.934D+00
 Coeff:      0.277D-04-0.217D-02-0.247D-01 0.927D-01 0.934D+00
 Gap=     0.531 Goal=   None    Shift=    0.000
 RMSDP=7.18D-07 MaxDP=3.11D-05 DE=-5.15D-07 OVMax= 3.06D-05

 Cycle   6  Pass 1  IDiag  1:
 RMSU=  2.13D-07    CP:  1.01D+00  6.73D-01  1.02D+00  1.15D+00  1.03D+00
 FoFJK:  IHMeth= 1 ICntrl=     0 DoSepK=T KAlg= 1 I1Cent= 0 FoldK=F
 E= -2753.43575089722     Delta-E=       -0.000000009617 Rises=F Damp=F
 DIIS: error= 3.52D-07 at cycle   6 NSaved=   6.
 NSaved= 6 IEnMin= 6 EnMin= -2753.43575089722     IErMin= 6 ErrMin= 3.52D-07
 ErrMax= 3.52D-07 EMaxC= 1.00D-01 BMatC= 4.10D-11 BMatP= 1.16D-08
 IDIUse=1 WtCom= 1.00D+00 WtEn= 0.00D+00
 Coeff-Com:  0.247D-05 0.140D-03 0.164D-02-0.112D-01-0.810D-01 0.109D+01
 Coeff:      0.247D-05 0.140D-03 0.164D-02-0.112D-01-0.810D-01 0.109D+01
 Gap=     0.531 Goal=   None    Shift=    0.000
 RMSDP=9.81D-08 MaxDP=3.58D-06 DE=-9.62D-09 OVMax= 4.47D-06

 Cycle   7  Pass 1  IDiag  1:
 RMSU=  1.59D-08    CP:  1.01D+00  6.73D-01  1.02D+00  1.15D+00  1.05D+00
                    CP:  1.22D+00
 FoFJK:  IHMeth= 1 ICntrl=     0 DoSepK=T KAlg= 1 I1Cent= 0 FoldK=F
 E= -2753.43575089730     Delta-E=       -0.000000000082 Rises=F Damp=F
 DIIS: error= 7.63D-08 at cycle   7 NSaved=   7.
 NSaved= 7 IEnMin= 7 EnMin= -2753.43575089730     IErMin= 7 ErrMin= 7.63D-08
 ErrMax= 7.63D-08 EMaxC= 1.00D-01 BMatC= 1.38D-12 BMatP= 4.10D-11
 IDIUse=1 WtCom= 1.00D+00 WtEn= 0.00D+00
 Coeff-Com: -0.236D-06 0.231D-04 0.280D-03-0.139D-02-0.159D-01 0.120D+00
 Coeff-Com:  0.897D+00
 Coeff:     -0.236D-06 0.231D-04 0.280D-03-0.139D-02-0.159D-01 0.120D+00
 Coeff:      0.897D+00
 Gap=     0.531 Goal=   None    Shift=    0.000
 RMSDP=1.08D-08 MaxDP=3.99D-07 DE=-8.19D-11 OVMax= 6.27D-07

 Cycle   8  Pass 1  IDiag  1:
 RMSU=  3.67D-09    CP:  1.01D+00  6.73D-01  1.02D+00  1.15D+00  1.05D+00
                    CP:  1.25D+00  1.11D+00
 FoFJK:  IHMeth= 1 ICntrl=     0 DoSepK=T KAlg= 1 I1Cent= 0 FoldK=F
 E= -2753.43575089729     Delta-E=        0.000000000013 Rises=F Damp=F
 DIIS: error= 1.84D-08 at cycle   8 NSaved=   8.
 NSaved= 8 IEnMin= 7 EnMin= -2753.43575089730     IErMin= 8 ErrMin= 1.84D-08
 ErrMax= 1.84D-08 EMaxC= 1.00D-01 BMatC= 1.11D-13 BMatP= 1.38D-12
 IDIUse=1 WtCom= 1.00D+00 WtEn= 0.00D+00
 Coeff-Com: -0.282D-06-0.112D-04-0.130D-03 0.970D-03 0.520D-02-0.856D-01
 Coeff-Com:  0.736D-01 0.101D+01
 Coeff:     -0.282D-06-0.112D-04-0.130D-03 0.970D-03 0.520D-02-0.856D-01
 Coeff:      0.736D-01 0.101D+01
 Gap=     0.531 Goal=   None    Shift=    0.000
 RMSDP=3.81D-09 MaxDP=1.55D-07 DE= 1.27D-11 OVMax= 2.37D-07

 SCF Done:  E(RLC-wPBE) =  -2753.43575090     A.U. after    8 cycles
             Convg  =    0.3809D-08             -V/T =  2.0014
 KE= 2.749488876532D+03 PE=-6.578897377441D+03 EE= 1.075972750012D+03
 Leave Link  502 at Tue May 12 19:42:39 2020, MaxMem= 1073741824 cpu:     185.4
 (Enter /home/matheus/.gaussian/g09/l601.exe)
 Copying SCF densities to generalized density rwf, IOpCl= 0 IROHF=0.

 **********************************************************************

            Population analysis using the SCF density.

 **********************************************************************

 Orbital symmetries:
       Occupied  (A) (A) (A) (A) (A) (A) (A) (A) (A) (A) (A) (A)
                 (A) (A) (A) (A) (A) (A)
       Virtual   (A) (A) (A) (A) (A) (A) (A) (A) (A) (A) (A) (A)
                 (A) (A) (A) (A) (A) (A) (A) (A) (A) (A) (A) (A)
                 (A) (A) (A) (A) (A) (A) (A) (A) (A) (A) (A) (A)
                 (A) (A) (A) (A) (A) (A) (A) (A) (A) (A) (A) (A)
                 (A) (A) (A) (A) (A) (A) (A) (A) (A) (A) (A) (A)
                 (A) (A) (A) (A) (A) (A) (A) (A) (A) (A) (A) (A)
                 (A) (A) (A) (A) (A) (A) (A) (A) (A) (A) (A) (A)
                 (A) (A) (A) (A) (A) (A) (A) (A) (A) (A) (A) (A)
                 (A) (A) (A) (A) (A) (A) (A) (A) (A) (A) (A) (A)
                 (A) (A) (A) (A) (A) (A) (A) (A) (A) (A) (A) (A)
                 (A) (A) (A) (A) (A) (A) (A) (A) (A) (A) (A) (A)
                 (A) (A) (A) (A) (A) (A) (A) (A) (A) (A) (A) (A)
                 (A) (A) (A) (A) (A) (A) (A) (A) (A) (A) (A) (A)
                 (A) (A) (A) (A) (A) (A) (A) (A) (A) (A) (A) (A)
                 (A) (A) (A) (A) (A) (A) (A) (A) (A) (A) (A)
 The electronic state is 1-A.
 Alpha  occ. eigenvalues -- -511.10625 -66.65304 -60.31518 -60.31515 -60.31515
 Alpha  occ. eigenvalues --   -9.58573  -7.32996  -7.32994  -7.32994  -3.28540
 Alpha  occ. eigenvalues --   -3.28540  -3.28539  -3.28538  -3.28538  -1.03232
 Alpha  occ. eigenvalues --   -0.50220  -0.50217  -0.50216
 Alpha virt. eigenvalues --    0.02925   0.04904   0.08442   0.09138   0.11681
 Alpha virt. eigenvalues --    0.12186   0.13243   0.13694   0.16232   0.16957
 Alpha virt. eigenvalues --    0.17756   0.19654   0.20759   0.25955   0.27172
 Alpha virt. eigenvalues --    0.27701   0.28464   0.30882   0.33285   0.34374
 Alpha virt. eigenvalues --    0.35965   0.37325   0.38470   0.39567   0.41404
 Alpha virt. eigenvalues --    0.42106   0.42876   0.53410   0.54036   0.58497
 Alpha virt. eigenvalues --    0.58662   0.66465   0.67908   0.69579   0.71785
 Alpha virt. eigenvalues --    0.74743   0.74994   0.76809   0.77726   0.79156
 Alpha virt. eigenvalues --    0.80188   0.80836   0.83093   0.85628   0.86915
 Alpha virt. eigenvalues --    0.88194   0.88859   0.90399   0.91619   0.95681
 Alpha virt. eigenvalues --    0.96861   0.98310   0.98914   0.99455   1.01734
 Alpha virt. eigenvalues --    1.04939   1.07335   1.07941   1.09880   1.11784
 Alpha virt. eigenvalues --    1.16028   1.20398   1.23573   1.27035   1.28930
 Alpha virt. eigenvalues --    1.33100   1.34351   1.38756   1.44573   1.45318
 Alpha virt. eigenvalues --    1.53556   1.56924   1.59172   1.74239   1.76966
 Alpha virt. eigenvalues --    1.79020   1.82869   1.86441   1.98757   2.15557
 Alpha virt. eigenvalues --    2.18845   2.24387   2.27465   2.29836   2.30503
 Alpha virt. eigenvalues --    2.32023   2.32740   2.36224   2.39514   2.40716
 Alpha virt. eigenvalues --    2.42803   2.45546   2.46510   2.49145   2.49800
 Alpha virt. eigenvalues --    2.51478   2.53299   2.55029   2.56431   2.57551
 Alpha virt. eigenvalues --    2.61752   2.62849   2.64617   2.68427   2.71649
 Alpha virt. eigenvalues --    2.73368   2.77953   2.84068   2.88344   2.89255
 Alpha virt. eigenvalues --    2.94549   2.99074   3.03453   3.11453   3.19923
 Alpha virt. eigenvalues --    3.23970   3.24660   3.30681   3.37025   3.48251
 Alpha virt. eigenvalues --    3.60917   3.64032   3.82809   3.86638   4.03947
 Alpha virt. eigenvalues --    4.34278   4.41838   4.50711   4.56976   4.65667
 Alpha virt. eigenvalues --    4.72815   4.87315   4.91153   4.94420   5.00033
 Alpha virt. eigenvalues --    5.13628   5.21965   5.59357   5.65162   5.75745
 Alpha virt. eigenvalues --    5.91903   6.02268   6.11792   6.74214   6.88369
 Alpha virt. eigenvalues --    7.37777   7.45517   7.58570   7.62148   7.75618
 Alpha virt. eigenvalues --    7.82751   7.91783   8.12781   8.16804   8.22006
 Alpha virt. eigenvalues --    8.40462   8.47672   8.57303   8.85976   9.65684
 Alpha virt. eigenvalues --    9.75928   9.84461   9.89364   9.90452   9.99661
 Alpha virt. eigenvalues --   10.14680  10.33941  10.35947  10.97711  11.51849
 Alpha virt. eigenvalues --   11.66048  11.79104  12.06655  12.10157  13.23176
 Alpha virt. eigenvalues --   13.62848  14.52046  62.78556  64.69090
          Condensed to atoms (all electrons):
              1          2          3          4          5
     1  O    0.001157  -0.001174  -0.000652   0.000849  -0.006787
     2  O   -0.001174   0.003956   0.000325  -0.003082   0.001422
     3  H   -0.000652   0.000325   0.000513  -0.000182   0.000939
     4  H    0.000849  -0.003082  -0.000182   0.003751  -0.028792
     5  Kr  -0.006787   0.001422   0.000939  -0.028792  36.064890
 Mulliken atomic charges:
              1
     1  O    0.006607
     2  O   -0.001448
     3  H   -0.000943
     4  H    0.027456
     5  Kr  -0.031672
 Sum of Mulliken atomic charges =   0.00000
 Mulliken charges with hydrogens summed into heavy atoms:
              1
     1  O    0.005664
     2  O    0.026008
     5  Kr  -0.031672
 Sum of Mulliken charges with hydrogens summed into heavy atoms =   0.00000
          Condensed to fragments (all electrons):
     1       0.031672
     2      -0.031672
 Electronic spatial extent (au):  <R**2>=            164.3093
 Charge=              0.0000 electrons
 Dipole moment (field-independent basis, Debye):
    X=             -0.0006    Y=              0.0003    Z=              0.0001  Tot=              0.0007
 Quadrupole moment (field-independent basis, Debye-Ang):
   XX=            -17.6143   YY=            -17.6230   ZZ=            -17.6283
   XY=             -0.0033   XZ=             -0.0005   YZ=              0.0001
 Traceless Quadrupole moment (field-independent basis, Debye-Ang):
   XX=              0.0075   YY=             -0.0011   ZZ=             -0.0064
   XY=             -0.0033   XZ=             -0.0005   YZ=              0.0001
 Octapole moment (field-independent basis, Debye-Ang**2):
  XXX=            -52.1022  YYY=              0.6177  ZZZ=             -0.0373  XYY=            -17.3770
  XXY=              0.2005  XXZ=             -0.0137  XZZ=            -17.3798  YZZ=              0.2068
  YYZ=             -0.0125  XYZ=              0.0000
 Hexadecapole moment (field-independent basis, Debye-Ang**3):
 XXXX=           -121.1013 YYYY=            -18.3870 ZZZZ=            -18.3898 XXXY=              0.5999
 XXXZ=             -0.0393 YYYX=              0.6001 YYYZ=              0.0003 ZZZX=             -0.0389
 ZZZY=              0.0010 XXYY=            -23.2570 XXZZ=            -23.2573 YYZZ=             -6.1286
 XXYZ=              0.0002 YYXZ=             -0.0125 ZZXY=              0.1989
 N-N= 0.000000000000D+00 E-N=-6.578897379151D+03  KE= 2.749488876532D+03
 No NMR shielding tensors so no spin-rotation constants.
 Leave Link  601 at Tue May 12 19:42:39 2020, MaxMem= 1073741824 cpu:       0.7
 (Enter /home/matheus/.gaussian/g09/l122.exe)
 Counterpoise: doing MCBS calculation for fragment   1
 Leave Link  122 at Tue May 12 19:42:39 2020, MaxMem= 1073741824 cpu:       0.0
 (Enter /home/matheus/.gaussian/g09/l301.exe)
 Basis read from rwf:  (5D, 7F)
 No pseudopotential information found on rwf file.
 There are   138 symmetry adapted basis functions of A   symmetry.
 Integral buffers will be    131072 words long.
 Raffenetti 2 integral format.
 Two-electron integral symmetry is turned on.
   138 basis functions,   198 primitive gaussians,   160 cartesian basis functions
     9 alpha electrons        9 beta electrons
       nuclear repulsion energy        36.6212539076 Hartrees.
 IExCor=32609 DFT=T Ex+Corr=LC-wPBE ExCW=0 ScaHFX=  1.000000
 ScaDFX=  1.000000  0.000000  1.000000  1.000000 ScalE2=  1.000000  1.000000
 IRadAn=      5 IRanWt=     -1 IRanGd=            0 ICorTp=0
  HFx wShort=  0.000000 wLong=  0.400000 cFull=  0.000000 cShort=  0.000000 cLong=  1.000000
  DFx wShort=  0.000000 wLong=  0.400000 cFull=  0.000000 cShort=  0.000000 cLong=  1.000000
 NAtoms=    5 NActive=    4 NUniq=    4 SFac= 1.00D+00 NAtFMM=   60 NAOKFM=F Big=F
 No density basis found on file   718.
 Leave Link  301 at Tue May 12 19:42:39 2020, MaxMem= 1073741824 cpu:       0.2
 (Enter /home/matheus/.gaussian/g09/l302.exe)
 NPDir=0 NMtPBC=     1 NCelOv=     1 NCel=       1 NClECP=     1 NCelD=      1
         NCelK=      1 NCelE2=     1 NClLst=     1 CellRange=     0.0.
 One-electron integrals computed using PRISM.
 NBasis=   138 RedAO= T  NBF=   138
 NBsUse=   138 1.00D-06 NBFU=   138
 Precomputing XC quadrature grid using
 IXCGrd= 2 IRadAn=           5 IRanWt=          -1 IRanGd=           0 AccXCQ= 0.00D+00.
 NRdTot=     344 NPtTot=       92556 NUsed=       95038 NTot=       95070
 NSgBfM=   160   160   160   160   160 NAtAll=     4     4.
 Leave Link  302 at Tue May 12 19:42:39 2020, MaxMem= 1073741824 cpu:       0.8
 (Enter /home/matheus/.gaussian/g09/l303.exe)
 DipDrv:  MaxL=1.
 Leave Link  303 at Tue May 12 19:42:39 2020, MaxMem= 1073741824 cpu:       0.1
 (Enter /home/matheus/.gaussian/g09/l401.exe)
 Harris functional with IExCor=32609 diagonalized for initial guess.
 ExpMin= 2.53D-02 ExpMax= 1.53D+04 ExpMxC= 5.22D+02 IAcc=3 IRadAn=         5 AccDes= 0.00D+00
 HarFok:  IExCor=32609 AccDes= 0.00D+00 IRadAn=         5 IDoV= 1
 ScaDFX=  1.000000  1.000000  1.000000  1.000000
 FoFCou: FMM=F IPFlag=           0 FMFlag=      100000 FMFlg1=           0
         NFxFlg=           0 DoJE=T BraDBF=F KetDBF=T FulRan=T
         Omega=  0.000000  0.000000  1.000000  0.000000  0.000000 ICntrl=     500 IOpCl=  0
         NMat0=    1 NMatS0=    1 NMatT0=    0 NMatD0=    1 NMtDS0=    0 NMtDT0=    0
         I1Cent=           4 NGrid=           0.
 Petite list used in FoFCou.
 Harris En= -151.502636081728    
 Initial guess orbital symmetries:
       Occupied  (A) (A) (A) (A) (A) (A) (A) (A) (A)
       Virtual   (A) (A) (A) (A) (A) (A) (A) (A) (A) (A) (A) (A)
                 (A) (A) (A) (A) (A) (A) (A) (A) (A) (A) (A) (A)
                 (A) (A) (A) (A) (A) (A) (A) (A) (A) (A) (A) (A)
                 (A) (A) (A) (A) (A) (A) (A) (A) (A) (A) (A) (A)
                 (A) (A) (A) (A) (A) (A) (A) (A) (A) (A) (A) (A)
                 (A) (A) (A) (A) (A) (A) (A) (A) (A) (A) (A) (A)
                 (A) (A) (A) (A) (A) (A) (A) (A) (A) (A) (A) (A)
                 (A) (A) (A) (A) (A) (A) (A) (A) (A) (A) (A) (A)
                 (A) (A) (A) (A) (A) (A) (A) (A) (A) (A) (A) (A)
                 (A) (A) (A) (A) (A) (A) (A) (A) (A) (A) (A) (A)
                 (A) (A) (A) (A) (A) (A) (A) (A) (A)
 The electronic state of the initial guess is 1-A.
 Leave Link  401 at Tue May 12 19:42:39 2020, MaxMem= 1073741824 cpu:       2.0
 (Enter /home/matheus/.gaussian/g09/l502.exe)
 Closed shell SCF:
 Requested convergence on RMS density matrix=1.00D-08 within 128 cycles.
 Requested convergence on MAX density matrix=1.00D-06.
 Requested convergence on             energy=1.00D-06.
 No special actions if energy rises.
 Using DIIS extrapolation, IDIIS=  1040.
 Integral symmetry usage will be decided dynamically.
        94980 words used for storage of precomputed grid.
 IEnd=      192360 IEndB=      192360 NGot=  1073741824 MDV=  1073591865
 LenX=  1073591865 LenY=  1073565824
 Fock matrices will be formed incrementally for  20 cycles.

 Cycle   1  Pass 1  IDiag  1:
 FoFJK:  IHMeth= 1 ICntrl=     0 DoSepK=T KAlg= 1 I1Cent= 0 FoldK=F
 FoFCou: FMM=F IPFlag=           0 FMFlag=      100000 FMFlg1=           0
         NFxFlg=           0 DoJE=T BraDBF=F KetDBF=F FulRan=T
         Omega=  0.000000  0.000000  1.000000  0.000000  0.000000 ICntrl=     500 IOpCl=  0
         NMat0=    1 NMatS0=    1 NMatT0=    0 NMatD0=    1 NMtDS0=    0 NMtDT0=    0
         I1Cent=           0 NGrid=           0.
 Symmetry not used in FoFCou.
 E= -151.498958924379    
 DIIS: error= 1.53D-02 at cycle   1 NSaved=   1.
 NSaved= 1 IEnMin= 1 EnMin= -151.498958924379     IErMin= 1 ErrMin= 1.53D-02
 ErrMax= 1.53D-02 EMaxC= 1.00D-01 BMatC= 3.86D-02 BMatP= 3.86D-02
 IDIUse=3 WtCom= 8.47D-01 WtEn= 1.53D-01
 Coeff-Com:  0.100D+01
 Coeff-En:   0.100D+01
 Coeff:      0.100D+01
 Gap=     0.516 Goal=   None    Shift=    0.000
 GapD=    0.516 DampG=2.000 DampE=0.500 DampFc=1.0000 IDamp=-1.
 RMSDP=1.16D-03 MaxDP=2.31D-02              OVMax= 5.66D-02

 Cycle   2  Pass 1  IDiag  1:
 RMSU=  8.10D-04    CP:  9.88D-01
 FoFJK:  IHMeth= 1 ICntrl=     0 DoSepK=T KAlg= 1 I1Cent= 0 FoldK=F
 E= -151.512522795936     Delta-E=       -0.013563871557 Rises=F Damp=F
 DIIS: error= 1.10D-02 at cycle   2 NSaved=   2.
 NSaved= 2 IEnMin= 2 EnMin= -151.512522795936     IErMin= 2 ErrMin= 1.10D-02
 ErrMax= 1.10D-02 EMaxC= 1.00D-01 BMatC= 2.16D-02 BMatP= 3.86D-02
 IDIUse=3 WtCom= 8.90D-01 WtEn= 1.10D-01
 Coeff-Com:  0.420D+00 0.580D+00
 Coeff-En:   0.256D+00 0.744D+00
 Coeff:      0.402D+00 0.598D+00
 Gap=     0.458 Goal=   None    Shift=    0.000
 RMSDP=6.36D-04 MaxDP=2.29D-02 DE=-1.36D-02 OVMax= 2.60D-02

 Cycle   3  Pass 1  IDiag  1:
 RMSU=  3.45D-04    CP:  9.85D-01  6.47D-01
 FoFJK:  IHMeth= 1 ICntrl=     0 DoSepK=T KAlg= 1 I1Cent= 0 FoldK=F
 E= -151.524976669351     Delta-E=       -0.012453873415 Rises=F Damp=F
 DIIS: error= 2.26D-03 at cycle   3 NSaved=   3.
 NSaved= 3 IEnMin= 3 EnMin= -151.524976669351     IErMin= 3 ErrMin= 2.26D-03
 ErrMax= 2.26D-03 EMaxC= 1.00D-01 BMatC= 4.18D-04 BMatP= 2.16D-02
 IDIUse=3 WtCom= 9.77D-01 WtEn= 2.26D-02
 Coeff-Com:  0.645D-01 0.154D+00 0.782D+00
 Coeff-En:   0.000D+00 0.000D+00 0.100D+01
 Coeff:      0.630D-01 0.150D+00 0.787D+00
 Gap=     0.452 Goal=   None    Shift=    0.000
 RMSDP=8.35D-05 MaxDP=2.12D-03 DE=-1.25D-02 OVMax= 4.01D-03

 Cycle   4  Pass 1  IDiag  1:
 RMSU=  4.10D-05    CP:  9.83D-01  6.95D-01  1.02D+00
 FoFJK:  IHMeth= 1 ICntrl=     0 DoSepK=T KAlg= 1 I1Cent= 0 FoldK=F
 E= -151.525233071127     Delta-E=       -0.000256401776 Rises=F Damp=F
 DIIS: error= 3.58D-04 at cycle   4 NSaved=   4.
 NSaved= 4 IEnMin= 4 EnMin= -151.525233071127     IErMin= 4 ErrMin= 3.58D-04
 ErrMax= 3.58D-04 EMaxC= 1.00D-01 BMatC= 1.44D-05 BMatP= 4.18D-04
 IDIUse=3 WtCom= 9.96D-01 WtEn= 3.58D-03
 Coeff-Com: -0.481D-02-0.877D-02 0.120D+00 0.894D+00
 Coeff-En:   0.000D+00 0.000D+00 0.000D+00 0.100D+01
 Coeff:     -0.479D-02-0.874D-02 0.119D+00 0.894D+00
 Gap=     0.454 Goal=   None    Shift=    0.000
 RMSDP=2.00D-05 MaxDP=8.78D-04 DE=-2.56D-04 OVMax= 7.54D-04

 Cycle   5  Pass 1  IDiag  1:
 RMSU=  7.96D-06    CP:  9.83D-01  6.93D-01  1.05D+00  1.02D+00
 FoFJK:  IHMeth= 1 ICntrl=     0 DoSepK=T KAlg= 1 I1Cent= 0 FoldK=F
 E= -151.525242958619     Delta-E=       -0.000009887492 Rises=F Damp=F
 DIIS: error= 3.98D-05 at cycle   5 NSaved=   5.
 NSaved= 5 IEnMin= 5 EnMin= -151.525242958619     IErMin= 5 ErrMin= 3.98D-05
 ErrMax= 3.98D-05 EMaxC= 1.00D-01 BMatC= 1.19D-07 BMatP= 1.44D-05
 IDIUse=1 WtCom= 1.00D+00 WtEn= 0.00D+00
 Coeff-Com: -0.919D-03-0.261D-02-0.289D-01-0.819D-01 0.111D+01
 Coeff:     -0.919D-03-0.261D-02-0.289D-01-0.819D-01 0.111D+01
 Gap=     0.454 Goal=   None    Shift=    0.000
 RMSDP=4.50D-06 MaxDP=9.10D-05 DE=-9.89D-06 OVMax= 2.55D-04

 Cycle   6  Pass 1  IDiag  1:
 RMSU=  1.37D-06    CP:  9.83D-01  6.95D-01  1.05D+00  1.04D+00  1.30D+00
 FoFJK:  IHMeth= 1 ICntrl=     0 DoSepK=T KAlg= 1 I1Cent= 0 FoldK=F
 E= -151.525243249275     Delta-E=       -0.000000290656 Rises=F Damp=F
 DIIS: error= 8.51D-06 at cycle   6 NSaved=   6.
 NSaved= 6 IEnMin= 6 EnMin= -151.525243249275     IErMin= 6 ErrMin= 8.51D-06
 ErrMax= 8.51D-06 EMaxC= 1.00D-01 BMatC= 5.33D-09 BMatP= 1.19D-07
 IDIUse=1 WtCom= 1.00D+00 WtEn= 0.00D+00
 Coeff-Com:  0.153D-03 0.382D-03-0.114D-02-0.154D-01-0.467D-01 0.106D+01
 Coeff:      0.153D-03 0.382D-03-0.114D-02-0.154D-01-0.467D-01 0.106D+01
 Gap=     0.454 Goal=   None    Shift=    0.000
 RMSDP=8.74D-07 MaxDP=1.46D-05 DE=-2.91D-07 OVMax= 8.11D-05

 Cycle   7  Pass 1  IDiag  1:
 RMSU=  3.28D-07    CP:  9.83D-01  6.95D-01  1.05D+00  1.05D+00  1.34D+00
                    CP:  1.22D+00
 FoFJK:  IHMeth= 1 ICntrl=     0 DoSepK=T KAlg= 1 I1Cent= 0 FoldK=F
 E= -151.525243266116     Delta-E=       -0.000000016842 Rises=F Damp=F
 DIIS: error= 2.86D-06 at cycle   7 NSaved=   7.
[...]
 Coeff:      0.100D+01
 Gap=     0.530 Goal=   None    Shift=    0.000
 RMSDP=1.40D-05 MaxDP=7.07D-04              OVMax= 2.59D-04

 Cycle   2  Pass 1  IDiag  1:
 RMSU=  9.88D-06    CP:  1.00D+00
 FoFJK:  IHMeth= 1 ICntrl=     0 DoSepK=T KAlg= 1 I1Cent= 0 FoldK=F
 E= -2753.43565019281     Delta-E=       -0.000000439575 Rises=F Damp=F
 DIIS: error= 3.14D-06 at cycle   2 NSaved=   2.
 NSaved= 2 IEnMin= 2 EnMin= -2753.43565019281     IErMin= 2 ErrMin= 3.14D-06
 ErrMax= 3.14D-06 EMaxC= 1.00D-01 BMatC= 2.63D-09 BMatP= 4.71D-06
 IDIUse=1 WtCom= 1.00D+00 WtEn= 0.00D+00
 Coeff-Com: -0.660D-02 0.101D+01
 Coeff:     -0.660D-02 0.101D+01
 Gap=     0.530 Goal=   None    Shift=    0.000
 RMSDP=1.46D-06 MaxDP=6.03D-05 DE=-4.40D-07 OVMax= 3.81D-05

 Cycle   3  Pass 1  IDiag  1:
 RMSU=  4.98D-07    CP:  1.00D+00  1.09D+00
 FoFJK:  IHMeth= 1 ICntrl=     0 DoSepK=T KAlg= 1 I1Cent= 0 FoldK=F
 E= -2753.43565019734     Delta-E=       -0.000000004533 Rises=F Damp=F
 DIIS: error= 5.26D-07 at cycle   3 NSaved=   3.
 NSaved= 3 IEnMin= 3 EnMin= -2753.43565019734     IErMin= 3 ErrMin= 5.26D-07
 ErrMax= 5.26D-07 EMaxC= 1.00D-01 BMatC= 7.25D-11 BMatP= 2.63D-09
 IDIUse=1 WtCom= 1.00D+00 WtEn= 0.00D+00
 Coeff-Com:  0.199D-03-0.106D+00 0.111D+01
 Coeff:      0.199D-03-0.106D+00 0.111D+01
 Gap=     0.530 Goal=   None    Shift=    0.000
 RMSDP=1.79D-07 MaxDP=7.85D-06 DE=-4.53D-09 OVMax= 7.52D-06

 Cycle   4  Pass 1  IDiag  1:
 RMSU=  4.58D-08    CP:  1.00D+00  1.10D+00  1.17D+00
 FoFJK:  IHMeth= 1 ICntrl=     0 DoSepK=T KAlg= 1 I1Cent= 0 FoldK=F
 E= -2753.43565019747     Delta-E=       -0.000000000131 Rises=F Damp=F
 DIIS: error= 2.70D-07 at cycle   4 NSaved=   4.
 NSaved= 4 IEnMin= 4 EnMin= -2753.43565019747     IErMin= 4 ErrMin= 2.70D-07
 ErrMax= 2.70D-07 EMaxC= 1.00D-01 BMatC= 1.15D-11 BMatP= 7.25D-11
 IDIUse=1 WtCom= 1.00D+00 WtEn= 0.00D+00
 Coeff-Com:  0.184D-03-0.525D-01 0.334D+00 0.718D+00
 Coeff:      0.184D-03-0.525D-01 0.334D+00 0.718D+00
 Gap=     0.530 Goal=   None    Shift=    0.000
 RMSDP=1.64D-08 MaxDP=6.57D-07 DE=-1.31D-10 OVMax= 8.55D-07

 Cycle   5  Pass 1  IDiag  1:
 RMSU=  8.78D-09    CP:  1.00D+00  1.10D+00  1.18D+00  1.09D+00
 FoFJK:  IHMeth= 1 ICntrl=     0 DoSepK=T KAlg= 1 I1Cent= 0 FoldK=F
 E= -2753.43565019747     Delta-E=        0.000000000001 Rises=F Damp=F
 DIIS: error= 3.30D-08 at cycle   5 NSaved=   5.
 NSaved= 5 IEnMin= 4 EnMin= -2753.43565019747     IErMin= 5 ErrMin= 3.30D-08
 ErrMax= 3.30D-08 EMaxC= 1.00D-01 BMatC= 1.80D-13 BMatP= 1.15D-11
 IDIUse=1 WtCom= 1.00D+00 WtEn= 0.00D+00
 Coeff-Com:  0.299D-05 0.189D-02-0.306D-01 0.172D-01 0.101D+01
 Coeff:      0.299D-05 0.189D-02-0.306D-01 0.172D-01 0.101D+01
 Gap=     0.530 Goal=   None    Shift=    0.000
 RMSDP=7.14D-09 MaxDP=4.10D-07 DE= 1.36D-12 OVMax= 3.26D-07

 SCF Done:  E(RLC-wPBE) =  -2753.43565020     A.U. after    5 cycles
             Convg  =    0.7140D-08             -V/T =  2.0014
 KE= 2.749528521050D+03 PE=-6.578941457564D+03 EE= 1.075977286317D+03
 Leave Link  502 at Tue May 12 20:05:14 2020, MaxMem= 1073741824 cpu:      91.9
 (Enter /home/matheus/.gaussian/g09/l122.exe)
 Restoring MOs from calculation   4 to rwf.
 Counterpoise: doing MCBS calculation for fragment   1
 Leave Link  122 at Tue May 12 20:05:14 2020, MaxMem= 1073741824 cpu:       0.0
 (Enter /home/matheus/.gaussian/g09/l301.exe)
 Basis read from rwf:  (5D, 7F)
 No pseudopotential information found on rwf file.
 There are   138 symmetry adapted basis functions of A   symmetry.
 Integral buffers will be    131072 words long.
 Raffenetti 2 integral format.
 Two-electron integral symmetry is turned on.
   138 basis functions,   198 primitive gaussians,   160 cartesian basis functions
     9 alpha electrons        9 beta electrons
       nuclear repulsion energy        36.6212539076 Hartrees.
 IExCor=32609 DFT=T Ex+Corr=LC-wPBE ExCW=0 ScaHFX=  1.000000
 ScaDFX=  1.000000  0.000000  1.000000  1.000000 ScalE2=  1.000000  1.000000
 IRadAn=      5 IRanWt=     -1 IRanGd=            0 ICorTp=0
  HFx wShort=  0.000000 wLong=  0.400000 cFull=  0.000000 cShort=  0.000000 cLong=  1.000000
  DFx wShort=  0.000000 wLong=  0.400000 cFull=  0.000000 cShort=  0.000000 cLong=  1.000000
 NAtoms=    5 NActive=    4 NUniq=    4 SFac= 1.00D+00 NAtFMM=   60 NAOKFM=F Big=F
 No density basis found on file   718.
 Leave Link  301 at Tue May 12 20:05:14 2020, MaxMem= 1073741824 cpu:       0.2
 (Enter /home/matheus/.gaussian/g09/l302.exe)
 NPDir=0 NMtPBC=     1 NCelOv=     1 NCel=       1 NClECP=     1 NCelD=      1
         NCelK=      1 NCelE2=     1 NClLst=     1 CellRange=     0.0.
 One-electron integrals computed using PRISM.
 NBasis=   138 RedAO= T  NBF=   138
 NBsUse=   138 1.00D-06 NBFU=   138
 Precomputing XC quadrature grid using
 IXCGrd= 2 IRadAn=           5 IRanWt=          -1 IRanGd=           0 AccXCQ= 0.00D+00.
 NRdTot=     344 NPtTot=       92556 NUsed=       95038 NTot=       95070
 NSgBfM=   160   160   160   160   160 NAtAll=     4     4.
 Leave Link  302 at Tue May 12 20:05:14 2020, MaxMem= 1073741824 cpu:       0.7
 (Enter /home/matheus/.gaussian/g09/l303.exe)
 DipDrv:  MaxL=1.
 Leave Link  303 at Tue May 12 20:05:15 2020, MaxMem= 1073741824 cpu:       0.2
 (Enter /home/matheus/.gaussian/g09/l401.exe)
 Initial guess read from the read-write file.
 Guess basis will be translated and rotated to current coordinates.
 Initial guess orbital symmetries:
       Occupied  (A) (A) (A) (A) (A) (A) (A) (A) (A)
       Virtual   (A) (A) (A) (A) (A) (A) (A) (A) (A) (A) (A) (A)
                 (A) (A) (A) (A) (A) (A) (A) (A) (A) (A) (A) (A)
                 (A) (A) (A) (A) (A) (A) (A) (A) (A) (A) (A) (A)
                 (A) (A) (A) (A) (A) (A) (A) (A) (A) (A) (A) (A)
                 (A) (A) (A) (A) (A) (A) (A) (A) (A) (A) (A) (A)
                 (A) (A) (A) (A) (A) (A) (A) (A) (A) (A) (A) (A)
                 (A) (A) (A) (A) (A) (A) (A) (A) (A) (A) (A) (A)
                 (A) (A) (A) (A) (A) (A) (A) (A) (A) (A) (A) (A)
                 (A) (A) (A) (A) (A) (A) (A) (A) (A) (A) (A) (A)
                 (A) (A) (A) (A) (A) (A) (A) (A) (A) (A) (A) (A)
                 (A) (A) (A) (A) (A) (A) (A) (A) (A)
 The electronic state of the initial guess is 1-A.
 Generating alternative initial guess.
 Harris functional with IExCor=32609 diagonalized for initial guess.
 ExpMin= 2.53D-02 ExpMax= 1.53D+04 ExpMxC= 5.22D+02 IAcc=3 IRadAn=         5 AccDes= 0.00D+00
 HarFok:  IExCor=32609 AccDes= 0.00D+00 IRadAn=         5 IDoV= 1
 ScaDFX=  1.000000  1.000000  1.000000  1.000000
 FoFCou: FMM=F IPFlag=           0 FMFlag=      100000 FMFlg1=           0
         NFxFlg=           0 DoJE=T BraDBF=F KetDBF=T FulRan=T
         Omega=  0.000000  0.000000  1.000000  0.000000  0.000000 ICntrl=     500 IOpCl=  0
         NMat0=    1 NMatS0=    1 NMatT0=    0 NMatD0=    1 NMtDS0=    0 NMtDT0=    0
         I1Cent=           4 NGrid=           0.
 Petite list used in FoFCou.
 Harris En= -151.502636020807    
 Leave Link  401 at Tue May 12 20:05:15 2020, MaxMem= 1073741824 cpu:       2.6
 (Enter /home/matheus/.gaussian/g09/l502.exe)
 Closed shell SCF:
 Requested convergence on RMS density matrix=1.00D-08 within 128 cycles.
 Requested convergence on MAX density matrix=1.00D-06.
 Requested convergence on             energy=1.00D-06.
 No special actions if energy rises.
 Using DIIS extrapolation, IDIIS=  1040.
 Integral symmetry usage will be decided dynamically.
        94980 words used for storage of precomputed grid.
 IEnd=      192360 IEndB=      192360 NGot=  1073741824 MDV=  1073591865
 LenX=  1073591865 LenY=  1073565824
 Fock matrices will be formed incrementally for  20 cycles.

 Cycle   1  Pass 1  IDiag  1:
 FoFJK:  IHMeth= 1 ICntrl=     0 DoSepK=T KAlg= 1 I1Cent= 0 FoldK=F
 FoFCou: FMM=F IPFlag=           0 FMFlag=      100000 FMFlg1=           0
         NFxFlg=           0 DoJE=T BraDBF=F KetDBF=F FulRan=T
         Omega=  0.000000  0.000000  1.000000  0.000000  0.000000 ICntrl=     500 IOpCl=  0
         NMat0=    1 NMatS0=    1 NMatT0=    0 NMatD0=    1 NMtDS0=    0 NMtDT0=    0
         I1Cent=           0 NGrid=           0.
 Symmetry not used in FoFCou.
 E= -151.525243219316    
 DIIS: error= 1.19D-05 at cycle   1 NSaved=   1.
 NSaved= 1 IEnMin= 1 EnMin= -151.525243219316     IErMin= 1 ErrMin= 1.19D-05
 ErrMax= 1.19D-05 EMaxC= 1.00D-01 BMatC= 3.37D-08 BMatP= 3.37D-08
 IDIUse=1 WtCom= 1.00D+00 WtEn= 0.00D+00
 Coeff-Com:  0.100D+01
 Coeff:      0.100D+01
 Gap=     0.454 Goal=   None    Shift=    0.000
 RMSDP=1.13D-06 MaxDP=2.60D-05              OVMax= 5.19D-05

 Cycle   2  Pass 1  IDiag  1:
 RMSU=  8.02D-07    CP:  1.00D+00
 FoFJK:  IHMeth= 1 ICntrl=     0 DoSepK=T KAlg= 1 I1Cent= 0 FoldK=F
 E= -151.525243260036     Delta-E=       -0.000000040720 Rises=F Damp=F
 DIIS: error= 2.65D-06 at cycle   2 NSaved=   2.
 NSaved= 2 IEnMin= 2 EnMin= -151.525243260036     IErMin= 2 ErrMin= 2.65D-06
 ErrMax= 2.65D-06 EMaxC= 1.00D-01 BMatC= 1.22D-09 BMatP= 3.37D-08
 IDIUse=1 WtCom= 1.00D+00 WtEn= 0.00D+00
 Coeff-Com: -0.118D+00 0.112D+01
 Coeff:     -0.118D+00 0.112D+01
 Gap=     0.454 Goal=   None    Shift=    0.000
 RMSDP=3.32D-07 MaxDP=8.71D-06 DE=-4.07D-08 OVMax= 2.11D-05

 Cycle   3  Pass 1  IDiag  1:
 RMSU=  1.29D-07    CP:  1.00D+00  1.24D+00
 FoFJK:  IHMeth= 1 ICntrl=     0 DoSepK=T KAlg= 1 I1Cent= 0 FoldK=F
 E= -151.525243262767     Delta-E=       -0.000000002730 Rises=F Damp=F
 DIIS: error= 1.06D-06 at cycle   3 NSaved=   3.
 NSaved= 3 IEnMin= 3 EnMin= -151.525243262767     IErMin= 3 ErrMin= 1.06D-06
 ErrMax= 1.06D-06 EMaxC= 1.00D-01 BMatC= 1.74D-10 BMatP= 1.22D-09
 IDIUse=1 WtCom= 1.00D+00 WtEn= 0.00D+00
 Coeff-Com: -0.306D-01 0.109D+00 0.921D+00
 Coeff:     -0.306D-01 0.109D+00 0.921D+00
 Gap=     0.454 Goal=   None    Shift=    0.000
 RMSDP=1.08D-07 MaxDP=2.64D-06 DE=-2.73D-09 OVMax= 7.22D-06

 Cycle   4  Pass 1  IDiag  1:
 RMSU=  5.68D-08    CP:  1.00D+00  1.30D+00  1.23D+00
 FoFJK:  IHMeth= 1 ICntrl=     0 DoSepK=T KAlg= 1 I1Cent= 0 FoldK=F
 E= -151.525243263001     Delta-E=       -0.000000000234 Rises=F Damp=F
 DIIS: error= 8.27D-07 at cycle   4 NSaved=   4.
 NSaved= 4 IEnMin= 4 EnMin= -151.525243263001     IErMin= 4 ErrMin= 8.27D-07
 ErrMax= 8.27D-07 EMaxC= 1.00D-01 BMatC= 1.41D-10 BMatP= 1.74D-10
 IDIUse=1 WtCom= 1.00D+00 WtEn= 0.00D+00
 Coeff-Com:  0.586D-02-0.163D+00 0.531D+00 0.626D+00
 Coeff:      0.586D-02-0.163D+00 0.531D+00 0.626D+00
 Gap=     0.454 Goal=   None    Shift=    0.000
 RMSDP=5.51D-08 MaxDP=1.11D-06 DE=-2.34D-10 OVMax= 3.57D-06

 Cycle   5  Pass 1  IDiag  1:
 RMSU=  1.77D-08    CP:  1.00D+00  1.31D+00  1.45D+00  7.60D-01
 FoFJK:  IHMeth= 1 ICntrl=     0 DoSepK=T KAlg= 1 I1Cent= 0 FoldK=F
 E= -151.525243263126     Delta-E=       -0.000000000125 Rises=F Damp=F
 DIIS: error= 1.80D-07 at cycle   5 NSaved=   5.
 NSaved= 5 IEnMin= 5 EnMin= -151.525243263126     IErMin= 5 ErrMin= 1.80D-07
 ErrMax= 1.80D-07 EMaxC= 1.00D-01 BMatC= 4.36D-12 BMatP= 1.41D-10
 IDIUse=1 WtCom= 1.00D+00 WtEn= 0.00D+00
 Coeff-Com:  0.449D-02-0.389D-01-0.532D-01 0.813D-01 0.101D+01
 Coeff:      0.449D-02-0.389D-01-0.532D-01 0.813D-01 0.101D+01
 Gap=     0.454 Goal=   None    Shift=    0.000
 RMSDP=2.27D-08 MaxDP=4.15D-07 DE=-1.25D-10 OVMax= 2.07D-06

 Cycle   6  Pass 1  IDiag  1:
 RMSU=  6.12D-09    CP:  1.00D+00  1.32D+00  1.53D+00  8.93D-01  1.38D+00
 FoFJK:  IHMeth= 1 ICntrl=     0 DoSepK=T KAlg= 1 I1Cent= 0 FoldK=F
 E= -151.525243263138     Delta-E=       -0.000000000012 Rises=F Damp=F
 DIIS: error= 5.53D-08 at cycle   6 NSaved=   6.
 NSaved= 6 IEnMin= 6 EnMin= -151.525243263138     IErMin= 6 ErrMin= 5.53D-08
 ErrMax= 5.53D-08 EMaxC= 1.00D-01 BMatC= 5.04D-13 BMatP= 4.36D-12
 IDIUse=1 WtCom= 1.00D+00 WtEn= 0.00D+00
 Coeff-Com:  0.165D-03 0.870D-02-0.553D-01-0.405D-01 0.176D+00 0.911D+00
 Coeff:      0.165D-03 0.870D-02-0.553D-01-0.405D-01 0.176D+00 0.911D+00
 Gap=     0.454 Goal=   None    Shift=    0.000
 RMSDP=7.78D-09 MaxDP=1.59D-07 DE=-1.16D-11 OVMax= 7.46D-07

 SCF Done:  E(RLC-wPBE) =  -151.525243263     A.U. after    6 cycles
             Convg  =    0.7781D-08             -V/T =  2.0068
 KE= 1.505049800640D+02 PE=-4.315113699565D+02 EE= 9.285989272178D+01
 Leave Link  502 at Tue May 12 20:05:21 2020, MaxMem= 1073741824 cpu:      46.7
 (Enter /home/matheus/.gaussian/g09/l122.exe)
 Restoring MOs from calculation   5 to rwf.
 Counterpoise: doing MCBS calculation for fragment   2
 Leave Link  122 at Tue May 12 20:05:21 2020, MaxMem= 1073741824 cpu:       0.0
 (Enter /home/matheus/.gaussian/g09/l301.exe)
 Basis read from rwf:  (5D, 7F)
 No pseudopotential information found on rwf file.
 There are    59 symmetry adapted basis functions of A   symmetry.
 Integral buffers will be    131072 words long.
 Raffenetti 2 integral format.
 Two-electron integral symmetry is turned on.
    59 basis functions,   217 primitive gaussians,    69 cartesian basis functions
    18 alpha electrons       18 beta electrons
       nuclear repulsion energy         0.0000000000 Hartrees.
 IExCor=32609 DFT=T Ex+Corr=LC-wPBE ExCW=0 ScaHFX=  1.000000
 ScaDFX=  1.000000  0.000000  1.000000  1.000000 ScalE2=  1.000000  1.000000
 IRadAn=      5 IRanWt=     -1 IRanGd=            0 ICorTp=0
  HFx wShort=  0.000000 wLong=  0.400000 cFull=  0.000000 cShort=  0.000000 cLong=  1.000000
  DFx wShort=  0.000000 wLong=  0.400000 cFull=  0.000000 cShort=  0.000000 cLong=  1.000000
 NAtoms=    5 NActive=    1 NUniq=    1 SFac= 1.00D+00 NAtFMM=   60 NAOKFM=F Big=F
 No density basis found on file   718.
 Leave Link  301 at Tue May 12 20:05:21 2020, MaxMem= 1073741824 cpu:       0.2
 (Enter /home/matheus/.gaussian/g09/l302.exe)
 NPDir=0 NMtPBC=     1 NCelOv=     1 NCel=       1 NClECP=     1 NCelD=      1
         NCelK=      1 NCelE2=     1 NClLst=     1 CellRange=     0.0.
 One-electron integrals computed using PRISM.
 NBasis=    59 RedAO= T  NBF=    59
 NBsUse=    59 1.00D-06 NBFU=    59
 Precomputing XC quadrature grid using
 IXCGrd= 2 IRadAn=           5 IRanWt=          -1 IRanGd=           0 AccXCQ= 0.00D+00.
 NRdTot=      81 NPtTot=       30352 NUsed=       30981 NTot=       31013
 NSgBfM=    69    69    69    69    69 NAtAll=     1     1.
 Leave Link  302 at Tue May 12 20:05:21 2020, MaxMem= 1073741824 cpu:       0.6
 (Enter /home/matheus/.gaussian/g09/l303.exe)
 DipDrv:  MaxL=1.
 Leave Link  303 at Tue May 12 20:05:21 2020, MaxMem= 1073741824 cpu:       0.1
 (Enter /home/matheus/.gaussian/g09/l401.exe)
 Initial guess read from the read-write file.
 Guess basis will be translated and rotated to current coordinates.
 Initial guess orbital symmetries:
       Occupied  (A) (A) (A) (A) (A) (A) (A) (A) (A) (A) (A) (A)
                 (A) (A) (A) (A) (A) (A)
       Virtual   (A) (A) (A) (A) (A) (A) (A) (A) (A) (A) (A) (A)
                 (A) (A) (A) (A) (A) (A) (A) (A) (A) (A) (A) (A)
                 (A) (A) (A) (A) (A) (A) (A) (A) (A) (A) (A) (A)
                 (A) (A) (A) (A) (A)
 The electronic state of the initial guess is 1-A.
 Generating alternative initial guess.
 Harris functional with IExCor=32609 diagonalized for initial guess.
 ExpMin= 4.00D-02 ExpMax= 1.17D+07 ExpMxC= 1.33D+04 IAcc=3 IRadAn=         5 AccDes= 0.00D+00
 HarFok:  IExCor=32609 AccDes= 0.00D+00 IRadAn=         5 IDoV= 1
 ScaDFX=  1.000000  1.000000  1.000000  1.000000
 FoFCou: FMM=F IPFlag=           0 FMFlag=      100000 FMFlg1=           0
         NFxFlg=           0 DoJE=T BraDBF=F KetDBF=T FulRan=T
         Omega=  0.000000  0.000000  1.000000  0.000000  0.000000 ICntrl=     500 IOpCl=  0
         NMat0=    1 NMatS0=    1 NMatT0=    0 NMatD0=    1 NMtDS0=    0 NMtDT0=    0
         I1Cent=           4 NGrid=           0.
 Petite list used in FoFCou.
 DSYEVD returned Info=          89 IAlg= 4 N=    59 NDim=    59 NE2=    18198841 trying DSYEV.
 Harris En= -2753.24576836237    
 Leave Link  401 at Tue May 12 20:05:21 2020, MaxMem= 1073741824 cpu:       1.0
 (Enter /home/matheus/.gaussian/g09/l502.exe)
 Closed shell SCF:
 Requested convergence on RMS density matrix=1.00D-08 within 128 cycles.
 Requested convergence on MAX density matrix=1.00D-06.
 Requested convergence on             energy=1.00D-06.
 No special actions if energy rises.
 Using DIIS extrapolation, IDIIS=  1040.
 Integral symmetry usage will be decided dynamically.
        30923 words used for storage of precomputed grid.
 IEnd=       64406 IEndB=       64406 NGot=  1073741824 MDV=  1073698889
 LenX=  1073698889 LenY=  1073693687
 Fock matrices will be formed incrementally for  20 cycles.

 Cycle   1  Pass 1  IDiag  1:
 FoFJK:  IHMeth= 1 ICntrl=     0 DoSepK=T KAlg= 1 I1Cent= 0 FoldK=F
 FoFCou: FMM=F IPFlag=           0 FMFlag=      100000 FMFlg1=           0
         NFxFlg=           0 DoJE=T BraDBF=F KetDBF=F FulRan=T
         Omega=  0.000000  0.000000  1.000000  0.000000  0.000000 ICntrl=     500 IOpCl=  0
         NMat0=    1 NMatS0=    1 NMatT0=    0 NMatD0=    1 NMtDS0=    0 NMtDT0=    0
         I1Cent=           0 NGrid=           0.
 Symmetry not used in FoFCou.
 E= -2753.43563276534    
 DIIS: error= 7.68D-14 at cycle   1 NSaved=   1.
 NSaved= 1 IEnMin= 1 EnMin= -2753.43563276534     IErMin= 1 ErrMin= 7.68D-14
 ErrMax= 7.68D-14 EMaxC= 1.00D-01 BMatC= 2.21D-25 BMatP= 2.21D-25
 IDIUse=1 WtCom= 1.00D+00 WtEn= 0.00D+00
 Coeff-Com:  0.100D+01
 Coeff:      0.100D+01
 Gap=     0.599 Goal=   None    Shift=    0.000
 RMSDP=8.20D-15 MaxDP=1.39D-13              OVMax= 4.25D-14

 SCF Done:  E(RLC-wPBE) =  -2753.43563277     A.U. after    1 cycles
             Convg  =    0.8201D-14             -V/T =  2.0014
 KE= 2.749535160915D+03 PE=-6.578948648680D+03 EE= 1.075977855000D+03
 Leave Link  502 at Tue May 12 20:05:22 2020, MaxMem= 1073741824 cpu:      11.7
 (Enter /home/matheus/.gaussian/g09/l122.exe)
 Restoring MOs from calculation   1 to rwf.
 Counterpoise: corrected energy =   -2904.960907299706
 Counterpoise: BSSE energy =       0.000021264159
 Leave Link  122 at Tue May 12 20:05:22 2020, MaxMem= 1073741824 cpu:       0.0
 (Enter /home/matheus/.gaussian/g09/l108.exe)
 Scan completed.

 Summary of the potential surface scan:
   N      R1          SCF    
 ----  ---------  -----------
    1     3.0000  -2753.43563
    2     3.1000  -2753.43563
    3     3.2000  -2753.43563
    4     3.3000  -2753.43563
    5     3.4000  -2753.43563
    6     3.5000  -2753.43563
    7     3.6000  -2753.43563
    8     3.7000  -2753.43563
    9     3.8000  -2753.43563
   10     3.9000  -2753.43563
   11     4.0000  -2753.43563
   12     4.1000  -2753.43563
   13     4.2000  -2753.43563
   14     4.3000  -2753.43563
   15     4.4000  -2753.43563
   16     4.5000  -2753.43563
   17     4.6000  -2753.43563
   18     4.7000  -2753.43563
   19     4.8000  -2753.43563
   20     4.9000  -2753.43563
   21     5.0000  -2753.43563
 ----  ---------  -----------
  
 Leave Link  108 at Tue May 12 20:05:22 2020, MaxMem= 1073741824 cpu:       0.0
 (Enter /home/matheus/.gaussian/g09/l9999.exe)
 1\1\GINC-REDGIANT\Scan\RLC-wPBE\Aug-CC-pVTZ\H2Kr1O2\MATHEUS\12-May-202
 0\1\\#p lc-wpbe/aug-cc-PVTz int=ultrafine counterpoise=2 Scan\\TCC\\0,
 1\O,0,0.,0.,0.725\O,0,0.,0.,-0.725\H,0,-0.9047631646,-0.1595341571,1.0
 235104166\H,0,0.,0.9187205947,-1.0235104166\Kr,0,0.,R1,0.\\R1=3.,s,20,
 0.1\\Version=EM64L-G09RevC.01\State=1-A\HF=-2753.4356328,-2753.4356328
 ,-2753.4356328,-2753.4356328,-2753.4356328,-2753.4356328,-2753.4356328
 ,-2753.4356328,-2753.4356328,-2753.4356328,-2753.4356328,-2753.4356328
 ,-2753.4356328,-2753.4356328,-2753.4356328,-2753.4356328,-2753.4356328
 ,-2753.4356328,-2753.4356328,-2753.4356328,-2753.4356328\RMSD=1.428e-0
 9,5.221e-11,1.075e-11,2.473e-12,6.341e-13,1.604e-13,4.447e-14,1.161e-1
 4,1.079e-14,1.716e-14,9.740e-15,6.063e-15,4.972e-15,6.332e-15,7.692e-1
 5,8.860e-15,3.295e-15,4.874e-15,4.652e-15,5.561e-15,8.201e-15\PG=C01 [
 X(H2Kr1O2)]\\@


 THERE IS MORE TO LIFE THAN INCREASING ITS SPEED.

                                       -- GANDHI
 Job cpu time:  0 days  3 hours 12 minutes 24.7 seconds.
 File lengths (MBytes):  RWF=     33 Int=      0 D2E=      0 Chk=      8 Scr=      1
 Normal termination of Gaussian 09 at Tue May 12 20:05:22 2020.
