 Entering Gaussian System, Link 0=g09
 Input=/home/matheus/.tcc/Inputs/Inputs-lc-wpbe-default/H2O2-Kr_25.com
 Output=/home/matheus/.tcc/Logs/Logs-lc-wpbe-default/H2O2-Kr_25.log
 Initial command:
 /home/matheus/.gaussian/g09/l1.exe /home/matheus/.gaussian/g09/scratch/Gau-14513.inp -scrdir=/home/matheus/.gaussian/g09/scratch/
 Entering Link 1 = /home/matheus/.gaussian/g09/l1.exe PID=     14517.
  
 Copyright (c) 1988,1990,1992,1993,1995,1998,2003,2009,2011,
            Gaussian, Inc.  All Rights Reserved.
  
 This is part of the Gaussian(R) 09 program.  It is based on
 the Gaussian(R) 03 system (copyright 2003, Gaussian, Inc.),
 the Gaussian(R) 98 system (copyright 1998, Gaussian, Inc.),
 the Gaussian(R) 94 system (copyright 1995, Gaussian, Inc.),
 the Gaussian 92(TM) system (copyright 1992, Gaussian, Inc.),
 the Gaussian 90(TM) system (copyright 1990, Gaussian, Inc.),
 the Gaussian 88(TM) system (copyright 1988, Gaussian, Inc.),
 the Gaussian 86(TM) system (copyright 1986, Carnegie Mellon
 University), and the Gaussian 82(TM) system (copyright 1983,
 Carnegie Mellon University). Gaussian is a federally registered
 trademark of Gaussian, Inc.
  
 This software contains proprietary and confidential information,
 including trade secrets, belonging to Gaussian, Inc.
  
 This software is provided under written license and may be
 used, copied, transmitted, or stored only in accord with that
 written license.
  
 The following legend is applicable only to US Government
 contracts under FAR:
  
                    RESTRICTED RIGHTS LEGEND
  
 Use, reproduction and disclosure by the US Government is
 subject to restrictions as set forth in subparagraphs (a)
 and (c) of the Commercial Computer Software - Restricted
 Rights clause in FAR 52.227-19.
  
 Gaussian, Inc.
 340 Quinnipiac St., Bldg. 40, Wallingford CT 06492
  
  
 ---------------------------------------------------------------
 Warning -- This program may not be used in any manner that
 competes with the business of Gaussian, Inc. or will provide
 assistance to any competitor of Gaussian, Inc.  The licensee
 of this program is prohibited from giving any competitor of
 Gaussian, Inc. access to this program.  By using this program,
 the user acknowledges that Gaussian, Inc. is engaged in the
 business of creating and licensing software in the field of
 computational chemistry and represents and warrants to the
 licensee that it is not a competitor of Gaussian, Inc. and that
 it will not use this program in any manner prohibited above.
 ---------------------------------------------------------------
  

 Cite this work as:
 Gaussian 09, Revision C.01,
 M. J. Frisch, G. W. Trucks, H. B. Schlegel, G. E. Scuseria, 
 M. A. Robb, J. R. Cheeseman, G. Scalmani, V. Barone, B. Mennucci, 
 G. A. Petersson, H. Nakatsuji, M. Caricato, X. Li, H. P. Hratchian, 
 A. F. Izmaylov, J. Bloino, G. Zheng, J. L. Sonnenberg, M. Hada, 
 M. Ehara, K. Toyota, R. Fukuda, J. Hasegawa, M. Ishida, T. Nakajima, 
 Y. Honda, O. Kitao, H. Nakai, T. Vreven, J. A. Montgomery, Jr., 
 J. E. Peralta, F. Ogliaro, M. Bearpark, J. J. Heyd, E. Brothers, 
 K. N. Kudin, V. N. Staroverov, T. Keith, R. Kobayashi, J. Normand, 
 K. Raghavachari, A. Rendell, J. C. Burant, S. S. Iyengar, J. Tomasi, 
 M. Cossi, N. Rega, J. M. Millam, M. Klene, J. E. Knox, J. B. Cross, 
 V. Bakken, C. Adamo, J. Jaramillo, R. Gomperts, R. E. Stratmann, 
 O. Yazyev, A. J. Austin, R. Cammi, C. Pomelli, J. W. Ochterski, 
 R. L. Martin, K. Morokuma, V. G. Zakrzewski, G. A. Voth, 
 P. Salvador, J. J. Dannenberg, S. Dapprich, A. D. Daniels, 
 O. Farkas, J. B. Foresman, J. V. Ortiz, J. Cioslowski, 
 and D. J. Fox, Gaussian, Inc., Wallingford CT, 2010.
 
 ******************************************
 Gaussian 09:  EM64L-G09RevC.01 23-Sep-2011
                12-May-2020 
 ******************************************
 %mem=8GB
 %nproc=8
 Will use up to    8 processors via shared memory.
 --------------------------------------------------------
 #p lc-wpbe/aug-cc-PVTz int=ultrafine counterpoise=2 Scan
 --------------------------------------------------------
 1/38=1,60=1,62=2/1,8;
 2/12=2,17=6,18=5,29=3,40=1/2;
 1/38=1,53=5172,62=2/22;
 3/5=16,6=1,7=10,11=2,16=1,25=1,30=1,74=-41,75=-5/1,2,3;
 4//1;
 5/5=2,38=5/2;
 6/7=2,8=2,9=2,10=2,18=1,28=1/1;
 1/53=4052,62=2,63=1/22;
 3/5=7,6=11,7=10,11=2,16=1,25=1,30=1,74=-41,75=-5,82=7/1,2,3;
 4//1;
 5/5=2,38=5/2;
 6/7=2,8=2,9=2,10=2,18=1,28=1/1;
 1/53=3042,62=2,63=2/22;
 3/5=7,6=11,7=10,11=2,16=1,25=1,30=1,74=-41,75=-5,82=7/1,2,3;
 4//1;
 5/5=2,38=5/2;
 6/7=2,8=2,9=2,10=2,18=1,28=1/1;
 1/53=2032,62=2,63=3/22;
 3/5=7,6=11,7=10,11=2,16=1,25=1,30=1,74=-41,75=-5,82=7/1,2,3;
 4//1;
 5/5=2,38=5/2;
 6/7=2,8=2,9=2,10=2,18=1,28=1/1;
 1/53=1022,62=2,63=4/22;
 3/5=7,6=11,7=10,11=2,16=1,25=1,30=1,74=-41,75=-5,82=7/1,2,3;
 4//1;
 5/5=2,38=5/2;
 6/7=2,8=2,9=2,10=2,18=1,28=1/1;
 1/53=5014,62=2,63=5/22;
 1/60=1,62=2/8(1);
 99/9=1/99;
 2/29=3/2;
 1/53=5173,62=2/22;
 3/5=7,6=11,7=10,11=2,16=1,25=1,30=1,74=-41,75=-5,82=7/1,2,3;
 4/5=5,16=3/1;
 5/5=2,38=5/2;
 1/53=4053,62=2,63=1/22;
 3/5=7,6=11,7=10,11=2,16=1,25=1,30=1,74=-41,75=-5,82=7/1,2,3;
 4/5=5,16=3/1;
 5/5=2,38=5/2;
 1/53=3043,62=2,63=2/22;
 3/5=7,6=11,7=10,11=2,16=1,25=1,30=1,74=-41,75=-5,82=7/1,2,3;
 4/5=5,16=3/1;
 5/5=2,38=5/2;
 1/53=2033,62=2,63=3/22;
 3/5=7,6=11,7=10,11=2,16=1,25=1,30=1,74=-41,75=-5,82=7/1,2,3;
 4/5=5,16=3/1;
 5/5=2,38=5/2;
 1/53=1024,62=2,63=4/22;
 3/5=7,6=11,7=10,11=2,16=1,25=1,30=1,74=-41,75=-5,82=7/1,2,3;
 4/5=5,16=3/1;
 5/5=2,38=5/2;
 1/53=5014,62=2,63=5/22;
 1/60=1,62=2/8(-22);
 99/9=1/99;
 Leave Link    1 at Tue May 12 19:17:39 2020, MaxMem= 1073741824 cpu:       0.1
 (Enter /home/matheus/.gaussian/g09/l101.exe)
 ---
 TCC
 ---
 Charge =  0 Multiplicity = 1 in supermolecule
 Charge =  0 Multiplicity = 1 in fragment  1.
 Charge =  0 Multiplicity = 1 in fragment  2.
 Symbolic Z-Matrix:
 O(Fragment=1)         0.        0.        0.725 
 O(Fragment=1)         0.        0.       -0.725 
 H(Fragment=1)        -0.86331  -0.31422   1.02351 
 H(Fragment=1)         0.        0.91872  -1.02351 
 Kr(Fragment=2)        0.       R1        0. 
       Variables:
  R1                    3.     Scan 20    0.1    
 
 NAtoms=      5 NQM=        0 NQMF=       0 NMMI=      5 NMMIF=      0
                NMic=       0 NMicF=      0.
                    Isotopes and Nuclear Properties:
 (Nuclear quadrupole moments (NQMom) in fm**2, nuclear magnetic moments (NMagM)
  in nuclear magnetons)

  Atom         1           2           3           4           5
 IAtWgt=          16          16           1           1          84
 AtmWgt=  15.9949146  15.9949146   1.0078250   1.0078250  83.9115064
 NucSpn=           0           0           1           1           0
 AtZEff=   0.0000000   0.0000000   0.0000000   0.0000000   0.0000000
 NQMom=    0.0000000   0.0000000   0.0000000   0.0000000   0.0000000
 NMagM=    0.0000000   0.0000000   2.7928460   2.7928460   0.0000000
 Leave Link  101 at Tue May 12 19:17:40 2020, MaxMem= 1073741824 cpu:       0.4
 (Enter /home/matheus/.gaussian/g09/l108.exe)
 Scan the potential surface.
 Variable   Value     No. Steps Step-Size
 -------- ----------- --------- ---------
     1       3.000000      20      0.1000
 A total of     21 points will be computed.
 Leave Link  108 at Tue May 12 19:17:40 2020, MaxMem= 1073741824 cpu:       0.0
 (Enter /home/matheus/.gaussian/g09/l202.exe)
 ---------------------------------------------------------------------------------------------------
                            Z-MATRIX (ANGSTROMS AND DEGREES)
   CD    Cent   Atom    N1       Length/X        N2       Alpha/Y        N3        Beta/Z          J
 ---------------------------------------------------------------------------------------------------
      1      1  O        0   0.000000          0.000000          0.725000
      2      2  O        0   0.000000          0.000000         -0.725000
      3      3  H        0  -0.863315         -0.314221          1.023510
      4      4  H        0   0.000000          0.918721         -1.023510
      5      5  Kr       0   0.000000          3.000000          0.000000
 ---------------------------------------------------------------------------------------------------
                         Z-Matrix orientation:                         
 ---------------------------------------------------------------------
 Center     Atomic      Atomic             Coordinates (Angstroms)
 Number     Number       Type             X           Y           Z
 ---------------------------------------------------------------------
      1          8           0        0.000000    0.000000    0.725000
      2          8           0        0.000000    0.000000   -0.725000
      3          1           0       -0.863315   -0.314221    1.023510
      4          1           0        0.000000    0.918721   -1.023510
      5         36           0        0.000000    3.000000    0.000000
 ---------------------------------------------------------------------
                    Distance matrix (angstroms):
                    1          2          3          4          5
     1  O    0.000000
     2  O    1.450000   0.000000
     3  H    0.966000   1.975180   0.000000
     4  H    1.975180   0.966000   2.540817   0.000000
     5  Kr   3.086361   3.086361   3.574486   2.319331   0.000000
 Stoichiometry    H2KrO2
 Framework group  C1[X(H2KrO2)]
 Deg. of freedom     9
 Full point group                 C1      NOp   1
 Largest Abelian subgroup         C1      NOp   1
 Largest concise Abelian subgroup C1      NOp   1
                         Standard orientation:                         
 ---------------------------------------------------------------------
 Center     Atomic      Atomic             Coordinates (Angstroms)
 Number     Number       Type             X           Y           Z
 ---------------------------------------------------------------------
      1          8           0       -2.019994   -0.690833   -0.114713
      2          8           0       -2.000697    0.753572    0.011068
      3          1           0       -2.354569   -1.058170    0.713707
      4          1           0       -1.078253    1.037233    0.053361
      5         36           0        0.988843   -0.013360    0.001725
 ---------------------------------------------------------------------
 Rotational constants (GHZ):     25.7302436      2.3305908      2.1494082
 Leave Link  202 at Tue May 12 19:17:40 2020, MaxMem= 1073741824 cpu:       0.0
 (Enter /home/matheus/.gaussian/g09/l122.exe)
 Leave Link  122 at Tue May 12 19:17:40 2020, MaxMem= 1073741824 cpu:       0.0
 (Enter /home/matheus/.gaussian/g09/l301.exe)
 Standard basis: Aug-CC-pVTZ (5D, 7F)
 Ernie: Thresh=  0.10000D-02 Tol=  0.10000D-05 Strict=F.
 Ernie:  38 primitive shells out of 205 were deleted.
 There are   197 symmetry adapted basis functions of A   symmetry.
 Integral buffers will be    131072 words long.
 Raffenetti 2 integral format.
 Two-electron integral symmetry is turned on.
   197 basis functions,   415 primitive gaussians,   229 cartesian basis functions
    27 alpha electrons       27 beta electrons
       nuclear repulsion energy       148.9188377957 Hartrees.
 IExCor=32609 DFT=T Ex+Corr=LC-wPBE ExCW=0 ScaHFX=  1.000000
 ScaDFX=  1.000000  0.000000  1.000000  1.000000 ScalE2=  1.000000  1.000000
 IRadAn=      5 IRanWt=     -1 IRanGd=            0 ICorTp=0
  HFx wShort=  0.000000 wLong=  0.400000 cFull=  0.000000 cShort=  0.000000 cLong=  1.000000
  DFx wShort=  0.000000 wLong=  0.400000 cFull=  0.000000 cShort=  0.000000 cLong=  1.000000
 NAtoms=    5 NActive=    5 NUniq=    5 SFac= 1.00D+00 NAtFMM=   60 NAOKFM=F Big=F
 Leave Link  301 at Tue May 12 19:17:40 2020, MaxMem= 1073741824 cpu:       0.2
 (Enter /home/matheus/.gaussian/g09/l302.exe)
 NPDir=0 NMtPBC=     1 NCelOv=     1 NCel=       1 NClECP=     1 NCelD=      1
         NCelK=      1 NCelE2=     1 NClLst=     1 CellRange=     0.0.
 One-electron integrals computed using PRISM.
 NBasis=   197 RedAO= T  NBF=   197
 NBsUse=   197 1.00D-06 NBFU=   197
 Precomputing XC quadrature grid using
 IXCGrd= 2 IRadAn=           5 IRanWt=          -1 IRanGd=           0 AccXCQ= 0.00D+00.
 NRdTot=     427 NPtTot=      123512 NUsed=      126579 NTot=      126611
 NSgBfM=   229   229   229   229   229 NAtAll=     5     5.
 Leave Link  302 at Tue May 12 19:17:40 2020, MaxMem= 1073741824 cpu:       1.0
 (Enter /home/matheus/.gaussian/g09/l303.exe)
 DipDrv:  MaxL=1.
 Leave Link  303 at Tue May 12 19:17:40 2020, MaxMem= 1073741824 cpu:       0.2
 (Enter /home/matheus/.gaussian/g09/l401.exe)
 Harris functional with IExCor=32609 diagonalized for initial guess.
 ExpMin= 2.53D-02 ExpMax= 1.17D+07 ExpMxC= 1.33D+04 IAcc=3 IRadAn=         5 AccDes= 0.00D+00
 HarFok:  IExCor=32609 AccDes= 0.00D+00 IRadAn=         5 IDoV= 1
 ScaDFX=  1.000000  1.000000  1.000000  1.000000
 FoFCou: FMM=F IPFlag=           0 FMFlag=      100000 FMFlg1=           0
         NFxFlg=           0 DoJE=T BraDBF=F KetDBF=T FulRan=T
         Omega=  0.000000  0.000000  1.000000  0.000000  0.000000 ICntrl=     500 IOpCl=  0
         NMat0=    1 NMatS0=    1 NMatT0=    0 NMatD0=    1 NMtDS0=    0 NMtDT0=    0
         I1Cent=           4 NGrid=           0.
 Petite list used in FoFCou.
 Harris En= -2904.73980782292    
 Initial guess orbital symmetries:
       Occupied  (A) (A) (A) (A) (A) (A) (A) (A) (A) (A) (A) (A)
                 (A) (A) (A) (A) (A) (A) (A) (A) (A) (A) (A) (A)
                 (A) (A) (A)
       Virtual   (A) (A) (A) (A) (A) (A) (A) (A) (A) (A) (A) (A)
                 (A) (A) (A) (A) (A) (A) (A) (A) (A) (A) (A) (A)
                 (A) (A) (A) (A) (A) (A) (A) (A) (A) (A) (A) (A)
                 (A) (A) (A) (A) (A) (A) (A) (A) (A) (A) (A) (A)
                 (A) (A) (A) (A) (A) (A) (A) (A) (A) (A) (A) (A)
                 (A) (A) (A) (A) (A) (A) (A) (A) (A) (A) (A) (A)
                 (A) (A) (A) (A) (A) (A) (A) (A) (A) (A) (A) (A)
                 (A) (A) (A) (A) (A) (A) (A) (A) (A) (A) (A) (A)
                 (A) (A) (A) (A) (A) (A) (A) (A) (A) (A) (A) (A)
                 (A) (A) (A) (A) (A) (A) (A) (A) (A) (A) (A) (A)
                 (A) (A) (A) (A) (A) (A) (A) (A) (A) (A) (A) (A)
                 (A) (A) (A) (A) (A) (A) (A) (A) (A) (A) (A) (A)
                 (A) (A) (A) (A) (A) (A) (A) (A) (A) (A) (A) (A)
                 (A) (A) (A) (A) (A) (A) (A) (A) (A) (A) (A) (A)
                 (A) (A)
 The electronic state of the initial guess is 1-A.
 Leave Link  401 at Tue May 12 19:17:40 2020, MaxMem= 1073741824 cpu:       3.8
 (Enter /home/matheus/.gaussian/g09/l502.exe)
 Closed shell SCF:
 Requested convergence on RMS density matrix=1.00D-08 within 128 cycles.
 Requested convergence on MAX density matrix=1.00D-06.
 Requested convergence on             energy=1.00D-06.
 No special actions if energy rises.
 Using DIIS extrapolation, IDIIS=  1040.
 Integral symmetry usage will be decided dynamically.
       126521 words used for storage of precomputed grid.
 IEnd=      305468 IEndB=      305468 NGot=  1073741824 MDV=  1073505667
 LenX=  1073505667 LenY=  1073452785
 Fock matrices will be formed incrementally for  20 cycles.

 Cycle   1  Pass 1  IDiag  1:
 FoFJK:  IHMeth= 1 ICntrl=     0 DoSepK=T KAlg= 1 I1Cent= 0 FoldK=F
 FoFCou: FMM=F IPFlag=           0 FMFlag=      100000 FMFlg1=           0
         NFxFlg=           0 DoJE=T BraDBF=F KetDBF=F FulRan=T
         Omega=  0.000000  0.000000  1.000000  0.000000  0.000000 ICntrl=     500 IOpCl=  0
         NMat0=    1 NMatS0=    1 NMatT0=    0 NMatD0=    1 NMtDS0=    0 NMtDT0=    0
         I1Cent=           0 NGrid=           0.
 Symmetry not used in FoFCou.
 E= -2904.88378982754    
 DIIS: error= 2.52D-02 at cycle   1 NSaved=   1.
 NSaved= 1 IEnMin= 1 EnMin= -2904.88378982754     IErMin= 1 ErrMin= 2.52D-02
 ErrMax= 2.52D-02 EMaxC= 1.00D-01 BMatC= 2.61D-01 BMatP= 2.61D-01
 IDIUse=3 WtCom= 7.48D-01 WtEn= 2.52D-01
 Coeff-Com:  0.100D+01
 Coeff-En:   0.100D+01
 Coeff:      0.100D+01
 Gap=     0.507 Goal=   None    Shift=    0.000
 GapD=    0.507 DampG=2.000 DampE=0.500 DampFc=1.0000 IDamp=-1.
 RMSDP=2.29D-03 MaxDP=1.47D-01              OVMax= 6.19D-02

 Cycle   2  Pass 1  IDiag  1:
 RMSU=  1.59D-03    CP:  1.02D+00
 FoFJK:  IHMeth= 1 ICntrl=     0 DoSepK=T KAlg= 1 I1Cent= 0 FoldK=F
 E= -2904.92753135488     Delta-E=       -0.043741527344 Rises=F Damp=F
 DIIS: error= 9.84D-03 at cycle   2 NSaved=   2.
 NSaved= 2 IEnMin= 2 EnMin= -2904.92753135488     IErMin= 2 ErrMin= 9.84D-03
 ErrMax= 9.84D-03 EMaxC= 1.00D-01 BMatC= 7.77D-02 BMatP= 2.61D-01
 IDIUse=3 WtCom= 9.02D-01 WtEn= 9.84D-02
 Coeff-Com:  0.346D+00 0.654D+00
 Coeff-En:   0.186D+00 0.814D+00
 Coeff:      0.330D+00 0.670D+00
 Gap=     0.459 Goal=   None    Shift=    0.000
 RMSDP=9.28D-04 MaxDP=5.07D-02 DE=-4.37D-02 OVMax= 2.95D-02

 Cycle   3  Pass 1  IDiag  1:
 RMSU=  3.25D-04    CP:  1.01D+00  6.53D-01
 FoFJK:  IHMeth= 1 ICntrl=     0 DoSepK=T KAlg= 1 I1Cent= 0 FoldK=F
 E= -2904.95498541370     Delta-E=       -0.027454058814 Rises=F Damp=F
 DIIS: error= 1.93D-03 at cycle   3 NSaved=   3.
 NSaved= 3 IEnMin= 3 EnMin= -2904.95498541370     IErMin= 3 ErrMin= 1.93D-03
 ErrMax= 1.93D-03 EMaxC= 1.00D-01 BMatC= 1.74D-03 BMatP= 7.77D-02
 IDIUse=3 WtCom= 9.81D-01 WtEn= 1.93D-02
 Coeff-Com:  0.632D-01 0.193D+00 0.743D+00
 Coeff-En:   0.000D+00 0.000D+00 0.100D+01
 Coeff:      0.620D-01 0.190D+00 0.748D+00
 Gap=     0.441 Goal=   None    Shift=    0.000
 RMSDP=1.16D-04 MaxDP=3.05D-03 DE=-2.75D-02 OVMax= 7.92D-03

 Cycle   4  Pass 1  IDiag  1:
 RMSU=  6.26D-05    CP:  1.01D+00  6.80D-01  9.07D-01
 FoFJK:  IHMeth= 1 ICntrl=     0 DoSepK=T KAlg= 1 I1Cent= 0 FoldK=F
 E= -2904.95590337690     Delta-E=       -0.000917963204 Rises=F Damp=F
 DIIS: error= 5.47D-04 at cycle   4 NSaved=   4.
 NSaved= 4 IEnMin= 4 EnMin= -2904.95590337690     IErMin= 4 ErrMin= 5.47D-04
 ErrMax= 5.47D-04 EMaxC= 1.00D-01 BMatC= 1.38D-04 BMatP= 1.74D-03
 IDIUse=3 WtCom= 9.95D-01 WtEn= 5.47D-03
 Coeff-Com: -0.160D-02 0.271D-01 0.283D+00 0.691D+00
 Coeff-En:   0.000D+00 0.000D+00 0.000D+00 0.100D+01
 Coeff:     -0.159D-02 0.269D-01 0.282D+00 0.693D+00
 Gap=     0.446 Goal=   None    Shift=    0.000
 RMSDP=3.53D-05 MaxDP=2.09D-03 DE=-9.18D-04 OVMax= 1.95D-03

 Cycle   5  Pass 1  IDiag  1:
 RMSU=  1.31D-05    CP:  1.01D+00  6.84D-01  9.59D-01  8.27D-01
 FoFJK:  IHMeth= 1 ICntrl=     0 DoSepK=T KAlg= 1 I1Cent= 0 FoldK=F
 E= -2904.95598119905     Delta-E=       -0.000077822150 Rises=F Damp=F
 DIIS: error= 8.35D-05 at cycle   5 NSaved=   5.
 NSaved= 5 IEnMin= 5 EnMin= -2904.95598119905     IErMin= 5 ErrMin= 8.35D-05
 ErrMax= 8.35D-05 EMaxC= 1.00D-01 BMatC= 3.06D-06 BMatP= 1.38D-04
 IDIUse=1 WtCom= 1.00D+00 WtEn= 0.00D+00
 Coeff-Com: -0.199D-02 0.146D-02 0.514D-01 0.184D+00 0.765D+00
 Coeff:     -0.199D-02 0.146D-02 0.514D-01 0.184D+00 0.765D+00
 Gap=     0.446 Goal=   None    Shift=    0.000
 RMSDP=7.16D-06 MaxDP=2.32D-04 DE=-7.78D-05 OVMax= 5.00D-04

 Cycle   6  Pass 1  IDiag  1:
 RMSU=  4.49D-06    CP:  1.01D+00  6.84D-01  9.61D-01  8.63D-01  1.02D+00
 FoFJK:  IHMeth= 1 ICntrl=     0 DoSepK=T KAlg= 1 I1Cent= 0 FoldK=F
 E= -2904.95598286578     Delta-E=       -0.000001666727 Rises=F Damp=F
 DIIS: error= 5.83D-05 at cycle   6 NSaved=   6.
 NSaved= 6 IEnMin= 6 EnMin= -2904.95598286578     IErMin= 6 ErrMin= 5.83D-05
 ErrMax= 5.83D-05 EMaxC= 1.00D-01 BMatC= 1.20D-06 BMatP= 3.06D-06
 IDIUse=1 WtCom= 1.00D+00 WtEn= 0.00D+00
 Coeff-Com: -0.696D-03-0.314D-02-0.150D-01-0.499D-02 0.394D+00 0.630D+00
 Coeff:     -0.696D-03-0.314D-02-0.150D-01-0.499D-02 0.394D+00 0.630D+00
 Gap=     0.446 Goal=   None    Shift=    0.000
 RMSDP=3.52D-06 MaxDP=1.32D-04 DE=-1.67D-06 OVMax= 2.47D-04

 Cycle   7  Pass 1  IDiag  1:
 RMSU=  1.81D-06    CP:  1.01D+00  6.84D-01  9.61D-01  8.77D-01  1.13D+00
                    CP:  8.72D-01
 FoFJK:  IHMeth= 1 ICntrl=     0 DoSepK=T KAlg= 1 I1Cent= 0 FoldK=F
 E= -2904.95598358892     Delta-E=       -0.000000723146 Rises=F Damp=F
 DIIS: error= 1.18D-05 at cycle   7 NSaved=   7.
 NSaved= 7 IEnMin= 7 EnMin= -2904.95598358892     IErMin= 7 ErrMin= 1.18D-05
 ErrMax= 1.18D-05 EMaxC= 1.00D-01 BMatC= 4.83D-08 BMatP= 1.20D-06
 IDIUse=1 WtCom= 1.00D+00 WtEn= 0.00D+00
 Coeff-Com: -0.518D-05-0.119D-02-0.109D-01-0.241D-01 0.834D-02 0.176D+00
 Coeff-Com:  0.852D+00
 Coeff:     -0.518D-05-0.119D-02-0.109D-01-0.241D-01 0.834D-02 0.176D+00
 Coeff:      0.852D+00
 Gap=     0.446 Goal=   None    Shift=    0.000
 RMSDP=1.20D-06 MaxDP=3.72D-05 DE=-7.23D-07 OVMax= 8.87D-05

 Cycle   8  Pass 1  IDiag  1:
 RMSU=  3.71D-07    CP:  1.01D+00  6.84D-01  9.62D-01  8.82D-01  1.16D+00
                    CP:  9.90D-01  1.05D+00
 FoFJK:  IHMeth= 1 ICntrl=     0 DoSepK=T KAlg= 1 I1Cent= 0 FoldK=F
 E= -2904.95598363641     Delta-E=       -0.000000047489 Rises=F Damp=F
 DIIS: error= 2.03D-06 at cycle   8 NSaved=   8.
 NSaved= 8 IEnMin= 8 EnMin= -2904.95598363641     IErMin= 8 ErrMin= 2.03D-06
 ErrMax= 2.03D-06 EMaxC= 1.00D-01 BMatC= 8.36D-10 BMatP= 4.83D-08
 IDIUse=1 WtCom= 1.00D+00 WtEn= 0.00D+00
 Coeff-Com:  0.330D-04 0.288D-03 0.202D-02 0.351D-02-0.150D-01-0.492D-01
 Coeff-Com: -0.127D+00 0.119D+01
 Coeff:      0.330D-04 0.288D-03 0.202D-02 0.351D-02-0.150D-01-0.492D-01
 Coeff:     -0.127D+00 0.119D+01
 Gap=     0.446 Goal=   None    Shift=    0.000
 RMSDP=3.40D-07 MaxDP=1.17D-05 DE=-4.75D-08 OVMax= 3.38D-05

 Cycle   9  Pass 1  IDiag  1:
 RMSU=  9.44D-08    CP:  1.01D+00  6.84D-01  9.62D-01  8.83D-01  1.16D+00
                    CP:  1.01D+00  1.10D+00  1.39D+00
 FoFJK:  IHMeth= 1 ICntrl=     0 DoSepK=T KAlg= 1 I1Cent= 0 FoldK=F
 E= -2904.95598364640     Delta-E=       -0.000000009986 Rises=F Damp=F
 DIIS: error= 4.22D-07 at cycle   9 NSaved=   9.
 NSaved= 9 IEnMin= 9 EnMin= -2904.95598364640     IErMin= 9 ErrMin= 4.22D-07
 ErrMax= 4.22D-07 EMaxC= 1.00D-01 BMatC= 4.65D-11 BMatP= 8.36D-10
 IDIUse=1 WtCom= 1.00D+00 WtEn= 0.00D+00
 Coeff-Com: -0.292D-05 0.345D-04 0.378D-03 0.106D-02 0.388D-03-0.674D-02
 Coeff-Com: -0.374D-01-0.295D-01 0.107D+01
 Coeff:     -0.292D-05 0.345D-04 0.378D-03 0.106D-02 0.388D-03-0.674D-02
 Coeff:     -0.374D-01-0.295D-01 0.107D+01
 Gap=     0.446 Goal=   None    Shift=    0.000
 RMSDP=6.88D-08 MaxDP=2.19D-06 DE=-9.99D-09 OVMax= 7.93D-06

 Cycle  10  Pass 1  IDiag  1:
 RMSU=  2.17D-08    CP:  1.01D+00  6.84D-01  9.62D-01  8.83D-01  1.16D+00
                    CP:  1.01D+00  1.11D+00  1.47D+00  1.25D+00
 FoFJK:  IHMeth= 1 ICntrl=     0 DoSepK=T KAlg= 1 I1Cent= 0 FoldK=F
 E= -2904.95598364656     Delta-E=       -0.000000000156 Rises=F Damp=F
 DIIS: error= 1.21D-07 at cycle  10 NSaved=  10.
 NSaved=10 IEnMin=10 EnMin= -2904.95598364656     IErMin=10 ErrMin= 1.21D-07
 ErrMax= 1.21D-07 EMaxC= 1.00D-01 BMatC= 3.42D-12 BMatP= 4.65D-11
 IDIUse=1 WtCom= 1.00D+00 WtEn= 0.00D+00
 Coeff-Com: -0.165D-05-0.162D-04-0.124D-03-0.228D-03 0.103D-02 0.313D-02
 Coeff-Com:  0.713D-02-0.732D-01-0.601D-02 0.107D+01
 Coeff:     -0.165D-05-0.162D-04-0.124D-03-0.228D-03 0.103D-02 0.313D-02
 Coeff:      0.713D-02-0.732D-01-0.601D-02 0.107D+01
 Gap=     0.446 Goal=   None    Shift=    0.000
 RMSDP=2.01D-08 MaxDP=8.26D-07 DE=-1.56D-10 OVMax= 1.96D-06

 Cycle  11  Pass 1  IDiag  1:
 RMSU=  6.25D-09    CP:  1.01D+00  6.84D-01  9.62D-01  8.83D-01  1.16D+00
                    CP:  1.01D+00  1.11D+00  1.48D+00  1.35D+00  1.31D+00
 FoFJK:  IHMeth= 1 ICntrl=     0 DoSepK=T KAlg= 1 I1Cent= 0 FoldK=F
 E= -2904.95598364657     Delta-E=       -0.000000000010 Rises=F Damp=F
 DIIS: error= 3.06D-08 at cycle  11 NSaved=  11.
 NSaved=11 IEnMin=11 EnMin= -2904.95598364657     IErMin=11 ErrMin= 3.06D-08
 ErrMax= 3.06D-08 EMaxC= 1.00D-01 BMatC= 3.40D-13 BMatP= 3.42D-12
 IDIUse=1 WtCom= 1.00D+00 WtEn= 0.00D+00
 Coeff-Com:  0.198D-06-0.343D-05-0.358D-04-0.101D-03 0.456D-04 0.757D-03
 Coeff-Com:  0.319D-02-0.309D-02-0.778D-01 0.583D-01 0.102D+01
 Coeff:      0.198D-06-0.343D-05-0.358D-04-0.101D-03 0.456D-04 0.757D-03
 Coeff:      0.319D-02-0.309D-02-0.778D-01 0.583D-01 0.102D+01
 Gap=     0.446 Goal=   None    Shift=    0.000
 RMSDP=6.00D-09 MaxDP=1.49D-07 DE=-9.55D-12 OVMax= 8.05D-07

 SCF Done:  E(RLC-wPBE) =  -2904.95598365     A.U. after   11 cycles
             Convg  =    0.6003D-08             -V/T =  2.0017
 KE= 2.900043081660D+03 PE=-7.234646223992D+03 EE= 1.280728320890D+03
 Leave Link  502 at Tue May 12 19:18:13 2020, MaxMem= 1073741824 cpu:     258.6
 (Enter /home/matheus/.gaussian/g09/l601.exe)
 Copying SCF densities to generalized density rwf, IOpCl= 0 IROHF=0.

 **********************************************************************

            Population analysis using the SCF density.

 **********************************************************************

 Orbital symmetries:
       Occupied  (A) (A) (A) (A) (A) (A) (A) (A) (A) (A) (A) (A)
                 (A) (A) (A) (A) (A) (A) (A) (A) (A) (A) (A) (A)
                 (A) (A) (A)
       Virtual   (A) (A) (A) (A) (A) (A) (A) (A) (A) (A) (A) (A)
                 (A) (A) (A) (A) (A) (A) (A) (A) (A) (A) (A) (A)
                 (A) (A) (A) (A) (A) (A) (A) (A) (A) (A) (A) (A)
                 (A) (A) (A) (A) (A) (A) (A) (A) (A) (A) (A) (A)
                 (A) (A) (A) (A) (A) (A) (A) (A) (A) (A) (A) (A)
                 (A) (A) (A) (A) (A) (A) (A) (A) (A) (A) (A) (A)
                 (A) (A) (A) (A) (A) (A) (A) (A) (A) (A) (A) (A)
                 (A) (A) (A) (A) (A) (A) (A) (A) (A) (A) (A) (A)
                 (A) (A) (A) (A) (A) (A) (A) (A) (A) (A) (A) (A)
                 (A) (A) (A) (A) (A) (A) (A) (A) (A) (A) (A) (A)
                 (A) (A) (A) (A) (A) (A) (A) (A) (A) (A) (A) (A)
                 (A) (A) (A) (A) (A) (A) (A) (A) (A) (A) (A) (A)
                 (A) (A) (A) (A) (A) (A) (A) (A) (A) (A) (A) (A)
                 (A) (A) (A) (A) (A) (A) (A) (A) (A) (A) (A) (A)
                 (A) (A)
 The electronic state is 1-A.
 Alpha  occ. eigenvalues -- -511.11809 -66.66501 -60.32726 -60.32708 -60.32699
 Alpha  occ. eigenvalues --  -19.03553 -19.03189  -9.59784  -7.34251  -7.34198
 Alpha  occ. eigenvalues --   -7.34170  -3.29788  -3.29778  -3.29758  -3.29719
 Alpha  occ. eigenvalues --   -3.29716  -1.25277  -1.04799  -1.03752  -0.68449
 Alpha  occ. eigenvalues --   -0.61959  -0.55278  -0.51745  -0.51361  -0.50487
 Alpha  occ. eigenvalues --   -0.44145  -0.41418
 Alpha virt. eigenvalues --    0.03155   0.04102   0.08234   0.09617   0.10407
 Alpha virt. eigenvalues --    0.11352   0.13583   0.13847   0.16865   0.17749
 Alpha virt. eigenvalues --    0.18512   0.19160   0.20466   0.22277   0.24006
 Alpha virt. eigenvalues --    0.24789   0.26392   0.28672   0.31780   0.33298
 Alpha virt. eigenvalues --    0.34238   0.35339   0.36295   0.38915   0.39877
 Alpha virt. eigenvalues --    0.41123   0.43072   0.47996   0.53137   0.55929
 Alpha virt. eigenvalues --    0.56535   0.59747   0.61902   0.66219   0.68673
 Alpha virt. eigenvalues --    0.70613   0.72121   0.73298   0.75702   0.76072
 Alpha virt. eigenvalues --    0.76565   0.78074   0.78562   0.80392   0.83078
 Alpha virt. eigenvalues --    0.85648   0.86623   0.88914   0.90105   0.90764
 Alpha virt. eigenvalues --    0.92710   0.94515   0.94990   0.96579   1.00582
 Alpha virt. eigenvalues --    1.01431   1.03406   1.05727   1.06436   1.08553
 Alpha virt. eigenvalues --    1.09979   1.16257   1.17151   1.19160   1.23067
 Alpha virt. eigenvalues --    1.25434   1.30404   1.34235   1.37516   1.41545
 Alpha virt. eigenvalues --    1.44765   1.50525   1.51039   1.53537   1.59049
 Alpha virt. eigenvalues --    1.67541   1.72478   1.82574   1.88795   1.94238
 Alpha virt. eigenvalues --    1.97786   2.01445   2.08994   2.13109   2.14341
 Alpha virt. eigenvalues --    2.14863   2.17343   2.18037   2.21561   2.25713
 Alpha virt. eigenvalues --    2.27244   2.29948   2.31017   2.31465   2.34937
 Alpha virt. eigenvalues --    2.38191   2.40185   2.43014   2.44409   2.47701
 Alpha virt. eigenvalues --    2.49067   2.49521   2.54340   2.55606   2.57707
 Alpha virt. eigenvalues --    2.59294   2.62249   2.63430   2.68399   2.71596
 Alpha virt. eigenvalues --    2.73436   2.76350   2.78092   2.86253   2.87035
 Alpha virt. eigenvalues --    2.91707   3.04540   3.10652   3.14387   3.60084
 Alpha virt. eigenvalues --    3.66227   3.87413   3.93301   4.00249   4.08358
 Alpha virt. eigenvalues --    4.10976   4.18551   4.22863   4.25667   4.26757
 Alpha virt. eigenvalues --    4.37492   4.47828   4.50643   4.54096   4.66713
 Alpha virt. eigenvalues --    4.87981   4.95725   5.01964   5.13262   5.13847
 Alpha virt. eigenvalues --    5.20603   5.41589   5.82296   6.03941   6.10249
 Alpha virt. eigenvalues --    6.13308   6.28672   6.31583   6.42913   6.53201
 Alpha virt. eigenvalues --    6.54514   6.75594   6.77134   6.78567   6.80276
 Alpha virt. eigenvalues --    6.84443   6.86268   6.86800   6.95506   6.98696
 Alpha virt. eigenvalues --    7.03813   7.13348   7.22305   7.41722   7.65368
 Alpha virt. eigenvalues --    7.78307   8.05539   8.09084  13.89021  14.56814
          Condensed to atoms (all electrons):
              1          2          3          4          5
     1  O    8.240429  -0.225861   0.202990   0.001285  -0.026513
     2  O   -0.225861   8.261680   0.013062   0.197518  -0.009866
     3  H    0.202990   0.013062   0.581095   0.001964   0.001026
     4  H    0.001285   0.197518   0.001964   0.591424  -0.012773
     5  Kr  -0.026513  -0.009866   0.001026  -0.012773  36.039708
 Mulliken atomic charges:
              1
     1  O   -0.192329
     2  O   -0.236533
     3  H    0.199863
     4  H    0.220583
     5  Kr   0.008417
 Sum of Mulliken atomic charges =   0.00000
 Mulliken charges with hydrogens summed into heavy atoms:
              1
     1  O    0.007534
     2  O   -0.015951
     5  Kr   0.008417
 Sum of Mulliken charges with hydrogens summed into heavy atoms =   0.00000
          Condensed to fragments (all electrons):
     1      -0.008417
     2       0.008417
 Electronic spatial extent (au):  <R**2>=            487.0890
 Charge=              0.0000 electrons
 Dipole moment (field-independent basis, Debye):
    X=              1.2027    Y=             -0.4081    Z=              1.4386  Tot=              1.9190
 Quadrupole moment (field-independent basis, Debye-Ang):
   XX=            -32.3147   YY=            -28.0019   ZZ=            -29.2350
   XY=              2.9781   XZ=             -3.6645   YZ=             -1.7043
 Traceless Quadrupole moment (field-independent basis, Debye-Ang):
   XX=             -2.4641   YY=              1.8486   ZZ=              0.6156
   XY=              2.9781   XZ=             -3.6645   YZ=             -1.7043
 Octapole moment (field-independent basis, Debye-Ang**2):
  XXX=             25.8718  YYY=             -1.0915  ZZZ=              1.1180  XYY=              4.6735
  XXY=            -10.4380  XXZ=              8.7662  XZZ=              5.5343  YZZ=             -1.7018
  YYZ=              2.1202  XYZ=              4.2388
 Hexadecapole moment (field-independent basis, Debye-Ang**3):
 XXXX=           -430.0140 YYYY=            -63.4643 ZZZZ=            -29.9438 XXXY=             26.3564
 XXXZ=            -22.2962 YYYX=              5.2089 YYYZ=             -2.4238 ZZZX=             -3.1731
 ZZZY=             -1.7250 XXYY=            -78.4182 XXZZ=            -71.8561 YYZZ=            -16.2124
 XXYZ=            -10.5287 YYXZ=             -5.0432 ZZXY=              3.6264
 N-N= 1.489188377957D+02 E-N=-7.234646226538D+03  KE= 2.900043081660D+03
 No NMR shielding tensors so no spin-rotation constants.
 Leave Link  601 at Tue May 12 19:18:13 2020, MaxMem= 1073741824 cpu:       0.8
 (Enter /home/matheus/.gaussian/g09/l122.exe)
 Counterpoise: doing DCBS calculation for fragment   1 NewBq=T
 Leave Link  122 at Tue May 12 19:18:13 2020, MaxMem= 1073741824 cpu:       0.0
 (Enter /home/matheus/.gaussian/g09/l301.exe)
 Basis read from rwf:  (5D, 7F)
 No pseudopotential information found on rwf file.
 There are   197 symmetry adapted basis functions of A   symmetry.
 Integral buffers will be    131072 words long.
 Raffenetti 2 integral format.
 Two-electron integral symmetry is turned on.
   197 basis functions,   415 primitive gaussians,   229 cartesian basis functions
     9 alpha electrons        9 beta electrons
       nuclear repulsion energy        36.6165119696 Hartrees.
 IExCor=32609 DFT=T Ex+Corr=LC-wPBE ExCW=0 ScaHFX=  1.000000
 ScaDFX=  1.000000  0.000000  1.000000  1.000000 ScalE2=  1.000000  1.000000
 IRadAn=      5 IRanWt=     -1 IRanGd=            0 ICorTp=0
  HFx wShort=  0.000000 wLong=  0.400000 cFull=  0.000000 cShort=  0.000000 cLong=  1.000000
  DFx wShort=  0.000000 wLong=  0.400000 cFull=  0.000000 cShort=  0.000000 cLong=  1.000000
 NAtoms=    5 NActive=    5 NUniq=    5 SFac= 1.00D+00 NAtFMM=   60 NAOKFM=F Big=F
 No density basis found on file   718.
 Leave Link  301 at Tue May 12 19:18:13 2020, MaxMem= 1073741824 cpu:       0.2
 (Enter /home/matheus/.gaussian/g09/l302.exe)
 NPDir=0 NMtPBC=     1 NCelOv=     1 NCel=       1 NClECP=     1 NCelD=      1
         NCelK=      1 NCelE2=     1 NClLst=     1 CellRange=     0.0.
 One-electron integrals computed using PRISM.
 NBasis=   197 RedAO= T  NBF=   197
 NBsUse=   197 1.00D-06 NBFU=   197
 Precomputing XC quadrature grid using
 IXCGrd= 2 IRadAn=           5 IRanWt=          -1 IRanGd=           0 AccXCQ= 0.00D+00.
 NRdTot=     427 NPtTot=      123512 NUsed=      126579 NTot=      126611
 NSgBfM=   229   229   229   229   229 NAtAll=     5     5.
 Leave Link  302 at Tue May 12 19:18:13 2020, MaxMem= 1073741824 cpu:       0.9
 (Enter /home/matheus/.gaussian/g09/l303.exe)
 DipDrv:  MaxL=1.
 Leave Link  303 at Tue May 12 19:18:13 2020, MaxMem= 1073741824 cpu:       0.2
 (Enter /home/matheus/.gaussian/g09/l401.exe)
 Harris functional with IExCor=32609 diagonalized for initial guess.
 ExpMin= 2.53D-02 ExpMax= 1.17D+07 ExpMxC= 1.33D+04 IAcc=3 IRadAn=         5 AccDes= 0.00D+00
 HarFok:  IExCor=32609 AccDes= 0.00D+00 IRadAn=         5 IDoV= 1
 ScaDFX=  1.000000  1.000000  1.000000  1.000000
 FoFCou: FMM=F IPFlag=           0 FMFlag=      100000 FMFlg1=           0
         NFxFlg=           0 DoJE=T BraDBF=F KetDBF=T FulRan=T
         Omega=  0.000000  0.000000  1.000000  0.000000  0.000000 ICntrl=     500 IOpCl=  0
         NMat0=    1 NMatS0=    1 NMatT0=    0 NMatD0=    1 NMtDS0=    0 NMtDT0=    0
         I1Cent=           4 NGrid=           0.
 Petite list used in FoFCou.
 Harris En= -151.502451186026    
 Initial guess orbital symmetries:
       Occupied  (A) (A) (A) (A) (A) (A) (A) (A) (A)
       Virtual   (A) (A) (A) (A) (A) (A) (A) (A) (A) (A) (A) (A)
                 (A) (A) (A) (A) (A) (A) (A) (A) (A) (A) (A) (A)
                 (A) (A) (A) (A) (A) (A) (A) (A) (A) (A) (A) (A)
                 (A) (A) (A) (A) (A) (A) (A) (A) (A) (A) (A) (A)
                 (A) (A) (A) (A) (A) (A) (A) (A) (A) (A) (A) (A)
                 (A) (A) (A) (A) (A) (A) (A) (A) (A) (A) (A) (A)
                 (A) (A) (A) (A) (A) (A) (A) (A) (A) (A) (A) (A)
                 (A) (A) (A) (A) (A) (A) (A) (A) (A) (A) (A) (A)
                 (A) (A) (A) (A) (A) (A) (A) (A) (A) (A) (A) (A)
                 (A) (A) (A) (A) (A) (A) (A) (A) (A) (A) (A) (A)
                 (A) (A) (A) (A) (A) (A) (A) (A) (A) (A) (A) (A)
                 (A) (A) (A) (A) (A) (A) (A) (A) (A) (A) (A) (A)
                 (A) (A) (A) (A) (A) (A) (A) (A) (A) (A) (A) (A)
                 (A) (A) (A) (A) (A) (A) (A) (A) (A) (A) (A) (A)
                 (A) (A) (A) (A) (A) (A) (A) (A) (A) (A) (A) (A)
                 (A) (A) (A) (A) (A) (A) (A) (A)
 The electronic state of the initial guess is 1-A.
 Leave Link  401 at Tue May 12 19:18:13 2020, MaxMem= 1073741824 cpu:       3.8
 (Enter /home/matheus/.gaussian/g09/l502.exe)
 Closed shell SCF:
 Requested convergence on RMS density matrix=1.00D-08 within 128 cycles.
 Requested convergence on MAX density matrix=1.00D-06.
 Requested convergence on             energy=1.00D-06.
 No special actions if energy rises.
 Using DIIS extrapolation, IDIIS=  1040.
 Integral symmetry usage will be decided dynamically.
       126521 words used for storage of precomputed grid.
 IEnd=      305468 IEndB=      305468 NGot=  1073741824 MDV=  1073505667
 LenX=  1073505667 LenY=  1073452785
 Fock matrices will be formed incrementally for  20 cycles.

 Cycle   1  Pass 1  IDiag  1:
 FoFJK:  IHMeth= 1 ICntrl=     0 DoSepK=T KAlg= 1 I1Cent= 0 FoldK=F
 FoFCou: FMM=F IPFlag=           0 FMFlag=      100000 FMFlg1=           0
         NFxFlg=           0 DoJE=T BraDBF=F KetDBF=F FulRan=T
         Omega=  0.000000  0.000000  1.000000  0.000000  0.000000 ICntrl=     500 IOpCl=  0
         NMat0=    1 NMatS0=    1 NMatT0=    0 NMatD0=    1 NMtDS0=    0 NMtDT0=    0
         I1Cent=           0 NGrid=           0.
 Symmetry not used in FoFCou.
 E= -151.499111930764    
 DIIS: error= 1.47D-02 at cycle   1 NSaved=   1.
 NSaved= 1 IEnMin= 1 EnMin= -151.499111930764     IErMin= 1 ErrMin= 1.47D-02
 ErrMax= 1.47D-02 EMaxC= 1.00D-01 BMatC= 3.84D-02 BMatP= 3.84D-02
 IDIUse=3 WtCom= 8.53D-01 WtEn= 1.47D-01
 Coeff-Com:  0.100D+01
 Coeff-En:   0.100D+01
 Coeff:      0.100D+01
 Gap=     0.507 Goal=   None    Shift=    0.000
 GapD=    0.507 DampG=2.000 DampE=0.500 DampFc=1.0000 IDamp=-1.
 RMSDP=8.32D-04 MaxDP=2.34D-02              OVMax= 5.59D-02

 Cycle   2  Pass 1  IDiag  1:
 RMSU=  5.81D-04    CP:  9.88D-01
 FoFJK:  IHMeth= 1 ICntrl=     0 DoSepK=T KAlg= 1 I1Cent= 0 FoldK=F
 E= -151.512644735919     Delta-E=       -0.013532805156 Rises=F Damp=F
 DIIS: error= 9.65D-03 at cycle   2 NSaved=   2.
 NSaved= 2 IEnMin= 2 EnMin= -151.512644735919     IErMin= 2 ErrMin= 9.65D-03
 ErrMax= 9.65D-03 EMaxC= 1.00D-01 BMatC= 2.13D-02 BMatP= 3.84D-02
 IDIUse=3 WtCom= 9.03D-01 WtEn= 9.65D-02
 Coeff-Com:  0.419D+00 0.581D+00
 Coeff-En:   0.253D+00 0.747D+00
 Coeff:      0.403D+00 0.597D+00
 Gap=     0.447 Goal=   None    Shift=    0.000
 RMSDP=4.46D-04 MaxDP=2.35D-02 DE=-1.35D-02 OVMax= 2.56D-02

 Cycle   3  Pass 1  IDiag  1:
 RMSU=  2.45D-04    CP:  9.84D-01  6.61D-01
 FoFJK:  IHMeth= 1 ICntrl=     0 DoSepK=T KAlg= 1 I1Cent= 0 FoldK=F
 E= -151.524904511451     Delta-E=       -0.012259775531 Rises=F Damp=F
 DIIS: error= 1.19D-03 at cycle   3 NSaved=   3.
 NSaved= 3 IEnMin= 3 EnMin= -151.524904511451     IErMin= 3 ErrMin= 1.19D-03
 ErrMax= 1.19D-03 EMaxC= 1.00D-01 BMatC= 3.97D-04 BMatP= 2.13D-02
 IDIUse=3 WtCom= 9.88D-01 WtEn= 1.19D-02
 Coeff-Com:  0.639D-01 0.151D+00 0.785D+00
 Coeff-En:   0.000D+00 0.000D+00 0.100D+01
 Coeff:      0.632D-01 0.149D+00 0.788D+00
 Gap=     0.441 Goal=   None    Shift=    0.000
 RMSDP=5.82D-05 MaxDP=2.37D-03 DE=-1.23D-02 OVMax= 3.95D-03

 Cycle   4  Pass 1  IDiag  1:
 RMSU=  2.89D-05    CP:  9.82D-01  7.06D-01  1.02D+00
 FoFJK:  IHMeth= 1 ICntrl=     0 DoSepK=T KAlg= 1 I1Cent= 0 FoldK=F
 E= -151.525148571448     Delta-E=       -0.000244059997 Rises=F Damp=F
 DIIS: error= 2.02D-04 at cycle   4 NSaved=   4.
 NSaved= 4 IEnMin= 4 EnMin= -151.525148571448     IErMin= 4 ErrMin= 2.02D-04
 ErrMax= 2.02D-04 EMaxC= 1.00D-01 BMatC= 1.35D-05 BMatP= 3.97D-04
 IDIUse=3 WtCom= 9.98D-01 WtEn= 2.02D-03
 Coeff-Com: -0.467D-02-0.856D-02 0.118D+00 0.895D+00
 Coeff-En:   0.000D+00 0.000D+00 0.000D+00 0.100D+01
 Coeff:     -0.466D-02-0.854D-02 0.118D+00 0.895D+00
 Gap=     0.443 Goal=   None    Shift=    0.000
 RMSDP=1.39D-05 MaxDP=9.03D-04 DE=-2.44D-04 OVMax= 7.52D-04

 Cycle   5  Pass 1  IDiag  1:
 RMSU=  5.52D-06    CP:  9.82D-01  7.05D-01  1.05D+00  1.02D+00
 FoFJK:  IHMeth= 1 ICntrl=     0 DoSepK=T KAlg= 1 I1Cent= 0 FoldK=F
 E= -151.525158035281     Delta-E=       -0.000009463833 Rises=F Damp=F
 DIIS: error= 2.92D-05 at cycle   5 NSaved=   5.
 NSaved= 5 IEnMin= 5 EnMin= -151.525158035281     IErMin= 5 ErrMin= 2.92D-05
 ErrMax= 2.92D-05 EMaxC= 1.00D-01 BMatC= 1.20D-07 BMatP= 1.35D-05
 IDIUse=1 WtCom= 1.00D+00 WtEn= 0.00D+00
 Coeff-Com: -0.948D-03-0.270D-02-0.286D-01-0.798D-01 0.111D+01
 Coeff:     -0.948D-03-0.270D-02-0.286D-01-0.798D-01 0.111D+01
 Gap=     0.443 Goal=   None    Shift=    0.000
 RMSDP=3.15D-06 MaxDP=1.13D-04 DE=-9.46D-06 OVMax= 2.43D-04

 Cycle   6  Pass 1  IDiag  1:
 RMSU=  1.03D-06    CP:  9.82D-01  7.06D-01  1.05D+00  1.05D+00  1.31D+00
 FoFJK:  IHMeth= 1 ICntrl=     0 DoSepK=T KAlg= 1 I1Cent= 0 FoldK=F
 E= -151.525158312675     Delta-E=       -0.000000277394 Rises=F Damp=F
 DIIS: error= 6.89D-06 at cycle   6 NSaved=   6.
 NSaved= 6 IEnMin= 6 EnMin= -151.525158312675     IErMin= 6 ErrMin= 6.89D-06
 ErrMax= 6.89D-06 EMaxC= 1.00D-01 BMatC= 5.32D-09 BMatP= 1.20D-07
 IDIUse=1 WtCom= 1.00D+00 WtEn= 0.00D+00
 Coeff-Com:  0.154D-03 0.386D-03-0.121D-02-0.161D-01-0.448D-01 0.106D+01
 Coeff:      0.154D-03 0.386D-03-0.121D-02-0.161D-01-0.448D-01 0.106D+01
 Gap=     0.443 Goal=   None    Shift=    0.000
 RMSDP=6.44D-07 MaxDP=2.13D-05 DE=-2.77D-07 OVMax= 7.57D-05

 Cycle   7  Pass 1  IDiag  1:
 RMSU=  2.41D-07    CP:  9.82D-01  7.06D-01  1.05D+00  1.05D+00  1.36D+00
                    CP:  1.22D+00
 FoFJK:  IHMeth= 1 ICntrl=     0 DoSepK=T KAlg= 1 I1Cent= 0 FoldK=F
 E= -151.525158329063     Delta-E=       -0.000000016388 Rises=F Damp=F
 DIIS: error= 1.89D-06 at cycle   7 NSaved=   7.
 NSaved= 7 IEnMin= 7 EnMin= -151.525158329063     IErMin= 7 ErrMin= 1.89D-06
 ErrMax= 1.89D-06 EMaxC= 1.00D-01 BMatC= 5.19D-10 BMatP= 5.32D-09
 IDIUse=1 WtCom= 1.00D+00 WtEn= 0.00D+00
 Coeff-Com:  0.383D-04 0.109D-03 0.137D-02 0.493D-02-0.604D-01-0.743D-01
 Coeff-Com:  0.113D+01
 Coeff:      0.383D-04 0.109D-03 0.137D-02 0.493D-02-0.604D-01-0.743D-01
 Coeff:      0.113D+01
 Gap=     0.443 Goal=   None    Shift=    0.000
 RMSDP=2.16D-07 MaxDP=5.12D-06 DE=-1.64D-08 OVMax= 3.06D-05

 Cycle   8  Pass 1  IDiag  1:
 RMSU=  6.18D-08    CP:  9.82D-01  7.06D-01  1.05D+00  1.05D+00  1.37D+00
                    CP:  1.30D+00  1.37D+00
 FoFJK:  IHMeth= 1 ICntrl=     0 DoSepK=T KAlg= 1 I1Cent= 0 FoldK=F
 E= -151.525158330990     Delta-E=       -0.000000001927 Rises=F Damp=F
 DIIS: error= 4.28D-07 at cycle   8 NSaved=   8.
 NSaved= 8 IEnMin= 8 EnMin= -151.525158330990     IErMin= 8 ErrMin= 4.28D-07
 ErrMax= 4.28D-07 EMaxC= 1.00D-01 BMatC= 6.15D-11 BMatP= 5.19D-10
 IDIUse=1 WtCom= 1.00D+00 WtEn= 0.00D+00
 Coeff-Com: -0.515D-05-0.186D-04 0.730D-04 0.107D-02 0.693D-03-0.580D-01
 Coeff-Com:  0.431D-01 0.101D+01
 Coeff:     -0.515D-05-0.186D-04 0.730D-04 0.107D-02 0.693D-03-0.580D-01
 Coeff:      0.431D-01 0.101D+01
 Gap=     0.443 Goal=   None    Shift=    0.000
 RMSDP=6.79D-08 MaxDP=2.52D-06 DE=-1.93D-09 OVMax= 8.35D-06

 Cycle   9  Pass 1  IDiag  1:
 RMSU=  2.62D-08    CP:  9.82D-01  7.06D-01  1.05D+00  1.05D+00  1.37D+00
                    CP:  1.31D+00  1.50D+00  1.35D+00
 FoFJK:  IHMeth= 1 ICntrl=     0 DoSepK=T KAlg= 1 I1Cent= 0 FoldK=F
 E= -151.525158331142     Delta-E=       -0.000000000153 Rises=F Damp=F
 DIIS: error= 3.81D-07 at cycle   9 NSaved=   9.
 NSaved= 9 IEnMin= 9 EnMin= -151.525158331142     IErMin= 9 ErrMin= 3.81D-07
 ErrMax= 3.81D-07 EMaxC= 1.00D-01 BMatC= 5.48D-11 BMatP= 6.15D-11
 IDIUse=1 WtCom= 1.00D+00 WtEn= 0.00D+00
 Coeff-Com: -0.968D-05-0.312D-04-0.230D-03-0.368D-03 0.122D-01-0.167D-01
 Coeff-Com: -0.206D+00 0.612D+00 0.600D+00
 Coeff:     -0.968D-05-0.312D-04-0.230D-03-0.368D-03 0.122D-01-0.167D-01
 Coeff:     -0.206D+00 0.612D+00 0.600D+00
 Gap=     0.443 Goal=   None    Shift=    0.000
 RMSDP=3.04D-08 MaxDP=1.06D-06 DE=-1.53D-10 OVMax= 3.68D-06

 Cycle  10  Pass 1  IDiag  1:
 RMSU=  1.13D-08    CP:  9.82D-01  7.06D-01  1.05D+00  1.05D+00  1.37D+00
                    CP:  1.31D+00  1.53D+00  1.60D+00  9.31D-01
 FoFJK:  IHMeth= 1 ICntrl=     0 DoSepK=T KAlg= 1 I1Cent= 0 FoldK=F
 E= -151.525158331195     Delta-E=       -0.000000000053 Rises=F Damp=F
 DIIS: error= 7.73D-08 at cycle  10 NSaved=  10.
 NSaved=10 IEnMin=10 EnMin= -151.525158331195     IErMin=10 ErrMin= 7.73D-08
 ErrMax= 7.73D-08 EMaxC= 1.00D-01 BMatC= 1.73D-12 BMatP= 5.48D-11
 IDIUse=1 WtCom= 1.00D+00 WtEn= 0.00D+00
 Coeff-Com:  0.731D-06 0.235D-05-0.291D-04-0.245D-03 0.692D-03 0.110D-01
 Coeff-Com: -0.388D-01-0.104D+00 0.128D-01 0.112D+01
 Coeff:      0.731D-06 0.235D-05-0.291D-04-0.245D-03 0.692D-03 0.110D-01
 Coeff:     -0.388D-01-0.104D+00 0.128D-01 0.112D+01
 Gap=     0.443 Goal=   None    Shift=    0.000
 RMSDP=1.67D-08 MaxDP=3.60D-07 DE=-5.31D-11 OVMax= 2.44D-06

 Cycle  11  Pass 1  IDiag  1:
 RMSU=  2.91D-09    CP:  9.82D-01  7.06D-01  1.05D+00  1.05D+00  1.37D+00
                    CP:  1.31D+00  1.55D+00  1.71D+00  1.14D+00  1.40D+00
 FoFJK:  IHMeth= 1 ICntrl=     0 DoSepK=T KAlg= 1 I1Cent= 0 FoldK=F
 E= -151.525158331202     Delta-E=       -0.000000000007 Rises=F Damp=F
 DIIS: error= 2.52D-08 at cycle  11 NSaved=  11.
 NSaved=11 IEnMin=11 EnMin= -151.525158331202     IErMin=11 ErrMin= 2.52D-08
 ErrMax= 2.52D-08 EMaxC= 1.00D-01 BMatC= 1.24D-13 BMatP= 1.73D-12
 IDIUse=1 WtCom= 1.00D+00 WtEn= 0.00D+00
 Coeff-Com:  0.107D-05 0.348D-05 0.268D-04 0.556D-04-0.132D-02 0.152D-02
 Coeff-Com:  0.232D-01-0.269D-01-0.538D-01-0.248D+00 0.131D+01
 Coeff:      0.107D-05 0.348D-05 0.268D-04 0.556D-04-0.132D-02 0.152D-02
 Coeff:      0.232D-01-0.269D-01-0.538D-01-0.248D+00 0.131D+01
 Gap=     0.443 Goal=   None    Shift=    0.000
 RMSDP=6.09D-09 MaxDP=2.20D-07 DE=-7.11D-12 OVMax= 8.09D-07

 SCF Done:  E(RLC-wPBE) =  -151.525158331     A.U. after   11 cycles
             Convg  =    0.6088D-08             -V/T =  2.0068
 KE= 1.505036046710D+02 PE=-4.315083708758D+02 EE= 9.286309590402D+01
 Leave Link  502 at Tue May 12 19:18:44 2020, MaxMem= 1073741824 cpu:     247.4
 (Enter /home/matheus/.gaussian/g09/l601.exe)
 Copying SCF densities to generalized density rwf, IOpCl= 0 IROHF=0.

 **********************************************************************

            Population analysis using the SCF density.

 **********************************************************************

 Orbital symmetries:
       Occupied  (A) (A) (A) (A) (A) (A) (A) (A) (A)
       Virtual   (A) (A) (A) (A) (A) (A) (A) (A) (A) (A) (A) (A)
                 (A) (A) (A) (A) (A) (A) (A) (A) (A) (A) (A) (A)
                 (A) (A) (A) (A) (A) (A) (A) (A) (A) (A) (A) (A)
                 (A) (A) (A) (A) (A) (A) (A) (A) (A) (A) (A) (A)
                 (A) (A) (A) (A) (A) (A) (A) (A) (A) (A) (A) (A)
                 (A) (A) (A) (A) (A) (A) (A) (A) (A) (A) (A) (A)
                 (A) (A) (A) (A) (A) (A) (A) (A) (A) (A) (A) (A)
                 (A) (A) (A) (A) (A) (A) (A) (A) (A) (A) (A) (A)
                 (A) (A) (A) (A) (A) (A) (A) (A) (A) (A) (A) (A)
                 (A) (A) (A) (A) (A) (A) (A) (A) (A) (A) (A) (A)
                 (A) (A) (A) (A) (A) (A) (A) (A) (A) (A) (A) (A)
                 (A) (A) (A) (A) (A) (A) (A) (A) (A) (A) (A) (A)
                 (A) (A) (A) (A) (A) (A) (A) (A) (A) (A) (A) (A)
                 (A) (A) (A) (A) (A) (A) (A) (A) (A) (A) (A) (A)
                 (A) (A) (A) (A) (A) (A) (A) (A) (A) (A) (A) (A)
                 (A) (A) (A) (A) (A) (A) (A) (A)
 The electronic state is 1-A.
 Alpha  occ. eigenvalues --  -19.03729 -19.03725  -1.25488  -1.04200  -0.68555
 Alpha  occ. eigenvalues --   -0.61486  -0.55102  -0.44494  -0.41706
 Alpha virt. eigenvalues --    0.02625   0.03598   0.07076   0.08521   0.10088
 Alpha virt. eigenvalues --    0.10347   0.10933   0.13757   0.16671   0.17203
 Alpha virt. eigenvalues --    0.18573   0.18846   0.20946   0.22942   0.25224
 Alpha virt. eigenvalues --    0.26948   0.30840   0.31380   0.32952   0.33112
 Alpha virt. eigenvalues --    0.34156   0.37381   0.38075   0.39600   0.40832
 Alpha virt. eigenvalues --    0.42926   0.44185   0.46974   0.48293   0.49715
 Alpha virt. eigenvalues --    0.54047   0.57732   0.60219   0.62262   0.67516
 Alpha virt. eigenvalues --    0.71619   0.73286   0.75239   0.78028   0.78816
 Alpha virt. eigenvalues --    0.80730   0.81763   0.87971   0.90207   0.90773
 Alpha virt. eigenvalues --    0.91215   0.92732   0.94786   0.96745   0.97847
 Alpha virt. eigenvalues --    0.99712   1.02157   1.05616   1.09644   1.11486
 Alpha virt. eigenvalues --    1.13485   1.15228   1.18794   1.22631   1.25365
 Alpha virt. eigenvalues --    1.27001   1.28272   1.30272   1.32394   1.32848
 Alpha virt. eigenvalues --    1.33996   1.35205   1.37350   1.38758   1.40371
 Alpha virt. eigenvalues --    1.44405   1.49511   1.50400   1.51969   1.56098
 Alpha virt. eigenvalues --    1.58955   1.65293   1.66575   1.68985   1.78345
 Alpha virt. eigenvalues --    1.82497   1.85832   1.90911   1.95348   2.02174
 Alpha virt. eigenvalues --    2.06952   2.10499   2.16269   2.17296   2.22494
 Alpha virt. eigenvalues --    2.26821   2.31159   2.33863   2.37502   2.41815
 Alpha virt. eigenvalues --    2.44717   2.50961   2.53890   2.60634   2.64546
 Alpha virt. eigenvalues --    2.67126   2.72409   2.83730   2.84559   2.90888
 Alpha virt. eigenvalues --    3.03488   3.08936   3.12110   3.26000   3.30322
 Alpha virt. eigenvalues --    3.40529   3.54195   3.61428   3.66853   3.78452
 Alpha virt. eigenvalues --    3.78717   3.81755   3.82160   3.82515   3.83114
 Alpha virt. eigenvalues --    3.86849   3.87698   3.92472   3.93113   3.95784
 Alpha virt. eigenvalues --    3.98135   4.00735   4.06550   4.10506   4.12469
 Alpha virt. eigenvalues --    4.19981   4.23261   4.25471   4.29835   4.32687
 Alpha virt. eigenvalues --    4.43185   4.49399   4.55630   4.66702   4.88450
 Alpha virt. eigenvalues --    4.95960   5.02012   5.13289   5.14143   5.20973
 Alpha virt. eigenvalues --    5.41429   5.82163   6.03756   6.10124   6.13098
 Alpha virt. eigenvalues --    6.28665   6.31544   6.42827   6.53057   6.54402
 Alpha virt. eigenvalues --    6.75426   6.76680   6.78413   6.79930   6.84251
 Alpha virt. eigenvalues --    6.86018   6.86643   6.95277   6.98626   7.03666
 Alpha virt. eigenvalues --    7.13153   7.21993   7.41577   7.65154   7.78115
 Alpha virt. eigenvalues --    8.05351   8.08353  10.88919  13.88758  14.55799
 Alpha virt. eigenvalues --   14.83390  14.87984  15.09833  29.03175  29.03460
 Alpha virt. eigenvalues --   29.08096  29.13563  29.23108  49.10187 148.31507
 Alpha virt. eigenvalues --  148.38103 148.70436 752.49912
          Condensed to atoms (all electrons):
              1          2          3          4          5
     1  O    8.229069  -0.220430   0.192419  -0.001157   0.000422
     2  O   -0.220430   8.228632   0.013771   0.197536  -0.000398
     3  H    0.192419   0.013771   0.591799   0.003217  -0.000884
     4  H   -0.001157   0.197536   0.003217   0.589773  -0.004643
     5  Kr   0.000422  -0.000398  -0.000884  -0.004643   0.001020
 Mulliken atomic charges:
              1
     1  O   -0.200323
     2  O   -0.219111
     3  H    0.199676
     4  H    0.215274
     5  Kr   0.004484
 Sum of Mulliken atomic charges =   0.00000
 Mulliken charges with hydrogens summed into heavy atoms:
              1
     1  O   -0.000647
     2  O   -0.003837
     5  Kr   0.004484
 Sum of Mulliken charges with hydrogens summed into heavy atoms =   0.00000
          Condensed to fragments (all electrons):
     1      -0.004484
     2       0.004484
 Electronic spatial extent (au):  <R**2>=            322.1474
 Charge=              0.0000 electrons
 Dipole moment (field-independent basis, Debye):
    X=              1.0238    Y=             -0.1458    Z=              1.5151  Tot=              1.8344
 Quadrupole moment (field-independent basis, Debye-Ang):
   XX=            -14.6872   YY=            -10.4168   ZZ=            -11.7053
   XY=              3.1285   XZ=             -3.6080   YZ=             -1.7108
 Traceless Quadrupole moment (field-independent basis, Debye-Ang):
   XX=             -2.4174   YY=              1.8529   ZZ=              0.5644
   XY=              3.1285   XZ=             -3.6080   YZ=             -1.7108
 Octapole moment (field-independent basis, Debye-Ang**2):
  XXX=             76.9867  YYY=             -1.4416  ZZZ=              1.3416  XYY=             21.9193
  XXY=            -10.3447  XXZ=              8.8891  XZZ=             22.8261  YZZ=             -1.8206
  YYZ=              2.1937  XYZ=              4.2430
 Hexadecapole moment (field-independent basis, Debye-Ang**3):
 XXXX=           -307.3260 YYYY=            -45.3048 ZZZZ=            -11.8643 XXXY=             25.8611
 XXXZ=            -22.0784 YYYX=              4.8324 YYYZ=             -2.4381 ZZZX=             -2.9798
 ZZZY=             -1.7391 XXYY=            -55.0010 XXZZ=            -48.5882 YYZZ=            -10.1661
 XXYZ=            -10.5476 YYXZ=             -4.9713 ZZXY=              3.4676
 N-N= 3.661651196964D+01 E-N=-4.315083708167D+02  KE= 1.505036046710D+02
 No NMR shielding tensors so no spin-rotation constants.
 Leave Link  601 at Tue May 12 19:18:45 2020, MaxMem= 1073741824 cpu:       0.7
 (Enter /home/matheus/.gaussian/g09/l122.exe)
 Counterpoise: doing DCBS calculation for fragment   2 NewBq=T
 Leave Link  122 at Tue May 12 19:18:45 2020, MaxMem= 1073741824 cpu:       0.0
 (Enter /home/matheus/.gaussian/g09/l301.exe)
 Basis read from rwf:  (5D, 7F)
 No pseudopotential information found on rwf file.
 There are   197 symmetry adapted basis functions of A   symmetry.
 Integral buffers will be    131072 words long.
 Raffenetti 2 integral format.
 Two-electron integral symmetry is turned on.
   197 basis functions,   415 primitive gaussians,   229 cartesian basis functions
    18 alpha electrons       18 beta electrons
       nuclear repulsion energy         0.0000000000 Hartrees.
 IExCor=32609 DFT=T Ex+Corr=LC-wPBE ExCW=0 ScaHFX=  1.000000
 ScaDFX=  1.000000  0.000000  1.000000  1.000000 ScalE2=  1.000000  1.000000
 IRadAn=      5 IRanWt=     -1 IRanGd=            0 ICorTp=0
  HFx wShort=  0.000000 wLong=  0.400000 cFull=  0.000000 cShort=  0.000000 cLong=  1.000000
  DFx wShort=  0.000000 wLong=  0.400000 cFull=  0.000000 cShort=  0.000000 cLong=  1.000000
 NAtoms=    5 NActive=    5 NUniq=    5 SFac= 1.00D+00 NAtFMM=   60 NAOKFM=F Big=F
 No density basis found on file   718.
 Leave Link  301 at Tue May 12 19:18:45 2020, MaxMem= 1073741824 cpu:       0.2
 (Enter /home/matheus/.gaussian/g09/l302.exe)
 NPDir=0 NMtPBC=     1 NCelOv=     1 NCel=       1 NClECP=     1 NCelD=      1
         NCelK=      1 NCelE2=     1 NClLst=     1 CellRange=     0.0.
 One-electron integrals computed using PRISM.
 NBasis=   197 RedAO= T  NBF=   197
 NBsUse=   197 1.00D-06 NBFU=   197
 Precomputing XC quadrature grid using
 IXCGrd= 2 IRadAn=           5 IRanWt=          -1 IRanGd=           0 AccXCQ= 0.00D+00.
 NRdTot=     427 NPtTot=      123512 NUsed=      126579 NTot=      126611
 NSgBfM=   229   229   229   229   229 NAtAll=     5     5.
 Leave Link  302 at Tue May 12 19:18:45 2020, MaxMem= 1073741824 cpu:       0.9
 (Enter /home/matheus/.gaussian/g09/l303.exe)
 DipDrv:  MaxL=1.
 Leave Link  303 at Tue May 12 19:18:45 2020, MaxMem= 1073741824 cpu:       0.2
 (Enter /home/matheus/.gaussian/g09/l401.exe)
 Harris functional with IExCor=32609 diagonalized for initial guess.
 ExpMin= 2.53D-02 ExpMax= 1.17D+07 ExpMxC= 1.33D+04 IAcc=3 IRadAn=         5 AccDes= 0.00D+00
 HarFok:  IExCor=32609 AccDes= 0.00D+00 IRadAn=         5 IDoV= 1
 ScaDFX=  1.000000  1.000000  1.000000  1.000000
 FoFCou: FMM=F IPFlag=           0 FMFlag=      100000 FMFlg1=           0
         NFxFlg=           0 DoJE=T BraDBF=F KetDBF=T FulRan=T
         Omega=  0.000000  0.000000  1.000000  0.000000  0.000000 ICntrl=     500 IOpCl=  0
         NMat0=    1 NMatS0=    1 NMatT0=    0 NMatD0=    1 NMtDS0=    0 NMtDT0=    0
         I1Cent=           4 NGrid=           0.
 Petite list used in FoFCou.
 Harris En= -2753.24648006033    
 Initial guess orbital symmetries:
       Occupied  (A) (A) (A) (A) (A) (A) (A) (A) (A) (A) (A) (A)
                 (A) (A) (A) (A) (A) (A)
       Virtual   (A) (A) (A) (A) (A) (A) (A) (A) (A) (A) (A) (A)
                 (A) (A) (A) (A) (A) (A) (A) (A) (A) (A) (A) (A)
                 (A) (A) (A) (A) (A) (A) (A) (A) (A) (A) (A) (A)
                 (A) (A) (A) (A) (A) (A) (A) (A) (A) (A) (A) (A)
                 (A) (A) (A) (A) (A) (A) (A) (A) (A) (A) (A) (A)
                 (A) (A) (A) (A) (A) (A) (A) (A) (A) (A) (A) (A)
                 (A) (A) (A) (A) (A) (A) (A) (A) (A) (A) (A) (A)
                 (A) (A) (A) (A) (A) (A) (A) (A) (A) (A) (A) (A)
                 (A) (A) (A) (A) (A) (A) (A) (A) (A) (A) (A) (A)
                 (A) (A) (A) (A) (A) (A) (A) (A) (A) (A) (A) (A)
                 (A) (A) (A) (A) (A) (A) (A) (A) (A) (A) (A) (A)
                 (A) (A) (A) (A) (A) (A) (A) (A) (A) (A) (A) (A)
                 (A) (A) (A) (A) (A) (A) (A) (A) (A) (A) (A) (A)
                 (A) (A) (A) (A) (A) (A) (A) (A) (A) (A) (A) (A)
                 (A) (A) (A) (A) (A) (A) (A) (A) (A) (A) (A)
 The electronic state of the initial guess is 1-A.
 Leave Link  401 at Tue May 12 19:18:45 2020, MaxMem= 1073741824 cpu:       3.6
 (Enter /home/matheus/.gaussian/g09/l502.exe)
 Closed shell SCF:
 Requested convergence on RMS density matrix=1.00D-08 within 128 cycles.
 Requested convergence on MAX density matrix=1.00D-06.
 Requested convergence on             energy=1.00D-06.
 No special actions if energy rises.
 Using DIIS extrapolation, IDIIS=  1040.
 Integral symmetry usage will be decided dynamically.
       126521 words used for storage of precomputed grid.
 IEnd=      305468 IEndB=      305468 NGot=  1073741824 MDV=  1073505667
 LenX=  1073505667 LenY=  1073452785
 Fock matrices will be formed incrementally for  20 cycles.

 Cycle   1  Pass 1  IDiag  1:
 FoFJK:  IHMeth= 1 ICntrl=     0 DoSepK=T KAlg= 1 I1Cent= 0 FoldK=F
 FoFCou: FMM=F IPFlag=           0 FMFlag=      100000 FMFlg1=           0
         NFxFlg=           0 DoJE=T BraDBF=F KetDBF=F FulRan=T
         Omega=  0.000000  0.000000  1.000000  0.000000  0.000000 ICntrl=     500 IOpCl=  0
         NMat0=    1 NMatS0=    1 NMatT0=    0 NMatD0=    1 NMtDS0=    0 NMtDT0=    0
         I1Cent=           0 NGrid=           0.
 Symmetry not used in FoFCou.
 E= -2753.38972458876    
 DIIS: error= 2.51D-02 at cycle   1 NSaved=   1.
 NSaved= 1 IEnMin= 1 EnMin= -2753.38972458876     IErMin= 1 ErrMin= 2.51D-02
 ErrMax= 2.51D-02 EMaxC= 1.00D-01 BMatC= 2.22D-01 BMatP= 2.22D-01
 IDIUse=3 WtCom= 7.49D-01 WtEn= 2.51D-01
 Coeff-Com:  0.100D+01
 Coeff-En:   0.100D+01
 Coeff:      0.100D+01
 Gap=     0.610 Goal=   None    Shift=    0.000
 GapD=    0.610 DampG=2.000 DampE=0.500 DampFc=1.0000 IDamp=-1.
 RMSDP=2.11D-03 MaxDP=1.47D-01              OVMax= 5.10D-02

 Cycle   2  Pass 1  IDiag  1:
 RMSU=  1.45D-03    CP:  1.02D+00
 FoFJK:  IHMeth= 1 ICntrl=     0 DoSepK=T KAlg= 1 I1Cent= 0 FoldK=F
 E= -2753.42036249196     Delta-E=       -0.030637903196 Rises=F Damp=F
 DIIS: error= 1.01D-02 at cycle   2 NSaved=   2.
 NSaved= 2 IEnMin= 2 EnMin= -2753.42036249196     IErMin= 2 ErrMin= 1.01D-02
 ErrMax= 1.01D-02 EMaxC= 1.00D-01 BMatC= 5.51D-02 BMatP= 2.22D-01
 IDIUse=3 WtCom= 8.99D-01 WtEn= 1.01D-01
 Coeff-Com:  0.328D+00 0.672D+00
 Coeff-En:   0.130D+00 0.870D+00
 Coeff:      0.308D+00 0.692D+00
 Gap=     0.524 Goal=   None    Shift=    0.000
 RMSDP=7.93D-04 MaxDP=5.13D-02 DE=-3.06D-02 OVMax= 2.08D-02

 Cycle   3  Pass 1  IDiag  1:
 RMSU=  1.64D-04    CP:  1.01D+00  6.42D-01
 FoFJK:  IHMeth= 1 ICntrl=     0 DoSepK=T KAlg= 1 I1Cent= 0 FoldK=F
 E= -2753.43558529016     Delta-E=       -0.015222798208 Rises=F Damp=F
 DIIS: error= 1.04D-03 at cycle   3 NSaved=   3.
 NSaved= 3 IEnMin= 3 EnMin= -2753.43558529016     IErMin= 3 ErrMin= 1.04D-03
 ErrMax= 1.04D-03 EMaxC= 1.00D-01 BMatC= 5.44D-04 BMatP= 5.51D-02
 IDIUse=3 WtCom= 9.90D-01 WtEn= 1.04D-02
 Coeff-Com: -0.234D-03 0.895D-01 0.911D+00
 Coeff-En:   0.000D+00 0.000D+00 0.100D+01
 Coeff:     -0.231D-03 0.885D-01 0.912D+00
 Gap=     0.532 Goal=   None    Shift=    0.000
 RMSDP=7.15D-05 MaxDP=4.17D-03 DE=-1.52D-02 OVMax= 2.58D-03

 Cycle   4  Pass 1  IDiag  1:
 RMSU=  1.79D-05    CP:  1.01D+00  6.73D-01  9.98D-01
 FoFJK:  IHMeth= 1 ICntrl=     0 DoSepK=T KAlg= 1 I1Cent= 0 FoldK=F
 E= -2753.43575096293     Delta-E=       -0.000165672763 Rises=F Damp=F
 DIIS: error= 3.69D-05 at cycle   4 NSaved=   4.
 NSaved= 4 IEnMin= 4 EnMin= -2753.43575096293     IErMin= 4 ErrMin= 3.69D-05
 ErrMax= 3.69D-05 EMaxC= 1.00D-01 BMatC= 4.11D-07 BMatP= 5.44D-04
 IDIUse=1 WtCom= 1.00D+00 WtEn= 0.00D+00
 Coeff-Com: -0.125D-02-0.154D-01-0.113D+00 0.113D+01
 Coeff:     -0.125D-02-0.154D-01-0.113D+00 0.113D+01
 Gap=     0.531 Goal=   None    Shift=    0.000
 RMSDP=6.27D-06 MaxDP=2.45D-04 DE=-1.66D-04 OVMax= 3.88D-04

 Cycle   5  Pass 1  IDiag  1:
 RMSU=  2.19D-06    CP:  1.01D+00  6.73D-01  1.02D+00  1.12D+00
 FoFJK:  IHMeth= 1 ICntrl=     0 DoSepK=T KAlg= 1 I1Cent= 0 FoldK=F
 E= -2753.43575147122     Delta-E=       -0.000000508292 Rises=F Damp=F
 DIIS: error= 4.64D-06 at cycle   5 NSaved=   5.
 NSaved= 5 IEnMin= 5 EnMin= -2753.43575147122     IErMin= 5 ErrMin= 4.64D-06
 ErrMax= 4.64D-06 EMaxC= 1.00D-01 BMatC= 1.16D-08 BMatP= 4.11D-07
 IDIUse=1 WtCom= 1.00D+00 WtEn= 0.00D+00
 Coeff-Com:  0.277D-04-0.221D-02-0.246D-01 0.928D-01 0.934D+00
 Coeff:      0.277D-04-0.221D-02-0.246D-01 0.928D-01 0.934D+00
 Gap=     0.531 Goal=   None    Shift=    0.000
 RMSDP=7.18D-07 MaxDP=3.11D-05 DE=-5.08D-07 OVMax= 3.06D-05

 Cycle   6  Pass 1  IDiag  1:
 RMSU=  2.15D-07    CP:  1.01D+00  6.73D-01  1.02D+00  1.15D+00  1.03D+00
 FoFJK:  IHMeth= 1 ICntrl=     0 DoSepK=T KAlg= 1 I1Cent= 0 FoldK=F
 E= -2753.43575148067     Delta-E=       -0.000000009451 Rises=F Damp=F
 DIIS: error= 3.41D-07 at cycle   6 NSaved=   6.
 NSaved= 6 IEnMin= 6 EnMin= -2753.43575148067     IErMin= 6 ErrMin= 3.41D-07
 ErrMax= 3.41D-07 EMaxC= 1.00D-01 BMatC= 4.11D-11 BMatP= 1.16D-08
 IDIUse=1 WtCom= 1.00D+00 WtEn= 0.00D+00
 Coeff-Com:  0.250D-05 0.142D-03 0.163D-02-0.112D-01-0.806D-01 0.109D+01
 Coeff:      0.250D-05 0.142D-03 0.163D-02-0.112D-01-0.806D-01 0.109D+01
 Gap=     0.531 Goal=   None    Shift=    0.000
 RMSDP=9.84D-08 MaxDP=3.58D-06 DE=-9.45D-09 OVMax= 4.47D-06

 Cycle   7  Pass 1  IDiag  1:
 RMSU=  1.60D-08    CP:  1.01D+00  6.73D-01  1.02D+00  1.15D+00  1.05D+00
                    CP:  1.22D+00
 FoFJK:  IHMeth= 1 ICntrl=     0 DoSepK=T KAlg= 1 I1Cent= 0 FoldK=F
 E= -2753.43575147954     Delta-E=        0.000000001132 Rises=F Damp=F
 DIIS: error= 6.79D-08 at cycle   7 NSaved=   7.
 NSaved= 7 IEnMin= 6 EnMin= -2753.43575148067     IErMin= 7 ErrMin= 6.79D-08
 ErrMax= 6.79D-08 EMaxC= 1.00D-01 BMatC= 1.39D-12 BMatP= 4.11D-11
 IDIUse=1 WtCom= 1.00D+00 WtEn= 0.00D+00
 Coeff-Com: -0.230D-06 0.239D-04 0.283D-03-0.142D-02-0.160D-01 0.122D+00
 Coeff-Com:  0.895D+00
 Coeff:     -0.230D-06 0.239D-04 0.283D-03-0.142D-02-0.160D-01 0.122D+00
 Coeff:      0.895D+00
 Gap=     0.531 Goal=   None    Shift=    0.000
 RMSDP=1.09D-08 MaxDP=3.99D-07 DE= 1.13D-09 OVMax= 6.27D-07

 Cycle   8  Pass 1  IDiag  1:
 RMSU=  3.70D-09    CP:  1.01D+00  6.73D-01  1.02D+00  1.15D+00  1.05D+00
                    CP:  1.25D+00  1.11D+00
 FoFJK:  IHMeth= 1 ICntrl=     0 DoSepK=T KAlg= 1 I1Cent= 0 FoldK=F
 E= -2753.43575147955     Delta-E=       -0.000000000014 Rises=F Damp=F
 DIIS: error= 1.69D-08 at cycle   8 NSaved=   8.
 NSaved= 8 IEnMin= 6 EnMin= -2753.43575148067     IErMin= 8 ErrMin= 1.69D-08
 ErrMax= 1.69D-08 EMaxC= 1.00D-01 BMatC= 1.11D-13 BMatP= 1.39D-12
 IDIUse=1 WtCom= 1.00D+00 WtEn= 0.00D+00
 Coeff-Com: -0.283D-06-0.114D-04-0.129D-03 0.969D-03 0.517D-02-0.855D-01
 Coeff-Com:  0.710D-01 0.101D+01
 Coeff:     -0.283D-06-0.114D-04-0.129D-03 0.969D-03 0.517D-02-0.855D-01
 Coeff:      0.710D-01 0.101D+01
 Gap=     0.531 Goal=   None    Shift=    0.000
 RMSDP=3.84D-09 MaxDP=1.56D-07 DE=-1.36D-11 OVMax= 2.38D-07

 SCF Done:  E(RLC-wPBE) =  -2753.43575148     A.U. after    8 cycles
             Convg  =    0.3841D-08             -V/T =  2.0014
 KE= 2.749488514644D+03 PE=-6.578896984608D+03 EE= 1.075972718485D+03
 Leave Link  502 at Tue May 12 19:19:09 2020, MaxMem= 1073741824 cpu:     186.5
 (Enter /home/matheus/.gaussian/g09/l601.exe)
 Copying SCF densities to generalized density rwf, IOpCl= 0 IROHF=0.

 **********************************************************************

            Population analysis using the SCF density.

 **********************************************************************

 Orbital symmetries:
       Occupied  (A) (A) (A) (A) (A) (A) (A) (A) (A) (A) (A) (A)
                 (A) (A) (A) (A) (A) (A)
       Virtual   (A) (A) (A) (A) (A) (A) (A) (A) (A) (A) (A) (A)
                 (A) (A) (A) (A) (A) (A) (A) (A) (A) (A) (A) (A)
                 (A) (A) (A) (A) (A) (A) (A) (A) (A) (A) (A) (A)
                 (A) (A) (A) (A) (A) (A) (A) (A) (A) (A) (A) (A)
                 (A) (A) (A) (A) (A) (A) (A) (A) (A) (A) (A) (A)
                 (A) (A) (A) (A) (A) (A) (A) (A) (A) (A) (A) (A)
                 (A) (A) (A) (A) (A) (A) (A) (A) (A) (A) (A) (A)
                 (A) (A) (A) (A) (A) (A) (A) (A) (A) (A) (A) (A)
                 (A) (A) (A) (A) (A) (A) (A) (A) (A) (A) (A) (A)
                 (A) (A) (A) (A) (A) (A) (A) (A) (A) (A) (A) (A)
                 (A) (A) (A) (A) (A) (A) (A) (A) (A) (A) (A) (A)
                 (A) (A) (A) (A) (A) (A) (A) (A) (A) (A) (A) (A)
                 (A) (A) (A) (A) (A) (A) (A) (A) (A) (A) (A) (A)
                 (A) (A) (A) (A) (A) (A) (A) (A) (A) (A) (A) (A)
                 (A) (A) (A) (A) (A) (A) (A) (A) (A) (A) (A)
 The electronic state is 1-A.
 Alpha  occ. eigenvalues -- -511.10625 -66.65305 -60.31519 -60.31516 -60.31515
 Alpha  occ. eigenvalues --   -9.58573  -7.32996  -7.32994  -7.32994  -3.28540
 Alpha  occ. eigenvalues --   -3.28540  -3.28539  -3.28538  -3.28538  -1.03232
 Alpha  occ. eigenvalues --   -0.50220  -0.50217  -0.50216
 Alpha virt. eigenvalues --    0.02909   0.04891   0.08422   0.09195   0.11529
 Alpha virt. eigenvalues --    0.12166   0.13211   0.13775   0.16312   0.16965
 Alpha virt. eigenvalues --    0.17713   0.19678   0.20781   0.25848   0.27212
 Alpha virt. eigenvalues --    0.27699   0.28417   0.31018   0.33324   0.34496
 Alpha virt. eigenvalues --    0.36060   0.37327   0.38364   0.39337   0.41506
 Alpha virt. eigenvalues --    0.41966   0.42901   0.53551   0.53961   0.58369
 Alpha virt. eigenvalues --    0.58676   0.66422   0.67509   0.69795   0.71879
 Alpha virt. eigenvalues --    0.74838   0.75002   0.76819   0.77455   0.79406
 Alpha virt. eigenvalues --    0.79950   0.80765   0.83358   0.85839   0.86443
 Alpha virt. eigenvalues --    0.88097   0.88713   0.89906   0.91596   0.95746
 Alpha virt. eigenvalues --    0.96278   0.98766   0.99068   1.00917   1.01932
 Alpha virt. eigenvalues --    1.05012   1.06893   1.08128   1.10142   1.11740
 Alpha virt. eigenvalues --    1.15653   1.20567   1.22609   1.25291   1.28887
 Alpha virt. eigenvalues --    1.33592   1.34219   1.38963   1.44158   1.45106
 Alpha virt. eigenvalues --    1.53188   1.57418   1.59052   1.74249   1.77377
 Alpha virt. eigenvalues --    1.78530   1.83212   1.86729   1.97826   2.15467
 Alpha virt. eigenvalues --    2.18848   2.24302   2.27358   2.30141   2.30677
 Alpha virt. eigenvalues --    2.31904   2.32739   2.36216   2.39066   2.40770
 Alpha virt. eigenvalues --    2.43350   2.46260   2.46526   2.49060   2.49769
 Alpha virt. eigenvalues --    2.51975   2.53899   2.54600   2.56230   2.57052
 Alpha virt. eigenvalues --    2.62077   2.62664   2.64388   2.67759   2.70734
 Alpha virt. eigenvalues --    2.73020   2.77337   2.84756   2.87449   2.88995
 Alpha virt. eigenvalues --    2.94182   2.97644   3.03583   3.12874   3.20516
 Alpha virt. eigenvalues --    3.23108   3.25508   3.30751   3.35544   3.49318
 Alpha virt. eigenvalues --    3.61229   3.64703   3.82662   3.86988   4.03850
 Alpha virt. eigenvalues --    4.34502   4.42988   4.51491   4.56764   4.65247
 Alpha virt. eigenvalues --    4.72658   4.87052   4.90951   4.93904   4.99708
 Alpha virt. eigenvalues --    5.15177   5.19942   5.58784   5.66098   5.74275
 Alpha virt. eigenvalues --    5.91010   6.01409   6.16314   6.73701   6.89814
 Alpha virt. eigenvalues --    7.37382   7.42976   7.60233   7.63266   7.74108
 Alpha virt. eigenvalues --    7.86943   7.90401   8.11644   8.17055   8.21811
 Alpha virt. eigenvalues --    8.40148   8.45880   8.58704   8.86445   9.65051
 Alpha virt. eigenvalues --    9.74668   9.84284   9.89325   9.91601  10.00166
 Alpha virt. eigenvalues --   10.14798  10.32340  10.37952  10.97283  11.51529
 Alpha virt. eigenvalues --   11.65940  11.75731  12.05351  12.10652  13.25320
 Alpha virt. eigenvalues --   13.61198  14.52759  62.73903  64.67042
          Condensed to atoms (all electrons):
              1          2          3          4          5
     1  O    0.001573  -0.001268  -0.000982   0.000906  -0.008031
     2  O   -0.001268   0.004025   0.000335  -0.003069   0.001661
     3  H   -0.000982   0.000335   0.000809  -0.000207   0.001957
     4  H    0.000906  -0.003069  -0.000207   0.003724  -0.029036
     5  Kr  -0.008031   0.001661   0.001957  -0.029036  36.065336
 Mulliken atomic charges:
              1
     1  O    0.007802
     2  O   -0.001685
     3  H   -0.001911
     4  H    0.027682
     5  Kr  -0.031888
 Sum of Mulliken atomic charges =   0.00000
 Mulliken charges with hydrogens summed into heavy atoms:
              1
     1  O    0.005891
     2  O    0.025997
     5  Kr  -0.031888
 Sum of Mulliken charges with hydrogens summed into heavy atoms =   0.00000
          Condensed to fragments (all electrons):
     1       0.031888
     2      -0.031888
 Electronic spatial extent (au):  <R**2>=            165.0333
 Charge=              0.0000 electrons
 Dipole moment (field-independent basis, Debye):
    X=             -0.0006    Y=              0.0003    Z=              0.0001  Tot=              0.0007
 Quadrupole moment (field-independent basis, Debye-Ang):
   XX=            -17.6146   YY=            -17.6229   ZZ=            -17.6281
   XY=             -0.0035   XZ=             -0.0001   YZ=              0.0002
 Traceless Quadrupole moment (field-independent basis, Debye-Ang):
   XX=              0.0073   YY=             -0.0010   ZZ=             -0.0063
   XY=             -0.0035   XZ=             -0.0001   YZ=              0.0002
 Octapole moment (field-independent basis, Debye-Ang**2):
  XXX=            -52.2524  YYY=              0.7051  ZZZ=             -0.0900  XYY=            -17.4268
  XXY=              0.2292  XXZ=             -0.0308  XZZ=            -17.4295  YZZ=              0.2360
  YYZ=             -0.0299  XYZ=              0.0001
 Hexadecapole moment (field-independent basis, Debye-Ang**3):
 XXXX=           -121.6946 YYYY=            -18.3905 ZZZZ=            -18.3891 XXXY=              0.6869
 XXXZ=             -0.0904 YYYX=              0.6878 YYYZ=              0.0009 ZZZX=             -0.0904
 ZZZY=              0.0020 XXYY=            -23.3564 XXZZ=            -23.3561 YYZZ=             -6.1291
 XXYZ=              0.0008 YYXZ=             -0.0297 ZZXY=              0.2279
 N-N= 0.000000000000D+00 E-N=-6.578896986328D+03  KE= 2.749488514644D+03
 No NMR shielding tensors so no spin-rotation constants.
 Leave Link  601 at Tue May 12 19:19:09 2020, MaxMem= 1073741824 cpu:       0.8
 (Enter /home/matheus/.gaussian/g09/l122.exe)
 Counterpoise: doing MCBS calculation for fragment   1
 Leave Link  122 at Tue May 12 19:19:09 2020, MaxMem= 1073741824 cpu:       0.0
 (Enter /home/matheus/.gaussian/g09/l301.exe)
 Basis read from rwf:  (5D, 7F)
 No pseudopotential information found on rwf file.
 There are   138 symmetry adapted basis functions of A   symmetry.
 Integral buffers will be    131072 words long.
 Raffenetti 2 integral format.
 Two-electron integral symmetry is turned on.
   138 basis functions,   198 primitive gaussians,   160 cartesian basis functions
     9 alpha electrons        9 beta electrons
       nuclear repulsion energy        36.6165119696 Hartrees.
 IExCor=32609 DFT=T Ex+Corr=LC-wPBE ExCW=0 ScaHFX=  1.000000
 ScaDFX=  1.000000  0.000000  1.000000  1.000000 ScalE2=  1.000000  1.000000
 IRadAn=      5 IRanWt=     -1 IRanGd=            0 ICorTp=0
  HFx wShort=  0.000000 wLong=  0.400000 cFull=  0.000000 cShort=  0.000000 cLong=  1.000000
  DFx wShort=  0.000000 wLong=  0.400000 cFull=  0.000000 cShort=  0.000000 cLong=  1.000000
 NAtoms=    5 NActive=    4 NUniq=    4 SFac= 1.00D+00 NAtFMM=   60 NAOKFM=F Big=F
 No density basis found on file   718.
 Leave Link  301 at Tue May 12 19:19:09 2020, MaxMem= 1073741824 cpu:       0.2
 (Enter /home/matheus/.gaussian/g09/l302.exe)
 NPDir=0 NMtPBC=     1 NCelOv=     1 NCel=       1 NClECP=     1 NCelD=      1
         NCelK=      1 NCelE2=     1 NClLst=     1 CellRange=     0.0.
 One-electron integrals computed using PRISM.
 NBasis=   138 RedAO= T  NBF=   138
 NBsUse=   138 1.00D-06 NBFU=   138
 Precomputing XC quadrature grid using
 IXCGrd= 2 IRadAn=           5 IRanWt=          -1 IRanGd=           0 AccXCQ= 0.00D+00.
 NRdTot=     344 NPtTot=       92556 NUsed=       95038 NTot=       95070
 NSgBfM=   160   160   160   160   160 NAtAll=     4     4.
 Leave Link  302 at Tue May 12 19:19:09 2020, MaxMem= 1073741824 cpu:       0.7
 (Enter /home/matheus/.gaussian/g09/l303.exe)
 DipDrv:  MaxL=1.
 Leave Link  303 at Tue May 12 19:19:09 2020, MaxMem= 1073741824 cpu:       0.1
 (Enter /home/matheus/.gaussian/g09/l401.exe)
 Harris functional with IExCor=32609 diagonalized for initial guess.
 ExpMin= 2.53D-02 ExpMax= 1.53D+04 ExpMxC= 5.22D+02 IAcc=3 IRadAn=         5 AccDes= 0.00D+00
 HarFok:  IExCor=32609 AccDes= 0.00D+00 IRadAn=         5 IDoV= 1
 ScaDFX=  1.000000  1.000000  1.000000  1.000000
 FoFCou: FMM=F IPFlag=           0 FMFlag=      100000 FMFlg1=           0
         NFxFlg=           0 DoJE=T BraDBF=F KetDBF=T FulRan=T
         Omega=  0.000000  0.000000  1.000000  0.000000  0.000000 ICntrl=     500 IOpCl=  0
         NMat0=    1 NMatS0=    1 NMatT0=    0 NMatD0=    1 NMtDS0=    0 NMtDT0=    0
         I1Cent=           4 NGrid=           0.
 Petite list used in FoFCou.
 Harris En= -151.502350764712    
 Initial guess orbital symmetries:
       Occupied  (A) (A) (A) (A) (A) (A) (A) (A) (A)
       Virtual   (A) (A) (A) (A) (A) (A) (A) (A) (A) (A) (A) (A)
                 (A) (A) (A) (A) (A) (A) (A) (A) (A) (A) (A) (A)
                 (A) (A) (A) (A) (A) (A) (A) (A) (A) (A) (A) (A)
                 (A) (A) (A) (A) (A) (A) (A) (A) (A) (A) (A) (A)
                 (A) (A) (A) (A) (A) (A) (A) (A) (A) (A) (A) (A)
                 (A) (A) (A) (A) (A) (A) (A) (A) (A) (A) (A) (A)
                 (A) (A) (A) (A) (A) (A) (A) (A) (A) (A) (A) (A)
                 (A) (A) (A) (A) (A) (A) (A) (A) (A) (A) (A) (A)
                 (A) (A) (A) (A) (A) (A) (A) (A) (A) (A) (A) (A)
                 (A) (A) (A) (A) (A) (A) (A) (A) (A) (A) (A) (A)
                 (A) (A) (A) (A) (A) (A) (A) (A) (A)
 The electronic state of the initial guess is 1-A.
 Leave Link  401 at Tue May 12 19:19:09 2020, MaxMem= 1073741824 cpu:       2.1
 (Enter /home/matheus/.gaussian/g09/l502.exe)
 Closed shell SCF:
 Requested convergence on RMS density matrix=1.00D-08 within 128 cycles.
 Requested convergence on MAX density matrix=1.00D-06.
 Requested convergence on             energy=1.00D-06.
 No special actions if energy rises.
 Using DIIS extrapolation, IDIIS=  1040.
 Integral symmetry usage will be decided dynamically.
        94980 words used for storage of precomputed grid.
 IEnd=      192360 IEndB=      192360 NGot=  1073741824 MDV=  1073591865
 LenX=  1073591865 LenY=  1073565824
 Fock matrices will be formed incrementally for  20 cycles.

 Cycle   1  Pass 1  IDiag  1:
 FoFJK:  IHMeth= 1 ICntrl=     0 DoSepK=T KAlg= 1 I1Cent= 0 FoldK=F
 FoFCou: FMM=F IPFlag=           0 FMFlag=      100000 FMFlg1=           0
         NFxFlg=           0 DoJE=T BraDBF=F KetDBF=F FulRan=T
         Omega=  0.000000  0.000000  1.000000  0.000000  0.000000 ICntrl=     500 IOpCl=  0
         NMat0=    1 NMatS0=    1 NMatT0=    0 NMatD0=    1 NMtDS0=    0 NMtDT0=    0
         I1Cent=           0 NGrid=           0.
 Symmetry not used in FoFCou.
 E= -151.499072602335    
 DIIS: error= 1.53D-02 at cycle   1 NSaved=   1.
 NSaved= 1 IEnMin= 1 EnMin= -151.499072602335     IErMin= 1 ErrMin= 1.53D-02
 ErrMax= 1.53D-02 EMaxC= 1.00D-01 BMatC= 3.84D-02 BMatP= 3.84D-02
 IDIUse=3 WtCom= 8.47D-01 WtEn= 1.53D-01
 Coeff-Com:  0.100D+01
 Coeff-En:   0.100D+01
 Coeff:      0.100D+01
 Gap=     0.507 Goal=   None    Shift=    0.000
 GapD=    0.507 DampG=2.000 DampE=0.500 DampFc=1.0000 IDamp=-1.
 RMSDP=1.16D-03 MaxDP=2.34D-02              OVMax= 5.59D-02

 Cycle   2  Pass 1  IDiag  1:
 RMSU=  8.10D-04    CP:  9.88D-01
 FoFJK:  IHMeth= 1 ICntrl=     0 DoSepK=T KAlg= 1 I1Cent= 0 FoldK=F
 E= -151.512591667096     Delta-E=       -0.013519064761 Rises=F Damp=F
 DIIS: error= 1.09D-02 at cycle   2 NSaved=   2.
 NSaved= 2 IEnMin= 2 EnMin= -151.512591667096     IErMin= 2 ErrMin= 1.09D-02
 ErrMax= 1.09D-02 EMaxC= 1.00D-01 BMatC= 2.13D-02 BMatP= 3.84D-02
 IDIUse=3 WtCom= 8.91D-01 WtEn= 1.09D-01
 Coeff-Com:  0.419D+00 0.581D+00
 Coeff-En:   0.253D+00 0.747D+00
 Coeff:      0.401D+00 0.599D+00
 Gap=     0.451 Goal=   None    Shift=    0.000
 RMSDP=6.30D-04 MaxDP=2.29D-02 DE=-1.35D-02 OVMax= 2.57D-02

 Cycle   3  Pass 1  IDiag  1:
 RMSU=  3.46D-04    CP:  9.84D-01  6.56D-01
 FoFJK:  IHMeth= 1 ICntrl=     0 DoSepK=T KAlg= 1 I1Cent= 0 FoldK=F
 E= -151.524829855092     Delta-E=       -0.012238187996 Rises=F Damp=F
 DIIS: error= 2.27D-03 at cycle   3 NSaved=   3.
 NSaved= 3 IEnMin= 3 EnMin= -151.524829855092     IErMin= 3 ErrMin= 2.27D-03
 ErrMax= 2.27D-03 EMaxC= 1.00D-01 BMatC= 4.13D-04 BMatP= 2.13D-02
 IDIUse=3 WtCom= 9.77D-01 WtEn= 2.27D-02
 Coeff-Com:  0.640D-01 0.153D+00 0.783D+00
 Coeff-En:   0.000D+00 0.000D+00 0.100D+01
 Coeff:      0.626D-01 0.150D+00 0.787D+00
 Gap=     0.444 Goal=   None    Shift=    0.000
 RMSDP=8.40D-05 MaxDP=2.19D-03 DE=-1.22D-02 OVMax= 3.99D-03

 Cycle   4  Pass 1  IDiag  1:
 RMSU=  4.13D-05    CP:  9.82D-01  7.04D-01  1.02D+00
 FoFJK:  IHMeth= 1 ICntrl=     0 DoSepK=T KAlg= 1 I1Cent= 0 FoldK=F
 E= -151.525083704603     Delta-E=       -0.000253849511 Rises=F Damp=F
 DIIS: error= 3.63D-04 at cycle   4 NSaved=   4.
 NSaved= 4 IEnMin= 4 EnMin= -151.525083704603     IErMin= 4 ErrMin= 3.63D-04
 ErrMax= 3.63D-04 EMaxC= 1.00D-01 BMatC= 1.44D-05 BMatP= 4.13D-04
 IDIUse=3 WtCom= 9.96D-01 WtEn= 3.63D-03
 Coeff-Com: -0.465D-02-0.862D-02 0.121D+00 0.892D+00
 Coeff-En:   0.000D+00 0.000D+00 0.000D+00 0.100D+01
 Coeff:     -0.463D-02-0.859D-02 0.120D+00 0.893D+00
 Gap=     0.446 Goal=   None    Shift=    0.000
 RMSDP=2.01D-05 MaxDP=9.03D-04 DE=-2.54D-04 OVMax= 7.58D-04

 Cycle   5  Pass 1  IDiag  1:
 RMSU=  7.91D-06    CP:  9.82D-01  7.03D-01  1.05D+00  1.02D+00
 FoFJK:  IHMeth= 1 ICntrl=     0 DoSepK=T KAlg= 1 I1Cent= 0 FoldK=F
 E= -151.525093672929     Delta-E=       -0.000009968326 Rises=F Damp=F
 DIIS: error= 3.74D-05 at cycle   5 NSaved=   5.
 NSaved= 5 IEnMin= 5 EnMin= -151.525093672929     IErMin= 5 ErrMin= 3.74D-05
 ErrMax= 3.74D-05 EMaxC= 1.00D-01 BMatC= 1.20D-07 BMatP= 1.44D-05
 IDIUse=1 WtCom= 1.00D+00 WtEn= 0.00D+00
 Coeff-Com: -0.948D-03-0.273D-02-0.290D-01-0.804D-01 0.111D+01
 Coeff:     -0.948D-03-0.273D-02-0.290D-01-0.804D-01 0.111D+01
 Gap=     0.447 Goal=   None    Shift=    0.000
 RMSDP=4.59D-06 MaxDP=9.38D-05 DE=-9.97D-06 OVMax= 2.43D-04

 Cycle   6  Pass 1  IDiag  1:
 RMSU=  1.42D-06    CP:  9.82D-01  7.04D-01  1.05D+00  1.05D+00  1.30D+00
 FoFJK:  IHMeth= 1 ICntrl=     0 DoSepK=T KAlg= 1 I1Cent= 0 FoldK=F
 E= -151.525093966363     Delta-E=       -0.000000293434 Rises=F Damp=F
 DIIS: error= 8.42D-06 at cycle   6 NSaved=   6.
 NSaved= 6 IEnMin= 6 EnMin= -151.525093966363     IErMin= 6 ErrMin= 8.42D-06
 ErrMax= 8.42D-06 EMaxC= 1.00D-01 BMatC= 5.30D-09 BMatP= 1.20D-07
 IDIUse=1 WtCom= 1.00D+00 WtEn= 0.00D+00
 Coeff-Com:  0.153D-03 0.386D-03-0.128D-02-0.161D-01-0.441D-01 0.106D+01
 Coeff:      0.153D-03 0.386D-03-0.128D-02-0.161D-01-0.441D-01 0.106D+01
 Gap=     0.447 Goal=   None    Shift=    0.000
 RMSDP=8.95D-07 MaxDP=1.51D-05 DE=-2.93D-07 OVMax= 7.54D-05

 Cycle   7  Pass 1  IDiag  1:
 RMSU=  3.37D-07    CP:  9.82D-01  7.04D-01  1.05D+00  1.05D+00  1.35D+00
                    CP:  1.22D+00
 FoFJK:  IHMeth= 1 ICntrl=     0 DoSepK=T KAlg= 1 I1Cent= 0 FoldK=F
 E= -151.525093998403     Delta-E=       -0.000000032040 Rises=F Damp=F
 DIIS: error= 2.49D-06 at cycle   7 NSaved=   7.
[...]
 Coeff-En:   0.100D+01
 Coeff:      0.100D+01
 Gap=     0.530 Goal=   None    Shift=    0.000
 RMSDP=1.43D-05 MaxDP=6.94D-04              OVMax= 2.59D-04

 Cycle   2  Pass 1  IDiag  1:
 RMSU=  1.01D-05    CP:  1.00D+00
 FoFJK:  IHMeth= 1 ICntrl=     0 DoSepK=T KAlg= 1 I1Cent= 0 FoldK=F
 E= -2753.43565033039     Delta-E=       -0.000000437273 Rises=F Damp=F
 DIIS: error= 3.19D-06 at cycle   2 NSaved=   2.
 NSaved= 2 IEnMin= 2 EnMin= -2753.43565033039     IErMin= 2 ErrMin= 3.19D-06
 ErrMax= 3.19D-06 EMaxC= 1.00D-01 BMatC= 2.65D-09 BMatP= 4.81D-06
 IDIUse=1 WtCom= 1.00D+00 WtEn= 0.00D+00
 Coeff-Com: -0.653D-02 0.101D+01
 Coeff:     -0.653D-02 0.101D+01
 Gap=     0.530 Goal=   None    Shift=    0.000
 RMSDP=1.46D-06 MaxDP=5.79D-05 DE=-4.37D-07 OVMax= 3.81D-05

 Cycle   3  Pass 1  IDiag  1:
 RMSU=  4.98D-07    CP:  1.00D+00  1.09D+00
 FoFJK:  IHMeth= 1 ICntrl=     0 DoSepK=T KAlg= 1 I1Cent= 0 FoldK=F
 E= -2753.43565033496     Delta-E=       -0.000000004573 Rises=F Damp=F
 DIIS: error= 5.13D-07 at cycle   3 NSaved=   3.
 NSaved= 3 IEnMin= 3 EnMin= -2753.43565033496     IErMin= 3 ErrMin= 5.13D-07
 ErrMax= 5.13D-07 EMaxC= 1.00D-01 BMatC= 7.37D-11 BMatP= 2.65D-09
 IDIUse=1 WtCom= 1.00D+00 WtEn= 0.00D+00
 Coeff-Com:  0.192D-03-0.104D+00 0.110D+01
 Coeff:      0.192D-03-0.104D+00 0.110D+01
 Gap=     0.530 Goal=   None    Shift=    0.000
 RMSDP=1.77D-07 MaxDP=7.16D-06 DE=-4.57D-09 OVMax= 7.54D-06

 Cycle   4  Pass 1  IDiag  1:
 RMSU=  4.67D-08    CP:  1.00D+00  1.10D+00  1.17D+00
 FoFJK:  IHMeth= 1 ICntrl=     0 DoSepK=T KAlg= 1 I1Cent= 0 FoldK=F
 E= -2753.43565033509     Delta-E=       -0.000000000133 Rises=F Damp=F
 DIIS: error= 2.52D-07 at cycle   4 NSaved=   4.
 NSaved= 4 IEnMin= 4 EnMin= -2753.43565033509     IErMin= 4 ErrMin= 2.52D-07
 ErrMax= 2.52D-07 EMaxC= 1.00D-01 BMatC= 1.20D-11 BMatP= 7.37D-11
 IDIUse=1 WtCom= 1.00D+00 WtEn= 0.00D+00
 Coeff-Com:  0.185D-03-0.528D-01 0.336D+00 0.717D+00
 Coeff:      0.185D-03-0.528D-01 0.336D+00 0.717D+00
 Gap=     0.530 Goal=   None    Shift=    0.000
 RMSDP=1.67D-08 MaxDP=6.70D-07 DE=-1.33D-10 OVMax= 8.63D-07

 Cycle   5  Pass 1  IDiag  1:
 RMSU=  8.96D-09    CP:  1.00D+00  1.10D+00  1.18D+00  1.09D+00
 FoFJK:  IHMeth= 1 ICntrl=     0 DoSepK=T KAlg= 1 I1Cent= 0 FoldK=F
 E= -2753.43565033510     Delta-E=       -0.000000000010 Rises=F Damp=F
 DIIS: error= 3.17D-08 at cycle   5 NSaved=   5.
 NSaved= 5 IEnMin= 5 EnMin= -2753.43565033510     IErMin= 5 ErrMin= 3.17D-08
 ErrMax= 3.17D-08 EMaxC= 1.00D-01 BMatC= 1.83D-13 BMatP= 1.20D-11
 IDIUse=1 WtCom= 1.00D+00 WtEn= 0.00D+00
 Coeff-Com:  0.337D-05 0.178D-02-0.300D-01 0.167D-01 0.101D+01
 Coeff:      0.337D-05 0.178D-02-0.300D-01 0.167D-01 0.101D+01
 Gap=     0.530 Goal=   None    Shift=    0.000
 RMSDP=7.21D-09 MaxDP=4.15D-07 DE=-1.00D-11 OVMax= 3.26D-07

 SCF Done:  E(RLC-wPBE) =  -2753.43565034     A.U. after    5 cycles
             Convg  =    0.7215D-08             -V/T =  2.0014
 KE= 2.749528431981D+03 PE=-6.578941356999D+03 EE= 1.075977274683D+03
 Leave Link  502 at Tue May 12 19:40:51 2020, MaxMem= 1073741824 cpu:      86.5
 (Enter /home/matheus/.gaussian/g09/l122.exe)
 Restoring MOs from calculation   4 to rwf.
 Counterpoise: doing MCBS calculation for fragment   1
 Leave Link  122 at Tue May 12 19:40:51 2020, MaxMem= 1073741824 cpu:       0.0
 (Enter /home/matheus/.gaussian/g09/l301.exe)
 Basis read from rwf:  (5D, 7F)
 No pseudopotential information found on rwf file.
 There are   138 symmetry adapted basis functions of A   symmetry.
 Integral buffers will be    131072 words long.
 Raffenetti 2 integral format.
 Two-electron integral symmetry is turned on.
   138 basis functions,   198 primitive gaussians,   160 cartesian basis functions
     9 alpha electrons        9 beta electrons
       nuclear repulsion energy        36.6165119696 Hartrees.
 IExCor=32609 DFT=T Ex+Corr=LC-wPBE ExCW=0 ScaHFX=  1.000000
 ScaDFX=  1.000000  0.000000  1.000000  1.000000 ScalE2=  1.000000  1.000000
 IRadAn=      5 IRanWt=     -1 IRanGd=            0 ICorTp=0
  HFx wShort=  0.000000 wLong=  0.400000 cFull=  0.000000 cShort=  0.000000 cLong=  1.000000
  DFx wShort=  0.000000 wLong=  0.400000 cFull=  0.000000 cShort=  0.000000 cLong=  1.000000
 NAtoms=    5 NActive=    4 NUniq=    4 SFac= 1.00D+00 NAtFMM=   60 NAOKFM=F Big=F
 No density basis found on file   718.
 Leave Link  301 at Tue May 12 19:40:51 2020, MaxMem= 1073741824 cpu:       0.2
 (Enter /home/matheus/.gaussian/g09/l302.exe)
 NPDir=0 NMtPBC=     1 NCelOv=     1 NCel=       1 NClECP=     1 NCelD=      1
         NCelK=      1 NCelE2=     1 NClLst=     1 CellRange=     0.0.
 One-electron integrals computed using PRISM.
 NBasis=   138 RedAO= T  NBF=   138
 NBsUse=   138 1.00D-06 NBFU=   138
 Precomputing XC quadrature grid using
 IXCGrd= 2 IRadAn=           5 IRanWt=          -1 IRanGd=           0 AccXCQ= 0.00D+00.
 NRdTot=     344 NPtTot=       92556 NUsed=       95038 NTot=       95070
 NSgBfM=   160   160   160   160   160 NAtAll=     4     4.
 Leave Link  302 at Tue May 12 19:40:51 2020, MaxMem= 1073741824 cpu:       0.7
 (Enter /home/matheus/.gaussian/g09/l303.exe)
 DipDrv:  MaxL=1.
 Leave Link  303 at Tue May 12 19:40:51 2020, MaxMem= 1073741824 cpu:       0.1
 (Enter /home/matheus/.gaussian/g09/l401.exe)
 Initial guess read from the read-write file.
 Guess basis will be translated and rotated to current coordinates.
 Initial guess orbital symmetries:
       Occupied  (A) (A) (A) (A) (A) (A) (A) (A) (A)
       Virtual   (A) (A) (A) (A) (A) (A) (A) (A) (A) (A) (A) (A)
                 (A) (A) (A) (A) (A) (A) (A) (A) (A) (A) (A) (A)
                 (A) (A) (A) (A) (A) (A) (A) (A) (A) (A) (A) (A)
                 (A) (A) (A) (A) (A) (A) (A) (A) (A) (A) (A) (A)
                 (A) (A) (A) (A) (A) (A) (A) (A) (A) (A) (A) (A)
                 (A) (A) (A) (A) (A) (A) (A) (A) (A) (A) (A) (A)
                 (A) (A) (A) (A) (A) (A) (A) (A) (A) (A) (A) (A)
                 (A) (A) (A) (A) (A) (A) (A) (A) (A) (A) (A) (A)
                 (A) (A) (A) (A) (A) (A) (A) (A) (A) (A) (A) (A)
                 (A) (A) (A) (A) (A) (A) (A) (A) (A) (A) (A) (A)
                 (A) (A) (A) (A) (A) (A) (A) (A) (A)
 The electronic state of the initial guess is 1-A.
 Generating alternative initial guess.
 Harris functional with IExCor=32609 diagonalized for initial guess.
 ExpMin= 2.53D-02 ExpMax= 1.53D+04 ExpMxC= 5.22D+02 IAcc=3 IRadAn=         5 AccDes= 0.00D+00
 HarFok:  IExCor=32609 AccDes= 0.00D+00 IRadAn=         5 IDoV= 1
 ScaDFX=  1.000000  1.000000  1.000000  1.000000
 FoFCou: FMM=F IPFlag=           0 FMFlag=      100000 FMFlg1=           0
         NFxFlg=           0 DoJE=T BraDBF=F KetDBF=T FulRan=T
         Omega=  0.000000  0.000000  1.000000  0.000000  0.000000 ICntrl=     500 IOpCl=  0
         NMat0=    1 NMatS0=    1 NMatT0=    0 NMatD0=    1 NMtDS0=    0 NMtDT0=    0
         I1Cent=           4 NGrid=           0.
 Petite list used in FoFCou.
 Harris En= -151.502350795681    
 Leave Link  401 at Tue May 12 19:40:51 2020, MaxMem= 1073741824 cpu:       2.3
 (Enter /home/matheus/.gaussian/g09/l502.exe)
 Closed shell SCF:
 Requested convergence on RMS density matrix=1.00D-08 within 128 cycles.
 Requested convergence on MAX density matrix=1.00D-06.
 Requested convergence on             energy=1.00D-06.
 No special actions if energy rises.
 Using DIIS extrapolation, IDIIS=  1040.
 Integral symmetry usage will be decided dynamically.
        94980 words used for storage of precomputed grid.
 IEnd=      192360 IEndB=      192360 NGot=  1073741824 MDV=  1073591865
 LenX=  1073591865 LenY=  1073565824
 Fock matrices will be formed incrementally for  20 cycles.

 Cycle   1  Pass 1  IDiag  1:
 FoFJK:  IHMeth= 1 ICntrl=     0 DoSepK=T KAlg= 1 I1Cent= 0 FoldK=F
 FoFCou: FMM=F IPFlag=           0 FMFlag=      100000 FMFlg1=           0
         NFxFlg=           0 DoJE=T BraDBF=F KetDBF=F FulRan=T
         Omega=  0.000000  0.000000  1.000000  0.000000  0.000000 ICntrl=     500 IOpCl=  0
         NMat0=    1 NMatS0=    1 NMatT0=    0 NMatD0=    1 NMtDS0=    0 NMtDT0=    0
         I1Cent=           0 NGrid=           0.
 Symmetry not used in FoFCou.
 E= -151.525093569411    
 DIIS: error= 1.42D-05 at cycle   1 NSaved=   1.
 NSaved= 1 IEnMin= 1 EnMin= -151.525093569411     IErMin= 1 ErrMin= 1.42D-05
 ErrMax= 1.42D-05 EMaxC= 1.00D-01 BMatC= 3.98D-08 BMatP= 3.98D-08
 IDIUse=1 WtCom= 1.00D+00 WtEn= 0.00D+00
 Coeff-Com:  0.100D+01
 Coeff:      0.100D+01
 Gap=     0.447 Goal=   None    Shift=    0.000
 RMSDP=1.20D-06 MaxDP=2.58D-05              OVMax= 6.03D-05

 Cycle   2  Pass 1  IDiag  1:
 RMSU=  8.47D-07    CP:  1.00D+00
 FoFJK:  IHMeth= 1 ICntrl=     0 DoSepK=T KAlg= 1 I1Cent= 0 FoldK=F
 E= -151.525093606657     Delta-E=       -0.000000037246 Rises=F Damp=F
 DIIS: error= 2.79D-06 at cycle   2 NSaved=   2.
 NSaved= 2 IEnMin= 2 EnMin= -151.525093606657     IErMin= 2 ErrMin= 2.79D-06
 ErrMax= 2.79D-06 EMaxC= 1.00D-01 BMatC= 1.44D-09 BMatP= 3.98D-08
 IDIUse=1 WtCom= 1.00D+00 WtEn= 0.00D+00
 Coeff-Com: -0.116D+00 0.112D+01
 Coeff:     -0.116D+00 0.112D+01
 Gap=     0.447 Goal=   None    Shift=    0.000
 RMSDP=3.59D-07 MaxDP=8.56D-06 DE=-3.72D-08 OVMax= 2.45D-05

 Cycle   3  Pass 1  IDiag  1:
 RMSU=  1.42D-07    CP:  1.00D+00  1.25D+00
 FoFJK:  IHMeth= 1 ICntrl=     0 DoSepK=T KAlg= 1 I1Cent= 0 FoldK=F
 E= -151.525093609867     Delta-E=       -0.000000003210 Rises=F Damp=F
 DIIS: error= 1.21D-06 at cycle   3 NSaved=   3.
 NSaved= 3 IEnMin= 3 EnMin= -151.525093609867     IErMin= 3 ErrMin= 1.21D-06
 ErrMax= 1.21D-06 EMaxC= 1.00D-01 BMatC= 2.33D-10 BMatP= 1.44D-09
 IDIUse=1 WtCom= 1.00D+00 WtEn= 0.00D+00
 Coeff-Com: -0.344D-01 0.146D+00 0.888D+00
 Coeff:     -0.344D-01 0.146D+00 0.888D+00
 Gap=     0.447 Goal=   None    Shift=    0.000
 RMSDP=1.18D-07 MaxDP=3.03D-06 DE=-3.21D-09 OVMax= 7.63D-06

 Cycle   4  Pass 1  IDiag  1:
 RMSU=  6.50D-08    CP:  1.00D+00  1.30D+00  1.20D+00
 FoFJK:  IHMeth= 1 ICntrl=     0 DoSepK=T KAlg= 1 I1Cent= 0 FoldK=F
 E= -151.525093610148     Delta-E=       -0.000000000281 Rises=F Damp=F
 DIIS: error= 9.04D-07 at cycle   4 NSaved=   4.
 NSaved= 4 IEnMin= 4 EnMin= -151.525093610148     IErMin= 4 ErrMin= 9.04D-07
 ErrMax= 9.04D-07 EMaxC= 1.00D-01 BMatC= 1.80D-10 BMatP= 2.33D-10
 IDIUse=1 WtCom= 1.00D+00 WtEn= 0.00D+00
 Coeff-Com:  0.606D-02-0.168D+00 0.518D+00 0.644D+00
 Coeff:      0.606D-02-0.168D+00 0.518D+00 0.644D+00
 Gap=     0.447 Goal=   None    Shift=    0.000
 RMSDP=6.40D-08 MaxDP=1.35D-06 DE=-2.81D-10 OVMax= 4.13D-06

 Cycle   5  Pass 1  IDiag  1:
 RMSU=  1.90D-08    CP:  1.00D+00  1.32D+00  1.44D+00  7.84D-01
 FoFJK:  IHMeth= 1 ICntrl=     0 DoSepK=T KAlg= 1 I1Cent= 0 FoldK=F
 E= -151.525093610310     Delta-E=       -0.000000000162 Rises=F Damp=F
 DIIS: error= 1.99D-07 at cycle   5 NSaved=   5.
 NSaved= 5 IEnMin= 5 EnMin= -151.525093610310     IErMin= 5 ErrMin= 1.99D-07
 ErrMax= 1.99D-07 EMaxC= 1.00D-01 BMatC= 4.74D-12 BMatP= 1.80D-10
 IDIUse=1 WtCom= 1.00D+00 WtEn= 0.00D+00
 Coeff-Com:  0.437D-02-0.381D-01-0.499D-01 0.666D-01 0.102D+01
 Coeff:      0.437D-02-0.381D-01-0.499D-01 0.666D-01 0.102D+01
 Gap=     0.447 Goal=   None    Shift=    0.000
 RMSDP=2.47D-08 MaxDP=4.31D-07 DE=-1.62D-10 OVMax= 2.30D-06

 Cycle   6  Pass 1  IDiag  1:
 RMSU=  6.73D-09    CP:  1.00D+00  1.33D+00  1.51D+00  9.08D-01  1.39D+00
 FoFJK:  IHMeth= 1 ICntrl=     0 DoSepK=T KAlg= 1 I1Cent= 0 FoldK=F
 E= -151.525093610324     Delta-E=       -0.000000000014 Rises=F Damp=F
 DIIS: error= 6.21D-08 at cycle   6 NSaved=   6.
 NSaved= 6 IEnMin= 6 EnMin= -151.525093610324     IErMin= 6 ErrMin= 6.21D-08
 ErrMax= 6.21D-08 EMaxC= 1.00D-01 BMatC= 5.61D-13 BMatP= 4.74D-12
 IDIUse=1 WtCom= 1.00D+00 WtEn= 0.00D+00
 Coeff-Com:  0.819D-04 0.953D-02-0.508D-01-0.446D-01 0.152D+00 0.934D+00
 Coeff:      0.819D-04 0.953D-02-0.508D-01-0.446D-01 0.152D+00 0.934D+00
 Gap=     0.447 Goal=   None    Shift=    0.000
 RMSDP=8.70D-09 MaxDP=1.66D-07 DE=-1.40D-11 OVMax= 8.69D-07

 SCF Done:  E(RLC-wPBE) =  -151.525093610     A.U. after    6 cycles
             Convg  =    0.8700D-08             -V/T =  2.0068
 KE= 1.505026983778D+02 PE=-4.315066361734D+02 EE= 9.286233221559D+01
 Leave Link  502 at Tue May 12 19:40:57 2020, MaxMem= 1073741824 cpu:      43.4
 (Enter /home/matheus/.gaussian/g09/l122.exe)
 Restoring MOs from calculation   5 to rwf.
 Counterpoise: doing MCBS calculation for fragment   2
 Leave Link  122 at Tue May 12 19:40:57 2020, MaxMem= 1073741824 cpu:       0.0
 (Enter /home/matheus/.gaussian/g09/l301.exe)
 Basis read from rwf:  (5D, 7F)
 No pseudopotential information found on rwf file.
 There are    59 symmetry adapted basis functions of A   symmetry.
 Integral buffers will be    131072 words long.
 Raffenetti 2 integral format.
 Two-electron integral symmetry is turned on.
    59 basis functions,   217 primitive gaussians,    69 cartesian basis functions
    18 alpha electrons       18 beta electrons
       nuclear repulsion energy         0.0000000000 Hartrees.
 IExCor=32609 DFT=T Ex+Corr=LC-wPBE ExCW=0 ScaHFX=  1.000000
 ScaDFX=  1.000000  0.000000  1.000000  1.000000 ScalE2=  1.000000  1.000000
 IRadAn=      5 IRanWt=     -1 IRanGd=            0 ICorTp=0
  HFx wShort=  0.000000 wLong=  0.400000 cFull=  0.000000 cShort=  0.000000 cLong=  1.000000
  DFx wShort=  0.000000 wLong=  0.400000 cFull=  0.000000 cShort=  0.000000 cLong=  1.000000
 NAtoms=    5 NActive=    1 NUniq=    1 SFac= 1.00D+00 NAtFMM=   60 NAOKFM=F Big=F
 No density basis found on file   718.
 Leave Link  301 at Tue May 12 19:40:57 2020, MaxMem= 1073741824 cpu:       0.2
 (Enter /home/matheus/.gaussian/g09/l302.exe)
 NPDir=0 NMtPBC=     1 NCelOv=     1 NCel=       1 NClECP=     1 NCelD=      1
         NCelK=      1 NCelE2=     1 NClLst=     1 CellRange=     0.0.
 One-electron integrals computed using PRISM.
 NBasis=    59 RedAO= T  NBF=    59
 NBsUse=    59 1.00D-06 NBFU=    59
 Precomputing XC quadrature grid using
 IXCGrd= 2 IRadAn=           5 IRanWt=          -1 IRanGd=           0 AccXCQ= 0.00D+00.
 NRdTot=      81 NPtTot=       30352 NUsed=       30981 NTot=       31013
 NSgBfM=    69    69    69    69    69 NAtAll=     1     1.
 Leave Link  302 at Tue May 12 19:40:57 2020, MaxMem= 1073741824 cpu:       0.6
 (Enter /home/matheus/.gaussian/g09/l303.exe)
 DipDrv:  MaxL=1.
 Leave Link  303 at Tue May 12 19:40:57 2020, MaxMem= 1073741824 cpu:       0.2
 (Enter /home/matheus/.gaussian/g09/l401.exe)
 Initial guess read from the read-write file.
 Guess basis will be translated and rotated to current coordinates.
 Initial guess orbital symmetries:
       Occupied  (A) (A) (A) (A) (A) (A) (A) (A) (A) (A) (A) (A)
                 (A) (A) (A) (A) (A) (A)
       Virtual   (A) (A) (A) (A) (A) (A) (A) (A) (A) (A) (A) (A)
                 (A) (A) (A) (A) (A) (A) (A) (A) (A) (A) (A) (A)
                 (A) (A) (A) (A) (A) (A) (A) (A) (A) (A) (A) (A)
                 (A) (A) (A) (A) (A)
 The electronic state of the initial guess is 1-A.
 Generating alternative initial guess.
 Harris functional with IExCor=32609 diagonalized for initial guess.
 ExpMin= 4.00D-02 ExpMax= 1.17D+07 ExpMxC= 1.33D+04 IAcc=3 IRadAn=         5 AccDes= 0.00D+00
 HarFok:  IExCor=32609 AccDes= 0.00D+00 IRadAn=         5 IDoV= 1
 ScaDFX=  1.000000  1.000000  1.000000  1.000000
 FoFCou: FMM=F IPFlag=           0 FMFlag=      100000 FMFlg1=           0
         NFxFlg=           0 DoJE=T BraDBF=F KetDBF=T FulRan=T
         Omega=  0.000000  0.000000  1.000000  0.000000  0.000000 ICntrl=     500 IOpCl=  0
         NMat0=    1 NMatS0=    1 NMatT0=    0 NMatD0=    1 NMtDS0=    0 NMtDT0=    0
         I1Cent=           4 NGrid=           0.
 Petite list used in FoFCou.
 DSYEVD returned Info=          89 IAlg= 4 N=    59 NDim=    59 NE2=    18198841 trying DSYEV.
 Harris En= -2753.24576836237    
 Leave Link  401 at Tue May 12 19:40:57 2020, MaxMem= 1073741824 cpu:       1.0
 (Enter /home/matheus/.gaussian/g09/l502.exe)
 Closed shell SCF:
 Requested convergence on RMS density matrix=1.00D-08 within 128 cycles.
 Requested convergence on MAX density matrix=1.00D-06.
 Requested convergence on             energy=1.00D-06.
 No special actions if energy rises.
 Using DIIS extrapolation, IDIIS=  1040.
 Integral symmetry usage will be decided dynamically.
        30923 words used for storage of precomputed grid.
 IEnd=       64406 IEndB=       64406 NGot=  1073741824 MDV=  1073698889
 LenX=  1073698889 LenY=  1073693687
 Fock matrices will be formed incrementally for  20 cycles.

 Cycle   1  Pass 1  IDiag  1:
 FoFJK:  IHMeth= 1 ICntrl=     0 DoSepK=T KAlg= 1 I1Cent= 0 FoldK=F
 FoFCou: FMM=F IPFlag=           0 FMFlag=      100000 FMFlg1=           0
         NFxFlg=           0 DoJE=T BraDBF=F KetDBF=F FulRan=T
         Omega=  0.000000  0.000000  1.000000  0.000000  0.000000 ICntrl=     500 IOpCl=  0
         NMat0=    1 NMatS0=    1 NMatT0=    0 NMatD0=    1 NMtDS0=    0 NMtDT0=    0
         I1Cent=           0 NGrid=           0.
 Symmetry not used in FoFCou.
 E= -2753.43563276534    
 DIIS: error= 8.10D-14 at cycle   1 NSaved=   1.
 NSaved= 1 IEnMin= 1 EnMin= -2753.43563276534     IErMin= 1 ErrMin= 8.10D-14
 ErrMax= 8.10D-14 EMaxC= 1.00D-01 BMatC= 1.75D-25 BMatP= 1.75D-25
 IDIUse=1 WtCom= 1.00D+00 WtEn= 0.00D+00
 Coeff-Com:  0.100D+01
 Coeff:      0.100D+01
 Gap=     0.599 Goal=   None    Shift=    0.000
 RMSDP=7.30D-15 MaxDP=2.13D-13              OVMax= 6.58D-14

 SCF Done:  E(RLC-wPBE) =  -2753.43563277     A.U. after    1 cycles
             Convg  =    0.7299D-14             -V/T =  2.0014
 KE= 2.749535160915D+03 PE=-6.578948648680D+03 EE= 1.075977855000D+03
 Leave Link  502 at Tue May 12 19:40:58 2020, MaxMem= 1073741824 cpu:      10.9
 (Enter /home/matheus/.gaussian/g09/l122.exe)
 Restoring MOs from calculation   1 to rwf.
 Counterpoise: corrected energy =   -2904.960755053801
 Counterpoise: BSSE energy =       0.000021368014
 Leave Link  122 at Tue May 12 19:40:58 2020, MaxMem= 1073741824 cpu:       0.0
 (Enter /home/matheus/.gaussian/g09/l108.exe)
 Scan completed.

 Summary of the potential surface scan:
   N      R1          SCF    
 ----  ---------  -----------
    1     3.0000  -2753.43563
    2     3.1000  -2753.43563
    3     3.2000  -2753.43563
    4     3.3000  -2753.43563
    5     3.4000  -2753.43563
    6     3.5000  -2753.43563
    7     3.6000  -2753.43563
    8     3.7000  -2753.43563
    9     3.8000  -2753.43563
   10     3.9000  -2753.43563
   11     4.0000  -2753.43563
   12     4.1000  -2753.43563
   13     4.2000  -2753.43563
   14     4.3000  -2753.43563
   15     4.4000  -2753.43563
   16     4.5000  -2753.43563
   17     4.6000  -2753.43563
   18     4.7000  -2753.43563
   19     4.8000  -2753.43563
   20     4.9000  -2753.43563
   21     5.0000  -2753.43563
 ----  ---------  -----------
  
 Leave Link  108 at Tue May 12 19:40:58 2020, MaxMem= 1073741824 cpu:       0.0
 (Enter /home/matheus/.gaussian/g09/l9999.exe)
 1\1\GINC-REDGIANT\Scan\RLC-wPBE\Aug-CC-pVTZ\H2Kr1O2\MATHEUS\12-May-202
 0\1\\#p lc-wpbe/aug-cc-PVTz int=ultrafine counterpoise=2 Scan\\TCC\\0,
 1\O,0,0.,0.,0.725\O,0,0.,0.,-0.725\H,0,-0.8633149634,-0.3142209495,1.0
 235104166\H,0,0.,0.9187205947,-1.0235104166\Kr,0,0.,R1,0.\\R1=3.,s,20,
 0.1\\Version=EM64L-G09RevC.01\State=1-A\HF=-2753.4356328,-2753.4356328
 ,-2753.4356328,-2753.4356328,-2753.4356328,-2753.4356328,-2753.4356328
 ,-2753.4356328,-2753.4356328,-2753.4356328,-2753.4356328,-2753.4356328
 ,-2753.4356328,-2753.4356328,-2753.4356328,-2753.4356328,-2753.4356328
 ,-2753.4356328,-2753.4356328,-2753.4356328,-2753.4356328\RMSD=1.428e-0
 9,5.221e-11,1.075e-11,2.471e-12,6.358e-13,1.571e-13,4.426e-14,1.129e-1
 4,1.780e-14,1.481e-14,8.000e-15,5.029e-15,1.212e-14,1.940e-14,1.729e-1
 4,5.571e-15,7.903e-15,5.888e-15,1.062e-14,5.448e-15,7.299e-15\PG=C01 [
 X(H2Kr1O2)]\\@


 FROM THE ASHES OF OUR DESPAIR GROW THE FLOWERS OF TOMORROW.
 Job cpu time:  0 days  3 hours  5 minutes 28.0 seconds.
 File lengths (MBytes):  RWF=     33 Int=      0 D2E=      0 Chk=      8 Scr=      1
 Normal termination of Gaussian 09 at Tue May 12 19:40:58 2020.
