 Entering Gaussian System, Link 0=g09
 Input=/home/matheus/.tcc/Inputs/Inputs-lc-wpbe-default/H2O2-Kr_18.com
 Output=/home/matheus/.tcc/Logs/Logs-lc-wpbe-default/H2O2-Kr_18.log
 Initial command:
 /home/matheus/.gaussian/g09/l1.exe /home/matheus/.gaussian/g09/scratch/Gau-11955.inp -scrdir=/home/matheus/.gaussian/g09/scratch/
 Entering Link 1 = /home/matheus/.gaussian/g09/l1.exe PID=     11959.
  
 Copyright (c) 1988,1990,1992,1993,1995,1998,2003,2009,2011,
            Gaussian, Inc.  All Rights Reserved.
  
 This is part of the Gaussian(R) 09 program.  It is based on
 the Gaussian(R) 03 system (copyright 2003, Gaussian, Inc.),
 the Gaussian(R) 98 system (copyright 1998, Gaussian, Inc.),
 the Gaussian(R) 94 system (copyright 1995, Gaussian, Inc.),
 the Gaussian 92(TM) system (copyright 1992, Gaussian, Inc.),
 the Gaussian 90(TM) system (copyright 1990, Gaussian, Inc.),
 the Gaussian 88(TM) system (copyright 1988, Gaussian, Inc.),
 the Gaussian 86(TM) system (copyright 1986, Carnegie Mellon
 University), and the Gaussian 82(TM) system (copyright 1983,
 Carnegie Mellon University). Gaussian is a federally registered
 trademark of Gaussian, Inc.
  
 This software contains proprietary and confidential information,
 including trade secrets, belonging to Gaussian, Inc.
  
 This software is provided under written license and may be
 used, copied, transmitted, or stored only in accord with that
 written license.
  
 The following legend is applicable only to US Government
 contracts under FAR:
  
                    RESTRICTED RIGHTS LEGEND
  
 Use, reproduction and disclosure by the US Government is
 subject to restrictions as set forth in subparagraphs (a)
 and (c) of the Commercial Computer Software - Restricted
 Rights clause in FAR 52.227-19.
  
 Gaussian, Inc.
 340 Quinnipiac St., Bldg. 40, Wallingford CT 06492
  
  
 ---------------------------------------------------------------
 Warning -- This program may not be used in any manner that
 competes with the business of Gaussian, Inc. or will provide
 assistance to any competitor of Gaussian, Inc.  The licensee
 of this program is prohibited from giving any competitor of
 Gaussian, Inc. access to this program.  By using this program,
 the user acknowledges that Gaussian, Inc. is engaged in the
 business of creating and licensing software in the field of
 computational chemistry and represents and warrants to the
 licensee that it is not a competitor of Gaussian, Inc. and that
 it will not use this program in any manner prohibited above.
 ---------------------------------------------------------------
  

 Cite this work as:
 Gaussian 09, Revision C.01,
 M. J. Frisch, G. W. Trucks, H. B. Schlegel, G. E. Scuseria, 
 M. A. Robb, J. R. Cheeseman, G. Scalmani, V. Barone, B. Mennucci, 
 G. A. Petersson, H. Nakatsuji, M. Caricato, X. Li, H. P. Hratchian, 
 A. F. Izmaylov, J. Bloino, G. Zheng, J. L. Sonnenberg, M. Hada, 
 M. Ehara, K. Toyota, R. Fukuda, J. Hasegawa, M. Ishida, T. Nakajima, 
 Y. Honda, O. Kitao, H. Nakai, T. Vreven, J. A. Montgomery, Jr., 
 J. E. Peralta, F. Ogliaro, M. Bearpark, J. J. Heyd, E. Brothers, 
 K. N. Kudin, V. N. Staroverov, T. Keith, R. Kobayashi, J. Normand, 
 K. Raghavachari, A. Rendell, J. C. Burant, S. S. Iyengar, J. Tomasi, 
 M. Cossi, N. Rega, J. M. Millam, M. Klene, J. E. Knox, J. B. Cross, 
 V. Bakken, C. Adamo, J. Jaramillo, R. Gomperts, R. E. Stratmann, 
 O. Yazyev, A. J. Austin, R. Cammi, C. Pomelli, J. W. Ochterski, 
 R. L. Martin, K. Morokuma, V. G. Zakrzewski, G. A. Voth, 
 P. Salvador, J. J. Dannenberg, S. Dapprich, A. D. Daniels, 
 O. Farkas, J. B. Foresman, J. V. Ortiz, J. Cioslowski, 
 and D. J. Fox, Gaussian, Inc., Wallingford CT, 2010.
 
 ******************************************
 Gaussian 09:  EM64L-G09RevC.01 23-Sep-2011
                12-May-2020 
 ******************************************
 %mem=8GB
 %nproc=8
 Will use up to    8 processors via shared memory.
 --------------------------------------------------------
 #p lc-wpbe/aug-cc-PVTz int=ultrafine counterpoise=2 Scan
 --------------------------------------------------------
 1/38=1,60=1,62=2/1,8;
 2/12=2,17=6,18=5,29=3,40=1/2;
 1/38=1,53=5172,62=2/22;
 3/5=16,6=1,7=10,11=2,16=1,25=1,30=1,74=-41,75=-5/1,2,3;
 4//1;
 5/5=2,38=5/2;
 6/7=2,8=2,9=2,10=2,18=1,28=1/1;
 1/53=4052,62=2,63=1/22;
 3/5=7,6=11,7=10,11=2,16=1,25=1,30=1,74=-41,75=-5,82=7/1,2,3;
 4//1;
 5/5=2,38=5/2;
 6/7=2,8=2,9=2,10=2,18=1,28=1/1;
 1/53=3042,62=2,63=2/22;
 3/5=7,6=11,7=10,11=2,16=1,25=1,30=1,74=-41,75=-5,82=7/1,2,3;
 4//1;
 5/5=2,38=5/2;
 6/7=2,8=2,9=2,10=2,18=1,28=1/1;
 1/53=2032,62=2,63=3/22;
 3/5=7,6=11,7=10,11=2,16=1,25=1,30=1,74=-41,75=-5,82=7/1,2,3;
 4//1;
 5/5=2,38=5/2;
 6/7=2,8=2,9=2,10=2,18=1,28=1/1;
 1/53=1022,62=2,63=4/22;
 3/5=7,6=11,7=10,11=2,16=1,25=1,30=1,74=-41,75=-5,82=7/1,2,3;
 4//1;
 5/5=2,38=5/2;
 6/7=2,8=2,9=2,10=2,18=1,28=1/1;
 1/53=5014,62=2,63=5/22;
 1/60=1,62=2/8(1);
 99/9=1/99;
 2/29=3/2;
 1/53=5173,62=2/22;
 3/5=7,6=11,7=10,11=2,16=1,25=1,30=1,74=-41,75=-5,82=7/1,2,3;
 4/5=5,16=3/1;
 5/5=2,38=5/2;
 1/53=4053,62=2,63=1/22;
 3/5=7,6=11,7=10,11=2,16=1,25=1,30=1,74=-41,75=-5,82=7/1,2,3;
 4/5=5,16=3/1;
 5/5=2,38=5/2;
 1/53=3043,62=2,63=2/22;
 3/5=7,6=11,7=10,11=2,16=1,25=1,30=1,74=-41,75=-5,82=7/1,2,3;
 4/5=5,16=3/1;
 5/5=2,38=5/2;
 1/53=2033,62=2,63=3/22;
 3/5=7,6=11,7=10,11=2,16=1,25=1,30=1,74=-41,75=-5,82=7/1,2,3;
 4/5=5,16=3/1;
 5/5=2,38=5/2;
 1/53=1024,62=2,63=4/22;
 3/5=7,6=11,7=10,11=2,16=1,25=1,30=1,74=-41,75=-5,82=7/1,2,3;
 4/5=5,16=3/1;
 5/5=2,38=5/2;
 1/53=5014,62=2,63=5/22;
 1/60=1,62=2/8(-22);
 99/9=1/99;
 Leave Link    1 at Tue May 12 16:22:09 2020, MaxMem= 1073741824 cpu:       0.2
 (Enter /home/matheus/.gaussian/g09/l101.exe)
 ---
 TCC
 ---
 Charge =  0 Multiplicity = 1 in supermolecule
 Charge =  0 Multiplicity = 1 in fragment  1.
 Charge =  0 Multiplicity = 1 in fragment  2.
 Symbolic Z-Matrix:
 O(Fragment=1)         0.        0.        0.725 
 O(Fragment=1)         0.        0.       -0.725 
 H(Fragment=1)         0.       -0.91872   1.02351 
 H(Fragment=1)         0.        0.91872  -1.02351 
 Kr(Fragment=2)        0.       R1        0. 
       Variables:
  R1                    3.     Scan 20    0.1    
 
 NAtoms=      5 NQM=        0 NQMF=       0 NMMI=      5 NMMIF=      0
                NMic=       0 NMicF=      0.
                    Isotopes and Nuclear Properties:
 (Nuclear quadrupole moments (NQMom) in fm**2, nuclear magnetic moments (NMagM)
  in nuclear magnetons)

  Atom         1           2           3           4           5
 IAtWgt=          16          16           1           1          84
 AtmWgt=  15.9949146  15.9949146   1.0078250   1.0078250  83.9115064
 NucSpn=           0           0           1           1           0
 AtZEff=   0.0000000   0.0000000   0.0000000   0.0000000   0.0000000
 NQMom=    0.0000000   0.0000000   0.0000000   0.0000000   0.0000000
 NMagM=    0.0000000   0.0000000   2.7928460   2.7928460   0.0000000
 Leave Link  101 at Tue May 12 16:22:09 2020, MaxMem= 1073741824 cpu:       0.4
 (Enter /home/matheus/.gaussian/g09/l108.exe)
 Scan the potential surface.
 Variable   Value     No. Steps Step-Size
 -------- ----------- --------- ---------
     1       3.000000      20      0.1000
 A total of     21 points will be computed.
 Leave Link  108 at Tue May 12 16:22:09 2020, MaxMem= 1073741824 cpu:       0.0
 (Enter /home/matheus/.gaussian/g09/l202.exe)
 ---------------------------------------------------------------------------------------------------
                            Z-MATRIX (ANGSTROMS AND DEGREES)
   CD    Cent   Atom    N1       Length/X        N2       Alpha/Y        N3        Beta/Z          J
 ---------------------------------------------------------------------------------------------------
      1      1  O        0   0.000000          0.000000          0.725000
      2      2  O        0   0.000000          0.000000         -0.725000
      3      3  H        0   0.000000         -0.918721          1.023510
      4      4  H        0   0.000000          0.918721         -1.023510
      5      5  Kr       0   0.000000          3.000000          0.000000
 ---------------------------------------------------------------------------------------------------
                         Z-Matrix orientation:                         
 ---------------------------------------------------------------------
 Center     Atomic      Atomic             Coordinates (Angstroms)
 Number     Number       Type             X           Y           Z
 ---------------------------------------------------------------------
      1          8           0        0.000000    0.000000    0.725000
      2          8           0        0.000000    0.000000   -0.725000
      3          1           0        0.000000   -0.918721    1.023510
      4          1           0        0.000000    0.918721   -1.023510
      5         36           0        0.000000    3.000000    0.000000
 ---------------------------------------------------------------------
                    Distance matrix (angstroms):
                    1          2          3          4          5
     1  O    0.000000
     2  O    1.450000   0.000000
     3  H    0.966000   1.975180   0.000000
     4  H    1.975180   0.966000   2.750724   0.000000
     5  Kr   3.086361   3.086361   4.050178   2.319331   0.000000
 Stoichiometry    H2KrO2
 Framework group  CS[SG(H2KrO2)]
 Deg. of freedom     7
 Full point group                 CS      NOp   2
 Largest Abelian subgroup         CS      NOp   2
 Largest concise Abelian subgroup C1      NOp   1
                         Standard orientation:                         
 ---------------------------------------------------------------------
 Center     Atomic      Atomic             Coordinates (Angstroms)
 Number     Number       Type             X           Y           Z
 ---------------------------------------------------------------------
      1          8           0        0.725000   -2.000000    0.000000
      2          8           0       -0.725000   -2.000000    0.000000
      3          1           0        1.023510   -2.918721    0.000000
      4          1           0       -1.023510   -1.081279    0.000000
      5         36           0        0.000000    1.000000    0.000000
 ---------------------------------------------------------------------
 Rotational constants (GHZ):     26.7279120      2.3023206      2.1197289
 Leave Link  202 at Tue May 12 16:22:09 2020, MaxMem= 1073741824 cpu:       0.0
 (Enter /home/matheus/.gaussian/g09/l122.exe)
 Leave Link  122 at Tue May 12 16:22:09 2020, MaxMem= 1073741824 cpu:       0.0
 (Enter /home/matheus/.gaussian/g09/l301.exe)
 Standard basis: Aug-CC-pVTZ (5D, 7F)
 Ernie: Thresh=  0.10000D-02 Tol=  0.10000D-05 Strict=F.
 Ernie:  38 primitive shells out of 205 were deleted.
 There are   131 symmetry adapted basis functions of A'  symmetry.
 There are    66 symmetry adapted basis functions of A"  symmetry.
 Integral buffers will be    131072 words long.
 Raffenetti 2 integral format.
 Two-electron integral symmetry is turned on.
   197 basis functions,   415 primitive gaussians,   229 cartesian basis functions
    27 alpha electrons       27 beta electrons
       nuclear repulsion energy       148.2769905491 Hartrees.
 IExCor=32609 DFT=T Ex+Corr=LC-wPBE ExCW=0 ScaHFX=  1.000000
 ScaDFX=  1.000000  0.000000  1.000000  1.000000 ScalE2=  1.000000  1.000000
 IRadAn=      5 IRanWt=     -1 IRanGd=            0 ICorTp=0
  HFx wShort=  0.000000 wLong=  0.400000 cFull=  0.000000 cShort=  0.000000 cLong=  1.000000
  DFx wShort=  0.000000 wLong=  0.400000 cFull=  0.000000 cShort=  0.000000 cLong=  1.000000
 NAtoms=    5 NActive=    5 NUniq=    5 SFac= 1.00D+00 NAtFMM=   60 NAOKFM=F Big=F
 Leave Link  301 at Tue May 12 16:22:09 2020, MaxMem= 1073741824 cpu:       0.2
 (Enter /home/matheus/.gaussian/g09/l302.exe)
 NPDir=0 NMtPBC=     1 NCelOv=     1 NCel=       1 NClECP=     1 NCelD=      1
         NCelK=      1 NCelE2=     1 NClLst=     1 CellRange=     0.0.
 One-electron integrals computed using PRISM.
 NBasis=   197 RedAO= T  NBF=   131    66
 NBsUse=   197 1.00D-06 NBFU=   131    66
 Precomputing XC quadrature grid using
 IXCGrd= 2 IRadAn=           5 IRanWt=          -1 IRanGd=           0 AccXCQ= 0.00D+00.
 NRdTot=     427 NPtTot=      123814 NUsed=      126881 NTot=      126913
 NSgBfM=   229   229   229   229   229 NAtAll=     5     5.
 Leave Link  302 at Tue May 12 16:22:09 2020, MaxMem= 1073741824 cpu:       0.9
 (Enter /home/matheus/.gaussian/g09/l303.exe)
 DipDrv:  MaxL=1.
 Leave Link  303 at Tue May 12 16:22:09 2020, MaxMem= 1073741824 cpu:       0.2
 (Enter /home/matheus/.gaussian/g09/l401.exe)
 Harris functional with IExCor=32609 diagonalized for initial guess.
 ExpMin= 2.53D-02 ExpMax= 1.17D+07 ExpMxC= 1.33D+04 IAcc=3 IRadAn=         5 AccDes= 0.00D+00
 HarFok:  IExCor=32609 AccDes= 0.00D+00 IRadAn=         5 IDoV= 1
 ScaDFX=  1.000000  1.000000  1.000000  1.000000
 FoFCou: FMM=F IPFlag=           0 FMFlag=      100000 FMFlg1=           0
         NFxFlg=           0 DoJE=T BraDBF=F KetDBF=T FulRan=T
         Omega=  0.000000  0.000000  1.000000  0.000000  0.000000 ICntrl=     500 IOpCl=  0
         NMat0=    1 NMatS0=    1 NMatT0=    0 NMatD0=    1 NMtDS0=    0 NMtDT0=    0
         I1Cent=           4 NGrid=           0.
 Petite list used in FoFCou.
 Harris En= -2904.73649432001    
 Initial guess orbital symmetries:
       Occupied  (A') (A') (A') (A') (A") (A') (A') (A') (A') (A')
                 (A") (A') (A') (A") (A') (A") (A') (A') (A') (A')
                 (A') (A") (A') (A") (A') (A') (A")
       Virtual   (A') (A') (A') (A') (A") (A') (A') (A') (A") (A')
                 (A') (A") (A') (A') (A") (A') (A") (A') (A') (A')
                 (A") (A') (A') (A") (A') (A') (A') (A') (A") (A')
                 (A') (A') (A") (A') (A") (A") (A') (A') (A') (A")
                 (A") (A') (A') (A') (A") (A') (A') (A") (A") (A')
                 (A') (A') (A") (A") (A') (A") (A') (A') (A') (A')
                 (A") (A') (A") (A') (A") (A') (A') (A') (A") (A')
                 (A') (A") (A") (A') (A') (A') (A") (A') (A') (A')
                 (A") (A') (A') (A") (A") (A') (A") (A') (A') (A")
                 (A') (A') (A") (A') (A') (A") (A') (A') (A") (A")
                 (A') (A') (A") (A') (A") (A') (A") (A') (A') (A")
                 (A') (A') (A") (A') (A') (A') (A') (A") (A') (A')
                 (A") (A') (A") (A') (A") (A") (A') (A") (A') (A")
                 (A') (A') (A') (A') (A') (A') (A') (A') (A") (A")
                 (A') (A') (A') (A") (A') (A') (A") (A') (A") (A')
                 (A") (A') (A") (A") (A") (A") (A") (A') (A') (A')
                 (A') (A") (A') (A') (A') (A') (A') (A') (A') (A')
 The electronic state of the initial guess is 1-A'.
 Leave Link  401 at Tue May 12 16:22:09 2020, MaxMem= 1073741824 cpu:       2.7
 (Enter /home/matheus/.gaussian/g09/l502.exe)
 Closed shell SCF:
 Requested convergence on RMS density matrix=1.00D-08 within 128 cycles.
 Requested convergence on MAX density matrix=1.00D-06.
 Requested convergence on             energy=1.00D-06.
 No special actions if energy rises.
 Using DIIS extrapolation, IDIIS=  1040.
 Integral symmetry usage will be decided dynamically.
       126823 words used for storage of precomputed grid.
 IEnd=      305835 IEndB=      305835 NGot=  1073741824 MDV=  1073505300
 LenX=  1073505300 LenY=  1073452418
 Fock matrices will be formed incrementally for  20 cycles.

 Cycle   1  Pass 1  IDiag  1:
 FoFJK:  IHMeth= 1 ICntrl=     0 DoSepK=T KAlg= 1 I1Cent= 0 FoldK=F
 FoFCou: FMM=F IPFlag=           0 FMFlag=      100000 FMFlg1=           0
         NFxFlg=           0 DoJE=T BraDBF=F KetDBF=F FulRan=T
         Omega=  0.000000  0.000000  1.000000  0.000000  0.000000 ICntrl=     500 IOpCl=  0
         NMat0=    1 NMatS0=    1 NMatT0=    0 NMatD0=    1 NMtDS0=    0 NMtDT0=    0
         I1Cent=           0 NGrid=           0.
 Petite list used in FoFCou.
 E= -2904.88006806868    
 DIIS: error= 3.14D-02 at cycle   1 NSaved=   1.
 NSaved= 1 IEnMin= 1 EnMin= -2904.88006806868     IErMin= 1 ErrMin= 3.14D-02
 ErrMax= 3.14D-02 EMaxC= 1.00D-01 BMatC= 2.62D-01 BMatP= 2.62D-01
 IDIUse=3 WtCom= 6.86D-01 WtEn= 3.14D-01
 Coeff-Com:  0.100D+01
 Coeff-En:   0.100D+01
 Coeff:      0.100D+01
 Gap=     0.430 Goal=   None    Shift=    0.000
 GapD=    0.430 DampG=2.000 DampE=0.500 DampFc=1.0000 IDamp=-1.
 RMSDP=2.31D-03 MaxDP=1.48D-01              OVMax= 6.29D-02

 Cycle   2  Pass 1  IDiag  1:
 RMSU=  1.61D-03    CP:  1.02D+00
 FoFJK:  IHMeth= 1 ICntrl=     0 DoSepK=T KAlg= 1 I1Cent= 0 FoldK=F
 E= -2904.92442268400     Delta-E=       -0.044354615319 Rises=F Damp=F
 DIIS: error= 1.29D-02 at cycle   2 NSaved=   2.
 NSaved= 2 IEnMin= 2 EnMin= -2904.92442268400     IErMin= 2 ErrMin= 1.29D-02
 ErrMax= 1.29D-02 EMaxC= 1.00D-01 BMatC= 7.77D-02 BMatP= 2.62D-01
 IDIUse=3 WtCom= 8.71D-01 WtEn= 1.29D-01
 Coeff-Com:  0.346D+00 0.654D+00
 Coeff-En:   0.181D+00 0.819D+00
 Coeff:      0.324D+00 0.676D+00
 Gap=     0.430 Goal=   None    Shift=    0.000
 RMSDP=9.37D-04 MaxDP=5.12D-02 DE=-4.44D-02 OVMax= 3.02D-02

 Cycle   3  Pass 1  IDiag  1:
 RMSU=  3.29D-04    CP:  1.01D+00  6.53D-01
 FoFJK:  IHMeth= 1 ICntrl=     0 DoSepK=T KAlg= 1 I1Cent= 0 FoldK=F
 E= -2904.95162683759     Delta-E=       -0.027204153589 Rises=F Damp=F
 DIIS: error= 2.25D-03 at cycle   3 NSaved=   3.
 NSaved= 3 IEnMin= 3 EnMin= -2904.95162683759     IErMin= 3 ErrMin= 2.25D-03
 ErrMax= 2.25D-03 EMaxC= 1.00D-01 BMatC= 1.80D-03 BMatP= 7.77D-02
 IDIUse=3 WtCom= 9.77D-01 WtEn= 2.25D-02
 Coeff-Com:  0.601D-01 0.193D+00 0.747D+00
 Coeff-En:   0.000D+00 0.000D+00 0.100D+01
 Coeff:      0.587D-01 0.189D+00 0.752D+00
 Gap=     0.411 Goal=   None    Shift=    0.000
 RMSDP=1.13D-04 MaxDP=2.98D-03 DE=-2.72D-02 OVMax= 7.93D-03

 Cycle   4  Pass 1  IDiag  1:
 RMSU=  5.84D-05    CP:  1.01D+00  6.82D-01  9.10D-01
 FoFJK:  IHMeth= 1 ICntrl=     0 DoSepK=T KAlg= 1 I1Cent= 0 FoldK=F
 E= -2904.95255888524     Delta-E=       -0.000932047643 Rises=F Damp=F
 DIIS: error= 6.37D-04 at cycle   4 NSaved=   4.
 NSaved= 4 IEnMin= 4 EnMin= -2904.95255888524     IErMin= 4 ErrMin= 6.37D-04
 ErrMax= 6.37D-04 EMaxC= 1.00D-01 BMatC= 1.31D-04 BMatP= 1.80D-03
 IDIUse=3 WtCom= 9.94D-01 WtEn= 6.37D-03
 Coeff-Com: -0.159D-02 0.288D-01 0.285D+00 0.688D+00
 Coeff-En:   0.000D+00 0.000D+00 0.000D+00 0.100D+01
 Coeff:     -0.158D-02 0.286D-01 0.283D+00 0.690D+00
 Gap=     0.416 Goal=   None    Shift=    0.000
 RMSDP=3.36D-05 MaxDP=1.93D-03 DE=-9.32D-04 OVMax= 1.98D-03

 Cycle   5  Pass 1  IDiag  1:
 RMSU=  1.28D-05    CP:  1.01D+00  6.85D-01  9.57D-01  8.12D-01
 FoFJK:  IHMeth= 1 ICntrl=     0 DoSepK=T KAlg= 1 I1Cent= 0 FoldK=F
 E= -2904.95263299363     Delta-E=       -0.000074108391 Rises=F Damp=F
 DIIS: error= 8.12D-05 at cycle   5 NSaved=   5.
 NSaved= 5 IEnMin= 5 EnMin= -2904.95263299363     IErMin= 5 ErrMin= 8.12D-05
 ErrMax= 8.12D-05 EMaxC= 1.00D-01 BMatC= 2.44D-06 BMatP= 1.31D-04
 IDIUse=1 WtCom= 1.00D+00 WtEn= 0.00D+00
 Coeff-Com: -0.180D-02 0.939D-03 0.419D-01 0.159D+00 0.800D+00
 Coeff:     -0.180D-02 0.939D-03 0.419D-01 0.159D+00 0.800D+00
 Gap=     0.416 Goal=   None    Shift=    0.000
 RMSDP=6.45D-06 MaxDP=2.11D-04 DE=-7.41D-05 OVMax= 5.22D-04

 Cycle   6  Pass 1  IDiag  1:
 RMSU=  4.00D-06    CP:  1.01D+00  6.85D-01  9.58D-01  8.48D-01  1.03D+00
 FoFJK:  IHMeth= 1 ICntrl=     0 DoSepK=T KAlg= 1 I1Cent= 0 FoldK=F
 E= -2904.95263442542     Delta-E=       -0.000001431789 Rises=F Damp=F
 DIIS: error= 6.93D-05 at cycle   6 NSaved=   6.
 NSaved= 6 IEnMin= 6 EnMin= -2904.95263442542     IErMin= 6 ErrMin= 6.93D-05
 ErrMax= 6.93D-05 EMaxC= 1.00D-01 BMatC= 1.03D-06 BMatP= 2.44D-06
 IDIUse=1 WtCom= 1.00D+00 WtEn= 0.00D+00
 Coeff-Com: -0.637D-03-0.308D-02-0.144D-01-0.488D-02 0.405D+00 0.618D+00
 Coeff:     -0.637D-03-0.308D-02-0.144D-01-0.488D-02 0.405D+00 0.618D+00
 Gap=     0.416 Goal=   None    Shift=    0.000
 RMSDP=3.16D-06 MaxDP=1.21D-04 DE=-1.43D-06 OVMax= 2.47D-04

 Cycle   7  Pass 1  IDiag  1:
 RMSU=  1.73D-06    CP:  1.01D+00  6.85D-01  9.58D-01  8.57D-01  1.12D+00
                    CP:  8.67D-01
 FoFJK:  IHMeth= 1 ICntrl=     0 DoSepK=T KAlg= 1 I1Cent= 0 FoldK=F
 E= -2904.95263512047     Delta-E=       -0.000000695052 Rises=F Damp=F
 DIIS: error= 1.49D-05 at cycle   7 NSaved=   7.
 NSaved= 7 IEnMin= 7 EnMin= -2904.95263512047     IErMin= 7 ErrMin= 1.49D-05
 ErrMax= 1.49D-05 EMaxC= 1.00D-01 BMatC= 5.53D-08 BMatP= 1.03D-06
 IDIUse=1 WtCom= 1.00D+00 WtEn= 0.00D+00
 Coeff-Com: -0.608D-05-0.124D-02-0.108D-01-0.241D-01 0.919D-02 0.197D+00
 Coeff-Com:  0.830D+00
 Coeff:     -0.608D-05-0.124D-02-0.108D-01-0.241D-01 0.919D-02 0.197D+00
 Coeff:      0.830D+00
 Gap=     0.416 Goal=   None    Shift=    0.000
 RMSDP=1.07D-06 MaxDP=2.80D-05 DE=-6.95D-07 OVMax= 9.02D-05

 Cycle   8  Pass 1  IDiag  1:
 RMSU=  3.67D-07    CP:  1.01D+00  6.85D-01  9.58D-01  8.61D-01  1.15D+00
                    CP:  9.88D-01  1.02D+00
 FoFJK:  IHMeth= 1 ICntrl=     0 DoSepK=T KAlg= 1 I1Cent= 0 FoldK=F
 E= -2904.95263517485     Delta-E=       -0.000000054386 Rises=F Damp=F
 DIIS: error= 2.20D-06 at cycle   8 NSaved=   8.
 NSaved= 8 IEnMin= 8 EnMin= -2904.95263517485     IErMin= 8 ErrMin= 2.20D-06
 ErrMax= 2.20D-06 EMaxC= 1.00D-01 BMatC= 8.63D-10 BMatP= 5.53D-08
 IDIUse=1 WtCom= 1.00D+00 WtEn= 0.00D+00
 Coeff-Com:  0.342D-04 0.292D-03 0.194D-02 0.316D-02-0.163D-01-0.516D-01
 Coeff-Com: -0.115D+00 0.118D+01
 Coeff:      0.342D-04 0.292D-03 0.194D-02 0.316D-02-0.163D-01-0.516D-01
 Coeff:     -0.115D+00 0.118D+01
 Gap=     0.416 Goal=   None    Shift=    0.000
 RMSDP=2.95D-07 MaxDP=6.39D-06 DE=-5.44D-08 OVMax= 3.45D-05

 Cycle   9  Pass 1  IDiag  1:
 RMSU=  9.23D-08    CP:  1.01D+00  6.85D-01  9.58D-01  8.62D-01  1.15D+00
                    CP:  1.00D+00  1.05D+00  1.38D+00
 FoFJK:  IHMeth= 1 ICntrl=     0 DoSepK=T KAlg= 1 I1Cent= 0 FoldK=F
 E= -2904.95263517763     Delta-E=       -0.000000002780 Rises=F Damp=F
 DIIS: error= 6.09D-07 at cycle   9 NSaved=   9.
 NSaved= 9 IEnMin= 9 EnMin= -2904.95263517763     IErMin= 9 ErrMin= 6.09D-07
 ErrMax= 6.09D-07 EMaxC= 1.00D-01 BMatC= 3.96D-11 BMatP= 8.63D-10
 IDIUse=1 WtCom= 1.00D+00 WtEn= 0.00D+00
 Coeff-Com: -0.330D-05 0.351D-04 0.366D-03 0.104D-02 0.740D-03-0.763D-02
 Coeff-Com: -0.360D-01-0.445D-01 0.109D+01
 Coeff:     -0.330D-05 0.351D-04 0.366D-03 0.104D-02 0.740D-03-0.763D-02
 Coeff:     -0.360D-01-0.445D-01 0.109D+01
 Gap=     0.416 Goal=   None    Shift=    0.000
 RMSDP=6.92D-08 MaxDP=3.35D-06 DE=-2.78D-09 OVMax= 7.70D-06

 Cycle  10  Pass 1  IDiag  1:
 RMSU=  1.94D-08    CP:  1.01D+00  6.85D-01  9.58D-01  8.62D-01  1.15D+00
                    CP:  1.00D+00  1.06D+00  1.46D+00  1.26D+00
 FoFJK:  IHMeth= 1 ICntrl=     0 DoSepK=T KAlg= 1 I1Cent= 0 FoldK=F
 E= -2904.95263517777     Delta-E=       -0.000000000136 Rises=F Damp=F
 DIIS: error= 1.12D-07 at cycle  10 NSaved=  10.
 NSaved=10 IEnMin=10 EnMin= -2904.95263517777     IErMin=10 ErrMin= 1.12D-07
 ErrMax= 1.12D-07 EMaxC= 1.00D-01 BMatC= 2.05D-12 BMatP= 3.96D-11
 IDIUse=1 WtCom= 1.00D+00 WtEn= 0.00D+00
 Coeff-Com: -0.131D-05-0.116D-04-0.845D-04-0.147D-03 0.884D-03 0.226D-02
 Coeff-Com:  0.457D-02-0.553D-01-0.867D-02 0.106D+01
 Coeff:     -0.131D-05-0.116D-04-0.845D-04-0.147D-03 0.884D-03 0.226D-02
 Coeff:      0.457D-02-0.553D-01-0.867D-02 0.106D+01
 Gap=     0.416 Goal=   None    Shift=    0.000
 RMSDP=1.96D-08 MaxDP=1.36D-06 DE=-1.36D-10 OVMax= 1.45D-06

 Cycle  11  Pass 1  IDiag  1:
 RMSU=  4.23D-09    CP:  1.01D+00  6.85D-01  9.58D-01  8.62D-01  1.15D+00
                    CP:  1.00D+00  1.05D+00  1.47D+00  1.34D+00  1.25D+00
 FoFJK:  IHMeth= 1 ICntrl=     0 DoSepK=T KAlg= 1 I1Cent= 0 FoldK=F
 E= -2904.95263517778     Delta-E=       -0.000000000015 Rises=F Damp=F
 DIIS: error= 2.53D-08 at cycle  11 NSaved=  11.
 NSaved=11 IEnMin=11 EnMin= -2904.95263517778     IErMin=11 ErrMin= 2.53D-08
 ErrMax= 2.53D-08 EMaxC= 1.00D-01 BMatC= 1.24D-13 BMatP= 2.05D-12
 IDIUse=1 WtCom= 1.00D+00 WtEn= 0.00D+00
 Coeff-Com: -0.469D-07-0.333D-05-0.289D-04-0.730D-04 0.112D-03 0.692D-03
 Coeff-Com:  0.236D-02-0.643D-02-0.480D-01 0.131D+00 0.920D+00
 Coeff:     -0.469D-07-0.333D-05-0.289D-04-0.730D-04 0.112D-03 0.692D-03
 Coeff:      0.236D-02-0.643D-02-0.480D-01 0.131D+00 0.920D+00
 Gap=     0.416 Goal=   None    Shift=    0.000
 RMSDP=3.53D-09 MaxDP=2.21D-07 DE=-1.46D-11 OVMax= 2.45D-07

 SCF Done:  E(RLC-wPBE) =  -2904.95263518     A.U. after   11 cycles
             Convg  =    0.3526D-08             -V/T =  2.0017
 KE= 2.900034032218D+03 PE=-7.233494876287D+03 EE= 1.280231218342D+03
 Leave Link  502 at Tue May 12 16:22:43 2020, MaxMem= 1073741824 cpu:     270.2
 (Enter /home/matheus/.gaussian/g09/l601.exe)
 Copying SCF densities to generalized density rwf, IOpCl= 0 IROHF=0.

 **********************************************************************

            Population analysis using the SCF density.

 **********************************************************************

 Orbital symmetries:
       Occupied  (A') (A') (A') (A") (A') (A') (A') (A') (A') (A")
                 (A') (A') (A") (A') (A") (A') (A') (A') (A') (A')
                 (A') (A") (A') (A") (A') (A') (A")
       Virtual   (A') (A') (A') (A') (A") (A') (A') (A') (A') (A")
                 (A') (A") (A') (A') (A") (A') (A") (A') (A') (A')
                 (A') (A") (A') (A") (A') (A') (A') (A') (A") (A')
                 (A') (A') (A") (A') (A") (A') (A") (A') (A") (A')
                 (A') (A") (A') (A') (A") (A') (A') (A") (A") (A')
                 (A') (A') (A") (A') (A") (A') (A") (A') (A') (A')
                 (A") (A') (A") (A') (A") (A') (A') (A') (A") (A')
                 (A') (A") (A") (A') (A') (A') (A') (A") (A') (A')
                 (A') (A") (A') (A") (A") (A") (A') (A') (A') (A')
                 (A") (A') (A") (A') (A') (A") (A') (A') (A") (A")
                 (A') (A') (A") (A') (A") (A') (A") (A') (A') (A")
                 (A') (A') (A") (A') (A') (A') (A') (A") (A') (A')
                 (A') (A") (A") (A') (A") (A") (A') (A") (A') (A")
                 (A') (A') (A') (A') (A') (A') (A') (A') (A") (A")
                 (A') (A') (A') (A") (A') (A') (A") (A') (A") (A')
                 (A") (A') (A") (A") (A") (A") (A") (A') (A') (A')
                 (A') (A") (A') (A') (A') (A') (A') (A') (A') (A')
 The electronic state is 1-A'.
 Alpha  occ. eigenvalues -- -511.11516 -66.66206 -60.32432 -60.32412 -60.32405
 Alpha  occ. eigenvalues --  -19.03215 -19.02821  -9.59487  -7.33956  -7.33897
 Alpha  occ. eigenvalues --   -7.33875  -3.29492  -3.29479  -3.29464  -3.29420
 Alpha  occ. eigenvalues --   -3.29419  -1.25006  -1.04615  -1.03587  -0.66874
 Alpha  occ. eigenvalues --   -0.63542  -0.53692  -0.51732  -0.50943  -0.50512
 Alpha  occ. eigenvalues --   -0.47244  -0.38340
 Alpha virt. eigenvalues --    0.03296   0.04091   0.08117   0.10282   0.10337
 Alpha virt. eigenvalues --    0.11225   0.13399   0.14740   0.17004   0.17072
 Alpha virt. eigenvalues --    0.19231   0.19257   0.20542   0.23591   0.24313
 Alpha virt. eigenvalues --    0.25156   0.27489   0.28870   0.30716   0.34297
 Alpha virt. eigenvalues --    0.34458   0.34836   0.36973   0.39523   0.40588
 Alpha virt. eigenvalues --    0.40780   0.43308   0.48895   0.53022   0.55360
 Alpha virt. eigenvalues --    0.57707   0.60226   0.65413   0.66021   0.69843
 Alpha virt. eigenvalues --    0.71575   0.72365   0.74035   0.75408   0.76541
 Alpha virt. eigenvalues --    0.77118   0.77209   0.79023   0.80565   0.81085
 Alpha virt. eigenvalues --    0.82704   0.86398   0.88052   0.89666   0.91482
 Alpha virt. eigenvalues --    0.92148   0.94590   0.96707   0.98976   1.00625
 Alpha virt. eigenvalues --    1.03632   1.05490   1.05496   1.06716   1.09010
 Alpha virt. eigenvalues --    1.13205   1.13875   1.16514   1.19161   1.19888
 Alpha virt. eigenvalues --    1.27332   1.32103   1.36178   1.41277   1.41941
 Alpha virt. eigenvalues --    1.50339   1.52380   1.54477   1.56217   1.58306
 Alpha virt. eigenvalues --    1.62138   1.78340   1.79189   1.86156   1.94318
 Alpha virt. eigenvalues --    1.98790   1.99162   2.04938   2.13627   2.14317
 Alpha virt. eigenvalues --    2.15809   2.16479   2.17890   2.18883   2.26983
 Alpha virt. eigenvalues --    2.27341   2.28812   2.30705   2.33388   2.34831
 Alpha virt. eigenvalues --    2.37738   2.40091   2.44924   2.46648   2.48983
 Alpha virt. eigenvalues --    2.49066   2.49689   2.52232   2.56349   2.58599
 Alpha virt. eigenvalues --    2.59729   2.62775   2.66005   2.68816   2.70454
 Alpha virt. eigenvalues --    2.71179   2.75503   2.75736   2.79166   2.89205
 Alpha virt. eigenvalues --    2.96705   3.07387   3.09400   3.15777   3.51344
 Alpha virt. eigenvalues --    3.76342   3.81002   3.90788   4.02868   4.05035
 Alpha virt. eigenvalues --    4.11908   4.14853   4.21551   4.23511   4.27391
 Alpha virt. eigenvalues --    4.36822   4.41516   4.51204   4.54940   4.71947
 Alpha virt. eigenvalues --    4.89181   5.02087   5.03170   5.06505   5.08560
 Alpha virt. eigenvalues --    5.37069   5.42118   5.81586   5.95971   6.07255
 Alpha virt. eigenvalues --    6.12646   6.28056   6.35275   6.43357   6.44719
 Alpha virt. eigenvalues --    6.67525   6.69873   6.71731   6.77915   6.84555
 Alpha virt. eigenvalues --    6.87813   6.89577   6.91910   6.92052   6.95563
 Alpha virt. eigenvalues --    6.98818   7.18857   7.22709   7.37030   7.58514
 Alpha virt. eigenvalues --    7.80973   8.09361   8.12045  14.07151  14.48732
          Condensed to atoms (all electrons):
              1          2          3          4          5
     1  O    8.234812  -0.220035   0.176642   0.005359  -0.032630
     2  O   -0.220035   8.248678   0.012856   0.214436  -0.008854
     3  H    0.176642   0.012856   0.627669   0.002154   0.003002
     4  H    0.005359   0.214436   0.002154   0.566352  -0.013819
     5  Kr  -0.032630  -0.008854   0.003002  -0.013819  36.044269
 Mulliken atomic charges:
              1
     1  O   -0.164147
     2  O   -0.247081
     3  H    0.177678
     4  H    0.225518
     5  Kr   0.008033
 Sum of Mulliken atomic charges =   0.00000
 Mulliken charges with hydrogens summed into heavy atoms:
              1
     1  O    0.013530
     2  O   -0.021563
     5  Kr   0.008033
 Sum of Mulliken charges with hydrogens summed into heavy atoms =   0.00000
          Condensed to fragments (all electrons):
     1      -0.008033
     2       0.008033
 Electronic spatial extent (au):  <R**2>=            492.5877
 Charge=              0.0000 electrons
 Dipole moment (field-independent basis, Debye):
    X=              0.2819    Y=              0.1866    Z=              0.0000  Tot=              0.3381
 Quadrupole moment (field-independent basis, Debye-Ang):
   XX=            -28.2566   YY=            -26.2731   ZZ=            -30.7049
   XY=             -3.9417   XZ=              0.0000   YZ=              0.0000
 Traceless Quadrupole moment (field-independent basis, Debye-Ang):
   XX=              0.1549   YY=              2.1384   ZZ=             -2.2933
   XY=             -3.9417   XZ=              0.0000   YZ=              0.0000
 Octapole moment (field-independent basis, Debye-Ang**2):
  XXX=              0.3870  YYY=              0.1404  ZZZ=              0.0000  XYY=             16.8165
  XXY=              3.8949  XXZ=              0.0000  XZZ=              0.1312  YZZ=              8.8887
  YYZ=              0.0000  XYZ=              0.0000
 Hexadecapole moment (field-independent basis, Debye-Ang**3):
 XXXX=            -64.0348 YYYY=           -342.6612 ZZZZ=            -29.7453 XXXY=             -2.5913
 XXXZ=              0.0000 YYYX=            -50.7556 YYYZ=              0.0000 ZZZX=              0.0000
 ZZZY=              0.0000 XXYY=            -73.6614 XXZZ=            -17.6722 YYZZ=            -80.6980
 XXYZ=              0.0000 YYXZ=              0.0000 ZZXY=              0.8486
 N-N= 1.482769905491D+02 E-N=-7.233494877364D+03  KE= 2.900034032218D+03
 Symmetry A'   KE= 2.484468645319D+03
 Symmetry A"   KE= 4.155653868995D+02
 No NMR shielding tensors so no spin-rotation constants.
 Leave Link  601 at Tue May 12 16:22:43 2020, MaxMem= 1073741824 cpu:       0.9
 (Enter /home/matheus/.gaussian/g09/l122.exe)
 Counterpoise: doing DCBS calculation for fragment   1 NewBq=T
 Leave Link  122 at Tue May 12 16:22:43 2020, MaxMem= 1073741824 cpu:       0.0
 (Enter /home/matheus/.gaussian/g09/l301.exe)
 Basis read from rwf:  (5D, 7F)
 No pseudopotential information found on rwf file.
 There are   131 symmetry adapted basis functions of A'  symmetry.
 There are    66 symmetry adapted basis functions of A"  symmetry.
 Integral buffers will be    131072 words long.
 Raffenetti 2 integral format.
 Two-electron integral symmetry is turned on.
   197 basis functions,   415 primitive gaussians,   229 cartesian basis functions
     9 alpha electrons        9 beta electrons
       nuclear repulsion energy        36.6006188945 Hartrees.
 IExCor=32609 DFT=T Ex+Corr=LC-wPBE ExCW=0 ScaHFX=  1.000000
 ScaDFX=  1.000000  0.000000  1.000000  1.000000 ScalE2=  1.000000  1.000000
 IRadAn=      5 IRanWt=     -1 IRanGd=            0 ICorTp=0
  HFx wShort=  0.000000 wLong=  0.400000 cFull=  0.000000 cShort=  0.000000 cLong=  1.000000
  DFx wShort=  0.000000 wLong=  0.400000 cFull=  0.000000 cShort=  0.000000 cLong=  1.000000
 NAtoms=    5 NActive=    5 NUniq=    5 SFac= 1.00D+00 NAtFMM=   60 NAOKFM=F Big=F
 No density basis found on file   718.
 Leave Link  301 at Tue May 12 16:22:43 2020, MaxMem= 1073741824 cpu:       0.2
 (Enter /home/matheus/.gaussian/g09/l302.exe)
 NPDir=0 NMtPBC=     1 NCelOv=     1 NCel=       1 NClECP=     1 NCelD=      1
         NCelK=      1 NCelE2=     1 NClLst=     1 CellRange=     0.0.
 One-electron integrals computed using PRISM.
 NBasis=   197 RedAO= T  NBF=   131    66
 NBsUse=   197 1.00D-06 NBFU=   131    66
 Precomputing XC quadrature grid using
 IXCGrd= 2 IRadAn=           5 IRanWt=          -1 IRanGd=           0 AccXCQ= 0.00D+00.
 NRdTot=     427 NPtTot=      123814 NUsed=      126881 NTot=      126913
 NSgBfM=   229   229   229   229   229 NAtAll=     5     5.
 Leave Link  302 at Tue May 12 16:22:43 2020, MaxMem= 1073741824 cpu:       0.9
 (Enter /home/matheus/.gaussian/g09/l303.exe)
 DipDrv:  MaxL=1.
 Leave Link  303 at Tue May 12 16:22:43 2020, MaxMem= 1073741824 cpu:       0.2
 (Enter /home/matheus/.gaussian/g09/l401.exe)
 Harris functional with IExCor=32609 diagonalized for initial guess.
 ExpMin= 2.53D-02 ExpMax= 1.17D+07 ExpMxC= 1.33D+04 IAcc=3 IRadAn=         5 AccDes= 0.00D+00
 HarFok:  IExCor=32609 AccDes= 0.00D+00 IRadAn=         5 IDoV= 1
 ScaDFX=  1.000000  1.000000  1.000000  1.000000
 FoFCou: FMM=F IPFlag=           0 FMFlag=      100000 FMFlg1=           0
         NFxFlg=           0 DoJE=T BraDBF=F KetDBF=T FulRan=T
         Omega=  0.000000  0.000000  1.000000  0.000000  0.000000 ICntrl=     500 IOpCl=  0
         NMat0=    1 NMatS0=    1 NMatT0=    0 NMatD0=    1 NMtDS0=    0 NMtDT0=    0
         I1Cent=           4 NGrid=           0.
 Petite list used in FoFCou.
 Harris En= -151.499569140546    
 Initial guess orbital symmetries:
       Occupied  (A') (A') (A') (A') (A') (A') (A") (A') (A")
       Virtual   (A') (A') (A') (A') (A") (A') (A') (A') (A') (A")
                 (A') (A") (A') (A') (A') (A") (A') (A') (A") (A')
                 (A') (A') (A") (A') (A') (A') (A") (A') (A') (A")
                 (A') (A') (A') (A") (A") (A') (A') (A") (A") (A')
                 (A') (A') (A") (A') (A') (A") (A') (A") (A') (A')
                 (A") (A') (A') (A') (A") (A") (A') (A') (A") (A')
                 (A') (A") (A') (A') (A") (A') (A') (A") (A") (A')
                 (A') (A") (A') (A') (A') (A") (A') (A") (A") (A')
                 (A') (A') (A') (A') (A") (A') (A') (A") (A") (A')
                 (A') (A") (A') (A') (A') (A") (A') (A") (A') (A')
                 (A") (A") (A') (A') (A') (A') (A") (A') (A') (A")
                 (A') (A') (A") (A') (A') (A") (A") (A') (A') (A")
                 (A") (A') (A") (A") (A') (A') (A') (A") (A") (A')
                 (A') (A') (A") (A") (A') (A') (A') (A') (A') (A')
                 (A') (A') (A") (A") (A') (A') (A') (A") (A') (A')
                 (A") (A') (A") (A') (A") (A') (A") (A") (A") (A")
                 (A") (A') (A') (A') (A') (A") (A') (A') (A') (A')
                 (A') (A') (A') (A') (A') (A") (A') (A') (A") (A')
                 (A") (A') (A') (A') (A") (A') (A') (A')
 The electronic state of the initial guess is 1-A'.
 Leave Link  401 at Tue May 12 16:22:44 2020, MaxMem= 1073741824 cpu:       2.6
 (Enter /home/matheus/.gaussian/g09/l502.exe)
 Closed shell SCF:
 Requested convergence on RMS density matrix=1.00D-08 within 128 cycles.
 Requested convergence on MAX density matrix=1.00D-06.
 Requested convergence on             energy=1.00D-06.
 No special actions if energy rises.
 Using DIIS extrapolation, IDIIS=  1040.
 Integral symmetry usage will be decided dynamically.
       126823 words used for storage of precomputed grid.
 IEnd=      305835 IEndB=      305835 NGot=  1073741824 MDV=  1073505300
 LenX=  1073505300 LenY=  1073452418
 Fock matrices will be formed incrementally for  20 cycles.

 Cycle   1  Pass 1  IDiag  1:
 FoFJK:  IHMeth= 1 ICntrl=     0 DoSepK=T KAlg= 1 I1Cent= 0 FoldK=F
 FoFCou: FMM=F IPFlag=           0 FMFlag=      100000 FMFlg1=           0
         NFxFlg=           0 DoJE=T BraDBF=F KetDBF=F FulRan=T
         Omega=  0.000000  0.000000  1.000000  0.000000  0.000000 ICntrl=     500 IOpCl=  0
         NMat0=    1 NMatS0=    1 NMatT0=    0 NMatD0=    1 NMtDS0=    0 NMtDT0=    0
         I1Cent=           0 NGrid=           0.
 Petite list used in FoFCou.
 E= -151.496064239808    
 DIIS: error= 1.27D-02 at cycle   1 NSaved=   1.
 NSaved= 1 IEnMin= 1 EnMin= -151.496064239808     IErMin= 1 ErrMin= 1.27D-02
 ErrMax= 1.27D-02 EMaxC= 1.00D-01 BMatC= 3.84D-02 BMatP= 3.84D-02
 IDIUse=3 WtCom= 8.73D-01 WtEn= 1.27D-01
 Coeff-Com:  0.100D+01
 Coeff-En:   0.100D+01
 Coeff:      0.100D+01
 Gap=     0.431 Goal=   None    Shift=    0.000
 GapD=    0.431 DampG=2.000 DampE=0.500 DampFc=1.0000 IDamp=-1.
 RMSDP=7.93D-04 MaxDP=2.54D-02              OVMax= 5.40D-02

 Cycle   2  Pass 1  IDiag  1:
 RMSU=  5.54D-04    CP:  9.88D-01
 FoFJK:  IHMeth= 1 ICntrl=     0 DoSepK=T KAlg= 1 I1Cent= 0 FoldK=F
 E= -151.509669365291     Delta-E=       -0.013605125483 Rises=F Damp=F
 DIIS: error= 8.51D-03 at cycle   2 NSaved=   2.
 NSaved= 2 IEnMin= 2 EnMin= -151.509669365291     IErMin= 2 ErrMin= 8.51D-03
 ErrMax= 8.51D-03 EMaxC= 1.00D-01 BMatC= 2.06D-02 BMatP= 3.84D-02
 IDIUse=3 WtCom= 9.15D-01 WtEn= 8.51D-02
 Coeff-Com:  0.414D+00 0.586D+00
 Coeff-En:   0.241D+00 0.759D+00
 Coeff:      0.400D+00 0.600D+00
 Gap=     0.418 Goal=   None    Shift=    0.000
 RMSDP=4.22D-04 MaxDP=2.22D-02 DE=-1.36D-02 OVMax= 2.47D-02

 Cycle   3  Pass 1  IDiag  1:
 RMSU=  2.34D-04    CP:  9.84D-01  6.69D-01
 FoFJK:  IHMeth= 1 ICntrl=     0 DoSepK=T KAlg= 1 I1Cent= 0 FoldK=F
 E= -151.521367458889     Delta-E=       -0.011698093598 Rises=F Damp=F
 DIIS: error= 1.39D-03 at cycle   3 NSaved=   3.
 NSaved= 3 IEnMin= 3 EnMin= -151.521367458889     IErMin= 3 ErrMin= 1.39D-03
 ErrMax= 1.39D-03 EMaxC= 1.00D-01 BMatC= 3.73D-04 BMatP= 2.06D-02
 IDIUse=3 WtCom= 9.86D-01 WtEn= 1.39D-02
 Coeff-Com:  0.615D-01 0.148D+00 0.791D+00
 Coeff-En:   0.000D+00 0.000D+00 0.100D+01
 Coeff:      0.607D-01 0.146D+00 0.793D+00
 Gap=     0.413 Goal=   None    Shift=    0.000
 RMSDP=5.67D-05 MaxDP=2.42D-03 DE=-1.17D-02 OVMax= 3.86D-03

 Cycle   4  Pass 1  IDiag  1:
 RMSU=  2.97D-05    CP:  9.83D-01  7.11D-01  1.02D+00
 FoFJK:  IHMeth= 1 ICntrl=     0 DoSepK=T KAlg= 1 I1Cent= 0 FoldK=F
 E= -151.521596206075     Delta-E=       -0.000228747187 Rises=F Damp=F
 DIIS: error= 2.63D-04 at cycle   4 NSaved=   4.
 NSaved= 4 IEnMin= 4 EnMin= -151.521596206075     IErMin= 4 ErrMin= 2.63D-04
 ErrMax= 2.63D-04 EMaxC= 1.00D-01 BMatC= 1.36D-05 BMatP= 3.73D-04
 IDIUse=3 WtCom= 9.97D-01 WtEn= 2.63D-03
 Coeff-Com: -0.401D-02-0.796D-02 0.124D+00 0.888D+00
 Coeff-En:   0.000D+00 0.000D+00 0.000D+00 0.100D+01
 Coeff:     -0.400D-02-0.794D-02 0.123D+00 0.889D+00
 Gap=     0.415 Goal=   None    Shift=    0.000
 RMSDP=1.32D-05 MaxDP=9.19D-04 DE=-2.29D-04 OVMax= 8.35D-04

 Cycle   5  Pass 1  IDiag  1:
 RMSU=  5.41D-06    CP:  9.82D-01  7.10D-01  1.05D+00  1.04D+00
 FoFJK:  IHMeth= 1 ICntrl=     0 DoSepK=T KAlg= 1 I1Cent= 0 FoldK=F
 E= -151.521605532805     Delta-E=       -0.000009326730 Rises=F Damp=F
 DIIS: error= 3.75D-05 at cycle   5 NSaved=   5.
 NSaved= 5 IEnMin= 5 EnMin= -151.521605532805     IErMin= 5 ErrMin= 3.75D-05
 ErrMax= 3.75D-05 EMaxC= 1.00D-01 BMatC= 1.24D-07 BMatP= 1.36D-05
 IDIUse=1 WtCom= 1.00D+00 WtEn= 0.00D+00
 Coeff-Com: -0.105D-02-0.311D-02-0.294D-01-0.728D-01 0.111D+01
 Coeff:     -0.105D-02-0.311D-02-0.294D-01-0.728D-01 0.111D+01
 Gap=     0.415 Goal=   None    Shift=    0.000
 RMSDP=3.48D-06 MaxDP=1.14D-04 DE=-9.33D-06 OVMax= 2.26D-04

 Cycle   6  Pass 1  IDiag  1:
 RMSU=  1.22D-06    CP:  9.82D-01  7.10D-01  1.05D+00  1.08D+00  1.33D+00
 FoFJK:  IHMeth= 1 ICntrl=     0 DoSepK=T KAlg= 1 I1Cent= 0 FoldK=F
 E= -151.521605814898     Delta-E=       -0.000000282093 Rises=F Damp=F
 DIIS: error= 8.49D-06 at cycle   6 NSaved=   6.
 NSaved= 6 IEnMin= 6 EnMin= -151.521605814898     IErMin= 6 ErrMin= 8.49D-06
 ErrMax= 8.49D-06 EMaxC= 1.00D-01 BMatC= 4.92D-09 BMatP= 1.24D-07
 IDIUse=1 WtCom= 1.00D+00 WtEn= 0.00D+00
 Coeff-Com:  0.135D-03 0.373D-03-0.166D-02-0.183D-01-0.349D-01 0.105D+01
 Coeff:      0.135D-03 0.373D-03-0.166D-02-0.183D-01-0.349D-01 0.105D+01
 Gap=     0.415 Goal=   None    Shift=    0.000
 RMSDP=6.96D-07 MaxDP=2.13D-05 DE=-2.82D-07 OVMax= 4.87D-05

 Cycle   7  Pass 1  IDiag  1:
 RMSU=  2.20D-07    CP:  9.82D-01  7.10D-01  1.05D+00  1.08D+00  1.38D+00
                    CP:  1.20D+00
 FoFJK:  IHMeth= 1 ICntrl=     0 DoSepK=T KAlg= 1 I1Cent= 0 FoldK=F
 E= -151.521605820658     Delta-E=       -0.000000005760 Rises=F Damp=F
 DIIS: error= 1.42D-06 at cycle   7 NSaved=   7.
 NSaved= 7 IEnMin= 7 EnMin= -151.521605820658     IErMin= 7 ErrMin= 1.42D-06
 ErrMax= 1.42D-06 EMaxC= 1.00D-01 BMatC= 5.79D-10 BMatP= 4.92D-09
 IDIUse=1 WtCom= 1.00D+00 WtEn= 0.00D+00
 Coeff-Com:  0.463D-04 0.135D-03 0.745D-03 0.564D-03-0.438D-01 0.892D-01
 Coeff-Com:  0.953D+00
 Coeff:      0.463D-04 0.135D-03 0.745D-03 0.564D-03-0.438D-01 0.892D-01
 Coeff:      0.953D+00
 Gap=     0.415 Goal=   None    Shift=    0.000
 RMSDP=1.64D-07 MaxDP=3.99D-06 DE=-5.76D-09 OVMax= 1.60D-05

 Cycle   8  Pass 1  IDiag  1:
 RMSU=  7.58D-08    CP:  9.82D-01  7.10D-01  1.05D+00  1.08D+00  1.38D+00
                    CP:  1.25D+00  1.19D+00
 FoFJK:  IHMeth= 1 ICntrl=     0 DoSepK=T KAlg= 1 I1Cent= 0 FoldK=F
 E= -151.521605821398     Delta-E=       -0.000000000740 Rises=F Damp=F
 DIIS: error= 1.49D-06 at cycle   8 NSaved=   8.
 NSaved= 8 IEnMin= 8 EnMin= -151.521605821398     IErMin= 7 ErrMin= 1.42D-06
 ErrMax= 1.49D-06 EMaxC= 1.00D-01 BMatC= 5.25D-10 BMatP= 5.79D-10
 IDIUse=1 WtCom= 1.00D+00 WtEn= 0.00D+00
 Coeff-Com:  0.522D-05 0.172D-04 0.578D-03 0.272D-02-0.182D-01-0.998D-01
 Coeff-Com:  0.559D+00 0.555D+00
 Coeff:      0.522D-05 0.172D-04 0.578D-03 0.272D-02-0.182D-01-0.998D-01
 Coeff:      0.559D+00 0.555D+00
 Gap=     0.415 Goal=   None    Shift=    0.000
 RMSDP=6.21D-08 MaxDP=2.74D-06 DE=-7.40D-10 OVMax= 6.19D-06

 Cycle   9  Pass 1  IDiag  1:
 RMSU=  2.42D-08    CP:  9.82D-01  7.10D-01  1.05D+00  1.08D+00  1.38D+00
                    CP:  1.26D+00  1.31D+00  7.23D-01
 FoFJK:  IHMeth= 1 ICntrl=     0 DoSepK=T KAlg= 1 I1Cent= 0 FoldK=F
 E= -151.521605821779     Delta-E=       -0.000000000381 Rises=F Damp=F
 DIIS: error= 2.13D-07 at cycle   9 NSaved=   9.
 NSaved= 9 IEnMin= 9 EnMin= -151.521605821779     IErMin= 9 ErrMin= 2.13D-07
 ErrMax= 2.13D-07 EMaxC= 1.00D-01 BMatC= 6.27D-12 BMatP= 5.25D-10
 IDIUse=1 WtCom= 1.00D+00 WtEn= 0.00D+00
 Coeff-Com: -0.722D-05-0.226D-04-0.168D-03-0.265D-03 0.801D-02-0.863D-02
 Coeff-Com: -0.157D+00-0.551D-01 0.121D+01
 Coeff:     -0.722D-05-0.226D-04-0.168D-03-0.265D-03 0.801D-02-0.863D-02
 Coeff:     -0.157D+00-0.551D-01 0.121D+01
 Gap=     0.415 Goal=   None    Shift=    0.000
 RMSDP=3.60D-08 MaxDP=2.05D-06 DE=-3.81D-10 OVMax= 2.83D-06

 Cycle  10  Pass 1  IDiag  1:
 RMSU=  6.33D-09    CP:  9.82D-01  7.10D-01  1.05D+00  1.08D+00  1.38D+00
                    CP:  1.26D+00  1.35D+00  8.28D-01  1.35D+00
 FoFJK:  IHMeth= 1 ICntrl=     0 DoSepK=T KAlg= 1 I1Cent= 0 FoldK=F
 E= -151.521605821790     Delta-E=       -0.000000000011 Rises=F Damp=F
 DIIS: error= 3.56D-08 at cycle  10 NSaved=  10.
 NSaved=10 IEnMin=10 EnMin= -151.521605821790     IErMin=10 ErrMin= 3.56D-08
 ErrMax= 3.56D-08 EMaxC= 1.00D-01 BMatC= 6.78D-14 BMatP= 6.27D-12
 IDIUse=1 WtCom= 1.00D+00 WtEn= 0.00D+00
 Coeff-Com:  0.102D-05 0.382D-05 0.215D-04-0.303D-05-0.108D-02 0.364D-02
 Coeff-Com:  0.191D-01-0.117D-02-0.245D+00 0.122D+01
 Coeff:      0.102D-05 0.382D-05 0.215D-04-0.303D-05-0.108D-02 0.364D-02
 Coeff:      0.191D-01-0.117D-02-0.245D+00 0.122D+01
 Gap=     0.415 Goal=   None    Shift=    0.000
 RMSDP=4.27D-09 MaxDP=2.18D-07 DE=-1.11D-11 OVMax= 3.34D-07

 SCF Done:  E(RLC-wPBE) =  -151.521605822     A.U. after   10 cycles
             Convg  =    0.4267D-08             -V/T =  2.0068
 KE= 1.504974208069D+02 PE=-4.315014859521D+02 EE= 9.288184042887D+01
 Leave Link  502 at Tue May 12 16:23:13 2020, MaxMem= 1073741824 cpu:     231.7
 (Enter /home/matheus/.gaussian/g09/l601.exe)
 Copying SCF densities to generalized density rwf, IOpCl= 0 IROHF=0.

 **********************************************************************

            Population analysis using the SCF density.

 **********************************************************************

 Orbital symmetries:
       Occupied  (A') (A') (A') (A') (A') (A') (A") (A') (A")
       Virtual   (A') (A') (A') (A") (A') (A') (A') (A') (A') (A")
                 (A') (A") (A') (A') (A") (A') (A') (A') (A") (A')
                 (A') (A") (A') (A') (A') (A') (A") (A') (A") (A')
                 (A') (A') (A') (A") (A') (A") (A') (A') (A") (A")
                 (A') (A') (A") (A') (A') (A") (A') (A") (A') (A')
                 (A') (A") (A') (A') (A") (A') (A") (A') (A") (A')
                 (A') (A") (A') (A') (A") (A') (A') (A") (A") (A')
                 (A') (A') (A") (A') (A") (A') (A') (A") (A') (A")
                 (A') (A') (A') (A') (A") (A') (A') (A") (A") (A')
                 (A') (A') (A") (A') (A') (A") (A') (A") (A') (A')
                 (A") (A") (A') (A') (A') (A') (A") (A') (A") (A')
                 (A') (A') (A') (A') (A") (A') (A") (A") (A') (A")
                 (A") (A") (A') (A') (A') (A") (A") (A') (A') (A')
                 (A") (A') (A") (A") (A') (A') (A') (A') (A') (A')
                 (A') (A') (A") (A") (A') (A') (A') (A") (A') (A')
                 (A") (A') (A") (A') (A") (A') (A") (A") (A") (A")
                 (A") (A') (A') (A') (A') (A") (A') (A') (A') (A')
                 (A') (A') (A') (A') (A') (A") (A') (A') (A") (A')
                 (A") (A') (A') (A') (A") (A') (A') (A')
 The electronic state is 1-A'.
 Alpha  occ. eigenvalues --  -19.03389 -19.03387  -1.25235  -1.04169  -0.67038
 Alpha  occ. eigenvalues --   -0.63059  -0.53781  -0.47877  -0.38595
 Alpha virt. eigenvalues --    0.02883   0.03527   0.07070   0.08995   0.10002
 Alpha virt. eigenvalues --    0.10422   0.11141   0.14018   0.16460   0.17293
 Alpha virt. eigenvalues --    0.18574   0.19696   0.20896   0.23245   0.27242
 Alpha virt. eigenvalues --    0.27459   0.29534   0.31059   0.31611   0.33528
 Alpha virt. eigenvalues --    0.37086   0.37602   0.38647   0.39322   0.41834
 Alpha virt. eigenvalues --    0.43217   0.43662   0.47524   0.49068   0.49877
 Alpha virt. eigenvalues --    0.54772   0.58005   0.61348   0.66783   0.67985
 Alpha virt. eigenvalues --    0.70031   0.73544   0.75762   0.76207   0.77029
 Alpha virt. eigenvalues --    0.78829   0.83412   0.85150   0.87877   0.90946
 Alpha virt. eigenvalues --    0.91719   0.92750   0.96197   0.97854   1.00062
 Alpha virt. eigenvalues --    1.01845   1.04875   1.05916   1.10046   1.13730
 Alpha virt. eigenvalues --    1.15036   1.15973   1.16842   1.18538   1.24642
 Alpha virt. eigenvalues --    1.26767   1.29565   1.32483   1.33032   1.33812
 Alpha virt. eigenvalues --    1.34051   1.35334   1.37001   1.37032   1.46584
 Alpha virt. eigenvalues --    1.48893   1.51278   1.53557   1.53842   1.57448
 Alpha virt. eigenvalues --    1.58748   1.65252   1.66718   1.73014   1.79228
 Alpha virt. eigenvalues --    1.80315   1.84332   1.89713   1.98358   2.00565
 Alpha virt. eigenvalues --    2.02040   2.07009   2.13955   2.16140   2.19557
 Alpha virt. eigenvalues --    2.25759   2.29666   2.30350   2.37940   2.43939
 Alpha virt. eigenvalues --    2.48952   2.55860   2.57869   2.58276   2.66949
 Alpha virt. eigenvalues --    2.68968   2.70424   2.73089   2.85436   2.94138
 Alpha virt. eigenvalues --    3.06540   3.09118   3.12583   3.26069   3.30384
 Alpha virt. eigenvalues --    3.39010   3.49417   3.61302   3.70999   3.77375
 Alpha virt. eigenvalues --    3.79549   3.79757   3.82099   3.82741   3.83709
 Alpha virt. eigenvalues --    3.87928   3.90145   3.90488   3.92413   3.94633
 Alpha virt. eigenvalues --    3.96800   4.06878   4.08281   4.11277   4.12063
 Alpha virt. eigenvalues --    4.12735   4.20328   4.22868   4.27762   4.33258
 Alpha virt. eigenvalues --    4.40369   4.45168   4.57229   4.72459   4.89311
 Alpha virt. eigenvalues --    5.02244   5.03970   5.06539   5.08524   5.37366
 Alpha virt. eigenvalues --    5.42016   5.81543   5.95789   6.07021   6.12404
 Alpha virt. eigenvalues --    6.27964   6.35211   6.43192   6.44528   6.67273
 Alpha virt. eigenvalues --    6.69708   6.71507   6.77754   6.84428   6.87644
 Alpha virt. eigenvalues --    6.89310   6.91048   6.91884   6.95375   6.98672
 Alpha virt. eigenvalues --    7.18610   7.22618   7.36751   7.58204   7.80747
 Alpha virt. eigenvalues --    8.09126   8.11663  10.90164  14.07163  14.47371
 Alpha virt. eigenvalues --   14.83445  14.88611  15.11326  29.03194  29.03837
 Alpha virt. eigenvalues --   29.08099  29.14210  29.23580  49.11439 148.31425
 Alpha virt. eigenvalues --  148.39158 148.72388 752.52664
          Condensed to atoms (all electrons):
              1          2          3          4          5
     1  O    8.245461  -0.217297   0.170292  -0.001023  -0.006731
     2  O   -0.217297   8.209688   0.012109   0.215567   0.001215
     3  H    0.170292   0.012109   0.624127   0.004359   0.001377
     4  H   -0.001023   0.215567   0.004359   0.568200  -0.004195
     5  Kr  -0.006731   0.001215   0.001377  -0.004195   0.001180
 Mulliken atomic charges:
              1
     1  O   -0.190701
     2  O   -0.221282
     3  H    0.187736
     4  H    0.217093
     5  Kr   0.007155
 Sum of Mulliken atomic charges =   0.00000
 Mulliken charges with hydrogens summed into heavy atoms:
              1
     1  O   -0.002966
     2  O   -0.004189
     5  Kr   0.007155
 Sum of Mulliken charges with hydrogens summed into heavy atoms =   0.00000
          Condensed to fragments (all electrons):
     1      -0.007155
     2       0.007155
 Electronic spatial extent (au):  <R**2>=            324.8128
 Charge=              0.0000 electrons
 Dipole moment (field-independent basis, Debye):
    X=             -0.0002    Y=              0.0003    Z=              0.0000  Tot=              0.0003
 Quadrupole moment (field-independent basis, Debye-Ang):
   XX=            -10.6650   YY=             -8.6360   ZZ=            -13.1860
   XY=             -4.1130   XZ=              0.0000   YZ=              0.0000
 Traceless Quadrupole moment (field-independent basis, Debye-Ang):
   XX=              0.1640   YY=              2.1930   ZZ=             -2.3570
   XY=             -4.1130   XZ=              0.0000   YZ=              0.0000
 Octapole moment (field-independent basis, Debye-Ang**2):
  XXX=             -0.0016  YYY=             51.8170  ZZZ=              0.0000  XYY=             16.4538
  XXY=             21.3307  XXZ=              0.0000  XZZ=             -0.0005  YZZ=             26.3731
  YYZ=              0.0000  XYZ=              0.0000
 Hexadecapole moment (field-independent basis, Debye-Ang**3):
 XXXX=            -45.8434 YYYY=           -217.4821 ZZZZ=            -11.6977 XXXY=             -2.9638
 XXXZ=              0.0000 YYYX=            -50.9975 YYYZ=              0.0000 ZZZX=              0.0000
 ZZZY=              0.0000 XXYY=            -49.8325 XXZZ=            -11.6293 YYZZ=            -57.0354
 XXYZ=              0.0000 YYXZ=              0.0000 ZZXY=              0.7652
 N-N= 3.660061889452D+01 E-N=-4.315014863233D+02  KE= 1.504974208069D+02
 Symmetry A'   KE= 1.407585373017D+02
 Symmetry A"   KE= 9.738883505218D+00
 No NMR shielding tensors so no spin-rotation constants.
 Leave Link  601 at Tue May 12 16:23:13 2020, MaxMem= 1073741824 cpu:       0.9
 (Enter /home/matheus/.gaussian/g09/l122.exe)
 Counterpoise: doing DCBS calculation for fragment   2 NewBq=T
 Leave Link  122 at Tue May 12 16:23:13 2020, MaxMem= 1073741824 cpu:       0.0
 (Enter /home/matheus/.gaussian/g09/l301.exe)
 Basis read from rwf:  (5D, 7F)
 No pseudopotential information found on rwf file.
 There are   131 symmetry adapted basis functions of A'  symmetry.
 There are    66 symmetry adapted basis functions of A"  symmetry.
 Integral buffers will be    131072 words long.
 Raffenetti 2 integral format.
 Two-electron integral symmetry is turned on.
   197 basis functions,   415 primitive gaussians,   229 cartesian basis functions
    18 alpha electrons       18 beta electrons
       nuclear repulsion energy         0.0000000000 Hartrees.
 IExCor=32609 DFT=T Ex+Corr=LC-wPBE ExCW=0 ScaHFX=  1.000000
 ScaDFX=  1.000000  0.000000  1.000000  1.000000 ScalE2=  1.000000  1.000000
 IRadAn=      5 IRanWt=     -1 IRanGd=            0 ICorTp=0
  HFx wShort=  0.000000 wLong=  0.400000 cFull=  0.000000 cShort=  0.000000 cLong=  1.000000
  DFx wShort=  0.000000 wLong=  0.400000 cFull=  0.000000 cShort=  0.000000 cLong=  1.000000
 NAtoms=    5 NActive=    5 NUniq=    5 SFac= 1.00D+00 NAtFMM=   60 NAOKFM=F Big=F
 No density basis found on file   718.
 Leave Link  301 at Tue May 12 16:23:13 2020, MaxMem= 1073741824 cpu:       0.2
 (Enter /home/matheus/.gaussian/g09/l302.exe)
 NPDir=0 NMtPBC=     1 NCelOv=     1 NCel=       1 NClECP=     1 NCelD=      1
         NCelK=      1 NCelE2=     1 NClLst=     1 CellRange=     0.0.
 One-electron integrals computed using PRISM.
 NBasis=   197 RedAO= T  NBF=   131    66
 NBsUse=   197 1.00D-06 NBFU=   131    66
 Precomputing XC quadrature grid using
 IXCGrd= 2 IRadAn=           5 IRanWt=          -1 IRanGd=           0 AccXCQ= 0.00D+00.
 NRdTot=     427 NPtTot=      123814 NUsed=      126881 NTot=      126913
 NSgBfM=   229   229   229   229   229 NAtAll=     5     5.
 Leave Link  302 at Tue May 12 16:23:13 2020, MaxMem= 1073741824 cpu:       0.9
 (Enter /home/matheus/.gaussian/g09/l303.exe)
 DipDrv:  MaxL=1.
 Leave Link  303 at Tue May 12 16:23:13 2020, MaxMem= 1073741824 cpu:       0.2
 (Enter /home/matheus/.gaussian/g09/l401.exe)
 Harris functional with IExCor=32609 diagonalized for initial guess.
 ExpMin= 2.53D-02 ExpMax= 1.17D+07 ExpMxC= 1.33D+04 IAcc=3 IRadAn=         5 AccDes= 0.00D+00
 HarFok:  IExCor=32609 AccDes= 0.00D+00 IRadAn=         5 IDoV= 1
 ScaDFX=  1.000000  1.000000  1.000000  1.000000
 FoFCou: FMM=F IPFlag=           0 FMFlag=      100000 FMFlg1=           0
         NFxFlg=           0 DoJE=T BraDBF=F KetDBF=T FulRan=T
         Omega=  0.000000  0.000000  1.000000  0.000000  0.000000 ICntrl=     500 IOpCl=  0
         NMat0=    1 NMatS0=    1 NMatT0=    0 NMatD0=    1 NMtDS0=    0 NMtDT0=    0
         I1Cent=           4 NGrid=           0.
 Petite list used in FoFCou.
 Harris En= -2753.24649573672    
 Initial guess orbital symmetries:
       Occupied  (A') (A') (A') (A') (A") (A') (A') (A') (A") (A')
                 (A') (A") (A') (A") (A') (A') (A') (A")
       Virtual   (A') (A') (A') (A") (A') (A') (A') (A") (A') (A")
                 (A') (A') (A') (A") (A') (A") (A') (A') (A') (A")
                 (A') (A') (A") (A') (A') (A') (A") (A') (A') (A')
                 (A") (A') (A") (A') (A") (A') (A') (A') (A') (A")
                 (A') (A") (A') (A") (A') (A") (A') (A') (A") (A')
                 (A') (A') (A") (A") (A') (A") (A') (A') (A') (A")
                 (A') (A") (A') (A') (A') (A") (A") (A') (A') (A')
                 (A') (A') (A") (A') (A") (A') (A') (A') (A') (A")
                 (A') (A') (A") (A') (A") (A") (A') (A') (A") (A')
                 (A") (A') (A') (A") (A") (A') (A") (A') (A') (A")
                 (A') (A') (A") (A") (A') (A") (A') (A') (A') (A')
                 (A") (A") (A') (A') (A') (A') (A") (A") (A') (A')
                 (A') (A') (A') (A") (A') (A') (A") (A') (A') (A")
                 (A') (A") (A') (A') (A") (A') (A') (A") (A") (A')
                 (A') (A') (A') (A') (A') (A") (A') (A") (A') (A')
                 (A") (A") (A') (A") (A") (A') (A') (A') (A') (A')
                 (A') (A") (A") (A") (A') (A') (A") (A') (A') (A")
                 (A') (A") (A') (A') (A') (A') (A') (A') (A')
 The electronic state of the initial guess is 1-A'.
 Leave Link  401 at Tue May 12 16:23:14 2020, MaxMem= 1073741824 cpu:       2.7
 (Enter /home/matheus/.gaussian/g09/l502.exe)
 Closed shell SCF:
 Requested convergence on RMS density matrix=1.00D-08 within 128 cycles.
 Requested convergence on MAX density matrix=1.00D-06.
 Requested convergence on             energy=1.00D-06.
 No special actions if energy rises.
 Using DIIS extrapolation, IDIIS=  1040.
 Integral symmetry usage will be decided dynamically.
       126823 words used for storage of precomputed grid.
 IEnd=      305835 IEndB=      305835 NGot=  1073741824 MDV=  1073505300
 LenX=  1073505300 LenY=  1073452418
 Fock matrices will be formed incrementally for  20 cycles.

 Cycle   1  Pass 1  IDiag  1:
 FoFJK:  IHMeth= 1 ICntrl=     0 DoSepK=T KAlg= 1 I1Cent= 0 FoldK=F
 FoFCou: FMM=F IPFlag=           0 FMFlag=      100000 FMFlg1=           0
         NFxFlg=           0 DoJE=T BraDBF=F KetDBF=F FulRan=T
         Omega=  0.000000  0.000000  1.000000  0.000000  0.000000 ICntrl=     500 IOpCl=  0
         NMat0=    1 NMatS0=    1 NMatT0=    0 NMatD0=    1 NMtDS0=    0 NMtDT0=    0
         I1Cent=           0 NGrid=           0.
 Petite list used in FoFCou.
 E= -2753.38971365959    
 DIIS: error= 3.14D-02 at cycle   1 NSaved=   1.
 NSaved= 1 IEnMin= 1 EnMin= -2753.38971365959     IErMin= 1 ErrMin= 3.14D-02
 ErrMax= 3.14D-02 EMaxC= 1.00D-01 BMatC= 2.22D-01 BMatP= 2.22D-01
 IDIUse=3 WtCom= 6.86D-01 WtEn= 3.14D-01
 Coeff-Com:  0.100D+01
 Coeff-En:   0.100D+01
 Coeff:      0.100D+01
 Gap=     0.609 Goal=   None    Shift=    0.000
 GapD=    0.609 DampG=2.000 DampE=0.500 DampFc=1.0000 IDamp=-1.
 RMSDP=2.14D-03 MaxDP=1.47D-01              OVMax= 5.10D-02

 Cycle   2  Pass 1  IDiag  1:
 RMSU=  1.47D-03    CP:  1.02D+00
 FoFJK:  IHMeth= 1 ICntrl=     0 DoSepK=T KAlg= 1 I1Cent= 0 FoldK=F
 E= -2753.42035827268     Delta-E=       -0.030644613082 Rises=F Damp=F
 DIIS: error= 1.26D-02 at cycle   2 NSaved=   2.
 NSaved= 2 IEnMin= 2 EnMin= -2753.42035827268     IErMin= 2 ErrMin= 1.26D-02
 ErrMax= 1.26D-02 EMaxC= 1.00D-01 BMatC= 5.51D-02 BMatP= 2.22D-01
 IDIUse=3 WtCom= 8.74D-01 WtEn= 1.26D-01
 Coeff-Com:  0.328D+00 0.672D+00
 Coeff-En:   0.130D+00 0.870D+00
 Coeff:      0.303D+00 0.697D+00
 Gap=     0.523 Goal=   None    Shift=    0.000
 RMSDP=8.10D-04 MaxDP=5.17D-02 DE=-3.06D-02 OVMax= 2.09D-02

 Cycle   3  Pass 1  IDiag  1:
 RMSU=  1.71D-04    CP:  1.01D+00  6.40D-01
 FoFJK:  IHMeth= 1 ICntrl=     0 DoSepK=T KAlg= 1 I1Cent= 0 FoldK=F
 E= -2753.43556291748     Delta-E=       -0.015204644806 Rises=F Damp=F
 DIIS: error= 1.42D-03 at cycle   3 NSaved=   3.
 NSaved= 3 IEnMin= 3 EnMin= -2753.43556291748     IErMin= 3 ErrMin= 1.42D-03
 ErrMax= 1.42D-03 EMaxC= 1.00D-01 BMatC= 6.34D-04 BMatP= 5.51D-02
 IDIUse=3 WtCom= 9.86D-01 WtEn= 1.42D-02
 Coeff-Com: -0.250D-03 0.960D-01 0.904D+00
 Coeff-En:   0.000D+00 0.000D+00 0.100D+01
 Coeff:     -0.247D-03 0.946D-01 0.906D+00
 Gap=     0.531 Goal=   None    Shift=    0.000
 RMSDP=7.71D-05 MaxDP=4.54D-03 DE=-1.52D-02 OVMax= 2.73D-03

 Cycle   4  Pass 1  IDiag  1:
 RMSU=  1.82D-05    CP:  1.01D+00  6.74D-01  9.91D-01
 FoFJK:  IHMeth= 1 ICntrl=     0 DoSepK=T KAlg= 1 I1Cent= 0 FoldK=F
 E= -2753.43575390771     Delta-E=       -0.000190990233 Rises=F Damp=F
 DIIS: error= 3.84D-05 at cycle   4 NSaved=   4.
 NSaved= 4 IEnMin= 4 EnMin= -2753.43575390771     IErMin= 4 ErrMin= 3.84D-05
 ErrMax= 3.84D-05 EMaxC= 1.00D-01 BMatC= 4.68D-07 BMatP= 6.34D-04
 IDIUse=1 WtCom= 1.00D+00 WtEn= 0.00D+00
 Coeff-Com: -0.125D-02-0.166D-01-0.112D+00 0.113D+01
 Coeff:     -0.125D-02-0.166D-01-0.112D+00 0.113D+01
 Gap=     0.530 Goal=   None    Shift=    0.000
 RMSDP=6.45D-06 MaxDP=2.51D-04 DE=-1.91D-04 OVMax= 3.92D-04

 Cycle   5  Pass 1  IDiag  1:
 RMSU=  2.28D-06    CP:  1.01D+00  6.74D-01  1.01D+00  1.12D+00
 FoFJK:  IHMeth= 1 ICntrl=     0 DoSepK=T KAlg= 1 I1Cent= 0 FoldK=F
 E= -2753.43575444262     Delta-E=       -0.000000534907 Rises=F Damp=F
 DIIS: error= 7.29D-06 at cycle   5 NSaved=   5.
 NSaved= 5 IEnMin= 5 EnMin= -2753.43575444262     IErMin= 5 ErrMin= 7.29D-06
 ErrMax= 7.29D-06 EMaxC= 1.00D-01 BMatC= 1.15D-08 BMatP= 4.68D-07
 IDIUse=1 WtCom= 1.00D+00 WtEn= 0.00D+00
 Coeff-Com:  0.277D-04-0.241D-02-0.243D-01 0.935D-01 0.933D+00
 Coeff:      0.277D-04-0.241D-02-0.243D-01 0.935D-01 0.933D+00
 Gap=     0.530 Goal=   None    Shift=    0.000
 RMSDP=7.15D-07 MaxDP=3.10D-05 DE=-5.35D-07 OVMax= 3.05D-05

 Cycle   6  Pass 1  IDiag  1:
 RMSU=  2.15D-07    CP:  1.01D+00  6.74D-01  1.01D+00  1.15D+00  1.03D+00
 FoFJK:  IHMeth= 1 ICntrl=     0 DoSepK=T KAlg= 1 I1Cent= 0 FoldK=F
 E= -2753.43575445215     Delta-E=       -0.000000009527 Rises=F Damp=F
 DIIS: error= 3.61D-07 at cycle   6 NSaved=   6.
 NSaved= 6 IEnMin= 6 EnMin= -2753.43575445215     IErMin= 6 ErrMin= 3.61D-07
 ErrMax= 3.61D-07 EMaxC= 1.00D-01 BMatC= 4.18D-11 BMatP= 1.15D-08
 IDIUse=1 WtCom= 1.00D+00 WtEn= 0.00D+00
 Coeff-Com:  0.259D-05 0.154D-03 0.158D-02-0.113D-01-0.794D-01 0.109D+01
 Coeff:      0.259D-05 0.154D-03 0.158D-02-0.113D-01-0.794D-01 0.109D+01
 Gap=     0.530 Goal=   None    Shift=    0.000
 RMSDP=9.84D-08 MaxDP=3.58D-06 DE=-9.53D-09 OVMax= 4.47D-06

 Cycle   7  Pass 1  IDiag  1:
 RMSU=  1.63D-08    CP:  1.01D+00  6.74D-01  1.01D+00  1.15D+00  1.04D+00
                    CP:  1.23D+00
 FoFJK:  IHMeth= 1 ICntrl=     0 DoSepK=T KAlg= 1 I1Cent= 0 FoldK=F
 E= -2753.43575445224     Delta-E=       -0.000000000089 Rises=F Damp=F
 DIIS: error= 7.65D-08 at cycle   7 NSaved=   7.
 NSaved= 7 IEnMin= 7 EnMin= -2753.43575445224     IErMin= 7 ErrMin= 7.65D-08
 ErrMax= 7.65D-08 EMaxC= 1.00D-01 BMatC= 1.44D-12 BMatP= 4.18D-11
 IDIUse=1 WtCom= 1.00D+00 WtEn= 0.00D+00
 Coeff-Com: -0.215D-06 0.270D-04 0.288D-03-0.150D-02-0.164D-01 0.128D+00
 Coeff-Com:  0.890D+00
 Coeff:     -0.215D-06 0.270D-04 0.288D-03-0.150D-02-0.164D-01 0.128D+00
 Coeff:      0.890D+00
 Gap=     0.530 Goal=   None    Shift=    0.000
 RMSDP=1.09D-08 MaxDP=4.03D-07 DE=-8.87D-11 OVMax= 6.34D-07

 Cycle   8  Pass 1  IDiag  1:
 RMSU=  3.78D-09    CP:  1.01D+00  6.74D-01  1.01D+00  1.15D+00  1.04D+00
                    CP:  1.25D+00  1.11D+00
 FoFJK:  IHMeth= 1 ICntrl=     0 DoSepK=T KAlg= 1 I1Cent= 0 FoldK=F
 E= -2753.43575445223     Delta-E=        0.000000000009 Rises=F Damp=F
 DIIS: error= 1.81D-08 at cycle   8 NSaved=   8.
 NSaved= 8 IEnMin= 7 EnMin= -2753.43575445224     IErMin= 8 ErrMin= 1.81D-08
 ErrMax= 1.81D-08 EMaxC= 1.00D-01 BMatC= 1.12D-13 BMatP= 1.44D-12
 IDIUse=1 WtCom= 1.00D+00 WtEn= 0.00D+00
 Coeff-Com: -0.289D-06-0.124D-04-0.126D-03 0.972D-03 0.509D-02-0.854D-01
 Coeff-Com:  0.643D-01 0.102D+01
 Coeff:     -0.289D-06-0.124D-04-0.126D-03 0.972D-03 0.509D-02-0.854D-01
 Coeff:      0.643D-01 0.102D+01
 Gap=     0.530 Goal=   None    Shift=    0.000
 RMSDP=3.95D-09 MaxDP=1.58D-07 DE= 9.09D-12 OVMax= 2.42D-07

 SCF Done:  E(RLC-wPBE) =  -2753.43575445     A.U. after    8 cycles
             Convg  =    0.3946D-08             -V/T =  2.0014
 KE= 2.749487682688D+03 PE=-6.578896134438D+03 EE= 1.075972697297D+03
 Leave Link  502 at Tue May 12 16:23:38 2020, MaxMem= 1073741824 cpu:     190.9
 (Enter /home/matheus/.gaussian/g09/l601.exe)
 Copying SCF densities to generalized density rwf, IOpCl= 0 IROHF=0.

 **********************************************************************

            Population analysis using the SCF density.

 **********************************************************************

 Orbital symmetries:
       Occupied  (A') (A') (A') (A') (A") (A') (A') (A') (A") (A')
                 (A') (A") (A') (A") (A') (A') (A') (A")
       Virtual   (A') (A') (A') (A") (A') (A') (A') (A") (A') (A')
                 (A") (A') (A') (A") (A') (A') (A") (A') (A') (A')
                 (A") (A') (A') (A") (A') (A') (A') (A") (A') (A')
                 (A") (A') (A') (A") (A') (A') (A") (A') (A') (A")
                 (A') (A") (A") (A') (A') (A') (A") (A') (A') (A")
                 (A') (A') (A") (A") (A') (A') (A") (A') (A") (A')
                 (A') (A") (A') (A') (A") (A') (A') (A') (A') (A")
                 (A') (A') (A') (A") (A") (A') (A') (A') (A') (A")
                 (A') (A") (A') (A') (A") (A') (A") (A') (A') (A")
                 (A") (A') (A") (A') (A") (A') (A") (A') (A") (A')
                 (A") (A') (A") (A') (A') (A") (A') (A') (A') (A")
                 (A') (A") (A') (A') (A') (A') (A") (A") (A') (A')
                 (A') (A') (A') (A") (A') (A') (A") (A') (A') (A")
                 (A') (A') (A") (A") (A') (A') (A') (A") (A") (A')
                 (A') (A') (A') (A') (A') (A") (A') (A") (A') (A')
                 (A") (A") (A') (A") (A") (A') (A') (A') (A') (A')
                 (A') (A") (A") (A") (A') (A') (A") (A') (A') (A")
                 (A') (A") (A') (A') (A') (A') (A') (A') (A')
 The electronic state is 1-A'.
 Alpha  occ. eigenvalues -- -511.10627 -66.65305 -60.31519 -60.31516 -60.31516
 Alpha  occ. eigenvalues --   -9.58572  -7.32996  -7.32994  -7.32994  -3.28540
 Alpha  occ. eigenvalues --   -3.28539  -3.28539  -3.28538  -3.28538  -1.03232
 Alpha  occ. eigenvalues --   -0.50220  -0.50217  -0.50216
 Alpha virt. eigenvalues --    0.02827   0.04852   0.08289   0.09911   0.10715
 Alpha virt. eigenvalues --    0.12154   0.12970   0.14437   0.16527   0.16988
 Alpha virt. eigenvalues --    0.17801   0.19501   0.21053   0.26359   0.27140
 Alpha virt. eigenvalues --    0.27745   0.28354   0.32819   0.34064   0.35722
 Alpha virt. eigenvalues --    0.35729   0.36748   0.38016   0.39265   0.41687
 Alpha virt. eigenvalues --    0.43293   0.43591   0.53710   0.55290   0.58003
 Alpha virt. eigenvalues --    0.62449   0.64205   0.67360   0.68237   0.70468
 Alpha virt. eigenvalues --    0.74746   0.75096   0.75816   0.77605   0.77794
 Alpha virt. eigenvalues --    0.81158   0.81783   0.83266   0.84276   0.85076
 Alpha virt. eigenvalues --    0.86525   0.88243   0.88835   0.91971   0.94653
 Alpha virt. eigenvalues --    0.97906   1.00157   1.00601   1.03031   1.04747
 Alpha virt. eigenvalues --    1.06370   1.07658   1.08699   1.12398   1.13610
 Alpha virt. eigenvalues --    1.16177   1.18416   1.18777   1.25916   1.28655
 Alpha virt. eigenvalues --    1.32436   1.34601   1.42166   1.43292   1.44591
 Alpha virt. eigenvalues --    1.56918   1.59999   1.72258   1.73997   1.77591
 Alpha virt. eigenvalues --    1.82450   1.85713   1.87228   1.88521   2.15028
 Alpha virt. eigenvalues --    2.19881   2.24663   2.27531   2.30948   2.31344
 Alpha virt. eigenvalues --    2.32721   2.33313   2.36828   2.39654   2.40197
 Alpha virt. eigenvalues --    2.42086   2.45013   2.49061   2.49691   2.49788
 Alpha virt. eigenvalues --    2.52433   2.54480   2.54773   2.57402   2.59725
 Alpha virt. eigenvalues --    2.60646   2.61837   2.62903   2.64561   2.67570
 Alpha virt. eigenvalues --    2.68657   2.69729   2.76752   2.79010   2.87557
 Alpha virt. eigenvalues --    2.89271   3.02362   3.05243   3.11183   3.15366
 Alpha virt. eigenvalues --    3.24957   3.25563   3.28608   3.34635   3.52573
 Alpha virt. eigenvalues --    3.59493   3.64419   3.85310   3.87354   4.03326
 Alpha virt. eigenvalues --    4.33152   4.42819   4.56684   4.57319   4.62484
 Alpha virt. eigenvalues --    4.73658   4.91375   4.91935   4.92793   5.02524
 Alpha virt. eigenvalues --    5.11869   5.14634   5.59693   5.66386   5.84131
 Alpha virt. eigenvalues --    5.86934   5.95330   6.22745   6.84526   6.95760
 Alpha virt. eigenvalues --    7.25567   7.42652   7.60032   7.65785   7.75706
 Alpha virt. eigenvalues --    7.77975   8.09683   8.09821   8.16582   8.25961
 Alpha virt. eigenvalues --    8.33147   8.37735   8.69334   8.90011   9.64531
 Alpha virt. eigenvalues --    9.70888   9.76696   9.82963   9.95549  10.06433
 Alpha virt. eigenvalues --   10.18393  10.19594  10.49876  10.93254  11.41662
 Alpha virt. eigenvalues --   11.56335  11.61408  12.03174  12.14436  13.21556
 Alpha virt. eigenvalues --   13.69928  14.53078  62.96166  64.51887
          Condensed to atoms (all electrons):
              1          2          3          4          5
     1  O    0.002323  -0.001909  -0.001230   0.001035  -0.007111
     2  O   -0.001909   0.004650   0.000773  -0.003226  -0.001099
     3  H   -0.001230   0.000773   0.000840  -0.000395   0.000854
     4  H    0.001035  -0.003226  -0.000395   0.003981  -0.028882
     5  Kr  -0.007111  -0.001099   0.000854  -0.028882  36.070590
 Mulliken atomic charges:
              1
     1  O    0.006893
     2  O    0.000812
     3  H   -0.000842
     4  H    0.027488
     5  Kr  -0.034351
 Sum of Mulliken atomic charges =   0.00000
 Mulliken charges with hydrogens summed into heavy atoms:
              1
     1  O    0.006051
     2  O    0.028300
     5  Kr  -0.034351
 Sum of Mulliken charges with hydrogens summed into heavy atoms =   0.00000
          Condensed to fragments (all electrons):
     1       0.034351
     2      -0.034351
 Electronic spatial extent (au):  <R**2>=            167.8627
 Charge=              0.0000 electrons
 Dipole moment (field-independent basis, Debye):
    X=             -0.0004    Y=             -0.0008    Z=              0.0000  Tot=              0.0009
 Quadrupole moment (field-independent basis, Debye-Ang):
   XX=            -17.6229   YY=            -17.6155   ZZ=            -17.6274
   XY=              0.0036   XZ=              0.0000   YZ=              0.0000
 Traceless Quadrupole moment (field-independent basis, Debye-Ang):
   XX=             -0.0010   YY=              0.0064   ZZ=             -0.0054
   XY=              0.0036   XZ=              0.0000   YZ=              0.0000
 Octapole moment (field-independent basis, Debye-Ang**2):
  XXX=             -0.0011  YYY=            -52.8466  ZZZ=              0.0000  XYY=              0.0073
  XXY=            -17.6237  XXZ=              0.0000  XZZ=             -0.0007  YZZ=            -17.6258
  YYZ=              0.0000  XYZ=              0.0000
 Hexadecapole moment (field-independent basis, Debye-Ang**3):
 XXXX=            -18.3731 YYYY=           -124.0609 ZZZZ=            -18.3842 XXXY=              0.0118
 XXXZ=              0.0000 YYYX=              0.0161 YYYZ=              0.0000 ZZZX=              0.0000
 ZZZY=              0.0000 XXYY=            -23.7446 XXZZ=             -6.1233 YYZZ=            -23.7470
 XXYZ=              0.0000 YYXZ=              0.0000 ZZXY=              0.0050
 N-N= 0.000000000000D+00 E-N=-6.578896136203D+03  KE= 2.749487682688D+03
 Symmetry A'   KE= 2.343656560213D+03
 Symmetry A"   KE= 4.058311224758D+02
 No NMR shielding tensors so no spin-rotation constants.
 Leave Link  601 at Tue May 12 16:23:38 2020, MaxMem= 1073741824 cpu:       0.9
 (Enter /home/matheus/.gaussian/g09/l122.exe)
 Counterpoise: doing MCBS calculation for fragment   1
 Leave Link  122 at Tue May 12 16:23:38 2020, MaxMem= 1073741824 cpu:       0.0
 (Enter /home/matheus/.gaussian/g09/l301.exe)
 Basis read from rwf:  (5D, 7F)
 No pseudopotential information found on rwf file.
 There are    92 symmetry adapted basis functions of A'  symmetry.
 There are    46 symmetry adapted basis functions of A"  symmetry.
 Integral buffers will be    131072 words long.
 Raffenetti 2 integral format.
 Two-electron integral symmetry is turned on.
   138 basis functions,   198 primitive gaussians,   160 cartesian basis functions
     9 alpha electrons        9 beta electrons
       nuclear repulsion energy        36.6006188945 Hartrees.
 IExCor=32609 DFT=T Ex+Corr=LC-wPBE ExCW=0 ScaHFX=  1.000000
 ScaDFX=  1.000000  0.000000  1.000000  1.000000 ScalE2=  1.000000  1.000000
 IRadAn=      5 IRanWt=     -1 IRanGd=            0 ICorTp=0
  HFx wShort=  0.000000 wLong=  0.400000 cFull=  0.000000 cShort=  0.000000 cLong=  1.000000
  DFx wShort=  0.000000 wLong=  0.400000 cFull=  0.000000 cShort=  0.000000 cLong=  1.000000
 NAtoms=    5 NActive=    4 NUniq=    4 SFac= 1.00D+00 NAtFMM=   60 NAOKFM=F Big=F
 No density basis found on file   718.
 Leave Link  301 at Tue May 12 16:23:38 2020, MaxMem= 1073741824 cpu:       0.2
 (Enter /home/matheus/.gaussian/g09/l302.exe)
 NPDir=0 NMtPBC=     1 NCelOv=     1 NCel=       1 NClECP=     1 NCelD=      1
         NCelK=      1 NCelE2=     1 NClLst=     1 CellRange=     0.0.
 One-electron integrals computed using PRISM.
 NBasis=   138 RedAO= T  NBF=    92    46
 NBsUse=   138 1.00D-06 NBFU=    92    46
 Precomputing XC quadrature grid using
 IXCGrd= 2 IRadAn=           5 IRanWt=          -1 IRanGd=           0 AccXCQ= 0.00D+00.
 NRdTot=     344 NPtTot=       92556 NUsed=       95038 NTot=       95070
 NSgBfM=   160   160   160   160   160 NAtAll=     4     4.
 Leave Link  302 at Tue May 12 16:23:38 2020, MaxMem= 1073741824 cpu:       0.8
 (Enter /home/matheus/.gaussian/g09/l303.exe)
 DipDrv:  MaxL=1.
 Leave Link  303 at Tue May 12 16:23:38 2020, MaxMem= 1073741824 cpu:       0.2
 (Enter /home/matheus/.gaussian/g09/l401.exe)
 Harris functional with IExCor=32609 diagonalized for initial guess.
 ExpMin= 2.53D-02 ExpMax= 1.53D+04 ExpMxC= 5.22D+02 IAcc=3 IRadAn=         5 AccDes= 0.00D+00
 HarFok:  IExCor=32609 AccDes= 0.00D+00 IRadAn=         5 IDoV= 1
 ScaDFX=  1.000000  1.000000  1.000000  1.000000
 FoFCou: FMM=F IPFlag=           0 FMFlag=      100000 FMFlg1=           0
         NFxFlg=           0 DoJE=T BraDBF=F KetDBF=T FulRan=T
         Omega=  0.000000  0.000000  1.000000  0.000000  0.000000 ICntrl=     500 IOpCl=  0
         NMat0=    1 NMatS0=    1 NMatT0=    0 NMatD0=    1 NMtDS0=    0 NMtDT0=    0
         I1Cent=           4 NGrid=           0.
 Petite list used in FoFCou.
 Harris En= -151.499497219958    
 Initial guess orbital symmetries:
       Occupied  (A') (A') (A') (A') (A') (A') (A") (A') (A")
       Virtual   (A') (A') (A') (A') (A') (A") (A') (A') (A') (A")
                 (A") (A') (A') (A') (A") (A') (A') (A') (A') (A')
                 (A') (A") (A") (A') (A') (A") (A") (A') (A') (A")
                 (A') (A') (A') (A") (A') (A") (A") (A') (A') (A')
                 (A') (A") (A') (A") (A') (A') (A') (A") (A") (A')
                 (A') (A') (A") (A') (A') (A") (A') (A') (A") (A")
                 (A') (A') (A') (A") (A') (A') (A") (A') (A') (A")
                 (A") (A') (A') (A") (A') (A') (A') (A') (A") (A')
                 (A') (A") (A') (A") (A") (A") (A') (A") (A') (A")
                 (A') (A') (A') (A') (A') (A') (A') (A") (A") (A')
                 (A') (A') (A") (A') (A') (A") (A') (A") (A') (A")
                 (A') (A") (A") (A") (A') (A") (A") (A') (A') (A')
                 (A") (A') (A') (A') (A') (A') (A') (A') (A')
 The electronic state of the initial guess is 1-A'.
 Leave Link  401 at Tue May 12 16:23:38 2020, MaxMem= 1073741824 cpu:       1.6
 (Enter /home/matheus/.gaussian/g09/l502.exe)
 Closed shell SCF:
 Requested convergence on RMS density matrix=1.00D-08 within 128 cycles.
 Requested convergence on MAX density matrix=1.00D-06.
 Requested convergence on             energy=1.00D-06.
 No special actions if energy rises.
 Using DIIS extrapolation, IDIIS=  1040.
 Integral symmetry usage will be decided dynamically.
        94980 words used for storage of precomputed grid.
 IEnd=      192406 IEndB=      192406 NGot=  1073741824 MDV=  1073591819
 LenX=  1073591819 LenY=  1073565778
 Fock matrices will be formed incrementally for  20 cycles.

 Cycle   1  Pass 1  IDiag  1:
 FoFJK:  IHMeth= 1 ICntrl=     0 DoSepK=T KAlg= 1 I1Cent= 0 FoldK=F
 FoFCou: FMM=F IPFlag=           0 FMFlag=      100000 FMFlg1=           0
         NFxFlg=           0 DoJE=T BraDBF=F KetDBF=F FulRan=T
         Omega=  0.000000  0.000000  1.000000  0.000000  0.000000 ICntrl=     500 IOpCl=  0
         NMat0=    1 NMatS0=    1 NMatT0=    0 NMatD0=    1 NMtDS0=    0 NMtDT0=    0
         I1Cent=           0 NGrid=           0.
 Petite list used in FoFCou.
 E= -151.496033006481    
 DIIS: error= 1.82D-02 at cycle   1 NSaved=   1.
 NSaved= 1 IEnMin= 1 EnMin= -151.496033006481     IErMin= 1 ErrMin= 1.82D-02
 ErrMax= 1.82D-02 EMaxC= 1.00D-01 BMatC= 3.83D-02 BMatP= 3.83D-02
 IDIUse=3 WtCom= 8.18D-01 WtEn= 1.82D-01
 Coeff-Com:  0.100D+01
 Coeff-En:   0.100D+01
 Coeff:      0.100D+01
 Gap=     0.474 Goal=   None    Shift=    0.000
 GapD=    0.474 DampG=2.000 DampE=0.500 DampFc=1.0000 IDamp=-1.
 RMSDP=1.20D-03 MaxDP=2.53D-02              OVMax= 5.39D-02

 Cycle   2  Pass 1  IDiag  1:
 RMSU=  8.41D-04    CP:  9.89D-01
 FoFJK:  IHMeth= 1 ICntrl=     0 DoSepK=T KAlg= 1 I1Cent= 0 FoldK=F
 E= -151.509628198793     Delta-E=       -0.013595192312 Rises=F Damp=F
 DIIS: error= 1.62D-02 at cycle   2 NSaved=   2.
 NSaved= 2 IEnMin= 2 EnMin= -151.509628198793     IErMin= 2 ErrMin= 1.62D-02
 ErrMax= 1.62D-02 EMaxC= 1.00D-01 BMatC= 2.06D-02 BMatP= 3.83D-02
 IDIUse=3 WtCom= 8.38D-01 WtEn= 1.62D-01
 Coeff-Com:  0.414D+00 0.586D+00
 Coeff-En:   0.242D+00 0.758D+00
 Coeff:      0.386D+00 0.614D+00
 Gap=     0.423 Goal=   None    Shift=    0.000
 RMSDP=6.15D-04 MaxDP=2.25D-02 DE=-1.36D-02 OVMax= 2.52D-02

 Cycle   3  Pass 1  IDiag  1:
 RMSU=  3.28D-04    CP:  9.86D-01  6.62D-01
 FoFJK:  IHMeth= 1 ICntrl=     0 DoSepK=T KAlg= 1 I1Cent= 0 FoldK=F
 E= -151.521248183316     Delta-E=       -0.011619984523 Rises=F Damp=F
 DIIS: error= 2.46D-03 at cycle   3 NSaved=   3.
 NSaved= 3 IEnMin= 3 EnMin= -151.521248183316     IErMin= 3 ErrMin= 2.46D-03
 ErrMax= 2.46D-03 EMaxC= 1.00D-01 BMatC= 4.89D-04 BMatP= 2.06D-02
 IDIUse=3 WtCom= 9.75D-01 WtEn= 2.46D-02
 Coeff-Com:  0.616D-01 0.165D+00 0.774D+00
 Coeff-En:   0.000D+00 0.000D+00 0.100D+01
 Coeff:      0.600D-01 0.161D+00 0.779D+00
 Gap=     0.416 Goal=   None    Shift=    0.000
 RMSDP=8.86D-05 MaxDP=1.89D-03 DE=-1.16D-02 OVMax= 4.27D-03

 Cycle   4  Pass 1  IDiag  1:
 RMSU=  4.23D-05    CP:  9.84D-01  7.14D-01  1.00D+00
 FoFJK:  IHMeth= 1 ICntrl=     0 DoSepK=T KAlg= 1 I1Cent= 0 FoldK=F
 E= -151.521547900458     Delta-E=       -0.000299717142 Rises=F Damp=F
 DIIS: error= 3.65D-04 at cycle   4 NSaved=   4.
 NSaved= 4 IEnMin= 4 EnMin= -151.521547900458     IErMin= 4 ErrMin= 3.65D-04
 ErrMax= 3.65D-04 EMaxC= 1.00D-01 BMatC= 1.47D-05 BMatP= 4.89D-04
 IDIUse=3 WtCom= 9.96D-01 WtEn= 3.65D-03
 Coeff-Com: -0.401D-02-0.591D-02 0.124D+00 0.886D+00
 Coeff-En:   0.000D+00 0.000D+00 0.000D+00 0.100D+01
 Coeff:     -0.400D-02-0.589D-02 0.124D+00 0.886D+00
 Gap=     0.418 Goal=   None    Shift=    0.000
 RMSDP=1.87D-05 MaxDP=9.25D-04 DE=-3.00D-04 OVMax= 8.43D-04

 Cycle   5  Pass 1  IDiag  1:
 RMSU=  7.43D-06    CP:  9.84D-01  7.13D-01  1.03D+00  1.03D+00
 FoFJK:  IHMeth= 1 ICntrl=     0 DoSepK=T KAlg= 1 I1Cent= 0 FoldK=F
 E= -151.521557807248     Delta-E=       -0.000009906790 Rises=F Damp=F
 DIIS: error= 4.84D-05 at cycle   5 NSaved=   5.
 NSaved= 5 IEnMin= 5 EnMin= -151.521557807248     IErMin= 5 ErrMin= 4.84D-05
 ErrMax= 4.84D-05 EMaxC= 1.00D-01 BMatC= 1.24D-07 BMatP= 1.47D-05
 IDIUse=1 WtCom= 1.00D+00 WtEn= 0.00D+00
 Coeff-Com: -0.106D-02-0.368D-02-0.294D-01-0.733D-01 0.111D+01
[...]
                 (A') (A') (A") (A') (A") (A") (A') (A') (A') (A')
                 (A") (A') (A") (A") (A") (A') (A") (A') (A") (A')
                 (A') (A') (A') (A") (A") (A') (A") (A') (A') (A')
                 (A") (A') (A") (A') (A') (A') (A') (A") (A") (A')
                 (A') (A') (A') (A') (A") (A') (A") (A') (A') (A")
                 (A') (A') (A") (A") (A') (A') (A') (A") (A") (A')
                 (A') (A') (A') (A') (A') (A") (A') (A") (A') (A")
                 (A') (A') (A") (A") (A") (A') (A') (A') (A') (A')
                 (A') (A") (A") (A") (A') (A') (A") (A') (A') (A")
                 (A') (A") (A') (A') (A') (A') (A') (A') (A')
 The electronic state of the initial guess is 1-A'.
 Generating alternative initial guess.
 Harris functional with IExCor=32609 diagonalized for initial guess.
 ExpMin= 2.53D-02 ExpMax= 1.17D+07 ExpMxC= 1.33D+04 IAcc=3 IRadAn=         5 AccDes= 0.00D+00
 HarFok:  IExCor=32609 AccDes= 0.00D+00 IRadAn=         5 IDoV= 1
 ScaDFX=  1.000000  1.000000  1.000000  1.000000
 FoFCou: FMM=F IPFlag=           0 FMFlag=      100000 FMFlg1=           0
         NFxFlg=           0 DoJE=T BraDBF=F KetDBF=T FulRan=T
         Omega=  0.000000  0.000000  1.000000  0.000000  0.000000 ICntrl=     500 IOpCl=  0
         NMat0=    1 NMatS0=    1 NMatT0=    0 NMatD0=    1 NMtDS0=    0 NMtDT0=    0
         I1Cent=           4 NGrid=           0.
 Petite list used in FoFCou.
 Harris En= -2753.24586711165    
 Leave Link  401 at Tue May 12 16:43:36 2020, MaxMem= 1073741824 cpu:       3.0
 (Enter /home/matheus/.gaussian/g09/l502.exe)
 Closed shell SCF:
 Requested convergence on RMS density matrix=1.00D-08 within 128 cycles.
 Requested convergence on MAX density matrix=1.00D-06.
 Requested convergence on             energy=1.00D-06.
 No special actions if energy rises.
 Using DIIS extrapolation, IDIIS=  1040.
 Integral symmetry usage will be decided dynamically.
       127132 words used for storage of precomputed grid.
 IEnd=      306144 IEndB=      306144 NGot=  1073741824 MDV=  1073504991
 LenX=  1073504991 LenY=  1073452109
 Fock matrices will be formed incrementally for  20 cycles.

 Cycle   1  Pass 1  IDiag  1:
 FoFJK:  IHMeth= 1 ICntrl=     0 DoSepK=T KAlg= 1 I1Cent= 0 FoldK=F
 FoFCou: FMM=F IPFlag=           0 FMFlag=      100000 FMFlg1=           0
         NFxFlg=           0 DoJE=T BraDBF=F KetDBF=F FulRan=T
         Omega=  0.000000  0.000000  1.000000  0.000000  0.000000 ICntrl=     500 IOpCl=  0
         NMat0=    1 NMatS0=    1 NMatT0=    0 NMatD0=    1 NMtDS0=    0 NMtDT0=    0
         I1Cent=           0 NGrid=           0.
 Petite list used in FoFCou.
 E= -2753.43565032529    
 DIIS: error= 1.97D-04 at cycle   1 NSaved=   1.
 NSaved= 1 IEnMin= 1 EnMin= -2753.43565032529     IErMin= 1 ErrMin= 1.97D-04
 ErrMax= 1.97D-04 EMaxC= 1.00D-01 BMatC= 5.29D-06 BMatP= 5.29D-06
 IDIUse=3 WtCom= 9.98D-01 WtEn= 1.97D-03
 Coeff-Com:  0.100D+01
 Coeff-En:   0.100D+01
 Coeff:      0.100D+01
 Gap=     0.530 Goal=   None    Shift=    0.000
 RMSDP=1.74D-05 MaxDP=7.14D-04              OVMax= 2.62D-04

 Cycle   2  Pass 1  IDiag  1:
 RMSU=  1.23D-05    CP:  1.00D+00
 FoFJK:  IHMeth= 1 ICntrl=     0 DoSepK=T KAlg= 1 I1Cent= 0 FoldK=F
 E= -2753.43565079655     Delta-E=       -0.000000471257 Rises=F Damp=F
 DIIS: error= 2.84D-06 at cycle   2 NSaved=   2.
 NSaved= 2 IEnMin= 2 EnMin= -2753.43565079655     IErMin= 2 ErrMin= 2.84D-06
 ErrMax= 2.84D-06 EMaxC= 1.00D-01 BMatC= 2.78D-09 BMatP= 5.29D-06
 IDIUse=1 WtCom= 1.00D+00 WtEn= 0.00D+00
 Coeff-Com: -0.638D-02 0.101D+01
 Coeff:     -0.638D-02 0.101D+01
 Gap=     0.529 Goal=   None    Shift=    0.000
 RMSDP=1.41D-06 MaxDP=5.16D-05 DE=-4.71D-07 OVMax= 3.89D-05

 Cycle   3  Pass 1  IDiag  1:
 RMSU=  5.06D-07    CP:  1.00D+00  1.07D+00
 FoFJK:  IHMeth= 1 ICntrl=     0 DoSepK=T KAlg= 1 I1Cent= 0 FoldK=F
 E= -2753.43565080127     Delta-E=       -0.000000004719 Rises=F Damp=F
 DIIS: error= 4.49D-07 at cycle   3 NSaved=   3.
 NSaved= 3 IEnMin= 3 EnMin= -2753.43565080127     IErMin= 3 ErrMin= 4.49D-07
 ErrMax= 4.49D-07 EMaxC= 1.00D-01 BMatC= 7.73D-11 BMatP= 2.78D-09
 IDIUse=1 WtCom= 1.00D+00 WtEn= 0.00D+00
 Coeff-Com:  0.207D-03-0.106D+00 0.111D+01
 Coeff:      0.207D-03-0.106D+00 0.111D+01
 Gap=     0.529 Goal=   None    Shift=    0.000
 RMSDP=1.64D-07 MaxDP=5.99D-06 DE=-4.72D-09 OVMax= 7.75D-06

 Cycle   4  Pass 1  IDiag  1:
 RMSU=  5.49D-08    CP:  1.00D+00  1.07D+00  1.18D+00
 FoFJK:  IHMeth= 1 ICntrl=     0 DoSepK=T KAlg= 1 I1Cent= 0 FoldK=F
 E= -2753.43565080141     Delta-E=       -0.000000000146 Rises=F Damp=F
 DIIS: error= 3.23D-07 at cycle   4 NSaved=   4.
 NSaved= 4 IEnMin= 4 EnMin= -2753.43565080141     IErMin= 4 ErrMin= 3.23D-07
 ErrMax= 3.23D-07 EMaxC= 1.00D-01 BMatC= 1.17D-11 BMatP= 7.73D-11
 IDIUse=1 WtCom= 1.00D+00 WtEn= 0.00D+00
 Coeff-Com:  0.182D-03-0.518D-01 0.325D+00 0.726D+00
 Coeff:      0.182D-03-0.518D-01 0.325D+00 0.726D+00
 Gap=     0.529 Goal=   None    Shift=    0.000
 RMSDP=1.90D-08 MaxDP=8.30D-07 DE=-1.46D-10 OVMax= 8.94D-07

 Cycle   5  Pass 1  IDiag  1:
 RMSU=  9.23D-09    CP:  1.00D+00  1.07D+00  1.19D+00  1.11D+00
 FoFJK:  IHMeth= 1 ICntrl=     0 DoSepK=T KAlg= 1 I1Cent= 0 FoldK=F
 E= -2753.43565080142     Delta-E=       -0.000000000007 Rises=F Damp=F
 DIIS: error= 3.50D-08 at cycle   5 NSaved=   5.
 NSaved= 5 IEnMin= 5 EnMin= -2753.43565080142     IErMin= 5 ErrMin= 3.50D-08
 ErrMax= 3.50D-08 EMaxC= 1.00D-01 BMatC= 2.02D-13 BMatP= 1.17D-11
 IDIUse=1 WtCom= 1.00D+00 WtEn= 0.00D+00
 Coeff-Com:  0.247D-05 0.195D-02-0.315D-01 0.228D-01 0.101D+01
 Coeff:      0.247D-05 0.195D-02-0.315D-01 0.228D-01 0.101D+01
 Gap=     0.529 Goal=   None    Shift=    0.000
 RMSDP=8.73D-09 MaxDP=5.20D-07 DE=-6.82D-12 OVMax= 3.14D-07

 SCF Done:  E(RLC-wPBE) =  -2753.43565080     A.U. after    5 cycles
             Convg  =    0.8731D-08             -V/T =  2.0014
 KE= 2.749528188310D+03 PE=-6.578941075343D+03 EE= 1.075977236231D+03
 Leave Link  502 at Tue May 12 16:43:47 2020, MaxMem= 1073741824 cpu:      92.7
 (Enter /home/matheus/.gaussian/g09/l122.exe)
 Restoring MOs from calculation   4 to rwf.
 Counterpoise: doing MCBS calculation for fragment   1
 Leave Link  122 at Tue May 12 16:43:47 2020, MaxMem= 1073741824 cpu:       0.0
 (Enter /home/matheus/.gaussian/g09/l301.exe)
 Basis read from rwf:  (5D, 7F)
 No pseudopotential information found on rwf file.
 There are    92 symmetry adapted basis functions of A'  symmetry.
 There are    46 symmetry adapted basis functions of A"  symmetry.
 Integral buffers will be    131072 words long.
 Raffenetti 2 integral format.
 Two-electron integral symmetry is turned on.
   138 basis functions,   198 primitive gaussians,   160 cartesian basis functions
     9 alpha electrons        9 beta electrons
       nuclear repulsion energy        36.6006188945 Hartrees.
 IExCor=32609 DFT=T Ex+Corr=LC-wPBE ExCW=0 ScaHFX=  1.000000
 ScaDFX=  1.000000  0.000000  1.000000  1.000000 ScalE2=  1.000000  1.000000
 IRadAn=      5 IRanWt=     -1 IRanGd=            0 ICorTp=0
  HFx wShort=  0.000000 wLong=  0.400000 cFull=  0.000000 cShort=  0.000000 cLong=  1.000000
  DFx wShort=  0.000000 wLong=  0.400000 cFull=  0.000000 cShort=  0.000000 cLong=  1.000000
 NAtoms=    5 NActive=    4 NUniq=    4 SFac= 1.00D+00 NAtFMM=   60 NAOKFM=F Big=F
 No density basis found on file   718.
 Leave Link  301 at Tue May 12 16:43:47 2020, MaxMem= 1073741824 cpu:       0.2
 (Enter /home/matheus/.gaussian/g09/l302.exe)
 NPDir=0 NMtPBC=     1 NCelOv=     1 NCel=       1 NClECP=     1 NCelD=      1
         NCelK=      1 NCelE2=     1 NClLst=     1 CellRange=     0.0.
 One-electron integrals computed using PRISM.
 NBasis=   138 RedAO= T  NBF=    92    46
 NBsUse=   138 1.00D-06 NBFU=    92    46
 Precomputing XC quadrature grid using
 IXCGrd= 2 IRadAn=           5 IRanWt=          -1 IRanGd=           0 AccXCQ= 0.00D+00.
 NRdTot=     344 NPtTot=       92556 NUsed=       95038 NTot=       95070
 NSgBfM=   160   160   160   160   160 NAtAll=     4     4.
 Leave Link  302 at Tue May 12 16:43:47 2020, MaxMem= 1073741824 cpu:       0.7
 (Enter /home/matheus/.gaussian/g09/l303.exe)
 DipDrv:  MaxL=1.
 Leave Link  303 at Tue May 12 16:43:48 2020, MaxMem= 1073741824 cpu:       0.2
 (Enter /home/matheus/.gaussian/g09/l401.exe)
 Initial guess read from the read-write file.
 Guess basis will be translated and rotated to current coordinates.
 Initial guess orbital symmetries:
       Occupied  (A') (A') (A') (A') (A') (A') (A") (A') (A")
       Virtual   (A') (A') (A') (A') (A') (A") (A') (A') (A') (A")
                 (A") (A') (A') (A') (A") (A') (A') (A') (A') (A')
                 (A') (A") (A") (A') (A') (A") (A") (A') (A') (A")
                 (A') (A') (A") (A') (A') (A") (A') (A") (A') (A')
                 (A') (A') (A") (A") (A') (A') (A') (A") (A") (A')
                 (A') (A') (A") (A') (A') (A") (A') (A') (A") (A")
                 (A') (A') (A') (A") (A') (A') (A") (A') (A') (A")
                 (A") (A') (A') (A") (A') (A') (A') (A') (A") (A')
                 (A') (A") (A") (A') (A") (A") (A') (A") (A') (A")
                 (A') (A') (A') (A') (A') (A') (A') (A") (A") (A')
                 (A') (A') (A") (A') (A') (A") (A') (A") (A') (A")
                 (A') (A") (A") (A") (A') (A") (A") (A') (A') (A')
                 (A") (A') (A') (A') (A') (A') (A') (A') (A')
 The electronic state of the initial guess is 1-A'.
 Generating alternative initial guess.
 Harris functional with IExCor=32609 diagonalized for initial guess.
 ExpMin= 2.53D-02 ExpMax= 1.53D+04 ExpMxC= 5.22D+02 IAcc=3 IRadAn=         5 AccDes= 0.00D+00
 HarFok:  IExCor=32609 AccDes= 0.00D+00 IRadAn=         5 IDoV= 1
 ScaDFX=  1.000000  1.000000  1.000000  1.000000
 FoFCou: FMM=F IPFlag=           0 FMFlag=      100000 FMFlg1=           0
         NFxFlg=           0 DoJE=T BraDBF=F KetDBF=T FulRan=T
         Omega=  0.000000  0.000000  1.000000  0.000000  0.000000 ICntrl=     500 IOpCl=  0
         NMat0=    1 NMatS0=    1 NMatT0=    0 NMatD0=    1 NMtDS0=    0 NMtDT0=    0
         I1Cent=           4 NGrid=           0.
 Petite list used in FoFCou.
 Harris En= -151.499497219958    
 Leave Link  401 at Tue May 12 16:43:48 2020, MaxMem= 1073741824 cpu:       2.0
 (Enter /home/matheus/.gaussian/g09/l502.exe)
 Closed shell SCF:
 Requested convergence on RMS density matrix=1.00D-08 within 128 cycles.
 Requested convergence on MAX density matrix=1.00D-06.
 Requested convergence on             energy=1.00D-06.
 No special actions if energy rises.
 Using DIIS extrapolation, IDIIS=  1040.
 Integral symmetry usage will be decided dynamically.
        94980 words used for storage of precomputed grid.
 IEnd=      192406 IEndB=      192406 NGot=  1073741824 MDV=  1073591819
 LenX=  1073591819 LenY=  1073565778
 Fock matrices will be formed incrementally for  20 cycles.

 Cycle   1  Pass 1  IDiag  1:
 FoFJK:  IHMeth= 1 ICntrl=     0 DoSepK=T KAlg= 1 I1Cent= 0 FoldK=F
 FoFCou: FMM=F IPFlag=           0 FMFlag=      100000 FMFlg1=           0
         NFxFlg=           0 DoJE=T BraDBF=F KetDBF=F FulRan=T
         Omega=  0.000000  0.000000  1.000000  0.000000  0.000000 ICntrl=     500 IOpCl=  0
         NMat0=    1 NMatS0=    1 NMatT0=    0 NMatD0=    1 NMtDS0=    0 NMtDT0=    0
         I1Cent=           0 NGrid=           0.
 Petite list used in FoFCou.
 E= -151.521558118809    
 DIIS: error= 2.40D-10 at cycle   1 NSaved=   1.
 NSaved= 1 IEnMin= 1 EnMin= -151.521558118809     IErMin= 1 ErrMin= 2.40D-10
 ErrMax= 2.40D-10 EMaxC= 1.00D-01 BMatC= 5.42D-18 BMatP= 5.42D-18
 IDIUse=1 WtCom= 1.00D+00 WtEn= 0.00D+00
 Coeff-Com:  0.100D+01
 Coeff:      0.100D+01
 Gap=     0.418 Goal=   None    Shift=    0.000
 RMSDP=1.45D-11 MaxDP=3.82D-10              OVMax= 6.82D-10

 SCF Done:  E(RLC-wPBE) =  -151.521558119     A.U. after    1 cycles
             Convg  =    0.1446D-10             -V/T =  2.0068
 KE= 1.504969821518D+02 PE=-4.315004901688D+02 EE= 9.288133100366D+01
 Leave Link  502 at Tue May 12 16:43:49 2020, MaxMem= 1073741824 cpu:       8.3
 (Enter /home/matheus/.gaussian/g09/l122.exe)
 Restoring MOs from calculation   5 to rwf.
 Counterpoise: doing MCBS calculation for fragment   2
 Leave Link  122 at Tue May 12 16:43:49 2020, MaxMem= 1073741824 cpu:       0.0
 (Enter /home/matheus/.gaussian/g09/l301.exe)
 Basis read from rwf:  (5D, 7F)
 No pseudopotential information found on rwf file.
 There are    39 symmetry adapted basis functions of A'  symmetry.
 There are    20 symmetry adapted basis functions of A"  symmetry.
 Integral buffers will be    131072 words long.
 Raffenetti 2 integral format.
 Two-electron integral symmetry is turned on.
    59 basis functions,   217 primitive gaussians,    69 cartesian basis functions
    18 alpha electrons       18 beta electrons
       nuclear repulsion energy         0.0000000000 Hartrees.
 IExCor=32609 DFT=T Ex+Corr=LC-wPBE ExCW=0 ScaHFX=  1.000000
 ScaDFX=  1.000000  0.000000  1.000000  1.000000 ScalE2=  1.000000  1.000000
 IRadAn=      5 IRanWt=     -1 IRanGd=            0 ICorTp=0
  HFx wShort=  0.000000 wLong=  0.400000 cFull=  0.000000 cShort=  0.000000 cLong=  1.000000
  DFx wShort=  0.000000 wLong=  0.400000 cFull=  0.000000 cShort=  0.000000 cLong=  1.000000
 NAtoms=    5 NActive=    1 NUniq=    1 SFac= 1.00D+00 NAtFMM=   60 NAOKFM=F Big=F
 No density basis found on file   718.
 Leave Link  301 at Tue May 12 16:43:49 2020, MaxMem= 1073741824 cpu:       0.2
 (Enter /home/matheus/.gaussian/g09/l302.exe)
 NPDir=0 NMtPBC=     1 NCelOv=     1 NCel=       1 NClECP=     1 NCelD=      1
         NCelK=      1 NCelE2=     1 NClLst=     1 CellRange=     0.0.
 One-electron integrals computed using PRISM.
 NBasis=    59 RedAO= T  NBF=    39    20
 NBsUse=    59 1.00D-06 NBFU=    39    20
 Precomputing XC quadrature grid using
 IXCGrd= 2 IRadAn=           5 IRanWt=          -1 IRanGd=           0 AccXCQ= 0.00D+00.
 NRdTot=      81 NPtTot=       30352 NUsed=       30981 NTot=       31013
 NSgBfM=    69    69    69    69    69 NAtAll=     1     1.
 Leave Link  302 at Tue May 12 16:43:49 2020, MaxMem= 1073741824 cpu:       0.7
 (Enter /home/matheus/.gaussian/g09/l303.exe)
 DipDrv:  MaxL=1.
 Leave Link  303 at Tue May 12 16:43:49 2020, MaxMem= 1073741824 cpu:       0.1
 (Enter /home/matheus/.gaussian/g09/l401.exe)
 Initial guess read from the read-write file.
 Guess basis will be translated and rotated to current coordinates.
 Initial guess orbital symmetries:
       Occupied  (A') (A') (A') (A") (A') (A') (A') (A") (A') (A")
                 (A') (A") (A') (A') (A') (A') (A") (A')
       Virtual   (A') (A') (A") (A') (A") (A") (A') (A') (A') (A')
                 (A") (A') (A') (A") (A') (A") (A') (A') (A") (A')
                 (A') (A") (A') (A') (A") (A') (A") (A') (A") (A')
                 (A") (A') (A') (A") (A') (A') (A") (A') (A") (A')
                 (A')
 The electronic state of the initial guess is 1-A'.
 Generating alternative initial guess.
 Harris functional with IExCor=32609 diagonalized for initial guess.
 ExpMin= 4.00D-02 ExpMax= 1.17D+07 ExpMxC= 1.33D+04 IAcc=3 IRadAn=         5 AccDes= 0.00D+00
 HarFok:  IExCor=32609 AccDes= 0.00D+00 IRadAn=         5 IDoV= 1
 ScaDFX=  1.000000  1.000000  1.000000  1.000000
 FoFCou: FMM=F IPFlag=           0 FMFlag=      100000 FMFlg1=           0
         NFxFlg=           0 DoJE=T BraDBF=F KetDBF=T FulRan=T
         Omega=  0.000000  0.000000  1.000000  0.000000  0.000000 ICntrl=     500 IOpCl=  0
         NMat0=    1 NMatS0=    1 NMatT0=    0 NMatD0=    1 NMtDS0=    0 NMtDT0=    0
         I1Cent=           4 NGrid=           0.
 Petite list used in FoFCou.
 DSYEVD returned Info=          79 IAlg= 4 N=    39 NDim=    59 NE2=    18198841 trying DSYEV.
 Harris En= -2753.24576836237    
 Leave Link  401 at Tue May 12 16:43:49 2020, MaxMem= 1073741824 cpu:       1.1
 (Enter /home/matheus/.gaussian/g09/l502.exe)
 Closed shell SCF:
 Requested convergence on RMS density matrix=1.00D-08 within 128 cycles.
 Requested convergence on MAX density matrix=1.00D-06.
 Requested convergence on             energy=1.00D-06.
 No special actions if energy rises.
 Using DIIS extrapolation, IDIIS=  1040.
 Integral symmetry usage will be decided dynamically.
        30923 words used for storage of precomputed grid.
 IEnd=       64425 IEndB=       64425 NGot=  1073741824 MDV=  1073698870
 LenX=  1073698870 LenY=  1073693668
 Fock matrices will be formed incrementally for  20 cycles.

 Cycle   1  Pass 1  IDiag  1:
 FoFJK:  IHMeth= 1 ICntrl=     0 DoSepK=T KAlg= 1 I1Cent= 0 FoldK=F
 FoFCou: FMM=F IPFlag=           0 FMFlag=      100000 FMFlg1=           0
         NFxFlg=           0 DoJE=T BraDBF=F KetDBF=F FulRan=T
         Omega=  0.000000  0.000000  1.000000  0.000000  0.000000 ICntrl=     500 IOpCl=  0
         NMat0=    1 NMatS0=    1 NMatT0=    0 NMatD0=    1 NMtDS0=    0 NMtDT0=    0
         I1Cent=           0 NGrid=           0.
 Petite list used in FoFCou.
 E= -2753.43563276534    
 DIIS: error= 1.01D-13 at cycle   1 NSaved=   1.
 NSaved= 1 IEnMin= 1 EnMin= -2753.43563276534     IErMin= 1 ErrMin= 1.01D-13
 ErrMax= 1.01D-13 EMaxC= 1.00D-01 BMatC= 4.00D-25 BMatP= 4.00D-25
 IDIUse=1 WtCom= 1.00D+00 WtEn= 0.00D+00
 Coeff-Com:  0.100D+01
 Coeff:      0.100D+01
 Gap=     0.599 Goal=   None    Shift=    0.000
 RMSDP=6.43D-15 MaxDP=1.32D-13              OVMax= 6.28D-14

 SCF Done:  E(RLC-wPBE) =  -2753.43563277     A.U. after    1 cycles
             Convg  =    0.6432D-14             -V/T =  2.0014
 KE= 2.749535160915D+03 PE=-6.578948648680D+03 EE= 1.075977855000D+03
 Leave Link  502 at Tue May 12 16:43:51 2020, MaxMem= 1073741824 cpu:      12.2
 (Enter /home/matheus/.gaussian/g09/l122.exe)
 Restoring MOs from calculation   1 to rwf.
 Counterpoise: corrected energy =   -2904.957215945735
 Counterpoise: BSSE energy =       0.000022557739
 Leave Link  122 at Tue May 12 16:43:51 2020, MaxMem= 1073741824 cpu:       0.0
 (Enter /home/matheus/.gaussian/g09/l108.exe)
 Scan completed.

 Summary of the potential surface scan:
   N      R1          SCF    
 ----  ---------  -----------
    1     3.0000  -2753.43563
    2     3.1000  -2753.43563
    3     3.2000  -2753.43563
    4     3.3000  -2753.43563
    5     3.4000  -2753.43563
    6     3.5000  -2753.43563
    7     3.6000  -2753.43563
    8     3.7000  -2753.43563
    9     3.8000  -2753.43563
   10     3.9000  -2753.43563
   11     4.0000  -2753.43563
   12     4.1000  -2753.43563
   13     4.2000  -2753.43563
   14     4.3000  -2753.43563
   15     4.4000  -2753.43563
   16     4.5000  -2753.43563
   17     4.6000  -2753.43563
   18     4.7000  -2753.43563
   19     4.8000  -2753.43563
   20     4.9000  -2753.43563
   21     5.0000  -2753.43563
 ----  ---------  -----------
  
 Leave Link  108 at Tue May 12 16:43:51 2020, MaxMem= 1073741824 cpu:       0.0
 (Enter /home/matheus/.gaussian/g09/l9999.exe)
 1\1\GINC-REDGIANT\Scan\RLC-wPBE\Aug-CC-pVTZ\H2Kr1O2\MATHEUS\12-May-202
 0\1\\#p lc-wpbe/aug-cc-PVTz int=ultrafine counterpoise=2 Scan\\TCC\\0,
 1\O,0,0.,0.,0.725\O,0,0.,0.,-0.725\H,0,0.,-0.9187205947,1.0235104166\H
 ,0,0.,0.9187205947,-1.0235104166\Kr,0,0.,R1,0.\\R1=3.,s,20,0.1\\Versio
 n=EM64L-G09RevC.01\State=1-A'\HF=-2753.4356328,-2753.4356328,-2753.435
 6328,-2753.4356328,-2753.4356328,-2753.4356328,-2753.4356328,-2753.435
 6328,-2753.4356328,-2753.4356328,-2753.4356328,-2753.4356328,-2753.435
 6328,-2753.4356328,-2753.4356328,-2753.4356328,-2753.4356328,-2753.435
 6328,-2753.4356328,-2753.4356328,-2753.4356328\RMSD=1.444e-09,5.304e-1
 1,1.095e-11,2.520e-12,6.471e-13,1.648e-13,4.670e-14,2.044e-14,1.301e-1
 4,1.186e-14,7.359e-15,7.239e-15,4.183e-15,6.590e-15,6.109e-15,9.888e-1
 5,8.468e-15,1.245e-14,9.311e-15,7.857e-15,6.432e-15\PG=CS [SG(H2Kr1O2)
 ]\\@


 GOD DOES NOT PLAY WITH DICE.
               -- A. EINSTEIN
 Job cpu time:  0 days  2 hours 52 minutes 15.9 seconds.
 File lengths (MBytes):  RWF=     33 Int=      0 D2E=      0 Chk=      8 Scr=      1
 Normal termination of Gaussian 09 at Tue May 12 16:43:51 2020.
