 Entering Gaussian System, Link 0=g09
 Input=/home/matheus/.tcc/Inputs/Inputs-lc-wpbe-default/H2O2-Kr_20.com
 Output=/home/matheus/.tcc/Logs/Logs-lc-wpbe-default/H2O2-Kr_20.log
 Initial command:
 /home/matheus/.gaussian/g09/l1.exe /home/matheus/.gaussian/g09/scratch/Gau-5229.inp -scrdir=/home/matheus/.gaussian/g09/scratch/
 Entering Link 1 = /home/matheus/.gaussian/g09/l1.exe PID=      5233.
  
 Copyright (c) 1988,1990,1992,1993,1995,1998,2003,2009,2011,
            Gaussian, Inc.  All Rights Reserved.
  
 This is part of the Gaussian(R) 09 program.  It is based on
 the Gaussian(R) 03 system (copyright 2003, Gaussian, Inc.),
 the Gaussian(R) 98 system (copyright 1998, Gaussian, Inc.),
 the Gaussian(R) 94 system (copyright 1995, Gaussian, Inc.),
 the Gaussian 92(TM) system (copyright 1992, Gaussian, Inc.),
 the Gaussian 90(TM) system (copyright 1990, Gaussian, Inc.),
 the Gaussian 88(TM) system (copyright 1988, Gaussian, Inc.),
 the Gaussian 86(TM) system (copyright 1986, Carnegie Mellon
 University), and the Gaussian 82(TM) system (copyright 1983,
 Carnegie Mellon University). Gaussian is a federally registered
 trademark of Gaussian, Inc.
  
 This software contains proprietary and confidential information,
 including trade secrets, belonging to Gaussian, Inc.
  
 This software is provided under written license and may be
 used, copied, transmitted, or stored only in accord with that
 written license.
  
 The following legend is applicable only to US Government
 contracts under FAR:
  
                    RESTRICTED RIGHTS LEGEND
  
 Use, reproduction and disclosure by the US Government is
 subject to restrictions as set forth in subparagraphs (a)
 and (c) of the Commercial Computer Software - Restricted
 Rights clause in FAR 52.227-19.
  
 Gaussian, Inc.
 340 Quinnipiac St., Bldg. 40, Wallingford CT 06492
  
  
 ---------------------------------------------------------------
 Warning -- This program may not be used in any manner that
 competes with the business of Gaussian, Inc. or will provide
 assistance to any competitor of Gaussian, Inc.  The licensee
 of this program is prohibited from giving any competitor of
 Gaussian, Inc. access to this program.  By using this program,
 the user acknowledges that Gaussian, Inc. is engaged in the
 business of creating and licensing software in the field of
 computational chemistry and represents and warrants to the
 licensee that it is not a competitor of Gaussian, Inc. and that
 it will not use this program in any manner prohibited above.
 ---------------------------------------------------------------
  

 Cite this work as:
 Gaussian 09, Revision C.01,
 M. J. Frisch, G. W. Trucks, H. B. Schlegel, G. E. Scuseria, 
 M. A. Robb, J. R. Cheeseman, G. Scalmani, V. Barone, B. Mennucci, 
 G. A. Petersson, H. Nakatsuji, M. Caricato, X. Li, H. P. Hratchian, 
 A. F. Izmaylov, J. Bloino, G. Zheng, J. L. Sonnenberg, M. Hada, 
 M. Ehara, K. Toyota, R. Fukuda, J. Hasegawa, M. Ishida, T. Nakajima, 
 Y. Honda, O. Kitao, H. Nakai, T. Vreven, J. A. Montgomery, Jr., 
 J. E. Peralta, F. Ogliaro, M. Bearpark, J. J. Heyd, E. Brothers, 
 K. N. Kudin, V. N. Staroverov, T. Keith, R. Kobayashi, J. Normand, 
 K. Raghavachari, A. Rendell, J. C. Burant, S. S. Iyengar, J. Tomasi, 
 M. Cossi, N. Rega, J. M. Millam, M. Klene, J. E. Knox, J. B. Cross, 
 V. Bakken, C. Adamo, J. Jaramillo, R. Gomperts, R. E. Stratmann, 
 O. Yazyev, A. J. Austin, R. Cammi, C. Pomelli, J. W. Ochterski, 
 R. L. Martin, K. Morokuma, V. G. Zakrzewski, G. A. Voth, 
 P. Salvador, J. J. Dannenberg, S. Dapprich, A. D. Daniels, 
 O. Farkas, J. B. Foresman, J. V. Ortiz, J. Cioslowski, 
 and D. J. Fox, Gaussian, Inc., Wallingford CT, 2010.
 
 ******************************************
 Gaussian 09:  EM64L-G09RevC.01 23-Sep-2011
                12-May-2020 
 ******************************************
 %mem=8GB
 %nproc=8
 Will use up to    8 processors via shared memory.
 --------------------------------------------------------
 #p lc-wpbe/aug-cc-PVTz int=ultrafine counterpoise=2 Scan
 --------------------------------------------------------
 1/38=1,60=1,62=2/1,8;
 2/12=2,17=6,18=5,29=3,40=1/2;
 1/38=1,53=5172,62=2/22;
 3/5=16,6=1,7=10,11=2,16=1,25=1,30=1,74=-41,75=-5/1,2,3;
 4//1;
 5/5=2,38=5/2;
 6/7=2,8=2,9=2,10=2,18=1,28=1/1;
 1/53=4052,62=2,63=1/22;
 3/5=7,6=11,7=10,11=2,16=1,25=1,30=1,74=-41,75=-5,82=7/1,2,3;
 4//1;
 5/5=2,38=5/2;
 6/7=2,8=2,9=2,10=2,18=1,28=1/1;
 1/53=3042,62=2,63=2/22;
 3/5=7,6=11,7=10,11=2,16=1,25=1,30=1,74=-41,75=-5,82=7/1,2,3;
 4//1;
 5/5=2,38=5/2;
 6/7=2,8=2,9=2,10=2,18=1,28=1/1;
 1/53=2032,62=2,63=3/22;
 3/5=7,6=11,7=10,11=2,16=1,25=1,30=1,74=-41,75=-5,82=7/1,2,3;
 4//1;
 5/5=2,38=5/2;
 6/7=2,8=2,9=2,10=2,18=1,28=1/1;
 1/53=1022,62=2,63=4/22;
 3/5=7,6=11,7=10,11=2,16=1,25=1,30=1,74=-41,75=-5,82=7/1,2,3;
 4//1;
 5/5=2,38=5/2;
 6/7=2,8=2,9=2,10=2,18=1,28=1/1;
 1/53=5014,62=2,63=5/22;
 1/60=1,62=2/8(1);
 99/9=1/99;
 2/29=3/2;
 1/53=5173,62=2/22;
 3/5=7,6=11,7=10,11=2,16=1,25=1,30=1,74=-41,75=-5,82=7/1,2,3;
 4/5=5,16=3/1;
 5/5=2,38=5/2;
 1/53=4053,62=2,63=1/22;
 3/5=7,6=11,7=10,11=2,16=1,25=1,30=1,74=-41,75=-5,82=7/1,2,3;
 4/5=5,16=3/1;
 5/5=2,38=5/2;
 1/53=3043,62=2,63=2/22;
 3/5=7,6=11,7=10,11=2,16=1,25=1,30=1,74=-41,75=-5,82=7/1,2,3;
 4/5=5,16=3/1;
 5/5=2,38=5/2;
 1/53=2033,62=2,63=3/22;
 3/5=7,6=11,7=10,11=2,16=1,25=1,30=1,74=-41,75=-5,82=7/1,2,3;
 4/5=5,16=3/1;
 5/5=2,38=5/2;
 1/53=1024,62=2,63=4/22;
 3/5=7,6=11,7=10,11=2,16=1,25=1,30=1,74=-41,75=-5,82=7/1,2,3;
 4/5=5,16=3/1;
 5/5=2,38=5/2;
 1/53=5014,62=2,63=5/22;
 1/60=1,62=2/8(-22);
 99/9=1/99;
 Leave Link    1 at Tue May 12 17:08:39 2020, MaxMem= 1073741824 cpu:       0.2
 (Enter /home/matheus/.gaussian/g09/l101.exe)
 ---
 TCC
 ---
 Charge =  0 Multiplicity = 1 in supermolecule
 Charge =  0 Multiplicity = 1 in fragment  1.
 Charge =  0 Multiplicity = 1 in fragment  2.
 Symbolic Z-Matrix:
 O(Fragment=1)         0.        0.        0.725 
 O(Fragment=1)         0.        0.       -0.725 
 H(Fragment=1)        -0.31422  -0.86331   1.02351 
 H(Fragment=1)         0.        0.91872  -1.02351 
 Kr(Fragment=2)        0.       R1        0. 
       Variables:
  R1                    3.     Scan 20    0.1    
 
 NAtoms=      5 NQM=        0 NQMF=       0 NMMI=      5 NMMIF=      0
                NMic=       0 NMicF=      0.
                    Isotopes and Nuclear Properties:
 (Nuclear quadrupole moments (NQMom) in fm**2, nuclear magnetic moments (NMagM)
  in nuclear magnetons)

  Atom         1           2           3           4           5
 IAtWgt=          16          16           1           1          84
 AtmWgt=  15.9949146  15.9949146   1.0078250   1.0078250  83.9115064
 NucSpn=           0           0           1           1           0
 AtZEff=   0.0000000   0.0000000   0.0000000   0.0000000   0.0000000
 NQMom=    0.0000000   0.0000000   0.0000000   0.0000000   0.0000000
 NMagM=    0.0000000   0.0000000   2.7928460   2.7928460   0.0000000
 Leave Link  101 at Tue May 12 17:08:39 2020, MaxMem= 1073741824 cpu:       0.3
 (Enter /home/matheus/.gaussian/g09/l108.exe)
 Scan the potential surface.
 Variable   Value     No. Steps Step-Size
 -------- ----------- --------- ---------
     1       3.000000      20      0.1000
 A total of     21 points will be computed.
 Leave Link  108 at Tue May 12 17:08:39 2020, MaxMem= 1073741824 cpu:       0.0
 (Enter /home/matheus/.gaussian/g09/l202.exe)
 ---------------------------------------------------------------------------------------------------
                            Z-MATRIX (ANGSTROMS AND DEGREES)
   CD    Cent   Atom    N1       Length/X        N2       Alpha/Y        N3        Beta/Z          J
 ---------------------------------------------------------------------------------------------------
      1      1  O        0   0.000000          0.000000          0.725000
      2      2  O        0   0.000000          0.000000         -0.725000
      3      3  H        0  -0.314221         -0.863315          1.023510
      4      4  H        0   0.000000          0.918721         -1.023510
      5      5  Kr       0   0.000000          3.000000          0.000000
 ---------------------------------------------------------------------------------------------------
                         Z-Matrix orientation:                         
 ---------------------------------------------------------------------
 Center     Atomic      Atomic             Coordinates (Angstroms)
 Number     Number       Type             X           Y           Z
 ---------------------------------------------------------------------
      1          8           0        0.000000    0.000000    0.725000
      2          8           0        0.000000    0.000000   -0.725000
      3          1           0       -0.314221   -0.863315    1.023510
      4          1           0        0.000000    0.918721   -1.023510
      5         36           0        0.000000    3.000000    0.000000
 ---------------------------------------------------------------------
                    Distance matrix (angstroms):
                    1          2          3          4          5
     1  O    0.000000
     2  O    1.450000   0.000000
     3  H    0.966000   1.975180   0.000000
     4  H    1.975180   0.966000   2.732157   0.000000
     5  Kr   3.086361   3.086361   4.008929   2.319331   0.000000
 Stoichiometry    H2KrO2
 Framework group  C1[X(H2KrO2)]
 Deg. of freedom     9
 Full point group                 C1      NOp   1
 Largest Abelian subgroup         C1      NOp   1
 Largest concise Abelian subgroup C1      NOp   1
                         Standard orientation:                         
 ---------------------------------------------------------------------
 Center     Atomic      Atomic             Coordinates (Angstroms)
 Number     Number       Type             X           Y           Z
 ---------------------------------------------------------------------
      1          8           0       -2.013955   -0.686971   -0.042678
      2          8           0       -1.987181    0.762152    0.000071
      3          1           0       -2.885209   -0.978373    0.255914
      4          1           0       -1.063137    1.043301    0.015982
      5         36           0        0.998818   -0.018511    0.001916
 ---------------------------------------------------------------------
 Rotational constants (GHZ):     26.5935251      2.3048996      2.1226538
 Leave Link  202 at Tue May 12 17:08:39 2020, MaxMem= 1073741824 cpu:       0.0
 (Enter /home/matheus/.gaussian/g09/l122.exe)
 Leave Link  122 at Tue May 12 17:08:39 2020, MaxMem= 1073741824 cpu:       0.0
 (Enter /home/matheus/.gaussian/g09/l301.exe)
 Standard basis: Aug-CC-pVTZ (5D, 7F)
 Ernie: Thresh=  0.10000D-02 Tol=  0.10000D-05 Strict=F.
 Ernie:  38 primitive shells out of 205 were deleted.
 There are   197 symmetry adapted basis functions of A   symmetry.
 Integral buffers will be    131072 words long.
 Raffenetti 2 integral format.
 Two-electron integral symmetry is turned on.
   197 basis functions,   415 primitive gaussians,   229 cartesian basis functions
    27 alpha electrons       27 beta electrons
       nuclear repulsion energy       148.3266950462 Hartrees.
 IExCor=32609 DFT=T Ex+Corr=LC-wPBE ExCW=0 ScaHFX=  1.000000
 ScaDFX=  1.000000  0.000000  1.000000  1.000000 ScalE2=  1.000000  1.000000
 IRadAn=      5 IRanWt=     -1 IRanGd=            0 ICorTp=0
  HFx wShort=  0.000000 wLong=  0.400000 cFull=  0.000000 cShort=  0.000000 cLong=  1.000000
  DFx wShort=  0.000000 wLong=  0.400000 cFull=  0.000000 cShort=  0.000000 cLong=  1.000000
 NAtoms=    5 NActive=    5 NUniq=    5 SFac= 1.00D+00 NAtFMM=   60 NAOKFM=F Big=F
 Leave Link  301 at Tue May 12 17:08:39 2020, MaxMem= 1073741824 cpu:       0.2
 (Enter /home/matheus/.gaussian/g09/l302.exe)
 NPDir=0 NMtPBC=     1 NCelOv=     1 NCel=       1 NClECP=     1 NCelD=      1
         NCelK=      1 NCelE2=     1 NClLst=     1 CellRange=     0.0.
 One-electron integrals computed using PRISM.
 NBasis=   197 RedAO= T  NBF=   197
 NBsUse=   197 1.00D-06 NBFU=   197
 Precomputing XC quadrature grid using
 IXCGrd= 2 IRadAn=           5 IRanWt=          -1 IRanGd=           0 AccXCQ= 0.00D+00.
 NRdTot=     427 NPtTot=      123814 NUsed=      126881 NTot=      126913
 NSgBfM=   229   229   229   229   229 NAtAll=     5     5.
 Leave Link  302 at Tue May 12 17:08:40 2020, MaxMem= 1073741824 cpu:       1.0
 (Enter /home/matheus/.gaussian/g09/l303.exe)
 DipDrv:  MaxL=1.
 Leave Link  303 at Tue May 12 17:08:40 2020, MaxMem= 1073741824 cpu:       0.2
 (Enter /home/matheus/.gaussian/g09/l401.exe)
 Harris functional with IExCor=32609 diagonalized for initial guess.
 ExpMin= 2.53D-02 ExpMax= 1.17D+07 ExpMxC= 1.33D+04 IAcc=3 IRadAn=         5 AccDes= 0.00D+00
 HarFok:  IExCor=32609 AccDes= 0.00D+00 IRadAn=         5 IDoV= 1
 ScaDFX=  1.000000  1.000000  1.000000  1.000000
 FoFCou: FMM=F IPFlag=           0 FMFlag=      100000 FMFlg1=           0
         NFxFlg=           0 DoJE=T BraDBF=F KetDBF=T FulRan=T
         Omega=  0.000000  0.000000  1.000000  0.000000  0.000000 ICntrl=     500 IOpCl=  0
         NMat0=    1 NMatS0=    1 NMatT0=    0 NMatD0=    1 NMtDS0=    0 NMtDT0=    0
         I1Cent=           4 NGrid=           0.
 Petite list used in FoFCou.
 Harris En= -2904.73694089148    
 Initial guess orbital symmetries:
       Occupied  (A) (A) (A) (A) (A) (A) (A) (A) (A) (A) (A) (A)
                 (A) (A) (A) (A) (A) (A) (A) (A) (A) (A) (A) (A)
                 (A) (A) (A)
       Virtual   (A) (A) (A) (A) (A) (A) (A) (A) (A) (A) (A) (A)
                 (A) (A) (A) (A) (A) (A) (A) (A) (A) (A) (A) (A)
                 (A) (A) (A) (A) (A) (A) (A) (A) (A) (A) (A) (A)
                 (A) (A) (A) (A) (A) (A) (A) (A) (A) (A) (A) (A)
                 (A) (A) (A) (A) (A) (A) (A) (A) (A) (A) (A) (A)
                 (A) (A) (A) (A) (A) (A) (A) (A) (A) (A) (A) (A)
                 (A) (A) (A) (A) (A) (A) (A) (A) (A) (A) (A) (A)
                 (A) (A) (A) (A) (A) (A) (A) (A) (A) (A) (A) (A)
                 (A) (A) (A) (A) (A) (A) (A) (A) (A) (A) (A) (A)
                 (A) (A) (A) (A) (A) (A) (A) (A) (A) (A) (A) (A)
                 (A) (A) (A) (A) (A) (A) (A) (A) (A) (A) (A) (A)
                 (A) (A) (A) (A) (A) (A) (A) (A) (A) (A) (A) (A)
                 (A) (A) (A) (A) (A) (A) (A) (A) (A) (A) (A) (A)
                 (A) (A) (A) (A) (A) (A) (A) (A) (A) (A) (A) (A)
                 (A) (A)
 The electronic state of the initial guess is 1-A.
 Leave Link  401 at Tue May 12 17:08:40 2020, MaxMem= 1073741824 cpu:       3.8
 (Enter /home/matheus/.gaussian/g09/l502.exe)
 Closed shell SCF:
 Requested convergence on RMS density matrix=1.00D-08 within 128 cycles.
 Requested convergence on MAX density matrix=1.00D-06.
 Requested convergence on             energy=1.00D-06.
 No special actions if energy rises.
 Using DIIS extrapolation, IDIIS=  1040.
 Integral symmetry usage will be decided dynamically.
       126823 words used for storage of precomputed grid.
 IEnd=      305770 IEndB=      305770 NGot=  1073741824 MDV=  1073505365
 LenX=  1073505365 LenY=  1073452483
 Fock matrices will be formed incrementally for  20 cycles.

 Cycle   1  Pass 1  IDiag  1:
 FoFJK:  IHMeth= 1 ICntrl=     0 DoSepK=T KAlg= 1 I1Cent= 0 FoldK=F
 FoFCou: FMM=F IPFlag=           0 FMFlag=      100000 FMFlg1=           0
         NFxFlg=           0 DoJE=T BraDBF=F KetDBF=F FulRan=T
         Omega=  0.000000  0.000000  1.000000  0.000000  0.000000 ICntrl=     500 IOpCl=  0
         NMat0=    1 NMatS0=    1 NMatT0=    0 NMatD0=    1 NMtDS0=    0 NMtDT0=    0
         I1Cent=           0 NGrid=           0.
 Symmetry not used in FoFCou.
 E= -2904.88066527203    
 DIIS: error= 2.90D-02 at cycle   1 NSaved=   1.
 NSaved= 1 IEnMin= 1 EnMin= -2904.88066527203     IErMin= 1 ErrMin= 2.90D-02
 ErrMax= 2.90D-02 EMaxC= 1.00D-01 BMatC= 2.62D-01 BMatP= 2.62D-01
 IDIUse=3 WtCom= 7.10D-01 WtEn= 2.90D-01
 Coeff-Com:  0.100D+01
 Coeff-En:   0.100D+01
 Coeff:      0.100D+01
 Gap=     0.476 Goal=   None    Shift=    0.000
 GapD=    0.476 DampG=2.000 DampE=0.500 DampFc=1.0000 IDamp=-1.
 RMSDP=2.29D-03 MaxDP=1.47D-01              OVMax= 6.28D-02

 Cycle   2  Pass 1  IDiag  1:
 RMSU=  1.59D-03    CP:  1.02D+00
 FoFJK:  IHMeth= 1 ICntrl=     0 DoSepK=T KAlg= 1 I1Cent= 0 FoldK=F
 E= -2904.92493634874     Delta-E=       -0.044271076713 Rises=F Damp=F
 DIIS: error= 1.22D-02 at cycle   2 NSaved=   2.
 NSaved= 2 IEnMin= 2 EnMin= -2904.92493634874     IErMin= 2 ErrMin= 1.22D-02
 ErrMax= 1.22D-02 EMaxC= 1.00D-01 BMatC= 7.77D-02 BMatP= 2.62D-01
 IDIUse=3 WtCom= 8.78D-01 WtEn= 1.22D-01
 Coeff-Com:  0.346D+00 0.654D+00
 Coeff-En:   0.181D+00 0.819D+00
 Coeff:      0.326D+00 0.674D+00
 Gap=     0.432 Goal=   None    Shift=    0.000
 RMSDP=9.28D-04 MaxDP=5.10D-02 DE=-4.43D-02 OVMax= 3.01D-02

 Cycle   3  Pass 1  IDiag  1:
 RMSU=  3.22D-04    CP:  1.01D+00  6.52D-01
 FoFJK:  IHMeth= 1 ICntrl=     0 DoSepK=T KAlg= 1 I1Cent= 0 FoldK=F
 E= -2904.95213703874     Delta-E=       -0.027200689995 Rises=F Damp=F
 DIIS: error= 2.28D-03 at cycle   3 NSaved=   3.
 NSaved= 3 IEnMin= 3 EnMin= -2904.95213703874     IErMin= 3 ErrMin= 2.28D-03
 ErrMax= 2.28D-03 EMaxC= 1.00D-01 BMatC= 1.77D-03 BMatP= 7.77D-02
 IDIUse=3 WtCom= 9.77D-01 WtEn= 2.28D-02
 Coeff-Com:  0.604D-01 0.193D+00 0.747D+00
 Coeff-En:   0.000D+00 0.000D+00 0.100D+01
 Coeff:      0.590D-01 0.188D+00 0.753D+00
 Gap=     0.414 Goal=   None    Shift=    0.000
 RMSDP=1.13D-04 MaxDP=2.98D-03 DE=-2.72D-02 OVMax= 7.91D-03

 Cycle   4  Pass 1  IDiag  1:
 RMSU=  5.90D-05    CP:  1.01D+00  6.80D-01  9.09D-01
 FoFJK:  IHMeth= 1 ICntrl=     0 DoSepK=T KAlg= 1 I1Cent= 0 FoldK=F
 E= -2904.95305850537     Delta-E=       -0.000921466637 Rises=F Damp=F
 DIIS: error= 5.93D-04 at cycle   4 NSaved=   4.
 NSaved= 4 IEnMin= 4 EnMin= -2904.95305850537     IErMin= 4 ErrMin= 5.93D-04
 ErrMax= 5.93D-04 EMaxC= 1.00D-01 BMatC= 1.32D-04 BMatP= 1.77D-03
 IDIUse=3 WtCom= 9.94D-01 WtEn= 5.93D-03
 Coeff-Com: -0.159D-02 0.284D-01 0.285D+00 0.688D+00
 Coeff-En:   0.000D+00 0.000D+00 0.000D+00 0.100D+01
 Coeff:     -0.158D-02 0.282D-01 0.284D+00 0.690D+00
 Gap=     0.419 Goal=   None    Shift=    0.000
 RMSDP=3.36D-05 MaxDP=1.96D-03 DE=-9.21D-04 OVMax= 1.98D-03

 Cycle   5  Pass 1  IDiag  1:
 RMSU=  1.28D-05    CP:  1.01D+00  6.84D-01  9.57D-01  8.15D-01
 FoFJK:  IHMeth= 1 ICntrl=     0 DoSepK=T KAlg= 1 I1Cent= 0 FoldK=F
 E= -2904.95313263968     Delta-E=       -0.000074134308 Rises=F Damp=F
 DIIS: error= 8.08D-05 at cycle   5 NSaved=   5.
 NSaved= 5 IEnMin= 5 EnMin= -2904.95313263968     IErMin= 5 ErrMin= 8.08D-05
 ErrMax= 8.08D-05 EMaxC= 1.00D-01 BMatC= 2.51D-06 BMatP= 1.32D-04
 IDIUse=1 WtCom= 1.00D+00 WtEn= 0.00D+00
 Coeff-Com: -0.183D-02 0.965D-03 0.432D-01 0.162D+00 0.796D+00
 Coeff:     -0.183D-02 0.965D-03 0.432D-01 0.162D+00 0.796D+00
 Gap=     0.419 Goal=   None    Shift=    0.000
 RMSDP=6.57D-06 MaxDP=2.15D-04 DE=-7.41D-05 OVMax= 5.21D-04

 Cycle   6  Pass 1  IDiag  1:
 RMSU=  4.08D-06    CP:  1.01D+00  6.83D-01  9.58D-01  8.51D-01  1.03D+00
 FoFJK:  IHMeth= 1 ICntrl=     0 DoSepK=T KAlg= 1 I1Cent= 0 FoldK=F
 E= -2904.95313399859     Delta-E=       -0.000001358908 Rises=F Damp=F
 DIIS: error= 6.62D-05 at cycle   6 NSaved=   6.
 NSaved= 6 IEnMin= 6 EnMin= -2904.95313399859     IErMin= 6 ErrMin= 6.62D-05
 ErrMax= 6.62D-05 EMaxC= 1.00D-01 BMatC= 1.06D-06 BMatP= 2.51D-06
 IDIUse=1 WtCom= 1.00D+00 WtEn= 0.00D+00
 Coeff-Com: -0.646D-03-0.308D-02-0.145D-01-0.494D-02 0.405D+00 0.619D+00
 Coeff:     -0.646D-03-0.308D-02-0.145D-01-0.494D-02 0.405D+00 0.619D+00
 Gap=     0.419 Goal=   None    Shift=    0.000
 RMSDP=3.21D-06 MaxDP=1.24D-04 DE=-1.36D-06 OVMax= 2.47D-04

 Cycle   7  Pass 1  IDiag  1:
 RMSU=  1.74D-06    CP:  1.01D+00  6.83D-01  9.59D-01  8.62D-01  1.12D+00
                    CP:  8.69D-01
 FoFJK:  IHMeth= 1 ICntrl=     0 DoSepK=T KAlg= 1 I1Cent= 0 FoldK=F
 E= -2904.95313468897     Delta-E=       -0.000000690376 Rises=F Damp=F
 DIIS: error= 1.44D-05 at cycle   7 NSaved=   7.
 NSaved= 7 IEnMin= 7 EnMin= -2904.95313468897     IErMin= 7 ErrMin= 1.44D-05
 ErrMax= 1.44D-05 EMaxC= 1.00D-01 BMatC= 5.45D-08 BMatP= 1.06D-06
 IDIUse=1 WtCom= 1.00D+00 WtEn= 0.00D+00
 Coeff-Com: -0.561D-05-0.123D-02-0.108D-01-0.242D-01 0.892D-02 0.194D+00
 Coeff-Com:  0.833D+00
 Coeff:     -0.561D-05-0.123D-02-0.108D-01-0.242D-01 0.892D-02 0.194D+00
 Coeff:      0.833D+00
 Gap=     0.419 Goal=   None    Shift=    0.000
 RMSDP=1.09D-06 MaxDP=2.90D-05 DE=-6.90D-07 OVMax= 9.05D-05

 Cycle   8  Pass 1  IDiag  1:
 RMSU=  3.70D-07    CP:  1.01D+00  6.83D-01  9.59D-01  8.66D-01  1.15D+00
                    CP:  9.91D-01  1.02D+00
 FoFJK:  IHMeth= 1 ICntrl=     0 DoSepK=T KAlg= 1 I1Cent= 0 FoldK=F
 E= -2904.95313472601     Delta-E=       -0.000000037048 Rises=F Damp=F
 DIIS: error= 2.09D-06 at cycle   8 NSaved=   8.
 NSaved= 8 IEnMin= 8 EnMin= -2904.95313472601     IErMin= 8 ErrMin= 2.09D-06
 ErrMax= 2.09D-06 EMaxC= 1.00D-01 BMatC= 8.75D-10 BMatP= 5.45D-08
 IDIUse=1 WtCom= 1.00D+00 WtEn= 0.00D+00
 Coeff-Com:  0.344D-04 0.292D-03 0.197D-02 0.324D-02-0.162D-01-0.515D-01
 Coeff-Com: -0.117D+00 0.118D+01
 Coeff:      0.344D-04 0.292D-03 0.197D-02 0.324D-02-0.162D-01-0.515D-01
 Coeff:     -0.117D+00 0.118D+01
 Gap=     0.419 Goal=   None    Shift=    0.000
 RMSDP=3.07D-07 MaxDP=6.32D-06 DE=-3.70D-08 OVMax= 3.46D-05

 Cycle   9  Pass 1  IDiag  1:
 RMSU=  9.53D-08    CP:  1.01D+00  6.83D-01  9.59D-01  8.66D-01  1.16D+00
                    CP:  1.01D+00  1.06D+00  1.38D+00
 FoFJK:  IHMeth= 1 ICntrl=     0 DoSepK=T KAlg= 1 I1Cent= 0 FoldK=F
 E= -2904.95313472888     Delta-E=       -0.000000002866 Rises=F Damp=F
 DIIS: error= 5.74D-07 at cycle   9 NSaved=   9.
 NSaved= 9 IEnMin= 9 EnMin= -2904.95313472888     IErMin= 9 ErrMin= 5.74D-07
 ErrMax= 5.74D-07 EMaxC= 1.00D-01 BMatC= 4.31D-11 BMatP= 8.75D-10
 IDIUse=1 WtCom= 1.00D+00 WtEn= 0.00D+00
 Coeff-Com: -0.336D-05 0.345D-04 0.368D-03 0.105D-02 0.739D-03-0.744D-02
 Coeff-Com: -0.363D-01-0.454D-01 0.109D+01
 Coeff:     -0.336D-05 0.345D-04 0.368D-03 0.105D-02 0.739D-03-0.744D-02
 Coeff:     -0.363D-01-0.454D-01 0.109D+01
 Gap=     0.419 Goal=   None    Shift=    0.000
 RMSDP=7.25D-08 MaxDP=3.04D-06 DE=-2.87D-09 OVMax= 7.70D-06

 Cycle  10  Pass 1  IDiag  1:
 RMSU=  2.10D-08    CP:  1.01D+00  6.83D-01  9.59D-01  8.67D-01  1.16D+00
                    CP:  1.01D+00  1.06D+00  1.47D+00  1.28D+00
 FoFJK:  IHMeth= 1 ICntrl=     0 DoSepK=T KAlg= 1 I1Cent= 0 FoldK=F
 E= -2904.95313472902     Delta-E=       -0.000000000141 Rises=F Damp=F
 DIIS: error= 1.13D-07 at cycle  10 NSaved=  10.
 NSaved=10 IEnMin=10 EnMin= -2904.95313472902     IErMin=10 ErrMin= 1.13D-07
 ErrMax= 1.13D-07 EMaxC= 1.00D-01 BMatC= 2.74D-12 BMatP= 4.31D-11
 IDIUse=1 WtCom= 1.00D+00 WtEn= 0.00D+00
 Coeff-Com: -0.131D-05-0.134D-04-0.102D-03-0.189D-03 0.918D-03 0.265D-02
 Coeff-Com:  0.599D-02-0.585D-01-0.364D-01 0.109D+01
 Coeff:     -0.131D-05-0.134D-04-0.102D-03-0.189D-03 0.918D-03 0.265D-02
 Coeff:      0.599D-02-0.585D-01-0.364D-01 0.109D+01
 Gap=     0.419 Goal=   None    Shift=    0.000
 RMSDP=2.23D-08 MaxDP=1.27D-06 DE=-1.41D-10 OVMax= 1.79D-06

 Cycle  11  Pass 1  IDiag  1:
 RMSU=  5.76D-09    CP:  1.01D+00  6.83D-01  9.59D-01  8.67D-01  1.16D+00
                    CP:  1.01D+00  1.06D+00  1.49D+00  1.37D+00  1.33D+00
 FoFJK:  IHMeth= 1 ICntrl=     0 DoSepK=T KAlg= 1 I1Cent= 0 FoldK=F
 E= -2904.95313472902     Delta-E=        0.000000000004 Rises=F Damp=F
 DIIS: error= 3.64D-08 at cycle  11 NSaved=  11.
 NSaved=11 IEnMin=10 EnMin= -2904.95313472902     IErMin=11 ErrMin= 3.64D-08
 ErrMax= 3.64D-08 EMaxC= 1.00D-01 BMatC= 3.03D-13 BMatP= 2.74D-12
 IDIUse=1 WtCom= 1.00D+00 WtEn= 0.00D+00
 Coeff-Com:  0.139D-06-0.314D-05-0.303D-04-0.851D-04 0.259D-04 0.675D-03
 Coeff-Com:  0.280D-02-0.137D-02-0.702D-01 0.616D-01 0.101D+01
 Coeff:      0.139D-06-0.314D-05-0.303D-04-0.851D-04 0.259D-04 0.675D-03
 Coeff:      0.280D-02-0.137D-02-0.702D-01 0.616D-01 0.101D+01
 Gap=     0.419 Goal=   None    Shift=    0.000
 RMSDP=6.19D-09 MaxDP=1.81D-07 DE= 3.64D-12 OVMax= 8.13D-07

 SCF Done:  E(RLC-wPBE) =  -2904.95313473     A.U. after   11 cycles
             Convg  =    0.6187D-08             -V/T =  2.0017
 KE= 2.900035102986D+03 PE=-7.233588136534D+03 EE= 1.280273203773D+03
 Leave Link  502 at Tue May 12 17:09:14 2020, MaxMem= 1073741824 cpu:     268.8
 (Enter /home/matheus/.gaussian/g09/l601.exe)
 Copying SCF densities to generalized density rwf, IOpCl= 0 IROHF=0.

 **********************************************************************

            Population analysis using the SCF density.

 **********************************************************************

 Orbital symmetries:
       Occupied  (A) (A) (A) (A) (A) (A) (A) (A) (A) (A) (A) (A)
                 (A) (A) (A) (A) (A) (A) (A) (A) (A) (A) (A) (A)
                 (A) (A) (A)
       Virtual   (A) (A) (A) (A) (A) (A) (A) (A) (A) (A) (A) (A)
                 (A) (A) (A) (A) (A) (A) (A) (A) (A) (A) (A) (A)
                 (A) (A) (A) (A) (A) (A) (A) (A) (A) (A) (A) (A)
                 (A) (A) (A) (A) (A) (A) (A) (A) (A) (A) (A) (A)
                 (A) (A) (A) (A) (A) (A) (A) (A) (A) (A) (A) (A)
                 (A) (A) (A) (A) (A) (A) (A) (A) (A) (A) (A) (A)
                 (A) (A) (A) (A) (A) (A) (A) (A) (A) (A) (A) (A)
                 (A) (A) (A) (A) (A) (A) (A) (A) (A) (A) (A) (A)
                 (A) (A) (A) (A) (A) (A) (A) (A) (A) (A) (A) (A)
                 (A) (A) (A) (A) (A) (A) (A) (A) (A) (A) (A) (A)
                 (A) (A) (A) (A) (A) (A) (A) (A) (A) (A) (A) (A)
                 (A) (A) (A) (A) (A) (A) (A) (A) (A) (A) (A) (A)
                 (A) (A) (A) (A) (A) (A) (A) (A) (A) (A) (A) (A)
                 (A) (A) (A) (A) (A) (A) (A) (A) (A) (A) (A) (A)
                 (A) (A)
 The electronic state is 1-A.
 Alpha  occ. eigenvalues -- -511.11523 -66.66214 -60.32440 -60.32420 -60.32412
 Alpha  occ. eigenvalues --  -19.03259 -19.02867  -9.59495  -7.33965  -7.33906
 Alpha  occ. eigenvalues --   -7.33883  -3.29500  -3.29488  -3.29472  -3.29428
 Alpha  occ. eigenvalues --   -3.29427  -1.25036  -1.04619  -1.03601  -0.67026
 Alpha  occ. eigenvalues --   -0.63418  -0.53933  -0.51667  -0.50981  -0.50453
 Alpha  occ. eigenvalues --   -0.46943  -0.38620
 Alpha virt. eigenvalues --    0.03286   0.04091   0.08132   0.10126   0.10434
 Alpha virt. eigenvalues --    0.11230   0.13422   0.14721   0.16730   0.17339
 Alpha virt. eigenvalues --    0.19147   0.19222   0.20579   0.23531   0.24048
 Alpha virt. eigenvalues --    0.25138   0.27146   0.29231   0.31030   0.34374
 Alpha virt. eigenvalues --    0.34381   0.34616   0.36960   0.39505   0.40585
 Alpha virt. eigenvalues --    0.41010   0.42923   0.48717   0.53092   0.55618
 Alpha virt. eigenvalues --    0.57667   0.59929   0.64741   0.66025   0.69787
 Alpha virt. eigenvalues --    0.71671   0.72645   0.73284   0.74673   0.76336
 Alpha virt. eigenvalues --    0.76919   0.77863   0.79396   0.79952   0.82138
 Alpha virt. eigenvalues --    0.84567   0.85659   0.88247   0.89712   0.91656
 Alpha virt. eigenvalues --    0.92958   0.94729   0.96292   0.98579   1.00079
 Alpha virt. eigenvalues --    1.03496   1.04371   1.05372   1.07327   1.09660
 Alpha virt. eigenvalues --    1.12880   1.13834   1.17022   1.18790   1.20252
 Alpha virt. eigenvalues --    1.27894   1.31902   1.35708   1.40493   1.41380
 Alpha virt. eigenvalues --    1.47199   1.52448   1.52723   1.56412   1.60174
 Alpha virt. eigenvalues --    1.63070   1.77498   1.80397   1.85496   1.93971
 Alpha virt. eigenvalues --    1.99131   2.00231   2.03480   2.13426   2.14145
 Alpha virt. eigenvalues --    2.15274   2.18326   2.19493   2.19759   2.25069
 Alpha virt. eigenvalues --    2.27576   2.29514   2.30804   2.32366   2.33928
 Alpha virt. eigenvalues --    2.37729   2.39081   2.44825   2.47780   2.49086
 Alpha virt. eigenvalues --    2.49221   2.51081   2.53896   2.54733   2.57223
 Alpha virt. eigenvalues --    2.59603   2.62142   2.66216   2.67516   2.69949
 Alpha virt. eigenvalues --    2.72236   2.74248   2.77120   2.83883   2.89034
 Alpha virt. eigenvalues --    2.96032   3.06559   3.09205   3.15360   3.53945
 Alpha virt. eigenvalues --    3.72228   3.82680   3.93305   4.02534   4.03899
 Alpha virt. eigenvalues --    4.11670   4.15859   4.18077   4.22568   4.25351
 Alpha virt. eigenvalues --    4.40891   4.44001   4.52296   4.53868   4.71673
 Alpha virt. eigenvalues --    4.91317   4.99648   5.03167   5.06036   5.09564
 Alpha virt. eigenvalues --    5.35169   5.41614   5.81715   5.98101   6.06060
 Alpha virt. eigenvalues --    6.11412   6.30111   6.33438   6.40624   6.47154
 Alpha virt. eigenvalues --    6.67743   6.68401   6.72631   6.78982   6.84341
 Alpha virt. eigenvalues --    6.85797   6.89453   6.91048   6.92913   6.96515
 Alpha virt. eigenvalues --    7.00610   7.20103   7.22655   7.36305   7.60863
 Alpha virt. eigenvalues --    7.80890   8.06319   8.10927  14.01226  14.49768
          Condensed to atoms (all electrons):
              1          2          3          4          5
     1  O    8.223107  -0.220832   0.196209   0.003233  -0.030218
     2  O   -0.220832   8.249598   0.012610   0.212519  -0.008992
     3  H    0.196209   0.012610   0.600423   0.002663   0.003028
     4  H    0.003233   0.212519   0.002663   0.570606  -0.013793
     5  Kr  -0.030218  -0.008992   0.003028  -0.013793  36.043409
 Mulliken atomic charges:
              1
     1  O   -0.171499
     2  O   -0.244904
     3  H    0.185067
     4  H    0.224771
     5  Kr   0.006566
 Sum of Mulliken atomic charges =   0.00000
 Mulliken charges with hydrogens summed into heavy atoms:
              1
     1  O    0.013567
     2  O   -0.020133
     5  Kr   0.006566
 Sum of Mulliken charges with hydrogens summed into heavy atoms =   0.00000
          Condensed to fragments (all electrons):
     1      -0.006566
     2       0.006566
 Electronic spatial extent (au):  <R**2>=            492.0908
 Charge=              0.0000 electrons
 Dipole moment (field-independent basis, Debye):
    X=              0.2707    Y=             -0.3031    Z=              0.5422  Tot=              0.6776
 Quadrupole moment (field-independent basis, Debye-Ang):
   XX=            -26.7661   YY=            -28.3593   ZZ=            -30.5145
   XY=              3.8400   XZ=             -1.7157   YZ=             -0.5726
 Traceless Quadrupole moment (field-independent basis, Debye-Ang):
   XX=              1.7805   YY=              0.1874   ZZ=             -1.9679
   XY=              3.8400   XZ=             -1.7157   YZ=             -0.5726
 Octapole moment (field-independent basis, Debye-Ang**2):
  XXX=              2.1930  YYY=             -0.6849  ZZZ=              0.2247  XYY=              4.4799
  XXY=            -16.1074  XXZ=              5.1466  XZZ=              8.3704  YZZ=             -0.4747
  YYZ=              0.6771  XYZ=              1.7783
 Hexadecapole moment (field-independent basis, Debye-Ang**3):
 XXXX=           -350.1730 YYYY=            -64.2524 ZZZZ=            -29.8590 XXXY=             50.3053
 XXXZ=            -15.6301 YYYX=              5.6483 YYYZ=             -0.7104 ZZZX=             -0.7493
 ZZZY=             -0.3326 XXYY=            -75.6095 XXZZ=            -79.1815 YYZZ=            -17.4984
 XXYZ=             -5.3639 YYXZ=             -1.9892 ZZXY=              0.8284
 N-N= 1.483266950462D+02 E-N=-7.233588137805D+03  KE= 2.900035102986D+03
 No NMR shielding tensors so no spin-rotation constants.
 Leave Link  601 at Tue May 12 17:09:14 2020, MaxMem= 1073741824 cpu:       0.7
 (Enter /home/matheus/.gaussian/g09/l122.exe)
 Counterpoise: doing DCBS calculation for fragment   1 NewBq=T
 Leave Link  122 at Tue May 12 17:09:14 2020, MaxMem= 1073741824 cpu:       0.0
 (Enter /home/matheus/.gaussian/g09/l301.exe)
 Basis read from rwf:  (5D, 7F)
 No pseudopotential information found on rwf file.
 There are   197 symmetry adapted basis functions of A   symmetry.
 Integral buffers will be    131072 words long.
 Raffenetti 2 integral format.
 Two-electron integral symmetry is turned on.
   197 basis functions,   415 primitive gaussians,   229 cartesian basis functions
     9 alpha electrons        9 beta electrons
       nuclear repulsion energy        36.6019262901 Hartrees.
 IExCor=32609 DFT=T Ex+Corr=LC-wPBE ExCW=0 ScaHFX=  1.000000
 ScaDFX=  1.000000  0.000000  1.000000  1.000000 ScalE2=  1.000000  1.000000
 IRadAn=      5 IRanWt=     -1 IRanGd=            0 ICorTp=0
  HFx wShort=  0.000000 wLong=  0.400000 cFull=  0.000000 cShort=  0.000000 cLong=  1.000000
  DFx wShort=  0.000000 wLong=  0.400000 cFull=  0.000000 cShort=  0.000000 cLong=  1.000000
 NAtoms=    5 NActive=    5 NUniq=    5 SFac= 1.00D+00 NAtFMM=   60 NAOKFM=F Big=F
 No density basis found on file   718.
 Leave Link  301 at Tue May 12 17:09:14 2020, MaxMem= 1073741824 cpu:       0.2
 (Enter /home/matheus/.gaussian/g09/l302.exe)
 NPDir=0 NMtPBC=     1 NCelOv=     1 NCel=       1 NClECP=     1 NCelD=      1
         NCelK=      1 NCelE2=     1 NClLst=     1 CellRange=     0.0.
 One-electron integrals computed using PRISM.
 NBasis=   197 RedAO= T  NBF=   197
 NBsUse=   197 1.00D-06 NBFU=   197
 Precomputing XC quadrature grid using
 IXCGrd= 2 IRadAn=           5 IRanWt=          -1 IRanGd=           0 AccXCQ= 0.00D+00.
 NRdTot=     427 NPtTot=      123814 NUsed=      126881 NTot=      126913
 NSgBfM=   229   229   229   229   229 NAtAll=     5     5.
 Leave Link  302 at Tue May 12 17:09:14 2020, MaxMem= 1073741824 cpu:       0.9
 (Enter /home/matheus/.gaussian/g09/l303.exe)
 DipDrv:  MaxL=1.
 Leave Link  303 at Tue May 12 17:09:14 2020, MaxMem= 1073741824 cpu:       0.2
 (Enter /home/matheus/.gaussian/g09/l401.exe)
 Harris functional with IExCor=32609 diagonalized for initial guess.
 ExpMin= 2.53D-02 ExpMax= 1.17D+07 ExpMxC= 1.33D+04 IAcc=3 IRadAn=         5 AccDes= 0.00D+00
 HarFok:  IExCor=32609 AccDes= 0.00D+00 IRadAn=         5 IDoV= 1
 ScaDFX=  1.000000  1.000000  1.000000  1.000000
 FoFCou: FMM=F IPFlag=           0 FMFlag=      100000 FMFlg1=           0
         NFxFlg=           0 DoJE=T BraDBF=F KetDBF=T FulRan=T
         Omega=  0.000000  0.000000  1.000000  0.000000  0.000000 ICntrl=     500 IOpCl=  0
         NMat0=    1 NMatS0=    1 NMatT0=    0 NMatD0=    1 NMtDS0=    0 NMtDT0=    0
         I1Cent=           4 NGrid=           0.
 Petite list used in FoFCou.
 Harris En= -151.499937676496    
 Initial guess orbital symmetries:
       Occupied  (A) (A) (A) (A) (A) (A) (A) (A) (A)
       Virtual   (A) (A) (A) (A) (A) (A) (A) (A) (A) (A) (A) (A)
                 (A) (A) (A) (A) (A) (A) (A) (A) (A) (A) (A) (A)
                 (A) (A) (A) (A) (A) (A) (A) (A) (A) (A) (A) (A)
                 (A) (A) (A) (A) (A) (A) (A) (A) (A) (A) (A) (A)
                 (A) (A) (A) (A) (A) (A) (A) (A) (A) (A) (A) (A)
                 (A) (A) (A) (A) (A) (A) (A) (A) (A) (A) (A) (A)
                 (A) (A) (A) (A) (A) (A) (A) (A) (A) (A) (A) (A)
                 (A) (A) (A) (A) (A) (A) (A) (A) (A) (A) (A) (A)
                 (A) (A) (A) (A) (A) (A) (A) (A) (A) (A) (A) (A)
                 (A) (A) (A) (A) (A) (A) (A) (A) (A) (A) (A) (A)
                 (A) (A) (A) (A) (A) (A) (A) (A) (A) (A) (A) (A)
                 (A) (A) (A) (A) (A) (A) (A) (A) (A) (A) (A) (A)
                 (A) (A) (A) (A) (A) (A) (A) (A) (A) (A) (A) (A)
                 (A) (A) (A) (A) (A) (A) (A) (A) (A) (A) (A) (A)
                 (A) (A) (A) (A) (A) (A) (A) (A) (A) (A) (A) (A)
                 (A) (A) (A) (A) (A) (A) (A) (A)
 The electronic state of the initial guess is 1-A.
 Leave Link  401 at Tue May 12 17:09:15 2020, MaxMem= 1073741824 cpu:       4.0
 (Enter /home/matheus/.gaussian/g09/l502.exe)
 Closed shell SCF:
 Requested convergence on RMS density matrix=1.00D-08 within 128 cycles.
 Requested convergence on MAX density matrix=1.00D-06.
 Requested convergence on             energy=1.00D-06.
 No special actions if energy rises.
 Using DIIS extrapolation, IDIIS=  1040.
 Integral symmetry usage will be decided dynamically.
       126823 words used for storage of precomputed grid.
 IEnd=      305770 IEndB=      305770 NGot=  1073741824 MDV=  1073505365
 LenX=  1073505365 LenY=  1073452483
 Fock matrices will be formed incrementally for  20 cycles.

 Cycle   1  Pass 1  IDiag  1:
 FoFJK:  IHMeth= 1 ICntrl=     0 DoSepK=T KAlg= 1 I1Cent= 0 FoldK=F
 FoFCou: FMM=F IPFlag=           0 FMFlag=      100000 FMFlg1=           0
         NFxFlg=           0 DoJE=T BraDBF=F KetDBF=F FulRan=T
         Omega=  0.000000  0.000000  1.000000  0.000000  0.000000 ICntrl=     500 IOpCl=  0
         NMat0=    1 NMatS0=    1 NMatT0=    0 NMatD0=    1 NMtDS0=    0 NMtDT0=    0
         I1Cent=           0 NGrid=           0.
 Symmetry not used in FoFCou.
 E= -151.496569835801    
 DIIS: error= 1.25D-02 at cycle   1 NSaved=   1.
 NSaved= 1 IEnMin= 1 EnMin= -151.496569835801     IErMin= 1 ErrMin= 1.25D-02
 ErrMax= 1.25D-02 EMaxC= 1.00D-01 BMatC= 3.83D-02 BMatP= 3.83D-02
 IDIUse=3 WtCom= 8.75D-01 WtEn= 1.25D-01
 Coeff-Com:  0.100D+01
 Coeff-En:   0.100D+01
 Coeff:      0.100D+01
 Gap=     0.477 Goal=   None    Shift=    0.000
 GapD=    0.477 DampG=2.000 DampE=0.500 DampFc=1.0000 IDamp=-1.
 RMSDP=7.98D-04 MaxDP=2.39D-02              OVMax= 5.41D-02

 Cycle   2  Pass 1  IDiag  1:
 RMSU=  5.58D-04    CP:  9.88D-01
 FoFJK:  IHMeth= 1 ICntrl=     0 DoSepK=T KAlg= 1 I1Cent= 0 FoldK=F
 E= -151.510150281315     Delta-E=       -0.013580445514 Rises=F Damp=F
 DIIS: error= 8.46D-03 at cycle   2 NSaved=   2.
 NSaved= 2 IEnMin= 2 EnMin= -151.510150281315     IErMin= 2 ErrMin= 8.46D-03
 ErrMax= 8.46D-03 EMaxC= 1.00D-01 BMatC= 2.06D-02 BMatP= 3.83D-02
 IDIUse=3 WtCom= 9.15D-01 WtEn= 8.46D-02
 Coeff-Com:  0.415D+00 0.585D+00
 Coeff-En:   0.243D+00 0.757D+00
 Coeff:      0.400D+00 0.600D+00
 Gap=     0.421 Goal=   None    Shift=    0.000
 RMSDP=4.24D-04 MaxDP=2.23D-02 DE=-1.36D-02 OVMax= 2.48D-02

 Cycle   3  Pass 1  IDiag  1:
 RMSU=  2.33D-04    CP:  9.85D-01  6.66D-01
 FoFJK:  IHMeth= 1 ICntrl=     0 DoSepK=T KAlg= 1 I1Cent= 0 FoldK=F
 E= -151.521883997345     Delta-E=       -0.011733716030 Rises=F Damp=F
 DIIS: error= 1.38D-03 at cycle   3 NSaved=   3.
 NSaved= 3 IEnMin= 3 EnMin= -151.521883997345     IErMin= 3 ErrMin= 1.38D-03
 ErrMax= 1.38D-03 EMaxC= 1.00D-01 BMatC= 3.73D-04 BMatP= 2.06D-02
 IDIUse=3 WtCom= 9.86D-01 WtEn= 1.38D-02
 Coeff-Com:  0.618D-01 0.148D+00 0.790D+00
 Coeff-En:   0.000D+00 0.000D+00 0.100D+01
 Coeff:      0.610D-01 0.146D+00 0.793D+00
 Gap=     0.415 Goal=   None    Shift=    0.000
 RMSDP=5.70D-05 MaxDP=2.40D-03 DE=-1.17D-02 OVMax= 3.86D-03

 Cycle   4  Pass 1  IDiag  1:
 RMSU=  2.96D-05    CP:  9.83D-01  7.09D-01  1.02D+00
 FoFJK:  IHMeth= 1 ICntrl=     0 DoSepK=T KAlg= 1 I1Cent= 0 FoldK=F
 E= -151.522113420253     Delta-E=       -0.000229422909 Rises=F Damp=F
 DIIS: error= 2.59D-04 at cycle   4 NSaved=   4.
 NSaved= 4 IEnMin= 4 EnMin= -151.522113420253     IErMin= 4 ErrMin= 2.59D-04
 ErrMax= 2.59D-04 EMaxC= 1.00D-01 BMatC= 1.36D-05 BMatP= 3.73D-04
 IDIUse=3 WtCom= 9.97D-01 WtEn= 2.59D-03
 Coeff-Com: -0.407D-02-0.809D-02 0.123D+00 0.889D+00
 Coeff-En:   0.000D+00 0.000D+00 0.000D+00 0.100D+01
 Coeff:     -0.406D-02-0.807D-02 0.123D+00 0.889D+00
 Gap=     0.417 Goal=   None    Shift=    0.000
 RMSDP=1.33D-05 MaxDP=9.27D-04 DE=-2.29D-04 OVMax= 8.24D-04

 Cycle   5  Pass 1  IDiag  1:
 RMSU=  5.40D-06    CP:  9.83D-01  7.08D-01  1.05D+00  1.04D+00
 FoFJK:  IHMeth= 1 ICntrl=     0 DoSepK=T KAlg= 1 I1Cent= 0 FoldK=F
 E= -151.522122837497     Delta-E=       -0.000009417244 Rises=F Damp=F
 DIIS: error= 3.65D-05 at cycle   5 NSaved=   5.
 NSaved= 5 IEnMin= 5 EnMin= -151.522122837497     IErMin= 5 ErrMin= 3.65D-05
 ErrMax= 3.65D-05 EMaxC= 1.00D-01 BMatC= 1.24D-07 BMatP= 1.36D-05
 IDIUse=1 WtCom= 1.00D+00 WtEn= 0.00D+00
 Coeff-Com: -0.104D-02-0.306D-02-0.294D-01-0.738D-01 0.111D+01
 Coeff:     -0.104D-02-0.306D-02-0.294D-01-0.738D-01 0.111D+01
 Gap=     0.417 Goal=   None    Shift=    0.000
 RMSDP=3.45D-06 MaxDP=1.13D-04 DE=-9.42D-06 OVMax= 2.24D-04

 Cycle   6  Pass 1  IDiag  1:
 RMSU=  1.20D-06    CP:  9.83D-01  7.09D-01  1.05D+00  1.07D+00  1.32D+00
 FoFJK:  IHMeth= 1 ICntrl=     0 DoSepK=T KAlg= 1 I1Cent= 0 FoldK=F
 E= -151.522123120052     Delta-E=       -0.000000282555 Rises=F Damp=F
 DIIS: error= 8.19D-06 at cycle   6 NSaved=   6.
 NSaved= 6 IEnMin= 6 EnMin= -151.522123120052     IErMin= 6 ErrMin= 8.19D-06
 ErrMax= 8.19D-06 EMaxC= 1.00D-01 BMatC= 5.00D-09 BMatP= 1.24D-07
 IDIUse=1 WtCom= 1.00D+00 WtEn= 0.00D+00
 Coeff-Com:  0.141D-03 0.384D-03-0.158D-02-0.180D-01-0.378D-01 0.106D+01
 Coeff:      0.141D-03 0.384D-03-0.158D-02-0.180D-01-0.378D-01 0.106D+01
 Gap=     0.417 Goal=   None    Shift=    0.000
 RMSDP=6.93D-07 MaxDP=1.86D-05 DE=-2.83D-07 OVMax= 5.11D-05

 Cycle   7  Pass 1  IDiag  1:
 RMSU=  2.30D-07    CP:  9.83D-01  7.09D-01  1.05D+00  1.08D+00  1.37D+00
                    CP:  1.20D+00
 FoFJK:  IHMeth= 1 ICntrl=     0 DoSepK=T KAlg= 1 I1Cent= 0 FoldK=F
 E= -151.522123132828     Delta-E=       -0.000000012776 Rises=F Damp=F
 DIIS: error= 1.48D-06 at cycle   7 NSaved=   7.
 NSaved= 7 IEnMin= 7 EnMin= -151.522123132828     IErMin= 7 ErrMin= 1.48D-06
 ErrMax= 1.48D-06 EMaxC= 1.00D-01 BMatC= 5.24D-10 BMatP= 5.00D-09
 IDIUse=1 WtCom= 1.00D+00 WtEn= 0.00D+00
 Coeff-Com:  0.419D-04 0.121D-03 0.894D-03 0.174D-02-0.452D-01 0.322D-01
 Coeff-Com:  0.101D+01
 Coeff:      0.419D-04 0.121D-03 0.894D-03 0.174D-02-0.452D-01 0.322D-01
 Coeff:      0.101D+01
 Gap=     0.417 Goal=   None    Shift=    0.000
 RMSDP=1.85D-07 MaxDP=4.07D-06 DE=-1.28D-08 OVMax= 1.71D-05

 Cycle   8  Pass 1  IDiag  1:
 RMSU=  7.56D-08    CP:  9.83D-01  7.09D-01  1.05D+00  1.08D+00  1.38D+00
                    CP:  1.26D+00  1.27D+00
 FoFJK:  IHMeth= 1 ICntrl=     0 DoSepK=T KAlg= 1 I1Cent= 0 FoldK=F
 E= -151.522123133813     Delta-E=       -0.000000000985 Rises=F Damp=F
 DIIS: error= 1.35D-06 at cycle   8 NSaved=   8.
 NSaved= 8 IEnMin= 8 EnMin= -151.522123133813     IErMin= 8 ErrMin= 1.35D-06
 ErrMax= 1.35D-06 EMaxC= 1.00D-01 BMatC= 4.42D-10 BMatP= 5.24D-10
 IDIUse=1 WtCom= 1.00D+00 WtEn= 0.00D+00
 Coeff-Com:  0.642D-05 0.196D-04 0.609D-03 0.284D-02-0.195D-01-0.101D+00
 Coeff-Com:  0.569D+00 0.548D+00
 Coeff:      0.642D-05 0.196D-04 0.609D-03 0.284D-02-0.195D-01-0.101D+00
 Coeff:      0.569D+00 0.548D+00
 Gap=     0.417 Goal=   None    Shift=    0.000
 RMSDP=6.38D-08 MaxDP=2.57D-06 DE=-9.85D-10 OVMax= 5.66D-06

 Cycle   9  Pass 1  IDiag  1:
 RMSU=  3.17D-08    CP:  9.83D-01  7.09D-01  1.05D+00  1.08D+00  1.38D+00
                    CP:  1.27D+00  1.38D+00  8.32D-01
 FoFJK:  IHMeth= 1 ICntrl=     0 DoSepK=T KAlg= 1 I1Cent= 0 FoldK=F
 E= -151.522123134167     Delta-E=       -0.000000000354 Rises=F Damp=F
 DIIS: error= 2.29D-07 at cycle   9 NSaved=   9.
 NSaved= 9 IEnMin= 9 EnMin= -151.522123134167     IErMin= 9 ErrMin= 2.29D-07
 ErrMax= 2.29D-07 EMaxC= 1.00D-01 BMatC= 1.37D-11 BMatP= 4.42D-10
 IDIUse=1 WtCom= 1.00D+00 WtEn= 0.00D+00
 Coeff-Com: -0.823D-05-0.260D-04-0.213D-03-0.418D-03 0.995D-02-0.520D-02
 Coeff-Com: -0.210D+00-0.231D-01 0.123D+01
 Coeff:     -0.823D-05-0.260D-04-0.213D-03-0.418D-03 0.995D-02-0.520D-02
 Coeff:     -0.210D+00-0.231D-01 0.123D+01
 Gap=     0.417 Goal=   None    Shift=    0.000
 RMSDP=5.10D-08 MaxDP=1.98D-06 DE=-3.54D-10 OVMax= 5.76D-06

 Cycle  10  Pass 1  IDiag  1:
 RMSU=  1.10D-08    CP:  9.83D-01  7.09D-01  1.05D+00  1.08D+00  1.38D+00
                    CP:  1.27D+00  1.46D+00  1.07D+00  1.53D+00
 FoFJK:  IHMeth= 1 ICntrl=     0 DoSepK=T KAlg= 1 I1Cent= 0 FoldK=F
 E= -151.522123134216     Delta-E=       -0.000000000049 Rises=F Damp=F
 DIIS: error= 8.64D-08 at cycle  10 NSaved=  10.
 NSaved=10 IEnMin=10 EnMin= -151.522123134216     IErMin=10 ErrMin= 8.64D-08
 ErrMax= 8.64D-08 EMaxC= 1.00D-01 BMatC= 9.74D-13 BMatP= 1.37D-11
 IDIUse=1 WtCom= 1.00D+00 WtEn= 0.00D+00
 Coeff-Com:  0.178D-05 0.618D-05 0.147D-04-0.111D-03-0.123D-02 0.101D-01
 Coeff-Com:  0.650D-02-0.344D-01-0.296D+00 0.131D+01
 Coeff:      0.178D-05 0.618D-05 0.147D-04-0.111D-03-0.123D-02 0.101D-01
 Coeff:      0.650D-02-0.344D-01-0.296D+00 0.131D+01
 Gap=     0.417 Goal=   None    Shift=    0.000
 RMSDP=1.57D-08 MaxDP=3.29D-07 DE=-4.93D-11 OVMax= 2.34D-06

 Cycle  11  Pass 1  IDiag  1:
 RMSU=  3.10D-09    CP:  9.83D-01  7.09D-01  1.05D+00  1.08D+00  1.38D+00
                    CP:  1.27D+00  1.47D+00  1.12D+00  1.75D+00  1.57D+00
 FoFJK:  IHMeth= 1 ICntrl=     0 DoSepK=T KAlg= 1 I1Cent= 0 FoldK=F
 E= -151.522123134221     Delta-E=       -0.000000000004 Rises=F Damp=F
 DIIS: error= 2.89D-08 at cycle  11 NSaved=  11.
 NSaved=11 IEnMin=11 EnMin= -151.522123134221     IErMin=11 ErrMin= 2.89D-08
 ErrMax= 2.89D-08 EMaxC= 1.00D-01 BMatC= 9.04D-14 BMatP= 9.74D-13
 IDIUse=1 WtCom= 1.00D+00 WtEn= 0.00D+00
 Coeff-Com:  0.773D-06 0.251D-05 0.203D-04 0.459D-04-0.929D-03 0.216D-03
 Coeff-Com:  0.196D-01 0.763D-02-0.703D-01-0.234D+00 0.128D+01
 Coeff:      0.773D-06 0.251D-05 0.203D-04 0.459D-04-0.929D-03 0.216D-03
 Coeff:      0.196D-01 0.763D-02-0.703D-01-0.234D+00 0.128D+01
 Gap=     0.417 Goal=   None    Shift=    0.000
 RMSDP=5.72D-09 MaxDP=1.37D-07 DE=-4.15D-12 OVMax= 8.45D-07

 SCF Done:  E(RLC-wPBE) =  -151.522123134     A.U. after   11 cycles
             Convg  =    0.5720D-08             -V/T =  2.0068
 KE= 1.504976579514D+02 PE=-4.315010763714D+02 EE= 9.287936899567D+01
 Leave Link  502 at Tue May 12 17:09:47 2020, MaxMem= 1073741824 cpu:     260.1
 (Enter /home/matheus/.gaussian/g09/l601.exe)
 Copying SCF densities to generalized density rwf, IOpCl= 0 IROHF=0.

 **********************************************************************

            Population analysis using the SCF density.

 **********************************************************************

 Orbital symmetries:
       Occupied  (A) (A) (A) (A) (A) (A) (A) (A) (A)
       Virtual   (A) (A) (A) (A) (A) (A) (A) (A) (A) (A) (A) (A)
                 (A) (A) (A) (A) (A) (A) (A) (A) (A) (A) (A) (A)
                 (A) (A) (A) (A) (A) (A) (A) (A) (A) (A) (A) (A)
                 (A) (A) (A) (A) (A) (A) (A) (A) (A) (A) (A) (A)
                 (A) (A) (A) (A) (A) (A) (A) (A) (A) (A) (A) (A)
                 (A) (A) (A) (A) (A) (A) (A) (A) (A) (A) (A) (A)
                 (A) (A) (A) (A) (A) (A) (A) (A) (A) (A) (A) (A)
                 (A) (A) (A) (A) (A) (A) (A) (A) (A) (A) (A) (A)
                 (A) (A) (A) (A) (A) (A) (A) (A) (A) (A) (A) (A)
                 (A) (A) (A) (A) (A) (A) (A) (A) (A) (A) (A) (A)
                 (A) (A) (A) (A) (A) (A) (A) (A) (A) (A) (A) (A)
                 (A) (A) (A) (A) (A) (A) (A) (A) (A) (A) (A) (A)
                 (A) (A) (A) (A) (A) (A) (A) (A) (A) (A) (A) (A)
                 (A) (A) (A) (A) (A) (A) (A) (A) (A) (A) (A) (A)
                 (A) (A) (A) (A) (A) (A) (A) (A) (A) (A) (A) (A)
                 (A) (A) (A) (A) (A) (A) (A) (A)
 The electronic state is 1-A.
 Alpha  occ. eigenvalues --  -19.03430 -19.03427  -1.25260  -1.04173  -0.67182
 Alpha  occ. eigenvalues --   -0.62934  -0.53961  -0.47511  -0.38875
 Alpha virt. eigenvalues --    0.02865   0.03534   0.07076   0.08936   0.10024
 Alpha virt. eigenvalues --    0.10411   0.11133   0.14044   0.16526   0.17133
 Alpha virt. eigenvalues --    0.18607   0.19572   0.20969   0.23289   0.26386
 Alpha virt. eigenvalues --    0.27507   0.30048   0.31200   0.31867   0.33504
 Alpha virt. eigenvalues --    0.36452   0.37804   0.38796   0.39542   0.41624
 Alpha virt. eigenvalues --    0.42806   0.43845   0.47403   0.49120   0.49759
 Alpha virt. eigenvalues --    0.55059   0.58083   0.60468   0.65788   0.68386
 Alpha virt. eigenvalues --    0.70393   0.74462   0.75136   0.76102   0.76785
 Alpha virt. eigenvalues --    0.79111   0.83074   0.85839   0.88377   0.91230
 Alpha virt. eigenvalues --    0.91965   0.93338   0.96184   0.98213   0.99977
 Alpha virt. eigenvalues --    1.00764   1.05148   1.05734   1.09557   1.13389
 Alpha virt. eigenvalues --    1.13795   1.16216   1.17346   1.20471   1.24035
 Alpha virt. eigenvalues --    1.25865   1.30450   1.32279   1.33105   1.33826
 Alpha virt. eigenvalues --    1.34192   1.34927   1.36799   1.37654   1.44504
 Alpha virt. eigenvalues --    1.48601   1.50350   1.53651   1.53963   1.56482
 Alpha virt. eigenvalues --    1.58075   1.64648   1.67760   1.72459   1.79953
 Alpha virt. eigenvalues --    1.80999   1.83891   1.89030   1.97287   2.01928
 Alpha virt. eigenvalues --    2.02689   2.06315   2.15451   2.16072   2.21558
 Alpha virt. eigenvalues --    2.25640   2.27881   2.32100   2.36122   2.43901
 Alpha virt. eigenvalues --    2.49119   2.54976   2.56384   2.58260   2.66640
 Alpha virt. eigenvalues --    2.69318   2.71958   2.76791   2.84966   2.93534
 Alpha virt. eigenvalues --    3.05743   3.08721   3.11481   3.26107   3.30502
 Alpha virt. eigenvalues --    3.40312   3.50999   3.59755   3.69965   3.78106
 Alpha virt. eigenvalues --    3.79202   3.80339   3.82305   3.82703   3.83622
 Alpha virt. eigenvalues --    3.89175   3.89449   3.91444   3.92428   3.94892
 Alpha virt. eigenvalues --    3.97578   4.03546   4.07432   4.10413   4.12444
 Alpha virt. eigenvalues --    4.13046   4.19424   4.21798   4.28379   4.35264
 Alpha virt. eigenvalues --    4.42474   4.47815   4.55957   4.72020   4.91510
 Alpha virt. eigenvalues --    5.00018   5.03456   5.06200   5.09788   5.35510
 Alpha virt. eigenvalues --    5.41492   5.81618   5.97938   6.05893   6.11133
 Alpha virt. eigenvalues --    6.30016   6.33354   6.40470   6.46984   6.67572
 Alpha virt. eigenvalues --    6.68155   6.72415   6.78804   6.84154   6.85612
 Alpha virt. eigenvalues --    6.89016   6.90811   6.92673   6.96251   7.00464
 Alpha virt. eigenvalues --    7.19866   7.22579   7.36070   7.60622   7.80638
 Alpha virt. eigenvalues --    8.06139   8.10481  10.88705  14.01246  14.48376
 Alpha virt. eigenvalues --   14.83535  14.88640  15.11109  29.03245  29.03817
 Alpha virt. eigenvalues --   29.08156  29.13947  29.23439  49.10446 148.31570
 Alpha virt. eigenvalues --  148.39137 148.72155 752.49520
          Condensed to atoms (all electrons):
              1          2          3          4          5
     1  O    8.236870  -0.218197   0.184006  -0.001958  -0.003743
     2  O   -0.218197   8.211640   0.012642   0.212735   0.000653
     3  H    0.184006   0.012642   0.603119   0.004517   0.000902
     4  H   -0.001958   0.212735   0.004517   0.573032  -0.004415
     5  Kr  -0.003743   0.000653   0.000902  -0.004415   0.001054
 Mulliken atomic charges:
              1
     1  O   -0.196978
     2  O   -0.219473
     3  H    0.194814
     4  H    0.216088
     5  Kr   0.005549
 Sum of Mulliken atomic charges =   0.00000
 Mulliken charges with hydrogens summed into heavy atoms:
              1
     1  O   -0.002164
     2  O   -0.003385
     5  Kr   0.005549
 Sum of Mulliken charges with hydrogens summed into heavy atoms =   0.00000
          Condensed to fragments (all electrons):
     1      -0.005549
     2       0.005549
 Electronic spatial extent (au):  <R**2>=            324.5728
 Charge=              0.0000 electrons
 Dipole moment (field-independent basis, Debye):
    X=              0.0933    Y=             -0.0179    Z=              0.5550  Tot=              0.5630
 Quadrupole moment (field-independent basis, Debye-Ang):
   XX=             -9.1207   YY=            -10.7744   ZZ=            -12.9938
   XY=              4.0095   XZ=             -1.7051   YZ=             -0.5705
 Traceless Quadrupole moment (field-independent basis, Debye-Ang):
   XX=              1.8422   YY=              0.1885   ZZ=             -2.0308
   XY=              4.0095   XZ=             -1.7051   YZ=             -0.5705
 Octapole moment (field-independent basis, Debye-Ang**2):
  XXX=             53.8433  YYY=             -1.2648  ZZZ=              0.3475  XYY=             21.8933
  XXY=            -16.0598  XXZ=              5.1993  XZZ=             25.8397  YZZ=             -0.6670
  YYZ=              0.7168  XYZ=              1.7775
 Hexadecapole moment (field-independent basis, Debye-Ang**3):
 XXXX=           -225.2257 YYYY=            -46.0574 ZZZZ=            -11.8048 XXXY=             49.5580
 XXXZ=            -15.5133 YYYX=              5.0323 YYYZ=             -0.7076 ZZZX=             -0.6270
 ZZZY=             -0.3300 XXYY=            -51.8136 XXZZ=            -55.5568 YYZZ=            -11.4523
 XXYZ=             -5.3667 YYXZ=             -1.9465 ZZXY=              0.5848
 N-N= 3.660192629008D+01 E-N=-4.315010761920D+02  KE= 1.504976579514D+02
 No NMR shielding tensors so no spin-rotation constants.
 Leave Link  601 at Tue May 12 17:09:47 2020, MaxMem= 1073741824 cpu:       0.7
 (Enter /home/matheus/.gaussian/g09/l122.exe)
 Counterpoise: doing DCBS calculation for fragment   2 NewBq=T
 Leave Link  122 at Tue May 12 17:09:47 2020, MaxMem= 1073741824 cpu:       0.0
 (Enter /home/matheus/.gaussian/g09/l301.exe)
 Basis read from rwf:  (5D, 7F)
 No pseudopotential information found on rwf file.
 There are   197 symmetry adapted basis functions of A   symmetry.
 Integral buffers will be    131072 words long.
 Raffenetti 2 integral format.
 Two-electron integral symmetry is turned on.
   197 basis functions,   415 primitive gaussians,   229 cartesian basis functions
    18 alpha electrons       18 beta electrons
       nuclear repulsion energy         0.0000000000 Hartrees.
 IExCor=32609 DFT=T Ex+Corr=LC-wPBE ExCW=0 ScaHFX=  1.000000
 ScaDFX=  1.000000  0.000000  1.000000  1.000000 ScalE2=  1.000000  1.000000
 IRadAn=      5 IRanWt=     -1 IRanGd=            0 ICorTp=0
  HFx wShort=  0.000000 wLong=  0.400000 cFull=  0.000000 cShort=  0.000000 cLong=  1.000000
  DFx wShort=  0.000000 wLong=  0.400000 cFull=  0.000000 cShort=  0.000000 cLong=  1.000000
 NAtoms=    5 NActive=    5 NUniq=    5 SFac= 1.00D+00 NAtFMM=   60 NAOKFM=F Big=F
 No density basis found on file   718.
 Leave Link  301 at Tue May 12 17:09:47 2020, MaxMem= 1073741824 cpu:       0.2
 (Enter /home/matheus/.gaussian/g09/l302.exe)
 NPDir=0 NMtPBC=     1 NCelOv=     1 NCel=       1 NClECP=     1 NCelD=      1
         NCelK=      1 NCelE2=     1 NClLst=     1 CellRange=     0.0.
 One-electron integrals computed using PRISM.
 NBasis=   197 RedAO= T  NBF=   197
 NBsUse=   197 1.00D-06 NBFU=   197
 Precomputing XC quadrature grid using
 IXCGrd= 2 IRadAn=           5 IRanWt=          -1 IRanGd=           0 AccXCQ= 0.00D+00.
 NRdTot=     427 NPtTot=      123814 NUsed=      126881 NTot=      126913
 NSgBfM=   229   229   229   229   229 NAtAll=     5     5.
 Leave Link  302 at Tue May 12 17:09:48 2020, MaxMem= 1073741824 cpu:       1.1
 (Enter /home/matheus/.gaussian/g09/l303.exe)
 DipDrv:  MaxL=1.
 Leave Link  303 at Tue May 12 17:09:48 2020, MaxMem= 1073741824 cpu:       0.2
 (Enter /home/matheus/.gaussian/g09/l401.exe)
 Harris functional with IExCor=32609 diagonalized for initial guess.
 ExpMin= 2.53D-02 ExpMax= 1.17D+07 ExpMxC= 1.33D+04 IAcc=3 IRadAn=         5 AccDes= 0.00D+00
 HarFok:  IExCor=32609 AccDes= 0.00D+00 IRadAn=         5 IDoV= 1
 ScaDFX=  1.000000  1.000000  1.000000  1.000000
 FoFCou: FMM=F IPFlag=           0 FMFlag=      100000 FMFlg1=           0
         NFxFlg=           0 DoJE=T BraDBF=F KetDBF=T FulRan=T
         Omega=  0.000000  0.000000  1.000000  0.000000  0.000000 ICntrl=     500 IOpCl=  0
         NMat0=    1 NMatS0=    1 NMatT0=    0 NMatD0=    1 NMtDS0=    0 NMtDT0=    0
         I1Cent=           4 NGrid=           0.
 Petite list used in FoFCou.
 Harris En= -2753.24649049809    
 Initial guess orbital symmetries:
       Occupied  (A) (A) (A) (A) (A) (A) (A) (A) (A) (A) (A) (A)
                 (A) (A) (A) (A) (A) (A)
       Virtual   (A) (A) (A) (A) (A) (A) (A) (A) (A) (A) (A) (A)
                 (A) (A) (A) (A) (A) (A) (A) (A) (A) (A) (A) (A)
                 (A) (A) (A) (A) (A) (A) (A) (A) (A) (A) (A) (A)
                 (A) (A) (A) (A) (A) (A) (A) (A) (A) (A) (A) (A)
                 (A) (A) (A) (A) (A) (A) (A) (A) (A) (A) (A) (A)
                 (A) (A) (A) (A) (A) (A) (A) (A) (A) (A) (A) (A)
                 (A) (A) (A) (A) (A) (A) (A) (A) (A) (A) (A) (A)
                 (A) (A) (A) (A) (A) (A) (A) (A) (A) (A) (A) (A)
                 (A) (A) (A) (A) (A) (A) (A) (A) (A) (A) (A) (A)
                 (A) (A) (A) (A) (A) (A) (A) (A) (A) (A) (A) (A)
                 (A) (A) (A) (A) (A) (A) (A) (A) (A) (A) (A) (A)
                 (A) (A) (A) (A) (A) (A) (A) (A) (A) (A) (A) (A)
                 (A) (A) (A) (A) (A) (A) (A) (A) (A) (A) (A) (A)
                 (A) (A) (A) (A) (A) (A) (A) (A) (A) (A) (A) (A)
                 (A) (A) (A) (A) (A) (A) (A) (A) (A) (A) (A)
 The electronic state of the initial guess is 1-A.
 Leave Link  401 at Tue May 12 17:09:48 2020, MaxMem= 1073741824 cpu:       4.1
 (Enter /home/matheus/.gaussian/g09/l502.exe)
 Closed shell SCF:
 Requested convergence on RMS density matrix=1.00D-08 within 128 cycles.
 Requested convergence on MAX density matrix=1.00D-06.
 Requested convergence on             energy=1.00D-06.
 No special actions if energy rises.
 Using DIIS extrapolation, IDIIS=  1040.
 Integral symmetry usage will be decided dynamically.
       126823 words used for storage of precomputed grid.
 IEnd=      305770 IEndB=      305770 NGot=  1073741824 MDV=  1073505365
 LenX=  1073505365 LenY=  1073452483
 Fock matrices will be formed incrementally for  20 cycles.

 Cycle   1  Pass 1  IDiag  1:
 FoFJK:  IHMeth= 1 ICntrl=     0 DoSepK=T KAlg= 1 I1Cent= 0 FoldK=F
 FoFCou: FMM=F IPFlag=           0 FMFlag=      100000 FMFlg1=           0
         NFxFlg=           0 DoJE=T BraDBF=F KetDBF=F FulRan=T
         Omega=  0.000000  0.000000  1.000000  0.000000  0.000000 ICntrl=     500 IOpCl=  0
         NMat0=    1 NMatS0=    1 NMatT0=    0 NMatD0=    1 NMtDS0=    0 NMtDT0=    0
         I1Cent=           0 NGrid=           0.
 Symmetry not used in FoFCou.
 E= -2753.38971778792    
 DIIS: error= 2.86D-02 at cycle   1 NSaved=   1.
 NSaved= 1 IEnMin= 1 EnMin= -2753.38971778792     IErMin= 1 ErrMin= 2.86D-02
 ErrMax= 2.86D-02 EMaxC= 1.00D-01 BMatC= 2.22D-01 BMatP= 2.22D-01
 IDIUse=3 WtCom= 7.14D-01 WtEn= 2.86D-01
 Coeff-Com:  0.100D+01
 Coeff-En:   0.100D+01
 Coeff:      0.100D+01
 Gap=     0.609 Goal=   None    Shift=    0.000
 GapD=    0.609 DampG=2.000 DampE=0.500 DampFc=1.0000 IDamp=-1.
 RMSDP=2.11D-03 MaxDP=1.47D-01              OVMax= 5.10D-02

 Cycle   2  Pass 1  IDiag  1:
 RMSU=  1.46D-03    CP:  1.02D+00
 FoFJK:  IHMeth= 1 ICntrl=     0 DoSepK=T KAlg= 1 I1Cent= 0 FoldK=F
 E= -2753.42035959064     Delta-E=       -0.030641802717 Rises=F Damp=F
 DIIS: error= 1.19D-02 at cycle   2 NSaved=   2.
 NSaved= 2 IEnMin= 2 EnMin= -2753.42035959064     IErMin= 2 ErrMin= 1.19D-02
 ErrMax= 1.19D-02 EMaxC= 1.00D-01 BMatC= 5.51D-02 BMatP= 2.22D-01
 IDIUse=3 WtCom= 8.81D-01 WtEn= 1.19D-01
 Coeff-Com:  0.328D+00 0.672D+00
 Coeff-En:   0.130D+00 0.870D+00
 Coeff:      0.305D+00 0.695D+00
 Gap=     0.523 Goal=   None    Shift=    0.000
 RMSDP=8.01D-04 MaxDP=5.15D-02 DE=-3.06D-02 OVMax= 2.09D-02

 Cycle   3  Pass 1  IDiag  1:
 RMSU=  1.67D-04    CP:  1.01D+00  6.40D-01
 FoFJK:  IHMeth= 1 ICntrl=     0 DoSepK=T KAlg= 1 I1Cent= 0 FoldK=F
 E= -2753.43556923607     Delta-E=       -0.015209645435 Rises=F Damp=F
 DIIS: error= 1.36D-03 at cycle   3 NSaved=   3.
 NSaved= 3 IEnMin= 3 EnMin= -2753.43556923607     IErMin= 3 ErrMin= 1.36D-03
 ErrMax= 1.36D-03 EMaxC= 1.00D-01 BMatC= 6.08D-04 BMatP= 5.51D-02
 IDIUse=3 WtCom= 9.86D-01 WtEn= 1.36D-02
 Coeff-Com: -0.250D-03 0.941D-01 0.906D+00
 Coeff-En:   0.000D+00 0.000D+00 0.100D+01
 Coeff:     -0.247D-03 0.928D-01 0.907D+00
 Gap=     0.531 Goal=   None    Shift=    0.000
 RMSDP=7.52D-05 MaxDP=4.43D-03 DE=-1.52D-02 OVMax= 2.69D-03

 Cycle   4  Pass 1  IDiag  1:
 RMSU=  1.81D-05    CP:  1.01D+00  6.73D-01  9.95D-01
 FoFJK:  IHMeth= 1 ICntrl=     0 DoSepK=T KAlg= 1 I1Cent= 0 FoldK=F
 E= -2753.43575279088     Delta-E=       -0.000183554811 Rises=F Damp=F
 DIIS: error= 3.83D-05 at cycle   4 NSaved=   4.
 NSaved= 4 IEnMin= 4 EnMin= -2753.43575279088     IErMin= 4 ErrMin= 3.83D-05
 ErrMax= 3.83D-05 EMaxC= 1.00D-01 BMatC= 4.56D-07 BMatP= 6.08D-04
 IDIUse=1 WtCom= 1.00D+00 WtEn= 0.00D+00
 Coeff-Com: -0.125D-02-0.163D-01-0.112D+00 0.113D+01
 Coeff:     -0.125D-02-0.163D-01-0.112D+00 0.113D+01
 Gap=     0.530 Goal=   None    Shift=    0.000
 RMSDP=6.43D-06 MaxDP=2.50D-04 DE=-1.84D-04 OVMax= 3.91D-04

 Cycle   5  Pass 1  IDiag  1:
 RMSU=  2.22D-06    CP:  1.01D+00  6.73D-01  1.01D+00  1.12D+00
 FoFJK:  IHMeth= 1 ICntrl=     0 DoSepK=T KAlg= 1 I1Cent= 0 FoldK=F
 E= -2753.43575332173     Delta-E=       -0.000000530846 Rises=F Damp=F
 DIIS: error= 6.95D-06 at cycle   5 NSaved=   5.
 NSaved= 5 IEnMin= 5 EnMin= -2753.43575332173     IErMin= 5 ErrMin= 6.95D-06
 ErrMax= 6.95D-06 EMaxC= 1.00D-01 BMatC= 1.16D-08 BMatP= 4.56D-07
 IDIUse=1 WtCom= 1.00D+00 WtEn= 0.00D+00
 Coeff-Com:  0.277D-04-0.236D-02-0.244D-01 0.933D-01 0.933D+00
 Coeff:      0.277D-04-0.236D-02-0.244D-01 0.933D-01 0.933D+00
 Gap=     0.531 Goal=   None    Shift=    0.000
 RMSDP=7.15D-07 MaxDP=3.09D-05 DE=-5.31D-07 OVMax= 3.05D-05

 Cycle   6  Pass 1  IDiag  1:
 RMSU=  2.12D-07    CP:  1.01D+00  6.73D-01  1.01D+00  1.15D+00  1.03D+00
 FoFJK:  IHMeth= 1 ICntrl=     0 DoSepK=T KAlg= 1 I1Cent= 0 FoldK=F
 E= -2753.43575333124     Delta-E=       -0.000000009508 Rises=F Damp=F
 DIIS: error= 3.34D-07 at cycle   6 NSaved=   6.
 NSaved= 6 IEnMin= 6 EnMin= -2753.43575333124     IErMin= 6 ErrMin= 3.34D-07
 ErrMax= 3.34D-07 EMaxC= 1.00D-01 BMatC= 4.16D-11 BMatP= 1.16D-08
 IDIUse=1 WtCom= 1.00D+00 WtEn= 0.00D+00
 Coeff-Com:  0.257D-05 0.151D-03 0.160D-02-0.113D-01-0.798D-01 0.109D+01
 Coeff:      0.257D-05 0.151D-03 0.160D-02-0.113D-01-0.798D-01 0.109D+01
 Gap=     0.531 Goal=   None    Shift=    0.000
 RMSDP=9.81D-08 MaxDP=3.60D-06 DE=-9.51D-09 OVMax= 4.48D-06

 Cycle   7  Pass 1  IDiag  1:
 RMSU=  1.61D-08    CP:  1.01D+00  6.73D-01  1.01D+00  1.15D+00  1.04D+00
                    CP:  1.23D+00
 FoFJK:  IHMeth= 1 ICntrl=     0 DoSepK=T KAlg= 1 I1Cent= 0 FoldK=F
 E= -2753.43575333131     Delta-E=       -0.000000000073 Rises=F Damp=F
 DIIS: error= 6.26D-08 at cycle   7 NSaved=   7.
 NSaved= 7 IEnMin= 7 EnMin= -2753.43575333131     IErMin= 7 ErrMin= 6.26D-08
 ErrMax= 6.26D-08 EMaxC= 1.00D-01 BMatC= 1.42D-12 BMatP= 4.16D-11
 IDIUse=1 WtCom= 1.00D+00 WtEn= 0.00D+00
 Coeff-Com: -0.220D-06 0.261D-04 0.286D-03-0.148D-02-0.163D-01 0.126D+00
 Coeff-Com:  0.892D+00
 Coeff:     -0.220D-06 0.261D-04 0.286D-03-0.148D-02-0.163D-01 0.126D+00
 Coeff:      0.892D+00
 Gap=     0.531 Goal=   None    Shift=    0.000
 RMSDP=1.09D-08 MaxDP=4.03D-07 DE=-7.32D-11 OVMax= 6.33D-07

 Cycle   8  Pass 1  IDiag  1:
 RMSU=  3.75D-09    CP:  1.01D+00  6.73D-01  1.01D+00  1.15D+00  1.05D+00
                    CP:  1.25D+00  1.11D+00
 FoFJK:  IHMeth= 1 ICntrl=     0 DoSepK=T KAlg= 1 I1Cent= 0 FoldK=F
 E= -2753.43575333131     Delta-E=       -0.000000000004 Rises=F Damp=F
 DIIS: error= 1.78D-08 at cycle   8 NSaved=   8.
 NSaved= 8 IEnMin= 8 EnMin= -2753.43575333131     IErMin= 8 ErrMin= 1.78D-08
 ErrMax= 1.78D-08 EMaxC= 1.00D-01 BMatC= 1.12D-13 BMatP= 1.42D-12
 IDIUse=1 WtCom= 1.00D+00 WtEn= 0.00D+00
 Coeff-Com: -0.288D-06-0.122D-04-0.127D-03 0.972D-03 0.513D-02-0.855D-01
 Coeff-Com:  0.667D-01 0.101D+01
 Coeff:     -0.288D-06-0.122D-04-0.127D-03 0.972D-03 0.513D-02-0.855D-01
 Coeff:      0.667D-01 0.101D+01
 Gap=     0.531 Goal=   None    Shift=    0.000
 RMSDP=3.91D-09 MaxDP=1.57D-07 DE=-3.64D-12 OVMax= 2.41D-07

 SCF Done:  E(RLC-wPBE) =  -2753.43575333     A.U. after    8 cycles
             Convg  =    0.3909D-08             -V/T =  2.0014
 KE= 2.749488301475D+03 PE=-6.578896811847D+03 EE= 1.075972757040D+03
 Leave Link  502 at Tue May 12 17:10:12 2020, MaxMem= 1073741824 cpu:     194.2
 (Enter /home/matheus/.gaussian/g09/l601.exe)
 Copying SCF densities to generalized density rwf, IOpCl= 0 IROHF=0.

 **********************************************************************

            Population analysis using the SCF density.

 **********************************************************************

 Orbital symmetries:
       Occupied  (A) (A) (A) (A) (A) (A) (A) (A) (A) (A) (A) (A)
                 (A) (A) (A) (A) (A) (A)
       Virtual   (A) (A) (A) (A) (A) (A) (A) (A) (A) (A) (A) (A)
                 (A) (A) (A) (A) (A) (A) (A) (A) (A) (A) (A) (A)
                 (A) (A) (A) (A) (A) (A) (A) (A) (A) (A) (A) (A)
                 (A) (A) (A) (A) (A) (A) (A) (A) (A) (A) (A) (A)
                 (A) (A) (A) (A) (A) (A) (A) (A) (A) (A) (A) (A)
                 (A) (A) (A) (A) (A) (A) (A) (A) (A) (A) (A) (A)
                 (A) (A) (A) (A) (A) (A) (A) (A) (A) (A) (A) (A)
                 (A) (A) (A) (A) (A) (A) (A) (A) (A) (A) (A) (A)
                 (A) (A) (A) (A) (A) (A) (A) (A) (A) (A) (A) (A)
                 (A) (A) (A) (A) (A) (A) (A) (A) (A) (A) (A) (A)
                 (A) (A) (A) (A) (A) (A) (A) (A) (A) (A) (A) (A)
                 (A) (A) (A) (A) (A) (A) (A) (A) (A) (A) (A) (A)
                 (A) (A) (A) (A) (A) (A) (A) (A) (A) (A) (A) (A)
                 (A) (A) (A) (A) (A) (A) (A) (A) (A) (A) (A) (A)
                 (A) (A) (A) (A) (A) (A) (A) (A) (A) (A) (A)
 The electronic state is 1-A.
 Alpha  occ. eigenvalues -- -511.10626 -66.65305 -60.31519 -60.31516 -60.31515
 Alpha  occ. eigenvalues --   -9.58572  -7.32996  -7.32994  -7.32994  -3.28540
 Alpha  occ. eigenvalues --   -3.28539  -3.28539  -3.28538  -3.28538  -1.03232
 Alpha  occ. eigenvalues --   -0.50220  -0.50217  -0.50216
 Alpha virt. eigenvalues --    0.02838   0.04854   0.08306   0.09790   0.10836
 Alpha virt. eigenvalues --    0.12152   0.13000   0.14351   0.16520   0.17031
 Alpha virt. eigenvalues --    0.17737   0.19550   0.21104   0.26176   0.27181
 Alpha virt. eigenvalues --    0.27791   0.28342   0.32700   0.33862   0.35460
 Alpha virt. eigenvalues --    0.35849   0.37189   0.37740   0.39307   0.41726
 Alpha virt. eigenvalues --    0.42811   0.43573   0.53760   0.55560   0.58207
 Alpha virt. eigenvalues --    0.59872   0.66122   0.66900   0.69108   0.70981
 Alpha virt. eigenvalues --    0.74906   0.75524   0.75750   0.77527   0.77908
 Alpha virt. eigenvalues --    0.80776   0.81432   0.83079   0.84743   0.85139
 Alpha virt. eigenvalues --    0.86840   0.87868   0.89327   0.91773   0.94985
 Alpha virt. eigenvalues --    0.97662   0.98919   1.01936   1.02802   1.04509
 Alpha virt. eigenvalues --    1.06119   1.07791   1.08295   1.13000   1.13468
 Alpha virt. eigenvalues --    1.15447   1.18001   1.19081   1.26313   1.27392
 Alpha virt. eigenvalues --    1.32638   1.35010   1.42014   1.43989   1.44638
 Alpha virt. eigenvalues --    1.57487   1.59675   1.67023   1.75488   1.76704
 Alpha virt. eigenvalues --    1.82690   1.86287   1.86887   1.88504   2.15177
 Alpha virt. eigenvalues --    2.19621   2.25768   2.27241   2.30865   2.31293
 Alpha virt. eigenvalues --    2.32238   2.33906   2.35529   2.38831   2.39517
 Alpha virt. eigenvalues --    2.41665   2.47239   2.49015   2.49386   2.49932
 Alpha virt. eigenvalues --    2.52692   2.53888   2.54596   2.56879   2.59552
 Alpha virt. eigenvalues --    2.61950   2.62151   2.62826   2.65295   2.66880
 Alpha virt. eigenvalues --    2.70490   2.72166   2.77167   2.78918   2.87950
 Alpha virt. eigenvalues --    2.89403   3.01150   3.04953   3.11462   3.14460
 Alpha virt. eigenvalues --    3.23005   3.27860   3.30577   3.35761   3.52541
 Alpha virt. eigenvalues --    3.60009   3.64866   3.84307   3.87283   4.03272
 Alpha virt. eigenvalues --    4.34109   4.45434   4.53328   4.56541   4.61377
 Alpha virt. eigenvalues --    4.72458   4.89025   4.90223   4.94515   5.04687
 Alpha virt. eigenvalues --    5.12070   5.14973   5.59175   5.66802   5.89303
 Alpha virt. eigenvalues --    5.90906   5.95142   6.18387   6.84168   6.89893
 Alpha virt. eigenvalues --    7.27726   7.41139   7.61619   7.64844   7.72597
 Alpha virt. eigenvalues --    7.80906   8.07004   8.10047   8.17462   8.24252
 Alpha virt. eigenvalues --    8.35268   8.38298   8.67687   8.89719   9.62996
 Alpha virt. eigenvalues --    9.70328   9.77576   9.85598   9.96563  10.05168
 Alpha virt. eigenvalues --   10.16993  10.22577  10.49050  10.93203  11.44930
 Alpha virt. eigenvalues --   11.56537  11.61988  12.03134  12.11006  13.22302
 Alpha virt. eigenvalues --   13.67142  14.53071  62.87748  64.53163
          Condensed to atoms (all electrons):
              1          2          3          4          5
     1  O    0.001842  -0.001678  -0.000860   0.000958  -0.007589
     2  O   -0.001678   0.004452   0.000590  -0.003097  -0.000803
     3  H   -0.000860   0.000590   0.000531  -0.000311   0.001303
     4  H    0.000958  -0.003097  -0.000311   0.003801  -0.028651
     5  Kr  -0.007589  -0.000803   0.001303  -0.028651  36.069651
 Mulliken atomic charges:
              1
     1  O    0.007326
     2  O    0.000537
     3  H   -0.001253
     4  H    0.027300
     5  Kr  -0.033910
 Sum of Mulliken atomic charges =   0.00000
 Mulliken charges with hydrogens summed into heavy atoms:
              1
     1  O    0.006074
     2  O    0.027837
     5  Kr  -0.033910
 Sum of Mulliken charges with hydrogens summed into heavy atoms =   0.00000
          Condensed to fragments (all electrons):
     1       0.033910
     2      -0.033910
 Electronic spatial extent (au):  <R**2>=            167.6034
 Charge=              0.0000 electrons
 Dipole moment (field-independent basis, Debye):
    X=             -0.0008    Y=              0.0004    Z=              0.0000  Tot=              0.0009
 Quadrupole moment (field-independent basis, Debye-Ang):
   XX=            -17.6154   YY=            -17.6228   ZZ=            -17.6276
   XY=             -0.0037   XZ=              0.0000   YZ=              0.0001
 Traceless Quadrupole moment (field-independent basis, Debye-Ang):
   XX=              0.0065   YY=             -0.0009   ZZ=             -0.0057
   XY=             -0.0037   XZ=              0.0000   YZ=              0.0001
 Octapole moment (field-independent basis, Debye-Ang**2):
  XXX=            -52.7834  YYY=              0.9795  ZZZ=             -0.1010  XYY=            -17.6026
  XXY=              0.3188  XXZ=             -0.0339  XZZ=            -17.6051  YZZ=              0.3269
  YYZ=             -0.0334  XYZ=              0.0002
 Hexadecapole moment (field-independent basis, Debye-Ang**3):
 XXXX=           -123.8082 YYYY=            -18.4085 ZZZZ=            -18.3858 XXXY=              0.9614
 XXXZ=             -0.1014 YYYX=              0.9659 YYYZ=              0.0014 ZZZX=             -0.1011
 ZZZY=              0.0022 XXYY=            -23.7088 XXZZ=            -23.7056 YYZZ=             -6.1297
 XXYZ=              0.0008 YYXZ=             -0.0337 ZZXY=              0.3210
 N-N= 0.000000000000D+00 E-N=-6.578896813596D+03  KE= 2.749488301475D+03
 No NMR shielding tensors so no spin-rotation constants.
 Leave Link  601 at Tue May 12 17:10:13 2020, MaxMem= 1073741824 cpu:       0.7
 (Enter /home/matheus/.gaussian/g09/l122.exe)
 Counterpoise: doing MCBS calculation for fragment   1
 Leave Link  122 at Tue May 12 17:10:13 2020, MaxMem= 1073741824 cpu:       0.0
 (Enter /home/matheus/.gaussian/g09/l301.exe)
 Basis read from rwf:  (5D, 7F)
 No pseudopotential information found on rwf file.
 There are   138 symmetry adapted basis functions of A   symmetry.
 Integral buffers will be    131072 words long.
 Raffenetti 2 integral format.
 Two-electron integral symmetry is turned on.
   138 basis functions,   198 primitive gaussians,   160 cartesian basis functions
     9 alpha electrons        9 beta electrons
       nuclear repulsion energy        36.6019262901 Hartrees.
 IExCor=32609 DFT=T Ex+Corr=LC-wPBE ExCW=0 ScaHFX=  1.000000
 ScaDFX=  1.000000  0.000000  1.000000  1.000000 ScalE2=  1.000000  1.000000
 IRadAn=      5 IRanWt=     -1 IRanGd=            0 ICorTp=0
  HFx wShort=  0.000000 wLong=  0.400000 cFull=  0.000000 cShort=  0.000000 cLong=  1.000000
  DFx wShort=  0.000000 wLong=  0.400000 cFull=  0.000000 cShort=  0.000000 cLong=  1.000000
 NAtoms=    5 NActive=    4 NUniq=    4 SFac= 1.00D+00 NAtFMM=   60 NAOKFM=F Big=F
 No density basis found on file   718.
 Leave Link  301 at Tue May 12 17:10:13 2020, MaxMem= 1073741824 cpu:       0.2
 (Enter /home/matheus/.gaussian/g09/l302.exe)
 NPDir=0 NMtPBC=     1 NCelOv=     1 NCel=       1 NClECP=     1 NCelD=      1
         NCelK=      1 NCelE2=     1 NClLst=     1 CellRange=     0.0.
 One-electron integrals computed using PRISM.
 NBasis=   138 RedAO= T  NBF=   138
 NBsUse=   138 1.00D-06 NBFU=   138
 Precomputing XC quadrature grid using
 IXCGrd= 2 IRadAn=           5 IRanWt=          -1 IRanGd=           0 AccXCQ= 0.00D+00.
 NRdTot=     344 NPtTot=       92556 NUsed=       95038 NTot=       95070
 NSgBfM=   160   160   160   160   160 NAtAll=     4     4.
 Leave Link  302 at Tue May 12 17:10:13 2020, MaxMem= 1073741824 cpu:       0.8
 (Enter /home/matheus/.gaussian/g09/l303.exe)
 DipDrv:  MaxL=1.
 Leave Link  303 at Tue May 12 17:10:13 2020, MaxMem= 1073741824 cpu:       0.1
 (Enter /home/matheus/.gaussian/g09/l401.exe)
 Harris functional with IExCor=32609 diagonalized for initial guess.
 ExpMin= 2.53D-02 ExpMax= 1.53D+04 ExpMxC= 5.22D+02 IAcc=3 IRadAn=         5 AccDes= 0.00D+00
 HarFok:  IExCor=32609 AccDes= 0.00D+00 IRadAn=         5 IDoV= 1
 ScaDFX=  1.000000  1.000000  1.000000  1.000000
 FoFCou: FMM=F IPFlag=           0 FMFlag=      100000 FMFlg1=           0
         NFxFlg=           0 DoJE=T BraDBF=F KetDBF=T FulRan=T
         Omega=  0.000000  0.000000  1.000000  0.000000  0.000000 ICntrl=     500 IOpCl=  0
         NMat0=    1 NMatS0=    1 NMatT0=    0 NMatD0=    1 NMtDS0=    0 NMtDT0=    0
         I1Cent=           4 NGrid=           0.
 Petite list used in FoFCou.
 Harris En= -151.499868325975    
 Initial guess orbital symmetries:
       Occupied  (A) (A) (A) (A) (A) (A) (A) (A) (A)
       Virtual   (A) (A) (A) (A) (A) (A) (A) (A) (A) (A) (A) (A)
                 (A) (A) (A) (A) (A) (A) (A) (A) (A) (A) (A) (A)
                 (A) (A) (A) (A) (A) (A) (A) (A) (A) (A) (A) (A)
                 (A) (A) (A) (A) (A) (A) (A) (A) (A) (A) (A) (A)
                 (A) (A) (A) (A) (A) (A) (A) (A) (A) (A) (A) (A)
                 (A) (A) (A) (A) (A) (A) (A) (A) (A) (A) (A) (A)
                 (A) (A) (A) (A) (A) (A) (A) (A) (A) (A) (A) (A)
                 (A) (A) (A) (A) (A) (A) (A) (A) (A) (A) (A) (A)
                 (A) (A) (A) (A) (A) (A) (A) (A) (A) (A) (A) (A)
                 (A) (A) (A) (A) (A) (A) (A) (A) (A) (A) (A) (A)
                 (A) (A) (A) (A) (A) (A) (A) (A) (A)
 The electronic state of the initial guess is 1-A.
 Leave Link  401 at Tue May 12 17:10:13 2020, MaxMem= 1073741824 cpu:       2.2
 (Enter /home/matheus/.gaussian/g09/l502.exe)
 Closed shell SCF:
 Requested convergence on RMS density matrix=1.00D-08 within 128 cycles.
 Requested convergence on MAX density matrix=1.00D-06.
 Requested convergence on             energy=1.00D-06.
 No special actions if energy rises.
 Using DIIS extrapolation, IDIIS=  1040.
 Integral symmetry usage will be decided dynamically.
        94980 words used for storage of precomputed grid.
 IEnd=      192360 IEndB=      192360 NGot=  1073741824 MDV=  1073591865
 LenX=  1073591865 LenY=  1073565824
 Fock matrices will be formed incrementally for  20 cycles.

 Cycle   1  Pass 1  IDiag  1:
 FoFJK:  IHMeth= 1 ICntrl=     0 DoSepK=T KAlg= 1 I1Cent= 0 FoldK=F
 FoFCou: FMM=F IPFlag=           0 FMFlag=      100000 FMFlg1=           0
         NFxFlg=           0 DoJE=T BraDBF=F KetDBF=F FulRan=T
         Omega=  0.000000  0.000000  1.000000  0.000000  0.000000 ICntrl=     500 IOpCl=  0
         NMat0=    1 NMatS0=    1 NMatT0=    0 NMatD0=    1 NMtDS0=    0 NMtDT0=    0
         I1Cent=           0 NGrid=           0.
 Symmetry not used in FoFCou.
 E= -151.496541243098    
 DIIS: error= 1.74D-02 at cycle   1 NSaved=   1.
 NSaved= 1 IEnMin= 1 EnMin= -151.496541243098     IErMin= 1 ErrMin= 1.74D-02
 ErrMax= 1.74D-02 EMaxC= 1.00D-01 BMatC= 3.83D-02 BMatP= 3.83D-02
 IDIUse=3 WtCom= 8.26D-01 WtEn= 1.74D-01
 Coeff-Com:  0.100D+01
 Coeff-En:   0.100D+01
 Coeff:      0.100D+01
 Gap=     0.477 Goal=   None    Shift=    0.000
 GapD=    0.477 DampG=2.000 DampE=0.500 DampFc=1.0000 IDamp=-1.
 RMSDP=1.19D-03 MaxDP=2.50D-02              OVMax= 5.40D-02

 Cycle   2  Pass 1  IDiag  1:
 RMSU=  8.35D-04    CP:  9.88D-01
 FoFJK:  IHMeth= 1 ICntrl=     0 DoSepK=T KAlg= 1 I1Cent= 0 FoldK=F
 E= -151.510111532980     Delta-E=       -0.013570289882 Rises=F Damp=F
 DIIS: error= 1.25D-02 at cycle   2 NSaved=   2.
 NSaved= 2 IEnMin= 2 EnMin= -151.510111532980     IErMin= 2 ErrMin= 1.25D-02
 ErrMax= 1.25D-02 EMaxC= 1.00D-01 BMatC= 2.06D-02 BMatP= 3.83D-02
 IDIUse=3 WtCom= 8.75D-01 WtEn= 1.25D-01
 Coeff-Com:  0.415D+00 0.585D+00
 Coeff-En:   0.243D+00 0.757D+00
 Coeff:      0.393D+00 0.607D+00
 Gap=     0.425 Goal=   None    Shift=    0.000
 RMSDP=6.12D-04 MaxDP=2.24D-02 DE=-1.36D-02 OVMax= 2.50D-02

 Cycle   3  Pass 1  IDiag  1:
 RMSU=  3.29D-04    CP:  9.85D-01  6.66D-01
 FoFJK:  IHMeth= 1 ICntrl=     0 DoSepK=T KAlg= 1 I1Cent= 0 FoldK=F
 E= -151.521802244488     Delta-E=       -0.011690711508 Rises=F Damp=F
 DIIS: error= 2.36D-03 at cycle   3 NSaved=   3.
 NSaved= 3 IEnMin= 3 EnMin= -151.521802244488     IErMin= 3 ErrMin= 2.36D-03
 ErrMax= 2.36D-03 EMaxC= 1.00D-01 BMatC= 4.30D-04 BMatP= 2.06D-02
 IDIUse=3 WtCom= 9.76D-01 WtEn= 2.36D-02
 Coeff-Com:  0.618D-01 0.157D+00 0.781D+00
 Coeff-En:   0.000D+00 0.000D+00 0.100D+01
 Coeff:      0.604D-01 0.153D+00 0.786D+00
 Gap=     0.418 Goal=   None    Shift=    0.000
 RMSDP=8.62D-05 MaxDP=2.15D-03 DE=-1.17D-02 OVMax= 4.07D-03

 Cycle   4  Pass 1  IDiag  1:
 RMSU=  4.22D-05    CP:  9.84D-01  7.14D-01  1.01D+00
 FoFJK:  IHMeth= 1 ICntrl=     0 DoSepK=T KAlg= 1 I1Cent= 0 FoldK=F
 E= -151.522067028377     Delta-E=       -0.000264783889 Rises=F Damp=F
 DIIS: error= 3.64D-04 at cycle   4 NSaved=   4.
 NSaved= 4 IEnMin= 4 EnMin= -151.522067028377     IErMin= 4 ErrMin= 3.64D-04
 ErrMax= 3.64D-04 EMaxC= 1.00D-01 BMatC= 1.45D-05 BMatP= 4.30D-04
 IDIUse=3 WtCom= 9.96D-01 WtEn= 3.64D-03
 Coeff-Com: -0.406D-02-0.716D-02 0.125D+00 0.887D+00
 Coeff-En:   0.000D+00 0.000D+00 0.000D+00 0.100D+01
 Coeff:     -0.405D-02-0.713D-02 0.124D+00 0.887D+00
 Gap=     0.420 Goal=   None    Shift=    0.000
 RMSDP=1.90D-05 MaxDP=9.31D-04 DE=-2.65D-04 OVMax= 8.31D-04

 Cycle   5  Pass 1  IDiag  1:
 RMSU=  7.47D-06    CP:  9.83D-01  7.13D-01  1.04D+00  1.03D+00
 FoFJK:  IHMeth= 1 ICntrl=     0 DoSepK=T KAlg= 1 I1Cent= 0 FoldK=F
 E= -151.522077022996     Delta-E=       -0.000009994619 Rises=F Damp=F
 DIIS: error= 4.70D-05 at cycle   5 NSaved=   5.
 NSaved= 5 IEnMin= 5 EnMin= -151.522077022996     IErMin= 5 ErrMin= 4.70D-05
 ErrMax= 4.70D-05 EMaxC= 1.00D-01 BMatC= 1.24D-07 BMatP= 1.45D-05
 IDIUse=1 WtCom= 1.00D+00 WtEn= 0.00D+00
 Coeff-Com: -0.105D-02-0.334D-02-0.295D-01-0.742D-01 0.111D+01
 Coeff:     -0.105D-02-0.334D-02-0.295D-01-0.742D-01 0.111D+01
 Gap=     0.420 Goal=   None    Shift=    0.000
 RMSDP=4.74D-06 MaxDP=1.03D-04 DE=-9.99D-06 OVMax= 2.24D-04

 Cycle   6  Pass 1  IDiag  1:
 RMSU=  1.62D-06    CP:  9.83D-01  7.14D-01  1.04D+00  1.07D+00  1.31D+00
 FoFJK:  IHMeth= 1 ICntrl=     0 DoSepK=T KAlg= 1 I1Cent= 0 FoldK=F
 E= -151.522077307838     Delta-E=       -0.000000284841 Rises=F Damp=F
 DIIS: error= 1.00D-05 at cycle   6 NSaved=   6.
 NSaved= 6 IEnMin= 6 EnMin= -151.522077307838     IErMin= 6 ErrMin= 1.00D-05
 ErrMax= 1.00D-05 EMaxC= 1.00D-01 BMatC= 4.87D-09 BMatP= 1.24D-07
 IDIUse=1 WtCom= 1.00D+00 WtEn= 0.00D+00
 Coeff-Com:  0.144D-03 0.383D-03-0.154D-02-0.179D-01-0.406D-01 0.106D+01
 Coeff:      0.144D-03 0.383D-03-0.154D-02-0.179D-01-0.406D-01 0.106D+01
 Gap=     0.420 Goal=   None    Shift=    0.000
 RMSDP=9.09D-07 MaxDP=1.40D-05 DE=-2.85D-07 OVMax= 5.08D-05

 Cycle   7  Pass 1  IDiag  1:
 RMSU=  3.19D-07    CP:  9.83D-01  7.14D-01  1.04D+00  1.08D+00  1.36D+00
                    CP:  1.21D+00
 FoFJK:  IHMeth= 1 ICntrl=     0 DoSepK=T KAlg= 1 I1Cent= 0 FoldK=F
 E= -151.522077320597     Delta-E=       -0.000000012760 Rises=F Damp=F
 DIIS: error= 2.36D-06 at cycle   7 NSaved=   7.
[...]
 RMSDP=1.65D-05 MaxDP=7.11D-04              OVMax= 2.60D-04

 Cycle   2  Pass 1  IDiag  1:
 RMSU=  1.16D-05    CP:  1.00D+00
 FoFJK:  IHMeth= 1 ICntrl=     0 DoSepK=T KAlg= 1 I1Cent= 0 FoldK=F
 E= -2753.43565075761     Delta-E=       -0.000000463084 Rises=F Damp=F
 DIIS: error= 2.86D-06 at cycle   2 NSaved=   2.
 NSaved= 2 IEnMin= 2 EnMin= -2753.43565075761     IErMin= 2 ErrMin= 2.86D-06
 ErrMax= 2.86D-06 EMaxC= 1.00D-01 BMatC= 2.74D-09 BMatP= 5.16D-06
 IDIUse=1 WtCom= 1.00D+00 WtEn= 0.00D+00
 Coeff-Com: -0.641D-02 0.101D+01
 Coeff:     -0.641D-02 0.101D+01
 Gap=     0.530 Goal=   None    Shift=    0.000
 RMSDP=1.40D-06 MaxDP=5.17D-05 DE=-4.63D-07 OVMax= 3.87D-05

 Cycle   3  Pass 1  IDiag  1:
 RMSU=  4.89D-07    CP:  1.00D+00  1.07D+00
 FoFJK:  IHMeth= 1 ICntrl=     0 DoSepK=T KAlg= 1 I1Cent= 0 FoldK=F
 E= -2753.43565076231     Delta-E=       -0.000000004701 Rises=F Damp=F
 DIIS: error= 4.40D-07 at cycle   3 NSaved=   3.
 NSaved= 3 IEnMin= 3 EnMin= -2753.43565076231     IErMin= 3 ErrMin= 4.40D-07
 ErrMax= 4.40D-07 EMaxC= 1.00D-01 BMatC= 7.78D-11 BMatP= 2.74D-09
 IDIUse=1 WtCom= 1.00D+00 WtEn= 0.00D+00
 Coeff-Com:  0.195D-03-0.104D+00 0.110D+01
 Coeff:      0.195D-03-0.104D+00 0.110D+01
 Gap=     0.530 Goal=   None    Shift=    0.000
 RMSDP=1.63D-07 MaxDP=6.08D-06 DE=-4.70D-09 OVMax= 7.73D-06

 Cycle   4  Pass 1  IDiag  1:
 RMSU=  5.31D-08    CP:  1.00D+00  1.08D+00  1.18D+00
 FoFJK:  IHMeth= 1 ICntrl=     0 DoSepK=T KAlg= 1 I1Cent= 0 FoldK=F
 E= -2753.43565076246     Delta-E=       -0.000000000143 Rises=F Damp=F
 DIIS: error= 2.96D-07 at cycle   4 NSaved=   4.
 NSaved= 4 IEnMin= 4 EnMin= -2753.43565076246     IErMin= 4 ErrMin= 2.96D-07
 ErrMax= 2.96D-07 EMaxC= 1.00D-01 BMatC= 1.24D-11 BMatP= 7.78D-11
 IDIUse=1 WtCom= 1.00D+00 WtEn= 0.00D+00
 Coeff-Com:  0.185D-03-0.527D-01 0.331D+00 0.722D+00
 Coeff:      0.185D-03-0.527D-01 0.331D+00 0.722D+00
 Gap=     0.530 Goal=   None    Shift=    0.000
 RMSDP=1.87D-08 MaxDP=7.76D-07 DE=-1.43D-10 OVMax= 8.98D-07

 Cycle   5  Pass 1  IDiag  1:
 RMSU=  9.35D-09    CP:  1.00D+00  1.08D+00  1.19D+00  1.11D+00
 FoFJK:  IHMeth= 1 ICntrl=     0 DoSepK=T KAlg= 1 I1Cent= 0 FoldK=F
 E= -2753.43565076246     Delta-E=       -0.000000000003 Rises=F Damp=F
 DIIS: error= 3.42D-08 at cycle   5 NSaved=   5.
 NSaved= 5 IEnMin= 5 EnMin= -2753.43565076246     IErMin= 5 ErrMin= 3.42D-08
 ErrMax= 3.42D-08 EMaxC= 1.00D-01 BMatC= 1.99D-13 BMatP= 1.24D-11
 IDIUse=1 WtCom= 1.00D+00 WtEn= 0.00D+00
 Coeff-Com:  0.347D-05 0.171D-02-0.300D-01 0.208D-01 0.101D+01
 Coeff:      0.347D-05 0.171D-02-0.300D-01 0.208D-01 0.101D+01
 Gap=     0.530 Goal=   None    Shift=    0.000
 RMSDP=8.46D-09 MaxDP=5.02D-07 DE=-2.73D-12 OVMax= 3.18D-07

 SCF Done:  E(RLC-wPBE) =  -2753.43565076     A.U. after    5 cycles
             Convg  =    0.8463D-08             -V/T =  2.0014
 KE= 2.749528221203D+03 PE=-6.578941115971D+03 EE= 1.075977244006D+03
 Leave Link  502 at Tue May 12 17:33:19 2020, MaxMem= 1073741824 cpu:      96.4
 (Enter /home/matheus/.gaussian/g09/l122.exe)
 Restoring MOs from calculation   4 to rwf.
 Counterpoise: doing MCBS calculation for fragment   1
 Leave Link  122 at Tue May 12 17:33:19 2020, MaxMem= 1073741824 cpu:       0.0
 (Enter /home/matheus/.gaussian/g09/l301.exe)
 Basis read from rwf:  (5D, 7F)
 No pseudopotential information found on rwf file.
 There are   138 symmetry adapted basis functions of A   symmetry.
 Integral buffers will be    131072 words long.
 Raffenetti 2 integral format.
 Two-electron integral symmetry is turned on.
   138 basis functions,   198 primitive gaussians,   160 cartesian basis functions
     9 alpha electrons        9 beta electrons
       nuclear repulsion energy        36.6019262901 Hartrees.
 IExCor=32609 DFT=T Ex+Corr=LC-wPBE ExCW=0 ScaHFX=  1.000000
 ScaDFX=  1.000000  0.000000  1.000000  1.000000 ScalE2=  1.000000  1.000000
 IRadAn=      5 IRanWt=     -1 IRanGd=            0 ICorTp=0
  HFx wShort=  0.000000 wLong=  0.400000 cFull=  0.000000 cShort=  0.000000 cLong=  1.000000
  DFx wShort=  0.000000 wLong=  0.400000 cFull=  0.000000 cShort=  0.000000 cLong=  1.000000
 NAtoms=    5 NActive=    4 NUniq=    4 SFac= 1.00D+00 NAtFMM=   60 NAOKFM=F Big=F
 No density basis found on file   718.
 Leave Link  301 at Tue May 12 17:33:19 2020, MaxMem= 1073741824 cpu:       0.2
 (Enter /home/matheus/.gaussian/g09/l302.exe)
 NPDir=0 NMtPBC=     1 NCelOv=     1 NCel=       1 NClECP=     1 NCelD=      1
         NCelK=      1 NCelE2=     1 NClLst=     1 CellRange=     0.0.
 One-electron integrals computed using PRISM.
 NBasis=   138 RedAO= T  NBF=   138
 NBsUse=   138 1.00D-06 NBFU=   138
 Precomputing XC quadrature grid using
 IXCGrd= 2 IRadAn=           5 IRanWt=          -1 IRanGd=           0 AccXCQ= 0.00D+00.
 NRdTot=     344 NPtTot=       92556 NUsed=       95038 NTot=       95070
 NSgBfM=   160   160   160   160   160 NAtAll=     4     4.
 Leave Link  302 at Tue May 12 17:33:19 2020, MaxMem= 1073741824 cpu:       0.8
 (Enter /home/matheus/.gaussian/g09/l303.exe)
 DipDrv:  MaxL=1.
 Leave Link  303 at Tue May 12 17:33:19 2020, MaxMem= 1073741824 cpu:       0.1
 (Enter /home/matheus/.gaussian/g09/l401.exe)
 Initial guess read from the read-write file.
 Guess basis will be translated and rotated to current coordinates.
 Initial guess orbital symmetries:
       Occupied  (A) (A) (A) (A) (A) (A) (A) (A) (A)
       Virtual   (A) (A) (A) (A) (A) (A) (A) (A) (A) (A) (A) (A)
                 (A) (A) (A) (A) (A) (A) (A) (A) (A) (A) (A) (A)
                 (A) (A) (A) (A) (A) (A) (A) (A) (A) (A) (A) (A)
                 (A) (A) (A) (A) (A) (A) (A) (A) (A) (A) (A) (A)
                 (A) (A) (A) (A) (A) (A) (A) (A) (A) (A) (A) (A)
                 (A) (A) (A) (A) (A) (A) (A) (A) (A) (A) (A) (A)
                 (A) (A) (A) (A) (A) (A) (A) (A) (A) (A) (A) (A)
                 (A) (A) (A) (A) (A) (A) (A) (A) (A) (A) (A) (A)
                 (A) (A) (A) (A) (A) (A) (A) (A) (A) (A) (A) (A)
                 (A) (A) (A) (A) (A) (A) (A) (A) (A) (A) (A) (A)
                 (A) (A) (A) (A) (A) (A) (A) (A) (A)
 The electronic state of the initial guess is 1-A.
 Generating alternative initial guess.
 Harris functional with IExCor=32609 diagonalized for initial guess.
 ExpMin= 2.53D-02 ExpMax= 1.53D+04 ExpMxC= 5.22D+02 IAcc=3 IRadAn=         5 AccDes= 0.00D+00
 HarFok:  IExCor=32609 AccDes= 0.00D+00 IRadAn=         5 IDoV= 1
 ScaDFX=  1.000000  1.000000  1.000000  1.000000
 FoFCou: FMM=F IPFlag=           0 FMFlag=      100000 FMFlg1=           0
         NFxFlg=           0 DoJE=T BraDBF=F KetDBF=T FulRan=T
         Omega=  0.000000  0.000000  1.000000  0.000000  0.000000 ICntrl=     500 IOpCl=  0
         NMat0=    1 NMatS0=    1 NMatT0=    0 NMatD0=    1 NMtDS0=    0 NMtDT0=    0
         I1Cent=           4 NGrid=           0.
 Petite list used in FoFCou.
 Harris En= -151.499868392319    
 Leave Link  401 at Tue May 12 17:33:19 2020, MaxMem= 1073741824 cpu:       2.4
 (Enter /home/matheus/.gaussian/g09/l502.exe)
 Closed shell SCF:
 Requested convergence on RMS density matrix=1.00D-08 within 128 cycles.
 Requested convergence on MAX density matrix=1.00D-06.
 Requested convergence on             energy=1.00D-06.
 No special actions if energy rises.
 Using DIIS extrapolation, IDIIS=  1040.
 Integral symmetry usage will be decided dynamically.
        94980 words used for storage of precomputed grid.
 IEnd=      192360 IEndB=      192360 NGot=  1073741824 MDV=  1073591865
 LenX=  1073591865 LenY=  1073565824
 Fock matrices will be formed incrementally for  20 cycles.

 Cycle   1  Pass 1  IDiag  1:
 FoFJK:  IHMeth= 1 ICntrl=     0 DoSepK=T KAlg= 1 I1Cent= 0 FoldK=F
 FoFCou: FMM=F IPFlag=           0 FMFlag=      100000 FMFlg1=           0
         NFxFlg=           0 DoJE=T BraDBF=F KetDBF=F FulRan=T
         Omega=  0.000000  0.000000  1.000000  0.000000  0.000000 ICntrl=     500 IOpCl=  0
         NMat0=    1 NMatS0=    1 NMatT0=    0 NMatD0=    1 NMtDS0=    0 NMtDT0=    0
         I1Cent=           0 NGrid=           0.
 Symmetry not used in FoFCou.
 E= -151.522077281077    
 DIIS: error= 2.69D-05 at cycle   1 NSaved=   1.
 NSaved= 1 IEnMin= 1 EnMin= -151.522077281077     IErMin= 1 ErrMin= 2.69D-05
 ErrMax= 2.69D-05 EMaxC= 1.00D-01 BMatC= 5.11D-08 BMatP= 5.11D-08
 IDIUse=1 WtCom= 1.00D+00 WtEn= 0.00D+00
 Coeff-Com:  0.100D+01
 Coeff:      0.100D+01
 Gap=     0.420 Goal=   None    Shift=    0.000
 RMSDP=1.06D-06 MaxDP=2.02D-05              OVMax= 8.47D-05

 Cycle   2  Pass 1  IDiag  1:
 RMSU=  7.47D-07    CP:  1.00D+00
 FoFJK:  IHMeth= 1 ICntrl=     0 DoSepK=T KAlg= 1 I1Cent= 0 FoldK=F
 E= -151.522077323541     Delta-E=       -0.000000042464 Rises=F Damp=F
 DIIS: error= 4.46D-06 at cycle   2 NSaved=   2.
 NSaved= 2 IEnMin= 2 EnMin= -151.522077323541     IErMin= 2 ErrMin= 4.46D-06
 ErrMax= 4.46D-06 EMaxC= 1.00D-01 BMatC= 1.64D-09 BMatP= 5.11D-08
 IDIUse=1 WtCom= 1.00D+00 WtEn= 0.00D+00
 Coeff-Com: -0.110D+00 0.111D+01
 Coeff:     -0.110D+00 0.111D+01
 Gap=     0.420 Goal=   None    Shift=    0.000
 RMSDP=3.64D-07 MaxDP=6.64D-06 DE=-4.25D-08 OVMax= 3.39D-05

 Cycle   3  Pass 1  IDiag  1:
 RMSU=  1.48D-07    CP:  1.00D+00  1.28D+00
 FoFJK:  IHMeth= 1 ICntrl=     0 DoSepK=T KAlg= 1 I1Cent= 0 FoldK=F
 E= -151.522077327309     Delta-E=       -0.000000003767 Rises=F Damp=F
 DIIS: error= 1.29D-06 at cycle   3 NSaved=   3.
 NSaved= 3 IEnMin= 3 EnMin= -151.522077327309     IErMin= 3 ErrMin= 1.29D-06
 ErrMax= 1.29D-06 EMaxC= 1.00D-01 BMatC= 1.62D-10 BMatP= 1.64D-09
 IDIUse=1 WtCom= 1.00D+00 WtEn= 0.00D+00
 Coeff-Com: -0.162D-01-0.366D-01 0.105D+01
 Coeff:     -0.162D-01-0.366D-01 0.105D+01
 Gap=     0.420 Goal=   None    Shift=    0.000
 RMSDP=1.27D-07 MaxDP=2.47D-06 DE=-3.77D-09 OVMax= 1.19D-05

 Cycle   4  Pass 1  IDiag  1:
 RMSU=  4.99D-08    CP:  1.00D+00  1.36D+00  1.31D+00
 FoFJK:  IHMeth= 1 ICntrl=     0 DoSepK=T KAlg= 1 I1Cent= 0 FoldK=F
 E= -151.522077327641     Delta-E=       -0.000000000333 Rises=F Damp=F
 DIIS: error= 8.17D-07 at cycle   4 NSaved=   4.
 NSaved= 4 IEnMin= 4 EnMin= -151.522077327641     IErMin= 4 ErrMin= 8.17D-07
 ErrMax= 8.17D-07 EMaxC= 1.00D-01 BMatC= 7.76D-11 BMatP= 1.62D-10
 IDIUse=1 WtCom= 1.00D+00 WtEn= 0.00D+00
 Coeff-Com:  0.819D-02-0.178D+00 0.464D+00 0.705D+00
 Coeff:      0.819D-02-0.178D+00 0.464D+00 0.705D+00
 Gap=     0.420 Goal=   None    Shift=    0.000
 RMSDP=5.20D-08 MaxDP=1.71D-06 DE=-3.33D-10 OVMax= 3.91D-06

 Cycle   5  Pass 1  IDiag  1:
 RMSU=  1.45D-08    CP:  1.00D+00  1.38D+00  1.51D+00  8.05D-01
 FoFJK:  IHMeth= 1 ICntrl=     0 DoSepK=T KAlg= 1 I1Cent= 0 FoldK=F
 E= -151.522077327713     Delta-E=       -0.000000000072 Rises=F Damp=F
 DIIS: error= 1.66D-07 at cycle   5 NSaved=   5.
 NSaved= 5 IEnMin= 5 EnMin= -151.522077327713     IErMin= 5 ErrMin= 1.66D-07
 ErrMax= 1.66D-07 EMaxC= 1.00D-01 BMatC= 4.18D-12 BMatP= 7.76D-11
 IDIUse=1 WtCom= 1.00D+00 WtEn= 0.00D+00
 Coeff-Com:  0.367D-02-0.536D-01 0.685D-01 0.211D+00 0.770D+00
 Coeff:      0.367D-02-0.536D-01 0.685D-01 0.211D+00 0.770D+00
 Gap=     0.420 Goal=   None    Shift=    0.000
 RMSDP=1.37D-08 MaxDP=3.30D-07 DE=-7.21D-11 OVMax= 9.67D-07

 Cycle   6  Pass 1  IDiag  1:
 RMSU=  7.02D-09    CP:  1.00D+00  1.38D+00  1.54D+00  8.76D-01  1.06D+00
 FoFJK:  IHMeth= 1 ICntrl=     0 DoSepK=T KAlg= 1 I1Cent= 0 FoldK=F
 E= -151.522077327718     Delta-E=       -0.000000000005 Rises=F Damp=F
 DIIS: error= 9.29D-08 at cycle   6 NSaved=   6.
 NSaved= 6 IEnMin= 6 EnMin= -151.522077327718     IErMin= 6 ErrMin= 9.29D-08
 ErrMax= 9.29D-08 EMaxC= 1.00D-01 BMatC= 1.44D-12 BMatP= 4.18D-12
 IDIUse=1 WtCom= 1.00D+00 WtEn= 0.00D+00
 Coeff-Com:  0.166D-03 0.944D-02-0.593D-01-0.388D-01 0.387D+00 0.702D+00
 Coeff:      0.166D-03 0.944D-02-0.593D-01-0.388D-01 0.387D+00 0.702D+00
 Gap=     0.420 Goal=   None    Shift=    0.000
 RMSDP=6.77D-09 MaxDP=1.03D-07 DE=-5.12D-12 OVMax= 5.40D-07

 SCF Done:  E(RLC-wPBE) =  -151.522077328     A.U. after    6 cycles
             Convg  =    0.6768D-08             -V/T =  2.0068
 KE= 1.504972685916D+02 PE=-4.315001557785D+02 EE= 9.287888356903D+01
 Leave Link  502 at Tue May 12 17:33:26 2020, MaxMem= 1073741824 cpu:      49.1
 (Enter /home/matheus/.gaussian/g09/l122.exe)
 Restoring MOs from calculation   5 to rwf.
 Counterpoise: doing MCBS calculation for fragment   2
 Leave Link  122 at Tue May 12 17:33:26 2020, MaxMem= 1073741824 cpu:       0.0
 (Enter /home/matheus/.gaussian/g09/l301.exe)
 Basis read from rwf:  (5D, 7F)
 No pseudopotential information found on rwf file.
 There are    59 symmetry adapted basis functions of A   symmetry.
 Integral buffers will be    131072 words long.
 Raffenetti 2 integral format.
 Two-electron integral symmetry is turned on.
    59 basis functions,   217 primitive gaussians,    69 cartesian basis functions
    18 alpha electrons       18 beta electrons
       nuclear repulsion energy         0.0000000000 Hartrees.
 IExCor=32609 DFT=T Ex+Corr=LC-wPBE ExCW=0 ScaHFX=  1.000000
 ScaDFX=  1.000000  0.000000  1.000000  1.000000 ScalE2=  1.000000  1.000000
 IRadAn=      5 IRanWt=     -1 IRanGd=            0 ICorTp=0
  HFx wShort=  0.000000 wLong=  0.400000 cFull=  0.000000 cShort=  0.000000 cLong=  1.000000
  DFx wShort=  0.000000 wLong=  0.400000 cFull=  0.000000 cShort=  0.000000 cLong=  1.000000
 NAtoms=    5 NActive=    1 NUniq=    1 SFac= 1.00D+00 NAtFMM=   60 NAOKFM=F Big=F
 No density basis found on file   718.
 Leave Link  301 at Tue May 12 17:33:26 2020, MaxMem= 1073741824 cpu:       0.2
 (Enter /home/matheus/.gaussian/g09/l302.exe)
 NPDir=0 NMtPBC=     1 NCelOv=     1 NCel=       1 NClECP=     1 NCelD=      1
         NCelK=      1 NCelE2=     1 NClLst=     1 CellRange=     0.0.
 One-electron integrals computed using PRISM.
 NBasis=    59 RedAO= T  NBF=    59
 NBsUse=    59 1.00D-06 NBFU=    59
 Precomputing XC quadrature grid using
 IXCGrd= 2 IRadAn=           5 IRanWt=          -1 IRanGd=           0 AccXCQ= 0.00D+00.
 NRdTot=      81 NPtTot=       30352 NUsed=       30981 NTot=       31013
 NSgBfM=    69    69    69    69    69 NAtAll=     1     1.
 Leave Link  302 at Tue May 12 17:33:26 2020, MaxMem= 1073741824 cpu:       0.7
 (Enter /home/matheus/.gaussian/g09/l303.exe)
 DipDrv:  MaxL=1.
 Leave Link  303 at Tue May 12 17:33:26 2020, MaxMem= 1073741824 cpu:       0.2
 (Enter /home/matheus/.gaussian/g09/l401.exe)
 Initial guess read from the read-write file.
 Guess basis will be translated and rotated to current coordinates.
 Initial guess orbital symmetries:
       Occupied  (A) (A) (A) (A) (A) (A) (A) (A) (A) (A) (A) (A)
                 (A) (A) (A) (A) (A) (A)
       Virtual   (A) (A) (A) (A) (A) (A) (A) (A) (A) (A) (A) (A)
                 (A) (A) (A) (A) (A) (A) (A) (A) (A) (A) (A) (A)
                 (A) (A) (A) (A) (A) (A) (A) (A) (A) (A) (A) (A)
                 (A) (A) (A) (A) (A)
 The electronic state of the initial guess is 1-A.
 Generating alternative initial guess.
 Harris functional with IExCor=32609 diagonalized for initial guess.
 ExpMin= 4.00D-02 ExpMax= 1.17D+07 ExpMxC= 1.33D+04 IAcc=3 IRadAn=         5 AccDes= 0.00D+00
 HarFok:  IExCor=32609 AccDes= 0.00D+00 IRadAn=         5 IDoV= 1
 ScaDFX=  1.000000  1.000000  1.000000  1.000000
 FoFCou: FMM=F IPFlag=           0 FMFlag=      100000 FMFlg1=           0
         NFxFlg=           0 DoJE=T BraDBF=F KetDBF=T FulRan=T
         Omega=  0.000000  0.000000  1.000000  0.000000  0.000000 ICntrl=     500 IOpCl=  0
         NMat0=    1 NMatS0=    1 NMatT0=    0 NMatD0=    1 NMtDS0=    0 NMtDT0=    0
         I1Cent=           4 NGrid=           0.
 Petite list used in FoFCou.
 DSYEVD returned Info=          89 IAlg= 4 N=    59 NDim=    59 NE2=    18198841 trying DSYEV.
 Harris En= -2753.24576836237    
 Leave Link  401 at Tue May 12 17:33:26 2020, MaxMem= 1073741824 cpu:       1.1
 (Enter /home/matheus/.gaussian/g09/l502.exe)
 Closed shell SCF:
 Requested convergence on RMS density matrix=1.00D-08 within 128 cycles.
 Requested convergence on MAX density matrix=1.00D-06.
 Requested convergence on             energy=1.00D-06.
 No special actions if energy rises.
 Using DIIS extrapolation, IDIIS=  1040.
 Integral symmetry usage will be decided dynamically.
        30923 words used for storage of precomputed grid.
 IEnd=       64406 IEndB=       64406 NGot=  1073741824 MDV=  1073698889
 LenX=  1073698889 LenY=  1073693687
 Fock matrices will be formed incrementally for  20 cycles.

 Cycle   1  Pass 1  IDiag  1:
 FoFJK:  IHMeth= 1 ICntrl=     0 DoSepK=T KAlg= 1 I1Cent= 0 FoldK=F
 FoFCou: FMM=F IPFlag=           0 FMFlag=      100000 FMFlg1=           0
         NFxFlg=           0 DoJE=T BraDBF=F KetDBF=F FulRan=T
         Omega=  0.000000  0.000000  1.000000  0.000000  0.000000 ICntrl=     500 IOpCl=  0
         NMat0=    1 NMatS0=    1 NMatT0=    0 NMatD0=    1 NMtDS0=    0 NMtDT0=    0
         I1Cent=           0 NGrid=           0.
 Symmetry not used in FoFCou.
 E= -2753.43563276534    
 DIIS: error= 1.36D-13 at cycle   1 NSaved=   1.
 NSaved= 1 IEnMin= 1 EnMin= -2753.43563276534     IErMin= 1 ErrMin= 1.36D-13
 ErrMax= 1.36D-13 EMaxC= 1.00D-01 BMatC= 3.53D-25 BMatP= 3.53D-25
 IDIUse=1 WtCom= 1.00D+00 WtEn= 0.00D+00
 Coeff-Com:  0.100D+01
 Coeff:      0.100D+01
 Gap=     0.599 Goal=   None    Shift=    0.000
 DSYEVD returned Info=          89 IAlg= 4 N=    59 NDim=    59 NE2=    18198197 trying DSYEV.
 RMSDP=6.90D-15 MaxDP=1.51D-13              OVMax= 2.07D-14

 SCF Done:  E(RLC-wPBE) =  -2753.43563277     A.U. after    1 cycles
             Convg  =    0.6902D-14             -V/T =  2.0014
 KE= 2.749535160915D+03 PE=-6.578948648680D+03 EE= 1.075977855000D+03
 Leave Link  502 at Tue May 12 17:33:28 2020, MaxMem= 1073741824 cpu:      12.4
 (Enter /home/matheus/.gaussian/g09/l122.exe)
 Restoring MOs from calculation   1 to rwf.
 Counterpoise: corrected energy =   -2904.957735193105
 Counterpoise: BSSE energy =       0.000022195111
 Leave Link  122 at Tue May 12 17:33:28 2020, MaxMem= 1073741824 cpu:       0.0
 (Enter /home/matheus/.gaussian/g09/l108.exe)
 Scan completed.

 Summary of the potential surface scan:
   N      R1          SCF    
 ----  ---------  -----------
    1     3.0000  -2753.43563
    2     3.1000  -2753.43563
    3     3.2000  -2753.43563
    4     3.3000  -2753.43563
    5     3.4000  -2753.43563
    6     3.5000  -2753.43563
    7     3.6000  -2753.43563
    8     3.7000  -2753.43563
    9     3.8000  -2753.43563
   10     3.9000  -2753.43563
   11     4.0000  -2753.43563
   12     4.1000  -2753.43563
   13     4.2000  -2753.43563
   14     4.3000  -2753.43563
   15     4.4000  -2753.43563
   16     4.5000  -2753.43563
   17     4.6000  -2753.43563
   18     4.7000  -2753.43563
   19     4.8000  -2753.43563
   20     4.9000  -2753.43563
   21     5.0000  -2753.43563
 ----  ---------  -----------
  
 Leave Link  108 at Tue May 12 17:33:28 2020, MaxMem= 1073741824 cpu:       0.0
 (Enter /home/matheus/.gaussian/g09/l9999.exe)
 1\1\GINC-REDGIANT\Scan\RLC-wPBE\Aug-CC-pVTZ\H2Kr1O2\MATHEUS\12-May-202
 0\1\\#p lc-wpbe/aug-cc-PVTz int=ultrafine counterpoise=2 Scan\\TCC\\0,
 1\O,0,0.,0.,0.725\O,0,0.,0.,-0.725\H,0,-0.3142209495,-0.8633149634,1.0
 235104166\H,0,0.,0.9187205947,-1.0235104166\Kr,0,0.,R1,0.\\R1=3.,s,20,
 0.1\\Version=EM64L-G09RevC.01\State=1-A\HF=-2753.4356328,-2753.4356328
 ,-2753.4356328,-2753.4356328,-2753.4356328,-2753.4356328,-2753.4356328
 ,-2753.4356328,-2753.4356328,-2753.4356328,-2753.4356328,-2753.4356328
 ,-2753.4356328,-2753.4356328,-2753.4356328,-2753.4356328,-2753.4356328
 ,-2753.4356328,-2753.4356328,-2753.4356328,-2753.4356328\RMSD=1.428e-0
 9,5.221e-11,1.075e-11,2.471e-12,6.352e-13,1.640e-13,3.980e-14,1.404e-1
 4,8.084e-15,1.502e-14,8.205e-15,1.700e-14,1.483e-14,3.063e-15,8.982e-1
 5,6.590e-15,3.827e-15,4.399e-15,5.533e-15,7.396e-15,6.902e-15\PG=C01 [
 X(H2Kr1O2)]\\@


 LIFE IS SO UNCERTAIN - EAT DESSERT FIRST.
 Job cpu time:  0 days  3 hours 17 minutes  9.5 seconds.
 File lengths (MBytes):  RWF=     33 Int=      0 D2E=      0 Chk=      8 Scr=      1
 Normal termination of Gaussian 09 at Tue May 12 17:33:28 2020.
