 Entering Gaussian System, Link 0=g09
 Input=/home/matheus/.tcc/Inputs/Inputs-lc-wpbe-default/H2O2-Kr_19.com
 Output=/home/matheus/.tcc/Logs/Logs-lc-wpbe-default/H2O2-Kr_19.log
 Initial command:
 /home/matheus/.gaussian/g09/l1.exe /home/matheus/.gaussian/g09/scratch/Gau-29941.inp -scrdir=/home/matheus/.gaussian/g09/scratch/
 Entering Link 1 = /home/matheus/.gaussian/g09/l1.exe PID=     29945.
  
 Copyright (c) 1988,1990,1992,1993,1995,1998,2003,2009,2011,
            Gaussian, Inc.  All Rights Reserved.
  
 This is part of the Gaussian(R) 09 program.  It is based on
 the Gaussian(R) 03 system (copyright 2003, Gaussian, Inc.),
 the Gaussian(R) 98 system (copyright 1998, Gaussian, Inc.),
 the Gaussian(R) 94 system (copyright 1995, Gaussian, Inc.),
 the Gaussian 92(TM) system (copyright 1992, Gaussian, Inc.),
 the Gaussian 90(TM) system (copyright 1990, Gaussian, Inc.),
 the Gaussian 88(TM) system (copyright 1988, Gaussian, Inc.),
 the Gaussian 86(TM) system (copyright 1986, Carnegie Mellon
 University), and the Gaussian 82(TM) system (copyright 1983,
 Carnegie Mellon University). Gaussian is a federally registered
 trademark of Gaussian, Inc.
  
 This software contains proprietary and confidential information,
 including trade secrets, belonging to Gaussian, Inc.
  
 This software is provided under written license and may be
 used, copied, transmitted, or stored only in accord with that
 written license.
  
 The following legend is applicable only to US Government
 contracts under FAR:
  
                    RESTRICTED RIGHTS LEGEND
  
 Use, reproduction and disclosure by the US Government is
 subject to restrictions as set forth in subparagraphs (a)
 and (c) of the Commercial Computer Software - Restricted
 Rights clause in FAR 52.227-19.
  
 Gaussian, Inc.
 340 Quinnipiac St., Bldg. 40, Wallingford CT 06492
  
  
 ---------------------------------------------------------------
 Warning -- This program may not be used in any manner that
 competes with the business of Gaussian, Inc. or will provide
 assistance to any competitor of Gaussian, Inc.  The licensee
 of this program is prohibited from giving any competitor of
 Gaussian, Inc. access to this program.  By using this program,
 the user acknowledges that Gaussian, Inc. is engaged in the
 business of creating and licensing software in the field of
 computational chemistry and represents and warrants to the
 licensee that it is not a competitor of Gaussian, Inc. and that
 it will not use this program in any manner prohibited above.
 ---------------------------------------------------------------
  

 Cite this work as:
 Gaussian 09, Revision C.01,
 M. J. Frisch, G. W. Trucks, H. B. Schlegel, G. E. Scuseria, 
 M. A. Robb, J. R. Cheeseman, G. Scalmani, V. Barone, B. Mennucci, 
 G. A. Petersson, H. Nakatsuji, M. Caricato, X. Li, H. P. Hratchian, 
 A. F. Izmaylov, J. Bloino, G. Zheng, J. L. Sonnenberg, M. Hada, 
 M. Ehara, K. Toyota, R. Fukuda, J. Hasegawa, M. Ishida, T. Nakajima, 
 Y. Honda, O. Kitao, H. Nakai, T. Vreven, J. A. Montgomery, Jr., 
 J. E. Peralta, F. Ogliaro, M. Bearpark, J. J. Heyd, E. Brothers, 
 K. N. Kudin, V. N. Staroverov, T. Keith, R. Kobayashi, J. Normand, 
 K. Raghavachari, A. Rendell, J. C. Burant, S. S. Iyengar, J. Tomasi, 
 M. Cossi, N. Rega, J. M. Millam, M. Klene, J. E. Knox, J. B. Cross, 
 V. Bakken, C. Adamo, J. Jaramillo, R. Gomperts, R. E. Stratmann, 
 O. Yazyev, A. J. Austin, R. Cammi, C. Pomelli, J. W. Ochterski, 
 R. L. Martin, K. Morokuma, V. G. Zakrzewski, G. A. Voth, 
 P. Salvador, J. J. Dannenberg, S. Dapprich, A. D. Daniels, 
 O. Farkas, J. B. Foresman, J. V. Ortiz, J. Cioslowski, 
 and D. J. Fox, Gaussian, Inc., Wallingford CT, 2010.
 
 ******************************************
 Gaussian 09:  EM64L-G09RevC.01 23-Sep-2011
                12-May-2020 
 ******************************************
 %mem=8GB
 %nproc=8
 Will use up to    8 processors via shared memory.
 --------------------------------------------------------
 #p lc-wpbe/aug-cc-PVTz int=ultrafine counterpoise=2 Scan
 --------------------------------------------------------
 1/38=1,60=1,62=2/1,8;
 2/12=2,17=6,18=5,29=3,40=1/2;
 1/38=1,53=5172,62=2/22;
 3/5=16,6=1,7=10,11=2,16=1,25=1,30=1,74=-41,75=-5/1,2,3;
 4//1;
 5/5=2,38=5/2;
 6/7=2,8=2,9=2,10=2,18=1,28=1/1;
 1/53=4052,62=2,63=1/22;
 3/5=7,6=11,7=10,11=2,16=1,25=1,30=1,74=-41,75=-5,82=7/1,2,3;
 4//1;
 5/5=2,38=5/2;
 6/7=2,8=2,9=2,10=2,18=1,28=1/1;
 1/53=3042,62=2,63=2/22;
 3/5=7,6=11,7=10,11=2,16=1,25=1,30=1,74=-41,75=-5,82=7/1,2,3;
 4//1;
 5/5=2,38=5/2;
 6/7=2,8=2,9=2,10=2,18=1,28=1/1;
 1/53=2032,62=2,63=3/22;
 3/5=7,6=11,7=10,11=2,16=1,25=1,30=1,74=-41,75=-5,82=7/1,2,3;
 4//1;
 5/5=2,38=5/2;
 6/7=2,8=2,9=2,10=2,18=1,28=1/1;
 1/53=1022,62=2,63=4/22;
 3/5=7,6=11,7=10,11=2,16=1,25=1,30=1,74=-41,75=-5,82=7/1,2,3;
 4//1;
 5/5=2,38=5/2;
 6/7=2,8=2,9=2,10=2,18=1,28=1/1;
 1/53=5014,62=2,63=5/22;
 1/60=1,62=2/8(1);
 99/9=1/99;
 2/29=3/2;
 1/53=5173,62=2/22;
 3/5=7,6=11,7=10,11=2,16=1,25=1,30=1,74=-41,75=-5,82=7/1,2,3;
 4/5=5,16=3/1;
 5/5=2,38=5/2;
 1/53=4053,62=2,63=1/22;
 3/5=7,6=11,7=10,11=2,16=1,25=1,30=1,74=-41,75=-5,82=7/1,2,3;
 4/5=5,16=3/1;
 5/5=2,38=5/2;
 1/53=3043,62=2,63=2/22;
 3/5=7,6=11,7=10,11=2,16=1,25=1,30=1,74=-41,75=-5,82=7/1,2,3;
 4/5=5,16=3/1;
 5/5=2,38=5/2;
 1/53=2033,62=2,63=3/22;
 3/5=7,6=11,7=10,11=2,16=1,25=1,30=1,74=-41,75=-5,82=7/1,2,3;
 4/5=5,16=3/1;
 5/5=2,38=5/2;
 1/53=1024,62=2,63=4/22;
 3/5=7,6=11,7=10,11=2,16=1,25=1,30=1,74=-41,75=-5,82=7/1,2,3;
 4/5=5,16=3/1;
 5/5=2,38=5/2;
 1/53=5014,62=2,63=5/22;
 1/60=1,62=2/8(-22);
 99/9=1/99;
 Leave Link    1 at Tue May 12 16:44:03 2020, MaxMem= 1073741824 cpu:       0.2
 (Enter /home/matheus/.gaussian/g09/l101.exe)
 ---
 TCC
 ---
 Charge =  0 Multiplicity = 1 in supermolecule
 Charge =  0 Multiplicity = 1 in fragment  1.
 Charge =  0 Multiplicity = 1 in fragment  2.
 Symbolic Z-Matrix:
 O(Fragment=1)         0.        0.        0.725 
 O(Fragment=1)         0.        0.       -0.725 
 H(Fragment=1)        -0.15953  -0.90476   1.02351 
 H(Fragment=1)         0.        0.91872  -1.02351 
 Kr(Fragment=2)        0.       R1        0. 
       Variables:
  R1                    3.     Scan 20    0.1    
 
 NAtoms=      5 NQM=        0 NQMF=       0 NMMI=      5 NMMIF=      0
                NMic=       0 NMicF=      0.
                    Isotopes and Nuclear Properties:
 (Nuclear quadrupole moments (NQMom) in fm**2, nuclear magnetic moments (NMagM)
  in nuclear magnetons)

  Atom         1           2           3           4           5
 IAtWgt=          16          16           1           1          84
 AtmWgt=  15.9949146  15.9949146   1.0078250   1.0078250  83.9115064
 NucSpn=           0           0           1           1           0
 AtZEff=   0.0000000   0.0000000   0.0000000   0.0000000   0.0000000
 NQMom=    0.0000000   0.0000000   0.0000000   0.0000000   0.0000000
 NMagM=    0.0000000   0.0000000   2.7928460   2.7928460   0.0000000
 Leave Link  101 at Tue May 12 16:44:03 2020, MaxMem= 1073741824 cpu:       0.4
 (Enter /home/matheus/.gaussian/g09/l108.exe)
 Scan the potential surface.
 Variable   Value     No. Steps Step-Size
 -------- ----------- --------- ---------
     1       3.000000      20      0.1000
 A total of     21 points will be computed.
 Leave Link  108 at Tue May 12 16:44:03 2020, MaxMem= 1073741824 cpu:       0.0
 (Enter /home/matheus/.gaussian/g09/l202.exe)
 ---------------------------------------------------------------------------------------------------
                            Z-MATRIX (ANGSTROMS AND DEGREES)
   CD    Cent   Atom    N1       Length/X        N2       Alpha/Y        N3        Beta/Z          J
 ---------------------------------------------------------------------------------------------------
      1      1  O        0   0.000000          0.000000          0.725000
      2      2  O        0   0.000000          0.000000         -0.725000
      3      3  H        0  -0.159534         -0.904763          1.023510
      4      4  H        0   0.000000          0.918721         -1.023510
      5      5  Kr       0   0.000000          3.000000          0.000000
 ---------------------------------------------------------------------------------------------------
                         Z-Matrix orientation:                         
 ---------------------------------------------------------------------
 Center     Atomic      Atomic             Coordinates (Angstroms)
 Number     Number       Type             X           Y           Z
 ---------------------------------------------------------------------
      1          8           0        0.000000    0.000000    0.725000
      2          8           0        0.000000    0.000000   -0.725000
      3          1           0       -0.159534   -0.904763    1.023510
      4          1           0        0.000000    0.918721   -1.023510
      5         36           0        0.000000    3.000000    0.000000
 ---------------------------------------------------------------------
                    Distance matrix (angstroms):
                    1          2          3          4          5
     1  O    0.000000
     2  O    1.450000   0.000000
     3  H    0.966000   1.975180   0.000000
     4  H    1.975180   0.966000   2.746059   0.000000
     5  Kr   3.086361   3.086361   4.039827   2.319331   0.000000
 Stoichiometry    H2KrO2
 Framework group  C1[X(H2KrO2)]
 Deg. of freedom     9
 Full point group                 C1      NOp   1
 Largest Abelian subgroup         C1      NOp   1
 Largest concise Abelian subgroup C1      NOp   1
                         Standard orientation:                         
 ---------------------------------------------------------------------
 Center     Atomic      Atomic             Coordinates (Angstroms)
 Number     Number       Type             X           Y           Z
 ---------------------------------------------------------------------
      1          8           0       -2.013524   -0.686962   -0.021683
      2          8           0       -1.986222    0.762620   -0.000129
      3          1           0       -2.924418   -0.970655    0.129799
      4          1           0       -1.062052    1.043690    0.007960
      5         36           0        0.999568   -0.018842    0.001020
 ---------------------------------------------------------------------
 Rotational constants (GHZ):     26.6931850      2.3029701      2.1204694
 Leave Link  202 at Tue May 12 16:44:03 2020, MaxMem= 1073741824 cpu:       0.0
 (Enter /home/matheus/.gaussian/g09/l122.exe)
 Leave Link  122 at Tue May 12 16:44:03 2020, MaxMem= 1073741824 cpu:       0.0
 (Enter /home/matheus/.gaussian/g09/l301.exe)
 Standard basis: Aug-CC-pVTZ (5D, 7F)
 Ernie: Thresh=  0.10000D-02 Tol=  0.10000D-05 Strict=F.
 Ernie:  38 primitive shells out of 205 were deleted.
 There are   197 symmetry adapted basis functions of A   symmetry.
 Integral buffers will be    131072 words long.
 Raffenetti 2 integral format.
 Two-electron integral symmetry is turned on.
   197 basis functions,   415 primitive gaussians,   229 cartesian basis functions
    27 alpha electrons       27 beta electrons
       nuclear repulsion energy       148.2893698349 Hartrees.
 IExCor=32609 DFT=T Ex+Corr=LC-wPBE ExCW=0 ScaHFX=  1.000000
 ScaDFX=  1.000000  0.000000  1.000000  1.000000 ScalE2=  1.000000  1.000000
 IRadAn=      5 IRanWt=     -1 IRanGd=            0 ICorTp=0
  HFx wShort=  0.000000 wLong=  0.400000 cFull=  0.000000 cShort=  0.000000 cLong=  1.000000
  DFx wShort=  0.000000 wLong=  0.400000 cFull=  0.000000 cShort=  0.000000 cLong=  1.000000
 NAtoms=    5 NActive=    5 NUniq=    5 SFac= 1.00D+00 NAtFMM=   60 NAOKFM=F Big=F
 Leave Link  301 at Tue May 12 16:44:03 2020, MaxMem= 1073741824 cpu:       0.2
 (Enter /home/matheus/.gaussian/g09/l302.exe)
 NPDir=0 NMtPBC=     1 NCelOv=     1 NCel=       1 NClECP=     1 NCelD=      1
         NCelK=      1 NCelE2=     1 NClLst=     1 CellRange=     0.0.
 One-electron integrals computed using PRISM.
 NBasis=   197 RedAO= T  NBF=   197
 NBsUse=   197 1.00D-06 NBFU=   197
 Precomputing XC quadrature grid using
 IXCGrd= 2 IRadAn=           5 IRanWt=          -1 IRanGd=           0 AccXCQ= 0.00D+00.
 NRdTot=     427 NPtTot=      123814 NUsed=      126881 NTot=      126913
 NSgBfM=   229   229   229   229   229 NAtAll=     5     5.
 Leave Link  302 at Tue May 12 16:44:03 2020, MaxMem= 1073741824 cpu:       1.0
 (Enter /home/matheus/.gaussian/g09/l303.exe)
 DipDrv:  MaxL=1.
 Leave Link  303 at Tue May 12 16:44:03 2020, MaxMem= 1073741824 cpu:       0.2
 (Enter /home/matheus/.gaussian/g09/l401.exe)
 Harris functional with IExCor=32609 diagonalized for initial guess.
 ExpMin= 2.53D-02 ExpMax= 1.17D+07 ExpMxC= 1.33D+04 IAcc=3 IRadAn=         5 AccDes= 0.00D+00
 HarFok:  IExCor=32609 AccDes= 0.00D+00 IRadAn=         5 IDoV= 1
 ScaDFX=  1.000000  1.000000  1.000000  1.000000
 FoFCou: FMM=F IPFlag=           0 FMFlag=      100000 FMFlg1=           0
         NFxFlg=           0 DoJE=T BraDBF=F KetDBF=T FulRan=T
         Omega=  0.000000  0.000000  1.000000  0.000000  0.000000 ICntrl=     500 IOpCl=  0
         NMat0=    1 NMatS0=    1 NMatT0=    0 NMatD0=    1 NMtDS0=    0 NMtDT0=    0
         I1Cent=           4 NGrid=           0.
 Petite list used in FoFCou.
 Harris En= -2904.73660851790    
 Initial guess orbital symmetries:
       Occupied  (A) (A) (A) (A) (A) (A) (A) (A) (A) (A) (A) (A)
                 (A) (A) (A) (A) (A) (A) (A) (A) (A) (A) (A) (A)
                 (A) (A) (A)
       Virtual   (A) (A) (A) (A) (A) (A) (A) (A) (A) (A) (A) (A)
                 (A) (A) (A) (A) (A) (A) (A) (A) (A) (A) (A) (A)
                 (A) (A) (A) (A) (A) (A) (A) (A) (A) (A) (A) (A)
                 (A) (A) (A) (A) (A) (A) (A) (A) (A) (A) (A) (A)
                 (A) (A) (A) (A) (A) (A) (A) (A) (A) (A) (A) (A)
                 (A) (A) (A) (A) (A) (A) (A) (A) (A) (A) (A) (A)
                 (A) (A) (A) (A) (A) (A) (A) (A) (A) (A) (A) (A)
                 (A) (A) (A) (A) (A) (A) (A) (A) (A) (A) (A) (A)
                 (A) (A) (A) (A) (A) (A) (A) (A) (A) (A) (A) (A)
                 (A) (A) (A) (A) (A) (A) (A) (A) (A) (A) (A) (A)
                 (A) (A) (A) (A) (A) (A) (A) (A) (A) (A) (A) (A)
                 (A) (A) (A) (A) (A) (A) (A) (A) (A) (A) (A) (A)
                 (A) (A) (A) (A) (A) (A) (A) (A) (A) (A) (A) (A)
                 (A) (A) (A) (A) (A) (A) (A) (A) (A) (A) (A) (A)
                 (A) (A)
 The electronic state of the initial guess is 1-A.
 Leave Link  401 at Tue May 12 16:44:04 2020, MaxMem= 1073741824 cpu:       4.4
 (Enter /home/matheus/.gaussian/g09/l502.exe)
 Closed shell SCF:
 Requested convergence on RMS density matrix=1.00D-08 within 128 cycles.
 Requested convergence on MAX density matrix=1.00D-06.
 Requested convergence on             energy=1.00D-06.
 No special actions if energy rises.
 Using DIIS extrapolation, IDIIS=  1040.
 Integral symmetry usage will be decided dynamically.
       126823 words used for storage of precomputed grid.
 IEnd=      305770 IEndB=      305770 NGot=  1073741824 MDV=  1073505365
 LenX=  1073505365 LenY=  1073452483
 Fock matrices will be formed incrementally for  20 cycles.

 Cycle   1  Pass 1  IDiag  1:
 FoFJK:  IHMeth= 1 ICntrl=     0 DoSepK=T KAlg= 1 I1Cent= 0 FoldK=F
 FoFCou: FMM=F IPFlag=           0 FMFlag=      100000 FMFlg1=           0
         NFxFlg=           0 DoJE=T BraDBF=F KetDBF=F FulRan=T
         Omega=  0.000000  0.000000  1.000000  0.000000  0.000000 ICntrl=     500 IOpCl=  0
         NMat0=    1 NMatS0=    1 NMatT0=    0 NMatD0=    1 NMtDS0=    0 NMtDT0=    0
         I1Cent=           0 NGrid=           0.
 Symmetry not used in FoFCou.
 E= -2904.88022473696    
 DIIS: error= 3.01D-02 at cycle   1 NSaved=   1.
 NSaved= 1 IEnMin= 1 EnMin= -2904.88022473696     IErMin= 1 ErrMin= 3.01D-02
 ErrMax= 3.01D-02 EMaxC= 1.00D-01 BMatC= 2.62D-01 BMatP= 2.62D-01
 IDIUse=3 WtCom= 6.99D-01 WtEn= 3.01D-01
 Coeff-Com:  0.100D+01
 Coeff-En:   0.100D+01
 Coeff:      0.100D+01
 Gap=     0.474 Goal=   None    Shift=    0.000
 GapD=    0.474 DampG=2.000 DampE=0.500 DampFc=1.0000 IDamp=-1.
 RMSDP=2.30D-03 MaxDP=1.47D-01              OVMax= 6.29D-02

 Cycle   2  Pass 1  IDiag  1:
 RMSU=  1.60D-03    CP:  1.02D+00
 FoFJK:  IHMeth= 1 ICntrl=     0 DoSepK=T KAlg= 1 I1Cent= 0 FoldK=F
 E= -2904.92455711166     Delta-E=       -0.044332374700 Rises=F Damp=F
 DIIS: error= 1.26D-02 at cycle   2 NSaved=   2.
 NSaved= 2 IEnMin= 2 EnMin= -2904.92455711166     IErMin= 2 ErrMin= 1.26D-02
 ErrMax= 1.26D-02 EMaxC= 1.00D-01 BMatC= 7.77D-02 BMatP= 2.62D-01
 IDIUse=3 WtCom= 8.74D-01 WtEn= 1.26D-01
 Coeff-Com:  0.346D+00 0.654D+00
 Coeff-En:   0.181D+00 0.819D+00
 Coeff:      0.325D+00 0.675D+00
 Gap=     0.430 Goal=   None    Shift=    0.000
 RMSDP=9.34D-04 MaxDP=5.12D-02 DE=-4.43D-02 OVMax= 3.02D-02

 Cycle   3  Pass 1  IDiag  1:
 RMSU=  3.27D-04    CP:  1.01D+00  6.53D-01
 FoFJK:  IHMeth= 1 ICntrl=     0 DoSepK=T KAlg= 1 I1Cent= 0 FoldK=F
 E= -2904.95176113543     Delta-E=       -0.027204023776 Rises=F Damp=F
 DIIS: error= 2.11D-03 at cycle   3 NSaved=   3.
 NSaved= 3 IEnMin= 3 EnMin= -2904.95176113543     IErMin= 3 ErrMin= 2.11D-03
 ErrMax= 2.11D-03 EMaxC= 1.00D-01 BMatC= 1.79D-03 BMatP= 7.77D-02
 IDIUse=3 WtCom= 9.79D-01 WtEn= 2.11D-02
 Coeff-Com:  0.602D-01 0.193D+00 0.747D+00
 Coeff-En:   0.000D+00 0.000D+00 0.100D+01
 Coeff:      0.589D-01 0.189D+00 0.752D+00
 Gap=     0.412 Goal=   None    Shift=    0.000
 RMSDP=1.13D-04 MaxDP=2.98D-03 DE=-2.72D-02 OVMax= 7.91D-03

 Cycle   4  Pass 1  IDiag  1:
 RMSU=  5.85D-05    CP:  1.01D+00  6.81D-01  9.09D-01
 FoFJK:  IHMeth= 1 ICntrl=     0 DoSepK=T KAlg= 1 I1Cent= 0 FoldK=F
 E= -2904.95268947012     Delta-E=       -0.000928334682 Rises=F Damp=F
 DIIS: error= 6.14D-04 at cycle   4 NSaved=   4.
 NSaved= 4 IEnMin= 4 EnMin= -2904.95268947012     IErMin= 4 ErrMin= 6.14D-04
 ErrMax= 6.14D-04 EMaxC= 1.00D-01 BMatC= 1.31D-04 BMatP= 1.79D-03
 IDIUse=3 WtCom= 9.94D-01 WtEn= 6.14D-03
 Coeff-Com: -0.159D-02 0.287D-01 0.285D+00 0.688D+00
 Coeff-En:   0.000D+00 0.000D+00 0.000D+00 0.100D+01
 Coeff:     -0.158D-02 0.285D-01 0.283D+00 0.690D+00
 Gap=     0.417 Goal=   None    Shift=    0.000
 RMSDP=3.35D-05 MaxDP=1.93D-03 DE=-9.28D-04 OVMax= 1.97D-03

 Cycle   5  Pass 1  IDiag  1:
 RMSU=  1.28D-05    CP:  1.01D+00  6.85D-01  9.57D-01  8.13D-01
 FoFJK:  IHMeth= 1 ICntrl=     0 DoSepK=T KAlg= 1 I1Cent= 0 FoldK=F
 E= -2904.95276325885     Delta-E=       -0.000073788736 Rises=F Damp=F
 DIIS: error= 7.83D-05 at cycle   5 NSaved=   5.
 NSaved= 5 IEnMin= 5 EnMin= -2904.95276325885     IErMin= 5 ErrMin= 7.83D-05
 ErrMax= 7.83D-05 EMaxC= 1.00D-01 BMatC= 2.46D-06 BMatP= 1.31D-04
 IDIUse=1 WtCom= 1.00D+00 WtEn= 0.00D+00
 Coeff-Com: -0.181D-02 0.950D-03 0.421D-01 0.160D+00 0.799D+00
 Coeff:     -0.181D-02 0.950D-03 0.421D-01 0.160D+00 0.799D+00
 Gap=     0.417 Goal=   None    Shift=    0.000
 RMSDP=6.48D-06 MaxDP=2.12D-04 DE=-7.38D-05 OVMax= 5.22D-04

 Cycle   6  Pass 1  IDiag  1:
 RMSU=  4.02D-06    CP:  1.01D+00  6.85D-01  9.58D-01  8.49D-01  1.03D+00
 FoFJK:  IHMeth= 1 ICntrl=     0 DoSepK=T KAlg= 1 I1Cent= 0 FoldK=F
 E= -2904.95276453136     Delta-E=       -0.000001272511 Rises=F Damp=F
 DIIS: error= 6.17D-05 at cycle   6 NSaved=   6.
 NSaved= 6 IEnMin= 6 EnMin= -2904.95276453136     IErMin= 6 ErrMin= 6.17D-05
 ErrMax= 6.17D-05 EMaxC= 1.00D-01 BMatC= 1.04D-06 BMatP= 2.46D-06
 IDIUse=1 WtCom= 1.00D+00 WtEn= 0.00D+00
 Coeff-Com: -0.640D-03-0.308D-02-0.144D-01-0.493D-02 0.405D+00 0.618D+00
 Coeff:     -0.640D-03-0.308D-02-0.144D-01-0.493D-02 0.405D+00 0.618D+00
 Gap=     0.417 Goal=   None    Shift=    0.000
 RMSDP=3.17D-06 MaxDP=1.22D-04 DE=-1.27D-06 OVMax= 2.47D-04

 Cycle   7  Pass 1  IDiag  1:
 RMSU=  1.73D-06    CP:  1.01D+00  6.84D-01  9.58D-01  8.59D-01  1.12D+00
                    CP:  8.67D-01
 FoFJK:  IHMeth= 1 ICntrl=     0 DoSepK=T KAlg= 1 I1Cent= 0 FoldK=F
 E= -2904.95276526848     Delta-E=       -0.000000737121 Rises=F Damp=F
 DIIS: error= 1.48D-05 at cycle   7 NSaved=   7.
 NSaved= 7 IEnMin= 7 EnMin= -2904.95276526848     IErMin= 7 ErrMin= 1.48D-05
 ErrMax= 1.48D-05 EMaxC= 1.00D-01 BMatC= 5.51D-08 BMatP= 1.04D-06
 IDIUse=1 WtCom= 1.00D+00 WtEn= 0.00D+00
 Coeff-Com: -0.597D-05-0.124D-02-0.108D-01-0.242D-01 0.913D-02 0.196D+00
 Coeff-Com:  0.831D+00
 Coeff:     -0.597D-05-0.124D-02-0.108D-01-0.242D-01 0.913D-02 0.196D+00
 Coeff:      0.831D+00
 Gap=     0.417 Goal=   None    Shift=    0.000
 RMSDP=1.08D-06 MaxDP=2.83D-05 DE=-7.37D-07 OVMax= 9.03D-05

 Cycle   8  Pass 1  IDiag  1:
 RMSU=  3.68D-07    CP:  1.01D+00  6.85D-01  9.58D-01  8.63D-01  1.15D+00
                    CP:  9.89D-01  1.02D+00
 FoFJK:  IHMeth= 1 ICntrl=     0 DoSepK=T KAlg= 1 I1Cent= 0 FoldK=F
 E= -2904.95276532290     Delta-E=       -0.000000054420 Rises=F Damp=F
 DIIS: error= 2.14D-06 at cycle   8 NSaved=   8.
 NSaved= 8 IEnMin= 8 EnMin= -2904.95276532290     IErMin= 8 ErrMin= 2.14D-06
 ErrMax= 2.14D-06 EMaxC= 1.00D-01 BMatC= 8.67D-10 BMatP= 5.51D-08
 IDIUse=1 WtCom= 1.00D+00 WtEn= 0.00D+00
 Coeff-Com:  0.343D-04 0.292D-03 0.195D-02 0.318D-02-0.163D-01-0.516D-01
 Coeff-Com: -0.115D+00 0.118D+01
 Coeff:      0.343D-04 0.292D-03 0.195D-02 0.318D-02-0.163D-01-0.516D-01
 Coeff:     -0.115D+00 0.118D+01
 Gap=     0.417 Goal=   None    Shift=    0.000
 RMSDP=2.99D-07 MaxDP=6.36D-06 DE=-5.44D-08 OVMax= 3.46D-05

 Cycle   9  Pass 1  IDiag  1:
 RMSU=  9.32D-08    CP:  1.01D+00  6.85D-01  9.58D-01  8.63D-01  1.15D+00
                    CP:  1.01D+00  1.06D+00  1.38D+00
 FoFJK:  IHMeth= 1 ICntrl=     0 DoSepK=T KAlg= 1 I1Cent= 0 FoldK=F
 E= -2904.95276538755     Delta-E=       -0.000000064642 Rises=F Damp=F
 DIIS: error= 5.99D-07 at cycle   9 NSaved=   9.
 NSaved= 9 IEnMin= 9 EnMin= -2904.95276538755     IErMin= 9 ErrMin= 5.99D-07
 ErrMax= 5.99D-07 EMaxC= 1.00D-01 BMatC= 4.07D-11 BMatP= 8.67D-10
 IDIUse=1 WtCom= 1.00D+00 WtEn= 0.00D+00
 Coeff-Com: -0.328D-05 0.351D-04 0.366D-03 0.104D-02 0.733D-03-0.761D-02
 Coeff-Com: -0.362D-01-0.442D-01 0.109D+01
 Coeff:     -0.328D-05 0.351D-04 0.366D-03 0.104D-02 0.733D-03-0.761D-02
 Coeff:     -0.362D-01-0.442D-01 0.109D+01
 Gap=     0.417 Goal=   None    Shift=    0.000
 RMSDP=7.02D-08 MaxDP=3.26D-06 DE=-6.46D-08 OVMax= 7.70D-06

 Cycle  10  Pass 1  IDiag  1:
 RMSU=  2.00D-08    CP:  1.01D+00  6.85D-01  9.58D-01  8.64D-01  1.15D+00
                    CP:  1.01D+00  1.06D+00  1.47D+00  1.27D+00
 FoFJK:  IHMeth= 1 ICntrl=     0 DoSepK=T KAlg= 1 I1Cent= 0 FoldK=F
 E= -2904.95276538769     Delta-E=       -0.000000000142 Rises=F Damp=F
 DIIS: error= 1.12D-07 at cycle  10 NSaved=  10.
 NSaved=10 IEnMin=10 EnMin= -2904.95276538769     IErMin=10 ErrMin= 1.12D-07
 ErrMax= 1.12D-07 EMaxC= 1.00D-01 BMatC= 2.26D-12 BMatP= 4.07D-11
 IDIUse=1 WtCom= 1.00D+00 WtEn= 0.00D+00
 Coeff-Com: -0.131D-05-0.121D-04-0.896D-04-0.159D-03 0.895D-03 0.238D-02
 Coeff-Com:  0.498D-02-0.562D-01-0.178D-01 0.107D+01
 Coeff:     -0.131D-05-0.121D-04-0.896D-04-0.159D-03 0.895D-03 0.238D-02
 Coeff:      0.498D-02-0.562D-01-0.178D-01 0.107D+01
 Gap=     0.417 Goal=   None    Shift=    0.000
 RMSDP=2.05D-08 MaxDP=1.34D-06 DE=-1.42D-10 OVMax= 1.47D-06

 Cycle  11  Pass 1  IDiag  1:
 RMSU=  4.79D-09    CP:  1.01D+00  6.85D-01  9.58D-01  8.64D-01  1.15D+00
                    CP:  1.00D+00  1.06D+00  1.48D+00  1.35D+00  1.28D+00
 FoFJK:  IHMeth= 1 ICntrl=     0 DoSepK=T KAlg= 1 I1Cent= 0 FoldK=F
 E= -2904.95276538825     Delta-E=       -0.000000000558 Rises=F Damp=F
 DIIS: error= 2.47D-08 at cycle  11 NSaved=  11.
 NSaved=11 IEnMin=11 EnMin= -2904.95276538825     IErMin=11 ErrMin= 2.47D-08
 ErrMax= 2.47D-08 EMaxC= 1.00D-01 BMatC= 1.80D-13 BMatP= 2.26D-12
 IDIUse=1 WtCom= 1.00D+00 WtEn= 0.00D+00
 Coeff-Com:  0.877D-08-0.326D-05-0.291D-04-0.764D-04 0.834D-04 0.684D-03
 Coeff-Com:  0.249D-02-0.476D-02-0.548D-01 0.106D+00 0.950D+00
 Coeff:      0.877D-08-0.326D-05-0.291D-04-0.764D-04 0.834D-04 0.684D-03
 Coeff:      0.249D-02-0.476D-02-0.548D-01 0.106D+00 0.950D+00
 Gap=     0.417 Goal=   None    Shift=    0.000
 RMSDP=4.43D-09 MaxDP=2.12D-07 DE=-5.58D-10 OVMax= 4.27D-07

 SCF Done:  E(RLC-wPBE) =  -2904.95276539     A.U. after   11 cycles
             Convg  =    0.4427D-08             -V/T =  2.0017
 KE= 2.900034361837D+03 PE=-7.233518294999D+03 EE= 1.280241797938D+03
 Leave Link  502 at Tue May 12 16:44:42 2020, MaxMem= 1073741824 cpu:     307.7
 (Enter /home/matheus/.gaussian/g09/l601.exe)
 Copying SCF densities to generalized density rwf, IOpCl= 0 IROHF=0.

 **********************************************************************

            Population analysis using the SCF density.

 **********************************************************************

 Orbital symmetries:
       Occupied  (A) (A) (A) (A) (A) (A) (A) (A) (A) (A) (A) (A)
                 (A) (A) (A) (A) (A) (A) (A) (A) (A) (A) (A) (A)
                 (A) (A) (A)
       Virtual   (A) (A) (A) (A) (A) (A) (A) (A) (A) (A) (A) (A)
                 (A) (A) (A) (A) (A) (A) (A) (A) (A) (A) (A) (A)
                 (A) (A) (A) (A) (A) (A) (A) (A) (A) (A) (A) (A)
                 (A) (A) (A) (A) (A) (A) (A) (A) (A) (A) (A) (A)
                 (A) (A) (A) (A) (A) (A) (A) (A) (A) (A) (A) (A)
                 (A) (A) (A) (A) (A) (A) (A) (A) (A) (A) (A) (A)
                 (A) (A) (A) (A) (A) (A) (A) (A) (A) (A) (A) (A)
                 (A) (A) (A) (A) (A) (A) (A) (A) (A) (A) (A) (A)
                 (A) (A) (A) (A) (A) (A) (A) (A) (A) (A) (A) (A)
                 (A) (A) (A) (A) (A) (A) (A) (A) (A) (A) (A) (A)
                 (A) (A) (A) (A) (A) (A) (A) (A) (A) (A) (A) (A)
                 (A) (A) (A) (A) (A) (A) (A) (A) (A) (A) (A) (A)
                 (A) (A) (A) (A) (A) (A) (A) (A) (A) (A) (A) (A)
                 (A) (A) (A) (A) (A) (A) (A) (A) (A) (A) (A) (A)
                 (A) (A)
 The electronic state is 1-A.
 Alpha  occ. eigenvalues -- -511.11517 -66.66208 -60.32434 -60.32414 -60.32406
 Alpha  occ. eigenvalues --  -19.03227 -19.02833  -9.59488  -7.33958  -7.33899
 Alpha  occ. eigenvalues --   -7.33876  -3.29493  -3.29481  -3.29466  -3.29422
 Alpha  occ. eigenvalues --   -3.29420  -1.25014  -1.04616  -1.03590  -0.66913
 Alpha  occ. eigenvalues --   -0.63511  -0.53757  -0.51712  -0.50953  -0.50495
 Alpha  occ. eigenvalues --   -0.47168  -0.38411
 Alpha virt. eigenvalues --    0.03293   0.04091   0.08121   0.10220   0.10384
 Alpha virt. eigenvalues --    0.11226   0.13406   0.14740   0.16871   0.17199
 Alpha virt. eigenvalues --    0.19222   0.19234   0.20553   0.23593   0.24221
 Alpha virt. eigenvalues --    0.25155   0.27367   0.29011   0.30791   0.34323
 Alpha virt. eigenvalues --    0.34440   0.34764   0.36993   0.39512   0.40671
 Alpha virt. eigenvalues --    0.40759   0.43205   0.48846   0.53042   0.55432
 Alpha virt. eigenvalues --    0.57705   0.60141   0.65247   0.65973   0.69840
 Alpha virt. eigenvalues --    0.71677   0.72392   0.73772   0.75260   0.76352
 Alpha virt. eigenvalues --    0.77037   0.77495   0.79177   0.80229   0.81412
 Alpha virt. eigenvalues --    0.83376   0.86130   0.88163   0.89675   0.91567
 Alpha virt. eigenvalues --    0.92393   0.94593   0.96580   0.98894   1.00425
 Alpha virt. eigenvalues --    1.03732   1.04949   1.05529   1.06885   1.09174
 Alpha virt. eigenvalues --    1.13391   1.13618   1.16749   1.19132   1.19846
 Alpha virt. eigenvalues --    1.27520   1.32036   1.36046   1.41188   1.41669
 Alpha virt. eigenvalues --    1.49442   1.52346   1.53777   1.56366   1.58915
 Alpha virt. eigenvalues --    1.62527   1.78090   1.79528   1.85988   1.94214
 Alpha virt. eigenvalues --    1.98975   1.99345   2.04511   2.13490   2.14227
 Alpha virt. eigenvalues --    2.15530   2.17260   2.18401   2.19003   2.26168
 Alpha virt. eigenvalues --    2.27738   2.29002   2.30739   2.33057   2.34508
 Alpha virt. eigenvalues --    2.37961   2.39490   2.44748   2.47243   2.49005
 Alpha virt. eigenvalues --    2.49145   2.50022   2.52841   2.55983   2.57730
 Alpha virt. eigenvalues --    2.59858   2.62585   2.66234   2.68666   2.70319
 Alpha virt. eigenvalues --    2.71366   2.74515   2.75885   2.81325   2.89108
 Alpha virt. eigenvalues --    2.96562   3.07169   3.09325   3.15670   3.51965
 Alpha virt. eigenvalues --    3.75027   3.81589   3.91433   4.02904   4.04434
 Alpha virt. eigenvalues --    4.12148   4.15544   4.19773   4.23396   4.26454
 Alpha virt. eigenvalues --    4.38264   4.42291   4.51575   4.54600   4.71883
 Alpha virt. eigenvalues --    4.89724   5.01510   5.03036   5.07521   5.07706
 Alpha virt. eigenvalues --    5.36717   5.41978   5.81615   5.96516   6.06895
 Alpha virt. eigenvalues --    6.12282   6.28610   6.34746   6.42233   6.45741
 Alpha virt. eigenvalues --    6.67742   6.69222   6.72055   6.78245   6.84584
 Alpha virt. eigenvalues --    6.87182   6.89379   6.91764   6.92314   6.95858
 Alpha virt. eigenvalues --    6.99367   7.19293   7.22687   7.36792   7.59008
 Alpha virt. eigenvalues --    7.80979   8.08519   8.11713  14.05536  14.48953
          Condensed to atoms (all electrons):
              1          2          3          4          5
     1  O    8.231167  -0.220187   0.182725   0.004670  -0.031864
     2  O   -0.220187   8.248829   0.012745   0.213968  -0.008898
     3  H    0.182725   0.012745   0.619185   0.002336   0.002991
     4  H    0.004670   0.213968   0.002336   0.567500  -0.013828
     5  Kr  -0.031864  -0.008898   0.002991  -0.013828  36.044006
 Mulliken atomic charges:
              1
     1  O   -0.166510
     2  O   -0.246457
     3  H    0.180019
     4  H    0.225354
     5  Kr   0.007594
 Sum of Mulliken atomic charges =   0.00000
 Mulliken charges with hydrogens summed into heavy atoms:
              1
     1  O    0.013509
     2  O   -0.021103
     5  Kr   0.007594
 Sum of Mulliken charges with hydrogens summed into heavy atoms =   0.00000
          Condensed to fragments (all electrons):
     1      -0.007594
     2       0.007594
 Electronic spatial extent (au):  <R**2>=            492.4626
 Charge=              0.0000 electrons
 Dipole moment (field-independent basis, Debye):
    X=              0.2036    Y=             -0.2900    Z=              0.2760  Tot=              0.4491
 Quadrupole moment (field-independent basis, Debye-Ang):
   XX=            -26.2873   YY=            -28.3935   ZZ=            -30.6559
   XY=              3.8863   XZ=             -0.8855   YZ=             -0.2885
 Traceless Quadrupole moment (field-independent basis, Debye-Ang):
   XX=              2.1582   YY=              0.0521   ZZ=             -2.2103
   XY=              3.8863   XZ=             -0.8855   YZ=             -0.2885
 Octapole moment (field-independent basis, Debye-Ang**2):
  XXX=             -0.0442  YYY=             -0.6413  ZZZ=              0.1032  XYY=              4.5086
  XXY=            -16.5146  XXZ=              2.6928  XZZ=              8.7507  YZZ=             -0.3445
  YYZ=              0.3392  XYZ=              0.9093
 Hexadecapole moment (field-independent basis, Debye-Ang**3):
 XXXX=           -341.6741 YYYY=            -64.3217 ZZZZ=            -29.7770 XXXY=             52.2982
 XXXZ=             -8.2734 YYYX=              5.6245 YYYZ=             -0.3530 ZZZX=             -0.3450
 ZZZY=             -0.1545 XXYY=            -75.5041 XXZZ=            -80.3061 YYZZ=            -17.6209
 XXYZ=             -2.7777 YYXZ=             -1.0110 ZZXY=              0.4711
 N-N= 1.482893698349D+02 E-N=-7.233518296132D+03  KE= 2.900034361837D+03
 No NMR shielding tensors so no spin-rotation constants.
 Leave Link  601 at Tue May 12 16:44:42 2020, MaxMem= 1073741824 cpu:       0.7
 (Enter /home/matheus/.gaussian/g09/l122.exe)
 Counterpoise: doing DCBS calculation for fragment   1 NewBq=T
 Leave Link  122 at Tue May 12 16:44:42 2020, MaxMem= 1073741824 cpu:       0.0
 (Enter /home/matheus/.gaussian/g09/l301.exe)
 Basis read from rwf:  (5D, 7F)
 No pseudopotential information found on rwf file.
 There are   197 symmetry adapted basis functions of A   symmetry.
 Integral buffers will be    131072 words long.
 Raffenetti 2 integral format.
 Two-electron integral symmetry is turned on.
   197 basis functions,   415 primitive gaussians,   229 cartesian basis functions
     9 alpha electrons        9 beta electrons
       nuclear repulsion energy        36.6009457491 Hartrees.
 IExCor=32609 DFT=T Ex+Corr=LC-wPBE ExCW=0 ScaHFX=  1.000000
 ScaDFX=  1.000000  0.000000  1.000000  1.000000 ScalE2=  1.000000  1.000000
 IRadAn=      5 IRanWt=     -1 IRanGd=            0 ICorTp=0
  HFx wShort=  0.000000 wLong=  0.400000 cFull=  0.000000 cShort=  0.000000 cLong=  1.000000
  DFx wShort=  0.000000 wLong=  0.400000 cFull=  0.000000 cShort=  0.000000 cLong=  1.000000
 NAtoms=    5 NActive=    5 NUniq=    5 SFac= 1.00D+00 NAtFMM=   60 NAOKFM=F Big=F
 No density basis found on file   718.
 Leave Link  301 at Tue May 12 16:44:42 2020, MaxMem= 1073741824 cpu:       0.2
 (Enter /home/matheus/.gaussian/g09/l302.exe)
 NPDir=0 NMtPBC=     1 NCelOv=     1 NCel=       1 NClECP=     1 NCelD=      1
         NCelK=      1 NCelE2=     1 NClLst=     1 CellRange=     0.0.
 One-electron integrals computed using PRISM.
 NBasis=   197 RedAO= T  NBF=   197
 NBsUse=   197 1.00D-06 NBFU=   197
 Precomputing XC quadrature grid using
 IXCGrd= 2 IRadAn=           5 IRanWt=          -1 IRanGd=           0 AccXCQ= 0.00D+00.
 NRdTot=     427 NPtTot=      123814 NUsed=      126881 NTot=      126913
 NSgBfM=   229   229   229   229   229 NAtAll=     5     5.
 Leave Link  302 at Tue May 12 16:44:43 2020, MaxMem= 1073741824 cpu:       1.1
 (Enter /home/matheus/.gaussian/g09/l303.exe)
 DipDrv:  MaxL=1.
 Leave Link  303 at Tue May 12 16:44:43 2020, MaxMem= 1073741824 cpu:       0.2
 (Enter /home/matheus/.gaussian/g09/l401.exe)
 Harris functional with IExCor=32609 diagonalized for initial guess.
 ExpMin= 2.53D-02 ExpMax= 1.17D+07 ExpMxC= 1.33D+04 IAcc=3 IRadAn=         5 AccDes= 0.00D+00
 HarFok:  IExCor=32609 AccDes= 0.00D+00 IRadAn=         5 IDoV= 1
 ScaDFX=  1.000000  1.000000  1.000000  1.000000
 FoFCou: FMM=F IPFlag=           0 FMFlag=      100000 FMFlg1=           0
         NFxFlg=           0 DoJE=T BraDBF=F KetDBF=T FulRan=T
         Omega=  0.000000  0.000000  1.000000  0.000000  0.000000 ICntrl=     500 IOpCl=  0
         NMat0=    1 NMatS0=    1 NMatT0=    0 NMatD0=    1 NMtDS0=    0 NMtDT0=    0
         I1Cent=           4 NGrid=           0.
 Petite list used in FoFCou.
 Harris En= -151.499663538551    
 Initial guess orbital symmetries:
       Occupied  (A) (A) (A) (A) (A) (A) (A) (A) (A)
       Virtual   (A) (A) (A) (A) (A) (A) (A) (A) (A) (A) (A) (A)
                 (A) (A) (A) (A) (A) (A) (A) (A) (A) (A) (A) (A)
                 (A) (A) (A) (A) (A) (A) (A) (A) (A) (A) (A) (A)
                 (A) (A) (A) (A) (A) (A) (A) (A) (A) (A) (A) (A)
                 (A) (A) (A) (A) (A) (A) (A) (A) (A) (A) (A) (A)
                 (A) (A) (A) (A) (A) (A) (A) (A) (A) (A) (A) (A)
                 (A) (A) (A) (A) (A) (A) (A) (A) (A) (A) (A) (A)
                 (A) (A) (A) (A) (A) (A) (A) (A) (A) (A) (A) (A)
                 (A) (A) (A) (A) (A) (A) (A) (A) (A) (A) (A) (A)
                 (A) (A) (A) (A) (A) (A) (A) (A) (A) (A) (A) (A)
                 (A) (A) (A) (A) (A) (A) (A) (A) (A) (A) (A) (A)
                 (A) (A) (A) (A) (A) (A) (A) (A) (A) (A) (A) (A)
                 (A) (A) (A) (A) (A) (A) (A) (A) (A) (A) (A) (A)
                 (A) (A) (A) (A) (A) (A) (A) (A) (A) (A) (A) (A)
                 (A) (A) (A) (A) (A) (A) (A) (A) (A) (A) (A) (A)
                 (A) (A) (A) (A) (A) (A) (A) (A)
 The electronic state of the initial guess is 1-A.
 Leave Link  401 at Tue May 12 16:44:43 2020, MaxMem= 1073741824 cpu:       4.5
 (Enter /home/matheus/.gaussian/g09/l502.exe)
 Closed shell SCF:
 Requested convergence on RMS density matrix=1.00D-08 within 128 cycles.
 Requested convergence on MAX density matrix=1.00D-06.
 Requested convergence on             energy=1.00D-06.
 No special actions if energy rises.
 Using DIIS extrapolation, IDIIS=  1040.
 Integral symmetry usage will be decided dynamically.
       126823 words used for storage of precomputed grid.
 IEnd=      305770 IEndB=      305770 NGot=  1073741824 MDV=  1073505365
 LenX=  1073505365 LenY=  1073452483
 Fock matrices will be formed incrementally for  20 cycles.

 Cycle   1  Pass 1  IDiag  1:
 FoFJK:  IHMeth= 1 ICntrl=     0 DoSepK=T KAlg= 1 I1Cent= 0 FoldK=F
 FoFCou: FMM=F IPFlag=           0 FMFlag=      100000 FMFlg1=           0
         NFxFlg=           0 DoJE=T BraDBF=F KetDBF=F FulRan=T
         Omega=  0.000000  0.000000  1.000000  0.000000  0.000000 ICntrl=     500 IOpCl=  0
         NMat0=    1 NMatS0=    1 NMatT0=    0 NMatD0=    1 NMtDS0=    0 NMtDT0=    0
         I1Cent=           0 NGrid=           0.
 Symmetry not used in FoFCou.
 E= -151.496196075632    
 DIIS: error= 1.27D-02 at cycle   1 NSaved=   1.
 NSaved= 1 IEnMin= 1 EnMin= -151.496196075632     IErMin= 1 ErrMin= 1.27D-02
 ErrMax= 1.27D-02 EMaxC= 1.00D-01 BMatC= 3.83D-02 BMatP= 3.83D-02
 IDIUse=3 WtCom= 8.73D-01 WtEn= 1.27D-01
 Coeff-Com:  0.100D+01
 Coeff-En:   0.100D+01
 Coeff:      0.100D+01
 Gap=     0.475 Goal=   None    Shift=    0.000
 GapD=    0.475 DampG=2.000 DampE=0.500 DampFc=1.0000 IDamp=-1.
 RMSDP=7.94D-04 MaxDP=2.46D-02              OVMax= 5.40D-02

 Cycle   2  Pass 1  IDiag  1:
 RMSU=  5.55D-04    CP:  9.88D-01
 FoFJK:  IHMeth= 1 ICntrl=     0 DoSepK=T KAlg= 1 I1Cent= 0 FoldK=F
 E= -151.509794058360     Delta-E=       -0.013597982728 Rises=F Damp=F
 DIIS: error= 8.50D-03 at cycle   2 NSaved=   2.
 NSaved= 2 IEnMin= 2 EnMin= -151.509794058360     IErMin= 2 ErrMin= 8.50D-03
 ErrMax= 8.50D-03 EMaxC= 1.00D-01 BMatC= 2.06D-02 BMatP= 3.83D-02
 IDIUse=3 WtCom= 9.15D-01 WtEn= 8.50D-02
 Coeff-Com:  0.414D+00 0.586D+00
 Coeff-En:   0.242D+00 0.758D+00
 Coeff:      0.400D+00 0.600D+00
 Gap=     0.419 Goal=   None    Shift=    0.000
 RMSDP=4.23D-04 MaxDP=2.22D-02 DE=-1.36D-02 OVMax= 2.47D-02

 Cycle   3  Pass 1  IDiag  1:
 RMSU=  2.34D-04    CP:  9.85D-01  6.68D-01
 FoFJK:  IHMeth= 1 ICntrl=     0 DoSepK=T KAlg= 1 I1Cent= 0 FoldK=F
 E= -151.521500961558     Delta-E=       -0.011706903198 Rises=F Damp=F
 DIIS: error= 1.39D-03 at cycle   3 NSaved=   3.
 NSaved= 3 IEnMin= 3 EnMin= -151.521500961558     IErMin= 3 ErrMin= 1.39D-03
 ErrMax= 1.39D-03 EMaxC= 1.00D-01 BMatC= 3.73D-04 BMatP= 2.06D-02
 IDIUse=3 WtCom= 9.86D-01 WtEn= 1.39D-02
 Coeff-Com:  0.616D-01 0.148D+00 0.790D+00
 Coeff-En:   0.000D+00 0.000D+00 0.100D+01
 Coeff:      0.607D-01 0.146D+00 0.793D+00
 Gap=     0.413 Goal=   None    Shift=    0.000
 RMSDP=5.68D-05 MaxDP=2.41D-03 DE=-1.17D-02 OVMax= 3.86D-03

 Cycle   4  Pass 1  IDiag  1:
 RMSU=  2.97D-05    CP:  9.83D-01  7.10D-01  1.02D+00
 FoFJK:  IHMeth= 1 ICntrl=     0 DoSepK=T KAlg= 1 I1Cent= 0 FoldK=F
 E= -151.521730010862     Delta-E=       -0.000229049304 Rises=F Damp=F
 DIIS: error= 2.62D-04 at cycle   4 NSaved=   4.
 NSaved= 4 IEnMin= 4 EnMin= -151.521730010862     IErMin= 4 ErrMin= 2.62D-04
 ErrMax= 2.62D-04 EMaxC= 1.00D-01 BMatC= 1.36D-05 BMatP= 3.73D-04
 IDIUse=3 WtCom= 9.97D-01 WtEn= 2.62D-03
 Coeff-Com: -0.403D-02-0.799D-02 0.124D+00 0.888D+00
 Coeff-En:   0.000D+00 0.000D+00 0.000D+00 0.100D+01
 Coeff:     -0.401D-02-0.797D-02 0.123D+00 0.889D+00
 Gap=     0.415 Goal=   None    Shift=    0.000
 RMSDP=1.32D-05 MaxDP=9.21D-04 DE=-2.29D-04 OVMax= 8.32D-04

 Cycle   5  Pass 1  IDiag  1:
 RMSU=  5.40D-06    CP:  9.83D-01  7.09D-01  1.05D+00  1.04D+00
 FoFJK:  IHMeth= 1 ICntrl=     0 DoSepK=T KAlg= 1 I1Cent= 0 FoldK=F
 E= -151.521739346536     Delta-E=       -0.000009335673 Rises=F Damp=F
 DIIS: error= 3.72D-05 at cycle   5 NSaved=   5.
 NSaved= 5 IEnMin= 5 EnMin= -151.521739346536     IErMin= 5 ErrMin= 3.72D-05
 ErrMax= 3.72D-05 EMaxC= 1.00D-01 BMatC= 1.24D-07 BMatP= 1.36D-05
 IDIUse=1 WtCom= 1.00D+00 WtEn= 0.00D+00
 Coeff-Com: -0.105D-02-0.309D-02-0.294D-01-0.731D-01 0.111D+01
 Coeff:     -0.105D-02-0.309D-02-0.294D-01-0.731D-01 0.111D+01
 Gap=     0.415 Goal=   None    Shift=    0.000
 RMSDP=3.47D-06 MaxDP=1.11D-04 DE=-9.34D-06 OVMax= 2.26D-04

 Cycle   6  Pass 1  IDiag  1:
 RMSU=  1.21D-06    CP:  9.83D-01  7.10D-01  1.05D+00  1.08D+00  1.32D+00
 FoFJK:  IHMeth= 1 ICntrl=     0 DoSepK=T KAlg= 1 I1Cent= 0 FoldK=F
 E= -151.521739612759     Delta-E=       -0.000000266223 Rises=F Damp=F
 DIIS: error= 8.41D-06 at cycle   6 NSaved=   6.
 NSaved= 6 IEnMin= 6 EnMin= -151.521739612759     IErMin= 6 ErrMin= 8.41D-06
 ErrMax= 8.41D-06 EMaxC= 1.00D-01 BMatC= 4.95D-09 BMatP= 1.24D-07
 IDIUse=1 WtCom= 1.00D+00 WtEn= 0.00D+00
 Coeff-Com:  0.136D-03 0.375D-03-0.165D-02-0.182D-01-0.354D-01 0.105D+01
 Coeff:      0.136D-03 0.375D-03-0.165D-02-0.182D-01-0.354D-01 0.105D+01
 Gap=     0.415 Goal=   None    Shift=    0.000
 RMSDP=6.95D-07 MaxDP=2.06D-05 DE=-2.66D-07 OVMax= 4.93D-05

 Cycle   7  Pass 1  IDiag  1:
 RMSU=  2.23D-07    CP:  9.83D-01  7.10D-01  1.05D+00  1.08D+00  1.37D+00
                    CP:  1.20D+00
 FoFJK:  IHMeth= 1 ICntrl=     0 DoSepK=T KAlg= 1 I1Cent= 0 FoldK=F
 E= -151.521739624797     Delta-E=       -0.000000012038 Rises=F Damp=F
 DIIS: error= 1.42D-06 at cycle   7 NSaved=   7.
 NSaved= 7 IEnMin= 7 EnMin= -151.521739624797     IErMin= 7 ErrMin= 1.42D-06
 ErrMax= 1.42D-06 EMaxC= 1.00D-01 BMatC= 5.83D-10 BMatP= 4.95D-09
 IDIUse=1 WtCom= 1.00D+00 WtEn= 0.00D+00
 Coeff-Com:  0.464D-04 0.135D-03 0.774D-03 0.730D-03-0.445D-01 0.830D-01
 Coeff-Com:  0.960D+00
 Coeff:      0.464D-04 0.135D-03 0.774D-03 0.730D-03-0.445D-01 0.830D-01
 Coeff:      0.960D+00
 Gap=     0.415 Goal=   None    Shift=    0.000
 RMSDP=1.70D-07 MaxDP=3.94D-06 DE=-1.20D-08 OVMax= 1.62D-05

 Cycle   8  Pass 1  IDiag  1:
 RMSU=  7.73D-08    CP:  9.83D-01  7.10D-01  1.05D+00  1.08D+00  1.38D+00
                    CP:  1.25D+00  1.21D+00
 FoFJK:  IHMeth= 1 ICntrl=     0 DoSepK=T KAlg= 1 I1Cent= 0 FoldK=F
 E= -151.521739625603     Delta-E=       -0.000000000806 Rises=F Damp=F
 DIIS: error= 1.37D-06 at cycle   8 NSaved=   8.
 NSaved= 8 IEnMin= 8 EnMin= -151.521739625603     IErMin= 8 ErrMin= 1.37D-06
 ErrMax= 1.37D-06 EMaxC= 1.00D-01 BMatC= 5.21D-10 BMatP= 5.83D-10
 IDIUse=1 WtCom= 1.00D+00 WtEn= 0.00D+00
 Coeff-Com:  0.560D-05 0.181D-04 0.589D-03 0.277D-02-0.186D-01-0.101D+00
 Coeff-Com:  0.560D+00 0.556D+00
 Coeff:      0.560D-05 0.181D-04 0.589D-03 0.277D-02-0.186D-01-0.101D+00
 Coeff:      0.560D+00 0.556D+00
 Gap=     0.415 Goal=   None    Shift=    0.000
 RMSDP=6.41D-08 MaxDP=2.71D-06 DE=-8.06D-10 OVMax= 6.17D-06

 Cycle   9  Pass 1  IDiag  1:
 RMSU=  2.72D-08    CP:  9.83D-01  7.10D-01  1.05D+00  1.08D+00  1.38D+00
                    CP:  1.26D+00  1.33D+00  7.56D-01
 FoFJK:  IHMeth= 1 ICntrl=     0 DoSepK=T KAlg= 1 I1Cent= 0 FoldK=F
 E= -151.521739625993     Delta-E=       -0.000000000390 Rises=F Damp=F
 DIIS: error= 2.06D-07 at cycle   9 NSaved=   9.
 NSaved= 9 IEnMin= 9 EnMin= -151.521739625993     IErMin= 9 ErrMin= 2.06D-07
 ErrMax= 2.06D-07 EMaxC= 1.00D-01 BMatC= 8.09D-12 BMatP= 5.21D-10
 IDIUse=1 WtCom= 1.00D+00 WtEn= 0.00D+00
 Coeff-Com: -0.755D-05-0.237D-04-0.184D-03-0.322D-03 0.866D-02-0.718D-02
 Coeff-Com: -0.174D+00-0.576D-01 0.123D+01
 Coeff:     -0.755D-05-0.237D-04-0.184D-03-0.322D-03 0.866D-02-0.718D-02
 Coeff:     -0.174D+00-0.576D-01 0.123D+01
 Gap=     0.415 Goal=   None    Shift=    0.000
 RMSDP=4.11D-08 MaxDP=2.05D-06 DE=-3.90D-10 OVMax= 3.12D-06

 Cycle  10  Pass 1  IDiag  1:
 RMSU=  8.58D-09    CP:  9.83D-01  7.10D-01  1.05D+00  1.08D+00  1.38D+00
                    CP:  1.26D+00  1.38D+00  8.96D-01  1.45D+00
 FoFJK:  IHMeth= 1 ICntrl=     0 DoSepK=T KAlg= 1 I1Cent= 0 FoldK=F
 E= -151.521739626020     Delta-E=       -0.000000000027 Rises=F Damp=F
 DIIS: error= 5.40D-08 at cycle  10 NSaved=  10.
 NSaved=10 IEnMin=10 EnMin= -151.521739626020     IErMin=10 ErrMin= 5.40D-08
 ErrMax= 5.40D-08 EMaxC= 1.00D-01 BMatC= 3.59D-13 BMatP= 8.09D-12
 IDIUse=1 WtCom= 1.00D+00 WtEn= 0.00D+00
 Coeff-Com:  0.150D-05 0.532D-05 0.243D-04-0.328D-04-0.137D-02 0.618D-02
 Coeff-Com:  0.194D-01-0.865D-02-0.305D+00 0.129D+01
 Coeff:      0.150D-05 0.532D-05 0.243D-04-0.328D-04-0.137D-02 0.618D-02
 Coeff:      0.194D-01-0.865D-02-0.305D+00 0.129D+01
 Gap=     0.415 Goal=   None    Shift=    0.000
 RMSDP=9.07D-09 MaxDP=2.01D-07 DE=-2.71D-11 OVMax= 1.23D-06

 SCF Done:  E(RLC-wPBE) =  -151.521739626     A.U. after   10 cycles
             Convg  =    0.9073D-08             -V/T =  2.0068
 KE= 1.504974699485D+02 PE=-4.315013541228D+02 EE= 9.288119879921D+01
 Leave Link  502 at Tue May 12 16:45:17 2020, MaxMem= 1073741824 cpu:     268.9
 (Enter /home/matheus/.gaussian/g09/l601.exe)
 Copying SCF densities to generalized density rwf, IOpCl= 0 IROHF=0.

 **********************************************************************

            Population analysis using the SCF density.

 **********************************************************************

 Orbital symmetries:
       Occupied  (A) (A) (A) (A) (A) (A) (A) (A) (A)
       Virtual   (A) (A) (A) (A) (A) (A) (A) (A) (A) (A) (A) (A)
                 (A) (A) (A) (A) (A) (A) (A) (A) (A) (A) (A) (A)
                 (A) (A) (A) (A) (A) (A) (A) (A) (A) (A) (A) (A)
                 (A) (A) (A) (A) (A) (A) (A) (A) (A) (A) (A) (A)
                 (A) (A) (A) (A) (A) (A) (A) (A) (A) (A) (A) (A)
                 (A) (A) (A) (A) (A) (A) (A) (A) (A) (A) (A) (A)
                 (A) (A) (A) (A) (A) (A) (A) (A) (A) (A) (A) (A)
                 (A) (A) (A) (A) (A) (A) (A) (A) (A) (A) (A) (A)
                 (A) (A) (A) (A) (A) (A) (A) (A) (A) (A) (A) (A)
                 (A) (A) (A) (A) (A) (A) (A) (A) (A) (A) (A) (A)
                 (A) (A) (A) (A) (A) (A) (A) (A) (A) (A) (A) (A)
                 (A) (A) (A) (A) (A) (A) (A) (A) (A) (A) (A) (A)
                 (A) (A) (A) (A) (A) (A) (A) (A) (A) (A) (A) (A)
                 (A) (A) (A) (A) (A) (A) (A) (A) (A) (A) (A) (A)
                 (A) (A) (A) (A) (A) (A) (A) (A) (A) (A) (A) (A)
                 (A) (A) (A) (A) (A) (A) (A) (A)
 The electronic state is 1-A.
 Alpha  occ. eigenvalues --  -19.03400 -19.03397  -1.25242  -1.04170  -0.67075
 Alpha  occ. eigenvalues --   -0.63028  -0.53829  -0.47783  -0.38666
 Alpha virt. eigenvalues --    0.02879   0.03529   0.07072   0.08979   0.10008
 Alpha virt. eigenvalues --    0.10420   0.11140   0.14027   0.16479   0.17247
 Alpha virt. eigenvalues --    0.18584   0.19662   0.20917   0.23259   0.26938
 Alpha virt. eigenvalues --    0.27505   0.29722   0.31098   0.31671   0.33524
 Alpha virt. eigenvalues --    0.36914   0.37631   0.38714   0.39389   0.41793
 Alpha virt. eigenvalues --    0.43079   0.43728   0.47491   0.49093   0.49836
 Alpha virt. eigenvalues --    0.54862   0.58030   0.61067   0.66547   0.68060
 Alpha virt. eigenvalues --    0.70153   0.73794   0.75536   0.76218   0.77010
 Alpha virt. eigenvalues --    0.78879   0.83306   0.85315   0.87999   0.91152
 Alpha virt. eigenvalues --    0.91746   0.92898   0.96173   0.98014   1.00023
 Alpha virt. eigenvalues --    1.01474   1.05157   1.05685   1.09899   1.13690
 Alpha virt. eigenvalues --    1.14508   1.16178   1.16988   1.19163   1.24498
 Alpha virt. eigenvalues --    1.26378   1.29880   1.32431   1.33074   1.33798
 Alpha virt. eigenvalues --    1.34151   1.35075   1.36942   1.37272   1.46104
 Alpha virt. eigenvalues --    1.48899   1.50869   1.53639   1.53787   1.57159
 Alpha virt. eigenvalues --    1.58573   1.65024   1.67077   1.72947   1.79434
 Alpha virt. eigenvalues --    1.80485   1.84212   1.89523   1.98059   2.00699
 Alpha virt. eigenvalues --    2.02504   2.06582   2.14602   2.15925   2.20167
 Alpha virt. eigenvalues --    2.25721   2.28758   2.31230   2.37393   2.43925
 Alpha virt. eigenvalues --    2.49059   2.56095   2.56733   2.58443   2.66914
 Alpha virt. eigenvalues --    2.69092   2.70517   2.74434   2.85318   2.94015
 Alpha virt. eigenvalues --    3.06332   3.08971   3.12276   3.26081   3.30428
 Alpha virt. eigenvalues --    3.39437   3.49692   3.60853   3.70637   3.77627
 Alpha virt. eigenvalues --    3.79397   3.79969   3.82162   3.82730   3.83698
 Alpha virt. eigenvalues --    3.88423   3.89803   3.91088   3.92106   3.94677
 Alpha virt. eigenvalues --    3.97016   4.05582   4.08317   4.10344   4.12278
 Alpha virt. eigenvalues --    4.13550   4.20807   4.21523   4.27867   4.34103
 Alpha virt. eigenvalues --    4.40950   4.45944   4.56838   4.72347   4.89873
 Alpha virt. eigenvalues --    5.01725   5.03710   5.07638   5.07706   5.37025
 Alpha virt. eigenvalues --    5.41870   5.81560   5.96340   6.06686   6.12027
 Alpha virt. eigenvalues --    6.28515   6.34674   6.42067   6.45560   6.67492
 Alpha virt. eigenvalues --    6.69050   6.71839   6.78079   6.84442   6.87014
 Alpha virt. eigenvalues --    6.89021   6.91290   6.91955   6.95656   6.99216
 Alpha virt. eigenvalues --    7.19049   7.22607   7.36526   7.58720   7.80748
 Alpha virt. eigenvalues --    8.08309   8.11307  10.89636  14.05553  14.47582
 Alpha virt. eigenvalues --   14.83475  14.88620  15.11266  29.03209  29.03832
 Alpha virt. eigenvalues --   29.08116  29.14129  29.23536  49.11086 148.31472
 Alpha virt. eigenvalues --  148.39154 148.72327 752.51531
          Condensed to atoms (all electrons):
              1          2          3          4          5
     1  O    8.242912  -0.217504   0.174509  -0.001344  -0.005857
     2  O   -0.217504   8.210131   0.012243   0.214816   0.001052
     3  H    0.174509   0.012243   0.617623   0.004428   0.001241
     4  H   -0.001344   0.214816   0.004428   0.569548  -0.004259
     5  Kr  -0.005857   0.001052   0.001241  -0.004259   0.001139
 Mulliken atomic charges:
              1
     1  O   -0.192714
     2  O   -0.220737
     3  H    0.189956
     4  H    0.216811
     5  Kr   0.006685
 Sum of Mulliken atomic charges =   0.00000
 Mulliken charges with hydrogens summed into heavy atoms:
              1
     1  O   -0.002758
     2  O   -0.003926
     5  Kr   0.006685
 Sum of Mulliken charges with hydrogens summed into heavy atoms =   0.00000
          Condensed to fragments (all electrons):
     1      -0.006685
     2       0.006685
 Electronic spatial extent (au):  <R**2>=            324.7524
 Charge=              0.0000 electrons
 Dipole moment (field-independent basis, Debye):
    X=              0.0237    Y=             -0.0045    Z=              0.2819  Tot=              0.2830
 Quadrupole moment (field-independent basis, Debye-Ang):
   XX=             -8.6434   YY=            -10.8085   ZZ=            -13.1365
   XY=              4.0564   XZ=             -0.8805   YZ=             -0.2872
 Traceless Quadrupole moment (field-independent basis, Debye-Ang):
   XX=              2.2194   YY=              0.0543   ZZ=             -2.2737
   XY=              4.0564   XZ=             -0.8805   YZ=             -0.2872
 Octapole moment (field-independent basis, Debye-Ang**2):
  XXX=             51.6353  YYY=             -1.2380  ZZZ=              0.1671  XYY=             21.9317
  XXY=            -16.4697  XXZ=              2.7198  XZZ=             26.2310  YZZ=             -0.5423
  YYZ=              0.3599  XYZ=              0.9088
 Hexadecapole moment (field-independent basis, Debye-Ang**3):
 XXXX=           -216.5695 YYYY=            -46.1219 ZZZZ=            -11.7277 XXXY=             51.5295
 XXXZ=             -8.2121 YYYX=              4.9921 YYYZ=             -0.3512 ZZZX=             -0.2807
 ZZZY=             -0.1528 XXYY=            -51.6798 XXZZ=            -56.6555 YYZZ=            -11.5748
 XXYZ=             -2.7789 YYXZ=             -0.9887 ZZXY=              0.2222
 N-N= 3.660094574909D+01 E-N=-4.315013545217D+02  KE= 1.504974699485D+02
 No NMR shielding tensors so no spin-rotation constants.
 Leave Link  601 at Tue May 12 16:45:17 2020, MaxMem= 1073741824 cpu:       0.9
 (Enter /home/matheus/.gaussian/g09/l122.exe)
 Counterpoise: doing DCBS calculation for fragment   2 NewBq=T
 Leave Link  122 at Tue May 12 16:45:17 2020, MaxMem= 1073741824 cpu:       0.0
 (Enter /home/matheus/.gaussian/g09/l301.exe)
 Basis read from rwf:  (5D, 7F)
 No pseudopotential information found on rwf file.
 There are   197 symmetry adapted basis functions of A   symmetry.
 Integral buffers will be    131072 words long.
 Raffenetti 2 integral format.
 Two-electron integral symmetry is turned on.
   197 basis functions,   415 primitive gaussians,   229 cartesian basis functions
    18 alpha electrons       18 beta electrons
       nuclear repulsion energy         0.0000000000 Hartrees.
 IExCor=32609 DFT=T Ex+Corr=LC-wPBE ExCW=0 ScaHFX=  1.000000
 ScaDFX=  1.000000  0.000000  1.000000  1.000000 ScalE2=  1.000000  1.000000
 IRadAn=      5 IRanWt=     -1 IRanGd=            0 ICorTp=0
  HFx wShort=  0.000000 wLong=  0.400000 cFull=  0.000000 cShort=  0.000000 cLong=  1.000000
  DFx wShort=  0.000000 wLong=  0.400000 cFull=  0.000000 cShort=  0.000000 cLong=  1.000000
 NAtoms=    5 NActive=    5 NUniq=    5 SFac= 1.00D+00 NAtFMM=   60 NAOKFM=F Big=F
 No density basis found on file   718.
 Leave Link  301 at Tue May 12 16:45:17 2020, MaxMem= 1073741824 cpu:       0.2
 (Enter /home/matheus/.gaussian/g09/l302.exe)
 NPDir=0 NMtPBC=     1 NCelOv=     1 NCel=       1 NClECP=     1 NCelD=      1
         NCelK=      1 NCelE2=     1 NClLst=     1 CellRange=     0.0.
 One-electron integrals computed using PRISM.
 NBasis=   197 RedAO= T  NBF=   197
 NBsUse=   197 1.00D-06 NBFU=   197
 Precomputing XC quadrature grid using
 IXCGrd= 2 IRadAn=           5 IRanWt=          -1 IRanGd=           0 AccXCQ= 0.00D+00.
 NRdTot=     427 NPtTot=      123814 NUsed=      126881 NTot=      126913
 NSgBfM=   229   229   229   229   229 NAtAll=     5     5.
 Leave Link  302 at Tue May 12 16:45:17 2020, MaxMem= 1073741824 cpu:       1.1
 (Enter /home/matheus/.gaussian/g09/l303.exe)
 DipDrv:  MaxL=1.
 Leave Link  303 at Tue May 12 16:45:17 2020, MaxMem= 1073741824 cpu:       0.2
 (Enter /home/matheus/.gaussian/g09/l401.exe)
 Harris functional with IExCor=32609 diagonalized for initial guess.
 ExpMin= 2.53D-02 ExpMax= 1.17D+07 ExpMxC= 1.33D+04 IAcc=3 IRadAn=         5 AccDes= 0.00D+00
 HarFok:  IExCor=32609 AccDes= 0.00D+00 IRadAn=         5 IDoV= 1
 ScaDFX=  1.000000  1.000000  1.000000  1.000000
 FoFCou: FMM=F IPFlag=           0 FMFlag=      100000 FMFlg1=           0
         NFxFlg=           0 DoJE=T BraDBF=F KetDBF=T FulRan=T
         Omega=  0.000000  0.000000  1.000000  0.000000  0.000000 ICntrl=     500 IOpCl=  0
         NMat0=    1 NMatS0=    1 NMatT0=    0 NMatD0=    1 NMtDS0=    0 NMtDT0=    0
         I1Cent=           4 NGrid=           0.
 Petite list used in FoFCou.
 Harris En= -2753.24649421478    
 Initial guess orbital symmetries:
       Occupied  (A) (A) (A) (A) (A) (A) (A) (A) (A) (A) (A) (A)
                 (A) (A) (A) (A) (A) (A)
       Virtual   (A) (A) (A) (A) (A) (A) (A) (A) (A) (A) (A) (A)
                 (A) (A) (A) (A) (A) (A) (A) (A) (A) (A) (A) (A)
                 (A) (A) (A) (A) (A) (A) (A) (A) (A) (A) (A) (A)
                 (A) (A) (A) (A) (A) (A) (A) (A) (A) (A) (A) (A)
                 (A) (A) (A) (A) (A) (A) (A) (A) (A) (A) (A) (A)
                 (A) (A) (A) (A) (A) (A) (A) (A) (A) (A) (A) (A)
                 (A) (A) (A) (A) (A) (A) (A) (A) (A) (A) (A) (A)
                 (A) (A) (A) (A) (A) (A) (A) (A) (A) (A) (A) (A)
                 (A) (A) (A) (A) (A) (A) (A) (A) (A) (A) (A) (A)
                 (A) (A) (A) (A) (A) (A) (A) (A) (A) (A) (A) (A)
                 (A) (A) (A) (A) (A) (A) (A) (A) (A) (A) (A) (A)
                 (A) (A) (A) (A) (A) (A) (A) (A) (A) (A) (A) (A)
                 (A) (A) (A) (A) (A) (A) (A) (A) (A) (A) (A) (A)
                 (A) (A) (A) (A) (A) (A) (A) (A) (A) (A) (A) (A)
                 (A) (A) (A) (A) (A) (A) (A) (A) (A) (A) (A)
 The electronic state of the initial guess is 1-A.
 Leave Link  401 at Tue May 12 16:45:18 2020, MaxMem= 1073741824 cpu:       4.1
 (Enter /home/matheus/.gaussian/g09/l502.exe)
 Closed shell SCF:
 Requested convergence on RMS density matrix=1.00D-08 within 128 cycles.
 Requested convergence on MAX density matrix=1.00D-06.
 Requested convergence on             energy=1.00D-06.
 No special actions if energy rises.
 Using DIIS extrapolation, IDIIS=  1040.
 Integral symmetry usage will be decided dynamically.
       126823 words used for storage of precomputed grid.
 IEnd=      305770 IEndB=      305770 NGot=  1073741824 MDV=  1073505365
 LenX=  1073505365 LenY=  1073452483
 Fock matrices will be formed incrementally for  20 cycles.

 Cycle   1  Pass 1  IDiag  1:
 FoFJK:  IHMeth= 1 ICntrl=     0 DoSepK=T KAlg= 1 I1Cent= 0 FoldK=F
 FoFCou: FMM=F IPFlag=           0 FMFlag=      100000 FMFlg1=           0
         NFxFlg=           0 DoJE=T BraDBF=F KetDBF=F FulRan=T
         Omega=  0.000000  0.000000  1.000000  0.000000  0.000000 ICntrl=     500 IOpCl=  0
         NMat0=    1 NMatS0=    1 NMatT0=    0 NMatD0=    1 NMtDS0=    0 NMtDT0=    0
         I1Cent=           0 NGrid=           0.
 Symmetry not used in FoFCou.
 E= -2753.38971516303    
 DIIS: error= 2.98D-02 at cycle   1 NSaved=   1.
 NSaved= 1 IEnMin= 1 EnMin= -2753.38971516303     IErMin= 1 ErrMin= 2.98D-02
 ErrMax= 2.98D-02 EMaxC= 1.00D-01 BMatC= 2.22D-01 BMatP= 2.22D-01
 IDIUse=3 WtCom= 7.02D-01 WtEn= 2.98D-01
 Coeff-Com:  0.100D+01
 Coeff-En:   0.100D+01
 Coeff:      0.100D+01
 Gap=     0.609 Goal=   None    Shift=    0.000
 GapD=    0.609 DampG=2.000 DampE=0.500 DampFc=1.0000 IDamp=-1.
 RMSDP=2.13D-03 MaxDP=1.47D-01              OVMax= 5.10D-02

 Cycle   2  Pass 1  IDiag  1:
 RMSU=  1.47D-03    CP:  1.02D+00
 FoFJK:  IHMeth= 1 ICntrl=     0 DoSepK=T KAlg= 1 I1Cent= 0 FoldK=F
 E= -2753.42035882208     Delta-E=       -0.030643659046 Rises=F Damp=F
 DIIS: error= 1.23D-02 at cycle   2 NSaved=   2.
 NSaved= 2 IEnMin= 2 EnMin= -2753.42035882208     IErMin= 2 ErrMin= 1.23D-02
 ErrMax= 1.23D-02 EMaxC= 1.00D-01 BMatC= 5.51D-02 BMatP= 2.22D-01
 IDIUse=3 WtCom= 8.77D-01 WtEn= 1.23D-01
 Coeff-Com:  0.328D+00 0.672D+00
 Coeff-En:   0.130D+00 0.870D+00
 Coeff:      0.304D+00 0.696D+00
 Gap=     0.523 Goal=   None    Shift=    0.000
 RMSDP=8.07D-04 MaxDP=5.16D-02 DE=-3.06D-02 OVMax= 2.09D-02

 Cycle   3  Pass 1  IDiag  1:
 RMSU=  1.70D-04    CP:  1.01D+00  6.40D-01
 FoFJK:  IHMeth= 1 ICntrl=     0 DoSepK=T KAlg= 1 I1Cent= 0 FoldK=F
 E= -2753.43556530857     Delta-E=       -0.015206486489 Rises=F Damp=F
 DIIS: error= 1.43D-03 at cycle   3 NSaved=   3.
 NSaved= 3 IEnMin= 3 EnMin= -2753.43556530857     IErMin= 3 ErrMin= 1.43D-03
 ErrMax= 1.43D-03 EMaxC= 1.00D-01 BMatC= 6.25D-04 BMatP= 5.51D-02
 IDIUse=3 WtCom= 9.86D-01 WtEn= 1.43D-02
 Coeff-Com: -0.250D-03 0.953D-01 0.905D+00
 Coeff-En:   0.000D+00 0.000D+00 0.100D+01
 Coeff:     -0.247D-03 0.939D-01 0.906D+00
 Gap=     0.531 Goal=   None    Shift=    0.000
 RMSDP=7.64D-05 MaxDP=4.51D-03 DE=-1.52D-02 OVMax= 2.71D-03

 Cycle   4  Pass 1  IDiag  1:
 RMSU=  1.82D-05    CP:  1.01D+00  6.74D-01  9.93D-01
 FoFJK:  IHMeth= 1 ICntrl=     0 DoSepK=T KAlg= 1 I1Cent= 0 FoldK=F
 E= -2753.43575359009     Delta-E=       -0.000188281521 Rises=F Damp=F
 DIIS: error= 3.84D-05 at cycle   4 NSaved=   4.
 NSaved= 4 IEnMin= 4 EnMin= -2753.43575359009     IErMin= 4 ErrMin= 3.84D-05
 ErrMax= 3.84D-05 EMaxC= 1.00D-01 BMatC= 4.68D-07 BMatP= 6.25D-04
 IDIUse=1 WtCom= 1.00D+00 WtEn= 0.00D+00
 Coeff-Com: -0.125D-02-0.165D-01-0.112D+00 0.113D+01
 Coeff:     -0.125D-02-0.165D-01-0.112D+00 0.113D+01
 Gap=     0.530 Goal=   None    Shift=    0.000
 RMSDP=6.45D-06 MaxDP=2.51D-04 DE=-1.88D-04 OVMax= 3.92D-04

 Cycle   5  Pass 1  IDiag  1:
 RMSU=  2.26D-06    CP:  1.01D+00  6.73D-01  1.01D+00  1.12D+00
 FoFJK:  IHMeth= 1 ICntrl=     0 DoSepK=T KAlg= 1 I1Cent= 0 FoldK=F
 E= -2753.43575412727     Delta-E=       -0.000000537180 Rises=F Damp=F
 DIIS: error= 6.67D-06 at cycle   5 NSaved=   5.
 NSaved= 5 IEnMin= 5 EnMin= -2753.43575412727     IErMin= 5 ErrMin= 6.67D-06
 ErrMax= 6.67D-06 EMaxC= 1.00D-01 BMatC= 1.15D-08 BMatP= 4.68D-07
 IDIUse=1 WtCom= 1.00D+00 WtEn= 0.00D+00
 Coeff-Com:  0.277D-04-0.239D-02-0.244D-01 0.934D-01 0.933D+00
 Coeff:      0.277D-04-0.239D-02-0.244D-01 0.934D-01 0.933D+00
 Gap=     0.530 Goal=   None    Shift=    0.000
 RMSDP=7.15D-07 MaxDP=3.09D-05 DE=-5.37D-07 OVMax= 3.05D-05

 Cycle   6  Pass 1  IDiag  1:
 RMSU=  2.14D-07    CP:  1.01D+00  6.73D-01  1.01D+00  1.15D+00  1.03D+00
 FoFJK:  IHMeth= 1 ICntrl=     0 DoSepK=T KAlg= 1 I1Cent= 0 FoldK=F
 E= -2753.43575413670     Delta-E=       -0.000000009430 Rises=F Damp=F
 DIIS: error= 3.38D-07 at cycle   6 NSaved=   6.
 NSaved= 6 IEnMin= 6 EnMin= -2753.43575413670     IErMin= 6 ErrMin= 3.38D-07
 ErrMax= 3.38D-07 EMaxC= 1.00D-01 BMatC= 4.17D-11 BMatP= 1.15D-08
 IDIUse=1 WtCom= 1.00D+00 WtEn= 0.00D+00
 Coeff-Com:  0.258D-05 0.153D-03 0.159D-02-0.113D-01-0.795D-01 0.109D+01
 Coeff:      0.258D-05 0.153D-03 0.159D-02-0.113D-01-0.795D-01 0.109D+01
 Gap=     0.530 Goal=   None    Shift=    0.000
 RMSDP=9.82D-08 MaxDP=3.59D-06 DE=-9.43D-09 OVMax= 4.48D-06

 Cycle   7  Pass 1  IDiag  1:
 RMSU=  1.63D-08    CP:  1.01D+00  6.73D-01  1.01D+00  1.15D+00  1.04D+00
                    CP:  1.23D+00
 FoFJK:  IHMeth= 1 ICntrl=     0 DoSepK=T KAlg= 1 I1Cent= 0 FoldK=F
 E= -2753.43575413678     Delta-E=       -0.000000000080 Rises=F Damp=F
 DIIS: error= 6.99D-08 at cycle   7 NSaved=   7.
 NSaved= 7 IEnMin= 7 EnMin= -2753.43575413678     IErMin= 7 ErrMin= 6.99D-08
 ErrMax= 6.99D-08 EMaxC= 1.00D-01 BMatC= 1.43D-12 BMatP= 4.17D-11
 IDIUse=1 WtCom= 1.00D+00 WtEn= 0.00D+00
 Coeff-Com: -0.217D-06 0.267D-04 0.287D-03-0.150D-02-0.164D-01 0.127D+00
 Coeff-Com:  0.890D+00
 Coeff:     -0.217D-06 0.267D-04 0.287D-03-0.150D-02-0.164D-01 0.127D+00
 Coeff:      0.890D+00
 Gap=     0.530 Goal=   None    Shift=    0.000
 RMSDP=1.09D-08 MaxDP=4.03D-07 DE=-7.96D-11 OVMax= 6.34D-07

 Cycle   8  Pass 1  IDiag  1:
 RMSU=  3.77D-09    CP:  1.01D+00  6.73D-01  1.01D+00  1.15D+00  1.04D+00
                    CP:  1.25D+00  1.11D+00
 FoFJK:  IHMeth= 1 ICntrl=     0 DoSepK=T KAlg= 1 I1Cent= 0 FoldK=F
 E= -2753.43575413679     Delta-E=       -0.000000000012 Rises=F Damp=F
 DIIS: error= 1.81D-08 at cycle   8 NSaved=   8.
 NSaved= 8 IEnMin= 8 EnMin= -2753.43575413679     IErMin= 8 ErrMin= 1.81D-08
 ErrMax= 1.81D-08 EMaxC= 1.00D-01 BMatC= 1.12D-13 BMatP= 1.43D-12
 IDIUse=1 WtCom= 1.00D+00 WtEn= 0.00D+00
 Coeff-Com: -0.289D-06-0.123D-04-0.126D-03 0.972D-03 0.510D-02-0.854D-01
 Coeff-Com:  0.650D-01 0.101D+01
 Coeff:     -0.289D-06-0.123D-04-0.126D-03 0.972D-03 0.510D-02-0.854D-01
 Coeff:      0.650D-01 0.101D+01
 Gap=     0.530 Goal=   None    Shift=    0.000
 RMSDP=3.93D-09 MaxDP=1.58D-07 DE=-1.23D-11 OVMax= 2.42D-07

 SCF Done:  E(RLC-wPBE) =  -2753.43575414     A.U. after    8 cycles
             Convg  =    0.3934D-08             -V/T =  2.0014
 KE= 2.749487907113D+03 PE=-6.578896384145D+03 EE= 1.075972722895D+03
 Leave Link  502 at Tue May 12 16:45:45 2020, MaxMem= 1073741824 cpu:     221.0
 (Enter /home/matheus/.gaussian/g09/l601.exe)
 Copying SCF densities to generalized density rwf, IOpCl= 0 IROHF=0.

 **********************************************************************

            Population analysis using the SCF density.

 **********************************************************************

 Orbital symmetries:
       Occupied  (A) (A) (A) (A) (A) (A) (A) (A) (A) (A) (A) (A)
                 (A) (A) (A) (A) (A) (A)
       Virtual   (A) (A) (A) (A) (A) (A) (A) (A) (A) (A) (A) (A)
                 (A) (A) (A) (A) (A) (A) (A) (A) (A) (A) (A) (A)
                 (A) (A) (A) (A) (A) (A) (A) (A) (A) (A) (A) (A)
                 (A) (A) (A) (A) (A) (A) (A) (A) (A) (A) (A) (A)
                 (A) (A) (A) (A) (A) (A) (A) (A) (A) (A) (A) (A)
                 (A) (A) (A) (A) (A) (A) (A) (A) (A) (A) (A) (A)
                 (A) (A) (A) (A) (A) (A) (A) (A) (A) (A) (A) (A)
                 (A) (A) (A) (A) (A) (A) (A) (A) (A) (A) (A) (A)
                 (A) (A) (A) (A) (A) (A) (A) (A) (A) (A) (A) (A)
                 (A) (A) (A) (A) (A) (A) (A) (A) (A) (A) (A) (A)
                 (A) (A) (A) (A) (A) (A) (A) (A) (A) (A) (A) (A)
                 (A) (A) (A) (A) (A) (A) (A) (A) (A) (A) (A) (A)
                 (A) (A) (A) (A) (A) (A) (A) (A) (A) (A) (A) (A)
                 (A) (A) (A) (A) (A) (A) (A) (A) (A) (A) (A) (A)
                 (A) (A) (A) (A) (A) (A) (A) (A) (A) (A) (A)
 The electronic state is 1-A.
 Alpha  occ. eigenvalues -- -511.10626 -66.65305 -60.31519 -60.31516 -60.31515
 Alpha  occ. eigenvalues --   -9.58572  -7.32996  -7.32994  -7.32994  -3.28540
 Alpha  occ. eigenvalues --   -3.28539  -3.28539  -3.28538  -3.28538  -1.03232
 Alpha  occ. eigenvalues --   -0.50220  -0.50217  -0.50216
 Alpha virt. eigenvalues --    0.02829   0.04852   0.08294   0.09877   0.10749
 Alpha virt. eigenvalues --    0.12154   0.12978   0.14415   0.16526   0.17001
 Alpha virt. eigenvalues --    0.17783   0.19515   0.21070   0.26308   0.27153
 Alpha virt. eigenvalues --    0.27761   0.28350   0.32794   0.34015   0.35575
 Alpha virt. eigenvalues --    0.35784   0.36925   0.37933   0.39282   0.41697
 Alpha virt. eigenvalues --    0.43161   0.43584   0.53724   0.55378   0.58061
 Alpha virt. eigenvalues --    0.61360   0.65135   0.67214   0.68469   0.70612
 Alpha virt. eigenvalues --    0.74919   0.75084   0.75803   0.77581   0.77827
 Alpha virt. eigenvalues --    0.81057   0.81700   0.83150   0.84425   0.85097
 Alpha virt. eigenvalues --    0.86645   0.88017   0.89081   0.91890   0.94835
 Alpha virt. eigenvalues --    0.97735   0.99451   1.01489   1.02846   1.04705
 Alpha virt. eigenvalues --    1.06302   1.07701   1.08578   1.12594   1.13578
 Alpha virt. eigenvalues --    1.16023   1.18132   1.18901   1.26060   1.28282
 Alpha virt. eigenvalues --    1.32495   1.34729   1.42143   1.43495   1.44602
 Alpha virt. eigenvalues --    1.57060   1.59904   1.70449   1.75034   1.77136
 Alpha virt. eigenvalues --    1.82561   1.85861   1.87116   1.88466   2.15078
 Alpha virt. eigenvalues --    2.19803   2.24990   2.27448   2.30895   2.31422
 Alpha virt. eigenvalues --    2.32371   2.33858   2.36188   2.39555   2.40010
 Alpha virt. eigenvalues --    2.41395   2.46039   2.49062   2.49633   2.49784
 Alpha virt. eigenvalues --    2.52744   2.54089   2.54740   2.57253   2.59592
 Alpha virt. eigenvalues --    2.61188   2.61867   2.62813   2.64866   2.67140
 Alpha virt. eigenvalues --    2.69425   2.70363   2.77103   2.78599   2.87701
 Alpha virt. eigenvalues --    2.89186   3.02355   3.05100   3.11008   3.15039
 Alpha virt. eigenvalues --    3.23747   3.27645   3.28624   3.34907   3.52622
 Alpha virt. eigenvalues --    3.59621   3.64501   3.85020   3.87346   4.03303
 Alpha virt. eigenvalues --    4.33367   4.43511   4.55844   4.56784   4.62390
 Alpha virt. eigenvalues --    4.73245   4.90228   4.91394   4.93695   5.03387
 Alpha virt. eigenvalues --    5.11872   5.14619   5.59503   5.66882   5.85916
 Alpha virt. eigenvalues --    5.87907   5.94755   6.21661   6.84356   6.94163
 Alpha virt. eigenvalues --    7.26139   7.42205   7.60448   7.65522   7.74482
 Alpha virt. eigenvalues --    7.79120   8.09054   8.09816   8.16872   8.25410
 Alpha virt. eigenvalues --    8.33819   8.37858   8.68891   8.89938   9.64041
 Alpha virt. eigenvalues --    9.70635   9.76921   9.83833   9.95863  10.06073
 Alpha virt. eigenvalues --   10.17731  10.20706  10.49672  10.93216  11.42528
 Alpha virt. eigenvalues --   11.56349  11.61549  12.03082  12.13473  13.21707
 Alpha virt. eigenvalues --   13.69123  14.53058  62.93857  64.52162
          Condensed to atoms (all electrons):
              1          2          3          4          5
     1  O    0.002162  -0.001840  -0.001103   0.001009  -0.007212
     2  O   -0.001840   0.004591   0.000719  -0.003185  -0.001036
     3  H   -0.001103   0.000719   0.000731  -0.000369   0.000969
     4  H    0.001009  -0.003185  -0.000369   0.003925  -0.028803
     5  Kr  -0.007212  -0.001036   0.000969  -0.028803  36.070295
 Mulliken atomic charges:
              1
     1  O    0.006983
     2  O    0.000752
     3  H   -0.000946
     4  H    0.027424
     5  Kr  -0.034212
 Sum of Mulliken atomic charges =   0.00000
 Mulliken charges with hydrogens summed into heavy atoms:
              1
     1  O    0.006037
     2  O    0.028176
     5  Kr  -0.034212
 Sum of Mulliken charges with hydrogens summed into heavy atoms =   0.00000
          Condensed to fragments (all electrons):
     1       0.034212
     2      -0.034212
 Electronic spatial extent (au):  <R**2>=            167.7974
 Charge=              0.0000 electrons
 Dipole moment (field-independent basis, Debye):
    X=             -0.0008    Y=              0.0004    Z=              0.0000  Tot=              0.0009
 Quadrupole moment (field-independent basis, Debye-Ang):
   XX=            -17.6156   YY=            -17.6228   ZZ=            -17.6274
   XY=             -0.0037   XZ=              0.0000   YZ=              0.0001
 Traceless Quadrupole moment (field-independent basis, Debye-Ang):
   XX=              0.0064   YY=             -0.0009   ZZ=             -0.0055
   XY=             -0.0037   XZ=              0.0000   YZ=              0.0001
 Octapole moment (field-independent basis, Debye-Ang**2):
  XXX=            -52.8239  YYY=              0.9972  ZZZ=             -0.0538  XYY=            -17.6158
  XXY=              0.3244  XXZ=             -0.0182  XZZ=            -17.6182  YZZ=              0.3327
  YYZ=             -0.0178  XYZ=              0.0001
 Hexadecapole moment (field-independent basis, Debye-Ang**3):
 XXXX=           -123.9697 YYYY=            -18.4098 ZZZZ=            -18.3847 XXXY=              0.9790
 XXXZ=             -0.0542 YYYX=              0.9838 YYYZ=              0.0008 ZZZX=             -0.0539
 ZZZY=              0.0012 XXYY=            -23.7355 XXZZ=            -23.7319 YYZZ=             -6.1296
 XXYZ=              0.0004 YYXZ=             -0.0180 ZZXY=              0.3270
 N-N= 0.000000000000D+00 E-N=-6.578896385906D+03  KE= 2.749487907113D+03
 No NMR shielding tensors so no spin-rotation constants.
 Leave Link  601 at Tue May 12 16:45:46 2020, MaxMem= 1073741824 cpu:       0.8
 (Enter /home/matheus/.gaussian/g09/l122.exe)
 Counterpoise: doing MCBS calculation for fragment   1
 Leave Link  122 at Tue May 12 16:45:46 2020, MaxMem= 1073741824 cpu:       0.0
 (Enter /home/matheus/.gaussian/g09/l301.exe)
 Basis read from rwf:  (5D, 7F)
 No pseudopotential information found on rwf file.
 There are   138 symmetry adapted basis functions of A   symmetry.
 Integral buffers will be    131072 words long.
 Raffenetti 2 integral format.
 Two-electron integral symmetry is turned on.
   138 basis functions,   198 primitive gaussians,   160 cartesian basis functions
     9 alpha electrons        9 beta electrons
       nuclear repulsion energy        36.6009457491 Hartrees.
 IExCor=32609 DFT=T Ex+Corr=LC-wPBE ExCW=0 ScaHFX=  1.000000
 ScaDFX=  1.000000  0.000000  1.000000  1.000000 ScalE2=  1.000000  1.000000
 IRadAn=      5 IRanWt=     -1 IRanGd=            0 ICorTp=0
  HFx wShort=  0.000000 wLong=  0.400000 cFull=  0.000000 cShort=  0.000000 cLong=  1.000000
  DFx wShort=  0.000000 wLong=  0.400000 cFull=  0.000000 cShort=  0.000000 cLong=  1.000000
 NAtoms=    5 NActive=    4 NUniq=    4 SFac= 1.00D+00 NAtFMM=   60 NAOKFM=F Big=F
 No density basis found on file   718.
 Leave Link  301 at Tue May 12 16:45:46 2020, MaxMem= 1073741824 cpu:       0.2
 (Enter /home/matheus/.gaussian/g09/l302.exe)
 NPDir=0 NMtPBC=     1 NCelOv=     1 NCel=       1 NClECP=     1 NCelD=      1
         NCelK=      1 NCelE2=     1 NClLst=     1 CellRange=     0.0.
 One-electron integrals computed using PRISM.
 NBasis=   138 RedAO= T  NBF=   138
 NBsUse=   138 1.00D-06 NBFU=   138
 Precomputing XC quadrature grid using
 IXCGrd= 2 IRadAn=           5 IRanWt=          -1 IRanGd=           0 AccXCQ= 0.00D+00.
 NRdTot=     344 NPtTot=       92556 NUsed=       95038 NTot=       95070
 NSgBfM=   160   160   160   160   160 NAtAll=     4     4.
 Leave Link  302 at Tue May 12 16:45:46 2020, MaxMem= 1073741824 cpu:       0.8
 (Enter /home/matheus/.gaussian/g09/l303.exe)
 DipDrv:  MaxL=1.
 Leave Link  303 at Tue May 12 16:45:46 2020, MaxMem= 1073741824 cpu:       0.2
 (Enter /home/matheus/.gaussian/g09/l401.exe)
 Harris functional with IExCor=32609 diagonalized for initial guess.
 ExpMin= 2.53D-02 ExpMax= 1.53D+04 ExpMxC= 5.22D+02 IAcc=3 IRadAn=         5 AccDes= 0.00D+00
 HarFok:  IExCor=32609 AccDes= 0.00D+00 IRadAn=         5 IDoV= 1
 ScaDFX=  1.000000  1.000000  1.000000  1.000000
 FoFCou: FMM=F IPFlag=           0 FMFlag=      100000 FMFlg1=           0
         NFxFlg=           0 DoJE=T BraDBF=F KetDBF=T FulRan=T
         Omega=  0.000000  0.000000  1.000000  0.000000  0.000000 ICntrl=     500 IOpCl=  0
         NMat0=    1 NMatS0=    1 NMatT0=    0 NMatD0=    1 NMtDS0=    0 NMtDT0=    0
         I1Cent=           4 NGrid=           0.
 Petite list used in FoFCou.
 Harris En= -151.499592648327    
 Initial guess orbital symmetries:
       Occupied  (A) (A) (A) (A) (A) (A) (A) (A) (A)
       Virtual   (A) (A) (A) (A) (A) (A) (A) (A) (A) (A) (A) (A)
                 (A) (A) (A) (A) (A) (A) (A) (A) (A) (A) (A) (A)
                 (A) (A) (A) (A) (A) (A) (A) (A) (A) (A) (A) (A)
                 (A) (A) (A) (A) (A) (A) (A) (A) (A) (A) (A) (A)
                 (A) (A) (A) (A) (A) (A) (A) (A) (A) (A) (A) (A)
                 (A) (A) (A) (A) (A) (A) (A) (A) (A) (A) (A) (A)
                 (A) (A) (A) (A) (A) (A) (A) (A) (A) (A) (A) (A)
                 (A) (A) (A) (A) (A) (A) (A) (A) (A) (A) (A) (A)
                 (A) (A) (A) (A) (A) (A) (A) (A) (A) (A) (A) (A)
                 (A) (A) (A) (A) (A) (A) (A) (A) (A) (A) (A) (A)
                 (A) (A) (A) (A) (A) (A) (A) (A) (A)
 The electronic state of the initial guess is 1-A.
 Leave Link  401 at Tue May 12 16:45:46 2020, MaxMem= 1073741824 cpu:       2.4
 (Enter /home/matheus/.gaussian/g09/l502.exe)
 Closed shell SCF:
 Requested convergence on RMS density matrix=1.00D-08 within 128 cycles.
 Requested convergence on MAX density matrix=1.00D-06.
 Requested convergence on             energy=1.00D-06.
 No special actions if energy rises.
 Using DIIS extrapolation, IDIIS=  1040.
 Integral symmetry usage will be decided dynamically.
        94980 words used for storage of precomputed grid.
 IEnd=      192360 IEndB=      192360 NGot=  1073741824 MDV=  1073591865
 LenX=  1073591865 LenY=  1073565824
 Fock matrices will be formed incrementally for  20 cycles.

 Cycle   1  Pass 1  IDiag  1:
 FoFJK:  IHMeth= 1 ICntrl=     0 DoSepK=T KAlg= 1 I1Cent= 0 FoldK=F
 FoFCou: FMM=F IPFlag=           0 FMFlag=      100000 FMFlg1=           0
         NFxFlg=           0 DoJE=T BraDBF=F KetDBF=F FulRan=T
         Omega=  0.000000  0.000000  1.000000  0.000000  0.000000 ICntrl=     500 IOpCl=  0
         NMat0=    1 NMatS0=    1 NMatT0=    0 NMatD0=    1 NMtDS0=    0 NMtDT0=    0
         I1Cent=           0 NGrid=           0.
 Symmetry not used in FoFCou.
 E= -151.496165671158    
 DIIS: error= 1.65D-02 at cycle   1 NSaved=   1.
 NSaved= 1 IEnMin= 1 EnMin= -151.496165671158     IErMin= 1 ErrMin= 1.65D-02
 ErrMax= 1.65D-02 EMaxC= 1.00D-01 BMatC= 3.83D-02 BMatP= 3.83D-02
 IDIUse=3 WtCom= 8.35D-01 WtEn= 1.65D-01
 Coeff-Com:  0.100D+01
 Coeff-En:   0.100D+01
 Coeff:      0.100D+01
 Gap=     0.475 Goal=   None    Shift=    0.000
 GapD=    0.475 DampG=2.000 DampE=0.500 DampFc=1.0000 IDamp=-1.
 RMSDP=1.20D-03 MaxDP=2.53D-02              OVMax= 5.40D-02

 Cycle   2  Pass 1  IDiag  1:
 RMSU=  8.39D-04    CP:  9.89D-01
 FoFJK:  IHMeth= 1 ICntrl=     0 DoSepK=T KAlg= 1 I1Cent= 0 FoldK=F
 E= -151.509753677654     Delta-E=       -0.013588006496 Rises=F Damp=F
 DIIS: error= 1.46D-02 at cycle   2 NSaved=   2.
 NSaved= 2 IEnMin= 2 EnMin= -151.509753677654     IErMin= 2 ErrMin= 1.46D-02
 ErrMax= 1.46D-02 EMaxC= 1.00D-01 BMatC= 2.06D-02 BMatP= 3.83D-02
 IDIUse=3 WtCom= 8.54D-01 WtEn= 1.46D-01
 Coeff-Com:  0.414D+00 0.586D+00
 Coeff-En:   0.242D+00 0.758D+00
 Coeff:      0.389D+00 0.611D+00
 Gap=     0.423 Goal=   None    Shift=    0.000
 RMSDP=6.13D-04 MaxDP=2.24D-02 DE=-1.36D-02 OVMax= 2.51D-02

 Cycle   3  Pass 1  IDiag  1:
 RMSU=  3.28D-04    CP:  9.86D-01  6.64D-01
 FoFJK:  IHMeth= 1 ICntrl=     0 DoSepK=T KAlg= 1 I1Cent= 0 FoldK=F
 E= -151.521398256873     Delta-E=       -0.011644579219 Rises=F Damp=F
 DIIS: error= 2.42D-03 at cycle   3 NSaved=   3.
 NSaved= 3 IEnMin= 3 EnMin= -151.521398256873     IErMin= 3 ErrMin= 2.42D-03
 ErrMax= 2.42D-03 EMaxC= 1.00D-01 BMatC= 4.63D-04 BMatP= 2.06D-02
 IDIUse=3 WtCom= 9.76D-01 WtEn= 2.42D-02
 Coeff-Com:  0.616D-01 0.162D+00 0.777D+00
 Coeff-En:   0.000D+00 0.000D+00 0.100D+01
 Coeff:      0.601D-01 0.158D+00 0.782D+00
 Gap=     0.416 Goal=   None    Shift=    0.000
 RMSDP=8.76D-05 MaxDP=2.00D-03 DE=-1.16D-02 OVMax= 4.19D-03

 Cycle   4  Pass 1  IDiag  1:
 RMSU=  4.22D-05    CP:  9.84D-01  7.14D-01  1.01D+00
 FoFJK:  IHMeth= 1 ICntrl=     0 DoSepK=T KAlg= 1 I1Cent= 0 FoldK=F
 E= -151.521682415664     Delta-E=       -0.000284158791 Rises=F Damp=F
 DIIS: error= 3.64D-04 at cycle   4 NSaved=   4.
 NSaved= 4 IEnMin= 4 EnMin= -151.521682415664     IErMin= 4 ErrMin= 3.64D-04
 ErrMax= 3.64D-04 EMaxC= 1.00D-01 BMatC= 1.46D-05 BMatP= 4.63D-04
 IDIUse=3 WtCom= 9.96D-01 WtEn= 3.64D-03
 Coeff-Com: -0.402D-02-0.641D-02 0.124D+00 0.886D+00
 Coeff-En:   0.000D+00 0.000D+00 0.000D+00 0.100D+01
 Coeff:     -0.401D-02-0.639D-02 0.124D+00 0.886D+00
 Gap=     0.418 Goal=   None    Shift=    0.000
 RMSDP=1.88D-05 MaxDP=9.27D-04 DE=-2.84D-04 OVMax= 8.40D-04

 Cycle   5  Pass 1  IDiag  1:
 RMSU=  7.44D-06    CP:  9.84D-01  7.13D-01  1.04D+00  1.03D+00
 FoFJK:  IHMeth= 1 ICntrl=     0 DoSepK=T KAlg= 1 I1Cent= 0 FoldK=F
 E= -151.521692357349     Delta-E=       -0.000009941685 Rises=F Damp=F
 DIIS: error= 4.81D-05 at cycle   5 NSaved=   5.
 NSaved= 5 IEnMin= 5 EnMin= -151.521692357349     IErMin= 5 ErrMin= 4.81D-05
 ErrMax= 4.81D-05 EMaxC= 1.00D-01 BMatC= 1.24D-07 BMatP= 1.46D-05
 IDIUse=1 WtCom= 1.00D+00 WtEn= 0.00D+00
 Coeff-Com: -0.106D-02-0.355D-02-0.294D-01-0.735D-01 0.111D+01
 Coeff:     -0.106D-02-0.355D-02-0.294D-01-0.735D-01 0.111D+01
 Gap=     0.418 Goal=   None    Shift=    0.000
 RMSDP=4.74D-06 MaxDP=1.02D-04 DE=-9.94D-06 OVMax= 2.26D-04

 Cycle   6  Pass 1  IDiag  1:
 RMSU=  1.63D-06    CP:  9.84D-01  7.14D-01  1.04D+00  1.07D+00  1.31D+00
 FoFJK:  IHMeth= 1 ICntrl=     0 DoSepK=T KAlg= 1 I1Cent= 0 FoldK=F
 E= -151.521692613186     Delta-E=       -0.000000255838 Rises=F Damp=F
 DIIS: error= 1.03D-05 at cycle   6 NSaved=   6.
 NSaved= 6 IEnMin= 6 EnMin= -151.521692613186     IErMin= 6 ErrMin= 1.03D-05
 ErrMax= 1.03D-05 EMaxC= 1.00D-01 BMatC= 4.76D-09 BMatP= 1.24D-07
 IDIUse=1 WtCom= 1.00D+00 WtEn= 0.00D+00
 Coeff-Com:  0.142D-03 0.371D-03-0.156D-02-0.180D-01-0.398D-01 0.106D+01
 Coeff:      0.142D-03 0.371D-03-0.156D-02-0.180D-01-0.398D-01 0.106D+01
 Gap=     0.418 Goal=   None    Shift=    0.000
 RMSDP=8.91D-07 MaxDP=1.37D-05 DE=-2.56D-07 OVMax= 4.90D-05

 Cycle   7  Pass 1  IDiag  1:
 RMSU=  3.03D-07    CP:  9.84D-01  7.14D-01  1.04D+00  1.08D+00  1.36D+00
                    CP:  1.20D+00
 FoFJK:  IHMeth= 1 ICntrl=     0 DoSepK=T KAlg= 1 I1Cent= 0 FoldK=F
 E= -151.521692617881     Delta-E=       -0.000000004695 Rises=F Damp=F
 DIIS: error= 2.35D-06 at cycle   7 NSaved=   7.
 NSaved= 7 IEnMin= 7 EnMin= -151.521692617881     IErMin= 7 ErrMin= 2.35D-06
 ErrMax= 2.35D-06 EMaxC= 1.00D-01 BMatC= 2.43D-10 BMatP= 4.76D-09
 IDIUse=1 WtCom= 1.00D+00 WtEn= 0.00D+00
 Coeff-Com:  0.179D-04 0.710D-04 0.104D-02 0.418D-02-0.367D-01-0.126D+00
 Coeff-Com:  0.116D+01
 Coeff:      0.179D-04 0.710D-04 0.104D-02 0.418D-02-0.367D-01-0.126D+00
 Coeff:      0.116D+01
 Gap=     0.418 Goal=   None    Shift=    0.000
 RMSDP=2.38D-07 MaxDP=2.97D-06 DE=-4.69D-09 OVMax= 1.68D-05

 Cycle   8  Pass 1  IDiag  1:
 RMSU=  5.95D-08    CP:  9.84D-01  7.14D-01  1.04D+00  1.08D+00  1.36D+00
                    CP:  1.26D+00  1.35D+00
 FoFJK:  IHMeth= 1 ICntrl=     0 DoSepK=T KAlg= 1 I1Cent= 0 FoldK=F
 E= -151.521692630944     Delta-E=       -0.000000013063 Rises=F Damp=F
 DIIS: error= 5.44D-07 at cycle   8 NSaved=   8.
 NSaved= 8 IEnMin= 8 EnMin= -151.521692630944     IErMin= 8 ErrMin= 5.44D-07
 ErrMax= 5.44D-07 EMaxC= 1.00D-01 BMatC= 1.45D-11 BMatP= 2.43D-10
[...]

 Cycle   2  Pass 1  IDiag  1:
 RMSU=  1.21D-05    CP:  1.00D+00
 FoFJK:  IHMeth= 1 ICntrl=     0 DoSepK=T KAlg= 1 I1Cent= 0 FoldK=F
 E= -2753.43565083744     Delta-E=       -0.000000468463 Rises=F Damp=F
 DIIS: error= 2.93D-06 at cycle   2 NSaved=   2.
 NSaved= 2 IEnMin= 2 EnMin= -2753.43565083744     IErMin= 2 ErrMin= 2.93D-06
 ErrMax= 2.93D-06 EMaxC= 1.00D-01 BMatC= 2.77D-09 BMatP= 5.21D-06
 IDIUse=1 WtCom= 1.00D+00 WtEn= 0.00D+00
 Coeff-Com: -0.642D-02 0.101D+01
 Coeff:     -0.642D-02 0.101D+01
 Gap=     0.529 Goal=   None    Shift=    0.000
 RMSDP=1.41D-06 MaxDP=5.17D-05 DE=-4.68D-07 OVMax= 3.89D-05

 Cycle   3  Pass 1  IDiag  1:
 RMSU=  5.01D-07    CP:  1.00D+00  1.07D+00
 FoFJK:  IHMeth= 1 ICntrl=     0 DoSepK=T KAlg= 1 I1Cent= 0 FoldK=F
 E= -2753.43565084216     Delta-E=       -0.000000004727 Rises=F Damp=F
 DIIS: error= 4.46D-07 at cycle   3 NSaved=   3.
 NSaved= 3 IEnMin= 3 EnMin= -2753.43565084216     IErMin= 3 ErrMin= 4.46D-07
 ErrMax= 4.46D-07 EMaxC= 1.00D-01 BMatC= 7.80D-11 BMatP= 2.77D-09
 IDIUse=1 WtCom= 1.00D+00 WtEn= 0.00D+00
 Coeff-Com:  0.201D-03-0.105D+00 0.110D+01
 Coeff:      0.201D-03-0.105D+00 0.110D+01
 Gap=     0.529 Goal=   None    Shift=    0.000
 RMSDP=1.64D-07 MaxDP=6.01D-06 DE=-4.73D-09 OVMax= 7.78D-06

 Cycle   4  Pass 1  IDiag  1:
 RMSU=  5.41D-08    CP:  1.00D+00  1.08D+00  1.18D+00
 FoFJK:  IHMeth= 1 ICntrl=     0 DoSepK=T KAlg= 1 I1Cent= 0 FoldK=F
 E= -2753.43565084230     Delta-E=       -0.000000000141 Rises=F Damp=F
 DIIS: error= 3.17D-07 at cycle   4 NSaved=   4.
 NSaved= 4 IEnMin= 4 EnMin= -2753.43565084230     IErMin= 4 ErrMin= 3.17D-07
 ErrMax= 3.17D-07 EMaxC= 1.00D-01 BMatC= 1.20D-11 BMatP= 7.80D-11
 IDIUse=1 WtCom= 1.00D+00 WtEn= 0.00D+00
 Coeff-Com:  0.184D-03-0.522D-01 0.327D+00 0.725D+00
 Coeff:      0.184D-03-0.522D-01 0.327D+00 0.725D+00
 Gap=     0.529 Goal=   None    Shift=    0.000
 RMSDP=1.90D-08 MaxDP=8.07D-07 DE=-1.41D-10 OVMax= 9.03D-07

 Cycle   5  Pass 1  IDiag  1:
 RMSU=  9.34D-09    CP:  1.00D+00  1.07D+00  1.19D+00  1.11D+00
 FoFJK:  IHMeth= 1 ICntrl=     0 DoSepK=T KAlg= 1 I1Cent= 0 FoldK=F
 E= -2753.43565084231     Delta-E=       -0.000000000007 Rises=F Damp=F
 DIIS: error= 3.50D-08 at cycle   5 NSaved=   5.
 NSaved= 5 IEnMin= 5 EnMin= -2753.43565084231     IErMin= 5 ErrMin= 3.50D-08
 ErrMax= 3.50D-08 EMaxC= 1.00D-01 BMatC= 2.03D-13 BMatP= 1.20D-11
 IDIUse=1 WtCom= 1.00D+00 WtEn= 0.00D+00
 Coeff-Com:  0.304D-05 0.182D-02-0.308D-01 0.223D-01 0.101D+01
 Coeff:      0.304D-05 0.182D-02-0.308D-01 0.223D-01 0.101D+01
 Gap=     0.529 Goal=   None    Shift=    0.000
 RMSDP=8.65D-09 MaxDP=5.12D-07 DE=-7.28D-12 OVMax= 3.18D-07

 SCF Done:  E(RLC-wPBE) =  -2753.43565084     A.U. after    5 cycles
             Convg  =    0.8652D-08             -V/T =  2.0014
 KE= 2.749528197827D+03 PE=-6.578941087425D+03 EE= 1.075977238756D+03
 Leave Link  502 at Tue May 12 17:08:19 2020, MaxMem= 1073741824 cpu:      93.3
 (Enter /home/matheus/.gaussian/g09/l122.exe)
 Restoring MOs from calculation   4 to rwf.
 Counterpoise: doing MCBS calculation for fragment   1
 Leave Link  122 at Tue May 12 17:08:19 2020, MaxMem= 1073741824 cpu:       0.0
 (Enter /home/matheus/.gaussian/g09/l301.exe)
 Basis read from rwf:  (5D, 7F)
 No pseudopotential information found on rwf file.
 There are   138 symmetry adapted basis functions of A   symmetry.
 Integral buffers will be    131072 words long.
 Raffenetti 2 integral format.
 Two-electron integral symmetry is turned on.
   138 basis functions,   198 primitive gaussians,   160 cartesian basis functions
     9 alpha electrons        9 beta electrons
       nuclear repulsion energy        36.6009457491 Hartrees.
 IExCor=32609 DFT=T Ex+Corr=LC-wPBE ExCW=0 ScaHFX=  1.000000
 ScaDFX=  1.000000  0.000000  1.000000  1.000000 ScalE2=  1.000000  1.000000
 IRadAn=      5 IRanWt=     -1 IRanGd=            0 ICorTp=0
  HFx wShort=  0.000000 wLong=  0.400000 cFull=  0.000000 cShort=  0.000000 cLong=  1.000000
  DFx wShort=  0.000000 wLong=  0.400000 cFull=  0.000000 cShort=  0.000000 cLong=  1.000000
 NAtoms=    5 NActive=    4 NUniq=    4 SFac= 1.00D+00 NAtFMM=   60 NAOKFM=F Big=F
 No density basis found on file   718.
 Leave Link  301 at Tue May 12 17:08:19 2020, MaxMem= 1073741824 cpu:       0.2
 (Enter /home/matheus/.gaussian/g09/l302.exe)
 NPDir=0 NMtPBC=     1 NCelOv=     1 NCel=       1 NClECP=     1 NCelD=      1
         NCelK=      1 NCelE2=     1 NClLst=     1 CellRange=     0.0.
 One-electron integrals computed using PRISM.
 NBasis=   138 RedAO= T  NBF=   138
 NBsUse=   138 1.00D-06 NBFU=   138
 Precomputing XC quadrature grid using
 IXCGrd= 2 IRadAn=           5 IRanWt=          -1 IRanGd=           0 AccXCQ= 0.00D+00.
 NRdTot=     344 NPtTot=       92556 NUsed=       95038 NTot=       95070
 NSgBfM=   160   160   160   160   160 NAtAll=     4     4.
 Leave Link  302 at Tue May 12 17:08:19 2020, MaxMem= 1073741824 cpu:       0.7
 (Enter /home/matheus/.gaussian/g09/l303.exe)
 DipDrv:  MaxL=1.
 Leave Link  303 at Tue May 12 17:08:19 2020, MaxMem= 1073741824 cpu:       0.1
 (Enter /home/matheus/.gaussian/g09/l401.exe)
 Initial guess read from the read-write file.
 Guess basis will be translated and rotated to current coordinates.
 Initial guess orbital symmetries:
       Occupied  (A) (A) (A) (A) (A) (A) (A) (A) (A)
       Virtual   (A) (A) (A) (A) (A) (A) (A) (A) (A) (A) (A) (A)
                 (A) (A) (A) (A) (A) (A) (A) (A) (A) (A) (A) (A)
                 (A) (A) (A) (A) (A) (A) (A) (A) (A) (A) (A) (A)
                 (A) (A) (A) (A) (A) (A) (A) (A) (A) (A) (A) (A)
                 (A) (A) (A) (A) (A) (A) (A) (A) (A) (A) (A) (A)
                 (A) (A) (A) (A) (A) (A) (A) (A) (A) (A) (A) (A)
                 (A) (A) (A) (A) (A) (A) (A) (A) (A) (A) (A) (A)
                 (A) (A) (A) (A) (A) (A) (A) (A) (A) (A) (A) (A)
                 (A) (A) (A) (A) (A) (A) (A) (A) (A) (A) (A) (A)
                 (A) (A) (A) (A) (A) (A) (A) (A) (A) (A) (A) (A)
                 (A) (A) (A) (A) (A) (A) (A) (A) (A)
 The electronic state of the initial guess is 1-A.
 Generating alternative initial guess.
 Harris functional with IExCor=32609 diagonalized for initial guess.
 ExpMin= 2.53D-02 ExpMax= 1.53D+04 ExpMxC= 5.22D+02 IAcc=3 IRadAn=         5 AccDes= 0.00D+00
 HarFok:  IExCor=32609 AccDes= 0.00D+00 IRadAn=         5 IDoV= 1
 ScaDFX=  1.000000  1.000000  1.000000  1.000000
 FoFCou: FMM=F IPFlag=           0 FMFlag=      100000 FMFlg1=           0
         NFxFlg=           0 DoJE=T BraDBF=F KetDBF=T FulRan=T
         Omega=  0.000000  0.000000  1.000000  0.000000  0.000000 ICntrl=     500 IOpCl=  0
         NMat0=    1 NMatS0=    1 NMatT0=    0 NMatD0=    1 NMtDS0=    0 NMtDT0=    0
         I1Cent=           4 NGrid=           0.
 Petite list used in FoFCou.
 Harris En= -151.499592744864    
 Leave Link  401 at Tue May 12 17:08:20 2020, MaxMem= 1073741824 cpu:       2.4
 (Enter /home/matheus/.gaussian/g09/l502.exe)
 Closed shell SCF:
 Requested convergence on RMS density matrix=1.00D-08 within 128 cycles.
 Requested convergence on MAX density matrix=1.00D-06.
 Requested convergence on             energy=1.00D-06.
 No special actions if energy rises.
 Using DIIS extrapolation, IDIIS=  1040.
 Integral symmetry usage will be decided dynamically.
        94980 words used for storage of precomputed grid.
 IEnd=      192360 IEndB=      192360 NGot=  1073741824 MDV=  1073591865
 LenX=  1073591865 LenY=  1073565824
 Fock matrices will be formed incrementally for  20 cycles.

 Cycle   1  Pass 1  IDiag  1:
 FoFJK:  IHMeth= 1 ICntrl=     0 DoSepK=T KAlg= 1 I1Cent= 0 FoldK=F
 FoFCou: FMM=F IPFlag=           0 FMFlag=      100000 FMFlg1=           0
         NFxFlg=           0 DoJE=T BraDBF=F KetDBF=F FulRan=T
         Omega=  0.000000  0.000000  1.000000  0.000000  0.000000 ICntrl=     500 IOpCl=  0
         NMat0=    1 NMatS0=    1 NMatT0=    0 NMatD0=    1 NMtDS0=    0 NMtDT0=    0
         I1Cent=           0 NGrid=           0.
 Symmetry not used in FoFCou.
 E= -151.521692498591    
 DIIS: error= 2.95D-05 at cycle   1 NSaved=   1.
 NSaved= 1 IEnMin= 1 EnMin= -151.521692498591     IErMin= 1 ErrMin= 2.95D-05
 ErrMax= 2.95D-05 EMaxC= 1.00D-01 BMatC= 5.07D-08 BMatP= 5.07D-08
 IDIUse=1 WtCom= 1.00D+00 WtEn= 0.00D+00
 Coeff-Com:  0.100D+01
 Coeff:      0.100D+01
 Gap=     0.418 Goal=   None    Shift=    0.000
 RMSDP=1.00D-06 MaxDP=2.05D-05              OVMax= 8.61D-05

 Cycle   2  Pass 1  IDiag  1:
 RMSU=  7.09D-07    CP:  1.00D+00
 FoFJK:  IHMeth= 1 ICntrl=     0 DoSepK=T KAlg= 1 I1Cent= 0 FoldK=F
 E= -151.521692540052     Delta-E=       -0.000000041460 Rises=F Damp=F
 DIIS: error= 4.81D-06 at cycle   2 NSaved=   2.
 NSaved= 2 IEnMin= 2 EnMin= -151.521692540052     IErMin= 2 ErrMin= 4.81D-06
 ErrMax= 4.81D-06 EMaxC= 1.00D-01 BMatC= 1.62D-09 BMatP= 5.07D-08
 IDIUse=1 WtCom= 1.00D+00 WtEn= 0.00D+00
 Coeff-Com: -0.109D+00 0.111D+01
 Coeff:     -0.109D+00 0.111D+01
 Gap=     0.418 Goal=   None    Shift=    0.000
 RMSDP=3.59D-07 MaxDP=6.95D-06 DE=-4.15D-08 OVMax= 3.44D-05

 Cycle   3  Pass 1  IDiag  1:
 RMSU=  1.48D-07    CP:  1.00D+00  1.29D+00
 FoFJK:  IHMeth= 1 ICntrl=     0 DoSepK=T KAlg= 1 I1Cent= 0 FoldK=F
 E= -151.521692543751     Delta-E=       -0.000000003700 Rises=F Damp=F
 DIIS: error= 1.35D-06 at cycle   3 NSaved=   3.
 NSaved= 3 IEnMin= 3 EnMin= -151.521692543751     IErMin= 3 ErrMin= 1.35D-06
 ErrMax= 1.35D-06 EMaxC= 1.00D-01 BMatC= 1.71D-10 BMatP= 1.62D-09
 IDIUse=1 WtCom= 1.00D+00 WtEn= 0.00D+00
 Coeff-Com: -0.195D-01-0.427D-02 0.102D+01
 Coeff:     -0.195D-01-0.427D-02 0.102D+01
 Gap=     0.418 Goal=   None    Shift=    0.000
 RMSDP=1.23D-07 MaxDP=2.48D-06 DE=-3.70D-09 OVMax= 1.19D-05

 Cycle   4  Pass 1  IDiag  1:
 RMSU=  5.08D-08    CP:  1.00D+00  1.37D+00  1.27D+00
 FoFJK:  IHMeth= 1 ICntrl=     0 DoSepK=T KAlg= 1 I1Cent= 0 FoldK=F
 E= -151.521692544078     Delta-E=       -0.000000000326 Rises=F Damp=F
 DIIS: error= 8.92D-07 at cycle   4 NSaved=   4.
 NSaved= 4 IEnMin= 4 EnMin= -151.521692544078     IErMin= 4 ErrMin= 8.92D-07
 ErrMax= 8.92D-07 EMaxC= 1.00D-01 BMatC= 7.36D-11 BMatP= 1.71D-10
 IDIUse=1 WtCom= 1.00D+00 WtEn= 0.00D+00
 Coeff-Com:  0.879D-02-0.183D+00 0.429D+00 0.745D+00
 Coeff:      0.879D-02-0.183D+00 0.429D+00 0.745D+00
 Gap=     0.418 Goal=   None    Shift=    0.000
 RMSDP=5.43D-08 MaxDP=1.68D-06 DE=-3.26D-10 OVMax= 4.36D-06

 Cycle   5  Pass 1  IDiag  1:
 RMSU=  1.20D-08    CP:  1.00D+00  1.39D+00  1.48D+00  8.32D-01
 FoFJK:  IHMeth= 1 ICntrl=     0 DoSepK=T KAlg= 1 I1Cent= 0 FoldK=F
 E= -151.521692544150     Delta-E=       -0.000000000072 Rises=F Damp=F
 DIIS: error= 1.56D-07 at cycle   5 NSaved=   5.
 NSaved= 5 IEnMin= 5 EnMin= -151.521692544150     IErMin= 5 ErrMin= 1.56D-07
 ErrMax= 1.56D-07 EMaxC= 1.00D-01 BMatC= 1.52D-12 BMatP= 7.36D-11
 IDIUse=1 WtCom= 1.00D+00 WtEn= 0.00D+00
 Coeff-Com:  0.189D-02-0.196D-01-0.831D-02 0.698D-01 0.956D+00
 Coeff:      0.189D-02-0.196D-01-0.831D-02 0.698D-01 0.956D+00
 Gap=     0.418 Goal=   None    Shift=    0.000
 RMSDP=1.10D-08 MaxDP=2.13D-07 DE=-7.22D-11 OVMax= 9.82D-07

 Cycle   6  Pass 1  IDiag  1:
 RMSU=  4.68D-09    CP:  1.00D+00  1.40D+00  1.51D+00  8.81D-01  1.18D+00
 FoFJK:  IHMeth= 1 ICntrl=     0 DoSepK=T KAlg= 1 I1Cent= 0 FoldK=F
 E= -151.521692544152     Delta-E=       -0.000000000002 Rises=F Damp=F
 DIIS: error= 8.23D-08 at cycle   6 NSaved=   6.
 NSaved= 6 IEnMin= 6 EnMin= -151.521692544152     IErMin= 6 ErrMin= 8.23D-08
 ErrMax= 8.23D-08 EMaxC= 1.00D-01 BMatC= 8.07D-13 BMatP= 1.52D-12
 IDIUse=1 WtCom= 1.00D+00 WtEn= 0.00D+00
 Coeff-Com: -0.751D-04 0.116D-01-0.534D-01-0.520D-01 0.481D+00 0.613D+00
 Coeff:     -0.751D-04 0.116D-01-0.534D-01-0.520D-01 0.481D+00 0.613D+00
 Gap=     0.418 Goal=   None    Shift=    0.000
 RMSDP=4.27D-09 MaxDP=1.06D-07 DE=-2.42D-12 OVMax= 2.40D-07

 SCF Done:  E(RLC-wPBE) =  -151.521692544     A.U. after    6 cycles
             Convg  =    0.4266D-08             -V/T =  2.0068
 KE= 1.504970491324D+02 PE=-4.315003868166D+02 EE= 9.288069939096D+01
 Leave Link  502 at Tue May 12 17:08:26 2020, MaxMem= 1073741824 cpu:      47.8
 (Enter /home/matheus/.gaussian/g09/l122.exe)
 Restoring MOs from calculation   5 to rwf.
 Counterpoise: doing MCBS calculation for fragment   2
 Leave Link  122 at Tue May 12 17:08:26 2020, MaxMem= 1073741824 cpu:       0.0
 (Enter /home/matheus/.gaussian/g09/l301.exe)
 Basis read from rwf:  (5D, 7F)
 No pseudopotential information found on rwf file.
 There are    59 symmetry adapted basis functions of A   symmetry.
 Integral buffers will be    131072 words long.
 Raffenetti 2 integral format.
 Two-electron integral symmetry is turned on.
    59 basis functions,   217 primitive gaussians,    69 cartesian basis functions
    18 alpha electrons       18 beta electrons
       nuclear repulsion energy         0.0000000000 Hartrees.
 IExCor=32609 DFT=T Ex+Corr=LC-wPBE ExCW=0 ScaHFX=  1.000000
 ScaDFX=  1.000000  0.000000  1.000000  1.000000 ScalE2=  1.000000  1.000000
 IRadAn=      5 IRanWt=     -1 IRanGd=            0 ICorTp=0
  HFx wShort=  0.000000 wLong=  0.400000 cFull=  0.000000 cShort=  0.000000 cLong=  1.000000
  DFx wShort=  0.000000 wLong=  0.400000 cFull=  0.000000 cShort=  0.000000 cLong=  1.000000
 NAtoms=    5 NActive=    1 NUniq=    1 SFac= 1.00D+00 NAtFMM=   60 NAOKFM=F Big=F
 No density basis found on file   718.
 Leave Link  301 at Tue May 12 17:08:26 2020, MaxMem= 1073741824 cpu:       0.2
 (Enter /home/matheus/.gaussian/g09/l302.exe)
 NPDir=0 NMtPBC=     1 NCelOv=     1 NCel=       1 NClECP=     1 NCelD=      1
         NCelK=      1 NCelE2=     1 NClLst=     1 CellRange=     0.0.
 One-electron integrals computed using PRISM.
 NBasis=    59 RedAO= T  NBF=    59
 NBsUse=    59 1.00D-06 NBFU=    59
 Precomputing XC quadrature grid using
 IXCGrd= 2 IRadAn=           5 IRanWt=          -1 IRanGd=           0 AccXCQ= 0.00D+00.
 NRdTot=      81 NPtTot=       30352 NUsed=       30981 NTot=       31013
 NSgBfM=    69    69    69    69    69 NAtAll=     1     1.
 Leave Link  302 at Tue May 12 17:08:26 2020, MaxMem= 1073741824 cpu:       0.6
 (Enter /home/matheus/.gaussian/g09/l303.exe)
 DipDrv:  MaxL=1.
 Leave Link  303 at Tue May 12 17:08:26 2020, MaxMem= 1073741824 cpu:       0.2
 (Enter /home/matheus/.gaussian/g09/l401.exe)
 Initial guess read from the read-write file.
 Guess basis will be translated and rotated to current coordinates.
 Initial guess orbital symmetries:
       Occupied  (A) (A) (A) (A) (A) (A) (A) (A) (A) (A) (A) (A)
                 (A) (A) (A) (A) (A) (A)
       Virtual   (A) (A) (A) (A) (A) (A) (A) (A) (A) (A) (A) (A)
                 (A) (A) (A) (A) (A) (A) (A) (A) (A) (A) (A) (A)
                 (A) (A) (A) (A) (A) (A) (A) (A) (A) (A) (A) (A)
                 (A) (A) (A) (A) (A)
 The electronic state of the initial guess is 1-A.
 Generating alternative initial guess.
 Harris functional with IExCor=32609 diagonalized for initial guess.
 ExpMin= 4.00D-02 ExpMax= 1.17D+07 ExpMxC= 1.33D+04 IAcc=3 IRadAn=         5 AccDes= 0.00D+00
 HarFok:  IExCor=32609 AccDes= 0.00D+00 IRadAn=         5 IDoV= 1
 ScaDFX=  1.000000  1.000000  1.000000  1.000000
 FoFCou: FMM=F IPFlag=           0 FMFlag=      100000 FMFlg1=           0
         NFxFlg=           0 DoJE=T BraDBF=F KetDBF=T FulRan=T
         Omega=  0.000000  0.000000  1.000000  0.000000  0.000000 ICntrl=     500 IOpCl=  0
         NMat0=    1 NMatS0=    1 NMatT0=    0 NMatD0=    1 NMtDS0=    0 NMtDT0=    0
         I1Cent=           4 NGrid=           0.
 Petite list used in FoFCou.
 Harris En= -2753.24576836237    
 Leave Link  401 at Tue May 12 17:08:26 2020, MaxMem= 1073741824 cpu:       1.0
 (Enter /home/matheus/.gaussian/g09/l502.exe)
 Closed shell SCF:
 Requested convergence on RMS density matrix=1.00D-08 within 128 cycles.
 Requested convergence on MAX density matrix=1.00D-06.
 Requested convergence on             energy=1.00D-06.
 No special actions if energy rises.
 Using DIIS extrapolation, IDIIS=  1040.
 Integral symmetry usage will be decided dynamically.
        30923 words used for storage of precomputed grid.
 IEnd=       64406 IEndB=       64406 NGot=  1073741824 MDV=  1073698889
 LenX=  1073698889 LenY=  1073693687
 Fock matrices will be formed incrementally for  20 cycles.

 Cycle   1  Pass 1  IDiag  1:
 FoFJK:  IHMeth= 1 ICntrl=     0 DoSepK=T KAlg= 1 I1Cent= 0 FoldK=F
 FoFCou: FMM=F IPFlag=           0 FMFlag=      100000 FMFlg1=           0
         NFxFlg=           0 DoJE=T BraDBF=F KetDBF=F FulRan=T
         Omega=  0.000000  0.000000  1.000000  0.000000  0.000000 ICntrl=     500 IOpCl=  0
         NMat0=    1 NMatS0=    1 NMatT0=    0 NMatD0=    1 NMtDS0=    0 NMtDT0=    0
         I1Cent=           0 NGrid=           0.
 Symmetry not used in FoFCou.
 E= -2753.43563276534    
 DIIS: error= 8.16D-14 at cycle   1 NSaved=   1.
 NSaved= 1 IEnMin= 1 EnMin= -2753.43563276534     IErMin= 1 ErrMin= 8.16D-14
 ErrMax= 8.16D-14 EMaxC= 1.00D-01 BMatC= 2.69D-25 BMatP= 2.69D-25
 IDIUse=1 WtCom= 1.00D+00 WtEn= 0.00D+00
 Coeff-Com:  0.100D+01
 Coeff:      0.100D+01
 Gap=     0.599 Goal=   None    Shift=    0.000
 DSYEVD returned Info=        1859 IAlg= 4 N=    59 NDim=    59 NE2=    18198197 trying DSYEV.
 RMSDP=7.79D-15 MaxDP=1.02D-13              OVMax= 3.17D-13

 SCF Done:  E(RLC-wPBE) =  -2753.43563277     A.U. after    1 cycles
             Convg  =    0.7786D-14             -V/T =  2.0014
 KE= 2.749535160915D+03 PE=-6.578948648680D+03 EE= 1.075977855000D+03
 Leave Link  502 at Tue May 12 17:08:27 2020, MaxMem= 1073741824 cpu:      11.3
 (Enter /home/matheus/.gaussian/g09/l122.exe)
 Restoring MOs from calculation   1 to rwf.
 Counterpoise: corrected energy =   -2904.957350345431
 Counterpoise: BSSE energy =       0.000022505964
 Leave Link  122 at Tue May 12 17:08:27 2020, MaxMem= 1073741824 cpu:       0.0
 (Enter /home/matheus/.gaussian/g09/l108.exe)
 Scan completed.

 Summary of the potential surface scan:
   N      R1          SCF    
 ----  ---------  -----------
    1     3.0000  -2753.43563
    2     3.1000  -2753.43563
    3     3.2000  -2753.43563
    4     3.3000  -2753.43563
    5     3.4000  -2753.43563
    6     3.5000  -2753.43563
    7     3.6000  -2753.43563
    8     3.7000  -2753.43563
    9     3.8000  -2753.43563
   10     3.9000  -2753.43563
   11     4.0000  -2753.43563
   12     4.1000  -2753.43563
   13     4.2000  -2753.43563
   14     4.3000  -2753.43563
   15     4.4000  -2753.43563
   16     4.5000  -2753.43563
   17     4.6000  -2753.43563
   18     4.7000  -2753.43563
   19     4.8000  -2753.43563
   20     4.9000  -2753.43563
   21     5.0000  -2753.43563
 ----  ---------  -----------
  
 Leave Link  108 at Tue May 12 17:08:27 2020, MaxMem= 1073741824 cpu:       0.0
 (Enter /home/matheus/.gaussian/g09/l9999.exe)
 1\1\GINC-REDGIANT\Scan\RLC-wPBE\Aug-CC-pVTZ\H2Kr1O2\MATHEUS\12-May-202
 0\1\\#p lc-wpbe/aug-cc-PVTz int=ultrafine counterpoise=2 Scan\\TCC\\0,
 1\O,0,0.,0.,0.725\O,0,0.,0.,-0.725\H,0,-0.1595341571,-0.9047631646,1.0
 235104166\H,0,0.,0.9187205947,-1.0235104166\Kr,0,0.,R1,0.\\R1=3.,s,20,
 0.1\\Version=EM64L-G09RevC.01\State=1-A\HF=-2753.4356328,-2753.4356328
 ,-2753.4356328,-2753.4356328,-2753.4356328,-2753.4356328,-2753.4356328
 ,-2753.4356328,-2753.4356328,-2753.4356328,-2753.4356328,-2753.4356328
 ,-2753.4356328,-2753.4356328,-2753.4356328,-2753.4356328,-2753.4356328
 ,-2753.4356328,-2753.4356328,-2753.4356328,-2753.4356328\RMSD=1.428e-0
 9,5.221e-11,1.075e-11,2.472e-12,6.359e-13,1.591e-13,4.406e-14,1.218e-1
 4,5.787e-15,7.248e-15,5.887e-15,1.013e-14,1.155e-14,8.136e-15,6.957e-1
 5,7.629e-15,8.629e-15,7.074e-15,5.881e-15,9.436e-15,7.786e-15\PG=C01 [
 X(H2Kr1O2)]\\@


 A SUCCESSFUL PURSUIT OF SCIENCE MAKES A MAN THE
 BENEFACTOR OF ALL MANKIND OF EVERY AGE.
   --  JOSEPH PRIESTLEY, "EXPERIMENTS AND
 OBSERVATIONS ON DIFFERENT KINDS OF AIR", 1774
 Job cpu time:  0 days  3 hours 13 minutes 56.2 seconds.
 File lengths (MBytes):  RWF=     33 Int=      0 D2E=      0 Chk=      8 Scr=      1
 Normal termination of Gaussian 09 at Tue May 12 17:08:27 2020.
