 Entering Gaussian System, Link 0=g09
 Input=/home/matheus/.tcc/Inputs/Inputs-lc-wpbe-default/H2O2-Kr_12.com
 Output=/home/matheus/.tcc/Logs/Logs-lc-wpbe-default/H2O2-Kr_12.log
 Initial command:
 /home/matheus/.gaussian/g09/l1.exe /home/matheus/.gaussian/g09/scratch/Gau-10580.inp -scrdir=/home/matheus/.gaussian/g09/scratch/
 Entering Link 1 = /home/matheus/.gaussian/g09/l1.exe PID=     10585.
  
 Copyright (c) 1988,1990,1992,1993,1995,1998,2003,2009,2011,
            Gaussian, Inc.  All Rights Reserved.
  
 This is part of the Gaussian(R) 09 program.  It is based on
 the Gaussian(R) 03 system (copyright 2003, Gaussian, Inc.),
 the Gaussian(R) 98 system (copyright 1998, Gaussian, Inc.),
 the Gaussian(R) 94 system (copyright 1995, Gaussian, Inc.),
 the Gaussian 92(TM) system (copyright 1992, Gaussian, Inc.),
 the Gaussian 90(TM) system (copyright 1990, Gaussian, Inc.),
 the Gaussian 88(TM) system (copyright 1988, Gaussian, Inc.),
 the Gaussian 86(TM) system (copyright 1986, Carnegie Mellon
 University), and the Gaussian 82(TM) system (copyright 1983,
 Carnegie Mellon University). Gaussian is a federally registered
 trademark of Gaussian, Inc.
  
 This software contains proprietary and confidential information,
 including trade secrets, belonging to Gaussian, Inc.
  
 This software is provided under written license and may be
 used, copied, transmitted, or stored only in accord with that
 written license.
  
 The following legend is applicable only to US Government
 contracts under FAR:
  
                    RESTRICTED RIGHTS LEGEND
  
 Use, reproduction and disclosure by the US Government is
 subject to restrictions as set forth in subparagraphs (a)
 and (c) of the Commercial Computer Software - Restricted
 Rights clause in FAR 52.227-19.
  
 Gaussian, Inc.
 340 Quinnipiac St., Bldg. 40, Wallingford CT 06492
  
  
 ---------------------------------------------------------------
 Warning -- This program may not be used in any manner that
 competes with the business of Gaussian, Inc. or will provide
 assistance to any competitor of Gaussian, Inc.  The licensee
 of this program is prohibited from giving any competitor of
 Gaussian, Inc. access to this program.  By using this program,
 the user acknowledges that Gaussian, Inc. is engaged in the
 business of creating and licensing software in the field of
 computational chemistry and represents and warrants to the
 licensee that it is not a competitor of Gaussian, Inc. and that
 it will not use this program in any manner prohibited above.
 ---------------------------------------------------------------
  

 Cite this work as:
 Gaussian 09, Revision C.01,
 M. J. Frisch, G. W. Trucks, H. B. Schlegel, G. E. Scuseria, 
 M. A. Robb, J. R. Cheeseman, G. Scalmani, V. Barone, B. Mennucci, 
 G. A. Petersson, H. Nakatsuji, M. Caricato, X. Li, H. P. Hratchian, 
 A. F. Izmaylov, J. Bloino, G. Zheng, J. L. Sonnenberg, M. Hada, 
 M. Ehara, K. Toyota, R. Fukuda, J. Hasegawa, M. Ishida, T. Nakajima, 
 Y. Honda, O. Kitao, H. Nakai, T. Vreven, J. A. Montgomery, Jr., 
 J. E. Peralta, F. Ogliaro, M. Bearpark, J. J. Heyd, E. Brothers, 
 K. N. Kudin, V. N. Staroverov, T. Keith, R. Kobayashi, J. Normand, 
 K. Raghavachari, A. Rendell, J. C. Burant, S. S. Iyengar, J. Tomasi, 
 M. Cossi, N. Rega, J. M. Millam, M. Klene, J. E. Knox, J. B. Cross, 
 V. Bakken, C. Adamo, J. Jaramillo, R. Gomperts, R. E. Stratmann, 
 O. Yazyev, A. J. Austin, R. Cammi, C. Pomelli, J. W. Ochterski, 
 R. L. Martin, K. Morokuma, V. G. Zakrzewski, G. A. Voth, 
 P. Salvador, J. J. Dannenberg, S. Dapprich, A. D. Daniels, 
 O. Farkas, J. B. Foresman, J. V. Ortiz, J. Cioslowski, 
 and D. J. Fox, Gaussian, Inc., Wallingford CT, 2010.
 
 ******************************************
 Gaussian 09:  EM64L-G09RevC.01 23-Sep-2011
                12-May-2020 
 ******************************************
 %mem=8GB
 %nproc=8
 Will use up to    8 processors via shared memory.
 --------------------------------------------------------
 #p lc-wpbe/aug-cc-PVTz int=ultrafine counterpoise=2 Scan
 --------------------------------------------------------
 1/38=1,60=1,62=2/1,8;
 2/12=2,17=6,18=5,29=3,40=1/2;
 1/38=1,53=5172,62=2/22;
 3/5=16,6=1,7=10,11=2,16=1,25=1,30=1,74=-41,75=-5/1,2,3;
 4//1;
 5/5=2,38=5/2;
 6/7=2,8=2,9=2,10=2,18=1,28=1/1;
 1/53=4052,62=2,63=1/22;
 3/5=7,6=11,7=10,11=2,16=1,25=1,30=1,74=-41,75=-5,82=7/1,2,3;
 4//1;
 5/5=2,38=5/2;
 6/7=2,8=2,9=2,10=2,18=1,28=1/1;
 1/53=3042,62=2,63=2/22;
 3/5=7,6=11,7=10,11=2,16=1,25=1,30=1,74=-41,75=-5,82=7/1,2,3;
 4//1;
 5/5=2,38=5/2;
 6/7=2,8=2,9=2,10=2,18=1,28=1/1;
 1/53=2032,62=2,63=3/22;
 3/5=7,6=11,7=10,11=2,16=1,25=1,30=1,74=-41,75=-5,82=7/1,2,3;
 4//1;
 5/5=2,38=5/2;
 6/7=2,8=2,9=2,10=2,18=1,28=1/1;
 1/53=1022,62=2,63=4/22;
 3/5=7,6=11,7=10,11=2,16=1,25=1,30=1,74=-41,75=-5,82=7/1,2,3;
 4//1;
 5/5=2,38=5/2;
 6/7=2,8=2,9=2,10=2,18=1,28=1/1;
 1/53=5014,62=2,63=5/22;
 1/60=1,62=2/8(1);
 99/9=1/99;
 2/29=3/2;
 1/53=5173,62=2/22;
 3/5=7,6=11,7=10,11=2,16=1,25=1,30=1,74=-41,75=-5,82=7/1,2,3;
 4/5=5,16=3/1;
 5/5=2,38=5/2;
 1/53=4053,62=2,63=1/22;
 3/5=7,6=11,7=10,11=2,16=1,25=1,30=1,74=-41,75=-5,82=7/1,2,3;
 4/5=5,16=3/1;
 5/5=2,38=5/2;
 1/53=3043,62=2,63=2/22;
 3/5=7,6=11,7=10,11=2,16=1,25=1,30=1,74=-41,75=-5,82=7/1,2,3;
 4/5=5,16=3/1;
 5/5=2,38=5/2;
 1/53=2033,62=2,63=3/22;
 3/5=7,6=11,7=10,11=2,16=1,25=1,30=1,74=-41,75=-5,82=7/1,2,3;
 4/5=5,16=3/1;
 5/5=2,38=5/2;
 1/53=1024,62=2,63=4/22;
 3/5=7,6=11,7=10,11=2,16=1,25=1,30=1,74=-41,75=-5,82=7/1,2,3;
 4/5=5,16=3/1;
 5/5=2,38=5/2;
 1/53=5014,62=2,63=5/22;
 1/60=1,62=2/8(-22);
 99/9=1/99;
 Leave Link    1 at Tue May 12 14:01:08 2020, MaxMem= 1073741824 cpu:       0.1
 (Enter /home/matheus/.gaussian/g09/l101.exe)
 ---
 TCC
 ---
 Charge =  0 Multiplicity = 1 in supermolecule
 Charge =  0 Multiplicity = 1 in fragment  1.
 Charge =  0 Multiplicity = 1 in fragment  2.
 Symbolic Z-Matrix:
 O(Fragment=1)         0.        0.        0.725 
 O(Fragment=1)         0.        0.       -0.725 
 H(Fragment=1)         0.79564  -0.45936   1.02351 
 H(Fragment=1)         0.        0.91872  -1.02351 
 Kr(Fragment=2)        0.       R1        0. 
       Variables:
  R1                    3.     Scan 20    0.1    
 
 NAtoms=      5 NQM=        0 NQMF=       0 NMMI=      5 NMMIF=      0
                NMic=       0 NMicF=      0.
                    Isotopes and Nuclear Properties:
 (Nuclear quadrupole moments (NQMom) in fm**2, nuclear magnetic moments (NMagM)
  in nuclear magnetons)

  Atom         1           2           3           4           5
 IAtWgt=          16          16           1           1          84
 AtmWgt=  15.9949146  15.9949146   1.0078250   1.0078250  83.9115064
 NucSpn=           0           0           1           1           0
 AtZEff=   0.0000000   0.0000000   0.0000000   0.0000000   0.0000000
 NQMom=    0.0000000   0.0000000   0.0000000   0.0000000   0.0000000
 NMagM=    0.0000000   0.0000000   2.7928460   2.7928460   0.0000000
 Leave Link  101 at Tue May 12 14:01:08 2020, MaxMem= 1073741824 cpu:       0.3
 (Enter /home/matheus/.gaussian/g09/l108.exe)
 Scan the potential surface.
 Variable   Value     No. Steps Step-Size
 -------- ----------- --------- ---------
     1       3.000000      20      0.1000
 A total of     21 points will be computed.
 Leave Link  108 at Tue May 12 14:01:08 2020, MaxMem= 1073741824 cpu:       0.0
 (Enter /home/matheus/.gaussian/g09/l202.exe)
 ---------------------------------------------------------------------------------------------------
                            Z-MATRIX (ANGSTROMS AND DEGREES)
   CD    Cent   Atom    N1       Length/X        N2       Alpha/Y        N3        Beta/Z          J
 ---------------------------------------------------------------------------------------------------
      1      1  O        0   0.000000          0.000000          0.725000
      2      2  O        0   0.000000          0.000000         -0.725000
      3      3  H        0   0.795635         -0.459360          1.023510
      4      4  H        0   0.000000          0.918721         -1.023510
      5      5  Kr       0   0.000000          3.000000          0.000000
 ---------------------------------------------------------------------------------------------------
                         Z-Matrix orientation:                         
 ---------------------------------------------------------------------
 Center     Atomic      Atomic             Coordinates (Angstroms)
 Number     Number       Type             X           Y           Z
 ---------------------------------------------------------------------
      1          8           0        0.000000    0.000000    0.725000
      2          8           0        0.000000    0.000000   -0.725000
      3          1           0        0.795635   -0.459360    1.023510
      4          1           0        0.000000    0.918721   -1.023510
      5         36           0        0.000000    3.000000    0.000000
 ---------------------------------------------------------------------
                    Distance matrix (angstroms):
                    1          2          3          4          5
     1  O    0.000000
     2  O    1.450000   0.000000
     3  H    0.966000   1.975180   0.000000
     4  H    1.975180   0.966000   2.592766   0.000000
     5  Kr   3.086361   3.086361   3.694291   2.319331   0.000000
 Stoichiometry    H2KrO2
 Framework group  C1[X(H2KrO2)]
 Deg. of freedom     9
 Full point group                 C1      NOp   1
 Largest Abelian subgroup         C1      NOp   1
 Largest concise Abelian subgroup C1      NOp   1
                         Standard orientation:                         
 ---------------------------------------------------------------------
 Center     Atomic      Atomic             Coordinates (Angstroms)
 Number     Number       Type             X           Y           Z
 ---------------------------------------------------------------------
      1          8           0        2.018349   -0.689087   -0.106614
      2          8           0        1.996994    0.756239    0.007743
      3          1           0        2.496711   -1.041750    0.654934
      4          1           0        1.074134    1.038958    0.047181
      5         36           0       -0.991489   -0.014845    0.002468
 ---------------------------------------------------------------------
 Rotational constants (GHZ):     25.8792574      2.3237795      2.1427447
 Leave Link  202 at Tue May 12 14:01:08 2020, MaxMem= 1073741824 cpu:       0.0
 (Enter /home/matheus/.gaussian/g09/l122.exe)
 Leave Link  122 at Tue May 12 14:01:08 2020, MaxMem= 1073741824 cpu:       0.0
 (Enter /home/matheus/.gaussian/g09/l301.exe)
 Standard basis: Aug-CC-pVTZ (5D, 7F)
 Ernie: Thresh=  0.10000D-02 Tol=  0.10000D-05 Strict=F.
 Ernie:  38 primitive shells out of 205 were deleted.
 There are   197 symmetry adapted basis functions of A   symmetry.
 Integral buffers will be    131072 words long.
 Raffenetti 2 integral format.
 Two-electron integral symmetry is turned on.
   197 basis functions,   415 primitive gaussians,   229 cartesian basis functions
    27 alpha electrons       27 beta electrons
       nuclear repulsion energy       148.7418288716 Hartrees.
 IExCor=32609 DFT=T Ex+Corr=LC-wPBE ExCW=0 ScaHFX=  1.000000
 ScaDFX=  1.000000  0.000000  1.000000  1.000000 ScalE2=  1.000000  1.000000
 IRadAn=      5 IRanWt=     -1 IRanGd=            0 ICorTp=0
  HFx wShort=  0.000000 wLong=  0.400000 cFull=  0.000000 cShort=  0.000000 cLong=  1.000000
  DFx wShort=  0.000000 wLong=  0.400000 cFull=  0.000000 cShort=  0.000000 cLong=  1.000000
 NAtoms=    5 NActive=    5 NUniq=    5 SFac= 1.00D+00 NAtFMM=   60 NAOKFM=F Big=F
 Leave Link  301 at Tue May 12 14:01:08 2020, MaxMem= 1073741824 cpu:       0.2
 (Enter /home/matheus/.gaussian/g09/l302.exe)
 NPDir=0 NMtPBC=     1 NCelOv=     1 NCel=       1 NClECP=     1 NCelD=      1
         NCelK=      1 NCelE2=     1 NClLst=     1 CellRange=     0.0.
 One-electron integrals computed using PRISM.
 NBasis=   197 RedAO= T  NBF=   197
 NBsUse=   197 1.00D-06 NBFU=   197
 Precomputing XC quadrature grid using
 IXCGrd= 2 IRadAn=           5 IRanWt=          -1 IRanGd=           0 AccXCQ= 0.00D+00.
 NRdTot=     427 NPtTot=      123512 NUsed=      126579 NTot=      126611
 NSgBfM=   229   229   229   229   229 NAtAll=     5     5.
 Leave Link  302 at Tue May 12 14:01:08 2020, MaxMem= 1073741824 cpu:       0.9
 (Enter /home/matheus/.gaussian/g09/l303.exe)
 DipDrv:  MaxL=1.
 Leave Link  303 at Tue May 12 14:01:08 2020, MaxMem= 1073741824 cpu:       0.2
 (Enter /home/matheus/.gaussian/g09/l401.exe)
 Harris functional with IExCor=32609 diagonalized for initial guess.
 ExpMin= 2.53D-02 ExpMax= 1.17D+07 ExpMxC= 1.33D+04 IAcc=3 IRadAn=         5 AccDes= 0.00D+00
 HarFok:  IExCor=32609 AccDes= 0.00D+00 IRadAn=         5 IDoV= 1
 ScaDFX=  1.000000  1.000000  1.000000  1.000000
 FoFCou: FMM=F IPFlag=           0 FMFlag=      100000 FMFlg1=           0
         NFxFlg=           0 DoJE=T BraDBF=F KetDBF=T FulRan=T
         Omega=  0.000000  0.000000  1.000000  0.000000  0.000000 ICntrl=     500 IOpCl=  0
         NMat0=    1 NMatS0=    1 NMatT0=    0 NMatD0=    1 NMtDS0=    0 NMtDT0=    0
         I1Cent=           4 NGrid=           0.
 Petite list used in FoFCou.
 Harris En= -2904.73937830568    
 Initial guess orbital symmetries:
       Occupied  (A) (A) (A) (A) (A) (A) (A) (A) (A) (A) (A) (A)
                 (A) (A) (A) (A) (A) (A) (A) (A) (A) (A) (A) (A)
                 (A) (A) (A)
       Virtual   (A) (A) (A) (A) (A) (A) (A) (A) (A) (A) (A) (A)
                 (A) (A) (A) (A) (A) (A) (A) (A) (A) (A) (A) (A)
                 (A) (A) (A) (A) (A) (A) (A) (A) (A) (A) (A) (A)
                 (A) (A) (A) (A) (A) (A) (A) (A) (A) (A) (A) (A)
                 (A) (A) (A) (A) (A) (A) (A) (A) (A) (A) (A) (A)
                 (A) (A) (A) (A) (A) (A) (A) (A) (A) (A) (A) (A)
                 (A) (A) (A) (A) (A) (A) (A) (A) (A) (A) (A) (A)
                 (A) (A) (A) (A) (A) (A) (A) (A) (A) (A) (A) (A)
                 (A) (A) (A) (A) (A) (A) (A) (A) (A) (A) (A) (A)
                 (A) (A) (A) (A) (A) (A) (A) (A) (A) (A) (A) (A)
                 (A) (A) (A) (A) (A) (A) (A) (A) (A) (A) (A) (A)
                 (A) (A) (A) (A) (A) (A) (A) (A) (A) (A) (A) (A)
                 (A) (A) (A) (A) (A) (A) (A) (A) (A) (A) (A) (A)
                 (A) (A) (A) (A) (A) (A) (A) (A) (A) (A) (A) (A)
                 (A) (A)
 The electronic state of the initial guess is 1-A.
 Leave Link  401 at Tue May 12 14:01:09 2020, MaxMem= 1073741824 cpu:       3.7
 (Enter /home/matheus/.gaussian/g09/l502.exe)
 Closed shell SCF:
 Requested convergence on RMS density matrix=1.00D-08 within 128 cycles.
 Requested convergence on MAX density matrix=1.00D-06.
 Requested convergence on             energy=1.00D-06.
 No special actions if energy rises.
 Using DIIS extrapolation, IDIIS=  1040.
 Integral symmetry usage will be decided dynamically.
       126521 words used for storage of precomputed grid.
 IEnd=      305468 IEndB=      305468 NGot=  1073741824 MDV=  1073505667
 LenX=  1073505667 LenY=  1073452785
 Fock matrices will be formed incrementally for  20 cycles.

 Cycle   1  Pass 1  IDiag  1:
 FoFJK:  IHMeth= 1 ICntrl=     0 DoSepK=T KAlg= 1 I1Cent= 0 FoldK=F
 FoFCou: FMM=F IPFlag=           0 FMFlag=      100000 FMFlg1=           0
         NFxFlg=           0 DoJE=T BraDBF=F KetDBF=F FulRan=T
         Omega=  0.000000  0.000000  1.000000  0.000000  0.000000 ICntrl=     500 IOpCl=  0
         NMat0=    1 NMatS0=    1 NMatT0=    0 NMatD0=    1 NMtDS0=    0 NMtDT0=    0
         I1Cent=           0 NGrid=           0.
 Symmetry not used in FoFCou.
 E= -2904.88345269565    
 DIIS: error= 2.45D-02 at cycle   1 NSaved=   1.
 NSaved= 1 IEnMin= 1 EnMin= -2904.88345269565     IErMin= 1 ErrMin= 2.45D-02
 ErrMax= 2.45D-02 EMaxC= 1.00D-01 BMatC= 2.61D-01 BMatP= 2.61D-01
 IDIUse=3 WtCom= 7.55D-01 WtEn= 2.45D-01
 Coeff-Com:  0.100D+01
 Coeff-En:   0.100D+01
 Coeff:      0.100D+01
 Gap=     0.498 Goal=   None    Shift=    0.000
 GapD=    0.498 DampG=2.000 DampE=0.500 DampFc=1.0000 IDamp=-1.
 RMSDP=2.29D-03 MaxDP=1.47D-01              OVMax= 6.22D-02

 Cycle   2  Pass 1  IDiag  1:
 RMSU=  1.60D-03    CP:  1.02D+00
 FoFJK:  IHMeth= 1 ICntrl=     0 DoSepK=T KAlg= 1 I1Cent= 0 FoldK=F
 E= -2904.92729072384     Delta-E=       -0.043838028188 Rises=F Damp=F
 DIIS: error= 1.01D-02 at cycle   2 NSaved=   2.
 NSaved= 2 IEnMin= 2 EnMin= -2904.92729072384     IErMin= 2 ErrMin= 1.01D-02
 ErrMax= 1.01D-02 EMaxC= 1.00D-01 BMatC= 7.76D-02 BMatP= 2.61D-01
 IDIUse=3 WtCom= 8.99D-01 WtEn= 1.01D-01
 Coeff-Com:  0.346D+00 0.654D+00
 Coeff-En:   0.185D+00 0.815D+00
 Coeff:      0.329D+00 0.671D+00
 Gap=     0.452 Goal=   None    Shift=    0.000
 RMSDP=9.27D-04 MaxDP=5.08D-02 DE=-4.38D-02 OVMax= 2.96D-02

 Cycle   3  Pass 1  IDiag  1:
 RMSU=  3.25D-04    CP:  1.01D+00  6.54D-01
 FoFJK:  IHMeth= 1 ICntrl=     0 DoSepK=T KAlg= 1 I1Cent= 0 FoldK=F
 E= -2904.95462258184     Delta-E=       -0.027331858003 Rises=F Damp=F
 DIIS: error= 1.93D-03 at cycle   3 NSaved=   3.
 NSaved= 3 IEnMin= 3 EnMin= -2904.95462258184     IErMin= 3 ErrMin= 1.93D-03
 ErrMax= 1.93D-03 EMaxC= 1.00D-01 BMatC= 1.73D-03 BMatP= 7.76D-02
 IDIUse=3 WtCom= 9.81D-01 WtEn= 1.93D-02
 Coeff-Com:  0.625D-01 0.193D+00 0.745D+00
 Coeff-En:   0.000D+00 0.000D+00 0.100D+01
 Coeff:      0.613D-01 0.189D+00 0.750D+00
 Gap=     0.434 Goal=   None    Shift=    0.000
 RMSDP=1.15D-04 MaxDP=3.02D-03 DE=-2.73D-02 OVMax= 7.89D-03

 Cycle   4  Pass 1  IDiag  1:
 RMSU=  6.20D-05    CP:  1.01D+00  6.81D-01  9.10D-01
 FoFJK:  IHMeth= 1 ICntrl=     0 DoSepK=T KAlg= 1 I1Cent= 0 FoldK=F
 E= -2904.95553223556     Delta-E=       -0.000909653717 Rises=F Damp=F
 DIIS: error= 5.45D-04 at cycle   4 NSaved=   4.
 NSaved= 4 IEnMin= 4 EnMin= -2904.95553223556     IErMin= 4 ErrMin= 5.45D-04
 ErrMax= 5.45D-04 EMaxC= 1.00D-01 BMatC= 1.36D-04 BMatP= 1.73D-03
 IDIUse=3 WtCom= 9.95D-01 WtEn= 5.45D-03
 Coeff-Com: -0.159D-02 0.272D-01 0.284D+00 0.690D+00
 Coeff-En:   0.000D+00 0.000D+00 0.000D+00 0.100D+01
 Coeff:     -0.159D-02 0.271D-01 0.282D+00 0.692D+00
 Gap=     0.439 Goal=   None    Shift=    0.000
 RMSDP=3.49D-05 MaxDP=2.08D-03 DE=-9.10D-04 OVMax= 1.95D-03

 Cycle   5  Pass 1  IDiag  1:
 RMSU=  1.30D-05    CP:  1.01D+00  6.85D-01  9.61D-01  8.26D-01
 FoFJK:  IHMeth= 1 ICntrl=     0 DoSepK=T KAlg= 1 I1Cent= 0 FoldK=F
 E= -2904.95560859459     Delta-E=       -0.000076359029 Rises=F Damp=F
 DIIS: error= 8.32D-05 at cycle   5 NSaved=   5.
 NSaved= 5 IEnMin= 5 EnMin= -2904.95560859459     IErMin= 5 ErrMin= 8.32D-05
 ErrMax= 8.32D-05 EMaxC= 1.00D-01 BMatC= 2.95D-06 BMatP= 1.36D-04
 IDIUse=1 WtCom= 1.00D+00 WtEn= 0.00D+00
 Coeff-Com: -0.196D-02 0.133D-02 0.497D-01 0.180D+00 0.771D+00
 Coeff:     -0.196D-02 0.133D-02 0.497D-01 0.180D+00 0.771D+00
 Gap=     0.439 Goal=   None    Shift=    0.000
 RMSDP=7.09D-06 MaxDP=2.30D-04 DE=-7.64D-05 OVMax= 5.07D-04

 Cycle   6  Pass 1  IDiag  1:
 RMSU=  4.43D-06    CP:  1.01D+00  6.85D-01  9.62D-01  8.62D-01  1.03D+00
 FoFJK:  IHMeth= 1 ICntrl=     0 DoSepK=T KAlg= 1 I1Cent= 0 FoldK=F
 E= -2904.95561028629     Delta-E=       -0.000001691701 Rises=F Damp=F
 DIIS: error= 6.25D-05 at cycle   6 NSaved=   6.
 NSaved= 6 IEnMin= 6 EnMin= -2904.95561028629     IErMin= 6 ErrMin= 6.25D-05
 ErrMax= 6.25D-05 EMaxC= 1.00D-01 BMatC= 1.18D-06 BMatP= 2.95D-06
 IDIUse=1 WtCom= 1.00D+00 WtEn= 0.00D+00
 Coeff-Com: -0.687D-03-0.313D-02-0.150D-01-0.499D-02 0.397D+00 0.627D+00
 Coeff:     -0.687D-03-0.313D-02-0.150D-01-0.499D-02 0.397D+00 0.627D+00
 Gap=     0.439 Goal=   None    Shift=    0.000
 RMSDP=3.46D-06 MaxDP=1.33D-04 DE=-1.69D-06 OVMax= 2.48D-04

 Cycle   7  Pass 1  IDiag  1:
 RMSU=  1.80D-06    CP:  1.01D+00  6.85D-01  9.63D-01  8.75D-01  1.13D+00
                    CP:  8.73D-01
 FoFJK:  IHMeth= 1 ICntrl=     0 DoSepK=T KAlg= 1 I1Cent= 0 FoldK=F
 E= -2904.95561108000     Delta-E=       -0.000000793712 Rises=F Damp=F
 DIIS: error= 1.22D-05 at cycle   7 NSaved=   7.
 NSaved= 7 IEnMin= 7 EnMin= -2904.95561108000     IErMin= 7 ErrMin= 1.22D-05
 ErrMax= 1.22D-05 EMaxC= 1.00D-01 BMatC= 4.97D-08 BMatP= 1.18D-06
 IDIUse=1 WtCom= 1.00D+00 WtEn= 0.00D+00
 Coeff-Com: -0.472D-05-0.119D-02-0.109D-01-0.242D-01 0.821D-02 0.179D+00
 Coeff-Com:  0.849D+00
 Coeff:     -0.472D-05-0.119D-02-0.109D-01-0.242D-01 0.821D-02 0.179D+00
 Coeff:      0.849D+00
 Gap=     0.439 Goal=   None    Shift=    0.000
 RMSDP=1.19D-06 MaxDP=3.51D-05 DE=-7.94D-07 OVMax= 9.03D-05

 Cycle   8  Pass 1  IDiag  1:
 RMSU=  3.74D-07    CP:  1.01D+00  6.85D-01  9.63D-01  8.80D-01  1.16D+00
                    CP:  9.93D-01  1.05D+00
 FoFJK:  IHMeth= 1 ICntrl=     0 DoSepK=T KAlg= 1 I1Cent= 0 FoldK=F
 E= -2904.95561112698     Delta-E=       -0.000000046977 Rises=F Damp=F
 DIIS: error= 2.08D-06 at cycle   8 NSaved=   8.
 NSaved= 8 IEnMin= 8 EnMin= -2904.95561112698     IErMin= 8 ErrMin= 2.08D-06
 ErrMax= 2.08D-06 EMaxC= 1.00D-01 BMatC= 8.61D-10 BMatP= 4.97D-08
 IDIUse=1 WtCom= 1.00D+00 WtEn= 0.00D+00
 Coeff-Com:  0.336D-04 0.292D-03 0.203D-02 0.350D-02-0.154D-01-0.500D-01
 Coeff-Com: -0.126D+00 0.119D+01
 Coeff:      0.336D-04 0.292D-03 0.203D-02 0.350D-02-0.154D-01-0.500D-01
 Coeff:     -0.126D+00 0.119D+01
 Gap=     0.439 Goal=   None    Shift=    0.000
 RMSDP=3.40D-07 MaxDP=1.12D-05 DE=-4.70D-08 OVMax= 3.44D-05

 Cycle   9  Pass 1  IDiag  1:
 RMSU=  9.69D-08    CP:  1.01D+00  6.85D-01  9.63D-01  8.81D-01  1.16D+00
                    CP:  1.01D+00  1.10D+00  1.39D+00
 FoFJK:  IHMeth= 1 ICntrl=     0 DoSepK=T KAlg= 1 I1Cent= 0 FoldK=F
 E= -2904.95561112993     Delta-E=       -0.000000002947 Rises=F Damp=F
 DIIS: error= 4.58D-07 at cycle   9 NSaved=   9.
 NSaved= 9 IEnMin= 9 EnMin= -2904.95561112993     IErMin= 9 ErrMin= 4.58D-07
 ErrMax= 4.58D-07 EMaxC= 1.00D-01 BMatC= 4.78D-11 BMatP= 8.61D-10
 IDIUse=1 WtCom= 1.00D+00 WtEn= 0.00D+00
 Coeff-Com: -0.315D-05 0.340D-04 0.375D-03 0.106D-02 0.512D-03-0.679D-02
 Coeff-Com: -0.373D-01-0.356D-01 0.108D+01
 Coeff:     -0.315D-05 0.340D-04 0.375D-03 0.106D-02 0.512D-03-0.679D-02
 Coeff:     -0.373D-01-0.356D-01 0.108D+01
 Gap=     0.439 Goal=   None    Shift=    0.000
 RMSDP=7.14D-08 MaxDP=2.16D-06 DE=-2.95D-09 OVMax= 7.94D-06

 Cycle  10  Pass 1  IDiag  1:
 RMSU=  2.21D-08    CP:  1.01D+00  6.85D-01  9.63D-01  8.81D-01  1.16D+00
                    CP:  1.01D+00  1.10D+00  1.48D+00  1.26D+00
 FoFJK:  IHMeth= 1 ICntrl=     0 DoSepK=T KAlg= 1 I1Cent= 0 FoldK=F
 E= -2904.95561113010     Delta-E=       -0.000000000177 Rises=F Damp=F
 DIIS: error= 1.25D-07 at cycle  10 NSaved=  10.
 NSaved=10 IEnMin=10 EnMin= -2904.95561113010     IErMin=10 ErrMin= 1.25D-07
 ErrMax= 1.25D-07 EMaxC= 1.00D-01 BMatC= 3.52D-12 BMatP= 4.78D-11
 IDIUse=1 WtCom= 1.00D+00 WtEn= 0.00D+00
 Coeff-Com: -0.156D-05-0.162D-04-0.126D-03-0.237D-03 0.102D-02 0.315D-02
 Coeff-Com:  0.742D-02-0.704D-01-0.260D-01 0.109D+01
 Coeff:     -0.156D-05-0.162D-04-0.126D-03-0.237D-03 0.102D-02 0.315D-02
 Coeff:      0.742D-02-0.704D-01-0.260D-01 0.109D+01
 Gap=     0.439 Goal=   None    Shift=    0.000
 RMSDP=2.16D-08 MaxDP=8.02D-07 DE=-1.77D-10 OVMax= 2.24D-06

 Cycle  11  Pass 1  IDiag  1:
 RMSU=  6.54D-09    CP:  1.01D+00  6.85D-01  9.63D-01  8.81D-01  1.16D+00
                    CP:  1.01D+00  1.10D+00  1.49D+00  1.36D+00  1.34D+00
 FoFJK:  IHMeth= 1 ICntrl=     0 DoSepK=T KAlg= 1 I1Cent= 0 FoldK=F
 E= -2904.95561113010     Delta-E=        0.000000000001 Rises=F Damp=F
 DIIS: error= 3.38D-08 at cycle  11 NSaved=  11.
 NSaved=11 IEnMin=10 EnMin= -2904.95561113010     IErMin=11 ErrMin= 3.38D-08
 ErrMax= 3.38D-08 EMaxC= 1.00D-01 BMatC= 3.92D-13 BMatP= 3.52D-12
 IDIUse=1 WtCom= 1.00D+00 WtEn= 0.00D+00
 Coeff-Com:  0.245D-06-0.328D-05-0.350D-04-0.101D-03 0.178D-04 0.723D-03
 Coeff-Com:  0.322D-02-0.120D-02-0.828D-01 0.486D-01 0.103D+01
 Coeff:      0.245D-06-0.328D-05-0.350D-04-0.101D-03 0.178D-04 0.723D-03
 Coeff:      0.322D-02-0.120D-02-0.828D-01 0.486D-01 0.103D+01
 Gap=     0.439 Goal=   None    Shift=    0.000
 RMSDP=6.77D-09 MaxDP=1.68D-07 DE= 9.09D-13 OVMax= 9.74D-07

 SCF Done:  E(RLC-wPBE) =  -2904.95561113     A.U. after   11 cycles
             Convg  =    0.6768D-08             -V/T =  2.0017
 KE= 2.900040237916D+03 PE=-7.234336659206D+03 EE= 1.280598981288D+03
 Leave Link  502 at Tue May 12 14:01:41 2020, MaxMem= 1073741824 cpu:     257.8
 (Enter /home/matheus/.gaussian/g09/l601.exe)
 Copying SCF densities to generalized density rwf, IOpCl= 0 IROHF=0.

 **********************************************************************

            Population analysis using the SCF density.

 **********************************************************************

 Orbital symmetries:
       Occupied  (A) (A) (A) (A) (A) (A) (A) (A) (A) (A) (A) (A)
                 (A) (A) (A) (A) (A) (A) (A) (A) (A) (A) (A) (A)
                 (A) (A) (A)
       Virtual   (A) (A) (A) (A) (A) (A) (A) (A) (A) (A) (A) (A)
                 (A) (A) (A) (A) (A) (A) (A) (A) (A) (A) (A) (A)
                 (A) (A) (A) (A) (A) (A) (A) (A) (A) (A) (A) (A)
                 (A) (A) (A) (A) (A) (A) (A) (A) (A) (A) (A) (A)
                 (A) (A) (A) (A) (A) (A) (A) (A) (A) (A) (A) (A)
                 (A) (A) (A) (A) (A) (A) (A) (A) (A) (A) (A) (A)
                 (A) (A) (A) (A) (A) (A) (A) (A) (A) (A) (A) (A)
                 (A) (A) (A) (A) (A) (A) (A) (A) (A) (A) (A) (A)
                 (A) (A) (A) (A) (A) (A) (A) (A) (A) (A) (A) (A)
                 (A) (A) (A) (A) (A) (A) (A) (A) (A) (A) (A) (A)
                 (A) (A) (A) (A) (A) (A) (A) (A) (A) (A) (A) (A)
                 (A) (A) (A) (A) (A) (A) (A) (A) (A) (A) (A) (A)
                 (A) (A) (A) (A) (A) (A) (A) (A) (A) (A) (A) (A)
                 (A) (A) (A) (A) (A) (A) (A) (A) (A) (A) (A) (A)
                 (A) (A)
 The electronic state is 1-A.
 Alpha  occ. eigenvalues -- -511.11696 -66.66388 -60.32613 -60.32595 -60.32585
 Alpha  occ. eigenvalues --  -19.03496 -19.03127  -9.59670  -7.34138  -7.34084
 Alpha  occ. eigenvalues --   -7.34056  -3.29675  -3.29664  -3.29645  -3.29604
 Alpha  occ. eigenvalues --   -3.29602  -1.25221  -1.04723  -1.03711  -0.68083
 Alpha  occ. eigenvalues --   -0.62389  -0.55020  -0.51654  -0.51237  -0.50413
 Alpha  occ. eigenvalues --   -0.44854  -0.40669
 Alpha virt. eigenvalues --    0.03188   0.04097   0.08217   0.09714   0.10447
 Alpha virt. eigenvalues --    0.11316   0.13527   0.14050   0.16757   0.17716
 Alpha virt. eigenvalues --    0.18623   0.19161   0.20539   0.22379   0.24120
 Alpha virt. eigenvalues --    0.24785   0.26498   0.28837   0.31978   0.33567
 Alpha virt. eigenvalues --    0.34352   0.34992   0.36194   0.39061   0.39996
 Alpha virt. eigenvalues --    0.41337   0.42835   0.48108   0.53184   0.56119
 Alpha virt. eigenvalues --    0.56831   0.59508   0.62251   0.66975   0.68168
 Alpha virt. eigenvalues --    0.70834   0.72200   0.72920   0.75204   0.76166
 Alpha virt. eigenvalues --    0.76376   0.78388   0.78701   0.80677   0.82770
 Alpha virt. eigenvalues --    0.85792   0.86235   0.88609   0.90312   0.90894
 Alpha virt. eigenvalues --    0.93054   0.94389   0.96018   0.96958   1.00852
 Alpha virt. eigenvalues --    1.01873   1.03317   1.05551   1.07251   1.08930
 Alpha virt. eigenvalues --    1.10140   1.15738   1.16207   1.18684   1.23378
 Alpha virt. eigenvalues --    1.25357   1.31673   1.33566   1.37867   1.41933
 Alpha virt. eigenvalues --    1.43378   1.50190   1.52718   1.54132   1.59321
 Alpha virt. eigenvalues --    1.66359   1.73486   1.82856   1.86999   1.93937
 Alpha virt. eigenvalues --    1.97522   2.00680   2.10451   2.12329   2.14074
 Alpha virt. eigenvalues --    2.15178   2.17740   2.19146   2.21280   2.25113
 Alpha virt. eigenvalues --    2.26481   2.30302   2.31035   2.31590   2.35824
 Alpha virt. eigenvalues --    2.37671   2.39380   2.43637   2.44586   2.48495
 Alpha virt. eigenvalues --    2.49058   2.49819   2.54652   2.55457   2.57935
 Alpha virt. eigenvalues --    2.59968   2.62433   2.63820   2.66936   2.71833
 Alpha virt. eigenvalues --    2.73146   2.76142   2.79474   2.86029   2.88136
 Alpha virt. eigenvalues --    2.90333   3.04407   3.10355   3.14081   3.60941
 Alpha virt. eigenvalues --    3.66967   3.86586   3.95308   4.00626   4.07681
 Alpha virt. eigenvalues --    4.08717   4.16024   4.21953   4.25620   4.27643
 Alpha virt. eigenvalues --    4.41578   4.48926   4.49738   4.53420   4.67690
 Alpha virt. eigenvalues --    4.88048   4.96425   5.04978   5.11427   5.11948
 Alpha virt. eigenvalues --    5.21223   5.41242   5.82139   6.04291   6.09118
 Alpha virt. eigenvalues --    6.11014   6.29243   6.32924   6.41249   6.52770
 Alpha virt. eigenvalues --    6.57565   6.74586   6.76026   6.78963   6.81224
 Alpha virt. eigenvalues --    6.84300   6.86131   6.86730   6.95060   6.99273
 Alpha virt. eigenvalues --    7.02609   7.15041   7.23085   7.40344   7.69697
 Alpha virt. eigenvalues --    7.77690   8.04474   8.08731  13.86676  14.56219
          Condensed to atoms (all electrons):
              1          2          3          4          5
     1  O    8.229134  -0.225438   0.209256   0.000956  -0.027401
     2  O   -0.225438   8.259049   0.012973   0.200994  -0.009284
     3  H    0.209256   0.012973   0.577086   0.002326   0.002280
     4  H    0.000956   0.200994   0.002326   0.587427  -0.013035
     5  Kr  -0.027401  -0.009284   0.002280  -0.013035  36.040048
 Mulliken atomic charges:
              1
     1  O   -0.186508
     2  O   -0.238295
     3  H    0.196078
     4  H    0.221333
     5  Kr   0.007391
 Sum of Mulliken atomic charges =   0.00000
 Mulliken charges with hydrogens summed into heavy atoms:
              1
     1  O    0.009571
     2  O   -0.016962
     5  Kr   0.007391
 Sum of Mulliken charges with hydrogens summed into heavy atoms =   0.00000
          Condensed to fragments (all electrons):
     1      -0.007391
     2       0.007391
 Electronic spatial extent (au):  <R**2>=            488.4253
 Charge=              0.0000 electrons
 Dipole moment (field-independent basis, Debye):
    X=             -0.9489    Y=             -0.3939    Z=              1.3385  Tot=              1.6874
 Quadrupole moment (field-independent basis, Debye-Ang):
   XX=            -30.9966   YY=            -28.0757   ZZ=            -29.4644
   XY=             -3.2493   XZ=              3.6342   YZ=             -1.5450
 Traceless Quadrupole moment (field-independent basis, Debye-Ang):
   XX=             -1.4844   YY=              1.4365   ZZ=              0.0479
   XY=             -3.2493   XZ=              3.6342   YZ=             -1.5450
 Octapole moment (field-independent basis, Debye-Ang**2):
  XXX=            -20.6648  YYY=             -1.0230  ZZZ=              0.9569  XYY=             -4.5174
  XXY=            -11.9626  XXZ=              9.3235  XZZ=             -5.9162  YZZ=             -1.4768
  YYZ=              1.9048  XYZ=             -4.0957
 Hexadecapole moment (field-independent basis, Debye-Ang**3):
 XXXX=           -414.3964 YYYY=            -63.6417 ZZZZ=            -30.0205 XXXY=            -32.1452
 XXXZ=             24.9919 YYYX=             -5.4707 YYYZ=             -2.1380 ZZZX=              2.8665
 ZZZY=             -1.4391 XXYY=            -77.4576 XXZZ=            -72.6643 YYZZ=            -16.4743
 XXYZ=            -10.7663 YYXZ=              4.8113 ZZXY=             -3.2353
 N-N= 1.487418288716D+02 E-N=-7.234336661476D+03  KE= 2.900040237916D+03
 No NMR shielding tensors so no spin-rotation constants.
 Leave Link  601 at Tue May 12 14:01:41 2020, MaxMem= 1073741824 cpu:       0.7
 (Enter /home/matheus/.gaussian/g09/l122.exe)
 Counterpoise: doing DCBS calculation for fragment   1 NewBq=T
 Leave Link  122 at Tue May 12 14:01:41 2020, MaxMem= 1073741824 cpu:       0.0
 (Enter /home/matheus/.gaussian/g09/l301.exe)
 Basis read from rwf:  (5D, 7F)
 No pseudopotential information found on rwf file.
 There are   197 symmetry adapted basis functions of A   symmetry.
 Integral buffers will be    131072 words long.
 Raffenetti 2 integral format.
 Two-electron integral symmetry is turned on.
   197 basis functions,   415 primitive gaussians,   229 cartesian basis functions
     9 alpha electrons        9 beta electrons
       nuclear repulsion energy        36.6123390277 Hartrees.
 IExCor=32609 DFT=T Ex+Corr=LC-wPBE ExCW=0 ScaHFX=  1.000000
 ScaDFX=  1.000000  0.000000  1.000000  1.000000 ScalE2=  1.000000  1.000000
 IRadAn=      5 IRanWt=     -1 IRanGd=            0 ICorTp=0
  HFx wShort=  0.000000 wLong=  0.400000 cFull=  0.000000 cShort=  0.000000 cLong=  1.000000
  DFx wShort=  0.000000 wLong=  0.400000 cFull=  0.000000 cShort=  0.000000 cLong=  1.000000
 NAtoms=    5 NActive=    5 NUniq=    5 SFac= 1.00D+00 NAtFMM=   60 NAOKFM=F Big=F
 No density basis found on file   718.
 Leave Link  301 at Tue May 12 14:01:41 2020, MaxMem= 1073741824 cpu:       0.2
 (Enter /home/matheus/.gaussian/g09/l302.exe)
 NPDir=0 NMtPBC=     1 NCelOv=     1 NCel=       1 NClECP=     1 NCelD=      1
         NCelK=      1 NCelE2=     1 NClLst=     1 CellRange=     0.0.
 One-electron integrals computed using PRISM.
 NBasis=   197 RedAO= T  NBF=   197
 NBsUse=   197 1.00D-06 NBFU=   197
 Precomputing XC quadrature grid using
 IXCGrd= 2 IRadAn=           5 IRanWt=          -1 IRanGd=           0 AccXCQ= 0.00D+00.
 NRdTot=     427 NPtTot=      123512 NUsed=      126579 NTot=      126611
 NSgBfM=   229   229   229   229   229 NAtAll=     5     5.
 Leave Link  302 at Tue May 12 14:01:41 2020, MaxMem= 1073741824 cpu:       1.0
 (Enter /home/matheus/.gaussian/g09/l303.exe)
 DipDrv:  MaxL=1.
 Leave Link  303 at Tue May 12 14:01:41 2020, MaxMem= 1073741824 cpu:       0.2
 (Enter /home/matheus/.gaussian/g09/l401.exe)
 Harris functional with IExCor=32609 diagonalized for initial guess.
 ExpMin= 2.53D-02 ExpMax= 1.17D+07 ExpMxC= 1.33D+04 IAcc=3 IRadAn=         5 AccDes= 0.00D+00
 HarFok:  IExCor=32609 AccDes= 0.00D+00 IRadAn=         5 IDoV= 1
 ScaDFX=  1.000000  1.000000  1.000000  1.000000
 FoFCou: FMM=F IPFlag=           0 FMFlag=      100000 FMFlg1=           0
         NFxFlg=           0 DoJE=T BraDBF=F KetDBF=T FulRan=T
         Omega=  0.000000  0.000000  1.000000  0.000000  0.000000 ICntrl=     500 IOpCl=  0
         NMat0=    1 NMatS0=    1 NMatT0=    0 NMatD0=    1 NMtDS0=    0 NMtDT0=    0
         I1Cent=           4 NGrid=           0.
 Petite list used in FoFCou.
 Harris En= -151.502007208516    
 Initial guess orbital symmetries:
       Occupied  (A) (A) (A) (A) (A) (A) (A) (A) (A)
       Virtual   (A) (A) (A) (A) (A) (A) (A) (A) (A) (A) (A) (A)
                 (A) (A) (A) (A) (A) (A) (A) (A) (A) (A) (A) (A)
                 (A) (A) (A) (A) (A) (A) (A) (A) (A) (A) (A) (A)
                 (A) (A) (A) (A) (A) (A) (A) (A) (A) (A) (A) (A)
                 (A) (A) (A) (A) (A) (A) (A) (A) (A) (A) (A) (A)
                 (A) (A) (A) (A) (A) (A) (A) (A) (A) (A) (A) (A)
                 (A) (A) (A) (A) (A) (A) (A) (A) (A) (A) (A) (A)
                 (A) (A) (A) (A) (A) (A) (A) (A) (A) (A) (A) (A)
                 (A) (A) (A) (A) (A) (A) (A) (A) (A) (A) (A) (A)
                 (A) (A) (A) (A) (A) (A) (A) (A) (A) (A) (A) (A)
                 (A) (A) (A) (A) (A) (A) (A) (A) (A) (A) (A) (A)
                 (A) (A) (A) (A) (A) (A) (A) (A) (A) (A) (A) (A)
                 (A) (A) (A) (A) (A) (A) (A) (A) (A) (A) (A) (A)
                 (A) (A) (A) (A) (A) (A) (A) (A) (A) (A) (A) (A)
                 (A) (A) (A) (A) (A) (A) (A) (A) (A) (A) (A) (A)
                 (A) (A) (A) (A) (A) (A) (A) (A)
 The electronic state of the initial guess is 1-A.
 Leave Link  401 at Tue May 12 14:01:42 2020, MaxMem= 1073741824 cpu:       3.8
 (Enter /home/matheus/.gaussian/g09/l502.exe)
 Closed shell SCF:
 Requested convergence on RMS density matrix=1.00D-08 within 128 cycles.
 Requested convergence on MAX density matrix=1.00D-06.
 Requested convergence on             energy=1.00D-06.
 No special actions if energy rises.
 Using DIIS extrapolation, IDIIS=  1040.
 Integral symmetry usage will be decided dynamically.
       126521 words used for storage of precomputed grid.
 IEnd=      305468 IEndB=      305468 NGot=  1073741824 MDV=  1073505667
 LenX=  1073505667 LenY=  1073452785
 Fock matrices will be formed incrementally for  20 cycles.

 Cycle   1  Pass 1  IDiag  1:
 FoFJK:  IHMeth= 1 ICntrl=     0 DoSepK=T KAlg= 1 I1Cent= 0 FoldK=F
 FoFCou: FMM=F IPFlag=           0 FMFlag=      100000 FMFlg1=           0
         NFxFlg=           0 DoJE=T BraDBF=F KetDBF=F FulRan=T
         Omega=  0.000000  0.000000  1.000000  0.000000  0.000000 ICntrl=     500 IOpCl=  0
         NMat0=    1 NMatS0=    1 NMatT0=    0 NMatD0=    1 NMtDS0=    0 NMtDT0=    0
         I1Cent=           0 NGrid=           0.
 Symmetry not used in FoFCou.
 E= -151.498881471182    
 DIIS: error= 1.44D-02 at cycle   1 NSaved=   1.
 NSaved= 1 IEnMin= 1 EnMin= -151.498881471182     IErMin= 1 ErrMin= 1.44D-02
 ErrMax= 1.44D-02 EMaxC= 1.00D-01 BMatC= 3.83D-02 BMatP= 3.83D-02
 IDIUse=3 WtCom= 8.56D-01 WtEn= 1.44D-01
 Coeff-Com:  0.100D+01
 Coeff-En:   0.100D+01
 Coeff:      0.100D+01
 Gap=     0.499 Goal=   None    Shift=    0.000
 GapD=    0.499 DampG=2.000 DampE=0.500 DampFc=1.0000 IDamp=-1.
 RMSDP=8.28D-04 MaxDP=2.26D-02              OVMax= 5.53D-02

 Cycle   2  Pass 1  IDiag  1:
 RMSU=  5.79D-04    CP:  9.87D-01
 FoFJK:  IHMeth= 1 ICntrl=     0 DoSepK=T KAlg= 1 I1Cent= 0 FoldK=F
 E= -151.512395064533     Delta-E=       -0.013513593351 Rises=F Damp=F
 DIIS: error= 9.27D-03 at cycle   2 NSaved=   2.
 NSaved= 2 IEnMin= 2 EnMin= -151.512395064533     IErMin= 2 ErrMin= 9.27D-03
 ErrMax= 9.27D-03 EMaxC= 1.00D-01 BMatC= 2.11D-02 BMatP= 3.83D-02
 IDIUse=3 WtCom= 9.07D-01 WtEn= 9.27D-02
 Coeff-Com:  0.418D+00 0.582D+00
 Coeff-En:   0.250D+00 0.750D+00
 Coeff:      0.402D+00 0.598D+00
 Gap=     0.440 Goal=   None    Shift=    0.000
 RMSDP=4.40D-04 MaxDP=2.33D-02 DE=-1.35D-02 OVMax= 2.53D-02

 Cycle   3  Pass 1  IDiag  1:
 RMSU=  2.43D-04    CP:  9.84D-01  6.68D-01
 FoFJK:  IHMeth= 1 ICntrl=     0 DoSepK=T KAlg= 1 I1Cent= 0 FoldK=F
 E= -151.524482717644     Delta-E=       -0.012087653111 Rises=F Damp=F
 DIIS: error= 1.25D-03 at cycle   3 NSaved=   3.
 NSaved= 3 IEnMin= 3 EnMin= -151.524482717644     IErMin= 3 ErrMin= 1.25D-03
 ErrMax= 1.25D-03 EMaxC= 1.00D-01 BMatC= 3.89D-04 BMatP= 2.11D-02
 IDIUse=3 WtCom= 9.87D-01 WtEn= 1.25D-02
 Coeff-Com:  0.634D-01 0.150D+00 0.787D+00
 Coeff-En:   0.000D+00 0.000D+00 0.100D+01
 Coeff:      0.626D-01 0.148D+00 0.789D+00
 Gap=     0.434 Goal=   None    Shift=    0.000
 RMSDP=5.81D-05 MaxDP=2.41D-03 DE=-1.21D-02 OVMax= 3.92D-03

 Cycle   4  Pass 1  IDiag  1:
 RMSU=  2.91D-05    CP:  9.82D-01  7.13D-01  1.02D+00
 FoFJK:  IHMeth= 1 ICntrl=     0 DoSepK=T KAlg= 1 I1Cent= 0 FoldK=F
 E= -151.524722242397     Delta-E=       -0.000239524753 Rises=F Damp=F
 DIIS: error= 2.18D-04 at cycle   4 NSaved=   4.
 NSaved= 4 IEnMin= 4 EnMin= -151.524722242397     IErMin= 4 ErrMin= 2.18D-04
 ErrMax= 2.18D-04 EMaxC= 1.00D-01 BMatC= 1.36D-05 BMatP= 3.89D-04
 IDIUse=3 WtCom= 9.98D-01 WtEn= 2.18D-03
 Coeff-Com: -0.452D-02-0.851D-02 0.119D+00 0.894D+00
 Coeff-En:   0.000D+00 0.000D+00 0.000D+00 0.100D+01
 Coeff:     -0.451D-02-0.849D-02 0.119D+00 0.894D+00
 Gap=     0.436 Goal=   None    Shift=    0.000
 RMSDP=1.39D-05 MaxDP=9.17D-04 DE=-2.40D-04 OVMax= 7.67D-04

 Cycle   5  Pass 1  IDiag  1:
 RMSU=  5.46D-06    CP:  9.82D-01  7.12D-01  1.05D+00  1.02D+00
 FoFJK:  IHMeth= 1 ICntrl=     0 DoSepK=T KAlg= 1 I1Cent= 0 FoldK=F
 E= -151.524731550923     Delta-E=       -0.000009308526 Rises=F Damp=F
 DIIS: error= 3.10D-05 at cycle   5 NSaved=   5.
 NSaved= 5 IEnMin= 5 EnMin= -151.524731550923     IErMin= 5 ErrMin= 3.10D-05
 ErrMax= 3.10D-05 EMaxC= 1.00D-01 BMatC= 1.21D-07 BMatP= 1.36D-05
 IDIUse=1 WtCom= 1.00D+00 WtEn= 0.00D+00
 Coeff-Com: -0.974D-03-0.279D-02-0.288D-01-0.783D-01 0.111D+01
 Coeff:     -0.974D-03-0.279D-02-0.288D-01-0.783D-01 0.111D+01
 Gap=     0.436 Goal=   None    Shift=    0.000
 RMSDP=3.21D-06 MaxDP=1.14D-04 DE=-9.31D-06 OVMax= 2.29D-04

 Cycle   6  Pass 1  IDiag  1:
 RMSU=  1.07D-06    CP:  9.82D-01  7.13D-01  1.05D+00  1.05D+00  1.31D+00
 FoFJK:  IHMeth= 1 ICntrl=     0 DoSepK=T KAlg= 1 I1Cent= 0 FoldK=F
 E= -151.524731831734     Delta-E=       -0.000000280811 Rises=F Damp=F
 DIIS: error= 6.88D-06 at cycle   6 NSaved=   6.
 NSaved= 6 IEnMin= 6 EnMin= -151.524731831734     IErMin= 6 ErrMin= 6.88D-06
 ErrMax= 6.88D-06 EMaxC= 1.00D-01 BMatC= 5.28D-09 BMatP= 1.21D-07
 IDIUse=1 WtCom= 1.00D+00 WtEn= 0.00D+00
 Coeff-Com:  0.153D-03 0.390D-03-0.131D-02-0.168D-01-0.431D-01 0.106D+01
 Coeff:      0.153D-03 0.390D-03-0.131D-02-0.168D-01-0.431D-01 0.106D+01
 Gap=     0.436 Goal=   None    Shift=    0.000
 RMSDP=6.63D-07 MaxDP=2.18D-05 DE=-2.81D-07 OVMax= 6.96D-05

 Cycle   7  Pass 1  IDiag  1:
 RMSU=  2.46D-07    CP:  9.82D-01  7.13D-01  1.05D+00  1.06D+00  1.36D+00
                    CP:  1.22D+00
 FoFJK:  IHMeth= 1 ICntrl=     0 DoSepK=T KAlg= 1 I1Cent= 0 FoldK=F
 E= -151.524731863293     Delta-E=       -0.000000031558 Rises=F Damp=F
 DIIS: error= 1.84D-06 at cycle   7 NSaved=   7.
 NSaved= 7 IEnMin= 7 EnMin= -151.524731863293     IErMin= 7 ErrMin= 1.84D-06
 ErrMax= 1.84D-06 EMaxC= 1.00D-01 BMatC= 5.03D-10 BMatP= 5.28D-09
 IDIUse=1 WtCom= 1.00D+00 WtEn= 0.00D+00
 Coeff-Com:  0.376D-04 0.107D-03 0.132D-02 0.463D-02-0.570D-01-0.734D-01
 Coeff-Com:  0.112D+01
 Coeff:      0.376D-04 0.107D-03 0.132D-02 0.463D-02-0.570D-01-0.734D-01
 Coeff:      0.112D+01
 Gap=     0.436 Goal=   None    Shift=    0.000
 RMSDP=2.19D-07 MaxDP=4.96D-06 DE=-3.16D-08 OVMax= 2.71D-05

 Cycle   8  Pass 1  IDiag  1:
 RMSU=  6.51D-08    CP:  9.82D-01  7.13D-01  1.05D+00  1.06D+00  1.37D+00
                    CP:  1.30D+00  1.38D+00
 FoFJK:  IHMeth= 1 ICntrl=     0 DoSepK=T KAlg= 1 I1Cent= 0 FoldK=F
 E= -151.524731865109     Delta-E=       -0.000000001817 Rises=F Damp=F
 DIIS: error= 5.70D-07 at cycle   8 NSaved=   8.
 NSaved= 8 IEnMin= 8 EnMin= -151.524731865109     IErMin= 8 ErrMin= 5.70D-07
 ErrMax= 5.70D-07 EMaxC= 1.00D-01 BMatC= 9.47D-11 BMatP= 5.03D-10
 IDIUse=1 WtCom= 1.00D+00 WtEn= 0.00D+00
 Coeff-Com:  0.827D-06-0.377D-06 0.298D-03 0.181D-02-0.879D-02-0.691D-01
 Coeff-Com:  0.227D+00 0.849D+00
 Coeff:      0.827D-06-0.377D-06 0.298D-03 0.181D-02-0.879D-02-0.691D-01
 Coeff:      0.227D+00 0.849D+00
 Gap=     0.436 Goal=   None    Shift=    0.000
 RMSDP=6.49D-08 MaxDP=2.48D-06 DE=-1.82D-09 OVMax= 7.89D-06

 Cycle   9  Pass 1  IDiag  1:
 RMSU=  2.94D-08    CP:  9.82D-01  7.13D-01  1.05D+00  1.06D+00  1.37D+00
                    CP:  1.30D+00  1.49D+00  1.24D+00
 FoFJK:  IHMeth= 1 ICntrl=     0 DoSepK=T KAlg= 1 I1Cent= 0 FoldK=F
 E= -151.524731865270     Delta-E=       -0.000000000160 Rises=F Damp=F
 DIIS: error= 4.01D-07 at cycle   9 NSaved=   9.
 NSaved= 9 IEnMin= 9 EnMin= -151.524731865270     IErMin= 9 ErrMin= 4.01D-07
 ErrMax= 4.01D-07 EMaxC= 1.00D-01 BMatC= 6.15D-11 BMatP= 9.47D-11
 IDIUse=1 WtCom= 1.00D+00 WtEn= 0.00D+00
 Coeff-Com: -0.969D-05-0.311D-04-0.236D-03-0.404D-03 0.122D-01-0.133D-01
 Coeff-Com: -0.222D+00 0.508D+00 0.715D+00
 Coeff:     -0.969D-05-0.311D-04-0.236D-03-0.404D-03 0.122D-01-0.133D-01
 Coeff:     -0.222D+00 0.508D+00 0.715D+00
 Gap=     0.436 Goal=   None    Shift=    0.000
 RMSDP=4.19D-08 MaxDP=1.35D-06 DE=-1.60D-10 OVMax= 5.44D-06

 Cycle  10  Pass 1  IDiag  1:
 RMSU=  1.23D-08    CP:  9.82D-01  7.13D-01  1.05D+00  1.06D+00  1.37D+00
                    CP:  1.31D+00  1.55D+00  1.58D+00  1.02D+00
 FoFJK:  IHMeth= 1 ICntrl=     0 DoSepK=T KAlg= 1 I1Cent= 0 FoldK=F
 E= -151.524731865344     Delta-E=       -0.000000000075 Rises=F Damp=F
 DIIS: error= 8.68D-08 at cycle  10 NSaved=  10.
 NSaved=10 IEnMin=10 EnMin= -151.524731865344     IErMin=10 ErrMin= 8.68D-08
 ErrMax= 8.68D-08 EMaxC= 1.00D-01 BMatC= 1.89D-12 BMatP= 6.15D-11
 IDIUse=1 WtCom= 1.00D+00 WtEn= 0.00D+00
 Coeff-Com:  0.928D-06 0.311D-05-0.275D-04-0.257D-03 0.500D-03 0.123D-01
 Coeff-Com: -0.386D-01-0.108D+00-0.370D-01 0.117D+01
 Coeff:      0.928D-06 0.311D-05-0.275D-04-0.257D-03 0.500D-03 0.123D-01
 Coeff:     -0.386D-01-0.108D+00-0.370D-01 0.117D+01
 Gap=     0.436 Goal=   None    Shift=    0.000
 RMSDP=1.93D-08 MaxDP=4.07D-07 DE=-7.47D-11 OVMax= 2.88D-06

 Cycle  11  Pass 1  IDiag  1:
 RMSU=  3.13D-09    CP:  9.82D-01  7.13D-01  1.05D+00  1.06D+00  1.37D+00
                    CP:  1.31D+00  1.57D+00  1.71D+00  1.22D+00  1.47D+00
 FoFJK:  IHMeth= 1 ICntrl=     0 DoSepK=T KAlg= 1 I1Cent= 0 FoldK=F
 E= -151.524731865352     Delta-E=       -0.000000000007 Rises=F Damp=F
 DIIS: error= 2.66D-08 at cycle  11 NSaved=  11.
 NSaved=11 IEnMin=11 EnMin= -151.524731865352     IErMin=11 ErrMin= 2.66D-08
 ErrMax= 2.66D-08 EMaxC= 1.00D-01 BMatC= 1.44D-13 BMatP= 1.89D-12
 IDIUse=1 WtCom= 1.00D+00 WtEn= 0.00D+00
 Coeff-Com:  0.118D-05 0.381D-05 0.297D-04 0.616D-04-0.144D-02 0.139D-02
 Coeff-Com:  0.266D-01-0.242D-01-0.585D-01-0.248D+00 0.130D+01
 Coeff:      0.118D-05 0.381D-05 0.297D-04 0.616D-04-0.144D-02 0.139D-02
 Coeff:      0.266D-01-0.242D-01-0.585D-01-0.248D+00 0.130D+01
 Gap=     0.436 Goal=   None    Shift=    0.000
 RMSDP=6.80D-09 MaxDP=2.45D-07 DE=-7.45D-12 OVMax= 9.09D-07

 SCF Done:  E(RLC-wPBE) =  -151.524731865     A.U. after   11 cycles
             Convg  =    0.6795D-08             -V/T =  2.0068
 KE= 1.505015984404D+02 PE=-4.315048473604D+02 EE= 9.286617802691D+01
 Leave Link  502 at Tue May 12 14:02:13 2020, MaxMem= 1073741824 cpu:     246.9
 (Enter /home/matheus/.gaussian/g09/l601.exe)
 Copying SCF densities to generalized density rwf, IOpCl= 0 IROHF=0.

 **********************************************************************

            Population analysis using the SCF density.

 **********************************************************************

 Orbital symmetries:
       Occupied  (A) (A) (A) (A) (A) (A) (A) (A) (A)
       Virtual   (A) (A) (A) (A) (A) (A) (A) (A) (A) (A) (A) (A)
                 (A) (A) (A) (A) (A) (A) (A) (A) (A) (A) (A) (A)
                 (A) (A) (A) (A) (A) (A) (A) (A) (A) (A) (A) (A)
                 (A) (A) (A) (A) (A) (A) (A) (A) (A) (A) (A) (A)
                 (A) (A) (A) (A) (A) (A) (A) (A) (A) (A) (A) (A)
                 (A) (A) (A) (A) (A) (A) (A) (A) (A) (A) (A) (A)
                 (A) (A) (A) (A) (A) (A) (A) (A) (A) (A) (A) (A)
                 (A) (A) (A) (A) (A) (A) (A) (A) (A) (A) (A) (A)
                 (A) (A) (A) (A) (A) (A) (A) (A) (A) (A) (A) (A)
                 (A) (A) (A) (A) (A) (A) (A) (A) (A) (A) (A) (A)
                 (A) (A) (A) (A) (A) (A) (A) (A) (A) (A) (A) (A)
                 (A) (A) (A) (A) (A) (A) (A) (A) (A) (A) (A) (A)
                 (A) (A) (A) (A) (A) (A) (A) (A) (A) (A) (A) (A)
                 (A) (A) (A) (A) (A) (A) (A) (A) (A) (A) (A) (A)
                 (A) (A) (A) (A) (A) (A) (A) (A) (A) (A) (A) (A)
                 (A) (A) (A) (A) (A) (A) (A) (A)
 The electronic state is 1-A.
 Alpha  occ. eigenvalues --  -19.03665 -19.03662  -1.25430  -1.04195  -0.68199
 Alpha  occ. eigenvalues --   -0.61908  -0.54872  -0.45224  -0.40940
 Alpha virt. eigenvalues --    0.02694   0.03582   0.07086   0.08615   0.10091
 Alpha virt. eigenvalues --    0.10356   0.11002   0.13811   0.16611   0.17089
 Alpha virt. eigenvalues --    0.18618   0.18973   0.21020   0.23067   0.25191
 Alpha virt. eigenvalues --    0.27040   0.30647   0.31524   0.32861   0.33268
 Alpha virt. eigenvalues --    0.34364   0.37666   0.38352   0.39695   0.40759
 Alpha virt. eigenvalues --    0.42734   0.44163   0.47037   0.48478   0.49807
 Alpha virt. eigenvalues --    0.54544   0.57707   0.59895   0.62563   0.68173
 Alpha virt. eigenvalues --    0.71556   0.73317   0.74795   0.77199   0.78634
 Alpha virt. eigenvalues --    0.80509   0.81943   0.88183   0.89918   0.90883
 Alpha virt. eigenvalues --    0.91044   0.93522   0.95069   0.96853   0.98730
 Alpha virt. eigenvalues --    0.99945   1.03342   1.05608   1.09267   1.11275
 Alpha virt. eigenvalues --    1.13323   1.15255   1.18016   1.22775   1.25607
 Alpha virt. eigenvalues --    1.26240   1.29307   1.30656   1.32603   1.33301
 Alpha virt. eigenvalues --    1.33981   1.35532   1.37171   1.38118   1.39082
 Alpha virt. eigenvalues --    1.44865   1.50258   1.51189   1.53157   1.56380
 Alpha virt. eigenvalues --    1.58737   1.64862   1.66180   1.68999   1.78777
 Alpha virt. eigenvalues --    1.82612   1.85935   1.88981   1.95421   2.01053
 Alpha virt. eigenvalues --    2.07764   2.12135   2.15446   2.17267   2.21448
 Alpha virt. eigenvalues --    2.27678   2.30874   2.32294   2.36807   2.43215
 Alpha virt. eigenvalues --    2.44916   2.51271   2.53526   2.62515   2.64898
 Alpha virt. eigenvalues --    2.66097   2.74060   2.83176   2.86137   2.89082
 Alpha virt. eigenvalues --    3.03472   3.08347   3.11745   3.26047   3.30410
 Alpha virt. eigenvalues --    3.40637   3.54552   3.63225   3.67187   3.78669
 Alpha virt. eigenvalues --    3.78719   3.81519   3.82430   3.82626   3.83154
 Alpha virt. eigenvalues --    3.86611   3.87816   3.91357   3.94016   3.96027
 Alpha virt. eigenvalues --    3.99293   4.00523   4.07372   4.08944   4.10974
 Alpha virt. eigenvalues --    4.17973   4.23757   4.26536   4.27307   4.34261
 Alpha virt. eigenvalues --    4.45827   4.49688   4.54764   4.67692   4.88600
 Alpha virt. eigenvalues --    4.96559   5.04953   5.11566   5.12126   5.21622
 Alpha virt. eigenvalues --    5.41050   5.81950   6.04205   6.08977   6.10745
 Alpha virt. eigenvalues --    6.29244   6.32898   6.41140   6.52670   6.57408
 Alpha virt. eigenvalues --    6.74372   6.75668   6.78815   6.80823   6.84004
 Alpha virt. eigenvalues --    6.86010   6.86553   6.94858   6.99219   7.02441
 Alpha virt. eigenvalues --    7.14851   7.22703   7.40204   7.69468   7.77511
 Alpha virt. eigenvalues --    8.04323   8.07997  10.89925  13.86498  14.54877
 Alpha virt. eigenvalues --   14.83441  14.88277  15.10153  29.03229  29.03609
 Alpha virt. eigenvalues --   29.08153  29.13790  29.23232  49.10909 148.31521
 Alpha virt. eigenvalues --  148.38355 148.70702 752.51598
          Condensed to atoms (all electrons):
              1          2          3          4          5
     1  O    8.225940  -0.220484   0.195909  -0.001774   0.000971
     2  O   -0.220484   8.225500   0.013709   0.200401  -0.000394
     3  H    0.195909   0.013709   0.587053   0.003657  -0.000690
     4  H   -0.001774   0.200401   0.003657   0.587444  -0.004787
     5  Kr   0.000971  -0.000394  -0.000690  -0.004787   0.001028
 Mulliken atomic charges:
              1
     1  O   -0.200562
     2  O   -0.218732
     3  H    0.200362
     4  H    0.215060
     5  Kr   0.003872
 Sum of Mulliken atomic charges =   0.00000
 Mulliken charges with hydrogens summed into heavy atoms:
              1
     1  O   -0.000200
     2  O   -0.003672
     5  Kr   0.003872
 Sum of Mulliken charges with hydrogens summed into heavy atoms =   0.00000
          Condensed to fragments (all electrons):
     1      -0.003872
     2       0.003872
 Electronic spatial extent (au):  <R**2>=            322.7963
 Charge=              0.0000 electrons
 Dipole moment (field-independent basis, Debye):
    X=             -0.7766    Y=             -0.1223    Z=              1.3982  Tot=              1.6041
 Quadrupole moment (field-independent basis, Debye-Ang):
   XX=            -13.3568   YY=            -10.4910   ZZ=            -11.9358
   XY=             -3.4073   XZ=              3.5897   YZ=             -1.5480
 Traceless Quadrupole moment (field-independent basis, Debye-Ang):
   XX=             -1.4289   YY=              1.4368   ZZ=             -0.0079
   XY=             -3.4073   XZ=              3.5897   YZ=             -1.5480
 Octapole moment (field-independent basis, Debye-Ang**2):
  XXX=            -71.9492  YYY=             -1.4346  ZZZ=              1.1902  XYY=            -21.8139
  XXY=            -11.8830  XXZ=              9.4425  XZZ=            -23.2603  YZZ=             -1.6153
  YYZ=              1.9810  XYZ=             -4.0985
 Hexadecapole moment (field-independent basis, Debye-Ang**3):
 XXXX=           -291.0749 YYYY=            -45.4758 ZZZZ=            -11.9421 XXXY=            -31.5909
 XXXZ=             24.7718 YYYX=             -5.0293 YYYZ=             -2.1457 ZZZX=              2.6545
 ZZZY=             -1.4471 XXYY=            -53.9373 XXZZ=            -49.2975 YYZZ=            -10.4277
 XXYZ=            -10.7825 YYXZ=              4.7344 ZZXY=             -3.0530
 N-N= 3.661233902771D+01 E-N=-4.315048472944D+02  KE= 1.505015984404D+02
 No NMR shielding tensors so no spin-rotation constants.
 Leave Link  601 at Tue May 12 14:02:13 2020, MaxMem= 1073741824 cpu:       0.9
 (Enter /home/matheus/.gaussian/g09/l122.exe)
 Counterpoise: doing DCBS calculation for fragment   2 NewBq=T
 Leave Link  122 at Tue May 12 14:02:13 2020, MaxMem= 1073741824 cpu:       0.0
 (Enter /home/matheus/.gaussian/g09/l301.exe)
 Basis read from rwf:  (5D, 7F)
 No pseudopotential information found on rwf file.
 There are   197 symmetry adapted basis functions of A   symmetry.
 Integral buffers will be    131072 words long.
 Raffenetti 2 integral format.
 Two-electron integral symmetry is turned on.
   197 basis functions,   415 primitive gaussians,   229 cartesian basis functions
    18 alpha electrons       18 beta electrons
       nuclear repulsion energy         0.0000000000 Hartrees.
 IExCor=32609 DFT=T Ex+Corr=LC-wPBE ExCW=0 ScaHFX=  1.000000
 ScaDFX=  1.000000  0.000000  1.000000  1.000000 ScalE2=  1.000000  1.000000
 IRadAn=      5 IRanWt=     -1 IRanGd=            0 ICorTp=0
  HFx wShort=  0.000000 wLong=  0.400000 cFull=  0.000000 cShort=  0.000000 cLong=  1.000000
  DFx wShort=  0.000000 wLong=  0.400000 cFull=  0.000000 cShort=  0.000000 cLong=  1.000000
 NAtoms=    5 NActive=    5 NUniq=    5 SFac= 1.00D+00 NAtFMM=   60 NAOKFM=F Big=F
 No density basis found on file   718.
 Leave Link  301 at Tue May 12 14:02:13 2020, MaxMem= 1073741824 cpu:       0.2
 (Enter /home/matheus/.gaussian/g09/l302.exe)
 NPDir=0 NMtPBC=     1 NCelOv=     1 NCel=       1 NClECP=     1 NCelD=      1
         NCelK=      1 NCelE2=     1 NClLst=     1 CellRange=     0.0.
 One-electron integrals computed using PRISM.
 NBasis=   197 RedAO= T  NBF=   197
 NBsUse=   197 1.00D-06 NBFU=   197
 Precomputing XC quadrature grid using
 IXCGrd= 2 IRadAn=           5 IRanWt=          -1 IRanGd=           0 AccXCQ= 0.00D+00.
 NRdTot=     427 NPtTot=      123512 NUsed=      126579 NTot=      126611
 NSgBfM=   229   229   229   229   229 NAtAll=     5     5.
 Leave Link  302 at Tue May 12 14:02:13 2020, MaxMem= 1073741824 cpu:       1.0
 (Enter /home/matheus/.gaussian/g09/l303.exe)
 DipDrv:  MaxL=1.
 Leave Link  303 at Tue May 12 14:02:13 2020, MaxMem= 1073741824 cpu:       0.2
 (Enter /home/matheus/.gaussian/g09/l401.exe)
 Harris functional with IExCor=32609 diagonalized for initial guess.
 ExpMin= 2.53D-02 ExpMax= 1.17D+07 ExpMxC= 1.33D+04 IAcc=3 IRadAn=         5 AccDes= 0.00D+00
 HarFok:  IExCor=32609 AccDes= 0.00D+00 IRadAn=         5 IDoV= 1
 ScaDFX=  1.000000  1.000000  1.000000  1.000000
 FoFCou: FMM=F IPFlag=           0 FMFlag=      100000 FMFlg1=           0
         NFxFlg=           0 DoJE=T BraDBF=F KetDBF=T FulRan=T
         Omega=  0.000000  0.000000  1.000000  0.000000  0.000000 ICntrl=     500 IOpCl=  0
         NMat0=    1 NMatS0=    1 NMatT0=    0 NMatD0=    1 NMtDS0=    0 NMtDT0=    0
         I1Cent=           4 NGrid=           0.
 Petite list used in FoFCou.
 Harris En= -2753.24648428556    
 Initial guess orbital symmetries:
       Occupied  (A) (A) (A) (A) (A) (A) (A) (A) (A) (A) (A) (A)
                 (A) (A) (A) (A) (A) (A)
       Virtual   (A) (A) (A) (A) (A) (A) (A) (A) (A) (A) (A) (A)
                 (A) (A) (A) (A) (A) (A) (A) (A) (A) (A) (A) (A)
                 (A) (A) (A) (A) (A) (A) (A) (A) (A) (A) (A) (A)
                 (A) (A) (A) (A) (A) (A) (A) (A) (A) (A) (A) (A)
                 (A) (A) (A) (A) (A) (A) (A) (A) (A) (A) (A) (A)
                 (A) (A) (A) (A) (A) (A) (A) (A) (A) (A) (A) (A)
                 (A) (A) (A) (A) (A) (A) (A) (A) (A) (A) (A) (A)
                 (A) (A) (A) (A) (A) (A) (A) (A) (A) (A) (A) (A)
                 (A) (A) (A) (A) (A) (A) (A) (A) (A) (A) (A) (A)
                 (A) (A) (A) (A) (A) (A) (A) (A) (A) (A) (A) (A)
                 (A) (A) (A) (A) (A) (A) (A) (A) (A) (A) (A) (A)
                 (A) (A) (A) (A) (A) (A) (A) (A) (A) (A) (A) (A)
                 (A) (A) (A) (A) (A) (A) (A) (A) (A) (A) (A) (A)
                 (A) (A) (A) (A) (A) (A) (A) (A) (A) (A) (A) (A)
                 (A) (A) (A) (A) (A) (A) (A) (A) (A) (A) (A)
 The electronic state of the initial guess is 1-A.
 Leave Link  401 at Tue May 12 14:02:14 2020, MaxMem= 1073741824 cpu:       3.7
 (Enter /home/matheus/.gaussian/g09/l502.exe)
 Closed shell SCF:
 Requested convergence on RMS density matrix=1.00D-08 within 128 cycles.
 Requested convergence on MAX density matrix=1.00D-06.
 Requested convergence on             energy=1.00D-06.
 No special actions if energy rises.
 Using DIIS extrapolation, IDIIS=  1040.
 Integral symmetry usage will be decided dynamically.
       126521 words used for storage of precomputed grid.
 IEnd=      305468 IEndB=      305468 NGot=  1073741824 MDV=  1073505667
 LenX=  1073505667 LenY=  1073452785
 Fock matrices will be formed incrementally for  20 cycles.

 Cycle   1  Pass 1  IDiag  1:
 FoFJK:  IHMeth= 1 ICntrl=     0 DoSepK=T KAlg= 1 I1Cent= 0 FoldK=F
 FoFCou: FMM=F IPFlag=           0 FMFlag=      100000 FMFlg1=           0
         NFxFlg=           0 DoJE=T BraDBF=F KetDBF=F FulRan=T
         Omega=  0.000000  0.000000  1.000000  0.000000  0.000000 ICntrl=     500 IOpCl=  0
         NMat0=    1 NMatS0=    1 NMatT0=    0 NMatD0=    1 NMtDS0=    0 NMtDT0=    0
         I1Cent=           0 NGrid=           0.
 Symmetry not used in FoFCou.
 E= -2753.38972276705    
 DIIS: error= 2.44D-02 at cycle   1 NSaved=   1.
 NSaved= 1 IEnMin= 1 EnMin= -2753.38972276705     IErMin= 1 ErrMin= 2.44D-02
 ErrMax= 2.44D-02 EMaxC= 1.00D-01 BMatC= 2.22D-01 BMatP= 2.22D-01
 IDIUse=3 WtCom= 7.56D-01 WtEn= 2.44D-01
 Coeff-Com:  0.100D+01
 Coeff-En:   0.100D+01
 Coeff:      0.100D+01
 Gap=     0.610 Goal=   None    Shift=    0.000
 GapD=    0.610 DampG=2.000 DampE=0.500 DampFc=1.0000 IDamp=-1.
 RMSDP=2.11D-03 MaxDP=1.47D-01              OVMax= 5.10D-02

 Cycle   2  Pass 1  IDiag  1:
 RMSU=  1.45D-03    CP:  1.02D+00
 FoFJK:  IHMeth= 1 ICntrl=     0 DoSepK=T KAlg= 1 I1Cent= 0 FoldK=F
 E= -2753.42036226775     Delta-E=       -0.030639500704 Rises=F Damp=F
 DIIS: error= 1.00D-02 at cycle   2 NSaved=   2.
 NSaved= 2 IEnMin= 2 EnMin= -2753.42036226775     IErMin= 2 ErrMin= 1.00D-02
 ErrMax= 1.00D-02 EMaxC= 1.00D-01 BMatC= 5.51D-02 BMatP= 2.22D-01
 IDIUse=3 WtCom= 9.00D-01 WtEn= 1.00D-01
 Coeff-Com:  0.328D+00 0.672D+00
 Coeff-En:   0.130D+00 0.870D+00
 Coeff:      0.308D+00 0.692D+00
 Gap=     0.524 Goal=   None    Shift=    0.000
 RMSDP=7.95D-04 MaxDP=5.13D-02 DE=-3.06D-02 OVMax= 2.08D-02

 Cycle   3  Pass 1  IDiag  1:
 RMSU=  1.65D-04    CP:  1.01D+00  6.42D-01
 FoFJK:  IHMeth= 1 ICntrl=     0 DoSepK=T KAlg= 1 I1Cent= 0 FoldK=F
 E= -2753.43558717213     Delta-E=       -0.015224904379 Rises=F Damp=F
 DIIS: error= 1.07D-03 at cycle   3 NSaved=   3.
 NSaved= 3 IEnMin= 3 EnMin= -2753.43558717213     IErMin= 3 ErrMin= 1.07D-03
 ErrMax= 1.07D-03 EMaxC= 1.00D-01 BMatC= 5.41D-04 BMatP= 5.51D-02
 IDIUse=3 WtCom= 9.89D-01 WtEn= 1.07D-02
 Coeff-Com: -0.230D-03 0.892D-01 0.911D+00
 Coeff-En:   0.000D+00 0.000D+00 0.100D+01
 Coeff:     -0.227D-03 0.883D-01 0.912D+00
 Gap=     0.531 Goal=   None    Shift=    0.000
 RMSDP=7.15D-05 MaxDP=4.16D-03 DE=-1.52D-02 OVMax= 2.57D-03

 Cycle   4  Pass 1  IDiag  1:
 RMSU=  1.80D-05    CP:  1.01D+00  6.74D-01  9.99D-01
 FoFJK:  IHMeth= 1 ICntrl=     0 DoSepK=T KAlg= 1 I1Cent= 0 FoldK=F
 E= -2753.43575190213     Delta-E=       -0.000164730001 Rises=F Damp=F
 DIIS: error= 3.19D-05 at cycle   4 NSaved=   4.
 NSaved= 4 IEnMin= 4 EnMin= -2753.43575190213     IErMin= 4 ErrMin= 3.19D-05
 ErrMax= 3.19D-05 EMaxC= 1.00D-01 BMatC= 4.14D-07 BMatP= 5.41D-04
 IDIUse=1 WtCom= 1.00D+00 WtEn= 0.00D+00
 Coeff-Com: -0.125D-02-0.154D-01-0.113D+00 0.113D+01
 Coeff:     -0.125D-02-0.154D-01-0.113D+00 0.113D+01
 Gap=     0.531 Goal=   None    Shift=    0.000
 RMSDP=6.31D-06 MaxDP=2.45D-04 DE=-1.65D-04 OVMax= 3.89D-04

 Cycle   5  Pass 1  IDiag  1:
 RMSU=  2.20D-06    CP:  1.01D+00  6.73D-01  1.02D+00  1.12D+00
 FoFJK:  IHMeth= 1 ICntrl=     0 DoSepK=T KAlg= 1 I1Cent= 0 FoldK=F
 E= -2753.43575241927     Delta-E=       -0.000000517139 Rises=F Damp=F
 DIIS: error= 6.39D-06 at cycle   5 NSaved=   5.
 NSaved= 5 IEnMin= 5 EnMin= -2753.43575241927     IErMin= 5 ErrMin= 6.39D-06
 ErrMax= 6.39D-06 EMaxC= 1.00D-01 BMatC= 1.16D-08 BMatP= 4.14D-07
 IDIUse=1 WtCom= 1.00D+00 WtEn= 0.00D+00
 Coeff-Com:  0.276D-04-0.221D-02-0.246D-01 0.928D-01 0.934D+00
 Coeff:      0.276D-04-0.221D-02-0.246D-01 0.928D-01 0.934D+00
 Gap=     0.531 Goal=   None    Shift=    0.000
 RMSDP=7.19D-07 MaxDP=3.12D-05 DE=-5.17D-07 OVMax= 3.06D-05

 Cycle   6  Pass 1  IDiag  1:
 RMSU=  2.16D-07    CP:  1.01D+00  6.73D-01  1.02D+00  1.15D+00  1.03D+00
 FoFJK:  IHMeth= 1 ICntrl=     0 DoSepK=T KAlg= 1 I1Cent= 0 FoldK=F
 E= -2753.43575242890     Delta-E=       -0.000000009628 Rises=F Damp=F
 DIIS: error= 3.34D-07 at cycle   6 NSaved=   6.
 NSaved= 6 IEnMin= 6 EnMin= -2753.43575242890     IErMin= 6 ErrMin= 3.34D-07
 ErrMax= 3.34D-07 EMaxC= 1.00D-01 BMatC= 4.12D-11 BMatP= 1.16D-08
 IDIUse=1 WtCom= 1.00D+00 WtEn= 0.00D+00
 Coeff-Com:  0.250D-05 0.142D-03 0.163D-02-0.112D-01-0.805D-01 0.109D+01
 Coeff:      0.250D-05 0.142D-03 0.163D-02-0.112D-01-0.805D-01 0.109D+01
 Gap=     0.531 Goal=   None    Shift=    0.000
 RMSDP=9.85D-08 MaxDP=3.59D-06 DE=-9.63D-09 OVMax= 4.47D-06

 Cycle   7  Pass 1  IDiag  1:
 RMSU=  1.61D-08    CP:  1.01D+00  6.73D-01  1.02D+00  1.15D+00  1.05D+00
                    CP:  1.22D+00
 FoFJK:  IHMeth= 1 ICntrl=     0 DoSepK=T KAlg= 1 I1Cent= 0 FoldK=F
 E= -2753.43575242899     Delta-E=       -0.000000000089 Rises=F Damp=F
 DIIS: error= 5.43D-08 at cycle   7 NSaved=   7.
 NSaved= 7 IEnMin= 7 EnMin= -2753.43575242899     IErMin= 7 ErrMin= 5.43D-08
 ErrMax= 5.43D-08 EMaxC= 1.00D-01 BMatC= 1.40D-12 BMatP= 4.12D-11
 IDIUse=1 WtCom= 1.00D+00 WtEn= 0.00D+00
 Coeff-Com: -0.228D-06 0.240D-04 0.285D-03-0.144D-02-0.162D-01 0.123D+00
 Coeff-Com:  0.894D+00
 Coeff:     -0.228D-06 0.240D-04 0.285D-03-0.144D-02-0.162D-01 0.123D+00
 Coeff:      0.894D+00
 Gap=     0.531 Goal=   None    Shift=    0.000
 RMSDP=1.09D-08 MaxDP=4.01D-07 DE=-8.91D-11 OVMax= 6.29D-07

 Cycle   8  Pass 1  IDiag  1:
 RMSU=  3.72D-09    CP:  1.01D+00  6.73D-01  1.02D+00  1.15D+00  1.05D+00
                    CP:  1.25D+00  1.11D+00
 FoFJK:  IHMeth= 1 ICntrl=     0 DoSepK=T KAlg= 1 I1Cent= 0 FoldK=F
 E= -2753.43575242899     Delta-E=        0.000000000003 Rises=F Damp=F
 DIIS: error= 1.57D-08 at cycle   8 NSaved=   8.
 NSaved= 8 IEnMin= 7 EnMin= -2753.43575242899     IErMin= 8 ErrMin= 1.57D-08
 ErrMax= 1.57D-08 EMaxC= 1.00D-01 BMatC= 1.11D-13 BMatP= 1.40D-12
 IDIUse=1 WtCom= 1.00D+00 WtEn= 0.00D+00
 Coeff-Com: -0.283D-06-0.114D-04-0.130D-03 0.970D-03 0.518D-02-0.855D-01
 Coeff-Com:  0.696D-01 0.101D+01
 Coeff:     -0.283D-06-0.114D-04-0.130D-03 0.970D-03 0.518D-02-0.855D-01
 Coeff:      0.696D-01 0.101D+01
 Gap=     0.531 Goal=   None    Shift=    0.000
 RMSDP=3.86D-09 MaxDP=1.57D-07 DE= 2.73D-12 OVMax= 2.39D-07

 SCF Done:  E(RLC-wPBE) =  -2753.43575243     A.U. after    8 cycles
             Convg  =    0.3860D-08             -V/T =  2.0014
 KE= 2.749488133978D+03 PE=-6.578896588070D+03 EE= 1.075972701664D+03
 Leave Link  502 at Tue May 12 14:02:37 2020, MaxMem= 1073741824 cpu:     184.3
 (Enter /home/matheus/.gaussian/g09/l601.exe)
 Copying SCF densities to generalized density rwf, IOpCl= 0 IROHF=0.

 **********************************************************************

            Population analysis using the SCF density.

 **********************************************************************

 Orbital symmetries:
       Occupied  (A) (A) (A) (A) (A) (A) (A) (A) (A) (A) (A) (A)
                 (A) (A) (A) (A) (A) (A)
       Virtual   (A) (A) (A) (A) (A) (A) (A) (A) (A) (A) (A) (A)
                 (A) (A) (A) (A) (A) (A) (A) (A) (A) (A) (A) (A)
                 (A) (A) (A) (A) (A) (A) (A) (A) (A) (A) (A) (A)
                 (A) (A) (A) (A) (A) (A) (A) (A) (A) (A) (A) (A)
                 (A) (A) (A) (A) (A) (A) (A) (A) (A) (A) (A) (A)
                 (A) (A) (A) (A) (A) (A) (A) (A) (A) (A) (A) (A)
                 (A) (A) (A) (A) (A) (A) (A) (A) (A) (A) (A) (A)
                 (A) (A) (A) (A) (A) (A) (A) (A) (A) (A) (A) (A)
                 (A) (A) (A) (A) (A) (A) (A) (A) (A) (A) (A) (A)
                 (A) (A) (A) (A) (A) (A) (A) (A) (A) (A) (A) (A)
                 (A) (A) (A) (A) (A) (A) (A) (A) (A) (A) (A) (A)
                 (A) (A) (A) (A) (A) (A) (A) (A) (A) (A) (A) (A)
                 (A) (A) (A) (A) (A) (A) (A) (A) (A) (A) (A) (A)
                 (A) (A) (A) (A) (A) (A) (A) (A) (A) (A) (A) (A)
                 (A) (A) (A) (A) (A) (A) (A) (A) (A) (A) (A)
 The electronic state is 1-A.
 Alpha  occ. eigenvalues -- -511.10626 -66.65305 -60.31519 -60.31516 -60.31515
 Alpha  occ. eigenvalues --   -9.58573  -7.32996  -7.32994  -7.32994  -3.28540
 Alpha  occ. eigenvalues --   -3.28540  -3.28539  -3.28538  -3.28538  -1.03232
 Alpha  occ. eigenvalues --   -0.50220  -0.50217  -0.50216
 Alpha virt. eigenvalues --    0.02894   0.04879   0.08398   0.09286   0.11375
 Alpha virt. eigenvalues --    0.12155   0.13172   0.13882   0.16383   0.17000
 Alpha virt. eigenvalues --    0.17672   0.19683   0.20858   0.25765   0.27240
 Alpha virt. eigenvalues --    0.27726   0.28384   0.31301   0.33364   0.34747
 Alpha virt. eigenvalues --    0.36085   0.37324   0.38141   0.39201   0.41595
 Alpha virt. eigenvalues --    0.41880   0.43080   0.53912   0.53969   0.58223
 Alpha virt. eigenvalues --    0.58710   0.66281   0.67200   0.70011   0.72107
 Alpha virt. eigenvalues --    0.74795   0.75071   0.76913   0.77237   0.79398
 Alpha virt. eigenvalues --    0.79997   0.80587   0.83513   0.85840   0.86083
 Alpha virt. eigenvalues --    0.87741   0.88486   0.89604   0.91521   0.95198
 Alpha virt. eigenvalues --    0.96757   0.99152   0.99369   1.02159   1.02383
 Alpha virt. eigenvalues --    1.05278   1.06588   1.08404   1.10743   1.11910
 Alpha virt. eigenvalues --    1.15427   1.20221   1.22329   1.23719   1.28692
 Alpha virt. eigenvalues --    1.33304   1.34950   1.39550   1.44089   1.44897
 Alpha virt. eigenvalues --    1.53636   1.58415   1.58998   1.72915   1.78491
 Alpha virt. eigenvalues --    1.78824   1.83640   1.87067   1.96077   2.15401
 Alpha virt. eigenvalues --    2.18935   2.24503   2.27339   2.30429   2.30858
 Alpha virt. eigenvalues --    2.31915   2.32821   2.35958   2.37949   2.41080
 Alpha virt. eigenvalues --    2.44076   2.46647   2.47432   2.49105   2.49624
 Alpha virt. eigenvalues --    2.51741   2.53666   2.54987   2.56346   2.57295
 Alpha virt. eigenvalues --    2.62140   2.62921   2.64154   2.66793   2.69883
 Alpha virt. eigenvalues --    2.72796   2.76510   2.84778   2.86748   2.88541
 Alpha virt. eigenvalues --    2.93240   2.95981   3.03809   3.12936   3.20577
 Alpha virt. eigenvalues --    3.22634   3.26499   3.31479   3.34438   3.49977
 Alpha virt. eigenvalues --    3.61292   3.65895   3.82433   3.87186   4.03671
 Alpha virt. eigenvalues --    4.34689   4.45330   4.52813   4.57276   4.62815
 Alpha virt. eigenvalues --    4.72347   4.87263   4.89332   4.94050   5.00535
 Alpha virt. eigenvalues --    5.16809   5.18203   5.58684   5.65320   5.75237
 Alpha virt. eigenvalues --    5.92920   6.01304   6.18549   6.74158   6.89842
 Alpha virt. eigenvalues --    7.36722   7.40674   7.61387   7.64591   7.72227
 Alpha virt. eigenvalues --    7.88376   7.91916   8.10904   8.17315   8.21510
 Alpha virt. eigenvalues --    8.39495   8.44128   8.60388   8.87195   9.63888
 Alpha virt. eigenvalues --    9.73250   9.83087   9.88925   9.93820  10.01014
 Alpha virt. eigenvalues --   10.15091  10.30152  10.40940  10.96371  11.51409
 Alpha virt. eigenvalues --   11.64985  11.71421  12.04476  12.09955  13.26786
 Alpha virt. eigenvalues --   13.60853  14.53418  62.70320  64.64237
          Condensed to atoms (all electrons):
              1          2          3          4          5
     1  O    0.001858  -0.001331  -0.001176   0.000940  -0.009031
     2  O   -0.001331   0.004071   0.000334  -0.003031   0.001497
     3  H   -0.001176   0.000334   0.000970  -0.000220   0.002566
     4  H    0.000940  -0.003031  -0.000220   0.003674  -0.029038
     5  Kr  -0.009031   0.001497   0.002566  -0.029038  36.066407
 Mulliken atomic charges:
              1
     1  O    0.008740
     2  O   -0.001541
     3  H   -0.002473
     4  H    0.027675
     5  Kr  -0.032401
 Sum of Mulliken atomic charges =   0.00000
 Mulliken charges with hydrogens summed into heavy atoms:
              1
     1  O    0.006267
     2  O    0.026134
     5  Kr  -0.032401
 Sum of Mulliken charges with hydrogens summed into heavy atoms =   0.00000
          Condensed to fragments (all electrons):
     1       0.032401
     2      -0.032401
 Electronic spatial extent (au):  <R**2>=            165.7127
 Charge=              0.0000 electrons
 Dipole moment (field-independent basis, Debye):
    X=              0.0006    Y=              0.0003    Z=              0.0001  Tot=              0.0007
 Quadrupole moment (field-independent basis, Debye-Ang):
   XX=            -17.6148   YY=            -17.6228   ZZ=            -17.6280
   XY=              0.0036   XZ=             -0.0001   YZ=              0.0003
 Traceless Quadrupole moment (field-independent basis, Debye-Ang):
   XX=              0.0071   YY=             -0.0010   ZZ=             -0.0061
   XY=              0.0036   XZ=             -0.0001   YZ=              0.0003
 Octapole moment (field-independent basis, Debye-Ang**2):
  XXX=             52.3929  YYY=              0.7838  ZZZ=             -0.1294  XYY=             17.4735
  XXY=              0.2551  XXZ=             -0.0435  XZZ=             17.4760  YZZ=              0.2622
  YYZ=             -0.0429  XYZ=             -0.0001
 Hexadecapole moment (field-independent basis, Debye-Ang**3):
 XXXX=           -122.2514 YYYY=            -18.3946 ZZZZ=            -18.3886 XXXY=             -0.7655
 XXXZ=              0.1289 YYYX=             -0.7673 YYYZ=              0.0015 ZZZX=              0.1291
 ZZZY=              0.0029 XXYY=            -23.4496 XXZZ=            -23.4487 YYZZ=             -6.1295
 XXYZ=              0.0012 YYXZ=              0.0427 ZZXY=             -0.2542
 N-N= 0.000000000000D+00 E-N=-6.578896589795D+03  KE= 2.749488133978D+03
 No NMR shielding tensors so no spin-rotation constants.
 Leave Link  601 at Tue May 12 14:02:37 2020, MaxMem= 1073741824 cpu:       0.8
 (Enter /home/matheus/.gaussian/g09/l122.exe)
 Counterpoise: doing MCBS calculation for fragment   1
 Leave Link  122 at Tue May 12 14:02:37 2020, MaxMem= 1073741824 cpu:       0.0
 (Enter /home/matheus/.gaussian/g09/l301.exe)
 Basis read from rwf:  (5D, 7F)
 No pseudopotential information found on rwf file.
 There are   138 symmetry adapted basis functions of A   symmetry.
 Integral buffers will be    131072 words long.
 Raffenetti 2 integral format.
 Two-electron integral symmetry is turned on.
   138 basis functions,   198 primitive gaussians,   160 cartesian basis functions
     9 alpha electrons        9 beta electrons
       nuclear repulsion energy        36.6123390277 Hartrees.
 IExCor=32609 DFT=T Ex+Corr=LC-wPBE ExCW=0 ScaHFX=  1.000000
 ScaDFX=  1.000000  0.000000  1.000000  1.000000 ScalE2=  1.000000  1.000000
 IRadAn=      5 IRanWt=     -1 IRanGd=            0 ICorTp=0
  HFx wShort=  0.000000 wLong=  0.400000 cFull=  0.000000 cShort=  0.000000 cLong=  1.000000
  DFx wShort=  0.000000 wLong=  0.400000 cFull=  0.000000 cShort=  0.000000 cLong=  1.000000
 NAtoms=    5 NActive=    4 NUniq=    4 SFac= 1.00D+00 NAtFMM=   60 NAOKFM=F Big=F
 No density basis found on file   718.
 Leave Link  301 at Tue May 12 14:02:37 2020, MaxMem= 1073741824 cpu:       0.2
 (Enter /home/matheus/.gaussian/g09/l302.exe)
 NPDir=0 NMtPBC=     1 NCelOv=     1 NCel=       1 NClECP=     1 NCelD=      1
         NCelK=      1 NCelE2=     1 NClLst=     1 CellRange=     0.0.
 One-electron integrals computed using PRISM.
 NBasis=   138 RedAO= T  NBF=   138
 NBsUse=   138 1.00D-06 NBFU=   138
 Precomputing XC quadrature grid using
 IXCGrd= 2 IRadAn=           5 IRanWt=          -1 IRanGd=           0 AccXCQ= 0.00D+00.
 NRdTot=     344 NPtTot=       92556 NUsed=       95038 NTot=       95070
 NSgBfM=   160   160   160   160   160 NAtAll=     4     4.
 Leave Link  302 at Tue May 12 14:02:37 2020, MaxMem= 1073741824 cpu:       0.8
 (Enter /home/matheus/.gaussian/g09/l303.exe)
 DipDrv:  MaxL=1.
 Leave Link  303 at Tue May 12 14:02:37 2020, MaxMem= 1073741824 cpu:       0.1
 (Enter /home/matheus/.gaussian/g09/l401.exe)
 Harris functional with IExCor=32609 diagonalized for initial guess.
 ExpMin= 2.53D-02 ExpMax= 1.53D+04 ExpMxC= 5.22D+02 IAcc=3 IRadAn=         5 AccDes= 0.00D+00
 HarFok:  IExCor=32609 AccDes= 0.00D+00 IRadAn=         5 IDoV= 1
 ScaDFX=  1.000000  1.000000  1.000000  1.000000
 FoFCou: FMM=F IPFlag=           0 FMFlag=      100000 FMFlg1=           0
         NFxFlg=           0 DoJE=T BraDBF=F KetDBF=T FulRan=T
         Omega=  0.000000  0.000000  1.000000  0.000000  0.000000 ICntrl=     500 IOpCl=  0
         NMat0=    1 NMatS0=    1 NMatT0=    0 NMatD0=    1 NMtDS0=    0 NMtDT0=    0
         I1Cent=           4 NGrid=           0.
 Petite list used in FoFCou.
 Harris En= -151.501912621093    
 Initial guess orbital symmetries:
       Occupied  (A) (A) (A) (A) (A) (A) (A) (A) (A)
       Virtual   (A) (A) (A) (A) (A) (A) (A) (A) (A) (A) (A) (A)
                 (A) (A) (A) (A) (A) (A) (A) (A) (A) (A) (A) (A)
                 (A) (A) (A) (A) (A) (A) (A) (A) (A) (A) (A) (A)
                 (A) (A) (A) (A) (A) (A) (A) (A) (A) (A) (A) (A)
                 (A) (A) (A) (A) (A) (A) (A) (A) (A) (A) (A) (A)
                 (A) (A) (A) (A) (A) (A) (A) (A) (A) (A) (A) (A)
                 (A) (A) (A) (A) (A) (A) (A) (A) (A) (A) (A) (A)
                 (A) (A) (A) (A) (A) (A) (A) (A) (A) (A) (A) (A)
                 (A) (A) (A) (A) (A) (A) (A) (A) (A) (A) (A) (A)
                 (A) (A) (A) (A) (A) (A) (A) (A) (A) (A) (A) (A)
                 (A) (A) (A) (A) (A) (A) (A) (A) (A)
 The electronic state of the initial guess is 1-A.
 Leave Link  401 at Tue May 12 14:02:37 2020, MaxMem= 1073741824 cpu:       2.2
 (Enter /home/matheus/.gaussian/g09/l502.exe)
 Closed shell SCF:
 Requested convergence on RMS density matrix=1.00D-08 within 128 cycles.
 Requested convergence on MAX density matrix=1.00D-06.
 Requested convergence on             energy=1.00D-06.
 No special actions if energy rises.
 Using DIIS extrapolation, IDIIS=  1040.
 Integral symmetry usage will be decided dynamically.
        94980 words used for storage of precomputed grid.
 IEnd=      192360 IEndB=      192360 NGot=  1073741824 MDV=  1073591865
 LenX=  1073591865 LenY=  1073565824
 Fock matrices will be formed incrementally for  20 cycles.

 Cycle   1  Pass 1  IDiag  1:
 FoFJK:  IHMeth= 1 ICntrl=     0 DoSepK=T KAlg= 1 I1Cent= 0 FoldK=F
 FoFCou: FMM=F IPFlag=           0 FMFlag=      100000 FMFlg1=           0
         NFxFlg=           0 DoJE=T BraDBF=F KetDBF=F FulRan=T
         Omega=  0.000000  0.000000  1.000000  0.000000  0.000000 ICntrl=     500 IOpCl=  0
         NMat0=    1 NMatS0=    1 NMatT0=    0 NMatD0=    1 NMtDS0=    0 NMtDT0=    0
         I1Cent=           0 NGrid=           0.
 Symmetry not used in FoFCou.
 E= -151.498845847598    
 DIIS: error= 1.50D-02 at cycle   1 NSaved=   1.
 NSaved= 1 IEnMin= 1 EnMin= -151.498845847598     IErMin= 1 ErrMin= 1.50D-02
 ErrMax= 1.50D-02 EMaxC= 1.00D-01 BMatC= 3.82D-02 BMatP= 3.82D-02
 IDIUse=3 WtCom= 8.50D-01 WtEn= 1.50D-01
 Coeff-Com:  0.100D+01
 Coeff-En:   0.100D+01
 Coeff:      0.100D+01
 Gap=     0.499 Goal=   None    Shift=    0.000
 GapD=    0.499 DampG=2.000 DampE=0.500 DampFc=1.0000 IDamp=-1.
 RMSDP=1.16D-03 MaxDP=2.37D-02              OVMax= 5.52D-02

 Cycle   2  Pass 1  IDiag  1:
 RMSU=  8.13D-04    CP:  9.88D-01
 FoFJK:  IHMeth= 1 ICntrl=     0 DoSepK=T KAlg= 1 I1Cent= 0 FoldK=F
 E= -151.512346044714     Delta-E=       -0.013500197116 Rises=F Damp=F
 DIIS: error= 1.06D-02 at cycle   2 NSaved=   2.
 NSaved= 2 IEnMin= 2 EnMin= -151.512346044714     IErMin= 2 ErrMin= 1.06D-02
 ErrMax= 1.06D-02 EMaxC= 1.00D-01 BMatC= 2.10D-02 BMatP= 3.82D-02
 IDIUse=3 WtCom= 8.94D-01 WtEn= 1.06D-01
 Coeff-Com:  0.418D+00 0.582D+00
 Coeff-En:   0.250D+00 0.750D+00
 Coeff:      0.400D+00 0.600D+00
 Gap=     0.444 Goal=   None    Shift=    0.000
 RMSDP=6.24D-04 MaxDP=2.28D-02 DE=-1.35D-02 OVMax= 2.54D-02

 Cycle   3  Pass 1  IDiag  1:
 RMSU=  3.44D-04    CP:  9.84D-01  6.63D-01
 FoFJK:  IHMeth= 1 ICntrl=     0 DoSepK=T KAlg= 1 I1Cent= 0 FoldK=F
 E= -151.524411280236     Delta-E=       -0.012065235522 Rises=F Damp=F
 DIIS: error= 2.28D-03 at cycle   3 NSaved=   3.
 NSaved= 3 IEnMin= 3 EnMin= -151.524411280236     IErMin= 3 ErrMin= 2.28D-03
 ErrMax= 2.28D-03 EMaxC= 1.00D-01 BMatC= 4.07D-04 BMatP= 2.10D-02
 IDIUse=3 WtCom= 9.77D-01 WtEn= 2.28D-02
 Coeff-Com:  0.635D-01 0.153D+00 0.783D+00
 Coeff-En:   0.000D+00 0.000D+00 0.100D+01
 Coeff:      0.621D-01 0.150D+00 0.788D+00
 Gap=     0.437 Goal=   None    Shift=    0.000
 RMSDP=8.44D-05 MaxDP=2.25D-03 DE=-1.21D-02 OVMax= 3.97D-03

 Cycle   4  Pass 1  IDiag  1:
 RMSU=  4.15D-05    CP:  9.82D-01  7.10D-01  1.02D+00
 FoFJK:  IHMeth= 1 ICntrl=     0 DoSepK=T KAlg= 1 I1Cent= 0 FoldK=F
 E= -151.524661716884     Delta-E=       -0.000250436648 Rises=F Damp=F
 DIIS: error= 3.65D-04 at cycle   4 NSaved=   4.
 NSaved= 4 IEnMin= 4 EnMin= -151.524661716884     IErMin= 4 ErrMin= 3.65D-04
 ErrMax= 3.65D-04 EMaxC= 1.00D-01 BMatC= 1.44D-05 BMatP= 4.07D-04
 IDIUse=3 WtCom= 9.96D-01 WtEn= 3.65D-03
 Coeff-Com: -0.449D-02-0.849D-02 0.122D+00 0.891D+00
 Coeff-En:   0.000D+00 0.000D+00 0.000D+00 0.100D+01
 Coeff:     -0.448D-02-0.846D-02 0.121D+00 0.891D+00
 Gap=     0.439 Goal=   None    Shift=    0.000
 RMSDP=2.00D-05 MaxDP=9.22D-04 DE=-2.50D-04 OVMax= 7.73D-04

 Cycle   5  Pass 1  IDiag  1:
 RMSU=  7.82D-06    CP:  9.82D-01  7.09D-01  1.05D+00  1.02D+00
 FoFJK:  IHMeth= 1 ICntrl=     0 DoSepK=T KAlg= 1 I1Cent= 0 FoldK=F
 E= -151.524671491718     Delta-E=       -0.000009774834 Rises=F Damp=F
 DIIS: error= 3.87D-05 at cycle   5 NSaved=   5.
 NSaved= 5 IEnMin= 5 EnMin= -151.524671491718     IErMin= 5 ErrMin= 3.87D-05
 ErrMax= 3.87D-05 EMaxC= 1.00D-01 BMatC= 1.22D-07 BMatP= 1.44D-05
 IDIUse=1 WtCom= 1.00D+00 WtEn= 0.00D+00
 Coeff-Com: -0.975D-03-0.284D-02-0.292D-01-0.789D-01 0.111D+01
 Coeff:     -0.975D-03-0.284D-02-0.292D-01-0.789D-01 0.111D+01
 Gap=     0.440 Goal=   None    Shift=    0.000
 RMSDP=4.65D-06 MaxDP=9.62D-05 DE=-9.77D-06 OVMax= 2.29D-04

 Cycle   6  Pass 1  IDiag  1:
 RMSU=  1.48D-06    CP:  9.82D-01  7.11D-01  1.05D+00  1.06D+00  1.31D+00
 FoFJK:  IHMeth= 1 ICntrl=     0 DoSepK=T KAlg= 1 I1Cent= 0 FoldK=F
 E= -151.524671739158     Delta-E=       -0.000000247440 Rises=F Damp=F
 DIIS: error= 8.72D-06 at cycle   6 NSaved=   6.
 NSaved= 6 IEnMin= 6 EnMin= -151.524671739158     IErMin= 6 ErrMin= 8.72D-06
 ErrMax= 8.72D-06 EMaxC= 1.00D-01 BMatC= 5.25D-09 BMatP= 1.22D-07
 IDIUse=1 WtCom= 1.00D+00 WtEn= 0.00D+00
 Coeff-Com:  0.152D-03 0.391D-03-0.137D-02-0.168D-01-0.427D-01 0.106D+01
 Coeff:      0.152D-03 0.391D-03-0.137D-02-0.168D-01-0.427D-01 0.106D+01
 Gap=     0.440 Goal=   None    Shift=    0.000
 RMSDP=9.15D-07 MaxDP=1.53D-05 DE=-2.47D-07 OVMax= 6.94D-05

 Cycle   7  Pass 1  IDiag  1:
 RMSU=  3.46D-07    CP:  9.82D-01  7.11D-01  1.05D+00  1.06D+00  1.35D+00
                    CP:  1.22D+00
 FoFJK:  IHMeth= 1 ICntrl=     0 DoSepK=T KAlg= 1 I1Cent= 0 FoldK=F
 E= -151.524671754884     Delta-E=       -0.000000015726 Rises=F Damp=F
 DIIS: error= 2.17D-06 at cycle   7 NSaved=   7.
[...]
 Coeff:      0.100D+01
 Gap=     0.530 Goal=   None    Shift=    0.000
 RMSDP=1.44D-05 MaxDP=6.83D-04              OVMax= 2.58D-04

 Cycle   2  Pass 1  IDiag  1:
 RMSU=  1.02D-05    CP:  1.00D+00
 FoFJK:  IHMeth= 1 ICntrl=     0 DoSepK=T KAlg= 1 I1Cent= 0 FoldK=F
 E= -2753.43565046929     Delta-E=       -0.000000443376 Rises=F Damp=F
 DIIS: error= 2.76D-06 at cycle   2 NSaved=   2.
 NSaved= 2 IEnMin= 2 EnMin= -2753.43565046929     IErMin= 2 ErrMin= 2.76D-06
 ErrMax= 2.76D-06 EMaxC= 1.00D-01 BMatC= 2.66D-09 BMatP= 4.91D-06
 IDIUse=1 WtCom= 1.00D+00 WtEn= 0.00D+00
 Coeff-Com: -0.646D-02 0.101D+01
 Coeff:     -0.646D-02 0.101D+01
 Gap=     0.530 Goal=   None    Shift=    0.000
 RMSDP=1.44D-06 MaxDP=5.62D-05 DE=-4.43D-07 OVMax= 3.82D-05

 Cycle   3  Pass 1  IDiag  1:
 RMSU=  4.84D-07    CP:  1.00D+00  1.09D+00
 FoFJK:  IHMeth= 1 ICntrl=     0 DoSepK=T KAlg= 1 I1Cent= 0 FoldK=F
 E= -2753.43565047387     Delta-E=       -0.000000004579 Rises=F Damp=F
 DIIS: error= 4.95D-07 at cycle   3 NSaved=   3.
 NSaved= 3 IEnMin= 3 EnMin= -2753.43565047387     IErMin= 3 ErrMin= 4.95D-07
 ErrMax= 4.95D-07 EMaxC= 1.00D-01 BMatC= 7.52D-11 BMatP= 2.66D-09
 IDIUse=1 WtCom= 1.00D+00 WtEn= 0.00D+00
 Coeff-Com:  0.186D-03-0.103D+00 0.110D+01
 Coeff:      0.186D-03-0.103D+00 0.110D+01
 Gap=     0.530 Goal=   None    Shift=    0.000
 RMSDP=1.72D-07 MaxDP=6.17D-06 DE=-4.58D-09 OVMax= 7.56D-06

 Cycle   4  Pass 1  IDiag  1:
 RMSU=  4.79D-08    CP:  1.00D+00  1.10D+00  1.17D+00
 FoFJK:  IHMeth= 1 ICntrl=     0 DoSepK=T KAlg= 1 I1Cent= 0 FoldK=F
 E= -2753.43565047399     Delta-E=       -0.000000000123 Rises=F Damp=F
 DIIS: error= 2.28D-07 at cycle   4 NSaved=   4.
 NSaved= 4 IEnMin= 4 EnMin= -2753.43565047399     IErMin= 4 ErrMin= 2.28D-07
 ErrMax= 2.28D-07 EMaxC= 1.00D-01 BMatC= 1.25D-11 BMatP= 7.52D-11
 IDIUse=1 WtCom= 1.00D+00 WtEn= 0.00D+00
 Coeff-Com:  0.185D-03-0.532D-01 0.337D+00 0.716D+00
 Coeff:      0.185D-03-0.532D-01 0.337D+00 0.716D+00
 Gap=     0.530 Goal=   None    Shift=    0.000
 RMSDP=1.70D-08 MaxDP=6.89D-07 DE=-1.23D-10 OVMax= 8.73D-07

 Cycle   5  Pass 1  IDiag  1:
 RMSU=  9.15D-09    CP:  1.00D+00  1.10D+00  1.18D+00  1.09D+00
 FoFJK:  IHMeth= 1 ICntrl=     0 DoSepK=T KAlg= 1 I1Cent= 0 FoldK=F
 E= -2753.43565047401     Delta-E=       -0.000000000021 Rises=F Damp=F
 DIIS: error= 2.85D-08 at cycle   5 NSaved=   5.
 NSaved= 5 IEnMin= 5 EnMin= -2753.43565047401     IErMin= 5 ErrMin= 2.85D-08
 ErrMax= 2.85D-08 EMaxC= 1.00D-01 BMatC= 1.87D-13 BMatP= 1.25D-11
 IDIUse=1 WtCom= 1.00D+00 WtEn= 0.00D+00
 Coeff-Com:  0.369D-05 0.169D-02-0.296D-01 0.159D-01 0.101D+01
 Coeff:      0.369D-05 0.169D-02-0.296D-01 0.159D-01 0.101D+01
 Gap=     0.530 Goal=   None    Shift=    0.000
 RMSDP=7.38D-09 MaxDP=4.29D-07 DE=-2.09D-11 OVMax= 3.27D-07

 SCF Done:  E(RLC-wPBE) =  -2753.43565047     A.U. after    5 cycles
             Convg  =    0.7384D-08             -V/T =  2.0014
 KE= 2.749528355601D+03 PE=-6.578941270637D+03 EE= 1.075977264562D+03
 Leave Link  502 at Tue May 12 14:24:50 2020, MaxMem= 1073741824 cpu:      88.0
 (Enter /home/matheus/.gaussian/g09/l122.exe)
 Restoring MOs from calculation   4 to rwf.
 Counterpoise: doing MCBS calculation for fragment   1
 Leave Link  122 at Tue May 12 14:24:50 2020, MaxMem= 1073741824 cpu:       0.0
 (Enter /home/matheus/.gaussian/g09/l301.exe)
 Basis read from rwf:  (5D, 7F)
 No pseudopotential information found on rwf file.
 There are   138 symmetry adapted basis functions of A   symmetry.
 Integral buffers will be    131072 words long.
 Raffenetti 2 integral format.
 Two-electron integral symmetry is turned on.
   138 basis functions,   198 primitive gaussians,   160 cartesian basis functions
     9 alpha electrons        9 beta electrons
       nuclear repulsion energy        36.6123390277 Hartrees.
 IExCor=32609 DFT=T Ex+Corr=LC-wPBE ExCW=0 ScaHFX=  1.000000
 ScaDFX=  1.000000  0.000000  1.000000  1.000000 ScalE2=  1.000000  1.000000
 IRadAn=      5 IRanWt=     -1 IRanGd=            0 ICorTp=0
  HFx wShort=  0.000000 wLong=  0.400000 cFull=  0.000000 cShort=  0.000000 cLong=  1.000000
  DFx wShort=  0.000000 wLong=  0.400000 cFull=  0.000000 cShort=  0.000000 cLong=  1.000000
 NAtoms=    5 NActive=    4 NUniq=    4 SFac= 1.00D+00 NAtFMM=   60 NAOKFM=F Big=F
 No density basis found on file   718.
 Leave Link  301 at Tue May 12 14:24:50 2020, MaxMem= 1073741824 cpu:       0.2
 (Enter /home/matheus/.gaussian/g09/l302.exe)
 NPDir=0 NMtPBC=     1 NCelOv=     1 NCel=       1 NClECP=     1 NCelD=      1
         NCelK=      1 NCelE2=     1 NClLst=     1 CellRange=     0.0.
 One-electron integrals computed using PRISM.
 NBasis=   138 RedAO= T  NBF=   138
 NBsUse=   138 1.00D-06 NBFU=   138
 Precomputing XC quadrature grid using
 IXCGrd= 2 IRadAn=           5 IRanWt=          -1 IRanGd=           0 AccXCQ= 0.00D+00.
 NRdTot=     344 NPtTot=       92556 NUsed=       95038 NTot=       95070
 NSgBfM=   160   160   160   160   160 NAtAll=     4     4.
 Leave Link  302 at Tue May 12 14:24:50 2020, MaxMem= 1073741824 cpu:       0.7
 (Enter /home/matheus/.gaussian/g09/l303.exe)
 DipDrv:  MaxL=1.
 Leave Link  303 at Tue May 12 14:24:50 2020, MaxMem= 1073741824 cpu:       0.1
 (Enter /home/matheus/.gaussian/g09/l401.exe)
 Initial guess read from the read-write file.
 Guess basis will be translated and rotated to current coordinates.
 Initial guess orbital symmetries:
       Occupied  (A) (A) (A) (A) (A) (A) (A) (A) (A)
       Virtual   (A) (A) (A) (A) (A) (A) (A) (A) (A) (A) (A) (A)
                 (A) (A) (A) (A) (A) (A) (A) (A) (A) (A) (A) (A)
                 (A) (A) (A) (A) (A) (A) (A) (A) (A) (A) (A) (A)
                 (A) (A) (A) (A) (A) (A) (A) (A) (A) (A) (A) (A)
                 (A) (A) (A) (A) (A) (A) (A) (A) (A) (A) (A) (A)
                 (A) (A) (A) (A) (A) (A) (A) (A) (A) (A) (A) (A)
                 (A) (A) (A) (A) (A) (A) (A) (A) (A) (A) (A) (A)
                 (A) (A) (A) (A) (A) (A) (A) (A) (A) (A) (A) (A)
                 (A) (A) (A) (A) (A) (A) (A) (A) (A) (A) (A) (A)
                 (A) (A) (A) (A) (A) (A) (A) (A) (A) (A) (A) (A)
                 (A) (A) (A) (A) (A) (A) (A) (A) (A)
 The electronic state of the initial guess is 1-A.
 Generating alternative initial guess.
 Harris functional with IExCor=32609 diagonalized for initial guess.
 ExpMin= 2.53D-02 ExpMax= 1.53D+04 ExpMxC= 5.22D+02 IAcc=3 IRadAn=         5 AccDes= 0.00D+00
 HarFok:  IExCor=32609 AccDes= 0.00D+00 IRadAn=         5 IDoV= 1
 ScaDFX=  1.000000  1.000000  1.000000  1.000000
 FoFCou: FMM=F IPFlag=           0 FMFlag=      100000 FMFlg1=           0
         NFxFlg=           0 DoJE=T BraDBF=F KetDBF=T FulRan=T
         Omega=  0.000000  0.000000  1.000000  0.000000  0.000000 ICntrl=     500 IOpCl=  0
         NMat0=    1 NMatS0=    1 NMatT0=    0 NMatD0=    1 NMtDS0=    0 NMtDT0=    0
         I1Cent=           4 NGrid=           0.
 Petite list used in FoFCou.
 Harris En= -151.501912728144    
 Leave Link  401 at Tue May 12 14:24:50 2020, MaxMem= 1073741824 cpu:       2.5
 (Enter /home/matheus/.gaussian/g09/l502.exe)
 Closed shell SCF:
 Requested convergence on RMS density matrix=1.00D-08 within 128 cycles.
 Requested convergence on MAX density matrix=1.00D-06.
 Requested convergence on             energy=1.00D-06.
 No special actions if energy rises.
 Using DIIS extrapolation, IDIIS=  1040.
 Integral symmetry usage will be decided dynamically.
        94980 words used for storage of precomputed grid.
 IEnd=      192360 IEndB=      192360 NGot=  1073741824 MDV=  1073591865
 LenX=  1073591865 LenY=  1073565824
 Fock matrices will be formed incrementally for  20 cycles.

 Cycle   1  Pass 1  IDiag  1:
 FoFJK:  IHMeth= 1 ICntrl=     0 DoSepK=T KAlg= 1 I1Cent= 0 FoldK=F
 FoFCou: FMM=F IPFlag=           0 FMFlag=      100000 FMFlg1=           0
         NFxFlg=           0 DoJE=T BraDBF=F KetDBF=F FulRan=T
         Omega=  0.000000  0.000000  1.000000  0.000000  0.000000 ICntrl=     500 IOpCl=  0
         NMat0=    1 NMatS0=    1 NMatT0=    0 NMatD0=    1 NMtDS0=    0 NMtDT0=    0
         I1Cent=           0 NGrid=           0.
 Symmetry not used in FoFCou.
 E= -151.524671918095    
 DIIS: error= 1.70D-05 at cycle   1 NSaved=   1.
 NSaved= 1 IEnMin= 1 EnMin= -151.524671918095     IErMin= 1 ErrMin= 1.70D-05
 ErrMax= 1.70D-05 EMaxC= 1.00D-01 BMatC= 4.48D-08 BMatP= 4.48D-08
 IDIUse=1 WtCom= 1.00D+00 WtEn= 0.00D+00
 Coeff-Com:  0.100D+01
 Coeff:      0.100D+01
 Gap=     0.440 Goal=   None    Shift=    0.000
 RMSDP=1.23D-06 MaxDP=2.39D-05              OVMax= 6.78D-05

 Cycle   2  Pass 1  IDiag  1:
 RMSU=  8.68D-07    CP:  1.00D+00
 FoFJK:  IHMeth= 1 ICntrl=     0 DoSepK=T KAlg= 1 I1Cent= 0 FoldK=F
 E= -151.524671962299     Delta-E=       -0.000000044203 Rises=F Damp=F
 DIIS: error= 3.02D-06 at cycle   2 NSaved=   2.
 NSaved= 2 IEnMin= 2 EnMin= -151.524671962299     IErMin= 2 ErrMin= 3.02D-06
 ErrMax= 3.02D-06 EMaxC= 1.00D-01 BMatC= 1.60D-09 BMatP= 4.48D-08
 IDIUse=1 WtCom= 1.00D+00 WtEn= 0.00D+00
 Coeff-Com: -0.115D+00 0.111D+01
 Coeff:     -0.115D+00 0.111D+01
 Gap=     0.440 Goal=   None    Shift=    0.000
 RMSDP=3.75D-07 MaxDP=7.88D-06 DE=-4.42D-08 OVMax= 2.74D-05

 Cycle   3  Pass 1  IDiag  1:
 RMSU=  1.49D-07    CP:  1.00D+00  1.25D+00
 FoFJK:  IHMeth= 1 ICntrl=     0 DoSepK=T KAlg= 1 I1Cent= 0 FoldK=F
 E= -151.524671965866     Delta-E=       -0.000000003567 Rises=F Damp=F
 DIIS: error= 1.21D-06 at cycle   3 NSaved=   3.
 NSaved= 3 IEnMin= 3 EnMin= -151.524671965866     IErMin= 3 ErrMin= 1.21D-06
 ErrMax= 1.21D-06 EMaxC= 1.00D-01 BMatC= 2.54D-10 BMatP= 1.60D-09
 IDIUse=1 WtCom= 1.00D+00 WtEn= 0.00D+00
 Coeff-Com: -0.333D-01 0.137D+00 0.896D+00
 Coeff:     -0.333D-01 0.137D+00 0.896D+00
 Gap=     0.440 Goal=   None    Shift=    0.000
 RMSDP=1.25D-07 MaxDP=3.22D-06 DE=-3.57D-09 OVMax= 8.27D-06

 Cycle   4  Pass 1  IDiag  1:
 RMSU=  6.84D-08    CP:  1.00D+00  1.31D+00  1.20D+00
 FoFJK:  IHMeth= 1 ICntrl=     0 DoSepK=T KAlg= 1 I1Cent= 0 FoldK=F
 E= -151.524671966174     Delta-E=       -0.000000000309 Rises=F Damp=F
 DIIS: error= 1.01D-06 at cycle   4 NSaved=   4.
 NSaved= 4 IEnMin= 4 EnMin= -151.524671966174     IErMin= 4 ErrMin= 1.01D-06
 ErrMax= 1.01D-06 EMaxC= 1.00D-01 BMatC= 1.99D-10 BMatP= 2.54D-10
 IDIUse=1 WtCom= 1.00D+00 WtEn= 0.00D+00
 Coeff-Com:  0.622D-02-0.171D+00 0.524D+00 0.642D+00
 Coeff:      0.622D-02-0.171D+00 0.524D+00 0.642D+00
 Gap=     0.440 Goal=   None    Shift=    0.000
 RMSDP=6.77D-08 MaxDP=1.56D-06 DE=-3.09D-10 OVMax= 4.24D-06

 Cycle   5  Pass 1  IDiag  1:
 RMSU=  1.96D-08    CP:  1.00D+00  1.33D+00  1.44D+00  7.83D-01
 FoFJK:  IHMeth= 1 ICntrl=     0 DoSepK=T KAlg= 1 I1Cent= 0 FoldK=F
 E= -151.524671966352     Delta-E=       -0.000000000178 Rises=F Damp=F
 DIIS: error= 2.10D-07 at cycle   5 NSaved=   5.
 NSaved= 5 IEnMin= 5 EnMin= -151.524671966352     IErMin= 5 ErrMin= 2.10D-07
 ErrMax= 2.10D-07 EMaxC= 1.00D-01 BMatC= 5.25D-12 BMatP= 1.99D-10
 IDIUse=1 WtCom= 1.00D+00 WtEn= 0.00D+00
 Coeff-Com:  0.429D-02-0.402D-01-0.360D-01 0.776D-01 0.994D+00
 Coeff:      0.429D-02-0.402D-01-0.360D-01 0.776D-01 0.994D+00
 Gap=     0.440 Goal=   None    Shift=    0.000
 RMSDP=2.51D-08 MaxDP=4.02D-07 DE=-1.78D-10 OVMax= 2.33D-06

 Cycle   6  Pass 1  IDiag  1:
 RMSU=  7.29D-09    CP:  1.00D+00  1.33D+00  1.52D+00  9.03D-01  1.37D+00
 FoFJK:  IHMeth= 1 ICntrl=     0 DoSepK=T KAlg= 1 I1Cent= 0 FoldK=F
 E= -151.524671966366     Delta-E=       -0.000000000013 Rises=F Damp=F
 DIIS: error= 6.82D-08 at cycle   6 NSaved=   6.
 NSaved= 6 IEnMin= 6 EnMin= -151.524671966366     IErMin= 6 ErrMin= 6.82D-08
 ErrMax= 6.82D-08 EMaxC= 1.00D-01 BMatC= 7.11D-13 BMatP= 5.25D-12
 IDIUse=1 WtCom= 1.00D+00 WtEn= 0.00D+00
 Coeff-Com:  0.250D-03 0.825D-02-0.530D-01-0.421D-01 0.191D+00 0.895D+00
 Coeff:      0.250D-03 0.825D-02-0.530D-01-0.421D-01 0.191D+00 0.895D+00
 Gap=     0.440 Goal=   None    Shift=    0.000
 RMSDP=9.13D-09 MaxDP=1.53D-07 DE=-1.34D-11 OVMax= 9.26D-07

 SCF Done:  E(RLC-wPBE) =  -151.524671966     A.U. after    6 cycles
             Convg  =    0.9127D-08             -V/T =  2.0068
 KE= 1.505008501868D+02 PE=-4.315033237630D+02 EE= 9.286546258215D+01
 Leave Link  502 at Tue May 12 14:24:56 2020, MaxMem= 1073741824 cpu:      43.8
 (Enter /home/matheus/.gaussian/g09/l122.exe)
 Restoring MOs from calculation   5 to rwf.
 Counterpoise: doing MCBS calculation for fragment   2
 Leave Link  122 at Tue May 12 14:24:56 2020, MaxMem= 1073741824 cpu:       0.0
 (Enter /home/matheus/.gaussian/g09/l301.exe)
 Basis read from rwf:  (5D, 7F)
 No pseudopotential information found on rwf file.
 There are    59 symmetry adapted basis functions of A   symmetry.
 Integral buffers will be    131072 words long.
 Raffenetti 2 integral format.
 Two-electron integral symmetry is turned on.
    59 basis functions,   217 primitive gaussians,    69 cartesian basis functions
    18 alpha electrons       18 beta electrons
       nuclear repulsion energy         0.0000000000 Hartrees.
 IExCor=32609 DFT=T Ex+Corr=LC-wPBE ExCW=0 ScaHFX=  1.000000
 ScaDFX=  1.000000  0.000000  1.000000  1.000000 ScalE2=  1.000000  1.000000
 IRadAn=      5 IRanWt=     -1 IRanGd=            0 ICorTp=0
  HFx wShort=  0.000000 wLong=  0.400000 cFull=  0.000000 cShort=  0.000000 cLong=  1.000000
  DFx wShort=  0.000000 wLong=  0.400000 cFull=  0.000000 cShort=  0.000000 cLong=  1.000000
 NAtoms=    5 NActive=    1 NUniq=    1 SFac= 1.00D+00 NAtFMM=   60 NAOKFM=F Big=F
 No density basis found on file   718.
 Leave Link  301 at Tue May 12 14:24:56 2020, MaxMem= 1073741824 cpu:       0.2
 (Enter /home/matheus/.gaussian/g09/l302.exe)
 NPDir=0 NMtPBC=     1 NCelOv=     1 NCel=       1 NClECP=     1 NCelD=      1
         NCelK=      1 NCelE2=     1 NClLst=     1 CellRange=     0.0.
 One-electron integrals computed using PRISM.
 NBasis=    59 RedAO= T  NBF=    59
 NBsUse=    59 1.00D-06 NBFU=    59
 Precomputing XC quadrature grid using
 IXCGrd= 2 IRadAn=           5 IRanWt=          -1 IRanGd=           0 AccXCQ= 0.00D+00.
 NRdTot=      81 NPtTot=       30352 NUsed=       30981 NTot=       31013
 NSgBfM=    69    69    69    69    69 NAtAll=     1     1.
 Leave Link  302 at Tue May 12 14:24:56 2020, MaxMem= 1073741824 cpu:       0.6
 (Enter /home/matheus/.gaussian/g09/l303.exe)
 DipDrv:  MaxL=1.
 Leave Link  303 at Tue May 12 14:24:56 2020, MaxMem= 1073741824 cpu:       0.1
 (Enter /home/matheus/.gaussian/g09/l401.exe)
 Initial guess read from the read-write file.
 Guess basis will be translated and rotated to current coordinates.
 Initial guess orbital symmetries:
       Occupied  (A) (A) (A) (A) (A) (A) (A) (A) (A) (A) (A) (A)
                 (A) (A) (A) (A) (A) (A)
       Virtual   (A) (A) (A) (A) (A) (A) (A) (A) (A) (A) (A) (A)
                 (A) (A) (A) (A) (A) (A) (A) (A) (A) (A) (A) (A)
                 (A) (A) (A) (A) (A) (A) (A) (A) (A) (A) (A) (A)
                 (A) (A) (A) (A) (A)
 The electronic state of the initial guess is 1-A.
 Generating alternative initial guess.
 Harris functional with IExCor=32609 diagonalized for initial guess.
 ExpMin= 4.00D-02 ExpMax= 1.17D+07 ExpMxC= 1.33D+04 IAcc=3 IRadAn=         5 AccDes= 0.00D+00
 HarFok:  IExCor=32609 AccDes= 0.00D+00 IRadAn=         5 IDoV= 1
 ScaDFX=  1.000000  1.000000  1.000000  1.000000
 FoFCou: FMM=F IPFlag=           0 FMFlag=      100000 FMFlg1=           0
         NFxFlg=           0 DoJE=T BraDBF=F KetDBF=T FulRan=T
         Omega=  0.000000  0.000000  1.000000  0.000000  0.000000 ICntrl=     500 IOpCl=  0
         NMat0=    1 NMatS0=    1 NMatT0=    0 NMatD0=    1 NMtDS0=    0 NMtDT0=    0
         I1Cent=           4 NGrid=           0.
 Petite list used in FoFCou.
 Harris En= -2753.24576836237    
 Leave Link  401 at Tue May 12 14:24:56 2020, MaxMem= 1073741824 cpu:       1.2
 (Enter /home/matheus/.gaussian/g09/l502.exe)
 Closed shell SCF:
 Requested convergence on RMS density matrix=1.00D-08 within 128 cycles.
 Requested convergence on MAX density matrix=1.00D-06.
 Requested convergence on             energy=1.00D-06.
 No special actions if energy rises.
 Using DIIS extrapolation, IDIIS=  1040.
 Integral symmetry usage will be decided dynamically.
        30923 words used for storage of precomputed grid.
 IEnd=       64406 IEndB=       64406 NGot=  1073741824 MDV=  1073698889
 LenX=  1073698889 LenY=  1073693687
 Fock matrices will be formed incrementally for  20 cycles.

 Cycle   1  Pass 1  IDiag  1:
 FoFJK:  IHMeth= 1 ICntrl=     0 DoSepK=T KAlg= 1 I1Cent= 0 FoldK=F
 FoFCou: FMM=F IPFlag=           0 FMFlag=      100000 FMFlg1=           0
         NFxFlg=           0 DoJE=T BraDBF=F KetDBF=F FulRan=T
         Omega=  0.000000  0.000000  1.000000  0.000000  0.000000 ICntrl=     500 IOpCl=  0
         NMat0=    1 NMatS0=    1 NMatT0=    0 NMatD0=    1 NMtDS0=    0 NMtDT0=    0
         I1Cent=           0 NGrid=           0.
 Symmetry not used in FoFCou.
 E= -2753.43563276534    
 DIIS: error= 8.39D-14 at cycle   1 NSaved=   1.
 NSaved= 1 IEnMin= 1 EnMin= -2753.43563276534     IErMin= 1 ErrMin= 8.39D-14
 ErrMax= 8.39D-14 EMaxC= 1.00D-01 BMatC= 4.27D-25 BMatP= 4.27D-25
 IDIUse=1 WtCom= 1.00D+00 WtEn= 0.00D+00
 Coeff-Com:  0.100D+01
 Coeff:      0.100D+01
 Gap=     0.599 Goal=   None    Shift=    0.000
 DSYEVD returned Info=          89 IAlg= 4 N=    59 NDim=    59 NE2=    18198197 trying DSYEV.
 RMSDP=8.88D-15 MaxDP=1.91D-13              OVMax= 1.67D-13

 SCF Done:  E(RLC-wPBE) =  -2753.43563277     A.U. after    1 cycles
             Convg  =    0.8881D-14             -V/T =  2.0014
 KE= 2.749535160915D+03 PE=-6.578948648680D+03 EE= 1.075977855000D+03
 Leave Link  502 at Tue May 12 14:24:57 2020, MaxMem= 1073741824 cpu:      11.0
 (Enter /home/matheus/.gaussian/g09/l122.exe)
 Restoring MOs from calculation   1 to rwf.
 Counterpoise: corrected energy =   -2904.960331774408
 Counterpoise: BSSE energy =       0.000021459488
 Leave Link  122 at Tue May 12 14:24:57 2020, MaxMem= 1073741824 cpu:       0.0
 (Enter /home/matheus/.gaussian/g09/l108.exe)
 Scan completed.

 Summary of the potential surface scan:
   N      R1          SCF    
 ----  ---------  -----------
    1     3.0000  -2753.43563
    2     3.1000  -2753.43563
    3     3.2000  -2753.43563
    4     3.3000  -2753.43563
    5     3.4000  -2753.43563
    6     3.5000  -2753.43563
    7     3.6000  -2753.43563
    8     3.7000  -2753.43563
    9     3.8000  -2753.43563
   10     3.9000  -2753.43563
   11     4.0000  -2753.43563
   12     4.1000  -2753.43563
   13     4.2000  -2753.43563
   14     4.3000  -2753.43563
   15     4.4000  -2753.43563
   16     4.5000  -2753.43563
   17     4.6000  -2753.43563
   18     4.7000  -2753.43563
   19     4.8000  -2753.43563
   20     4.9000  -2753.43563
   21     5.0000  -2753.43563
 ----  ---------  -----------
  
 Leave Link  108 at Tue May 12 14:24:57 2020, MaxMem= 1073741824 cpu:       0.0
 (Enter /home/matheus/.gaussian/g09/l9999.exe)
 1\1\GINC-REDGIANT\Scan\RLC-wPBE\Aug-CC-pVTZ\H2Kr1O2\MATHEUS\12-May-202
 0\1\\#p lc-wpbe/aug-cc-PVTz int=ultrafine counterpoise=2 Scan\\TCC\\0,
 1\O,0,0.,0.,0.725\O,0,0.,0.,-0.725\H,0,0.795635374,-0.4593602974,1.023
 5104166\H,0,0.,0.9187205947,-1.0235104166\Kr,0,0.,R1,0.\\R1=3.,s,20,0.
 1\\Version=EM64L-G09RevC.01\State=1-A\HF=-2753.4356328,-2753.4356328,-
 2753.4356328,-2753.4356328,-2753.4356328,-2753.4356328,-2753.4356328,-
 2753.4356328,-2753.4356328,-2753.4356328,-2753.4356328,-2753.4356328,-
 2753.4356328,-2753.4356328,-2753.4356328,-2753.4356328,-2753.4356328,-
 2753.4356328,-2753.4356328,-2753.4356328,-2753.4356328\RMSD=1.428e-09,
 5.221e-11,1.075e-11,2.473e-12,6.359e-13,1.590e-13,4.464e-14,1.008e-14,
 4.063e-15,1.093e-14,1.128e-14,1.375e-14,8.402e-15,4.874e-15,4.808e-15,
 8.021e-15,6.370e-15,5.335e-15,6.693e-15,8.779e-15,8.881e-15\PG=C01 [X(
 H2Kr1O2)]\\@


 EDUCATION DOESN'T COST 
           ... IT PAYS!

 -- POSTMARK, UNIV. OF MISSISSIPPI, DEC 78
 Job cpu time:  0 days  3 hours  9 minutes 29.1 seconds.
 File lengths (MBytes):  RWF=     33 Int=      0 D2E=      0 Chk=      8 Scr=      1
 Normal termination of Gaussian 09 at Tue May 12 14:24:57 2020.
