 Entering Gaussian System, Link 0=g09
 Input=/home/matheus/.tcc/Inputs/Inputs-lc-wpbe-default/H2O2-Kr_9.com
 Output=/home/matheus/.tcc/Logs/Logs-lc-wpbe-default/H2O2-Kr_9.log
 Initial command:
 /home/matheus/.gaussian/g09/l1.exe /home/matheus/.gaussian/g09/scratch/Gau-25793.inp -scrdir=/home/matheus/.gaussian/g09/scratch/
 Entering Link 1 = /home/matheus/.gaussian/g09/l1.exe PID=     25797.
  
 Copyright (c) 1988,1990,1992,1993,1995,1998,2003,2009,2011,
            Gaussian, Inc.  All Rights Reserved.
  
 This is part of the Gaussian(R) 09 program.  It is based on
 the Gaussian(R) 03 system (copyright 2003, Gaussian, Inc.),
 the Gaussian(R) 98 system (copyright 1998, Gaussian, Inc.),
 the Gaussian(R) 94 system (copyright 1995, Gaussian, Inc.),
 the Gaussian 92(TM) system (copyright 1992, Gaussian, Inc.),
 the Gaussian 90(TM) system (copyright 1990, Gaussian, Inc.),
 the Gaussian 88(TM) system (copyright 1988, Gaussian, Inc.),
 the Gaussian 86(TM) system (copyright 1986, Carnegie Mellon
 University), and the Gaussian 82(TM) system (copyright 1983,
 Carnegie Mellon University). Gaussian is a federally registered
 trademark of Gaussian, Inc.
  
 This software contains proprietary and confidential information,
 including trade secrets, belonging to Gaussian, Inc.
  
 This software is provided under written license and may be
 used, copied, transmitted, or stored only in accord with that
 written license.
  
 The following legend is applicable only to US Government
 contracts under FAR:
  
                    RESTRICTED RIGHTS LEGEND
  
 Use, reproduction and disclosure by the US Government is
 subject to restrictions as set forth in subparagraphs (a)
 and (c) of the Commercial Computer Software - Restricted
 Rights clause in FAR 52.227-19.
  
 Gaussian, Inc.
 340 Quinnipiac St., Bldg. 40, Wallingford CT 06492
  
  
 ---------------------------------------------------------------
 Warning -- This program may not be used in any manner that
 competes with the business of Gaussian, Inc. or will provide
 assistance to any competitor of Gaussian, Inc.  The licensee
 of this program is prohibited from giving any competitor of
 Gaussian, Inc. access to this program.  By using this program,
 the user acknowledges that Gaussian, Inc. is engaged in the
 business of creating and licensing software in the field of
 computational chemistry and represents and warrants to the
 licensee that it is not a competitor of Gaussian, Inc. and that
 it will not use this program in any manner prohibited above.
 ---------------------------------------------------------------
  

 Cite this work as:
 Gaussian 09, Revision C.01,
 M. J. Frisch, G. W. Trucks, H. B. Schlegel, G. E. Scuseria, 
 M. A. Robb, J. R. Cheeseman, G. Scalmani, V. Barone, B. Mennucci, 
 G. A. Petersson, H. Nakatsuji, M. Caricato, X. Li, H. P. Hratchian, 
 A. F. Izmaylov, J. Bloino, G. Zheng, J. L. Sonnenberg, M. Hada, 
 M. Ehara, K. Toyota, R. Fukuda, J. Hasegawa, M. Ishida, T. Nakajima, 
 Y. Honda, O. Kitao, H. Nakai, T. Vreven, J. A. Montgomery, Jr., 
 J. E. Peralta, F. Ogliaro, M. Bearpark, J. J. Heyd, E. Brothers, 
 K. N. Kudin, V. N. Staroverov, T. Keith, R. Kobayashi, J. Normand, 
 K. Raghavachari, A. Rendell, J. C. Burant, S. S. Iyengar, J. Tomasi, 
 M. Cossi, N. Rega, J. M. Millam, M. Klene, J. E. Knox, J. B. Cross, 
 V. Bakken, C. Adamo, J. Jaramillo, R. Gomperts, R. E. Stratmann, 
 O. Yazyev, A. J. Austin, R. Cammi, C. Pomelli, J. W. Ochterski, 
 R. L. Martin, K. Morokuma, V. G. Zakrzewski, G. A. Voth, 
 P. Salvador, J. J. Dannenberg, S. Dapprich, A. D. Daniels, 
 O. Farkas, J. B. Foresman, J. V. Ortiz, J. Cioslowski, 
 and D. J. Fox, Gaussian, Inc., Wallingford CT, 2010.
 
 ******************************************
 Gaussian 09:  EM64L-G09RevC.01 23-Sep-2011
                12-May-2020 
 ******************************************
 %mem=8GB
 %nproc=8
 Will use up to    8 processors via shared memory.
 --------------------------------------------------------
 #p lc-wpbe/aug-cc-PVTz int=ultrafine counterpoise=2 Scan
 --------------------------------------------------------
 1/38=1,60=1,62=2/1,8;
 2/12=2,17=6,18=5,29=3,40=1/2;
 1/38=1,53=5172,62=2/22;
 3/5=16,6=1,7=10,11=2,16=1,25=1,30=1,74=-41,75=-5/1,2,3;
 4//1;
 5/5=2,38=5/2;
 6/7=2,8=2,9=2,10=2,18=1,28=1/1;
 1/53=4052,62=2,63=1/22;
 3/5=7,6=11,7=10,11=2,16=1,25=1,30=1,74=-41,75=-5,82=7/1,2,3;
 4//1;
 5/5=2,38=5/2;
 6/7=2,8=2,9=2,10=2,18=1,28=1/1;
 1/53=3042,62=2,63=2/22;
 3/5=7,6=11,7=10,11=2,16=1,25=1,30=1,74=-41,75=-5,82=7/1,2,3;
 4//1;
 5/5=2,38=5/2;
 6/7=2,8=2,9=2,10=2,18=1,28=1/1;
 1/53=2032,62=2,63=3/22;
 3/5=7,6=11,7=10,11=2,16=1,25=1,30=1,74=-41,75=-5,82=7/1,2,3;
 4//1;
 5/5=2,38=5/2;
 6/7=2,8=2,9=2,10=2,18=1,28=1/1;
 1/53=1022,62=2,63=4/22;
 3/5=7,6=11,7=10,11=2,16=1,25=1,30=1,74=-41,75=-5,82=7/1,2,3;
 4//1;
 5/5=2,38=5/2;
 6/7=2,8=2,9=2,10=2,18=1,28=1/1;
 1/53=5014,62=2,63=5/22;
 1/60=1,62=2/8(1);
 99/9=1/99;
 2/29=3/2;
 1/53=5173,62=2/22;
 3/5=7,6=11,7=10,11=2,16=1,25=1,30=1,74=-41,75=-5,82=7/1,2,3;
 4/5=5,16=3/1;
 5/5=2,38=5/2;
 1/53=4053,62=2,63=1/22;
 3/5=7,6=11,7=10,11=2,16=1,25=1,30=1,74=-41,75=-5,82=7/1,2,3;
 4/5=5,16=3/1;
 5/5=2,38=5/2;
 1/53=3043,62=2,63=2/22;
 3/5=7,6=11,7=10,11=2,16=1,25=1,30=1,74=-41,75=-5,82=7/1,2,3;
 4/5=5,16=3/1;
 5/5=2,38=5/2;
 1/53=2033,62=2,63=3/22;
 3/5=7,6=11,7=10,11=2,16=1,25=1,30=1,74=-41,75=-5,82=7/1,2,3;
 4/5=5,16=3/1;
 5/5=2,38=5/2;
 1/53=1024,62=2,63=4/22;
 3/5=7,6=11,7=10,11=2,16=1,25=1,30=1,74=-41,75=-5,82=7/1,2,3;
 4/5=5,16=3/1;
 5/5=2,38=5/2;
 1/53=5014,62=2,63=5/22;
 1/60=1,62=2/8(-22);
 99/9=1/99;
 Leave Link    1 at Tue May 12 12:46:58 2020, MaxMem= 1073741824 cpu:       0.1
 (Enter /home/matheus/.gaussian/g09/l101.exe)
 ---
 TCC
 ---
 Charge =  0 Multiplicity = 1 in supermolecule
 Charge =  0 Multiplicity = 1 in fragment  1.
 Charge =  0 Multiplicity = 1 in fragment  2.
 Symbolic Z-Matrix:
 O(Fragment=1)         0.        0.        0.725 
 O(Fragment=1)         0.        0.       -0.725 
 H(Fragment=1)         0.91872   0.        1.02351 
 H(Fragment=1)         0.        0.91872  -1.02351 
 Kr(Fragment=2)        0.       R1        0. 
       Variables:
  R1                    3.     Scan 20    0.1    
 
 NAtoms=      5 NQM=        0 NQMF=       0 NMMI=      5 NMMIF=      0
                NMic=       0 NMicF=      0.
                    Isotopes and Nuclear Properties:
 (Nuclear quadrupole moments (NQMom) in fm**2, nuclear magnetic moments (NMagM)
  in nuclear magnetons)

  Atom         1           2           3           4           5
 IAtWgt=          16          16           1           1          84
 AtmWgt=  15.9949146  15.9949146   1.0078250   1.0078250  83.9115064
 NucSpn=           0           0           1           1           0
 AtZEff=   0.0000000   0.0000000   0.0000000   0.0000000   0.0000000
 NQMom=    0.0000000   0.0000000   0.0000000   0.0000000   0.0000000
 NMagM=    0.0000000   0.0000000   2.7928460   2.7928460   0.0000000
 Leave Link  101 at Tue May 12 12:46:58 2020, MaxMem= 1073741824 cpu:       0.3
 (Enter /home/matheus/.gaussian/g09/l108.exe)
 Scan the potential surface.
 Variable   Value     No. Steps Step-Size
 -------- ----------- --------- ---------
     1       3.000000      20      0.1000
 A total of     21 points will be computed.
 Leave Link  108 at Tue May 12 12:46:58 2020, MaxMem= 1073741824 cpu:       0.0
 (Enter /home/matheus/.gaussian/g09/l202.exe)
 ---------------------------------------------------------------------------------------------------
                            Z-MATRIX (ANGSTROMS AND DEGREES)
   CD    Cent   Atom    N1       Length/X        N2       Alpha/Y        N3        Beta/Z          J
 ---------------------------------------------------------------------------------------------------
      1      1  O        0   0.000000          0.000000          0.725000
      2      2  O        0   0.000000          0.000000         -0.725000
      3      3  H        0   0.918721          0.000000          1.023510
      4      4  H        0   0.000000          0.918721         -1.023510
      5      5  Kr       0   0.000000          3.000000          0.000000
 ---------------------------------------------------------------------------------------------------
                         Z-Matrix orientation:                         
 ---------------------------------------------------------------------
 Center     Atomic      Atomic             Coordinates (Angstroms)
 Number     Number       Type             X           Y           Z
 ---------------------------------------------------------------------
      1          8           0        0.000000    0.000000    0.725000
      2          8           0        0.000000    0.000000   -0.725000
      3          1           0        0.918721    0.000000    1.023510
      4          1           0        0.000000    0.918721   -1.023510
      5         36           0        0.000000    3.000000    0.000000
 ---------------------------------------------------------------------
                    Distance matrix (angstroms):
                    1          2          3          4          5
     1  O    0.000000
     2  O    1.450000   0.000000
     3  H    0.966000   1.975180   0.000000
     4  H    1.975180   0.966000   2.424539   0.000000
     5  Kr   3.086361   3.086361   3.300246   2.319331   0.000000
 Stoichiometry    H2KrO2
 Framework group  C1[X(H2KrO2)]
 Deg. of freedom     9
 Full point group                 C1      NOp   1
 Largest Abelian subgroup         C1      NOp   1
 Largest concise Abelian subgroup C1      NOp   1
                         Standard orientation:                         
 ---------------------------------------------------------------------
 Center     Atomic      Atomic             Coordinates (Angstroms)
 Number     Number       Type             X           Y           Z
 ---------------------------------------------------------------------
      1          8           0        2.023612   -0.696492   -0.118952
      2          8           0        2.008959    0.747023    0.017247
      3          1           0        2.043021   -1.079789    0.767536
      4          1           0        1.087415    1.033416    0.060735
      5         36           0       -0.983084   -0.009941   -0.000406
 ---------------------------------------------------------------------
 Rotational constants (GHZ):     25.5933462      2.3453767      2.1627661
 Leave Link  202 at Tue May 12 12:46:58 2020, MaxMem= 1073741824 cpu:       0.0
 (Enter /home/matheus/.gaussian/g09/l122.exe)
 Leave Link  122 at Tue May 12 12:46:58 2020, MaxMem= 1073741824 cpu:       0.0
 (Enter /home/matheus/.gaussian/g09/l301.exe)
 Standard basis: Aug-CC-pVTZ (5D, 7F)
 Ernie: Thresh=  0.10000D-02 Tol=  0.10000D-05 Strict=F.
 Ernie:  38 primitive shells out of 205 were deleted.
 There are   197 symmetry adapted basis functions of A   symmetry.
 Integral buffers will be    131072 words long.
 Raffenetti 2 integral format.
 Two-electron integral symmetry is turned on.
   197 basis functions,   415 primitive gaussians,   229 cartesian basis functions
    27 alpha electrons       27 beta electrons
       nuclear repulsion energy       149.3716944117 Hartrees.
 IExCor=32609 DFT=T Ex+Corr=LC-wPBE ExCW=0 ScaHFX=  1.000000
 ScaDFX=  1.000000  0.000000  1.000000  1.000000 ScalE2=  1.000000  1.000000
 IRadAn=      5 IRanWt=     -1 IRanGd=            0 ICorTp=0
  HFx wShort=  0.000000 wLong=  0.400000 cFull=  0.000000 cShort=  0.000000 cLong=  1.000000
  DFx wShort=  0.000000 wLong=  0.400000 cFull=  0.000000 cShort=  0.000000 cLong=  1.000000
 NAtoms=    5 NActive=    5 NUniq=    5 SFac= 1.00D+00 NAtFMM=   60 NAOKFM=F Big=F
 Leave Link  301 at Tue May 12 12:46:58 2020, MaxMem= 1073741824 cpu:       0.2
 (Enter /home/matheus/.gaussian/g09/l302.exe)
 NPDir=0 NMtPBC=     1 NCelOv=     1 NCel=       1 NClECP=     1 NCelD=      1
         NCelK=      1 NCelE2=     1 NClLst=     1 CellRange=     0.0.
 One-electron integrals computed using PRISM.
 NBasis=   197 RedAO= T  NBF=   197
 NBsUse=   197 1.00D-06 NBFU=   197
 Precomputing XC quadrature grid using
 IXCGrd= 2 IRadAn=           5 IRanWt=          -1 IRanGd=           0 AccXCQ= 0.00D+00.
 NRdTot=     427 NPtTot=      123512 NUsed=      126579 NTot=      126611
 NSgBfM=   229   229   229   229   229 NAtAll=     5     5.
 Leave Link  302 at Tue May 12 12:46:58 2020, MaxMem= 1073741824 cpu:       1.0
 (Enter /home/matheus/.gaussian/g09/l303.exe)
 DipDrv:  MaxL=1.
 Leave Link  303 at Tue May 12 12:46:58 2020, MaxMem= 1073741824 cpu:       0.2
 (Enter /home/matheus/.gaussian/g09/l401.exe)
 Harris functional with IExCor=32609 diagonalized for initial guess.
 ExpMin= 2.53D-02 ExpMax= 1.17D+07 ExpMxC= 1.33D+04 IAcc=3 IRadAn=         5 AccDes= 0.00D+00
 HarFok:  IExCor=32609 AccDes= 0.00D+00 IRadAn=         5 IDoV= 1
 ScaDFX=  1.000000  1.000000  1.000000  1.000000
 FoFCou: FMM=F IPFlag=           0 FMFlag=      100000 FMFlg1=           0
         NFxFlg=           0 DoJE=T BraDBF=F KetDBF=T FulRan=T
         Omega=  0.000000  0.000000  1.000000  0.000000  0.000000 ICntrl=     500 IOpCl=  0
         NMat0=    1 NMatS0=    1 NMatT0=    0 NMatD0=    1 NMtDS0=    0 NMtDT0=    0
         I1Cent=           4 NGrid=           0.
 Petite list used in FoFCou.
 Harris En= -2904.73979583069    
 Initial guess orbital symmetries:
       Occupied  (A) (A) (A) (A) (A) (A) (A) (A) (A) (A) (A) (A)
                 (A) (A) (A) (A) (A) (A) (A) (A) (A) (A) (A) (A)
                 (A) (A) (A)
       Virtual   (A) (A) (A) (A) (A) (A) (A) (A) (A) (A) (A) (A)
                 (A) (A) (A) (A) (A) (A) (A) (A) (A) (A) (A) (A)
                 (A) (A) (A) (A) (A) (A) (A) (A) (A) (A) (A) (A)
                 (A) (A) (A) (A) (A) (A) (A) (A) (A) (A) (A) (A)
                 (A) (A) (A) (A) (A) (A) (A) (A) (A) (A) (A) (A)
                 (A) (A) (A) (A) (A) (A) (A) (A) (A) (A) (A) (A)
                 (A) (A) (A) (A) (A) (A) (A) (A) (A) (A) (A) (A)
                 (A) (A) (A) (A) (A) (A) (A) (A) (A) (A) (A) (A)
                 (A) (A) (A) (A) (A) (A) (A) (A) (A) (A) (A) (A)
                 (A) (A) (A) (A) (A) (A) (A) (A) (A) (A) (A) (A)
                 (A) (A) (A) (A) (A) (A) (A) (A) (A) (A) (A) (A)
                 (A) (A) (A) (A) (A) (A) (A) (A) (A) (A) (A) (A)
                 (A) (A) (A) (A) (A) (A) (A) (A) (A) (A) (A) (A)
                 (A) (A) (A) (A) (A) (A) (A) (A) (A) (A) (A) (A)
                 (A) (A)
 The electronic state of the initial guess is 1-A.
 Leave Link  401 at Tue May 12 12:46:58 2020, MaxMem= 1073741824 cpu:       3.8
 (Enter /home/matheus/.gaussian/g09/l502.exe)
 Closed shell SCF:
 Requested convergence on RMS density matrix=1.00D-08 within 128 cycles.
 Requested convergence on MAX density matrix=1.00D-06.
 Requested convergence on             energy=1.00D-06.
 No special actions if energy rises.
 Using DIIS extrapolation, IDIIS=  1040.
 Integral symmetry usage will be decided dynamically.
       126521 words used for storage of precomputed grid.
 IEnd=      305468 IEndB=      305468 NGot=  1073741824 MDV=  1073505667
 LenX=  1073505667 LenY=  1073452785
 Fock matrices will be formed incrementally for  20 cycles.

 Cycle   1  Pass 1  IDiag  1:
 FoFJK:  IHMeth= 1 ICntrl=     0 DoSepK=T KAlg= 1 I1Cent= 0 FoldK=F
 FoFCou: FMM=F IPFlag=           0 FMFlag=      100000 FMFlg1=           0
         NFxFlg=           0 DoJE=T BraDBF=F KetDBF=F FulRan=T
         Omega=  0.000000  0.000000  1.000000  0.000000  0.000000 ICntrl=     500 IOpCl=  0
         NMat0=    1 NMatS0=    1 NMatT0=    0 NMatD0=    1 NMtDS0=    0 NMtDT0=    0
         I1Cent=           0 NGrid=           0.
 Symmetry not used in FoFCou.
 E= -2904.88323701674    
 DIIS: error= 2.48D-02 at cycle   1 NSaved=   1.
 NSaved= 1 IEnMin= 1 EnMin= -2904.88323701674     IErMin= 1 ErrMin= 2.48D-02
 ErrMax= 2.48D-02 EMaxC= 1.00D-01 BMatC= 2.62D-01 BMatP= 2.62D-01
 IDIUse=3 WtCom= 7.52D-01 WtEn= 2.48D-01
 Coeff-Com:  0.100D+01
 Coeff-En:   0.100D+01
 Coeff:      0.100D+01
 Gap=     0.522 Goal=   None    Shift=    0.000
 GapD=    0.522 DampG=2.000 DampE=0.500 DampFc=1.0000 IDamp=-1.
 RMSDP=2.27D-03 MaxDP=1.47D-01              OVMax= 6.08D-02

 Cycle   2  Pass 1  IDiag  1:
 RMSU=  1.58D-03    CP:  1.02D+00
 FoFJK:  IHMeth= 1 ICntrl=     0 DoSepK=T KAlg= 1 I1Cent= 0 FoldK=F
 E= -2904.92689630593     Delta-E=       -0.043659289194 Rises=F Damp=F
 DIIS: error= 1.05D-02 at cycle   2 NSaved=   2.
 NSaved= 2 IEnMin= 2 EnMin= -2904.92689630593     IErMin= 2 ErrMin= 1.05D-02
 ErrMax= 1.05D-02 EMaxC= 1.00D-01 BMatC= 7.84D-02 BMatP= 2.62D-01
 IDIUse=3 WtCom= 8.95D-01 WtEn= 1.05D-01
 Coeff-Com:  0.347D+00 0.653D+00
 Coeff-En:   0.191D+00 0.809D+00
 Coeff:      0.330D+00 0.670D+00
 Gap=     0.472 Goal=   None    Shift=    0.000
 RMSDP=9.31D-04 MaxDP=5.06D-02 DE=-4.37D-02 OVMax= 3.01D-02

 Cycle   3  Pass 1  IDiag  1:
 RMSU=  3.23D-04    CP:  1.01D+00  6.47D-01
 FoFJK:  IHMeth= 1 ICntrl=     0 DoSepK=T KAlg= 1 I1Cent= 0 FoldK=F
 E= -2904.95478033857     Delta-E=       -0.027884032644 Rises=F Damp=F
 DIIS: error= 2.07D-03 at cycle   3 NSaved=   3.
 NSaved= 3 IEnMin= 3 EnMin= -2904.95478033857     IErMin= 3 ErrMin= 2.07D-03
 ErrMax= 2.07D-03 EMaxC= 1.00D-01 BMatC= 1.82D-03 BMatP= 7.84D-02
 IDIUse=3 WtCom= 9.79D-01 WtEn= 2.07D-02
 Coeff-Com:  0.649D-01 0.197D+00 0.738D+00
 Coeff-En:   0.000D+00 0.000D+00 0.100D+01
 Coeff:      0.636D-01 0.193D+00 0.744D+00
 Gap=     0.453 Goal=   None    Shift=    0.000
 RMSDP=1.20D-04 MaxDP=3.13D-03 DE=-2.79D-02 OVMax= 8.00D-03

 Cycle   4  Pass 1  IDiag  1:
 RMSU=  6.34D-05    CP:  1.01D+00  6.75D-01  8.94D-01
 FoFJK:  IHMeth= 1 ICntrl=     0 DoSepK=T KAlg= 1 I1Cent= 0 FoldK=F
 E= -2904.95574835630     Delta-E=       -0.000968017728 Rises=F Damp=F
 DIIS: error= 5.23D-04 at cycle   4 NSaved=   4.
 NSaved= 4 IEnMin= 4 EnMin= -2904.95574835630     IErMin= 4 ErrMin= 5.23D-04
 ErrMax= 5.23D-04 EMaxC= 1.00D-01 BMatC= 1.42D-04 BMatP= 1.82D-03
 IDIUse=3 WtCom= 9.95D-01 WtEn= 5.23D-03
 Coeff-Com: -0.166D-02 0.272D-01 0.281D+00 0.693D+00
 Coeff-En:   0.000D+00 0.000D+00 0.000D+00 0.100D+01
 Coeff:     -0.165D-02 0.271D-01 0.280D+00 0.695D+00
 Gap=     0.458 Goal=   None    Shift=    0.000
 RMSDP=3.59D-05 MaxDP=2.08D-03 DE=-9.68D-04 OVMax= 1.92D-03

 Cycle   5  Pass 1  IDiag  1:
 RMSU=  1.29D-05    CP:  1.01D+00  6.79D-01  9.50D-01  8.28D-01
 FoFJK:  IHMeth= 1 ICntrl=     0 DoSepK=T KAlg= 1 I1Cent= 0 FoldK=F
 E= -2904.95582838559     Delta-E=       -0.000080029288 Rises=F Damp=F
 DIIS: error= 8.16D-05 at cycle   5 NSaved=   5.
 NSaved= 5 IEnMin= 5 EnMin= -2904.95582838559     IErMin= 5 ErrMin= 8.16D-05
 ErrMax= 8.16D-05 EMaxC= 1.00D-01 BMatC= 3.16D-06 BMatP= 1.42D-04
 IDIUse=1 WtCom= 1.00D+00 WtEn= 0.00D+00
 Coeff-Com: -0.203D-02 0.168D-02 0.529D-01 0.189D+00 0.758D+00
 Coeff:     -0.203D-02 0.168D-02 0.529D-01 0.189D+00 0.758D+00
 Gap=     0.458 Goal=   None    Shift=    0.000
 RMSDP=7.17D-06 MaxDP=2.32D-04 DE=-8.00D-05 OVMax= 5.42D-04

 Cycle   6  Pass 1  IDiag  1:
 RMSU=  4.52D-06    CP:  1.01D+00  6.79D-01  9.51D-01  8.63D-01  1.02D+00
 FoFJK:  IHMeth= 1 ICntrl=     0 DoSepK=T KAlg= 1 I1Cent= 0 FoldK=F
 E= -2904.95583021038     Delta-E=       -0.000001824793 Rises=F Damp=F
 DIIS: error= 5.50D-05 at cycle   6 NSaved=   6.
 NSaved= 6 IEnMin= 6 EnMin= -2904.95583021038     IErMin= 6 ErrMin= 5.50D-05
 ErrMax= 5.50D-05 EMaxC= 1.00D-01 BMatC= 1.22D-06 BMatP= 3.16D-06
 IDIUse=1 WtCom= 1.00D+00 WtEn= 0.00D+00
 Coeff-Com: -0.706D-03-0.315D-02-0.150D-01-0.532D-02 0.391D+00 0.633D+00
 Coeff:     -0.706D-03-0.315D-02-0.150D-01-0.532D-02 0.391D+00 0.633D+00
 Gap=     0.458 Goal=   None    Shift=    0.000
 RMSDP=3.57D-06 MaxDP=1.26D-04 DE=-1.82D-06 OVMax= 2.42D-04

 Cycle   7  Pass 1  IDiag  1:
 RMSU=  1.81D-06    CP:  1.01D+00  6.79D-01  9.51D-01  8.77D-01  1.12D+00
                    CP:  8.68D-01
 FoFJK:  IHMeth= 1 ICntrl=     0 DoSepK=T KAlg= 1 I1Cent= 0 FoldK=F
 E= -2904.95583100055     Delta-E=       -0.000000790163 Rises=F Damp=F
 DIIS: error= 1.10D-05 at cycle   7 NSaved=   7.
 NSaved= 7 IEnMin= 7 EnMin= -2904.95583100055     IErMin= 7 ErrMin= 1.10D-05
 ErrMax= 1.10D-05 EMaxC= 1.00D-01 BMatC= 4.70D-08 BMatP= 1.22D-06
 IDIUse=1 WtCom= 1.00D+00 WtEn= 0.00D+00
 Coeff-Com: -0.610D-05-0.120D-02-0.108D-01-0.241D-01 0.917D-02 0.174D+00
 Coeff-Com:  0.852D+00
 Coeff:     -0.610D-05-0.120D-02-0.108D-01-0.241D-01 0.917D-02 0.174D+00
 Coeff:      0.852D+00
 Gap=     0.458 Goal=   None    Shift=    0.000
 RMSDP=1.17D-06 MaxDP=4.02D-05 DE=-7.90D-07 OVMax= 8.22D-05

 Cycle   8  Pass 1  IDiag  1:
 RMSU=  3.60D-07    CP:  1.01D+00  6.79D-01  9.52D-01  8.82D-01  1.16D+00
                    CP:  9.82D-01  1.05D+00
 FoFJK:  IHMeth= 1 ICntrl=     0 DoSepK=T KAlg= 1 I1Cent= 0 FoldK=F
 E= -2904.95583103430     Delta-E=       -0.000000033751 Rises=F Damp=F
 DIIS: error= 1.72D-06 at cycle   8 NSaved=   8.
 NSaved= 8 IEnMin= 8 EnMin= -2904.95583103430     IErMin= 8 ErrMin= 1.72D-06
 ErrMax= 1.72D-06 EMaxC= 1.00D-01 BMatC= 7.66D-10 BMatP= 4.70D-08
 IDIUse=1 WtCom= 1.00D+00 WtEn= 0.00D+00
 Coeff-Com:  0.315D-04 0.281D-03 0.195D-02 0.346D-02-0.146D-01-0.477D-01
 Coeff-Com: -0.124D+00 0.118D+01
 Coeff:      0.315D-04 0.281D-03 0.195D-02 0.346D-02-0.146D-01-0.477D-01
 Coeff:     -0.124D+00 0.118D+01
 Gap=     0.458 Goal=   None    Shift=    0.000
 RMSDP=3.25D-07 MaxDP=1.09D-05 DE=-3.38D-08 OVMax= 3.05D-05

 Cycle   9  Pass 1  IDiag  1:
 RMSU=  8.87D-08    CP:  1.01D+00  6.79D-01  9.52D-01  8.83D-01  1.16D+00
                    CP:  1.00D+00  1.11D+00  1.37D+00
 FoFJK:  IHMeth= 1 ICntrl=     0 DoSepK=T KAlg= 1 I1Cent= 0 FoldK=F
 E= -2904.95583105227     Delta-E=       -0.000000017975 Rises=F Damp=F
 DIIS: error= 4.35D-07 at cycle   9 NSaved=   9.
 NSaved= 9 IEnMin= 9 EnMin= -2904.95583105227     IErMin= 9 ErrMin= 4.35D-07
 ErrMax= 4.35D-07 EMaxC= 1.00D-01 BMatC= 4.26D-11 BMatP= 7.66D-10
 IDIUse=1 WtCom= 1.00D+00 WtEn= 0.00D+00
 Coeff-Com: -0.225D-05 0.378D-04 0.389D-03 0.106D-02 0.378D-04-0.706D-02
 Coeff-Com: -0.376D-01-0.897D-02 0.105D+01
 Coeff:     -0.225D-05 0.378D-04 0.389D-03 0.106D-02 0.378D-04-0.706D-02
 Coeff:     -0.376D-01-0.897D-02 0.105D+01
 Gap=     0.458 Goal=   None    Shift=    0.000
 RMSDP=6.33D-08 MaxDP=2.21D-06 DE=-1.80D-08 OVMax= 7.32D-06

 Cycle  10  Pass 1  IDiag  1:
 RMSU=  2.11D-08    CP:  1.01D+00  6.79D-01  9.52D-01  8.83D-01  1.16D+00
                    CP:  1.00D+00  1.11D+00  1.45D+00  1.24D+00
 FoFJK:  IHMeth= 1 ICntrl=     0 DoSepK=T KAlg= 1 I1Cent= 0 FoldK=F
 E= -2904.95583105239     Delta-E=       -0.000000000120 Rises=F Damp=F
 DIIS: error= 1.16D-07 at cycle  10 NSaved=  10.
 NSaved=10 IEnMin=10 EnMin= -2904.95583105239     IErMin=10 ErrMin= 1.16D-07
 ErrMax= 1.16D-07 EMaxC= 1.00D-01 BMatC= 3.25D-12 BMatP= 4.26D-11
 IDIUse=1 WtCom= 1.00D+00 WtEn= 0.00D+00
 Coeff-Com: -0.180D-05-0.161D-04-0.118D-03-0.206D-03 0.103D-02 0.306D-02
 Coeff-Com:  0.644D-02-0.775D-01 0.302D-01 0.104D+01
 Coeff:     -0.180D-05-0.161D-04-0.118D-03-0.206D-03 0.103D-02 0.306D-02
 Coeff:      0.644D-02-0.775D-01 0.302D-01 0.104D+01
 Gap=     0.458 Goal=   None    Shift=    0.000
 RMSDP=1.85D-08 MaxDP=8.84D-07 DE=-1.20D-10 OVMax= 2.09D-06

 Cycle  11  Pass 1  IDiag  1:
 RMSU=  5.90D-09    CP:  1.01D+00  6.79D-01  9.52D-01  8.83D-01  1.16D+00
                    CP:  1.00D+00  1.11D+00  1.46D+00  1.33D+00  1.27D+00
 FoFJK:  IHMeth= 1 ICntrl=     0 DoSepK=T KAlg= 1 I1Cent= 0 FoldK=F
 E= -2904.95583105243     Delta-E=       -0.000000000040 Rises=F Damp=F
 DIIS: error= 2.92D-08 at cycle  11 NSaved=  11.
 NSaved=11 IEnMin=11 EnMin= -2904.95583105243     IErMin=11 ErrMin= 2.92D-08
 ErrMax= 2.92D-08 EMaxC= 1.00D-01 BMatC= 2.83D-13 BMatP= 3.25D-12
 IDIUse=1 WtCom= 1.00D+00 WtEn= 0.00D+00
 Coeff-Com:  0.135D-06-0.362D-05-0.361D-04-0.997D-04 0.794D-04 0.811D-03
 Coeff-Com:  0.314D-02-0.572D-02-0.709D-01 0.542D-01 0.102D+01
 Coeff:      0.135D-06-0.362D-05-0.361D-04-0.997D-04 0.794D-04 0.811D-03
 Coeff:      0.314D-02-0.572D-02-0.709D-01 0.542D-01 0.102D+01
 Gap=     0.458 Goal=   None    Shift=    0.000
 RMSDP=5.39D-09 MaxDP=1.77D-07 DE=-3.96D-11 OVMax= 5.68D-07

 SCF Done:  E(RLC-wPBE) =  -2904.95583105     A.U. after   11 cycles
             Convg  =    0.5392D-08             -V/T =  2.0017
 KE= 2.900049393703D+03 PE=-7.235420421755D+03 EE= 1.281043502588D+03
 Leave Link  502 at Tue May 12 12:47:34 2020, MaxMem= 1073741824 cpu:     286.4
 (Enter /home/matheus/.gaussian/g09/l601.exe)
 Copying SCF densities to generalized density rwf, IOpCl= 0 IROHF=0.

 **********************************************************************

            Population analysis using the SCF density.

 **********************************************************************

 Orbital symmetries:
       Occupied  (A) (A) (A) (A) (A) (A) (A) (A) (A) (A) (A) (A)
                 (A) (A) (A) (A) (A) (A) (A) (A) (A) (A) (A) (A)
                 (A) (A) (A)
       Virtual   (A) (A) (A) (A) (A) (A) (A) (A) (A) (A) (A) (A)
                 (A) (A) (A) (A) (A) (A) (A) (A) (A) (A) (A) (A)
                 (A) (A) (A) (A) (A) (A) (A) (A) (A) (A) (A) (A)
                 (A) (A) (A) (A) (A) (A) (A) (A) (A) (A) (A) (A)
                 (A) (A) (A) (A) (A) (A) (A) (A) (A) (A) (A) (A)
                 (A) (A) (A) (A) (A) (A) (A) (A) (A) (A) (A) (A)
                 (A) (A) (A) (A) (A) (A) (A) (A) (A) (A) (A) (A)
                 (A) (A) (A) (A) (A) (A) (A) (A) (A) (A) (A) (A)
                 (A) (A) (A) (A) (A) (A) (A) (A) (A) (A) (A) (A)
                 (A) (A) (A) (A) (A) (A) (A) (A) (A) (A) (A) (A)
                 (A) (A) (A) (A) (A) (A) (A) (A) (A) (A) (A) (A)
                 (A) (A) (A) (A) (A) (A) (A) (A) (A) (A) (A) (A)
                 (A) (A) (A) (A) (A) (A) (A) (A) (A) (A) (A) (A)
                 (A) (A) (A) (A) (A) (A) (A) (A) (A) (A) (A) (A)
                 (A) (A)
 The electronic state is 1-A.
 Alpha  occ. eigenvalues -- -511.12163 -66.66856 -60.33080 -60.33064 -60.33053
 Alpha  occ. eigenvalues --  -19.03627 -19.03274  -9.60139  -7.34604  -7.34555
 Alpha  occ. eigenvalues --   -7.34526  -3.30142  -3.30133  -3.30112  -3.30076
 Alpha  occ. eigenvalues --   -3.30073  -1.25380  -1.05070  -1.03823  -0.69223
 Alpha  occ. eigenvalues --   -0.60886  -0.55723  -0.52075  -0.51721  -0.50759
 Alpha  occ. eigenvalues --   -0.43094  -0.42661
 Alpha virt. eigenvalues --    0.03107   0.04113   0.08249   0.09433   0.10317
 Alpha virt. eigenvalues --    0.11392   0.13448   0.13818   0.17092   0.17787
 Alpha virt. eigenvalues --    0.18318   0.19201   0.20318   0.22228   0.23845
 Alpha virt. eigenvalues --    0.24830   0.26264   0.28469   0.31394   0.32704
 Alpha virt. eigenvalues --    0.33944   0.35573   0.37124   0.38730   0.39610
 Alpha virt. eigenvalues --    0.40901   0.43158   0.47790   0.53072   0.55276
 Alpha virt. eigenvalues --    0.56078   0.60579   0.61632   0.65081   0.68794
 Alpha virt. eigenvalues --    0.71374   0.71829   0.73773   0.75812   0.76015
 Alpha virt. eigenvalues --    0.77323   0.77742   0.78919   0.80573   0.83168
 Alpha virt. eigenvalues --    0.84750   0.87150   0.89105   0.90228   0.91086
 Alpha virt. eigenvalues --    0.92364   0.93118   0.95262   0.95934   0.98877
 Alpha virt. eigenvalues --    1.00658   1.03669   1.06142   1.06721   1.08516
 Alpha virt. eigenvalues --    1.10227   1.15973   1.18797   1.22459   1.23712
 Alpha virt. eigenvalues --    1.25214   1.28652   1.35513   1.37383   1.40446
 Alpha virt. eigenvalues --    1.44275   1.49096   1.51091   1.54243   1.59170
 Alpha virt. eigenvalues --    1.68819   1.71008   1.82574   1.91237   1.95161
 Alpha virt. eigenvalues --    1.98734   2.03282   2.04908   2.10151   2.13867
 Alpha virt. eigenvalues --    2.16526   2.17968   2.19175   2.22672   2.25936
 Alpha virt. eigenvalues --    2.27499   2.29454   2.30592   2.31142   2.32605
 Alpha virt. eigenvalues --    2.38102   2.38834   2.45504   2.46014   2.47194
 Alpha virt. eigenvalues --    2.49031   2.49159   2.52128   2.56035   2.57277
 Alpha virt. eigenvalues --    2.59908   2.62515   2.67102   2.68215   2.70973
 Alpha virt. eigenvalues --    2.72957   2.74871   2.77079   2.83998   2.87568
 Alpha virt. eigenvalues --    2.94759   3.04208   3.10743   3.13321   3.61699
 Alpha virt. eigenvalues --    3.63987   3.90086   3.92335   3.99182   4.07829
 Alpha virt. eigenvalues --    4.16480   4.18227   4.19573   4.24169   4.28126
 Alpha virt. eigenvalues --    4.32880   4.48033   4.49903   4.55050   4.68729
 Alpha virt. eigenvalues --    4.90292   4.96358   4.98253   5.14607   5.15597
 Alpha virt. eigenvalues --    5.19904   5.41738   5.83077   6.02253   6.12155
 Alpha virt. eigenvalues --    6.17998   6.26958   6.28665   6.44302   6.46617
 Alpha virt. eigenvalues --    6.57200   6.75049   6.75778   6.78965   6.82107
 Alpha virt. eigenvalues --    6.85986   6.87447   6.89259   6.96104   6.98303
 Alpha virt. eigenvalues --    7.05078   7.10785   7.21250   7.43075   7.58060
 Alpha virt. eigenvalues --    7.76604   8.07064   8.09622  13.97834  14.57402
          Condensed to atoms (all electrons):
              1          2          3          4          5
     1  O    8.263408  -0.230314   0.191501   0.003380  -0.023008
     2  O   -0.230314   8.267348   0.015236   0.191318  -0.012293
     3  H    0.191501   0.015236   0.584838   0.000845  -0.002178
     4  H    0.003380   0.191318   0.000845   0.598684  -0.011965
     5  Kr  -0.023008  -0.012293  -0.002178  -0.011965  36.040679
 Mulliken atomic charges:
              1
     1  O   -0.204967
     2  O   -0.231295
     3  H    0.209758
     4  H    0.217739
     5  Kr   0.008765
 Sum of Mulliken atomic charges =   0.00000
 Mulliken charges with hydrogens summed into heavy atoms:
              1
     1  O    0.004791
     2  O   -0.013556
     5  Kr   0.008765
 Sum of Mulliken charges with hydrogens summed into heavy atoms =   0.00000
          Condensed to fragments (all electrons):
     1      -0.008765
     2       0.008765
 Electronic spatial extent (au):  <R**2>=            484.1611
 Charge=              0.0000 electrons
 Dipole moment (field-independent basis, Debye):
    X=             -1.7713    Y=             -0.4005    Z=              1.4961  Tot=              2.3529
 Quadrupole moment (field-independent basis, Debye-Ang):
   XX=            -34.7845   YY=            -27.9075   ZZ=            -29.0099
   XY=             -2.3000   XZ=              3.2540   YZ=             -1.8544
 Traceless Quadrupole moment (field-independent basis, Debye-Ang):
   XX=             -4.2172   YY=              2.6598   ZZ=              1.5574
   XY=             -2.3000   XZ=              3.2540   YZ=             -1.8544
 Octapole moment (field-independent basis, Debye-Ang**2):
  XXX=            -34.7352  YYY=             -1.1089  ZZZ=              1.2211  XYY=             -5.2574
  XXY=             -7.2114  XXZ=              6.4211  XZZ=             -5.4594  YZZ=             -1.9040
  YYZ=              2.3244  XYZ=             -3.9518
 Hexadecapole moment (field-independent basis, Debye-Ang**3):
 XXXX=           -452.5370 YYYY=            -63.2085 ZZZZ=            -29.8021 XXXY=            -15.5738
 XXXZ=             14.1880 YYYX=             -4.2796 YYYZ=             -2.7346 ZZZX=              3.0470
 ZZZY=             -2.0301 XXYY=            -80.8009 XXZZ=            -71.8598 YYZZ=            -15.9185
 XXYZ=             -8.5330 YYXZ=              4.7839 ZZXY=             -3.6867
 N-N= 1.493716944117D+02 E-N=-7.235420424720D+03  KE= 2.900049393703D+03
 No NMR shielding tensors so no spin-rotation constants.
 Leave Link  601 at Tue May 12 12:47:34 2020, MaxMem= 1073741824 cpu:       0.7
 (Enter /home/matheus/.gaussian/g09/l122.exe)
 Counterpoise: doing DCBS calculation for fragment   1 NewBq=T
 Leave Link  122 at Tue May 12 12:47:34 2020, MaxMem= 1073741824 cpu:       0.0
 (Enter /home/matheus/.gaussian/g09/l301.exe)
 Basis read from rwf:  (5D, 7F)
 No pseudopotential information found on rwf file.
 There are   197 symmetry adapted basis functions of A   symmetry.
 Integral buffers will be    131072 words long.
 Raffenetti 2 integral format.
 Two-electron integral symmetry is turned on.
   197 basis functions,   415 primitive gaussians,   229 cartesian basis functions
     9 alpha electrons        9 beta electrons
       nuclear repulsion energy        36.6265003879 Hartrees.
 IExCor=32609 DFT=T Ex+Corr=LC-wPBE ExCW=0 ScaHFX=  1.000000
 ScaDFX=  1.000000  0.000000  1.000000  1.000000 ScalE2=  1.000000  1.000000
 IRadAn=      5 IRanWt=     -1 IRanGd=            0 ICorTp=0
  HFx wShort=  0.000000 wLong=  0.400000 cFull=  0.000000 cShort=  0.000000 cLong=  1.000000
  DFx wShort=  0.000000 wLong=  0.400000 cFull=  0.000000 cShort=  0.000000 cLong=  1.000000
 NAtoms=    5 NActive=    5 NUniq=    5 SFac= 1.00D+00 NAtFMM=   60 NAOKFM=F Big=F
 No density basis found on file   718.
 Leave Link  301 at Tue May 12 12:47:34 2020, MaxMem= 1073741824 cpu:       0.2
 (Enter /home/matheus/.gaussian/g09/l302.exe)
 NPDir=0 NMtPBC=     1 NCelOv=     1 NCel=       1 NClECP=     1 NCelD=      1
         NCelK=      1 NCelE2=     1 NClLst=     1 CellRange=     0.0.
 One-electron integrals computed using PRISM.
 NBasis=   197 RedAO= T  NBF=   197
 NBsUse=   197 1.00D-06 NBFU=   197
 Precomputing XC quadrature grid using
 IXCGrd= 2 IRadAn=           5 IRanWt=          -1 IRanGd=           0 AccXCQ= 0.00D+00.
 NRdTot=     427 NPtTot=      123512 NUsed=      126579 NTot=      126611
 NSgBfM=   229   229   229   229   229 NAtAll=     5     5.
 Leave Link  302 at Tue May 12 12:47:34 2020, MaxMem= 1073741824 cpu:       1.0
 (Enter /home/matheus/.gaussian/g09/l303.exe)
 DipDrv:  MaxL=1.
 Leave Link  303 at Tue May 12 12:47:35 2020, MaxMem= 1073741824 cpu:       0.2
 (Enter /home/matheus/.gaussian/g09/l401.exe)
 Harris functional with IExCor=32609 diagonalized for initial guess.
 ExpMin= 2.53D-02 ExpMax= 1.17D+07 ExpMxC= 1.33D+04 IAcc=3 IRadAn=         5 AccDes= 0.00D+00
 HarFok:  IExCor=32609 AccDes= 0.00D+00 IRadAn=         5 IDoV= 1
 ScaDFX=  1.000000  1.000000  1.000000  1.000000
 FoFCou: FMM=F IPFlag=           0 FMFlag=      100000 FMFlg1=           0
         NFxFlg=           0 DoJE=T BraDBF=F KetDBF=T FulRan=T
         Omega=  0.000000  0.000000  1.000000  0.000000  0.000000 ICntrl=     500 IOpCl=  0
         NMat0=    1 NMatS0=    1 NMatT0=    0 NMatD0=    1 NMtDS0=    0 NMtDT0=    0
         I1Cent=           4 NGrid=           0.
 Petite list used in FoFCou.
 Harris En= -151.502821245063    
 Initial guess orbital symmetries:
       Occupied  (A) (A) (A) (A) (A) (A) (A) (A) (A)
       Virtual   (A) (A) (A) (A) (A) (A) (A) (A) (A) (A) (A) (A)
                 (A) (A) (A) (A) (A) (A) (A) (A) (A) (A) (A) (A)
                 (A) (A) (A) (A) (A) (A) (A) (A) (A) (A) (A) (A)
                 (A) (A) (A) (A) (A) (A) (A) (A) (A) (A) (A) (A)
                 (A) (A) (A) (A) (A) (A) (A) (A) (A) (A) (A) (A)
                 (A) (A) (A) (A) (A) (A) (A) (A) (A) (A) (A) (A)
                 (A) (A) (A) (A) (A) (A) (A) (A) (A) (A) (A) (A)
                 (A) (A) (A) (A) (A) (A) (A) (A) (A) (A) (A) (A)
                 (A) (A) (A) (A) (A) (A) (A) (A) (A) (A) (A) (A)
                 (A) (A) (A) (A) (A) (A) (A) (A) (A) (A) (A) (A)
                 (A) (A) (A) (A) (A) (A) (A) (A) (A) (A) (A) (A)
                 (A) (A) (A) (A) (A) (A) (A) (A) (A) (A) (A) (A)
                 (A) (A) (A) (A) (A) (A) (A) (A) (A) (A) (A) (A)
                 (A) (A) (A) (A) (A) (A) (A) (A) (A) (A) (A) (A)
                 (A) (A) (A) (A) (A) (A) (A) (A) (A) (A) (A) (A)
                 (A) (A) (A) (A) (A) (A) (A) (A)
 The electronic state of the initial guess is 1-A.
 Leave Link  401 at Tue May 12 12:47:35 2020, MaxMem= 1073741824 cpu:       4.7
 (Enter /home/matheus/.gaussian/g09/l502.exe)
 Closed shell SCF:
 Requested convergence on RMS density matrix=1.00D-08 within 128 cycles.
 Requested convergence on MAX density matrix=1.00D-06.
 Requested convergence on             energy=1.00D-06.
 No special actions if energy rises.
 Using DIIS extrapolation, IDIIS=  1040.
 Integral symmetry usage will be decided dynamically.
       126521 words used for storage of precomputed grid.
 IEnd=      305468 IEndB=      305468 NGot=  1073741824 MDV=  1073505667
 LenX=  1073505667 LenY=  1073452785
 Fock matrices will be formed incrementally for  20 cycles.

 Cycle   1  Pass 1  IDiag  1:
 FoFJK:  IHMeth= 1 ICntrl=     0 DoSepK=T KAlg= 1 I1Cent= 0 FoldK=F
 FoFCou: FMM=F IPFlag=           0 FMFlag=      100000 FMFlg1=           0
         NFxFlg=           0 DoJE=T BraDBF=F KetDBF=F FulRan=T
         Omega=  0.000000  0.000000  1.000000  0.000000  0.000000 ICntrl=     500 IOpCl=  0
         NMat0=    1 NMatS0=    1 NMatT0=    0 NMatD0=    1 NMtDS0=    0 NMtDT0=    0
         I1Cent=           0 NGrid=           0.
 Symmetry not used in FoFCou.
 E= -151.498489897035    
 DIIS: error= 1.39D-02 at cycle   1 NSaved=   1.
 NSaved= 1 IEnMin= 1 EnMin= -151.498489897035     IErMin= 1 ErrMin= 1.39D-02
 ErrMax= 1.39D-02 EMaxC= 1.00D-01 BMatC= 3.89D-02 BMatP= 3.89D-02
 IDIUse=3 WtCom= 8.61D-01 WtEn= 1.39D-01
 Coeff-Com:  0.100D+01
 Coeff-En:   0.100D+01
 Coeff:      0.100D+01
 Gap=     0.521 Goal=   None    Shift=    0.000
 GapD=    0.521 DampG=2.000 DampE=0.500 DampFc=1.0000 IDamp=-1.
 RMSDP=8.34D-04 MaxDP=2.39D-02              OVMax= 5.76D-02

 Cycle   2  Pass 1  IDiag  1:
 RMSU=  5.85D-04    CP:  9.89D-01
 FoFJK:  IHMeth= 1 ICntrl=     0 DoSepK=T KAlg= 1 I1Cent= 0 FoldK=F
 E= -151.512139799354     Delta-E=       -0.013649902319 Rises=F Damp=F
 DIIS: error= 9.45D-03 at cycle   2 NSaved=   2.
 NSaved= 2 IEnMin= 2 EnMin= -151.512139799354     IErMin= 2 ErrMin= 9.45D-03
 ErrMax= 9.45D-03 EMaxC= 1.00D-01 BMatC= 2.19D-02 BMatP= 3.89D-02
 IDIUse=3 WtCom= 9.05D-01 WtEn= 9.45D-02
 Coeff-Com:  0.421D+00 0.579D+00
 Coeff-En:   0.259D+00 0.741D+00
 Coeff:      0.406D+00 0.594D+00
 Gap=     0.458 Goal=   None    Shift=    0.000
 RMSDP=4.58D-04 MaxDP=2.34D-02 DE=-1.36D-02 OVMax= 2.63D-02

 Cycle   3  Pass 1  IDiag  1:
 RMSU=  2.42D-04    CP:  9.85D-01  6.36D-01
 FoFJK:  IHMeth= 1 ICntrl=     0 DoSepK=T KAlg= 1 I1Cent= 0 FoldK=F
 E= -151.524878674082     Delta-E=       -0.012738874728 Rises=F Damp=F
 DIIS: error= 1.43D-03 at cycle   3 NSaved=   3.
 NSaved= 3 IEnMin= 3 EnMin= -151.524878674082     IErMin= 3 ErrMin= 1.43D-03
 ErrMax= 1.43D-03 EMaxC= 1.00D-01 BMatC= 3.99D-04 BMatP= 2.19D-02
 IDIUse=3 WtCom= 9.86D-01 WtEn= 1.43D-02
 Coeff-Com:  0.649D-01 0.150D+00 0.785D+00
 Coeff-En:   0.000D+00 0.000D+00 0.100D+01
 Coeff:      0.639D-01 0.148D+00 0.788D+00
 Gap=     0.452 Goal=   None    Shift=    0.000
 RMSDP=5.75D-05 MaxDP=2.22D-03 DE=-1.27D-02 OVMax= 3.98D-03

 Cycle   4  Pass 1  IDiag  1:
 RMSU=  2.87D-05    CP:  9.83D-01  6.80D-01  1.02D+00
 FoFJK:  IHMeth= 1 ICntrl=     0 DoSepK=T KAlg= 1 I1Cent= 0 FoldK=F
 E= -151.525123428709     Delta-E=       -0.000244754627 Rises=F Damp=F
 DIIS: error= 1.95D-04 at cycle   4 NSaved=   4.
 NSaved= 4 IEnMin= 4 EnMin= -151.525123428709     IErMin= 4 ErrMin= 1.95D-04
 ErrMax= 1.95D-04 EMaxC= 1.00D-01 BMatC= 1.38D-05 BMatP= 3.99D-04
 IDIUse=3 WtCom= 9.98D-01 WtEn= 1.95D-03
 Coeff-Com: -0.498D-02-0.907D-02 0.117D+00 0.897D+00
 Coeff-En:   0.000D+00 0.000D+00 0.000D+00 0.100D+01
 Coeff:     -0.497D-02-0.906D-02 0.117D+00 0.897D+00
 Gap=     0.454 Goal=   None    Shift=    0.000
 RMSDP=1.37D-05 MaxDP=8.50D-04 DE=-2.45D-04 OVMax= 7.33D-04

 Cycle   5  Pass 1  IDiag  1:
 RMSU=  5.64D-06    CP:  9.83D-01  6.78D-01  1.05D+00  1.01D+00
 FoFJK:  IHMeth= 1 ICntrl=     0 DoSepK=T KAlg= 1 I1Cent= 0 FoldK=F
 E= -151.525132968479     Delta-E=       -0.000009539769 Rises=F Damp=F
 DIIS: error= 2.82D-05 at cycle   5 NSaved=   5.
 NSaved= 5 IEnMin= 5 EnMin= -151.525132968479     IErMin= 5 ErrMin= 2.82D-05
 ErrMax= 2.82D-05 EMaxC= 1.00D-01 BMatC= 1.17D-07 BMatP= 1.38D-05
 IDIUse=1 WtCom= 1.00D+00 WtEn= 0.00D+00
 Coeff-Com: -0.886D-03-0.240D-02-0.283D-01-0.827D-01 0.111D+01
 Coeff:     -0.886D-03-0.240D-02-0.283D-01-0.827D-01 0.111D+01
 Gap=     0.455 Goal=   None    Shift=    0.000
 RMSDP=3.06D-06 MaxDP=1.10D-04 DE=-9.54D-06 OVMax= 2.61D-04

 Cycle   6  Pass 1  IDiag  1:
 RMSU=  9.55D-07    CP:  9.83D-01  6.79D-01  1.05D+00  1.04D+00  1.30D+00
 FoFJK:  IHMeth= 1 ICntrl=     0 DoSepK=T KAlg= 1 I1Cent= 0 FoldK=F
 E= -151.525133257474     Delta-E=       -0.000000288996 Rises=F Damp=F
 DIIS: error= 6.81D-06 at cycle   6 NSaved=   6.
 NSaved= 6 IEnMin= 6 EnMin= -151.525133257474     IErMin= 6 ErrMin= 6.81D-06
 ErrMax= 6.81D-06 EMaxC= 1.00D-01 BMatC= 5.35D-09 BMatP= 1.17D-07
 IDIUse=1 WtCom= 1.00D+00 WtEn= 0.00D+00
 Coeff-Com:  0.153D-03 0.377D-03-0.949D-03-0.145D-01-0.501D-01 0.106D+01
 Coeff:      0.153D-03 0.377D-03-0.949D-03-0.145D-01-0.501D-01 0.106D+01
 Gap=     0.455 Goal=   None    Shift=    0.000
 RMSDP=6.03D-07 MaxDP=1.92D-05 DE=-2.89D-07 OVMax= 8.58D-05

 Cycle   7  Pass 1  IDiag  1:
 RMSU=  2.28D-07    CP:  9.83D-01  6.79D-01  1.05D+00  1.04D+00  1.35D+00
                    CP:  1.22D+00
 FoFJK:  IHMeth= 1 ICntrl=     0 DoSepK=T KAlg= 1 I1Cent= 0 FoldK=F
 E= -151.525133271262     Delta-E=       -0.000000013787 Rises=F Damp=F
 DIIS: error= 2.18D-06 at cycle   7 NSaved=   7.
 NSaved= 7 IEnMin= 7 EnMin= -151.525133271262     IErMin= 7 ErrMin= 2.18D-06
 ErrMax= 2.18D-06 EMaxC= 1.00D-01 BMatC= 5.90D-10 BMatP= 5.35D-09
 IDIUse=1 WtCom= 1.00D+00 WtEn= 0.00D+00
 Coeff-Com:  0.424D-04 0.115D-03 0.142D-02 0.496D-02-0.667D-01-0.434D-01
 Coeff-Com:  0.110D+01
 Coeff:      0.424D-04 0.115D-03 0.142D-02 0.496D-02-0.667D-01-0.434D-01
 Coeff:      0.110D+01
 Gap=     0.455 Goal=   None    Shift=    0.000
 RMSDP=2.11D-07 MaxDP=5.72D-06 DE=-1.38D-08 OVMax= 3.64D-05

 Cycle   8  Pass 1  IDiag  1:
 RMSU=  6.09D-08    CP:  9.83D-01  6.79D-01  1.05D+00  1.04D+00  1.36D+00
                    CP:  1.31D+00  1.37D+00
 FoFJK:  IHMeth= 1 ICntrl=     0 DoSepK=T KAlg= 1 I1Cent= 0 FoldK=F
 E= -151.525133273395     Delta-E=       -0.000000002133 Rises=F Damp=F
 DIIS: error= 6.62D-07 at cycle   8 NSaved=   8.
 NSaved= 8 IEnMin= 8 EnMin= -151.525133273395     IErMin= 8 ErrMin= 6.62D-07
 ErrMax= 6.62D-07 EMaxC= 1.00D-01 BMatC= 1.27D-10 BMatP= 5.90D-10
 IDIUse=1 WtCom= 1.00D+00 WtEn= 0.00D+00
 Coeff-Com:  0.265D-05 0.397D-05 0.381D-03 0.219D-02-0.136D-01-0.763D-01
 Coeff-Com:  0.290D+00 0.797D+00
 Coeff:      0.265D-05 0.397D-05 0.381D-03 0.219D-02-0.136D-01-0.763D-01
 Coeff:      0.290D+00 0.797D+00
 Gap=     0.455 Goal=   None    Shift=    0.000
 RMSDP=6.07D-08 MaxDP=2.45D-06 DE=-2.13D-09 OVMax= 8.53D-06

 Cycle   9  Pass 1  IDiag  1:
 RMSU=  3.28D-08    CP:  9.83D-01  6.79D-01  1.05D+00  1.04D+00  1.36D+00
                    CP:  1.31D+00  1.47D+00  1.14D+00
 FoFJK:  IHMeth= 1 ICntrl=     0 DoSepK=T KAlg= 1 I1Cent= 0 FoldK=F
 E= -151.525133273577     Delta-E=       -0.000000000183 Rises=F Damp=F
 DIIS: error= 3.61D-07 at cycle   9 NSaved=   9.
 NSaved= 9 IEnMin= 9 EnMin= -151.525133273577     IErMin= 9 ErrMin= 3.61D-07
 ErrMax= 3.61D-07 EMaxC= 1.00D-01 BMatC= 6.51D-11 BMatP= 1.27D-10
 IDIUse=1 WtCom= 1.00D+00 WtEn= 0.00D+00
 Coeff-Com: -0.104D-04-0.323D-04-0.237D-03-0.334D-03 0.131D-01-0.257D-01
 Coeff-Com: -0.186D+00 0.460D+00 0.739D+00
 Coeff:     -0.104D-04-0.323D-04-0.237D-03-0.334D-03 0.131D-01-0.257D-01
 Coeff:     -0.186D+00 0.460D+00 0.739D+00
 Gap=     0.455 Goal=   None    Shift=    0.000
 RMSDP=3.64D-08 MaxDP=1.47D-06 DE=-1.83D-10 OVMax= 4.90D-06

 Cycle  10  Pass 1  IDiag  1:
 RMSU=  1.10D-08    CP:  9.83D-01  6.80D-01  1.05D+00  1.04D+00  1.36D+00
                    CP:  1.32D+00  1.53D+00  1.41D+00  9.86D-01
 FoFJK:  IHMeth= 1 ICntrl=     0 DoSepK=T KAlg= 1 I1Cent= 0 FoldK=F
 E= -151.525133273657     Delta-E=       -0.000000000079 Rises=F Damp=F
 DIIS: error= 6.75D-08 at cycle  10 NSaved=  10.
 NSaved=10 IEnMin=10 EnMin= -151.525133273657     IErMin=10 ErrMin= 6.75D-08
 ErrMax= 6.75D-08 EMaxC= 1.00D-01 BMatC= 1.12D-12 BMatP= 6.51D-11
 IDIUse=1 WtCom= 1.00D+00 WtEn= 0.00D+00
 Coeff-Com:  0.491D-06 0.157D-05-0.269D-04-0.207D-03 0.807D-03 0.871D-02
 Coeff-Com: -0.335D-01-0.690D-01-0.191D-01 0.111D+01
 Coeff:      0.491D-06 0.157D-05-0.269D-04-0.207D-03 0.807D-03 0.871D-02
 Coeff:     -0.335D-01-0.690D-01-0.191D-01 0.111D+01
 Gap=     0.455 Goal=   None    Shift=    0.000
 RMSDP=1.25D-08 MaxDP=2.85D-07 DE=-7.93D-11 OVMax= 1.64D-06

 Cycle  11  Pass 1  IDiag  1:
 RMSU=  2.40D-09    CP:  9.83D-01  6.80D-01  1.05D+00  1.04D+00  1.36D+00
                    CP:  1.32D+00  1.54D+00  1.48D+00  1.11D+00  1.37D+00
 FoFJK:  IHMeth= 1 ICntrl=     0 DoSepK=T KAlg= 1 I1Cent= 0 FoldK=F
 E= -151.525133273660     Delta-E=       -0.000000000004 Rises=F Damp=F
 DIIS: error= 1.85D-08 at cycle  11 NSaved=  11.
 NSaved=11 IEnMin=11 EnMin= -151.525133273660     IErMin=11 ErrMin= 1.85D-08
 ErrMax= 1.85D-08 EMaxC= 1.00D-01 BMatC= 6.59D-14 BMatP= 1.12D-12
 IDIUse=1 WtCom= 1.00D+00 WtEn= 0.00D+00
 Coeff-Com:  0.795D-06 0.253D-05 0.190D-04 0.364D-04-0.984D-03 0.171D-02
 Coeff-Com:  0.148D-01-0.128D-01-0.366D-01-0.209D+00 0.124D+01
 Coeff:      0.795D-06 0.253D-05 0.190D-04 0.364D-04-0.984D-03 0.171D-02
 Coeff:      0.148D-01-0.128D-01-0.366D-01-0.209D+00 0.124D+01
 Gap=     0.455 Goal=   None    Shift=    0.000
 RMSDP=4.05D-09 MaxDP=1.53D-07 DE=-3.64D-12 OVMax= 4.98D-07

 SCF Done:  E(RLC-wPBE) =  -151.525133274     A.U. after   11 cycles
             Convg  =    0.4055D-08             -V/T =  2.0068
 KE= 1.505087584791D+02 PE=-4.315194138571D+02 EE= 9.285902171643D+01
 Leave Link  502 at Tue May 12 12:48:10 2020, MaxMem= 1073741824 cpu:     276.4
 (Enter /home/matheus/.gaussian/g09/l601.exe)
 Copying SCF densities to generalized density rwf, IOpCl= 0 IROHF=0.

 **********************************************************************

            Population analysis using the SCF density.

 **********************************************************************

 Orbital symmetries:
       Occupied  (A) (A) (A) (A) (A) (A) (A) (A) (A)
       Virtual   (A) (A) (A) (A) (A) (A) (A) (A) (A) (A) (A) (A)
                 (A) (A) (A) (A) (A) (A) (A) (A) (A) (A) (A) (A)
                 (A) (A) (A) (A) (A) (A) (A) (A) (A) (A) (A) (A)
                 (A) (A) (A) (A) (A) (A) (A) (A) (A) (A) (A) (A)
                 (A) (A) (A) (A) (A) (A) (A) (A) (A) (A) (A) (A)
                 (A) (A) (A) (A) (A) (A) (A) (A) (A) (A) (A) (A)
                 (A) (A) (A) (A) (A) (A) (A) (A) (A) (A) (A) (A)
                 (A) (A) (A) (A) (A) (A) (A) (A) (A) (A) (A) (A)
                 (A) (A) (A) (A) (A) (A) (A) (A) (A) (A) (A) (A)
                 (A) (A) (A) (A) (A) (A) (A) (A) (A) (A) (A) (A)
                 (A) (A) (A) (A) (A) (A) (A) (A) (A) (A) (A) (A)
                 (A) (A) (A) (A) (A) (A) (A) (A) (A) (A) (A) (A)
                 (A) (A) (A) (A) (A) (A) (A) (A) (A) (A) (A) (A)
                 (A) (A) (A) (A) (A) (A) (A) (A) (A) (A) (A) (A)
                 (A) (A) (A) (A) (A) (A) (A) (A) (A) (A) (A) (A)
                 (A) (A) (A) (A) (A) (A) (A) (A)
 The electronic state is 1-A.
 Alpha  occ. eigenvalues --  -19.03834 -19.03831  -1.25614  -1.04208  -0.69315
 Alpha  occ. eigenvalues --   -0.60445  -0.55504  -0.43443  -0.42998
 Alpha virt. eigenvalues --    0.02459   0.03633   0.07043   0.08328   0.10053
 Alpha virt. eigenvalues --    0.10329   0.10709   0.13832   0.16862   0.17432
 Alpha virt. eigenvalues --    0.18530   0.18683   0.20761   0.22720   0.25339
 Alpha virt. eigenvalues --    0.27034   0.30788   0.31299   0.32297   0.33624
 Alpha virt. eigenvalues --    0.34126   0.37284   0.37375   0.39360   0.40575
 Alpha virt. eigenvalues --    0.43179   0.44340   0.46729   0.47933   0.49638
 Alpha virt. eigenvalues --    0.53283   0.57937   0.60930   0.62255   0.66435
 Alpha virt. eigenvalues --    0.70887   0.74639   0.76460   0.77837   0.79525
 Alpha virt. eigenvalues --    0.80899   0.81496   0.88957   0.89389   0.90957
 Alpha virt. eigenvalues --    0.91609   0.93152   0.94537   0.96405   0.96931
 Alpha virt. eigenvalues --    0.99690   1.00734   1.05006   1.09660   1.12826
 Alpha virt. eigenvalues --    1.13382   1.15543   1.20943   1.22312   1.23911
 Alpha virt. eigenvalues --    1.26250   1.28743   1.30026   1.31454   1.32982
 Alpha virt. eigenvalues --    1.34017   1.34614   1.37938   1.38979   1.41793
 Alpha virt. eigenvalues --    1.44570   1.48127   1.49193   1.51660   1.55345
 Alpha virt. eigenvalues --    1.59338   1.65926   1.66676   1.71045   1.77963
 Alpha virt. eigenvalues --    1.82413   1.85747   1.93760   1.96597   2.03605
 Alpha virt. eigenvalues --    2.04613   2.06640   2.15314   2.19831   2.23571
 Alpha virt. eigenvalues --    2.26794   2.30050   2.35418   2.37273   2.37878
 Alpha virt. eigenvalues --    2.47148   2.52307   2.55179   2.60922   2.64071
 Alpha virt. eigenvalues --    2.67788   2.71310   2.79875   2.85419   2.93618
 Alpha virt. eigenvalues --    3.02750   3.09847   3.11066   3.25812   3.29956
 Alpha virt. eigenvalues --    3.40373   3.53982   3.58480   3.66693   3.78224
 Alpha virt. eigenvalues --    3.78392   3.81585   3.81902   3.82338   3.83324
 Alpha virt. eigenvalues --    3.86299   3.89023   3.92635   3.94328   3.96001
 Alpha virt. eigenvalues --    3.97202   4.00996   4.04766   4.10549   4.17605
 Alpha virt. eigenvalues --    4.19049   4.19734   4.25350   4.29875   4.34721
 Alpha virt. eigenvalues --    4.39899   4.49278   4.55905   4.68812   4.90473
 Alpha virt. eigenvalues --    4.96519   4.98611   5.14639   5.15908   5.20233
 Alpha virt. eigenvalues --    5.41569   5.82933   6.01796   6.12158   6.17835
 Alpha virt. eigenvalues --    6.26875   6.28558   6.44195   6.46528   6.57021
 Alpha virt. eigenvalues --    6.74887   6.75476   6.78568   6.81839   6.85855
 Alpha virt. eigenvalues --    6.87162   6.89031   6.95881   6.98099   7.04919
 Alpha virt. eigenvalues --    7.10539   7.21060   7.42856   7.57841   7.76340
 Alpha virt. eigenvalues --    8.06748   8.08853  10.87739  13.97429  14.56858
 Alpha virt. eigenvalues --   14.83228  14.87677  15.09337  29.02938  29.03043
 Alpha virt. eigenvalues --   29.07806  29.13079  29.22804  49.09110 148.31438
 Alpha virt. eigenvalues --  148.38123 148.70324 752.47235
          Condensed to atoms (all electrons):
              1          2          3          4          5
     1  O    8.235176  -0.224302   0.187677   0.001391  -0.000273
     2  O   -0.224302   8.233678   0.016032   0.192500  -0.000521
     3  H    0.187677   0.016032   0.597202   0.001849  -0.000943
     4  H    0.001391   0.192500   0.001849   0.594574  -0.004187
     5  Kr  -0.000273  -0.000521  -0.000943  -0.004187   0.000924
 Mulliken atomic charges:
              1
     1  O   -0.199669
     2  O   -0.217387
     3  H    0.198183
     4  H    0.213873
     5  Kr   0.005000
 Sum of Mulliken atomic charges =   0.00000
 Mulliken charges with hydrogens summed into heavy atoms:
              1
     1  O   -0.001486
     2  O   -0.003514
     5  Kr   0.005000
 Sum of Mulliken charges with hydrogens summed into heavy atoms =   0.00000
          Condensed to fragments (all electrons):
     1      -0.005000
     2       0.005000
 Electronic spatial extent (au):  <R**2>=            320.7277
 Charge=              0.0000 electrons
 Dipole moment (field-independent basis, Debye):
    X=             -1.5615    Y=             -0.1677    Z=              1.6086  Tot=              2.2481
 Quadrupole moment (field-independent basis, Debye-Ang):
   XX=            -17.2061   YY=            -10.3217   ZZ=            -11.4824
   XY=             -2.4271   XZ=              3.1726   YZ=             -1.8699
 Traceless Quadrupole moment (field-independent basis, Debye-Ang):
   XX=             -4.2027   YY=              2.6817   ZZ=              1.5210
   XY=             -2.4271   XZ=              3.1726   YZ=             -1.8699
 Octapole moment (field-independent basis, Debye-Ang**2):
  XXX=            -85.4013  YYY=             -1.3291  ZZZ=              1.3955  XYY=            -22.3766
  XXY=             -7.0880  XXZ=              6.5369  XZZ=            -22.6242  YZZ=             -1.9815
  YYZ=              2.3830  XYZ=             -3.9577
 Hexadecapole moment (field-independent basis, Debye-Ang**3):
 XXXX=           -331.2990 YYYY=            -45.0591 ZZZZ=            -11.7342 XXXY=            -15.1881
 XXXZ=             13.9910 YYYX=             -4.0399 YYYZ=             -2.7650 ZZZX=              2.9246
 ZZZY=             -2.0593 XXYY=            -57.6190 XXZZ=            -48.8274 YYZZ=             -9.8748
 XXYZ=             -8.5528 YYXZ=              4.7324 ZZXY=             -3.5767
 N-N= 3.662650038791D+01 E-N=-4.315194138005D+02  KE= 1.505087584791D+02
 No NMR shielding tensors so no spin-rotation constants.
 Leave Link  601 at Tue May 12 12:48:10 2020, MaxMem= 1073741824 cpu:       0.9
 (Enter /home/matheus/.gaussian/g09/l122.exe)
 Counterpoise: doing DCBS calculation for fragment   2 NewBq=T
 Leave Link  122 at Tue May 12 12:48:10 2020, MaxMem= 1073741824 cpu:       0.0
 (Enter /home/matheus/.gaussian/g09/l301.exe)
 Basis read from rwf:  (5D, 7F)
 No pseudopotential information found on rwf file.
 There are   197 symmetry adapted basis functions of A   symmetry.
 Integral buffers will be    131072 words long.
 Raffenetti 2 integral format.
 Two-electron integral symmetry is turned on.
   197 basis functions,   415 primitive gaussians,   229 cartesian basis functions
    18 alpha electrons       18 beta electrons
       nuclear repulsion energy         0.0000000000 Hartrees.
 IExCor=32609 DFT=T Ex+Corr=LC-wPBE ExCW=0 ScaHFX=  1.000000
 ScaDFX=  1.000000  0.000000  1.000000  1.000000 ScalE2=  1.000000  1.000000
 IRadAn=      5 IRanWt=     -1 IRanGd=            0 ICorTp=0
  HFx wShort=  0.000000 wLong=  0.400000 cFull=  0.000000 cShort=  0.000000 cLong=  1.000000
  DFx wShort=  0.000000 wLong=  0.400000 cFull=  0.000000 cShort=  0.000000 cLong=  1.000000
 NAtoms=    5 NActive=    5 NUniq=    5 SFac= 1.00D+00 NAtFMM=   60 NAOKFM=F Big=F
 No density basis found on file   718.
 Leave Link  301 at Tue May 12 12:48:10 2020, MaxMem= 1073741824 cpu:       0.2
 (Enter /home/matheus/.gaussian/g09/l302.exe)
 NPDir=0 NMtPBC=     1 NCelOv=     1 NCel=       1 NClECP=     1 NCelD=      1
         NCelK=      1 NCelE2=     1 NClLst=     1 CellRange=     0.0.
 One-electron integrals computed using PRISM.
 NBasis=   197 RedAO= T  NBF=   197
 NBsUse=   197 1.00D-06 NBFU=   197
 Precomputing XC quadrature grid using
 IXCGrd= 2 IRadAn=           5 IRanWt=          -1 IRanGd=           0 AccXCQ= 0.00D+00.
 NRdTot=     427 NPtTot=      123512 NUsed=      126579 NTot=      126611
 NSgBfM=   229   229   229   229   229 NAtAll=     5     5.
 Leave Link  302 at Tue May 12 12:48:10 2020, MaxMem= 1073741824 cpu:       1.0
 (Enter /home/matheus/.gaussian/g09/l303.exe)
 DipDrv:  MaxL=1.
 Leave Link  303 at Tue May 12 12:48:10 2020, MaxMem= 1073741824 cpu:       0.2
 (Enter /home/matheus/.gaussian/g09/l401.exe)
 Harris functional with IExCor=32609 diagonalized for initial guess.
 ExpMin= 2.53D-02 ExpMax= 1.17D+07 ExpMxC= 1.33D+04 IAcc=3 IRadAn=         5 AccDes= 0.00D+00
 HarFok:  IExCor=32609 AccDes= 0.00D+00 IRadAn=         5 IDoV= 1
 ScaDFX=  1.000000  1.000000  1.000000  1.000000
 FoFCou: FMM=F IPFlag=           0 FMFlag=      100000 FMFlg1=           0
         NFxFlg=           0 DoJE=T BraDBF=F KetDBF=T FulRan=T
         Omega=  0.000000  0.000000  1.000000  0.000000  0.000000 ICntrl=     500 IOpCl=  0
         NMat0=    1 NMatS0=    1 NMatT0=    0 NMatD0=    1 NMtDS0=    0 NMtDT0=    0
         I1Cent=           4 NGrid=           0.
 Petite list used in FoFCou.
 Harris En= -2753.24648086413    
 Initial guess orbital symmetries:
       Occupied  (A) (A) (A) (A) (A) (A) (A) (A) (A) (A) (A) (A)
                 (A) (A) (A) (A) (A) (A)
       Virtual   (A) (A) (A) (A) (A) (A) (A) (A) (A) (A) (A) (A)
                 (A) (A) (A) (A) (A) (A) (A) (A) (A) (A) (A) (A)
                 (A) (A) (A) (A) (A) (A) (A) (A) (A) (A) (A) (A)
                 (A) (A) (A) (A) (A) (A) (A) (A) (A) (A) (A) (A)
                 (A) (A) (A) (A) (A) (A) (A) (A) (A) (A) (A) (A)
                 (A) (A) (A) (A) (A) (A) (A) (A) (A) (A) (A) (A)
                 (A) (A) (A) (A) (A) (A) (A) (A) (A) (A) (A) (A)
                 (A) (A) (A) (A) (A) (A) (A) (A) (A) (A) (A) (A)
                 (A) (A) (A) (A) (A) (A) (A) (A) (A) (A) (A) (A)
                 (A) (A) (A) (A) (A) (A) (A) (A) (A) (A) (A) (A)
                 (A) (A) (A) (A) (A) (A) (A) (A) (A) (A) (A) (A)
                 (A) (A) (A) (A) (A) (A) (A) (A) (A) (A) (A) (A)
                 (A) (A) (A) (A) (A) (A) (A) (A) (A) (A) (A) (A)
                 (A) (A) (A) (A) (A) (A) (A) (A) (A) (A) (A) (A)
                 (A) (A) (A) (A) (A) (A) (A) (A) (A) (A) (A)
 The electronic state of the initial guess is 1-A.
 Leave Link  401 at Tue May 12 12:48:11 2020, MaxMem= 1073741824 cpu:       4.2
 (Enter /home/matheus/.gaussian/g09/l502.exe)
 Closed shell SCF:
 Requested convergence on RMS density matrix=1.00D-08 within 128 cycles.
 Requested convergence on MAX density matrix=1.00D-06.
 Requested convergence on             energy=1.00D-06.
 No special actions if energy rises.
 Using DIIS extrapolation, IDIIS=  1040.
 Integral symmetry usage will be decided dynamically.
       126521 words used for storage of precomputed grid.
 IEnd=      305468 IEndB=      305468 NGot=  1073741824 MDV=  1073505667
 LenX=  1073505667 LenY=  1073452785
 Fock matrices will be formed incrementally for  20 cycles.

 Cycle   1  Pass 1  IDiag  1:
 FoFJK:  IHMeth= 1 ICntrl=     0 DoSepK=T KAlg= 1 I1Cent= 0 FoldK=F
 FoFCou: FMM=F IPFlag=           0 FMFlag=      100000 FMFlg1=           0
         NFxFlg=           0 DoJE=T BraDBF=F KetDBF=F FulRan=T
         Omega=  0.000000  0.000000  1.000000  0.000000  0.000000 ICntrl=     500 IOpCl=  0
         NMat0=    1 NMatS0=    1 NMatT0=    0 NMatD0=    1 NMtDS0=    0 NMtDT0=    0
         I1Cent=           0 NGrid=           0.
 Symmetry not used in FoFCou.
 E= -2753.38972307289    
 DIIS: error= 2.45D-02 at cycle   1 NSaved=   1.
 NSaved= 1 IEnMin= 1 EnMin= -2753.38972307289     IErMin= 1 ErrMin= 2.45D-02
 ErrMax= 2.45D-02 EMaxC= 1.00D-01 BMatC= 2.22D-01 BMatP= 2.22D-01
 IDIUse=3 WtCom= 7.55D-01 WtEn= 2.45D-01
 Coeff-Com:  0.100D+01
 Coeff-En:   0.100D+01
 Coeff:      0.100D+01
 Gap=     0.610 Goal=   None    Shift=    0.000
 GapD=    0.610 DampG=2.000 DampE=0.500 DampFc=1.0000 IDamp=-1.
 RMSDP=2.09D-03 MaxDP=1.47D-01              OVMax= 5.10D-02

 Cycle   2  Pass 1  IDiag  1:
 RMSU=  1.44D-03    CP:  1.02D+00
 FoFJK:  IHMeth= 1 ICntrl=     0 DoSepK=T KAlg= 1 I1Cent= 0 FoldK=F
 E= -2753.42036138798     Delta-E=       -0.030638315091 Rises=F Damp=F
 DIIS: error= 1.02D-02 at cycle   2 NSaved=   2.
 NSaved= 2 IEnMin= 2 EnMin= -2753.42036138798     IErMin= 2 ErrMin= 1.02D-02
 ErrMax= 1.02D-02 EMaxC= 1.00D-01 BMatC= 5.51D-02 BMatP= 2.22D-01
 IDIUse=3 WtCom= 8.98D-01 WtEn= 1.02D-01
 Coeff-Com:  0.328D+00 0.672D+00
 Coeff-En:   0.130D+00 0.870D+00
 Coeff:      0.308D+00 0.692D+00
 Gap=     0.525 Goal=   None    Shift=    0.000
 RMSDP=7.86D-04 MaxDP=5.12D-02 DE=-3.06D-02 OVMax= 2.08D-02

 Cycle   3  Pass 1  IDiag  1:
 RMSU=  1.58D-04    CP:  1.01D+00  6.41D-01
 FoFJK:  IHMeth= 1 ICntrl=     0 DoSepK=T KAlg= 1 I1Cent= 0 FoldK=F
 E= -2753.43558437590     Delta-E=       -0.015222987917 Rises=F Damp=F
 DIIS: error= 1.11D-03 at cycle   3 NSaved=   3.
 NSaved= 3 IEnMin= 3 EnMin= -2753.43558437590     IErMin= 3 ErrMin= 1.11D-03
 ErrMax= 1.11D-03 EMaxC= 1.00D-01 BMatC= 5.47D-04 BMatP= 5.51D-02
 IDIUse=3 WtCom= 9.89D-01 WtEn= 1.11D-02
 Coeff-Com: -0.240D-03 0.897D-01 0.911D+00
 Coeff-En:   0.000D+00 0.000D+00 0.100D+01
 Coeff:     -0.237D-03 0.887D-01 0.912D+00
 Gap=     0.532 Goal=   None    Shift=    0.000
 RMSDP=7.14D-05 MaxDP=4.18D-03 DE=-1.52D-02 OVMax= 2.59D-03

 Cycle   4  Pass 1  IDiag  1:
 RMSU=  1.77D-05    CP:  1.01D+00  6.73D-01  9.97D-01
 FoFJK:  IHMeth= 1 ICntrl=     0 DoSepK=T KAlg= 1 I1Cent= 0 FoldK=F
 E= -2753.43575104814     Delta-E=       -0.000166672241 Rises=F Damp=F
 DIIS: error= 2.93D-05 at cycle   4 NSaved=   4.
 NSaved= 4 IEnMin= 4 EnMin= -2753.43575104814     IErMin= 4 ErrMin= 2.93D-05
 ErrMax= 2.93D-05 EMaxC= 1.00D-01 BMatC= 4.19D-07 BMatP= 5.47D-04
 IDIUse=1 WtCom= 1.00D+00 WtEn= 0.00D+00
 Coeff-Com: -0.125D-02-0.155D-01-0.113D+00 0.113D+01
 Coeff:     -0.125D-02-0.155D-01-0.113D+00 0.113D+01
 Gap=     0.531 Goal=   None    Shift=    0.000
 RMSDP=6.19D-06 MaxDP=2.46D-04 DE=-1.67D-04 OVMax= 3.89D-04

 Cycle   5  Pass 1  IDiag  1:
 RMSU=  2.16D-06    CP:  1.01D+00  6.73D-01  1.02D+00  1.12D+00
 FoFJK:  IHMeth= 1 ICntrl=     0 DoSepK=T KAlg= 1 I1Cent= 0 FoldK=F
 E= -2753.43575156648     Delta-E=       -0.000000518344 Rises=F Damp=F
 DIIS: error= 7.46D-06 at cycle   5 NSaved=   5.
 NSaved= 5 IEnMin= 5 EnMin= -2753.43575156648     IErMin= 5 ErrMin= 7.46D-06
 ErrMax= 7.46D-06 EMaxC= 1.00D-01 BMatC= 1.16D-08 BMatP= 4.19D-07
 IDIUse=1 WtCom= 1.00D+00 WtEn= 0.00D+00
 Coeff-Com:  0.277D-04-0.222D-02-0.246D-01 0.929D-01 0.934D+00
 Coeff:      0.277D-04-0.222D-02-0.246D-01 0.929D-01 0.934D+00
 Gap=     0.532 Goal=   None    Shift=    0.000
 RMSDP=7.16D-07 MaxDP=3.11D-05 DE=-5.18D-07 OVMax= 3.06D-05

 Cycle   6  Pass 1  IDiag  1:
 RMSU=  2.10D-07    CP:  1.01D+00  6.73D-01  1.02D+00  1.15D+00  1.03D+00
 FoFJK:  IHMeth= 1 ICntrl=     0 DoSepK=T KAlg= 1 I1Cent= 0 FoldK=F
 E= -2753.43575157606     Delta-E=       -0.000000009582 Rises=F Damp=F
 DIIS: error= 3.87D-07 at cycle   6 NSaved=   6.
 NSaved= 6 IEnMin= 6 EnMin= -2753.43575157606     IErMin= 6 ErrMin= 3.87D-07
 ErrMax= 3.87D-07 EMaxC= 1.00D-01 BMatC= 4.11D-11 BMatP= 1.16D-08
 IDIUse=1 WtCom= 1.00D+00 WtEn= 0.00D+00
 Coeff-Com:  0.249D-05 0.143D-03 0.163D-02-0.113D-01-0.809D-01 0.109D+01
 Coeff:      0.249D-05 0.143D-03 0.163D-02-0.113D-01-0.809D-01 0.109D+01
 Gap=     0.532 Goal=   None    Shift=    0.000
 RMSDP=9.76D-08 MaxDP=3.57D-06 DE=-9.58D-09 OVMax= 4.47D-06

 Cycle   7  Pass 1  IDiag  1:
 RMSU=  1.58D-08    CP:  1.01D+00  6.73D-01  1.02D+00  1.15D+00  1.05D+00
                    CP:  1.23D+00
 FoFJK:  IHMeth= 1 ICntrl=     0 DoSepK=T KAlg= 1 I1Cent= 0 FoldK=F
 E= -2753.43575157615     Delta-E=       -0.000000000088 Rises=F Damp=F
 DIIS: error= 6.57D-08 at cycle   7 NSaved=   7.
 NSaved= 7 IEnMin= 7 EnMin= -2753.43575157615     IErMin= 7 ErrMin= 6.57D-08
 ErrMax= 6.57D-08 EMaxC= 1.00D-01 BMatC= 1.37D-12 BMatP= 4.11D-11
 IDIUse=1 WtCom= 1.00D+00 WtEn= 0.00D+00
 Coeff-Com: -0.237D-06 0.235D-04 0.276D-03-0.138D-02-0.158D-01 0.118D+00
 Coeff-Com:  0.898D+00
 Coeff:     -0.237D-06 0.235D-04 0.276D-03-0.138D-02-0.158D-01 0.118D+00
 Coeff:      0.898D+00
 Gap=     0.532 Goal=   None    Shift=    0.000
 RMSDP=1.08D-08 MaxDP=3.99D-07 DE=-8.82D-11 OVMax= 6.26D-07

 Cycle   8  Pass 1  IDiag  1:
 RMSU=  3.66D-09    CP:  1.01D+00  6.73D-01  1.02D+00  1.15D+00  1.05D+00
                    CP:  1.25D+00  1.11D+00
 FoFJK:  IHMeth= 1 ICntrl=     0 DoSepK=T KAlg= 1 I1Cent= 0 FoldK=F
 E= -2753.43575157615     Delta-E=        0.000000000004 Rises=F Damp=F
 DIIS: error= 1.99D-08 at cycle   8 NSaved=   8.
 NSaved= 8 IEnMin= 7 EnMin= -2753.43575157615     IErMin= 8 ErrMin= 1.99D-08
 ErrMax= 1.99D-08 EMaxC= 1.00D-01 BMatC= 1.11D-13 BMatP= 1.37D-12
 IDIUse=1 WtCom= 1.00D+00 WtEn= 0.00D+00
 Coeff-Com: -0.283D-06-0.115D-04-0.129D-03 0.970D-03 0.518D-02-0.855D-01
 Coeff-Com:  0.748D-01 0.100D+01
 Coeff:     -0.283D-06-0.115D-04-0.129D-03 0.970D-03 0.518D-02-0.855D-01
 Coeff:      0.748D-01 0.100D+01
 Gap=     0.532 Goal=   None    Shift=    0.000
 RMSDP=3.78D-09 MaxDP=1.55D-07 DE= 3.64D-12 OVMax= 2.37D-07

 SCF Done:  E(RLC-wPBE) =  -2753.43575158     A.U. after    8 cycles
             Convg  =    0.3784D-08             -V/T =  2.0014
 KE= 2.749488814077D+03 PE=-6.578897314008D+03 EE= 1.075972748354D+03
 Leave Link  502 at Tue May 12 12:48:36 2020, MaxMem= 1073741824 cpu:     203.9
 (Enter /home/matheus/.gaussian/g09/l601.exe)
 Copying SCF densities to generalized density rwf, IOpCl= 0 IROHF=0.

 **********************************************************************

            Population analysis using the SCF density.

 **********************************************************************

 Orbital symmetries:
       Occupied  (A) (A) (A) (A) (A) (A) (A) (A) (A) (A) (A) (A)
                 (A) (A) (A) (A) (A) (A)
       Virtual   (A) (A) (A) (A) (A) (A) (A) (A) (A) (A) (A) (A)
                 (A) (A) (A) (A) (A) (A) (A) (A) (A) (A) (A) (A)
                 (A) (A) (A) (A) (A) (A) (A) (A) (A) (A) (A) (A)
                 (A) (A) (A) (A) (A) (A) (A) (A) (A) (A) (A) (A)
                 (A) (A) (A) (A) (A) (A) (A) (A) (A) (A) (A) (A)
                 (A) (A) (A) (A) (A) (A) (A) (A) (A) (A) (A) (A)
                 (A) (A) (A) (A) (A) (A) (A) (A) (A) (A) (A) (A)
                 (A) (A) (A) (A) (A) (A) (A) (A) (A) (A) (A) (A)
                 (A) (A) (A) (A) (A) (A) (A) (A) (A) (A) (A) (A)
                 (A) (A) (A) (A) (A) (A) (A) (A) (A) (A) (A) (A)
                 (A) (A) (A) (A) (A) (A) (A) (A) (A) (A) (A) (A)
                 (A) (A) (A) (A) (A) (A) (A) (A) (A) (A) (A) (A)
                 (A) (A) (A) (A) (A) (A) (A) (A) (A) (A) (A) (A)
                 (A) (A) (A) (A) (A) (A) (A) (A) (A) (A) (A) (A)
                 (A) (A) (A) (A) (A) (A) (A) (A) (A) (A) (A)
 The electronic state is 1-A.
 Alpha  occ. eigenvalues -- -511.10625 -66.65304 -60.31518 -60.31515 -60.31515
 Alpha  occ. eigenvalues --   -9.58572  -7.32996  -7.32994  -7.32994  -3.28540
 Alpha  occ. eigenvalues --   -3.28540  -3.28539  -3.28538  -3.28538  -1.03232
 Alpha  occ. eigenvalues --   -0.50220  -0.50217  -0.50216
 Alpha virt. eigenvalues --    0.02941   0.04916   0.08455   0.09114   0.11824
 Alpha virt. eigenvalues --    0.12219   0.13270   0.13637   0.16155   0.16976
 Alpha virt. eigenvalues --    0.17791   0.19612   0.20774   0.26026   0.27136
 Alpha virt. eigenvalues --    0.27727   0.28534   0.30882   0.33236   0.34400
 Alpha virt. eigenvalues --    0.35834   0.37352   0.38508   0.39779   0.41314
 Alpha virt. eigenvalues --    0.42146   0.43138   0.53461   0.54188   0.58598
 Alpha virt. eigenvalues --    0.58695   0.66428   0.68265   0.69362   0.71753
 Alpha virt. eigenvalues --    0.74667   0.74861   0.76846   0.78032   0.78879
 Alpha virt. eigenvalues --    0.80151   0.81044   0.83017   0.85382   0.87316
 Alpha virt. eigenvalues --    0.88087   0.89011   0.90859   0.91429   0.95910
 Alpha virt. eigenvalues --    0.97613   0.97704   0.98509   0.99195   1.01657
 Alpha virt. eigenvalues --    1.04932   1.07426   1.08295   1.10066   1.11942
 Alpha virt. eigenvalues --    1.16585   1.20091   1.24403   1.28219   1.29716
 Alpha virt. eigenvalues --    1.32431   1.35409   1.38929   1.45104   1.45667
 Alpha virt. eigenvalues --    1.54143   1.56860   1.59231   1.74000   1.75846
 Alpha virt. eigenvalues --    1.80429   1.82578   1.86244   1.98868   2.15633
 Alpha virt. eigenvalues --    2.18976   2.24587   2.27628   2.29545   2.30461
 Alpha virt. eigenvalues --    2.32245   2.32907   2.35780   2.38272   2.41784
 Alpha virt. eigenvalues --    2.42239   2.45143   2.47136   2.49438   2.49992
 Alpha virt. eigenvalues --    2.50622   2.52705   2.55943   2.56975   2.58034
 Alpha virt. eigenvalues --    2.61618   2.62967   2.64889   2.68867   2.72240
 Alpha virt. eigenvalues --    2.74087   2.78153   2.83955   2.88372   2.89692
 Alpha virt. eigenvalues --    2.94679   2.99583   3.03763   3.09690   3.19041
 Alpha virt. eigenvalues --    3.22910   3.26237   3.30714   3.38219   3.46803
 Alpha virt. eigenvalues --    3.60696   3.64286   3.82590   3.86446   4.03901
 Alpha virt. eigenvalues --    4.33729   4.42055   4.52822   4.57434   4.64152
 Alpha virt. eigenvalues --    4.72583   4.87511   4.90237   4.95731   5.01133
 Alpha virt. eigenvalues --    5.12391   5.24458   5.61019   5.62975   5.78521
 Alpha virt. eigenvalues --    5.92149   6.05726   6.06266   6.75552   6.86095
 Alpha virt. eigenvalues --    7.38050   7.48060   7.56267   7.61694   7.76662
 Alpha virt. eigenvalues --    7.79346   7.93174   8.14282   8.16563   8.21835
 Alpha virt. eigenvalues --    8.40113   8.49504   8.56347   8.85963   9.65491
 Alpha virt. eigenvalues --    9.76703   9.83770   9.87982   9.91715   9.99450
 Alpha virt. eigenvalues --   10.14835  10.31585  10.38474  10.97569  11.52497
 Alpha virt. eigenvalues --   11.65266  11.81269  12.07702  12.08938  13.21292
 Alpha virt. eigenvalues --   13.65642  14.51569  62.82578  64.69908
          Condensed to atoms (all electrons):
              1          2          3          4          5
     1  O    0.000844  -0.001075  -0.000400   0.000796  -0.005866
     2  O   -0.001075   0.003871   0.000303  -0.003064   0.000950
     3  H   -0.000400   0.000303   0.000299  -0.000156  -0.000159
     4  H    0.000796  -0.003064  -0.000156   0.003747  -0.028399
     5  Kr  -0.005866   0.000950  -0.000159  -0.028399  36.065380
 Mulliken atomic charges:
              1
     1  O    0.005702
     2  O   -0.000985
     3  H    0.000114
     4  H    0.027075
     5  Kr  -0.031906
 Sum of Mulliken atomic charges =   0.00000
 Mulliken charges with hydrogens summed into heavy atoms:
              1
     1  O    0.005815
     2  O    0.026090
     5  Kr  -0.031906
 Sum of Mulliken charges with hydrogens summed into heavy atoms =   0.00000
          Condensed to fragments (all electrons):
     1       0.031906
     2      -0.031906
 Electronic spatial extent (au):  <R**2>=            163.5626
 Charge=              0.0000 electrons
 Dipole moment (field-independent basis, Debye):
    X=              0.0006    Y=              0.0003    Z=              0.0001  Tot=              0.0007
 Quadrupole moment (field-independent basis, Debye-Ang):
   XX=            -17.6140   YY=            -17.6231   ZZ=            -17.6284
   XY=              0.0030   XZ=              0.0008   YZ=             -0.0001
 Traceless Quadrupole moment (field-independent basis, Debye-Ang):
   XX=              0.0078   YY=             -0.0013   ZZ=             -0.0066
   XY=              0.0030   XZ=              0.0008   YZ=             -0.0001
 Octapole moment (field-independent basis, Debye-Ang**2):
  XXX=             51.9465  YYY=              0.5247  ZZZ=              0.0225  XYY=             17.3254
  XXY=              0.1700  XXZ=              0.0058  XZZ=             17.3283  YZZ=              0.1756
  YYZ=              0.0075  XYZ=              0.0000
 Hexadecapole moment (field-independent basis, Debye-Ang**3):
 XXXX=           -120.4885 YYYY=            -18.3842 ZZZZ=            -18.3909 XXXY=             -0.5080
 XXXZ=             -0.0186 YYYX=             -0.5073 YYYZ=             -0.0004 ZZZX=             -0.0196
 ZZZY=              0.0001 XXYY=            -23.1543 XXZZ=            -23.1554 YYZZ=             -6.1282
 XXYZ=             -0.0004 YYXZ=             -0.0068 ZZXY=             -0.1682
 N-N= 0.000000000000D+00 E-N=-6.578897315719D+03  KE= 2.749488814077D+03
 No NMR shielding tensors so no spin-rotation constants.
 Leave Link  601 at Tue May 12 12:48:36 2020, MaxMem= 1073741824 cpu:       0.8
 (Enter /home/matheus/.gaussian/g09/l122.exe)
 Counterpoise: doing MCBS calculation for fragment   1
 Leave Link  122 at Tue May 12 12:48:36 2020, MaxMem= 1073741824 cpu:       0.0
 (Enter /home/matheus/.gaussian/g09/l301.exe)
 Basis read from rwf:  (5D, 7F)
 No pseudopotential information found on rwf file.
 There are   138 symmetry adapted basis functions of A   symmetry.
 Integral buffers will be    131072 words long.
 Raffenetti 2 integral format.
 Two-electron integral symmetry is turned on.
   138 basis functions,   198 primitive gaussians,   160 cartesian basis functions
     9 alpha electrons        9 beta electrons
       nuclear repulsion energy        36.6265003879 Hartrees.
 IExCor=32609 DFT=T Ex+Corr=LC-wPBE ExCW=0 ScaHFX=  1.000000
 ScaDFX=  1.000000  0.000000  1.000000  1.000000 ScalE2=  1.000000  1.000000
 IRadAn=      5 IRanWt=     -1 IRanGd=            0 ICorTp=0
  HFx wShort=  0.000000 wLong=  0.400000 cFull=  0.000000 cShort=  0.000000 cLong=  1.000000
  DFx wShort=  0.000000 wLong=  0.400000 cFull=  0.000000 cShort=  0.000000 cLong=  1.000000
 NAtoms=    5 NActive=    4 NUniq=    4 SFac= 1.00D+00 NAtFMM=   60 NAOKFM=F Big=F
 No density basis found on file   718.
 Leave Link  301 at Tue May 12 12:48:36 2020, MaxMem= 1073741824 cpu:       0.2
 (Enter /home/matheus/.gaussian/g09/l302.exe)
 NPDir=0 NMtPBC=     1 NCelOv=     1 NCel=       1 NClECP=     1 NCelD=      1
         NCelK=      1 NCelE2=     1 NClLst=     1 CellRange=     0.0.
 One-electron integrals computed using PRISM.
 NBasis=   138 RedAO= T  NBF=   138
 NBsUse=   138 1.00D-06 NBFU=   138
 Precomputing XC quadrature grid using
 IXCGrd= 2 IRadAn=           5 IRanWt=          -1 IRanGd=           0 AccXCQ= 0.00D+00.
 NRdTot=     344 NPtTot=       92556 NUsed=       95038 NTot=       95070
 NSgBfM=   160   160   160   160   160 NAtAll=     4     4.
 Leave Link  302 at Tue May 12 12:48:37 2020, MaxMem= 1073741824 cpu:       0.9
 (Enter /home/matheus/.gaussian/g09/l303.exe)
 DipDrv:  MaxL=1.
 Leave Link  303 at Tue May 12 12:48:37 2020, MaxMem= 1073741824 cpu:       0.1
 (Enter /home/matheus/.gaussian/g09/l401.exe)
 Harris functional with IExCor=32609 diagonalized for initial guess.
 ExpMin= 2.53D-02 ExpMax= 1.53D+04 ExpMxC= 5.22D+02 IAcc=3 IRadAn=         5 AccDes= 0.00D+00
 HarFok:  IExCor=32609 AccDes= 0.00D+00 IRadAn=         5 IDoV= 1
 ScaDFX=  1.000000  1.000000  1.000000  1.000000
 FoFCou: FMM=F IPFlag=           0 FMFlag=      100000 FMFlg1=           0
         NFxFlg=           0 DoJE=T BraDBF=F KetDBF=T FulRan=T
         Omega=  0.000000  0.000000  1.000000  0.000000  0.000000 ICntrl=     500 IOpCl=  0
         NMat0=    1 NMatS0=    1 NMatT0=    0 NMatD0=    1 NMtDS0=    0 NMtDT0=    0
         I1Cent=           4 NGrid=           0.
 Petite list used in FoFCou.
 Harris En= -151.502724496108    
 Initial guess orbital symmetries:
       Occupied  (A) (A) (A) (A) (A) (A) (A) (A) (A)
       Virtual   (A) (A) (A) (A) (A) (A) (A) (A) (A) (A) (A) (A)
                 (A) (A) (A) (A) (A) (A) (A) (A) (A) (A) (A) (A)
                 (A) (A) (A) (A) (A) (A) (A) (A) (A) (A) (A) (A)
                 (A) (A) (A) (A) (A) (A) (A) (A) (A) (A) (A) (A)
                 (A) (A) (A) (A) (A) (A) (A) (A) (A) (A) (A) (A)
                 (A) (A) (A) (A) (A) (A) (A) (A) (A) (A) (A) (A)
                 (A) (A) (A) (A) (A) (A) (A) (A) (A) (A) (A) (A)
                 (A) (A) (A) (A) (A) (A) (A) (A) (A) (A) (A) (A)
                 (A) (A) (A) (A) (A) (A) (A) (A) (A) (A) (A) (A)
                 (A) (A) (A) (A) (A) (A) (A) (A) (A) (A) (A) (A)
                 (A) (A) (A) (A) (A) (A) (A) (A) (A)
 The electronic state of the initial guess is 1-A.
 Leave Link  401 at Tue May 12 12:48:37 2020, MaxMem= 1073741824 cpu:       2.3
 (Enter /home/matheus/.gaussian/g09/l502.exe)
 Closed shell SCF:
 Requested convergence on RMS density matrix=1.00D-08 within 128 cycles.
 Requested convergence on MAX density matrix=1.00D-06.
 Requested convergence on             energy=1.00D-06.
 No special actions if energy rises.
 Using DIIS extrapolation, IDIIS=  1040.
 Integral symmetry usage will be decided dynamically.
        94980 words used for storage of precomputed grid.
 IEnd=      192360 IEndB=      192360 NGot=  1073741824 MDV=  1073591865
 LenX=  1073591865 LenY=  1073565824
 Fock matrices will be formed incrementally for  20 cycles.

 Cycle   1  Pass 1  IDiag  1:
 FoFJK:  IHMeth= 1 ICntrl=     0 DoSepK=T KAlg= 1 I1Cent= 0 FoldK=F
 FoFCou: FMM=F IPFlag=           0 FMFlag=      100000 FMFlg1=           0
         NFxFlg=           0 DoJE=T BraDBF=F KetDBF=F FulRan=T
         Omega=  0.000000  0.000000  1.000000  0.000000  0.000000 ICntrl=     500 IOpCl=  0
         NMat0=    1 NMatS0=    1 NMatT0=    0 NMatD0=    1 NMtDS0=    0 NMtDT0=    0
         I1Cent=           0 NGrid=           0.
 Symmetry not used in FoFCou.
 E= -151.498447820501    
 DIIS: error= 1.52D-02 at cycle   1 NSaved=   1.
 NSaved= 1 IEnMin= 1 EnMin= -151.498447820501     IErMin= 1 ErrMin= 1.52D-02
 ErrMax= 1.52D-02 EMaxC= 1.00D-01 BMatC= 3.89D-02 BMatP= 3.89D-02
 IDIUse=3 WtCom= 8.48D-01 WtEn= 1.52D-01
 Coeff-Com:  0.100D+01
 Coeff-En:   0.100D+01
 Coeff:      0.100D+01
 Gap=     0.521 Goal=   None    Shift=    0.000
 GapD=    0.521 DampG=2.000 DampE=0.500 DampFc=1.0000 IDamp=-1.
 RMSDP=1.16D-03 MaxDP=2.29D-02              OVMax= 5.76D-02

 Cycle   2  Pass 1  IDiag  1:
 RMSU=  8.15D-04    CP:  9.89D-01
 FoFJK:  IHMeth= 1 ICntrl=     0 DoSepK=T KAlg= 1 I1Cent= 0 FoldK=F
 E= -151.512085313052     Delta-E=       -0.013637492550 Rises=F Damp=F
 DIIS: error= 1.10D-02 at cycle   2 NSaved=   2.
 NSaved= 2 IEnMin= 2 EnMin= -151.512085313052     IErMin= 2 ErrMin= 1.10D-02
 ErrMax= 1.10D-02 EMaxC= 1.00D-01 BMatC= 2.19D-02 BMatP= 3.89D-02
 IDIUse=3 WtCom= 8.90D-01 WtEn= 1.10D-01
 Coeff-Com:  0.421D+00 0.579D+00
 Coeff-En:   0.259D+00 0.741D+00
 Coeff:      0.404D+00 0.596D+00
 Gap=     0.462 Goal=   None    Shift=    0.000
 RMSDP=6.43D-04 MaxDP=2.29D-02 DE=-1.36D-02 OVMax= 2.64D-02

 Cycle   3  Pass 1  IDiag  1:
 RMSU=  3.42D-04    CP:  9.85D-01  6.36D-01
 FoFJK:  IHMeth= 1 ICntrl=     0 DoSepK=T KAlg= 1 I1Cent= 0 FoldK=F
 E= -151.524800740095     Delta-E=       -0.012715427043 Rises=F Damp=F
 DIIS: error= 2.24D-03 at cycle   3 NSaved=   3.
 NSaved= 3 IEnMin= 3 EnMin= -151.524800740095     IErMin= 3 ErrMin= 2.24D-03
 ErrMax= 2.24D-03 EMaxC= 1.00D-01 BMatC= 4.20D-04 BMatP= 2.19D-02
 IDIUse=3 WtCom= 9.78D-01 WtEn= 2.24D-02
 Coeff-Com:  0.650D-01 0.153D+00 0.782D+00
 Coeff-En:   0.000D+00 0.000D+00 0.100D+01
 Coeff:      0.635D-01 0.150D+00 0.787D+00
 Gap=     0.456 Goal=   None    Shift=    0.000
 RMSDP=8.29D-05 MaxDP=2.05D-03 DE=-1.27D-02 OVMax= 4.03D-03

 Cycle   4  Pass 1  IDiag  1:
 RMSU=  4.08D-05    CP:  9.83D-01  6.83D-01  1.02D+00
 FoFJK:  IHMeth= 1 ICntrl=     0 DoSepK=T KAlg= 1 I1Cent= 0 FoldK=F
 E= -151.525058094394     Delta-E=       -0.000257354300 Rises=F Damp=F
 DIIS: error= 3.52D-04 at cycle   4 NSaved=   4.
 NSaved= 4 IEnMin= 4 EnMin= -151.525058094394     IErMin= 4 ErrMin= 3.52D-04
 ErrMax= 3.52D-04 EMaxC= 1.00D-01 BMatC= 1.45D-05 BMatP= 4.20D-04
 IDIUse=3 WtCom= 9.96D-01 WtEn= 3.52D-03
 Coeff-Com: -0.496D-02-0.895D-02 0.119D+00 0.895D+00
 Coeff-En:   0.000D+00 0.000D+00 0.000D+00 0.100D+01
 Coeff:     -0.494D-02-0.891D-02 0.119D+00 0.895D+00
 Gap=     0.458 Goal=   None    Shift=    0.000
 RMSDP=1.97D-05 MaxDP=8.46D-04 DE=-2.57D-04 OVMax= 7.46D-04

 Cycle   5  Pass 1  IDiag  1:
 RMSU=  7.95D-06    CP:  9.83D-01  6.82D-01  1.05D+00  1.01D+00
 FoFJK:  IHMeth= 1 ICntrl=     0 DoSepK=T KAlg= 1 I1Cent= 0 FoldK=F
 E= -151.525068034422     Delta-E=       -0.000009940027 Rises=F Damp=F
 DIIS: error= 4.23D-05 at cycle   5 NSaved=   5.
 NSaved= 5 IEnMin= 5 EnMin= -151.525068034422     IErMin= 5 ErrMin= 4.23D-05
 ErrMax= 4.23D-05 EMaxC= 1.00D-01 BMatC= 1.18D-07 BMatP= 1.45D-05
 IDIUse=1 WtCom= 1.00D+00 WtEn= 0.00D+00
 Coeff-Com: -0.886D-03-0.246D-02-0.287D-01-0.833D-01 0.112D+01
 Coeff:     -0.886D-03-0.246D-02-0.287D-01-0.833D-01 0.112D+01
 Gap=     0.458 Goal=   None    Shift=    0.000
 RMSDP=4.38D-06 MaxDP=8.80D-05 DE=-9.94D-06 OVMax= 2.62D-04

 Cycle   6  Pass 1  IDiag  1:
 RMSU=  1.33D-06    CP:  9.83D-01  6.83D-01  1.05D+00  1.04D+00  1.30D+00
 FoFJK:  IHMeth= 1 ICntrl=     0 DoSepK=T KAlg= 1 I1Cent= 0 FoldK=F
 E= -151.525068311259     Delta-E=       -0.000000276837 Rises=F Damp=F
 DIIS: error= 9.08D-06 at cycle   6 NSaved=   6.
 NSaved= 6 IEnMin= 6 EnMin= -151.525068311259     IErMin= 6 ErrMin= 9.08D-06
 ErrMax= 9.08D-06 EMaxC= 1.00D-01 BMatC= 5.31D-09 BMatP= 1.18D-07
 IDIUse=1 WtCom= 1.00D+00 WtEn= 0.00D+00
 Coeff-Com:  0.153D-03 0.377D-03-0.976D-03-0.144D-01-0.502D-01 0.107D+01
 Coeff:      0.153D-03 0.377D-03-0.976D-03-0.144D-01-0.502D-01 0.107D+01
 Gap=     0.458 Goal=   None    Shift=    0.000
 RMSDP=8.51D-07 MaxDP=1.39D-05 DE=-2.77D-07 OVMax= 8.57D-05

 Cycle   7  Pass 1  IDiag  1:
 RMSU=  3.18D-07    CP:  9.83D-01  6.83D-01  1.05D+00  1.04D+00  1.34D+00
                    CP:  1.23D+00
 FoFJK:  IHMeth= 1 ICntrl=     0 DoSepK=T KAlg= 1 I1Cent= 0 FoldK=F
 E= -151.525068328498     Delta-E=       -0.000000017239 Rises=F Damp=F
 DIIS: error= 3.22D-06 at cycle   7 NSaved=   7.
[...]
 E= -2753.43565010696     Delta-E=       -0.000000438411 Rises=F Damp=F
 DIIS: error= 3.57D-06 at cycle   2 NSaved=   2.
 NSaved= 2 IEnMin= 2 EnMin= -2753.43565010696     IErMin= 2 ErrMin= 3.57D-06
 ErrMax= 3.57D-06 EMaxC= 1.00D-01 BMatC= 2.63D-09 BMatP= 4.66D-06
 IDIUse=1 WtCom= 1.00D+00 WtEn= 0.00D+00
 Coeff-Com: -0.666D-02 0.101D+01
 Coeff:     -0.666D-02 0.101D+01
 Gap=     0.530 Goal=   None    Shift=    0.000
 RMSDP=1.43D-06 MaxDP=6.07D-05 DE=-4.38D-07 OVMax= 3.81D-05

 Cycle   3  Pass 1  IDiag  1:
 RMSU=  4.88D-07    CP:  1.00D+00  1.09D+00
 FoFJK:  IHMeth= 1 ICntrl=     0 DoSepK=T KAlg= 1 I1Cent= 0 FoldK=F
 E= -2753.43565011152     Delta-E=       -0.000000004557 Rises=F Damp=F
 DIIS: error= 5.56D-07 at cycle   3 NSaved=   3.
 NSaved= 3 IEnMin= 3 EnMin= -2753.43565011152     IErMin= 3 ErrMin= 5.56D-07
 ErrMax= 5.56D-07 EMaxC= 1.00D-01 BMatC= 7.16D-11 BMatP= 2.63D-09
 IDIUse=1 WtCom= 1.00D+00 WtEn= 0.00D+00
 Coeff-Com:  0.207D-03-0.107D+00 0.111D+01
 Coeff:      0.207D-03-0.107D+00 0.111D+01
 Gap=     0.530 Goal=   None    Shift=    0.000
 RMSDP=1.80D-07 MaxDP=8.29D-06 DE=-4.56D-09 OVMax= 7.52D-06

 Cycle   4  Pass 1  IDiag  1:
 RMSU=  4.54D-08    CP:  1.00D+00  1.10D+00  1.18D+00
 FoFJK:  IHMeth= 1 ICntrl=     0 DoSepK=T KAlg= 1 I1Cent= 0 FoldK=F
 E= -2753.43565011164     Delta-E=       -0.000000000116 Rises=F Damp=F
 DIIS: error= 2.66D-07 at cycle   4 NSaved=   4.
 NSaved= 4 IEnMin= 4 EnMin= -2753.43565011164     IErMin= 4 ErrMin= 2.66D-07
 ErrMax= 2.66D-07 EMaxC= 1.00D-01 BMatC= 1.11D-11 BMatP= 7.16D-11
 IDIUse=1 WtCom= 1.00D+00 WtEn= 0.00D+00
 Coeff-Com:  0.185D-03-0.521D-01 0.333D+00 0.719D+00
 Coeff:      0.185D-03-0.521D-01 0.333D+00 0.719D+00
 Gap=     0.530 Goal=   None    Shift=    0.000
 RMSDP=1.64D-08 MaxDP=6.53D-07 DE=-1.16D-10 OVMax= 8.51D-07

 Cycle   5  Pass 1  IDiag  1:
 RMSU=  8.63D-09    CP:  1.00D+00  1.10D+00  1.19D+00  1.09D+00
 FoFJK:  IHMeth= 1 ICntrl=     0 DoSepK=T KAlg= 1 I1Cent= 0 FoldK=F
 E= -2753.43565011165     Delta-E=       -0.000000000009 Rises=F Damp=F
 DIIS: error= 3.19D-08 at cycle   5 NSaved=   5.
 NSaved= 5 IEnMin= 5 EnMin= -2753.43565011165     IErMin= 5 ErrMin= 3.19D-08
 ErrMax= 3.19D-08 EMaxC= 1.00D-01 BMatC= 1.80D-13 BMatP= 1.11D-11
 IDIUse=1 WtCom= 1.00D+00 WtEn= 0.00D+00
 Coeff-Com:  0.249D-05 0.203D-02-0.316D-01 0.177D-01 0.101D+01
 Coeff:      0.249D-05 0.203D-02-0.316D-01 0.177D-01 0.101D+01
 Gap=     0.530 Goal=   None    Shift=    0.000
 RMSDP=7.11D-09 MaxDP=4.07D-07 DE=-9.09D-12 OVMax= 3.28D-07

 SCF Done:  E(RLC-wPBE) =  -2753.43565011     A.U. after    5 cycles
             Convg  =    0.7113D-08             -V/T =  2.0014
 KE= 2.749528597569D+03 PE=-6.578941542393D+03 EE= 1.075977294713D+03
 Leave Link  502 at Tue May 12 13:13:20 2020, MaxMem= 1073741824 cpu:     106.9
 (Enter /home/matheus/.gaussian/g09/l122.exe)
 Restoring MOs from calculation   4 to rwf.
 Counterpoise: doing MCBS calculation for fragment   1
 Leave Link  122 at Tue May 12 13:13:20 2020, MaxMem= 1073741824 cpu:       0.0
 (Enter /home/matheus/.gaussian/g09/l301.exe)
 Basis read from rwf:  (5D, 7F)
 No pseudopotential information found on rwf file.
 There are   138 symmetry adapted basis functions of A   symmetry.
 Integral buffers will be    131072 words long.
 Raffenetti 2 integral format.
 Two-electron integral symmetry is turned on.
   138 basis functions,   198 primitive gaussians,   160 cartesian basis functions
     9 alpha electrons        9 beta electrons
       nuclear repulsion energy        36.6265003879 Hartrees.
 IExCor=32609 DFT=T Ex+Corr=LC-wPBE ExCW=0 ScaHFX=  1.000000
 ScaDFX=  1.000000  0.000000  1.000000  1.000000 ScalE2=  1.000000  1.000000
 IRadAn=      5 IRanWt=     -1 IRanGd=            0 ICorTp=0
  HFx wShort=  0.000000 wLong=  0.400000 cFull=  0.000000 cShort=  0.000000 cLong=  1.000000
  DFx wShort=  0.000000 wLong=  0.400000 cFull=  0.000000 cShort=  0.000000 cLong=  1.000000
 NAtoms=    5 NActive=    4 NUniq=    4 SFac= 1.00D+00 NAtFMM=   60 NAOKFM=F Big=F
 No density basis found on file   718.
 Leave Link  301 at Tue May 12 13:13:20 2020, MaxMem= 1073741824 cpu:       0.2
 (Enter /home/matheus/.gaussian/g09/l302.exe)
 NPDir=0 NMtPBC=     1 NCelOv=     1 NCel=       1 NClECP=     1 NCelD=      1
         NCelK=      1 NCelE2=     1 NClLst=     1 CellRange=     0.0.
 One-electron integrals computed using PRISM.
 NBasis=   138 RedAO= T  NBF=   138
 NBsUse=   138 1.00D-06 NBFU=   138
 Precomputing XC quadrature grid using
 IXCGrd= 2 IRadAn=           5 IRanWt=          -1 IRanGd=           0 AccXCQ= 0.00D+00.
 NRdTot=     344 NPtTot=       92556 NUsed=       95038 NTot=       95070
 NSgBfM=   160   160   160   160   160 NAtAll=     4     4.
 Leave Link  302 at Tue May 12 13:13:20 2020, MaxMem= 1073741824 cpu:       0.8
 (Enter /home/matheus/.gaussian/g09/l303.exe)
 DipDrv:  MaxL=1.
 Leave Link  303 at Tue May 12 13:13:20 2020, MaxMem= 1073741824 cpu:       0.1
 (Enter /home/matheus/.gaussian/g09/l401.exe)
 Initial guess read from the read-write file.
 Guess basis will be translated and rotated to current coordinates.
 Initial guess orbital symmetries:
       Occupied  (A) (A) (A) (A) (A) (A) (A) (A) (A)
       Virtual   (A) (A) (A) (A) (A) (A) (A) (A) (A) (A) (A) (A)
                 (A) (A) (A) (A) (A) (A) (A) (A) (A) (A) (A) (A)
                 (A) (A) (A) (A) (A) (A) (A) (A) (A) (A) (A) (A)
                 (A) (A) (A) (A) (A) (A) (A) (A) (A) (A) (A) (A)
                 (A) (A) (A) (A) (A) (A) (A) (A) (A) (A) (A) (A)
                 (A) (A) (A) (A) (A) (A) (A) (A) (A) (A) (A) (A)
                 (A) (A) (A) (A) (A) (A) (A) (A) (A) (A) (A) (A)
                 (A) (A) (A) (A) (A) (A) (A) (A) (A) (A) (A) (A)
                 (A) (A) (A) (A) (A) (A) (A) (A) (A) (A) (A) (A)
                 (A) (A) (A) (A) (A) (A) (A) (A) (A) (A) (A) (A)
                 (A) (A) (A) (A) (A) (A) (A) (A) (A)
 The electronic state of the initial guess is 1-A.
 Generating alternative initial guess.
 Harris functional with IExCor=32609 diagonalized for initial guess.
 ExpMin= 2.53D-02 ExpMax= 1.53D+04 ExpMxC= 5.22D+02 IAcc=3 IRadAn=         5 AccDes= 0.00D+00
 HarFok:  IExCor=32609 AccDes= 0.00D+00 IRadAn=         5 IDoV= 1
 ScaDFX=  1.000000  1.000000  1.000000  1.000000
 FoFCou: FMM=F IPFlag=           0 FMFlag=      100000 FMFlg1=           0
         NFxFlg=           0 DoJE=T BraDBF=F KetDBF=T FulRan=T
         Omega=  0.000000  0.000000  1.000000  0.000000  0.000000 ICntrl=     500 IOpCl=  0
         NMat0=    1 NMatS0=    1 NMatT0=    0 NMatD0=    1 NMtDS0=    0 NMtDT0=    0
         I1Cent=           4 NGrid=           0.
 Petite list used in FoFCou.
 Harris En= -151.502724541292    
 Leave Link  401 at Tue May 12 13:13:20 2020, MaxMem= 1073741824 cpu:       2.8
 (Enter /home/matheus/.gaussian/g09/l502.exe)
 Closed shell SCF:
 Requested convergence on RMS density matrix=1.00D-08 within 128 cycles.
 Requested convergence on MAX density matrix=1.00D-06.
 Requested convergence on             energy=1.00D-06.
 No special actions if energy rises.
 Using DIIS extrapolation, IDIIS=  1040.
 Integral symmetry usage will be decided dynamically.
        94980 words used for storage of precomputed grid.
 IEnd=      192360 IEndB=      192360 NGot=  1073741824 MDV=  1073591865
 LenX=  1073591865 LenY=  1073565824
 Fock matrices will be formed incrementally for  20 cycles.

 Cycle   1  Pass 1  IDiag  1:
 FoFJK:  IHMeth= 1 ICntrl=     0 DoSepK=T KAlg= 1 I1Cent= 0 FoldK=F
 FoFCou: FMM=F IPFlag=           0 FMFlag=      100000 FMFlg1=           0
         NFxFlg=           0 DoJE=T BraDBF=F KetDBF=F FulRan=T
         Omega=  0.000000  0.000000  1.000000  0.000000  0.000000 ICntrl=     500 IOpCl=  0
         NMat0=    1 NMatS0=    1 NMatT0=    0 NMatD0=    1 NMtDS0=    0 NMtDT0=    0
         I1Cent=           0 NGrid=           0.
 Symmetry not used in FoFCou.
 E= -151.525068360165    
 DIIS: error= 1.02D-05 at cycle   1 NSaved=   1.
 NSaved= 1 IEnMin= 1 EnMin= -151.525068360165     IErMin= 1 ErrMin= 1.02D-05
 ErrMax= 1.02D-05 EMaxC= 1.00D-01 BMatC= 2.70D-08 BMatP= 2.70D-08
 IDIUse=1 WtCom= 1.00D+00 WtEn= 0.00D+00
 Coeff-Com:  0.100D+01
 Coeff:      0.100D+01
 Gap=     0.458 Goal=   None    Shift=    0.000
 RMSDP=1.04D-06 MaxDP=2.45D-05              OVMax= 4.31D-05

 Cycle   2  Pass 1  IDiag  1:
 RMSU=  7.35D-07    CP:  1.00D+00
 FoFJK:  IHMeth= 1 ICntrl=     0 DoSepK=T KAlg= 1 I1Cent= 0 FoldK=F
 E= -151.525068385836     Delta-E=       -0.000000025671 Rises=F Damp=F
 DIIS: error= 2.41D-06 at cycle   2 NSaved=   2.
 NSaved= 2 IEnMin= 2 EnMin= -151.525068385836     IErMin= 2 ErrMin= 2.41D-06
 ErrMax= 2.41D-06 EMaxC= 1.00D-01 BMatC= 9.70D-10 BMatP= 2.70D-08
 IDIUse=1 WtCom= 1.00D+00 WtEn= 0.00D+00
 Coeff-Com: -0.120D+00 0.112D+01
 Coeff:     -0.120D+00 0.112D+01
 Gap=     0.458 Goal=   None    Shift=    0.000
 RMSDP=2.98D-07 MaxDP=8.29D-06 DE=-2.57D-08 OVMax= 1.74D-05

 Cycle   3  Pass 1  IDiag  1:
 RMSU=  1.14D-07    CP:  1.00D+00  1.24D+00
 FoFJK:  IHMeth= 1 ICntrl=     0 DoSepK=T KAlg= 1 I1Cent= 0 FoldK=F
 E= -151.525068388020     Delta-E=       -0.000000002184 Rises=F Damp=F
 DIIS: error= 8.30D-07 at cycle   3 NSaved=   3.
 NSaved= 3 IEnMin= 3 EnMin= -151.525068388020     IErMin= 3 ErrMin= 8.30D-07
 ErrMax= 8.30D-07 EMaxC= 1.00D-01 BMatC= 1.08D-10 BMatP= 9.70D-10
 IDIUse=1 WtCom= 1.00D+00 WtEn= 0.00D+00
 Coeff-Com: -0.219D-01 0.277D-01 0.994D+00
 Coeff:     -0.219D-01 0.277D-01 0.994D+00
 Gap=     0.458 Goal=   None    Shift=    0.000
 RMSDP=9.59D-08 MaxDP=2.22D-06 DE=-2.18D-09 OVMax= 6.42D-06

 Cycle   4  Pass 1  IDiag  1:
 RMSU=  4.45D-08    CP:  1.00D+00  1.29D+00  1.30D+00
 FoFJK:  IHMeth= 1 ICntrl=     0 DoSepK=T KAlg= 1 I1Cent= 0 FoldK=F
 E= -151.525068388205     Delta-E=       -0.000000000185 Rises=F Damp=F
 DIIS: error= 7.17D-07 at cycle   4 NSaved=   4.
 NSaved= 4 IEnMin= 4 EnMin= -151.525068388205     IErMin= 4 ErrMin= 7.17D-07
 ErrMax= 7.17D-07 EMaxC= 1.00D-01 BMatC= 8.99D-11 BMatP= 1.08D-10
 IDIUse=1 WtCom= 1.00D+00 WtEn= 0.00D+00
 Coeff-Com:  0.568D-02-0.156D+00 0.551D+00 0.599D+00
 Coeff:      0.568D-02-0.156D+00 0.551D+00 0.599D+00
 Gap=     0.458 Goal=   None    Shift=    0.000
 RMSDP=4.26D-08 MaxDP=8.27D-07 DE=-1.85D-10 OVMax= 2.74D-06

 Cycle   5  Pass 1  IDiag  1:
 RMSU=  1.59D-08    CP:  1.00D+00  1.31D+00  1.48D+00  7.29D-01
 FoFJK:  IHMeth= 1 ICntrl=     0 DoSepK=T KAlg= 1 I1Cent= 0 FoldK=F
 E= -151.525068388283     Delta-E=       -0.000000000078 Rises=F Damp=F
 DIIS: error= 1.52D-07 at cycle   5 NSaved=   5.
 NSaved= 5 IEnMin= 5 EnMin= -151.525068388283     IErMin= 5 ErrMin= 1.52D-07
 ErrMax= 1.52D-07 EMaxC= 1.00D-01 BMatC= 3.96D-12 BMatP= 8.99D-11
 IDIUse=1 WtCom= 1.00D+00 WtEn= 0.00D+00
 Coeff-Com:  0.447D-02-0.368D-01-0.675D-01 0.113D+00 0.987D+00
 Coeff:      0.447D-02-0.368D-01-0.675D-01 0.113D+00 0.987D+00
 Gap=     0.458 Goal=   None    Shift=    0.000
 RMSDP=2.01D-08 MaxDP=3.77D-07 DE=-7.78D-11 OVMax= 1.78D-06

 Cycle   6  Pass 1  IDiag  1:
 RMSU=  5.11D-09    CP:  1.00D+00  1.31D+00  1.55D+00  8.89D-01  1.35D+00
 FoFJK:  IHMeth= 1 ICntrl=     0 DoSepK=T KAlg= 1 I1Cent= 0 FoldK=F
 E= -151.525068388293     Delta-E=       -0.000000000010 Rises=F Damp=F
 DIIS: error= 4.52D-08 at cycle   6 NSaved=   6.
 NSaved= 6 IEnMin= 6 EnMin= -151.525068388293     IErMin= 6 ErrMin= 4.52D-08
 ErrMax= 4.52D-08 EMaxC= 1.00D-01 BMatC= 3.09D-13 BMatP= 3.96D-12
 IDIUse=1 WtCom= 1.00D+00 WtEn= 0.00D+00
 Coeff-Com: -0.224D-03 0.116D-01-0.536D-01-0.407D-01 0.930D-01 0.990D+00
 Coeff:     -0.224D-03 0.116D-01-0.536D-01-0.407D-01 0.930D-01 0.990D+00
 Gap=     0.458 Goal=   None    Shift=    0.000
 RMSDP=6.92D-09 MaxDP=1.54D-07 DE=-9.61D-12 OVMax= 6.44D-07

 SCF Done:  E(RLC-wPBE) =  -151.525068388     A.U. after    6 cycles
             Convg  =    0.6920D-08             -V/T =  2.0068
 KE= 1.505076631807D+02 PE=-4.315175397273D+02 EE= 9.285830777043D+01
 Leave Link  502 at Tue May 12 13:13:27 2020, MaxMem= 1073741824 cpu:      51.1
 (Enter /home/matheus/.gaussian/g09/l122.exe)
 Restoring MOs from calculation   5 to rwf.
 Counterpoise: doing MCBS calculation for fragment   2
 Leave Link  122 at Tue May 12 13:13:27 2020, MaxMem= 1073741824 cpu:       0.0
 (Enter /home/matheus/.gaussian/g09/l301.exe)
 Basis read from rwf:  (5D, 7F)
 No pseudopotential information found on rwf file.
 There are    59 symmetry adapted basis functions of A   symmetry.
 Integral buffers will be    131072 words long.
 Raffenetti 2 integral format.
 Two-electron integral symmetry is turned on.
    59 basis functions,   217 primitive gaussians,    69 cartesian basis functions
    18 alpha electrons       18 beta electrons
       nuclear repulsion energy         0.0000000000 Hartrees.
 IExCor=32609 DFT=T Ex+Corr=LC-wPBE ExCW=0 ScaHFX=  1.000000
 ScaDFX=  1.000000  0.000000  1.000000  1.000000 ScalE2=  1.000000  1.000000
 IRadAn=      5 IRanWt=     -1 IRanGd=            0 ICorTp=0
  HFx wShort=  0.000000 wLong=  0.400000 cFull=  0.000000 cShort=  0.000000 cLong=  1.000000
  DFx wShort=  0.000000 wLong=  0.400000 cFull=  0.000000 cShort=  0.000000 cLong=  1.000000
 NAtoms=    5 NActive=    1 NUniq=    1 SFac= 1.00D+00 NAtFMM=   60 NAOKFM=F Big=F
 No density basis found on file   718.
 Leave Link  301 at Tue May 12 13:13:27 2020, MaxMem= 1073741824 cpu:       0.2
 (Enter /home/matheus/.gaussian/g09/l302.exe)
 NPDir=0 NMtPBC=     1 NCelOv=     1 NCel=       1 NClECP=     1 NCelD=      1
         NCelK=      1 NCelE2=     1 NClLst=     1 CellRange=     0.0.
 One-electron integrals computed using PRISM.
 NBasis=    59 RedAO= T  NBF=    59
 NBsUse=    59 1.00D-06 NBFU=    59
 Precomputing XC quadrature grid using
 IXCGrd= 2 IRadAn=           5 IRanWt=          -1 IRanGd=           0 AccXCQ= 0.00D+00.
 NRdTot=      81 NPtTot=       30352 NUsed=       30981 NTot=       31013
 NSgBfM=    69    69    69    69    69 NAtAll=     1     1.
 Leave Link  302 at Tue May 12 13:13:27 2020, MaxMem= 1073741824 cpu:       0.7
 (Enter /home/matheus/.gaussian/g09/l303.exe)
 DipDrv:  MaxL=1.
 Leave Link  303 at Tue May 12 13:13:27 2020, MaxMem= 1073741824 cpu:       0.1
 (Enter /home/matheus/.gaussian/g09/l401.exe)
 Initial guess read from the read-write file.
 Guess basis will be translated and rotated to current coordinates.
 Initial guess orbital symmetries:
       Occupied  (A) (A) (A) (A) (A) (A) (A) (A) (A) (A) (A) (A)
                 (A) (A) (A) (A) (A) (A)
       Virtual   (A) (A) (A) (A) (A) (A) (A) (A) (A) (A) (A) (A)
                 (A) (A) (A) (A) (A) (A) (A) (A) (A) (A) (A) (A)
                 (A) (A) (A) (A) (A) (A) (A) (A) (A) (A) (A) (A)
                 (A) (A) (A) (A) (A)
 The electronic state of the initial guess is 1-A.
 Generating alternative initial guess.
 Harris functional with IExCor=32609 diagonalized for initial guess.
 ExpMin= 4.00D-02 ExpMax= 1.17D+07 ExpMxC= 1.33D+04 IAcc=3 IRadAn=         5 AccDes= 0.00D+00
 HarFok:  IExCor=32609 AccDes= 0.00D+00 IRadAn=         5 IDoV= 1
 ScaDFX=  1.000000  1.000000  1.000000  1.000000
 FoFCou: FMM=F IPFlag=           0 FMFlag=      100000 FMFlg1=           0
         NFxFlg=           0 DoJE=T BraDBF=F KetDBF=T FulRan=T
         Omega=  0.000000  0.000000  1.000000  0.000000  0.000000 ICntrl=     500 IOpCl=  0
         NMat0=    1 NMatS0=    1 NMatT0=    0 NMatD0=    1 NMtDS0=    0 NMtDT0=    0
         I1Cent=           4 NGrid=           0.
 Petite list used in FoFCou.
 DSYEVD returned Info=          89 IAlg= 4 N=    59 NDim=    59 NE2=    18198841 trying DSYEV.
 Harris En= -2753.24576836237    
 Leave Link  401 at Tue May 12 13:13:27 2020, MaxMem= 1073741824 cpu:       1.2
 (Enter /home/matheus/.gaussian/g09/l502.exe)
 Closed shell SCF:
 Requested convergence on RMS density matrix=1.00D-08 within 128 cycles.
 Requested convergence on MAX density matrix=1.00D-06.
 Requested convergence on             energy=1.00D-06.
 No special actions if energy rises.
 Using DIIS extrapolation, IDIIS=  1040.
 Integral symmetry usage will be decided dynamically.
        30923 words used for storage of precomputed grid.
 IEnd=       64406 IEndB=       64406 NGot=  1073741824 MDV=  1073698889
 LenX=  1073698889 LenY=  1073693687
 Fock matrices will be formed incrementally for  20 cycles.

 Cycle   1  Pass 1  IDiag  1:
 FoFJK:  IHMeth= 1 ICntrl=     0 DoSepK=T KAlg= 1 I1Cent= 0 FoldK=F
 FoFCou: FMM=F IPFlag=           0 FMFlag=      100000 FMFlg1=           0
         NFxFlg=           0 DoJE=T BraDBF=F KetDBF=F FulRan=T
         Omega=  0.000000  0.000000  1.000000  0.000000  0.000000 ICntrl=     500 IOpCl=  0
         NMat0=    1 NMatS0=    1 NMatT0=    0 NMatD0=    1 NMtDS0=    0 NMtDT0=    0
         I1Cent=           0 NGrid=           0.
 Symmetry not used in FoFCou.
 E= -2753.43563276534    
 DIIS: error= 6.43D-14 at cycle   1 NSaved=   1.
 NSaved= 1 IEnMin= 1 EnMin= -2753.43563276534     IErMin= 1 ErrMin= 6.43D-14
 ErrMax= 6.43D-14 EMaxC= 1.00D-01 BMatC= 1.43D-25 BMatP= 1.43D-25
 IDIUse=1 WtCom= 1.00D+00 WtEn= 0.00D+00
 Coeff-Com:  0.100D+01
 Coeff:      0.100D+01
 Gap=     0.599 Goal=   None    Shift=    0.000
 DSYEVD returned Info=          89 IAlg= 4 N=    59 NDim=    59 NE2=    18198197 trying DSYEV.
 RMSDP=7.57D-15 MaxDP=2.29D-13              OVMax= 2.09D-14

 SCF Done:  E(RLC-wPBE) =  -2753.43563277     A.U. after    1 cycles
             Convg  =    0.7565D-14             -V/T =  2.0014
 KE= 2.749535160915D+03 PE=-6.578948648680D+03 EE= 1.075977855000D+03
 Leave Link  502 at Tue May 12 13:13:29 2020, MaxMem= 1073741824 cpu:      12.2
 (Enter /home/matheus/.gaussian/g09/l122.exe)
 Restoring MOs from calculation   1 to rwf.
 Counterpoise: corrected energy =   -2904.960736411042
 Counterpoise: BSSE energy =       0.000021196133
 Leave Link  122 at Tue May 12 13:13:29 2020, MaxMem= 1073741824 cpu:       0.0
 (Enter /home/matheus/.gaussian/g09/l108.exe)
 Scan completed.

 Summary of the potential surface scan:
   N      R1          SCF    
 ----  ---------  -----------
    1     3.0000  -2753.43563
    2     3.1000  -2753.43563
    3     3.2000  -2753.43563
    4     3.3000  -2753.43563
    5     3.4000  -2753.43563
    6     3.5000  -2753.43563
    7     3.6000  -2753.43563
    8     3.7000  -2753.43563
    9     3.8000  -2753.43563
   10     3.9000  -2753.43563
   11     4.0000  -2753.43563
   12     4.1000  -2753.43563
   13     4.2000  -2753.43563
   14     4.3000  -2753.43563
   15     4.4000  -2753.43563
   16     4.5000  -2753.43563
   17     4.6000  -2753.43563
   18     4.7000  -2753.43563
   19     4.8000  -2753.43563
   20     4.9000  -2753.43563
   21     5.0000  -2753.43563
 ----  ---------  -----------
  
 Leave Link  108 at Tue May 12 13:13:29 2020, MaxMem= 1073741824 cpu:       0.0
 (Enter /home/matheus/.gaussian/g09/l9999.exe)
 1\1\GINC-REDGIANT\Scan\RLC-wPBE\Aug-CC-pVTZ\H2Kr1O2\MATHEUS\12-May-202
 0\1\\#p lc-wpbe/aug-cc-PVTz int=ultrafine counterpoise=2 Scan\\TCC\\0,
 1\O,0,0.,0.,0.725\O,0,0.,0.,-0.725\H,0,0.9187205947,0.,1.0235104166\H,
 0,0.,0.9187205947,-1.0235104166\Kr,0,0.,R1,0.\\R1=3.,s,20,0.1\\Version
 =EM64L-G09RevC.01\State=1-A\HF=-2753.4356328,-2753.4356328,-2753.43563
 28,-2753.4356328,-2753.4356328,-2753.4356328,-2753.4356328,-2753.43563
 28,-2753.4356328,-2753.4356328,-2753.4356328,-2753.4356328,-2753.43563
 28,-2753.4356328,-2753.4356328,-2753.4356328,-2753.4356328,-2753.43563
 28,-2753.4356328,-2753.4356328,-2753.4356328\RMSD=1.428e-09,5.221e-11,
 1.075e-11,2.471e-12,6.396e-13,1.587e-13,4.083e-14,1.243e-14,5.303e-15,
 1.217e-14,1.519e-14,4.959e-15,7.427e-15,4.655e-15,7.804e-15,7.868e-15,
 5.406e-15,4.547e-15,2.469e-15,6.919e-15,7.565e-15\PG=C01 [X(H2Kr1O2)]\
 \@


 MAN IS A SINGULAR CREATURE.  HE HAS A SET OF GIFTS
 WHICH MAKE HIM UNIQUE AMONG THE ANIMALS: SO THAT, 
 UNLIKE THEM, HE IS NOT A FIGURE IN THE LANDSCAPE --
 HE IS A SHAPER OF THE LANDSCAPE.

                       -- JACOB BRONOWSKI
 Job cpu time:  0 days  3 hours 30 minutes 39.0 seconds.
 File lengths (MBytes):  RWF=     37 Int=      0 D2E=      0 Chk=      8 Scr=      1
 Normal termination of Gaussian 09 at Tue May 12 13:13:29 2020.
