 Entering Gaussian System, Link 0=g09
 Input=/home/matheus/.tcc/Inputs/Inputs-lc-wpbe-default/H2O2-Kr_29.com
 Output=/home/matheus/.tcc/Logs/Logs-lc-wpbe-default/H2O2-Kr_29.log
 Initial command:
 /home/matheus/.gaussian/g09/l1.exe /home/matheus/.gaussian/g09/scratch/Gau-5482.inp -scrdir=/home/matheus/.gaussian/g09/scratch/
 Entering Link 1 = /home/matheus/.gaussian/g09/l1.exe PID=      5486.
  
 Copyright (c) 1988,1990,1992,1993,1995,1998,2003,2009,2011,
            Gaussian, Inc.  All Rights Reserved.
  
 This is part of the Gaussian(R) 09 program.  It is based on
 the Gaussian(R) 03 system (copyright 2003, Gaussian, Inc.),
 the Gaussian(R) 98 system (copyright 1998, Gaussian, Inc.),
 the Gaussian(R) 94 system (copyright 1995, Gaussian, Inc.),
 the Gaussian 92(TM) system (copyright 1992, Gaussian, Inc.),
 the Gaussian 90(TM) system (copyright 1990, Gaussian, Inc.),
 the Gaussian 88(TM) system (copyright 1988, Gaussian, Inc.),
 the Gaussian 86(TM) system (copyright 1986, Carnegie Mellon
 University), and the Gaussian 82(TM) system (copyright 1983,
 Carnegie Mellon University). Gaussian is a federally registered
 trademark of Gaussian, Inc.
  
 This software contains proprietary and confidential information,
 including trade secrets, belonging to Gaussian, Inc.
  
 This software is provided under written license and may be
 used, copied, transmitted, or stored only in accord with that
 written license.
  
 The following legend is applicable only to US Government
 contracts under FAR:
  
                    RESTRICTED RIGHTS LEGEND
  
 Use, reproduction and disclosure by the US Government is
 subject to restrictions as set forth in subparagraphs (a)
 and (c) of the Commercial Computer Software - Restricted
 Rights clause in FAR 52.227-19.
  
 Gaussian, Inc.
 340 Quinnipiac St., Bldg. 40, Wallingford CT 06492
  
  
 ---------------------------------------------------------------
 Warning -- This program may not be used in any manner that
 competes with the business of Gaussian, Inc. or will provide
 assistance to any competitor of Gaussian, Inc.  The licensee
 of this program is prohibited from giving any competitor of
 Gaussian, Inc. access to this program.  By using this program,
 the user acknowledges that Gaussian, Inc. is engaged in the
 business of creating and licensing software in the field of
 computational chemistry and represents and warrants to the
 licensee that it is not a competitor of Gaussian, Inc. and that
 it will not use this program in any manner prohibited above.
 ---------------------------------------------------------------
  

 Cite this work as:
 Gaussian 09, Revision C.01,
 M. J. Frisch, G. W. Trucks, H. B. Schlegel, G. E. Scuseria, 
 M. A. Robb, J. R. Cheeseman, G. Scalmani, V. Barone, B. Mennucci, 
 G. A. Petersson, H. Nakatsuji, M. Caricato, X. Li, H. P. Hratchian, 
 A. F. Izmaylov, J. Bloino, G. Zheng, J. L. Sonnenberg, M. Hada, 
 M. Ehara, K. Toyota, R. Fukuda, J. Hasegawa, M. Ishida, T. Nakajima, 
 Y. Honda, O. Kitao, H. Nakai, T. Vreven, J. A. Montgomery, Jr., 
 J. E. Peralta, F. Ogliaro, M. Bearpark, J. J. Heyd, E. Brothers, 
 K. N. Kudin, V. N. Staroverov, T. Keith, R. Kobayashi, J. Normand, 
 K. Raghavachari, A. Rendell, J. C. Burant, S. S. Iyengar, J. Tomasi, 
 M. Cossi, N. Rega, J. M. Millam, M. Klene, J. E. Knox, J. B. Cross, 
 V. Bakken, C. Adamo, J. Jaramillo, R. Gomperts, R. E. Stratmann, 
 O. Yazyev, A. J. Austin, R. Cammi, C. Pomelli, J. W. Ochterski, 
 R. L. Martin, K. Morokuma, V. G. Zakrzewski, G. A. Voth, 
 P. Salvador, J. J. Dannenberg, S. Dapprich, A. D. Daniels, 
 O. Farkas, J. B. Foresman, J. V. Ortiz, J. Cioslowski, 
 and D. J. Fox, Gaussian, Inc., Wallingford CT, 2010.
 
 ******************************************
 Gaussian 09:  EM64L-G09RevC.01 23-Sep-2011
                12-May-2020 
 ******************************************
 %mem=8GB
 %nproc=8
 Will use up to    8 processors via shared memory.
 --------------------------------------------------------
 #p lc-wpbe/aug-cc-PVTz int=ultrafine counterpoise=2 Scan
 --------------------------------------------------------
 1/38=1,60=1,62=2/1,8;
 2/12=2,17=6,18=5,29=3,40=1/2;
 1/38=1,53=5172,62=2/22;
 3/5=16,6=1,7=10,11=2,16=1,25=1,30=1,74=-41,75=-5/1,2,3;
 4//1;
 5/5=2,38=5/2;
 6/7=2,8=2,9=2,10=2,18=1,28=1/1;
 1/53=4052,62=2,63=1/22;
 3/5=7,6=11,7=10,11=2,16=1,25=1,30=1,74=-41,75=-5,82=7/1,2,3;
 4//1;
 5/5=2,38=5/2;
 6/7=2,8=2,9=2,10=2,18=1,28=1/1;
 1/53=3042,62=2,63=2/22;
 3/5=7,6=11,7=10,11=2,16=1,25=1,30=1,74=-41,75=-5,82=7/1,2,3;
 4//1;
 5/5=2,38=5/2;
 6/7=2,8=2,9=2,10=2,18=1,28=1/1;
 1/53=2032,62=2,63=3/22;
 3/5=7,6=11,7=10,11=2,16=1,25=1,30=1,74=-41,75=-5,82=7/1,2,3;
 4//1;
 5/5=2,38=5/2;
 6/7=2,8=2,9=2,10=2,18=1,28=1/1;
 1/53=1022,62=2,63=4/22;
 3/5=7,6=11,7=10,11=2,16=1,25=1,30=1,74=-41,75=-5,82=7/1,2,3;
 4//1;
 5/5=2,38=5/2;
 6/7=2,8=2,9=2,10=2,18=1,28=1/1;
 1/53=5014,62=2,63=5/22;
 1/60=1,62=2/8(1);
 99/9=1/99;
 2/29=3/2;
 1/53=5173,62=2/22;
 3/5=7,6=11,7=10,11=2,16=1,25=1,30=1,74=-41,75=-5,82=7/1,2,3;
 4/5=5,16=3/1;
 5/5=2,38=5/2;
 1/53=4053,62=2,63=1/22;
 3/5=7,6=11,7=10,11=2,16=1,25=1,30=1,74=-41,75=-5,82=7/1,2,3;
 4/5=5,16=3/1;
 5/5=2,38=5/2;
 1/53=3043,62=2,63=2/22;
 3/5=7,6=11,7=10,11=2,16=1,25=1,30=1,74=-41,75=-5,82=7/1,2,3;
 4/5=5,16=3/1;
 5/5=2,38=5/2;
 1/53=2033,62=2,63=3/22;
 3/5=7,6=11,7=10,11=2,16=1,25=1,30=1,74=-41,75=-5,82=7/1,2,3;
 4/5=5,16=3/1;
 5/5=2,38=5/2;
 1/53=1024,62=2,63=4/22;
 3/5=7,6=11,7=10,11=2,16=1,25=1,30=1,74=-41,75=-5,82=7/1,2,3;
 4/5=5,16=3/1;
 5/5=2,38=5/2;
 1/53=5014,62=2,63=5/22;
 1/60=1,62=2/8(-22);
 99/9=1/99;
 Leave Link    1 at Tue May 12 20:54:59 2020, MaxMem= 1073741824 cpu:       0.1
 (Enter /home/matheus/.gaussian/g09/l101.exe)
 ---
 TCC
 ---
 Charge =  0 Multiplicity = 1 in supermolecule
 Charge =  0 Multiplicity = 1 in fragment  1.
 Charge =  0 Multiplicity = 1 in fragment  2.
 Symbolic Z-Matrix:
 O(Fragment=1)         0.        0.        0.725 
 O(Fragment=1)         0.        0.       -0.725 
 H(Fragment=1)        -0.86331   0.31422   1.02351 
 H(Fragment=1)         0.        0.91872  -1.02351 
 Kr(Fragment=2)        0.       R1        0. 
       Variables:
  R1                    3.     Scan 20    0.1    
 
 NAtoms=      5 NQM=        0 NQMF=       0 NMMI=      5 NMMIF=      0
                NMic=       0 NMicF=      0.
                    Isotopes and Nuclear Properties:
 (Nuclear quadrupole moments (NQMom) in fm**2, nuclear magnetic moments (NMagM)
  in nuclear magnetons)

  Atom         1           2           3           4           5
 IAtWgt=          16          16           1           1          84
 AtmWgt=  15.9949146  15.9949146   1.0078250   1.0078250  83.9115064
 NucSpn=           0           0           1           1           0
 AtZEff=   0.0000000   0.0000000   0.0000000   0.0000000   0.0000000
 NQMom=    0.0000000   0.0000000   0.0000000   0.0000000   0.0000000
 NMagM=    0.0000000   0.0000000   2.7928460   2.7928460   0.0000000
 Leave Link  101 at Tue May 12 20:54:59 2020, MaxMem= 1073741824 cpu:       0.3
 (Enter /home/matheus/.gaussian/g09/l108.exe)
 Scan the potential surface.
 Variable   Value     No. Steps Step-Size
 -------- ----------- --------- ---------
     1       3.000000      20      0.1000
 A total of     21 points will be computed.
 Leave Link  108 at Tue May 12 20:54:59 2020, MaxMem= 1073741824 cpu:       0.0
 (Enter /home/matheus/.gaussian/g09/l202.exe)
 ---------------------------------------------------------------------------------------------------
                            Z-MATRIX (ANGSTROMS AND DEGREES)
   CD    Cent   Atom    N1       Length/X        N2       Alpha/Y        N3        Beta/Z          J
 ---------------------------------------------------------------------------------------------------
      1      1  O        0   0.000000          0.000000          0.725000
      2      2  O        0   0.000000          0.000000         -0.725000
      3      3  H        0  -0.863315          0.314221          1.023510
      4      4  H        0   0.000000          0.918721         -1.023510
      5      5  Kr       0   0.000000          3.000000          0.000000
 ---------------------------------------------------------------------------------------------------
                         Z-Matrix orientation:                         
 ---------------------------------------------------------------------
 Center     Atomic      Atomic             Coordinates (Angstroms)
 Number     Number       Type             X           Y           Z
 ---------------------------------------------------------------------
      1          8           0        0.000000    0.000000    0.725000
      2          8           0        0.000000    0.000000   -0.725000
      3          1           0       -0.863315    0.314221    1.023510
      4          1           0        0.000000    0.918721   -1.023510
      5         36           0        0.000000    3.000000    0.000000
 ---------------------------------------------------------------------
                    Distance matrix (angstroms):
                    1          2          3          4          5
     1  O    0.000000
     2  O    1.450000   0.000000
     3  H    0.966000   1.975180   0.000000
     4  H    1.975180   0.966000   2.302396   0.000000
     5  Kr   3.086361   3.086361   3.001049   2.319331   0.000000
 Stoichiometry    H2KrO2
 Framework group  C1[X(H2KrO2)]
 Deg. of freedom     9
 Full point group                 C1      NOp   1
 Largest Abelian subgroup         C1      NOp   1
 Largest concise Abelian subgroup C1      NOp   1
                         Standard orientation:                         
 ---------------------------------------------------------------------
 Center     Atomic      Atomic             Coordinates (Angstroms)
 Number     Number       Type             X           Y           Z
 ---------------------------------------------------------------------
      1          8           0       -2.027244   -0.704579   -0.107619
      2          8           0       -2.017454    0.739726    0.020400
      3          1           0       -1.727457   -1.080559    0.730189
      4          1           0       -1.096833    1.029722    0.059329
      5         36           0        0.977274   -0.006398   -0.002549
 ---------------------------------------------------------------------
 Rotational constants (GHZ):     25.7099481      2.3602095      2.1745891
 Leave Link  202 at Tue May 12 20:54:59 2020, MaxMem= 1073741824 cpu:       0.0
 (Enter /home/matheus/.gaussian/g09/l122.exe)
 Leave Link  122 at Tue May 12 20:54:59 2020, MaxMem= 1073741824 cpu:       0.0
 (Enter /home/matheus/.gaussian/g09/l301.exe)
 Standard basis: Aug-CC-pVTZ (5D, 7F)
 Ernie: Thresh=  0.10000D-02 Tol=  0.10000D-05 Strict=F.
 Ernie:  38 primitive shells out of 205 were deleted.
 There are   197 symmetry adapted basis functions of A   symmetry.
 Integral buffers will be    131072 words long.
 Raffenetti 2 integral format.
 Two-electron integral symmetry is turned on.
   197 basis functions,   415 primitive gaussians,   229 cartesian basis functions
    27 alpha electrons       27 beta electrons
       nuclear repulsion energy       149.9587672391 Hartrees.
 IExCor=32609 DFT=T Ex+Corr=LC-wPBE ExCW=0 ScaHFX=  1.000000
 ScaDFX=  1.000000  0.000000  1.000000  1.000000 ScalE2=  1.000000  1.000000
 IRadAn=      5 IRanWt=     -1 IRanGd=            0 ICorTp=0
  HFx wShort=  0.000000 wLong=  0.400000 cFull=  0.000000 cShort=  0.000000 cLong=  1.000000
  DFx wShort=  0.000000 wLong=  0.400000 cFull=  0.000000 cShort=  0.000000 cLong=  1.000000
 NAtoms=    5 NActive=    5 NUniq=    5 SFac= 1.00D+00 NAtFMM=   60 NAOKFM=F Big=F
 Leave Link  301 at Tue May 12 20:54:59 2020, MaxMem= 1073741824 cpu:       0.2
 (Enter /home/matheus/.gaussian/g09/l302.exe)
 NPDir=0 NMtPBC=     1 NCelOv=     1 NCel=       1 NClECP=     1 NCelD=      1
         NCelK=      1 NCelE2=     1 NClLst=     1 CellRange=     0.0.
 One-electron integrals computed using PRISM.
 NBasis=   197 RedAO= T  NBF=   197
 NBsUse=   197 1.00D-06 NBFU=   197
 Precomputing XC quadrature grid using
 IXCGrd= 2 IRadAn=           5 IRanWt=          -1 IRanGd=           0 AccXCQ= 0.00D+00.
 NRdTot=     427 NPtTot=      123512 NUsed=      126579 NTot=      126611
 NSgBfM=   229   229   229   229   229 NAtAll=     5     5.
 Leave Link  302 at Tue May 12 20:54:59 2020, MaxMem= 1073741824 cpu:       1.1
 (Enter /home/matheus/.gaussian/g09/l303.exe)
 DipDrv:  MaxL=1.
 Leave Link  303 at Tue May 12 20:54:59 2020, MaxMem= 1073741824 cpu:       0.2
 (Enter /home/matheus/.gaussian/g09/l401.exe)
 Harris functional with IExCor=32609 diagonalized for initial guess.
 ExpMin= 2.53D-02 ExpMax= 1.17D+07 ExpMxC= 1.33D+04 IAcc=3 IRadAn=         5 AccDes= 0.00D+00
 HarFok:  IExCor=32609 AccDes= 0.00D+00 IRadAn=         5 IDoV= 1
 ScaDFX=  1.000000  1.000000  1.000000  1.000000
 FoFCou: FMM=F IPFlag=           0 FMFlag=      100000 FMFlg1=           0
         NFxFlg=           0 DoJE=T BraDBF=F KetDBF=T FulRan=T
         Omega=  0.000000  0.000000  1.000000  0.000000  0.000000 ICntrl=     500 IOpCl=  0
         NMat0=    1 NMatS0=    1 NMatT0=    0 NMatD0=    1 NMtDS0=    0 NMtDT0=    0
         I1Cent=           4 NGrid=           0.
 Petite list used in FoFCou.
 Harris En= -2904.73835793041    
 Initial guess orbital symmetries:
       Occupied  (A) (A) (A) (A) (A) (A) (A) (A) (A) (A) (A) (A)
                 (A) (A) (A) (A) (A) (A) (A) (A) (A) (A) (A) (A)
                 (A) (A) (A)
       Virtual   (A) (A) (A) (A) (A) (A) (A) (A) (A) (A) (A) (A)
                 (A) (A) (A) (A) (A) (A) (A) (A) (A) (A) (A) (A)
                 (A) (A) (A) (A) (A) (A) (A) (A) (A) (A) (A) (A)
                 (A) (A) (A) (A) (A) (A) (A) (A) (A) (A) (A) (A)
                 (A) (A) (A) (A) (A) (A) (A) (A) (A) (A) (A) (A)
                 (A) (A) (A) (A) (A) (A) (A) (A) (A) (A) (A) (A)
                 (A) (A) (A) (A) (A) (A) (A) (A) (A) (A) (A) (A)
                 (A) (A) (A) (A) (A) (A) (A) (A) (A) (A) (A) (A)
                 (A) (A) (A) (A) (A) (A) (A) (A) (A) (A) (A) (A)
                 (A) (A) (A) (A) (A) (A) (A) (A) (A) (A) (A) (A)
                 (A) (A) (A) (A) (A) (A) (A) (A) (A) (A) (A) (A)
                 (A) (A) (A) (A) (A) (A) (A) (A) (A) (A) (A) (A)
                 (A) (A) (A) (A) (A) (A) (A) (A) (A) (A) (A) (A)
                 (A) (A) (A) (A) (A) (A) (A) (A) (A) (A) (A) (A)
                 (A) (A)
 The electronic state of the initial guess is 1-A.
 Leave Link  401 at Tue May 12 20:55:00 2020, MaxMem= 1073741824 cpu:       4.1
 (Enter /home/matheus/.gaussian/g09/l502.exe)
 Closed shell SCF:
 Requested convergence on RMS density matrix=1.00D-08 within 128 cycles.
 Requested convergence on MAX density matrix=1.00D-06.
 Requested convergence on             energy=1.00D-06.
 No special actions if energy rises.
 Using DIIS extrapolation, IDIIS=  1040.
 Integral symmetry usage will be decided dynamically.
       126521 words used for storage of precomputed grid.
 IEnd=      305468 IEndB=      305468 NGot=  1073741824 MDV=  1073505667
 LenX=  1073505667 LenY=  1073452785
 Fock matrices will be formed incrementally for  20 cycles.

 Cycle   1  Pass 1  IDiag  1:
 FoFJK:  IHMeth= 1 ICntrl=     0 DoSepK=T KAlg= 1 I1Cent= 0 FoldK=F
 FoFCou: FMM=F IPFlag=           0 FMFlag=      100000 FMFlg1=           0
         NFxFlg=           0 DoJE=T BraDBF=F KetDBF=F FulRan=T
         Omega=  0.000000  0.000000  1.000000  0.000000  0.000000 ICntrl=     500 IOpCl=  0
         NMat0=    1 NMatS0=    1 NMatT0=    0 NMatD0=    1 NMtDS0=    0 NMtDT0=    0
         I1Cent=           0 NGrid=           0.
 Symmetry not used in FoFCou.
 E= -2904.88070433849    
 DIIS: error= 2.75D-02 at cycle   1 NSaved=   1.
 NSaved= 1 IEnMin= 1 EnMin= -2904.88070433849     IErMin= 1 ErrMin= 2.75D-02
 ErrMax= 2.75D-02 EMaxC= 1.00D-01 BMatC= 2.63D-01 BMatP= 2.63D-01
 IDIUse=3 WtCom= 7.25D-01 WtEn= 2.75D-01
 Coeff-Com:  0.100D+01
 Coeff-En:   0.100D+01
 Coeff:      0.100D+01
 Gap=     0.506 Goal=   None    Shift=    0.000
 GapD=    0.506 DampG=2.000 DampE=0.500 DampFc=1.0000 IDamp=-1.
 RMSDP=2.29D-03 MaxDP=1.48D-01              OVMax= 5.98D-02

 Cycle   2  Pass 1  IDiag  1:
 RMSU=  1.59D-03    CP:  1.02D+00
 FoFJK:  IHMeth= 1 ICntrl=     0 DoSepK=T KAlg= 1 I1Cent= 0 FoldK=F
 E= -2904.92449966758     Delta-E=       -0.043795329094 Rises=F Damp=F
 DIIS: error= 1.09D-02 at cycle   2 NSaved=   2.
 NSaved= 2 IEnMin= 2 EnMin= -2904.92449966758     IErMin= 2 ErrMin= 1.09D-02
 ErrMax= 1.09D-02 EMaxC= 1.00D-01 BMatC= 7.99D-02 BMatP= 2.63D-01
 IDIUse=3 WtCom= 8.91D-01 WtEn= 1.09D-01
 Coeff-Com:  0.348D+00 0.652D+00
 Coeff-En:   0.198D+00 0.802D+00
 Coeff:      0.332D+00 0.668D+00
 Gap=     0.457 Goal=   None    Shift=    0.000
 RMSDP=9.45D-04 MaxDP=5.09D-02 DE=-4.38D-02 OVMax= 3.16D-02

 Cycle   3  Pass 1  IDiag  1:
 RMSU=  3.22D-04    CP:  1.01D+00  6.42D-01
 FoFJK:  IHMeth= 1 ICntrl=     0 DoSepK=T KAlg= 1 I1Cent= 0 FoldK=F
 E= -2904.95318366352     Delta-E=       -0.028683995933 Rises=F Damp=F
 DIIS: error= 2.17D-03 at cycle   3 NSaved=   3.
 NSaved= 3 IEnMin= 3 EnMin= -2904.95318366352     IErMin= 3 ErrMin= 2.17D-03
 ErrMax= 2.17D-03 EMaxC= 1.00D-01 BMatC= 1.90D-03 BMatP= 7.99D-02
 IDIUse=3 WtCom= 9.78D-01 WtEn= 2.17D-02
 Coeff-Com:  0.668D-01 0.199D+00 0.734D+00
 Coeff-En:   0.000D+00 0.000D+00 0.100D+01
 Coeff:      0.653D-01 0.195D+00 0.740D+00
 Gap=     0.438 Goal=   None    Shift=    0.000
 RMSDP=1.24D-04 MaxDP=3.18D-03 DE=-2.87D-02 OVMax= 8.16D-03

 Cycle   4  Pass 1  IDiag  1:
 RMSU=  6.41D-05    CP:  1.01D+00  6.71D-01  8.80D-01
 FoFJK:  IHMeth= 1 ICntrl=     0 DoSepK=T KAlg= 1 I1Cent= 0 FoldK=F
 E= -2904.95420452920     Delta-E=       -0.001020865684 Rises=F Damp=F
 DIIS: error= 4.77D-04 at cycle   4 NSaved=   4.
 NSaved= 4 IEnMin= 4 EnMin= -2904.95420452920     IErMin= 4 ErrMin= 4.77D-04
 ErrMax= 4.77D-04 EMaxC= 1.00D-01 BMatC= 1.46D-04 BMatP= 1.90D-03
 IDIUse=3 WtCom= 9.95D-01 WtEn= 4.77D-03
 Coeff-Com: -0.181D-02 0.268D-01 0.278D+00 0.697D+00
 Coeff-En:   0.000D+00 0.000D+00 0.000D+00 0.100D+01
 Coeff:     -0.180D-02 0.266D-01 0.276D+00 0.699D+00
 Gap=     0.443 Goal=   None    Shift=    0.000
 RMSDP=3.65D-05 MaxDP=2.02D-03 DE=-1.02D-03 OVMax= 1.96D-03

 Cycle   5  Pass 1  IDiag  1:
 RMSU=  1.27D-05    CP:  1.01D+00  6.74D-01  9.37D-01  8.25D-01
 FoFJK:  IHMeth= 1 ICntrl=     0 DoSepK=T KAlg= 1 I1Cent= 0 FoldK=F
 E= -2904.95428676765     Delta-E=       -0.000082238450 Rises=F Damp=F
 DIIS: error= 8.29D-05 at cycle   5 NSaved=   5.
 NSaved= 5 IEnMin= 5 EnMin= -2904.95428676765     IErMin= 5 ErrMin= 8.29D-05
 ErrMax= 8.29D-05 EMaxC= 1.00D-01 BMatC= 2.90D-06 BMatP= 1.46D-04
 IDIUse=1 WtCom= 1.00D+00 WtEn= 0.00D+00
 Coeff-Com: -0.200D-02 0.142D-02 0.493D-01 0.180D+00 0.771D+00
 Coeff:     -0.200D-02 0.142D-02 0.493D-01 0.180D+00 0.771D+00
 Gap=     0.443 Goal=   None    Shift=    0.000
 RMSDP=6.93D-06 MaxDP=2.26D-04 DE=-8.22D-05 OVMax= 5.50D-04

 Cycle   6  Pass 1  IDiag  1:
 RMSU=  4.37D-06    CP:  1.01D+00  6.74D-01  9.38D-01  8.58D-01  1.02D+00
 FoFJK:  IHMeth= 1 ICntrl=     0 DoSepK=T KAlg= 1 I1Cent= 0 FoldK=F
 E= -2904.95428825597     Delta-E=       -0.000001488317 Rises=F Damp=F
 DIIS: error= 5.69D-05 at cycle   6 NSaved=   6.
 NSaved= 6 IEnMin= 6 EnMin= -2904.95428825597     IErMin= 6 ErrMin= 5.69D-05
 ErrMax= 5.69D-05 EMaxC= 1.00D-01 BMatC= 1.16D-06 BMatP= 2.90D-06
 IDIUse=1 WtCom= 1.00D+00 WtEn= 0.00D+00
 Coeff-Com: -0.695D-03-0.308D-02-0.147D-01-0.620D-02 0.396D+00 0.629D+00
 Coeff:     -0.695D-03-0.308D-02-0.147D-01-0.620D-02 0.396D+00 0.629D+00
 Gap=     0.443 Goal=   None    Shift=    0.000
 RMSDP=3.45D-06 MaxDP=1.20D-04 DE=-1.49D-06 OVMax= 2.44D-04

 Cycle   7  Pass 1  IDiag  1:
 RMSU=  1.76D-06    CP:  1.01D+00  6.74D-01  9.39D-01  8.72D-01  1.13D+00
                    CP:  8.59D-01
 FoFJK:  IHMeth= 1 ICntrl=     0 DoSepK=T KAlg= 1 I1Cent= 0 FoldK=F
 E= -2904.95428902821     Delta-E=       -0.000000772241 Rises=F Damp=F
 DIIS: error= 1.13D-05 at cycle   7 NSaved=   7.
 NSaved= 7 IEnMin= 7 EnMin= -2904.95428902821     IErMin= 7 ErrMin= 1.13D-05
 ErrMax= 1.13D-05 EMaxC= 1.00D-01 BMatC= 4.96D-08 BMatP= 1.16D-06
 IDIUse=1 WtCom= 1.00D+00 WtEn= 0.00D+00
 Coeff-Com: -0.601D-05-0.119D-02-0.107D-01-0.241D-01 0.112D-01 0.184D+00
 Coeff-Com:  0.841D+00
 Coeff:     -0.601D-05-0.119D-02-0.107D-01-0.241D-01 0.112D-01 0.184D+00
 Coeff:      0.841D+00
 Gap=     0.443 Goal=   None    Shift=    0.000
 RMSDP=1.10D-06 MaxDP=4.22D-05 DE=-7.72D-07 OVMax= 7.33D-05

 Cycle   8  Pass 1  IDiag  1:
 RMSU=  3.52D-07    CP:  1.01D+00  6.74D-01  9.39D-01  8.76D-01  1.16D+00
                    CP:  9.70D-01  1.04D+00
 FoFJK:  IHMeth= 1 ICntrl=     0 DoSepK=T KAlg= 1 I1Cent= 0 FoldK=F
 E= -2904.95428909210     Delta-E=       -0.000000063887 Rises=F Damp=F
 DIIS: error= 1.60D-06 at cycle   8 NSaved=   8.
 NSaved= 8 IEnMin= 8 EnMin= -2904.95428909210     IErMin= 8 ErrMin= 1.60D-06
 ErrMax= 1.60D-06 EMaxC= 1.00D-01 BMatC= 7.17D-10 BMatP= 4.96D-08
 IDIUse=1 WtCom= 1.00D+00 WtEn= 0.00D+00
 Coeff-Com:  0.299D-04 0.273D-03 0.191D-02 0.346D-02-0.150D-01-0.484D-01
 Coeff-Com: -0.120D+00 0.118D+01
 Coeff:      0.299D-04 0.273D-03 0.191D-02 0.346D-02-0.150D-01-0.484D-01
 Coeff:     -0.120D+00 0.118D+01
 Gap=     0.443 Goal=   None    Shift=    0.000
 RMSDP=3.02D-07 MaxDP=8.56D-06 DE=-6.39D-08 OVMax= 2.65D-05

 Cycle   9  Pass 1  IDiag  1:
 RMSU=  8.51D-08    CP:  1.01D+00  6.74D-01  9.39D-01  8.76D-01  1.16D+00
                    CP:  9.86D-01  1.09D+00  1.36D+00
 FoFJK:  IHMeth= 1 ICntrl=     0 DoSepK=T KAlg= 1 I1Cent= 0 FoldK=F
 E= -2904.95428909462     Delta-E=       -0.000000002525 Rises=F Damp=F
 DIIS: error= 4.50D-07 at cycle   9 NSaved=   9.
 NSaved= 9 IEnMin= 9 EnMin= -2904.95428909462     IErMin= 9 ErrMin= 4.50D-07
 ErrMax= 4.50D-07 EMaxC= 1.00D-01 BMatC= 4.12D-11 BMatP= 7.17D-10
 IDIUse=1 WtCom= 1.00D+00 WtEn= 0.00D+00
 Coeff-Com: -0.144D-05 0.439D-04 0.426D-03 0.112D-02-0.433D-03-0.839D-02
 Coeff-Com: -0.390D-01 0.194D-01 0.103D+01
 Coeff:     -0.144D-05 0.439D-04 0.426D-03 0.112D-02-0.433D-03-0.839D-02
 Coeff:     -0.390D-01 0.194D-01 0.103D+01
 Gap=     0.443 Goal=   None    Shift=    0.000
 RMSDP=5.90D-08 MaxDP=2.10D-06 DE=-2.53D-09 OVMax= 6.43D-06

 Cycle  10  Pass 1  IDiag  1:
 RMSU=  2.13D-08    CP:  1.01D+00  6.74D-01  9.39D-01  8.77D-01  1.17D+00
                    CP:  9.87D-01  1.09D+00  1.44D+00  1.22D+00
 FoFJK:  IHMeth= 1 ICntrl=     0 DoSepK=T KAlg= 1 I1Cent= 0 FoldK=F
 E= -2904.95428909474     Delta-E=       -0.000000000117 Rises=F Damp=F
 DIIS: error= 1.10D-07 at cycle  10 NSaved=  10.
 NSaved=10 IEnMin=10 EnMin= -2904.95428909474     IErMin=10 ErrMin= 1.10D-07
 ErrMax= 1.10D-07 EMaxC= 1.00D-01 BMatC= 3.30D-12 BMatP= 4.12D-11
 IDIUse=1 WtCom= 1.00D+00 WtEn= 0.00D+00
 Coeff-Com: -0.189D-05-0.158D-04-0.113D-03-0.195D-03 0.107D-02 0.312D-02
 Coeff-Com:  0.603D-02-0.810D-01 0.524D-01 0.102D+01
 Coeff:     -0.189D-05-0.158D-04-0.113D-03-0.195D-03 0.107D-02 0.312D-02
 Coeff:      0.603D-02-0.810D-01 0.524D-01 0.102D+01
 Gap=     0.443 Goal=   None    Shift=    0.000
 RMSDP=1.88D-08 MaxDP=9.00D-07 DE=-1.17D-10 OVMax= 2.12D-06

 Cycle  11  Pass 1  IDiag  1:
 RMSU=  6.11D-09    CP:  1.01D+00  6.74D-01  9.39D-01  8.77D-01  1.17D+00
                    CP:  9.86D-01  1.09D+00  1.45D+00  1.32D+00  1.27D+00
 FoFJK:  IHMeth= 1 ICntrl=     0 DoSepK=T KAlg= 1 I1Cent= 0 FoldK=F
 E= -2904.95428909474     Delta-E=       -0.000000000002 Rises=F Damp=F
 DIIS: error= 3.82D-08 at cycle  11 NSaved=  11.
 NSaved=11 IEnMin=11 EnMin= -2904.95428909474     IErMin=11 ErrMin= 3.82D-08
 ErrMax= 3.82D-08 EMaxC= 1.00D-01 BMatC= 3.07D-13 BMatP= 3.30D-12
 IDIUse=1 WtCom= 1.00D+00 WtEn= 0.00D+00
 Coeff-Com:  0.148D-06-0.339D-05-0.339D-04-0.973D-04 0.778D-04 0.836D-03
 Coeff-Com:  0.308D-02-0.555D-02-0.699D-01 0.197D-01 0.105D+01
 Coeff:      0.148D-06-0.339D-05-0.339D-04-0.973D-04 0.778D-04 0.836D-03
 Coeff:      0.308D-02-0.555D-02-0.699D-01 0.197D-01 0.105D+01
 Gap=     0.443 Goal=   None    Shift=    0.000
 RMSDP=6.18D-09 MaxDP=2.19D-07 DE=-1.82D-12 OVMax= 7.51D-07

 SCF Done:  E(RLC-wPBE) =  -2904.95428909     A.U. after   11 cycles
             Convg  =    0.6184D-08             -V/T =  2.0017
 KE= 2.900054494180D+03 PE=-7.236399308809D+03 EE= 1.281431758295D+03
 Leave Link  502 at Tue May 12 20:55:34 2020, MaxMem= 1073741824 cpu:     274.0
 (Enter /home/matheus/.gaussian/g09/l601.exe)
 Copying SCF densities to generalized density rwf, IOpCl= 0 IROHF=0.

 **********************************************************************

            Population analysis using the SCF density.

 **********************************************************************

 Orbital symmetries:
       Occupied  (A) (A) (A) (A) (A) (A) (A) (A) (A) (A) (A) (A)
                 (A) (A) (A) (A) (A) (A) (A) (A) (A) (A) (A) (A)
                 (A) (A) (A)
       Virtual   (A) (A) (A) (A) (A) (A) (A) (A) (A) (A) (A) (A)
                 (A) (A) (A) (A) (A) (A) (A) (A) (A) (A) (A) (A)
                 (A) (A) (A) (A) (A) (A) (A) (A) (A) (A) (A) (A)
                 (A) (A) (A) (A) (A) (A) (A) (A) (A) (A) (A) (A)
                 (A) (A) (A) (A) (A) (A) (A) (A) (A) (A) (A) (A)
                 (A) (A) (A) (A) (A) (A) (A) (A) (A) (A) (A) (A)
                 (A) (A) (A) (A) (A) (A) (A) (A) (A) (A) (A) (A)
                 (A) (A) (A) (A) (A) (A) (A) (A) (A) (A) (A) (A)
                 (A) (A) (A) (A) (A) (A) (A) (A) (A) (A) (A) (A)
                 (A) (A) (A) (A) (A) (A) (A) (A) (A) (A) (A) (A)
                 (A) (A) (A) (A) (A) (A) (A) (A) (A) (A) (A) (A)
                 (A) (A) (A) (A) (A) (A) (A) (A) (A) (A) (A) (A)
                 (A) (A) (A) (A) (A) (A) (A) (A) (A) (A) (A) (A)
                 (A) (A) (A) (A) (A) (A) (A) (A) (A) (A) (A) (A)
                 (A) (A)
 The electronic state is 1-A.
 Alpha  occ. eigenvalues -- -511.12712 -66.67403 -60.33626 -60.33611 -60.33601
 Alpha  occ. eigenvalues --  -19.03621 -19.03287  -9.60684  -7.35146  -7.35102
 Alpha  occ. eigenvalues --   -7.35072  -3.30685  -3.30677  -3.30656  -3.30623
 Alpha  occ. eigenvalues --   -3.30620  -1.25452  -1.05551  -1.03838  -0.69984
 Alpha  occ. eigenvalues --   -0.59545  -0.56066  -0.52619  -0.52243  -0.51198
 Alpha  occ. eigenvalues --   -0.44908  -0.41208
 Alpha virt. eigenvalues --    0.03103   0.04128   0.08238   0.09264   0.10232
 Alpha virt. eigenvalues --    0.11404   0.13166   0.14070   0.17249   0.17789
 Alpha virt. eigenvalues --    0.18150   0.19279   0.20230   0.22118   0.23901
 Alpha virt. eigenvalues --    0.24724   0.25949   0.28522   0.31198   0.32407
 Alpha virt. eigenvalues --    0.33798   0.35453   0.37388   0.39181   0.39674
 Alpha virt. eigenvalues --    0.40917   0.42948   0.47638   0.53337   0.54955
 Alpha virt. eigenvalues --    0.55838   0.60337   0.61961   0.64409   0.68396
 Alpha virt. eigenvalues --    0.70872   0.71997   0.73954   0.75615   0.75878
 Alpha virt. eigenvalues --    0.77390   0.77602   0.79488   0.80823   0.83619
 Alpha virt. eigenvalues --    0.84296   0.87094   0.89028   0.90621   0.91570
 Alpha virt. eigenvalues --    0.92004   0.94423   0.95423   0.97402   0.98769
 Alpha virt. eigenvalues --    0.99686   1.03595   1.05973   1.07845   1.09766
 Alpha virt. eigenvalues --    1.10993   1.14860   1.18066   1.22934   1.24892
 Alpha virt. eigenvalues --    1.26667   1.32214   1.36407   1.37849   1.40937
 Alpha virt. eigenvalues --    1.43465   1.48160   1.50501   1.55038   1.59524
 Alpha virt. eigenvalues --    1.69016   1.69805   1.83323   1.92074   1.93325
 Alpha virt. eigenvalues --    2.00914   2.03075   2.05718   2.09525   2.13401
 Alpha virt. eigenvalues --    2.15623   2.18116   2.20261   2.22593   2.25619
 Alpha virt. eigenvalues --    2.26364   2.29401   2.30147   2.31155   2.33131
 Alpha virt. eigenvalues --    2.36142   2.38578   2.44534   2.47832   2.48439
 Alpha virt. eigenvalues --    2.49283   2.50839   2.52651   2.57056   2.57336
 Alpha virt. eigenvalues --    2.59795   2.62915   2.65022   2.70882   2.71215
 Alpha virt. eigenvalues --    2.72245   2.75762   2.78514   2.84438   2.88674
 Alpha virt. eigenvalues --    2.95068   3.02477   3.09108   3.12387   3.60390
 Alpha virt. eigenvalues --    3.68244   3.93139   3.94159   3.98667   4.06642
 Alpha virt. eigenvalues --    4.09669   4.13012   4.24083   4.24176   4.28606
 Alpha virt. eigenvalues --    4.36550   4.46950   4.50788   4.56940   4.71554
 Alpha virt. eigenvalues --    4.93818   4.96631   4.99602   5.12758   5.15613
 Alpha virt. eigenvalues --    5.18233   5.41551   5.83602   6.00257   6.12616
 Alpha virt. eigenvalues --    6.19088   6.24258   6.31226   6.40484   6.48417
 Alpha virt. eigenvalues --    6.60597   6.73393   6.74922   6.79986   6.82857
 Alpha virt. eigenvalues --    6.87474   6.88431   6.91000   6.94367   6.99690
 Alpha virt. eigenvalues --    7.05269   7.11148   7.21832   7.44581   7.51288
 Alpha virt. eigenvalues --    7.77548   8.05899   8.10758  14.02872  14.56615
          Condensed to atoms (all electrons):
              1          2          3          4          5
     1  O    8.284893  -0.241514   0.180504   0.008908  -0.021912
     2  O   -0.241514   8.272827   0.020499   0.187311  -0.014277
     3  H    0.180504   0.020499   0.589789  -0.001704  -0.002484
     4  H    0.008908   0.187311  -0.001704   0.604474  -0.012287
     5  Kr  -0.021912  -0.014277  -0.002484  -0.012287  36.041926
 Mulliken atomic charges:
              1
     1  O   -0.210880
     2  O   -0.224847
     3  H    0.213395
     4  H    0.213298
     5  Kr   0.009033
 Sum of Mulliken atomic charges =   0.00000
 Mulliken charges with hydrogens summed into heavy atoms:
              1
     1  O    0.002516
     2  O   -0.011549
     5  Kr   0.009033
 Sum of Mulliken charges with hydrogens summed into heavy atoms =   0.00000
          Condensed to fragments (all electrons):
     1      -0.009033
     2       0.009033
 Electronic spatial extent (au):  <R**2>=            481.1834
 Charge=              0.0000 electrons
 Dipole moment (field-independent basis, Debye):
    X=              2.3723    Y=             -0.3348    Z=              1.3640  Tot=              2.7569
 Quadrupole moment (field-independent basis, Debye-Ang):
   XX=            -36.7072   YY=            -27.9127   ZZ=            -29.1654
   XY=              1.5318   XZ=             -2.4474   YZ=             -1.7457
 Traceless Quadrupole moment (field-independent basis, Debye-Ang):
   XX=             -5.4454   YY=              3.3491   ZZ=              2.0964
   XY=              1.5318   XZ=             -2.4474   YZ=             -1.7457
 Octapole moment (field-independent basis, Debye-Ang**2):
  XXX=             40.5899  YYY=             -0.9208  ZZZ=              0.9576  XYY=              6.1283
  XXY=             -4.2684  XXZ=              3.5673  XZZ=              6.2200  YZZ=             -1.6801
  YYZ=              2.1642  XYZ=              3.0908
 Hexadecapole moment (field-independent basis, Debye-Ang**3):
 XXXX=           -462.2543 YYYY=            -63.1742 ZZZZ=            -29.8104 XXXY=              7.5265
 XXXZ=             -6.1865 YYYX=              2.9399 YYYZ=             -2.5823 ZZZX=             -2.1205
 ZZZY=             -1.8158 XXYY=            -83.2497 XXZZ=            -73.2421 YYZZ=            -16.0629
 XXYZ=             -5.5984 YYXZ=             -3.7505 ZZXY=              2.8653
 N-N= 1.499587672391D+02 E-N=-7.236399312031D+03  KE= 2.900054494180D+03
 No NMR shielding tensors so no spin-rotation constants.
 Leave Link  601 at Tue May 12 20:55:34 2020, MaxMem= 1073741824 cpu:       0.8
 (Enter /home/matheus/.gaussian/g09/l122.exe)
 Counterpoise: doing DCBS calculation for fragment   1 NewBq=T
 Leave Link  122 at Tue May 12 20:55:34 2020, MaxMem= 1073741824 cpu:       0.0
 (Enter /home/matheus/.gaussian/g09/l301.exe)
 Basis read from rwf:  (5D, 7F)
 No pseudopotential information found on rwf file.
 There are   197 symmetry adapted basis functions of A   symmetry.
 Integral buffers will be    131072 words long.
 Raffenetti 2 integral format.
 Two-electron integral symmetry is turned on.
   197 basis functions,   415 primitive gaussians,   229 cartesian basis functions
     9 alpha electrons        9 beta electrons
       nuclear repulsion energy        36.6380791177 Hartrees.
 IExCor=32609 DFT=T Ex+Corr=LC-wPBE ExCW=0 ScaHFX=  1.000000
 ScaDFX=  1.000000  0.000000  1.000000  1.000000 ScalE2=  1.000000  1.000000
 IRadAn=      5 IRanWt=     -1 IRanGd=            0 ICorTp=0
  HFx wShort=  0.000000 wLong=  0.400000 cFull=  0.000000 cShort=  0.000000 cLong=  1.000000
  DFx wShort=  0.000000 wLong=  0.400000 cFull=  0.000000 cShort=  0.000000 cLong=  1.000000
 NAtoms=    5 NActive=    5 NUniq=    5 SFac= 1.00D+00 NAtFMM=   60 NAOKFM=F Big=F
 No density basis found on file   718.
 Leave Link  301 at Tue May 12 20:55:35 2020, MaxMem= 1073741824 cpu:       0.2
 (Enter /home/matheus/.gaussian/g09/l302.exe)
 NPDir=0 NMtPBC=     1 NCelOv=     1 NCel=       1 NClECP=     1 NCelD=      1
         NCelK=      1 NCelE2=     1 NClLst=     1 CellRange=     0.0.
 One-electron integrals computed using PRISM.
 NBasis=   197 RedAO= T  NBF=   197
 NBsUse=   197 1.00D-06 NBFU=   197
 Precomputing XC quadrature grid using
 IXCGrd= 2 IRadAn=           5 IRanWt=          -1 IRanGd=           0 AccXCQ= 0.00D+00.
 NRdTot=     427 NPtTot=      123512 NUsed=      126579 NTot=      126611
 NSgBfM=   229   229   229   229   229 NAtAll=     5     5.
 Leave Link  302 at Tue May 12 20:55:35 2020, MaxMem= 1073741824 cpu:       0.9
 (Enter /home/matheus/.gaussian/g09/l303.exe)
 DipDrv:  MaxL=1.
 Leave Link  303 at Tue May 12 20:55:35 2020, MaxMem= 1073741824 cpu:       0.2
 (Enter /home/matheus/.gaussian/g09/l401.exe)
 Harris functional with IExCor=32609 diagonalized for initial guess.
 ExpMin= 2.53D-02 ExpMax= 1.17D+07 ExpMxC= 1.33D+04 IAcc=3 IRadAn=         5 AccDes= 0.00D+00
 HarFok:  IExCor=32609 AccDes= 0.00D+00 IRadAn=         5 IDoV= 1
 ScaDFX=  1.000000  1.000000  1.000000  1.000000
 FoFCou: FMM=F IPFlag=           0 FMFlag=      100000 FMFlg1=           0
         NFxFlg=           0 DoJE=T BraDBF=F KetDBF=T FulRan=T
         Omega=  0.000000  0.000000  1.000000  0.000000  0.000000 ICntrl=     500 IOpCl=  0
         NMat0=    1 NMatS0=    1 NMatT0=    0 NMatD0=    1 NMtDS0=    0 NMtDT0=    0
         I1Cent=           4 NGrid=           0.
 Petite list used in FoFCou.
 Harris En= -151.502323172260    
 Initial guess orbital symmetries:
       Occupied  (A) (A) (A) (A) (A) (A) (A) (A) (A)
       Virtual   (A) (A) (A) (A) (A) (A) (A) (A) (A) (A) (A) (A)
                 (A) (A) (A) (A) (A) (A) (A) (A) (A) (A) (A) (A)
                 (A) (A) (A) (A) (A) (A) (A) (A) (A) (A) (A) (A)
                 (A) (A) (A) (A) (A) (A) (A) (A) (A) (A) (A) (A)
                 (A) (A) (A) (A) (A) (A) (A) (A) (A) (A) (A) (A)
                 (A) (A) (A) (A) (A) (A) (A) (A) (A) (A) (A) (A)
                 (A) (A) (A) (A) (A) (A) (A) (A) (A) (A) (A) (A)
                 (A) (A) (A) (A) (A) (A) (A) (A) (A) (A) (A) (A)
                 (A) (A) (A) (A) (A) (A) (A) (A) (A) (A) (A) (A)
                 (A) (A) (A) (A) (A) (A) (A) (A) (A) (A) (A) (A)
                 (A) (A) (A) (A) (A) (A) (A) (A) (A) (A) (A) (A)
                 (A) (A) (A) (A) (A) (A) (A) (A) (A) (A) (A) (A)
                 (A) (A) (A) (A) (A) (A) (A) (A) (A) (A) (A) (A)
                 (A) (A) (A) (A) (A) (A) (A) (A) (A) (A) (A) (A)
                 (A) (A) (A) (A) (A) (A) (A) (A) (A) (A) (A) (A)
                 (A) (A) (A) (A) (A) (A) (A) (A)
 The electronic state of the initial guess is 1-A.
 Leave Link  401 at Tue May 12 20:55:35 2020, MaxMem= 1073741824 cpu:       4.0
 (Enter /home/matheus/.gaussian/g09/l502.exe)
 Closed shell SCF:
 Requested convergence on RMS density matrix=1.00D-08 within 128 cycles.
 Requested convergence on MAX density matrix=1.00D-06.
 Requested convergence on             energy=1.00D-06.
 No special actions if energy rises.
 Using DIIS extrapolation, IDIIS=  1040.
 Integral symmetry usage will be decided dynamically.
       126521 words used for storage of precomputed grid.
 IEnd=      305468 IEndB=      305468 NGot=  1073741824 MDV=  1073505667
 LenX=  1073505667 LenY=  1073452785
 Fock matrices will be formed incrementally for  20 cycles.

 Cycle   1  Pass 1  IDiag  1:
 FoFJK:  IHMeth= 1 ICntrl=     0 DoSepK=T KAlg= 1 I1Cent= 0 FoldK=F
 FoFCou: FMM=F IPFlag=           0 FMFlag=      100000 FMFlg1=           0
         NFxFlg=           0 DoJE=T BraDBF=F KetDBF=F FulRan=T
         Omega=  0.000000  0.000000  1.000000  0.000000  0.000000 ICntrl=     500 IOpCl=  0
         NMat0=    1 NMatS0=    1 NMatT0=    0 NMatD0=    1 NMtDS0=    0 NMtDT0=    0
         I1Cent=           0 NGrid=           0.
 Symmetry not used in FoFCou.
 E= -151.496244746562    
 DIIS: error= 1.26D-02 at cycle   1 NSaved=   1.
 NSaved= 1 IEnMin= 1 EnMin= -151.496244746562     IErMin= 1 ErrMin= 1.26D-02
 ErrMax= 1.26D-02 EMaxC= 1.00D-01 BMatC= 3.98D-02 BMatP= 3.98D-02
 IDIUse=3 WtCom= 8.74D-01 WtEn= 1.26D-01
 Coeff-Com:  0.100D+01
 Coeff-En:   0.100D+01
 Coeff:      0.100D+01
 Gap=     0.506 Goal=   None    Shift=    0.000
 GapD=    0.506 DampG=2.000 DampE=0.500 DampFc=1.0000 IDamp=-1.
 RMSDP=8.45D-04 MaxDP=2.39D-02              OVMax= 6.00D-02

 Cycle   2  Pass 1  IDiag  1:
 RMSU=  5.94D-04    CP:  9.91D-01
 FoFJK:  IHMeth= 1 ICntrl=     0 DoSepK=T KAlg= 1 I1Cent= 0 FoldK=F
 E= -151.510126277796     Delta-E=       -0.013881531233 Rises=F Damp=F
 DIIS: error= 8.68D-03 at cycle   2 NSaved=   2.
 NSaved= 2 IEnMin= 2 EnMin= -151.510126277796     IErMin= 2 ErrMin= 8.68D-03
 ErrMax= 8.68D-03 EMaxC= 1.00D-01 BMatC= 2.29D-02 BMatP= 3.98D-02
 IDIUse=3 WtCom= 9.13D-01 WtEn= 8.68D-02
 Coeff-Com:  0.424D+00 0.576D+00
 Coeff-En:   0.266D+00 0.734D+00
 Coeff:      0.410D+00 0.590D+00
 Gap=     0.442 Goal=   None    Shift=    0.000
 RMSDP=4.70D-04 MaxDP=2.33D-02 DE=-1.39D-02 OVMax= 2.71D-02

 Cycle   3  Pass 1  IDiag  1:
 RMSU=  2.36D-04    CP:  9.86D-01  6.10D-01
 FoFJK:  IHMeth= 1 ICntrl=     0 DoSepK=T KAlg= 1 I1Cent= 0 FoldK=F
 E= -151.523505783125     Delta-E=       -0.013379505329 Rises=F Damp=F
 DIIS: error= 1.55D-03 at cycle   3 NSaved=   3.
 NSaved= 3 IEnMin= 3 EnMin= -151.523505783125     IErMin= 3 ErrMin= 1.55D-03
 ErrMax= 1.55D-03 EMaxC= 1.00D-01 BMatC= 3.95D-04 BMatP= 2.29D-02
 IDIUse=3 WtCom= 9.85D-01 WtEn= 1.55D-02
 Coeff-Com:  0.657D-01 0.147D+00 0.787D+00
 Coeff-En:   0.000D+00 0.000D+00 0.100D+01
 Coeff:      0.647D-01 0.145D+00 0.790D+00
 Gap=     0.436 Goal=   None    Shift=    0.000
 RMSDP=5.63D-05 MaxDP=2.01D-03 DE=-1.34D-02 OVMax= 4.01D-03

 Cycle   4  Pass 1  IDiag  1:
 RMSU=  2.85D-05    CP:  9.85D-01  6.52D-01  1.02D+00
 FoFJK:  IHMeth= 1 ICntrl=     0 DoSepK=T KAlg= 1 I1Cent= 0 FoldK=F
 E= -151.523747231083     Delta-E=       -0.000241447959 Rises=F Damp=F
 DIIS: error= 1.70D-04 at cycle   4 NSaved=   4.
 NSaved= 4 IEnMin= 4 EnMin= -151.523747231083     IErMin= 4 ErrMin= 1.70D-04
 ErrMax= 1.70D-04 EMaxC= 1.00D-01 BMatC= 1.39D-05 BMatP= 3.95D-04
 IDIUse=3 WtCom= 9.98D-01 WtEn= 1.70D-03
 Coeff-Com: -0.525D-02-0.962D-02 0.116D+00 0.899D+00
 Coeff-En:   0.000D+00 0.000D+00 0.000D+00 0.100D+01
 Coeff:     -0.524D-02-0.960D-02 0.116D+00 0.899D+00
 Gap=     0.438 Goal=   None    Shift=    0.000
 RMSDP=1.31D-05 MaxDP=7.68D-04 DE=-2.41D-04 OVMax= 7.39D-04

 Cycle   5  Pass 1  IDiag  1:
 RMSU=  5.72D-06    CP:  9.85D-01  6.50D-01  1.05D+00  1.00D+00
 FoFJK:  IHMeth= 1 ICntrl=     0 DoSepK=T KAlg= 1 I1Cent= 0 FoldK=F
 E= -151.523756928482     Delta-E=       -0.000009697399 Rises=F Damp=F
 DIIS: error= 2.84D-05 at cycle   5 NSaved=   5.
 NSaved= 5 IEnMin= 5 EnMin= -151.523756928482     IErMin= 5 ErrMin= 2.84D-05
 ErrMax= 2.84D-05 EMaxC= 1.00D-01 BMatC= 1.14D-07 BMatP= 1.39D-05
 IDIUse=1 WtCom= 1.00D+00 WtEn= 0.00D+00
 Coeff-Com: -0.816D-03-0.207D-02-0.280D-01-0.849D-01 0.112D+01
 Coeff:     -0.816D-03-0.207D-02-0.280D-01-0.849D-01 0.112D+01
 Gap=     0.438 Goal=   None    Shift=    0.000
 RMSDP=2.93D-06 MaxDP=1.06D-04 DE=-9.70D-06 OVMax= 2.55D-04

 Cycle   6  Pass 1  IDiag  1:
 RMSU=  9.02D-07    CP:  9.85D-01  6.50D-01  1.05D+00  1.03D+00  1.29D+00
 FoFJK:  IHMeth= 1 ICntrl=     0 DoSepK=T KAlg= 1 I1Cent= 0 FoldK=F
 E= -151.523757193958     Delta-E=       -0.000000265476 Rises=F Damp=F
 DIIS: error= 5.94D-06 at cycle   6 NSaved=   6.
 NSaved= 6 IEnMin= 6 EnMin= -151.523757193958     IErMin= 6 ErrMin= 5.94D-06
 ErrMax= 5.94D-06 EMaxC= 1.00D-01 BMatC= 5.12D-09 BMatP= 1.14D-07
 IDIUse=1 WtCom= 1.00D+00 WtEn= 0.00D+00
 Coeff-Com:  0.146D-03 0.350D-03-0.657D-03-0.124D-01-0.539D-01 0.107D+01
 Coeff:      0.146D-03 0.350D-03-0.657D-03-0.124D-01-0.539D-01 0.107D+01
 Gap=     0.438 Goal=   None    Shift=    0.000
 RMSDP=5.64D-07 MaxDP=1.63D-05 DE=-2.65D-07 OVMax= 8.81D-05

 Cycle   7  Pass 1  IDiag  1:
 RMSU=  2.17D-07    CP:  9.85D-01  6.51D-01  1.05D+00  1.03D+00  1.33D+00
                    CP:  1.22D+00
 FoFJK:  IHMeth= 1 ICntrl=     0 DoSepK=T KAlg= 1 I1Cent= 0 FoldK=F
 E= -151.523757210756     Delta-E=       -0.000000016798 Rises=F Damp=F
 DIIS: error= 2.28D-06 at cycle   7 NSaved=   7.
 NSaved= 7 IEnMin= 7 EnMin= -151.523757210756     IErMin= 7 ErrMin= 2.28D-06
 ErrMax= 2.28D-06 EMaxC= 1.00D-01 BMatC= 7.48D-10 BMatP= 5.12D-09
 IDIUse=1 WtCom= 1.00D+00 WtEn= 0.00D+00
 Coeff-Com:  0.520D-04 0.130D-03 0.136D-02 0.400D-02-0.722D-01 0.544D-01
 Coeff-Com:  0.101D+01
 Coeff:      0.520D-04 0.130D-03 0.136D-02 0.400D-02-0.722D-01 0.544D-01
 Coeff:      0.101D+01
 Gap=     0.438 Goal=   None    Shift=    0.000
 RMSDP=2.01D-07 MaxDP=5.68D-06 DE=-1.68D-08 OVMax= 3.71D-05

 Cycle   8  Pass 1  IDiag  1:
 RMSU=  7.48D-08    CP:  9.85D-01  6.51D-01  1.05D+00  1.03D+00  1.34D+00
                    CP:  1.31D+00  1.32D+00
 FoFJK:  IHMeth= 1 ICntrl=     0 DoSepK=T KAlg= 1 I1Cent= 0 FoldK=F
 E= -151.523757215253     Delta-E=       -0.000000004497 Rises=F Damp=F
 DIIS: error= 1.05D-06 at cycle   8 NSaved=   8.
 NSaved= 8 IEnMin= 8 EnMin= -151.523757215253     IErMin= 8 ErrMin= 1.05D-06
 ErrMax= 1.05D-06 EMaxC= 1.00D-01 BMatC= 3.80D-10 BMatP= 7.48D-10
 IDIUse=1 WtCom= 1.00D+00 WtEn= 0.00D+00
 Coeff-Com:  0.997D-05 0.226D-04 0.666D-03 0.318D-02-0.282D-01-0.859D-01
 Coeff-Com:  0.491D+00 0.619D+00
 Coeff:      0.997D-05 0.226D-04 0.666D-03 0.318D-02-0.282D-01-0.859D-01
 Coeff:      0.491D+00 0.619D+00
 Gap=     0.438 Goal=   None    Shift=    0.000
 RMSDP=6.72D-08 MaxDP=2.45D-06 DE=-4.50D-09 OVMax= 1.09D-05

 Cycle   9  Pass 1  IDiag  1:
 RMSU=  3.60D-08    CP:  9.85D-01  6.51D-01  1.05D+00  1.03D+00  1.34D+00
                    CP:  1.32D+00  1.44D+00  8.80D-01
 FoFJK:  IHMeth= 1 ICntrl=     0 DoSepK=T KAlg= 1 I1Cent= 0 FoldK=F
 E= -151.523757215661     Delta-E=       -0.000000000408 Rises=F Damp=F
 DIIS: error= 3.96D-07 at cycle   9 NSaved=   9.
 NSaved= 9 IEnMin= 9 EnMin= -151.523757215661     IErMin= 9 ErrMin= 3.96D-07
 ErrMax= 3.96D-07 EMaxC= 1.00D-01 BMatC= 4.06D-11 BMatP= 3.80D-10
 IDIUse=1 WtCom= 1.00D+00 WtEn= 0.00D+00
 Coeff-Com: -0.113D-04-0.331D-04-0.256D-03-0.360D-03 0.146D-01-0.357D-01
 Coeff-Com: -0.176D+00 0.174D+00 0.102D+01
 Coeff:     -0.113D-04-0.331D-04-0.256D-03-0.360D-03 0.146D-01-0.357D-01
 Coeff:     -0.176D+00 0.174D+00 0.102D+01
 Gap=     0.438 Goal=   None    Shift=    0.000
 RMSDP=4.52D-08 MaxDP=1.62D-06 DE=-4.08D-10 OVMax= 8.33D-06

 Cycle  10  Pass 1  IDiag  1:
 RMSU=  1.13D-08    CP:  9.85D-01  6.51D-01  1.05D+00  1.03D+00  1.34D+00
                    CP:  1.33D+00  1.52D+00  1.12D+00  1.24D+00
 FoFJK:  IHMeth= 1 ICntrl=     0 DoSepK=T KAlg= 1 I1Cent= 0 FoldK=F
 E= -151.523757215751     Delta-E=       -0.000000000090 Rises=F Damp=F
 DIIS: error= 6.88D-08 at cycle  10 NSaved=  10.
 NSaved=10 IEnMin=10 EnMin= -151.523757215751     IErMin=10 ErrMin= 6.88D-08
 ErrMax= 6.88D-08 EMaxC= 1.00D-01 BMatC= 8.22D-13 BMatP= 4.06D-11
 IDIUse=1 WtCom= 1.00D+00 WtEn= 0.00D+00
 Coeff-Com:  0.717D-06 0.237D-05-0.149D-04-0.168D-03 0.362D-03 0.850D-02
 Coeff-Com: -0.216D-01-0.504D-01-0.789D-01 0.114D+01
 Coeff:      0.717D-06 0.237D-05-0.149D-04-0.168D-03 0.362D-03 0.850D-02
 Coeff:     -0.216D-01-0.504D-01-0.789D-01 0.114D+01
 Gap=     0.438 Goal=   None    Shift=    0.000
 RMSDP=1.05D-08 MaxDP=2.38D-07 DE=-9.02D-11 OVMax= 1.57D-06

 Cycle  11  Pass 1  IDiag  1:
 RMSU=  2.07D-09    CP:  9.85D-01  6.51D-01  1.05D+00  1.03D+00  1.34D+00
                    CP:  1.33D+00  1.53D+00  1.15D+00  1.35D+00  1.32D+00
 FoFJK:  IHMeth= 1 ICntrl=     0 DoSepK=T KAlg= 1 I1Cent= 0 FoldK=F
 E= -151.523757215754     Delta-E=       -0.000000000003 Rises=F Damp=F
 DIIS: error= 1.17D-08 at cycle  11 NSaved=  11.
 NSaved=11 IEnMin=11 EnMin= -151.523757215754     IErMin=11 ErrMin= 1.17D-08
 ErrMax= 1.17D-08 EMaxC= 1.00D-01 BMatC= 2.89D-14 BMatP= 8.22D-13
 IDIUse=1 WtCom= 1.00D+00 WtEn= 0.00D+00
 Coeff-Com:  0.604D-06 0.191D-05 0.138D-04 0.212D-04-0.751D-03 0.188D-02
 Coeff-Com:  0.970D-02-0.306D-02-0.363D-01-0.100D+00 0.113D+01
 Coeff:      0.604D-06 0.191D-05 0.138D-04 0.212D-04-0.751D-03 0.188D-02
 Coeff:      0.970D-02-0.306D-02-0.363D-01-0.100D+00 0.113D+01
 Gap=     0.438 Goal=   None    Shift=    0.000
 RMSDP=2.42D-09 MaxDP=1.04D-07 DE=-2.67D-12 OVMax= 2.07D-07

 SCF Done:  E(RLC-wPBE) =  -151.523757216     A.U. after   11 cycles
             Convg  =    0.2424D-08             -V/T =  2.0067
 KE= 1.505150352592D+02 PE=-4.315353040474D+02 EE= 9.285843245470D+01
 Leave Link  502 at Tue May 12 20:56:10 2020, MaxMem= 1073741824 cpu:     276.3
 (Enter /home/matheus/.gaussian/g09/l601.exe)
 Copying SCF densities to generalized density rwf, IOpCl= 0 IROHF=0.

 **********************************************************************

            Population analysis using the SCF density.

 **********************************************************************

 Orbital symmetries:
       Occupied  (A) (A) (A) (A) (A) (A) (A) (A) (A)
       Virtual   (A) (A) (A) (A) (A) (A) (A) (A) (A) (A) (A) (A)
                 (A) (A) (A) (A) (A) (A) (A) (A) (A) (A) (A) (A)
                 (A) (A) (A) (A) (A) (A) (A) (A) (A) (A) (A) (A)
                 (A) (A) (A) (A) (A) (A) (A) (A) (A) (A) (A) (A)
                 (A) (A) (A) (A) (A) (A) (A) (A) (A) (A) (A) (A)
                 (A) (A) (A) (A) (A) (A) (A) (A) (A) (A) (A) (A)
                 (A) (A) (A) (A) (A) (A) (A) (A) (A) (A) (A) (A)
                 (A) (A) (A) (A) (A) (A) (A) (A) (A) (A) (A) (A)
                 (A) (A) (A) (A) (A) (A) (A) (A) (A) (A) (A) (A)
                 (A) (A) (A) (A) (A) (A) (A) (A) (A) (A) (A) (A)
                 (A) (A) (A) (A) (A) (A) (A) (A) (A) (A) (A) (A)
                 (A) (A) (A) (A) (A) (A) (A) (A) (A) (A) (A) (A)
                 (A) (A) (A) (A) (A) (A) (A) (A) (A) (A) (A) (A)
                 (A) (A) (A) (A) (A) (A) (A) (A) (A) (A) (A) (A)
                 (A) (A) (A) (A) (A) (A) (A) (A) (A) (A) (A) (A)
                 (A) (A) (A) (A) (A) (A) (A) (A)
 The electronic state is 1-A.
 Alpha  occ. eigenvalues --  -19.03896 -19.03894  -1.25741  -1.04211  -0.70071
 Alpha  occ. eigenvalues --   -0.59155  -0.55815  -0.45369  -0.41574
 Alpha virt. eigenvalues --    0.02265   0.03670   0.07010   0.08132   0.09988
 Alpha virt. eigenvalues --    0.10297   0.10378   0.14133   0.17056   0.17600
 Alpha virt. eigenvalues --    0.18550   0.18731   0.20620   0.22438   0.25394
 Alpha virt. eigenvalues --    0.27262   0.29985   0.30772   0.32767   0.33882
 Alpha virt. eigenvalues --    0.34469   0.36620   0.37617   0.39465   0.40019
 Alpha virt. eigenvalues --    0.43032   0.44730   0.46258   0.47795   0.50201
 Alpha virt. eigenvalues --    0.52994   0.57989   0.60514   0.62527   0.66527
 Alpha virt. eigenvalues --    0.70345   0.75432   0.76645   0.77571   0.79622
 Alpha virt. eigenvalues --    0.81041   0.82218   0.87724   0.90433   0.91314
 Alpha virt. eigenvalues --    0.91817   0.94122   0.95436   0.96036   0.98928
 Alpha virt. eigenvalues --    1.00170   1.01740   1.04201   1.09322   1.11953
 Alpha virt. eigenvalues --    1.13319   1.16276   1.20290   1.21578   1.23356
 Alpha virt. eigenvalues --    1.26664   1.29550   1.30571   1.31062   1.33106
 Alpha virt. eigenvalues --    1.33854   1.34799   1.38280   1.38884   1.39992
 Alpha virt. eigenvalues --    1.45980   1.48351   1.51770   1.53410   1.55613
 Alpha virt. eigenvalues --    1.59432   1.64551   1.66470   1.73412   1.77429
 Alpha virt. eigenvalues --    1.82850   1.85990   1.93180   1.98209   2.02444
 Alpha virt. eigenvalues --    2.04264   2.08450   2.14963   2.19923   2.22317
 Alpha virt. eigenvalues --    2.28383   2.29120   2.33058   2.36723   2.37391
 Alpha virt. eigenvalues --    2.49341   2.54535   2.57104   2.61201   2.63480
 Alpha virt. eigenvalues --    2.67356   2.74834   2.80197   2.85629   2.93826
 Alpha virt. eigenvalues --    3.00280   3.08181   3.10508   3.25426   3.29761
 Alpha virt. eigenvalues --    3.40149   3.54927   3.62903   3.66700   3.77278
 Alpha virt. eigenvalues --    3.77986   3.80948   3.81582   3.82012   3.83570
 Alpha virt. eigenvalues --    3.86687   3.89184   3.92260   3.95313   3.95600
 Alpha virt. eigenvalues --    3.97847   4.00747   4.05176   4.10165   4.13273
 Alpha virt. eigenvalues --    4.15441   4.24501   4.26130   4.29933   4.36856
 Alpha virt. eigenvalues --    4.37513   4.48492   4.57540   4.71760   4.93642
 Alpha virt. eigenvalues --    4.97067   4.99766   5.12991   5.15631   5.18559
 Alpha virt. eigenvalues --    5.41249   5.83337   5.99664   6.12532   6.18920
 Alpha virt. eigenvalues --    6.24153   6.31029   6.40294   6.48311   6.60343
 Alpha virt. eigenvalues --    6.73051   6.74711   6.79515   6.82581   6.87216
 Alpha virt. eigenvalues --    6.88135   6.90718   6.94154   6.99362   7.05002
 Alpha virt. eigenvalues --    7.10871   7.21578   7.44246   7.51036   7.77197
 Alpha virt. eigenvalues --    8.05630   8.09591  10.91475  14.02491  14.55709
 Alpha virt. eigenvalues --   14.82758  14.88066  15.09683  29.02336  29.02580
 Alpha virt. eigenvalues --   29.07133  29.13342  29.22471  49.11392 148.31028
 Alpha virt. eigenvalues --  148.39043 148.70906 752.54895
          Condensed to atoms (all electrons):
              1          2          3          4          5
     1  O    8.243439  -0.235017   0.184650   0.006849   0.000090
     2  O   -0.235017   8.237354   0.021299   0.188969  -0.000722
     3  H    0.184650   0.021299   0.597858  -0.000509  -0.001007
     4  H    0.006849   0.188969  -0.000509   0.599415  -0.004058
     5  Kr   0.000090  -0.000722  -0.001007  -0.004058   0.000848
 Mulliken atomic charges:
              1
     1  O   -0.200010
     2  O   -0.211882
     3  H    0.197709
     4  H    0.209335
     5  Kr   0.004848
 Sum of Mulliken atomic charges =   0.00000
 Mulliken charges with hydrogens summed into heavy atoms:
              1
     1  O   -0.002301
     2  O   -0.002547
     5  Kr   0.004848
 Sum of Mulliken charges with hydrogens summed into heavy atoms =   0.00000
          Condensed to fragments (all electrons):
     1      -0.004848
     2       0.004848
 Electronic spatial extent (au):  <R**2>=            319.2933
 Charge=              0.0000 electrons
 Dipole moment (field-independent basis, Debye):
    X=              2.1016    Y=             -0.1479    Z=              1.5092  Tot=              2.5916
 Quadrupole moment (field-independent basis, Debye-Ang):
   XX=            -19.2143   YY=            -10.3279   ZZ=            -11.6489
   XY=              1.6253   XZ=             -2.3448   YZ=             -1.7713
 Traceless Quadrupole moment (field-independent basis, Debye-Ang):
   XX=             -5.4839   YY=              3.4025   ZZ=              2.0814
   XY=              1.6253   XZ=             -2.3448   YZ=             -1.7713
 Octapole moment (field-independent basis, Debye-Ang**2):
  XXX=             90.6574  YYY=             -1.0275  ZZZ=              1.0742  XYY=             23.0925
  XXY=             -4.1240  XXZ=              3.6672  XZZ=             23.2342  YZZ=             -1.7214
  YYZ=              2.2054  XYZ=              3.0962
 Hexadecapole moment (field-independent basis, Debye-Ang**3):
 XXXX=           -342.5715 YYYY=            -45.0360 ZZZZ=            -11.7831 XXXY=              7.2345
 XXXZ=             -6.0220 YYYX=              2.8223 YYYZ=             -2.6291 ZZZX=             -2.0756
 ZZZY=             -1.8610 XXYY=            -60.3216 XXZZ=            -50.4822 YYZZ=            -10.0272
 XXYZ=             -5.6154 YYXZ=             -3.7215 ZZXY=              2.7972
 N-N= 3.663807911772D+01 E-N=-4.315353039767D+02  KE= 1.505150352592D+02
 No NMR shielding tensors so no spin-rotation constants.
 Leave Link  601 at Tue May 12 20:56:10 2020, MaxMem= 1073741824 cpu:       0.9
 (Enter /home/matheus/.gaussian/g09/l122.exe)
 Counterpoise: doing DCBS calculation for fragment   2 NewBq=T
 Leave Link  122 at Tue May 12 20:56:10 2020, MaxMem= 1073741824 cpu:       0.0
 (Enter /home/matheus/.gaussian/g09/l301.exe)
 Basis read from rwf:  (5D, 7F)
 No pseudopotential information found on rwf file.
 There are   197 symmetry adapted basis functions of A   symmetry.
 Integral buffers will be    131072 words long.
 Raffenetti 2 integral format.
 Two-electron integral symmetry is turned on.
   197 basis functions,   415 primitive gaussians,   229 cartesian basis functions
    18 alpha electrons       18 beta electrons
       nuclear repulsion energy         0.0000000000 Hartrees.
 IExCor=32609 DFT=T Ex+Corr=LC-wPBE ExCW=0 ScaHFX=  1.000000
 ScaDFX=  1.000000  0.000000  1.000000  1.000000 ScalE2=  1.000000  1.000000
 IRadAn=      5 IRanWt=     -1 IRanGd=            0 ICorTp=0
  HFx wShort=  0.000000 wLong=  0.400000 cFull=  0.000000 cShort=  0.000000 cLong=  1.000000
  DFx wShort=  0.000000 wLong=  0.400000 cFull=  0.000000 cShort=  0.000000 cLong=  1.000000
 NAtoms=    5 NActive=    5 NUniq=    5 SFac= 1.00D+00 NAtFMM=   60 NAOKFM=F Big=F
 No density basis found on file   718.
 Leave Link  301 at Tue May 12 20:56:10 2020, MaxMem= 1073741824 cpu:       0.2
 (Enter /home/matheus/.gaussian/g09/l302.exe)
 NPDir=0 NMtPBC=     1 NCelOv=     1 NCel=       1 NClECP=     1 NCelD=      1
         NCelK=      1 NCelE2=     1 NClLst=     1 CellRange=     0.0.
 One-electron integrals computed using PRISM.
 NBasis=   197 RedAO= T  NBF=   197
 NBsUse=   197 1.00D-06 NBFU=   197
 Precomputing XC quadrature grid using
 IXCGrd= 2 IRadAn=           5 IRanWt=          -1 IRanGd=           0 AccXCQ= 0.00D+00.
 NRdTot=     427 NPtTot=      123512 NUsed=      126579 NTot=      126611
 NSgBfM=   229   229   229   229   229 NAtAll=     5     5.
 Leave Link  302 at Tue May 12 20:56:10 2020, MaxMem= 1073741824 cpu:       0.9
 (Enter /home/matheus/.gaussian/g09/l303.exe)
 DipDrv:  MaxL=1.
 Leave Link  303 at Tue May 12 20:56:10 2020, MaxMem= 1073741824 cpu:       0.2
 (Enter /home/matheus/.gaussian/g09/l401.exe)
 Harris functional with IExCor=32609 diagonalized for initial guess.
 ExpMin= 2.53D-02 ExpMax= 1.17D+07 ExpMxC= 1.33D+04 IAcc=3 IRadAn=         5 AccDes= 0.00D+00
 HarFok:  IExCor=32609 AccDes= 0.00D+00 IRadAn=         5 IDoV= 1
 ScaDFX=  1.000000  1.000000  1.000000  1.000000
 FoFCou: FMM=F IPFlag=           0 FMFlag=      100000 FMFlg1=           0
         NFxFlg=           0 DoJE=T BraDBF=F KetDBF=T FulRan=T
         Omega=  0.000000  0.000000  1.000000  0.000000  0.000000 ICntrl=     500 IOpCl=  0
         NMat0=    1 NMatS0=    1 NMatT0=    0 NMatD0=    1 NMtDS0=    0 NMtDT0=    0
         I1Cent=           4 NGrid=           0.
 Petite list used in FoFCou.
 Harris En= -2753.24651097225    
 Initial guess orbital symmetries:
       Occupied  (A) (A) (A) (A) (A) (A) (A) (A) (A) (A) (A) (A)
                 (A) (A) (A) (A) (A) (A)
       Virtual   (A) (A) (A) (A) (A) (A) (A) (A) (A) (A) (A) (A)
                 (A) (A) (A) (A) (A) (A) (A) (A) (A) (A) (A) (A)
                 (A) (A) (A) (A) (A) (A) (A) (A) (A) (A) (A) (A)
                 (A) (A) (A) (A) (A) (A) (A) (A) (A) (A) (A) (A)
                 (A) (A) (A) (A) (A) (A) (A) (A) (A) (A) (A) (A)
                 (A) (A) (A) (A) (A) (A) (A) (A) (A) (A) (A) (A)
                 (A) (A) (A) (A) (A) (A) (A) (A) (A) (A) (A) (A)
                 (A) (A) (A) (A) (A) (A) (A) (A) (A) (A) (A) (A)
                 (A) (A) (A) (A) (A) (A) (A) (A) (A) (A) (A) (A)
                 (A) (A) (A) (A) (A) (A) (A) (A) (A) (A) (A) (A)
                 (A) (A) (A) (A) (A) (A) (A) (A) (A) (A) (A) (A)
                 (A) (A) (A) (A) (A) (A) (A) (A) (A) (A) (A) (A)
                 (A) (A) (A) (A) (A) (A) (A) (A) (A) (A) (A) (A)
                 (A) (A) (A) (A) (A) (A) (A) (A) (A) (A) (A) (A)
                 (A) (A) (A) (A) (A) (A) (A) (A) (A) (A) (A)
 The electronic state of the initial guess is 1-A.
 Leave Link  401 at Tue May 12 20:56:11 2020, MaxMem= 1073741824 cpu:       3.7
 (Enter /home/matheus/.gaussian/g09/l502.exe)
 Closed shell SCF:
 Requested convergence on RMS density matrix=1.00D-08 within 128 cycles.
 Requested convergence on MAX density matrix=1.00D-06.
 Requested convergence on             energy=1.00D-06.
 No special actions if energy rises.
 Using DIIS extrapolation, IDIIS=  1040.
 Integral symmetry usage will be decided dynamically.
       126521 words used for storage of precomputed grid.
 IEnd=      305468 IEndB=      305468 NGot=  1073741824 MDV=  1073505667
 LenX=  1073505667 LenY=  1073452785
 Fock matrices will be formed incrementally for  20 cycles.

 Cycle   1  Pass 1  IDiag  1:
 FoFJK:  IHMeth= 1 ICntrl=     0 DoSepK=T KAlg= 1 I1Cent= 0 FoldK=F
 FoFCou: FMM=F IPFlag=           0 FMFlag=      100000 FMFlg1=           0
         NFxFlg=           0 DoJE=T BraDBF=F KetDBF=F FulRan=T
         Omega=  0.000000  0.000000  1.000000  0.000000  0.000000 ICntrl=     500 IOpCl=  0
         NMat0=    1 NMatS0=    1 NMatT0=    0 NMatD0=    1 NMtDS0=    0 NMtDT0=    0
         I1Cent=           0 NGrid=           0.
 Symmetry not used in FoFCou.
 E= -2753.38970342395    
 DIIS: error= 2.72D-02 at cycle   1 NSaved=   1.
 NSaved= 1 IEnMin= 1 EnMin= -2753.38970342395     IErMin= 1 ErrMin= 2.72D-02
 ErrMax= 2.72D-02 EMaxC= 1.00D-01 BMatC= 2.22D-01 BMatP= 2.22D-01
 IDIUse=3 WtCom= 7.28D-01 WtEn= 2.72D-01
 Coeff-Com:  0.100D+01
 Coeff-En:   0.100D+01
 Coeff:      0.100D+01
 Gap=     0.609 Goal=   None    Shift=    0.000
 GapD=    0.609 DampG=2.000 DampE=0.500 DampFc=1.0000 IDamp=-1.
 RMSDP=2.10D-03 MaxDP=1.47D-01              OVMax= 5.10D-02

 Cycle   2  Pass 1  IDiag  1:
 RMSU=  1.44D-03    CP:  1.02D+00
 FoFJK:  IHMeth= 1 ICntrl=     0 DoSepK=T KAlg= 1 I1Cent= 0 FoldK=F
 E= -2753.42035441968     Delta-E=       -0.030650995730 Rises=F Damp=F
 DIIS: error= 1.04D-02 at cycle   2 NSaved=   2.
 NSaved= 2 IEnMin= 2 EnMin= -2753.42035441968     IErMin= 2 ErrMin= 1.04D-02
 ErrMax= 1.04D-02 EMaxC= 1.00D-01 BMatC= 5.52D-02 BMatP= 2.22D-01
 IDIUse=3 WtCom= 8.96D-01 WtEn= 1.04D-01
 Coeff-Com:  0.328D+00 0.672D+00
 Coeff-En:   0.130D+00 0.870D+00
 Coeff:      0.308D+00 0.692D+00
 Gap=     0.525 Goal=   None    Shift=    0.000
 RMSDP=7.87D-04 MaxDP=5.15D-02 DE=-3.07D-02 OVMax= 2.08D-02

 Cycle   3  Pass 1  IDiag  1:
 RMSU=  1.56D-04    CP:  1.01D+00  6.42D-01
 FoFJK:  IHMeth= 1 ICntrl=     0 DoSepK=T KAlg= 1 I1Cent= 0 FoldK=F
 E= -2753.43558683326     Delta-E=       -0.015232413573 Rises=F Damp=F
 DIIS: error= 1.04D-03 at cycle   3 NSaved=   3.
 NSaved= 3 IEnMin= 3 EnMin= -2753.43558683326     IErMin= 3 ErrMin= 1.04D-03
 ErrMax= 1.04D-03 EMaxC= 1.00D-01 BMatC= 5.57D-04 BMatP= 5.52D-02
 IDIUse=3 WtCom= 9.90D-01 WtEn= 1.04D-02
 Coeff-Com: -0.228D-03 0.904D-01 0.910D+00
 Coeff-En:   0.000D+00 0.000D+00 0.100D+01
 Coeff:     -0.226D-03 0.895D-01 0.911D+00
 Gap=     0.532 Goal=   None    Shift=    0.000
 RMSDP=7.20D-05 MaxDP=4.24D-03 DE=-1.52D-02 OVMax= 2.60D-03

 Cycle   4  Pass 1  IDiag  1:
 RMSU=  1.77D-05    CP:  1.01D+00  6.74D-01  9.94D-01
 FoFJK:  IHMeth= 1 ICntrl=     0 DoSepK=T KAlg= 1 I1Cent= 0 FoldK=F
 E= -2753.43575607057     Delta-E=       -0.000169237313 Rises=F Damp=F
 DIIS: error= 2.60D-05 at cycle   4 NSaved=   4.
 NSaved= 4 IEnMin= 4 EnMin= -2753.43575607057     IErMin= 4 ErrMin= 2.60D-05
 ErrMax= 2.60D-05 EMaxC= 1.00D-01 BMatC= 4.13D-07 BMatP= 5.57D-04
 IDIUse=1 WtCom= 1.00D+00 WtEn= 0.00D+00
 Coeff-Com: -0.125D-02-0.156D-01-0.113D+00 0.113D+01
 Coeff:     -0.125D-02-0.156D-01-0.113D+00 0.113D+01
 Gap=     0.532 Goal=   None    Shift=    0.000
 RMSDP=6.16D-06 MaxDP=2.45D-04 DE=-1.69D-04 OVMax= 3.89D-04

 Cycle   5  Pass 1  IDiag  1:
 RMSU=  2.17D-06    CP:  1.01D+00  6.73D-01  1.01D+00  1.13D+00
 FoFJK:  IHMeth= 1 ICntrl=     0 DoSepK=T KAlg= 1 I1Cent= 0 FoldK=F
 E= -2753.43575658758     Delta-E=       -0.000000517008 Rises=F Damp=F
 DIIS: error= 6.39D-06 at cycle   5 NSaved=   5.
 NSaved= 5 IEnMin= 5 EnMin= -2753.43575658758     IErMin= 5 ErrMin= 6.39D-06
 ErrMax= 6.39D-06 EMaxC= 1.00D-01 BMatC= 1.17D-08 BMatP= 4.13D-07
 IDIUse=1 WtCom= 1.00D+00 WtEn= 0.00D+00
 Coeff-Com:  0.272D-04-0.224D-02-0.246D-01 0.932D-01 0.934D+00
 Coeff:      0.272D-04-0.224D-02-0.246D-01 0.932D-01 0.934D+00
 Gap=     0.532 Goal=   None    Shift=    0.000
 RMSDP=7.19D-07 MaxDP=3.15D-05 DE=-5.17D-07 OVMax= 3.06D-05

 Cycle   6  Pass 1  IDiag  1:
 RMSU=  2.09D-07    CP:  1.01D+00  6.73D-01  1.01D+00  1.15D+00  1.03D+00
 FoFJK:  IHMeth= 1 ICntrl=     0 DoSepK=T KAlg= 1 I1Cent= 0 FoldK=F
 E= -2753.43575659715     Delta-E=       -0.000000009575 Rises=F Damp=F
 DIIS: error= 3.92D-07 at cycle   6 NSaved=   6.
 NSaved= 6 IEnMin= 6 EnMin= -2753.43575659715     IErMin= 6 ErrMin= 3.92D-07
 ErrMax= 3.92D-07 EMaxC= 1.00D-01 BMatC= 4.15D-11 BMatP= 1.17D-08
 IDIUse=1 WtCom= 1.00D+00 WtEn= 0.00D+00
 Coeff-Com:  0.253D-05 0.144D-03 0.163D-02-0.113D-01-0.806D-01 0.109D+01
 Coeff:      0.253D-05 0.144D-03 0.163D-02-0.113D-01-0.806D-01 0.109D+01
 Gap=     0.532 Goal=   None    Shift=    0.000
 RMSDP=9.75D-08 MaxDP=3.55D-06 DE=-9.58D-09 OVMax= 4.49D-06

 Cycle   7  Pass 1  IDiag  1:
 RMSU=  1.59D-08    CP:  1.01D+00  6.73D-01  1.01D+00  1.15D+00  1.04D+00
                    CP:  1.22D+00
 FoFJK:  IHMeth= 1 ICntrl=     0 DoSepK=T KAlg= 1 I1Cent= 0 FoldK=F
 E= -2753.43575659723     Delta-E=       -0.000000000079 Rises=F Damp=F
 DIIS: error= 7.32D-08 at cycle   7 NSaved=   7.
 NSaved= 7 IEnMin= 7 EnMin= -2753.43575659723     IErMin= 7 ErrMin= 7.32D-08
 ErrMax= 7.32D-08 EMaxC= 1.00D-01 BMatC= 1.41D-12 BMatP= 4.15D-11
 IDIUse=1 WtCom= 1.00D+00 WtEn= 0.00D+00
 Coeff-Com: -0.227D-06 0.244D-04 0.285D-03-0.144D-02-0.161D-01 0.123D+00
 Coeff-Com:  0.894D+00
 Coeff:     -0.227D-06 0.244D-04 0.285D-03-0.144D-02-0.161D-01 0.123D+00
 Coeff:      0.894D+00
 Gap=     0.532 Goal=   None    Shift=    0.000
 RMSDP=1.07D-08 MaxDP=3.98D-07 DE=-7.91D-11 OVMax= 6.29D-07

 Cycle   8  Pass 1  IDiag  1:
 RMSU=  3.70D-09    CP:  1.01D+00  6.73D-01  1.01D+00  1.15D+00  1.04D+00
                    CP:  1.25D+00  1.11D+00
 FoFJK:  IHMeth= 1 ICntrl=     0 DoSepK=T KAlg= 1 I1Cent= 0 FoldK=F
 E= -2753.43575659723     Delta-E=        0.000000000000 Rises=F Damp=F
 DIIS: error= 2.25D-08 at cycle   8 NSaved=   8.
 NSaved= 8 IEnMin= 7 EnMin= -2753.43575659723     IErMin= 8 ErrMin= 2.25D-08
 ErrMax= 2.25D-08 EMaxC= 1.00D-01 BMatC= 1.12D-13 BMatP= 1.41D-12
 IDIUse=1 WtCom= 1.00D+00 WtEn= 0.00D+00
 Coeff-Com: -0.285D-06-0.116D-04-0.129D-03 0.971D-03 0.518D-02-0.855D-01
 Coeff-Com:  0.703D-01 0.101D+01
 Coeff:     -0.285D-06-0.116D-04-0.129D-03 0.971D-03 0.518D-02-0.855D-01
 Coeff:      0.703D-01 0.101D+01
 Gap=     0.532 Goal=   None    Shift=    0.000
 RMSDP=3.80D-09 MaxDP=1.57D-07 DE= 4.55D-13 OVMax= 2.41D-07

 SCF Done:  E(RLC-wPBE) =  -2753.43575660     A.U. after    8 cycles
             Convg  =    0.3796D-08             -V/T =  2.0014
 KE= 2.749486707638D+03 PE=-6.578895066068D+03 EE= 1.075972601833D+03
 Leave Link  502 at Tue May 12 20:56:38 2020, MaxMem= 1073741824 cpu:     218.2
 (Enter /home/matheus/.gaussian/g09/l601.exe)
 Copying SCF densities to generalized density rwf, IOpCl= 0 IROHF=0.

 **********************************************************************

            Population analysis using the SCF density.

 **********************************************************************

 Orbital symmetries:
       Occupied  (A) (A) (A) (A) (A) (A) (A) (A) (A) (A) (A) (A)
                 (A) (A) (A) (A) (A) (A)
       Virtual   (A) (A) (A) (A) (A) (A) (A) (A) (A) (A) (A) (A)
                 (A) (A) (A) (A) (A) (A) (A) (A) (A) (A) (A) (A)
                 (A) (A) (A) (A) (A) (A) (A) (A) (A) (A) (A) (A)
                 (A) (A) (A) (A) (A) (A) (A) (A) (A) (A) (A) (A)
                 (A) (A) (A) (A) (A) (A) (A) (A) (A) (A) (A) (A)
                 (A) (A) (A) (A) (A) (A) (A) (A) (A) (A) (A) (A)
                 (A) (A) (A) (A) (A) (A) (A) (A) (A) (A) (A) (A)
                 (A) (A) (A) (A) (A) (A) (A) (A) (A) (A) (A) (A)
                 (A) (A) (A) (A) (A) (A) (A) (A) (A) (A) (A) (A)
                 (A) (A) (A) (A) (A) (A) (A) (A) (A) (A) (A) (A)
                 (A) (A) (A) (A) (A) (A) (A) (A) (A) (A) (A) (A)
                 (A) (A) (A) (A) (A) (A) (A) (A) (A) (A) (A) (A)
                 (A) (A) (A) (A) (A) (A) (A) (A) (A) (A) (A) (A)
                 (A) (A) (A) (A) (A) (A) (A) (A) (A) (A) (A) (A)
                 (A) (A) (A) (A) (A) (A) (A) (A) (A) (A) (A)
 The electronic state is 1-A.
 Alpha  occ. eigenvalues -- -511.10629 -66.65306 -60.31520 -60.31517 -60.31517
 Alpha  occ. eigenvalues --   -9.58572  -7.32996  -7.32994  -7.32994  -3.28540
 Alpha  occ. eigenvalues --   -3.28540  -3.28539  -3.28538  -3.28538  -1.03232
 Alpha  occ. eigenvalues --   -0.50220  -0.50217  -0.50216
 Alpha virt. eigenvalues --    0.02971   0.04937   0.08456   0.09156   0.12020
 Alpha virt. eigenvalues --    0.12380   0.13329   0.13573   0.16036   0.17051
 Alpha virt. eigenvalues --    0.17816   0.19447   0.20854   0.25992   0.27110
 Alpha virt. eigenvalues --    0.27725   0.28796   0.31201   0.33143   0.34912
 Alpha virt. eigenvalues --    0.35600   0.37592   0.38542   0.40009   0.41302
 Alpha virt. eigenvalues --    0.42035   0.44101   0.53588   0.55037   0.58738
 Alpha virt. eigenvalues --    0.59113   0.66213   0.68620   0.68851   0.71678
 Alpha virt. eigenvalues --    0.73733   0.74649   0.76752   0.78050   0.78647
 Alpha virt. eigenvalues --    0.79896   0.80930   0.84279   0.84968   0.87514
 Alpha virt. eigenvalues --    0.88375   0.89240   0.90655   0.91573   0.96382
 Alpha virt. eigenvalues --    0.97202   0.98167   0.99538   1.00106   1.02524
 Alpha virt. eigenvalues --    1.04769   1.07029   1.08630   1.11721   1.13961
 Alpha virt. eigenvalues --    1.17285   1.20860   1.24030   1.28261   1.31545
 Alpha virt. eigenvalues --    1.32532   1.39284   1.43642   1.45049   1.47743
 Alpha virt. eigenvalues --    1.55171   1.56860   1.59131   1.71945   1.76441
 Alpha virt. eigenvalues --    1.82002   1.82206   1.86086   1.96924   2.15629
 Alpha virt. eigenvalues --    2.19601   2.24540   2.27941   2.29116   2.30651
 Alpha virt. eigenvalues --    2.32538   2.33870   2.34388   2.37715   2.41138
 Alpha virt. eigenvalues --    2.42443   2.45350   2.45859   2.49440   2.50859
 Alpha virt. eigenvalues --    2.51627   2.53328   2.56322   2.58743   2.60314
 Alpha virt. eigenvalues --    2.61985   2.62907   2.65922   2.69640   2.72259
 Alpha virt. eigenvalues --    2.74639   2.78251   2.84657   2.87158   2.89986
 Alpha virt. eigenvalues --    2.95748   2.99140   3.05639   3.07949   3.17916
 Alpha virt. eigenvalues --    3.19803   3.29578   3.30485   3.39340   3.44865
 Alpha virt. eigenvalues --    3.61045   3.66015   3.81760   3.86521   4.03386
 Alpha virt. eigenvalues --    4.34438   4.47097   4.54009   4.58338   4.64935
 Alpha virt. eigenvalues --    4.71911   4.86375   4.87417   4.97388   5.05947
 Alpha virt. eigenvalues --    5.10278   5.28046   5.57252   5.67488   5.84876
 Alpha virt. eigenvalues --    5.88467   5.96497   6.14998   6.79140   6.82272
 Alpha virt. eigenvalues --    7.38096   7.48496   7.54315   7.64184   7.73894
 Alpha virt. eigenvalues --    7.79598   7.96006   8.16118   8.17462   8.21814
 Alpha virt. eigenvalues --    8.36899   8.51346   8.57056   8.87876   9.62437
 Alpha virt. eigenvalues --    9.75732   9.83803   9.86084   9.94020   9.98833
 Alpha virt. eigenvalues --   10.15992  10.26380  10.46044  10.95856  11.54848
 Alpha virt. eigenvalues --   11.62021  11.81466  12.03436  12.09090  13.19477
 Alpha virt. eigenvalues --   13.70906  14.51427  62.82885  64.68262
          Condensed to atoms (all electrons):
              1          2          3          4          5
     1  O    0.000656  -0.000910  -0.000238   0.000762  -0.006467
     2  O   -0.000910   0.003657   0.000238  -0.002969   0.000406
     3  H   -0.000238   0.000238   0.000201  -0.000120  -0.001789
     4  H    0.000762  -0.002969  -0.000120   0.003704  -0.028031
     5  Kr  -0.006467   0.000406  -0.001789  -0.028031  36.070016
 Mulliken atomic charges:
              1
     1  O    0.006197
     2  O   -0.000423
     3  H    0.001707
     4  H    0.026654
     5  Kr  -0.034135
 Sum of Mulliken atomic charges =   0.00000
 Mulliken charges with hydrogens summed into heavy atoms:
              1
     1  O    0.007904
     2  O    0.026231
     5  Kr  -0.034135
 Sum of Mulliken charges with hydrogens summed into heavy atoms =   0.00000
          Condensed to fragments (all electrons):
     1       0.034135
     2      -0.034135
 Electronic spatial extent (au):  <R**2>=            162.0917
 Charge=              0.0000 electrons
 Dipole moment (field-independent basis, Debye):
    X=             -0.0007    Y=              0.0003    Z=              0.0001  Tot=              0.0007
 Quadrupole moment (field-independent basis, Debye-Ang):
   XX=            -17.6132   YY=            -17.6232   ZZ=            -17.6288
   XY=             -0.0022   XZ=             -0.0016   YZ=             -0.0007
 Traceless Quadrupole moment (field-independent basis, Debye-Ang):
   XX=              0.0086   YY=             -0.0015   ZZ=             -0.0071
   XY=             -0.0022   XZ=             -0.0016   YZ=             -0.0007
 Octapole moment (field-independent basis, Debye-Ang**2):
  XXX=            -51.6372  YYY=              0.3381  ZZZ=              0.1346  XYY=            -17.2233
  XXY=              0.1087  XXZ=              0.0426  XZZ=            -17.2261  YZZ=              0.1130
  YYZ=              0.0452  XYZ=              0.0000
 Hexadecapole moment (field-independent basis, Debye-Ang**3):
 XXXX=           -119.2782 YYYY=            -18.3809 ZZZZ=            -18.3944 XXXY=              0.3250
 XXXZ=              0.1267 YYYX=              0.3233 YYYZ=             -0.0011 ZZZX=              0.1287
 ZZZY=             -0.0011 XXYY=            -22.9516 XXZZ=            -22.9543 YYZZ=             -6.1281
 XXYZ=             -0.0014 YYXZ=              0.0428 ZZXY=              0.1070
 N-N= 0.000000000000D+00 E-N=-6.578895067806D+03  KE= 2.749486707638D+03
 No NMR shielding tensors so no spin-rotation constants.
 Leave Link  601 at Tue May 12 20:56:38 2020, MaxMem= 1073741824 cpu:       0.8
 (Enter /home/matheus/.gaussian/g09/l122.exe)
 Counterpoise: doing MCBS calculation for fragment   1
 Leave Link  122 at Tue May 12 20:56:38 2020, MaxMem= 1073741824 cpu:       0.0
 (Enter /home/matheus/.gaussian/g09/l301.exe)
 Basis read from rwf:  (5D, 7F)
 No pseudopotential information found on rwf file.
 There are   138 symmetry adapted basis functions of A   symmetry.
 Integral buffers will be    131072 words long.
 Raffenetti 2 integral format.
 Two-electron integral symmetry is turned on.
   138 basis functions,   198 primitive gaussians,   160 cartesian basis functions
     9 alpha electrons        9 beta electrons
       nuclear repulsion energy        36.6380791177 Hartrees.
 IExCor=32609 DFT=T Ex+Corr=LC-wPBE ExCW=0 ScaHFX=  1.000000
 ScaDFX=  1.000000  0.000000  1.000000  1.000000 ScalE2=  1.000000  1.000000
 IRadAn=      5 IRanWt=     -1 IRanGd=            0 ICorTp=0
  HFx wShort=  0.000000 wLong=  0.400000 cFull=  0.000000 cShort=  0.000000 cLong=  1.000000
  DFx wShort=  0.000000 wLong=  0.400000 cFull=  0.000000 cShort=  0.000000 cLong=  1.000000
 NAtoms=    5 NActive=    4 NUniq=    4 SFac= 1.00D+00 NAtFMM=   60 NAOKFM=F Big=F
 No density basis found on file   718.
 Leave Link  301 at Tue May 12 20:56:38 2020, MaxMem= 1073741824 cpu:       0.2
 (Enter /home/matheus/.gaussian/g09/l302.exe)
 NPDir=0 NMtPBC=     1 NCelOv=     1 NCel=       1 NClECP=     1 NCelD=      1
         NCelK=      1 NCelE2=     1 NClLst=     1 CellRange=     0.0.
 One-electron integrals computed using PRISM.
 NBasis=   138 RedAO= T  NBF=   138
 NBsUse=   138 1.00D-06 NBFU=   138
 Precomputing XC quadrature grid using
 IXCGrd= 2 IRadAn=           5 IRanWt=          -1 IRanGd=           0 AccXCQ= 0.00D+00.
 NRdTot=     344 NPtTot=       92556 NUsed=       95038 NTot=       95070
 NSgBfM=   160   160   160   160   160 NAtAll=     4     4.
 Leave Link  302 at Tue May 12 20:56:38 2020, MaxMem= 1073741824 cpu:       0.7
 (Enter /home/matheus/.gaussian/g09/l303.exe)
 DipDrv:  MaxL=1.
 Leave Link  303 at Tue May 12 20:56:38 2020, MaxMem= 1073741824 cpu:       0.1
 (Enter /home/matheus/.gaussian/g09/l401.exe)
 Harris functional with IExCor=32609 diagonalized for initial guess.
 ExpMin= 2.53D-02 ExpMax= 1.53D+04 ExpMxC= 5.22D+02 IAcc=3 IRadAn=         5 AccDes= 0.00D+00
 HarFok:  IExCor=32609 AccDes= 0.00D+00 IRadAn=         5 IDoV= 1
 ScaDFX=  1.000000  1.000000  1.000000  1.000000
 FoFCou: FMM=F IPFlag=           0 FMFlag=      100000 FMFlg1=           0
         NFxFlg=           0 DoJE=T BraDBF=F KetDBF=T FulRan=T
         Omega=  0.000000  0.000000  1.000000  0.000000  0.000000 ICntrl=     500 IOpCl=  0
         NMat0=    1 NMatS0=    1 NMatT0=    0 NMatD0=    1 NMtDS0=    0 NMtDT0=    0
         I1Cent=           4 NGrid=           0.
 Petite list used in FoFCou.
 Harris En= -151.502239870003    
 Initial guess orbital symmetries:
       Occupied  (A) (A) (A) (A) (A) (A) (A) (A) (A)
       Virtual   (A) (A) (A) (A) (A) (A) (A) (A) (A) (A) (A) (A)
                 (A) (A) (A) (A) (A) (A) (A) (A) (A) (A) (A) (A)
                 (A) (A) (A) (A) (A) (A) (A) (A) (A) (A) (A) (A)
                 (A) (A) (A) (A) (A) (A) (A) (A) (A) (A) (A) (A)
                 (A) (A) (A) (A) (A) (A) (A) (A) (A) (A) (A) (A)
                 (A) (A) (A) (A) (A) (A) (A) (A) (A) (A) (A) (A)
                 (A) (A) (A) (A) (A) (A) (A) (A) (A) (A) (A) (A)
                 (A) (A) (A) (A) (A) (A) (A) (A) (A) (A) (A) (A)
                 (A) (A) (A) (A) (A) (A) (A) (A) (A) (A) (A) (A)
                 (A) (A) (A) (A) (A) (A) (A) (A) (A) (A) (A) (A)
                 (A) (A) (A) (A) (A) (A) (A) (A) (A)
 The electronic state of the initial guess is 1-A.
 Leave Link  401 at Tue May 12 20:56:39 2020, MaxMem= 1073741824 cpu:       2.3
 (Enter /home/matheus/.gaussian/g09/l502.exe)
 Closed shell SCF:
 Requested convergence on RMS density matrix=1.00D-08 within 128 cycles.
 Requested convergence on MAX density matrix=1.00D-06.
 Requested convergence on             energy=1.00D-06.
 No special actions if energy rises.
 Using DIIS extrapolation, IDIIS=  1040.
 Integral symmetry usage will be decided dynamically.
        94980 words used for storage of precomputed grid.
 IEnd=      192360 IEndB=      192360 NGot=  1073741824 MDV=  1073591865
 LenX=  1073591865 LenY=  1073565824
 Fock matrices will be formed incrementally for  20 cycles.

 Cycle   1  Pass 1  IDiag  1:
 FoFJK:  IHMeth= 1 ICntrl=     0 DoSepK=T KAlg= 1 I1Cent= 0 FoldK=F
 FoFCou: FMM=F IPFlag=           0 FMFlag=      100000 FMFlg1=           0
         NFxFlg=           0 DoJE=T BraDBF=F KetDBF=F FulRan=T
         Omega=  0.000000  0.000000  1.000000  0.000000  0.000000 ICntrl=     500 IOpCl=  0
         NMat0=    1 NMatS0=    1 NMatT0=    0 NMatD0=    1 NMtDS0=    0 NMtDT0=    0
         I1Cent=           0 NGrid=           0.
 Symmetry not used in FoFCou.
 E= -151.496206528864    
 DIIS: error= 1.57D-02 at cycle   1 NSaved=   1.
 NSaved= 1 IEnMin= 1 EnMin= -151.496206528864     IErMin= 1 ErrMin= 1.57D-02
 ErrMax= 1.57D-02 EMaxC= 1.00D-01 BMatC= 3.97D-02 BMatP= 3.97D-02
 IDIUse=3 WtCom= 8.43D-01 WtEn= 1.57D-01
 Coeff-Com:  0.100D+01
 Coeff-En:   0.100D+01
 Coeff:      0.100D+01
 Gap=     0.506 Goal=   None    Shift=    0.000
 GapD=    0.506 DampG=2.000 DampE=0.500 DampFc=1.0000 IDamp=-1.
 RMSDP=1.19D-03 MaxDP=2.28D-02              OVMax= 5.99D-02

 Cycle   2  Pass 1  IDiag  1:
 RMSU=  8.37D-04    CP:  9.90D-01
 FoFJK:  IHMeth= 1 ICntrl=     0 DoSepK=T KAlg= 1 I1Cent= 0 FoldK=F
 E= -151.510077382842     Delta-E=       -0.013870853977 Rises=F Damp=F
 DIIS: error= 1.14D-02 at cycle   2 NSaved=   2.
 NSaved= 2 IEnMin= 2 EnMin= -151.510077382842     IErMin= 2 ErrMin= 1.14D-02
 ErrMax= 1.14D-02 EMaxC= 1.00D-01 BMatC= 2.28D-02 BMatP= 3.97D-02
 IDIUse=3 WtCom= 8.86D-01 WtEn= 1.14D-01
 Coeff-Com:  0.424D+00 0.576D+00
 Coeff-En:   0.266D+00 0.734D+00
 Coeff:      0.406D+00 0.594D+00
 Gap=     0.446 Goal=   None    Shift=    0.000
 RMSDP=6.62D-04 MaxDP=2.30D-02 DE=-1.39D-02 OVMax= 2.73D-02

 Cycle   3  Pass 1  IDiag  1:
 RMSU=  3.35D-04    CP:  9.86D-01  6.12D-01
 FoFJK:  IHMeth= 1 ICntrl=     0 DoSepK=T KAlg= 1 I1Cent= 0 FoldK=F
 E= -151.523423699423     Delta-E=       -0.013346316581 Rises=F Damp=F
 DIIS: error= 2.10D-03 at cycle   3 NSaved=   3.
 NSaved= 3 IEnMin= 3 EnMin= -151.523423699423     IErMin= 3 ErrMin= 2.10D-03
 ErrMax= 2.10D-03 EMaxC= 1.00D-01 BMatC= 4.32D-04 BMatP= 2.28D-02
 IDIUse=3 WtCom= 9.79D-01 WtEn= 2.10D-02
 Coeff-Com:  0.658D-01 0.153D+00 0.781D+00
 Coeff-En:   0.000D+00 0.000D+00 0.100D+01
 Coeff:      0.644D-01 0.150D+00 0.786D+00
 Gap=     0.440 Goal=   None    Shift=    0.000
 RMSDP=8.20D-05 MaxDP=1.83D-03 DE=-1.33D-02 OVMax= 4.08D-03

 Cycle   4  Pass 1  IDiag  1:
 RMSU=  4.04D-05    CP:  9.85D-01  6.57D-01  1.01D+00
 FoFJK:  IHMeth= 1 ICntrl=     0 DoSepK=T KAlg= 1 I1Cent= 0 FoldK=F
 E= -151.523688164559     Delta-E=       -0.000264465136 Rises=F Damp=F
 DIIS: error= 3.36D-04 at cycle   4 NSaved=   4.
 NSaved= 4 IEnMin= 4 EnMin= -151.523688164559     IErMin= 4 ErrMin= 3.36D-04
 ErrMax= 3.36D-04 EMaxC= 1.00D-01 BMatC= 1.44D-05 BMatP= 4.32D-04
 IDIUse=3 WtCom= 9.97D-01 WtEn= 3.36D-03
 Coeff-Com: -0.525D-02-0.906D-02 0.117D+00 0.897D+00
 Coeff-En:   0.000D+00 0.000D+00 0.000D+00 0.100D+01
 Coeff:     -0.523D-02-0.903D-02 0.117D+00 0.898D+00
 Gap=     0.442 Goal=   None    Shift=    0.000
 RMSDP=1.85D-05 MaxDP=7.67D-04 DE=-2.64D-04 OVMax= 7.48D-04

 Cycle   5  Pass 1  IDiag  1:
 RMSU=  7.84D-06    CP:  9.85D-01  6.55D-01  1.05D+00  1.00D+00
 FoFJK:  IHMeth= 1 ICntrl=     0 DoSepK=T KAlg= 1 I1Cent= 0 FoldK=F
 E= -151.523698145246     Delta-E=       -0.000009980687 Rises=F Damp=F
 DIIS: error= 4.73D-05 at cycle   5 NSaved=   5.
 NSaved= 5 IEnMin= 5 EnMin= -151.523698145246     IErMin= 5 ErrMin= 4.73D-05
 ErrMax= 4.73D-05 EMaxC= 1.00D-01 BMatC= 1.14D-07 BMatP= 1.44D-05
 IDIUse=1 WtCom= 1.00D+00 WtEn= 0.00D+00
 Coeff-Com: -0.815D-03-0.222D-02-0.282D-01-0.855D-01 0.112D+01
 Coeff:     -0.815D-03-0.222D-02-0.282D-01-0.855D-01 0.112D+01
 Gap=     0.442 Goal=   None    Shift=    0.000
 RMSDP=4.07D-06 MaxDP=8.17D-05 DE=-9.98D-06 OVMax= 2.56D-04

 Cycle   6  Pass 1  IDiag  1:
 RMSU=  1.25D-06    CP:  9.85D-01  6.56D-01  1.05D+00  1.02D+00  1.29D+00
 FoFJK:  IHMeth= 1 ICntrl=     0 DoSepK=T KAlg= 1 I1Cent= 0 FoldK=F
 E= -151.523698407615     Delta-E=       -0.000000262369 Rises=F Damp=F
 DIIS: error= 9.30D-06 at cycle   6 NSaved=   6.
 NSaved= 6 IEnMin= 6 EnMin= -151.523698407615     IErMin= 6 ErrMin= 9.30D-06
 ErrMax= 9.30D-06 EMaxC= 1.00D-01 BMatC= 5.01D-09 BMatP= 1.14D-07
 IDIUse=1 WtCom= 1.00D+00 WtEn= 0.00D+00
 Coeff-Com:  0.149D-03 0.354D-03-0.576D-03-0.121D-01-0.576D-01 0.107D+01
 Coeff:      0.149D-03 0.354D-03-0.576D-03-0.121D-01-0.576D-01 0.107D+01
 Gap=     0.442 Goal=   None    Shift=    0.000
 RMSDP=7.94D-07 MaxDP=1.16D-05 DE=-2.62D-07 OVMax= 8.83D-05

 Cycle   7  Pass 1  IDiag  1:
 RMSU=  2.99D-07    CP:  9.85D-01  6.56D-01  1.04D+00  1.03D+00  1.33D+00
                    CP:  1.24D+00
 FoFJK:  IHMeth= 1 ICntrl=     0 DoSepK=T KAlg= 1 I1Cent= 0 FoldK=F
 E= -151.523698424451     Delta-E=       -0.000000016836 Rises=F Damp=F
 DIIS: error= 3.77D-06 at cycle   7 NSaved=   7.
[...]
 Fock matrices will be formed incrementally for  20 cycles.

 Cycle   1  Pass 1  IDiag  1:
 FoFJK:  IHMeth= 1 ICntrl=     0 DoSepK=T KAlg= 1 I1Cent= 0 FoldK=F
 FoFCou: FMM=F IPFlag=           0 FMFlag=      100000 FMFlg1=           0
         NFxFlg=           0 DoJE=T BraDBF=F KetDBF=F FulRan=T
         Omega=  0.000000  0.000000  1.000000  0.000000  0.000000 ICntrl=     500 IOpCl=  0
         NMat0=    1 NMatS0=    1 NMatT0=    0 NMatD0=    1 NMtDS0=    0 NMtDT0=    0
         I1Cent=           0 NGrid=           0.
 Symmetry not used in FoFCou.
 E= -2753.43564979580    
 DIIS: error= 1.78D-04 at cycle   1 NSaved=   1.
 NSaved= 1 IEnMin= 1 EnMin= -2753.43564979580     IErMin= 1 ErrMin= 1.78D-04
 ErrMax= 1.78D-04 EMaxC= 1.00D-01 BMatC= 4.77D-06 BMatP= 4.77D-06
 IDIUse=3 WtCom= 9.98D-01 WtEn= 1.78D-03
 Coeff-Com:  0.100D+01
 Coeff-En:   0.100D+01
 Coeff:      0.100D+01
 Gap=     0.531 Goal=   None    Shift=    0.000
 RMSDP=1.20D-05 MaxDP=5.85D-04              OVMax= 2.65D-04

 Cycle   2  Pass 1  IDiag  1:
 RMSU=  8.47D-06    CP:  1.00D+00
 FoFJK:  IHMeth= 1 ICntrl=     0 DoSepK=T KAlg= 1 I1Cent= 0 FoldK=F
 E= -2753.43565025296     Delta-E=       -0.000000457163 Rises=F Damp=F
 DIIS: error= 3.27D-06 at cycle   2 NSaved=   2.
 NSaved= 2 IEnMin= 2 EnMin= -2753.43565025296     IErMin= 2 ErrMin= 3.27D-06
 ErrMax= 3.27D-06 EMaxC= 1.00D-01 BMatC= 2.76D-09 BMatP= 4.77D-06
 IDIUse=1 WtCom= 1.00D+00 WtEn= 0.00D+00
 Coeff-Com: -0.682D-02 0.101D+01
 Coeff:     -0.682D-02 0.101D+01
 Gap=     0.530 Goal=   None    Shift=    0.000
 RMSDP=1.29D-06 MaxDP=5.44D-05 DE=-4.57D-07 OVMax= 3.90D-05

 Cycle   3  Pass 1  IDiag  1:
 RMSU=  4.74D-07    CP:  1.00D+00  1.09D+00
 FoFJK:  IHMeth= 1 ICntrl=     0 DoSepK=T KAlg= 1 I1Cent= 0 FoldK=F
 E= -2753.43565025775     Delta-E=       -0.000000004787 Rises=F Damp=F
 DIIS: error= 6.28D-07 at cycle   3 NSaved=   3.
 NSaved= 3 IEnMin= 3 EnMin= -2753.43565025775     IErMin= 3 ErrMin= 6.28D-07
 ErrMax= 6.28D-07 EMaxC= 1.00D-01 BMatC= 7.18D-11 BMatP= 2.76D-09
 IDIUse=1 WtCom= 1.00D+00 WtEn= 0.00D+00
 Coeff-Com:  0.237D-03-0.111D+00 0.111D+01
 Coeff:      0.237D-03-0.111D+00 0.111D+01
 Gap=     0.530 Goal=   None    Shift=    0.000
 RMSDP=1.78D-07 MaxDP=8.67D-06 DE=-4.79D-09 OVMax= 7.75D-06

 Cycle   4  Pass 1  IDiag  1:
 RMSU=  4.58D-08    CP:  1.00D+00  1.10D+00  1.20D+00
 FoFJK:  IHMeth= 1 ICntrl=     0 DoSepK=T KAlg= 1 I1Cent= 0 FoldK=F
 E= -2753.43565025788     Delta-E=       -0.000000000134 Rises=F Damp=F
 DIIS: error= 2.10D-07 at cycle   4 NSaved=   4.
 NSaved= 4 IEnMin= 4 EnMin= -2753.43565025788     IErMin= 4 ErrMin= 2.10D-07
 ErrMax= 2.10D-07 EMaxC= 1.00D-01 BMatC= 9.33D-12 BMatP= 7.18D-11
 IDIUse=1 WtCom= 1.00D+00 WtEn= 0.00D+00
 Coeff-Com:  0.182D-03-0.495D-01 0.314D+00 0.736D+00
 Coeff:      0.182D-03-0.495D-01 0.314D+00 0.736D+00
 Gap=     0.530 Goal=   None    Shift=    0.000
 RMSDP=1.69D-08 MaxDP=6.69D-07 DE=-1.34D-10 OVMax= 8.73D-07

 Cycle   5  Pass 1  IDiag  1:
 RMSU=  8.22D-09    CP:  1.00D+00  1.10D+00  1.21D+00  1.10D+00
 FoFJK:  IHMeth= 1 ICntrl=     0 DoSepK=T KAlg= 1 I1Cent= 0 FoldK=F
 E= -2753.43565025788     Delta-E=       -0.000000000005 Rises=F Damp=F
 DIIS: error= 2.92D-08 at cycle   5 NSaved=   5.
 NSaved= 5 IEnMin= 5 EnMin= -2753.43565025788     IErMin= 5 ErrMin= 2.92D-08
 ErrMax= 2.92D-08 EMaxC= 1.00D-01 BMatC= 1.85D-13 BMatP= 9.33D-12
 IDIUse=1 WtCom= 1.00D+00 WtEn= 0.00D+00
 Coeff-Com: -0.108D-06 0.267D-02-0.356D-01 0.225D-01 0.101D+01
 Coeff:     -0.108D-06 0.267D-02-0.356D-01 0.225D-01 0.101D+01
 Gap=     0.530 Goal=   None    Shift=    0.000
 RMSDP=7.01D-09 MaxDP=3.83D-07 DE=-5.46D-12 OVMax= 3.27D-07

 SCF Done:  E(RLC-wPBE) =  -2753.43565026     A.U. after    5 cycles
             Convg  =    0.7010D-08             -V/T =  2.0014
 KE= 2.749528648002D+03 PE=-6.578941586773D+03 EE= 1.075977288513D+03
 Leave Link  502 at Tue May 12 21:19:06 2020, MaxMem= 1073741824 cpu:      93.3
 (Enter /home/matheus/.gaussian/g09/l122.exe)
 Restoring MOs from calculation   4 to rwf.
 Counterpoise: doing MCBS calculation for fragment   1
 Leave Link  122 at Tue May 12 21:19:06 2020, MaxMem= 1073741824 cpu:       0.0
 (Enter /home/matheus/.gaussian/g09/l301.exe)
 Basis read from rwf:  (5D, 7F)
 No pseudopotential information found on rwf file.
 There are   138 symmetry adapted basis functions of A   symmetry.
 Integral buffers will be    131072 words long.
 Raffenetti 2 integral format.
 Two-electron integral symmetry is turned on.
   138 basis functions,   198 primitive gaussians,   160 cartesian basis functions
     9 alpha electrons        9 beta electrons
       nuclear repulsion energy        36.6380791177 Hartrees.
 IExCor=32609 DFT=T Ex+Corr=LC-wPBE ExCW=0 ScaHFX=  1.000000
 ScaDFX=  1.000000  0.000000  1.000000  1.000000 ScalE2=  1.000000  1.000000
 IRadAn=      5 IRanWt=     -1 IRanGd=            0 ICorTp=0
  HFx wShort=  0.000000 wLong=  0.400000 cFull=  0.000000 cShort=  0.000000 cLong=  1.000000
  DFx wShort=  0.000000 wLong=  0.400000 cFull=  0.000000 cShort=  0.000000 cLong=  1.000000
 NAtoms=    5 NActive=    4 NUniq=    4 SFac= 1.00D+00 NAtFMM=   60 NAOKFM=F Big=F
 No density basis found on file   718.
 Leave Link  301 at Tue May 12 21:19:06 2020, MaxMem= 1073741824 cpu:       0.2
 (Enter /home/matheus/.gaussian/g09/l302.exe)
 NPDir=0 NMtPBC=     1 NCelOv=     1 NCel=       1 NClECP=     1 NCelD=      1
         NCelK=      1 NCelE2=     1 NClLst=     1 CellRange=     0.0.
 One-electron integrals computed using PRISM.
 NBasis=   138 RedAO= T  NBF=   138
 NBsUse=   138 1.00D-06 NBFU=   138
 Precomputing XC quadrature grid using
 IXCGrd= 2 IRadAn=           5 IRanWt=          -1 IRanGd=           0 AccXCQ= 0.00D+00.
 NRdTot=     344 NPtTot=       92556 NUsed=       95038 NTot=       95070
 NSgBfM=   160   160   160   160   160 NAtAll=     4     4.
 Leave Link  302 at Tue May 12 21:19:06 2020, MaxMem= 1073741824 cpu:       0.7
 (Enter /home/matheus/.gaussian/g09/l303.exe)
 DipDrv:  MaxL=1.
 Leave Link  303 at Tue May 12 21:19:06 2020, MaxMem= 1073741824 cpu:       0.1
 (Enter /home/matheus/.gaussian/g09/l401.exe)
 Initial guess read from the read-write file.
 Guess basis will be translated and rotated to current coordinates.
 Initial guess orbital symmetries:
       Occupied  (A) (A) (A) (A) (A) (A) (A) (A) (A)
       Virtual   (A) (A) (A) (A) (A) (A) (A) (A) (A) (A) (A) (A)
                 (A) (A) (A) (A) (A) (A) (A) (A) (A) (A) (A) (A)
                 (A) (A) (A) (A) (A) (A) (A) (A) (A) (A) (A) (A)
                 (A) (A) (A) (A) (A) (A) (A) (A) (A) (A) (A) (A)
                 (A) (A) (A) (A) (A) (A) (A) (A) (A) (A) (A) (A)
                 (A) (A) (A) (A) (A) (A) (A) (A) (A) (A) (A) (A)
                 (A) (A) (A) (A) (A) (A) (A) (A) (A) (A) (A) (A)
                 (A) (A) (A) (A) (A) (A) (A) (A) (A) (A) (A) (A)
                 (A) (A) (A) (A) (A) (A) (A) (A) (A) (A) (A) (A)
                 (A) (A) (A) (A) (A) (A) (A) (A) (A) (A) (A) (A)
                 (A) (A) (A) (A) (A) (A) (A) (A) (A)
 The electronic state of the initial guess is 1-A.
 Generating alternative initial guess.
 Harris functional with IExCor=32609 diagonalized for initial guess.
 ExpMin= 2.53D-02 ExpMax= 1.53D+04 ExpMxC= 5.22D+02 IAcc=3 IRadAn=         5 AccDes= 0.00D+00
 HarFok:  IExCor=32609 AccDes= 0.00D+00 IRadAn=         5 IDoV= 1
 ScaDFX=  1.000000  1.000000  1.000000  1.000000
 FoFCou: FMM=F IPFlag=           0 FMFlag=      100000 FMFlg1=           0
         NFxFlg=           0 DoJE=T BraDBF=F KetDBF=T FulRan=T
         Omega=  0.000000  0.000000  1.000000  0.000000  0.000000 ICntrl=     500 IOpCl=  0
         NMat0=    1 NMatS0=    1 NMatT0=    0 NMatD0=    1 NMtDS0=    0 NMtDT0=    0
         I1Cent=           4 NGrid=           0.
 Petite list used in FoFCou.
 Harris En= -151.502239850645    
 Leave Link  401 at Tue May 12 21:19:06 2020, MaxMem= 1073741824 cpu:       2.2
 (Enter /home/matheus/.gaussian/g09/l502.exe)
 Closed shell SCF:
 Requested convergence on RMS density matrix=1.00D-08 within 128 cycles.
 Requested convergence on MAX density matrix=1.00D-06.
 Requested convergence on             energy=1.00D-06.
 No special actions if energy rises.
 Using DIIS extrapolation, IDIIS=  1040.
 Integral symmetry usage will be decided dynamically.
        94980 words used for storage of precomputed grid.
 IEnd=      192360 IEndB=      192360 NGot=  1073741824 MDV=  1073591865
 LenX=  1073591865 LenY=  1073565824
 Fock matrices will be formed incrementally for  20 cycles.

 Cycle   1  Pass 1  IDiag  1:
 FoFJK:  IHMeth= 1 ICntrl=     0 DoSepK=T KAlg= 1 I1Cent= 0 FoldK=F
 FoFCou: FMM=F IPFlag=           0 FMFlag=      100000 FMFlg1=           0
         NFxFlg=           0 DoJE=T BraDBF=F KetDBF=F FulRan=T
         Omega=  0.000000  0.000000  1.000000  0.000000  0.000000 ICntrl=     500 IOpCl=  0
         NMat0=    1 NMatS0=    1 NMatT0=    0 NMatD0=    1 NMtDS0=    0 NMtDT0=    0
         I1Cent=           0 NGrid=           0.
 Symmetry not used in FoFCou.
 E= -151.523698525321    
 DIIS: error= 6.63D-06 at cycle   1 NSaved=   1.
 NSaved= 1 IEnMin= 1 EnMin= -151.523698525321     IErMin= 1 ErrMin= 6.63D-06
 ErrMax= 6.63D-06 EMaxC= 1.00D-01 BMatC= 1.43D-08 BMatP= 1.43D-08
 IDIUse=1 WtCom= 1.00D+00 WtEn= 0.00D+00
 Coeff-Com:  0.100D+01
 Coeff:      0.100D+01
 Gap=     0.442 Goal=   None    Shift=    0.000
 RMSDP=7.91D-07 MaxDP=1.81D-05              OVMax= 3.10D-05

 Cycle   2  Pass 1  IDiag  1:
 RMSU=  5.59D-07    CP:  1.00D+00
 FoFJK:  IHMeth= 1 ICntrl=     0 DoSepK=T KAlg= 1 I1Cent= 0 FoldK=F
 E= -151.523698538918     Delta-E=       -0.000000013597 Rises=F Damp=F
 DIIS: error= 1.71D-06 at cycle   2 NSaved=   2.
 NSaved= 2 IEnMin= 2 EnMin= -151.523698538918     IErMin= 2 ErrMin= 1.71D-06
 ErrMax= 1.71D-06 EMaxC= 1.00D-01 BMatC= 5.03D-10 BMatP= 1.43D-08
 IDIUse=1 WtCom= 1.00D+00 WtEn= 0.00D+00
 Coeff-Com: -0.122D+00 0.112D+01
 Coeff:     -0.122D+00 0.112D+01
 Gap=     0.442 Goal=   None    Shift=    0.000
 RMSDP=2.16D-07 MaxDP=6.10D-06 DE=-1.36D-08 OVMax= 1.14D-05

 Cycle   3  Pass 1  IDiag  1:
 RMSU=  7.98D-08    CP:  1.00D+00  1.23D+00
 FoFJK:  IHMeth= 1 ICntrl=     0 DoSepK=T KAlg= 1 I1Cent= 0 FoldK=F
 E= -151.523698540026     Delta-E=       -0.000000001108 Rises=F Damp=F
 DIIS: error= 4.87D-07 at cycle   3 NSaved=   3.
 NSaved= 3 IEnMin= 3 EnMin= -151.523698540026     IErMin= 3 ErrMin= 4.87D-07
 ErrMax= 4.87D-07 EMaxC= 1.00D-01 BMatC= 3.10D-11 BMatP= 5.03D-10
 IDIUse=1 WtCom= 1.00D+00 WtEn= 0.00D+00
 Coeff-Com: -0.483D-02-0.129D+00 0.113D+01
 Coeff:     -0.483D-02-0.129D+00 0.113D+01
 Gap=     0.442 Goal=   None    Shift=    0.000
 RMSDP=6.50D-08 MaxDP=1.43D-06 DE=-1.11D-09 OVMax= 4.53D-06

 Cycle   4  Pass 1  IDiag  1:
 RMSU=  1.60D-08    CP:  1.00D+00  1.29D+00  1.40D+00
 FoFJK:  IHMeth= 1 ICntrl=     0 DoSepK=T KAlg= 1 I1Cent= 0 FoldK=F
 E= -151.523698540129     Delta-E=       -0.000000000104 Rises=F Damp=F
 DIIS: error= 1.94D-07 at cycle   4 NSaved=   4.
 NSaved= 4 IEnMin= 4 EnMin= -151.523698540129     IErMin= 4 ErrMin= 1.94D-07
 ErrMax= 1.94D-07 EMaxC= 1.00D-01 BMatC= 3.66D-12 BMatP= 3.10D-11
 IDIUse=1 WtCom= 1.00D+00 WtEn= 0.00D+00
 Coeff-Com:  0.783D-02-0.878D-01 0.208D-01 0.106D+01
 Coeff:      0.783D-02-0.878D-01 0.208D-01 0.106D+01
 Gap=     0.442 Goal=   None    Shift=    0.000
 RMSDP=2.25D-08 MaxDP=4.07D-07 DE=-1.04D-10 OVMax= 1.78D-06

 Cycle   5  Pass 1  IDiag  1:
 RMSU=  6.75D-09    CP:  1.00D+00  1.30D+00  1.54D+00  1.42D+00
 FoFJK:  IHMeth= 1 ICntrl=     0 DoSepK=T KAlg= 1 I1Cent= 0 FoldK=F
 E= -151.523698540141     Delta-E=       -0.000000000012 Rises=F Damp=F
 DIIS: error= 6.46D-08 at cycle   5 NSaved=   5.
 NSaved= 5 IEnMin= 5 EnMin= -151.523698540141     IErMin= 5 ErrMin= 6.46D-08
 ErrMax= 6.46D-08 EMaxC= 1.00D-01 BMatC= 7.40D-13 BMatP= 3.66D-12
 IDIUse=1 WtCom= 1.00D+00 WtEn= 0.00D+00
 Coeff-Com:  0.252D-02-0.151D-01-0.808D-01 0.334D+00 0.759D+00
 Coeff:      0.252D-02-0.151D-01-0.808D-01 0.334D+00 0.759D+00
 Gap=     0.442 Goal=   None    Shift=    0.000
 RMSDP=6.24D-09 MaxDP=1.37D-07 DE=-1.20D-11 OVMax= 4.69D-07

 SCF Done:  E(RLC-wPBE) =  -151.523698540     A.U. after    5 cycles
             Convg  =    0.6239D-08             -V/T =  2.0067
 KE= 1.505139053117D+02 PE=-4.315335196111D+02 EE= 9.285783664153D+01
 Leave Link  502 at Tue May 12 21:19:11 2020, MaxMem= 1073741824 cpu:      37.4
 (Enter /home/matheus/.gaussian/g09/l122.exe)
 Restoring MOs from calculation   5 to rwf.
 Counterpoise: doing MCBS calculation for fragment   2
 Leave Link  122 at Tue May 12 21:19:11 2020, MaxMem= 1073741824 cpu:       0.0
 (Enter /home/matheus/.gaussian/g09/l301.exe)
 Basis read from rwf:  (5D, 7F)
 No pseudopotential information found on rwf file.
 There are    59 symmetry adapted basis functions of A   symmetry.
 Integral buffers will be    131072 words long.
 Raffenetti 2 integral format.
 Two-electron integral symmetry is turned on.
    59 basis functions,   217 primitive gaussians,    69 cartesian basis functions
    18 alpha electrons       18 beta electrons
       nuclear repulsion energy         0.0000000000 Hartrees.
 IExCor=32609 DFT=T Ex+Corr=LC-wPBE ExCW=0 ScaHFX=  1.000000
 ScaDFX=  1.000000  0.000000  1.000000  1.000000 ScalE2=  1.000000  1.000000
 IRadAn=      5 IRanWt=     -1 IRanGd=            0 ICorTp=0
  HFx wShort=  0.000000 wLong=  0.400000 cFull=  0.000000 cShort=  0.000000 cLong=  1.000000
  DFx wShort=  0.000000 wLong=  0.400000 cFull=  0.000000 cShort=  0.000000 cLong=  1.000000
 NAtoms=    5 NActive=    1 NUniq=    1 SFac= 1.00D+00 NAtFMM=   60 NAOKFM=F Big=F
 No density basis found on file   718.
 Leave Link  301 at Tue May 12 21:19:11 2020, MaxMem= 1073741824 cpu:       0.2
 (Enter /home/matheus/.gaussian/g09/l302.exe)
 NPDir=0 NMtPBC=     1 NCelOv=     1 NCel=       1 NClECP=     1 NCelD=      1
         NCelK=      1 NCelE2=     1 NClLst=     1 CellRange=     0.0.
 One-electron integrals computed using PRISM.
 NBasis=    59 RedAO= T  NBF=    59
 NBsUse=    59 1.00D-06 NBFU=    59
 Precomputing XC quadrature grid using
 IXCGrd= 2 IRadAn=           5 IRanWt=          -1 IRanGd=           0 AccXCQ= 0.00D+00.
 NRdTot=      81 NPtTot=       30352 NUsed=       30981 NTot=       31013
 NSgBfM=    69    69    69    69    69 NAtAll=     1     1.
 Leave Link  302 at Tue May 12 21:19:11 2020, MaxMem= 1073741824 cpu:       0.6
 (Enter /home/matheus/.gaussian/g09/l303.exe)
 DipDrv:  MaxL=1.
 Leave Link  303 at Tue May 12 21:19:11 2020, MaxMem= 1073741824 cpu:       0.1
 (Enter /home/matheus/.gaussian/g09/l401.exe)
 Initial guess read from the read-write file.
 Guess basis will be translated and rotated to current coordinates.
 Initial guess orbital symmetries:
       Occupied  (A) (A) (A) (A) (A) (A) (A) (A) (A) (A) (A) (A)
                 (A) (A) (A) (A) (A) (A)
       Virtual   (A) (A) (A) (A) (A) (A) (A) (A) (A) (A) (A) (A)
                 (A) (A) (A) (A) (A) (A) (A) (A) (A) (A) (A) (A)
                 (A) (A) (A) (A) (A) (A) (A) (A) (A) (A) (A) (A)
                 (A) (A) (A) (A) (A)
 The electronic state of the initial guess is 1-A.
 Generating alternative initial guess.
 Harris functional with IExCor=32609 diagonalized for initial guess.
 ExpMin= 4.00D-02 ExpMax= 1.17D+07 ExpMxC= 1.33D+04 IAcc=3 IRadAn=         5 AccDes= 0.00D+00
 HarFok:  IExCor=32609 AccDes= 0.00D+00 IRadAn=         5 IDoV= 1
 ScaDFX=  1.000000  1.000000  1.000000  1.000000
 FoFCou: FMM=F IPFlag=           0 FMFlag=      100000 FMFlg1=           0
         NFxFlg=           0 DoJE=T BraDBF=F KetDBF=T FulRan=T
         Omega=  0.000000  0.000000  1.000000  0.000000  0.000000 ICntrl=     500 IOpCl=  0
         NMat0=    1 NMatS0=    1 NMatT0=    0 NMatD0=    1 NMtDS0=    0 NMtDT0=    0
         I1Cent=           4 NGrid=           0.
 Petite list used in FoFCou.
 Harris En= -2753.24576836237    
 Leave Link  401 at Tue May 12 21:19:11 2020, MaxMem= 1073741824 cpu:       1.0
 (Enter /home/matheus/.gaussian/g09/l502.exe)
 Closed shell SCF:
 Requested convergence on RMS density matrix=1.00D-08 within 128 cycles.
 Requested convergence on MAX density matrix=1.00D-06.
 Requested convergence on             energy=1.00D-06.
 No special actions if energy rises.
 Using DIIS extrapolation, IDIIS=  1040.
 Integral symmetry usage will be decided dynamically.
        30923 words used for storage of precomputed grid.
 IEnd=       64406 IEndB=       64406 NGot=  1073741824 MDV=  1073698889
 LenX=  1073698889 LenY=  1073693687
 Fock matrices will be formed incrementally for  20 cycles.

 Cycle   1  Pass 1  IDiag  1:
 FoFJK:  IHMeth= 1 ICntrl=     0 DoSepK=T KAlg= 1 I1Cent= 0 FoldK=F
 FoFCou: FMM=F IPFlag=           0 FMFlag=      100000 FMFlg1=           0
         NFxFlg=           0 DoJE=T BraDBF=F KetDBF=F FulRan=T
         Omega=  0.000000  0.000000  1.000000  0.000000  0.000000 ICntrl=     500 IOpCl=  0
         NMat0=    1 NMatS0=    1 NMatT0=    0 NMatD0=    1 NMtDS0=    0 NMtDT0=    0
         I1Cent=           0 NGrid=           0.
 Symmetry not used in FoFCou.
 E= -2753.43563276534    
 DIIS: error= 2.64D-13 at cycle   1 NSaved=   1.
 NSaved= 1 IEnMin= 1 EnMin= -2753.43563276534     IErMin= 1 ErrMin= 2.64D-13
 ErrMax= 2.64D-13 EMaxC= 1.00D-01 BMatC= 1.29D-24 BMatP= 1.29D-24
 IDIUse=1 WtCom= 1.00D+00 WtEn= 0.00D+00
 Coeff-Com:  0.100D+01
 Coeff:      0.100D+01
 Gap=     0.599 Goal=   None    Shift=    0.000
 RMSDP=7.12D-15 MaxDP=1.24D-13              OVMax= 8.02D-14

 SCF Done:  E(RLC-wPBE) =  -2753.43563277     A.U. after    1 cycles
             Convg  =    0.7125D-14             -V/T =  2.0014
 KE= 2.749535160915D+03 PE=-6.578948648680D+03 EE= 1.075977855000D+03
 Leave Link  502 at Tue May 12 21:19:13 2020, MaxMem= 1073741824 cpu:      11.0
 (Enter /home/matheus/.gaussian/g09/l122.exe)
 Restoring MOs from calculation   1 to rwf.
 Counterpoise: corrected energy =   -2904.959380412570
 Counterpoise: BSSE energy =       0.000021466065
 Leave Link  122 at Tue May 12 21:19:13 2020, MaxMem= 1073741824 cpu:       0.0
 (Enter /home/matheus/.gaussian/g09/l108.exe)
 Scan completed.

 Summary of the potential surface scan:
   N      R1          SCF    
 ----  ---------  -----------
    1     3.0000  -2753.43563
    2     3.1000  -2753.43563
    3     3.2000  -2753.43563
    4     3.3000  -2753.43563
    5     3.4000  -2753.43563
    6     3.5000  -2753.43563
    7     3.6000  -2753.43563
    8     3.7000  -2753.43563
    9     3.8000  -2753.43563
   10     3.9000  -2753.43563
   11     4.0000  -2753.43563
   12     4.1000  -2753.43563
   13     4.2000  -2753.43563
   14     4.3000  -2753.43563
   15     4.4000  -2753.43563
   16     4.5000  -2753.43563
   17     4.6000  -2753.43563
   18     4.7000  -2753.43563
   19     4.8000  -2753.43563
   20     4.9000  -2753.43563
   21     5.0000  -2753.43563
 ----  ---------  -----------
  
 Leave Link  108 at Tue May 12 21:19:13 2020, MaxMem= 1073741824 cpu:       0.0
 (Enter /home/matheus/.gaussian/g09/l9999.exe)
 1\1\GINC-REDGIANT\Scan\RLC-wPBE\Aug-CC-pVTZ\H2Kr1O2\MATHEUS\12-May-202
 0\1\\#p lc-wpbe/aug-cc-PVTz int=ultrafine counterpoise=2 Scan\\TCC\\0,
 1\O,0,0.,0.,0.725\O,0,0.,0.,-0.725\H,0,-0.8633149634,0.3142209495,1.02
 35104166\H,0,0.,0.9187205947,-1.0235104166\Kr,0,0.,R1,0.\\R1=3.,s,20,0
 .1\\Version=EM64L-G09RevC.01\State=1-A\HF=-2753.4356328,-2753.4356328,
 -2753.4356328,-2753.4356328,-2753.4356328,-2753.4356328,-2753.4356328,
 -2753.4356328,-2753.4356328,-2753.4356328,-2753.4356328,-2753.4356328,
 -2753.4356328,-2753.4356328,-2753.4356328,-2753.4356328,-2753.4356328,
 -2753.4356328,-2753.4356328,-2753.4356328,-2753.4356328\RMSD=1.428e-09
 ,5.221e-11,1.075e-11,2.473e-12,6.369e-13,1.578e-13,4.207e-14,1.243e-14
 ,9.283e-15,8.151e-15,8.423e-15,9.349e-15,5.346e-15,1.191e-14,7.337e-15
 ,5.587e-15,7.079e-15,8.612e-15,3.632e-15,8.210e-15,7.125e-15\PG=C01 [X
 (H2Kr1O2)]\\@


 BULLDOZER: SOMEONE WHO SLEEPS THROUGH SPEECHES.
 Job cpu time:  0 days  3 hours 12 minutes 30.8 seconds.
 File lengths (MBytes):  RWF=     33 Int=      0 D2E=      0 Chk=      8 Scr=      1
 Normal termination of Gaussian 09 at Tue May 12 21:19:13 2020.
