 Entering Gaussian System, Link 0=g09
 Input=/home/matheus/.tcc/Inputs/Inputs-lc-wpbe-default/H2O2-Kr_2.com
 Output=/home/matheus/.tcc/Logs/Logs-lc-wpbe-default/H2O2-Kr_2.log
 Initial command:
 /home/matheus/.gaussian/g09/l1.exe /home/matheus/.gaussian/g09/scratch/Gau-15519.inp -scrdir=/home/matheus/.gaussian/g09/scratch/
 Entering Link 1 = /home/matheus/.gaussian/g09/l1.exe PID=     15523.
  
 Copyright (c) 1988,1990,1992,1993,1995,1998,2003,2009,2011,
            Gaussian, Inc.  All Rights Reserved.
  
 This is part of the Gaussian(R) 09 program.  It is based on
 the Gaussian(R) 03 system (copyright 2003, Gaussian, Inc.),
 the Gaussian(R) 98 system (copyright 1998, Gaussian, Inc.),
 the Gaussian(R) 94 system (copyright 1995, Gaussian, Inc.),
 the Gaussian 92(TM) system (copyright 1992, Gaussian, Inc.),
 the Gaussian 90(TM) system (copyright 1990, Gaussian, Inc.),
 the Gaussian 88(TM) system (copyright 1988, Gaussian, Inc.),
 the Gaussian 86(TM) system (copyright 1986, Carnegie Mellon
 University), and the Gaussian 82(TM) system (copyright 1983,
 Carnegie Mellon University). Gaussian is a federally registered
 trademark of Gaussian, Inc.
  
 This software contains proprietary and confidential information,
 including trade secrets, belonging to Gaussian, Inc.
  
 This software is provided under written license and may be
 used, copied, transmitted, or stored only in accord with that
 written license.
  
 The following legend is applicable only to US Government
 contracts under FAR:
  
                    RESTRICTED RIGHTS LEGEND
  
 Use, reproduction and disclosure by the US Government is
 subject to restrictions as set forth in subparagraphs (a)
 and (c) of the Commercial Computer Software - Restricted
 Rights clause in FAR 52.227-19.
  
 Gaussian, Inc.
 340 Quinnipiac St., Bldg. 40, Wallingford CT 06492
  
  
 ---------------------------------------------------------------
 Warning -- This program may not be used in any manner that
 competes with the business of Gaussian, Inc. or will provide
 assistance to any competitor of Gaussian, Inc.  The licensee
 of this program is prohibited from giving any competitor of
 Gaussian, Inc. access to this program.  By using this program,
 the user acknowledges that Gaussian, Inc. is engaged in the
 business of creating and licensing software in the field of
 computational chemistry and represents and warrants to the
 licensee that it is not a competitor of Gaussian, Inc. and that
 it will not use this program in any manner prohibited above.
 ---------------------------------------------------------------
  

 Cite this work as:
 Gaussian 09, Revision C.01,
 M. J. Frisch, G. W. Trucks, H. B. Schlegel, G. E. Scuseria, 
 M. A. Robb, J. R. Cheeseman, G. Scalmani, V. Barone, B. Mennucci, 
 G. A. Petersson, H. Nakatsuji, M. Caricato, X. Li, H. P. Hratchian, 
 A. F. Izmaylov, J. Bloino, G. Zheng, J. L. Sonnenberg, M. Hada, 
 M. Ehara, K. Toyota, R. Fukuda, J. Hasegawa, M. Ishida, T. Nakajima, 
 Y. Honda, O. Kitao, H. Nakai, T. Vreven, J. A. Montgomery, Jr., 
 J. E. Peralta, F. Ogliaro, M. Bearpark, J. J. Heyd, E. Brothers, 
 K. N. Kudin, V. N. Staroverov, T. Keith, R. Kobayashi, J. Normand, 
 K. Raghavachari, A. Rendell, J. C. Burant, S. S. Iyengar, J. Tomasi, 
 M. Cossi, N. Rega, J. M. Millam, M. Klene, J. E. Knox, J. B. Cross, 
 V. Bakken, C. Adamo, J. Jaramillo, R. Gomperts, R. E. Stratmann, 
 O. Yazyev, A. J. Austin, R. Cammi, C. Pomelli, J. W. Ochterski, 
 R. L. Martin, K. Morokuma, V. G. Zakrzewski, G. A. Voth, 
 P. Salvador, J. J. Dannenberg, S. Dapprich, A. D. Daniels, 
 O. Farkas, J. B. Foresman, J. V. Ortiz, J. Cioslowski, 
 and D. J. Fox, Gaussian, Inc., Wallingford CT, 2010.
 
 ******************************************
 Gaussian 09:  EM64L-G09RevC.01 23-Sep-2011
                12-May-2020 
 ******************************************
 %mem=8GB
 %nproc=8
 Will use up to    8 processors via shared memory.
 --------------------------------------------------------
 #p lc-wpbe/aug-cc-PVTz int=ultrafine counterpoise=2 Scan
 --------------------------------------------------------
 1/38=1,60=1,62=2/1,8;
 2/12=2,17=6,18=5,29=3,40=1/2;
 1/38=1,53=5172,62=2/22;
 3/5=16,6=1,7=10,11=2,16=1,25=1,30=1,74=-41,75=-5/1,2,3;
 4//1;
 5/5=2,38=5/2;
 6/7=2,8=2,9=2,10=2,18=1,28=1/1;
 1/53=4052,62=2,63=1/22;
 3/5=7,6=11,7=10,11=2,16=1,25=1,30=1,74=-41,75=-5,82=7/1,2,3;
 4//1;
 5/5=2,38=5/2;
 6/7=2,8=2,9=2,10=2,18=1,28=1/1;
 1/53=3042,62=2,63=2/22;
 3/5=7,6=11,7=10,11=2,16=1,25=1,30=1,74=-41,75=-5,82=7/1,2,3;
 4//1;
 5/5=2,38=5/2;
 6/7=2,8=2,9=2,10=2,18=1,28=1/1;
 1/53=2032,62=2,63=3/22;
 3/5=7,6=11,7=10,11=2,16=1,25=1,30=1,74=-41,75=-5,82=7/1,2,3;
 4//1;
 5/5=2,38=5/2;
 6/7=2,8=2,9=2,10=2,18=1,28=1/1;
 1/53=1022,62=2,63=4/22;
 3/5=7,6=11,7=10,11=2,16=1,25=1,30=1,74=-41,75=-5,82=7/1,2,3;
 4//1;
 5/5=2,38=5/2;
 6/7=2,8=2,9=2,10=2,18=1,28=1/1;
 1/53=5014,62=2,63=5/22;
 1/60=1,62=2/8(1);
 99/9=1/99;
 2/29=3/2;
 1/53=5173,62=2/22;
 3/5=7,6=11,7=10,11=2,16=1,25=1,30=1,74=-41,75=-5,82=7/1,2,3;
 4/5=5,16=3/1;
 5/5=2,38=5/2;
 1/53=4053,62=2,63=1/22;
 3/5=7,6=11,7=10,11=2,16=1,25=1,30=1,74=-41,75=-5,82=7/1,2,3;
 4/5=5,16=3/1;
 5/5=2,38=5/2;
 1/53=3043,62=2,63=2/22;
 3/5=7,6=11,7=10,11=2,16=1,25=1,30=1,74=-41,75=-5,82=7/1,2,3;
 4/5=5,16=3/1;
 5/5=2,38=5/2;
 1/53=2033,62=2,63=3/22;
 3/5=7,6=11,7=10,11=2,16=1,25=1,30=1,74=-41,75=-5,82=7/1,2,3;
 4/5=5,16=3/1;
 5/5=2,38=5/2;
 1/53=1024,62=2,63=4/22;
 3/5=7,6=11,7=10,11=2,16=1,25=1,30=1,74=-41,75=-5,82=7/1,2,3;
 4/5=5,16=3/1;
 5/5=2,38=5/2;
 1/53=5014,62=2,63=5/22;
 1/60=1,62=2/8(-22);
 99/9=1/99;
 Leave Link    1 at Tue May 12 09:51:41 2020, MaxMem= 1073741824 cpu:       0.6
 (Enter /home/matheus/.gaussian/g09/l101.exe)
 ---
 TCC
 ---
 Charge =  0 Multiplicity = 1 in supermolecule
 Charge =  0 Multiplicity = 1 in fragment  1.
 Charge =  0 Multiplicity = 1 in fragment  2.
 Symbolic Z-Matrix:
 O(Fragment=1)         0.        0.        0.725 
 O(Fragment=1)         0.        0.       -0.725 
 H(Fragment=1)         0.31422   0.86331   1.02351 
 H(Fragment=1)         0.        0.91872  -1.02351 
 Kr(Fragment=2)        0.       R1        0. 
       Variables:
  R1                    3.     Scan 20    0.1    
 
 NAtoms=      5 NQM=        0 NQMF=       0 NMMI=      5 NMMIF=      0
                NMic=       0 NMicF=      0.
                    Isotopes and Nuclear Properties:
 (Nuclear quadrupole moments (NQMom) in fm**2, nuclear magnetic moments (NMagM)
  in nuclear magnetons)

  Atom         1           2           3           4           5
 IAtWgt=          16          16           1           1          84
 AtmWgt=  15.9949146  15.9949146   1.0078250   1.0078250  83.9115064
 NucSpn=           0           0           1           1           0
 AtZEff=   0.0000000   0.0000000   0.0000000   0.0000000   0.0000000
 NQMom=    0.0000000   0.0000000   0.0000000   0.0000000   0.0000000
 NMagM=    0.0000000   0.0000000   2.7928460   2.7928460   0.0000000
 Leave Link  101 at Tue May 12 09:51:41 2020, MaxMem= 1073741824 cpu:       0.3
 (Enter /home/matheus/.gaussian/g09/l108.exe)
 Scan the potential surface.
 Variable   Value     No. Steps Step-Size
 -------- ----------- --------- ---------
     1       3.000000      20      0.1000
 A total of     21 points will be computed.
 Leave Link  108 at Tue May 12 09:51:41 2020, MaxMem= 1073741824 cpu:       0.0
 (Enter /home/matheus/.gaussian/g09/l202.exe)
 ---------------------------------------------------------------------------------------------------
                            Z-MATRIX (ANGSTROMS AND DEGREES)
   CD    Cent   Atom    N1       Length/X        N2       Alpha/Y        N3        Beta/Z          J
 ---------------------------------------------------------------------------------------------------
      1      1  O        0   0.000000          0.000000          0.725000
      2      2  O        0   0.000000          0.000000         -0.725000
      3      3  H        0   0.314221          0.863315          1.023510
      4      4  H        0   0.000000          0.918721         -1.023510
      5      5  Kr       0   0.000000          3.000000          0.000000
 ---------------------------------------------------------------------------------------------------
                         Z-Matrix orientation:                         
 ---------------------------------------------------------------------
 Center     Atomic      Atomic             Coordinates (Angstroms)
 Number     Number       Type             X           Y           Z
 ---------------------------------------------------------------------
      1          8           0        0.000000    0.000000    0.725000
      2          8           0        0.000000    0.000000   -0.725000
      3          1           0        0.314221    0.863315    1.023510
      4          1           0        0.000000    0.918721   -1.023510
      5         36           0        0.000000    3.000000    0.000000
 ---------------------------------------------------------------------
                    Distance matrix (angstroms):
                    1          2          3          4          5
     1  O    0.000000
     2  O    1.450000   0.000000
     3  H    0.966000   1.975180   0.000000
     4  H    1.975180   0.966000   2.071738   0.000000
     5  Kr   3.086361   3.086361   2.389923   2.319331   0.000000
 Stoichiometry    H2KrO2
 Framework group  C1[X(H2KrO2)]
 Deg. of freedom     9
 Full point group                 C1      NOp   1
 Largest Abelian subgroup         C1      NOp   1
 Largest concise Abelian subgroup C1      NOp   1
                         Standard orientation:                         
 ---------------------------------------------------------------------
 Center     Atomic      Atomic             Coordinates (Angstroms)
 Number     Number       Type             X           Y           Z
 ---------------------------------------------------------------------
      1          8           0        2.033423   -0.722971   -0.035434
      2          8           0        2.032510    0.726339    0.009272
      3          1           0        1.171431   -1.031666    0.272517
      4          1           0        1.113607    1.024028    0.021759
      5         36           0       -0.967014   -0.000536   -0.002361
 ---------------------------------------------------------------------
 Rotational constants (GHZ):     26.5652681      2.3862430      2.1913165
 Leave Link  202 at Tue May 12 09:51:41 2020, MaxMem= 1073741824 cpu:       0.0
 (Enter /home/matheus/.gaussian/g09/l122.exe)
 Leave Link  122 at Tue May 12 09:51:41 2020, MaxMem= 1073741824 cpu:       0.0
 (Enter /home/matheus/.gaussian/g09/l301.exe)
 Standard basis: Aug-CC-pVTZ (5D, 7F)
 Ernie: Thresh=  0.10000D-02 Tol=  0.10000D-05 Strict=F.
 Ernie:  38 primitive shells out of 205 were deleted.
 There are   197 symmetry adapted basis functions of A   symmetry.
 Integral buffers will be    131072 words long.
 Raffenetti 2 integral format.
 Two-electron integral symmetry is turned on.
   197 basis functions,   415 primitive gaussians,   229 cartesian basis functions
    27 alpha electrons       27 beta electrons
       nuclear repulsion energy       151.6075768884 Hartrees.
 IExCor=32609 DFT=T Ex+Corr=LC-wPBE ExCW=0 ScaHFX=  1.000000
 ScaDFX=  1.000000  0.000000  1.000000  1.000000 ScalE2=  1.000000  1.000000
 IRadAn=      5 IRanWt=     -1 IRanGd=            0 ICorTp=0
  HFx wShort=  0.000000 wLong=  0.400000 cFull=  0.000000 cShort=  0.000000 cLong=  1.000000
  DFx wShort=  0.000000 wLong=  0.400000 cFull=  0.000000 cShort=  0.000000 cLong=  1.000000
 NAtoms=    5 NActive=    5 NUniq=    5 SFac= 1.00D+00 NAtFMM=   60 NAOKFM=F Big=F
 Leave Link  301 at Tue May 12 09:51:41 2020, MaxMem= 1073741824 cpu:       0.2
 (Enter /home/matheus/.gaussian/g09/l302.exe)
 NPDir=0 NMtPBC=     1 NCelOv=     1 NCel=       1 NClECP=     1 NCelD=      1
         NCelK=      1 NCelE2=     1 NClLst=     1 CellRange=     0.0.
 One-electron integrals computed using PRISM.
 NBasis=   197 RedAO= T  NBF=   197
 NBsUse=   197 1.00D-06 NBFU=   197
 Precomputing XC quadrature grid using
 IXCGrd= 2 IRadAn=           5 IRanWt=          -1 IRanGd=           0 AccXCQ= 0.00D+00.
 NRdTot=     427 NPtTot=      123512 NUsed=      126579 NTot=      126611
 NSgBfM=   229   229   229   229   229 NAtAll=     5     5.
 Leave Link  302 at Tue May 12 09:51:42 2020, MaxMem= 1073741824 cpu:       0.9
 (Enter /home/matheus/.gaussian/g09/l303.exe)
 DipDrv:  MaxL=1.
 Leave Link  303 at Tue May 12 09:51:42 2020, MaxMem= 1073741824 cpu:       0.2
 (Enter /home/matheus/.gaussian/g09/l401.exe)
 Harris functional with IExCor=32609 diagonalized for initial guess.
 ExpMin= 2.53D-02 ExpMax= 1.17D+07 ExpMxC= 1.33D+04 IAcc=3 IRadAn=         5 AccDes= 0.00D+00
 HarFok:  IExCor=32609 AccDes= 0.00D+00 IRadAn=         5 IDoV= 1
 ScaDFX=  1.000000  1.000000  1.000000  1.000000
 FoFCou: FMM=F IPFlag=           0 FMFlag=      100000 FMFlg1=           0
         NFxFlg=           0 DoJE=T BraDBF=F KetDBF=T FulRan=T
         Omega=  0.000000  0.000000  1.000000  0.000000  0.000000 ICntrl=     500 IOpCl=  0
         NMat0=    1 NMatS0=    1 NMatT0=    0 NMatD0=    1 NMtDS0=    0 NMtDT0=    0
         I1Cent=           4 NGrid=           0.
 Petite list used in FoFCou.
 Harris En= -2904.73051641144    
 Initial guess orbital symmetries:
       Occupied  (A) (A) (A) (A) (A) (A) (A) (A) (A) (A) (A) (A)
                 (A) (A) (A) (A) (A) (A) (A) (A) (A) (A) (A) (A)
                 (A) (A) (A)
       Virtual   (A) (A) (A) (A) (A) (A) (A) (A) (A) (A) (A) (A)
                 (A) (A) (A) (A) (A) (A) (A) (A) (A) (A) (A) (A)
                 (A) (A) (A) (A) (A) (A) (A) (A) (A) (A) (A) (A)
                 (A) (A) (A) (A) (A) (A) (A) (A) (A) (A) (A) (A)
                 (A) (A) (A) (A) (A) (A) (A) (A) (A) (A) (A) (A)
                 (A) (A) (A) (A) (A) (A) (A) (A) (A) (A) (A) (A)
                 (A) (A) (A) (A) (A) (A) (A) (A) (A) (A) (A) (A)
                 (A) (A) (A) (A) (A) (A) (A) (A) (A) (A) (A) (A)
                 (A) (A) (A) (A) (A) (A) (A) (A) (A) (A) (A) (A)
                 (A) (A) (A) (A) (A) (A) (A) (A) (A) (A) (A) (A)
                 (A) (A) (A) (A) (A) (A) (A) (A) (A) (A) (A) (A)
                 (A) (A) (A) (A) (A) (A) (A) (A) (A) (A) (A) (A)
                 (A) (A) (A) (A) (A) (A) (A) (A) (A) (A) (A) (A)
                 (A) (A) (A) (A) (A) (A) (A) (A) (A) (A) (A) (A)
                 (A) (A)
 The electronic state of the initial guess is 1-A.
 Leave Link  401 at Tue May 12 09:51:42 2020, MaxMem= 1073741824 cpu:       3.9
 (Enter /home/matheus/.gaussian/g09/l502.exe)
 Closed shell SCF:
 Requested convergence on RMS density matrix=1.00D-08 within 128 cycles.
 Requested convergence on MAX density matrix=1.00D-06.
 Requested convergence on             energy=1.00D-06.
 No special actions if energy rises.
 Using DIIS extrapolation, IDIIS=  1040.
 Integral symmetry usage will be decided dynamically.
       126521 words used for storage of precomputed grid.
 IEnd=      305468 IEndB=      305468 NGot=  1073741824 MDV=  1073505667
 LenX=  1073505667 LenY=  1073452785
 Fock matrices will be formed incrementally for  20 cycles.

 Cycle   1  Pass 1  IDiag  1:
 FoFJK:  IHMeth= 1 ICntrl=     0 DoSepK=T KAlg= 1 I1Cent= 0 FoldK=F
 FoFCou: FMM=F IPFlag=           0 FMFlag=      100000 FMFlg1=           0
         NFxFlg=           0 DoJE=T BraDBF=F KetDBF=F FulRan=T
         Omega=  0.000000  0.000000  1.000000  0.000000  0.000000 ICntrl=     500 IOpCl=  0
         NMat0=    1 NMatS0=    1 NMatT0=    0 NMatD0=    1 NMtDS0=    0 NMtDT0=    0
         I1Cent=           0 NGrid=           0.
 Symmetry not used in FoFCou.
 E= -2904.86902493885    
 DIIS: error= 3.11D-02 at cycle   1 NSaved=   1.
 NSaved= 1 IEnMin= 1 EnMin= -2904.86902493885     IErMin= 1 ErrMin= 3.11D-02
 ErrMax= 3.11D-02 EMaxC= 1.00D-01 BMatC= 2.72D-01 BMatP= 2.72D-01
 IDIUse=3 WtCom= 6.89D-01 WtEn= 3.11D-01
 Coeff-Com:  0.100D+01
 Coeff-En:   0.100D+01
 Coeff:      0.100D+01
 Gap=     0.479 Goal=   None    Shift=    0.000
 GapD=    0.479 DampG=2.000 DampE=0.500 DampFc=1.0000 IDamp=-1.
 RMSDP=2.41D-03 MaxDP=1.53D-01              OVMax= 7.71D-02

 Cycle   2  Pass 1  IDiag  1:
 RMSU=  1.67D-03    CP:  1.02D+00
 FoFJK:  IHMeth= 1 ICntrl=     0 DoSepK=T KAlg= 1 I1Cent= 0 FoldK=F
 E= -2904.91397279412     Delta-E=       -0.044947855273 Rises=F Damp=F
 DIIS: error= 1.24D-02 at cycle   2 NSaved=   2.
 NSaved= 2 IEnMin= 2 EnMin= -2904.91397279412     IErMin= 2 ErrMin= 1.24D-02
 ErrMax= 1.24D-02 EMaxC= 1.00D-01 BMatC= 8.66D-02 BMatP= 2.72D-01
 IDIUse=3 WtCom= 8.76D-01 WtEn= 1.24D-01
 Coeff-Com:  0.354D+00 0.646D+00
 Coeff-En:   0.218D+00 0.782D+00
 Coeff:      0.337D+00 0.663D+00
 Gap=     0.433 Goal=   None    Shift=    0.000
 RMSDP=1.02D-03 MaxDP=5.29D-02 DE=-4.49D-02 OVMax= 3.67D-02

 Cycle   3  Pass 1  IDiag  1:
 RMSU=  3.37D-04    CP:  1.01D+00  6.28D-01
 FoFJK:  IHMeth= 1 ICntrl=     0 DoSepK=T KAlg= 1 I1Cent= 0 FoldK=F
 E= -2904.94592093804     Delta-E=       -0.031948143918 Rises=F Damp=F
 DIIS: error= 2.39D-03 at cycle   3 NSaved=   3.
 NSaved= 3 IEnMin= 3 EnMin= -2904.94592093804     IErMin= 3 ErrMin= 2.39D-03
 ErrMax= 2.39D-03 EMaxC= 1.00D-01 BMatC= 2.13D-03 BMatP= 8.66D-02
 IDIUse=3 WtCom= 9.76D-01 WtEn= 2.39D-02
 Coeff-Com:  0.710D-01 0.203D+00 0.726D+00
 Coeff-En:   0.000D+00 0.000D+00 0.100D+01
 Coeff:      0.693D-01 0.198D+00 0.733D+00
 Gap=     0.412 Goal=   None    Shift=    0.000
 RMSDP=1.38D-04 MaxDP=3.51D-03 DE=-3.19D-02 OVMax= 8.82D-03

 Cycle   4  Pass 1  IDiag  1:
 RMSU=  6.81D-05    CP:  1.01D+00  6.56D-01  8.49D-01
 FoFJK:  IHMeth= 1 ICntrl=     0 DoSepK=T KAlg= 1 I1Cent= 0 FoldK=F
 E= -2904.94708969634     Delta-E=       -0.001168758299 Rises=F Damp=F
 DIIS: error= 6.19D-04 at cycle   4 NSaved=   4.
 NSaved= 4 IEnMin= 4 EnMin= -2904.94708969634     IErMin= 4 ErrMin= 6.19D-04
 ErrMax= 6.19D-04 EMaxC= 1.00D-01 BMatC= 1.57D-04 BMatP= 2.13D-03
 IDIUse=3 WtCom= 9.94D-01 WtEn= 6.19D-03
 Coeff-Com: -0.266D-02 0.241D-01 0.269D+00 0.710D+00
 Coeff-En:   0.000D+00 0.000D+00 0.000D+00 0.100D+01
 Coeff:     -0.264D-02 0.240D-01 0.267D+00 0.712D+00
 Gap=     0.417 Goal=   None    Shift=    0.000
 RMSDP=3.99D-05 MaxDP=1.77D-03 DE=-1.17D-03 OVMax= 2.11D-03

 Cycle   5  Pass 1  IDiag  1:
 RMSU=  1.18D-05    CP:  1.01D+00  6.59D-01  9.12D-01  8.07D-01
 FoFJK:  IHMeth= 1 ICntrl=     0 DoSepK=T KAlg= 1 I1Cent= 0 FoldK=F
 E= -2904.94717820818     Delta-E=       -0.000088511837 Rises=F Damp=F
 DIIS: error= 7.38D-05 at cycle   5 NSaved=   5.
 NSaved= 5 IEnMin= 5 EnMin= -2904.94717820818     IErMin= 5 ErrMin= 7.38D-05
 ErrMax= 7.38D-05 EMaxC= 1.00D-01 BMatC= 1.20D-06 BMatP= 1.57D-04
 IDIUse=1 WtCom= 1.00D+00 WtEn= 0.00D+00
 Coeff-Com: -0.157D-02-0.214D-02 0.824D-02 0.765D-01 0.919D+00
 Coeff:     -0.157D-02-0.214D-02 0.824D-02 0.765D-01 0.919D+00
 Gap=     0.417 Goal=   None    Shift=    0.000
 RMSDP=5.87D-06 MaxDP=1.76D-04 DE=-8.85D-05 OVMax= 4.06D-04

 Cycle   6  Pass 1  IDiag  1:
 RMSU=  3.12D-06    CP:  1.01D+00  6.59D-01  9.12D-01  8.40D-01  1.13D+00
 FoFJK:  IHMeth= 1 ICntrl=     0 DoSepK=T KAlg= 1 I1Cent= 0 FoldK=F
 E= -2904.94717930590     Delta-E=       -0.000001097727 Rises=F Damp=F
 DIIS: error= 2.26D-05 at cycle   6 NSaved=   6.
 NSaved= 6 IEnMin= 6 EnMin= -2904.94717930590     IErMin= 6 ErrMin= 2.26D-05
 ErrMax= 2.26D-05 EMaxC= 1.00D-01 BMatC= 1.69D-07 BMatP= 1.20D-06
 IDIUse=1 WtCom= 1.00D+00 WtEn= 0.00D+00
 Coeff-Com: -0.256D-03-0.237D-02-0.169D-01-0.289D-01 0.210D+00 0.838D+00
 Coeff:     -0.256D-03-0.237D-02-0.169D-01-0.289D-01 0.210D+00 0.838D+00
 Gap=     0.417 Goal=   None    Shift=    0.000
 RMSDP=2.21D-06 MaxDP=8.51D-05 DE=-1.10D-06 OVMax= 1.82D-04

 Cycle   7  Pass 1  IDiag  1:
 RMSU=  1.10D-06    CP:  1.01D+00  6.59D-01  9.13D-01  8.46D-01  1.20D+00
                    CP:  1.10D+00
 FoFJK:  IHMeth= 1 ICntrl=     0 DoSepK=T KAlg= 1 I1Cent= 0 FoldK=F
 E= -2904.94717942451     Delta-E=       -0.000000118606 Rises=F Damp=F
 DIIS: error= 1.85D-05 at cycle   7 NSaved=   7.
 NSaved= 7 IEnMin= 7 EnMin= -2904.94717942451     IErMin= 7 ErrMin= 1.85D-05
 ErrMax= 1.85D-05 EMaxC= 1.00D-01 BMatC= 8.61D-08 BMatP= 1.69D-07
 IDIUse=1 WtCom= 1.00D+00 WtEn= 0.00D+00
 Coeff-Com:  0.565D-05-0.113D-02-0.102D-01-0.236D-01 0.209D-01 0.469D+00
 Coeff-Com:  0.545D+00
 Coeff:      0.565D-05-0.113D-02-0.102D-01-0.236D-01 0.209D-01 0.469D+00
 Coeff:      0.545D+00
 Gap=     0.417 Goal=   None    Shift=    0.000
 RMSDP=7.63D-07 MaxDP=3.20D-05 DE=-1.19D-07 OVMax= 6.64D-05

 Cycle   8  Pass 1  IDiag  1:
 RMSU=  3.45D-07    CP:  1.01D+00  6.59D-01  9.13D-01  8.47D-01  1.22D+00
                    CP:  1.18D+00  7.56D-01
 FoFJK:  IHMeth= 1 ICntrl=     0 DoSepK=T KAlg= 1 I1Cent= 0 FoldK=F
 E= -2904.94717948299     Delta-E=       -0.000000058480 Rises=F Damp=F
 DIIS: error= 2.29D-06 at cycle   8 NSaved=   8.
 NSaved= 8 IEnMin= 8 EnMin= -2904.94717948299     IErMin= 8 ErrMin= 2.29D-06
 ErrMax= 2.29D-06 EMaxC= 1.00D-01 BMatC= 9.70D-10 BMatP= 8.61D-08
 IDIUse=1 WtCom= 1.00D+00 WtEn= 0.00D+00
 Coeff-Com:  0.238D-04 0.255D-03 0.194D-02 0.367D-02-0.189D-01-0.101D+00
 Coeff-Com: -0.220D-01 0.114D+01
 Coeff:      0.238D-04 0.255D-03 0.194D-02 0.367D-02-0.189D-01-0.101D+00
 Coeff:     -0.220D-01 0.114D+01
 Gap=     0.417 Goal=   None    Shift=    0.000
 RMSDP=2.94D-07 MaxDP=6.18D-06 DE=-5.85D-08 OVMax= 2.50D-05

 Cycle   9  Pass 1  IDiag  1:
 RMSU=  8.00D-08    CP:  1.01D+00  6.59D-01  9.13D-01  8.47D-01  1.23D+00
                    CP:  1.20D+00  8.50D-01  1.32D+00
 FoFJK:  IHMeth= 1 ICntrl=     0 DoSepK=T KAlg= 1 I1Cent= 0 FoldK=F
 E= -2904.94717948527     Delta-E=       -0.000000002278 Rises=F Damp=F
 DIIS: error= 5.03D-07 at cycle   9 NSaved=   9.
 NSaved= 9 IEnMin= 9 EnMin= -2904.94717948527     IErMin= 9 ErrMin= 5.03D-07
 ErrMax= 5.03D-07 EMaxC= 1.00D-01 BMatC= 4.45D-11 BMatP= 9.70D-10
 IDIUse=1 WtCom= 1.00D+00 WtEn= 0.00D+00
 Coeff-Com:  0.475D-09 0.604D-04 0.541D-03 0.131D-02-0.177D-02-0.283D-01
 Coeff-Com: -0.264D-01 0.828D-01 0.972D+00
 Coeff:      0.475D-09 0.604D-04 0.541D-03 0.131D-02-0.177D-02-0.283D-01
 Coeff:     -0.264D-01 0.828D-01 0.972D+00
 Gap=     0.417 Goal=   None    Shift=    0.000
 RMSDP=5.58D-08 MaxDP=1.50D-06 DE=-2.28D-09 OVMax= 4.70D-06

 Cycle  10  Pass 1  IDiag  1:
 RMSU=  2.21D-08    CP:  1.01D+00  6.59D-01  9.13D-01  8.47D-01  1.23D+00
                    CP:  1.20D+00  8.60D-01  1.39D+00  1.17D+00
 FoFJK:  IHMeth= 1 ICntrl=     0 DoSepK=T KAlg= 1 I1Cent= 0 FoldK=F
 E= -2904.94717948537     Delta-E=       -0.000000000107 Rises=F Damp=F
 DIIS: error= 1.75D-07 at cycle  10 NSaved=  10.
 NSaved=10 IEnMin=10 EnMin= -2904.94717948537     IErMin=10 ErrMin= 1.75D-07
 ErrMax= 1.75D-07 EMaxC= 1.00D-01 BMatC= 3.69D-12 BMatP= 4.45D-11
 IDIUse=1 WtCom= 1.00D+00 WtEn= 0.00D+00
 Coeff-Com: -0.188D-05-0.164D-04-0.122D-03-0.222D-03 0.150D-02 0.638D-02
 Coeff-Com: -0.274D-03-0.879D-01 0.617D-01 0.102D+01
 Coeff:     -0.188D-05-0.164D-04-0.122D-03-0.222D-03 0.150D-02 0.638D-02
 Coeff:     -0.274D-03-0.879D-01 0.617D-01 0.102D+01
 Gap=     0.417 Goal=   None    Shift=    0.000
 RMSDP=2.03D-08 MaxDP=8.32D-07 DE=-1.07D-10 OVMax= 2.03D-06

 Cycle  11  Pass 1  IDiag  1:
 RMSU=  6.29D-09    CP:  1.01D+00  6.59D-01  9.13D-01  8.47D-01  1.23D+00
                    CP:  1.20D+00  8.61D-01  1.40D+00  1.27D+00  1.24D+00
 FoFJK:  IHMeth= 1 ICntrl=     0 DoSepK=T KAlg= 1 I1Cent= 0 FoldK=F
 E= -2904.94717948539     Delta-E=       -0.000000000014 Rises=F Damp=F
 DIIS: error= 5.63D-08 at cycle  11 NSaved=  11.
 NSaved=11 IEnMin=11 EnMin= -2904.94717948539     IErMin=11 ErrMin= 5.63D-08
 ErrMax= 5.63D-08 EMaxC= 1.00D-01 BMatC= 3.59D-13 BMatP= 3.69D-12
 IDIUse=1 WtCom= 1.00D+00 WtEn= 0.00D+00
 Coeff-Com:  0.237D-06-0.227D-05-0.223D-04-0.786D-04 0.170D-04 0.159D-02
 Coeff-Com:  0.180D-02 0.109D-03-0.675D-01-0.929D-01 0.116D+01
 Coeff:      0.237D-06-0.227D-05-0.223D-04-0.786D-04 0.170D-04 0.159D-02
 Coeff:      0.180D-02 0.109D-03-0.675D-01-0.929D-01 0.116D+01
 Gap=     0.417 Goal=   None    Shift=    0.000
 RMSDP=7.32D-09 MaxDP=2.21D-07 DE=-1.36D-11 OVMax= 8.65D-07

 SCF Done:  E(RLC-wPBE) =  -2904.94717949     A.U. after   11 cycles
             Convg  =    0.7322D-08             -V/T =  2.0017
 KE= 2.900067147445D+03 PE=-7.239090661520D+03 EE= 1.282468757701D+03
 Leave Link  502 at Tue May 12 09:52:15 2020, MaxMem= 1073741824 cpu:     266.6
 (Enter /home/matheus/.gaussian/g09/l601.exe)
 Copying SCF densities to generalized density rwf, IOpCl= 0 IROHF=0.

 **********************************************************************

            Population analysis using the SCF density.

 **********************************************************************

 Orbital symmetries:
       Occupied  (A) (A) (A) (A) (A) (A) (A) (A) (A) (A) (A) (A)
                 (A) (A) (A) (A) (A) (A) (A) (A) (A) (A) (A) (A)
                 (A) (A) (A)
       Virtual   (A) (A) (A) (A) (A) (A) (A) (A) (A) (A) (A) (A)
                 (A) (A) (A) (A) (A) (A) (A) (A) (A) (A) (A) (A)
                 (A) (A) (A) (A) (A) (A) (A) (A) (A) (A) (A) (A)
                 (A) (A) (A) (A) (A) (A) (A) (A) (A) (A) (A) (A)
                 (A) (A) (A) (A) (A) (A) (A) (A) (A) (A) (A) (A)
                 (A) (A) (A) (A) (A) (A) (A) (A) (A) (A) (A) (A)
                 (A) (A) (A) (A) (A) (A) (A) (A) (A) (A) (A) (A)
                 (A) (A) (A) (A) (A) (A) (A) (A) (A) (A) (A) (A)
                 (A) (A) (A) (A) (A) (A) (A) (A) (A) (A) (A) (A)
                 (A) (A) (A) (A) (A) (A) (A) (A) (A) (A) (A) (A)
                 (A) (A) (A) (A) (A) (A) (A) (A) (A) (A) (A) (A)
                 (A) (A) (A) (A) (A) (A) (A) (A) (A) (A) (A) (A)
                 (A) (A) (A) (A) (A) (A) (A) (A) (A) (A) (A) (A)
                 (A) (A) (A) (A) (A) (A) (A) (A) (A) (A) (A) (A)
                 (A) (A)
 The electronic state is 1-A.
 Alpha  occ. eigenvalues -- -511.14546 -66.69224 -60.35446 -60.35436 -60.35424
 Alpha  occ. eigenvalues --  -19.03115 -19.03038  -9.62497  -7.36954  -7.36921
 Alpha  occ. eigenvalues --   -7.36885  -3.32496  -3.32492  -3.32464  -3.32440
 Alpha  occ. eigenvalues --   -3.32436  -1.25340  -1.07341  -1.03535  -0.71278
 Alpha  occ. eigenvalues --   -0.56915  -0.55601  -0.54420  -0.53430  -0.52529
 Alpha  occ. eigenvalues --   -0.49143  -0.38498
 Alpha virt. eigenvalues --    0.03241   0.04227   0.08212   0.09014   0.10008
 Alpha virt. eigenvalues --    0.11649   0.12760   0.15981   0.17093   0.17976
 Alpha virt. eigenvalues --    0.18300   0.19218   0.20155   0.21699   0.23422
 Alpha virt. eigenvalues --    0.24086   0.24715   0.26835   0.30529   0.33868
 Alpha virt. eigenvalues --    0.35054   0.36887   0.38578   0.38808   0.40113
 Alpha virt. eigenvalues --    0.42849   0.45159   0.48723   0.52629   0.54168
 Alpha virt. eigenvalues --    0.59057   0.61806   0.61976   0.63978   0.65567
 Alpha virt. eigenvalues --    0.69279   0.69857   0.72341   0.73331   0.74601
 Alpha virt. eigenvalues --    0.75531   0.77838   0.80704   0.82939   0.86081
 Alpha virt. eigenvalues --    0.86692   0.87192   0.88982   0.89144   0.91795
 Alpha virt. eigenvalues --    0.94151   0.95703   0.97244   0.99176   1.00573
 Alpha virt. eigenvalues --    1.03739   1.04876   1.06588   1.08951   1.10708
 Alpha virt. eigenvalues --    1.13856   1.19314   1.22409   1.25410   1.27172
 Alpha virt. eigenvalues --    1.31563   1.32375   1.38700   1.39820   1.47267
 Alpha virt. eigenvalues --    1.49262   1.53101   1.54672   1.55595   1.58535
 Alpha virt. eigenvalues --    1.62668   1.66762   1.81676   1.89884   1.94292
 Alpha virt. eigenvalues --    1.97703   2.04460   2.07255   2.11998   2.13275
 Alpha virt. eigenvalues --    2.16445   2.20068   2.21026   2.21749   2.27937
 Alpha virt. eigenvalues --    2.29494   2.31507   2.32697   2.33768   2.35379
 Alpha virt. eigenvalues --    2.37620   2.40080   2.42765   2.47239   2.48070
 Alpha virt. eigenvalues --    2.49766   2.50290   2.56371   2.57835   2.59889
 Alpha virt. eigenvalues --    2.63075   2.66844   2.67747   2.71265   2.72476
 Alpha virt. eigenvalues --    2.73199   2.76970   2.80324   2.88850   2.89203
 Alpha virt. eigenvalues --    2.94333   3.07856   3.12213   3.14273   3.55420
 Alpha virt. eigenvalues --    3.72685   3.85713   3.97849   4.00886   4.08262
 Alpha virt. eigenvalues --    4.14541   4.14826   4.19078   4.20513   4.23657
 Alpha virt. eigenvalues --    4.39848   4.48529   4.55439   4.66828   4.71035
 Alpha virt. eigenvalues --    4.96637   5.00096   5.03397   5.08153   5.10797
 Alpha virt. eigenvalues --    5.14300   5.49558   5.80531   6.00705   6.03364
 Alpha virt. eigenvalues --    6.11063   6.33772   6.36037   6.46243   6.55664
 Alpha virt. eigenvalues --    6.67241   6.68707   6.74901   6.79151   6.80873
 Alpha virt. eigenvalues --    6.83648   6.86356   6.87201   6.90210   7.07903
 Alpha virt. eigenvalues --    7.13997   7.14612   7.24038   7.30674   7.57002
 Alpha virt. eigenvalues --    7.94868   7.99564   8.14986  13.74443  14.62809
          Condensed to atoms (all electrons):
              1          2          3          4          5
     1  O    8.292220  -0.279011   0.164738   0.038556  -0.019064
     2  O   -0.279011   8.282464   0.042525   0.175511  -0.013118
     3  H    0.164738   0.042525   0.631563  -0.022316  -0.009583
     4  H    0.038556   0.175511  -0.022316   0.624573  -0.017272
     5  Kr  -0.019064  -0.013118  -0.009583  -0.017272  36.047249
 Mulliken atomic charges:
              1
     1  O   -0.197438
     2  O   -0.208372
     3  H    0.193073
     4  H    0.200948
     5  Kr   0.011789
 Sum of Mulliken atomic charges =   0.00000
 Mulliken charges with hydrogens summed into heavy atoms:
              1
     1  O   -0.004365
     2  O   -0.007424
     5  Kr   0.011789
 Sum of Mulliken charges with hydrogens summed into heavy atoms =   0.00000
          Condensed to fragments (all electrons):
     1      -0.011789
     2       0.011789
 Electronic spatial extent (au):  <R**2>=            475.8302
 Charge=              0.0000 electrons
 Dipole moment (field-independent basis, Debye):
    X=             -3.6071    Y=             -0.0464    Z=              0.4475  Tot=              3.6351
 Quadrupole moment (field-independent basis, Debye-Ang):
   XX=            -38.7049   YY=            -28.1488   ZZ=            -30.3706
   XY=             -0.1366   XZ=              0.5094   YZ=             -0.6017
 Traceless Quadrupole moment (field-independent basis, Debye-Ang):
   XX=             -6.2968   YY=              4.2593   ZZ=              2.0375
   XY=             -0.1366   XZ=              0.5094   YZ=             -0.6017
 Octapole moment (field-independent basis, Debye-Ang**2):
  XXX=            -45.1988  YYY=             -0.1119  ZZZ=              0.0025  XYY=             -8.1199
  XXY=             -0.3138  XXZ=             -0.0377  XZZ=             -8.8691  YZZ=             -0.2184
  YYZ=              0.6909  XYZ=             -0.6735
 Hexadecapole moment (field-independent basis, Debye-Ang**3):
 XXXX=           -457.2515 YYYY=            -63.5852 ZZZZ=            -29.4241 XXXY=             -0.3018
 XXXZ=             -0.9960 YYYX=             -0.2539 YYYZ=             -0.8223 ZZZX=              0.1950
 ZZZY=             -0.3525 XXYY=            -86.5480 XXZZ=            -76.4718 YYZZ=            -17.3311
 XXYZ=             -0.7032 YYXZ=              0.7958 ZZXY=             -0.2865
 N-N= 1.516075768884D+02 E-N=-7.239090664357D+03  KE= 2.900067147445D+03
 No NMR shielding tensors so no spin-rotation constants.
 Leave Link  601 at Tue May 12 09:52:16 2020, MaxMem= 1073741824 cpu:       0.8
 (Enter /home/matheus/.gaussian/g09/l122.exe)
 Counterpoise: doing DCBS calculation for fragment   1 NewBq=T
 Leave Link  122 at Tue May 12 09:52:16 2020, MaxMem= 1073741824 cpu:       0.0
 (Enter /home/matheus/.gaussian/g09/l301.exe)
 Basis read from rwf:  (5D, 7F)
 No pseudopotential information found on rwf file.
 There are   197 symmetry adapted basis functions of A   symmetry.
 Integral buffers will be    131072 words long.
 Raffenetti 2 integral format.
 Two-electron integral symmetry is turned on.
   197 basis functions,   415 primitive gaussians,   229 cartesian basis functions
     9 alpha electrons        9 beta electrons
       nuclear repulsion energy        36.6636681782 Hartrees.
 IExCor=32609 DFT=T Ex+Corr=LC-wPBE ExCW=0 ScaHFX=  1.000000
 ScaDFX=  1.000000  0.000000  1.000000  1.000000 ScalE2=  1.000000  1.000000
 IRadAn=      5 IRanWt=     -1 IRanGd=            0 ICorTp=0
  HFx wShort=  0.000000 wLong=  0.400000 cFull=  0.000000 cShort=  0.000000 cLong=  1.000000
  DFx wShort=  0.000000 wLong=  0.400000 cFull=  0.000000 cShort=  0.000000 cLong=  1.000000
 NAtoms=    5 NActive=    5 NUniq=    5 SFac= 1.00D+00 NAtFMM=   60 NAOKFM=F Big=F
 No density basis found on file   718.
 Leave Link  301 at Tue May 12 09:52:16 2020, MaxMem= 1073741824 cpu:       0.2
 (Enter /home/matheus/.gaussian/g09/l302.exe)
 NPDir=0 NMtPBC=     1 NCelOv=     1 NCel=       1 NClECP=     1 NCelD=      1
         NCelK=      1 NCelE2=     1 NClLst=     1 CellRange=     0.0.
 One-electron integrals computed using PRISM.
 NBasis=   197 RedAO= T  NBF=   197
 NBsUse=   197 1.00D-06 NBFU=   197
 Precomputing XC quadrature grid using
 IXCGrd= 2 IRadAn=           5 IRanWt=          -1 IRanGd=           0 AccXCQ= 0.00D+00.
 NRdTot=     427 NPtTot=      123512 NUsed=      126579 NTot=      126611
 NSgBfM=   229   229   229   229   229 NAtAll=     5     5.
 Leave Link  302 at Tue May 12 09:52:16 2020, MaxMem= 1073741824 cpu:       1.0
 (Enter /home/matheus/.gaussian/g09/l303.exe)
 DipDrv:  MaxL=1.
 Leave Link  303 at Tue May 12 09:52:16 2020, MaxMem= 1073741824 cpu:       0.2
 (Enter /home/matheus/.gaussian/g09/l401.exe)
 Harris functional with IExCor=32609 diagonalized for initial guess.
 ExpMin= 2.53D-02 ExpMax= 1.17D+07 ExpMxC= 1.33D+04 IAcc=3 IRadAn=         5 AccDes= 0.00D+00
 HarFok:  IExCor=32609 AccDes= 0.00D+00 IRadAn=         5 IDoV= 1
 ScaDFX=  1.000000  1.000000  1.000000  1.000000
 FoFCou: FMM=F IPFlag=           0 FMFlag=      100000 FMFlg1=           0
         NFxFlg=           0 DoJE=T BraDBF=F KetDBF=T FulRan=T
         Omega=  0.000000  0.000000  1.000000  0.000000  0.000000 ICntrl=     500 IOpCl=  0
         NMat0=    1 NMatS0=    1 NMatT0=    0 NMatD0=    1 NMtDS0=    0 NMtDT0=    0
         I1Cent=           4 NGrid=           0.
 Petite list used in FoFCou.
 Harris En= -151.499062313106    
 Initial guess orbital symmetries:
       Occupied  (A) (A) (A) (A) (A) (A) (A) (A) (A)
       Virtual   (A) (A) (A) (A) (A) (A) (A) (A) (A) (A) (A) (A)
                 (A) (A) (A) (A) (A) (A) (A) (A) (A) (A) (A) (A)
                 (A) (A) (A) (A) (A) (A) (A) (A) (A) (A) (A) (A)
                 (A) (A) (A) (A) (A) (A) (A) (A) (A) (A) (A) (A)
                 (A) (A) (A) (A) (A) (A) (A) (A) (A) (A) (A) (A)
                 (A) (A) (A) (A) (A) (A) (A) (A) (A) (A) (A) (A)
                 (A) (A) (A) (A) (A) (A) (A) (A) (A) (A) (A) (A)
                 (A) (A) (A) (A) (A) (A) (A) (A) (A) (A) (A) (A)
                 (A) (A) (A) (A) (A) (A) (A) (A) (A) (A) (A) (A)
                 (A) (A) (A) (A) (A) (A) (A) (A) (A) (A) (A) (A)
                 (A) (A) (A) (A) (A) (A) (A) (A) (A) (A) (A) (A)
                 (A) (A) (A) (A) (A) (A) (A) (A) (A) (A) (A) (A)
                 (A) (A) (A) (A) (A) (A) (A) (A) (A) (A) (A) (A)
                 (A) (A) (A) (A) (A) (A) (A) (A) (A) (A) (A) (A)
                 (A) (A) (A) (A) (A) (A) (A) (A) (A) (A) (A) (A)
                 (A) (A) (A) (A) (A) (A) (A) (A)
 The electronic state of the initial guess is 1-A.
 Leave Link  401 at Tue May 12 09:52:16 2020, MaxMem= 1073741824 cpu:       3.9
 (Enter /home/matheus/.gaussian/g09/l502.exe)
 Closed shell SCF:
 Requested convergence on RMS density matrix=1.00D-08 within 128 cycles.
 Requested convergence on MAX density matrix=1.00D-06.
 Requested convergence on             energy=1.00D-06.
 No special actions if energy rises.
 Using DIIS extrapolation, IDIIS=  1040.
 Integral symmetry usage will be decided dynamically.
       126521 words used for storage of precomputed grid.
 IEnd=      305468 IEndB=      305468 NGot=  1073741824 MDV=  1073505667
 LenX=  1073505667 LenY=  1073452785
 Fock matrices will be formed incrementally for  20 cycles.

 Cycle   1  Pass 1  IDiag  1:
 FoFJK:  IHMeth= 1 ICntrl=     0 DoSepK=T KAlg= 1 I1Cent= 0 FoldK=F
 FoFCou: FMM=F IPFlag=           0 FMFlag=      100000 FMFlg1=           0
         NFxFlg=           0 DoJE=T BraDBF=F KetDBF=F FulRan=T
         Omega=  0.000000  0.000000  1.000000  0.000000  0.000000 ICntrl=     500 IOpCl=  0
         NMat0=    1 NMatS0=    1 NMatT0=    0 NMatD0=    1 NMtDS0=    0 NMtDT0=    0
         I1Cent=           0 NGrid=           0.
 Symmetry not used in FoFCou.
 E= -151.487771307686    
 DIIS: error= 1.35D-02 at cycle   1 NSaved=   1.
 NSaved= 1 IEnMin= 1 EnMin= -151.487771307686     IErMin= 1 ErrMin= 1.35D-02
 ErrMax= 1.35D-02 EMaxC= 1.00D-01 BMatC= 4.23D-02 BMatP= 4.23D-02
 IDIUse=3 WtCom= 8.65D-01 WtEn= 1.35D-01
 Coeff-Com:  0.100D+01
 Coeff-En:   0.100D+01
 Coeff:      0.100D+01
 Gap=     0.481 Goal=   None    Shift=    0.000
 GapD=    0.481 DampG=2.000 DampE=0.500 DampFc=1.0000 IDamp=-1.
 RMSDP=9.03D-04 MaxDP=2.19D-02              OVMax= 6.58D-02

 Cycle   2  Pass 1  IDiag  1:
 RMSU=  6.37D-04    CP:  9.94D-01
 FoFJK:  IHMeth= 1 ICntrl=     0 DoSepK=T KAlg= 1 I1Cent= 0 FoldK=F
 E= -151.502406619785     Delta-E=       -0.014635312099 Rises=F Damp=F
 DIIS: error= 1.00D-02 at cycle   2 NSaved=   2.
 NSaved= 2 IEnMin= 2 EnMin= -151.502406619785     IErMin= 2 ErrMin= 1.00D-02
 ErrMax= 1.00D-02 EMaxC= 1.00D-01 BMatC= 2.53D-02 BMatP= 4.23D-02
 IDIUse=3 WtCom= 9.00D-01 WtEn= 1.00D-01
 Coeff-Com:  0.429D+00 0.571D+00
 Coeff-En:   0.278D+00 0.722D+00
 Coeff:      0.414D+00 0.586D+00
 Gap=     0.413 Goal=   None    Shift=    0.000
 RMSDP=5.18D-04 MaxDP=2.32D-02 DE=-1.46D-02 OVMax= 2.98D-02

 Cycle   3  Pass 1  IDiag  1:
 RMSU=  2.29D-04    CP:  9.89D-01  5.54D-01
 FoFJK:  IHMeth= 1 ICntrl=     0 DoSepK=T KAlg= 1 I1Cent= 0 FoldK=F
 E= -151.517386673907     Delta-E=       -0.014980054123 Rises=F Damp=F
 DIIS: error= 1.48D-03 at cycle   3 NSaved=   3.
 NSaved= 3 IEnMin= 3 EnMin= -151.517386673907     IErMin= 3 ErrMin= 1.48D-03
 ErrMax= 1.48D-03 EMaxC= 1.00D-01 BMatC= 4.27D-04 BMatP= 2.53D-02
 IDIUse=3 WtCom= 9.85D-01 WtEn= 1.48D-02
 Coeff-Com:  0.671D-01 0.147D+00 0.786D+00
 Coeff-En:   0.000D+00 0.000D+00 0.100D+01
 Coeff:      0.661D-01 0.145D+00 0.789D+00
 Gap=     0.408 Goal=   None    Shift=    0.000
 RMSDP=5.65D-05 MaxDP=1.46D-03 DE=-1.50D-02 OVMax= 4.14D-03

 Cycle   4  Pass 1  IDiag  1:
 RMSU=  2.86D-05    CP:  9.88D-01  5.96D-01  1.01D+00
 FoFJK:  IHMeth= 1 ICntrl=     0 DoSepK=T KAlg= 1 I1Cent= 0 FoldK=F
 E= -151.517646116357     Delta-E=       -0.000259442450 Rises=F Damp=F
 DIIS: error= 2.63D-04 at cycle   4 NSaved=   4.
 NSaved= 4 IEnMin= 4 EnMin= -151.517646116357     IErMin= 4 ErrMin= 2.63D-04
 ErrMax= 2.63D-04 EMaxC= 1.00D-01 BMatC= 1.42D-05 BMatP= 4.27D-04
 IDIUse=3 WtCom= 9.97D-01 WtEn= 2.63D-03
 Coeff-Com: -0.573D-02-0.971D-02 0.113D+00 0.903D+00
 Coeff-En:   0.000D+00 0.000D+00 0.000D+00 0.100D+01
 Coeff:     -0.571D-02-0.969D-02 0.113D+00 0.903D+00
 Gap=     0.410 Goal=   None    Shift=    0.000
 RMSDP=1.20D-05 MaxDP=5.78D-04 DE=-2.59D-04 OVMax= 7.80D-04

 Cycle   5  Pass 1  IDiag  1:
 RMSU=  6.04D-06    CP:  9.88D-01  5.92D-01  1.03D+00  9.96D-01
 FoFJK:  IHMeth= 1 ICntrl=     0 DoSepK=T KAlg= 1 I1Cent= 0 FoldK=F
 E= -151.517655791173     Delta-E=       -0.000009674816 Rises=F Damp=F
 DIIS: error= 3.70D-05 at cycle   5 NSaved=   5.
 NSaved= 5 IEnMin= 5 EnMin= -151.517655791173     IErMin= 5 ErrMin= 3.70D-05
 ErrMax= 3.70D-05 EMaxC= 1.00D-01 BMatC= 1.02D-07 BMatP= 1.42D-05
 IDIUse=1 WtCom= 1.00D+00 WtEn= 0.00D+00
 Coeff-Com: -0.684D-03-0.169D-02-0.267D-01-0.846D-01 0.111D+01
 Coeff:     -0.684D-03-0.169D-02-0.267D-01-0.846D-01 0.111D+01
 Gap=     0.410 Goal=   None    Shift=    0.000
 RMSDP=2.85D-06 MaxDP=8.99D-05 DE=-9.67D-06 OVMax= 2.19D-04

 Cycle   6  Pass 1  IDiag  1:
 RMSU=  8.13D-07    CP:  9.88D-01  5.93D-01  1.03D+00  1.02D+00  1.27D+00
 FoFJK:  IHMeth= 1 ICntrl=     0 DoSepK=T KAlg= 1 I1Cent= 0 FoldK=F
 E= -151.517656011685     Delta-E=       -0.000000220512 Rises=F Damp=F
 DIIS: error= 6.59D-06 at cycle   6 NSaved=   6.
 NSaved= 6 IEnMin= 6 EnMin= -151.517656011685     IErMin= 6 ErrMin= 6.59D-06
 ErrMax= 6.59D-06 EMaxC= 1.00D-01 BMatC= 2.83D-09 BMatP= 1.02D-07
 IDIUse=1 WtCom= 1.00D+00 WtEn= 0.00D+00
 Coeff-Com:  0.114D-03 0.253D-03 0.798D-04-0.726D-02-0.602D-01 0.107D+01
 Coeff:      0.114D-03 0.253D-03 0.798D-04-0.726D-02-0.602D-01 0.107D+01
 Gap=     0.410 Goal=   None    Shift=    0.000
 RMSDP=4.44D-07 MaxDP=1.59D-05 DE=-2.21D-07 OVMax= 3.84D-05

 Cycle   7  Pass 1  IDiag  1:
 RMSU=  1.51D-07    CP:  9.88D-01  5.93D-01  1.03D+00  1.02D+00  1.30D+00
                    CP:  1.21D+00
 FoFJK:  IHMeth= 1 ICntrl=     0 DoSepK=T KAlg= 1 I1Cent= 0 FoldK=F
 E= -151.517656013924     Delta-E=       -0.000000002239 Rises=F Damp=F
 DIIS: error= 1.27D-06 at cycle   7 NSaved=   7.
 NSaved= 7 IEnMin= 7 EnMin= -151.517656013924     IErMin= 7 ErrMin= 1.27D-06
 ErrMax= 1.27D-06 EMaxC= 1.00D-01 BMatC= 3.33D-10 BMatP= 2.83D-09
 IDIUse=1 WtCom= 1.00D+00 WtEn= 0.00D+00
 Coeff-Com:  0.384D-04 0.913D-04 0.103D-02 0.283D-02-0.607D-01 0.125D+00
 Coeff-Com:  0.931D+00
 Coeff:      0.384D-04 0.913D-04 0.103D-02 0.283D-02-0.607D-01 0.125D+00
 Coeff:      0.931D+00
 Gap=     0.410 Goal=   None    Shift=    0.000
 RMSDP=1.12D-07 MaxDP=3.63D-06 DE=-2.24D-09 OVMax= 1.63D-05

 Cycle   8  Pass 1  IDiag  1:
 RMSU=  5.06D-08    CP:  9.88D-01  5.93D-01  1.03D+00  1.02D+00  1.30D+00
                    CP:  1.27D+00  1.17D+00
 FoFJK:  IHMeth= 1 ICntrl=     0 DoSepK=T KAlg= 1 I1Cent= 0 FoldK=F
 E= -151.517656014582     Delta-E=       -0.000000000658 Rises=F Damp=F
 DIIS: error= 7.25D-07 at cycle   8 NSaved=   8.
 NSaved= 8 IEnMin= 8 EnMin= -151.517656014582     IErMin= 8 ErrMin= 7.25D-07
 ErrMax= 7.25D-07 EMaxC= 1.00D-01 BMatC= 1.22D-10 BMatP= 3.33D-10
 IDIUse=1 WtCom= 1.00D+00 WtEn= 0.00D+00
 Coeff-Com:  0.919D-05 0.201D-04 0.415D-03 0.176D-02-0.225D-01-0.143D-01
 Coeff-Com:  0.406D+00 0.629D+00
 Coeff:      0.919D-05 0.201D-04 0.415D-03 0.176D-02-0.225D-01-0.143D-01
 Coeff:      0.406D+00 0.629D+00
 Gap=     0.410 Goal=   None    Shift=    0.000
 RMSDP=3.63D-08 MaxDP=1.31D-06 DE=-6.58D-10 OVMax= 5.78D-06

 Cycle   9  Pass 1  IDiag  1:
 RMSU=  2.25D-08    CP:  9.88D-01  5.93D-01  1.03D+00  1.02D+00  1.30D+00
                    CP:  1.27D+00  1.25D+00  9.63D-01
 FoFJK:  IHMeth= 1 ICntrl=     0 DoSepK=T KAlg= 1 I1Cent= 0 FoldK=F
 E= -151.517656014712     Delta-E=       -0.000000000130 Rises=F Damp=F
 DIIS: error= 3.28D-07 at cycle   9 NSaved=   9.
 NSaved= 9 IEnMin= 9 EnMin= -151.517656014712     IErMin= 9 ErrMin= 3.28D-07
 ErrMax= 3.28D-07 EMaxC= 1.00D-01 BMatC= 2.08D-11 BMatP= 1.22D-10
 IDIUse=1 WtCom= 1.00D+00 WtEn= 0.00D+00
 Coeff-Com: -0.954D-05-0.261D-04-0.216D-03-0.271D-03 0.128D-01-0.469D-01
 Coeff-Com: -0.176D+00 0.230D+00 0.981D+00
 Coeff:     -0.954D-05-0.261D-04-0.216D-03-0.271D-03 0.128D-01-0.469D-01
 Coeff:     -0.176D+00 0.230D+00 0.981D+00
 Gap=     0.410 Goal=   None    Shift=    0.000
 RMSDP=2.80D-08 MaxDP=9.00D-07 DE=-1.30D-10 OVMax= 6.14D-06

 Cycle  10  Pass 1  IDiag  1:
 RMSU=  1.00D-08    CP:  9.88D-01  5.93D-01  1.03D+00  1.02D+00  1.30D+00
                    CP:  1.27D+00  1.29D+00  1.23D+00  1.24D+00
 FoFJK:  IHMeth= 1 ICntrl=     0 DoSepK=T KAlg= 1 I1Cent= 0 FoldK=F
 E= -151.517656014759     Delta-E=       -0.000000000047 Rises=F Damp=F
 DIIS: error= 1.08D-07 at cycle  10 NSaved=  10.
 NSaved=10 IEnMin=10 EnMin= -151.517656014759     IErMin=10 ErrMin= 1.08D-07
 ErrMax= 1.08D-07 EMaxC= 1.00D-01 BMatC= 6.10D-13 BMatP= 2.08D-11
 IDIUse=1 WtCom= 1.00D+00 WtEn= 0.00D+00
 Coeff-Com:  0.234D-05 0.687D-05 0.368D-04-0.647D-04-0.222D-02 0.164D-01
 Coeff-Com:  0.215D-01-0.125D+00-0.321D+00 0.141D+01
 Coeff:      0.234D-05 0.687D-05 0.368D-04-0.647D-04-0.222D-02 0.164D-01
 Coeff:      0.215D-01-0.125D+00-0.321D+00 0.141D+01
 Gap=     0.410 Goal=   None    Shift=    0.000
 RMSDP=1.03D-08 MaxDP=3.05D-07 DE=-4.67D-11 OVMax= 2.36D-06

 Cycle  11  Pass 1  IDiag  1:
 RMSU=  2.13D-09    CP:  9.88D-01  5.93D-01  1.03D+00  1.02D+00  1.30D+00
                    CP:  1.27D+00  1.30D+00  1.28D+00  1.41D+00  1.43D+00
 FoFJK:  IHMeth= 1 ICntrl=     0 DoSepK=T KAlg= 1 I1Cent= 0 FoldK=F
 E= -151.517656014687     Delta-E=        0.000000000072 Rises=F Damp=F
 DIIS: error= 1.35D-08 at cycle  11 NSaved=  11.
 NSaved=11 IEnMin=10 EnMin= -151.517656014759     IErMin=11 ErrMin= 1.35D-08
 ErrMax= 1.35D-08 EMaxC= 1.00D-01 BMatC= 1.61D-14 BMatP= 6.10D-13
 IDIUse=1 WtCom= 1.00D+00 WtEn= 0.00D+00
 Coeff-Com:  0.129D-06 0.679D-06 0.581D-05 0.156D-04-0.306D-03 0.412D-04
 Coeff-Com:  0.687D-02 0.655D-02-0.405D-02-0.155D+00 0.115D+01
 Coeff:      0.129D-06 0.679D-06 0.581D-05 0.156D-04-0.306D-03 0.412D-04
 Coeff:      0.687D-02 0.655D-02-0.405D-02-0.155D+00 0.115D+01
 Gap=     0.410 Goal=   None    Shift=    0.000
 RMSDP=1.37D-09 MaxDP=4.38D-08 DE= 7.18D-11 OVMax= 2.13D-07

 SCF Done:  E(RLC-wPBE) =  -151.517656015     A.U. after   11 cycles
             Convg  =    0.1372D-08             -V/T =  2.0066
 KE= 1.505296231201D+02 PE=-4.315772288983D+02 EE= 9.286628158523D+01
 Leave Link  502 at Tue May 12 09:52:48 2020, MaxMem= 1073741824 cpu:     252.2
 (Enter /home/matheus/.gaussian/g09/l601.exe)
 Copying SCF densities to generalized density rwf, IOpCl= 0 IROHF=0.

 **********************************************************************

            Population analysis using the SCF density.

 **********************************************************************

 Orbital symmetries:
       Occupied  (A) (A) (A) (A) (A) (A) (A) (A) (A)
       Virtual   (A) (A) (A) (A) (A) (A) (A) (A) (A) (A) (A) (A)
                 (A) (A) (A) (A) (A) (A) (A) (A) (A) (A) (A) (A)
                 (A) (A) (A) (A) (A) (A) (A) (A) (A) (A) (A) (A)
                 (A) (A) (A) (A) (A) (A) (A) (A) (A) (A) (A) (A)
                 (A) (A) (A) (A) (A) (A) (A) (A) (A) (A) (A) (A)
                 (A) (A) (A) (A) (A) (A) (A) (A) (A) (A) (A) (A)
                 (A) (A) (A) (A) (A) (A) (A) (A) (A) (A) (A) (A)
                 (A) (A) (A) (A) (A) (A) (A) (A) (A) (A) (A) (A)
                 (A) (A) (A) (A) (A) (A) (A) (A) (A) (A) (A) (A)
                 (A) (A) (A) (A) (A) (A) (A) (A) (A) (A) (A) (A)
                 (A) (A) (A) (A) (A) (A) (A) (A) (A) (A) (A) (A)
                 (A) (A) (A) (A) (A) (A) (A) (A) (A) (A) (A) (A)
                 (A) (A) (A) (A) (A) (A) (A) (A) (A) (A) (A) (A)
                 (A) (A) (A) (A) (A) (A) (A) (A) (A) (A) (A) (A)
                 (A) (A) (A) (A) (A) (A) (A) (A) (A) (A) (A) (A)
                 (A) (A) (A) (A) (A) (A) (A) (A)
 The electronic state is 1-A.
 Alpha  occ. eigenvalues --  -19.03906 -19.03904  -1.25973  -1.04195  -0.71420
 Alpha  occ. eigenvalues --   -0.56212  -0.55165  -0.50324  -0.39169
 Alpha virt. eigenvalues --    0.01821   0.03711   0.07170   0.07685   0.09197
 Alpha virt. eigenvalues --    0.09953   0.10303   0.16353   0.17049   0.17823
 Alpha virt. eigenvalues --    0.18683   0.19392   0.20146   0.21564   0.25946
 Alpha virt. eigenvalues --    0.27085   0.28421   0.28939   0.32001   0.34949
 Alpha virt. eigenvalues --    0.35499   0.35869   0.37709   0.41053   0.42226
 Alpha virt. eigenvalues --    0.44562   0.44966   0.46801   0.48903   0.53097
 Alpha virt. eigenvalues --    0.55011   0.58123   0.58751   0.63042   0.66383
 Alpha virt. eigenvalues --    0.69716   0.71960   0.76756   0.77519   0.80515
 Alpha virt. eigenvalues --    0.82857   0.83937   0.86791   0.88166   0.89849
 Alpha virt. eigenvalues --    0.93881   0.96660   0.96878   0.98904   1.00438
 Alpha virt. eigenvalues --    1.01936   1.03893   1.06552   1.09264   1.10574
 Alpha virt. eigenvalues --    1.11955   1.17300   1.21281   1.23499   1.25761
 Alpha virt. eigenvalues --    1.26886   1.29259   1.31412   1.32141   1.33777
 Alpha virt. eigenvalues --    1.34150   1.37539   1.38055   1.44079   1.45981
 Alpha virt. eigenvalues --    1.49919   1.50720   1.53821   1.55734   1.59681
 Alpha virt. eigenvalues --    1.62917   1.64105   1.69880   1.73161   1.78792
 Alpha virt. eigenvalues --    1.83961   1.84402   1.94190   1.97000   2.02227
 Alpha virt. eigenvalues --    2.06340   2.14370   2.17561   2.21791   2.24840
 Alpha virt. eigenvalues --    2.28009   2.33214   2.33812   2.33991   2.41894
 Alpha virt. eigenvalues --    2.47394   2.53014   2.55777   2.65156   2.67184
 Alpha virt. eigenvalues --    2.69509   2.71552   2.85522   2.87308   2.91490
 Alpha virt. eigenvalues --    3.05616   3.10767   3.12266   3.23909   3.33704
 Alpha virt. eigenvalues --    3.38702   3.55005   3.62643   3.67956   3.77468
 Alpha virt. eigenvalues --    3.78257   3.79181   3.81402   3.82360   3.85782
 Alpha virt. eigenvalues --    3.89928   3.91153   3.93226   3.94302   3.96938
 Alpha virt. eigenvalues --    3.99297   4.02100   4.07868   4.11468   4.13711
 Alpha virt. eigenvalues --    4.18077   4.20203   4.23479   4.25764   4.28980
 Alpha virt. eigenvalues --    4.48325   4.56344   4.57922   4.67111   4.96474
 Alpha virt. eigenvalues --    4.99985   5.03637   5.08254   5.10689   5.14162
 Alpha virt. eigenvalues --    5.49461   5.80044   6.00054   6.02951   6.10138
 Alpha virt. eigenvalues --    6.33273   6.35493   6.45769   6.55091   6.66694
 Alpha virt. eigenvalues --    6.67941   6.74082   6.78601   6.80290   6.83031
 Alpha virt. eigenvalues --    6.85747   6.86625   6.89608   7.07466   7.13312
 Alpha virt. eigenvalues --    7.14258   7.23375   7.29935   7.56470   7.94097
 Alpha virt. eigenvalues --    7.98885   8.14377  11.07702  13.73554  14.61963
 Alpha virt. eigenvalues --   14.80993  14.93504  15.09772  29.01532  29.02218
 Alpha virt. eigenvalues --   29.06058  29.19935  29.23171  49.22575 148.29207
 Alpha virt. eigenvalues --  148.48065 148.71687 752.96323
          Condensed to atoms (all electrons):
              1          2          3          4          5
     1  O    8.257261  -0.271643   0.168265   0.034582   0.002856
     2  O   -0.271643   8.243489   0.039277   0.178387   0.001272
     3  H    0.168265   0.039277   0.619158  -0.014968  -0.002316
     4  H    0.034582   0.178387  -0.014968   0.614900  -0.004115
     5  Kr   0.002856   0.001272  -0.002316  -0.004115   0.002002
 Mulliken atomic charges:
              1
     1  O   -0.191320
     2  O   -0.190781
     3  H    0.190585
     4  H    0.191215
     5  Kr   0.000302
 Sum of Mulliken atomic charges =   0.00000
 Mulliken charges with hydrogens summed into heavy atoms:
              1
     1  O   -0.000735
     2  O    0.000433
     5  Kr   0.000302
 Sum of Mulliken charges with hydrogens summed into heavy atoms =   0.00000
          Condensed to fragments (all electrons):
     1      -0.000302
     2       0.000302
 Electronic spatial extent (au):  <R**2>=            316.7628
 Charge=              0.0000 electrons
 Dipole moment (field-independent basis, Debye):
    X=             -3.0454    Y=             -0.0191    Z=              0.5479  Tot=              3.0943
 Quadrupole moment (field-independent basis, Debye-Ang):
   XX=            -21.4444   YY=            -10.5771   ZZ=            -12.9487
   XY=             -0.1461   XZ=              0.4380   YZ=             -0.6232
 Traceless Quadrupole moment (field-independent basis, Debye-Ang):
   XX=             -6.4544   YY=              4.4130   ZZ=              2.0414
   XY=             -0.1461   XZ=              0.4380   YZ=             -0.6232
 Octapole moment (field-independent basis, Debye-Ang**2):
  XXX=            -93.3109  YYY=             -0.1128  ZZZ=              0.0288  XYY=            -24.6353
  XXY=             -0.2728  XXZ=              0.0089  XZZ=            -25.4841  YZZ=             -0.2225
  YYZ=              0.7087  XYZ=             -0.6729
 Hexadecapole moment (field-independent basis, Debye-Ang**3):
 XXXX=           -340.2408 YYYY=            -45.5220 ZZZZ=            -11.6968 XXXY=             -0.2505
 XXXZ=             -1.0857 YYYX=             -0.2555 YYYZ=             -0.8547 ZZZX=              0.1980
 ZZZY=             -0.3766 XXYY=            -64.0463 XXZZ=            -54.2590 YYZZ=            -11.3542
 XXYZ=             -0.7021 YYXZ=              0.7867 ZZXY=             -0.2793
 N-N= 3.666366817825D+01 E-N=-4.315772286294D+02  KE= 1.505296231201D+02
 No NMR shielding tensors so no spin-rotation constants.
 Leave Link  601 at Tue May 12 09:52:48 2020, MaxMem= 1073741824 cpu:       0.8
 (Enter /home/matheus/.gaussian/g09/l122.exe)
 Counterpoise: doing DCBS calculation for fragment   2 NewBq=T
 Leave Link  122 at Tue May 12 09:52:48 2020, MaxMem= 1073741824 cpu:       0.0
 (Enter /home/matheus/.gaussian/g09/l301.exe)
 Basis read from rwf:  (5D, 7F)
 No pseudopotential information found on rwf file.
 There are   197 symmetry adapted basis functions of A   symmetry.
 Integral buffers will be    131072 words long.
 Raffenetti 2 integral format.
 Two-electron integral symmetry is turned on.
   197 basis functions,   415 primitive gaussians,   229 cartesian basis functions
    18 alpha electrons       18 beta electrons
       nuclear repulsion energy         0.0000000000 Hartrees.
 IExCor=32609 DFT=T Ex+Corr=LC-wPBE ExCW=0 ScaHFX=  1.000000
 ScaDFX=  1.000000  0.000000  1.000000  1.000000 ScalE2=  1.000000  1.000000
 IRadAn=      5 IRanWt=     -1 IRanGd=            0 ICorTp=0
  HFx wShort=  0.000000 wLong=  0.400000 cFull=  0.000000 cShort=  0.000000 cLong=  1.000000
  DFx wShort=  0.000000 wLong=  0.400000 cFull=  0.000000 cShort=  0.000000 cLong=  1.000000
 NAtoms=    5 NActive=    5 NUniq=    5 SFac= 1.00D+00 NAtFMM=   60 NAOKFM=F Big=F
 No density basis found on file   718.
 Leave Link  301 at Tue May 12 09:52:48 2020, MaxMem= 1073741824 cpu:       0.2
 (Enter /home/matheus/.gaussian/g09/l302.exe)
 NPDir=0 NMtPBC=     1 NCelOv=     1 NCel=       1 NClECP=     1 NCelD=      1
         NCelK=      1 NCelE2=     1 NClLst=     1 CellRange=     0.0.
 One-electron integrals computed using PRISM.
 NBasis=   197 RedAO= T  NBF=   197
 NBsUse=   197 1.00D-06 NBFU=   197
 Precomputing XC quadrature grid using
 IXCGrd= 2 IRadAn=           5 IRanWt=          -1 IRanGd=           0 AccXCQ= 0.00D+00.
 NRdTot=     427 NPtTot=      123512 NUsed=      126579 NTot=      126611
 NSgBfM=   229   229   229   229   229 NAtAll=     5     5.
 Leave Link  302 at Tue May 12 09:52:48 2020, MaxMem= 1073741824 cpu:       1.0
 (Enter /home/matheus/.gaussian/g09/l303.exe)
 DipDrv:  MaxL=1.
 Leave Link  303 at Tue May 12 09:52:48 2020, MaxMem= 1073741824 cpu:       0.2
 (Enter /home/matheus/.gaussian/g09/l401.exe)
 Harris functional with IExCor=32609 diagonalized for initial guess.
 ExpMin= 2.53D-02 ExpMax= 1.17D+07 ExpMxC= 1.33D+04 IAcc=3 IRadAn=         5 AccDes= 0.00D+00
 HarFok:  IExCor=32609 AccDes= 0.00D+00 IRadAn=         5 IDoV= 1
 ScaDFX=  1.000000  1.000000  1.000000  1.000000
 FoFCou: FMM=F IPFlag=           0 FMFlag=      100000 FMFlg1=           0
         NFxFlg=           0 DoJE=T BraDBF=F KetDBF=T FulRan=T
         Omega=  0.000000  0.000000  1.000000  0.000000  0.000000 ICntrl=     500 IOpCl=  0
         NMat0=    1 NMatS0=    1 NMatT0=    0 NMatD0=    1 NMtDS0=    0 NMtDT0=    0
         I1Cent=           4 NGrid=           0.
 Petite list used in FoFCou.
 Harris En= -2753.24668166174    
 Initial guess orbital symmetries:
       Occupied  (A) (A) (A) (A) (A) (A) (A) (A) (A) (A) (A) (A)
                 (A) (A) (A) (A) (A) (A)
       Virtual   (A) (A) (A) (A) (A) (A) (A) (A) (A) (A) (A) (A)
                 (A) (A) (A) (A) (A) (A) (A) (A) (A) (A) (A) (A)
                 (A) (A) (A) (A) (A) (A) (A) (A) (A) (A) (A) (A)
                 (A) (A) (A) (A) (A) (A) (A) (A) (A) (A) (A) (A)
                 (A) (A) (A) (A) (A) (A) (A) (A) (A) (A) (A) (A)
                 (A) (A) (A) (A) (A) (A) (A) (A) (A) (A) (A) (A)
                 (A) (A) (A) (A) (A) (A) (A) (A) (A) (A) (A) (A)
                 (A) (A) (A) (A) (A) (A) (A) (A) (A) (A) (A) (A)
                 (A) (A) (A) (A) (A) (A) (A) (A) (A) (A) (A) (A)
                 (A) (A) (A) (A) (A) (A) (A) (A) (A) (A) (A) (A)
                 (A) (A) (A) (A) (A) (A) (A) (A) (A) (A) (A) (A)
                 (A) (A) (A) (A) (A) (A) (A) (A) (A) (A) (A) (A)
                 (A) (A) (A) (A) (A) (A) (A) (A) (A) (A) (A) (A)
                 (A) (A) (A) (A) (A) (A) (A) (A) (A) (A) (A) (A)
                 (A) (A) (A) (A) (A) (A) (A) (A) (A) (A) (A)
 The electronic state of the initial guess is 1-A.
 Leave Link  401 at Tue May 12 09:52:49 2020, MaxMem= 1073741824 cpu:       3.8
 (Enter /home/matheus/.gaussian/g09/l502.exe)
 Closed shell SCF:
 Requested convergence on RMS density matrix=1.00D-08 within 128 cycles.
 Requested convergence on MAX density matrix=1.00D-06.
 Requested convergence on             energy=1.00D-06.
 No special actions if energy rises.
 Using DIIS extrapolation, IDIIS=  1040.
 Integral symmetry usage will be decided dynamically.
       126521 words used for storage of precomputed grid.
 IEnd=      305468 IEndB=      305468 NGot=  1073741824 MDV=  1073505667
 LenX=  1073505667 LenY=  1073452785
 Fock matrices will be formed incrementally for  20 cycles.

 Cycle   1  Pass 1  IDiag  1:
 FoFJK:  IHMeth= 1 ICntrl=     0 DoSepK=T KAlg= 1 I1Cent= 0 FoldK=F
 FoFCou: FMM=F IPFlag=           0 FMFlag=      100000 FMFlg1=           0
         NFxFlg=           0 DoJE=T BraDBF=F KetDBF=F FulRan=T
         Omega=  0.000000  0.000000  1.000000  0.000000  0.000000 ICntrl=     500 IOpCl=  0
         NMat0=    1 NMatS0=    1 NMatT0=    0 NMatD0=    1 NMtDS0=    0 NMtDT0=    0
         I1Cent=           0 NGrid=           0.
 Symmetry not used in FoFCou.
 E= -2753.38957673185    
 DIIS: error= 3.08D-02 at cycle   1 NSaved=   1.
 NSaved= 1 IEnMin= 1 EnMin= -2753.38957673185     IErMin= 1 ErrMin= 3.08D-02
 ErrMax= 3.08D-02 EMaxC= 1.00D-01 BMatC= 2.24D-01 BMatP= 2.24D-01
 IDIUse=3 WtCom= 6.92D-01 WtEn= 3.08D-01
 Coeff-Com:  0.100D+01
 Coeff-En:   0.100D+01
 Coeff:      0.100D+01
 Gap=     0.609 Goal=   None    Shift=    0.000
 GapD=    0.609 DampG=2.000 DampE=0.500 DampFc=1.0000 IDamp=-1.
 RMSDP=2.19D-03 MaxDP=1.52D-01              OVMax= 5.10D-02

 Cycle   2  Pass 1  IDiag  1:
 RMSU=  1.51D-03    CP:  1.02D+00
 FoFJK:  IHMeth= 1 ICntrl=     0 DoSepK=T KAlg= 1 I1Cent= 0 FoldK=F
 E= -2753.42030013126     Delta-E=       -0.030723399407 Rises=F Damp=F
 DIIS: error= 1.16D-02 at cycle   2 NSaved=   2.
 NSaved= 2 IEnMin= 2 EnMin= -2753.42030013126     IErMin= 2 ErrMin= 1.16D-02
 ErrMax= 1.16D-02 EMaxC= 1.00D-01 BMatC= 5.58D-02 BMatP= 2.24D-01
 IDIUse=3 WtCom= 8.84D-01 WtEn= 1.16D-01
 Coeff-Com:  0.328D+00 0.672D+00
 Coeff-En:   0.131D+00 0.869D+00
 Coeff:      0.305D+00 0.695D+00
 Gap=     0.525 Goal=   None    Shift=    0.000
 RMSDP=8.21D-04 MaxDP=5.30D-02 DE=-3.07D-02 OVMax= 2.09D-02

 Cycle   3  Pass 1  IDiag  1:
 RMSU=  1.60D-04    CP:  1.01D+00  6.41D-01
 FoFJK:  IHMeth= 1 ICntrl=     0 DoSepK=T KAlg= 1 I1Cent= 0 FoldK=F
 E= -2753.43560280000     Delta-E=       -0.015302668742 Rises=F Damp=F
 DIIS: error= 1.16D-03 at cycle   3 NSaved=   3.
 NSaved= 3 IEnMin= 3 EnMin= -2753.43560280000     IErMin= 3 ErrMin= 1.16D-03
 ErrMax= 1.16D-03 EMaxC= 1.00D-01 BMatC= 6.09D-04 BMatP= 5.58D-02
 IDIUse=3 WtCom= 9.88D-01 WtEn= 1.16D-02
 Coeff-Com: -0.179D-03 0.938D-01 0.906D+00
 Coeff-En:   0.000D+00 0.000D+00 0.100D+01
 Coeff:     -0.177D-03 0.928D-01 0.907D+00
 Gap=     0.533 Goal=   None    Shift=    0.000
 RMSDP=7.72D-05 MaxDP=4.53D-03 DE=-1.53D-02 OVMax= 2.68D-03

 Cycle   4  Pass 1  IDiag  1:
 RMSU=  1.81D-05    CP:  1.01D+00  6.74D-01  9.88D-01
 FoFJK:  IHMeth= 1 ICntrl=     0 DoSepK=T KAlg= 1 I1Cent= 0 FoldK=F
 E= -2753.43578599311     Delta-E=       -0.000183193107 Rises=F Damp=F
 DIIS: error= 3.56D-05 at cycle   4 NSaved=   4.
 NSaved= 4 IEnMin= 4 EnMin= -2753.43578599311     IErMin= 4 ErrMin= 3.56D-05
 ErrMax= 3.56D-05 EMaxC= 1.00D-01 BMatC= 4.35D-07 BMatP= 6.09D-04
 IDIUse=1 WtCom= 1.00D+00 WtEn= 0.00D+00
 Coeff-Com: -0.125D-02-0.161D-01-0.113D+00 0.113D+01
 Coeff:     -0.125D-02-0.161D-01-0.113D+00 0.113D+01
 Gap=     0.532 Goal=   None    Shift=    0.000
 RMSDP=6.30D-06 MaxDP=2.48D-04 DE=-1.83D-04 OVMax= 3.91D-04

 Cycle   5  Pass 1  IDiag  1:
 RMSU=  2.26D-06    CP:  1.01D+00  6.74D-01  1.01D+00  1.13D+00
 FoFJK:  IHMeth= 1 ICntrl=     0 DoSepK=T KAlg= 1 I1Cent= 0 FoldK=F
 E= -2753.43578650969     Delta-E=       -0.000000516578 Rises=F Damp=F
 DIIS: error= 5.93D-06 at cycle   5 NSaved=   5.
 NSaved= 5 IEnMin= 5 EnMin= -2753.43578650969     IErMin= 5 ErrMin= 5.93D-06
 ErrMax= 5.93D-06 EMaxC= 1.00D-01 BMatC= 1.19D-08 BMatP= 4.35D-07
 IDIUse=1 WtCom= 1.00D+00 WtEn= 0.00D+00
 Coeff-Com:  0.244D-04-0.236D-02-0.246D-01 0.949D-01 0.932D+00
 Coeff:      0.244D-04-0.236D-02-0.246D-01 0.949D-01 0.932D+00
 Gap=     0.532 Goal=   None    Shift=    0.000
 RMSDP=7.31D-07 MaxDP=3.29D-05 DE=-5.17D-07 OVMax= 3.08D-05

 Cycle   6  Pass 1  IDiag  1:
 RMSU=  2.17D-07    CP:  1.01D+00  6.74D-01  1.01D+00  1.15D+00  1.03D+00
 FoFJK:  IHMeth= 1 ICntrl=     0 DoSepK=T KAlg= 1 I1Cent= 0 FoldK=F
 E= -2753.43578651939     Delta-E=       -0.000000009707 Rises=F Damp=F
 DIIS: error= 4.35D-07 at cycle   6 NSaved=   6.
 NSaved= 6 IEnMin= 6 EnMin= -2753.43578651939     IErMin= 6 ErrMin= 4.35D-07
 ErrMax= 4.35D-07 EMaxC= 1.00D-01 BMatC= 4.57D-11 BMatP= 1.19D-08
 IDIUse=1 WtCom= 1.00D+00 WtEn= 0.00D+00
 Coeff-Com:  0.325D-05 0.136D-03 0.144D-02-0.109D-01-0.726D-01 0.108D+01
 Coeff:      0.325D-05 0.136D-03 0.144D-02-0.109D-01-0.726D-01 0.108D+01
 Gap=     0.532 Goal=   None    Shift=    0.000
 RMSDP=9.87D-08 MaxDP=3.47D-06 DE=-9.71D-09 OVMax= 4.56D-06

 Cycle   7  Pass 1  IDiag  1:
 RMSU=  1.80D-08    CP:  1.01D+00  6.74D-01  1.01D+00  1.16D+00  1.04D+00
                    CP:  1.21D+00
 FoFJK:  IHMeth= 1 ICntrl=     0 DoSepK=T KAlg= 1 I1Cent= 0 FoldK=F
 E= -2753.43578651938     Delta-E=        0.000000000011 Rises=F Damp=F
 DIIS: error= 8.90D-08 at cycle   7 NSaved=   7.
 NSaved= 7 IEnMin= 6 EnMin= -2753.43578651939     IErMin= 7 ErrMin= 8.90D-08
 ErrMax= 8.90D-08 EMaxC= 1.00D-01 BMatC= 2.35D-12 BMatP= 4.57D-11
 IDIUse=1 WtCom= 1.00D+00 WtEn= 0.00D+00
 Coeff-Com: -0.547D-07 0.384D-04 0.423D-03-0.239D-02-0.227D-01 0.200D+00
 Coeff-Com:  0.824D+00
 Coeff:     -0.547D-07 0.384D-04 0.423D-03-0.239D-02-0.227D-01 0.200D+00
 Coeff:      0.824D+00
 Gap=     0.532 Goal=   None    Shift=    0.000
 RMSDP=1.12D-08 MaxDP=3.91D-07 DE= 1.09D-11 OVMax= 6.84D-07

 Cycle   8  Pass 1  IDiag  1:
 RMSU=  4.51D-09    CP:  1.01D+00  6.74D-01  1.01D+00  1.16D+00  1.04D+00
                    CP:  1.24D+00  1.04D+00
 FoFJK:  IHMeth= 1 ICntrl=     0 DoSepK=T KAlg= 1 I1Cent= 0 FoldK=F
 E= -2753.43578651939     Delta-E=       -0.000000000010 Rises=F Damp=F
 DIIS: error= 2.55D-08 at cycle   8 NSaved=   8.
 NSaved= 8 IEnMin= 6 EnMin= -2753.43578651939     IErMin= 8 ErrMin= 2.55D-08
 ErrMax= 2.55D-08 EMaxC= 1.00D-01 BMatC= 1.19D-13 BMatP= 2.35D-12
 IDIUse=1 WtCom= 1.00D+00 WtEn= 0.00D+00
 Coeff-Com: -0.293D-06-0.120D-04-0.127D-03 0.975D-03 0.510D-02-0.839D-01
 Coeff-Com: -0.220D-01 0.110D+01
 Coeff:     -0.293D-06-0.120D-04-0.127D-03 0.975D-03 0.510D-02-0.839D-01
 Coeff:     -0.220D-01 0.110D+01
 Gap=     0.532 Goal=   None    Shift=    0.000
 RMSDP=4.46D-09 MaxDP=1.85D-07 DE=-1.00D-11 OVMax= 2.72D-07

 SCF Done:  E(RLC-wPBE) =  -2753.43578652     A.U. after    8 cycles
             Convg  =    0.4463D-08             -V/T =  2.0014
 KE= 2.749476168233D+03 PE=-6.578883397802D+03 EE= 1.075971443049D+03
 Leave Link  502 at Tue May 12 09:53:14 2020, MaxMem= 1073741824 cpu:     200.9
 (Enter /home/matheus/.gaussian/g09/l601.exe)
 Copying SCF densities to generalized density rwf, IOpCl= 0 IROHF=0.

 **********************************************************************

            Population analysis using the SCF density.

 **********************************************************************

 Orbital symmetries:
       Occupied  (A) (A) (A) (A) (A) (A) (A) (A) (A) (A) (A) (A)
                 (A) (A) (A) (A) (A) (A)
       Virtual   (A) (A) (A) (A) (A) (A) (A) (A) (A) (A) (A) (A)
                 (A) (A) (A) (A) (A) (A) (A) (A) (A) (A) (A) (A)
                 (A) (A) (A) (A) (A) (A) (A) (A) (A) (A) (A) (A)
                 (A) (A) (A) (A) (A) (A) (A) (A) (A) (A) (A) (A)
                 (A) (A) (A) (A) (A) (A) (A) (A) (A) (A) (A) (A)
                 (A) (A) (A) (A) (A) (A) (A) (A) (A) (A) (A) (A)
                 (A) (A) (A) (A) (A) (A) (A) (A) (A) (A) (A) (A)
                 (A) (A) (A) (A) (A) (A) (A) (A) (A) (A) (A) (A)
                 (A) (A) (A) (A) (A) (A) (A) (A) (A) (A) (A) (A)
                 (A) (A) (A) (A) (A) (A) (A) (A) (A) (A) (A) (A)
                 (A) (A) (A) (A) (A) (A) (A) (A) (A) (A) (A) (A)
                 (A) (A) (A) (A) (A) (A) (A) (A) (A) (A) (A) (A)
                 (A) (A) (A) (A) (A) (A) (A) (A) (A) (A) (A) (A)
                 (A) (A) (A) (A) (A) (A) (A) (A) (A) (A) (A) (A)
                 (A) (A) (A) (A) (A) (A) (A) (A) (A) (A) (A)
 The electronic state is 1-A.
 Alpha  occ. eigenvalues -- -511.10651 -66.65315 -60.31531 -60.31528 -60.31527
 Alpha  occ. eigenvalues --   -9.58573  -7.32997  -7.32995  -7.32994  -3.28541
 Alpha  occ. eigenvalues --   -3.28540  -3.28540  -3.28538  -3.28538  -1.03231
 Alpha  occ. eigenvalues --   -0.50219  -0.50217  -0.50215
 Alpha virt. eigenvalues --    0.03011   0.04908   0.08433   0.09633   0.12025
 Alpha virt. eigenvalues --    0.13164   0.13613   0.13920   0.15780   0.17131
 Alpha virt. eigenvalues --    0.17665   0.18309   0.21182   0.26310   0.27112
 Alpha virt. eigenvalues --    0.27309   0.29591   0.31765   0.33385   0.37585
 Alpha virt. eigenvalues --    0.37851   0.39099   0.39464   0.40417   0.41926
 Alpha virt. eigenvalues --    0.42139   0.46043   0.54147   0.56097   0.58769
 Alpha virt. eigenvalues --    0.62096   0.64078   0.69416   0.70365   0.71813
 Alpha virt. eigenvalues --    0.72740   0.74220   0.75732   0.76204   0.77672
 Alpha virt. eigenvalues --    0.78389   0.83405   0.84749   0.86033   0.88568
 Alpha virt. eigenvalues --    0.89446   0.89892   0.91371   0.94175   0.97765
 Alpha virt. eigenvalues --    0.99185   0.99460   1.00159   1.01718   1.03710
 Alpha virt. eigenvalues --    1.04924   1.08658   1.11063   1.14288   1.15757
 Alpha virt. eigenvalues --    1.19081   1.23511   1.28986   1.33165   1.39135
 Alpha virt. eigenvalues --    1.40522   1.42595   1.45057   1.47996   1.52485
 Alpha virt. eigenvalues --    1.56738   1.60614   1.63981   1.74967   1.75919
 Alpha virt. eigenvalues --    1.81090   1.84717   1.87411   1.92988   2.15658
 Alpha virt. eigenvalues --    2.22582   2.24509   2.25349   2.28301   2.32771
 Alpha virt. eigenvalues --    2.34041   2.35208   2.36886   2.38241   2.41323
 Alpha virt. eigenvalues --    2.46042   2.47281   2.49736   2.51733   2.52079
 Alpha virt. eigenvalues --    2.53776   2.55442   2.59816   2.60099   2.61303
 Alpha virt. eigenvalues --    2.62805   2.65019   2.67193   2.69233   2.71699
 Alpha virt. eigenvalues --    2.76358   2.78385   2.82796   2.89346   2.91413
 Alpha virt. eigenvalues --    2.96254   2.99610   3.06173   3.13314   3.19536
 Alpha virt. eigenvalues --    3.26255   3.27666   3.29721   3.41024   3.52113
 Alpha virt. eigenvalues --    3.61983   3.65408   3.87133   3.88195   4.02311
 Alpha virt. eigenvalues --    4.42209   4.46709   4.52423   4.60274   4.69058
 Alpha virt. eigenvalues --    4.72300   4.86166   4.89001   4.96957   5.03324
 Alpha virt. eigenvalues --    5.13432   5.28347   5.55562   5.65077   5.70574
 Alpha virt. eigenvalues --    5.97224   6.01227   6.22019   6.73135   6.93110
 Alpha virt. eigenvalues --    7.29902   7.37092   7.65951   7.67463   7.78984
 Alpha virt. eigenvalues --    7.87099   8.02244   8.13271   8.17636   8.27294
 Alpha virt. eigenvalues --    8.27748   8.39379   8.70087   9.00055   9.50264
 Alpha virt. eigenvalues --    9.73077   9.79455   9.90140   9.91706   9.94524
 Alpha virt. eigenvalues --   10.20448  10.22253  10.69465  10.88442  11.48630
 Alpha virt. eigenvalues --   11.63120  11.69187  11.94722  12.04495  13.27447
 Alpha virt. eigenvalues --   13.60420  14.55045  62.36435  64.76834
          Condensed to atoms (all electrons):
              1          2          3          4          5
     1  O    0.001228  -0.000119  -0.001019   0.000278  -0.005722
     2  O   -0.000119   0.002016   0.000002  -0.001842  -0.002203
     3  H   -0.001019   0.000002   0.001798   0.000338  -0.019955
     4  H    0.000278  -0.001842   0.000338   0.002769  -0.024958
     5  Kr  -0.005722  -0.002203  -0.019955  -0.024958  36.102590
 Mulliken atomic charges:
              1
     1  O    0.005354
     2  O    0.002147
     3  H    0.018837
     4  H    0.023415
     5  Kr  -0.049753
 Sum of Mulliken atomic charges =   0.00000
 Mulliken charges with hydrogens summed into heavy atoms:
              1
     1  O    0.024190
     2  O    0.025562
     5  Kr  -0.049753
 Sum of Mulliken charges with hydrogens summed into heavy atoms =   0.00000
          Condensed to fragments (all electrons):
     1       0.049753
     2      -0.049753
 Electronic spatial extent (au):  <R**2>=            159.5209
 Charge=              0.0000 electrons
 Dipole moment (field-independent basis, Debye):
    X=              0.0012    Y=              0.0000    Z=              0.0000  Tot=              0.0012
 Quadrupole moment (field-independent basis, Debye-Ang):
   XX=            -17.6142   YY=            -17.6213   ZZ=            -17.6287
   XY=              0.0004   XZ=              0.0016   YZ=             -0.0009
 Traceless Quadrupole moment (field-independent basis, Debye-Ang):
   XX=              0.0072   YY=              0.0001   ZZ=             -0.0073
   XY=              0.0004   XZ=              0.0016   YZ=             -0.0009
 Octapole moment (field-independent basis, Debye-Ang**2):
  XXX=             51.0974  YYY=              0.0277  ZZZ=              0.1236  XYY=             17.0432
  XXY=              0.0086  XXZ=              0.0391  XZZ=             17.0469  YZZ=              0.0096
  YYZ=              0.0411  XYZ=              0.0002
 Hexadecapole moment (field-independent basis, Debye-Ang**3):
 XXXX=           -117.1812 YYYY=            -18.3768 ZZZZ=            -18.3991 XXXY=             -0.0260
 XXXZ=             -0.1156 YYYX=             -0.0260 YYYZ=             -0.0001 ZZZX=             -0.1152
 ZZZY=             -0.0021 XXYY=            -22.6005 XXZZ=            -22.6057 YYZZ=             -6.1275
 XXYZ=             -0.0002 YYXZ=             -0.0390 ZZXY=             -0.0082
 N-N= 0.000000000000D+00 E-N=-6.578883399893D+03  KE= 2.749476168233D+03
 No NMR shielding tensors so no spin-rotation constants.
 Leave Link  601 at Tue May 12 09:53:14 2020, MaxMem= 1073741824 cpu:       0.7
 (Enter /home/matheus/.gaussian/g09/l122.exe)
 Counterpoise: doing MCBS calculation for fragment   1
 Leave Link  122 at Tue May 12 09:53:14 2020, MaxMem= 1073741824 cpu:       0.0
 (Enter /home/matheus/.gaussian/g09/l301.exe)
 Basis read from rwf:  (5D, 7F)
 No pseudopotential information found on rwf file.
 There are   138 symmetry adapted basis functions of A   symmetry.
 Integral buffers will be    131072 words long.
 Raffenetti 2 integral format.
 Two-electron integral symmetry is turned on.
   138 basis functions,   198 primitive gaussians,   160 cartesian basis functions
     9 alpha electrons        9 beta electrons
       nuclear repulsion energy        36.6636681782 Hartrees.
 IExCor=32609 DFT=T Ex+Corr=LC-wPBE ExCW=0 ScaHFX=  1.000000
 ScaDFX=  1.000000  0.000000  1.000000  1.000000 ScalE2=  1.000000  1.000000
 IRadAn=      5 IRanWt=     -1 IRanGd=            0 ICorTp=0
  HFx wShort=  0.000000 wLong=  0.400000 cFull=  0.000000 cShort=  0.000000 cLong=  1.000000
  DFx wShort=  0.000000 wLong=  0.400000 cFull=  0.000000 cShort=  0.000000 cLong=  1.000000
 NAtoms=    5 NActive=    4 NUniq=    4 SFac= 1.00D+00 NAtFMM=   60 NAOKFM=F Big=F
 No density basis found on file   718.
 Leave Link  301 at Tue May 12 09:53:14 2020, MaxMem= 1073741824 cpu:       0.2
 (Enter /home/matheus/.gaussian/g09/l302.exe)
 NPDir=0 NMtPBC=     1 NCelOv=     1 NCel=       1 NClECP=     1 NCelD=      1
         NCelK=      1 NCelE2=     1 NClLst=     1 CellRange=     0.0.
 One-electron integrals computed using PRISM.
 NBasis=   138 RedAO= T  NBF=   138
 NBsUse=   138 1.00D-06 NBFU=   138
 Precomputing XC quadrature grid using
 IXCGrd= 2 IRadAn=           5 IRanWt=          -1 IRanGd=           0 AccXCQ= 0.00D+00.
 NRdTot=     344 NPtTot=       92556 NUsed=       95038 NTot=       95070
 NSgBfM=   160   160   160   160   160 NAtAll=     4     4.
 Leave Link  302 at Tue May 12 09:53:14 2020, MaxMem= 1073741824 cpu:       0.7
 (Enter /home/matheus/.gaussian/g09/l303.exe)
 DipDrv:  MaxL=1.
 Leave Link  303 at Tue May 12 09:53:14 2020, MaxMem= 1073741824 cpu:       0.1
 (Enter /home/matheus/.gaussian/g09/l401.exe)
 Harris functional with IExCor=32609 diagonalized for initial guess.
 ExpMin= 2.53D-02 ExpMax= 1.53D+04 ExpMxC= 5.22D+02 IAcc=3 IRadAn=         5 AccDes= 0.00D+00
 HarFok:  IExCor=32609 AccDes= 0.00D+00 IRadAn=         5 IDoV= 1
 ScaDFX=  1.000000  1.000000  1.000000  1.000000
 FoFCou: FMM=F IPFlag=           0 FMFlag=      100000 FMFlg1=           0
         NFxFlg=           0 DoJE=T BraDBF=F KetDBF=T FulRan=T
         Omega=  0.000000  0.000000  1.000000  0.000000  0.000000 ICntrl=     500 IOpCl=  0
         NMat0=    1 NMatS0=    1 NMatT0=    0 NMatD0=    1 NMtDS0=    0 NMtDT0=    0
         I1Cent=           4 NGrid=           0.
 Petite list used in FoFCou.
 Harris En= -151.498971792361    
 Initial guess orbital symmetries:
       Occupied  (A) (A) (A) (A) (A) (A) (A) (A) (A)
       Virtual   (A) (A) (A) (A) (A) (A) (A) (A) (A) (A) (A) (A)
                 (A) (A) (A) (A) (A) (A) (A) (A) (A) (A) (A) (A)
                 (A) (A) (A) (A) (A) (A) (A) (A) (A) (A) (A) (A)
                 (A) (A) (A) (A) (A) (A) (A) (A) (A) (A) (A) (A)
                 (A) (A) (A) (A) (A) (A) (A) (A) (A) (A) (A) (A)
                 (A) (A) (A) (A) (A) (A) (A) (A) (A) (A) (A) (A)
                 (A) (A) (A) (A) (A) (A) (A) (A) (A) (A) (A) (A)
                 (A) (A) (A) (A) (A) (A) (A) (A) (A) (A) (A) (A)
                 (A) (A) (A) (A) (A) (A) (A) (A) (A) (A) (A) (A)
                 (A) (A) (A) (A) (A) (A) (A) (A) (A) (A) (A) (A)
                 (A) (A) (A) (A) (A) (A) (A) (A) (A)
 The electronic state of the initial guess is 1-A.
 Leave Link  401 at Tue May 12 09:53:14 2020, MaxMem= 1073741824 cpu:       2.4
 (Enter /home/matheus/.gaussian/g09/l502.exe)
 Closed shell SCF:
 Requested convergence on RMS density matrix=1.00D-08 within 128 cycles.
 Requested convergence on MAX density matrix=1.00D-06.
 Requested convergence on             energy=1.00D-06.
 No special actions if energy rises.
 Using DIIS extrapolation, IDIIS=  1040.
 Integral symmetry usage will be decided dynamically.
        94980 words used for storage of precomputed grid.
 IEnd=      192360 IEndB=      192360 NGot=  1073741824 MDV=  1073591865
 LenX=  1073591865 LenY=  1073565824
 Fock matrices will be formed incrementally for  20 cycles.

 Cycle   1  Pass 1  IDiag  1:
 FoFJK:  IHMeth= 1 ICntrl=     0 DoSepK=T KAlg= 1 I1Cent= 0 FoldK=F
 FoFCou: FMM=F IPFlag=           0 FMFlag=      100000 FMFlg1=           0
         NFxFlg=           0 DoJE=T BraDBF=F KetDBF=F FulRan=T
         Omega=  0.000000  0.000000  1.000000  0.000000  0.000000 ICntrl=     500 IOpCl=  0
         NMat0=    1 NMatS0=    1 NMatT0=    0 NMatD0=    1 NMtDS0=    0 NMtDT0=    0
         I1Cent=           0 NGrid=           0.
 Symmetry not used in FoFCou.
 E= -151.487736331238    
 DIIS: error= 2.10D-02 at cycle   1 NSaved=   1.
 NSaved= 1 IEnMin= 1 EnMin= -151.487736331238     IErMin= 1 ErrMin= 2.10D-02
 ErrMax= 2.10D-02 EMaxC= 1.00D-01 BMatC= 4.22D-02 BMatP= 4.22D-02
 IDIUse=3 WtCom= 7.90D-01 WtEn= 2.10D-01
 Coeff-Com:  0.100D+01
 Coeff-En:   0.100D+01
 Coeff:      0.100D+01
 Gap=     0.481 Goal=   None    Shift=    0.000
 GapD=    0.481 DampG=2.000 DampE=0.500 DampFc=1.0000 IDamp=-1.
 RMSDP=1.32D-03 MaxDP=2.30D-02              OVMax= 6.58D-02

 Cycle   2  Pass 1  IDiag  1:
 RMSU=  9.29D-04    CP:  9.95D-01
 FoFJK:  IHMeth= 1 ICntrl=     0 DoSepK=T KAlg= 1 I1Cent= 0 FoldK=F
 E= -151.502360334737     Delta-E=       -0.014624003499 Rises=F Damp=F
 DIIS: error= 1.55D-02 at cycle   2 NSaved=   2.
 NSaved= 2 IEnMin= 2 EnMin= -151.502360334737     IErMin= 2 ErrMin= 1.55D-02
 ErrMax= 1.55D-02 EMaxC= 1.00D-01 BMatC= 2.52D-02 BMatP= 4.22D-02
 IDIUse=3 WtCom= 8.45D-01 WtEn= 1.55D-01
 Coeff-Com:  0.429D+00 0.571D+00
 Coeff-En:   0.278D+00 0.722D+00
 Coeff:      0.406D+00 0.594D+00
 Gap=     0.418 Goal=   None    Shift=    0.000
 RMSDP=7.36D-04 MaxDP=2.35D-02 DE=-1.46D-02 OVMax= 3.02D-02

 Cycle   3  Pass 1  IDiag  1:
 RMSU=  3.17D-04    CP:  9.90D-01  5.59D-01
 FoFJK:  IHMeth= 1 ICntrl=     0 DoSepK=T KAlg= 1 I1Cent= 0 FoldK=F
 E= -151.517276376253     Delta-E=       -0.014916041517 Rises=F Damp=F
 DIIS: error= 2.43D-03 at cycle   3 NSaved=   3.
 NSaved= 3 IEnMin= 3 EnMin= -151.517276376253     IErMin= 3 ErrMin= 2.43D-03
 ErrMax= 2.43D-03 EMaxC= 1.00D-01 BMatC= 5.09D-04 BMatP= 2.52D-02
 IDIUse=3 WtCom= 9.76D-01 WtEn= 2.43D-02
 Coeff-Com:  0.672D-01 0.158D+00 0.775D+00
 Coeff-En:   0.000D+00 0.000D+00 0.100D+01
 Coeff:      0.656D-01 0.154D+00 0.780D+00
 Gap=     0.412 Goal=   None    Shift=    0.000
 RMSDP=8.78D-05 MaxDP=1.28D-03 DE=-1.49D-02 OVMax= 4.29D-03

 Cycle   4  Pass 1  IDiag  1:
 RMSU=  4.08D-05    CP:  9.89D-01  6.07D-01  9.97D-01
 FoFJK:  IHMeth= 1 ICntrl=     0 DoSepK=T KAlg= 1 I1Cent= 0 FoldK=F
 E= -151.517586312919     Delta-E=       -0.000309936666 Rises=F Damp=F
 DIIS: error= 4.17D-04 at cycle   4 NSaved=   4.
 NSaved= 4 IEnMin= 4 EnMin= -151.517586312919     IErMin= 4 ErrMin= 4.17D-04
 ErrMax= 4.17D-04 EMaxC= 1.00D-01 BMatC= 1.52D-05 BMatP= 5.09D-04
 IDIUse=3 WtCom= 9.96D-01 WtEn= 4.17D-03
 Coeff-Com: -0.573D-02-0.867D-02 0.114D+00 0.900D+00
 Coeff-En:   0.000D+00 0.000D+00 0.000D+00 0.100D+01
 Coeff:     -0.571D-02-0.863D-02 0.114D+00 0.901D+00
 Gap=     0.414 Goal=   None    Shift=    0.000
 RMSDP=1.66D-05 MaxDP=5.97D-04 DE=-3.10D-04 OVMax= 7.96D-04

 Cycle   5  Pass 1  IDiag  1:
 RMSU=  7.82D-06    CP:  9.89D-01  6.04D-01  1.02D+00  9.88D-01
 FoFJK:  IHMeth= 1 ICntrl=     0 DoSepK=T KAlg= 1 I1Cent= 0 FoldK=F
 E= -151.517596529282     Delta-E=       -0.000010216363 Rises=F Damp=F
 DIIS: error= 5.46D-05 at cycle   5 NSaved=   5.
 NSaved= 5 IEnMin= 5 EnMin= -151.517596529282     IErMin= 5 ErrMin= 5.46D-05
 ErrMax= 5.46D-05 EMaxC= 1.00D-01 BMatC= 1.03D-07 BMatP= 1.52D-05
 IDIUse=1 WtCom= 1.00D+00 WtEn= 0.00D+00
 Coeff-Com: -0.682D-03-0.198D-02-0.268D-01-0.852D-01 0.111D+01
 Coeff:     -0.682D-03-0.198D-02-0.268D-01-0.852D-01 0.111D+01
 Gap=     0.414 Goal=   None    Shift=    0.000
 RMSDP=3.56D-06 MaxDP=6.83D-05 DE=-1.02D-05 OVMax= 2.20D-04

 Cycle   6  Pass 1  IDiag  1:
 RMSU=  1.09D-06    CP:  9.89D-01  6.05D-01  1.02D+00  1.01D+00  1.25D+00
 FoFJK:  IHMeth= 1 ICntrl=     0 DoSepK=T KAlg= 1 I1Cent= 0 FoldK=F
 E= -151.517596743312     Delta-E=       -0.000000214030 Rises=F Damp=F
 DIIS: error= 9.40D-06 at cycle   6 NSaved=   6.
 NSaved= 6 IEnMin= 6 EnMin= -151.517596743312     IErMin= 6 ErrMin= 9.40D-06
 ErrMax= 9.40D-06 EMaxC= 1.00D-01 BMatC= 2.76D-09 BMatP= 1.03D-07
 IDIUse=1 WtCom= 1.00D+00 WtEn= 0.00D+00
 Coeff-Com:  0.116D-03 0.260D-03 0.152D-03-0.693D-02-0.638D-01 0.107D+01
 Coeff:      0.116D-03 0.260D-03 0.152D-03-0.693D-02-0.638D-01 0.107D+01
 Gap=     0.414 Goal=   None    Shift=    0.000
 RMSDP=5.54D-07 MaxDP=1.34D-05 DE=-2.14D-07 OVMax= 3.85D-05

 Cycle   7  Pass 1  IDiag  1:
 RMSU=  2.09D-07    CP:  9.89D-01  6.05D-01  1.02D+00  1.01D+00  1.28D+00
                    CP:  1.21D+00
 FoFJK:  IHMeth= 1 ICntrl=     0 DoSepK=T KAlg= 1 I1Cent= 0 FoldK=F
 E= -151.517596749598     Delta-E=       -0.000000006286 Rises=F Damp=F
 DIIS: error= 2.33D-06 at cycle   7 NSaved=   7.
[...]
 ScaDFX=  1.000000  1.000000  1.000000  1.000000
 FoFCou: FMM=F IPFlag=           0 FMFlag=      100000 FMFlg1=           0
         NFxFlg=           0 DoJE=T BraDBF=F KetDBF=T FulRan=T
         Omega=  0.000000  0.000000  1.000000  0.000000  0.000000 ICntrl=     500 IOpCl=  0
         NMat0=    1 NMatS0=    1 NMatT0=    0 NMatD0=    1 NMtDS0=    0 NMtDT0=    0
         I1Cent=           4 NGrid=           0.
 Petite list used in FoFCou.
 Harris En= -2753.24587678881    
 Leave Link  401 at Tue May 12 10:14:58 2020, MaxMem= 1073741824 cpu:       3.9
 (Enter /home/matheus/.gaussian/g09/l502.exe)
 Closed shell SCF:
 Requested convergence on RMS density matrix=1.00D-08 within 128 cycles.
 Requested convergence on MAX density matrix=1.00D-06.
 Requested convergence on             energy=1.00D-06.
 No special actions if energy rises.
 Using DIIS extrapolation, IDIIS=  1040.
 Integral symmetry usage will be decided dynamically.
       126823 words used for storage of precomputed grid.
 IEnd=      305770 IEndB=      305770 NGot=  1073741824 MDV=  1073505365
 LenX=  1073505365 LenY=  1073452483
 Fock matrices will be formed incrementally for  20 cycles.

 Cycle   1  Pass 1  IDiag  1:
 FoFJK:  IHMeth= 1 ICntrl=     0 DoSepK=T KAlg= 1 I1Cent= 0 FoldK=F
 FoFCou: FMM=F IPFlag=           0 FMFlag=      100000 FMFlg1=           0
         NFxFlg=           0 DoJE=T BraDBF=F KetDBF=F FulRan=T
         Omega=  0.000000  0.000000  1.000000  0.000000  0.000000 ICntrl=     500 IOpCl=  0
         NMat0=    1 NMatS0=    1 NMatT0=    0 NMatD0=    1 NMtDS0=    0 NMtDT0=    0
         I1Cent=           0 NGrid=           0.
 Symmetry not used in FoFCou.
 E= -2753.43565058313    
 DIIS: error= 2.00D-04 at cycle   1 NSaved=   1.
 NSaved= 1 IEnMin= 1 EnMin= -2753.43565058313     IErMin= 1 ErrMin= 2.00D-04
 ErrMax= 2.00D-04 EMaxC= 1.00D-01 BMatC= 5.14D-06 BMatP= 5.14D-06
 IDIUse=3 WtCom= 9.98D-01 WtEn= 2.00D-03
 Coeff-Com:  0.100D+01
 Coeff-En:   0.100D+01
 Coeff:      0.100D+01
 Gap=     0.531 Goal=   None    Shift=    0.000
 RMSDP=1.16D-05 MaxDP=5.39D-04              OVMax= 2.96D-04

 Cycle   2  Pass 1  IDiag  1:
 RMSU=  8.21D-06    CP:  1.00D+00
 FoFJK:  IHMeth= 1 ICntrl=     0 DoSepK=T KAlg= 1 I1Cent= 0 FoldK=F
 E= -2753.43565114401     Delta-E=       -0.000000560877 Rises=F Damp=F
 DIIS: error= 5.57D-06 at cycle   2 NSaved=   2.
 NSaved= 2 IEnMin= 2 EnMin= -2753.43565114401     IErMin= 2 ErrMin= 5.57D-06
 ErrMax= 5.57D-06 EMaxC= 1.00D-01 BMatC= 3.64D-09 BMatP= 5.14D-06
 IDIUse=1 WtCom= 1.00D+00 WtEn= 0.00D+00
 Coeff-Com: -0.794D-02 0.101D+01
 Coeff:     -0.794D-02 0.101D+01
 Gap=     0.531 Goal=   None    Shift=    0.000
 RMSDP=1.04D-06 MaxDP=4.06D-05 DE=-5.61D-07 OVMax= 4.40D-05

 Cycle   3  Pass 1  IDiag  1:
 RMSU=  4.23D-07    CP:  1.00D+00  1.07D+00
 FoFJK:  IHMeth= 1 ICntrl=     0 DoSepK=T KAlg= 1 I1Cent= 0 FoldK=F
 E= -2753.43565115020     Delta-E=       -0.000000006192 Rises=F Damp=F
 DIIS: error= 7.59D-07 at cycle   3 NSaved=   3.
 NSaved= 3 IEnMin= 3 EnMin= -2753.43565115020     IErMin= 3 ErrMin= 7.59D-07
 ErrMax= 7.59D-07 EMaxC= 1.00D-01 BMatC= 8.75D-11 BMatP= 3.64D-09
 IDIUse=1 WtCom= 1.00D+00 WtEn= 0.00D+00
 Coeff-Com:  0.263D-03-0.115D+00 0.111D+01
 Coeff:      0.263D-03-0.115D+00 0.111D+01
 Gap=     0.531 Goal=   None    Shift=    0.000
 RMSDP=1.41D-07 MaxDP=4.86D-06 DE=-6.19D-09 OVMax= 8.79D-06

 Cycle   4  Pass 1  IDiag  1:
 RMSU=  4.71D-08    CP:  1.00D+00  1.08D+00  1.20D+00
 FoFJK:  IHMeth= 1 ICntrl=     0 DoSepK=T KAlg= 1 I1Cent= 0 FoldK=F
 E= -2753.43565115036     Delta-E=       -0.000000000161 Rises=F Damp=F
 DIIS: error= 3.61D-07 at cycle   4 NSaved=   4.
 NSaved= 4 IEnMin= 4 EnMin= -2753.43565115036     IErMin= 4 ErrMin= 3.61D-07
 ErrMax= 3.61D-07 EMaxC= 1.00D-01 BMatC= 6.81D-12 BMatP= 8.75D-11
 IDIUse=1 WtCom= 1.00D+00 WtEn= 0.00D+00
 Coeff-Com:  0.183D-03-0.423D-01 0.255D+00 0.787D+00
 Coeff:      0.183D-03-0.423D-01 0.255D+00 0.787D+00
 Gap=     0.531 Goal=   None    Shift=    0.000
 RMSDP=1.81D-08 MaxDP=6.39D-07 DE=-1.61D-10 OVMax= 1.10D-06

 Cycle   5  Pass 1  IDiag  1:
 RMSU=  7.90D-09    CP:  1.00D+00  1.08D+00  1.21D+00  1.12D+00
 FoFJK:  IHMeth= 1 ICntrl=     0 DoSepK=T KAlg= 1 I1Cent= 0 FoldK=F
 E= -2753.43565115038     Delta-E=       -0.000000000018 Rises=F Damp=F
 DIIS: error= 3.06D-08 at cycle   5 NSaved=   5.
 NSaved= 5 IEnMin= 5 EnMin= -2753.43565115038     IErMin= 5 ErrMin= 3.06D-08
 ErrMax= 3.06D-08 EMaxC= 1.00D-01 BMatC= 1.14D-13 BMatP= 6.81D-12
 IDIUse=1 WtCom= 1.00D+00 WtEn= 0.00D+00
 Coeff-Com: -0.267D-04 0.827D-02-0.670D-01-0.570D-01 0.112D+01
 Coeff:     -0.267D-04 0.827D-02-0.670D-01-0.570D-01 0.112D+01
 Gap=     0.531 Goal=   None    Shift=    0.000
 RMSDP=7.87D-09 MaxDP=3.32D-07 DE=-1.77D-11 OVMax= 3.52D-07

 SCF Done:  E(RLC-wPBE) =  -2753.43565115     A.U. after    5 cycles
             Convg  =    0.7871D-08             -V/T =  2.0014
 KE= 2.749528477482D+03 PE=-6.578941383238D+03 EE= 1.075977254605D+03
 Leave Link  502 at Tue May 12 10:15:10 2020, MaxMem= 1073741824 cpu:      95.4
 (Enter /home/matheus/.gaussian/g09/l122.exe)
 Restoring MOs from calculation   4 to rwf.
 Counterpoise: doing MCBS calculation for fragment   1
 Leave Link  122 at Tue May 12 10:15:10 2020, MaxMem= 1073741824 cpu:       0.0
 (Enter /home/matheus/.gaussian/g09/l301.exe)
 Basis read from rwf:  (5D, 7F)
 No pseudopotential information found on rwf file.
 There are   138 symmetry adapted basis functions of A   symmetry.
 Integral buffers will be    131072 words long.
 Raffenetti 2 integral format.
 Two-electron integral symmetry is turned on.
   138 basis functions,   198 primitive gaussians,   160 cartesian basis functions
     9 alpha electrons        9 beta electrons
       nuclear repulsion energy        36.6636681782 Hartrees.
 IExCor=32609 DFT=T Ex+Corr=LC-wPBE ExCW=0 ScaHFX=  1.000000
 ScaDFX=  1.000000  0.000000  1.000000  1.000000 ScalE2=  1.000000  1.000000
 IRadAn=      5 IRanWt=     -1 IRanGd=            0 ICorTp=0
  HFx wShort=  0.000000 wLong=  0.400000 cFull=  0.000000 cShort=  0.000000 cLong=  1.000000
  DFx wShort=  0.000000 wLong=  0.400000 cFull=  0.000000 cShort=  0.000000 cLong=  1.000000
 NAtoms=    5 NActive=    4 NUniq=    4 SFac= 1.00D+00 NAtFMM=   60 NAOKFM=F Big=F
 No density basis found on file   718.
 Leave Link  301 at Tue May 12 10:15:10 2020, MaxMem= 1073741824 cpu:       0.2
 (Enter /home/matheus/.gaussian/g09/l302.exe)
 NPDir=0 NMtPBC=     1 NCelOv=     1 NCel=       1 NClECP=     1 NCelD=      1
         NCelK=      1 NCelE2=     1 NClLst=     1 CellRange=     0.0.
 One-electron integrals computed using PRISM.
 NBasis=   138 RedAO= T  NBF=   138
 NBsUse=   138 1.00D-06 NBFU=   138
 Precomputing XC quadrature grid using
 IXCGrd= 2 IRadAn=           5 IRanWt=          -1 IRanGd=           0 AccXCQ= 0.00D+00.
 NRdTot=     344 NPtTot=       92556 NUsed=       95038 NTot=       95070
 NSgBfM=   160   160   160   160   160 NAtAll=     4     4.
 Leave Link  302 at Tue May 12 10:15:10 2020, MaxMem= 1073741824 cpu:       0.8
 (Enter /home/matheus/.gaussian/g09/l303.exe)
 DipDrv:  MaxL=1.
 Leave Link  303 at Tue May 12 10:15:10 2020, MaxMem= 1073741824 cpu:       0.1
 (Enter /home/matheus/.gaussian/g09/l401.exe)
 Initial guess read from the read-write file.
 Guess basis will be translated and rotated to current coordinates.
 Initial guess orbital symmetries:
       Occupied  (A) (A) (A) (A) (A) (A) (A) (A) (A)
       Virtual   (A) (A) (A) (A) (A) (A) (A) (A) (A) (A) (A) (A)
                 (A) (A) (A) (A) (A) (A) (A) (A) (A) (A) (A) (A)
                 (A) (A) (A) (A) (A) (A) (A) (A) (A) (A) (A) (A)
                 (A) (A) (A) (A) (A) (A) (A) (A) (A) (A) (A) (A)
                 (A) (A) (A) (A) (A) (A) (A) (A) (A) (A) (A) (A)
                 (A) (A) (A) (A) (A) (A) (A) (A) (A) (A) (A) (A)
                 (A) (A) (A) (A) (A) (A) (A) (A) (A) (A) (A) (A)
                 (A) (A) (A) (A) (A) (A) (A) (A) (A) (A) (A) (A)
                 (A) (A) (A) (A) (A) (A) (A) (A) (A) (A) (A) (A)
                 (A) (A) (A) (A) (A) (A) (A) (A) (A) (A) (A) (A)
                 (A) (A) (A) (A) (A) (A) (A) (A) (A)
 The electronic state of the initial guess is 1-A.
 Generating alternative initial guess.
 Harris functional with IExCor=32609 diagonalized for initial guess.
 ExpMin= 2.53D-02 ExpMax= 1.53D+04 ExpMxC= 5.22D+02 IAcc=3 IRadAn=         5 AccDes= 0.00D+00
 HarFok:  IExCor=32609 AccDes= 0.00D+00 IRadAn=         5 IDoV= 1
 ScaDFX=  1.000000  1.000000  1.000000  1.000000
 FoFCou: FMM=F IPFlag=           0 FMFlag=      100000 FMFlg1=           0
         NFxFlg=           0 DoJE=T BraDBF=F KetDBF=T FulRan=T
         Omega=  0.000000  0.000000  1.000000  0.000000  0.000000 ICntrl=     500 IOpCl=  0
         NMat0=    1 NMatS0=    1 NMatT0=    0 NMatD0=    1 NMtDS0=    0 NMtDT0=    0
         I1Cent=           4 NGrid=           0.
 Petite list used in FoFCou.
 Harris En= -151.498971791332    
 Leave Link  401 at Tue May 12 10:15:10 2020, MaxMem= 1073741824 cpu:       2.3
 (Enter /home/matheus/.gaussian/g09/l502.exe)
 Closed shell SCF:
 Requested convergence on RMS density matrix=1.00D-08 within 128 cycles.
 Requested convergence on MAX density matrix=1.00D-06.
 Requested convergence on             energy=1.00D-06.
 No special actions if energy rises.
 Using DIIS extrapolation, IDIIS=  1040.
 Integral symmetry usage will be decided dynamically.
        94980 words used for storage of precomputed grid.
 IEnd=      192360 IEndB=      192360 NGot=  1073741824 MDV=  1073591865
 LenX=  1073591865 LenY=  1073565824
 Fock matrices will be formed incrementally for  20 cycles.

 Cycle   1  Pass 1  IDiag  1:
 FoFJK:  IHMeth= 1 ICntrl=     0 DoSepK=T KAlg= 1 I1Cent= 0 FoldK=F
 FoFCou: FMM=F IPFlag=           0 FMFlag=      100000 FMFlg1=           0
         NFxFlg=           0 DoJE=T BraDBF=F KetDBF=F FulRan=T
         Omega=  0.000000  0.000000  1.000000  0.000000  0.000000 ICntrl=     500 IOpCl=  0
         NMat0=    1 NMatS0=    1 NMatT0=    0 NMatD0=    1 NMtDS0=    0 NMtDT0=    0
         I1Cent=           0 NGrid=           0.
 Symmetry not used in FoFCou.
 E= -151.517596756339    
 DIIS: error= 1.69D-06 at cycle   1 NSaved=   1.
 NSaved= 1 IEnMin= 1 EnMin= -151.517596756339     IErMin= 1 ErrMin= 1.69D-06
 ErrMax= 1.69D-06 EMaxC= 1.00D-01 BMatC= 4.51D-10 BMatP= 4.51D-10
 IDIUse=1 WtCom= 1.00D+00 WtEn= 0.00D+00
 Coeff-Com:  0.100D+01
 Coeff:      0.100D+01
 Gap=     0.414 Goal=   None    Shift=    0.000
 RMSDP=1.72D-07 MaxDP=4.12D-06              OVMax= 6.37D-06

 Cycle   2  Pass 1  IDiag  1:
 RMSU=  1.22D-07    CP:  1.00D+00
 FoFJK:  IHMeth= 1 ICntrl=     0 DoSepK=T KAlg= 1 I1Cent= 0 FoldK=F
 E= -151.517596756784     Delta-E=       -0.000000000445 Rises=F Damp=F
 DIIS: error= 3.21D-07 at cycle   2 NSaved=   2.
 NSaved= 2 IEnMin= 2 EnMin= -151.517596756784     IErMin= 2 ErrMin= 3.21D-07
 ErrMax= 3.21D-07 EMaxC= 1.00D-01 BMatC= 1.81D-11 BMatP= 4.51D-10
 IDIUse=1 WtCom= 1.00D+00 WtEn= 0.00D+00
 Coeff-Com: -0.121D+00 0.112D+01
 Coeff:     -0.121D+00 0.112D+01
 Gap=     0.414 Goal=   None    Shift=    0.000
 RMSDP=4.05D-08 MaxDP=1.24D-06 DE=-4.45D-10 OVMax= 2.05D-06

 Cycle   3  Pass 1  IDiag  1:
 RMSU=  1.16D-08    CP:  1.00D+00  1.21D+00
 FoFJK:  IHMeth= 1 ICntrl=     0 DoSepK=T KAlg= 1 I1Cent= 0 FoldK=F
 E= -151.517596756813     Delta-E=       -0.000000000029 Rises=F Damp=F
 DIIS: error= 1.15D-07 at cycle   3 NSaved=   3.
 NSaved= 3 IEnMin= 3 EnMin= -151.517596756813     IErMin= 3 ErrMin= 1.15D-07
 ErrMax= 1.15D-07 EMaxC= 1.00D-01 BMatC= 9.28D-13 BMatP= 1.81D-11
 IDIUse=1 WtCom= 1.00D+00 WtEn= 0.00D+00
 Coeff-Com: -0.204D-01 0.322D-01 0.988D+00
 Coeff:     -0.204D-01 0.322D-01 0.988D+00
 Gap=     0.414 Goal=   None    Shift=    0.000
 RMSDP=9.94D-09 MaxDP=2.55D-07 DE=-2.86D-11 OVMax= 6.94D-07

 SCF Done:  E(RLC-wPBE) =  -151.517596757     A.U. after    3 cycles
             Convg  =    0.9936D-08             -V/T =  2.0066
 KE= 1.505287993808D+02 PE=-4.315755227448D+02 EE= 9.286545842894D+01
 Leave Link  502 at Tue May 12 10:15:13 2020, MaxMem= 1073741824 cpu:      23.1
 (Enter /home/matheus/.gaussian/g09/l122.exe)
 Restoring MOs from calculation   5 to rwf.
 Counterpoise: doing MCBS calculation for fragment   2
 Leave Link  122 at Tue May 12 10:15:13 2020, MaxMem= 1073741824 cpu:       0.0
 (Enter /home/matheus/.gaussian/g09/l301.exe)
 Basis read from rwf:  (5D, 7F)
 No pseudopotential information found on rwf file.
 There are    59 symmetry adapted basis functions of A   symmetry.
 Integral buffers will be    131072 words long.
 Raffenetti 2 integral format.
 Two-electron integral symmetry is turned on.
    59 basis functions,   217 primitive gaussians,    69 cartesian basis functions
    18 alpha electrons       18 beta electrons
       nuclear repulsion energy         0.0000000000 Hartrees.
 IExCor=32609 DFT=T Ex+Corr=LC-wPBE ExCW=0 ScaHFX=  1.000000
 ScaDFX=  1.000000  0.000000  1.000000  1.000000 ScalE2=  1.000000  1.000000
 IRadAn=      5 IRanWt=     -1 IRanGd=            0 ICorTp=0
  HFx wShort=  0.000000 wLong=  0.400000 cFull=  0.000000 cShort=  0.000000 cLong=  1.000000
  DFx wShort=  0.000000 wLong=  0.400000 cFull=  0.000000 cShort=  0.000000 cLong=  1.000000
 NAtoms=    5 NActive=    1 NUniq=    1 SFac= 1.00D+00 NAtFMM=   60 NAOKFM=F Big=F
 No density basis found on file   718.
 Leave Link  301 at Tue May 12 10:15:13 2020, MaxMem= 1073741824 cpu:       0.2
 (Enter /home/matheus/.gaussian/g09/l302.exe)
 NPDir=0 NMtPBC=     1 NCelOv=     1 NCel=       1 NClECP=     1 NCelD=      1
         NCelK=      1 NCelE2=     1 NClLst=     1 CellRange=     0.0.
 One-electron integrals computed using PRISM.
 NBasis=    59 RedAO= T  NBF=    59
 NBsUse=    59 1.00D-06 NBFU=    59
 Precomputing XC quadrature grid using
 IXCGrd= 2 IRadAn=           5 IRanWt=          -1 IRanGd=           0 AccXCQ= 0.00D+00.
 NRdTot=      81 NPtTot=       30352 NUsed=       30981 NTot=       31013
 NSgBfM=    69    69    69    69    69 NAtAll=     1     1.
 Leave Link  302 at Tue May 12 10:15:13 2020, MaxMem= 1073741824 cpu:       0.7
 (Enter /home/matheus/.gaussian/g09/l303.exe)
 DipDrv:  MaxL=1.
 Leave Link  303 at Tue May 12 10:15:13 2020, MaxMem= 1073741824 cpu:       0.1
 (Enter /home/matheus/.gaussian/g09/l401.exe)
 Initial guess read from the read-write file.
 Guess basis will be translated and rotated to current coordinates.
 Initial guess orbital symmetries:
       Occupied  (A) (A) (A) (A) (A) (A) (A) (A) (A) (A) (A) (A)
                 (A) (A) (A) (A) (A) (A)
       Virtual   (A) (A) (A) (A) (A) (A) (A) (A) (A) (A) (A) (A)
                 (A) (A) (A) (A) (A) (A) (A) (A) (A) (A) (A) (A)
                 (A) (A) (A) (A) (A) (A) (A) (A) (A) (A) (A) (A)
                 (A) (A) (A) (A) (A)
 The electronic state of the initial guess is 1-A.
 Generating alternative initial guess.
 Harris functional with IExCor=32609 diagonalized for initial guess.
 ExpMin= 4.00D-02 ExpMax= 1.17D+07 ExpMxC= 1.33D+04 IAcc=3 IRadAn=         5 AccDes= 0.00D+00
 HarFok:  IExCor=32609 AccDes= 0.00D+00 IRadAn=         5 IDoV= 1
 ScaDFX=  1.000000  1.000000  1.000000  1.000000
 FoFCou: FMM=F IPFlag=           0 FMFlag=      100000 FMFlg1=           0
         NFxFlg=           0 DoJE=T BraDBF=F KetDBF=T FulRan=T
         Omega=  0.000000  0.000000  1.000000  0.000000  0.000000 ICntrl=     500 IOpCl=  0
         NMat0=    1 NMatS0=    1 NMatT0=    0 NMatD0=    1 NMtDS0=    0 NMtDT0=    0
         I1Cent=           4 NGrid=           0.
 Petite list used in FoFCou.
 DSYEVD returned Info=          89 IAlg= 4 N=    59 NDim=    59 NE2=    18198841 trying DSYEV.
 Harris En= -2753.24576836237    
 Leave Link  401 at Tue May 12 10:15:14 2020, MaxMem= 1073741824 cpu:       1.0
 (Enter /home/matheus/.gaussian/g09/l502.exe)
 Closed shell SCF:
 Requested convergence on RMS density matrix=1.00D-08 within 128 cycles.
 Requested convergence on MAX density matrix=1.00D-06.
 Requested convergence on             energy=1.00D-06.
 No special actions if energy rises.
 Using DIIS extrapolation, IDIIS=  1040.
 Integral symmetry usage will be decided dynamically.
        30923 words used for storage of precomputed grid.
 IEnd=       64406 IEndB=       64406 NGot=  1073741824 MDV=  1073698889
 LenX=  1073698889 LenY=  1073693687
 Fock matrices will be formed incrementally for  20 cycles.

 Cycle   1  Pass 1  IDiag  1:
 FoFJK:  IHMeth= 1 ICntrl=     0 DoSepK=T KAlg= 1 I1Cent= 0 FoldK=F
 FoFCou: FMM=F IPFlag=           0 FMFlag=      100000 FMFlg1=           0
         NFxFlg=           0 DoJE=T BraDBF=F KetDBF=F FulRan=T
         Omega=  0.000000  0.000000  1.000000  0.000000  0.000000 ICntrl=     500 IOpCl=  0
         NMat0=    1 NMatS0=    1 NMatT0=    0 NMatD0=    1 NMtDS0=    0 NMtDT0=    0
         I1Cent=           0 NGrid=           0.
 Symmetry not used in FoFCou.
 E= -2753.43563276534    
 DIIS: error= 7.69D-14 at cycle   1 NSaved=   1.
 NSaved= 1 IEnMin= 1 EnMin= -2753.43563276534     IErMin= 1 ErrMin= 7.69D-14
 ErrMax= 7.69D-14 EMaxC= 1.00D-01 BMatC= 1.82D-25 BMatP= 1.82D-25
 IDIUse=1 WtCom= 1.00D+00 WtEn= 0.00D+00
 Coeff-Com:  0.100D+01
 Coeff:      0.100D+01
 Gap=     0.599 Goal=   None    Shift=    0.000
 DSYEVD returned Info=        1859 IAlg= 4 N=    59 NDim=    59 NE2=    18198197 trying DSYEV.
 RMSDP=2.71D-15 MaxDP=6.28D-14              OVMax= 1.99D-14

 SCF Done:  E(RLC-wPBE) =  -2753.43563277     A.U. after    1 cycles
             Convg  =    0.2714D-14             -V/T =  2.0014
 KE= 2.749535160915D+03 PE=-6.578948648680D+03 EE= 1.075977855000D+03
 Leave Link  502 at Tue May 12 10:15:15 2020, MaxMem= 1073741824 cpu:      11.4
 (Enter /home/matheus/.gaussian/g09/l122.exe)
 Restoring MOs from calculation   1 to rwf.
 Counterpoise: corrected energy =   -2904.953345189719
 Counterpoise: BSSE energy =       0.000021889623
 Leave Link  122 at Tue May 12 10:15:15 2020, MaxMem= 1073741824 cpu:       0.0
 (Enter /home/matheus/.gaussian/g09/l108.exe)
 Scan completed.

 Summary of the potential surface scan:
   N      R1          SCF    
 ----  ---------  -----------
    1     3.0000  -2753.43563
    2     3.1000  -2753.43563
    3     3.2000  -2753.43563
    4     3.3000  -2753.43563
    5     3.4000  -2753.43563
    6     3.5000  -2753.43563
    7     3.6000  -2753.43563
    8     3.7000  -2753.43563
    9     3.8000  -2753.43563
   10     3.9000  -2753.43563
   11     4.0000  -2753.43563
   12     4.1000  -2753.43563
   13     4.2000  -2753.43563
   14     4.3000  -2753.43563
   15     4.4000  -2753.43563
   16     4.5000  -2753.43563
   17     4.6000  -2753.43563
   18     4.7000  -2753.43563
   19     4.8000  -2753.43563
   20     4.9000  -2753.43563
   21     5.0000  -2753.43563
 ----  ---------  -----------
  
 Leave Link  108 at Tue May 12 10:15:15 2020, MaxMem= 1073741824 cpu:       0.0
 (Enter /home/matheus/.gaussian/g09/l9999.exe)
 1\1\GINC-REDGIANT\Scan\RLC-wPBE\Aug-CC-pVTZ\H2Kr1O2\MATHEUS\12-May-202
 0\1\\#p lc-wpbe/aug-cc-PVTz int=ultrafine counterpoise=2 Scan\\TCC\\0,
 1\O,0,0.,0.,0.725\O,0,0.,0.,-0.725\H,0,0.3142209495,0.8633149634,1.023
 5104166\H,0,0.,0.9187205947,-1.0235104166\Kr,0,0.,R1,0.\\R1=3.,s,20,0.
 1\\Version=EM64L-G09RevC.01\State=1-A\HF=-2753.4356328,-2753.4356328,-
 2753.4356328,-2753.4356328,-2753.4356328,-2753.4356328,-2753.4356328,-
 2753.4356328,-2753.4356328,-2753.4356328,-2753.4356328,-2753.4356328,-
 2753.4356328,-2753.4356328,-2753.4356328,-2753.4356328,-2753.4356328,-
 2753.4356328,-2753.4356328,-2753.4356328,-2753.4356328\RMSD=1.428e-09,
 5.221e-11,1.075e-11,2.473e-12,6.358e-13,1.592e-13,4.422e-14,1.376e-14,
 8.446e-15,6.258e-15,4.202e-15,7.749e-15,8.088e-15,6.395e-15,4.350e-15,
 5.897e-15,4.481e-15,2.305e-15,6.142e-15,7.869e-15,2.714e-15\PG=C01 [X(
 H2Kr1O2)]\\@


 IT IS A SIMPLE TASK TO MAKE THINGS COMPLEX,
 BUT A COMPLEX TASK TO MAKE THEM SIMPLE.
 Job cpu time:  0 days  3 hours  7 minutes 23.2 seconds.
 File lengths (MBytes):  RWF=     33 Int=      0 D2E=      0 Chk=      8 Scr=      1
 Normal termination of Gaussian 09 at Tue May 12 10:15:15 2020.
