 Entering Gaussian System, Link 0=g09
 Input=/home/matheus/.tcc/Inputs/Inputs-lc-wpbe-default/H2O2-Kr_21.com
 Output=/home/matheus/.tcc/Logs/Logs-lc-wpbe-default/H2O2-Kr_21.log
 Initial command:
 /home/matheus/.gaussian/g09/l1.exe /home/matheus/.gaussian/g09/scratch/Gau-11694.inp -scrdir=/home/matheus/.gaussian/g09/scratch/
 Entering Link 1 = /home/matheus/.gaussian/g09/l1.exe PID=     11698.
  
 Copyright (c) 1988,1990,1992,1993,1995,1998,2003,2009,2011,
            Gaussian, Inc.  All Rights Reserved.
  
 This is part of the Gaussian(R) 09 program.  It is based on
 the Gaussian(R) 03 system (copyright 2003, Gaussian, Inc.),
 the Gaussian(R) 98 system (copyright 1998, Gaussian, Inc.),
 the Gaussian(R) 94 system (copyright 1995, Gaussian, Inc.),
 the Gaussian 92(TM) system (copyright 1992, Gaussian, Inc.),
 the Gaussian 90(TM) system (copyright 1990, Gaussian, Inc.),
 the Gaussian 88(TM) system (copyright 1988, Gaussian, Inc.),
 the Gaussian 86(TM) system (copyright 1986, Carnegie Mellon
 University), and the Gaussian 82(TM) system (copyright 1983,
 Carnegie Mellon University). Gaussian is a federally registered
 trademark of Gaussian, Inc.
  
 This software contains proprietary and confidential information,
 including trade secrets, belonging to Gaussian, Inc.
  
 This software is provided under written license and may be
 used, copied, transmitted, or stored only in accord with that
 written license.
  
 The following legend is applicable only to US Government
 contracts under FAR:
  
                    RESTRICTED RIGHTS LEGEND
  
 Use, reproduction and disclosure by the US Government is
 subject to restrictions as set forth in subparagraphs (a)
 and (c) of the Commercial Computer Software - Restricted
 Rights clause in FAR 52.227-19.
  
 Gaussian, Inc.
 340 Quinnipiac St., Bldg. 40, Wallingford CT 06492
  
  
 ---------------------------------------------------------------
 Warning -- This program may not be used in any manner that
 competes with the business of Gaussian, Inc. or will provide
 assistance to any competitor of Gaussian, Inc.  The licensee
 of this program is prohibited from giving any competitor of
 Gaussian, Inc. access to this program.  By using this program,
 the user acknowledges that Gaussian, Inc. is engaged in the
 business of creating and licensing software in the field of
 computational chemistry and represents and warrants to the
 licensee that it is not a competitor of Gaussian, Inc. and that
 it will not use this program in any manner prohibited above.
 ---------------------------------------------------------------
  

 Cite this work as:
 Gaussian 09, Revision C.01,
 M. J. Frisch, G. W. Trucks, H. B. Schlegel, G. E. Scuseria, 
 M. A. Robb, J. R. Cheeseman, G. Scalmani, V. Barone, B. Mennucci, 
 G. A. Petersson, H. Nakatsuji, M. Caricato, X. Li, H. P. Hratchian, 
 A. F. Izmaylov, J. Bloino, G. Zheng, J. L. Sonnenberg, M. Hada, 
 M. Ehara, K. Toyota, R. Fukuda, J. Hasegawa, M. Ishida, T. Nakajima, 
 Y. Honda, O. Kitao, H. Nakai, T. Vreven, J. A. Montgomery, Jr., 
 J. E. Peralta, F. Ogliaro, M. Bearpark, J. J. Heyd, E. Brothers, 
 K. N. Kudin, V. N. Staroverov, T. Keith, R. Kobayashi, J. Normand, 
 K. Raghavachari, A. Rendell, J. C. Burant, S. S. Iyengar, J. Tomasi, 
 M. Cossi, N. Rega, J. M. Millam, M. Klene, J. E. Knox, J. B. Cross, 
 V. Bakken, C. Adamo, J. Jaramillo, R. Gomperts, R. E. Stratmann, 
 O. Yazyev, A. J. Austin, R. Cammi, C. Pomelli, J. W. Ochterski, 
 R. L. Martin, K. Morokuma, V. G. Zakrzewski, G. A. Voth, 
 P. Salvador, J. J. Dannenberg, S. Dapprich, A. D. Daniels, 
 O. Farkas, J. B. Foresman, J. V. Ortiz, J. Cioslowski, 
 and D. J. Fox, Gaussian, Inc., Wallingford CT, 2010.
 
 ******************************************
 Gaussian 09:  EM64L-G09RevC.01 23-Sep-2011
                12-May-2020 
 ******************************************
 %mem=8GB
 %nproc=8
 Will use up to    8 processors via shared memory.
 --------------------------------------------------------
 #p lc-wpbe/aug-cc-PVTz int=ultrafine counterpoise=2 Scan
 --------------------------------------------------------
 1/38=1,60=1,62=2/1,8;
 2/12=2,17=6,18=5,29=3,40=1/2;
 1/38=1,53=5172,62=2/22;
 3/5=16,6=1,7=10,11=2,16=1,25=1,30=1,74=-41,75=-5/1,2,3;
 4//1;
 5/5=2,38=5/2;
 6/7=2,8=2,9=2,10=2,18=1,28=1/1;
 1/53=4052,62=2,63=1/22;
 3/5=7,6=11,7=10,11=2,16=1,25=1,30=1,74=-41,75=-5,82=7/1,2,3;
 4//1;
 5/5=2,38=5/2;
 6/7=2,8=2,9=2,10=2,18=1,28=1/1;
 1/53=3042,62=2,63=2/22;
 3/5=7,6=11,7=10,11=2,16=1,25=1,30=1,74=-41,75=-5,82=7/1,2,3;
 4//1;
 5/5=2,38=5/2;
 6/7=2,8=2,9=2,10=2,18=1,28=1/1;
 1/53=2032,62=2,63=3/22;
 3/5=7,6=11,7=10,11=2,16=1,25=1,30=1,74=-41,75=-5,82=7/1,2,3;
 4//1;
 5/5=2,38=5/2;
 6/7=2,8=2,9=2,10=2,18=1,28=1/1;
 1/53=1022,62=2,63=4/22;
 3/5=7,6=11,7=10,11=2,16=1,25=1,30=1,74=-41,75=-5,82=7/1,2,3;
 4//1;
 5/5=2,38=5/2;
 6/7=2,8=2,9=2,10=2,18=1,28=1/1;
 1/53=5014,62=2,63=5/22;
 1/60=1,62=2/8(1);
 99/9=1/99;
 2/29=3/2;
 1/53=5173,62=2/22;
 3/5=7,6=11,7=10,11=2,16=1,25=1,30=1,74=-41,75=-5,82=7/1,2,3;
 4/5=5,16=3/1;
 5/5=2,38=5/2;
 1/53=4053,62=2,63=1/22;
 3/5=7,6=11,7=10,11=2,16=1,25=1,30=1,74=-41,75=-5,82=7/1,2,3;
 4/5=5,16=3/1;
 5/5=2,38=5/2;
 1/53=3043,62=2,63=2/22;
 3/5=7,6=11,7=10,11=2,16=1,25=1,30=1,74=-41,75=-5,82=7/1,2,3;
 4/5=5,16=3/1;
 5/5=2,38=5/2;
 1/53=2033,62=2,63=3/22;
 3/5=7,6=11,7=10,11=2,16=1,25=1,30=1,74=-41,75=-5,82=7/1,2,3;
 4/5=5,16=3/1;
 5/5=2,38=5/2;
 1/53=1024,62=2,63=4/22;
 3/5=7,6=11,7=10,11=2,16=1,25=1,30=1,74=-41,75=-5,82=7/1,2,3;
 4/5=5,16=3/1;
 5/5=2,38=5/2;
 1/53=5014,62=2,63=5/22;
 1/60=1,62=2/8(-22);
 99/9=1/99;
 Leave Link    1 at Tue May 12 17:33:40 2020, MaxMem= 1073741824 cpu:       0.2
 (Enter /home/matheus/.gaussian/g09/l101.exe)
 ---
 TCC
 ---
 Charge =  0 Multiplicity = 1 in supermolecule
 Charge =  0 Multiplicity = 1 in fragment  1.
 Charge =  0 Multiplicity = 1 in fragment  2.
 Symbolic Z-Matrix:
 O(Fragment=1)         0.        0.        0.725 
 O(Fragment=1)         0.        0.       -0.725 
 H(Fragment=1)        -0.45936  -0.79564   1.02351 
 H(Fragment=1)         0.        0.91872  -1.02351 
 Kr(Fragment=2)        0.       R1        0. 
       Variables:
  R1                    3.     Scan 20    0.1    
 
 NAtoms=      5 NQM=        0 NQMF=       0 NMMI=      5 NMMIF=      0
                NMic=       0 NMicF=      0.
                    Isotopes and Nuclear Properties:
 (Nuclear quadrupole moments (NQMom) in fm**2, nuclear magnetic moments (NMagM)
  in nuclear magnetons)

  Atom         1           2           3           4           5
 IAtWgt=          16          16           1           1          84
 AtmWgt=  15.9949146  15.9949146   1.0078250   1.0078250  83.9115064
 NucSpn=           0           0           1           1           0
 AtZEff=   0.0000000   0.0000000   0.0000000   0.0000000   0.0000000
 NQMom=    0.0000000   0.0000000   0.0000000   0.0000000   0.0000000
 NMagM=    0.0000000   0.0000000   2.7928460   2.7928460   0.0000000
 Leave Link  101 at Tue May 12 17:33:40 2020, MaxMem= 1073741824 cpu:       0.3
 (Enter /home/matheus/.gaussian/g09/l108.exe)
 Scan the potential surface.
 Variable   Value     No. Steps Step-Size
 -------- ----------- --------- ---------
     1       3.000000      20      0.1000
 A total of     21 points will be computed.
 Leave Link  108 at Tue May 12 17:33:40 2020, MaxMem= 1073741824 cpu:       0.0
 (Enter /home/matheus/.gaussian/g09/l202.exe)
 ---------------------------------------------------------------------------------------------------
                            Z-MATRIX (ANGSTROMS AND DEGREES)
   CD    Cent   Atom    N1       Length/X        N2       Alpha/Y        N3        Beta/Z          J
 ---------------------------------------------------------------------------------------------------
      1      1  O        0   0.000000          0.000000          0.725000
      2      2  O        0   0.000000          0.000000         -0.725000
      3      3  H        0  -0.459360         -0.795635          1.023510
      4      4  H        0   0.000000          0.918721         -1.023510
      5      5  Kr       0   0.000000          3.000000          0.000000
 ---------------------------------------------------------------------------------------------------
                         Z-Matrix orientation:                         
 ---------------------------------------------------------------------
 Center     Atomic      Atomic             Coordinates (Angstroms)
 Number     Number       Type             X           Y           Z
 ---------------------------------------------------------------------
      1          8           0        0.000000    0.000000    0.725000
      2          8           0        0.000000    0.000000   -0.725000
      3          1           0       -0.459360   -0.795635    1.023510
      4          1           0        0.000000    0.918721   -1.023510
      5         36           0        0.000000    3.000000    0.000000
 ---------------------------------------------------------------------
                    Distance matrix (angstroms):
                    1          2          3          4          5
     1  O    0.000000
     2  O    1.450000   0.000000
     3  H    0.966000   1.975180   0.000000
     4  H    1.975180   0.966000   2.709303   0.000000
     5  Kr   3.086361   3.086361   3.957958   2.319331   0.000000
 Stoichiometry    H2KrO2
 Framework group  C1[X(H2KrO2)]
 Deg. of freedom     9
 Full point group                 C1      NOp   1
 Largest Abelian subgroup         C1      NOp   1
 Largest concise Abelian subgroup C1      NOp   1
                         Standard orientation:                         
 ---------------------------------------------------------------------
 Center     Atomic      Atomic             Coordinates (Angstroms)
 Number     Number       Type             X           Y           Z
 ---------------------------------------------------------------------
      1          8           0       -2.014667   -0.687062   -0.062307
      2          8           0       -1.988768    0.761329    0.000872
      3          1           0       -2.820911   -0.990551    0.374753
      4          1           0       -1.064927    1.042640    0.024073
      5         36           0        0.997592   -0.017951    0.002574
 ---------------------------------------------------------------------
 Rotational constants (GHZ):     26.4417565      2.3080537      2.1261727
 Leave Link  202 at Tue May 12 17:33:40 2020, MaxMem= 1073741824 cpu:       0.0
 (Enter /home/matheus/.gaussian/g09/l122.exe)
 Leave Link  122 at Tue May 12 17:33:40 2020, MaxMem= 1073741824 cpu:       0.0
 (Enter /home/matheus/.gaussian/g09/l301.exe)
 Standard basis: Aug-CC-pVTZ (5D, 7F)
 Ernie: Thresh=  0.10000D-02 Tol=  0.10000D-05 Strict=F.
 Ernie:  38 primitive shells out of 205 were deleted.
 There are   197 symmetry adapted basis functions of A   symmetry.
 Integral buffers will be    131072 words long.
 Raffenetti 2 integral format.
 Two-electron integral symmetry is turned on.
   197 basis functions,   415 primitive gaussians,   229 cartesian basis functions
    27 alpha electrons       27 beta electrons
       nuclear repulsion energy       148.3895250152 Hartrees.
 IExCor=32609 DFT=T Ex+Corr=LC-wPBE ExCW=0 ScaHFX=  1.000000
 ScaDFX=  1.000000  0.000000  1.000000  1.000000 ScalE2=  1.000000  1.000000
 IRadAn=      5 IRanWt=     -1 IRanGd=            0 ICorTp=0
  HFx wShort=  0.000000 wLong=  0.400000 cFull=  0.000000 cShort=  0.000000 cLong=  1.000000
  DFx wShort=  0.000000 wLong=  0.400000 cFull=  0.000000 cShort=  0.000000 cLong=  1.000000
 NAtoms=    5 NActive=    5 NUniq=    5 SFac= 1.00D+00 NAtFMM=   60 NAOKFM=F Big=F
 Leave Link  301 at Tue May 12 17:33:40 2020, MaxMem= 1073741824 cpu:       0.2
 (Enter /home/matheus/.gaussian/g09/l302.exe)
 NPDir=0 NMtPBC=     1 NCelOv=     1 NCel=       1 NClECP=     1 NCelD=      1
         NCelK=      1 NCelE2=     1 NClLst=     1 CellRange=     0.0.
 One-electron integrals computed using PRISM.
 NBasis=   197 RedAO= T  NBF=   197
 NBsUse=   197 1.00D-06 NBFU=   197
 Precomputing XC quadrature grid using
 IXCGrd= 2 IRadAn=           5 IRanWt=          -1 IRanGd=           0 AccXCQ= 0.00D+00.
 NRdTot=     427 NPtTot=      123814 NUsed=      126881 NTot=      126913
 NSgBfM=   229   229   229   229   229 NAtAll=     5     5.
 Leave Link  302 at Tue May 12 17:33:40 2020, MaxMem= 1073741824 cpu:       0.9
 (Enter /home/matheus/.gaussian/g09/l303.exe)
 DipDrv:  MaxL=1.
 Leave Link  303 at Tue May 12 17:33:40 2020, MaxMem= 1073741824 cpu:       0.2
 (Enter /home/matheus/.gaussian/g09/l401.exe)
 Harris functional with IExCor=32609 diagonalized for initial guess.
 ExpMin= 2.53D-02 ExpMax= 1.17D+07 ExpMxC= 1.33D+04 IAcc=3 IRadAn=         5 AccDes= 0.00D+00
 HarFok:  IExCor=32609 AccDes= 0.00D+00 IRadAn=         5 IDoV= 1
 ScaDFX=  1.000000  1.000000  1.000000  1.000000
 FoFCou: FMM=F IPFlag=           0 FMFlag=      100000 FMFlg1=           0
         NFxFlg=           0 DoJE=T BraDBF=F KetDBF=T FulRan=T
         Omega=  0.000000  0.000000  1.000000  0.000000  0.000000 ICntrl=     500 IOpCl=  0
         NMat0=    1 NMatS0=    1 NMatT0=    0 NMatD0=    1 NMtDS0=    0 NMtDT0=    0
         I1Cent=           4 NGrid=           0.
 Petite list used in FoFCou.
 Harris En= -2904.73745783418    
 Initial guess orbital symmetries:
       Occupied  (A) (A) (A) (A) (A) (A) (A) (A) (A) (A) (A) (A)
                 (A) (A) (A) (A) (A) (A) (A) (A) (A) (A) (A) (A)
                 (A) (A) (A)
       Virtual   (A) (A) (A) (A) (A) (A) (A) (A) (A) (A) (A) (A)
                 (A) (A) (A) (A) (A) (A) (A) (A) (A) (A) (A) (A)
                 (A) (A) (A) (A) (A) (A) (A) (A) (A) (A) (A) (A)
                 (A) (A) (A) (A) (A) (A) (A) (A) (A) (A) (A) (A)
                 (A) (A) (A) (A) (A) (A) (A) (A) (A) (A) (A) (A)
                 (A) (A) (A) (A) (A) (A) (A) (A) (A) (A) (A) (A)
                 (A) (A) (A) (A) (A) (A) (A) (A) (A) (A) (A) (A)
                 (A) (A) (A) (A) (A) (A) (A) (A) (A) (A) (A) (A)
                 (A) (A) (A) (A) (A) (A) (A) (A) (A) (A) (A) (A)
                 (A) (A) (A) (A) (A) (A) (A) (A) (A) (A) (A) (A)
                 (A) (A) (A) (A) (A) (A) (A) (A) (A) (A) (A) (A)
                 (A) (A) (A) (A) (A) (A) (A) (A) (A) (A) (A) (A)
                 (A) (A) (A) (A) (A) (A) (A) (A) (A) (A) (A) (A)
                 (A) (A) (A) (A) (A) (A) (A) (A) (A) (A) (A) (A)
                 (A) (A)
 The electronic state of the initial guess is 1-A.
 Leave Link  401 at Tue May 12 17:33:40 2020, MaxMem= 1073741824 cpu:       4.0
 (Enter /home/matheus/.gaussian/g09/l502.exe)
 Closed shell SCF:
 Requested convergence on RMS density matrix=1.00D-08 within 128 cycles.
 Requested convergence on MAX density matrix=1.00D-06.
 Requested convergence on             energy=1.00D-06.
 No special actions if energy rises.
 Using DIIS extrapolation, IDIIS=  1040.
 Integral symmetry usage will be decided dynamically.
       126823 words used for storage of precomputed grid.
 IEnd=      305770 IEndB=      305770 NGot=  1073741824 MDV=  1073505365
 LenX=  1073505365 LenY=  1073452483
 Fock matrices will be formed incrementally for  20 cycles.

 Cycle   1  Pass 1  IDiag  1:
 FoFJK:  IHMeth= 1 ICntrl=     0 DoSepK=T KAlg= 1 I1Cent= 0 FoldK=F
 FoFCou: FMM=F IPFlag=           0 FMFlag=      100000 FMFlg1=           0
         NFxFlg=           0 DoJE=T BraDBF=F KetDBF=F FulRan=T
         Omega=  0.000000  0.000000  1.000000  0.000000  0.000000 ICntrl=     500 IOpCl=  0
         NMat0=    1 NMatS0=    1 NMatT0=    0 NMatD0=    1 NMtDS0=    0 NMtDT0=    0
         I1Cent=           0 NGrid=           0.
 Symmetry not used in FoFCou.
 E= -2904.88132220190    
 DIIS: error= 2.32D-02 at cycle   1 NSaved=   1.
 NSaved= 1 IEnMin= 1 EnMin= -2904.88132220190     IErMin= 1 ErrMin= 2.32D-02
 ErrMax= 2.32D-02 EMaxC= 1.00D-01 BMatC= 2.62D-01 BMatP= 2.62D-01
 IDIUse=3 WtCom= 7.68D-01 WtEn= 2.32D-01
 Coeff-Com:  0.100D+01
 Coeff-En:   0.100D+01
 Coeff:      0.100D+01
 Gap=     0.480 Goal=   None    Shift=    0.000
 GapD=    0.480 DampG=2.000 DampE=0.500 DampFc=1.0000 IDamp=-1.
 RMSDP=2.28D-03 MaxDP=1.47D-01              OVMax= 6.28D-02

 Cycle   2  Pass 1  IDiag  1:
 RMSU=  1.59D-03    CP:  1.02D+00
 FoFJK:  IHMeth= 1 ICntrl=     0 DoSepK=T KAlg= 1 I1Cent= 0 FoldK=F
 E= -2904.92550097024     Delta-E=       -0.044178768337 Rises=F Damp=F
 DIIS: error= 9.74D-03 at cycle   2 NSaved=   2.
 NSaved= 2 IEnMin= 2 EnMin= -2904.92550097024     IErMin= 2 ErrMin= 9.74D-03
 ErrMax= 9.74D-03 EMaxC= 1.00D-01 BMatC= 7.76D-02 BMatP= 2.62D-01
 IDIUse=3 WtCom= 9.03D-01 WtEn= 9.74D-02
 Coeff-Com:  0.346D+00 0.654D+00
 Coeff-En:   0.182D+00 0.818D+00
 Coeff:      0.330D+00 0.670D+00
 Gap=     0.435 Goal=   None    Shift=    0.000
 RMSDP=9.20D-04 MaxDP=5.07D-02 DE=-4.42D-02 OVMax= 2.98D-02

 Cycle   3  Pass 1  IDiag  1:
 RMSU=  3.18D-04    CP:  1.01D+00  6.53D-01
 FoFJK:  IHMeth= 1 ICntrl=     0 DoSepK=T KAlg= 1 I1Cent= 0 FoldK=F
 E= -2904.95274879057     Delta-E=       -0.027247820337 Rises=F Damp=F
 DIIS: error= 2.06D-03 at cycle   3 NSaved=   3.
 NSaved= 3 IEnMin= 3 EnMin= -2904.95274879057     IErMin= 3 ErrMin= 2.06D-03
 ErrMax= 2.06D-03 EMaxC= 1.00D-01 BMatC= 1.66D-03 BMatP= 7.76D-02
 IDIUse=3 WtCom= 9.79D-01 WtEn= 2.06D-02
 Coeff-Com:  0.608D-01 0.189D+00 0.750D+00
 Coeff-En:   0.000D+00 0.000D+00 0.100D+01
 Coeff:      0.596D-01 0.185D+00 0.755D+00
 Gap=     0.417 Goal=   None    Shift=    0.000
 RMSDP=1.10D-04 MaxDP=2.93D-03 DE=-2.72D-02 OVMax= 7.77D-03

 Cycle   4  Pass 1  IDiag  1:
 RMSU=  5.96D-05    CP:  1.01D+00  6.79D-01  9.13D-01
 FoFJK:  IHMeth= 1 ICntrl=     0 DoSepK=T KAlg= 1 I1Cent= 0 FoldK=F
 E= -2904.95361704826     Delta-E=       -0.000868257684 Rises=F Damp=F
 DIIS: error= 5.68D-04 at cycle   4 NSaved=   4.
 NSaved= 4 IEnMin= 4 EnMin= -2904.95361704826     IErMin= 4 ErrMin= 5.68D-04
 ErrMax= 5.68D-04 EMaxC= 1.00D-01 BMatC= 1.32D-04 BMatP= 1.66D-03
 IDIUse=3 WtCom= 9.94D-01 WtEn= 5.68D-03
 Coeff-Com: -0.158D-02 0.268D-01 0.286D+00 0.689D+00
 Coeff-En:   0.000D+00 0.000D+00 0.000D+00 0.100D+01
 Coeff:     -0.157D-02 0.267D-01 0.285D+00 0.690D+00
 Gap=     0.422 Goal=   None    Shift=    0.000
 RMSDP=3.37D-05 MaxDP=1.99D-03 DE=-8.68D-04 OVMax= 1.97D-03

 Cycle   5  Pass 1  IDiag  1:
 RMSU=  1.28D-05    CP:  1.01D+00  6.83D-01  9.63D-01  8.19D-01
 FoFJK:  IHMeth= 1 ICntrl=     0 DoSepK=T KAlg= 1 I1Cent= 0 FoldK=F
 E= -2904.95369151821     Delta-E=       -0.000074469949 Rises=F Damp=F
 DIIS: error= 7.58D-05 at cycle   5 NSaved=   5.
 NSaved= 5 IEnMin= 5 EnMin= -2904.95369151821     IErMin= 5 ErrMin= 7.58D-05
 ErrMax= 7.58D-05 EMaxC= 1.00D-01 BMatC= 2.59D-06 BMatP= 1.32D-04
 IDIUse=1 WtCom= 1.00D+00 WtEn= 0.00D+00
 Coeff-Com: -0.185D-02 0.838D-03 0.446D-01 0.166D+00 0.791D+00
 Coeff:     -0.185D-02 0.838D-03 0.446D-01 0.166D+00 0.791D+00
 Gap=     0.422 Goal=   None    Shift=    0.000
 RMSDP=6.70D-06 MaxDP=2.19D-04 DE=-7.45D-05 OVMax= 5.19D-04

 Cycle   6  Pass 1  IDiag  1:
 RMSU=  4.16D-06    CP:  1.01D+00  6.83D-01  9.64D-01  8.55D-01  1.03D+00
 FoFJK:  IHMeth= 1 ICntrl=     0 DoSepK=T KAlg= 1 I1Cent= 0 FoldK=F
 E= -2904.95369291916     Delta-E=       -0.000001400953 Rises=F Damp=F
 DIIS: error= 6.27D-05 at cycle   6 NSaved=   6.
 NSaved= 6 IEnMin= 6 EnMin= -2904.95369291916     IErMin= 6 ErrMin= 6.27D-05
 ErrMax= 6.27D-05 EMaxC= 1.00D-01 BMatC= 1.09D-06 BMatP= 2.59D-06
 IDIUse=1 WtCom= 1.00D+00 WtEn= 0.00D+00
 Coeff-Com: -0.655D-03-0.302D-02-0.147D-01-0.504D-02 0.404D+00 0.620D+00
 Coeff:     -0.655D-03-0.302D-02-0.147D-01-0.504D-02 0.404D+00 0.620D+00
 Gap=     0.422 Goal=   None    Shift=    0.000
 RMSDP=3.27D-06 MaxDP=1.27D-04 DE=-1.40D-06 OVMax= 2.48D-04

 Cycle   7  Pass 1  IDiag  1:
 RMSU=  1.75D-06    CP:  1.01D+00  6.83D-01  9.64D-01  8.66D-01  1.12D+00
                    CP:  8.71D-01
 FoFJK:  IHMeth= 1 ICntrl=     0 DoSepK=T KAlg= 1 I1Cent= 0 FoldK=F
 E= -2904.95369369547     Delta-E=       -0.000000776316 Rises=F Damp=F
 DIIS: error= 1.41D-05 at cycle   7 NSaved=   7.
 NSaved= 7 IEnMin= 7 EnMin= -2904.95369369547     IErMin= 7 ErrMin= 1.41D-05
 ErrMax= 1.41D-05 EMaxC= 1.00D-01 BMatC= 5.35D-08 BMatP= 1.09D-06
 IDIUse=1 WtCom= 1.00D+00 WtEn= 0.00D+00
 Coeff-Com: -0.521D-05-0.117D-02-0.109D-01-0.242D-01 0.859D-02 0.190D+00
 Coeff-Com:  0.837D+00
 Coeff:     -0.521D-05-0.117D-02-0.109D-01-0.242D-01 0.859D-02 0.190D+00
 Coeff:      0.837D+00
 Gap=     0.422 Goal=   None    Shift=    0.000
 RMSDP=1.12D-06 MaxDP=3.01D-05 DE=-7.76D-07 OVMax= 9.08D-05

 Cycle   8  Pass 1  IDiag  1:
 RMSU=  3.72D-07    CP:  1.01D+00  6.83D-01  9.64D-01  8.71D-01  1.15D+00
                    CP:  9.93D-01  1.03D+00
 FoFJK:  IHMeth= 1 ICntrl=     0 DoSepK=T KAlg= 1 I1Cent= 0 FoldK=F
 E= -2904.95369373131     Delta-E=       -0.000000035836 Rises=F Damp=F
 DIIS: error= 2.09D-06 at cycle   8 NSaved=   8.
 NSaved= 8 IEnMin= 8 EnMin= -2904.95369373131     IErMin= 8 ErrMin= 2.09D-06
 ErrMax= 2.09D-06 EMaxC= 1.00D-01 BMatC= 8.81D-10 BMatP= 5.35D-08
 IDIUse=1 WtCom= 1.00D+00 WtEn= 0.00D+00
 Coeff-Com:  0.343D-04 0.284D-03 0.200D-02 0.332D-02-0.161D-01-0.514D-01
 Coeff-Com: -0.120D+00 0.118D+01
 Coeff:      0.343D-04 0.284D-03 0.200D-02 0.332D-02-0.161D-01-0.514D-01
 Coeff:     -0.120D+00 0.118D+01
 Gap=     0.422 Goal=   None    Shift=    0.000
 RMSDP=3.18D-07 MaxDP=6.93D-06 DE=-3.58D-08 OVMax= 3.46D-05

 Cycle   9  Pass 1  IDiag  1:
 RMSU=  9.74D-08    CP:  1.01D+00  6.83D-01  9.64D-01  8.71D-01  1.16D+00
                    CP:  1.01D+00  1.07D+00  1.39D+00
 FoFJK:  IHMeth= 1 ICntrl=     0 DoSepK=T KAlg= 1 I1Cent= 0 FoldK=F
 E= -2904.95369373426     Delta-E=       -0.000000002952 Rises=F Damp=F
 DIIS: error= 5.46D-07 at cycle   9 NSaved=   9.
 NSaved= 9 IEnMin= 9 EnMin= -2904.95369373426     IErMin= 9 ErrMin= 5.46D-07
 ErrMax= 5.46D-07 EMaxC= 1.00D-01 BMatC= 4.57D-11 BMatP= 8.81D-10
 IDIUse=1 WtCom= 1.00D+00 WtEn= 0.00D+00
 Coeff-Com: -0.338D-05 0.324D-04 0.370D-03 0.105D-02 0.724D-03-0.725D-02
 Coeff-Com: -0.366D-01-0.452D-01 0.109D+01
 Coeff:     -0.338D-05 0.324D-04 0.370D-03 0.105D-02 0.724D-03-0.725D-02
 Coeff:     -0.366D-01-0.452D-01 0.109D+01
 Gap=     0.422 Goal=   None    Shift=    0.000
 RMSDP=7.43D-08 MaxDP=2.74D-06 DE=-2.95D-09 OVMax= 7.72D-06

 Cycle  10  Pass 1  IDiag  1:
 RMSU=  2.19D-08    CP:  1.01D+00  6.83D-01  9.64D-01  8.71D-01  1.16D+00
                    CP:  1.01D+00  1.07D+00  1.48D+00  1.28D+00
 FoFJK:  IHMeth= 1 ICntrl=     0 DoSepK=T KAlg= 1 I1Cent= 0 FoldK=F
 E= -2904.95369373442     Delta-E=       -0.000000000160 Rises=F Damp=F
 DIIS: error= 1.13D-07 at cycle  10 NSaved=  10.
 NSaved=10 IEnMin=10 EnMin= -2904.95369373442     IErMin=10 ErrMin= 1.13D-07
 ErrMax= 1.13D-07 EMaxC= 1.00D-01 BMatC= 3.23D-12 BMatP= 4.57D-11
 IDIUse=1 WtCom= 1.00D+00 WtEn= 0.00D+00
 Coeff-Com: -0.134D-05-0.142D-04-0.115D-03-0.219D-03 0.949D-03 0.292D-02
 Coeff-Com:  0.693D-02-0.617D-01-0.502D-01 0.110D+01
 Coeff:     -0.134D-05-0.142D-04-0.115D-03-0.219D-03 0.949D-03 0.292D-02
 Coeff:      0.693D-02-0.617D-01-0.502D-01 0.110D+01
 Gap=     0.422 Goal=   None    Shift=    0.000
 RMSDP=2.38D-08 MaxDP=1.15D-06 DE=-1.60D-10 OVMax= 2.34D-06

 Cycle  11  Pass 1  IDiag  1:
 RMSU=  6.46D-09    CP:  1.01D+00  6.83D-01  9.64D-01  8.71D-01  1.16D+00
                    CP:  1.01D+00  1.07D+00  1.49D+00  1.39D+00  1.37D+00
 FoFJK:  IHMeth= 1 ICntrl=     0 DoSepK=T KAlg= 1 I1Cent= 0 FoldK=F
 E= -2904.95369373442     Delta-E=        0.000000000000 Rises=F Damp=F
 DIIS: error= 4.04D-08 at cycle  11 NSaved=  11.
 NSaved=11 IEnMin=10 EnMin= -2904.95369373442     IErMin=11 ErrMin= 4.04D-08
 ErrMax= 4.04D-08 EMaxC= 1.00D-01 BMatC= 4.09D-13 BMatP= 3.23D-12
 IDIUse=1 WtCom= 1.00D+00 WtEn= 0.00D+00
 Coeff-Com:  0.239D-06-0.291D-05-0.316D-04-0.923D-04-0.138D-04 0.668D-03
 Coeff-Com:  0.304D-02 0.936D-03-0.820D-01 0.341D-01 0.104D+01
 Coeff:      0.239D-06-0.291D-05-0.316D-04-0.923D-04-0.138D-04 0.668D-03
 Coeff:      0.304D-02 0.936D-03-0.820D-01 0.341D-01 0.104D+01
 Gap=     0.422 Goal=   None    Shift=    0.000
 RMSDP=7.50D-09 MaxDP=1.55D-07 DE= 0.00D+00 OVMax= 1.07D-06

 SCF Done:  E(RLC-wPBE) =  -2904.95369373     A.U. after   11 cycles
             Convg  =    0.7501D-08             -V/T =  2.0017
 KE= 2.900035945428D+03 PE=-7.233704300001D+03 EE= 1.280325135824D+03
 Leave Link  502 at Tue May 12 17:34:16 2020, MaxMem= 1073741824 cpu:     281.0
 (Enter /home/matheus/.gaussian/g09/l601.exe)
 Copying SCF densities to generalized density rwf, IOpCl= 0 IROHF=0.

 **********************************************************************

            Population analysis using the SCF density.

 **********************************************************************

 Orbital symmetries:
       Occupied  (A) (A) (A) (A) (A) (A) (A) (A) (A) (A) (A) (A)
                 (A) (A) (A) (A) (A) (A) (A) (A) (A) (A) (A) (A)
                 (A) (A) (A)
       Virtual   (A) (A) (A) (A) (A) (A) (A) (A) (A) (A) (A) (A)
                 (A) (A) (A) (A) (A) (A) (A) (A) (A) (A) (A) (A)
                 (A) (A) (A) (A) (A) (A) (A) (A) (A) (A) (A) (A)
                 (A) (A) (A) (A) (A) (A) (A) (A) (A) (A) (A) (A)
                 (A) (A) (A) (A) (A) (A) (A) (A) (A) (A) (A) (A)
                 (A) (A) (A) (A) (A) (A) (A) (A) (A) (A) (A) (A)
                 (A) (A) (A) (A) (A) (A) (A) (A) (A) (A) (A) (A)
                 (A) (A) (A) (A) (A) (A) (A) (A) (A) (A) (A) (A)
                 (A) (A) (A) (A) (A) (A) (A) (A) (A) (A) (A) (A)
                 (A) (A) (A) (A) (A) (A) (A) (A) (A) (A) (A) (A)
                 (A) (A) (A) (A) (A) (A) (A) (A) (A) (A) (A) (A)
                 (A) (A) (A) (A) (A) (A) (A) (A) (A) (A) (A) (A)
                 (A) (A) (A) (A) (A) (A) (A) (A) (A) (A) (A) (A)
                 (A) (A) (A) (A) (A) (A) (A) (A) (A) (A) (A) (A)
                 (A) (A)
 The electronic state is 1-A.
 Alpha  occ. eigenvalues -- -511.11538 -66.66229 -60.32455 -60.32436 -60.32427
 Alpha  occ. eigenvalues --  -19.03308 -19.02921  -9.59511  -7.33980  -7.33922
 Alpha  occ. eigenvalues --   -7.33898  -3.29516  -3.29504  -3.29487  -3.29444
 Alpha  occ. eigenvalues --   -3.29442  -1.25071  -1.04628  -1.03618  -0.67208
 Alpha  occ. eigenvalues --   -0.63261  -0.54179  -0.51622  -0.51020  -0.50409
 Alpha  occ. eigenvalues --   -0.46580  -0.38962
 Alpha virt. eigenvalues --    0.03271   0.04091   0.08150   0.10024   0.10467
 Alpha virt. eigenvalues --    0.11237   0.13441   0.14644   0.16643   0.17464
 Alpha virt. eigenvalues --    0.19033   0.19208   0.20605   0.23269   0.24011
 Alpha virt. eigenvalues --    0.25083   0.26949   0.29309   0.31411   0.34229
 Alpha virt. eigenvalues --    0.34370   0.34582   0.36784   0.39492   0.40405
 Alpha virt. eigenvalues --    0.41427   0.42535   0.48548   0.53146   0.55854
 Alpha virt. eigenvalues --    0.57549   0.59693   0.64058   0.66309   0.69520
 Alpha virt. eigenvalues --    0.71580   0.72437   0.73501   0.73921   0.76405
 Alpha virt. eigenvalues --    0.76755   0.78185   0.79360   0.80145   0.82860
 Alpha virt. eigenvalues --    0.85053   0.85768   0.88163   0.89813   0.91541
 Alpha virt. eigenvalues --    0.93431   0.94912   0.96351   0.98105   0.99676
 Alpha virt. eigenvalues --    1.02958   1.03965   1.05346   1.07877   1.10379
 Alpha virt. eigenvalues --    1.12160   1.13910   1.16660   1.18600   1.21189
 Alpha virt. eigenvalues --    1.27911   1.31932   1.35249   1.39388   1.41213
 Alpha virt. eigenvalues --    1.44778   1.51465   1.53147   1.56260   1.61496
 Alpha virt. eigenvalues --    1.62985   1.76666   1.81697   1.84771   1.93771
 Alpha virt. eigenvalues --    1.98776   2.01176   2.03387   2.13495   2.14188
 Alpha virt. eigenvalues --    2.15246   2.18540   2.20693   2.21337   2.24183
 Alpha virt. eigenvalues --    2.26611   2.30109   2.30820   2.31902   2.33695
 Alpha virt. eigenvalues --    2.37054   2.39265   2.44950   2.47762   2.49142
 Alpha virt. eigenvalues --    2.49277   2.51701   2.53859   2.55160   2.56960
 Alpha virt. eigenvalues --    2.59230   2.61727   2.65891   2.66532   2.70040
 Alpha virt. eigenvalues --    2.72714   2.74320   2.79749   2.84619   2.89062
 Alpha virt. eigenvalues --    2.94912   3.05717   3.09292   3.14799   3.57312
 Alpha virt. eigenvalues --    3.69181   3.83826   3.96203   4.01434   4.04815
 Alpha virt. eigenvalues --    4.08084   4.15967   4.18127   4.22503   4.25256
 Alpha virt. eigenvalues --    4.43198   4.45705   4.52640   4.53287   4.71230
 Alpha virt. eigenvalues --    4.92656   4.98701   5.01813   5.06227   5.11121
 Alpha virt. eigenvalues --    5.31886   5.41172   5.81872   6.00535   6.05281
 Alpha virt. eigenvalues --    6.10487   6.31919   6.32140   6.39179   6.48577
 Alpha virt. eigenvalues --    6.65821   6.69447   6.73303   6.79671   6.83699
 Alpha virt. eigenvalues --    6.84587   6.89225   6.90223   6.93379   6.97700
 Alpha virt. eigenvalues --    7.01500   7.20123   7.22833   7.36140   7.64600
 Alpha virt. eigenvalues --    7.80170   8.03929   8.09997  13.95590  14.51337
          Condensed to atoms (all electrons):
              1          2          3          4          5
     1  O    8.216450  -0.222175   0.208671   0.001966  -0.028767
     2  O   -0.222175   8.251297   0.012682   0.210252  -0.009032
     3  H    0.208671   0.012682   0.583012   0.002838   0.003142
     4  H    0.001966   0.210252   0.002838   0.574750  -0.013695
     5  Kr  -0.028767  -0.009032   0.003142  -0.013695  36.042732
 Mulliken atomic charges:
              1
     1  O   -0.176144
     2  O   -0.243023
     3  H    0.189656
     4  H    0.223890
     5  Kr   0.005622
 Sum of Mulliken atomic charges =   0.00000
 Mulliken charges with hydrogens summed into heavy atoms:
              1
     1  O    0.013512
     2  O   -0.019134
     5  Kr   0.005622
 Sum of Mulliken charges with hydrogens summed into heavy atoms =   0.00000
          Condensed to fragments (all electrons):
     1      -0.005622
     2       0.005622
 Electronic spatial extent (au):  <R**2>=            491.4821
 Charge=              0.0000 electrons
 Dipole moment (field-independent basis, Debye):
    X=              0.3814    Y=             -0.3231    Z=              0.7893  Tot=              0.9343
 Quadrupole moment (field-independent basis, Debye-Ang):
   XX=            -27.5306   YY=            -28.3051   ZZ=            -30.2968
   XY=              3.7585   XZ=             -2.4399   YZ=             -0.8474
 Traceless Quadrupole moment (field-independent basis, Debye-Ang):
   XX=              1.1802   YY=              0.4058   ZZ=             -1.5860
   XY=              3.7585   XZ=             -2.4399   YZ=             -0.8474
 Octapole moment (field-independent basis, Debye-Ang**2):
  XXX=              5.7075  YYY=             -0.7532  ZZZ=              0.3765  XYY=              4.4457
  XXY=            -15.4335  XXZ=              7.1523  XZZ=              7.8036  YZZ=             -0.6772
  YYZ=              1.0107  XYZ=              2.5673
 Hexadecapole moment (field-independent basis, Debye-Ang**3):
 XXXX=           -363.2478 YYYY=            -64.1416 ZZZZ=            -29.9574 XXXY=             47.0939
 XXXZ=            -21.3053 YYYX=              5.6715 YYYZ=             -1.0742 ZZZX=             -1.2428
 ZZZY=             -0.5521 XXYY=            -75.8182 XXZZ=            -77.5520 YYZZ=            -17.3038
 XXYZ=             -7.5810 YYXZ=             -2.8990 ZZXY=              1.3680
 N-N= 1.483895250152D+02 E-N=-7.233704301467D+03  KE= 2.900035945428D+03
 No NMR shielding tensors so no spin-rotation constants.
 Leave Link  601 at Tue May 12 17:34:16 2020, MaxMem= 1073741824 cpu:       0.8
 (Enter /home/matheus/.gaussian/g09/l122.exe)
 Counterpoise: doing DCBS calculation for fragment   1 NewBq=T
 Leave Link  122 at Tue May 12 17:34:16 2020, MaxMem= 1073741824 cpu:       0.0
 (Enter /home/matheus/.gaussian/g09/l301.exe)
 Basis read from rwf:  (5D, 7F)
 No pseudopotential information found on rwf file.
 There are   197 symmetry adapted basis functions of A   symmetry.
 Integral buffers will be    131072 words long.
 Raffenetti 2 integral format.
 Two-electron integral symmetry is turned on.
   197 basis functions,   415 primitive gaussians,   229 cartesian basis functions
     9 alpha electrons        9 beta electrons
       nuclear repulsion energy        36.6035600706 Hartrees.
 IExCor=32609 DFT=T Ex+Corr=LC-wPBE ExCW=0 ScaHFX=  1.000000
 ScaDFX=  1.000000  0.000000  1.000000  1.000000 ScalE2=  1.000000  1.000000
 IRadAn=      5 IRanWt=     -1 IRanGd=            0 ICorTp=0
  HFx wShort=  0.000000 wLong=  0.400000 cFull=  0.000000 cShort=  0.000000 cLong=  1.000000
  DFx wShort=  0.000000 wLong=  0.400000 cFull=  0.000000 cShort=  0.000000 cLong=  1.000000
 NAtoms=    5 NActive=    5 NUniq=    5 SFac= 1.00D+00 NAtFMM=   60 NAOKFM=F Big=F
 No density basis found on file   718.
 Leave Link  301 at Tue May 12 17:34:16 2020, MaxMem= 1073741824 cpu:       0.2
 (Enter /home/matheus/.gaussian/g09/l302.exe)
 NPDir=0 NMtPBC=     1 NCelOv=     1 NCel=       1 NClECP=     1 NCelD=      1
         NCelK=      1 NCelE2=     1 NClLst=     1 CellRange=     0.0.
 One-electron integrals computed using PRISM.
 NBasis=   197 RedAO= T  NBF=   197
 NBsUse=   197 1.00D-06 NBFU=   197
 Precomputing XC quadrature grid using
 IXCGrd= 2 IRadAn=           5 IRanWt=          -1 IRanGd=           0 AccXCQ= 0.00D+00.
 NRdTot=     427 NPtTot=      123814 NUsed=      126881 NTot=      126913
 NSgBfM=   229   229   229   229   229 NAtAll=     5     5.
 Leave Link  302 at Tue May 12 17:34:16 2020, MaxMem= 1073741824 cpu:       1.0
 (Enter /home/matheus/.gaussian/g09/l303.exe)
 DipDrv:  MaxL=1.
 Leave Link  303 at Tue May 12 17:34:16 2020, MaxMem= 1073741824 cpu:       0.2
 (Enter /home/matheus/.gaussian/g09/l401.exe)
 Harris functional with IExCor=32609 diagonalized for initial guess.
 ExpMin= 2.53D-02 ExpMax= 1.17D+07 ExpMxC= 1.33D+04 IAcc=3 IRadAn=         5 AccDes= 0.00D+00
 HarFok:  IExCor=32609 AccDes= 0.00D+00 IRadAn=         5 IDoV= 1
 ScaDFX=  1.000000  1.000000  1.000000  1.000000
 FoFCou: FMM=F IPFlag=           0 FMFlag=      100000 FMFlg1=           0
         NFxFlg=           0 DoJE=T BraDBF=F KetDBF=T FulRan=T
         Omega=  0.000000  0.000000  1.000000  0.000000  0.000000 ICntrl=     500 IOpCl=  0
         NMat0=    1 NMatS0=    1 NMatT0=    0 NMatD0=    1 NMtDS0=    0 NMtDT0=    0
         I1Cent=           4 NGrid=           0.
 Petite list used in FoFCou.
 Harris En= -151.500363404474    
 Initial guess orbital symmetries:
       Occupied  (A) (A) (A) (A) (A) (A) (A) (A) (A)
       Virtual   (A) (A) (A) (A) (A) (A) (A) (A) (A) (A) (A) (A)
                 (A) (A) (A) (A) (A) (A) (A) (A) (A) (A) (A) (A)
                 (A) (A) (A) (A) (A) (A) (A) (A) (A) (A) (A) (A)
                 (A) (A) (A) (A) (A) (A) (A) (A) (A) (A) (A) (A)
                 (A) (A) (A) (A) (A) (A) (A) (A) (A) (A) (A) (A)
                 (A) (A) (A) (A) (A) (A) (A) (A) (A) (A) (A) (A)
                 (A) (A) (A) (A) (A) (A) (A) (A) (A) (A) (A) (A)
                 (A) (A) (A) (A) (A) (A) (A) (A) (A) (A) (A) (A)
                 (A) (A) (A) (A) (A) (A) (A) (A) (A) (A) (A) (A)
                 (A) (A) (A) (A) (A) (A) (A) (A) (A) (A) (A) (A)
                 (A) (A) (A) (A) (A) (A) (A) (A) (A) (A) (A) (A)
                 (A) (A) (A) (A) (A) (A) (A) (A) (A) (A) (A) (A)
                 (A) (A) (A) (A) (A) (A) (A) (A) (A) (A) (A) (A)
                 (A) (A) (A) (A) (A) (A) (A) (A) (A) (A) (A) (A)
                 (A) (A) (A) (A) (A) (A) (A) (A) (A) (A) (A) (A)
                 (A) (A) (A) (A) (A) (A) (A) (A)
 The electronic state of the initial guess is 1-A.
 Leave Link  401 at Tue May 12 17:34:16 2020, MaxMem= 1073741824 cpu:       4.1
 (Enter /home/matheus/.gaussian/g09/l502.exe)
 Closed shell SCF:
 Requested convergence on RMS density matrix=1.00D-08 within 128 cycles.
 Requested convergence on MAX density matrix=1.00D-06.
 Requested convergence on             energy=1.00D-06.
 No special actions if energy rises.
 Using DIIS extrapolation, IDIIS=  1040.
 Integral symmetry usage will be decided dynamically.
       126823 words used for storage of precomputed grid.
 IEnd=      305770 IEndB=      305770 NGot=  1073741824 MDV=  1073505365
 LenX=  1073505365 LenY=  1073452483
 Fock matrices will be formed incrementally for  20 cycles.

 Cycle   1  Pass 1  IDiag  1:
 FoFJK:  IHMeth= 1 ICntrl=     0 DoSepK=T KAlg= 1 I1Cent= 0 FoldK=F
 FoFCou: FMM=F IPFlag=           0 FMFlag=      100000 FMFlg1=           0
         NFxFlg=           0 DoJE=T BraDBF=F KetDBF=F FulRan=T
         Omega=  0.000000  0.000000  1.000000  0.000000  0.000000 ICntrl=     500 IOpCl=  0
         NMat0=    1 NMatS0=    1 NMatT0=    0 NMatD0=    1 NMtDS0=    0 NMtDT0=    0
         I1Cent=           0 NGrid=           0.
 Symmetry not used in FoFCou.
 E= -151.497126768708    
 DIIS: error= 1.22D-02 at cycle   1 NSaved=   1.
 NSaved= 1 IEnMin= 1 EnMin= -151.497126768708     IErMin= 1 ErrMin= 1.22D-02
 ErrMax= 1.22D-02 EMaxC= 1.00D-01 BMatC= 3.83D-02 BMatP= 3.83D-02
 IDIUse=3 WtCom= 8.78D-01 WtEn= 1.22D-01
 Coeff-Com:  0.100D+01
 Coeff-En:   0.100D+01
 Coeff:      0.100D+01
 Gap=     0.481 Goal=   None    Shift=    0.000
 GapD=    0.481 DampG=2.000 DampE=0.500 DampFc=1.0000 IDamp=-1.
 RMSDP=8.04D-04 MaxDP=2.36D-02              OVMax= 5.42D-02

 Cycle   2  Pass 1  IDiag  1:
 RMSU=  5.62D-04    CP:  9.88D-01
 FoFJK:  IHMeth= 1 ICntrl=     0 DoSepK=T KAlg= 1 I1Cent= 0 FoldK=F
 E= -151.510682966188     Delta-E=       -0.013556197480 Rises=F Damp=F
 DIIS: error= 8.33D-03 at cycle   2 NSaved=   2.
 NSaved= 2 IEnMin= 2 EnMin= -151.510682966188     IErMin= 2 ErrMin= 8.33D-03
 ErrMax= 8.33D-03 EMaxC= 1.00D-01 BMatC= 2.07D-02 BMatP= 3.83D-02
 IDIUse=3 WtCom= 9.17D-01 WtEn= 8.33D-02
 Coeff-Com:  0.415D+00 0.585D+00
 Coeff-En:   0.244D+00 0.756D+00
 Coeff:      0.401D+00 0.599D+00
 Gap=     0.424 Goal=   None    Shift=    0.000
 RMSDP=4.25D-04 MaxDP=2.25D-02 DE=-1.36D-02 OVMax= 2.48D-02

 Cycle   3  Pass 1  IDiag  1:
 RMSU=  2.34D-04    CP:  9.85D-01  6.66D-01
 FoFJK:  IHMeth= 1 ICntrl=     0 DoSepK=T KAlg= 1 I1Cent= 0 FoldK=F
 E= -151.522465659328     Delta-E=       -0.011782693141 Rises=F Damp=F
 DIIS: error= 1.36D-03 at cycle   3 NSaved=   3.
 NSaved= 3 IEnMin= 3 EnMin= -151.522465659328     IErMin= 3 ErrMin= 1.36D-03
 ErrMax= 1.36D-03 EMaxC= 1.00D-01 BMatC= 3.72D-04 BMatP= 2.07D-02
 IDIUse=3 WtCom= 9.86D-01 WtEn= 1.36D-02
 Coeff-Com:  0.621D-01 0.148D+00 0.790D+00
 Coeff-En:   0.000D+00 0.000D+00 0.100D+01
 Coeff:      0.613D-01 0.146D+00 0.793D+00
 Gap=     0.418 Goal=   None    Shift=    0.000
 RMSDP=5.72D-05 MaxDP=2.40D-03 DE=-1.18D-02 OVMax= 3.87D-03

 Cycle   4  Pass 1  IDiag  1:
 RMSU=  2.95D-05    CP:  9.83D-01  7.09D-01  1.02D+00
 FoFJK:  IHMeth= 1 ICntrl=     0 DoSepK=T KAlg= 1 I1Cent= 0 FoldK=F
 E= -151.522694368300     Delta-E=       -0.000228708972 Rises=F Damp=F
 DIIS: error= 2.53D-04 at cycle   4 NSaved=   4.
 NSaved= 4 IEnMin= 4 EnMin= -151.522694368300     IErMin= 4 ErrMin= 2.53D-04
 ErrMax= 2.53D-04 EMaxC= 1.00D-01 BMatC= 1.36D-05 BMatP= 3.72D-04
 IDIUse=3 WtCom= 9.97D-01 WtEn= 2.53D-03
 Coeff-Com: -0.414D-02-0.827D-02 0.123D+00 0.890D+00
 Coeff-En:   0.000D+00 0.000D+00 0.000D+00 0.100D+01
 Coeff:     -0.413D-02-0.825D-02 0.122D+00 0.890D+00
 Gap=     0.420 Goal=   None    Shift=    0.000
 RMSDP=1.34D-05 MaxDP=9.32D-04 DE=-2.29D-04 OVMax= 8.13D-04

 Cycle   5  Pass 1  IDiag  1:
 RMSU=  5.40D-06    CP:  9.83D-01  7.08D-01  1.06D+00  1.03D+00
 FoFJK:  IHMeth= 1 ICntrl=     0 DoSepK=T KAlg= 1 I1Cent= 0 FoldK=F
 E= -151.522703776414     Delta-E=       -0.000009408114 Rises=F Damp=F
 DIIS: error= 3.54D-05 at cycle   5 NSaved=   5.
 NSaved= 5 IEnMin= 5 EnMin= -151.522703776414     IErMin= 5 ErrMin= 3.54D-05
 ErrMax= 3.54D-05 EMaxC= 1.00D-01 BMatC= 1.24D-07 BMatP= 1.36D-05
 IDIUse=1 WtCom= 1.00D+00 WtEn= 0.00D+00
 Coeff-Com: -0.103D-02-0.299D-02-0.293D-01-0.747D-01 0.111D+01
 Coeff:     -0.103D-02-0.299D-02-0.293D-01-0.747D-01 0.111D+01
 Gap=     0.421 Goal=   None    Shift=    0.000
 RMSDP=3.41D-06 MaxDP=1.15D-04 DE=-9.41D-06 OVMax= 2.20D-04

 Cycle   6  Pass 1  IDiag  1:
 RMSU=  1.17D-06    CP:  9.83D-01  7.09D-01  1.06D+00  1.07D+00  1.32D+00
 FoFJK:  IHMeth= 1 ICntrl=     0 DoSepK=T KAlg= 1 I1Cent= 0 FoldK=F
 E= -151.522704060349     Delta-E=       -0.000000283935 Rises=F Damp=F
 DIIS: error= 7.89D-06 at cycle   6 NSaved=   6.
 NSaved= 6 IEnMin= 6 EnMin= -151.522704060349     IErMin= 6 ErrMin= 7.89D-06
 ErrMax= 7.89D-06 EMaxC= 1.00D-01 BMatC= 5.07D-09 BMatP= 1.24D-07
 IDIUse=1 WtCom= 1.00D+00 WtEn= 0.00D+00
 Coeff-Com:  0.146D-03 0.394D-03-0.149D-02-0.178D-01-0.406D-01 0.106D+01
 Coeff:      0.146D-03 0.394D-03-0.149D-02-0.178D-01-0.406D-01 0.106D+01
 Gap=     0.421 Goal=   None    Shift=    0.000
 RMSDP=6.92D-07 MaxDP=1.92D-05 DE=-2.84D-07 OVMax= 5.41D-05

 Cycle   7  Pass 1  IDiag  1:
 RMSU=  2.38D-07    CP:  9.83D-01  7.09D-01  1.06D+00  1.08D+00  1.37D+00
                    CP:  1.21D+00
 FoFJK:  IHMeth= 1 ICntrl=     0 DoSepK=T KAlg= 1 I1Cent= 0 FoldK=F
 E= -151.522704090480     Delta-E=       -0.000000030131 Rises=F Damp=F
 DIIS: error= 1.58D-06 at cycle   7 NSaved=   7.
 NSaved= 7 IEnMin= 7 EnMin= -151.522704090480     IErMin= 7 ErrMin= 1.58D-06
 ErrMax= 1.58D-06 EMaxC= 1.00D-01 BMatC= 4.54D-10 BMatP= 5.07D-09
 IDIUse=1 WtCom= 1.00D+00 WtEn= 0.00D+00
 Coeff-Com:  0.353D-04 0.102D-03 0.106D-02 0.317D-02-0.463D-01-0.394D-01
 Coeff-Com:  0.108D+01
 Coeff:      0.353D-04 0.102D-03 0.106D-02 0.317D-02-0.463D-01-0.394D-01
 Coeff:      0.108D+01
 Gap=     0.421 Goal=   None    Shift=    0.000
 RMSDP=2.04D-07 MaxDP=4.36D-06 DE=-3.01D-08 OVMax= 1.89D-05

 Cycle   8  Pass 1  IDiag  1:
 RMSU=  6.92D-08    CP:  9.83D-01  7.09D-01  1.06D+00  1.08D+00  1.38D+00
                    CP:  1.28D+00  1.35D+00
 FoFJK:  IHMeth= 1 ICntrl=     0 DoSepK=T KAlg= 1 I1Cent= 0 FoldK=F
 E= -151.522704091739     Delta-E=       -0.000000001260 Rises=F Damp=F
 DIIS: error= 9.09D-07 at cycle   8 NSaved=   8.
 NSaved= 8 IEnMin= 8 EnMin= -151.522704091739     IErMin= 8 ErrMin= 9.09D-07
 ErrMax= 9.09D-07 EMaxC= 1.00D-01 BMatC= 2.70D-10 BMatP= 4.54D-10
 IDIUse=1 WtCom= 1.00D+00 WtEn= 0.00D+00
 Coeff-Com:  0.662D-05 0.188D-04 0.590D-03 0.278D-02-0.191D-01-0.964D-01
 Coeff-Com:  0.538D+00 0.574D+00
 Coeff:      0.662D-05 0.188D-04 0.590D-03 0.278D-02-0.191D-01-0.964D-01
 Coeff:      0.538D+00 0.574D+00
 Gap=     0.421 Goal=   None    Shift=    0.000
 RMSDP=5.94D-08 MaxDP=2.36D-06 DE=-1.26D-09 OVMax= 6.01D-06

 Cycle   9  Pass 1  IDiag  1:
 RMSU=  3.30D-08    CP:  9.83D-01  7.09D-01  1.06D+00  1.08D+00  1.38D+00
                    CP:  1.28D+00  1.44D+00  9.72D-01
 FoFJK:  IHMeth= 1 ICntrl=     0 DoSepK=T KAlg= 1 I1Cent= 0 FoldK=F
 E= -151.522704091988     Delta-E=       -0.000000000249 Rises=F Damp=F
 DIIS: error= 3.02D-07 at cycle   9 NSaved=   9.
 NSaved= 9 IEnMin= 9 EnMin= -151.522704091988     IErMin= 9 ErrMin= 3.02D-07
 ErrMax= 3.02D-07 EMaxC= 1.00D-01 BMatC= 2.57D-11 BMatP= 2.70D-10
 IDIUse=1 WtCom= 1.00D+00 WtEn= 0.00D+00
 Coeff-Com: -0.888D-05-0.281D-04-0.234D-03-0.471D-03 0.110D-01-0.514D-02
 Coeff-Com: -0.237D+00 0.115D+00 0.112D+01
 Coeff:     -0.888D-05-0.281D-04-0.234D-03-0.471D-03 0.110D-01-0.514D-02
 Coeff:     -0.237D+00 0.115D+00 0.112D+01
 Gap=     0.421 Goal=   None    Shift=    0.000
 RMSDP=5.66D-08 MaxDP=1.86D-06 DE=-2.49D-10 OVMax= 7.28D-06

 Cycle  10  Pass 1  IDiag  1:
 RMSU=  1.22D-08    CP:  9.83D-01  7.09D-01  1.06D+00  1.08D+00  1.38D+00
                    CP:  1.29D+00  1.53D+00  1.33D+00  1.44D+00
 FoFJK:  IHMeth= 1 ICntrl=     0 DoSepK=T KAlg= 1 I1Cent= 0 FoldK=F
 E= -151.522704092061     Delta-E=       -0.000000000073 Rises=F Damp=F
 DIIS: error= 9.66D-08 at cycle  10 NSaved=  10.
 NSaved=10 IEnMin=10 EnMin= -151.522704092061     IErMin=10 ErrMin= 9.66D-08
 ErrMax= 9.66D-08 EMaxC= 1.00D-01 BMatC= 1.54D-12 BMatP= 2.57D-11
 IDIUse=1 WtCom= 1.00D+00 WtEn= 0.00D+00
 Coeff-Com:  0.164D-05 0.567D-05-0.184D-05-0.188D-03-0.690D-03 0.125D-01
 Coeff-Com: -0.132D-01-0.727D-01-0.210D+00 0.128D+01
 Coeff:      0.164D-05 0.567D-05-0.184D-05-0.188D-03-0.690D-03 0.125D-01
 Coeff:     -0.132D-01-0.727D-01-0.210D+00 0.128D+01
 Gap=     0.421 Goal=   None    Shift=    0.000
 RMSDP=1.99D-08 MaxDP=4.19D-07 DE=-7.29D-11 OVMax= 3.01D-06

 Cycle  11  Pass 1  IDiag  1:
 RMSU=  3.33D-09    CP:  9.83D-01  7.09D-01  1.06D+00  1.08D+00  1.38D+00
                    CP:  1.29D+00  1.55D+00  1.43D+00  1.68D+00  1.57D+00
 FoFJK:  IHMeth= 1 ICntrl=     0 DoSepK=T KAlg= 1 I1Cent= 0 FoldK=F
 E= -151.522704092069     Delta-E=       -0.000000000007 Rises=F Damp=F
 DIIS: error= 2.77D-08 at cycle  11 NSaved=  11.
 NSaved=11 IEnMin=11 EnMin= -151.522704092069     IErMin=11 ErrMin= 2.77D-08
 ErrMax= 2.77D-08 EMaxC= 1.00D-01 BMatC= 1.27D-13 BMatP= 1.54D-12
 IDIUse=1 WtCom= 1.00D+00 WtEn= 0.00D+00
 Coeff-Com:  0.109D-05 0.351D-05 0.279D-04 0.579D-04-0.129D-02 0.755D-03
 Coeff-Com:  0.271D-01-0.155D-02-0.863D-01-0.198D+00 0.126D+01
 Coeff:      0.109D-05 0.351D-05 0.279D-04 0.579D-04-0.129D-02 0.755D-03
 Coeff:      0.271D-01-0.155D-02-0.863D-01-0.198D+00 0.126D+01
 Gap=     0.421 Goal=   None    Shift=    0.000
 RMSDP=6.72D-09 MaxDP=2.01D-07 DE=-7.22D-12 OVMax= 9.47D-07

 SCF Done:  E(RLC-wPBE) =  -151.522704092     A.U. after   11 cycles
             Convg  =    0.6724D-08             -V/T =  2.0068
 KE= 1.504980834891D+02 PE=-4.315009513298D+02 EE= 9.287660367799D+01
 Leave Link  502 at Tue May 12 17:34:52 2020, MaxMem= 1073741824 cpu:     279.9
 (Enter /home/matheus/.gaussian/g09/l601.exe)
 Copying SCF densities to generalized density rwf, IOpCl= 0 IROHF=0.

 **********************************************************************

            Population analysis using the SCF density.

 **********************************************************************

 Orbital symmetries:
       Occupied  (A) (A) (A) (A) (A) (A) (A) (A) (A)
       Virtual   (A) (A) (A) (A) (A) (A) (A) (A) (A) (A) (A) (A)
                 (A) (A) (A) (A) (A) (A) (A) (A) (A) (A) (A) (A)
                 (A) (A) (A) (A) (A) (A) (A) (A) (A) (A) (A) (A)
                 (A) (A) (A) (A) (A) (A) (A) (A) (A) (A) (A) (A)
                 (A) (A) (A) (A) (A) (A) (A) (A) (A) (A) (A) (A)
                 (A) (A) (A) (A) (A) (A) (A) (A) (A) (A) (A) (A)
                 (A) (A) (A) (A) (A) (A) (A) (A) (A) (A) (A) (A)
                 (A) (A) (A) (A) (A) (A) (A) (A) (A) (A) (A) (A)
                 (A) (A) (A) (A) (A) (A) (A) (A) (A) (A) (A) (A)
                 (A) (A) (A) (A) (A) (A) (A) (A) (A) (A) (A) (A)
                 (A) (A) (A) (A) (A) (A) (A) (A) (A) (A) (A) (A)
                 (A) (A) (A) (A) (A) (A) (A) (A) (A) (A) (A) (A)
                 (A) (A) (A) (A) (A) (A) (A) (A) (A) (A) (A) (A)
                 (A) (A) (A) (A) (A) (A) (A) (A) (A) (A) (A) (A)
                 (A) (A) (A) (A) (A) (A) (A) (A) (A) (A) (A) (A)
                 (A) (A) (A) (A) (A) (A) (A) (A)
 The electronic state is 1-A.
 Alpha  occ. eigenvalues --  -19.03476 -19.03474  -1.25290  -1.04178  -0.67356
 Alpha  occ. eigenvalues --   -0.62776  -0.54155  -0.47088  -0.39217
 Alpha virt. eigenvalues --    0.02840   0.03543   0.07082   0.08872   0.10044
 Alpha virt. eigenvalues --    0.10399   0.11117   0.14043   0.16574   0.17011
 Alpha virt. eigenvalues --    0.18631   0.19444   0.21026   0.23306   0.25852
 Alpha virt. eigenvalues --    0.27455   0.30279   0.31326   0.32181   0.33457
 Alpha virt. eigenvalues --    0.35877   0.38060   0.38797   0.39696   0.41236
 Alpha virt. eigenvalues --    0.42605   0.43959   0.47289   0.49047   0.49749
 Alpha virt. eigenvalues --    0.55209   0.58081   0.59957   0.64798   0.68735
 Alpha virt. eigenvalues --    0.70638   0.74748   0.75181   0.75713   0.76747
 Alpha virt. eigenvalues --    0.79473   0.82782   0.86619   0.88994   0.91047
 Alpha virt. eigenvalues --    0.92058   0.93813   0.96237   0.98018   0.99995
 Alpha virt. eigenvalues --    1.00217   1.04851   1.06154   1.09039   1.12863
 Alpha virt. eigenvalues --    1.13228   1.15872   1.17686   1.21908   1.23533
 Alpha virt. eigenvalues --    1.25719   1.30888   1.32068   1.32953   1.33757
 Alpha virt. eigenvalues --    1.34284   1.35229   1.36681   1.37844   1.42021
 Alpha virt. eigenvalues --    1.47726   1.50361   1.53644   1.54412   1.55644
 Alpha virt. eigenvalues --    1.57639   1.64353   1.68388   1.71201   1.80155
 Alpha virt. eigenvalues --    1.82160   1.83486   1.88419   1.96577   2.01774
 Alpha virt. eigenvalues --    2.04373   2.07143   2.15292   2.17199   2.22751
 Alpha virt. eigenvalues --    2.25715   2.27941   2.32207   2.35051   2.43855
 Alpha virt. eigenvalues --    2.48738   2.53632   2.55068   2.59787   2.65833
 Alpha virt. eigenvalues --    2.70364   2.72784   2.79622   2.84382   2.92507
 Alpha virt. eigenvalues --    3.04891   3.08681   3.10590   3.26121   3.30532
 Alpha virt. eigenvalues --    3.40857   3.53961   3.58469   3.69297   3.78480
 Alpha virt. eigenvalues --    3.79035   3.80760   3.82496   3.82673   3.83490
 Alpha virt. eigenvalues --    3.88275   3.89798   3.91436   3.93571   3.95397
 Alpha virt. eigenvalues --    3.98835   4.01898   4.06753   4.09480   4.11263
 Alpha virt. eigenvalues --    4.13605   4.18464   4.22825   4.29235   4.35673
 Alpha virt. eigenvalues --    4.44268   4.49848   4.55053   4.71451   4.93017
 Alpha virt. eigenvalues --    4.98995   5.01845   5.06453   5.11390   5.32263
 Alpha virt. eigenvalues --    5.41032   5.81706   6.00386   6.05141   6.10191
 Alpha virt. eigenvalues --    6.31843   6.32065   6.39034   6.48425   6.65654
 Alpha virt. eigenvalues --    6.69207   6.73074   6.79486   6.83499   6.84318
 Alpha virt. eigenvalues --    6.88842   6.90032   6.93282   6.97414   7.01376
 Alpha virt. eigenvalues --    7.19903   7.22699   7.35948   7.64407   7.79894
 Alpha virt. eigenvalues --    8.03755   8.09505  10.88438  13.95598  14.49910
 Alpha virt. eigenvalues --   14.83571  14.88654  15.10899  29.03276  29.03796
 Alpha virt. eigenvalues --   29.08195  29.13789  29.23353  49.10204 148.31636
 Alpha virt. eigenvalues --  148.39076 148.71883 752.48816
          Condensed to atoms (all electrons):
              1          2          3          4          5
     1  O    8.230378  -0.219296   0.193046  -0.002332  -0.001403
     2  O   -0.219296   8.214367   0.013201   0.209801   0.000200
     3  H    0.193046   0.013201   0.589736   0.004463   0.000479
     4  H   -0.002332   0.209801   0.004463   0.577396  -0.004592
     5  Kr  -0.001403   0.000200   0.000479  -0.004592   0.000990
 Mulliken atomic charges:
              1
     1  O   -0.200393
     2  O   -0.218272
     3  H    0.199075
     4  H    0.215264
     5  Kr   0.004326
 Sum of Mulliken atomic charges =   0.00000
 Mulliken charges with hydrogens summed into heavy atoms:
              1
     1  O   -0.001318
     2  O   -0.003009
     5  Kr   0.004326
 Sum of Mulliken charges with hydrogens summed into heavy atoms =   0.00000
          Condensed to fragments (all electrons):
     1      -0.004326
     2       0.004326
 Electronic spatial extent (au):  <R**2>=            324.2784
 Charge=              0.0000 electrons
 Dipole moment (field-independent basis, Debye):
    X=              0.2073    Y=             -0.0389    Z=              0.8105  Tot=              0.8375
 Quadrupole moment (field-independent basis, Debye-Ang):
   XX=             -9.8836   YY=            -10.7205   ZZ=            -12.7742
   XY=              3.9270   XZ=             -2.4230   YZ=             -0.8451
 Traceless Quadrupole moment (field-independent basis, Debye-Ang):
   XX=              1.2425   YY=              0.4056   ZZ=             -1.6481
   XY=              3.9270   XZ=             -2.4230   YZ=             -0.8451
 Octapole moment (field-independent basis, Debye-Ang**2):
  XXX=             57.3068  YYY=             -1.3056  ZZZ=              0.5484  XYY=             21.8423
  XXY=            -15.3813  XXZ=              7.2278  XZZ=             25.2542  YZZ=             -0.8607
  YYZ=              1.0664  XYZ=              2.5667
 Hexadecapole moment (field-independent basis, Debye-Ang**3):
 XXXX=           -238.5601 YYYY=            -45.9534 ZZZZ=            -11.8965 XXXY=             46.3812
 XXXZ=            -21.1433 YYYX=              5.0832 YYYZ=             -1.0716 ZZZX=             -1.0739
 ZZZY=             -0.5498 XXYY=            -52.0682 XXZZ=            -53.9695 YYZZ=            -11.2577
 XXYZ=             -7.5865 YYXZ=             -2.8397 ZZXY=              1.1338
 N-N= 3.660356007063D+01 E-N=-4.315009511923D+02  KE= 1.504980834891D+02
 No NMR shielding tensors so no spin-rotation constants.
 Leave Link  601 at Tue May 12 17:34:52 2020, MaxMem= 1073741824 cpu:       0.7
 (Enter /home/matheus/.gaussian/g09/l122.exe)
 Counterpoise: doing DCBS calculation for fragment   2 NewBq=T
 Leave Link  122 at Tue May 12 17:34:52 2020, MaxMem= 1073741824 cpu:       0.0
 (Enter /home/matheus/.gaussian/g09/l301.exe)
 Basis read from rwf:  (5D, 7F)
 No pseudopotential information found on rwf file.
 There are   197 symmetry adapted basis functions of A   symmetry.
 Integral buffers will be    131072 words long.
 Raffenetti 2 integral format.
 Two-electron integral symmetry is turned on.
   197 basis functions,   415 primitive gaussians,   229 cartesian basis functions
    18 alpha electrons       18 beta electrons
       nuclear repulsion energy         0.0000000000 Hartrees.
 IExCor=32609 DFT=T Ex+Corr=LC-wPBE ExCW=0 ScaHFX=  1.000000
 ScaDFX=  1.000000  0.000000  1.000000  1.000000 ScalE2=  1.000000  1.000000
 IRadAn=      5 IRanWt=     -1 IRanGd=            0 ICorTp=0
  HFx wShort=  0.000000 wLong=  0.400000 cFull=  0.000000 cShort=  0.000000 cLong=  1.000000
  DFx wShort=  0.000000 wLong=  0.400000 cFull=  0.000000 cShort=  0.000000 cLong=  1.000000
 NAtoms=    5 NActive=    5 NUniq=    5 SFac= 1.00D+00 NAtFMM=   60 NAOKFM=F Big=F
 No density basis found on file   718.
 Leave Link  301 at Tue May 12 17:34:52 2020, MaxMem= 1073741824 cpu:       0.2
 (Enter /home/matheus/.gaussian/g09/l302.exe)
 NPDir=0 NMtPBC=     1 NCelOv=     1 NCel=       1 NClECP=     1 NCelD=      1
         NCelK=      1 NCelE2=     1 NClLst=     1 CellRange=     0.0.
 One-electron integrals computed using PRISM.
 NBasis=   197 RedAO= T  NBF=   197
 NBsUse=   197 1.00D-06 NBFU=   197
 Precomputing XC quadrature grid using
 IXCGrd= 2 IRadAn=           5 IRanWt=          -1 IRanGd=           0 AccXCQ= 0.00D+00.
 NRdTot=     427 NPtTot=      123814 NUsed=      126881 NTot=      126913
 NSgBfM=   229   229   229   229   229 NAtAll=     5     5.
 Leave Link  302 at Tue May 12 17:34:52 2020, MaxMem= 1073741824 cpu:       0.9
 (Enter /home/matheus/.gaussian/g09/l303.exe)
 DipDrv:  MaxL=1.
 Leave Link  303 at Tue May 12 17:34:52 2020, MaxMem= 1073741824 cpu:       0.2
 (Enter /home/matheus/.gaussian/g09/l401.exe)
 Harris functional with IExCor=32609 diagonalized for initial guess.
 ExpMin= 2.53D-02 ExpMax= 1.17D+07 ExpMxC= 1.33D+04 IAcc=3 IRadAn=         5 AccDes= 0.00D+00
 HarFok:  IExCor=32609 AccDes= 0.00D+00 IRadAn=         5 IDoV= 1
 ScaDFX=  1.000000  1.000000  1.000000  1.000000
 FoFCou: FMM=F IPFlag=           0 FMFlag=      100000 FMFlg1=           0
         NFxFlg=           0 DoJE=T BraDBF=F KetDBF=T FulRan=T
         Omega=  0.000000  0.000000  1.000000  0.000000  0.000000 ICntrl=     500 IOpCl=  0
         NMat0=    1 NMatS0=    1 NMatT0=    0 NMatD0=    1 NMtDS0=    0 NMtDT0=    0
         I1Cent=           4 NGrid=           0.
 Petite list used in FoFCou.
 Harris En= -2753.24648795031    
 Initial guess orbital symmetries:
       Occupied  (A) (A) (A) (A) (A) (A) (A) (A) (A) (A) (A) (A)
                 (A) (A) (A) (A) (A) (A)
       Virtual   (A) (A) (A) (A) (A) (A) (A) (A) (A) (A) (A) (A)
                 (A) (A) (A) (A) (A) (A) (A) (A) (A) (A) (A) (A)
                 (A) (A) (A) (A) (A) (A) (A) (A) (A) (A) (A) (A)
                 (A) (A) (A) (A) (A) (A) (A) (A) (A) (A) (A) (A)
                 (A) (A) (A) (A) (A) (A) (A) (A) (A) (A) (A) (A)
                 (A) (A) (A) (A) (A) (A) (A) (A) (A) (A) (A) (A)
                 (A) (A) (A) (A) (A) (A) (A) (A) (A) (A) (A) (A)
                 (A) (A) (A) (A) (A) (A) (A) (A) (A) (A) (A) (A)
                 (A) (A) (A) (A) (A) (A) (A) (A) (A) (A) (A) (A)
                 (A) (A) (A) (A) (A) (A) (A) (A) (A) (A) (A) (A)
                 (A) (A) (A) (A) (A) (A) (A) (A) (A) (A) (A) (A)
                 (A) (A) (A) (A) (A) (A) (A) (A) (A) (A) (A) (A)
                 (A) (A) (A) (A) (A) (A) (A) (A) (A) (A) (A) (A)
                 (A) (A) (A) (A) (A) (A) (A) (A) (A) (A) (A) (A)
                 (A) (A) (A) (A) (A) (A) (A) (A) (A) (A) (A)
 The electronic state of the initial guess is 1-A.
 Leave Link  401 at Tue May 12 17:34:52 2020, MaxMem= 1073741824 cpu:       3.8
 (Enter /home/matheus/.gaussian/g09/l502.exe)
 Closed shell SCF:
 Requested convergence on RMS density matrix=1.00D-08 within 128 cycles.
 Requested convergence on MAX density matrix=1.00D-06.
 Requested convergence on             energy=1.00D-06.
 No special actions if energy rises.
 Using DIIS extrapolation, IDIIS=  1040.
 Integral symmetry usage will be decided dynamically.
       126823 words used for storage of precomputed grid.
 IEnd=      305770 IEndB=      305770 NGot=  1073741824 MDV=  1073505365
 LenX=  1073505365 LenY=  1073452483
 Fock matrices will be formed incrementally for  20 cycles.

 Cycle   1  Pass 1  IDiag  1:
 FoFJK:  IHMeth= 1 ICntrl=     0 DoSepK=T KAlg= 1 I1Cent= 0 FoldK=F
 FoFCou: FMM=F IPFlag=           0 FMFlag=      100000 FMFlg1=           0
         NFxFlg=           0 DoJE=T BraDBF=F KetDBF=F FulRan=T
         Omega=  0.000000  0.000000  1.000000  0.000000  0.000000 ICntrl=     500 IOpCl=  0
         NMat0=    1 NMatS0=    1 NMatT0=    0 NMatD0=    1 NMtDS0=    0 NMtDT0=    0
         I1Cent=           0 NGrid=           0.
 Symmetry not used in FoFCou.
 E= -2753.38971986993    
 DIIS: error= 2.31D-02 at cycle   1 NSaved=   1.
 NSaved= 1 IEnMin= 1 EnMin= -2753.38971986993     IErMin= 1 ErrMin= 2.31D-02
 ErrMax= 2.31D-02 EMaxC= 1.00D-01 BMatC= 2.22D-01 BMatP= 2.22D-01
 IDIUse=3 WtCom= 7.69D-01 WtEn= 2.31D-01
 Coeff-Com:  0.100D+01
 Coeff-En:   0.100D+01
 Coeff:      0.100D+01
 Gap=     0.609 Goal=   None    Shift=    0.000
 GapD=    0.609 DampG=2.000 DampE=0.500 DampFc=1.0000 IDamp=-1.
 RMSDP=2.10D-03 MaxDP=1.47D-01              OVMax= 5.10D-02

 Cycle   2  Pass 1  IDiag  1:
 RMSU=  1.45D-03    CP:  1.02D+00
 FoFJK:  IHMeth= 1 ICntrl=     0 DoSepK=T KAlg= 1 I1Cent= 0 FoldK=F
 E= -2753.42036045231     Delta-E=       -0.030640582379 Rises=F Damp=F
 DIIS: error= 9.45D-03 at cycle   2 NSaved=   2.
 NSaved= 2 IEnMin= 2 EnMin= -2753.42036045231     IErMin= 2 ErrMin= 9.45D-03
 ErrMax= 9.45D-03 EMaxC= 1.00D-01 BMatC= 5.51D-02 BMatP= 2.22D-01
 IDIUse=3 WtCom= 9.06D-01 WtEn= 9.45D-02
 Coeff-Com:  0.328D+00 0.672D+00
 Coeff-En:   0.130D+00 0.870D+00
 Coeff:      0.310D+00 0.690D+00
 Gap=     0.524 Goal=   None    Shift=    0.000
 RMSDP=7.93D-04 MaxDP=5.11D-02 DE=-3.06D-02 OVMax= 2.08D-02

 Cycle   3  Pass 1  IDiag  1:
 RMSU=  1.64D-04    CP:  1.01D+00  6.42D-01
 FoFJK:  IHMeth= 1 ICntrl=     0 DoSepK=T KAlg= 1 I1Cent= 0 FoldK=F
 E= -2753.43559310672     Delta-E=       -0.015232654409 Rises=F Damp=F
 DIIS: error= 1.02D-03 at cycle   3 NSaved=   3.
 NSaved= 3 IEnMin= 3 EnMin= -2753.43559310672     IErMin= 3 ErrMin= 1.02D-03
 ErrMax= 1.02D-03 EMaxC= 1.00D-01 BMatC= 5.21D-04 BMatP= 5.51D-02
 IDIUse=3 WtCom= 9.90D-01 WtEn= 1.02D-02
 Coeff-Com: -0.229D-03 0.877D-01 0.913D+00
 Coeff-En:   0.000D+00 0.000D+00 0.100D+01
 Coeff:     -0.227D-03 0.868D-01 0.913D+00
 Gap=     0.531 Goal=   None    Shift=    0.000
 RMSDP=7.01D-05 MaxDP=4.07D-03 DE=-1.52D-02 OVMax= 2.54D-03

 Cycle   4  Pass 1  IDiag  1:
 RMSU=  1.80D-05    CP:  1.01D+00  6.73D-01  1.00D+00
 FoFJK:  IHMeth= 1 ICntrl=     0 DoSepK=T KAlg= 1 I1Cent= 0 FoldK=F
 E= -2753.43575230843     Delta-E=       -0.000159201704 Rises=F Damp=F
 DIIS: error= 3.77D-05 at cycle   4 NSaved=   4.
 NSaved= 4 IEnMin= 4 EnMin= -2753.43575230843     IErMin= 4 ErrMin= 3.77D-05
 ErrMax= 3.77D-05 EMaxC= 1.00D-01 BMatC= 4.07D-07 BMatP= 5.21D-04
 IDIUse=1 WtCom= 1.00D+00 WtEn= 0.00D+00
 Coeff-Com: -0.126D-02-0.152D-01-0.113D+00 0.113D+01
 Coeff:     -0.126D-02-0.152D-01-0.113D+00 0.113D+01
 Gap=     0.531 Goal=   None    Shift=    0.000
 RMSDP=6.36D-06 MaxDP=2.45D-04 DE=-1.59D-04 OVMax= 3.88D-04

 Cycle   5  Pass 1  IDiag  1:
 RMSU=  2.18D-06    CP:  1.01D+00  6.72D-01  1.02D+00  1.12D+00
 FoFJK:  IHMeth= 1 ICntrl=     0 DoSepK=T KAlg= 1 I1Cent= 0 FoldK=F
 E= -2753.43575282225     Delta-E=       -0.000000513823 Rises=F Damp=F
 DIIS: error= 7.19D-06 at cycle   5 NSaved=   5.
 NSaved= 5 IEnMin= 5 EnMin= -2753.43575282225     IErMin= 5 ErrMin= 7.19D-06
 ErrMax= 7.19D-06 EMaxC= 1.00D-01 BMatC= 1.17D-08 BMatP= 4.07D-07
 IDIUse=1 WtCom= 1.00D+00 WtEn= 0.00D+00
 Coeff-Com:  0.276D-04-0.216D-02-0.247D-01 0.927D-01 0.934D+00
 Coeff:      0.276D-04-0.216D-02-0.247D-01 0.927D-01 0.934D+00
 Gap=     0.531 Goal=   None    Shift=    0.000
 RMSDP=7.19D-07 MaxDP=3.12D-05 DE=-5.14D-07 OVMax= 3.07D-05

 Cycle   6  Pass 1  IDiag  1:
 RMSU=  2.12D-07    CP:  1.01D+00  6.72D-01  1.02D+00  1.15D+00  1.03D+00
 FoFJK:  IHMeth= 1 ICntrl=     0 DoSepK=T KAlg= 1 I1Cent= 0 FoldK=F
 E= -2753.43575283174     Delta-E=       -0.000000009495 Rises=F Damp=F
 DIIS: error= 3.47D-07 at cycle   6 NSaved=   6.
 NSaved= 6 IEnMin= 6 EnMin= -2753.43575283174     IErMin= 6 ErrMin= 3.47D-07
 ErrMax= 3.47D-07 EMaxC= 1.00D-01 BMatC= 4.12D-11 BMatP= 1.17D-08
 IDIUse=1 WtCom= 1.00D+00 WtEn= 0.00D+00
 Coeff-Com:  0.251D-05 0.139D-03 0.164D-02-0.112D-01-0.807D-01 0.109D+01
 Coeff:      0.251D-05 0.139D-03 0.164D-02-0.112D-01-0.807D-01 0.109D+01
 Gap=     0.531 Goal=   None    Shift=    0.000
 RMSDP=9.82D-08 MaxDP=3.61D-06 DE=-9.50D-09 OVMax= 4.49D-06

 Cycle   7  Pass 1  IDiag  1:
 RMSU=  1.59D-08    CP:  1.01D+00  6.72D-01  1.02D+00  1.15D+00  1.05D+00
                    CP:  1.23D+00
 FoFJK:  IHMeth= 1 ICntrl=     0 DoSepK=T KAlg= 1 I1Cent= 0 FoldK=F
 E= -2753.43575283183     Delta-E=       -0.000000000085 Rises=F Damp=F
 DIIS: error= 6.07D-08 at cycle   7 NSaved=   7.
 NSaved= 7 IEnMin= 7 EnMin= -2753.43575283183     IErMin= 7 ErrMin= 6.07D-08
 ErrMax= 6.07D-08 EMaxC= 1.00D-01 BMatC= 1.42D-12 BMatP= 4.12D-11
 IDIUse=1 WtCom= 1.00D+00 WtEn= 0.00D+00
 Coeff-Com: -0.226D-06 0.239D-04 0.290D-03-0.146D-02-0.164D-01 0.125D+00
 Coeff-Com:  0.892D+00
 Coeff:     -0.226D-06 0.239D-04 0.290D-03-0.146D-02-0.164D-01 0.125D+00
 Coeff:      0.892D+00
 Gap=     0.531 Goal=   None    Shift=    0.000
 RMSDP=1.09D-08 MaxDP=4.05D-07 DE=-8.46D-11 OVMax= 6.33D-07

 Cycle   8  Pass 1  IDiag  1:
 RMSU=  3.72D-09    CP:  1.01D+00  6.72D-01  1.02D+00  1.15D+00  1.05D+00
                    CP:  1.25D+00  1.11D+00
 FoFJK:  IHMeth= 1 ICntrl=     0 DoSepK=T KAlg= 1 I1Cent= 0 FoldK=F
 E= -2753.43575283182     Delta-E=        0.000000000009 Rises=F Damp=F
 DIIS: error= 1.77D-08 at cycle   8 NSaved=   8.
 NSaved= 8 IEnMin= 7 EnMin= -2753.43575283183     IErMin= 8 ErrMin= 1.77D-08
 ErrMax= 1.77D-08 EMaxC= 1.00D-01 BMatC= 1.12D-13 BMatP= 1.42D-12
 IDIUse=1 WtCom= 1.00D+00 WtEn= 0.00D+00
 Coeff-Com: -0.283D-06-0.112D-04-0.131D-03 0.971D-03 0.521D-02-0.856D-01
 Coeff-Com:  0.676D-01 0.101D+01
 Coeff:     -0.283D-06-0.112D-04-0.131D-03 0.971D-03 0.521D-02-0.856D-01
 Coeff:      0.676D-01 0.101D+01
 Gap=     0.531 Goal=   None    Shift=    0.000
 RMSDP=3.90D-09 MaxDP=1.57D-07 DE= 8.64D-12 OVMax= 2.41D-07

 SCF Done:  E(RLC-wPBE) =  -2753.43575283     A.U. after    8 cycles
             Convg  =    0.3904D-08             -V/T =  2.0014
 KE= 2.749488471889D+03 PE=-6.578896996319D+03 EE= 1.075972771598D+03
 Leave Link  502 at Tue May 12 17:35:22 2020, MaxMem= 1073741824 cpu:     236.6
 (Enter /home/matheus/.gaussian/g09/l601.exe)
 Copying SCF densities to generalized density rwf, IOpCl= 0 IROHF=0.

 **********************************************************************

            Population analysis using the SCF density.

 **********************************************************************

 Orbital symmetries:
       Occupied  (A) (A) (A) (A) (A) (A) (A) (A) (A) (A) (A) (A)
                 (A) (A) (A) (A) (A) (A)
       Virtual   (A) (A) (A) (A) (A) (A) (A) (A) (A) (A) (A) (A)
                 (A) (A) (A) (A) (A) (A) (A) (A) (A) (A) (A) (A)
                 (A) (A) (A) (A) (A) (A) (A) (A) (A) (A) (A) (A)
                 (A) (A) (A) (A) (A) (A) (A) (A) (A) (A) (A) (A)
                 (A) (A) (A) (A) (A) (A) (A) (A) (A) (A) (A) (A)
                 (A) (A) (A) (A) (A) (A) (A) (A) (A) (A) (A) (A)
                 (A) (A) (A) (A) (A) (A) (A) (A) (A) (A) (A) (A)
                 (A) (A) (A) (A) (A) (A) (A) (A) (A) (A) (A) (A)
                 (A) (A) (A) (A) (A) (A) (A) (A) (A) (A) (A) (A)
                 (A) (A) (A) (A) (A) (A) (A) (A) (A) (A) (A) (A)
                 (A) (A) (A) (A) (A) (A) (A) (A) (A) (A) (A) (A)
                 (A) (A) (A) (A) (A) (A) (A) (A) (A) (A) (A) (A)
                 (A) (A) (A) (A) (A) (A) (A) (A) (A) (A) (A) (A)
                 (A) (A) (A) (A) (A) (A) (A) (A) (A) (A) (A) (A)
                 (A) (A) (A) (A) (A) (A) (A) (A) (A) (A) (A)
 The electronic state is 1-A.
 Alpha  occ. eigenvalues -- -511.10625 -66.65304 -60.31519 -60.31516 -60.31515
 Alpha  occ. eigenvalues --   -9.58572  -7.32996  -7.32994  -7.32994  -3.28540
 Alpha  occ. eigenvalues --   -3.28539  -3.28539  -3.28538  -3.28538  -1.03232
 Alpha  occ. eigenvalues --   -0.50220  -0.50217  -0.50216
 Alpha virt. eigenvalues --    0.02850   0.04856   0.08325   0.09671   0.10952
 Alpha virt. eigenvalues --    0.12150   0.13035   0.14255   0.16504   0.17062
 Alpha virt. eigenvalues --    0.17685   0.19595   0.21119   0.26008   0.27212
 Alpha virt. eigenvalues --    0.27809   0.28339   0.32487   0.33660   0.35474
 Alpha virt. eigenvalues --    0.35892   0.37226   0.37669   0.39298   0.41767
 Alpha virt. eigenvalues --    0.42384   0.43537   0.53804   0.55609   0.58314
 Alpha virt. eigenvalues --    0.58822   0.66531   0.66652   0.69815   0.71550
 Alpha virt. eigenvalues --    0.74732   0.75631   0.76194   0.77430   0.78090
 Alpha virt. eigenvalues --    0.80433   0.81039   0.83274   0.85119   0.85163
 Alpha virt. eigenvalues --    0.86953   0.87977   0.89404   0.91727   0.94736
 Alpha virt. eigenvalues --    0.98150   0.98515   1.01367   1.03196   1.04100
 Alpha virt. eigenvalues --    1.05936   1.07591   1.08238   1.12816   1.13530
 Alpha virt. eigenvalues --    1.14872   1.18287   1.19610   1.25457   1.27326
 Alpha virt. eigenvalues --    1.32804   1.35287   1.41708   1.44377   1.44719
 Alpha virt. eigenvalues --    1.58074   1.59486   1.63020   1.73720   1.77769
 Alpha virt. eigenvalues --    1.82455   1.86019   1.87207   1.89274   2.15261
 Alpha virt. eigenvalues --    2.19412   2.26224   2.27226   2.30677   2.30986
 Alpha virt. eigenvalues --    2.32451   2.32936   2.35991   2.37880   2.39412
 Alpha virt. eigenvalues --    2.42857   2.47753   2.48890   2.49274   2.49935
 Alpha virt. eigenvalues --    2.51540   2.54184   2.54830   2.56397   2.59535
 Alpha virt. eigenvalues --    2.62214   2.62629   2.63505   2.65211   2.67151
 Alpha virt. eigenvalues --    2.71356   2.74635   2.76665   2.81212   2.88085
 Alpha virt. eigenvalues --    2.90306   2.98612   3.04645   3.12770   3.14436
 Alpha virt. eigenvalues --    3.22447   3.27737   3.32182   3.36432   3.52054
 Alpha virt. eigenvalues --    3.60514   3.65629   3.83477   3.87157   4.03285
 Alpha virt. eigenvalues --    4.35133   4.47966   4.52094   4.55932   4.59254
 Alpha virt. eigenvalues --    4.71976   4.88349   4.89189   4.94665   5.04950
 Alpha virt. eigenvalues --    5.12849   5.16060   5.59334   5.64954   5.87263
 Alpha virt. eigenvalues --    5.94876   6.02589   6.12957   6.84013   6.85034
 Alpha virt. eigenvalues --    7.30033   7.40019   7.63225   7.64097   7.70868
 Alpha virt. eigenvalues --    7.82795   8.03987   8.10272   8.17859   8.23056
 Alpha virt. eigenvalues --    8.36716   8.39227   8.66003   8.89344   9.62170
 Alpha virt. eigenvalues --    9.70395   9.78607   9.87166   9.97073  10.04064
 Alpha virt. eigenvalues --   10.16402  10.24555  10.47927  10.93451  11.48074
 Alpha virt. eigenvalues --   11.57463  11.62781  12.03969  12.08057  13.23551
 Alpha virt. eigenvalues --   13.64845  14.53226  62.79962  64.55133
          Condensed to atoms (all electrons):
              1          2          3          4          5
     1  O    0.001646  -0.001512  -0.000748   0.000923  -0.008272
     2  O   -0.001512   0.004299   0.000457  -0.003018  -0.000355
     3  H   -0.000748   0.000457   0.000462  -0.000258   0.001803
     4  H    0.000923  -0.003018  -0.000258   0.003687  -0.028578
     5  Kr  -0.008272  -0.000355   0.001803  -0.028578  36.069023
 Mulliken atomic charges:
              1
     1  O    0.007963
     2  O    0.000129
     3  H   -0.001716
     4  H    0.027243
     5  Kr  -0.033620
 Sum of Mulliken atomic charges =   0.00000
 Mulliken charges with hydrogens summed into heavy atoms:
              1
     1  O    0.006248
     2  O    0.027373
     5  Kr  -0.033620
 Sum of Mulliken charges with hydrogens summed into heavy atoms =   0.00000
          Condensed to fragments (all electrons):
     1       0.033620
     2      -0.033620
 Electronic spatial extent (au):  <R**2>=            167.2866
 Charge=              0.0000 electrons
 Dipole moment (field-independent basis, Debye):
    X=             -0.0008    Y=              0.0004    Z=              0.0000  Tot=              0.0009
 Quadrupole moment (field-independent basis, Debye-Ang):
   XX=            -17.6152   YY=            -17.6228   ZZ=            -17.6277
   XY=             -0.0036   XZ=              0.0001   YZ=              0.0002
 Traceless Quadrupole moment (field-independent basis, Debye-Ang):
   XX=              0.0067   YY=             -0.0009   ZZ=             -0.0058
   XY=             -0.0036   XZ=              0.0001   YZ=              0.0002
 Octapole moment (field-independent basis, Debye-Ang**2):
  XXX=            -52.7177  YYY=              0.9495  ZZZ=             -0.1355  XYY=            -17.5811
  XXY=              0.3092  XXZ=             -0.0454  XZZ=            -17.5835  YZZ=              0.3170
  YYZ=             -0.0449  XYZ=              0.0002
 Hexadecapole moment (field-independent basis, Debye-Ang**3):
 XXXX=           -123.5458 YYYY=            -18.4061 ZZZZ=            -18.3869 XXXY=              0.9316
 XXXZ=             -0.1356 YYYX=              0.9354 YYYZ=              0.0018 ZZZX=             -0.1354
 ZZZY=              0.0030 XXYY=            -23.6654 XXZZ=            -23.6627 YYZZ=             -6.1299
 XXYZ=              0.0011 YYXZ=             -0.0452 ZZXY=              0.3107
 N-N= 0.000000000000D+00 E-N=-6.578896998051D+03  KE= 2.749488471889D+03
 No NMR shielding tensors so no spin-rotation constants.
 Leave Link  601 at Tue May 12 17:35:22 2020, MaxMem= 1073741824 cpu:       0.8
 (Enter /home/matheus/.gaussian/g09/l122.exe)
 Counterpoise: doing MCBS calculation for fragment   1
 Leave Link  122 at Tue May 12 17:35:22 2020, MaxMem= 1073741824 cpu:       0.0
 (Enter /home/matheus/.gaussian/g09/l301.exe)
 Basis read from rwf:  (5D, 7F)
 No pseudopotential information found on rwf file.
 There are   138 symmetry adapted basis functions of A   symmetry.
 Integral buffers will be    131072 words long.
 Raffenetti 2 integral format.
 Two-electron integral symmetry is turned on.
   138 basis functions,   198 primitive gaussians,   160 cartesian basis functions
     9 alpha electrons        9 beta electrons
       nuclear repulsion energy        36.6035600706 Hartrees.
 IExCor=32609 DFT=T Ex+Corr=LC-wPBE ExCW=0 ScaHFX=  1.000000
 ScaDFX=  1.000000  0.000000  1.000000  1.000000 ScalE2=  1.000000  1.000000
 IRadAn=      5 IRanWt=     -1 IRanGd=            0 ICorTp=0
  HFx wShort=  0.000000 wLong=  0.400000 cFull=  0.000000 cShort=  0.000000 cLong=  1.000000
  DFx wShort=  0.000000 wLong=  0.400000 cFull=  0.000000 cShort=  0.000000 cLong=  1.000000
 NAtoms=    5 NActive=    4 NUniq=    4 SFac= 1.00D+00 NAtFMM=   60 NAOKFM=F Big=F
 No density basis found on file   718.
 Leave Link  301 at Tue May 12 17:35:22 2020, MaxMem= 1073741824 cpu:       0.2
 (Enter /home/matheus/.gaussian/g09/l302.exe)
 NPDir=0 NMtPBC=     1 NCelOv=     1 NCel=       1 NClECP=     1 NCelD=      1
         NCelK=      1 NCelE2=     1 NClLst=     1 CellRange=     0.0.
 One-electron integrals computed using PRISM.
 NBasis=   138 RedAO= T  NBF=   138
 NBsUse=   138 1.00D-06 NBFU=   138
 Precomputing XC quadrature grid using
 IXCGrd= 2 IRadAn=           5 IRanWt=          -1 IRanGd=           0 AccXCQ= 0.00D+00.
 NRdTot=     344 NPtTot=       92556 NUsed=       95038 NTot=       95070
 NSgBfM=   160   160   160   160   160 NAtAll=     4     4.
 Leave Link  302 at Tue May 12 17:35:22 2020, MaxMem= 1073741824 cpu:       0.7
 (Enter /home/matheus/.gaussian/g09/l303.exe)
 DipDrv:  MaxL=1.
 Leave Link  303 at Tue May 12 17:35:22 2020, MaxMem= 1073741824 cpu:       0.1
 (Enter /home/matheus/.gaussian/g09/l401.exe)
 Harris functional with IExCor=32609 diagonalized for initial guess.
 ExpMin= 2.53D-02 ExpMax= 1.53D+04 ExpMxC= 5.22D+02 IAcc=3 IRadAn=         5 AccDes= 0.00D+00
 HarFok:  IExCor=32609 AccDes= 0.00D+00 IRadAn=         5 IDoV= 1
 ScaDFX=  1.000000  1.000000  1.000000  1.000000
 FoFCou: FMM=F IPFlag=           0 FMFlag=      100000 FMFlg1=           0
         NFxFlg=           0 DoJE=T BraDBF=F KetDBF=T FulRan=T
         Omega=  0.000000  0.000000  1.000000  0.000000  0.000000 ICntrl=     500 IOpCl=  0
         NMat0=    1 NMatS0=    1 NMatT0=    0 NMatD0=    1 NMtDS0=    0 NMtDT0=    0
         I1Cent=           4 NGrid=           0.
 Petite list used in FoFCou.
 Harris En= -151.500293044521    
 Initial guess orbital symmetries:
       Occupied  (A) (A) (A) (A) (A) (A) (A) (A) (A)
       Virtual   (A) (A) (A) (A) (A) (A) (A) (A) (A) (A) (A) (A)
                 (A) (A) (A) (A) (A) (A) (A) (A) (A) (A) (A) (A)
                 (A) (A) (A) (A) (A) (A) (A) (A) (A) (A) (A) (A)
                 (A) (A) (A) (A) (A) (A) (A) (A) (A) (A) (A) (A)
                 (A) (A) (A) (A) (A) (A) (A) (A) (A) (A) (A) (A)
                 (A) (A) (A) (A) (A) (A) (A) (A) (A) (A) (A) (A)
                 (A) (A) (A) (A) (A) (A) (A) (A) (A) (A) (A) (A)
                 (A) (A) (A) (A) (A) (A) (A) (A) (A) (A) (A) (A)
                 (A) (A) (A) (A) (A) (A) (A) (A) (A) (A) (A) (A)
                 (A) (A) (A) (A) (A) (A) (A) (A) (A) (A) (A) (A)
                 (A) (A) (A) (A) (A) (A) (A) (A) (A)
 The electronic state of the initial guess is 1-A.
 Leave Link  401 at Tue May 12 17:35:23 2020, MaxMem= 1073741824 cpu:       2.1
 (Enter /home/matheus/.gaussian/g09/l502.exe)
 Closed shell SCF:
 Requested convergence on RMS density matrix=1.00D-08 within 128 cycles.
 Requested convergence on MAX density matrix=1.00D-06.
 Requested convergence on             energy=1.00D-06.
 No special actions if energy rises.
 Using DIIS extrapolation, IDIIS=  1040.
 Integral symmetry usage will be decided dynamically.
        94980 words used for storage of precomputed grid.
 IEnd=      192360 IEndB=      192360 NGot=  1073741824 MDV=  1073591865
 LenX=  1073591865 LenY=  1073565824
 Fock matrices will be formed incrementally for  20 cycles.

 Cycle   1  Pass 1  IDiag  1:
 FoFJK:  IHMeth= 1 ICntrl=     0 DoSepK=T KAlg= 1 I1Cent= 0 FoldK=F
 FoFCou: FMM=F IPFlag=           0 FMFlag=      100000 FMFlg1=           0
         NFxFlg=           0 DoJE=T BraDBF=F KetDBF=F FulRan=T
         Omega=  0.000000  0.000000  1.000000  0.000000  0.000000 ICntrl=     500 IOpCl=  0
         NMat0=    1 NMatS0=    1 NMatT0=    0 NMatD0=    1 NMtDS0=    0 NMtDT0=    0
         I1Cent=           0 NGrid=           0.
 Symmetry not used in FoFCou.
 E= -151.497099093350    
 DIIS: error= 1.74D-02 at cycle   1 NSaved=   1.
 NSaved= 1 IEnMin= 1 EnMin= -151.497099093350     IErMin= 1 ErrMin= 1.74D-02
 ErrMax= 1.74D-02 EMaxC= 1.00D-01 BMatC= 3.82D-02 BMatP= 3.82D-02
 IDIUse=3 WtCom= 8.26D-01 WtEn= 1.74D-01
 Coeff-Com:  0.100D+01
 Coeff-En:   0.100D+01
 Coeff:      0.100D+01
 Gap=     0.481 Goal=   None    Shift=    0.000
 GapD=    0.481 DampG=2.000 DampE=0.500 DampFc=1.0000 IDamp=-1.
 RMSDP=1.19D-03 MaxDP=2.47D-02              OVMax= 5.42D-02

 Cycle   2  Pass 1  IDiag  1:
 RMSU=  8.30D-04    CP:  9.88D-01
 FoFJK:  IHMeth= 1 ICntrl=     0 DoSepK=T KAlg= 1 I1Cent= 0 FoldK=F
 E= -151.510644746078     Delta-E=       -0.013545652728 Rises=F Damp=F
 DIIS: error= 1.11D-02 at cycle   2 NSaved=   2.
 NSaved= 2 IEnMin= 2 EnMin= -151.510644746078     IErMin= 2 ErrMin= 1.11D-02
 ErrMax= 1.11D-02 EMaxC= 1.00D-01 BMatC= 2.07D-02 BMatP= 3.82D-02
 IDIUse=3 WtCom= 8.89D-01 WtEn= 1.11D-01
 Coeff-Com:  0.415D+00 0.585D+00
 Coeff-En:   0.244D+00 0.756D+00
 Coeff:      0.396D+00 0.604D+00
 Gap=     0.428 Goal=   None    Shift=    0.000
 RMSDP=6.12D-04 MaxDP=2.24D-02 DE=-1.35D-02 OVMax= 2.50D-02

 Cycle   3  Pass 1  IDiag  1:
 RMSU=  3.32D-04    CP:  9.85D-01  6.67D-01
 FoFJK:  IHMeth= 1 ICntrl=     0 DoSepK=T KAlg= 1 I1Cent= 0 FoldK=F
 E= -151.522395377046     Delta-E=       -0.011750630968 Rises=F Damp=F
 DIIS: error= 2.32D-03 at cycle   3 NSaved=   3.
 NSaved= 3 IEnMin= 3 EnMin= -151.522395377046     IErMin= 3 ErrMin= 2.32D-03
 ErrMax= 2.32D-03 EMaxC= 1.00D-01 BMatC= 4.10D-04 BMatP= 2.07D-02
 IDIUse=3 WtCom= 9.77D-01 WtEn= 2.32D-02
 Coeff-Com:  0.622D-01 0.154D+00 0.784D+00
 Coeff-En:   0.000D+00 0.000D+00 0.100D+01
 Coeff:      0.607D-01 0.150D+00 0.789D+00
 Gap=     0.421 Goal=   None    Shift=    0.000
 RMSDP=8.54D-05 MaxDP=2.25D-03 DE=-1.18D-02 OVMax= 3.98D-03

 Cycle   4  Pass 1  IDiag  1:
 RMSU=  4.21D-05    CP:  9.83D-01  7.14D-01  1.02D+00
 FoFJK:  IHMeth= 1 ICntrl=     0 DoSepK=T KAlg= 1 I1Cent= 0 FoldK=F
 E= -151.522647804137     Delta-E=       -0.000252427091 Rises=F Damp=F
 DIIS: error= 3.65D-04 at cycle   4 NSaved=   4.
 NSaved= 4 IEnMin= 4 EnMin= -151.522647804137     IErMin= 4 ErrMin= 3.65D-04
 ErrMax= 3.65D-04 EMaxC= 1.00D-01 BMatC= 1.44D-05 BMatP= 4.10D-04
 IDIUse=3 WtCom= 9.96D-01 WtEn= 3.65D-03
 Coeff-Com: -0.413D-02-0.773D-02 0.124D+00 0.888D+00
 Coeff-En:   0.000D+00 0.000D+00 0.000D+00 0.100D+01
 Coeff:     -0.412D-02-0.770D-02 0.124D+00 0.888D+00
 Gap=     0.423 Goal=   None    Shift=    0.000
 RMSDP=1.92D-05 MaxDP=9.36D-04 DE=-2.52D-04 OVMax= 8.19D-04

 Cycle   5  Pass 1  IDiag  1:
 RMSU=  7.53D-06    CP:  9.83D-01  7.13D-01  1.05D+00  1.03D+00
 FoFJK:  IHMeth= 1 ICntrl=     0 DoSepK=T KAlg= 1 I1Cent= 0 FoldK=F
 E= -151.522657696726     Delta-E=       -0.000009892589 Rises=F Damp=F
 DIIS: error= 4.54D-05 at cycle   5 NSaved=   5.
 NSaved= 5 IEnMin= 5 EnMin= -151.522657696726     IErMin= 5 ErrMin= 4.54D-05
 ErrMax= 4.54D-05 EMaxC= 1.00D-01 BMatC= 1.24D-07 BMatP= 1.44D-05
 IDIUse=1 WtCom= 1.00D+00 WtEn= 0.00D+00
 Coeff-Com: -0.103D-02-0.317D-02-0.295D-01-0.752D-01 0.111D+01
 Coeff:     -0.103D-02-0.317D-02-0.295D-01-0.752D-01 0.111D+01
 Gap=     0.424 Goal=   None    Shift=    0.000
 RMSDP=4.74D-06 MaxDP=1.03D-04 DE=-9.89D-06 OVMax= 2.21D-04

 Cycle   6  Pass 1  IDiag  1:
 RMSU=  1.60D-06    CP:  9.83D-01  7.15D-01  1.05D+00  1.07D+00  1.31D+00
 FoFJK:  IHMeth= 1 ICntrl=     0 DoSepK=T KAlg= 1 I1Cent= 0 FoldK=F
 E= -151.522657971504     Delta-E=       -0.000000274778 Rises=F Damp=F
 DIIS: error= 9.75D-06 at cycle   6 NSaved=   6.
 NSaved= 6 IEnMin= 6 EnMin= -151.522657971504     IErMin= 6 ErrMin= 9.75D-06
 ErrMax= 9.75D-06 EMaxC= 1.00D-01 BMatC= 5.00D-09 BMatP= 1.24D-07
 IDIUse=1 WtCom= 1.00D+00 WtEn= 0.00D+00
 Coeff-Com:  0.147D-03 0.392D-03-0.151D-02-0.177D-01-0.414D-01 0.106D+01
 Coeff:      0.147D-03 0.392D-03-0.151D-02-0.177D-01-0.414D-01 0.106D+01
 Gap=     0.424 Goal=   None    Shift=    0.000
 RMSDP=9.27D-07 MaxDP=1.45D-05 DE=-2.75D-07 OVMax= 5.39D-05

 Cycle   7  Pass 1  IDiag  1:
 RMSU=  3.35D-07    CP:  9.83D-01  7.15D-01  1.05D+00  1.07D+00  1.36D+00
                    CP:  1.21D+00
 FoFJK:  IHMeth= 1 ICntrl=     0 DoSepK=T KAlg= 1 I1Cent= 0 FoldK=F
 E= -151.522657982102     Delta-E=       -0.000000010598 Rises=F Damp=F
 DIIS: error= 2.35D-06 at cycle   7 NSaved=   7.
[...]
 Gap=     0.530 Goal=   None    Shift=    0.000
 RMSDP=1.56D-05 MaxDP=7.04D-04              OVMax= 2.58D-04

 Cycle   2  Pass 1  IDiag  1:
 RMSU=  1.11D-05    CP:  1.00D+00
 FoFJK:  IHMeth= 1 ICntrl=     0 DoSepK=T KAlg= 1 I1Cent= 0 FoldK=F
 E= -2753.43565068085     Delta-E=       -0.000000456854 Rises=F Damp=F
 DIIS: error= 2.79D-06 at cycle   2 NSaved=   2.
 NSaved= 2 IEnMin= 2 EnMin= -2753.43565068085     IErMin= 2 ErrMin= 2.79D-06
 ErrMax= 2.79D-06 EMaxC= 1.00D-01 BMatC= 2.71D-09 BMatP= 5.10D-06
 IDIUse=1 WtCom= 1.00D+00 WtEn= 0.00D+00
 Coeff-Com: -0.639D-02 0.101D+01
 Coeff:     -0.639D-02 0.101D+01
 Gap=     0.530 Goal=   None    Shift=    0.000
 RMSDP=1.39D-06 MaxDP=5.40D-05 DE=-4.57D-07 OVMax= 3.85D-05

 Cycle   3  Pass 1  IDiag  1:
 RMSU=  4.74D-07    CP:  1.00D+00  1.08D+00
 FoFJK:  IHMeth= 1 ICntrl=     0 DoSepK=T KAlg= 1 I1Cent= 0 FoldK=F
 E= -2753.43565068552     Delta-E=       -0.000000004667 Rises=F Damp=F
 DIIS: error= 4.33D-07 at cycle   3 NSaved=   3.
 NSaved= 3 IEnMin= 3 EnMin= -2753.43565068552     IErMin= 3 ErrMin= 4.33D-07
 ErrMax= 4.33D-07 EMaxC= 1.00D-01 BMatC= 7.76D-11 BMatP= 2.71D-09
 IDIUse=1 WtCom= 1.00D+00 WtEn= 0.00D+00
 Coeff-Com:  0.187D-03-0.103D+00 0.110D+01
 Coeff:      0.187D-03-0.103D+00 0.110D+01
 Gap=     0.530 Goal=   None    Shift=    0.000
 RMSDP=1.63D-07 MaxDP=6.15D-06 DE=-4.67D-09 OVMax= 7.68D-06

 Cycle   4  Pass 1  IDiag  1:
 RMSU=  5.18D-08    CP:  1.00D+00  1.08D+00  1.18D+00
 FoFJK:  IHMeth= 1 ICntrl=     0 DoSepK=T KAlg= 1 I1Cent= 0 FoldK=F
 E= -2753.43565068564     Delta-E=       -0.000000000125 Rises=F Damp=F
 DIIS: error= 2.64D-07 at cycle   4 NSaved=   4.
 NSaved= 4 IEnMin= 4 EnMin= -2753.43565068564     IErMin= 4 ErrMin= 2.64D-07
 ErrMax= 2.64D-07 EMaxC= 1.00D-01 BMatC= 1.28D-11 BMatP= 7.76D-11
 IDIUse=1 WtCom= 1.00D+00 WtEn= 0.00D+00
 Coeff-Com:  0.185D-03-0.532D-01 0.334D+00 0.719D+00
 Coeff:      0.185D-03-0.532D-01 0.334D+00 0.719D+00
 Gap=     0.530 Goal=   None    Shift=    0.000
 RMSDP=1.82D-08 MaxDP=7.29D-07 DE=-1.25D-10 OVMax= 8.93D-07

 Cycle   5  Pass 1  IDiag  1:
 RMSU=  9.35D-09    CP:  1.00D+00  1.08D+00  1.19D+00  1.10D+00
 FoFJK:  IHMeth= 1 ICntrl=     0 DoSepK=T KAlg= 1 I1Cent= 0 FoldK=F
 E= -2753.43565068566     Delta-E=       -0.000000000011 Rises=F Damp=F
 DIIS: error= 3.21D-08 at cycle   5 NSaved=   5.
 NSaved= 5 IEnMin= 5 EnMin= -2753.43565068566     IErMin= 5 ErrMin= 3.21D-08
 ErrMax= 3.21D-08 EMaxC= 1.00D-01 BMatC= 1.96D-13 BMatP= 1.28D-11
 IDIUse=1 WtCom= 1.00D+00 WtEn= 0.00D+00
 Coeff-Com:  0.386D-05 0.161D-02-0.293D-01 0.187D-01 0.101D+01
 Coeff:      0.386D-05 0.161D-02-0.293D-01 0.187D-01 0.101D+01
 Gap=     0.530 Goal=   None    Shift=    0.000
 RMSDP=8.18D-09 MaxDP=4.86D-07 DE=-1.09D-11 OVMax= 3.21D-07

 SCF Done:  E(RLC-wPBE) =  -2753.43565069     A.U. after    5 cycles
             Convg  =    0.8182D-08             -V/T =  2.0014
 KE= 2.749528247601D+03 PE=-6.578941147856D+03 EE= 1.075977249569D+03
 Leave Link  502 at Tue May 12 17:59:40 2020, MaxMem= 1073741824 cpu:      92.4
 (Enter /home/matheus/.gaussian/g09/l122.exe)
 Restoring MOs from calculation   4 to rwf.
 Counterpoise: doing MCBS calculation for fragment   1
 Leave Link  122 at Tue May 12 17:59:40 2020, MaxMem= 1073741824 cpu:       0.0
 (Enter /home/matheus/.gaussian/g09/l301.exe)
 Basis read from rwf:  (5D, 7F)
 No pseudopotential information found on rwf file.
 There are   138 symmetry adapted basis functions of A   symmetry.
 Integral buffers will be    131072 words long.
 Raffenetti 2 integral format.
 Two-electron integral symmetry is turned on.
   138 basis functions,   198 primitive gaussians,   160 cartesian basis functions
     9 alpha electrons        9 beta electrons
       nuclear repulsion energy        36.6035600706 Hartrees.
 IExCor=32609 DFT=T Ex+Corr=LC-wPBE ExCW=0 ScaHFX=  1.000000
 ScaDFX=  1.000000  0.000000  1.000000  1.000000 ScalE2=  1.000000  1.000000
 IRadAn=      5 IRanWt=     -1 IRanGd=            0 ICorTp=0
  HFx wShort=  0.000000 wLong=  0.400000 cFull=  0.000000 cShort=  0.000000 cLong=  1.000000
  DFx wShort=  0.000000 wLong=  0.400000 cFull=  0.000000 cShort=  0.000000 cLong=  1.000000
 NAtoms=    5 NActive=    4 NUniq=    4 SFac= 1.00D+00 NAtFMM=   60 NAOKFM=F Big=F
 No density basis found on file   718.
 Leave Link  301 at Tue May 12 17:59:40 2020, MaxMem= 1073741824 cpu:       0.2
 (Enter /home/matheus/.gaussian/g09/l302.exe)
 NPDir=0 NMtPBC=     1 NCelOv=     1 NCel=       1 NClECP=     1 NCelD=      1
         NCelK=      1 NCelE2=     1 NClLst=     1 CellRange=     0.0.
 One-electron integrals computed using PRISM.
 NBasis=   138 RedAO= T  NBF=   138
 NBsUse=   138 1.00D-06 NBFU=   138
 Precomputing XC quadrature grid using
 IXCGrd= 2 IRadAn=           5 IRanWt=          -1 IRanGd=           0 AccXCQ= 0.00D+00.
 NRdTot=     344 NPtTot=       92556 NUsed=       95038 NTot=       95070
 NSgBfM=   160   160   160   160   160 NAtAll=     4     4.
 Leave Link  302 at Tue May 12 17:59:40 2020, MaxMem= 1073741824 cpu:       0.8
 (Enter /home/matheus/.gaussian/g09/l303.exe)
 DipDrv:  MaxL=1.
 Leave Link  303 at Tue May 12 17:59:40 2020, MaxMem= 1073741824 cpu:       0.2
 (Enter /home/matheus/.gaussian/g09/l401.exe)
 Initial guess read from the read-write file.
 Guess basis will be translated and rotated to current coordinates.
 Initial guess orbital symmetries:
       Occupied  (A) (A) (A) (A) (A) (A) (A) (A) (A)
       Virtual   (A) (A) (A) (A) (A) (A) (A) (A) (A) (A) (A) (A)
                 (A) (A) (A) (A) (A) (A) (A) (A) (A) (A) (A) (A)
                 (A) (A) (A) (A) (A) (A) (A) (A) (A) (A) (A) (A)
                 (A) (A) (A) (A) (A) (A) (A) (A) (A) (A) (A) (A)
                 (A) (A) (A) (A) (A) (A) (A) (A) (A) (A) (A) (A)
                 (A) (A) (A) (A) (A) (A) (A) (A) (A) (A) (A) (A)
                 (A) (A) (A) (A) (A) (A) (A) (A) (A) (A) (A) (A)
                 (A) (A) (A) (A) (A) (A) (A) (A) (A) (A) (A) (A)
                 (A) (A) (A) (A) (A) (A) (A) (A) (A) (A) (A) (A)
                 (A) (A) (A) (A) (A) (A) (A) (A) (A) (A) (A) (A)
                 (A) (A) (A) (A) (A) (A) (A) (A) (A)
 The electronic state of the initial guess is 1-A.
 Generating alternative initial guess.
 Harris functional with IExCor=32609 diagonalized for initial guess.
 ExpMin= 2.53D-02 ExpMax= 1.53D+04 ExpMxC= 5.22D+02 IAcc=3 IRadAn=         5 AccDes= 0.00D+00
 HarFok:  IExCor=32609 AccDes= 0.00D+00 IRadAn=         5 IDoV= 1
 ScaDFX=  1.000000  1.000000  1.000000  1.000000
 FoFCou: FMM=F IPFlag=           0 FMFlag=      100000 FMFlg1=           0
         NFxFlg=           0 DoJE=T BraDBF=F KetDBF=T FulRan=T
         Omega=  0.000000  0.000000  1.000000  0.000000  0.000000 ICntrl=     500 IOpCl=  0
         NMat0=    1 NMatS0=    1 NMatT0=    0 NMatD0=    1 NMtDS0=    0 NMtDT0=    0
         I1Cent=           4 NGrid=           0.
 Petite list used in FoFCou.
 Harris En= -151.500292992813    
 Leave Link  401 at Tue May 12 17:59:41 2020, MaxMem= 1073741824 cpu:       2.4
 (Enter /home/matheus/.gaussian/g09/l502.exe)
 Closed shell SCF:
 Requested convergence on RMS density matrix=1.00D-08 within 128 cycles.
 Requested convergence on MAX density matrix=1.00D-06.
 Requested convergence on             energy=1.00D-06.
 No special actions if energy rises.
 Using DIIS extrapolation, IDIIS=  1040.
 Integral symmetry usage will be decided dynamically.
        94980 words used for storage of precomputed grid.
 IEnd=      192360 IEndB=      192360 NGot=  1073741824 MDV=  1073591865
 LenX=  1073591865 LenY=  1073565824
 Fock matrices will be formed incrementally for  20 cycles.

 Cycle   1  Pass 1  IDiag  1:
 FoFJK:  IHMeth= 1 ICntrl=     0 DoSepK=T KAlg= 1 I1Cent= 0 FoldK=F
 FoFCou: FMM=F IPFlag=           0 FMFlag=      100000 FMFlg1=           0
         NFxFlg=           0 DoJE=T BraDBF=F KetDBF=F FulRan=T
         Omega=  0.000000  0.000000  1.000000  0.000000  0.000000 ICntrl=     500 IOpCl=  0
         NMat0=    1 NMatS0=    1 NMatT0=    0 NMatD0=    1 NMtDS0=    0 NMtDT0=    0
         I1Cent=           0 NGrid=           0.
 Symmetry not used in FoFCou.
 E= -151.522657744936    
 DIIS: error= 2.43D-05 at cycle   1 NSaved=   1.
 NSaved= 1 IEnMin= 1 EnMin= -151.522657744936     IErMin= 1 ErrMin= 2.43D-05
 ErrMax= 2.43D-05 EMaxC= 1.00D-01 BMatC= 5.12D-08 BMatP= 5.12D-08
 IDIUse=1 WtCom= 1.00D+00 WtEn= 0.00D+00
 Coeff-Com:  0.100D+01
 Coeff:      0.100D+01
 Gap=     0.424 Goal=   None    Shift=    0.000
 RMSDP=1.12D-06 MaxDP=1.98D-05              OVMax= 8.23D-05

 Cycle   2  Pass 1  IDiag  1:
 RMSU=  7.94D-07    CP:  1.00D+00
 FoFJK:  IHMeth= 1 ICntrl=     0 DoSepK=T KAlg= 1 I1Cent= 0 FoldK=F
 E= -151.522657723360     Delta-E=        0.000000021576 Rises=F Damp=F
 DIIS: error= 4.10D-06 at cycle   2 NSaved=   2.
 NSaved= 2 IEnMin= 1 EnMin= -151.522657744936     IErMin= 2 ErrMin= 4.10D-06
 ErrMax= 4.10D-06 EMaxC= 1.00D-01 BMatC= 1.67D-09 BMatP= 5.12D-08
 IDIUse=1 WtCom= 1.00D+00 WtEn= 0.00D+00
 Coeff-Com: -0.112D+00 0.111D+01
 Coeff:     -0.112D+00 0.111D+01
 Gap=     0.424 Goal=   None    Shift=    0.000
 RMSDP=3.71D-07 MaxDP=6.58D-06 DE= 2.16D-08 OVMax= 3.30D-05

 Cycle   3  Pass 1  IDiag  1:
 RMSU=  1.49D-07    CP:  1.00D+00  1.27D+00
 FoFJK:  IHMeth= 1 ICntrl=     0 DoSepK=T KAlg= 1 I1Cent= 0 FoldK=F
 E= -151.522657727198     Delta-E=       -0.000000003838 Rises=F Damp=F
 DIIS: error= 1.20D-06 at cycle   3 NSaved=   3.
 NSaved= 3 IEnMin= 1 EnMin= -151.522657744936     IErMin= 3 ErrMin= 1.20D-06
 ErrMax= 1.20D-06 EMaxC= 1.00D-01 BMatC= 1.66D-10 BMatP= 1.67D-09
 IDIUse=1 WtCom= 1.00D+00 WtEn= 0.00D+00
 Coeff-Com: -0.155D-01-0.406D-01 0.106D+01
 Coeff:     -0.155D-01-0.406D-01 0.106D+01
 Gap=     0.424 Goal=   None    Shift=    0.000
 RMSDP=1.30D-07 MaxDP=2.34D-06 DE=-3.84D-09 OVMax= 1.15D-05

 Cycle   4  Pass 1  IDiag  1:
 RMSU=  5.27D-08    CP:  1.00D+00  1.34D+00  1.33D+00
 FoFJK:  IHMeth= 1 ICntrl=     0 DoSepK=T KAlg= 1 I1Cent= 0 FoldK=F
 E= -151.522657727530     Delta-E=       -0.000000000332 Rises=F Damp=F
 DIIS: error= 6.72D-07 at cycle   4 NSaved=   4.
 NSaved= 4 IEnMin= 1 EnMin= -151.522657744936     IErMin= 4 ErrMin= 6.72D-07
 ErrMax= 6.72D-07 EMaxC= 1.00D-01 BMatC= 1.06D-10 BMatP= 1.66D-10
 IDIUse=1 WtCom= 1.00D+00 WtEn= 0.00D+00
 Coeff-Com:  0.731D-02-0.176D+00 0.527D+00 0.641D+00
 Coeff:      0.731D-02-0.176D+00 0.527D+00 0.641D+00
 Gap=     0.424 Goal=   None    Shift=    0.000
 RMSDP=5.31D-08 MaxDP=1.74D-06 DE=-3.32D-10 OVMax= 3.59D-06

 Cycle   5  Pass 1  IDiag  1:
 RMSU=  1.73D-08    CP:  1.00D+00  1.36D+00  1.51D+00  7.57D-01
 FoFJK:  IHMeth= 1 ICntrl=     0 DoSepK=T KAlg= 1 I1Cent= 0 FoldK=F
 E= -151.522657727620     Delta-E=       -0.000000000090 Rises=F Damp=F
 DIIS: error= 1.96D-07 at cycle   5 NSaved=   5.
 NSaved= 5 IEnMin= 1 EnMin= -151.522657744936     IErMin= 5 ErrMin= 1.96D-07
 ErrMax= 1.96D-07 EMaxC= 1.00D-01 BMatC= 7.35D-12 BMatP= 1.06D-10
 IDIUse=1 WtCom= 1.00D+00 WtEn= 0.00D+00
 Coeff-Com:  0.440D-02-0.630D-01 0.797D-01 0.230D+00 0.748D+00
 Coeff:      0.440D-02-0.630D-01 0.797D-01 0.230D+00 0.748D+00
 Gap=     0.424 Goal=   None    Shift=    0.000
 RMSDP=1.77D-08 MaxDP=4.39D-07 DE=-9.04D-11 OVMax= 1.28D-06

 Cycle   6  Pass 1  IDiag  1:
 RMSU=  8.22D-09    CP:  1.00D+00  1.37D+00  1.56D+00  8.60D-01  1.06D+00
 FoFJK:  IHMeth= 1 ICntrl=     0 DoSepK=T KAlg= 1 I1Cent= 0 FoldK=F
 E= -151.522657727629     Delta-E=       -0.000000000009 Rises=F Damp=F
 DIIS: error= 7.37D-08 at cycle   6 NSaved=   6.
 NSaved= 6 IEnMin= 1 EnMin= -151.522657744936     IErMin= 6 ErrMin= 7.37D-08
 ErrMax= 7.37D-08 EMaxC= 1.00D-01 BMatC= 1.32D-12 BMatP= 7.35D-12
 IDIUse=1 WtCom= 1.00D+00 WtEn= 0.00D+00
 Coeff-Com:  0.382D-03 0.730D-02-0.624D-01-0.265D-01 0.290D+00 0.791D+00
 Coeff:      0.382D-03 0.730D-02-0.624D-01-0.265D-01 0.290D+00 0.791D+00
 Gap=     0.424 Goal=   None    Shift=    0.000
 RMSDP=8.56D-09 MaxDP=1.10D-07 DE=-8.78D-12 OVMax= 8.05D-07

 SCF Done:  E(RLC-wPBE) =  -151.522657728     A.U. after    6 cycles
             Convg  =    0.8556D-08             -V/T =  2.0068
 KE= 1.504976960471D+02 PE=-4.315000240573D+02 EE= 9.287611021199D+01
 Leave Link  502 at Tue May 12 17:59:46 2020, MaxMem= 1073741824 cpu:      45.8
 (Enter /home/matheus/.gaussian/g09/l122.exe)
 Restoring MOs from calculation   5 to rwf.
 Counterpoise: doing MCBS calculation for fragment   2
 Leave Link  122 at Tue May 12 17:59:47 2020, MaxMem= 1073741824 cpu:       0.0
 (Enter /home/matheus/.gaussian/g09/l301.exe)
 Basis read from rwf:  (5D, 7F)
 No pseudopotential information found on rwf file.
 There are    59 symmetry adapted basis functions of A   symmetry.
 Integral buffers will be    131072 words long.
 Raffenetti 2 integral format.
 Two-electron integral symmetry is turned on.
    59 basis functions,   217 primitive gaussians,    69 cartesian basis functions
    18 alpha electrons       18 beta electrons
       nuclear repulsion energy         0.0000000000 Hartrees.
 IExCor=32609 DFT=T Ex+Corr=LC-wPBE ExCW=0 ScaHFX=  1.000000
 ScaDFX=  1.000000  0.000000  1.000000  1.000000 ScalE2=  1.000000  1.000000
 IRadAn=      5 IRanWt=     -1 IRanGd=            0 ICorTp=0
  HFx wShort=  0.000000 wLong=  0.400000 cFull=  0.000000 cShort=  0.000000 cLong=  1.000000
  DFx wShort=  0.000000 wLong=  0.400000 cFull=  0.000000 cShort=  0.000000 cLong=  1.000000
 NAtoms=    5 NActive=    1 NUniq=    1 SFac= 1.00D+00 NAtFMM=   60 NAOKFM=F Big=F
 No density basis found on file   718.
 Leave Link  301 at Tue May 12 17:59:47 2020, MaxMem= 1073741824 cpu:       0.2
 (Enter /home/matheus/.gaussian/g09/l302.exe)
 NPDir=0 NMtPBC=     1 NCelOv=     1 NCel=       1 NClECP=     1 NCelD=      1
         NCelK=      1 NCelE2=     1 NClLst=     1 CellRange=     0.0.
 One-electron integrals computed using PRISM.
 NBasis=    59 RedAO= T  NBF=    59
 NBsUse=    59 1.00D-06 NBFU=    59
 Precomputing XC quadrature grid using
 IXCGrd= 2 IRadAn=           5 IRanWt=          -1 IRanGd=           0 AccXCQ= 0.00D+00.
 NRdTot=      81 NPtTot=       30352 NUsed=       30981 NTot=       31013
 NSgBfM=    69    69    69    69    69 NAtAll=     1     1.
 Leave Link  302 at Tue May 12 17:59:47 2020, MaxMem= 1073741824 cpu:       0.7
 (Enter /home/matheus/.gaussian/g09/l303.exe)
 DipDrv:  MaxL=1.
 Leave Link  303 at Tue May 12 17:59:47 2020, MaxMem= 1073741824 cpu:       0.1
 (Enter /home/matheus/.gaussian/g09/l401.exe)
 Initial guess read from the read-write file.
 Guess basis will be translated and rotated to current coordinates.
 Initial guess orbital symmetries:
       Occupied  (A) (A) (A) (A) (A) (A) (A) (A) (A) (A) (A) (A)
                 (A) (A) (A) (A) (A) (A)
       Virtual   (A) (A) (A) (A) (A) (A) (A) (A) (A) (A) (A) (A)
                 (A) (A) (A) (A) (A) (A) (A) (A) (A) (A) (A) (A)
                 (A) (A) (A) (A) (A) (A) (A) (A) (A) (A) (A) (A)
                 (A) (A) (A) (A) (A)
 The electronic state of the initial guess is 1-A.
 Generating alternative initial guess.
 Harris functional with IExCor=32609 diagonalized for initial guess.
 ExpMin= 4.00D-02 ExpMax= 1.17D+07 ExpMxC= 1.33D+04 IAcc=3 IRadAn=         5 AccDes= 0.00D+00
 HarFok:  IExCor=32609 AccDes= 0.00D+00 IRadAn=         5 IDoV= 1
 ScaDFX=  1.000000  1.000000  1.000000  1.000000
 FoFCou: FMM=F IPFlag=           0 FMFlag=      100000 FMFlg1=           0
         NFxFlg=           0 DoJE=T BraDBF=F KetDBF=T FulRan=T
         Omega=  0.000000  0.000000  1.000000  0.000000  0.000000 ICntrl=     500 IOpCl=  0
         NMat0=    1 NMatS0=    1 NMatT0=    0 NMatD0=    1 NMtDS0=    0 NMtDT0=    0
         I1Cent=           4 NGrid=           0.
 Petite list used in FoFCou.
 Harris En= -2753.24576836237    
 Leave Link  401 at Tue May 12 17:59:47 2020, MaxMem= 1073741824 cpu:       1.1
 (Enter /home/matheus/.gaussian/g09/l502.exe)
 Closed shell SCF:
 Requested convergence on RMS density matrix=1.00D-08 within 128 cycles.
 Requested convergence on MAX density matrix=1.00D-06.
 Requested convergence on             energy=1.00D-06.
 No special actions if energy rises.
 Using DIIS extrapolation, IDIIS=  1040.
 Integral symmetry usage will be decided dynamically.
        30923 words used for storage of precomputed grid.
 IEnd=       64406 IEndB=       64406 NGot=  1073741824 MDV=  1073698889
 LenX=  1073698889 LenY=  1073693687
 Fock matrices will be formed incrementally for  20 cycles.

 Cycle   1  Pass 1  IDiag  1:
 FoFJK:  IHMeth= 1 ICntrl=     0 DoSepK=T KAlg= 1 I1Cent= 0 FoldK=F
 FoFCou: FMM=F IPFlag=           0 FMFlag=      100000 FMFlg1=           0
         NFxFlg=           0 DoJE=T BraDBF=F KetDBF=F FulRan=T
         Omega=  0.000000  0.000000  1.000000  0.000000  0.000000 ICntrl=     500 IOpCl=  0
         NMat0=    1 NMatS0=    1 NMatT0=    0 NMatD0=    1 NMtDS0=    0 NMtDT0=    0
         I1Cent=           0 NGrid=           0.
 Symmetry not used in FoFCou.
 E= -2753.43563276534    
 DIIS: error= 7.13D-14 at cycle   1 NSaved=   1.
 NSaved= 1 IEnMin= 1 EnMin= -2753.43563276534     IErMin= 1 ErrMin= 7.13D-14
 ErrMax= 7.13D-14 EMaxC= 1.00D-01 BMatC= 1.85D-25 BMatP= 1.85D-25
 IDIUse=1 WtCom= 1.00D+00 WtEn= 0.00D+00
 Coeff-Com:  0.100D+01
 Coeff:      0.100D+01
 Gap=     0.599 Goal=   None    Shift=    0.000
 DSYEVD returned Info=          89 IAlg= 4 N=    59 NDim=    59 NE2=    18198197 trying DSYEV.
 RMSDP=5.70D-15 MaxDP=1.39D-13              OVMax= 2.16D-14

 SCF Done:  E(RLC-wPBE) =  -2753.43563277     A.U. after    1 cycles
             Convg  =    0.5702D-14             -V/T =  2.0014
 KE= 2.749535160915D+03 PE=-6.578948648680D+03 EE= 1.075977855000D+03
 Leave Link  502 at Tue May 12 17:59:48 2020, MaxMem= 1073741824 cpu:      11.5
 (Enter /home/matheus/.gaussian/g09/l122.exe)
 Restoring MOs from calculation   1 to rwf.
 Counterpoise: corrected energy =   -2904.958315724865
 Counterpoise: BSSE energy =       0.000021878669
 Leave Link  122 at Tue May 12 17:59:48 2020, MaxMem= 1073741824 cpu:       0.0
 (Enter /home/matheus/.gaussian/g09/l108.exe)
 Scan completed.

 Summary of the potential surface scan:
   N      R1          SCF    
 ----  ---------  -----------
    1     3.0000  -2753.43563
    2     3.1000  -2753.43563
    3     3.2000  -2753.43563
    4     3.3000  -2753.43563
    5     3.4000  -2753.43563
    6     3.5000  -2753.43563
    7     3.6000  -2753.43563
    8     3.7000  -2753.43563
    9     3.8000  -2753.43563
   10     3.9000  -2753.43563
   11     4.0000  -2753.43563
   12     4.1000  -2753.43563
   13     4.2000  -2753.43563
   14     4.3000  -2753.43563
   15     4.4000  -2753.43563
   16     4.5000  -2753.43563
   17     4.6000  -2753.43563
   18     4.7000  -2753.43563
   19     4.8000  -2753.43563
   20     4.9000  -2753.43563
   21     5.0000  -2753.43563
 ----  ---------  -----------
  
 Leave Link  108 at Tue May 12 17:59:48 2020, MaxMem= 1073741824 cpu:       0.0
 (Enter /home/matheus/.gaussian/g09/l9999.exe)
 1\1\GINC-REDGIANT\Scan\RLC-wPBE\Aug-CC-pVTZ\H2Kr1O2\MATHEUS\12-May-202
 0\1\\#p lc-wpbe/aug-cc-PVTz int=ultrafine counterpoise=2 Scan\\TCC\\0,
 1\O,0,0.,0.,0.725\O,0,0.,0.,-0.725\H,0,-0.4593602974,-0.795635374,1.02
 35104166\H,0,0.,0.9187205947,-1.0235104166\Kr,0,0.,R1,0.\\R1=3.,s,20,0
 .1\\Version=EM64L-G09RevC.01\State=1-A\HF=-2753.4356328,-2753.4356328,
 -2753.4356328,-2753.4356328,-2753.4356328,-2753.4356328,-2753.4356328,
 -2753.4356328,-2753.4356328,-2753.4356328,-2753.4356328,-2753.4356328,
 -2753.4356328,-2753.4356328,-2753.4356328,-2753.4356328,-2753.4356328,
 -2753.4356328,-2753.4356328,-2753.4356328,-2753.4356328\RMSD=1.428e-09
 ,5.221e-11,1.075e-11,2.471e-12,6.373e-13,1.568e-13,4.743e-14,1.041e-14
 ,8.982e-15,1.144e-14,7.588e-15,5.023e-15,6.079e-15,6.716e-15,6.323e-15
 ,5.974e-15,1.119e-14,6.092e-15,6.186e-15,7.358e-15,5.702e-15\PG=C01 [X
 (H2Kr1O2)]\\@


 DEMOCRATS BUY MOST OF THE BOOKS THAT HAVE BEEN
 BANNED; REPUBLICANS FORM CENSORSHIP COMMITTEES AND
 READ THEM AS A GROUP.
 Job cpu time:  0 days  3 hours 27 minutes 42.4 seconds.
 File lengths (MBytes):  RWF=     33 Int=      0 D2E=      0 Chk=      8 Scr=      1
 Normal termination of Gaussian 09 at Tue May 12 17:59:48 2020.
