 Entering Gaussian System, Link 0=g09
 Input=/home/matheus/.tcc/Inputs/Inputs-lc-wpbe-default/H2O2-Kr_14.com
 Output=/home/matheus/.tcc/Logs/Logs-lc-wpbe-default/H2O2-Kr_14.log
 Initial command:
 /home/matheus/.gaussian/g09/l1.exe /home/matheus/.gaussian/g09/scratch/Gau-20904.inp -scrdir=/home/matheus/.gaussian/g09/scratch/
 Entering Link 1 = /home/matheus/.gaussian/g09/l1.exe PID=     20908.
  
 Copyright (c) 1988,1990,1992,1993,1995,1998,2003,2009,2011,
            Gaussian, Inc.  All Rights Reserved.
  
 This is part of the Gaussian(R) 09 program.  It is based on
 the Gaussian(R) 03 system (copyright 2003, Gaussian, Inc.),
 the Gaussian(R) 98 system (copyright 1998, Gaussian, Inc.),
 the Gaussian(R) 94 system (copyright 1995, Gaussian, Inc.),
 the Gaussian 92(TM) system (copyright 1992, Gaussian, Inc.),
 the Gaussian 90(TM) system (copyright 1990, Gaussian, Inc.),
 the Gaussian 88(TM) system (copyright 1988, Gaussian, Inc.),
 the Gaussian 86(TM) system (copyright 1986, Carnegie Mellon
 University), and the Gaussian 82(TM) system (copyright 1983,
 Carnegie Mellon University). Gaussian is a federally registered
 trademark of Gaussian, Inc.
  
 This software contains proprietary and confidential information,
 including trade secrets, belonging to Gaussian, Inc.
  
 This software is provided under written license and may be
 used, copied, transmitted, or stored only in accord with that
 written license.
  
 The following legend is applicable only to US Government
 contracts under FAR:
  
                    RESTRICTED RIGHTS LEGEND
  
 Use, reproduction and disclosure by the US Government is
 subject to restrictions as set forth in subparagraphs (a)
 and (c) of the Commercial Computer Software - Restricted
 Rights clause in FAR 52.227-19.
  
 Gaussian, Inc.
 340 Quinnipiac St., Bldg. 40, Wallingford CT 06492
  
  
 ---------------------------------------------------------------
 Warning -- This program may not be used in any manner that
 competes with the business of Gaussian, Inc. or will provide
 assistance to any competitor of Gaussian, Inc.  The licensee
 of this program is prohibited from giving any competitor of
 Gaussian, Inc. access to this program.  By using this program,
 the user acknowledges that Gaussian, Inc. is engaged in the
 business of creating and licensing software in the field of
 computational chemistry and represents and warrants to the
 licensee that it is not a competitor of Gaussian, Inc. and that
 it will not use this program in any manner prohibited above.
 ---------------------------------------------------------------
  

 Cite this work as:
 Gaussian 09, Revision C.01,
 M. J. Frisch, G. W. Trucks, H. B. Schlegel, G. E. Scuseria, 
 M. A. Robb, J. R. Cheeseman, G. Scalmani, V. Barone, B. Mennucci, 
 G. A. Petersson, H. Nakatsuji, M. Caricato, X. Li, H. P. Hratchian, 
 A. F. Izmaylov, J. Bloino, G. Zheng, J. L. Sonnenberg, M. Hada, 
 M. Ehara, K. Toyota, R. Fukuda, J. Hasegawa, M. Ishida, T. Nakajima, 
 Y. Honda, O. Kitao, H. Nakai, T. Vreven, J. A. Montgomery, Jr., 
 J. E. Peralta, F. Ogliaro, M. Bearpark, J. J. Heyd, E. Brothers, 
 K. N. Kudin, V. N. Staroverov, T. Keith, R. Kobayashi, J. Normand, 
 K. Raghavachari, A. Rendell, J. C. Burant, S. S. Iyengar, J. Tomasi, 
 M. Cossi, N. Rega, J. M. Millam, M. Klene, J. E. Knox, J. B. Cross, 
 V. Bakken, C. Adamo, J. Jaramillo, R. Gomperts, R. E. Stratmann, 
 O. Yazyev, A. J. Austin, R. Cammi, C. Pomelli, J. W. Ochterski, 
 R. L. Martin, K. Morokuma, V. G. Zakrzewski, G. A. Voth, 
 P. Salvador, J. J. Dannenberg, S. Dapprich, A. D. Daniels, 
 O. Farkas, J. B. Foresman, J. V. Ortiz, J. Cioslowski, 
 and D. J. Fox, Gaussian, Inc., Wallingford CT, 2010.
 
 ******************************************
 Gaussian 09:  EM64L-G09RevC.01 23-Sep-2011
                12-May-2020 
 ******************************************
 %mem=8GB
 %nproc=8
 Will use up to    8 processors via shared memory.
 --------------------------------------------------------
 #p lc-wpbe/aug-cc-PVTz int=ultrafine counterpoise=2 Scan
 --------------------------------------------------------
 1/38=1,60=1,62=2/1,8;
 2/12=2,17=6,18=5,29=3,40=1/2;
 1/38=1,53=5172,62=2/22;
 3/5=16,6=1,7=10,11=2,16=1,25=1,30=1,74=-41,75=-5/1,2,3;
 4//1;
 5/5=2,38=5/2;
 6/7=2,8=2,9=2,10=2,18=1,28=1/1;
 1/53=4052,62=2,63=1/22;
 3/5=7,6=11,7=10,11=2,16=1,25=1,30=1,74=-41,75=-5,82=7/1,2,3;
 4//1;
 5/5=2,38=5/2;
 6/7=2,8=2,9=2,10=2,18=1,28=1/1;
 1/53=3042,62=2,63=2/22;
 3/5=7,6=11,7=10,11=2,16=1,25=1,30=1,74=-41,75=-5,82=7/1,2,3;
 4//1;
 5/5=2,38=5/2;
 6/7=2,8=2,9=2,10=2,18=1,28=1/1;
 1/53=2032,62=2,63=3/22;
 3/5=7,6=11,7=10,11=2,16=1,25=1,30=1,74=-41,75=-5,82=7/1,2,3;
 4//1;
 5/5=2,38=5/2;
 6/7=2,8=2,9=2,10=2,18=1,28=1/1;
 1/53=1022,62=2,63=4/22;
 3/5=7,6=11,7=10,11=2,16=1,25=1,30=1,74=-41,75=-5,82=7/1,2,3;
 4//1;
 5/5=2,38=5/2;
 6/7=2,8=2,9=2,10=2,18=1,28=1/1;
 1/53=5014,62=2,63=5/22;
 1/60=1,62=2/8(1);
 99/9=1/99;
 2/29=3/2;
 1/53=5173,62=2/22;
 3/5=7,6=11,7=10,11=2,16=1,25=1,30=1,74=-41,75=-5,82=7/1,2,3;
 4/5=5,16=3/1;
 5/5=2,38=5/2;
 1/53=4053,62=2,63=1/22;
 3/5=7,6=11,7=10,11=2,16=1,25=1,30=1,74=-41,75=-5,82=7/1,2,3;
 4/5=5,16=3/1;
 5/5=2,38=5/2;
 1/53=3043,62=2,63=2/22;
 3/5=7,6=11,7=10,11=2,16=1,25=1,30=1,74=-41,75=-5,82=7/1,2,3;
 4/5=5,16=3/1;
 5/5=2,38=5/2;
 1/53=2033,62=2,63=3/22;
 3/5=7,6=11,7=10,11=2,16=1,25=1,30=1,74=-41,75=-5,82=7/1,2,3;
 4/5=5,16=3/1;
 5/5=2,38=5/2;
 1/53=1024,62=2,63=4/22;
 3/5=7,6=11,7=10,11=2,16=1,25=1,30=1,74=-41,75=-5,82=7/1,2,3;
 4/5=5,16=3/1;
 5/5=2,38=5/2;
 1/53=5014,62=2,63=5/22;
 1/60=1,62=2/8(-22);
 99/9=1/99;
 Leave Link    1 at Tue May 12 14:49:02 2020, MaxMem= 1073741824 cpu:       0.1
 (Enter /home/matheus/.gaussian/g09/l101.exe)
 ---
 TCC
 ---
 Charge =  0 Multiplicity = 1 in supermolecule
 Charge =  0 Multiplicity = 1 in fragment  1.
 Charge =  0 Multiplicity = 1 in fragment  2.
 Symbolic Z-Matrix:
 O(Fragment=1)         0.        0.        0.725 
 O(Fragment=1)         0.        0.       -0.725 
 H(Fragment=1)         0.59054  -0.70378   1.02351 
 H(Fragment=1)         0.        0.91872  -1.02351 
 Kr(Fragment=2)        0.       R1        0. 
       Variables:
  R1                    3.     Scan 20    0.1    
 
 NAtoms=      5 NQM=        0 NQMF=       0 NMMI=      5 NMMIF=      0
                NMic=       0 NMicF=      0.
                    Isotopes and Nuclear Properties:
 (Nuclear quadrupole moments (NQMom) in fm**2, nuclear magnetic moments (NMagM)
  in nuclear magnetons)

  Atom         1           2           3           4           5
 IAtWgt=          16          16           1           1          84
 AtmWgt=  15.9949146  15.9949146   1.0078250   1.0078250  83.9115064
 NucSpn=           0           0           1           1           0
 AtZEff=   0.0000000   0.0000000   0.0000000   0.0000000   0.0000000
 NQMom=    0.0000000   0.0000000   0.0000000   0.0000000   0.0000000
 NMagM=    0.0000000   0.0000000   2.7928460   2.7928460   0.0000000
 Leave Link  101 at Tue May 12 14:49:02 2020, MaxMem= 1073741824 cpu:       0.4
 (Enter /home/matheus/.gaussian/g09/l108.exe)
 Scan the potential surface.
 Variable   Value     No. Steps Step-Size
 -------- ----------- --------- ---------
     1       3.000000      20      0.1000
 A total of     21 points will be computed.
 Leave Link  108 at Tue May 12 14:49:02 2020, MaxMem= 1073741824 cpu:       0.0
 (Enter /home/matheus/.gaussian/g09/l202.exe)
 ---------------------------------------------------------------------------------------------------
                            Z-MATRIX (ANGSTROMS AND DEGREES)
   CD    Cent   Atom    N1       Length/X        N2       Alpha/Y        N3        Beta/Z          J
 ---------------------------------------------------------------------------------------------------
      1      1  O        0   0.000000          0.000000          0.725000
      2      2  O        0   0.000000          0.000000         -0.725000
      3      3  H        0   0.590542         -0.703781          1.023510
      4      4  H        0   0.000000          0.918721         -1.023510
      5      5  Kr       0   0.000000          3.000000          0.000000
 ---------------------------------------------------------------------------------------------------
                         Z-Matrix orientation:                         
 ---------------------------------------------------------------------
 Center     Atomic      Atomic             Coordinates (Angstroms)
 Number     Number       Type             X           Y           Z
 ---------------------------------------------------------------------
      1          8           0        0.000000    0.000000    0.725000
      2          8           0        0.000000    0.000000   -0.725000
      3          1           0        0.590542   -0.703781    1.023510
      4          1           0        0.000000    0.918721   -1.023510
      5         36           0        0.000000    3.000000    0.000000
 ---------------------------------------------------------------------
                    Distance matrix (angstroms):
                    1          2          3          4          5
     1  O    0.000000
     2  O    1.450000   0.000000
     3  H    0.966000   1.975180   0.000000
     4  H    1.975180   0.966000   2.677974   0.000000
     5  Kr   3.086361   3.086361   3.887712   2.319331   0.000000
 Stoichiometry    H2KrO2
 Framework group  C1[X(H2KrO2)]
 Deg. of freedom     9
 Full point group                 C1      NOp   1
 Largest Abelian subgroup         C1      NOp   1
 Largest concise Abelian subgroup C1      NOp   1
                         Standard orientation:                         
 ---------------------------------------------------------------------
 Center     Atomic      Atomic             Coordinates (Angstroms)
 Number     Number       Type             X           Y           Z
 ---------------------------------------------------------------------
      1          8           0        2.015651   -0.687348   -0.079909
      2          8           0        1.990960    0.760101    0.002433
      3          1           0        2.733117   -1.006163    0.482902
      4          1           0        1.067391    1.041693    0.032139
      5         36           0       -0.995928   -0.017154    0.002910
 ---------------------------------------------------------------------
 Rotational constants (GHZ):     26.2569855      2.3123407      2.1308521
 Leave Link  202 at Tue May 12 14:49:02 2020, MaxMem= 1073741824 cpu:       0.0
 (Enter /home/matheus/.gaussian/g09/l122.exe)
 Leave Link  122 at Tue May 12 14:49:02 2020, MaxMem= 1073741824 cpu:       0.0
 (Enter /home/matheus/.gaussian/g09/l301.exe)
 Standard basis: Aug-CC-pVTZ (5D, 7F)
 Ernie: Thresh=  0.10000D-02 Tol=  0.10000D-05 Strict=F.
 Ernie:  38 primitive shells out of 205 were deleted.
 There are   197 symmetry adapted basis functions of A   symmetry.
 Integral buffers will be    131072 words long.
 Raffenetti 2 integral format.
 Two-electron integral symmetry is turned on.
   197 basis functions,   415 primitive gaussians,   229 cartesian basis functions
    27 alpha electrons       27 beta electrons
       nuclear repulsion energy       148.4787781510 Hartrees.
 IExCor=32609 DFT=T Ex+Corr=LC-wPBE ExCW=0 ScaHFX=  1.000000
 ScaDFX=  1.000000  0.000000  1.000000  1.000000 ScalE2=  1.000000  1.000000
 IRadAn=      5 IRanWt=     -1 IRanGd=            0 ICorTp=0
  HFx wShort=  0.000000 wLong=  0.400000 cFull=  0.000000 cShort=  0.000000 cLong=  1.000000
  DFx wShort=  0.000000 wLong=  0.400000 cFull=  0.000000 cShort=  0.000000 cLong=  1.000000
 NAtoms=    5 NActive=    5 NUniq=    5 SFac= 1.00D+00 NAtFMM=   60 NAOKFM=F Big=F
 Leave Link  301 at Tue May 12 14:49:02 2020, MaxMem= 1073741824 cpu:       0.2
 (Enter /home/matheus/.gaussian/g09/l302.exe)
 NPDir=0 NMtPBC=     1 NCelOv=     1 NCel=       1 NClECP=     1 NCelD=      1
         NCelK=      1 NCelE2=     1 NClLst=     1 CellRange=     0.0.
 One-electron integrals computed using PRISM.
 NBasis=   197 RedAO= T  NBF=   197
 NBsUse=   197 1.00D-06 NBFU=   197
 Precomputing XC quadrature grid using
 IXCGrd= 2 IRadAn=           5 IRanWt=          -1 IRanGd=           0 AccXCQ= 0.00D+00.
 NRdTot=     427 NPtTot=      123814 NUsed=      126881 NTot=      126913
 NSgBfM=   229   229   229   229   229 NAtAll=     5     5.
 Leave Link  302 at Tue May 12 14:49:02 2020, MaxMem= 1073741824 cpu:       0.9
 (Enter /home/matheus/.gaussian/g09/l303.exe)
 DipDrv:  MaxL=1.
 Leave Link  303 at Tue May 12 14:49:02 2020, MaxMem= 1073741824 cpu:       0.2
 (Enter /home/matheus/.gaussian/g09/l401.exe)
 Harris functional with IExCor=32609 diagonalized for initial guess.
 ExpMin= 2.53D-02 ExpMax= 1.17D+07 ExpMxC= 1.33D+04 IAcc=3 IRadAn=         5 AccDes= 0.00D+00
 HarFok:  IExCor=32609 AccDes= 0.00D+00 IRadAn=         5 IDoV= 1
 ScaDFX=  1.000000  1.000000  1.000000  1.000000
 FoFCou: FMM=F IPFlag=           0 FMFlag=      100000 FMFlg1=           0
         NFxFlg=           0 DoJE=T BraDBF=F KetDBF=T FulRan=T
         Omega=  0.000000  0.000000  1.000000  0.000000  0.000000 ICntrl=     500 IOpCl=  0
         NMat0=    1 NMatS0=    1 NMatT0=    0 NMatD0=    1 NMtDS0=    0 NMtDT0=    0
         I1Cent=           4 NGrid=           0.
 Petite list used in FoFCou.
 Harris En= -2904.73809687785    
 Initial guess orbital symmetries:
       Occupied  (A) (A) (A) (A) (A) (A) (A) (A) (A) (A) (A) (A)
                 (A) (A) (A) (A) (A) (A) (A) (A) (A) (A) (A) (A)
                 (A) (A) (A)
       Virtual   (A) (A) (A) (A) (A) (A) (A) (A) (A) (A) (A) (A)
                 (A) (A) (A) (A) (A) (A) (A) (A) (A) (A) (A) (A)
                 (A) (A) (A) (A) (A) (A) (A) (A) (A) (A) (A) (A)
                 (A) (A) (A) (A) (A) (A) (A) (A) (A) (A) (A) (A)
                 (A) (A) (A) (A) (A) (A) (A) (A) (A) (A) (A) (A)
                 (A) (A) (A) (A) (A) (A) (A) (A) (A) (A) (A) (A)
                 (A) (A) (A) (A) (A) (A) (A) (A) (A) (A) (A) (A)
                 (A) (A) (A) (A) (A) (A) (A) (A) (A) (A) (A) (A)
                 (A) (A) (A) (A) (A) (A) (A) (A) (A) (A) (A) (A)
                 (A) (A) (A) (A) (A) (A) (A) (A) (A) (A) (A) (A)
                 (A) (A) (A) (A) (A) (A) (A) (A) (A) (A) (A) (A)
                 (A) (A) (A) (A) (A) (A) (A) (A) (A) (A) (A) (A)
                 (A) (A) (A) (A) (A) (A) (A) (A) (A) (A) (A) (A)
                 (A) (A) (A) (A) (A) (A) (A) (A) (A) (A) (A) (A)
                 (A) (A)
 The electronic state of the initial guess is 1-A.
 Leave Link  401 at Tue May 12 14:49:02 2020, MaxMem= 1073741824 cpu:       3.8
 (Enter /home/matheus/.gaussian/g09/l502.exe)
 Closed shell SCF:
 Requested convergence on RMS density matrix=1.00D-08 within 128 cycles.
 Requested convergence on MAX density matrix=1.00D-06.
 Requested convergence on             energy=1.00D-06.
 No special actions if energy rises.
 Using DIIS extrapolation, IDIIS=  1040.
 Integral symmetry usage will be decided dynamically.
       126823 words used for storage of precomputed grid.
 IEnd=      305770 IEndB=      305770 NGot=  1073741824 MDV=  1073505365
 LenX=  1073505365 LenY=  1073452483
 Fock matrices will be formed incrementally for  20 cycles.

 Cycle   1  Pass 1  IDiag  1:
 FoFJK:  IHMeth= 1 ICntrl=     0 DoSepK=T KAlg= 1 I1Cent= 0 FoldK=F
 FoFCou: FMM=F IPFlag=           0 FMFlag=      100000 FMFlg1=           0
         NFxFlg=           0 DoJE=T BraDBF=F KetDBF=F FulRan=T
         Omega=  0.000000  0.000000  1.000000  0.000000  0.000000 ICntrl=     500 IOpCl=  0
         NMat0=    1 NMatS0=    1 NMatT0=    0 NMatD0=    1 NMtDS0=    0 NMtDT0=    0
         I1Cent=           0 NGrid=           0.
 Symmetry not used in FoFCou.
 E= -2904.88209022717    
 DIIS: error= 2.89D-02 at cycle   1 NSaved=   1.
 NSaved= 1 IEnMin= 1 EnMin= -2904.88209022717     IErMin= 1 ErrMin= 2.89D-02
 ErrMax= 2.89D-02 EMaxC= 1.00D-01 BMatC= 2.62D-01 BMatP= 2.62D-01
 IDIUse=3 WtCom= 7.11D-01 WtEn= 2.89D-01
 Coeff-Com:  0.100D+01
 Coeff-En:   0.100D+01
 Coeff:      0.100D+01
 Gap=     0.485 Goal=   None    Shift=    0.000
 GapD=    0.485 DampG=2.000 DampE=0.500 DampFc=1.0000 IDamp=-1.
 RMSDP=2.28D-03 MaxDP=1.47D-01              OVMax= 6.26D-02

 Cycle   2  Pass 1  IDiag  1:
 RMSU=  1.59D-03    CP:  1.02D+00
 FoFJK:  IHMeth= 1 ICntrl=     0 DoSepK=T KAlg= 1 I1Cent= 0 FoldK=F
 E= -2904.92615869208     Delta-E=       -0.044068464910 Rises=F Damp=F
 DIIS: error= 1.21D-02 at cycle   2 NSaved=   2.
 NSaved= 2 IEnMin= 2 EnMin= -2904.92615869208     IErMin= 2 ErrMin= 1.21D-02
 ErrMax= 1.21D-02 EMaxC= 1.00D-01 BMatC= 7.75D-02 BMatP= 2.62D-01
 IDIUse=3 WtCom= 8.79D-01 WtEn= 1.21D-01
 Coeff-Com:  0.346D+00 0.654D+00
 Coeff-En:   0.182D+00 0.818D+00
 Coeff:      0.326D+00 0.674D+00
 Gap=     0.440 Goal=   None    Shift=    0.000
 RMSDP=9.25D-04 MaxDP=5.10D-02 DE=-4.41D-02 OVMax= 2.99D-02

 Cycle   3  Pass 1  IDiag  1:
 RMSU=  3.21D-04    CP:  1.01D+00  6.51D-01
 FoFJK:  IHMeth= 1 ICntrl=     0 DoSepK=T KAlg= 1 I1Cent= 0 FoldK=F
 E= -2904.95334890548     Delta-E=       -0.027190213395 Rises=F Damp=F
 DIIS: error= 2.15D-03 at cycle   3 NSaved=   3.
 NSaved= 3 IEnMin= 3 EnMin= -2904.95334890548     IErMin= 3 ErrMin= 2.15D-03
 ErrMax= 2.15D-03 EMaxC= 1.00D-01 BMatC= 1.80D-03 BMatP= 7.75D-02
 IDIUse=3 WtCom= 9.78D-01 WtEn= 2.15D-02
 Coeff-Com:  0.612D-01 0.194D+00 0.745D+00
 Coeff-En:   0.000D+00 0.000D+00 0.100D+01
 Coeff:      0.599D-01 0.190D+00 0.750D+00
 Gap=     0.422 Goal=   None    Shift=    0.000
 RMSDP=1.15D-04 MaxDP=3.02D-03 DE=-2.72D-02 OVMax= 7.95D-03

 Cycle   4  Pass 1  IDiag  1:
 RMSU=  6.03D-05    CP:  1.01D+00  6.80D-01  9.07D-01
 FoFJK:  IHMeth= 1 ICntrl=     0 DoSepK=T KAlg= 1 I1Cent= 0 FoldK=F
 E= -2904.95428395896     Delta-E=       -0.000935053488 Rises=F Damp=F
 DIIS: error= 5.58D-04 at cycle   4 NSaved=   4.
 NSaved= 4 IEnMin= 4 EnMin= -2904.95428395896     IErMin= 4 ErrMin= 5.58D-04
 ErrMax= 5.58D-04 EMaxC= 1.00D-01 BMatC= 1.34D-04 BMatP= 1.80D-03
 IDIUse=3 WtCom= 9.94D-01 WtEn= 5.58D-03
 Coeff-Com: -0.159D-02 0.285D-01 0.284D+00 0.689D+00
 Coeff-En:   0.000D+00 0.000D+00 0.000D+00 0.100D+01
 Coeff:     -0.158D-02 0.283D-01 0.283D+00 0.691D+00
 Gap=     0.427 Goal=   None    Shift=    0.000
 RMSDP=3.40D-05 MaxDP=2.03D-03 DE=-9.35D-04 OVMax= 1.97D-03

 Cycle   5  Pass 1  IDiag  1:
 RMSU=  1.29D-05    CP:  1.01D+00  6.84D-01  9.57D-01  8.21D-01
 FoFJK:  IHMeth= 1 ICntrl=     0 DoSepK=T KAlg= 1 I1Cent= 0 FoldK=F
 E= -2904.95435936616     Delta-E=       -0.000075407194 Rises=F Damp=F
 DIIS: error= 8.45D-05 at cycle   5 NSaved=   5.
 NSaved= 5 IEnMin= 5 EnMin= -2904.95435936616     IErMin= 5 ErrMin= 8.45D-05
 ErrMax= 8.45D-05 EMaxC= 1.00D-01 BMatC= 2.71D-06 BMatP= 1.34D-04
 IDIUse=1 WtCom= 1.00D+00 WtEn= 0.00D+00
 Coeff-Com: -0.189D-02 0.122D-02 0.460D-01 0.170D+00 0.785D+00
 Coeff:     -0.189D-02 0.122D-02 0.460D-01 0.170D+00 0.785D+00
 Gap=     0.427 Goal=   None    Shift=    0.000
 RMSDP=6.84D-06 MaxDP=2.24D-04 DE=-7.54D-05 OVMax= 5.17D-04

 Cycle   6  Pass 1  IDiag  1:
 RMSU=  4.26D-06    CP:  1.01D+00  6.84D-01  9.58D-01  8.58D-01  1.03D+00
 FoFJK:  IHMeth= 1 ICntrl=     0 DoSepK=T KAlg= 1 I1Cent= 0 FoldK=F
 E= -2904.95436091421     Delta-E=       -0.000001548048 Rises=F Damp=F
 DIIS: error= 6.41D-05 at cycle   6 NSaved=   6.
 NSaved= 6 IEnMin= 6 EnMin= -2904.95436091421     IErMin= 6 ErrMin= 6.41D-05
 ErrMax= 6.41D-05 EMaxC= 1.00D-01 BMatC= 1.12D-06 BMatP= 2.71D-06
 IDIUse=1 WtCom= 1.00D+00 WtEn= 0.00D+00
 Coeff-Com: -0.665D-03-0.315D-02-0.148D-01-0.494D-02 0.402D+00 0.622D+00
 Coeff:     -0.665D-03-0.315D-02-0.148D-01-0.494D-02 0.402D+00 0.622D+00
 Gap=     0.427 Goal=   None    Shift=    0.000
 RMSDP=3.33D-06 MaxDP=1.30D-04 DE=-1.55D-06 OVMax= 2.48D-04

 Cycle   7  Pass 1  IDiag  1:
 RMSU=  1.77D-06    CP:  1.01D+00  6.84D-01  9.59D-01  8.70D-01  1.13D+00
                    CP:  8.73D-01
 FoFJK:  IHMeth= 1 ICntrl=     0 DoSepK=T KAlg= 1 I1Cent= 0 FoldK=F
 E= -2904.95436162028     Delta-E=       -0.000000706070 Rises=F Damp=F
 DIIS: error= 1.34D-05 at cycle   7 NSaved=   7.
 NSaved= 7 IEnMin= 7 EnMin= -2904.95436162028     IErMin= 7 ErrMin= 1.34D-05
 ErrMax= 1.34D-05 EMaxC= 1.00D-01 BMatC= 5.23D-08 BMatP= 1.12D-06
 IDIUse=1 WtCom= 1.00D+00 WtEn= 0.00D+00
 Coeff-Com: -0.471D-05-0.124D-02-0.109D-01-0.242D-01 0.844D-02 0.186D+00
 Coeff-Com:  0.842D+00
 Coeff:     -0.471D-05-0.124D-02-0.109D-01-0.242D-01 0.844D-02 0.186D+00
 Coeff:      0.842D+00
 Gap=     0.427 Goal=   None    Shift=    0.000
 RMSDP=1.15D-06 MaxDP=3.14D-05 DE=-7.06D-07 OVMax= 9.09D-05

 Cycle   8  Pass 1  IDiag  1:
 RMSU=  3.74D-07    CP:  1.01D+00  6.84D-01  9.59D-01  8.74D-01  1.16D+00
                    CP:  9.95D-01  1.03D+00
 FoFJK:  IHMeth= 1 ICntrl=     0 DoSepK=T KAlg= 1 I1Cent= 0 FoldK=F
 E= -2904.95436165486     Delta-E=       -0.000000034586 Rises=F Damp=F
 DIIS: error= 2.10D-06 at cycle   8 NSaved=   8.
 NSaved= 8 IEnMin= 8 EnMin= -2904.95436165486     IErMin= 8 ErrMin= 2.10D-06
 ErrMax= 2.10D-06 EMaxC= 1.00D-01 BMatC= 8.82D-10 BMatP= 5.23D-08
 IDIUse=1 WtCom= 1.00D+00 WtEn= 0.00D+00
 Coeff-Com:  0.343D-04 0.299D-03 0.201D-02 0.338D-02-0.159D-01-0.510D-01
 Coeff-Com: -0.123D+00 0.118D+01
 Coeff:      0.343D-04 0.299D-03 0.201D-02 0.338D-02-0.159D-01-0.510D-01
 Coeff:     -0.123D+00 0.118D+01
 Gap=     0.427 Goal=   None    Shift=    0.000
 RMSDP=3.27D-07 MaxDP=8.53D-06 DE=-3.46D-08 OVMax= 3.46D-05

 Cycle   9  Pass 1  IDiag  1:
 RMSU=  9.87D-08    CP:  1.01D+00  6.84D-01  9.59D-01  8.75D-01  1.16D+00
                    CP:  1.01D+00  1.08D+00  1.39D+00
 FoFJK:  IHMeth= 1 ICntrl=     0 DoSepK=T KAlg= 1 I1Cent= 0 FoldK=F
 E= -2904.95436165783     Delta-E=       -0.000000002964 Rises=F Damp=F
 DIIS: error= 5.20D-07 at cycle   9 NSaved=   9.
 NSaved= 9 IEnMin= 9 EnMin= -2904.95436165783     IErMin= 9 ErrMin= 5.20D-07
 ErrMax= 5.20D-07 EMaxC= 1.00D-01 BMatC= 4.76D-11 BMatP= 8.82D-10
 IDIUse=1 WtCom= 1.00D+00 WtEn= 0.00D+00
 Coeff-Com: -0.336D-05 0.349D-04 0.371D-03 0.106D-02 0.671D-03-0.709D-02
 Coeff-Com: -0.369D-01-0.432D-01 0.109D+01
 Coeff:     -0.336D-05 0.349D-04 0.371D-03 0.106D-02 0.671D-03-0.709D-02
 Coeff:     -0.369D-01-0.432D-01 0.109D+01
 Gap=     0.427 Goal=   None    Shift=    0.000
 RMSDP=7.46D-08 MaxDP=2.42D-06 DE=-2.96D-09 OVMax= 7.77D-06

 Cycle  10  Pass 1  IDiag  1:
 RMSU=  2.23D-08    CP:  1.01D+00  6.84D-01  9.59D-01  8.75D-01  1.16D+00
                    CP:  1.01D+00  1.08D+00  1.49D+00  1.28D+00
 FoFJK:  IHMeth= 1 ICntrl=     0 DoSepK=T KAlg= 1 I1Cent= 0 FoldK=F
 E= -2904.95436165799     Delta-E=       -0.000000000166 Rises=F Damp=F
 DIIS: error= 1.14D-07 at cycle  10 NSaved=  10.
 NSaved=10 IEnMin=10 EnMin= -2904.95436165799     IErMin=10 ErrMin= 1.14D-07
 ErrMax= 1.14D-07 EMaxC= 1.00D-01 BMatC= 3.51D-12 BMatP= 4.76D-11
 IDIUse=1 WtCom= 1.00D+00 WtEn= 0.00D+00
 Coeff-Com: -0.140D-05-0.159D-04-0.122D-03-0.235D-03 0.974D-03 0.307D-02
 Coeff-Com:  0.745D-02-0.646D-01-0.524D-01 0.111D+01
 Coeff:     -0.140D-05-0.159D-04-0.122D-03-0.235D-03 0.974D-03 0.307D-02
 Coeff:      0.745D-02-0.646D-01-0.524D-01 0.111D+01
 Gap=     0.427 Goal=   None    Shift=    0.000
 RMSDP=2.40D-08 MaxDP=1.03D-06 DE=-1.66D-10 OVMax= 2.55D-06

 Cycle  11  Pass 1  IDiag  1:
 RMSU=  6.75D-09    CP:  1.01D+00  6.84D-01  9.59D-01  8.75D-01  1.16D+00
                    CP:  1.01D+00  1.08D+00  1.50D+00  1.39D+00  1.38D+00
 FoFJK:  IHMeth= 1 ICntrl=     0 DoSepK=T KAlg= 1 I1Cent= 0 FoldK=F
 E= -2904.95436165802     Delta-E=       -0.000000000027 Rises=F Damp=F
 DIIS: error= 3.99D-08 at cycle  11 NSaved=  11.
 NSaved=11 IEnMin=11 EnMin= -2904.95436165802     IErMin=11 ErrMin= 3.99D-08
 ErrMax= 3.99D-08 EMaxC= 1.00D-01 BMatC= 4.52D-13 BMatP= 3.51D-12
 IDIUse=1 WtCom= 1.00D+00 WtEn= 0.00D+00
 Coeff-Com:  0.283D-06-0.315D-05-0.327D-04-0.975D-04-0.223D-04 0.676D-03
 Coeff-Com:  0.319D-02 0.142D-02-0.871D-01 0.289D-01 0.105D+01
 Coeff:      0.283D-06-0.315D-05-0.327D-04-0.975D-04-0.223D-04 0.676D-03
 Coeff:      0.319D-02 0.142D-02-0.871D-01 0.289D-01 0.105D+01
 Gap=     0.427 Goal=   None    Shift=    0.000
 RMSDP=7.87D-09 MaxDP=1.64D-07 DE=-2.73D-11 OVMax= 1.16D-06

 SCF Done:  E(RLC-wPBE) =  -2904.95436166     A.U. after   11 cycles
             Convg  =    0.7867D-08             -V/T =  2.0017
 KE= 2.900036861046D+03 PE=-7.233867078278D+03 EE= 1.280397077423D+03
 Leave Link  502 at Tue May 12 14:49:34 2020, MaxMem= 1073741824 cpu:     255.4
 (Enter /home/matheus/.gaussian/g09/l601.exe)
 Copying SCF densities to generalized density rwf, IOpCl= 0 IROHF=0.

 **********************************************************************

            Population analysis using the SCF density.

 **********************************************************************

 Orbital symmetries:
       Occupied  (A) (A) (A) (A) (A) (A) (A) (A) (A) (A) (A) (A)
                 (A) (A) (A) (A) (A) (A) (A) (A) (A) (A) (A) (A)
                 (A) (A) (A)
       Virtual   (A) (A) (A) (A) (A) (A) (A) (A) (A) (A) (A) (A)
                 (A) (A) (A) (A) (A) (A) (A) (A) (A) (A) (A) (A)
                 (A) (A) (A) (A) (A) (A) (A) (A) (A) (A) (A) (A)
                 (A) (A) (A) (A) (A) (A) (A) (A) (A) (A) (A) (A)
                 (A) (A) (A) (A) (A) (A) (A) (A) (A) (A) (A) (A)
                 (A) (A) (A) (A) (A) (A) (A) (A) (A) (A) (A) (A)
                 (A) (A) (A) (A) (A) (A) (A) (A) (A) (A) (A) (A)
                 (A) (A) (A) (A) (A) (A) (A) (A) (A) (A) (A) (A)
                 (A) (A) (A) (A) (A) (A) (A) (A) (A) (A) (A) (A)
                 (A) (A) (A) (A) (A) (A) (A) (A) (A) (A) (A) (A)
                 (A) (A) (A) (A) (A) (A) (A) (A) (A) (A) (A) (A)
                 (A) (A) (A) (A) (A) (A) (A) (A) (A) (A) (A) (A)
                 (A) (A) (A) (A) (A) (A) (A) (A) (A) (A) (A) (A)
                 (A) (A) (A) (A) (A) (A) (A) (A) (A) (A) (A) (A)
                 (A) (A)
 The electronic state is 1-A.
 Alpha  occ. eigenvalues -- -511.11567 -66.66259 -60.32485 -60.32465 -60.32457
 Alpha  occ. eigenvalues --  -19.03368 -19.02986  -9.59540  -7.34009  -7.33952
 Alpha  occ. eigenvalues --   -7.33927  -3.29545  -3.29534  -3.29516  -3.29474
 Alpha  occ. eigenvalues --   -3.29472  -1.25115  -1.04644  -1.03642  -0.67452
 Alpha  occ. eigenvalues --   -0.63039  -0.54458  -0.51599  -0.51073  -0.50380
 Alpha  occ. eigenvalues --   -0.46095  -0.39427
 Alpha virt. eigenvalues --    0.03250   0.04092   0.08172   0.09919   0.10480
 Alpha virt. eigenvalues --    0.11253   0.13462   0.14488   0.16627   0.17572
 Alpha virt. eigenvalues --    0.18897   0.19190   0.20613   0.22908   0.24077
 Alpha virt. eigenvalues --    0.24985   0.26784   0.29221   0.31802   0.34016
 Alpha virt. eigenvalues --    0.34327   0.34658   0.36520   0.39405   0.40233
 Alpha virt. eigenvalues --    0.41802   0.42222   0.48380   0.53185   0.56057
 Alpha virt. eigenvalues --    0.57355   0.59522   0.63371   0.66772   0.68923
 Alpha virt. eigenvalues --    0.71641   0.71982   0.73216   0.74119   0.76385
 Alpha virt. eigenvalues --    0.76589   0.78424   0.79188   0.80587   0.82868
 Alpha virt. eigenvalues --    0.85248   0.86087   0.88136   0.90032   0.91332
 Alpha virt. eigenvalues --    0.93508   0.94743   0.97014   0.97582   0.99440
 Alpha virt. eigenvalues --    1.02768   1.03450   1.05413   1.08297   1.10599
 Alpha virt. eigenvalues --    1.11460   1.13911   1.16164   1.18601   1.22282
 Alpha virt. eigenvalues --    1.27093   1.32300   1.34537   1.38671   1.41027
 Alpha virt. eigenvalues --    1.43111   1.50713   1.53626   1.55884   1.61443
 Alpha virt. eigenvalues --    1.63452   1.75670   1.83304   1.84003   1.93757
 Alpha virt. eigenvalues --    1.98050   2.00722   2.05808   2.13387   2.14252
 Alpha virt. eigenvalues --    2.15355   2.18452   2.20884   2.22720   2.24079
 Alpha virt. eigenvalues --    2.25252   2.30460   2.30878   2.31865   2.34256
 Alpha virt. eigenvalues --    2.36684   2.39339   2.44571   2.47233   2.49123
 Alpha virt. eigenvalues --    2.49215   2.51677   2.52986   2.55586   2.58279
 Alpha virt. eigenvalues --    2.59282   2.61747   2.65244   2.66106   2.70514
 Alpha virt. eigenvalues --    2.73097   2.74497   2.82253   2.84305   2.88289
 Alpha virt. eigenvalues --    2.93291   3.04926   3.09673   3.14097   3.61142
 Alpha virt. eigenvalues --    3.66617   3.84884   3.99030   4.01176   4.03988
 Alpha virt. eigenvalues --    4.06388   4.15049   4.19274   4.23470   4.26140
 Alpha virt. eigenvalues --    4.44431   4.47105   4.52334   4.52879   4.70424
 Alpha virt. eigenvalues --    4.91101   4.99672   5.01800   5.07946   5.11178
 Alpha virt. eigenvalues --    5.27456   5.40872   5.82016   6.03298   6.05076
 Alpha virt. eigenvalues --    6.09888   6.30697   6.33812   6.38476   6.50007
 Alpha virt. eigenvalues --    6.63527   6.70903   6.74099   6.79858   6.83366
 Alpha virt. eigenvalues --    6.83642   6.88142   6.89225   6.93948   6.99216
 Alpha virt. eigenvalues --    7.01420   7.18829   7.23310   7.36837   7.69747
 Alpha virt. eigenvalues --    7.77973   8.02816   8.09186  13.90348  14.53355
          Condensed to atoms (all electrons):
              1          2          3          4          5
     1  O    8.215040  -0.223786   0.214905   0.001237  -0.028001
     2  O   -0.223786   8.253725   0.012902   0.207460  -0.009030
     3  H    0.214905   0.012902   0.573847   0.002786   0.003204
     4  H    0.001237   0.207460   0.002786   0.579110  -0.013509
     5  Kr  -0.028001  -0.009030   0.003204  -0.013509  36.041939
 Mulliken atomic charges:
              1
     1  O   -0.179396
     2  O   -0.241272
     3  H    0.192356
     4  H    0.222915
     5  Kr   0.005397
 Sum of Mulliken atomic charges =   0.00000
 Mulliken charges with hydrogens summed into heavy atoms:
              1
     1  O    0.012960
     2  O   -0.018357
     5  Kr   0.005397
 Sum of Mulliken charges with hydrogens summed into heavy atoms =   0.00000
          Condensed to fragments (all electrons):
     1      -0.005397
     2       0.005397
 Electronic spatial extent (au):  <R**2>=            490.6526
 Charge=              0.0000 electrons
 Dipole moment (field-independent basis, Debye):
    X=             -0.5335    Y=             -0.3473    Z=              1.0089  Tot=              1.1930
 Quadrupole moment (field-independent basis, Debye-Ang):
   XX=            -28.5331   YY=            -28.2354   ZZ=            -30.0280
   XY=             -3.6366   XZ=              3.0172   YZ=             -1.1065
 Traceless Quadrupole moment (field-independent basis, Debye-Ang):
   XX=              0.3991   YY=              0.6968   ZZ=             -1.0958
   XY=             -3.6366   XZ=              3.0172   YZ=             -1.1065
 Octapole moment (field-independent basis, Debye-Ang**2):
  XXX=            -10.2043  YYY=             -0.8396  ZZZ=              0.5591  XYY=             -4.4251
  XXY=            -14.5028  XXZ=              8.5563  XZZ=             -7.1385  YZZ=             -0.9311
  YYZ=              1.3340  XYZ=             -3.2383
 Hexadecapole moment (field-independent basis, Debye-Ang**3):
 XXXX=           -379.4450 YYYY=            -63.9958 ZZZZ=            -30.0326 XXXY=            -42.8306
 XXXZ=             24.8062 YYYX=             -5.6705 YYYZ=             -1.4415 ZZZX=              1.8080
 ZZZY=             -0.8190 XXYY=            -76.1709 XXZZ=            -75.7208 YYZZ=            -17.0522
 XXYZ=             -9.2805 YYXZ=              3.7010 ZZXY=             -2.0129
 N-N= 1.484787781510D+02 E-N=-7.233867079990D+03  KE= 2.900036861046D+03
 No NMR shielding tensors so no spin-rotation constants.
 Leave Link  601 at Tue May 12 14:49:34 2020, MaxMem= 1073741824 cpu:       0.8
 (Enter /home/matheus/.gaussian/g09/l122.exe)
 Counterpoise: doing DCBS calculation for fragment   1 NewBq=T
 Leave Link  122 at Tue May 12 14:49:34 2020, MaxMem= 1073741824 cpu:       0.0
 (Enter /home/matheus/.gaussian/g09/l301.exe)
 Basis read from rwf:  (5D, 7F)
 No pseudopotential information found on rwf file.
 There are   197 symmetry adapted basis functions of A   symmetry.
 Integral buffers will be    131072 words long.
 Raffenetti 2 integral format.
 Two-electron integral symmetry is turned on.
   197 basis functions,   415 primitive gaussians,   229 cartesian basis functions
     9 alpha electrons        9 beta electrons
       nuclear repulsion energy        36.6058450489 Hartrees.
 IExCor=32609 DFT=T Ex+Corr=LC-wPBE ExCW=0 ScaHFX=  1.000000
 ScaDFX=  1.000000  0.000000  1.000000  1.000000 ScalE2=  1.000000  1.000000
 IRadAn=      5 IRanWt=     -1 IRanGd=            0 ICorTp=0
  HFx wShort=  0.000000 wLong=  0.400000 cFull=  0.000000 cShort=  0.000000 cLong=  1.000000
  DFx wShort=  0.000000 wLong=  0.400000 cFull=  0.000000 cShort=  0.000000 cLong=  1.000000
 NAtoms=    5 NActive=    5 NUniq=    5 SFac= 1.00D+00 NAtFMM=   60 NAOKFM=F Big=F
 No density basis found on file   718.
 Leave Link  301 at Tue May 12 14:49:34 2020, MaxMem= 1073741824 cpu:       0.2
 (Enter /home/matheus/.gaussian/g09/l302.exe)
 NPDir=0 NMtPBC=     1 NCelOv=     1 NCel=       1 NClECP=     1 NCelD=      1
         NCelK=      1 NCelE2=     1 NClLst=     1 CellRange=     0.0.
 One-electron integrals computed using PRISM.
 NBasis=   197 RedAO= T  NBF=   197
 NBsUse=   197 1.00D-06 NBFU=   197
 Precomputing XC quadrature grid using
 IXCGrd= 2 IRadAn=           5 IRanWt=          -1 IRanGd=           0 AccXCQ= 0.00D+00.
 NRdTot=     427 NPtTot=      123814 NUsed=      126881 NTot=      126913
 NSgBfM=   229   229   229   229   229 NAtAll=     5     5.
 Leave Link  302 at Tue May 12 14:49:35 2020, MaxMem= 1073741824 cpu:       1.0
 (Enter /home/matheus/.gaussian/g09/l303.exe)
 DipDrv:  MaxL=1.
 Leave Link  303 at Tue May 12 14:49:35 2020, MaxMem= 1073741824 cpu:       0.2
 (Enter /home/matheus/.gaussian/g09/l401.exe)
 Harris functional with IExCor=32609 diagonalized for initial guess.
 ExpMin= 2.53D-02 ExpMax= 1.17D+07 ExpMxC= 1.33D+04 IAcc=3 IRadAn=         5 AccDes= 0.00D+00
 HarFok:  IExCor=32609 AccDes= 0.00D+00 IRadAn=         5 IDoV= 1
 ScaDFX=  1.000000  1.000000  1.000000  1.000000
 FoFCou: FMM=F IPFlag=           0 FMFlag=      100000 FMFlg1=           0
         NFxFlg=           0 DoJE=T BraDBF=F KetDBF=T FulRan=T
         Omega=  0.000000  0.000000  1.000000  0.000000  0.000000 ICntrl=     500 IOpCl=  0
         NMat0=    1 NMatS0=    1 NMatT0=    0 NMatD0=    1 NMtDS0=    0 NMtDT0=    0
         I1Cent=           4 NGrid=           0.
 Petite list used in FoFCou.
 Harris En= -151.500892935306    
 Initial guess orbital symmetries:
       Occupied  (A) (A) (A) (A) (A) (A) (A) (A) (A)
       Virtual   (A) (A) (A) (A) (A) (A) (A) (A) (A) (A) (A) (A)
                 (A) (A) (A) (A) (A) (A) (A) (A) (A) (A) (A) (A)
                 (A) (A) (A) (A) (A) (A) (A) (A) (A) (A) (A) (A)
                 (A) (A) (A) (A) (A) (A) (A) (A) (A) (A) (A) (A)
                 (A) (A) (A) (A) (A) (A) (A) (A) (A) (A) (A) (A)
                 (A) (A) (A) (A) (A) (A) (A) (A) (A) (A) (A) (A)
                 (A) (A) (A) (A) (A) (A) (A) (A) (A) (A) (A) (A)
                 (A) (A) (A) (A) (A) (A) (A) (A) (A) (A) (A) (A)
                 (A) (A) (A) (A) (A) (A) (A) (A) (A) (A) (A) (A)
                 (A) (A) (A) (A) (A) (A) (A) (A) (A) (A) (A) (A)
                 (A) (A) (A) (A) (A) (A) (A) (A) (A) (A) (A) (A)
                 (A) (A) (A) (A) (A) (A) (A) (A) (A) (A) (A) (A)
                 (A) (A) (A) (A) (A) (A) (A) (A) (A) (A) (A) (A)
                 (A) (A) (A) (A) (A) (A) (A) (A) (A) (A) (A) (A)
                 (A) (A) (A) (A) (A) (A) (A) (A) (A) (A) (A) (A)
                 (A) (A) (A) (A) (A) (A) (A) (A)
 The electronic state of the initial guess is 1-A.
 Leave Link  401 at Tue May 12 14:49:35 2020, MaxMem= 1073741824 cpu:       4.1
 (Enter /home/matheus/.gaussian/g09/l502.exe)
 Closed shell SCF:
 Requested convergence on RMS density matrix=1.00D-08 within 128 cycles.
 Requested convergence on MAX density matrix=1.00D-06.
 Requested convergence on             energy=1.00D-06.
 No special actions if energy rises.
 Using DIIS extrapolation, IDIIS=  1040.
 Integral symmetry usage will be decided dynamically.
       126823 words used for storage of precomputed grid.
 IEnd=      305770 IEndB=      305770 NGot=  1073741824 MDV=  1073505365
 LenX=  1073505365 LenY=  1073452483
 Fock matrices will be formed incrementally for  20 cycles.

 Cycle   1  Pass 1  IDiag  1:
 FoFJK:  IHMeth= 1 ICntrl=     0 DoSepK=T KAlg= 1 I1Cent= 0 FoldK=F
 FoFCou: FMM=F IPFlag=           0 FMFlag=      100000 FMFlg1=           0
         NFxFlg=           0 DoJE=T BraDBF=F KetDBF=F FulRan=T
         Omega=  0.000000  0.000000  1.000000  0.000000  0.000000 ICntrl=     500 IOpCl=  0
         NMat0=    1 NMatS0=    1 NMatT0=    0 NMatD0=    1 NMtDS0=    0 NMtDT0=    0
         I1Cent=           0 NGrid=           0.
 Symmetry not used in FoFCou.
 E= -151.497773271941    
 DIIS: error= 1.16D-02 at cycle   1 NSaved=   1.
 NSaved= 1 IEnMin= 1 EnMin= -151.497773271941     IErMin= 1 ErrMin= 1.16D-02
 ErrMax= 1.16D-02 EMaxC= 1.00D-01 BMatC= 3.82D-02 BMatP= 3.82D-02
 IDIUse=3 WtCom= 8.84D-01 WtEn= 1.16D-01
 Coeff-Com:  0.100D+01
 Coeff-En:   0.100D+01
 Coeff:      0.100D+01
 Gap=     0.486 Goal=   None    Shift=    0.000
 GapD=    0.486 DampG=2.000 DampE=0.500 DampFc=1.0000 IDamp=-1.
 RMSDP=8.11D-04 MaxDP=2.32D-02              OVMax= 5.45D-02

 Cycle   2  Pass 1  IDiag  1:
 RMSU=  5.67D-04    CP:  9.88D-01
 FoFJK:  IHMeth= 1 ICntrl=     0 DoSepK=T KAlg= 1 I1Cent= 0 FoldK=F
 E= -151.511305894196     Delta-E=       -0.013532622255 Rises=F Damp=F
 DIIS: error= 8.47D-03 at cycle   2 NSaved=   2.
 NSaved= 2 IEnMin= 2 EnMin= -151.511305894196     IErMin= 2 ErrMin= 8.47D-03
 ErrMax= 8.47D-03 EMaxC= 1.00D-01 BMatC= 2.08D-02 BMatP= 3.82D-02
 IDIUse=3 WtCom= 9.15D-01 WtEn= 8.47D-02
 Coeff-Com:  0.416D+00 0.584D+00
 Coeff-En:   0.246D+00 0.754D+00
 Coeff:      0.401D+00 0.599D+00
 Gap=     0.428 Goal=   None    Shift=    0.000
 RMSDP=4.29D-04 MaxDP=2.27D-02 DE=-1.35D-02 OVMax= 2.49D-02

 Cycle   3  Pass 1  IDiag  1:
 RMSU=  2.36D-04    CP:  9.84D-01  6.67D-01
 FoFJK:  IHMeth= 1 ICntrl=     0 DoSepK=T KAlg= 1 I1Cent= 0 FoldK=F
 E= -151.523160955490     Delta-E=       -0.011855061294 Rises=F Damp=F
 DIIS: error= 1.34D-03 at cycle   3 NSaved=   3.
 NSaved= 3 IEnMin= 3 EnMin= -151.523160955490     IErMin= 3 ErrMin= 1.34D-03
 ErrMax= 1.34D-03 EMaxC= 1.00D-01 BMatC= 3.75D-04 BMatP= 2.08D-02
 IDIUse=3 WtCom= 9.87D-01 WtEn= 1.34D-02
 Coeff-Com:  0.625D-01 0.148D+00 0.789D+00
 Coeff-En:   0.000D+00 0.000D+00 0.100D+01
 Coeff:      0.617D-01 0.146D+00 0.792D+00
 Gap=     0.423 Goal=   None    Shift=    0.000
 RMSDP=5.75D-05 MaxDP=2.41D-03 DE=-1.19D-02 OVMax= 3.88D-03

 Cycle   4  Pass 1  IDiag  1:
 RMSU=  2.94D-05    CP:  9.83D-01  7.11D-01  1.02D+00
 FoFJK:  IHMeth= 1 ICntrl=     0 DoSepK=T KAlg= 1 I1Cent= 0 FoldK=F
 E= -151.523391444317     Delta-E=       -0.000230488828 Rises=F Damp=F
 DIIS: error= 2.45D-04 at cycle   4 NSaved=   4.
 NSaved= 4 IEnMin= 4 EnMin= -151.523391444317     IErMin= 4 ErrMin= 2.45D-04
 ErrMax= 2.45D-04 EMaxC= 1.00D-01 BMatC= 1.36D-05 BMatP= 3.75D-04
 IDIUse=3 WtCom= 9.98D-01 WtEn= 2.45D-03
 Coeff-Com: -0.425D-02-0.839D-02 0.122D+00 0.891D+00
 Coeff-En:   0.000D+00 0.000D+00 0.000D+00 0.100D+01
 Coeff:     -0.424D-02-0.837D-02 0.121D+00 0.891D+00
 Gap=     0.425 Goal=   None    Shift=    0.000
 RMSDP=1.36D-05 MaxDP=9.34D-04 DE=-2.30D-04 OVMax= 7.98D-04

 Cycle   5  Pass 1  IDiag  1:
 RMSU=  5.41D-06    CP:  9.82D-01  7.10D-01  1.06D+00  1.03D+00
 FoFJK:  IHMeth= 1 ICntrl=     0 DoSepK=T KAlg= 1 I1Cent= 0 FoldK=F
 E= -151.523400851442     Delta-E=       -0.000009407125 Rises=F Damp=F
 DIIS: error= 3.41D-05 at cycle   5 NSaved=   5.
 NSaved= 5 IEnMin= 5 EnMin= -151.523400851442     IErMin= 5 ErrMin= 3.41D-05
 ErrMax= 3.41D-05 EMaxC= 1.00D-01 BMatC= 1.23D-07 BMatP= 1.36D-05
 IDIUse=1 WtCom= 1.00D+00 WtEn= 0.00D+00
 Coeff-Com: -0.102D-02-0.293D-02-0.292D-01-0.758D-01 0.111D+01
 Coeff:     -0.102D-02-0.293D-02-0.292D-01-0.758D-01 0.111D+01
 Gap=     0.425 Goal=   None    Shift=    0.000
 RMSDP=3.35D-06 MaxDP=1.15D-04 DE=-9.41D-06 OVMax= 2.16D-04

 Cycle   6  Pass 1  IDiag  1:
 RMSU=  1.14D-06    CP:  9.82D-01  7.11D-01  1.06D+00  1.07D+00  1.32D+00
 FoFJK:  IHMeth= 1 ICntrl=     0 DoSepK=T KAlg= 1 I1Cent= 0 FoldK=F
 E= -151.523401119173     Delta-E=       -0.000000267731 Rises=F Damp=F
 DIIS: error= 7.55D-06 at cycle   6 NSaved=   6.
 NSaved= 6 IEnMin= 6 EnMin= -151.523401119173     IErMin= 6 ErrMin= 7.55D-06
 ErrMax= 7.55D-06 EMaxC= 1.00D-01 BMatC= 5.13D-09 BMatP= 1.23D-07
 IDIUse=1 WtCom= 1.00D+00 WtEn= 0.00D+00
 Coeff-Com:  0.150D-03 0.398D-03-0.142D-02-0.175D-01-0.424D-01 0.106D+01
 Coeff:      0.150D-03 0.398D-03-0.142D-02-0.175D-01-0.424D-01 0.106D+01
 Gap=     0.425 Goal=   None    Shift=    0.000
 RMSDP=6.89D-07 MaxDP=2.06D-05 DE=-2.68D-07 OVMax= 5.84D-05

 Cycle   7  Pass 1  IDiag  1:
 RMSU=  2.44D-07    CP:  9.82D-01  7.11D-01  1.06D+00  1.07D+00  1.37D+00
                    CP:  1.21D+00
 FoFJK:  IHMeth= 1 ICntrl=     0 DoSepK=T KAlg= 1 I1Cent= 0 FoldK=F
 E= -151.523401133666     Delta-E=       -0.000000014492 Rises=F Damp=F
 DIIS: error= 1.68D-06 at cycle   7 NSaved=   7.
 NSaved= 7 IEnMin= 7 EnMin= -151.523401133666     IErMin= 7 ErrMin= 1.68D-06
 ErrMax= 1.68D-06 EMaxC= 1.00D-01 BMatC= 4.16D-10 BMatP= 5.13D-09
 IDIUse=1 WtCom= 1.00D+00 WtEn= 0.00D+00
 Coeff-Com:  0.303D-04 0.876D-04 0.121D-02 0.440D-02-0.485D-01-0.966D-01
 Coeff-Com:  0.114D+01
 Coeff:      0.303D-04 0.876D-04 0.121D-02 0.440D-02-0.485D-01-0.966D-01
 Coeff:      0.114D+01
 Gap=     0.425 Goal=   None    Shift=    0.000
 RMSDP=2.20D-07 MaxDP=4.49D-06 DE=-1.45D-08 OVMax= 2.16D-05

 Cycle   8  Pass 1  IDiag  1:
 RMSU=  6.14D-08    CP:  9.82D-01  7.11D-01  1.06D+00  1.07D+00  1.38D+00
                    CP:  1.29D+00  1.40D+00
 FoFJK:  IHMeth= 1 ICntrl=     0 DoSepK=T KAlg= 1 I1Cent= 0 FoldK=F
 E= -151.523401135526     Delta-E=       -0.000000001861 Rises=F Damp=F
 DIIS: error= 5.15D-07 at cycle   8 NSaved=   8.
 NSaved= 8 IEnMin= 8 EnMin= -151.523401135526     IErMin= 8 ErrMin= 5.15D-07
 ErrMax= 5.15D-07 EMaxC= 1.00D-01 BMatC= 7.19D-11 BMatP= 4.16D-10
 IDIUse=1 WtCom= 1.00D+00 WtEn= 0.00D+00
 Coeff-Com: -0.155D-05-0.702D-05 0.219D-03 0.148D-02-0.489D-02-0.647D-01
 Coeff-Com:  0.178D+00 0.890D+00
 Coeff:     -0.155D-05-0.702D-05 0.219D-03 0.148D-02-0.489D-02-0.647D-01
 Coeff:      0.178D+00 0.890D+00
 Gap=     0.425 Goal=   None    Shift=    0.000
 RMSDP=6.68D-08 MaxDP=2.43D-06 DE=-1.86D-09 OVMax= 8.12D-06

 Cycle   9  Pass 1  IDiag  1:
 RMSU=  2.90D-08    CP:  9.82D-01  7.11D-01  1.06D+00  1.07D+00  1.38D+00
                    CP:  1.29D+00  1.51D+00  1.35D+00
 FoFJK:  IHMeth= 1 ICntrl=     0 DoSepK=T KAlg= 1 I1Cent= 0 FoldK=F
 E= -151.523401135665     Delta-E=       -0.000000000139 Rises=F Damp=F
 DIIS: error= 4.72D-07 at cycle   9 NSaved=   9.
 NSaved= 9 IEnMin= 9 EnMin= -151.523401135665     IErMin= 9 ErrMin= 4.72D-07
 ErrMax= 4.72D-07 EMaxC= 1.00D-01 BMatC= 5.28D-11 BMatP= 7.19D-11
 IDIUse=1 WtCom= 1.00D+00 WtEn= 0.00D+00
 Coeff-Com: -0.920D-05-0.293D-04-0.240D-03-0.471D-03 0.116D-01-0.673D-02
 Coeff-Com: -0.245D+00 0.545D+00 0.696D+00
 Coeff:     -0.920D-05-0.293D-04-0.240D-03-0.471D-03 0.116D-01-0.673D-02
 Coeff:     -0.245D+00 0.545D+00 0.696D+00
 Gap=     0.425 Goal=   None    Shift=    0.000
 RMSDP=4.11D-08 MaxDP=1.38D-06 DE=-1.39D-10 OVMax= 5.46D-06

 Cycle  10  Pass 1  IDiag  1:
 RMSU=  1.18D-08    CP:  9.82D-01  7.11D-01  1.06D+00  1.07D+00  1.38D+00
                    CP:  1.30D+00  1.57D+00  1.68D+00  1.04D+00
 FoFJK:  IHMeth= 1 ICntrl=     0 DoSepK=T KAlg= 1 I1Cent= 0 FoldK=F
 E= -151.523401135733     Delta-E=       -0.000000000068 Rises=F Damp=F
 DIIS: error= 9.29D-08 at cycle  10 NSaved=  10.
 NSaved=10 IEnMin=10 EnMin= -151.523401135733     IErMin=10 ErrMin= 9.29D-08
 ErrMax= 9.29D-08 EMaxC= 1.00D-01 BMatC= 1.93D-12 BMatP= 5.28D-11
 IDIUse=1 WtCom= 1.00D+00 WtEn= 0.00D+00
 Coeff-Com:  0.140D-05 0.485D-05-0.148D-04-0.235D-03-0.184D-03 0.134D-01
 Coeff-Com: -0.280D-01-0.147D+00-0.658D-01 0.123D+01
 Coeff:      0.140D-05 0.485D-05-0.148D-04-0.235D-03-0.184D-03 0.134D-01
 Coeff:     -0.280D-01-0.147D+00-0.658D-01 0.123D+01
 Gap=     0.425 Goal=   None    Shift=    0.000
 RMSDP=2.14D-08 MaxDP=4.47D-07 DE=-6.79D-11 OVMax= 3.24D-06

 Cycle  11  Pass 1  IDiag  1:
 RMSU=  3.37D-09    CP:  9.82D-01  7.11D-01  1.06D+00  1.07D+00  1.38D+00
                    CP:  1.30D+00  1.59D+00  1.84D+00  1.27D+00  1.53D+00
 FoFJK:  IHMeth= 1 ICntrl=     0 DoSepK=T KAlg= 1 I1Cent= 0 FoldK=F
 E= -151.523401135742     Delta-E=       -0.000000000009 Rises=F Damp=F
 DIIS: error= 2.66D-08 at cycle  11 NSaved=  11.
 NSaved=11 IEnMin=11 EnMin= -151.523401135742     IErMin=11 ErrMin= 2.66D-08
 ErrMax= 2.66D-08 EMaxC= 1.00D-01 BMatC= 1.48D-13 BMatP= 1.93D-12
 IDIUse=1 WtCom= 1.00D+00 WtEn= 0.00D+00
 Coeff-Com:  0.121D-05 0.389D-05 0.308D-04 0.630D-04-0.144D-02 0.105D-02
 Coeff-Com:  0.299D-01-0.330D-01-0.646D-01-0.200D+00 0.127D+01
 Coeff:      0.121D-05 0.389D-05 0.308D-04 0.630D-04-0.144D-02 0.105D-02
 Coeff:      0.299D-01-0.330D-01-0.646D-01-0.200D+00 0.127D+01
 Gap=     0.425 Goal=   None    Shift=    0.000
 RMSDP=7.13D-09 MaxDP=2.36D-07 DE=-8.70D-12 OVMax= 9.73D-07

 SCF Done:  E(RLC-wPBE) =  -151.523401136     A.U. after   11 cycles
             Convg  =    0.7132D-08             -V/T =  2.0068
 KE= 1.504988432004D+02 PE=-4.315013331947D+02 EE= 9.287324380961D+01
 Leave Link  502 at Tue May 12 14:50:06 2020, MaxMem= 1073741824 cpu:     242.9
 (Enter /home/matheus/.gaussian/g09/l601.exe)
 Copying SCF densities to generalized density rwf, IOpCl= 0 IROHF=0.

 **********************************************************************

            Population analysis using the SCF density.

 **********************************************************************

 Orbital symmetries:
       Occupied  (A) (A) (A) (A) (A) (A) (A) (A) (A)
       Virtual   (A) (A) (A) (A) (A) (A) (A) (A) (A) (A) (A) (A)
                 (A) (A) (A) (A) (A) (A) (A) (A) (A) (A) (A) (A)
                 (A) (A) (A) (A) (A) (A) (A) (A) (A) (A) (A) (A)
                 (A) (A) (A) (A) (A) (A) (A) (A) (A) (A) (A) (A)
                 (A) (A) (A) (A) (A) (A) (A) (A) (A) (A) (A) (A)
                 (A) (A) (A) (A) (A) (A) (A) (A) (A) (A) (A) (A)
                 (A) (A) (A) (A) (A) (A) (A) (A) (A) (A) (A) (A)
                 (A) (A) (A) (A) (A) (A) (A) (A) (A) (A) (A) (A)
                 (A) (A) (A) (A) (A) (A) (A) (A) (A) (A) (A) (A)
                 (A) (A) (A) (A) (A) (A) (A) (A) (A) (A) (A) (A)
                 (A) (A) (A) (A) (A) (A) (A) (A) (A) (A) (A) (A)
                 (A) (A) (A) (A) (A) (A) (A) (A) (A) (A) (A) (A)
                 (A) (A) (A) (A) (A) (A) (A) (A) (A) (A) (A) (A)
                 (A) (A) (A) (A) (A) (A) (A) (A) (A) (A) (A) (A)
                 (A) (A) (A) (A) (A) (A) (A) (A) (A) (A) (A) (A)
                 (A) (A) (A) (A) (A) (A) (A) (A)
 The electronic state is 1-A.
 Alpha  occ. eigenvalues --  -19.03534 -19.03532  -1.25329  -1.04184  -0.67590
 Alpha  occ. eigenvalues --   -0.62553  -0.54385  -0.46546  -0.39682
 Alpha virt. eigenvalues --    0.02803   0.03554   0.07087   0.08794   0.10066
 Alpha virt. eigenvalues --    0.10383   0.11090   0.13996   0.16593   0.16958
 Alpha virt. eigenvalues --    0.18647   0.19293   0.21062   0.23279   0.25457
 Alpha virt. eigenvalues --    0.27345   0.30415   0.31448   0.32496   0.33396
 Alpha virt. eigenvalues --    0.35298   0.38242   0.38664   0.39802   0.40783
 Alpha virt. eigenvalues --    0.42554   0.44057   0.47184   0.48874   0.49802
 Alpha virt. eigenvalues --    0.55194   0.57952   0.59742   0.63847   0.68885
 Alpha virt. eigenvalues --    0.70893   0.74387   0.74813   0.76007   0.77306
 Alpha virt. eigenvalues --    0.79847   0.82466   0.87417   0.89649   0.90813
 Alpha virt. eigenvalues --    0.91819   0.94038   0.96015   0.97567   0.99731
 Alpha virt. eigenvalues --    1.00237   1.04675   1.06342   1.08474   1.12350
 Alpha virt. eigenvalues --    1.12797   1.15461   1.17949   1.22935   1.23571
 Alpha virt. eigenvalues --    1.25795   1.30802   1.31941   1.32642   1.33674
 Alpha virt. eigenvalues --    1.34413   1.35652   1.36687   1.37702   1.39714
 Alpha virt. eigenvalues --    1.46653   1.50436   1.53491   1.54289   1.55473
 Alpha virt. eigenvalues --    1.57829   1.64193   1.68805   1.69305   1.79871
 Alpha virt. eigenvalues --    1.83005   1.83905   1.87890   1.96123   2.00788
 Alpha virt. eigenvalues --    2.06912   2.08705   2.15256   2.17688   2.22381
 Alpha virt. eigenvalues --    2.27053   2.28905   2.31310   2.35025   2.43721
 Alpha virt. eigenvalues --    2.47803   2.52698   2.53904   2.61859   2.65297
 Alpha virt. eigenvalues --    2.69402   2.73773   2.82669   2.83648   2.90960
 Alpha virt. eigenvalues --    3.04052   3.08599   3.10340   3.26107   3.30510
 Alpha virt. eigenvalues --    3.40931   3.56367   3.58835   3.68572   3.78648
 Alpha virt. eigenvalues --    3.78939   3.81093   3.82649   3.82701   3.83391
 Alpha virt. eigenvalues --    3.87192   3.89783   3.91019   3.94125   3.95931
 Alpha virt. eigenvalues --    4.00660   4.01731   4.05482   4.06848   4.11487
 Alpha virt. eigenvalues --    4.15291   4.19158   4.23679   4.29820   4.35332
 Alpha virt. eigenvalues --    4.45678   4.51559   4.54000   4.70549   4.91654
 Alpha virt. eigenvalues --    4.99657   5.01961   5.08033   5.11421   5.27854
 Alpha virt. eigenvalues --    5.40705   5.81789   6.03179   6.04951   6.09581
 Alpha virt. eigenvalues --    6.30652   6.33775   6.38325   6.49879   6.63362
 Alpha virt. eigenvalues --    6.70669   6.73844   6.79684   6.83145   6.83283
 Alpha virt. eigenvalues --    6.87905   6.89018   6.93834   6.98990   7.01308
 Alpha virt. eigenvalues --    7.18627   7.23048   7.36690   7.69581   7.77693
 Alpha virt. eigenvalues --    8.02633   8.08629  10.89114  13.90313  14.51879
 Alpha virt. eigenvalues --   14.83555  14.88620  15.10661  29.03285  29.03762
 Alpha virt. eigenvalues --   29.08209  29.13745  29.23307  49.10542 148.31631
 Alpha virt. eigenvalues --  148.38924 148.71511 752.49716
          Condensed to atoms (all electrons):
              1          2          3          4          5
     1  O    8.225795  -0.220313   0.198085  -0.002337   0.000342
     2  O   -0.220313   8.218001   0.013667   0.206571  -0.000155
     3  H    0.198085   0.013667   0.582885   0.004258   0.000043
     4  H   -0.002337   0.206571   0.004258   0.581495  -0.004736
     5  Kr   0.000342  -0.000155   0.000043  -0.004736   0.000976
 Mulliken atomic charges:
              1
     1  O   -0.201572
     2  O   -0.217770
     3  H    0.201061
     4  H    0.214749
     5  Kr   0.003531
 Sum of Mulliken atomic charges =   0.00000
 Mulliken charges with hydrogens summed into heavy atoms:
              1
     1  O   -0.000511
     2  O   -0.003021
     5  Kr   0.003531
 Sum of Mulliken charges with hydrogens summed into heavy atoms =   0.00000
          Condensed to fragments (all electrons):
     1      -0.003531
     2       0.003531
 Electronic spatial extent (au):  <R**2>=            323.8768
 Charge=              0.0000 electrons
 Dipole moment (field-independent basis, Debye):
    X=             -0.3623    Y=             -0.0653    Z=              1.0407  Tot=              1.1039
 Quadrupole moment (field-independent basis, Debye-Ang):
   XX=            -10.8853   YY=            -10.6510   ZZ=            -12.5032
   XY=             -3.8031   XZ=              2.9926   YZ=             -1.1051
 Traceless Quadrupole moment (field-independent basis, Debye-Ang):
   XX=              0.4612   YY=              0.6955   ZZ=             -1.1567
   XY=             -3.8031   XZ=              2.9926   YZ=             -1.1051
 Octapole moment (field-independent basis, Debye-Ang**2):
  XXX=            -61.7280  YYY=             -1.3540  ZZZ=              0.7670  XYY=            -21.7969
  XXY=            -14.4437  XXZ=              8.6510  XZZ=            -24.5622  YZZ=             -1.1024
  YYZ=              1.4015  XYZ=             -3.2384
 Hexadecapole moment (field-independent basis, Debye-Ang**3):
 XXXX=           -255.1168 YYYY=            -45.8153 ZZZZ=            -11.9646 XXXY=            -42.1637
 XXXZ=             24.6119 YYYX=             -5.1212 YYYZ=             -1.4407 ZZZX=              1.6076
 ZZZY=             -0.8186 XXYY=            -52.4830 XXZZ=            -52.1959 YYZZ=            -11.0060
 XXYZ=             -9.2893 YYXZ=              3.6300 ZZXY=             -1.7922
 N-N= 3.660584504895D+01 E-N=-4.315013330893D+02  KE= 1.504988432004D+02
 No NMR shielding tensors so no spin-rotation constants.
 Leave Link  601 at Tue May 12 14:50:06 2020, MaxMem= 1073741824 cpu:       0.8
 (Enter /home/matheus/.gaussian/g09/l122.exe)
 Counterpoise: doing DCBS calculation for fragment   2 NewBq=T
 Leave Link  122 at Tue May 12 14:50:06 2020, MaxMem= 1073741824 cpu:       0.0
 (Enter /home/matheus/.gaussian/g09/l301.exe)
 Basis read from rwf:  (5D, 7F)
 No pseudopotential information found on rwf file.
 There are   197 symmetry adapted basis functions of A   symmetry.
 Integral buffers will be    131072 words long.
 Raffenetti 2 integral format.
 Two-electron integral symmetry is turned on.
   197 basis functions,   415 primitive gaussians,   229 cartesian basis functions
    18 alpha electrons       18 beta electrons
       nuclear repulsion energy         0.0000000000 Hartrees.
 IExCor=32609 DFT=T Ex+Corr=LC-wPBE ExCW=0 ScaHFX=  1.000000
 ScaDFX=  1.000000  0.000000  1.000000  1.000000 ScalE2=  1.000000  1.000000
 IRadAn=      5 IRanWt=     -1 IRanGd=            0 ICorTp=0
  HFx wShort=  0.000000 wLong=  0.400000 cFull=  0.000000 cShort=  0.000000 cLong=  1.000000
  DFx wShort=  0.000000 wLong=  0.400000 cFull=  0.000000 cShort=  0.000000 cLong=  1.000000
 NAtoms=    5 NActive=    5 NUniq=    5 SFac= 1.00D+00 NAtFMM=   60 NAOKFM=F Big=F
 No density basis found on file   718.
 Leave Link  301 at Tue May 12 14:50:06 2020, MaxMem= 1073741824 cpu:       0.2
 (Enter /home/matheus/.gaussian/g09/l302.exe)
 NPDir=0 NMtPBC=     1 NCelOv=     1 NCel=       1 NClECP=     1 NCelD=      1
         NCelK=      1 NCelE2=     1 NClLst=     1 CellRange=     0.0.
 One-electron integrals computed using PRISM.
 NBasis=   197 RedAO= T  NBF=   197
 NBsUse=   197 1.00D-06 NBFU=   197
 Precomputing XC quadrature grid using
 IXCGrd= 2 IRadAn=           5 IRanWt=          -1 IRanGd=           0 AccXCQ= 0.00D+00.
 NRdTot=     427 NPtTot=      123814 NUsed=      126881 NTot=      126913
 NSgBfM=   229   229   229   229   229 NAtAll=     5     5.
 Leave Link  302 at Tue May 12 14:50:06 2020, MaxMem= 1073741824 cpu:       1.0
 (Enter /home/matheus/.gaussian/g09/l303.exe)
 DipDrv:  MaxL=1.
 Leave Link  303 at Tue May 12 14:50:06 2020, MaxMem= 1073741824 cpu:       0.2
 (Enter /home/matheus/.gaussian/g09/l401.exe)
 Harris functional with IExCor=32609 diagonalized for initial guess.
 ExpMin= 2.53D-02 ExpMax= 1.17D+07 ExpMxC= 1.33D+04 IAcc=3 IRadAn=         5 AccDes= 0.00D+00
 HarFok:  IExCor=32609 AccDes= 0.00D+00 IRadAn=         5 IDoV= 1
 ScaDFX=  1.000000  1.000000  1.000000  1.000000
 FoFCou: FMM=F IPFlag=           0 FMFlag=      100000 FMFlg1=           0
         NFxFlg=           0 DoJE=T BraDBF=F KetDBF=T FulRan=T
         Omega=  0.000000  0.000000  1.000000  0.000000  0.000000 ICntrl=     500 IOpCl=  0
         NMat0=    1 NMatS0=    1 NMatT0=    0 NMatD0=    1 NMtDS0=    0 NMtDT0=    0
         I1Cent=           4 NGrid=           0.
 Petite list used in FoFCou.
 Harris En= -2753.24648728010    
 Initial guess orbital symmetries:
       Occupied  (A) (A) (A) (A) (A) (A) (A) (A) (A) (A) (A) (A)
                 (A) (A) (A) (A) (A) (A)
       Virtual   (A) (A) (A) (A) (A) (A) (A) (A) (A) (A) (A) (A)
                 (A) (A) (A) (A) (A) (A) (A) (A) (A) (A) (A) (A)
                 (A) (A) (A) (A) (A) (A) (A) (A) (A) (A) (A) (A)
                 (A) (A) (A) (A) (A) (A) (A) (A) (A) (A) (A) (A)
                 (A) (A) (A) (A) (A) (A) (A) (A) (A) (A) (A) (A)
                 (A) (A) (A) (A) (A) (A) (A) (A) (A) (A) (A) (A)
                 (A) (A) (A) (A) (A) (A) (A) (A) (A) (A) (A) (A)
                 (A) (A) (A) (A) (A) (A) (A) (A) (A) (A) (A) (A)
                 (A) (A) (A) (A) (A) (A) (A) (A) (A) (A) (A) (A)
                 (A) (A) (A) (A) (A) (A) (A) (A) (A) (A) (A) (A)
                 (A) (A) (A) (A) (A) (A) (A) (A) (A) (A) (A) (A)
                 (A) (A) (A) (A) (A) (A) (A) (A) (A) (A) (A) (A)
                 (A) (A) (A) (A) (A) (A) (A) (A) (A) (A) (A) (A)
                 (A) (A) (A) (A) (A) (A) (A) (A) (A) (A) (A) (A)
                 (A) (A) (A) (A) (A) (A) (A) (A) (A) (A) (A)
 The electronic state of the initial guess is 1-A.
 Leave Link  401 at Tue May 12 14:50:06 2020, MaxMem= 1073741824 cpu:       3.6
 (Enter /home/matheus/.gaussian/g09/l502.exe)
 Closed shell SCF:
 Requested convergence on RMS density matrix=1.00D-08 within 128 cycles.
 Requested convergence on MAX density matrix=1.00D-06.
 Requested convergence on             energy=1.00D-06.
 No special actions if energy rises.
 Using DIIS extrapolation, IDIIS=  1040.
 Integral symmetry usage will be decided dynamically.
       126823 words used for storage of precomputed grid.
 IEnd=      305770 IEndB=      305770 NGot=  1073741824 MDV=  1073505365
 LenX=  1073505365 LenY=  1073452483
 Fock matrices will be formed incrementally for  20 cycles.

 Cycle   1  Pass 1  IDiag  1:
 FoFJK:  IHMeth= 1 ICntrl=     0 DoSepK=T KAlg= 1 I1Cent= 0 FoldK=F
 FoFCou: FMM=F IPFlag=           0 FMFlag=      100000 FMFlg1=           0
         NFxFlg=           0 DoJE=T BraDBF=F KetDBF=F FulRan=T
         Omega=  0.000000  0.000000  1.000000  0.000000  0.000000 ICntrl=     500 IOpCl=  0
         NMat0=    1 NMatS0=    1 NMatT0=    0 NMatD0=    1 NMtDS0=    0 NMtDT0=    0
         I1Cent=           0 NGrid=           0.
 Symmetry not used in FoFCou.
 E= -2753.38972091797    
 DIIS: error= 2.86D-02 at cycle   1 NSaved=   1.
 NSaved= 1 IEnMin= 1 EnMin= -2753.38972091797     IErMin= 1 ErrMin= 2.86D-02
 ErrMax= 2.86D-02 EMaxC= 1.00D-01 BMatC= 2.22D-01 BMatP= 2.22D-01
 IDIUse=3 WtCom= 7.14D-01 WtEn= 2.86D-01
 Coeff-Com:  0.100D+01
 Coeff-En:   0.100D+01
 Coeff:      0.100D+01
 Gap=     0.609 Goal=   None    Shift=    0.000
 GapD=    0.609 DampG=2.000 DampE=0.500 DampFc=1.0000 IDamp=-1.
 RMSDP=2.10D-03 MaxDP=1.47D-01              OVMax= 5.10D-02

 Cycle   2  Pass 1  IDiag  1:
 RMSU=  1.45D-03    CP:  1.02D+00
 FoFJK:  IHMeth= 1 ICntrl=     0 DoSepK=T KAlg= 1 I1Cent= 0 FoldK=F
 E= -2753.42036118263     Delta-E=       -0.030640264664 Rises=F Damp=F
 DIIS: error= 1.18D-02 at cycle   2 NSaved=   2.
 NSaved= 2 IEnMin= 2 EnMin= -2753.42036118263     IErMin= 2 ErrMin= 1.18D-02
 ErrMax= 1.18D-02 EMaxC= 1.00D-01 BMatC= 5.51D-02 BMatP= 2.22D-01
 IDIUse=3 WtCom= 8.82D-01 WtEn= 1.18D-01
 Coeff-Com:  0.328D+00 0.672D+00
 Coeff-En:   0.130D+00 0.870D+00
 Coeff:      0.305D+00 0.695D+00
 Gap=     0.524 Goal=   None    Shift=    0.000
 RMSDP=7.98D-04 MaxDP=5.15D-02 DE=-3.06D-02 OVMax= 2.09D-02

 Cycle   3  Pass 1  IDiag  1:
 RMSU=  1.65D-04    CP:  1.01D+00  6.40D-01
 FoFJK:  IHMeth= 1 ICntrl=     0 DoSepK=T KAlg= 1 I1Cent= 0 FoldK=F
 E= -2753.43556951494     Delta-E=       -0.015208332310 Rises=F Damp=F
 DIIS: error= 1.35D-03 at cycle   3 NSaved=   3.
 NSaved= 3 IEnMin= 3 EnMin= -2753.43556951494     IErMin= 3 ErrMin= 1.35D-03
 ErrMax= 1.35D-03 EMaxC= 1.00D-01 BMatC= 6.05D-04 BMatP= 5.51D-02
 IDIUse=3 WtCom= 9.86D-01 WtEn= 1.35D-02
 Coeff-Com: -0.249D-03 0.939D-01 0.906D+00
 Coeff-En:   0.000D+00 0.000D+00 0.100D+01
 Coeff:     -0.246D-03 0.927D-01 0.908D+00
 Gap=     0.531 Goal=   None    Shift=    0.000
 RMSDP=7.50D-05 MaxDP=4.42D-03 DE=-1.52D-02 OVMax= 2.68D-03

 Cycle   4  Pass 1  IDiag  1:
 RMSU=  1.80D-05    CP:  1.01D+00  6.73D-01  9.96D-01
 FoFJK:  IHMeth= 1 ICntrl=     0 DoSepK=T KAlg= 1 I1Cent= 0 FoldK=F
 E= -2753.43575226167     Delta-E=       -0.000182746731 Rises=F Damp=F
 DIIS: error= 3.70D-05 at cycle   4 NSaved=   4.
 NSaved= 4 IEnMin= 4 EnMin= -2753.43575226167     IErMin= 4 ErrMin= 3.70D-05
 ErrMax= 3.70D-05 EMaxC= 1.00D-01 BMatC= 4.54D-07 BMatP= 6.05D-04
 IDIUse=1 WtCom= 1.00D+00 WtEn= 0.00D+00
 Coeff-Com: -0.125D-02-0.162D-01-0.112D+00 0.113D+01
 Coeff:     -0.125D-02-0.162D-01-0.112D+00 0.113D+01
 Gap=     0.531 Goal=   None    Shift=    0.000
 RMSDP=6.40D-06 MaxDP=2.49D-04 DE=-1.83D-04 OVMax= 3.91D-04

 Cycle   5  Pass 1  IDiag  1:
 RMSU=  2.18D-06    CP:  1.01D+00  6.72D-01  1.01D+00  1.12D+00
 FoFJK:  IHMeth= 1 ICntrl=     0 DoSepK=T KAlg= 1 I1Cent= 0 FoldK=F
 E= -2753.43575279208     Delta-E=       -0.000000530409 Rises=F Damp=F
 DIIS: error= 7.23D-06 at cycle   5 NSaved=   5.
 NSaved= 5 IEnMin= 5 EnMin= -2753.43575279208     IErMin= 5 ErrMin= 7.23D-06
 ErrMax= 7.23D-06 EMaxC= 1.00D-01 BMatC= 1.16D-08 BMatP= 4.54D-07
 IDIUse=1 WtCom= 1.00D+00 WtEn= 0.00D+00
 Coeff-Com:  0.278D-04-0.235D-02-0.244D-01 0.933D-01 0.933D+00
 Coeff:      0.278D-04-0.235D-02-0.244D-01 0.933D-01 0.933D+00
 Gap=     0.531 Goal=   None    Shift=    0.000
 RMSDP=7.14D-07 MaxDP=3.09D-05 DE=-5.30D-07 OVMax= 3.05D-05

 Cycle   6  Pass 1  IDiag  1:
 RMSU=  2.12D-07    CP:  1.01D+00  6.73D-01  1.01D+00  1.15D+00  1.03D+00
 FoFJK:  IHMeth= 1 ICntrl=     0 DoSepK=T KAlg= 1 I1Cent= 0 FoldK=F
 E= -2753.43575280155     Delta-E=       -0.000000009471 Rises=F Damp=F
 DIIS: error= 3.56D-07 at cycle   6 NSaved=   6.
 NSaved= 6 IEnMin= 6 EnMin= -2753.43575280155     IErMin= 6 ErrMin= 3.56D-07
 ErrMax= 3.56D-07 EMaxC= 1.00D-01 BMatC= 4.15D-11 BMatP= 1.16D-08
 IDIUse=1 WtCom= 1.00D+00 WtEn= 0.00D+00
 Coeff-Com:  0.255D-05 0.151D-03 0.160D-02-0.113D-01-0.800D-01 0.109D+01
 Coeff:      0.255D-05 0.151D-03 0.160D-02-0.113D-01-0.800D-01 0.109D+01
 Gap=     0.531 Goal=   None    Shift=    0.000
 RMSDP=9.79D-08 MaxDP=3.60D-06 DE=-9.47D-09 OVMax= 4.47D-06

 Cycle   7  Pass 1  IDiag  1:
 RMSU=  1.61D-08    CP:  1.01D+00  6.73D-01  1.01D+00  1.15D+00  1.05D+00
                    CP:  1.23D+00
 FoFJK:  IHMeth= 1 ICntrl=     0 DoSepK=T KAlg= 1 I1Cent= 0 FoldK=F
 E= -2753.43575280166     Delta-E=       -0.000000000105 Rises=F Damp=F
 DIIS: error= 6.30D-08 at cycle   7 NSaved=   7.
 NSaved= 7 IEnMin= 7 EnMin= -2753.43575280166     IErMin= 7 ErrMin= 6.30D-08
 ErrMax= 6.30D-08 EMaxC= 1.00D-01 BMatC= 1.40D-12 BMatP= 4.15D-11
 IDIUse=1 WtCom= 1.00D+00 WtEn= 0.00D+00
 Coeff-Com: -0.225D-06 0.257D-04 0.282D-03-0.145D-02-0.161D-01 0.124D+00
 Coeff-Com:  0.894D+00
 Coeff:     -0.225D-06 0.257D-04 0.282D-03-0.145D-02-0.161D-01 0.124D+00
 Coeff:      0.894D+00
 Gap=     0.531 Goal=   None    Shift=    0.000
 RMSDP=1.09D-08 MaxDP=4.04D-07 DE=-1.05D-10 OVMax= 6.30D-07

 Cycle   8  Pass 1  IDiag  1:
 RMSU=  3.72D-09    CP:  1.01D+00  6.73D-01  1.01D+00  1.15D+00  1.05D+00
                    CP:  1.25D+00  1.11D+00
 FoFJK:  IHMeth= 1 ICntrl=     0 DoSepK=T KAlg= 1 I1Cent= 0 FoldK=F
 E= -2753.43575280167     Delta-E=       -0.000000000007 Rises=F Damp=F
 DIIS: error= 1.79D-08 at cycle   8 NSaved=   8.
 NSaved= 8 IEnMin= 8 EnMin= -2753.43575280167     IErMin= 8 ErrMin= 1.79D-08
 ErrMax= 1.79D-08 EMaxC= 1.00D-01 BMatC= 1.11D-13 BMatP= 1.40D-12
 IDIUse=1 WtCom= 1.00D+00 WtEn= 0.00D+00
 Coeff-Com: -0.287D-06-0.121D-04-0.127D-03 0.971D-03 0.512D-02-0.854D-01
 Coeff-Com:  0.692D-01 0.101D+01
 Coeff:     -0.287D-06-0.121D-04-0.127D-03 0.971D-03 0.512D-02-0.854D-01
 Coeff:      0.692D-01 0.101D+01
 Gap=     0.531 Goal=   None    Shift=    0.000
 RMSDP=3.87D-09 MaxDP=1.57D-07 DE=-7.28D-12 OVMax= 2.40D-07

 SCF Done:  E(RLC-wPBE) =  -2753.43575280     A.U. after    8 cycles
             Convg  =    0.3870D-08             -V/T =  2.0014
 KE= 2.749488312466D+03 PE=-6.578896818999D+03 EE= 1.075972753731D+03
 Leave Link  502 at Tue May 12 14:50:29 2020, MaxMem= 1073741824 cpu:     184.0
 (Enter /home/matheus/.gaussian/g09/l601.exe)
 Copying SCF densities to generalized density rwf, IOpCl= 0 IROHF=0.

 **********************************************************************

            Population analysis using the SCF density.

 **********************************************************************

 Orbital symmetries:
       Occupied  (A) (A) (A) (A) (A) (A) (A) (A) (A) (A) (A) (A)
                 (A) (A) (A) (A) (A) (A)
       Virtual   (A) (A) (A) (A) (A) (A) (A) (A) (A) (A) (A) (A)
                 (A) (A) (A) (A) (A) (A) (A) (A) (A) (A) (A) (A)
                 (A) (A) (A) (A) (A) (A) (A) (A) (A) (A) (A) (A)
                 (A) (A) (A) (A) (A) (A) (A) (A) (A) (A) (A) (A)
                 (A) (A) (A) (A) (A) (A) (A) (A) (A) (A) (A) (A)
                 (A) (A) (A) (A) (A) (A) (A) (A) (A) (A) (A) (A)
                 (A) (A) (A) (A) (A) (A) (A) (A) (A) (A) (A) (A)
                 (A) (A) (A) (A) (A) (A) (A) (A) (A) (A) (A) (A)
                 (A) (A) (A) (A) (A) (A) (A) (A) (A) (A) (A) (A)
                 (A) (A) (A) (A) (A) (A) (A) (A) (A) (A) (A) (A)
                 (A) (A) (A) (A) (A) (A) (A) (A) (A) (A) (A) (A)
                 (A) (A) (A) (A) (A) (A) (A) (A) (A) (A) (A) (A)
                 (A) (A) (A) (A) (A) (A) (A) (A) (A) (A) (A) (A)
                 (A) (A) (A) (A) (A) (A) (A) (A) (A) (A) (A) (A)
                 (A) (A) (A) (A) (A) (A) (A) (A) (A) (A) (A)
 The electronic state is 1-A.
 Alpha  occ. eigenvalues -- -511.10626 -66.65305 -60.31519 -60.31516 -60.31515
 Alpha  occ. eigenvalues --   -9.58572  -7.32996  -7.32994  -7.32994  -3.28540
 Alpha  occ. eigenvalues --   -3.28539  -3.28539  -3.28538  -3.28538  -1.03232
 Alpha  occ. eigenvalues --   -0.50220  -0.50217  -0.50216
 Alpha virt. eigenvalues --    0.02864   0.04861   0.08347   0.09538   0.11084
 Alpha virt. eigenvalues --    0.12149   0.13079   0.14137   0.16477   0.17070
 Alpha virt. eigenvalues --    0.17650   0.19637   0.21078   0.25853   0.27236
 Alpha virt. eigenvalues --    0.27799   0.28346   0.32130   0.33506   0.35401
 Alpha virt. eigenvalues --    0.35925   0.37187   0.37753   0.39247   0.41789
 Alpha virt. eigenvalues --    0.42028   0.43447   0.53844   0.55261   0.58106
 Alpha virt. eigenvalues --    0.58668   0.66274   0.66875   0.70147   0.72171
 Alpha virt. eigenvalues --    0.74574   0.75445   0.76701   0.77283   0.78499
 Alpha virt. eigenvalues --    0.80256   0.80639   0.83556   0.85208   0.85519
 Alpha virt. eigenvalues --    0.87095   0.88139   0.89422   0.91669   0.94532
 Alpha virt. eigenvalues --    0.97979   0.98836   1.00656   1.03119   1.03622
 Alpha virt. eigenvalues --    1.05867   1.07038   1.08447   1.12126   1.13178
 Alpha virt. eigenvalues --    1.14953   1.18852   1.20627   1.24028   1.27830
 Alpha virt. eigenvalues --    1.32948   1.35461   1.41165   1.44476   1.44699
 Alpha virt. eigenvalues --    1.57897   1.59120   1.60171   1.72061   1.78545
 Alpha virt. eigenvalues --    1.81649   1.85106   1.87449   1.91236   2.15317
 Alpha virt. eigenvalues --    2.19222   2.25748   2.27459   2.30390   2.31005
 Alpha virt. eigenvalues --    2.32299   2.32789   2.36075   2.37412   2.39769
 Alpha virt. eigenvalues --    2.44186   2.47715   2.48681   2.49211   2.49526
 Alpha virt. eigenvalues --    2.50902   2.53954   2.55451   2.55889   2.59248
 Alpha virt. eigenvalues --    2.62157   2.63256   2.64421   2.64647   2.68000
 Alpha virt. eigenvalues --    2.71912   2.75564   2.78957   2.83942   2.88037
 Alpha virt. eigenvalues --    2.91753   2.95934   3.04235   3.12837   3.16503
 Alpha virt. eigenvalues --    3.22174   3.27707   3.33180   3.35629   3.51295
 Alpha virt. eigenvalues --    3.60921   3.66426   3.82797   3.87081   4.03355
 Alpha virt. eigenvalues --    4.35469   4.50243   4.52816   4.54485   4.58420
 Alpha virt. eigenvalues --    4.71889   4.87963   4.88588   4.94366   5.03946
 Alpha virt. eigenvalues --    5.14321   5.17349   5.59740   5.63079   5.83061
 Alpha virt. eigenvalues --    5.98340   6.05659   6.11366   6.79264   6.86341
 Alpha virt. eigenvalues --    7.32692   7.39303   7.63014   7.65219   7.69742
 Alpha virt. eigenvalues --    7.84742   8.00340   8.10414   8.17854   8.22084
 Alpha virt. eigenvalues --    8.37828   8.40674   8.64120   8.88782   9.62039
 Alpha virt. eigenvalues --    9.70934   9.79947   9.88161   9.96842  10.03012
 Alpha virt. eigenvalues --   10.15905  10.26417  10.46165  10.94138  11.50372
 Alpha virt. eigenvalues --   11.60055  11.64114  12.05627  12.05872  13.25286
 Alpha virt. eigenvalues --   13.62879  14.53503  62.73182  64.57936
          Condensed to atoms (all electrons):
              1          2          3          4          5
     1  O    0.001695  -0.001406  -0.000867   0.000921  -0.009020
     2  O   -0.001406   0.004180   0.000368  -0.002981   0.000280
     3  H   -0.000867   0.000368   0.000611  -0.000229   0.002327
     4  H    0.000921  -0.002981  -0.000229   0.003629  -0.028663
     5  Kr  -0.009020   0.000280   0.002327  -0.028663  36.068424
 Mulliken atomic charges:
              1
     1  O    0.008677
     2  O   -0.000442
     3  H   -0.002210
     4  H    0.027323
     5  Kr  -0.033348
 Sum of Mulliken atomic charges =   0.00000
 Mulliken charges with hydrogens summed into heavy atoms:
              1
     1  O    0.006466
     2  O    0.026881
     5  Kr  -0.033348
 Sum of Mulliken charges with hydrogens summed into heavy atoms =   0.00000
          Condensed to fragments (all electrons):
     1       0.033348
     2      -0.033348
 Electronic spatial extent (au):  <R**2>=            166.8567
 Charge=              0.0000 electrons
 Dipole moment (field-independent basis, Debye):
    X=              0.0007    Y=              0.0003    Z=              0.0001  Tot=              0.0008
 Quadrupole moment (field-independent basis, Debye-Ang):
   XX=            -17.6150   YY=            -17.6228   ZZ=            -17.6278
   XY=              0.0036   XZ=             -0.0002   YZ=              0.0003
 Traceless Quadrupole moment (field-independent basis, Debye-Ang):
   XX=              0.0069   YY=             -0.0009   ZZ=             -0.0059
   XY=              0.0036   XZ=             -0.0002   YZ=              0.0003
 Octapole moment (field-independent basis, Debye-Ang**2):
  XXX=             52.6288  YYY=              0.9068  ZZZ=             -0.1531  XYY=             17.5518
  XXY=              0.2954  XXZ=             -0.0512  XZZ=             17.5542  YZZ=              0.3030
  YYZ=             -0.0507  XYZ=             -0.0003
 Hexadecapole moment (field-independent basis, Debye-Ang**3):
 XXXX=           -123.1911 YYYY=            -18.4029 ZZZZ=            -18.3878 XXXY=             -0.8889
 XXXZ=              0.1526 YYYX=             -0.8921 YYYZ=              0.0020 ZZZX=              0.1527
 ZZZY=              0.0034 XXYY=            -23.6065 XXZZ=            -23.6044 YYZZ=             -6.1299
 XXYZ=              0.0013 YYXZ=              0.0509 ZZXY=             -0.2961
 N-N= 0.000000000000D+00 E-N=-6.578896820740D+03  KE= 2.749488312466D+03
 No NMR shielding tensors so no spin-rotation constants.
 Leave Link  601 at Tue May 12 14:50:29 2020, MaxMem= 1073741824 cpu:       0.7
 (Enter /home/matheus/.gaussian/g09/l122.exe)
 Counterpoise: doing MCBS calculation for fragment   1
 Leave Link  122 at Tue May 12 14:50:29 2020, MaxMem= 1073741824 cpu:       0.0
 (Enter /home/matheus/.gaussian/g09/l301.exe)
 Basis read from rwf:  (5D, 7F)
 No pseudopotential information found on rwf file.
 There are   138 symmetry adapted basis functions of A   symmetry.
 Integral buffers will be    131072 words long.
 Raffenetti 2 integral format.
 Two-electron integral symmetry is turned on.
   138 basis functions,   198 primitive gaussians,   160 cartesian basis functions
     9 alpha electrons        9 beta electrons
       nuclear repulsion energy        36.6058450489 Hartrees.
 IExCor=32609 DFT=T Ex+Corr=LC-wPBE ExCW=0 ScaHFX=  1.000000
 ScaDFX=  1.000000  0.000000  1.000000  1.000000 ScalE2=  1.000000  1.000000
 IRadAn=      5 IRanWt=     -1 IRanGd=            0 ICorTp=0
  HFx wShort=  0.000000 wLong=  0.400000 cFull=  0.000000 cShort=  0.000000 cLong=  1.000000
  DFx wShort=  0.000000 wLong=  0.400000 cFull=  0.000000 cShort=  0.000000 cLong=  1.000000
 NAtoms=    5 NActive=    4 NUniq=    4 SFac= 1.00D+00 NAtFMM=   60 NAOKFM=F Big=F
 No density basis found on file   718.
 Leave Link  301 at Tue May 12 14:50:30 2020, MaxMem= 1073741824 cpu:       0.2
 (Enter /home/matheus/.gaussian/g09/l302.exe)
 NPDir=0 NMtPBC=     1 NCelOv=     1 NCel=       1 NClECP=     1 NCelD=      1
         NCelK=      1 NCelE2=     1 NClLst=     1 CellRange=     0.0.
 One-electron integrals computed using PRISM.
 NBasis=   138 RedAO= T  NBF=   138
 NBsUse=   138 1.00D-06 NBFU=   138
 Precomputing XC quadrature grid using
 IXCGrd= 2 IRadAn=           5 IRanWt=          -1 IRanGd=           0 AccXCQ= 0.00D+00.
 NRdTot=     344 NPtTot=       92556 NUsed=       95038 NTot=       95070
 NSgBfM=   160   160   160   160   160 NAtAll=     4     4.
 Leave Link  302 at Tue May 12 14:50:30 2020, MaxMem= 1073741824 cpu:       0.8
 (Enter /home/matheus/.gaussian/g09/l303.exe)
 DipDrv:  MaxL=1.
 Leave Link  303 at Tue May 12 14:50:30 2020, MaxMem= 1073741824 cpu:       0.1
 (Enter /home/matheus/.gaussian/g09/l401.exe)
 Harris functional with IExCor=32609 diagonalized for initial guess.
 ExpMin= 2.53D-02 ExpMax= 1.53D+04 ExpMxC= 5.22D+02 IAcc=3 IRadAn=         5 AccDes= 0.00D+00
 HarFok:  IExCor=32609 AccDes= 0.00D+00 IRadAn=         5 IDoV= 1
 ScaDFX=  1.000000  1.000000  1.000000  1.000000
 FoFCou: FMM=F IPFlag=           0 FMFlag=      100000 FMFlg1=           0
         NFxFlg=           0 DoJE=T BraDBF=F KetDBF=T FulRan=T
         Omega=  0.000000  0.000000  1.000000  0.000000  0.000000 ICntrl=     500 IOpCl=  0
         NMat0=    1 NMatS0=    1 NMatT0=    0 NMatD0=    1 NMtDS0=    0 NMtDT0=    0
         I1Cent=           4 NGrid=           0.
 Petite list used in FoFCou.
 Harris En= -151.500817120646    
 Initial guess orbital symmetries:
       Occupied  (A) (A) (A) (A) (A) (A) (A) (A) (A)
       Virtual   (A) (A) (A) (A) (A) (A) (A) (A) (A) (A) (A) (A)
                 (A) (A) (A) (A) (A) (A) (A) (A) (A) (A) (A) (A)
                 (A) (A) (A) (A) (A) (A) (A) (A) (A) (A) (A) (A)
                 (A) (A) (A) (A) (A) (A) (A) (A) (A) (A) (A) (A)
                 (A) (A) (A) (A) (A) (A) (A) (A) (A) (A) (A) (A)
                 (A) (A) (A) (A) (A) (A) (A) (A) (A) (A) (A) (A)
                 (A) (A) (A) (A) (A) (A) (A) (A) (A) (A) (A) (A)
                 (A) (A) (A) (A) (A) (A) (A) (A) (A) (A) (A) (A)
                 (A) (A) (A) (A) (A) (A) (A) (A) (A) (A) (A) (A)
                 (A) (A) (A) (A) (A) (A) (A) (A) (A) (A) (A) (A)
                 (A) (A) (A) (A) (A) (A) (A) (A) (A)
 The electronic state of the initial guess is 1-A.
 Leave Link  401 at Tue May 12 14:50:30 2020, MaxMem= 1073741824 cpu:       2.2
 (Enter /home/matheus/.gaussian/g09/l502.exe)
 Closed shell SCF:
 Requested convergence on RMS density matrix=1.00D-08 within 128 cycles.
 Requested convergence on MAX density matrix=1.00D-06.
 Requested convergence on             energy=1.00D-06.
 No special actions if energy rises.
 Using DIIS extrapolation, IDIIS=  1040.
 Integral symmetry usage will be decided dynamically.
        94980 words used for storage of precomputed grid.
 IEnd=      192360 IEndB=      192360 NGot=  1073741824 MDV=  1073591865
 LenX=  1073591865 LenY=  1073565824
 Fock matrices will be formed incrementally for  20 cycles.

 Cycle   1  Pass 1  IDiag  1:
 FoFJK:  IHMeth= 1 ICntrl=     0 DoSepK=T KAlg= 1 I1Cent= 0 FoldK=F
 FoFCou: FMM=F IPFlag=           0 FMFlag=      100000 FMFlg1=           0
         NFxFlg=           0 DoJE=T BraDBF=F KetDBF=F FulRan=T
         Omega=  0.000000  0.000000  1.000000  0.000000  0.000000 ICntrl=     500 IOpCl=  0
         NMat0=    1 NMatS0=    1 NMatT0=    0 NMatD0=    1 NMtDS0=    0 NMtDT0=    0
         I1Cent=           0 NGrid=           0.
 Symmetry not used in FoFCou.
 E= -151.497744566241    
 DIIS: error= 1.64D-02 at cycle   1 NSaved=   1.
 NSaved= 1 IEnMin= 1 EnMin= -151.497744566241     IErMin= 1 ErrMin= 1.64D-02
 ErrMax= 1.64D-02 EMaxC= 1.00D-01 BMatC= 3.82D-02 BMatP= 3.82D-02
 IDIUse=3 WtCom= 8.36D-01 WtEn= 1.64D-01
 Coeff-Com:  0.100D+01
 Coeff-En:   0.100D+01
 Coeff:      0.100D+01
 Gap=     0.486 Goal=   None    Shift=    0.000
 GapD=    0.486 DampG=2.000 DampE=0.500 DampFc=1.0000 IDamp=-1.
 RMSDP=1.18D-03 MaxDP=2.44D-02              OVMax= 5.44D-02

 Cycle   2  Pass 1  IDiag  1:
 RMSU=  8.23D-04    CP:  9.88D-01
 FoFJK:  IHMeth= 1 ICntrl=     0 DoSepK=T KAlg= 1 I1Cent= 0 FoldK=F
 E= -151.511265908376     Delta-E=       -0.013521342135 Rises=F Damp=F
 DIIS: error= 1.09D-02 at cycle   2 NSaved=   2.
 NSaved= 2 IEnMin= 2 EnMin= -151.511265908376     IErMin= 2 ErrMin= 1.09D-02
 ErrMax= 1.09D-02 EMaxC= 1.00D-01 BMatC= 2.07D-02 BMatP= 3.82D-02
 IDIUse=3 WtCom= 8.91D-01 WtEn= 1.09D-01
 Coeff-Com:  0.416D+00 0.584D+00
 Coeff-En:   0.246D+00 0.754D+00
 Coeff:      0.397D+00 0.603D+00
 Gap=     0.432 Goal=   None    Shift=    0.000
 RMSDP=6.16D-04 MaxDP=2.26D-02 DE=-1.35D-02 OVMax= 2.51D-02

 Cycle   3  Pass 1  IDiag  1:
 RMSU=  3.36D-04    CP:  9.85D-01  6.67D-01
 FoFJK:  IHMeth= 1 ICntrl=     0 DoSepK=T KAlg= 1 I1Cent= 0 FoldK=F
 E= -151.523090905620     Delta-E=       -0.011824997244 Rises=F Damp=F
 DIIS: error= 2.31D-03 at cycle   3 NSaved=   3.
 NSaved= 3 IEnMin= 3 EnMin= -151.523090905620     IErMin= 3 ErrMin= 2.31D-03
 ErrMax= 2.31D-03 EMaxC= 1.00D-01 BMatC= 4.09D-04 BMatP= 2.07D-02
 IDIUse=3 WtCom= 9.77D-01 WtEn= 2.31D-02
 Coeff-Com:  0.626D-01 0.154D+00 0.784D+00
 Coeff-En:   0.000D+00 0.000D+00 0.100D+01
 Coeff:      0.611D-01 0.150D+00 0.789D+00
 Gap=     0.426 Goal=   None    Shift=    0.000
 RMSDP=8.52D-05 MaxDP=2.27D-03 DE=-1.18D-02 OVMax= 3.96D-03

 Cycle   4  Pass 1  IDiag  1:
 RMSU=  4.19D-05    CP:  9.83D-01  7.14D-01  1.02D+00
 FoFJK:  IHMeth= 1 ICntrl=     0 DoSepK=T KAlg= 1 I1Cent= 0 FoldK=F
 E= -151.523341909918     Delta-E=       -0.000251004298 Rises=F Damp=F
 DIIS: error= 3.66D-04 at cycle   4 NSaved=   4.
 NSaved= 4 IEnMin= 4 EnMin= -151.523341909918     IErMin= 4 ErrMin= 3.66D-04
 ErrMax= 3.66D-04 EMaxC= 1.00D-01 BMatC= 1.44D-05 BMatP= 4.09D-04
 IDIUse=3 WtCom= 9.96D-01 WtEn= 3.66D-03
 Coeff-Com: -0.423D-02-0.798D-02 0.124D+00 0.889D+00
 Coeff-En:   0.000D+00 0.000D+00 0.000D+00 0.100D+01
 Coeff:     -0.422D-02-0.795D-02 0.123D+00 0.889D+00
 Gap=     0.428 Goal=   None    Shift=    0.000
 RMSDP=1.95D-05 MaxDP=9.37D-04 DE=-2.51D-04 OVMax= 8.04D-04

 Cycle   5  Pass 1  IDiag  1:
 RMSU=  7.60D-06    CP:  9.83D-01  7.14D-01  1.05D+00  1.03D+00
 FoFJK:  IHMeth= 1 ICntrl=     0 DoSepK=T KAlg= 1 I1Cent= 0 FoldK=F
 E= -151.523351777883     Delta-E=       -0.000009867966 Rises=F Damp=F
 DIIS: error= 4.33D-05 at cycle   5 NSaved=   5.
 NSaved= 5 IEnMin= 5 EnMin= -151.523351777883     IErMin= 5 ErrMin= 4.33D-05
 ErrMax= 4.33D-05 EMaxC= 1.00D-01 BMatC= 1.24D-07 BMatP= 1.44D-05
 IDIUse=1 WtCom= 1.00D+00 WtEn= 0.00D+00
 Coeff-Com: -0.102D-02-0.307D-02-0.294D-01-0.763D-01 0.111D+01
 Coeff:     -0.102D-02-0.307D-02-0.294D-01-0.763D-01 0.111D+01
 Gap=     0.428 Goal=   None    Shift=    0.000
 RMSDP=4.73D-06 MaxDP=1.02D-04 DE=-9.87D-06 OVMax= 2.17D-04

 Cycle   6  Pass 1  IDiag  1:
 RMSU=  1.57D-06    CP:  9.83D-01  7.15D-01  1.05D+00  1.06D+00  1.31D+00
 FoFJK:  IHMeth= 1 ICntrl=     0 DoSepK=T KAlg= 1 I1Cent= 0 FoldK=F
 E= -151.523352066564     Delta-E=       -0.000000288681 Rises=F Damp=F
 DIIS: error= 9.40D-06 at cycle   6 NSaved=   6.
 NSaved= 6 IEnMin= 6 EnMin= -151.523352066564     IErMin= 6 ErrMin= 9.40D-06
 ErrMax= 9.40D-06 EMaxC= 1.00D-01 BMatC= 5.11D-09 BMatP= 1.24D-07
 IDIUse=1 WtCom= 1.00D+00 WtEn= 0.00D+00
 Coeff-Com:  0.150D-03 0.394D-03-0.148D-02-0.175D-01-0.418D-01 0.106D+01
 Coeff:      0.150D-03 0.394D-03-0.148D-02-0.175D-01-0.418D-01 0.106D+01
 Gap=     0.428 Goal=   None    Shift=    0.000
 RMSDP=9.34D-07 MaxDP=1.49D-05 DE=-2.89D-07 OVMax= 5.82D-05

 Cycle   7  Pass 1  IDiag  1:
 RMSU=  3.47D-07    CP:  9.83D-01  7.15D-01  1.05D+00  1.07D+00  1.36D+00
                    CP:  1.22D+00
 FoFJK:  IHMeth= 1 ICntrl=     0 DoSepK=T KAlg= 1 I1Cent= 0 FoldK=F
 E= -151.523352081000     Delta-E=       -0.000000014436 Rises=F Damp=F
 DIIS: error= 2.33D-06 at cycle   7 NSaved=   7.
[...]

 Cycle   2  Pass 1  IDiag  1:
 RMSU=  1.06D-05    CP:  1.00D+00
 FoFJK:  IHMeth= 1 ICntrl=     0 DoSepK=T KAlg= 1 I1Cent= 0 FoldK=F
 E= -2753.43565062165     Delta-E=       -0.000000448353 Rises=F Damp=F
 DIIS: error= 2.67D-06 at cycle   2 NSaved=   2.
 NSaved= 2 IEnMin= 2 EnMin= -2753.43565062165     IErMin= 2 ErrMin= 2.67D-06
 ErrMax= 2.67D-06 EMaxC= 1.00D-01 BMatC= 2.69D-09 BMatP= 5.05D-06
 IDIUse=1 WtCom= 1.00D+00 WtEn= 0.00D+00
 Coeff-Com: -0.638D-02 0.101D+01
 Coeff:     -0.638D-02 0.101D+01
 Gap=     0.530 Goal=   None    Shift=    0.000
 RMSDP=1.40D-06 MaxDP=5.60D-05 DE=-4.48D-07 OVMax= 3.83D-05

 Cycle   3  Pass 1  IDiag  1:
 RMSU=  4.64D-07    CP:  1.00D+00  1.08D+00
 FoFJK:  IHMeth= 1 ICntrl=     0 DoSepK=T KAlg= 1 I1Cent= 0 FoldK=F
 E= -2753.43565062627     Delta-E=       -0.000000004616 Rises=F Damp=F
 DIIS: error= 4.14D-07 at cycle   3 NSaved=   3.
 NSaved= 3 IEnMin= 3 EnMin= -2753.43565062627     IErMin= 3 ErrMin= 4.14D-07
 ErrMax= 4.14D-07 EMaxC= 1.00D-01 BMatC= 7.72D-11 BMatP= 2.69D-09
 IDIUse=1 WtCom= 1.00D+00 WtEn= 0.00D+00
 Coeff-Com:  0.182D-03-0.102D+00 0.110D+01
 Coeff:      0.182D-03-0.102D+00 0.110D+01
 Gap=     0.530 Goal=   None    Shift=    0.000
 RMSDP=1.65D-07 MaxDP=6.18D-06 DE=-4.62D-09 OVMax= 7.63D-06

 Cycle   4  Pass 1  IDiag  1:
 RMSU=  5.06D-08    CP:  1.00D+00  1.09D+00  1.17D+00
 FoFJK:  IHMeth= 1 ICntrl=     0 DoSepK=T KAlg= 1 I1Cent= 0 FoldK=F
 E= -2753.43565062639     Delta-E=       -0.000000000119 Rises=F Damp=F
 DIIS: error= 2.23D-07 at cycle   4 NSaved=   4.
 NSaved= 4 IEnMin= 4 EnMin= -2753.43565062639     IErMin= 4 ErrMin= 2.23D-07
 ErrMax= 2.23D-07 EMaxC= 1.00D-01 BMatC= 1.30D-11 BMatP= 7.72D-11
 IDIUse=1 WtCom= 1.00D+00 WtEn= 0.00D+00
 Coeff-Com:  0.185D-03-0.535D-01 0.337D+00 0.716D+00
 Coeff:      0.185D-03-0.535D-01 0.337D+00 0.716D+00
 Gap=     0.530 Goal=   None    Shift=    0.000
 RMSDP=1.78D-08 MaxDP=7.21D-07 DE=-1.19D-10 OVMax= 8.87D-07

 Cycle   5  Pass 1  IDiag  1:
 RMSU=  9.34D-09    CP:  1.00D+00  1.09D+00  1.19D+00  1.10D+00
 FoFJK:  IHMeth= 1 ICntrl=     0 DoSepK=T KAlg= 1 I1Cent= 0 FoldK=F
 E= -2753.43565062640     Delta-E=       -0.000000000017 Rises=F Damp=F
 DIIS: error= 2.82D-08 at cycle   5 NSaved=   5.
 NSaved= 5 IEnMin= 5 EnMin= -2753.43565062640     IErMin= 5 ErrMin= 2.82D-08
 ErrMax= 2.82D-08 EMaxC= 1.00D-01 BMatC= 1.93D-13 BMatP= 1.30D-11
 IDIUse=1 WtCom= 1.00D+00 WtEn= 0.00D+00
 Coeff-Com:  0.404D-05 0.158D-02-0.290D-01 0.169D-01 0.101D+01
 Coeff:      0.404D-05 0.158D-02-0.290D-01 0.169D-01 0.101D+01
 Gap=     0.530 Goal=   None    Shift=    0.000
 RMSDP=7.89D-09 MaxDP=4.67D-07 DE=-1.73D-11 OVMax= 3.24D-07

 SCF Done:  E(RLC-wPBE) =  -2753.43565063     A.U. after    5 cycles
             Convg  =    0.7886D-08             -V/T =  2.0014
 KE= 2.749528272811D+03 PE=-6.578941177373D+03 EE= 1.075977253936D+03
 Leave Link  502 at Tue May 12 15:12:21 2020, MaxMem= 1073741824 cpu:      86.3
 (Enter /home/matheus/.gaussian/g09/l122.exe)
 Restoring MOs from calculation   4 to rwf.
 Counterpoise: doing MCBS calculation for fragment   1
 Leave Link  122 at Tue May 12 15:12:21 2020, MaxMem= 1073741824 cpu:       0.0
 (Enter /home/matheus/.gaussian/g09/l301.exe)
 Basis read from rwf:  (5D, 7F)
 No pseudopotential information found on rwf file.
 There are   138 symmetry adapted basis functions of A   symmetry.
 Integral buffers will be    131072 words long.
 Raffenetti 2 integral format.
 Two-electron integral symmetry is turned on.
   138 basis functions,   198 primitive gaussians,   160 cartesian basis functions
     9 alpha electrons        9 beta electrons
       nuclear repulsion energy        36.6058450489 Hartrees.
 IExCor=32609 DFT=T Ex+Corr=LC-wPBE ExCW=0 ScaHFX=  1.000000
 ScaDFX=  1.000000  0.000000  1.000000  1.000000 ScalE2=  1.000000  1.000000
 IRadAn=      5 IRanWt=     -1 IRanGd=            0 ICorTp=0
  HFx wShort=  0.000000 wLong=  0.400000 cFull=  0.000000 cShort=  0.000000 cLong=  1.000000
  DFx wShort=  0.000000 wLong=  0.400000 cFull=  0.000000 cShort=  0.000000 cLong=  1.000000
 NAtoms=    5 NActive=    4 NUniq=    4 SFac= 1.00D+00 NAtFMM=   60 NAOKFM=F Big=F
 No density basis found on file   718.
 Leave Link  301 at Tue May 12 15:12:21 2020, MaxMem= 1073741824 cpu:       0.2
 (Enter /home/matheus/.gaussian/g09/l302.exe)
 NPDir=0 NMtPBC=     1 NCelOv=     1 NCel=       1 NClECP=     1 NCelD=      1
         NCelK=      1 NCelE2=     1 NClLst=     1 CellRange=     0.0.
 One-electron integrals computed using PRISM.
 NBasis=   138 RedAO= T  NBF=   138
 NBsUse=   138 1.00D-06 NBFU=   138
 Precomputing XC quadrature grid using
 IXCGrd= 2 IRadAn=           5 IRanWt=          -1 IRanGd=           0 AccXCQ= 0.00D+00.
 NRdTot=     344 NPtTot=       92556 NUsed=       95038 NTot=       95070
 NSgBfM=   160   160   160   160   160 NAtAll=     4     4.
 Leave Link  302 at Tue May 12 15:12:21 2020, MaxMem= 1073741824 cpu:       0.7
 (Enter /home/matheus/.gaussian/g09/l303.exe)
 DipDrv:  MaxL=1.
 Leave Link  303 at Tue May 12 15:12:21 2020, MaxMem= 1073741824 cpu:       0.2
 (Enter /home/matheus/.gaussian/g09/l401.exe)
 Initial guess read from the read-write file.
 Guess basis will be translated and rotated to current coordinates.
 Initial guess orbital symmetries:
       Occupied  (A) (A) (A) (A) (A) (A) (A) (A) (A)
       Virtual   (A) (A) (A) (A) (A) (A) (A) (A) (A) (A) (A) (A)
                 (A) (A) (A) (A) (A) (A) (A) (A) (A) (A) (A) (A)
                 (A) (A) (A) (A) (A) (A) (A) (A) (A) (A) (A) (A)
                 (A) (A) (A) (A) (A) (A) (A) (A) (A) (A) (A) (A)
                 (A) (A) (A) (A) (A) (A) (A) (A) (A) (A) (A) (A)
                 (A) (A) (A) (A) (A) (A) (A) (A) (A) (A) (A) (A)
                 (A) (A) (A) (A) (A) (A) (A) (A) (A) (A) (A) (A)
                 (A) (A) (A) (A) (A) (A) (A) (A) (A) (A) (A) (A)
                 (A) (A) (A) (A) (A) (A) (A) (A) (A) (A) (A) (A)
                 (A) (A) (A) (A) (A) (A) (A) (A) (A) (A) (A) (A)
                 (A) (A) (A) (A) (A) (A) (A) (A) (A)
 The electronic state of the initial guess is 1-A.
 Generating alternative initial guess.
 Harris functional with IExCor=32609 diagonalized for initial guess.
 ExpMin= 2.53D-02 ExpMax= 1.53D+04 ExpMxC= 5.22D+02 IAcc=3 IRadAn=         5 AccDes= 0.00D+00
 HarFok:  IExCor=32609 AccDes= 0.00D+00 IRadAn=         5 IDoV= 1
 ScaDFX=  1.000000  1.000000  1.000000  1.000000
 FoFCou: FMM=F IPFlag=           0 FMFlag=      100000 FMFlg1=           0
         NFxFlg=           0 DoJE=T BraDBF=F KetDBF=T FulRan=T
         Omega=  0.000000  0.000000  1.000000  0.000000  0.000000 ICntrl=     500 IOpCl=  0
         NMat0=    1 NMatS0=    1 NMatT0=    0 NMatD0=    1 NMtDS0=    0 NMtDT0=    0
         I1Cent=           4 NGrid=           0.
 Petite list used in FoFCou.
 Harris En= -151.500817120871    
 Leave Link  401 at Tue May 12 15:12:21 2020, MaxMem= 1073741824 cpu:       2.4
 (Enter /home/matheus/.gaussian/g09/l502.exe)
 Closed shell SCF:
 Requested convergence on RMS density matrix=1.00D-08 within 128 cycles.
 Requested convergence on MAX density matrix=1.00D-06.
 Requested convergence on             energy=1.00D-06.
 No special actions if energy rises.
 Using DIIS extrapolation, IDIIS=  1040.
 Integral symmetry usage will be decided dynamically.
        94980 words used for storage of precomputed grid.
 IEnd=      192360 IEndB=      192360 NGot=  1073741824 MDV=  1073591865
 LenX=  1073591865 LenY=  1073565824
 Fock matrices will be formed incrementally for  20 cycles.

 Cycle   1  Pass 1  IDiag  1:
 FoFJK:  IHMeth= 1 ICntrl=     0 DoSepK=T KAlg= 1 I1Cent= 0 FoldK=F
 FoFCou: FMM=F IPFlag=           0 FMFlag=      100000 FMFlg1=           0
         NFxFlg=           0 DoJE=T BraDBF=F KetDBF=F FulRan=T
         Omega=  0.000000  0.000000  1.000000  0.000000  0.000000 ICntrl=     500 IOpCl=  0
         NMat0=    1 NMatS0=    1 NMatT0=    0 NMatD0=    1 NMtDS0=    0 NMtDT0=    0
         I1Cent=           0 NGrid=           0.
 Symmetry not used in FoFCou.
 E= -151.523352146898    
 DIIS: error= 2.20D-05 at cycle   1 NSaved=   1.
 NSaved= 1 IEnMin= 1 EnMin= -151.523352146898     IErMin= 1 ErrMin= 2.20D-05
 ErrMax= 2.20D-05 EMaxC= 1.00D-01 BMatC= 5.05D-08 BMatP= 5.05D-08
 IDIUse=1 WtCom= 1.00D+00 WtEn= 0.00D+00
 Coeff-Com:  0.100D+01
 Coeff:      0.100D+01
 Gap=     0.428 Goal=   None    Shift=    0.000
 RMSDP=1.18D-06 MaxDP=1.93D-05              OVMax= 7.88D-05

 Cycle   2  Pass 1  IDiag  1:
 RMSU=  8.36D-07    CP:  1.00D+00
 FoFJK:  IHMeth= 1 ICntrl=     0 DoSepK=T KAlg= 1 I1Cent= 0 FoldK=F
 E= -151.523352191089     Delta-E=       -0.000000044191 Rises=F Damp=F
 DIIS: error= 3.76D-06 at cycle   2 NSaved=   2.
 NSaved= 2 IEnMin= 2 EnMin= -151.523352191089     IErMin= 2 ErrMin= 3.76D-06
 ErrMax= 3.76D-06 EMaxC= 1.00D-01 BMatC= 1.69D-09 BMatP= 5.05D-08
 IDIUse=1 WtCom= 1.00D+00 WtEn= 0.00D+00
 Coeff-Com: -0.113D+00 0.111D+01
 Coeff:     -0.113D+00 0.111D+01
 Gap=     0.428 Goal=   None    Shift=    0.000
 RMSDP=3.78D-07 MaxDP=6.45D-06 DE=-4.42D-08 OVMax= 3.17D-05

 Cycle   3  Pass 1  IDiag  1:
 RMSU=  1.50D-07    CP:  1.00D+00  1.26D+00
 FoFJK:  IHMeth= 1 ICntrl=     0 DoSepK=T KAlg= 1 I1Cent= 0 FoldK=F
 E= -151.523352194949     Delta-E=       -0.000000003860 Rises=F Damp=F
 DIIS: error= 1.10D-06 at cycle   3 NSaved=   3.
 NSaved= 3 IEnMin= 3 EnMin= -151.523352194949     IErMin= 3 ErrMin= 1.10D-06
 ErrMax= 1.10D-06 EMaxC= 1.00D-01 BMatC= 1.94D-10 BMatP= 1.69D-09
 IDIUse=1 WtCom= 1.00D+00 WtEn= 0.00D+00
 Coeff-Com: -0.205D-01 0.120D-01 0.101D+01
 Coeff:     -0.205D-01 0.120D-01 0.101D+01
 Gap=     0.428 Goal=   None    Shift=    0.000
 RMSDP=1.31D-07 MaxDP=2.92D-06 DE=-3.86D-09 OVMax= 1.05D-05

 Cycle   4  Pass 1  IDiag  1:
 RMSU=  6.03D-08    CP:  1.00D+00  1.33D+00  1.30D+00
 FoFJK:  IHMeth= 1 ICntrl=     0 DoSepK=T KAlg= 1 I1Cent= 0 FoldK=F
 E= -151.523352195271     Delta-E=       -0.000000000322 Rises=F Damp=F
 DIIS: error= 9.12D-07 at cycle   4 NSaved=   4.
 NSaved= 4 IEnMin= 4 EnMin= -151.523352195271     IErMin= 4 ErrMin= 9.12D-07
 ErrMax= 9.12D-07 EMaxC= 1.00D-01 BMatC= 1.58D-10 BMatP= 1.94D-10
 IDIUse=1 WtCom= 1.00D+00 WtEn= 0.00D+00
 Coeff-Com:  0.675D-02-0.176D+00 0.560D+00 0.610D+00
 Coeff:      0.675D-02-0.176D+00 0.560D+00 0.610D+00
 Gap=     0.428 Goal=   None    Shift=    0.000
 RMSDP=5.94D-08 MaxDP=1.74D-06 DE=-3.22D-10 OVMax= 3.77D-06

 Cycle   5  Pass 1  IDiag  1:
 RMSU=  1.88D-08    CP:  1.00D+00  1.35D+00  1.50D+00  7.37D-01
 FoFJK:  IHMeth= 1 ICntrl=     0 DoSepK=T KAlg= 1 I1Cent= 0 FoldK=F
 E= -151.523352195403     Delta-E=       -0.000000000133 Rises=F Damp=F
 DIIS: error= 2.06D-07 at cycle   5 NSaved=   5.
 NSaved= 5 IEnMin= 5 EnMin= -151.523352195403     IErMin= 5 ErrMin= 2.06D-07
 ErrMax= 2.06D-07 EMaxC= 1.00D-01 BMatC= 6.87D-12 BMatP= 1.58D-10
 IDIUse=1 WtCom= 1.00D+00 WtEn= 0.00D+00
 Coeff-Com:  0.434D-02-0.540D-01 0.336D-01 0.165D+00 0.851D+00
 Coeff:      0.434D-02-0.540D-01 0.336D-01 0.165D+00 0.851D+00
 Gap=     0.428 Goal=   None    Shift=    0.000
 RMSDP=2.14D-08 MaxDP=4.18D-07 DE=-1.33D-10 OVMax= 1.77D-06

 Cycle   6  Pass 1  IDiag  1:
 RMSU=  8.21D-09    CP:  1.00D+00  1.35D+00  1.56D+00  8.53D-01  1.19D+00
 FoFJK:  IHMeth= 1 ICntrl=     0 DoSepK=T KAlg= 1 I1Cent= 0 FoldK=F
 E= -151.523352195413     Delta-E=       -0.000000000010 Rises=F Damp=F
 DIIS: error= 8.51D-08 at cycle   6 NSaved=   6.
 NSaved= 6 IEnMin= 6 EnMin= -151.523352195413     IErMin= 6 ErrMin= 8.51D-08
 ErrMax= 8.51D-08 EMaxC= 1.00D-01 BMatC= 1.14D-12 BMatP= 6.87D-12
 IDIUse=1 WtCom= 1.00D+00 WtEn= 0.00D+00
 Coeff-Com:  0.489D-03 0.628D-02-0.618D-01-0.278D-01 0.272D+00 0.810D+00
 Coeff:      0.489D-03 0.628D-02-0.618D-01-0.278D-01 0.272D+00 0.810D+00
 Gap=     0.428 Goal=   None    Shift=    0.000
 RMSDP=9.12D-09 MaxDP=1.26D-07 DE=-1.01D-11 OVMax= 9.06D-07

 SCF Done:  E(RLC-wPBE) =  -151.523352195     A.U. after    6 cycles
             Convg  =    0.9119D-08             -V/T =  2.0068
 KE= 1.504983923253D+02 PE=-4.315002896323D+02 EE= 9.287270006269D+01
 Leave Link  502 at Tue May 12 15:12:27 2020, MaxMem= 1073741824 cpu:      44.4
 (Enter /home/matheus/.gaussian/g09/l122.exe)
 Restoring MOs from calculation   5 to rwf.
 Counterpoise: doing MCBS calculation for fragment   2
 Leave Link  122 at Tue May 12 15:12:27 2020, MaxMem= 1073741824 cpu:       0.0
 (Enter /home/matheus/.gaussian/g09/l301.exe)
 Basis read from rwf:  (5D, 7F)
 No pseudopotential information found on rwf file.
 There are    59 symmetry adapted basis functions of A   symmetry.
 Integral buffers will be    131072 words long.
 Raffenetti 2 integral format.
 Two-electron integral symmetry is turned on.
    59 basis functions,   217 primitive gaussians,    69 cartesian basis functions
    18 alpha electrons       18 beta electrons
       nuclear repulsion energy         0.0000000000 Hartrees.
 IExCor=32609 DFT=T Ex+Corr=LC-wPBE ExCW=0 ScaHFX=  1.000000
 ScaDFX=  1.000000  0.000000  1.000000  1.000000 ScalE2=  1.000000  1.000000
 IRadAn=      5 IRanWt=     -1 IRanGd=            0 ICorTp=0
  HFx wShort=  0.000000 wLong=  0.400000 cFull=  0.000000 cShort=  0.000000 cLong=  1.000000
  DFx wShort=  0.000000 wLong=  0.400000 cFull=  0.000000 cShort=  0.000000 cLong=  1.000000
 NAtoms=    5 NActive=    1 NUniq=    1 SFac= 1.00D+00 NAtFMM=   60 NAOKFM=F Big=F
 No density basis found on file   718.
 Leave Link  301 at Tue May 12 15:12:27 2020, MaxMem= 1073741824 cpu:       0.2
 (Enter /home/matheus/.gaussian/g09/l302.exe)
 NPDir=0 NMtPBC=     1 NCelOv=     1 NCel=       1 NClECP=     1 NCelD=      1
         NCelK=      1 NCelE2=     1 NClLst=     1 CellRange=     0.0.
 One-electron integrals computed using PRISM.
 NBasis=    59 RedAO= T  NBF=    59
 NBsUse=    59 1.00D-06 NBFU=    59
 Precomputing XC quadrature grid using
 IXCGrd= 2 IRadAn=           5 IRanWt=          -1 IRanGd=           0 AccXCQ= 0.00D+00.
 NRdTot=      81 NPtTot=       30352 NUsed=       30981 NTot=       31013
 NSgBfM=    69    69    69    69    69 NAtAll=     1     1.
 Leave Link  302 at Tue May 12 15:12:27 2020, MaxMem= 1073741824 cpu:       0.6
 (Enter /home/matheus/.gaussian/g09/l303.exe)
 DipDrv:  MaxL=1.
 Leave Link  303 at Tue May 12 15:12:27 2020, MaxMem= 1073741824 cpu:       0.1
 (Enter /home/matheus/.gaussian/g09/l401.exe)
 Initial guess read from the read-write file.
 Guess basis will be translated and rotated to current coordinates.
 Initial guess orbital symmetries:
       Occupied  (A) (A) (A) (A) (A) (A) (A) (A) (A) (A) (A) (A)
                 (A) (A) (A) (A) (A) (A)
       Virtual   (A) (A) (A) (A) (A) (A) (A) (A) (A) (A) (A) (A)
                 (A) (A) (A) (A) (A) (A) (A) (A) (A) (A) (A) (A)
                 (A) (A) (A) (A) (A) (A) (A) (A) (A) (A) (A) (A)
                 (A) (A) (A) (A) (A)
 The electronic state of the initial guess is 1-A.
 Generating alternative initial guess.
 Harris functional with IExCor=32609 diagonalized for initial guess.
 ExpMin= 4.00D-02 ExpMax= 1.17D+07 ExpMxC= 1.33D+04 IAcc=3 IRadAn=         5 AccDes= 0.00D+00
 HarFok:  IExCor=32609 AccDes= 0.00D+00 IRadAn=         5 IDoV= 1
 ScaDFX=  1.000000  1.000000  1.000000  1.000000
 FoFCou: FMM=F IPFlag=           0 FMFlag=      100000 FMFlg1=           0
         NFxFlg=           0 DoJE=T BraDBF=F KetDBF=T FulRan=T
         Omega=  0.000000  0.000000  1.000000  0.000000  0.000000 ICntrl=     500 IOpCl=  0
         NMat0=    1 NMatS0=    1 NMatT0=    0 NMatD0=    1 NMtDS0=    0 NMtDT0=    0
         I1Cent=           4 NGrid=           0.
 Petite list used in FoFCou.
 DSYEVD returned Info=          89 IAlg= 4 N=    59 NDim=    59 NE2=    18198841 trying DSYEV.
 Harris En= -2753.24576836237    
 Leave Link  401 at Tue May 12 15:12:27 2020, MaxMem= 1073741824 cpu:       1.1
 (Enter /home/matheus/.gaussian/g09/l502.exe)
 Closed shell SCF:
 Requested convergence on RMS density matrix=1.00D-08 within 128 cycles.
 Requested convergence on MAX density matrix=1.00D-06.
 Requested convergence on             energy=1.00D-06.
 No special actions if energy rises.
 Using DIIS extrapolation, IDIIS=  1040.
 Integral symmetry usage will be decided dynamically.
        30923 words used for storage of precomputed grid.
 IEnd=       64406 IEndB=       64406 NGot=  1073741824 MDV=  1073698889
 LenX=  1073698889 LenY=  1073693687
 Fock matrices will be formed incrementally for  20 cycles.

 Cycle   1  Pass 1  IDiag  1:
 FoFJK:  IHMeth= 1 ICntrl=     0 DoSepK=T KAlg= 1 I1Cent= 0 FoldK=F
 FoFCou: FMM=F IPFlag=           0 FMFlag=      100000 FMFlg1=           0
         NFxFlg=           0 DoJE=T BraDBF=F KetDBF=F FulRan=T
         Omega=  0.000000  0.000000  1.000000  0.000000  0.000000 ICntrl=     500 IOpCl=  0
         NMat0=    1 NMatS0=    1 NMatT0=    0 NMatD0=    1 NMtDS0=    0 NMtDT0=    0
         I1Cent=           0 NGrid=           0.
 Symmetry not used in FoFCou.
 E= -2753.43563276534    
 DIIS: error= 9.10D-14 at cycle   1 NSaved=   1.
 NSaved= 1 IEnMin= 1 EnMin= -2753.43563276534     IErMin= 1 ErrMin= 9.10D-14
 ErrMax= 9.10D-14 EMaxC= 1.00D-01 BMatC= 4.25D-25 BMatP= 4.25D-25
 IDIUse=1 WtCom= 1.00D+00 WtEn= 0.00D+00
 Coeff-Com:  0.100D+01
 Coeff:      0.100D+01
 Gap=     0.599 Goal=   None    Shift=    0.000
 DSYEVD returned Info=          89 IAlg= 4 N=    59 NDim=    59 NE2=    18198197 trying DSYEV.
 RMSDP=1.29D-14 MaxDP=2.41D-13              OVMax= 2.44D-13

 SCF Done:  E(RLC-wPBE) =  -2753.43563277     A.U. after    1 cycles
             Convg  =    0.1293D-13             -V/T =  2.0014
 KE= 2.749535160915D+03 PE=-6.578948648680D+03 EE= 1.075977855000D+03
 Leave Link  502 at Tue May 12 15:12:28 2020, MaxMem= 1073741824 cpu:      10.9
 (Enter /home/matheus/.gaussian/g09/l122.exe)
 Restoring MOs from calculation   1 to rwf.
 Counterpoise: corrected energy =   -2904.959010488366
 Counterpoise: BSSE energy =       0.000021633468
 Leave Link  122 at Tue May 12 15:12:28 2020, MaxMem= 1073741824 cpu:       0.0
 (Enter /home/matheus/.gaussian/g09/l108.exe)
 Scan completed.

 Summary of the potential surface scan:
   N      R1          SCF    
 ----  ---------  -----------
    1     3.0000  -2753.43563
    2     3.1000  -2753.43563
    3     3.2000  -2753.43563
    4     3.3000  -2753.43563
    5     3.4000  -2753.43563
    6     3.5000  -2753.43563
    7     3.6000  -2753.43563
    8     3.7000  -2753.43563
    9     3.8000  -2753.43563
   10     3.9000  -2753.43563
   11     4.0000  -2753.43563
   12     4.1000  -2753.43563
   13     4.2000  -2753.43563
   14     4.3000  -2753.43563
   15     4.4000  -2753.43563
   16     4.5000  -2753.43563
   17     4.6000  -2753.43563
   18     4.7000  -2753.43563
   19     4.8000  -2753.43563
   20     4.9000  -2753.43563
   21     5.0000  -2753.43563
 ----  ---------  -----------
  
 Leave Link  108 at Tue May 12 15:12:28 2020, MaxMem= 1073741824 cpu:       0.0
 (Enter /home/matheus/.gaussian/g09/l9999.exe)
 1\1\GINC-REDGIANT\Scan\RLC-wPBE\Aug-CC-pVTZ\H2Kr1O2\MATHEUS\12-May-202
 0\1\\#p lc-wpbe/aug-cc-PVTz int=ultrafine counterpoise=2 Scan\\TCC\\0,
 1\O,0,0.,0.,0.725\O,0,0.,0.,-0.725\H,0,0.5905422151,-0.7037808064,1.02
 35104166\H,0,0.,0.9187205947,-1.0235104166\Kr,0,0.,R1,0.\\R1=3.,s,20,0
 .1\\Version=EM64L-G09RevC.01\State=1-A\HF=-2753.4356328,-2753.4356328,
 -2753.4356328,-2753.4356328,-2753.4356328,-2753.4356328,-2753.4356328,
 -2753.4356328,-2753.4356328,-2753.4356328,-2753.4356328,-2753.4356328,
 -2753.4356328,-2753.4356328,-2753.4356328,-2753.4356328,-2753.4356328,
 -2753.4356328,-2753.4356328,-2753.4356328,-2753.4356328\RMSD=1.428e-09
 ,5.221e-11,1.075e-11,2.471e-12,6.364e-13,1.590e-13,4.411e-14,1.313e-14
 ,1.587e-14,5.482e-15,6.261e-15,6.526e-15,5.706e-15,9.295e-15,8.750e-15
 ,1.245e-14,1.596e-14,1.213e-14,8.487e-15,1.500e-14,1.293e-14\PG=C01 [X
 (H2Kr1O2)]\\@


 TELEVISION IS CALLED A MEDIUM BECAUSE IT ISN'T
 RARE, AND IT ISN'T WELL DONE.
 Job cpu time:  0 days  3 hours  6 minutes 30.9 seconds.
 File lengths (MBytes):  RWF=     33 Int=      0 D2E=      0 Chk=      8 Scr=      1
 Normal termination of Gaussian 09 at Tue May 12 15:12:28 2020.
