 Entering Gaussian System, Link 0=g09
 Input=/home/matheus/.tcc/Inputs/Inputs-lc-wpbe-default/H2O2-Kr_32.com
 Output=/home/matheus/.tcc/Logs/Logs-lc-wpbe-default/H2O2-Kr_32.log
 Initial command:
 /home/matheus/.gaussian/g09/l1.exe /home/matheus/.gaussian/g09/scratch/Gau-27790.inp -scrdir=/home/matheus/.gaussian/g09/scratch/
 Entering Link 1 = /home/matheus/.gaussian/g09/l1.exe PID=     27794.
  
 Copyright (c) 1988,1990,1992,1993,1995,1998,2003,2009,2011,
            Gaussian, Inc.  All Rights Reserved.
  
 This is part of the Gaussian(R) 09 program.  It is based on
 the Gaussian(R) 03 system (copyright 2003, Gaussian, Inc.),
 the Gaussian(R) 98 system (copyright 1998, Gaussian, Inc.),
 the Gaussian(R) 94 system (copyright 1995, Gaussian, Inc.),
 the Gaussian 92(TM) system (copyright 1992, Gaussian, Inc.),
 the Gaussian 90(TM) system (copyright 1990, Gaussian, Inc.),
 the Gaussian 88(TM) system (copyright 1988, Gaussian, Inc.),
 the Gaussian 86(TM) system (copyright 1986, Carnegie Mellon
 University), and the Gaussian 82(TM) system (copyright 1983,
 Carnegie Mellon University). Gaussian is a federally registered
 trademark of Gaussian, Inc.
  
 This software contains proprietary and confidential information,
 including trade secrets, belonging to Gaussian, Inc.
  
 This software is provided under written license and may be
 used, copied, transmitted, or stored only in accord with that
 written license.
  
 The following legend is applicable only to US Government
 contracts under FAR:
  
                    RESTRICTED RIGHTS LEGEND
  
 Use, reproduction and disclosure by the US Government is
 subject to restrictions as set forth in subparagraphs (a)
 and (c) of the Commercial Computer Software - Restricted
 Rights clause in FAR 52.227-19.
  
 Gaussian, Inc.
 340 Quinnipiac St., Bldg. 40, Wallingford CT 06492
  
  
 ---------------------------------------------------------------
 Warning -- This program may not be used in any manner that
 competes with the business of Gaussian, Inc. or will provide
 assistance to any competitor of Gaussian, Inc.  The licensee
 of this program is prohibited from giving any competitor of
 Gaussian, Inc. access to this program.  By using this program,
 the user acknowledges that Gaussian, Inc. is engaged in the
 business of creating and licensing software in the field of
 computational chemistry and represents and warrants to the
 licensee that it is not a competitor of Gaussian, Inc. and that
 it will not use this program in any manner prohibited above.
 ---------------------------------------------------------------
  

 Cite this work as:
 Gaussian 09, Revision C.01,
 M. J. Frisch, G. W. Trucks, H. B. Schlegel, G. E. Scuseria, 
 M. A. Robb, J. R. Cheeseman, G. Scalmani, V. Barone, B. Mennucci, 
 G. A. Petersson, H. Nakatsuji, M. Caricato, X. Li, H. P. Hratchian, 
 A. F. Izmaylov, J. Bloino, G. Zheng, J. L. Sonnenberg, M. Hada, 
 M. Ehara, K. Toyota, R. Fukuda, J. Hasegawa, M. Ishida, T. Nakajima, 
 Y. Honda, O. Kitao, H. Nakai, T. Vreven, J. A. Montgomery, Jr., 
 J. E. Peralta, F. Ogliaro, M. Bearpark, J. J. Heyd, E. Brothers, 
 K. N. Kudin, V. N. Staroverov, T. Keith, R. Kobayashi, J. Normand, 
 K. Raghavachari, A. Rendell, J. C. Burant, S. S. Iyengar, J. Tomasi, 
 M. Cossi, N. Rega, J. M. Millam, M. Klene, J. E. Knox, J. B. Cross, 
 V. Bakken, C. Adamo, J. Jaramillo, R. Gomperts, R. E. Stratmann, 
 O. Yazyev, A. J. Austin, R. Cammi, C. Pomelli, J. W. Ochterski, 
 R. L. Martin, K. Morokuma, V. G. Zakrzewski, G. A. Voth, 
 P. Salvador, J. J. Dannenberg, S. Dapprich, A. D. Daniels, 
 O. Farkas, J. B. Foresman, J. V. Ortiz, J. Cioslowski, 
 and D. J. Fox, Gaussian, Inc., Wallingford CT, 2010.
 
 ******************************************
 Gaussian 09:  EM64L-G09RevC.01 23-Sep-2011
                12-May-2020 
 ******************************************
 %mem=8GB
 %nproc=8
 Will use up to    8 processors via shared memory.
 --------------------------------------------------------
 #p lc-wpbe/aug-cc-PVTz int=ultrafine counterpoise=2 Scan
 --------------------------------------------------------
 1/38=1,60=1,62=2/1,8;
 2/12=2,17=6,18=5,29=3,40=1/2;
 1/38=1,53=5172,62=2/22;
 3/5=16,6=1,7=10,11=2,16=1,25=1,30=1,74=-41,75=-5/1,2,3;
 4//1;
 5/5=2,38=5/2;
 6/7=2,8=2,9=2,10=2,18=1,28=1/1;
 1/53=4052,62=2,63=1/22;
 3/5=7,6=11,7=10,11=2,16=1,25=1,30=1,74=-41,75=-5,82=7/1,2,3;
 4//1;
 5/5=2,38=5/2;
 6/7=2,8=2,9=2,10=2,18=1,28=1/1;
 1/53=3042,62=2,63=2/22;
 3/5=7,6=11,7=10,11=2,16=1,25=1,30=1,74=-41,75=-5,82=7/1,2,3;
 4//1;
 5/5=2,38=5/2;
 6/7=2,8=2,9=2,10=2,18=1,28=1/1;
 1/53=2032,62=2,63=3/22;
 3/5=7,6=11,7=10,11=2,16=1,25=1,30=1,74=-41,75=-5,82=7/1,2,3;
 4//1;
 5/5=2,38=5/2;
 6/7=2,8=2,9=2,10=2,18=1,28=1/1;
 1/53=1022,62=2,63=4/22;
 3/5=7,6=11,7=10,11=2,16=1,25=1,30=1,74=-41,75=-5,82=7/1,2,3;
 4//1;
 5/5=2,38=5/2;
 6/7=2,8=2,9=2,10=2,18=1,28=1/1;
 1/53=5014,62=2,63=5/22;
 1/60=1,62=2/8(1);
 99/9=1/99;
 2/29=3/2;
 1/53=5173,62=2/22;
 3/5=7,6=11,7=10,11=2,16=1,25=1,30=1,74=-41,75=-5,82=7/1,2,3;
 4/5=5,16=3/1;
 5/5=2,38=5/2;
 1/53=4053,62=2,63=1/22;
 3/5=7,6=11,7=10,11=2,16=1,25=1,30=1,74=-41,75=-5,82=7/1,2,3;
 4/5=5,16=3/1;
 5/5=2,38=5/2;
 1/53=3043,62=2,63=2/22;
 3/5=7,6=11,7=10,11=2,16=1,25=1,30=1,74=-41,75=-5,82=7/1,2,3;
 4/5=5,16=3/1;
 5/5=2,38=5/2;
 1/53=2033,62=2,63=3/22;
 3/5=7,6=11,7=10,11=2,16=1,25=1,30=1,74=-41,75=-5,82=7/1,2,3;
 4/5=5,16=3/1;
 5/5=2,38=5/2;
 1/53=1024,62=2,63=4/22;
 3/5=7,6=11,7=10,11=2,16=1,25=1,30=1,74=-41,75=-5,82=7/1,2,3;
 4/5=5,16=3/1;
 5/5=2,38=5/2;
 1/53=5014,62=2,63=5/22;
 1/60=1,62=2/8(-22);
 99/9=1/99;
 Leave Link    1 at Tue May 12 22:07:30 2020, MaxMem= 1073741824 cpu:       0.1
 (Enter /home/matheus/.gaussian/g09/l101.exe)
 ---
 TCC
 ---
 Charge =  0 Multiplicity = 1 in supermolecule
 Charge =  0 Multiplicity = 1 in fragment  1.
 Charge =  0 Multiplicity = 1 in fragment  2.
 Symbolic Z-Matrix:
 O(Fragment=1)         0.        0.        0.725 
 O(Fragment=1)         0.        0.       -0.725 
 H(Fragment=1)        -0.59054   0.70378   1.02351 
 H(Fragment=1)         0.        0.91872  -1.02351 
 Kr(Fragment=2)        0.       R1        0. 
       Variables:
  R1                    3.     Scan 20    0.1    
 
 NAtoms=      5 NQM=        0 NQMF=       0 NMMI=      5 NMMIF=      0
                NMic=       0 NMicF=      0.
                    Isotopes and Nuclear Properties:
 (Nuclear quadrupole moments (NQMom) in fm**2, nuclear magnetic moments (NMagM)
  in nuclear magnetons)

  Atom         1           2           3           4           5
 IAtWgt=          16          16           1           1          84
 AtmWgt=  15.9949146  15.9949146   1.0078250   1.0078250  83.9115064
 NucSpn=           0           0           1           1           0
 AtZEff=   0.0000000   0.0000000   0.0000000   0.0000000   0.0000000
 NQMom=    0.0000000   0.0000000   0.0000000   0.0000000   0.0000000
 NMagM=    0.0000000   0.0000000   2.7928460   2.7928460   0.0000000
 Leave Link  101 at Tue May 12 22:07:30 2020, MaxMem= 1073741824 cpu:       0.3
 (Enter /home/matheus/.gaussian/g09/l108.exe)
 Scan the potential surface.
 Variable   Value     No. Steps Step-Size
 -------- ----------- --------- ---------
     1       3.000000      20      0.1000
 A total of     21 points will be computed.
 Leave Link  108 at Tue May 12 22:07:30 2020, MaxMem= 1073741824 cpu:       0.0
 (Enter /home/matheus/.gaussian/g09/l202.exe)
 ---------------------------------------------------------------------------------------------------
                            Z-MATRIX (ANGSTROMS AND DEGREES)
   CD    Cent   Atom    N1       Length/X        N2       Alpha/Y        N3        Beta/Z          J
 ---------------------------------------------------------------------------------------------------
      1      1  O        0   0.000000          0.000000          0.725000
      2      2  O        0   0.000000          0.000000         -0.725000
      3      3  H        0  -0.590542          0.703781          1.023510
      4      4  H        0   0.000000          0.918721         -1.023510
      5      5  Kr       0   0.000000          3.000000          0.000000
 ---------------------------------------------------------------------------------------------------
                         Z-Matrix orientation:                         
 ---------------------------------------------------------------------
 Center     Atomic      Atomic             Coordinates (Angstroms)
 Number     Number       Type             X           Y           Z
 ---------------------------------------------------------------------
      1          8           0        0.000000    0.000000    0.725000
      2          8           0        0.000000    0.000000   -0.725000
      3          1           0       -0.590542    0.703781    1.023510
      4          1           0        0.000000    0.918721   -1.023510
      5         36           0        0.000000    3.000000    0.000000
 ---------------------------------------------------------------------
                    Distance matrix (angstroms):
                    1          2          3          4          5
     1  O    0.000000
     2  O    1.450000   0.000000
     3  H    0.966000   1.975180   0.000000
     4  H    1.975180   0.966000   2.141316   0.000000
     5  Kr   3.086361   3.086361   2.582428   2.319331   0.000000
 Stoichiometry    H2KrO2
 Framework group  C1[X(H2KrO2)]
 Deg. of freedom     9
 Full point group                 C1      NOp   1
 Largest Abelian subgroup         C1      NOp   1
 Largest concise Abelian subgroup C1      NOp   1
                         Standard orientation:                         
 ---------------------------------------------------------------------
 Center     Atomic      Atomic             Coordinates (Angstroms)
 Number     Number       Type             X           Y           Z
 ---------------------------------------------------------------------
      1          8           0       -2.031661   -0.717244   -0.068894
      2          8           0       -2.028133    0.730229    0.016606
      3          1           0       -1.333152   -1.052071    0.508282
      4          1           0       -1.108715    1.025573    0.041099
      5         36           0        0.970006   -0.002150   -0.003641
 ---------------------------------------------------------------------
 Rotational constants (GHZ):     26.2249700      2.3786625      2.1869902
 Leave Link  202 at Tue May 12 22:07:30 2020, MaxMem= 1073741824 cpu:       0.0
 (Enter /home/matheus/.gaussian/g09/l122.exe)
 Leave Link  122 at Tue May 12 22:07:30 2020, MaxMem= 1073741824 cpu:       0.0
 (Enter /home/matheus/.gaussian/g09/l301.exe)
 Standard basis: Aug-CC-pVTZ (5D, 7F)
 Ernie: Thresh=  0.10000D-02 Tol=  0.10000D-05 Strict=F.
 Ernie:  38 primitive shells out of 205 were deleted.
 There are   197 symmetry adapted basis functions of A   symmetry.
 Integral buffers will be    131072 words long.
 Raffenetti 2 integral format.
 Two-electron integral symmetry is turned on.
   197 basis functions,   415 primitive gaussians,   229 cartesian basis functions
    27 alpha electrons       27 beta electrons
       nuclear repulsion energy       151.0050746500 Hartrees.
 IExCor=32609 DFT=T Ex+Corr=LC-wPBE ExCW=0 ScaHFX=  1.000000
 ScaDFX=  1.000000  0.000000  1.000000  1.000000 ScalE2=  1.000000  1.000000
 IRadAn=      5 IRanWt=     -1 IRanGd=            0 ICorTp=0
  HFx wShort=  0.000000 wLong=  0.400000 cFull=  0.000000 cShort=  0.000000 cLong=  1.000000
  DFx wShort=  0.000000 wLong=  0.400000 cFull=  0.000000 cShort=  0.000000 cLong=  1.000000
 NAtoms=    5 NActive=    5 NUniq=    5 SFac= 1.00D+00 NAtFMM=   60 NAOKFM=F Big=F
 Leave Link  301 at Tue May 12 22:07:30 2020, MaxMem= 1073741824 cpu:       0.2
 (Enter /home/matheus/.gaussian/g09/l302.exe)
 NPDir=0 NMtPBC=     1 NCelOv=     1 NCel=       1 NClECP=     1 NCelD=      1
         NCelK=      1 NCelE2=     1 NClLst=     1 CellRange=     0.0.
 One-electron integrals computed using PRISM.
 NBasis=   197 RedAO= T  NBF=   197
 NBsUse=   197 1.00D-06 NBFU=   197
 Precomputing XC quadrature grid using
 IXCGrd= 2 IRadAn=           5 IRanWt=          -1 IRanGd=           0 AccXCQ= 0.00D+00.
 NRdTot=     427 NPtTot=      123512 NUsed=      126579 NTot=      126611
 NSgBfM=   229   229   229   229   229 NAtAll=     5     5.
 Leave Link  302 at Tue May 12 22:07:30 2020, MaxMem= 1073741824 cpu:       1.1
 (Enter /home/matheus/.gaussian/g09/l303.exe)
 DipDrv:  MaxL=1.
 Leave Link  303 at Tue May 12 22:07:30 2020, MaxMem= 1073741824 cpu:       0.2
 (Enter /home/matheus/.gaussian/g09/l401.exe)
 Harris functional with IExCor=32609 diagonalized for initial guess.
 ExpMin= 2.53D-02 ExpMax= 1.17D+07 ExpMxC= 1.33D+04 IAcc=3 IRadAn=         5 AccDes= 0.00D+00
 HarFok:  IExCor=32609 AccDes= 0.00D+00 IRadAn=         5 IDoV= 1
 ScaDFX=  1.000000  1.000000  1.000000  1.000000
 FoFCou: FMM=F IPFlag=           0 FMFlag=      100000 FMFlg1=           0
         NFxFlg=           0 DoJE=T BraDBF=F KetDBF=T FulRan=T
         Omega=  0.000000  0.000000  1.000000  0.000000  0.000000 ICntrl=     500 IOpCl=  0
         NMat0=    1 NMatS0=    1 NMatT0=    0 NMatD0=    1 NMtDS0=    0 NMtDT0=    0
         I1Cent=           4 NGrid=           0.
 Petite list used in FoFCou.
 Harris En= -2904.73373135575    
 Initial guess orbital symmetries:
       Occupied  (A) (A) (A) (A) (A) (A) (A) (A) (A) (A) (A) (A)
                 (A) (A) (A) (A) (A) (A) (A) (A) (A) (A) (A) (A)
                 (A) (A) (A)
       Virtual   (A) (A) (A) (A) (A) (A) (A) (A) (A) (A) (A) (A)
                 (A) (A) (A) (A) (A) (A) (A) (A) (A) (A) (A) (A)
                 (A) (A) (A) (A) (A) (A) (A) (A) (A) (A) (A) (A)
                 (A) (A) (A) (A) (A) (A) (A) (A) (A) (A) (A) (A)
                 (A) (A) (A) (A) (A) (A) (A) (A) (A) (A) (A) (A)
                 (A) (A) (A) (A) (A) (A) (A) (A) (A) (A) (A) (A)
                 (A) (A) (A) (A) (A) (A) (A) (A) (A) (A) (A) (A)
                 (A) (A) (A) (A) (A) (A) (A) (A) (A) (A) (A) (A)
                 (A) (A) (A) (A) (A) (A) (A) (A) (A) (A) (A) (A)
                 (A) (A) (A) (A) (A) (A) (A) (A) (A) (A) (A) (A)
                 (A) (A) (A) (A) (A) (A) (A) (A) (A) (A) (A) (A)
                 (A) (A) (A) (A) (A) (A) (A) (A) (A) (A) (A) (A)
                 (A) (A) (A) (A) (A) (A) (A) (A) (A) (A) (A) (A)
                 (A) (A) (A) (A) (A) (A) (A) (A) (A) (A) (A) (A)
                 (A) (A)
 The electronic state of the initial guess is 1-A.
 Leave Link  401 at Tue May 12 22:07:30 2020, MaxMem= 1073741824 cpu:       4.0
 (Enter /home/matheus/.gaussian/g09/l502.exe)
 Closed shell SCF:
 Requested convergence on RMS density matrix=1.00D-08 within 128 cycles.
 Requested convergence on MAX density matrix=1.00D-06.
 Requested convergence on             energy=1.00D-06.
 No special actions if energy rises.
 Using DIIS extrapolation, IDIIS=  1040.
 Integral symmetry usage will be decided dynamically.
       126521 words used for storage of precomputed grid.
 IEnd=      305468 IEndB=      305468 NGot=  1073741824 MDV=  1073505667
 LenX=  1073505667 LenY=  1073452785
 Fock matrices will be formed incrementally for  20 cycles.

 Cycle   1  Pass 1  IDiag  1:
 FoFJK:  IHMeth= 1 ICntrl=     0 DoSepK=T KAlg= 1 I1Cent= 0 FoldK=F
 FoFCou: FMM=F IPFlag=           0 FMFlag=      100000 FMFlg1=           0
         NFxFlg=           0 DoJE=T BraDBF=F KetDBF=F FulRan=T
         Omega=  0.000000  0.000000  1.000000  0.000000  0.000000 ICntrl=     500 IOpCl=  0
         NMat0=    1 NMatS0=    1 NMatT0=    0 NMatD0=    1 NMtDS0=    0 NMtDT0=    0
         I1Cent=           0 NGrid=           0.
 Symmetry not used in FoFCou.
 E= -2904.87384376328    
 DIIS: error= 2.79D-02 at cycle   1 NSaved=   1.
 NSaved= 1 IEnMin= 1 EnMin= -2904.87384376328     IErMin= 1 ErrMin= 2.79D-02
 ErrMax= 2.79D-02 EMaxC= 1.00D-01 BMatC= 2.68D-01 BMatP= 2.68D-01
 IDIUse=3 WtCom= 7.21D-01 WtEn= 2.79D-01
 Coeff-Com:  0.100D+01
 Coeff-En:   0.100D+01
 Coeff:      0.100D+01
 Gap=     0.487 Goal=   None    Shift=    0.000
 GapD=    0.487 DampG=2.000 DampE=0.500 DampFc=1.0000 IDamp=-1.
 RMSDP=2.34D-03 MaxDP=1.52D-01              OVMax= 7.01D-02

 Cycle   2  Pass 1  IDiag  1:
 RMSU=  1.63D-03    CP:  1.02D+00
 FoFJK:  IHMeth= 1 ICntrl=     0 DoSepK=T KAlg= 1 I1Cent= 0 FoldK=F
 E= -2904.91824961472     Delta-E=       -0.044405851440 Rises=F Damp=F
 DIIS: error= 1.10D-02 at cycle   2 NSaved=   2.
 NSaved= 2 IEnMin= 2 EnMin= -2904.91824961472     IErMin= 2 ErrMin= 1.10D-02
 ErrMax= 1.10D-02 EMaxC= 1.00D-01 BMatC= 8.36D-02 BMatP= 2.68D-01
 IDIUse=3 WtCom= 8.90D-01 WtEn= 1.10D-01
 Coeff-Com:  0.352D+00 0.648D+00
 Coeff-En:   0.210D+00 0.790D+00
 Coeff:      0.336D+00 0.664D+00
 Gap=     0.440 Goal=   None    Shift=    0.000
 RMSDP=9.80D-04 MaxDP=5.20D-02 DE=-4.44D-02 OVMax= 3.45D-02

 Cycle   3  Pass 1  IDiag  1:
 RMSU=  3.27D-04    CP:  1.01D+00  6.35D-01
 FoFJK:  IHMeth= 1 ICntrl=     0 DoSepK=T KAlg= 1 I1Cent= 0 FoldK=F
 E= -2904.94882976929     Delta-E=       -0.030580154576 Rises=F Damp=F
 DIIS: error= 2.04D-03 at cycle   3 NSaved=   3.
 NSaved= 3 IEnMin= 3 EnMin= -2904.94882976929     IErMin= 3 ErrMin= 2.04D-03
 ErrMax= 2.04D-03 EMaxC= 1.00D-01 BMatC= 2.01D-03 BMatP= 8.36D-02
 IDIUse=3 WtCom= 9.80D-01 WtEn= 2.04D-02
 Coeff-Com:  0.695D-01 0.201D+00 0.730D+00
 Coeff-En:   0.000D+00 0.000D+00 0.100D+01
 Coeff:      0.681D-01 0.197D+00 0.735D+00
 Gap=     0.420 Goal=   None    Shift=    0.000
 RMSDP=1.30D-04 MaxDP=3.38D-03 DE=-3.06D-02 OVMax= 8.51D-03

 Cycle   4  Pass 1  IDiag  1:
 RMSU=  6.61D-05    CP:  1.01D+00  6.63D-01  8.61D-01
 FoFJK:  IHMeth= 1 ICntrl=     0 DoSepK=T KAlg= 1 I1Cent= 0 FoldK=F
 E= -2904.94992389555     Delta-E=       -0.001094126256 Rises=F Damp=F
 DIIS: error= 5.51D-04 at cycle   4 NSaved=   4.
 NSaved= 4 IEnMin= 4 EnMin= -2904.94992389555     IErMin= 4 ErrMin= 5.51D-04
 ErrMax= 5.51D-04 EMaxC= 1.00D-01 BMatC= 1.51D-04 BMatP= 2.01D-03
 IDIUse=3 WtCom= 9.94D-01 WtEn= 5.51D-03
 Coeff-Com: -0.228D-02 0.249D-01 0.272D+00 0.706D+00
 Coeff-En:   0.000D+00 0.000D+00 0.000D+00 0.100D+01
 Coeff:     -0.226D-02 0.248D-01 0.270D+00 0.707D+00
 Gap=     0.425 Goal=   None    Shift=    0.000
 RMSDP=3.78D-05 MaxDP=1.88D-03 DE=-1.09D-03 OVMax= 2.04D-03

 Cycle   5  Pass 1  IDiag  1:
 RMSU=  1.21D-05    CP:  1.01D+00  6.67D-01  9.21D-01  8.17D-01
 FoFJK:  IHMeth= 1 ICntrl=     0 DoSepK=T KAlg= 1 I1Cent= 0 FoldK=F
 E= -2904.95000872960     Delta-E=       -0.000084834050 Rises=F Damp=F
 DIIS: error= 6.04D-05 at cycle   5 NSaved=   5.
 NSaved= 5 IEnMin= 5 EnMin= -2904.95000872960     IErMin= 5 ErrMin= 6.04D-05
 ErrMax= 6.04D-05 EMaxC= 1.00D-01 BMatC= 1.80D-06 BMatP= 1.51D-04
 IDIUse=1 WtCom= 1.00D+00 WtEn= 0.00D+00
 Coeff-Com: -0.176D-02-0.506D-03 0.272D-01 0.125D+00 0.850D+00
 Coeff:     -0.176D-02-0.506D-03 0.272D-01 0.125D+00 0.850D+00
 Gap=     0.425 Goal=   None    Shift=    0.000
 RMSDP=6.20D-06 MaxDP=2.07D-04 DE=-8.48D-05 OVMax= 4.01D-04

 Cycle   6  Pass 1  IDiag  1:
 RMSU=  3.69D-06    CP:  1.01D+00  6.66D-01  9.21D-01  8.49D-01  1.08D+00
 FoFJK:  IHMeth= 1 ICntrl=     0 DoSepK=T KAlg= 1 I1Cent= 0 FoldK=F
 E= -2904.95000994468     Delta-E=       -0.000001215076 Rises=F Damp=F
 DIIS: error= 4.40D-05 at cycle   6 NSaved=   6.
 NSaved= 6 IEnMin= 6 EnMin= -2904.95000994468     IErMin= 6 ErrMin= 4.40D-05
 ErrMax= 4.40D-05 EMaxC= 1.00D-01 BMatC= 7.18D-07 BMatP= 1.80D-06
 IDIUse=1 WtCom= 1.00D+00 WtEn= 0.00D+00
 Coeff-Com: -0.596D-03-0.281D-02-0.147D-01-0.109D-01 0.396D+00 0.633D+00
 Coeff:     -0.596D-03-0.281D-02-0.147D-01-0.109D-01 0.396D+00 0.633D+00
 Gap=     0.425 Goal=   None    Shift=    0.000
 RMSDP=2.87D-06 MaxDP=1.02D-04 DE=-1.22D-06 OVMax= 2.00D-04

 Cycle   7  Pass 1  IDiag  1:
 RMSU=  1.57D-06    CP:  1.01D+00  6.66D-01  9.22D-01  8.59D-01  1.16D+00
                    CP:  8.96D-01
 FoFJK:  IHMeth= 1 ICntrl=     0 DoSepK=T KAlg= 1 I1Cent= 0 FoldK=F
 E= -2904.95001043475     Delta-E=       -0.000000490078 Rises=F Damp=F
 DIIS: error= 1.40D-05 at cycle   7 NSaved=   7.
 NSaved= 7 IEnMin= 7 EnMin= -2904.95001043475     IErMin= 7 ErrMin= 1.40D-05
 ErrMax= 1.40D-05 EMaxC= 1.00D-01 BMatC= 7.63D-08 BMatP= 7.18D-07
 IDIUse=1 WtCom= 1.00D+00 WtEn= 0.00D+00
 Coeff-Com: -0.886D-06-0.115D-02-0.105D-01-0.242D-01 0.170D-01 0.265D+00
 Coeff-Com:  0.754D+00
 Coeff:     -0.886D-06-0.115D-02-0.105D-01-0.242D-01 0.170D-01 0.265D+00
 Coeff:      0.754D+00
 Gap=     0.425 Goal=   None    Shift=    0.000
 RMSDP=1.01D-06 MaxDP=4.38D-05 DE=-4.90D-07 OVMax= 7.33D-05

 Cycle   8  Pass 1  IDiag  1:
 RMSU=  3.58D-07    CP:  1.01D+00  6.66D-01  9.22D-01  8.61D-01  1.19D+00
                    CP:  1.02D+00  9.39D-01
 FoFJK:  IHMeth= 1 ICntrl=     0 DoSepK=T KAlg= 1 I1Cent= 0 FoldK=F
 E= -2904.95001049036     Delta-E=       -0.000000055603 Rises=F Damp=F
 DIIS: error= 2.05D-06 at cycle   8 NSaved=   8.
 NSaved= 8 IEnMin= 8 EnMin= -2904.95001049036     IErMin= 8 ErrMin= 2.05D-06
 ErrMax= 2.05D-06 EMaxC= 1.00D-01 BMatC= 7.49D-10 BMatP= 7.63D-08
 IDIUse=1 WtCom= 1.00D+00 WtEn= 0.00D+00
 Coeff-Com:  0.270D-04 0.269D-03 0.200D-02 0.375D-02-0.177D-01-0.642D-01
 Coeff-Com: -0.108D+00 0.118D+01
 Coeff:      0.270D-04 0.269D-03 0.200D-02 0.375D-02-0.177D-01-0.642D-01
 Coeff:     -0.108D+00 0.118D+01
 Gap=     0.425 Goal=   None    Shift=    0.000
 RMSDP=2.97D-07 MaxDP=5.92D-06 DE=-5.56D-08 OVMax= 2.40D-05

 Cycle   9  Pass 1  IDiag  1:
 RMSU=  8.55D-08    CP:  1.01D+00  6.66D-01  9.22D-01  8.62D-01  1.20D+00
                    CP:  1.04D+00  9.93D-01  1.37D+00
 FoFJK:  IHMeth= 1 ICntrl=     0 DoSepK=T KAlg= 1 I1Cent= 0 FoldK=F
 E= -2904.95001049279     Delta-E=       -0.000000002437 Rises=F Damp=F
 DIIS: error= 4.75D-07 at cycle   9 NSaved=   9.
 NSaved= 9 IEnMin= 9 EnMin= -2904.95001049279     IErMin= 9 ErrMin= 4.75D-07
 ErrMax= 4.75D-07 EMaxC= 1.00D-01 BMatC= 4.74D-11 BMatP= 7.49D-10
 IDIUse=1 WtCom= 1.00D+00 WtEn= 0.00D+00
 Coeff-Com: -0.593D-06 0.549D-04 0.511D-03 0.128D-02-0.119D-02-0.146D-01
 Coeff-Com: -0.401D-01 0.541D-01 0.100D+01
 Coeff:     -0.593D-06 0.549D-04 0.511D-03 0.128D-02-0.119D-02-0.146D-01
 Coeff:     -0.401D-01 0.541D-01 0.100D+01
 Gap=     0.425 Goal=   None    Shift=    0.000
 RMSDP=5.99D-08 MaxDP=1.77D-06 DE=-2.44D-09 OVMax= 6.35D-06

 Cycle  10  Pass 1  IDiag  1:
 RMSU=  2.32D-08    CP:  1.01D+00  6.66D-01  9.22D-01  8.62D-01  1.20D+00
                    CP:  1.04D+00  9.98D-01  1.44D+00  1.21D+00
 FoFJK:  IHMeth= 1 ICntrl=     0 DoSepK=T KAlg= 1 I1Cent= 0 FoldK=F
 E= -2904.95001049292     Delta-E=       -0.000000000127 Rises=F Damp=F
 DIIS: error= 1.66D-07 at cycle  10 NSaved=  10.
 NSaved=10 IEnMin=10 EnMin= -2904.95001049292     IErMin=10 ErrMin= 1.66D-07
 ErrMax= 1.66D-07 EMaxC= 1.00D-01 BMatC= 4.16D-12 BMatP= 4.74D-11
 IDIUse=1 WtCom= 1.00D+00 WtEn= 0.00D+00
 Coeff-Com: -0.203D-05-0.177D-04-0.131D-03-0.239D-03 0.140D-02 0.449D-02
 Coeff-Com:  0.613D-02-0.928D-01 0.558D-01 0.103D+01
 Coeff:     -0.203D-05-0.177D-04-0.131D-03-0.239D-03 0.140D-02 0.449D-02
 Coeff:      0.613D-02-0.928D-01 0.558D-01 0.103D+01
 Gap=     0.425 Goal=   None    Shift=    0.000
 RMSDP=2.17D-08 MaxDP=8.59D-07 DE=-1.27D-10 OVMax= 2.58D-06

 Cycle  11  Pass 1  IDiag  1:
 RMSU=  6.91D-09    CP:  1.01D+00  6.66D-01  9.22D-01  8.62D-01  1.20D+00
                    CP:  1.04D+00  9.98D-01  1.46D+00  1.32D+00  1.27D+00
 FoFJK:  IHMeth= 1 ICntrl=     0 DoSepK=T KAlg= 1 I1Cent= 0 FoldK=F
 E= -2904.95001049294     Delta-E=       -0.000000000017 Rises=F Damp=F
 DIIS: error= 5.14D-08 at cycle  11 NSaved=  11.
 NSaved=11 IEnMin=11 EnMin= -2904.95001049294     IErMin=11 ErrMin= 5.14D-08
 ErrMax= 5.14D-08 EMaxC= 1.00D-01 BMatC= 4.21D-13 BMatP= 4.16D-12
 IDIUse=1 WtCom= 1.00D+00 WtEn= 0.00D+00
 Coeff-Com:  0.271D-06-0.252D-05-0.268D-04-0.903D-04 0.223D-04 0.999D-03
 Coeff-Com:  0.272D-02-0.687D-03-0.742D-01-0.597D-01 0.113D+01
 Coeff:      0.271D-06-0.252D-05-0.268D-04-0.903D-04 0.223D-04 0.999D-03
 Coeff:      0.272D-02-0.687D-03-0.742D-01-0.597D-01 0.113D+01
 Gap=     0.425 Goal=   None    Shift=    0.000
 RMSDP=7.98D-09 MaxDP=2.07D-07 DE=-1.73D-11 OVMax= 1.07D-06

 SCF Done:  E(RLC-wPBE) =  -2904.95001049     A.U. after   11 cycles
             Convg  =    0.7978D-08             -V/T =  2.0017
 KE= 2.900060994626D+03 PE=-7.238111948659D+03 EE= 1.282095868890D+03
 Leave Link  502 at Tue May 12 22:08:12 2020, MaxMem= 1073741824 cpu:     330.7
 (Enter /home/matheus/.gaussian/g09/l601.exe)
 Copying SCF densities to generalized density rwf, IOpCl= 0 IROHF=0.

 **********************************************************************

            Population analysis using the SCF density.

 **********************************************************************

 Orbital symmetries:
       Occupied  (A) (A) (A) (A) (A) (A) (A) (A) (A) (A) (A) (A)
                 (A) (A) (A) (A) (A) (A) (A) (A) (A) (A) (A) (A)
                 (A) (A) (A)
       Virtual   (A) (A) (A) (A) (A) (A) (A) (A) (A) (A) (A) (A)
                 (A) (A) (A) (A) (A) (A) (A) (A) (A) (A) (A) (A)
                 (A) (A) (A) (A) (A) (A) (A) (A) (A) (A) (A) (A)
                 (A) (A) (A) (A) (A) (A) (A) (A) (A) (A) (A) (A)
                 (A) (A) (A) (A) (A) (A) (A) (A) (A) (A) (A) (A)
                 (A) (A) (A) (A) (A) (A) (A) (A) (A) (A) (A) (A)
                 (A) (A) (A) (A) (A) (A) (A) (A) (A) (A) (A) (A)
                 (A) (A) (A) (A) (A) (A) (A) (A) (A) (A) (A) (A)
                 (A) (A) (A) (A) (A) (A) (A) (A) (A) (A) (A) (A)
                 (A) (A) (A) (A) (A) (A) (A) (A) (A) (A) (A) (A)
                 (A) (A) (A) (A) (A) (A) (A) (A) (A) (A) (A) (A)
                 (A) (A) (A) (A) (A) (A) (A) (A) (A) (A) (A) (A)
                 (A) (A) (A) (A) (A) (A) (A) (A) (A) (A) (A) (A)
                 (A) (A) (A) (A) (A) (A) (A) (A) (A) (A) (A) (A)
                 (A) (A)
 The electronic state is 1-A.
 Alpha  occ. eigenvalues -- -511.13836 -66.68518 -60.34740 -60.34729 -60.34718
 Alpha  occ. eigenvalues --  -19.03388 -19.03168  -9.61794  -7.36251  -7.36218
 Alpha  occ. eigenvalues --   -7.36183  -3.31793  -3.31788  -3.31762  -3.31737
 Alpha  occ. eigenvalues --   -3.31734  -1.25436  -1.06627  -1.03700  -0.70910
 Alpha  occ. eigenvalues --   -0.57321  -0.56275  -0.53763  -0.53192  -0.52047
 Alpha  occ. eigenvalues --   -0.47596  -0.39348
 Alpha virt. eigenvalues --    0.03188   0.04185   0.08209   0.09077   0.10106
 Alpha virt. eigenvalues --    0.11514   0.12880   0.14851   0.17240   0.17843
 Alpha virt. eigenvalues --    0.18129   0.19331   0.20190   0.21804   0.23806
 Alpha virt. eigenvalues --    0.24329   0.25041   0.28115   0.30854   0.33401
 Alpha virt. eigenvalues --    0.34350   0.35400   0.37783   0.38913   0.40195
 Alpha virt. eigenvalues --    0.42487   0.43561   0.47875   0.53190   0.54468
 Alpha virt. eigenvalues --    0.58668   0.59973   0.61279   0.64375   0.67625
 Alpha virt. eigenvalues --    0.68304   0.70557   0.73696   0.74824   0.75684
 Alpha virt. eigenvalues --    0.76520   0.77384   0.79714   0.82027   0.84834
 Alpha virt. eigenvalues --    0.86304   0.87203   0.88340   0.89824   0.91554
 Alpha virt. eigenvalues --    0.92471   0.95452   0.97320   0.98348   1.01656
 Alpha virt. eigenvalues --    1.02321   1.02995   1.05891   1.06732   1.11009
 Alpha virt. eigenvalues --    1.13125   1.18731   1.19775   1.22490   1.24433
 Alpha virt. eigenvalues --    1.30572   1.34662   1.37248   1.40493   1.44989
 Alpha virt. eigenvalues --    1.47258   1.49477   1.51999   1.55358   1.59931
 Alpha virt. eigenvalues --    1.63459   1.68596   1.83779   1.89095   1.93476
 Alpha virt. eigenvalues --    1.99573   2.06054   2.09063   2.11660   2.12603
 Alpha virt. eigenvalues --    2.13933   2.18776   2.20562   2.21115   2.26578
 Alpha virt. eigenvalues --    2.28704   2.30275   2.31364   2.32475   2.33196
 Alpha virt. eigenvalues --    2.37894   2.39260   2.44242   2.47319   2.48012
 Alpha virt. eigenvalues --    2.50430   2.51362   2.54744   2.56121   2.57689
 Alpha virt. eigenvalues --    2.58561   2.65505   2.65814   2.70416   2.72018
 Alpha virt. eigenvalues --    2.73064   2.76956   2.80612   2.88719   2.90317
 Alpha virt. eigenvalues --    2.93444   3.02764   3.09106   3.11735   3.61778
 Alpha virt. eigenvalues --    3.65070   3.90997   3.99429   3.99875   4.02435
 Alpha virt. eigenvalues --    4.12067   4.15037   4.21767   4.23095   4.23810
 Alpha virt. eigenvalues --    4.43295   4.48606   4.60264   4.63323   4.64089
 Alpha virt. eigenvalues --    4.97541   5.00246   5.03792   5.05181   5.10630
 Alpha virt. eigenvalues --    5.15219   5.44054   5.82392   6.00097   6.07726
 Alpha virt. eigenvalues --    6.11173   6.31851   6.37636   6.41114   6.53230
 Alpha virt. eigenvalues --    6.64687   6.70879   6.75796   6.81531   6.82863
 Alpha virt. eigenvalues --    6.86362   6.87232   6.88416   6.89593   7.03940
 Alpha virt. eigenvalues --    7.10120   7.14988   7.20885   7.38478   7.50229
 Alpha virt. eigenvalues --    7.89473   7.98926   8.12608  13.87372  14.57822
          Condensed to atoms (all electrons):
              1          2          3          4          5
     1  O    8.291972  -0.263078   0.168330   0.025731  -0.023320
     2  O   -0.263078   8.276539   0.032950   0.182050  -0.012832
     3  H    0.168330   0.032950   0.615924  -0.012053  -0.002724
     4  H    0.025731   0.182050  -0.012053   0.614210  -0.016801
     5  Kr  -0.023320  -0.012832  -0.002724  -0.016801  36.044854
 Mulliken atomic charges:
              1
     1  O   -0.199635
     2  O   -0.215628
     3  H    0.197574
     4  H    0.206865
     5  Kr   0.010824
 Sum of Mulliken atomic charges =   0.00000
 Mulliken charges with hydrogens summed into heavy atoms:
              1
     1  O   -0.002061
     2  O   -0.008763
     5  Kr   0.010824
 Sum of Mulliken charges with hydrogens summed into heavy atoms =   0.00000
          Condensed to fragments (all electrons):
     1      -0.010824
     2       0.010824
 Electronic spatial extent (au):  <R**2>=            477.4074
 Charge=              0.0000 electrons
 Dipole moment (field-independent basis, Debye):
    X=              3.2032    Y=             -0.1584    Z=              0.8771  Tot=              3.3249
 Quadrupole moment (field-independent basis, Debye-Ang):
   XX=            -38.2999   YY=            -28.0534   ZZ=            -29.9012
   XY=              0.5361   XZ=             -1.1599   YZ=             -1.1585
 Traceless Quadrupole moment (field-independent basis, Debye-Ang):
   XX=             -6.2150   YY=              4.0314   ZZ=              2.1836
   XY=              0.5361   XZ=             -1.1599   YZ=             -1.1585
 Octapole moment (field-independent basis, Debye-Ang**2):
  XXX=             44.3990  YYY=             -0.4037  ZZZ=              0.2538  XYY=              7.4864
  XXY=             -1.2919  XXZ=              0.6012  XZZ=              7.9763  YZZ=             -0.7796
  YYZ=              1.3730  XYZ=              1.5207
 Hexadecapole moment (field-independent basis, Debye-Ang**3):
 XXXX=           -460.9274 YYYY=            -63.4170 ZZZZ=            -29.7361 XXXY=              1.5573
 XXXZ=              0.3853 YYYX=              1.0192 YYYZ=             -1.6397 ZZZX=             -0.6627
 ZZZY=             -0.8874 XXYY=            -85.7745 XXZZ=            -75.5404 YYZZ=            -16.8520
 XXYZ=             -1.9817 YYXZ=             -1.8129 ZZXY=              1.1045
 N-N= 1.510050746500D+02 E-N=-7.238111952145D+03  KE= 2.900060994626D+03
 No NMR shielding tensors so no spin-rotation constants.
 Leave Link  601 at Tue May 12 22:08:12 2020, MaxMem= 1073741824 cpu:       0.7
 (Enter /home/matheus/.gaussian/g09/l122.exe)
 Counterpoise: doing DCBS calculation for fragment   1 NewBq=T
 Leave Link  122 at Tue May 12 22:08:12 2020, MaxMem= 1073741824 cpu:       0.0
 (Enter /home/matheus/.gaussian/g09/l301.exe)
 Basis read from rwf:  (5D, 7F)
 No pseudopotential information found on rwf file.
 There are   197 symmetry adapted basis functions of A   symmetry.
 Integral buffers will be    131072 words long.
 Raffenetti 2 integral format.
 Two-electron integral symmetry is turned on.
   197 basis functions,   415 primitive gaussians,   229 cartesian basis functions
     9 alpha electrons        9 beta electrons
       nuclear repulsion energy        36.6553686071 Hartrees.
 IExCor=32609 DFT=T Ex+Corr=LC-wPBE ExCW=0 ScaHFX=  1.000000
 ScaDFX=  1.000000  0.000000  1.000000  1.000000 ScalE2=  1.000000  1.000000
 IRadAn=      5 IRanWt=     -1 IRanGd=            0 ICorTp=0
  HFx wShort=  0.000000 wLong=  0.400000 cFull=  0.000000 cShort=  0.000000 cLong=  1.000000
  DFx wShort=  0.000000 wLong=  0.400000 cFull=  0.000000 cShort=  0.000000 cLong=  1.000000
 NAtoms=    5 NActive=    5 NUniq=    5 SFac= 1.00D+00 NAtFMM=   60 NAOKFM=F Big=F
 No density basis found on file   718.
 Leave Link  301 at Tue May 12 22:08:12 2020, MaxMem= 1073741824 cpu:       0.2
 (Enter /home/matheus/.gaussian/g09/l302.exe)
 NPDir=0 NMtPBC=     1 NCelOv=     1 NCel=       1 NClECP=     1 NCelD=      1
         NCelK=      1 NCelE2=     1 NClLst=     1 CellRange=     0.0.
 One-electron integrals computed using PRISM.
 NBasis=   197 RedAO= T  NBF=   197
 NBsUse=   197 1.00D-06 NBFU=   197
 Precomputing XC quadrature grid using
 IXCGrd= 2 IRadAn=           5 IRanWt=          -1 IRanGd=           0 AccXCQ= 0.00D+00.
 NRdTot=     427 NPtTot=      123512 NUsed=      126579 NTot=      126611
 NSgBfM=   229   229   229   229   229 NAtAll=     5     5.
 Leave Link  302 at Tue May 12 22:08:12 2020, MaxMem= 1073741824 cpu:       1.1
 (Enter /home/matheus/.gaussian/g09/l303.exe)
 DipDrv:  MaxL=1.
 Leave Link  303 at Tue May 12 22:08:12 2020, MaxMem= 1073741824 cpu:       0.2
 (Enter /home/matheus/.gaussian/g09/l401.exe)
 Harris functional with IExCor=32609 diagonalized for initial guess.
 ExpMin= 2.53D-02 ExpMax= 1.17D+07 ExpMxC= 1.33D+04 IAcc=3 IRadAn=         5 AccDes= 0.00D+00
 HarFok:  IExCor=32609 AccDes= 0.00D+00 IRadAn=         5 IDoV= 1
 ScaDFX=  1.000000  1.000000  1.000000  1.000000
 FoFCou: FMM=F IPFlag=           0 FMFlag=      100000 FMFlg1=           0
         NFxFlg=           0 DoJE=T BraDBF=F KetDBF=T FulRan=T
         Omega=  0.000000  0.000000  1.000000  0.000000  0.000000 ICntrl=     500 IOpCl=  0
         NMat0=    1 NMatS0=    1 NMatT0=    0 NMatD0=    1 NMtDS0=    0 NMtDT0=    0
         I1Cent=           4 NGrid=           0.
 Petite list used in FoFCou.
 Harris En= -151.500359737578    
 Initial guess orbital symmetries:
       Occupied  (A) (A) (A) (A) (A) (A) (A) (A) (A)
       Virtual   (A) (A) (A) (A) (A) (A) (A) (A) (A) (A) (A) (A)
                 (A) (A) (A) (A) (A) (A) (A) (A) (A) (A) (A) (A)
                 (A) (A) (A) (A) (A) (A) (A) (A) (A) (A) (A) (A)
                 (A) (A) (A) (A) (A) (A) (A) (A) (A) (A) (A) (A)
                 (A) (A) (A) (A) (A) (A) (A) (A) (A) (A) (A) (A)
                 (A) (A) (A) (A) (A) (A) (A) (A) (A) (A) (A) (A)
                 (A) (A) (A) (A) (A) (A) (A) (A) (A) (A) (A) (A)
                 (A) (A) (A) (A) (A) (A) (A) (A) (A) (A) (A) (A)
                 (A) (A) (A) (A) (A) (A) (A) (A) (A) (A) (A) (A)
                 (A) (A) (A) (A) (A) (A) (A) (A) (A) (A) (A) (A)
                 (A) (A) (A) (A) (A) (A) (A) (A) (A) (A) (A) (A)
                 (A) (A) (A) (A) (A) (A) (A) (A) (A) (A) (A) (A)
                 (A) (A) (A) (A) (A) (A) (A) (A) (A) (A) (A) (A)
                 (A) (A) (A) (A) (A) (A) (A) (A) (A) (A) (A) (A)
                 (A) (A) (A) (A) (A) (A) (A) (A) (A) (A) (A) (A)
                 (A) (A) (A) (A) (A) (A) (A) (A)
 The electronic state of the initial guess is 1-A.
 Leave Link  401 at Tue May 12 22:08:13 2020, MaxMem= 1073741824 cpu:       4.9
 (Enter /home/matheus/.gaussian/g09/l502.exe)
 Closed shell SCF:
 Requested convergence on RMS density matrix=1.00D-08 within 128 cycles.
 Requested convergence on MAX density matrix=1.00D-06.
 Requested convergence on             energy=1.00D-06.
 No special actions if energy rises.
 Using DIIS extrapolation, IDIIS=  1040.
 Integral symmetry usage will be decided dynamically.
       126521 words used for storage of precomputed grid.
 IEnd=      305468 IEndB=      305468 NGot=  1073741824 MDV=  1073505667
 LenX=  1073505667 LenY=  1073452785
 Fock matrices will be formed incrementally for  20 cycles.

 Cycle   1  Pass 1  IDiag  1:
 FoFJK:  IHMeth= 1 ICntrl=     0 DoSepK=T KAlg= 1 I1Cent= 0 FoldK=F
 FoFCou: FMM=F IPFlag=           0 FMFlag=      100000 FMFlg1=           0
         NFxFlg=           0 DoJE=T BraDBF=F KetDBF=F FulRan=T
         Omega=  0.000000  0.000000  1.000000  0.000000  0.000000 ICntrl=     500 IOpCl=  0
         NMat0=    1 NMatS0=    1 NMatT0=    0 NMatD0=    1 NMtDS0=    0 NMtDT0=    0
         I1Cent=           0 NGrid=           0.
 Symmetry not used in FoFCou.
 E= -151.490902765654    
 DIIS: error= 1.17D-02 at cycle   1 NSaved=   1.
 NSaved= 1 IEnMin= 1 EnMin= -151.490902765654     IErMin= 1 ErrMin= 1.17D-02
 ErrMax= 1.17D-02 EMaxC= 1.00D-01 BMatC= 4.14D-02 BMatP= 4.14D-02
 IDIUse=3 WtCom= 8.83D-01 WtEn= 1.17D-01
 Coeff-Com:  0.100D+01
 Coeff-En:   0.100D+01
 Coeff:      0.100D+01
 Gap=     0.488 Goal=   None    Shift=    0.000
 GapD=    0.488 DampG=2.000 DampE=0.500 DampFc=1.0000 IDamp=-1.
 RMSDP=8.72D-04 MaxDP=2.19D-02              OVMax= 6.38D-02

 Cycle   2  Pass 1  IDiag  1:
 RMSU=  6.14D-04    CP:  9.92D-01
 FoFJK:  IHMeth= 1 ICntrl=     0 DoSepK=T KAlg= 1 I1Cent= 0 FoldK=F
 E= -151.505267426348     Delta-E=       -0.014364660694 Rises=F Damp=F
 DIIS: error= 8.39D-03 at cycle   2 NSaved=   2.
 NSaved= 2 IEnMin= 2 EnMin= -151.505267426348     IErMin= 2 ErrMin= 8.39D-03
 ErrMax= 8.39D-03 EMaxC= 1.00D-01 BMatC= 2.44D-02 BMatP= 4.14D-02
 IDIUse=3 WtCom= 9.16D-01 WtEn= 8.39D-02
 Coeff-Com:  0.428D+00 0.572D+00
 Coeff-En:   0.275D+00 0.725D+00
 Coeff:      0.415D+00 0.585D+00
 Gap=     0.422 Goal=   None    Shift=    0.000
 RMSDP=4.94D-04 MaxDP=2.31D-02 DE=-1.44D-02 OVMax= 2.85D-02

 Cycle   3  Pass 1  IDiag  1:
 RMSU=  2.30D-04    CP:  9.88D-01  5.76D-01
 FoFJK:  IHMeth= 1 ICntrl=     0 DoSepK=T KAlg= 1 I1Cent= 0 FoldK=F
 E= -151.519715963476     Delta-E=       -0.014448537128 Rises=F Damp=F
 DIIS: error= 1.22D-03 at cycle   3 NSaved=   3.
 NSaved= 3 IEnMin= 3 EnMin= -151.519715963476     IErMin= 3 ErrMin= 1.22D-03
 ErrMax= 1.22D-03 EMaxC= 1.00D-01 BMatC= 4.00D-04 BMatP= 2.44D-02
 IDIUse=3 WtCom= 9.88D-01 WtEn= 1.22D-02
 Coeff-Com:  0.667D-01 0.145D+00 0.789D+00
 Coeff-En:   0.000D+00 0.000D+00 0.100D+01
 Coeff:      0.659D-01 0.143D+00 0.791D+00
 Gap=     0.416 Goal=   None    Shift=    0.000
 RMSDP=5.56D-05 MaxDP=1.72D-03 DE=-1.44D-02 OVMax= 4.06D-03

 Cycle   4  Pass 1  IDiag  1:
 RMSU=  2.86D-05    CP:  9.87D-01  6.17D-01  1.02D+00
 FoFJK:  IHMeth= 1 ICntrl=     0 DoSepK=T KAlg= 1 I1Cent= 0 FoldK=F
 E= -151.519959826890     Delta-E=       -0.000243863414 Rises=F Damp=F
 DIIS: error= 2.20D-04 at cycle   4 NSaved=   4.
 NSaved= 4 IEnMin= 4 EnMin= -151.519959826890     IErMin= 4 ErrMin= 2.20D-04
 ErrMax= 2.20D-04 EMaxC= 1.00D-01 BMatC= 1.39D-05 BMatP= 4.00D-04
 IDIUse=3 WtCom= 9.98D-01 WtEn= 2.20D-03
 Coeff-Com: -0.558D-02-0.990D-02 0.113D+00 0.902D+00
 Coeff-En:   0.000D+00 0.000D+00 0.000D+00 0.100D+01
 Coeff:     -0.557D-02-0.987D-02 0.113D+00 0.902D+00
 Gap=     0.418 Goal=   None    Shift=    0.000
 RMSDP=1.23D-05 MaxDP=6.38D-04 DE=-2.44D-04 OVMax= 7.66D-04

 Cycle   5  Pass 1  IDiag  1:
 RMSU=  5.98D-06    CP:  9.86D-01  6.14D-01  1.04D+00  1.00D+00
 FoFJK:  IHMeth= 1 ICntrl=     0 DoSepK=T KAlg= 1 I1Cent= 0 FoldK=F
 E= -151.519969124025     Delta-E=       -0.000009297135 Rises=F Damp=F
 DIIS: error= 3.05D-05 at cycle   5 NSaved=   5.
 NSaved= 5 IEnMin= 5 EnMin= -151.519969124025     IErMin= 5 ErrMin= 3.05D-05
 ErrMax= 3.05D-05 EMaxC= 1.00D-01 BMatC= 1.06D-07 BMatP= 1.39D-05
 IDIUse=1 WtCom= 1.00D+00 WtEn= 0.00D+00
 Coeff-Com: -0.724D-03-0.173D-02-0.271D-01-0.854D-01 0.111D+01
 Coeff:     -0.724D-03-0.173D-02-0.271D-01-0.854D-01 0.111D+01
 Gap=     0.418 Goal=   None    Shift=    0.000
 RMSDP=2.89D-06 MaxDP=9.58D-05 DE=-9.30D-06 OVMax= 2.14D-04

 Cycle   6  Pass 1  IDiag  1:
 RMSU=  8.50D-07    CP:  9.86D-01  6.15D-01  1.04D+00  1.02D+00  1.28D+00
 FoFJK:  IHMeth= 1 ICntrl=     0 DoSepK=T KAlg= 1 I1Cent= 0 FoldK=F
 E= -151.519969351109     Delta-E=       -0.000000227084 Rises=F Damp=F
 DIIS: error= 5.88D-06 at cycle   6 NSaved=   6.
 NSaved= 6 IEnMin= 6 EnMin= -151.519969351109     IErMin= 6 ErrMin= 5.88D-06
 ErrMax= 5.88D-06 EMaxC= 1.00D-01 BMatC= 3.86D-09 BMatP= 1.06D-07
 IDIUse=1 WtCom= 1.00D+00 WtEn= 0.00D+00
 Coeff-Com:  0.126D-03 0.286D-03-0.194D-03-0.915D-02-0.569D-01 0.107D+01
 Coeff:      0.126D-03 0.286D-03-0.194D-03-0.915D-02-0.569D-01 0.107D+01
 Gap=     0.418 Goal=   None    Shift=    0.000
 RMSDP=5.06D-07 MaxDP=1.45D-05 DE=-2.27D-07 OVMax= 6.80D-05

 Cycle   7  Pass 1  IDiag  1:
 RMSU=  1.85D-07    CP:  9.86D-01  6.15D-01  1.04D+00  1.02D+00  1.31D+00
                    CP:  1.22D+00
 FoFJK:  IHMeth= 1 ICntrl=     0 DoSepK=T KAlg= 1 I1Cent= 0 FoldK=F
 E= -151.519969361782     Delta-E=       -0.000000010673 Rises=F Damp=F
 DIIS: error= 1.52D-06 at cycle   7 NSaved=   7.
 NSaved= 7 IEnMin= 7 EnMin= -151.519969361782     IErMin= 7 ErrMin= 1.52D-06
 ErrMax= 1.52D-06 EMaxC= 1.00D-01 BMatC= 6.40D-10 BMatP= 3.86D-09
 IDIUse=1 WtCom= 1.00D+00 WtEn= 0.00D+00
 Coeff-Com:  0.495D-04 0.116D-03 0.119D-02 0.306D-02-0.692D-01 0.137D+00
 Coeff-Com:  0.928D+00
 Coeff:      0.495D-04 0.116D-03 0.119D-02 0.306D-02-0.692D-01 0.137D+00
 Coeff:      0.928D+00
 Gap=     0.418 Goal=   None    Shift=    0.000
 RMSDP=1.60D-07 MaxDP=4.30D-06 DE=-1.07D-08 OVMax= 2.85D-05

 Cycle   8  Pass 1  IDiag  1:
 RMSU=  7.23D-08    CP:  9.86D-01  6.15D-01  1.04D+00  1.02D+00  1.31D+00
                    CP:  1.30D+00  1.24D+00
 FoFJK:  IHMeth= 1 ICntrl=     0 DoSepK=T KAlg= 1 I1Cent= 0 FoldK=F
 E= -151.519969363203     Delta-E=       -0.000000001422 Rises=F Damp=F
 DIIS: error= 1.03D-06 at cycle   8 NSaved=   8.
 NSaved= 8 IEnMin= 8 EnMin= -151.519969363203     IErMin= 8 ErrMin= 1.03D-06
 ErrMax= 1.03D-06 EMaxC= 1.00D-01 BMatC= 3.36D-10 BMatP= 6.40D-10
 IDIUse=1 WtCom= 1.00D+00 WtEn= 0.00D+00
 Coeff-Com:  0.956D-05 0.205D-04 0.562D-03 0.258D-02-0.272D-01-0.584D-01
 Coeff-Com:  0.467D+00 0.615D+00
 Coeff:      0.956D-05 0.205D-04 0.562D-03 0.258D-02-0.272D-01-0.584D-01
 Coeff:      0.467D+00 0.615D+00
 Gap=     0.418 Goal=   None    Shift=    0.000
 RMSDP=6.00D-08 MaxDP=1.90D-06 DE=-1.42D-09 OVMax= 1.08D-05

 Cycle   9  Pass 1  IDiag  1:
 RMSU=  3.24D-08    CP:  9.86D-01  6.15D-01  1.04D+00  1.02D+00  1.31D+00
                    CP:  1.31D+00  1.37D+00  9.06D-01
 FoFJK:  IHMeth= 1 ICntrl=     0 DoSepK=T KAlg= 1 I1Cent= 0 FoldK=F
 E= -151.519969363584     Delta-E=       -0.000000000381 Rises=F Damp=F
 DIIS: error= 3.26D-07 at cycle   9 NSaved=   9.
 NSaved= 9 IEnMin= 9 EnMin= -151.519969363584     IErMin= 9 ErrMin= 3.26D-07
 ErrMax= 3.26D-07 EMaxC= 1.00D-01 BMatC= 3.03D-11 BMatP= 3.36D-10
 IDIUse=1 WtCom= 1.00D+00 WtEn= 0.00D+00
 Coeff-Com: -0.119D-04-0.320D-04-0.273D-03-0.402D-03 0.161D-01-0.498D-01
 Coeff-Com: -0.189D+00 0.118D+00 0.111D+01
 Coeff:     -0.119D-04-0.320D-04-0.273D-03-0.402D-03 0.161D-01-0.498D-01
 Coeff:     -0.189D+00 0.118D+00 0.111D+01
 Gap=     0.418 Goal=   None    Shift=    0.000
 RMSDP=4.44D-08 MaxDP=1.29D-06 DE=-3.81D-10 OVMax= 9.91D-06

 Cycle  10  Pass 1  IDiag  1:
 RMSU=  1.20D-08    CP:  9.86D-01  6.15D-01  1.04D+00  1.02D+00  1.32D+00
                    CP:  1.31D+00  1.46D+00  1.16D+00  1.36D+00
 FoFJK:  IHMeth= 1 ICntrl=     0 DoSepK=T KAlg= 1 I1Cent= 0 FoldK=F
 E= -151.519969363679     Delta-E=       -0.000000000095 Rises=F Damp=F
 DIIS: error= 7.51D-08 at cycle  10 NSaved=  10.
 NSaved=10 IEnMin=10 EnMin= -151.519969363679     IErMin=10 ErrMin= 7.51D-08
 ErrMax= 7.51D-08 EMaxC= 1.00D-01 BMatC= 7.77D-13 BMatP= 3.03D-11
 IDIUse=1 WtCom= 1.00D+00 WtEn= 0.00D+00
 Coeff-Com:  0.180D-05 0.548D-05 0.187D-04-0.107D-03-0.128D-02 0.132D-01
 Coeff-Com:  0.272D-02-0.639D-01-0.218D+00 0.127D+01
 Coeff:      0.180D-05 0.548D-05 0.187D-04-0.107D-03-0.128D-02 0.132D-01
 Coeff:      0.272D-02-0.639D-01-0.218D+00 0.127D+01
 Gap=     0.418 Goal=   None    Shift=    0.000
 RMSDP=1.11D-08 MaxDP=3.59D-07 DE=-9.47D-11 OVMax= 2.33D-06

 Cycle  11  Pass 1  IDiag  1:
 RMSU=  2.25D-09    CP:  9.86D-01  6.15D-01  1.04D+00  1.02D+00  1.32D+00
                    CP:  1.31D+00  1.46D+00  1.20D+00  1.49D+00  1.34D+00
 FoFJK:  IHMeth= 1 ICntrl=     0 DoSepK=T KAlg= 1 I1Cent= 0 FoldK=F
 E= -151.519969363682     Delta-E=       -0.000000000003 Rises=F Damp=F
 DIIS: error= 1.57D-08 at cycle  11 NSaved=  11.
 NSaved=11 IEnMin=11 EnMin= -151.519969363682     IErMin=11 ErrMin= 1.57D-08
 ErrMax= 1.57D-08 EMaxC= 1.00D-01 BMatC= 2.16D-14 BMatP= 7.77D-13
 IDIUse=1 WtCom= 1.00D+00 WtEn= 0.00D+00
 Coeff-Com:  0.453D-06 0.151D-05 0.119D-04 0.181D-04-0.655D-03 0.175D-02
 Coeff-Com:  0.943D-02-0.422D-03-0.350D-01-0.467D-01 0.107D+01
 Coeff:      0.453D-06 0.151D-05 0.119D-04 0.181D-04-0.655D-03 0.175D-02
 Coeff:      0.943D-02-0.422D-03-0.350D-01-0.467D-01 0.107D+01
 Gap=     0.418 Goal=   None    Shift=    0.000
 RMSDP=1.57D-09 MaxDP=6.38D-08 DE=-3.41D-12 OVMax= 1.36D-07

 SCF Done:  E(RLC-wPBE) =  -151.519969364     A.U. after   11 cycles
             Convg  =    0.1570D-08             -V/T =  2.0066
 KE= 1.505248157457D+02 PE=-4.315628835503D+02 EE= 9.286272983378D+01
 Leave Link  502 at Tue May 12 22:08:48 2020, MaxMem= 1073741824 cpu:     282.7
 (Enter /home/matheus/.gaussian/g09/l601.exe)
 Copying SCF densities to generalized density rwf, IOpCl= 0 IROHF=0.

 **********************************************************************

            Population analysis using the SCF density.

 **********************************************************************

 Orbital symmetries:
       Occupied  (A) (A) (A) (A) (A) (A) (A) (A) (A)
       Virtual   (A) (A) (A) (A) (A) (A) (A) (A) (A) (A) (A) (A)
                 (A) (A) (A) (A) (A) (A) (A) (A) (A) (A) (A) (A)
                 (A) (A) (A) (A) (A) (A) (A) (A) (A) (A) (A) (A)
                 (A) (A) (A) (A) (A) (A) (A) (A) (A) (A) (A) (A)
                 (A) (A) (A) (A) (A) (A) (A) (A) (A) (A) (A) (A)
                 (A) (A) (A) (A) (A) (A) (A) (A) (A) (A) (A) (A)
                 (A) (A) (A) (A) (A) (A) (A) (A) (A) (A) (A) (A)
                 (A) (A) (A) (A) (A) (A) (A) (A) (A) (A) (A) (A)
                 (A) (A) (A) (A) (A) (A) (A) (A) (A) (A) (A) (A)
                 (A) (A) (A) (A) (A) (A) (A) (A) (A) (A) (A) (A)
                 (A) (A) (A) (A) (A) (A) (A) (A) (A) (A) (A) (A)
                 (A) (A) (A) (A) (A) (A) (A) (A) (A) (A) (A) (A)
                 (A) (A) (A) (A) (A) (A) (A) (A) (A) (A) (A) (A)
                 (A) (A) (A) (A) (A) (A) (A) (A) (A) (A) (A) (A)
                 (A) (A) (A) (A) (A) (A) (A) (A) (A) (A) (A) (A)
                 (A) (A) (A) (A) (A) (A) (A) (A)
 The electronic state is 1-A.
 Alpha  occ. eigenvalues --  -19.03917 -19.03915  -1.25904  -1.04203  -0.71021
 Alpha  occ. eigenvalues --   -0.56829  -0.56112  -0.48399  -0.39862
 Alpha virt. eigenvalues --    0.01968   0.03713   0.07049   0.07847   0.09576
 Alpha virt. eigenvalues --    0.10025   0.10288   0.15116   0.17148   0.17796
 Alpha virt. eigenvalues --    0.18567   0.19261   0.20579   0.21726   0.25526
 Alpha virt. eigenvalues --    0.27274   0.28964   0.29431   0.32968   0.34354
 Alpha virt. eigenvalues --    0.35325   0.36084   0.37956   0.39800   0.40973
 Alpha virt. eigenvalues --    0.43391   0.45202   0.46020   0.48391   0.51709
 Alpha virt. eigenvalues --    0.54082   0.57590   0.59425   0.62149   0.67412
 Alpha virt. eigenvalues --    0.70127   0.72947   0.77124   0.77852   0.80343
 Alpha virt. eigenvalues --    0.82271   0.83634   0.87075   0.88959   0.90637
 Alpha virt. eigenvalues --    0.92962   0.94512   0.96292   0.98279   0.99168
 Alpha virt. eigenvalues --    1.02770   1.05908   1.06955   1.07377   1.09293
 Alpha virt. eigenvalues --    1.12527   1.16056   1.20074   1.21065   1.24100
 Alpha virt. eigenvalues --    1.27513   1.29535   1.30777   1.31202   1.32895
 Alpha virt. eigenvalues --    1.34604   1.35144   1.37748   1.42713   1.46073
 Alpha virt. eigenvalues --    1.47319   1.50126   1.52893   1.54836   1.60496
 Alpha virt. eigenvalues --    1.60761   1.62953   1.67627   1.74330   1.76609
 Alpha virt. eigenvalues --    1.82382   1.86323   1.91528   1.98222   2.02998
 Alpha virt. eigenvalues --    2.09539   2.10364   2.15773   2.19463   2.23180
 Alpha virt. eigenvalues --    2.28209   2.31545   2.33478   2.35227   2.38875
 Alpha virt. eigenvalues --    2.50332   2.53230   2.59393   2.61450   2.63600
 Alpha virt. eigenvalues --    2.65709   2.75155   2.85381   2.88219   2.92455
 Alpha virt. eigenvalues --    2.99516   3.07657   3.09982   3.24497   3.30610
 Alpha virt. eigenvalues --    3.42486   3.58394   3.59584   3.65009   3.77247
 Alpha virt. eigenvalues --    3.78167   3.80534   3.81416   3.82101   3.85704
 Alpha virt. eigenvalues --    3.88877   3.90673   3.91815   3.93612   3.96420
 Alpha virt. eigenvalues --    3.99658   4.03182   4.05695   4.09747   4.14618
 Alpha virt. eigenvalues --    4.16718   4.19766   4.23327   4.28233   4.33409
 Alpha virt. eigenvalues --    4.49738   4.50646   4.61933   4.63539   4.97448
 Alpha virt. eigenvalues --    5.00210   5.03547   5.05629   5.10770   5.15136
 Alpha virt. eigenvalues --    5.43774   5.82046   5.99410   6.07206   6.10703
 Alpha virt. eigenvalues --    6.31477   6.37259   6.40855   6.52843   6.64244
 Alpha virt. eigenvalues --    6.70254   6.75338   6.80853   6.82406   6.85933
 Alpha virt. eigenvalues --    6.86763   6.88044   6.89043   7.03572   7.09663
 Alpha virt. eigenvalues --    7.14606   7.20329   7.38021   7.49778   7.88931
 Alpha virt. eigenvalues --    7.98414   8.11527  11.04465  13.86797  14.55770
 Alpha virt. eigenvalues --   14.81668  14.89634  15.10193  29.01410  29.02100
 Alpha virt. eigenvalues --   29.06316  29.17118  29.21379  49.20170 148.29917
 Alpha virt. eigenvalues --  148.41728 148.70839 752.85513
          Condensed to atoms (all electrons):
              1          2          3          4          5
     1  O    8.256702  -0.257617   0.174560   0.022859   0.002414
     2  O   -0.257617   8.239659   0.032447   0.184451  -0.000010
     3  H    0.174560   0.032447   0.606202  -0.007492  -0.001598
     4  H    0.022859   0.184451  -0.007492   0.606016  -0.004801
     5  Kr   0.002414  -0.000010  -0.001598  -0.004801   0.000996
 Mulliken atomic charges:
              1
     1  O   -0.198918
     2  O   -0.198929
     3  H    0.195881
     4  H    0.198967
     5  Kr   0.003000
 Sum of Mulliken atomic charges =   0.00000
 Mulliken charges with hydrogens summed into heavy atoms:
              1
     1  O   -0.003037
     2  O    0.000037
     5  Kr   0.003000
 Sum of Mulliken charges with hydrogens summed into heavy atoms =   0.00000
          Condensed to fragments (all electrons):
     1      -0.003000
     2       0.003000
 Electronic spatial extent (au):  <R**2>=            317.5005
 Charge=              0.0000 electrons
 Dipole moment (field-independent basis, Debye):
    X=              2.7718    Y=             -0.0678    Z=              1.0307  Tot=              2.9580
 Quadrupole moment (field-independent basis, Debye-Ang):
   XX=            -20.9670   YY=            -10.4763   ZZ=            -12.4321
   XY=              0.5726   XZ=             -1.0526   YZ=             -1.1906
 Traceless Quadrupole moment (field-independent basis, Debye-Ang):
   XX=             -6.3419   YY=              4.1488   ZZ=              2.1930
   XY=              0.5726   XZ=             -1.0526   YZ=             -1.1906
 Octapole moment (field-independent basis, Debye-Ang**2):
  XXX=             93.3051  YYY=             -0.4183  ZZZ=              0.3107  XYY=             24.1779
  XXY=             -1.1802  XXZ=              0.6765  XZZ=             24.7394  YZZ=             -0.7917
  YYZ=              1.3997  XYZ=              1.5217
 Hexadecapole moment (field-independent basis, Debye-Ang**3):
 XXXX=           -343.2309 YYYY=            -45.3209 ZZZZ=            -11.8688 XXXY=              1.4027
 XXXZ=              0.5118 YYYX=              1.0055 YYYZ=             -1.6918 ZZZX=             -0.6693
 ZZZY=             -0.9343 XXYY=            -63.1687 XXZZ=            -53.1664 YYZZ=            -10.8463
 XXYZ=             -1.9898 YYXZ=             -1.8002 ZZXY=              1.0788
 N-N= 3.665536860714D+01 E-N=-4.315628833868D+02  KE= 1.505248157457D+02
 No NMR shielding tensors so no spin-rotation constants.
 Leave Link  601 at Tue May 12 22:08:48 2020, MaxMem= 1073741824 cpu:       0.7
 (Enter /home/matheus/.gaussian/g09/l122.exe)
 Counterpoise: doing DCBS calculation for fragment   2 NewBq=T
 Leave Link  122 at Tue May 12 22:08:48 2020, MaxMem= 1073741824 cpu:       0.0
 (Enter /home/matheus/.gaussian/g09/l301.exe)
 Basis read from rwf:  (5D, 7F)
 No pseudopotential information found on rwf file.
 There are   197 symmetry adapted basis functions of A   symmetry.
 Integral buffers will be    131072 words long.
 Raffenetti 2 integral format.
 Two-electron integral symmetry is turned on.
   197 basis functions,   415 primitive gaussians,   229 cartesian basis functions
    18 alpha electrons       18 beta electrons
       nuclear repulsion energy         0.0000000000 Hartrees.
 IExCor=32609 DFT=T Ex+Corr=LC-wPBE ExCW=0 ScaHFX=  1.000000
 ScaDFX=  1.000000  0.000000  1.000000  1.000000 ScalE2=  1.000000  1.000000
 IRadAn=      5 IRanWt=     -1 IRanGd=            0 ICorTp=0
  HFx wShort=  0.000000 wLong=  0.400000 cFull=  0.000000 cShort=  0.000000 cLong=  1.000000
  DFx wShort=  0.000000 wLong=  0.400000 cFull=  0.000000 cShort=  0.000000 cLong=  1.000000
 NAtoms=    5 NActive=    5 NUniq=    5 SFac= 1.00D+00 NAtFMM=   60 NAOKFM=F Big=F
 No density basis found on file   718.
 Leave Link  301 at Tue May 12 22:08:48 2020, MaxMem= 1073741824 cpu:       0.2
 (Enter /home/matheus/.gaussian/g09/l302.exe)
 NPDir=0 NMtPBC=     1 NCelOv=     1 NCel=       1 NClECP=     1 NCelD=      1
         NCelK=      1 NCelE2=     1 NClLst=     1 CellRange=     0.0.
 One-electron integrals computed using PRISM.
 NBasis=   197 RedAO= T  NBF=   197
 NBsUse=   197 1.00D-06 NBFU=   197
 Precomputing XC quadrature grid using
 IXCGrd= 2 IRadAn=           5 IRanWt=          -1 IRanGd=           0 AccXCQ= 0.00D+00.
 NRdTot=     427 NPtTot=      123512 NUsed=      126579 NTot=      126611
 NSgBfM=   229   229   229   229   229 NAtAll=     5     5.
 Leave Link  302 at Tue May 12 22:08:49 2020, MaxMem= 1073741824 cpu:       0.9
 (Enter /home/matheus/.gaussian/g09/l303.exe)
 DipDrv:  MaxL=1.
 Leave Link  303 at Tue May 12 22:08:49 2020, MaxMem= 1073741824 cpu:       0.2
 (Enter /home/matheus/.gaussian/g09/l401.exe)
 Harris functional with IExCor=32609 diagonalized for initial guess.
 ExpMin= 2.53D-02 ExpMax= 1.17D+07 ExpMxC= 1.33D+04 IAcc=3 IRadAn=         5 AccDes= 0.00D+00
 HarFok:  IExCor=32609 AccDes= 0.00D+00 IRadAn=         5 IDoV= 1
 ScaDFX=  1.000000  1.000000  1.000000  1.000000
 FoFCou: FMM=F IPFlag=           0 FMFlag=      100000 FMFlg1=           0
         NFxFlg=           0 DoJE=T BraDBF=F KetDBF=T FulRan=T
         Omega=  0.000000  0.000000  1.000000  0.000000  0.000000 ICntrl=     500 IOpCl=  0
         NMat0=    1 NMatS0=    1 NMatT0=    0 NMatD0=    1 NMtDS0=    0 NMtDT0=    0
         I1Cent=           4 NGrid=           0.
 Petite list used in FoFCou.
 Harris En= -2753.24660203354    
 Initial guess orbital symmetries:
       Occupied  (A) (A) (A) (A) (A) (A) (A) (A) (A) (A) (A) (A)
                 (A) (A) (A) (A) (A) (A)
       Virtual   (A) (A) (A) (A) (A) (A) (A) (A) (A) (A) (A) (A)
                 (A) (A) (A) (A) (A) (A) (A) (A) (A) (A) (A) (A)
                 (A) (A) (A) (A) (A) (A) (A) (A) (A) (A) (A) (A)
                 (A) (A) (A) (A) (A) (A) (A) (A) (A) (A) (A) (A)
                 (A) (A) (A) (A) (A) (A) (A) (A) (A) (A) (A) (A)
                 (A) (A) (A) (A) (A) (A) (A) (A) (A) (A) (A) (A)
                 (A) (A) (A) (A) (A) (A) (A) (A) (A) (A) (A) (A)
                 (A) (A) (A) (A) (A) (A) (A) (A) (A) (A) (A) (A)
                 (A) (A) (A) (A) (A) (A) (A) (A) (A) (A) (A) (A)
                 (A) (A) (A) (A) (A) (A) (A) (A) (A) (A) (A) (A)
                 (A) (A) (A) (A) (A) (A) (A) (A) (A) (A) (A) (A)
                 (A) (A) (A) (A) (A) (A) (A) (A) (A) (A) (A) (A)
                 (A) (A) (A) (A) (A) (A) (A) (A) (A) (A) (A) (A)
                 (A) (A) (A) (A) (A) (A) (A) (A) (A) (A) (A) (A)
                 (A) (A) (A) (A) (A) (A) (A) (A) (A) (A) (A)
 The electronic state of the initial guess is 1-A.
 Leave Link  401 at Tue May 12 22:08:49 2020, MaxMem= 1073741824 cpu:       4.1
 (Enter /home/matheus/.gaussian/g09/l502.exe)
 Closed shell SCF:
 Requested convergence on RMS density matrix=1.00D-08 within 128 cycles.
 Requested convergence on MAX density matrix=1.00D-06.
 Requested convergence on             energy=1.00D-06.
 No special actions if energy rises.
 Using DIIS extrapolation, IDIIS=  1040.
 Integral symmetry usage will be decided dynamically.
       126521 words used for storage of precomputed grid.
 IEnd=      305468 IEndB=      305468 NGot=  1073741824 MDV=  1073505667
 LenX=  1073505667 LenY=  1073452785
 Fock matrices will be formed incrementally for  20 cycles.

 Cycle   1  Pass 1  IDiag  1:
 FoFJK:  IHMeth= 1 ICntrl=     0 DoSepK=T KAlg= 1 I1Cent= 0 FoldK=F
 FoFCou: FMM=F IPFlag=           0 FMFlag=      100000 FMFlg1=           0
         NFxFlg=           0 DoJE=T BraDBF=F KetDBF=F FulRan=T
         Omega=  0.000000  0.000000  1.000000  0.000000  0.000000 ICntrl=     500 IOpCl=  0
         NMat0=    1 NMatS0=    1 NMatT0=    0 NMatD0=    1 NMtDS0=    0 NMtDT0=    0
         I1Cent=           0 NGrid=           0.
 Symmetry not used in FoFCou.
 E= -2753.38964195215    
 DIIS: error= 2.76D-02 at cycle   1 NSaved=   1.
 NSaved= 1 IEnMin= 1 EnMin= -2753.38964195215     IErMin= 1 ErrMin= 2.76D-02
 ErrMax= 2.76D-02 EMaxC= 1.00D-01 BMatC= 2.23D-01 BMatP= 2.23D-01
 IDIUse=3 WtCom= 7.24D-01 WtEn= 2.76D-01
 Coeff-Com:  0.100D+01
 Coeff-En:   0.100D+01
 Coeff:      0.100D+01
 Gap=     0.609 Goal=   None    Shift=    0.000
 GapD=    0.609 DampG=2.000 DampE=0.500 DampFc=1.0000 IDamp=-1.
 RMSDP=2.14D-03 MaxDP=1.51D-01              OVMax= 5.10D-02

 Cycle   2  Pass 1  IDiag  1:
 RMSU=  1.47D-03    CP:  1.02D+00
 FoFJK:  IHMeth= 1 ICntrl=     0 DoSepK=T KAlg= 1 I1Cent= 0 FoldK=F
 E= -2753.42033228662     Delta-E=       -0.030690334468 Rises=F Damp=F
 DIIS: error= 1.04D-02 at cycle   2 NSaved=   2.
 NSaved= 2 IEnMin= 2 EnMin= -2753.42033228662     IErMin= 2 ErrMin= 1.04D-02
 ErrMax= 1.04D-02 EMaxC= 1.00D-01 BMatC= 5.55D-02 BMatP= 2.23D-01
 IDIUse=3 WtCom= 8.96D-01 WtEn= 1.04D-01
 Coeff-Com:  0.328D+00 0.672D+00
 Coeff-En:   0.131D+00 0.869D+00
 Coeff:      0.308D+00 0.692D+00
 Gap=     0.525 Goal=   None    Shift=    0.000
 RMSDP=7.99D-04 MaxDP=5.24D-02 DE=-3.07D-02 OVMax= 2.08D-02

 Cycle   3  Pass 1  IDiag  1:
 RMSU=  1.56D-04    CP:  1.01D+00  6.43D-01
 FoFJK:  IHMeth= 1 ICntrl=     0 DoSepK=T KAlg= 1 I1Cent= 0 FoldK=F
 E= -2753.43560421262     Delta-E=       -0.015271925997 Rises=F Damp=F
 DIIS: error= 9.84D-04 at cycle   3 NSaved=   3.
 NSaved= 3 IEnMin= 3 EnMin= -2753.43560421262     IErMin= 3 ErrMin= 9.84D-04
 ErrMax= 9.84D-04 EMaxC= 1.00D-01 BMatC= 5.60D-04 BMatP= 5.55D-02
 IDIUse=3 WtCom= 9.90D-01 WtEn= 9.84D-03
 Coeff-Com: -0.180D-03 0.905D-01 0.910D+00
 Coeff-En:   0.000D+00 0.000D+00 0.100D+01
 Coeff:     -0.178D-03 0.896D-01 0.911D+00
 Gap=     0.532 Goal=   None    Shift=    0.000
 RMSDP=7.30D-05 MaxDP=4.31D-03 DE=-1.53D-02 OVMax= 2.60D-03

 Cycle   4  Pass 1  IDiag  1:
 RMSU=  1.80D-05    CP:  1.01D+00  6.75D-01  9.91D-01
 FoFJK:  IHMeth= 1 ICntrl=     0 DoSepK=T KAlg= 1 I1Cent= 0 FoldK=F
 E= -2753.43577404168     Delta-E=       -0.000169829060 Rises=F Damp=F
 DIIS: error= 3.52D-05 at cycle   4 NSaved=   4.
 NSaved= 4 IEnMin= 4 EnMin= -2753.43577404168     IErMin= 4 ErrMin= 3.52D-05
 ErrMax= 3.52D-05 EMaxC= 1.00D-01 BMatC= 4.09D-07 BMatP= 5.60D-04
 IDIUse=1 WtCom= 1.00D+00 WtEn= 0.00D+00
 Coeff-Com: -0.125D-02-0.155D-01-0.113D+00 0.113D+01
 Coeff:     -0.125D-02-0.155D-01-0.113D+00 0.113D+01
 Gap=     0.532 Goal=   None    Shift=    0.000
 RMSDP=6.20D-06 MaxDP=2.45D-04 DE=-1.70D-04 OVMax= 3.89D-04

 Cycle   5  Pass 1  IDiag  1:
 RMSU=  2.23D-06    CP:  1.01D+00  6.74D-01  1.01D+00  1.13D+00
 FoFJK:  IHMeth= 1 ICntrl=     0 DoSepK=T KAlg= 1 I1Cent= 0 FoldK=F
 E= -2753.43577454847     Delta-E=       -0.000000506792 Rises=F Damp=F
 DIIS: error= 6.39D-06 at cycle   5 NSaved=   5.
 NSaved= 5 IEnMin= 5 EnMin= -2753.43577454847     IErMin= 5 ErrMin= 6.39D-06
 ErrMax= 6.39D-06 EMaxC= 1.00D-01 BMatC= 1.18D-08 BMatP= 4.09D-07
 IDIUse=1 WtCom= 1.00D+00 WtEn= 0.00D+00
 Coeff-Com:  0.256D-04-0.225D-02-0.247D-01 0.937D-01 0.933D+00
 Coeff:      0.256D-04-0.225D-02-0.247D-01 0.937D-01 0.933D+00
 Gap=     0.532 Goal=   None    Shift=    0.000
 RMSDP=7.32D-07 MaxDP=3.27D-05 DE=-5.07D-07 OVMax= 3.08D-05

 Cycle   6  Pass 1  IDiag  1:
 RMSU=  2.12D-07    CP:  1.01D+00  6.75D-01  1.01D+00  1.15D+00  1.03D+00
 FoFJK:  IHMeth= 1 ICntrl=     0 DoSepK=T KAlg= 1 I1Cent= 0 FoldK=F
 E= -2753.43577455797     Delta-E=       -0.000000009501 Rises=F Damp=F
 DIIS: error= 4.25D-07 at cycle   6 NSaved=   6.
 NSaved= 6 IEnMin= 6 EnMin= -2753.43577455797     IErMin= 6 ErrMin= 4.25D-07
 ErrMax= 4.25D-07 EMaxC= 1.00D-01 BMatC= 4.31D-11 BMatP= 1.18D-08
 IDIUse=1 WtCom= 1.00D+00 WtEn= 0.00D+00
 Coeff-Com:  0.280D-05 0.138D-03 0.156D-02-0.111D-01-0.776D-01 0.109D+01
 Coeff:      0.280D-05 0.138D-03 0.156D-02-0.111D-01-0.776D-01 0.109D+01
 Gap=     0.532 Goal=   None    Shift=    0.000
 RMSDP=9.89D-08 MaxDP=3.50D-06 DE=-9.50D-09 OVMax= 4.52D-06

 Cycle   7  Pass 1  IDiag  1:
 RMSU=  1.69D-08    CP:  1.01D+00  6.75D-01  1.01D+00  1.16D+00  1.04D+00
                    CP:  1.22D+00
 FoFJK:  IHMeth= 1 ICntrl=     0 DoSepK=T KAlg= 1 I1Cent= 0 FoldK=F
 E= -2753.43577455806     Delta-E=       -0.000000000088 Rises=F Damp=F
 DIIS: error= 7.19D-08 at cycle   7 NSaved=   7.
 NSaved= 7 IEnMin= 7 EnMin= -2753.43577455806     IErMin= 7 ErrMin= 7.19D-08
 ErrMax= 7.19D-08 EMaxC= 1.00D-01 BMatC= 1.78D-12 BMatP= 4.31D-11
 IDIUse=1 WtCom= 1.00D+00 WtEn= 0.00D+00
 Coeff-Com: -0.142D-06 0.308D-04 0.359D-03-0.193D-02-0.196D-01 0.164D+00
 Coeff-Com:  0.857D+00
 Coeff:     -0.142D-06 0.308D-04 0.359D-03-0.193D-02-0.196D-01 0.164D+00
 Coeff:      0.857D+00
 Gap=     0.532 Goal=   None    Shift=    0.000
 RMSDP=1.08D-08 MaxDP=3.91D-07 DE=-8.82D-11 OVMax= 6.49D-07

 Cycle   8  Pass 1  IDiag  1:
 RMSU=  4.08D-09    CP:  1.01D+00  6.75D-01  1.01D+00  1.16D+00  1.04D+00
                    CP:  1.24D+00  1.07D+00
 FoFJK:  IHMeth= 1 ICntrl=     0 DoSepK=T KAlg= 1 I1Cent= 0 FoldK=F
 E= -2753.43577455807     Delta-E=       -0.000000000009 Rises=F Damp=F
 DIIS: error= 2.55D-08 at cycle   8 NSaved=   8.
 NSaved= 8 IEnMin= 8 EnMin= -2753.43577455807     IErMin= 8 ErrMin= 2.55D-08
 ErrMax= 2.55D-08 EMaxC= 1.00D-01 BMatC= 1.17D-13 BMatP= 1.78D-12
 IDIUse=1 WtCom= 1.00D+00 WtEn= 0.00D+00
 Coeff-Com: -0.288D-06-0.115D-04-0.129D-03 0.972D-03 0.516D-02-0.849D-01
 Coeff-Com:  0.246D-01 0.105D+01
 Coeff:     -0.288D-06-0.115D-04-0.129D-03 0.972D-03 0.516D-02-0.849D-01
 Coeff:      0.246D-01 0.105D+01
 Gap=     0.532 Goal=   None    Shift=    0.000
 RMSDP=4.15D-09 MaxDP=1.72D-07 DE=-9.09D-12 OVMax= 2.58D-07

 SCF Done:  E(RLC-wPBE) =  -2753.43577456     A.U. after    8 cycles
             Convg  =    0.4152D-08             -V/T =  2.0014
 KE= 2.749479796325D+03 PE=-6.578887591988D+03 EE= 1.075972021105D+03
 Leave Link  502 at Tue May 12 22:09:19 2020, MaxMem= 1073741824 cpu:     234.5
 (Enter /home/matheus/.gaussian/g09/l601.exe)
 Copying SCF densities to generalized density rwf, IOpCl= 0 IROHF=0.

 **********************************************************************

            Population analysis using the SCF density.

 **********************************************************************

 Orbital symmetries:
       Occupied  (A) (A) (A) (A) (A) (A) (A) (A) (A) (A) (A) (A)
                 (A) (A) (A) (A) (A) (A)
       Virtual   (A) (A) (A) (A) (A) (A) (A) (A) (A) (A) (A) (A)
                 (A) (A) (A) (A) (A) (A) (A) (A) (A) (A) (A) (A)
                 (A) (A) (A) (A) (A) (A) (A) (A) (A) (A) (A) (A)
                 (A) (A) (A) (A) (A) (A) (A) (A) (A) (A) (A) (A)
                 (A) (A) (A) (A) (A) (A) (A) (A) (A) (A) (A) (A)
                 (A) (A) (A) (A) (A) (A) (A) (A) (A) (A) (A) (A)
                 (A) (A) (A) (A) (A) (A) (A) (A) (A) (A) (A) (A)
                 (A) (A) (A) (A) (A) (A) (A) (A) (A) (A) (A) (A)
                 (A) (A) (A) (A) (A) (A) (A) (A) (A) (A) (A) (A)
                 (A) (A) (A) (A) (A) (A) (A) (A) (A) (A) (A) (A)
                 (A) (A) (A) (A) (A) (A) (A) (A) (A) (A) (A) (A)
                 (A) (A) (A) (A) (A) (A) (A) (A) (A) (A) (A) (A)
                 (A) (A) (A) (A) (A) (A) (A) (A) (A) (A) (A) (A)
                 (A) (A) (A) (A) (A) (A) (A) (A) (A) (A) (A) (A)
                 (A) (A) (A) (A) (A) (A) (A) (A) (A) (A) (A)
 The electronic state is 1-A.
 Alpha  occ. eigenvalues -- -511.10642 -66.65311 -60.31526 -60.31523 -60.31522
 Alpha  occ. eigenvalues --   -9.58572  -7.32997  -7.32994  -7.32994  -3.28540
 Alpha  occ. eigenvalues --   -3.28540  -3.28539  -3.28538  -3.28538  -1.03232
 Alpha  occ. eigenvalues --   -0.50219  -0.50217  -0.50215
 Alpha virt. eigenvalues --    0.03003   0.04940   0.08440   0.09409   0.12065
 Alpha virt. eigenvalues --    0.12920   0.13448   0.13591   0.15937   0.17099
 Alpha virt. eigenvalues --    0.17740   0.18894   0.21075   0.26031   0.27117
 Alpha virt. eigenvalues --    0.27421   0.29339   0.31780   0.33350   0.36220
 Alpha virt. eigenvalues --    0.36726   0.38226   0.38946   0.40125   0.41684
 Alpha virt. eigenvalues --    0.41938   0.45504   0.53786   0.56343   0.58605
 Alpha virt. eigenvalues --    0.61891   0.65061   0.67873   0.69708   0.71334
 Alpha virt. eigenvalues --    0.72584   0.74202   0.76277   0.77043   0.77905
 Alpha virt. eigenvalues --    0.79274   0.81720   0.84815   0.85245   0.88391
 Alpha virt. eigenvalues --    0.88863   0.90135   0.91157   0.92664   0.96618
 Alpha virt. eigenvalues --    0.98615   0.99027   1.00903   1.01142   1.02590
 Alpha virt. eigenvalues --    1.06551   1.07580   1.07842   1.13931   1.16028
 Alpha virt. eigenvalues --    1.19338   1.22813   1.26402   1.33120   1.34432
 Alpha virt. eigenvalues --    1.36060   1.40315   1.44604   1.48224   1.53685
 Alpha virt. eigenvalues --    1.56206   1.58689   1.59275   1.72418   1.78903
 Alpha virt. eigenvalues --    1.83636   1.85205   1.86864   1.89268   2.15688
 Alpha virt. eigenvalues --    2.21732   2.22938   2.27469   2.28566   2.31456
 Alpha virt. eigenvalues --    2.32754   2.35244   2.36456   2.37913   2.42056
 Alpha virt. eigenvalues --    2.42763   2.46568   2.48220   2.50331   2.51209
 Alpha virt. eigenvalues --    2.51895   2.54079   2.58229   2.59306   2.61613
 Alpha virt. eigenvalues --    2.62368   2.64807   2.67939   2.70245   2.71219
 Alpha virt. eigenvalues --    2.74827   2.80041   2.83249   2.88840   2.91142
 Alpha virt. eigenvalues --    2.94400   2.99497   3.05013   3.09531   3.18742
 Alpha virt. eigenvalues --    3.22612   3.26398   3.32314   3.40814   3.46749
 Alpha virt. eigenvalues --    3.61000   3.65942   3.83758   3.87367   4.02330
 Alpha virt. eigenvalues --    4.44431   4.46708   4.53988   4.57288   4.68707
 Alpha virt. eigenvalues --    4.71142   4.85829   4.88211   4.97975   5.06656
 Alpha virt. eigenvalues --    5.19043   5.20351   5.57042   5.64844   5.78084
 Alpha virt. eigenvalues --    5.94043   6.06082   6.08447   6.78143   6.86202
 Alpha virt. eigenvalues --    7.36240   7.37360   7.62198   7.70050   7.74044
 Alpha virt. eigenvalues --    7.84174   8.00276   8.15187   8.17697   8.26577
 Alpha virt. eigenvalues --    8.29185   8.44747   8.65469   8.94593   9.54288
 Alpha virt. eigenvalues --    9.72681   9.81930   9.89121   9.94641   9.95362
 Alpha virt. eigenvalues --   10.18405  10.22212  10.59897  10.91527  11.55336
 Alpha virt. eigenvalues --   11.60904  11.73922  11.99259  12.01233  13.22215
 Alpha virt. eigenvalues --   13.65224  14.52953  62.54924  64.69165
          Condensed to atoms (all electrons):
              1          2          3          4          5
     1  O    0.000711  -0.000479  -0.000296   0.000549  -0.007604
     2  O   -0.000479   0.002879   0.000002  -0.002455  -0.000247
     3  H   -0.000296   0.000002   0.000627   0.000145  -0.011131
     4  H    0.000549  -0.002455   0.000145   0.003311  -0.026742
     5  Kr  -0.007604  -0.000247  -0.011131  -0.026742  36.088990
 Mulliken atomic charges:
              1
     1  O    0.007120
     2  O    0.000300
     3  H    0.010654
     4  H    0.025192
     5  Kr  -0.043265
 Sum of Mulliken atomic charges =   0.00000
 Mulliken charges with hydrogens summed into heavy atoms:
              1
     1  O    0.017773
     2  O    0.025492
     5  Kr  -0.043265
 Sum of Mulliken charges with hydrogens summed into heavy atoms =   0.00000
          Condensed to fragments (all electrons):
     1       0.043265
     2      -0.043265
 Electronic spatial extent (au):  <R**2>=            160.2679
 Charge=              0.0000 electrons
 Dipole moment (field-independent basis, Debye):
    X=             -0.0010    Y=              0.0001    Z=              0.0000  Tot=              0.0010
 Quadrupole moment (field-independent basis, Debye-Ang):
   XX=            -17.6133   YY=            -17.6224   ZZ=            -17.6289
   XY=             -0.0010   XZ=             -0.0022   YZ=             -0.0011
 Traceless Quadrupole moment (field-independent basis, Debye-Ang):
   XX=              0.0082   YY=             -0.0008   ZZ=             -0.0074
   XY=             -0.0010   XZ=             -0.0022   YZ=             -0.0011
 Octapole moment (field-independent basis, Debye-Ang**2):
  XXX=            -51.2531  YYY=              0.1130  ZZZ=              0.1910  XYY=            -17.0957
  XXY=              0.0357  XXZ=              0.0609  XZZ=            -17.0989  YZZ=              0.0381
  YYZ=              0.0642  XYZ=              0.0000
 Hexadecapole moment (field-independent basis, Debye-Ang**3):
 XXXX=           -117.7846 YYYY=            -18.3779 ZZZZ=            -18.3984 XXXY=              0.1076
 XXXZ=              0.1803 YYYX=              0.1067 YYYZ=             -0.0006 ZZZX=              0.1806
 ZZZY=             -0.0019 XXYY=            -22.7014 XXZZ=            -22.7065 YYZZ=             -6.1287
 XXYZ=             -0.0008 YYXZ=              0.0604 ZZXY=              0.0345
 N-N= 0.000000000000D+00 E-N=-6.578887593902D+03  KE= 2.749479796325D+03
 No NMR shielding tensors so no spin-rotation constants.
 Leave Link  601 at Tue May 12 22:09:19 2020, MaxMem= 1073741824 cpu:       0.9
 (Enter /home/matheus/.gaussian/g09/l122.exe)
 Counterpoise: doing MCBS calculation for fragment   1
 Leave Link  122 at Tue May 12 22:09:19 2020, MaxMem= 1073741824 cpu:       0.0
 (Enter /home/matheus/.gaussian/g09/l301.exe)
 Basis read from rwf:  (5D, 7F)
 No pseudopotential information found on rwf file.
 There are   138 symmetry adapted basis functions of A   symmetry.
 Integral buffers will be    131072 words long.
 Raffenetti 2 integral format.
 Two-electron integral symmetry is turned on.
   138 basis functions,   198 primitive gaussians,   160 cartesian basis functions
     9 alpha electrons        9 beta electrons
       nuclear repulsion energy        36.6553686071 Hartrees.
 IExCor=32609 DFT=T Ex+Corr=LC-wPBE ExCW=0 ScaHFX=  1.000000
 ScaDFX=  1.000000  0.000000  1.000000  1.000000 ScalE2=  1.000000  1.000000
 IRadAn=      5 IRanWt=     -1 IRanGd=            0 ICorTp=0
  HFx wShort=  0.000000 wLong=  0.400000 cFull=  0.000000 cShort=  0.000000 cLong=  1.000000
  DFx wShort=  0.000000 wLong=  0.400000 cFull=  0.000000 cShort=  0.000000 cLong=  1.000000
 NAtoms=    5 NActive=    4 NUniq=    4 SFac= 1.00D+00 NAtFMM=   60 NAOKFM=F Big=F
 No density basis found on file   718.
 Leave Link  301 at Tue May 12 22:09:19 2020, MaxMem= 1073741824 cpu:       0.3
 (Enter /home/matheus/.gaussian/g09/l302.exe)
 NPDir=0 NMtPBC=     1 NCelOv=     1 NCel=       1 NClECP=     1 NCelD=      1
         NCelK=      1 NCelE2=     1 NClLst=     1 CellRange=     0.0.
 One-electron integrals computed using PRISM.
 NBasis=   138 RedAO= T  NBF=   138
 NBsUse=   138 1.00D-06 NBFU=   138
 Precomputing XC quadrature grid using
 IXCGrd= 2 IRadAn=           5 IRanWt=          -1 IRanGd=           0 AccXCQ= 0.00D+00.
 NRdTot=     344 NPtTot=       92556 NUsed=       95038 NTot=       95070
 NSgBfM=   160   160   160   160   160 NAtAll=     4     4.
 Leave Link  302 at Tue May 12 22:09:19 2020, MaxMem= 1073741824 cpu:       0.8
 (Enter /home/matheus/.gaussian/g09/l303.exe)
 DipDrv:  MaxL=1.
 Leave Link  303 at Tue May 12 22:09:19 2020, MaxMem= 1073741824 cpu:       0.1
 (Enter /home/matheus/.gaussian/g09/l401.exe)
 Harris functional with IExCor=32609 diagonalized for initial guess.
 ExpMin= 2.53D-02 ExpMax= 1.53D+04 ExpMxC= 5.22D+02 IAcc=3 IRadAn=         5 AccDes= 0.00D+00
 HarFok:  IExCor=32609 AccDes= 0.00D+00 IRadAn=         5 IDoV= 1
 ScaDFX=  1.000000  1.000000  1.000000  1.000000
 FoFCou: FMM=F IPFlag=           0 FMFlag=      100000 FMFlg1=           0
         NFxFlg=           0 DoJE=T BraDBF=F KetDBF=T FulRan=T
         Omega=  0.000000  0.000000  1.000000  0.000000  0.000000 ICntrl=     500 IOpCl=  0
         NMat0=    1 NMatS0=    1 NMatT0=    0 NMatD0=    1 NMtDS0=    0 NMtDT0=    0
         I1Cent=           4 NGrid=           0.
 Petite list used in FoFCou.
 Harris En= -151.500280973464    
 Initial guess orbital symmetries:
       Occupied  (A) (A) (A) (A) (A) (A) (A) (A) (A)
       Virtual   (A) (A) (A) (A) (A) (A) (A) (A) (A) (A) (A) (A)
                 (A) (A) (A) (A) (A) (A) (A) (A) (A) (A) (A) (A)
                 (A) (A) (A) (A) (A) (A) (A) (A) (A) (A) (A) (A)
                 (A) (A) (A) (A) (A) (A) (A) (A) (A) (A) (A) (A)
                 (A) (A) (A) (A) (A) (A) (A) (A) (A) (A) (A) (A)
                 (A) (A) (A) (A) (A) (A) (A) (A) (A) (A) (A) (A)
                 (A) (A) (A) (A) (A) (A) (A) (A) (A) (A) (A) (A)
                 (A) (A) (A) (A) (A) (A) (A) (A) (A) (A) (A) (A)
                 (A) (A) (A) (A) (A) (A) (A) (A) (A) (A) (A) (A)
                 (A) (A) (A) (A) (A) (A) (A) (A) (A) (A) (A) (A)
                 (A) (A) (A) (A) (A) (A) (A) (A) (A)
 The electronic state of the initial guess is 1-A.
 Leave Link  401 at Tue May 12 22:09:19 2020, MaxMem= 1073741824 cpu:       2.5
 (Enter /home/matheus/.gaussian/g09/l502.exe)
 Closed shell SCF:
 Requested convergence on RMS density matrix=1.00D-08 within 128 cycles.
 Requested convergence on MAX density matrix=1.00D-06.
 Requested convergence on             energy=1.00D-06.
 No special actions if energy rises.
 Using DIIS extrapolation, IDIIS=  1040.
 Integral symmetry usage will be decided dynamically.
        94980 words used for storage of precomputed grid.
 IEnd=      192360 IEndB=      192360 NGot=  1073741824 MDV=  1073591865
 LenX=  1073591865 LenY=  1073565824
 Fock matrices will be formed incrementally for  20 cycles.

 Cycle   1  Pass 1  IDiag  1:
 FoFJK:  IHMeth= 1 ICntrl=     0 DoSepK=T KAlg= 1 I1Cent= 0 FoldK=F
 FoFCou: FMM=F IPFlag=           0 FMFlag=      100000 FMFlg1=           0
         NFxFlg=           0 DoJE=T BraDBF=F KetDBF=F FulRan=T
         Omega=  0.000000  0.000000  1.000000  0.000000  0.000000 ICntrl=     500 IOpCl=  0
         NMat0=    1 NMatS0=    1 NMatT0=    0 NMatD0=    1 NMtDS0=    0 NMtDT0=    0
         I1Cent=           0 NGrid=           0.
 Symmetry not used in FoFCou.
 E= -151.490870620606    
 DIIS: error= 1.89D-02 at cycle   1 NSaved=   1.
 NSaved= 1 IEnMin= 1 EnMin= -151.490870620606     IErMin= 1 ErrMin= 1.89D-02
 ErrMax= 1.89D-02 EMaxC= 1.00D-01 BMatC= 4.14D-02 BMatP= 4.14D-02
 IDIUse=3 WtCom= 8.11D-01 WtEn= 1.89D-01
 Coeff-Com:  0.100D+01
 Coeff-En:   0.100D+01
 Coeff:      0.100D+01
 Gap=     0.488 Goal=   None    Shift=    0.000
 GapD=    0.488 DampG=2.000 DampE=0.500 DampFc=1.0000 IDamp=-1.
 RMSDP=1.27D-03 MaxDP=2.28D-02              OVMax= 6.38D-02

 Cycle   2  Pass 1  IDiag  1:
 RMSU=  8.92D-04    CP:  9.93D-01
 FoFJK:  IHMeth= 1 ICntrl=     0 DoSepK=T KAlg= 1 I1Cent= 0 FoldK=F
 E= -151.505224678073     Delta-E=       -0.014354057467 Rises=F Damp=F
 DIIS: error= 1.36D-02 at cycle   2 NSaved=   2.
 NSaved= 2 IEnMin= 2 EnMin= -151.505224678073     IErMin= 2 ErrMin= 1.36D-02
 ErrMax= 1.36D-02 EMaxC= 1.00D-01 BMatC= 2.44D-02 BMatP= 4.14D-02
 IDIUse=3 WtCom= 8.64D-01 WtEn= 1.36D-01
 Coeff-Com:  0.428D+00 0.572D+00
 Coeff-En:   0.275D+00 0.725D+00
 Coeff:      0.407D+00 0.593D+00
 Gap=     0.426 Goal=   None    Shift=    0.000
 RMSDP=7.05D-04 MaxDP=2.33D-02 DE=-1.44D-02 OVMax= 2.89D-02

 Cycle   3  Pass 1  IDiag  1:
 RMSU=  3.21D-04    CP:  9.89D-01  5.75D-01
 FoFJK:  IHMeth= 1 ICntrl=     0 DoSepK=T KAlg= 1 I1Cent= 0 FoldK=F
 E= -151.519615182501     Delta-E=       -0.014390504428 Rises=F Damp=F
 DIIS: error= 2.17D-03 at cycle   3 NSaved=   3.
 NSaved= 3 IEnMin= 3 EnMin= -151.519615182501     IErMin= 3 ErrMin= 2.17D-03
 ErrMax= 2.17D-03 EMaxC= 1.00D-01 BMatC= 4.75D-04 BMatP= 2.44D-02
 IDIUse=3 WtCom= 9.78D-01 WtEn= 2.17D-02
 Coeff-Com:  0.668D-01 0.155D+00 0.778D+00
 Coeff-En:   0.000D+00 0.000D+00 0.100D+01
 Coeff:      0.653D-01 0.152D+00 0.783D+00
 Gap=     0.420 Goal=   None    Shift=    0.000
 RMSDP=8.40D-05 MaxDP=1.37D-03 DE=-1.44D-02 OVMax= 4.21D-03

 Cycle   4  Pass 1  IDiag  1:
 RMSU=  4.04D-05    CP:  9.88D-01  6.21D-01  1.00D+00
 FoFJK:  IHMeth= 1 ICntrl=     0 DoSepK=T KAlg= 1 I1Cent= 0 FoldK=F
 E= -151.519905119874     Delta-E=       -0.000289937373 Rises=F Damp=F
 DIIS: error= 3.71D-04 at cycle   4 NSaved=   4.
 NSaved= 4 IEnMin= 4 EnMin= -151.519905119874     IErMin= 4 ErrMin= 3.71D-04
 ErrMax= 3.71D-04 EMaxC= 1.00D-01 BMatC= 1.47D-05 BMatP= 4.75D-04
 IDIUse=3 WtCom= 9.96D-01 WtEn= 3.71D-03
 Coeff-Com: -0.559D-02-0.886D-02 0.115D+00 0.900D+00
 Coeff-En:   0.000D+00 0.000D+00 0.000D+00 0.100D+01
 Coeff:     -0.556D-02-0.883D-02 0.114D+00 0.900D+00
 Gap=     0.422 Goal=   None    Shift=    0.000
 RMSDP=1.71D-05 MaxDP=6.49D-04 DE=-2.90D-04 OVMax= 7.81D-04

 Cycle   5  Pass 1  IDiag  1:
 RMSU=  7.85D-06    CP:  9.88D-01  6.18D-01  1.03D+00  9.91D-01
 FoFJK:  IHMeth= 1 ICntrl=     0 DoSepK=T KAlg= 1 I1Cent= 0 FoldK=F
 E= -151.519914935387     Delta-E=       -0.000009815513 Rises=F Damp=F
 DIIS: error= 5.29D-05 at cycle   5 NSaved=   5.
 NSaved= 5 IEnMin= 5 EnMin= -151.519914935387     IErMin= 5 ErrMin= 5.29D-05
 ErrMax= 5.29D-05 EMaxC= 1.00D-01 BMatC= 1.07D-07 BMatP= 1.47D-05
 IDIUse=1 WtCom= 1.00D+00 WtEn= 0.00D+00
 Coeff-Com: -0.722D-03-0.202D-02-0.273D-01-0.860D-01 0.112D+01
 Coeff:     -0.722D-03-0.202D-02-0.273D-01-0.860D-01 0.112D+01
 Gap=     0.422 Goal=   None    Shift=    0.000
 RMSDP=3.75D-06 MaxDP=7.21D-05 DE=-9.82D-06 OVMax= 2.15D-04

 Cycle   6  Pass 1  IDiag  1:
 RMSU=  1.16D-06    CP:  9.88D-01  6.19D-01  1.03D+00  1.01D+00  1.27D+00
 FoFJK:  IHMeth= 1 ICntrl=     0 DoSepK=T KAlg= 1 I1Cent= 0 FoldK=F
 E= -151.519915171780     Delta-E=       -0.000000236393 Rises=F Damp=F
 DIIS: error= 8.84D-06 at cycle   6 NSaved=   6.
 NSaved= 6 IEnMin= 6 EnMin= -151.519915171780     IErMin= 6 ErrMin= 8.84D-06
 ErrMax= 8.84D-06 EMaxC= 1.00D-01 BMatC= 3.73D-09 BMatP= 1.07D-07
 IDIUse=1 WtCom= 1.00D+00 WtEn= 0.00D+00
 Coeff-Com:  0.130D-03 0.296D-03-0.516D-04-0.860D-02-0.634D-01 0.107D+01
 Coeff:      0.130D-03 0.296D-03-0.516D-04-0.860D-02-0.634D-01 0.107D+01
 Gap=     0.422 Goal=   None    Shift=    0.000
 RMSDP=6.68D-07 MaxDP=1.23D-05 DE=-2.36D-07 OVMax= 6.83D-05

 Cycle   7  Pass 1  IDiag  1:
 RMSU=  2.53D-07    CP:  9.88D-01  6.19D-01  1.03D+00  1.01D+00  1.30D+00
                    CP:  1.23D+00
 FoFJK:  IHMeth= 1 ICntrl=     0 DoSepK=T KAlg= 1 I1Cent= 0 FoldK=F
 E= -151.519915183526     Delta-E=       -0.000000011747 Rises=F Damp=F
 DIIS: error= 3.52D-06 at cycle   7 NSaved=   7.
[...]
 Requested convergence on             energy=1.00D-06.
 No special actions if energy rises.
 Using DIIS extrapolation, IDIIS=  1040.
 Integral symmetry usage will be decided dynamically.
       126823 words used for storage of precomputed grid.
 IEnd=      305770 IEndB=      305770 NGot=  1073741824 MDV=  1073505365
 LenX=  1073505365 LenY=  1073452483
 Fock matrices will be formed incrementally for  20 cycles.

 Cycle   1  Pass 1  IDiag  1:
 FoFJK:  IHMeth= 1 ICntrl=     0 DoSepK=T KAlg= 1 I1Cent= 0 FoldK=F
 FoFCou: FMM=F IPFlag=           0 FMFlag=      100000 FMFlg1=           0
         NFxFlg=           0 DoJE=T BraDBF=F KetDBF=F FulRan=T
         Omega=  0.000000  0.000000  1.000000  0.000000  0.000000 ICntrl=     500 IOpCl=  0
         NMat0=    1 NMatS0=    1 NMatT0=    0 NMatD0=    1 NMtDS0=    0 NMtDT0=    0
         I1Cent=           0 NGrid=           0.
 Symmetry not used in FoFCou.
 E= -2753.43564979145    
 DIIS: error= 1.98D-04 at cycle   1 NSaved=   1.
 NSaved= 1 IEnMin= 1 EnMin= -2753.43564979145     IErMin= 1 ErrMin= 1.98D-04
 ErrMax= 1.98D-04 EMaxC= 1.00D-01 BMatC= 5.05D-06 BMatP= 5.05D-06
 IDIUse=3 WtCom= 9.98D-01 WtEn= 1.98D-03
 Coeff-Com:  0.100D+01
 Coeff-En:   0.100D+01
 Coeff:      0.100D+01
 Gap=     0.531 Goal=   None    Shift=    0.000
 RMSDP=1.06D-05 MaxDP=5.10D-04              OVMax= 2.86D-04

 Cycle   2  Pass 1  IDiag  1:
 RMSU=  7.47D-06    CP:  1.00D+00
 FoFJK:  IHMeth= 1 ICntrl=     0 DoSepK=T KAlg= 1 I1Cent= 0 FoldK=F
 E= -2753.43565031630     Delta-E=       -0.000000524857 Rises=F Damp=F
 DIIS: error= 4.03D-06 at cycle   2 NSaved=   2.
 NSaved= 2 IEnMin= 2 EnMin= -2753.43565031630     IErMin= 2 ErrMin= 4.03D-06
 ErrMax= 4.03D-06 EMaxC= 1.00D-01 BMatC= 3.27D-09 BMatP= 5.05D-06
 IDIUse=1 WtCom= 1.00D+00 WtEn= 0.00D+00
 Coeff-Com: -0.747D-02 0.101D+01
 Coeff:     -0.747D-02 0.101D+01
 Gap=     0.531 Goal=   None    Shift=    0.000
 RMSDP=9.86D-07 MaxDP=4.96D-05 DE=-5.25D-07 OVMax= 4.22D-05

 Cycle   3  Pass 1  IDiag  1:
 RMSU=  4.47D-07    CP:  1.00D+00  1.07D+00
 FoFJK:  IHMeth= 1 ICntrl=     0 DoSepK=T KAlg= 1 I1Cent= 0 FoldK=F
 E= -2753.43565032193     Delta-E=       -0.000000005622 Rises=F Damp=F
 DIIS: error= 6.65D-07 at cycle   3 NSaved=   3.
 NSaved= 3 IEnMin= 3 EnMin= -2753.43565032193     IErMin= 3 ErrMin= 6.65D-07
 ErrMax= 6.65D-07 EMaxC= 1.00D-01 BMatC= 8.01D-11 BMatP= 3.27D-09
 IDIUse=1 WtCom= 1.00D+00 WtEn= 0.00D+00
 Coeff-Com:  0.257D-03-0.114D+00 0.111D+01
 Coeff:      0.257D-03-0.114D+00 0.111D+01
 Gap=     0.531 Goal=   None    Shift=    0.000
 RMSDP=1.54D-07 MaxDP=5.51D-06 DE=-5.62D-09 OVMax= 8.46D-06

 Cycle   4  Pass 1  IDiag  1:
 RMSU=  4.64D-08    CP:  1.00D+00  1.08D+00  1.21D+00
 FoFJK:  IHMeth= 1 ICntrl=     0 DoSepK=T KAlg= 1 I1Cent= 0 FoldK=F
 E= -2753.43565032207     Delta-E=       -0.000000000149 Rises=F Damp=F
 DIIS: error= 2.82D-07 at cycle   4 NSaved=   4.
 NSaved= 4 IEnMin= 4 EnMin= -2753.43565032207     IErMin= 4 ErrMin= 2.82D-07
 ErrMax= 2.82D-07 EMaxC= 1.00D-01 BMatC= 6.81D-12 BMatP= 8.01D-11
 IDIUse=1 WtCom= 1.00D+00 WtEn= 0.00D+00
 Coeff-Com:  0.178D-03-0.432D-01 0.262D+00 0.781D+00
 Coeff:      0.178D-03-0.432D-01 0.262D+00 0.781D+00
 Gap=     0.531 Goal=   None    Shift=    0.000
 RMSDP=1.84D-08 MaxDP=6.91D-07 DE=-1.49D-10 OVMax= 1.04D-06

 Cycle   5  Pass 1  IDiag  1:
 RMSU=  7.71D-09    CP:  1.00D+00  1.07D+00  1.23D+00  1.12D+00
 FoFJK:  IHMeth= 1 ICntrl=     0 DoSepK=T KAlg= 1 I1Cent= 0 FoldK=F
 E= -2753.43565032209     Delta-E=       -0.000000000016 Rises=F Damp=F
 DIIS: error= 2.63D-08 at cycle   5 NSaved=   5.
 NSaved= 5 IEnMin= 5 EnMin= -2753.43565032209     IErMin= 5 ErrMin= 2.63D-08
 ErrMax= 2.63D-08 EMaxC= 1.00D-01 BMatC= 1.34D-13 BMatP= 6.81D-12
 IDIUse=1 WtCom= 1.00D+00 WtEn= 0.00D+00
 Coeff-Com: -0.179D-04 0.659D-02-0.577D-01-0.273D-01 0.108D+01
 Coeff:     -0.179D-04 0.659D-02-0.577D-01-0.273D-01 0.108D+01
 Gap=     0.531 Goal=   None    Shift=    0.000
 RMSDP=7.39D-09 MaxDP=3.36D-07 DE=-1.59D-11 OVMax= 3.45D-07

 SCF Done:  E(RLC-wPBE) =  -2753.43565032     A.U. after    5 cycles
             Convg  =    0.7389D-08             -V/T =  2.0014
 KE= 2.749528598947D+03 PE=-6.578941506926D+03 EE= 1.075977257657D+03
 Leave Link  502 at Tue May 12 22:31:07 2020, MaxMem= 1073741824 cpu:      96.3
 (Enter /home/matheus/.gaussian/g09/l122.exe)
 Restoring MOs from calculation   4 to rwf.
 Counterpoise: doing MCBS calculation for fragment   1
 Leave Link  122 at Tue May 12 22:31:07 2020, MaxMem= 1073741824 cpu:       0.0
 (Enter /home/matheus/.gaussian/g09/l301.exe)
 Basis read from rwf:  (5D, 7F)
 No pseudopotential information found on rwf file.
 There are   138 symmetry adapted basis functions of A   symmetry.
 Integral buffers will be    131072 words long.
 Raffenetti 2 integral format.
 Two-electron integral symmetry is turned on.
   138 basis functions,   198 primitive gaussians,   160 cartesian basis functions
     9 alpha electrons        9 beta electrons
       nuclear repulsion energy        36.6553686071 Hartrees.
 IExCor=32609 DFT=T Ex+Corr=LC-wPBE ExCW=0 ScaHFX=  1.000000
 ScaDFX=  1.000000  0.000000  1.000000  1.000000 ScalE2=  1.000000  1.000000
 IRadAn=      5 IRanWt=     -1 IRanGd=            0 ICorTp=0
  HFx wShort=  0.000000 wLong=  0.400000 cFull=  0.000000 cShort=  0.000000 cLong=  1.000000
  DFx wShort=  0.000000 wLong=  0.400000 cFull=  0.000000 cShort=  0.000000 cLong=  1.000000
 NAtoms=    5 NActive=    4 NUniq=    4 SFac= 1.00D+00 NAtFMM=   60 NAOKFM=F Big=F
 No density basis found on file   718.
 Leave Link  301 at Tue May 12 22:31:08 2020, MaxMem= 1073741824 cpu:       0.2
 (Enter /home/matheus/.gaussian/g09/l302.exe)
 NPDir=0 NMtPBC=     1 NCelOv=     1 NCel=       1 NClECP=     1 NCelD=      1
         NCelK=      1 NCelE2=     1 NClLst=     1 CellRange=     0.0.
 One-electron integrals computed using PRISM.
 NBasis=   138 RedAO= T  NBF=   138
 NBsUse=   138 1.00D-06 NBFU=   138
 Precomputing XC quadrature grid using
 IXCGrd= 2 IRadAn=           5 IRanWt=          -1 IRanGd=           0 AccXCQ= 0.00D+00.
 NRdTot=     344 NPtTot=       92556 NUsed=       95038 NTot=       95070
 NSgBfM=   160   160   160   160   160 NAtAll=     4     4.
 Leave Link  302 at Tue May 12 22:31:08 2020, MaxMem= 1073741824 cpu:       0.9
 (Enter /home/matheus/.gaussian/g09/l303.exe)
 DipDrv:  MaxL=1.
 Leave Link  303 at Tue May 12 22:31:08 2020, MaxMem= 1073741824 cpu:       0.1
 (Enter /home/matheus/.gaussian/g09/l401.exe)
 Initial guess read from the read-write file.
 Guess basis will be translated and rotated to current coordinates.
 Initial guess orbital symmetries:
       Occupied  (A) (A) (A) (A) (A) (A) (A) (A) (A)
       Virtual   (A) (A) (A) (A) (A) (A) (A) (A) (A) (A) (A) (A)
                 (A) (A) (A) (A) (A) (A) (A) (A) (A) (A) (A) (A)
                 (A) (A) (A) (A) (A) (A) (A) (A) (A) (A) (A) (A)
                 (A) (A) (A) (A) (A) (A) (A) (A) (A) (A) (A) (A)
                 (A) (A) (A) (A) (A) (A) (A) (A) (A) (A) (A) (A)
                 (A) (A) (A) (A) (A) (A) (A) (A) (A) (A) (A) (A)
                 (A) (A) (A) (A) (A) (A) (A) (A) (A) (A) (A) (A)
                 (A) (A) (A) (A) (A) (A) (A) (A) (A) (A) (A) (A)
                 (A) (A) (A) (A) (A) (A) (A) (A) (A) (A) (A) (A)
                 (A) (A) (A) (A) (A) (A) (A) (A) (A) (A) (A) (A)
                 (A) (A) (A) (A) (A) (A) (A) (A) (A)
 The electronic state of the initial guess is 1-A.
 Generating alternative initial guess.
 Harris functional with IExCor=32609 diagonalized for initial guess.
 ExpMin= 2.53D-02 ExpMax= 1.53D+04 ExpMxC= 5.22D+02 IAcc=3 IRadAn=         5 AccDes= 0.00D+00
 HarFok:  IExCor=32609 AccDes= 0.00D+00 IRadAn=         5 IDoV= 1
 ScaDFX=  1.000000  1.000000  1.000000  1.000000
 FoFCou: FMM=F IPFlag=           0 FMFlag=      100000 FMFlg1=           0
         NFxFlg=           0 DoJE=T BraDBF=F KetDBF=T FulRan=T
         Omega=  0.000000  0.000000  1.000000  0.000000  0.000000 ICntrl=     500 IOpCl=  0
         NMat0=    1 NMatS0=    1 NMatT0=    0 NMatD0=    1 NMtDS0=    0 NMtDT0=    0
         I1Cent=           4 NGrid=           0.
 Petite list used in FoFCou.
 Harris En= -151.500280964659    
 Leave Link  401 at Tue May 12 22:31:08 2020, MaxMem= 1073741824 cpu:       2.6
 (Enter /home/matheus/.gaussian/g09/l502.exe)
 Closed shell SCF:
 Requested convergence on RMS density matrix=1.00D-08 within 128 cycles.
 Requested convergence on MAX density matrix=1.00D-06.
 Requested convergence on             energy=1.00D-06.
 No special actions if energy rises.
 Using DIIS extrapolation, IDIIS=  1040.
 Integral symmetry usage will be decided dynamically.
        94980 words used for storage of precomputed grid.
 IEnd=      192360 IEndB=      192360 NGot=  1073741824 MDV=  1073591865
 LenX=  1073591865 LenY=  1073565824
 Fock matrices will be formed incrementally for  20 cycles.

 Cycle   1  Pass 1  IDiag  1:
 FoFJK:  IHMeth= 1 ICntrl=     0 DoSepK=T KAlg= 1 I1Cent= 0 FoldK=F
 FoFCou: FMM=F IPFlag=           0 FMFlag=      100000 FMFlg1=           0
         NFxFlg=           0 DoJE=T BraDBF=F KetDBF=F FulRan=T
         Omega=  0.000000  0.000000  1.000000  0.000000  0.000000 ICntrl=     500 IOpCl=  0
         NMat0=    1 NMatS0=    1 NMatT0=    0 NMatD0=    1 NMtDS0=    0 NMtDT0=    0
         I1Cent=           0 NGrid=           0.
 Symmetry not used in FoFCou.
 E= -151.519915283303    
 DIIS: error= 3.84D-06 at cycle   1 NSaved=   1.
 NSaved= 1 IEnMin= 1 EnMin= -151.519915283303     IErMin= 1 ErrMin= 3.84D-06
 ErrMax= 3.84D-06 EMaxC= 1.00D-01 BMatC= 2.84D-09 BMatP= 2.84D-09
 IDIUse=1 WtCom= 1.00D+00 WtEn= 0.00D+00
 Coeff-Com:  0.100D+01
 Coeff:      0.100D+01
 Gap=     0.422 Goal=   None    Shift=    0.000
 RMSDP=3.88D-07 MaxDP=8.85D-06              OVMax= 1.36D-05

 Cycle   2  Pass 1  IDiag  1:
 RMSU=  2.75D-07    CP:  1.00D+00
 FoFJK:  IHMeth= 1 ICntrl=     0 DoSepK=T KAlg= 1 I1Cent= 0 FoldK=F
 E= -151.519915274460     Delta-E=        0.000000008842 Rises=F Damp=F
 DIIS: error= 6.76D-07 at cycle   2 NSaved=   2.
 NSaved= 2 IEnMin= 1 EnMin= -151.519915283303     IErMin= 2 ErrMin= 6.76D-07
 ErrMax= 6.76D-07 EMaxC= 1.00D-01 BMatC= 1.03D-10 BMatP= 2.84D-09
 IDIUse=1 WtCom= 1.00D+00 WtEn= 0.00D+00
 Coeff-Com: -0.120D+00 0.112D+01
 Coeff:     -0.120D+00 0.112D+01
 Gap=     0.422 Goal=   None    Shift=    0.000
 RMSDP=9.64D-08 MaxDP=2.74D-06 DE= 8.84D-09 OVMax= 4.46D-06

 Cycle   3  Pass 1  IDiag  1:
 RMSU=  3.31D-08    CP:  1.00D+00  1.22D+00
 FoFJK:  IHMeth= 1 ICntrl=     0 DoSepK=T KAlg= 1 I1Cent= 0 FoldK=F
 E= -151.519915274653     Delta-E=       -0.000000000193 Rises=F Damp=F
 DIIS: error= 2.29D-07 at cycle   3 NSaved=   3.
 NSaved= 3 IEnMin= 1 EnMin= -151.519915283303     IErMin= 3 ErrMin= 2.29D-07
 ErrMax= 2.29D-07 EMaxC= 1.00D-01 BMatC= 6.42D-12 BMatP= 1.03D-10
 IDIUse=1 WtCom= 1.00D+00 WtEn= 0.00D+00
 Coeff-Com: -0.163D-01-0.963D-02 0.103D+01
 Coeff:     -0.163D-01-0.963D-02 0.103D+01
 Gap=     0.422 Goal=   None    Shift=    0.000
 RMSDP=2.45D-08 MaxDP=5.78D-07 DE=-1.93D-10 OVMax= 1.55D-06

 Cycle   4  Pass 1  IDiag  1:
 RMSU=  9.01D-09    CP:  1.00D+00  1.26D+00  1.26D+00
 FoFJK:  IHMeth= 1 ICntrl=     0 DoSepK=T KAlg= 1 I1Cent= 0 FoldK=F
 E= -151.519915274667     Delta-E=       -0.000000000014 Rises=F Damp=F
 DIIS: error= 1.38D-07 at cycle   4 NSaved=   4.
 NSaved= 4 IEnMin= 1 EnMin= -151.519915283303     IErMin= 4 ErrMin= 1.38D-07
 ErrMax= 1.38D-07 EMaxC= 1.00D-01 BMatC= 2.90D-12 BMatP= 6.42D-12
 IDIUse=1 WtCom= 1.00D+00 WtEn= 0.00D+00
 Coeff-Com:  0.248D-02-0.912D-01 0.400D+00 0.688D+00
 Coeff:      0.248D-02-0.912D-01 0.400D+00 0.688D+00
 Gap=     0.422 Goal=   None    Shift=    0.000
 RMSDP=9.79D-09 MaxDP=2.59D-07 DE=-1.37D-11 OVMax= 7.66D-07

 SCF Done:  E(RLC-wPBE) =  -151.519915275     A.U. after    4 cycles
             Convg  =    0.9788D-08             -V/T =  2.0066
 KE= 1.505237261351D+02 PE=-4.315611029869D+02 EE= 9.286209296999D+01
 Leave Link  502 at Tue May 12 22:31:12 2020, MaxMem= 1073741824 cpu:      31.1
 (Enter /home/matheus/.gaussian/g09/l122.exe)
 Restoring MOs from calculation   5 to rwf.
 Counterpoise: doing MCBS calculation for fragment   2
 Leave Link  122 at Tue May 12 22:31:12 2020, MaxMem= 1073741824 cpu:       0.0
 (Enter /home/matheus/.gaussian/g09/l301.exe)
 Basis read from rwf:  (5D, 7F)
 No pseudopotential information found on rwf file.
 There are    59 symmetry adapted basis functions of A   symmetry.
 Integral buffers will be    131072 words long.
 Raffenetti 2 integral format.
 Two-electron integral symmetry is turned on.
    59 basis functions,   217 primitive gaussians,    69 cartesian basis functions
    18 alpha electrons       18 beta electrons
       nuclear repulsion energy         0.0000000000 Hartrees.
 IExCor=32609 DFT=T Ex+Corr=LC-wPBE ExCW=0 ScaHFX=  1.000000
 ScaDFX=  1.000000  0.000000  1.000000  1.000000 ScalE2=  1.000000  1.000000
 IRadAn=      5 IRanWt=     -1 IRanGd=            0 ICorTp=0
  HFx wShort=  0.000000 wLong=  0.400000 cFull=  0.000000 cShort=  0.000000 cLong=  1.000000
  DFx wShort=  0.000000 wLong=  0.400000 cFull=  0.000000 cShort=  0.000000 cLong=  1.000000
 NAtoms=    5 NActive=    1 NUniq=    1 SFac= 1.00D+00 NAtFMM=   60 NAOKFM=F Big=F
 No density basis found on file   718.
 Leave Link  301 at Tue May 12 22:31:12 2020, MaxMem= 1073741824 cpu:       0.2
 (Enter /home/matheus/.gaussian/g09/l302.exe)
 NPDir=0 NMtPBC=     1 NCelOv=     1 NCel=       1 NClECP=     1 NCelD=      1
         NCelK=      1 NCelE2=     1 NClLst=     1 CellRange=     0.0.
 One-electron integrals computed using PRISM.
 NBasis=    59 RedAO= T  NBF=    59
 NBsUse=    59 1.00D-06 NBFU=    59
 Precomputing XC quadrature grid using
 IXCGrd= 2 IRadAn=           5 IRanWt=          -1 IRanGd=           0 AccXCQ= 0.00D+00.
 NRdTot=      81 NPtTot=       30352 NUsed=       30981 NTot=       31013
 NSgBfM=    69    69    69    69    69 NAtAll=     1     1.
 Leave Link  302 at Tue May 12 22:31:12 2020, MaxMem= 1073741824 cpu:       0.6
 (Enter /home/matheus/.gaussian/g09/l303.exe)
 DipDrv:  MaxL=1.
 Leave Link  303 at Tue May 12 22:31:12 2020, MaxMem= 1073741824 cpu:       0.1
 (Enter /home/matheus/.gaussian/g09/l401.exe)
 Initial guess read from the read-write file.
 Guess basis will be translated and rotated to current coordinates.
 Initial guess orbital symmetries:
       Occupied  (A) (A) (A) (A) (A) (A) (A) (A) (A) (A) (A) (A)
                 (A) (A) (A) (A) (A) (A)
       Virtual   (A) (A) (A) (A) (A) (A) (A) (A) (A) (A) (A) (A)
                 (A) (A) (A) (A) (A) (A) (A) (A) (A) (A) (A) (A)
                 (A) (A) (A) (A) (A) (A) (A) (A) (A) (A) (A) (A)
                 (A) (A) (A) (A) (A)
 The electronic state of the initial guess is 1-A.
 Generating alternative initial guess.
 Harris functional with IExCor=32609 diagonalized for initial guess.
 ExpMin= 4.00D-02 ExpMax= 1.17D+07 ExpMxC= 1.33D+04 IAcc=3 IRadAn=         5 AccDes= 0.00D+00
 HarFok:  IExCor=32609 AccDes= 0.00D+00 IRadAn=         5 IDoV= 1
 ScaDFX=  1.000000  1.000000  1.000000  1.000000
 FoFCou: FMM=F IPFlag=           0 FMFlag=      100000 FMFlg1=           0
         NFxFlg=           0 DoJE=T BraDBF=F KetDBF=T FulRan=T
         Omega=  0.000000  0.000000  1.000000  0.000000  0.000000 ICntrl=     500 IOpCl=  0
         NMat0=    1 NMatS0=    1 NMatT0=    0 NMatD0=    1 NMtDS0=    0 NMtDT0=    0
         I1Cent=           4 NGrid=           0.
 Petite list used in FoFCou.
 DSYEVD returned Info=          89 IAlg= 4 N=    59 NDim=    59 NE2=    18198841 trying DSYEV.
 Harris En= -2753.24576836237    
 Leave Link  401 at Tue May 12 22:31:12 2020, MaxMem= 1073741824 cpu:       1.0
 (Enter /home/matheus/.gaussian/g09/l502.exe)
 Closed shell SCF:
 Requested convergence on RMS density matrix=1.00D-08 within 128 cycles.
 Requested convergence on MAX density matrix=1.00D-06.
 Requested convergence on             energy=1.00D-06.
 No special actions if energy rises.
 Using DIIS extrapolation, IDIIS=  1040.
 Integral symmetry usage will be decided dynamically.
        30923 words used for storage of precomputed grid.
 IEnd=       64406 IEndB=       64406 NGot=  1073741824 MDV=  1073698889
 LenX=  1073698889 LenY=  1073693687
 Fock matrices will be formed incrementally for  20 cycles.

 Cycle   1  Pass 1  IDiag  1:
 FoFJK:  IHMeth= 1 ICntrl=     0 DoSepK=T KAlg= 1 I1Cent= 0 FoldK=F
 FoFCou: FMM=F IPFlag=           0 FMFlag=      100000 FMFlg1=           0
         NFxFlg=           0 DoJE=T BraDBF=F KetDBF=F FulRan=T
         Omega=  0.000000  0.000000  1.000000  0.000000  0.000000 ICntrl=     500 IOpCl=  0
         NMat0=    1 NMatS0=    1 NMatT0=    0 NMatD0=    1 NMtDS0=    0 NMtDT0=    0
         I1Cent=           0 NGrid=           0.
 Symmetry not used in FoFCou.
 E= -2753.43563276534    
 DIIS: error= 1.56D-13 at cycle   1 NSaved=   1.
 NSaved= 1 IEnMin= 1 EnMin= -2753.43563276534     IErMin= 1 ErrMin= 1.56D-13
 ErrMax= 1.56D-13 EMaxC= 1.00D-01 BMatC= 4.30D-25 BMatP= 4.30D-25
 IDIUse=1 WtCom= 1.00D+00 WtEn= 0.00D+00
 Coeff-Com:  0.100D+01
 Coeff:      0.100D+01
 Gap=     0.599 Goal=   None    Shift=    0.000
 RMSDP=1.26D-14 MaxDP=3.79D-13              OVMax= 3.77D-14

 SCF Done:  E(RLC-wPBE) =  -2753.43563277     A.U. after    1 cycles
             Convg  =    0.1264D-13             -V/T =  2.0014
 KE= 2.749535160915D+03 PE=-6.578948648680D+03 EE= 1.075977855000D+03
 Leave Link  502 at Tue May 12 22:31:14 2020, MaxMem= 1073741824 cpu:      11.7
 (Enter /home/matheus/.gaussian/g09/l122.exe)
 Restoring MOs from calculation   1 to rwf.
 Counterpoise: corrected energy =   -2904.955635022155
 Counterpoise: BSSE energy =       0.000021548810
 Leave Link  122 at Tue May 12 22:31:14 2020, MaxMem= 1073741824 cpu:       0.0
 (Enter /home/matheus/.gaussian/g09/l108.exe)
 Scan completed.

 Summary of the potential surface scan:
   N      R1          SCF    
 ----  ---------  -----------
    1     3.0000  -2753.43563
    2     3.1000  -2753.43563
    3     3.2000  -2753.43563
    4     3.3000  -2753.43563
    5     3.4000  -2753.43563
    6     3.5000  -2753.43563
    7     3.6000  -2753.43563
    8     3.7000  -2753.43563
    9     3.8000  -2753.43563
   10     3.9000  -2753.43563
   11     4.0000  -2753.43563
   12     4.1000  -2753.43563
   13     4.2000  -2753.43563
   14     4.3000  -2753.43563
   15     4.4000  -2753.43563
   16     4.5000  -2753.43563
   17     4.6000  -2753.43563
   18     4.7000  -2753.43563
   19     4.8000  -2753.43563
   20     4.9000  -2753.43563
   21     5.0000  -2753.43563
 ----  ---------  -----------
  
 Leave Link  108 at Tue May 12 22:31:14 2020, MaxMem= 1073741824 cpu:       0.0
 (Enter /home/matheus/.gaussian/g09/l9999.exe)
 1\1\GINC-REDGIANT\Scan\RLC-wPBE\Aug-CC-pVTZ\H2Kr1O2\MATHEUS\12-May-202
 0\1\\#p lc-wpbe/aug-cc-PVTz int=ultrafine counterpoise=2 Scan\\TCC\\0,
 1\O,0,0.,0.,0.725\O,0,0.,0.,-0.725\H,0,-0.5905422151,0.7037808064,1.02
 35104166\H,0,0.,0.9187205947,-1.0235104166\Kr,0,0.,R1,0.\\R1=3.,s,20,0
 .1\\Version=EM64L-G09RevC.01\State=1-A\HF=-2753.4356328,-2753.4356328,
 -2753.4356328,-2753.4356328,-2753.4356328,-2753.4356328,-2753.4356328,
 -2753.4356328,-2753.4356328,-2753.4356328,-2753.4356328,-2753.4356328,
 -2753.4356328,-2753.4356328,-2753.4356328,-2753.4356328,-2753.4356328,
 -2753.4356328,-2753.4356328,-2753.4356328,-2753.4356328\RMSD=1.428e-09
 ,5.221e-11,1.075e-11,2.471e-12,6.349e-13,1.587e-13,4.659e-14,1.229e-14
 ,1.225e-14,7.340e-15,8.555e-15,1.078e-14,1.108e-14,1.071e-14,7.576e-15
 ,1.429e-14,6.568e-15,8.318e-15,7.777e-15,1.487e-14,1.264e-14\PG=C01 [X
 (H2Kr1O2)]\\@


 The earth never tires,
 The earth is rude, silent, incomprehensible at first,
 Nature is rude and incomprehensible at first,
 Be not discouraged, keep on,
 There are divine things well envelop'd,
 I swear to you there are divine things more beautiful than words can tell.
                                 -- Walt Whitman
 Job cpu time:  0 days  3 hours  8 minutes 39.9 seconds.
 File lengths (MBytes):  RWF=     33 Int=      0 D2E=      0 Chk=      8 Scr=      1
 Normal termination of Gaussian 09 at Tue May 12 22:31:14 2020.
