 Entering Gaussian System, Link 0=g09
 Input=.tcc/Inputs/Inputs-lc-wpbe-default/H2O2-Kr_0.com
 Output=.tcc/Logs/Logs-lc-wpbe-default/H2O2-Kr_inf.log
 Initial command:
 /home/matheus/.gaussian/g09/l1.exe /home/matheus/.gaussian/g09/scratch/Gau-11705.inp -scrdir=/home/matheus/.gaussian/g09/scratch/
 Entering Link 1 = /home/matheus/.gaussian/g09/l1.exe PID=     11707.
  
 Copyright (c) 1988,1990,1992,1993,1995,1998,2003,2009,2011,
            Gaussian, Inc.  All Rights Reserved.
  
 This is part of the Gaussian(R) 09 program.  It is based on
 the Gaussian(R) 03 system (copyright 2003, Gaussian, Inc.),
 the Gaussian(R) 98 system (copyright 1998, Gaussian, Inc.),
 the Gaussian(R) 94 system (copyright 1995, Gaussian, Inc.),
 the Gaussian 92(TM) system (copyright 1992, Gaussian, Inc.),
 the Gaussian 90(TM) system (copyright 1990, Gaussian, Inc.),
 the Gaussian 88(TM) system (copyright 1988, Gaussian, Inc.),
 the Gaussian 86(TM) system (copyright 1986, Carnegie Mellon
 University), and the Gaussian 82(TM) system (copyright 1983,
 Carnegie Mellon University). Gaussian is a federally registered
 trademark of Gaussian, Inc.
  
 This software contains proprietary and confidential information,
 including trade secrets, belonging to Gaussian, Inc.
  
 This software is provided under written license and may be
 used, copied, transmitted, or stored only in accord with that
 written license.
  
 The following legend is applicable only to US Government
 contracts under FAR:
  
                    RESTRICTED RIGHTS LEGEND
  
 Use, reproduction and disclosure by the US Government is
 subject to restrictions as set forth in subparagraphs (a)
 and (c) of the Commercial Computer Software - Restricted
 Rights clause in FAR 52.227-19.
  
 Gaussian, Inc.
 340 Quinnipiac St., Bldg. 40, Wallingford CT 06492
  
  
 ---------------------------------------------------------------
 Warning -- This program may not be used in any manner that
 competes with the business of Gaussian, Inc. or will provide
 assistance to any competitor of Gaussian, Inc.  The licensee
 of this program is prohibited from giving any competitor of
 Gaussian, Inc. access to this program.  By using this program,
 the user acknowledges that Gaussian, Inc. is engaged in the
 business of creating and licensing software in the field of
 computational chemistry and represents and warrants to the
 licensee that it is not a competitor of Gaussian, Inc. and that
 it will not use this program in any manner prohibited above.
 ---------------------------------------------------------------
  

 Cite this work as:
 Gaussian 09, Revision C.01,
 M. J. Frisch, G. W. Trucks, H. B. Schlegel, G. E. Scuseria, 
 M. A. Robb, J. R. Cheeseman, G. Scalmani, V. Barone, B. Mennucci, 
 G. A. Petersson, H. Nakatsuji, M. Caricato, X. Li, H. P. Hratchian, 
 A. F. Izmaylov, J. Bloino, G. Zheng, J. L. Sonnenberg, M. Hada, 
 M. Ehara, K. Toyota, R. Fukuda, J. Hasegawa, M. Ishida, T. Nakajima, 
 Y. Honda, O. Kitao, H. Nakai, T. Vreven, J. A. Montgomery, Jr., 
 J. E. Peralta, F. Ogliaro, M. Bearpark, J. J. Heyd, E. Brothers, 
 K. N. Kudin, V. N. Staroverov, T. Keith, R. Kobayashi, J. Normand, 
 K. Raghavachari, A. Rendell, J. C. Burant, S. S. Iyengar, J. Tomasi, 
 M. Cossi, N. Rega, J. M. Millam, M. Klene, J. E. Knox, J. B. Cross, 
 V. Bakken, C. Adamo, J. Jaramillo, R. Gomperts, R. E. Stratmann, 
 O. Yazyev, A. J. Austin, R. Cammi, C. Pomelli, J. W. Ochterski, 
 R. L. Martin, K. Morokuma, V. G. Zakrzewski, G. A. Voth, 
 P. Salvador, J. J. Dannenberg, S. Dapprich, A. D. Daniels, 
 O. Farkas, J. B. Foresman, J. V. Ortiz, J. Cioslowski, 
 and D. J. Fox, Gaussian, Inc., Wallingford CT, 2010.
 
 ******************************************
 Gaussian 09:  EM64L-G09RevC.01 23-Sep-2011
                13-May-2020 
 ******************************************
 %mem=8GB
 %nproc=8
 Will use up to    8 processors via shared memory.
 ---------------------------------------------------
 #p lc-wpbe/aug-cc-PVTz int=ultrafine counterpoise=2
 ---------------------------------------------------
 1/38=1,62=2/1;
 2/12=2,17=6,18=5,40=1/2;
 1/38=1,53=5172,62=2/22;
 3/5=16,6=1,7=10,11=2,16=1,25=1,30=1,74=-41,75=-5/1,2,3;
 4//1;
 5/5=2,38=5/2;
 6/7=2,8=2,9=2,10=2,28=1/1;
 1/53=4052,62=2,63=1/22;
 3/5=7,6=11,7=10,11=2,16=1,25=1,30=1,74=-41,75=-5,82=7/1,2,3;
 4//1;
 5/5=2,38=5/2;
 6/7=2,8=2,9=2,10=2,28=1/1;
 1/53=3042,62=2,63=2/22;
 3/5=7,6=11,7=10,11=2,16=1,25=1,30=1,74=-41,75=-5,82=7/1,2,3;
 4//1;
 5/5=2,38=5/2;
 6/7=2,8=2,9=2,10=2,28=1/1;
 1/53=2032,62=2,63=3/22;
 3/5=7,6=11,7=10,11=2,16=1,25=1,30=1,74=-41,75=-5,82=7/1,2,3;
 4//1;
 5/5=2,38=5/2;
 6/7=2,8=2,9=2,10=2,28=1/1;
 1/53=1022,62=2,63=4/22;
 3/5=7,6=11,7=10,11=2,16=1,25=1,30=1,74=-41,75=-5,82=7/1,2,3;
 4//1;
 5/5=2,38=5/2;
 6/7=2,8=2,9=2,10=2,28=1/1;
 1/53=5014,62=2,63=5/22;
 99/5=1,9=1/99;
 Leave Link    1 at Wed May 13 12:09:52 2020, MaxMem= 1073741824 cpu:       0.1
 (Enter /home/matheus/.gaussian/g09/l101.exe)
 ---
 TCC
 ---
 Charge =  0 Multiplicity = 1 in supermolecule
 Charge =  0 Multiplicity = 1 in fragment  1.
 Charge =  0 Multiplicity = 1 in fragment  2.
 Symbolic Z-Matrix:
 O(Fragment=1)         0.        0.        0.725 
 O(Fragment=1)         0.        0.       -0.725 
 H(Fragment=1)         0.        0.91872   1.02351 
 H(Fragment=1)         0.        0.91872  -1.02351 
 Kr(Fragment=2)        0.       R1        0. 
       Variables:
  R1                   15.                       
 
 NAtoms=      5 NQM=        0 NQMF=       0 NMMI=      5 NMMIF=      0
                NMic=       0 NMicF=      0.
                    Isotopes and Nuclear Properties:
 (Nuclear quadrupole moments (NQMom) in fm**2, nuclear magnetic moments (NMagM)
  in nuclear magnetons)

  Atom         1           2           3           4           5
 IAtWgt=          16          16           1           1          84
 AtmWgt=  15.9949146  15.9949146   1.0078250   1.0078250  83.9115064
 NucSpn=           0           0           1           1           0
 AtZEff=   0.0000000   0.0000000   0.0000000   0.0000000   0.0000000
 NQMom=    0.0000000   0.0000000   0.0000000   0.0000000   0.0000000
 NMagM=    0.0000000   0.0000000   2.7928460   2.7928460   0.0000000
 Leave Link  101 at Wed May 13 12:09:52 2020, MaxMem= 1073741824 cpu:       0.3
 (Enter /home/matheus/.gaussian/g09/l202.exe)
                          Input orientation:                          
 ---------------------------------------------------------------------
 Center     Atomic      Atomic             Coordinates (Angstroms)
 Number     Number       Type             X           Y           Z
 ---------------------------------------------------------------------
      1          8           0        0.000000    0.000000    0.725000
      2          8           0        0.000000    0.000000   -0.725000
      3          1           0        0.000000    0.918721    1.023510
      4          1           0        0.000000    0.918721   -1.023510
      5         36           0        0.000000   15.000000    0.000000
 ---------------------------------------------------------------------
                    Distance matrix (angstroms):
                    1          2          3          4          5
     1  O    0.000000
     2  O    1.450000   0.000000
     3  H    0.966000   1.975180   0.000000
     4  H    1.975180   0.966000   2.047021   0.000000
     5  Kr  15.017511  15.017511  14.118428  14.118428   0.000000
 Stoichiometry    H2KrO2
 Framework group  C2V[C2(Kr),SGV(H2O2)]
 Deg. of freedom     4
 Full point group                 C2V     NOp   4
 Largest Abelian subgroup         C2V     NOp   4
 Largest concise Abelian subgroup C2      NOp   2
                         Standard orientation:                         
 ---------------------------------------------------------------------
 Center     Atomic      Atomic             Coordinates (Angstroms)
 Number     Number       Type             X           Y           Z
 ---------------------------------------------------------------------
      1          8           0        0.000000    0.725000  -10.034027
      2          8           0        0.000000   -0.725000  -10.034027
      3          1           0        0.000000    1.023510   -9.115306
      4          1           0        0.000000   -1.023510   -9.115306
      5         36           0        0.000000    0.000000    4.965973
 ---------------------------------------------------------------------
 Rotational constants (GHZ):     26.7026195      0.0934698      0.0931437
 Leave Link  202 at Wed May 13 12:09:52 2020, MaxMem= 1073741824 cpu:       0.0
 (Enter /home/matheus/.gaussian/g09/l122.exe)
 Leave Link  122 at Wed May 13 12:09:52 2020, MaxMem= 1073741824 cpu:       0.0
 (Enter /home/matheus/.gaussian/g09/l301.exe)
 Standard basis: Aug-CC-pVTZ (5D, 7F)
 Ernie: Thresh=  0.10000D-02 Tol=  0.10000D-05 Strict=F.
 Ernie:  38 primitive shells out of 205 were deleted.
 There are    71 symmetry adapted basis functions of A1  symmetry.
 There are    29 symmetry adapted basis functions of A2  symmetry.
 There are    37 symmetry adapted basis functions of B1  symmetry.
 There are    60 symmetry adapted basis functions of B2  symmetry.
 Integral buffers will be    131072 words long.
 Raffenetti 2 integral format.
 Two-electron integral symmetry is turned on.
   197 basis functions,   415 primitive gaussians,   229 cartesian basis functions
    27 alpha electrons       27 beta electrons
       nuclear repulsion energy        59.6621178727 Hartrees.
 IExCor=32609 DFT=T Ex+Corr=LC-wPBE ExCW=0 ScaHFX=  1.000000
 ScaDFX=  1.000000  0.000000  1.000000  1.000000 ScalE2=  1.000000  1.000000
 IRadAn=      5 IRanWt=     -1 IRanGd=            0 ICorTp=0
  HFx wShort=  0.000000 wLong=  0.400000 cFull=  0.000000 cShort=  0.000000 cLong=  1.000000
  DFx wShort=  0.000000 wLong=  0.400000 cFull=  0.000000 cShort=  0.000000 cLong=  1.000000
 NAtoms=    5 NActive=    5 NUniq=    3 SFac= 2.78D+00 NAtFMM=   60 NAOKFM=F Big=F
 Leave Link  301 at Wed May 13 12:09:52 2020, MaxMem= 1073741824 cpu:       0.2
 (Enter /home/matheus/.gaussian/g09/l302.exe)
 NPDir=0 NMtPBC=     1 NCelOv=     1 NCel=       1 NClECP=     1 NCelD=      1
         NCelK=      1 NCelE2=     1 NClLst=     1 CellRange=     0.0.
 One-electron integrals computed using PRISM.
 One-electron integral symmetry used in STVInt
 NBasis=   197 RedAO= T  NBF=    71    29    37    60
 NBsUse=   197 1.00D-06 NBFU=    71    29    37    60
 Precomputing XC quadrature grid using
 IXCGrd= 2 IRadAn=           5 IRanWt=          -1 IRanGd=           0 AccXCQ= 0.00D+00.
 NRdTot=     437 NPtTot=      127438 NUsed=      130575 NTot=      130607
 NSgBfM=   164   164   164   164   164 NAtAll=     5     5.
 Leave Link  302 at Wed May 13 12:09:52 2020, MaxMem= 1073741824 cpu:       0.8
 (Enter /home/matheus/.gaussian/g09/l303.exe)
 DipDrv:  MaxL=1.
 Leave Link  303 at Wed May 13 12:09:52 2020, MaxMem= 1073741824 cpu:       0.2
 (Enter /home/matheus/.gaussian/g09/l401.exe)
 Harris functional with IExCor=32609 diagonalized for initial guess.
 ExpMin= 2.53D-02 ExpMax= 1.17D+07 ExpMxC= 1.33D+04 IAcc=3 IRadAn=         5 AccDes= 0.00D+00
 HarFok:  IExCor=32609 AccDes= 0.00D+00 IRadAn=         5 IDoV= 1
 ScaDFX=  1.000000  1.000000  1.000000  1.000000
 FoFCou: FMM=F IPFlag=           0 FMFlag=      100000 FMFlg1=           0
         NFxFlg=           0 DoJE=T BraDBF=F KetDBF=T FulRan=T
         Omega=  0.000000  0.000000  1.000000  0.000000  0.000000 ICntrl=     500 IOpCl=  0
         NMat0=    1 NMatS0=    1 NMatT0=    0 NMatD0=    1 NMtDS0=    0 NMtDT0=    0
         I1Cent=           4 NGrid=           0.
 Petite list used in FoFCou.
 DSYEVD returned Info=         143 IAlg= 4 N=    71 NDim=   197 NE2=     5449925 trying DSYEV.
 Harris En= -2904.74420484215    
 Initial guess orbital symmetries:
       Occupied  (A1) (A1) (A1) (B1) (B2) (B2) (A1) (A1) (B1) (B2)
                 (A1) (A2) (B2) (B1) (A1) (A1) (A1) (B2) (A1) (A1)
                 (A1) (B1) (B2) (B1) (B2) (A1) (A2)
       Virtual   (B2) (A1) (A1) (B2) (A1) (B2) (B1) (A1) (B1) (A1)
                 (B2) (A1) (A2) (B1) (B2) (A1) (B2) (A1) (A2) (B1)
                 (A1) (B2) (A1) (A2) (B2) (A1) (B2) (B2) (A1) (B1)
                 (B2) (A1) (A1) (B1) (B1) (A1) (B2) (A1) (A2) (A1)
                 (B1) (B2) (A1) (A2) (B1) (A2) (B2) (A1) (B2) (A1)
                 (A1) (B1) (B1) (A1) (B2) (B2) (B1) (A2) (A1) (B1)
                 (B2) (A1) (A2) (B2) (B2) (A1) (A2) (B2) (A2) (A1)
                 (B2) (B1) (A1) (B2) (A2) (A1) (B2) (B1) (A1) (A1)
                 (B2) (B1) (A1) (A2) (B1) (B2) (A1) (B2) (B1) (A1)
                 (A2) (A2) (A1) (B2) (B1) (A1) (A1) (B2) (B2) (A1)
                 (B1) (B1) (A1) (B2) (B1) (B2) (A2) (A1) (B2) (B1)
                 (B2) (A2) (A1) (A2) (A1) (B2) (B2) (A2) (B2) (A1)
                 (A1) (B1) (B2) (A1) (B1) (A2) (B1) (A2) (A1) (B2)
                 (A2) (A1) (A1) (B2) (B2) (A1) (A1) (B1) (B2) (B2)
                 (A2) (B2) (A1) (B1) (A1) (B2) (B1) (A1) (A2) (B2)
                 (B1) (A1) (A1) (A2) (B1) (B1) (B2) (A2) (A2) (A1)
                 (B2) (A2) (A1) (B2) (B2) (A1) (B2) (B2) (A1) (B2)
 The electronic state of the initial guess is 1-A1.
 Leave Link  401 at Wed May 13 12:09:52 2020, MaxMem= 1073741824 cpu:       1.4
 (Enter /home/matheus/.gaussian/g09/l502.exe)
 Closed shell SCF:
 Requested convergence on RMS density matrix=1.00D-08 within 128 cycles.
 Requested convergence on MAX density matrix=1.00D-06.
 Requested convergence on             energy=1.00D-06.
 No special actions if energy rises.
 Using DIIS extrapolation, IDIIS=  1040.
 Integral symmetry usage will be decided dynamically.
       130517 words used for storage of precomputed grid.
 IEnd=      309856 IEndB=      309856 NGot=  1073741824 MDV=  1073501279
 LenX=  1073501279 LenY=  1073448397
 Fock matrices will be formed incrementally for  20 cycles.

 Cycle   1  Pass 1  IDiag  1:
 FoFJK:  IHMeth= 1 ICntrl=     0 DoSepK=T KAlg= 1 I1Cent= 0 FoldK=F
 FoFCou: FMM=F IPFlag=           0 FMFlag=      100000 FMFlg1=           0
         NFxFlg=           0 DoJE=T BraDBF=F KetDBF=F FulRan=T
         Omega=  0.000000  0.000000  1.000000  0.000000  0.000000 ICntrl=     500 IOpCl=  0
         NMat0=    1 NMatS0=    1 NMatT0=    0 NMatD0=    1 NMtDS0=    0 NMtDT0=    0
         I1Cent=           0 NGrid=           0.
 Petite list used in FoFCou.
 E= -2904.87671159542    
 DIIS: error= 5.41D-02 at cycle   1 NSaved=   1.
 NSaved= 1 IEnMin= 1 EnMin= -2904.87671159542     IErMin= 1 ErrMin= 5.41D-02
 ErrMax= 5.41D-02 EMaxC= 1.00D-01 BMatC= 2.56D-01 BMatP= 2.56D-01
 IDIUse=3 WtCom= 4.59D-01 WtEn= 5.41D-01
 Coeff-Com:  0.100D+01
 Coeff-En:   0.100D+01
 Coeff:      0.100D+01
 Gap=     0.365 Goal=   None    Shift=    0.000
 GapD=    0.365 DampG=1.000 DampE=0.500 DampFc=0.5000 IDamp=-1.
 Damping current iteration by 5.00D-01
 RMSDP=2.01D-03 MaxDP=1.30D-01              OVMax= 6.84D-02

 Cycle   2  Pass 1  IDiag  1:
 RMSU=  6.95D-04    CP:  1.01D+00
 FoFJK:  IHMeth= 1 ICntrl=     0 DoSepK=T KAlg= 1 I1Cent= 0 FoldK=F
 E= -2904.91777836210     Delta-E=       -0.041066766681 Rises=F Damp=T
 DIIS: error= 1.90D-02 at cycle   2 NSaved=   2.
 NSaved= 2 IEnMin= 2 EnMin= -2904.91777836210     IErMin= 2 ErrMin= 1.90D-02
 ErrMax= 1.90D-02 EMaxC= 1.00D-01 BMatC= 1.94D-02 BMatP= 2.56D-01
 IDIUse=3 WtCom= 8.10D-01 WtEn= 1.90D-01
 Coeff-Com: -0.292D+00 0.129D+01
 Coeff-En:   0.000D+00 0.100D+01
 Coeff:     -0.237D+00 0.124D+01
 Gap=     0.419 Goal=   None    Shift=    0.000
 RMSDP=4.65D-04 MaxDP=2.37D-02 DE=-4.11D-02 OVMax= 3.28D-02

 Cycle   3  Pass 1  IDiag  1:
 RMSU=  2.62D-04    CP:  1.01D+00  1.28D+00
 FoFJK:  IHMeth= 1 ICntrl=     0 DoSepK=T KAlg= 1 I1Cent= 0 FoldK=F
 E= -2904.95176495206     Delta-E=       -0.033986589966 Rises=F Damp=F
 DIIS: error= 3.11D-03 at cycle   3 NSaved=   3.
 NSaved= 3 IEnMin= 3 EnMin= -2904.95176495206     IErMin= 3 ErrMin= 3.11D-03
 ErrMax= 3.11D-03 EMaxC= 1.00D-01 BMatC= 8.77D-04 BMatP= 1.94D-02
 IDIUse=3 WtCom= 9.69D-01 WtEn= 3.11D-02
 Coeff-Com: -0.738D-01 0.296D+00 0.778D+00
 Coeff-En:   0.000D+00 0.000D+00 0.100D+01
 Coeff:     -0.715D-01 0.287D+00 0.785D+00
 Gap=     0.405 Goal=   None    Shift=    0.000
 RMSDP=9.95D-05 MaxDP=2.42D-03 DE=-3.40D-02 OVMax= 6.77D-03

 Cycle   4  Pass 1  IDiag  1:
 RMSU=  6.22D-05    CP:  1.01D+00  1.30D+00  8.90D-01
 FoFJK:  IHMeth= 1 ICntrl=     0 DoSepK=T KAlg= 1 I1Cent= 0 FoldK=F
 E= -2904.95222428419     Delta-E=       -0.000459332123 Rises=F Damp=F
 DIIS: error= 1.13D-03 at cycle   4 NSaved=   4.
 NSaved= 4 IEnMin= 4 EnMin= -2904.95222428419     IErMin= 4 ErrMin= 1.13D-03
 ErrMax= 1.13D-03 EMaxC= 1.00D-01 BMatC= 1.44D-04 BMatP= 8.77D-04
 IDIUse=3 WtCom= 9.89D-01 WtEn= 1.13D-02
 Coeff-Com: -0.486D-02 0.718D-02 0.287D+00 0.710D+00
 Coeff-En:   0.000D+00 0.000D+00 0.000D+00 0.100D+01
 Coeff:     -0.481D-02 0.710D-02 0.284D+00 0.714D+00
 Gap=     0.411 Goal=   None    Shift=    0.000
 RMSDP=3.48D-05 MaxDP=1.48D-03 DE=-4.59D-04 OVMax= 1.94D-03

 Cycle   5  Pass 1  IDiag  1:
 RMSU=  9.97D-06    CP:  1.01D+00  1.30D+00  9.62D-01  8.09D-01
 FoFJK:  IHMeth= 1 ICntrl=     0 DoSepK=T KAlg= 1 I1Cent= 0 FoldK=F
 E= -2904.95230469446     Delta-E=       -0.000080410275 Rises=F Damp=F
 DIIS: error= 9.99D-05 at cycle   5 NSaved=   5.
 NSaved= 5 IEnMin= 5 EnMin= -2904.95230469446     IErMin= 5 ErrMin= 9.99D-05
 ErrMax= 9.99D-05 EMaxC= 1.00D-01 BMatC= 9.97D-07 BMatP= 1.44D-04
 IDIUse=1 WtCom= 1.00D+00 WtEn= 0.00D+00
 Coeff-Com:  0.121D-02-0.515D-02 0.179D-01 0.934D-01 0.893D+00
 Coeff:      0.121D-02-0.515D-02 0.179D-01 0.934D-01 0.893D+00
 Gap=     0.411 Goal=   None    Shift=    0.000
 RMSDP=4.68D-06 MaxDP=1.35D-04 DE=-8.04D-05 OVMax= 3.08D-04

 Cycle   6  Pass 1  IDiag  1:
 RMSU=  2.53D-06    CP:  1.01D+00  1.30D+00  9.59D-01  8.39D-01  1.06D+00
 FoFJK:  IHMeth= 1 ICntrl=     0 DoSepK=T KAlg= 1 I1Cent= 0 FoldK=F
 E= -2904.95230548057     Delta-E=       -0.000000786106 Rises=F Damp=F
 DIIS: error= 1.93D-05 at cycle   6 NSaved=   6.
 NSaved= 6 IEnMin= 6 EnMin= -2904.95230548057     IErMin= 6 ErrMin= 1.93D-05
 ErrMax= 1.93D-05 EMaxC= 1.00D-01 BMatC= 4.06D-08 BMatP= 9.97D-07
 IDIUse=1 WtCom= 1.00D+00 WtEn= 0.00D+00
 Coeff-Com:  0.392D-03-0.920D-03-0.155D-01-0.353D-01 0.626D-01 0.989D+00
 Coeff:      0.392D-03-0.920D-03-0.155D-01-0.353D-01 0.626D-01 0.989D+00
 Gap=     0.411 Goal=   None    Shift=    0.000
 RMSDP=1.19D-06 MaxDP=3.04D-05 DE=-7.86D-07 OVMax= 8.39D-05

 Cycle   7  Pass 1  IDiag  1:
 RMSU=  3.51D-07    CP:  1.01D+00  1.31D+00  9.60D-01  8.44D-01  1.12D+00
                    CP:  1.13D+00
 FoFJK:  IHMeth= 1 ICntrl=     0 DoSepK=T KAlg= 1 I1Cent= 0 FoldK=F
 E= -2904.95230553369     Delta-E=       -0.000000053120 Rises=F Damp=F
 DIIS: error= 5.00D-06 at cycle   7 NSaved=   7.
 NSaved= 7 IEnMin= 7 EnMin= -2904.95230553369     IErMin= 7 ErrMin= 5.00D-06
 ErrMax= 5.00D-06 EMaxC= 1.00D-01 BMatC= 5.53D-10 BMatP= 4.06D-08
 IDIUse=1 WtCom= 1.00D+00 WtEn= 0.00D+00
 Coeff-Com: -0.762D-04 0.224D-03 0.111D-02 0.120D-02-0.169D-01-0.984D-01
 Coeff-Com:  0.111D+01
 Coeff:     -0.762D-04 0.224D-03 0.111D-02 0.120D-02-0.169D-01-0.984D-01
 Coeff:      0.111D+01
 Gap=     0.411 Goal=   None    Shift=    0.000
 RMSDP=1.77D-07 MaxDP=5.18D-06 DE=-5.31D-08 OVMax= 2.03D-05

 Cycle   8  Pass 1  IDiag  1:
 RMSU=  6.54D-08    CP:  1.01D+00  1.31D+00  9.60D-01  8.43D-01  1.13D+00
                    CP:  1.15D+00  1.21D+00
 FoFJK:  IHMeth= 1 ICntrl=     0 DoSepK=T KAlg= 1 I1Cent= 0 FoldK=F
 E= -2904.95230553506     Delta-E=       -0.000000001372 Rises=F Damp=F
 DIIS: error= 1.05D-06 at cycle   8 NSaved=   8.
 NSaved= 8 IEnMin= 8 EnMin= -2904.95230553506     IErMin= 8 ErrMin= 1.05D-06
 ErrMax= 1.05D-06 EMaxC= 1.00D-01 BMatC= 3.34D-11 BMatP= 5.53D-10
 IDIUse=1 WtCom= 1.00D+00 WtEn= 0.00D+00
 Coeff-Com: -0.636D-05 0.144D-04 0.449D-03 0.122D-02-0.251D-02-0.350D-01
 Coeff-Com:  0.326D-01 0.100D+01
 Coeff:     -0.636D-05 0.144D-04 0.449D-03 0.122D-02-0.251D-02-0.350D-01
 Coeff:      0.326D-01 0.100D+01
 Gap=     0.411 Goal=   None    Shift=    0.000
 RMSDP=2.93D-08 MaxDP=6.56D-07 DE=-1.37D-09 OVMax= 4.30D-06

 Cycle   9  Pass 1  IDiag  1:
 RMSU=  1.29D-08    CP:  1.01D+00  1.31D+00  9.60D-01  8.44D-01  1.13D+00
                    CP:  1.15D+00  1.24D+00  1.14D+00
 FoFJK:  IHMeth= 1 ICntrl=     0 DoSepK=T KAlg= 1 I1Cent= 0 FoldK=F
 E= -2904.95230553512     Delta-E=       -0.000000000063 Rises=F Damp=F
 DIIS: error= 1.81D-07 at cycle   9 NSaved=   9.
 NSaved= 9 IEnMin= 9 EnMin= -2904.95230553512     IErMin= 9 ErrMin= 1.81D-07
 ErrMax= 1.81D-07 EMaxC= 1.00D-01 BMatC= 1.19D-12 BMatP= 3.34D-11
 IDIUse=1 WtCom= 1.00D+00 WtEn= 0.00D+00
 Coeff-Com:  0.301D-05-0.918D-05-0.399D-04-0.129D-04 0.102D-02 0.338D-02
 Coeff-Com: -0.486D-01-0.169D-01 0.106D+01
 Coeff:      0.301D-05-0.918D-05-0.399D-04-0.129D-04 0.102D-02 0.338D-02
 Coeff:     -0.486D-01-0.169D-01 0.106D+01
 Gap=     0.411 Goal=   None    Shift=    0.000
 RMSDP=8.57D-09 MaxDP=3.10D-07 DE=-6.32D-11 OVMax= 1.34D-06

 SCF Done:  E(RLC-wPBE) =  -2904.95230554     A.U. after    9 cycles
             Convg  =    0.8574D-08             -V/T =  2.0017
 KE= 2.900065927042D+03 PE=-7.056461745578D+03 EE= 1.191781395128D+03
 Leave Link  502 at Wed May 13 12:10:03 2020, MaxMem= 1073741824 cpu:      91.3
 (Enter /home/matheus/.gaussian/g09/l601.exe)
 Copying SCF densities to generalized density rwf, IOpCl= 0 IROHF=0.

 **********************************************************************

            Population analysis using the SCF density.

 **********************************************************************

 Orbital symmetries:
       Occupied  (A1) (A1) (A1) (B2) (B1) (B2) (A1) (A1) (A1) (B2)
                 (B1) (A1) (B2) (B1) (A2) (A1) (A1) (B2) (A1) (A1)
                 (A1) (B1) (B2) (A1) (B2) (B1) (A2)
       Virtual   (A1) (B2) (A1) (B2) (A1) (B2) (B1) (A1) (B2) (B1)
                 (A1) (A1) (B2) (A2) (B1) (A1) (B2) (A1) (B2) (B1)
                 (A1) (A2) (A1) (A2) (B2) (A1) (B2) (B2) (A1) (B2)
                 (B1) (A1) (B1) (A1) (B2) (A1) (B1) (A1) (A1) (B2)
                 (B1) (A2) (A1) (A2) (A2) (B1) (B2) (A1) (B2) (A1)
                 (A1) (B1) (A1) (B1) (B2) (A2) (B2) (B2) (A1) (B2)
                 (B1) (A1) (A2) (B1) (B2) (A1) (A2) (B2) (A2) (B2)
                 (A1) (B1) (A1) (B2) (A2) (A1) (B2) (B1) (A1) (B2)
                 (A1) (B1) (A1) (A2) (A1) (B2) (B1) (B2) (B1) (A1)
                 (A2) (A1) (B2) (B1) (A2) (A1) (A1) (B2) (B2) (A1)
                 (B1) (A1) (B2) (B1) (A1) (A2) (B1) (B2) (B2) (B1)
                 (B2) (A2) (A1) (A2) (A1) (B2) (B2) (A2) (B2) (A1)
                 (A1) (B2) (B1) (A1) (B1) (A2) (B1) (A2) (A1) (B2)
                 (A2) (A1) (A1) (B2) (B2) (A1) (A1) (B1) (B2) (B2)
                 (A2) (B2) (A1) (B1) (A1) (B2) (B1) (A1) (A2) (B2)
                 (B1) (A1) (A1) (A2) (B1) (B1) (B2) (A2) (A2) (A1)
                 (B2) (A1) (A2) (B2) (B2) (A1) (B2) (B2) (A1) (B2)
 The electronic state is 1-A1.
 Alpha  occ. eigenvalues -- -511.10690 -66.65425 -60.31632 -60.31632 -60.31632
 Alpha  occ. eigenvalues --  -19.03906 -19.03903  -9.58733  -7.33155  -7.33155
 Alpha  occ. eigenvalues --   -7.33155  -3.28700  -3.28700  -3.28700  -3.28699
 Alpha  occ. eigenvalues --   -3.28699  -1.26003  -1.04196  -1.03400  -0.71565
 Alpha  occ. eigenvalues --   -0.56246  -0.54116  -0.51467  -0.50386  -0.50385
 Alpha  occ. eigenvalues --   -0.50385  -0.38932
 Alpha virt. eigenvalues --    0.02161   0.03732   0.09503   0.10020   0.10169
 Alpha virt. eigenvalues --    0.10183   0.10183   0.11345   0.15349   0.16112
 Alpha virt. eigenvalues --    0.16562   0.18716   0.19441   0.19738   0.24211
 Alpha virt. eigenvalues --    0.26787   0.26888   0.27899   0.27901   0.27901
 Alpha virt. eigenvalues --    0.27904   0.27904   0.30137   0.32873   0.35455
 Alpha virt. eigenvalues --    0.37330   0.41296   0.42703   0.51955   0.51962
 Alpha virt. eigenvalues --    0.51962   0.56884   0.63547   0.64139   0.64922
 Alpha virt. eigenvalues --    0.67296   0.67315   0.68913   0.76444   0.76445
 Alpha virt. eigenvalues --    0.76445   0.76448   0.76448   0.77111   0.78973
 Alpha virt. eigenvalues --    0.79927   0.81872   0.82917   0.83952   0.87305
 Alpha virt. eigenvalues --    0.90341   0.91887   0.94307   0.96001   0.97579
 Alpha virt. eigenvalues --    0.97670   0.98433   1.00473   1.05972   1.05972
 Alpha virt. eigenvalues --    1.05972   1.05973   1.05973   1.05974   1.05974
 Alpha virt. eigenvalues --    1.09337   1.11968   1.17314   1.27220   1.32089
 Alpha virt. eigenvalues --    1.32755   1.40537   1.45881   1.48022   1.51874
 Alpha virt. eigenvalues --    1.56416   1.62065   1.75743   1.81614   1.90069
 Alpha virt. eigenvalues --    1.92513   1.96774   2.00678   2.11531   2.13193
 Alpha virt. eigenvalues --    2.13195   2.13195   2.15502   2.17380   2.19853
 Alpha virt. eigenvalues --    2.25385   2.28792   2.28793   2.28793   2.28794
 Alpha virt. eigenvalues --    2.28794   2.29179   2.31735   2.37975   2.41612
 Alpha virt. eigenvalues --    2.44258   2.48777   2.48777   2.48777   2.48778
 Alpha virt. eigenvalues --    2.48778   2.48779   2.48779   2.50459   2.57111
 Alpha virt. eigenvalues --    2.66690   2.69325   2.73199   2.73532   2.82632
 Alpha virt. eigenvalues --    2.89898   2.99956   3.09693   3.14537   3.41147
 Alpha virt. eigenvalues --    3.59698   3.69114   3.75060   3.88192   3.91393
 Alpha virt. eigenvalues --    4.02419   4.07272   4.12070   4.14068   4.17423
 Alpha virt. eigenvalues --    4.25827   4.30922   4.37652   4.54789   4.66029
 Alpha virt. eigenvalues --    4.92129   4.98158   4.99069   5.01365   5.13784
 Alpha virt. eigenvalues --    5.14196   5.51874   5.76236   5.94049   6.02654
 Alpha virt. eigenvalues --    6.03399   6.22285   6.31485   6.43460   6.54748
 Alpha virt. eigenvalues --    6.65396   6.65432   6.71127   6.72731   6.76182
 Alpha virt. eigenvalues --    6.82148   6.82294   6.85326   6.90084   6.96135
 Alpha virt. eigenvalues --    7.04299   7.18395   7.18418   7.25651   7.59071
 Alpha virt. eigenvalues --    7.90633   8.01255   8.11206  13.42762  14.62331
          Condensed to atoms (all electrons):
              1          2          3          4          5
     1  O    8.233828  -0.277308   0.171665   0.047989   0.000000
     2  O   -0.277308   8.233828   0.047989   0.171665   0.000000
     3  H    0.171665   0.047989   0.622289  -0.018119   0.000000
     4  H    0.047989   0.171665  -0.018119   0.622289   0.000000
     5  Kr   0.000000   0.000000   0.000000   0.000000  36.000000
 Mulliken atomic charges:
              1
     1  O   -0.176175
     2  O   -0.176175
     3  H    0.176175
     4  H    0.176175
     5  Kr   0.000000
 Sum of Mulliken atomic charges =   0.00000
 Mulliken charges with hydrogens summed into heavy atoms:
              1
     1  O    0.000000
     2  O    0.000000
     5  Kr   0.000000
 Sum of Mulliken charges with hydrogens summed into heavy atoms =   0.00000
          Condensed to fragments (all electrons):
     1       0.000000
     2       0.000000
 Electronic spatial extent (au):  <R**2>=           9664.3101
 Charge=              0.0000 electrons
 Dipole moment (field-independent basis, Debye):
    X=              0.0000    Y=              0.0000    Z=              3.1454  Tot=              3.1454
 Quadrupole moment (field-independent basis, Debye-Ang):
   XX=            -30.7834   YY=            -28.2412   ZZ=            -89.3971
   XY=              0.0000   XZ=              0.0000   YZ=              0.0000
 Traceless Quadrupole moment (field-independent basis, Debye-Ang):
   XX=             18.6905   YY=             21.2327   ZZ=            -39.9232
   XY=              0.0000   XZ=              0.0000   YZ=              0.0000
 Octapole moment (field-independent basis, Debye-Ang**2):
  XXX=              0.0000  YYY=              0.0000  ZZZ=            951.7724  XYY=              0.0000
  XXY=              0.0000  XXZ=             43.5071  XZZ=              0.0000  YZZ=              0.0000
  YYZ=             22.2071  XYZ=              0.0000
 Hexadecapole moment (field-independent basis, Debye-Ang**3):
 XXXX=            -29.9391 YYYY=            -63.9554 ZZZZ=         -20660.9871 XXXY=              0.0000
 XXXZ=              0.0000 YYYX=              0.0000 YYYZ=              0.0000 ZZZX=              0.0000
 ZZZY=              0.0000 XXYY=            -17.6753 XXZZ=          -1749.5714 YYZZ=          -1581.1362
 XXYZ=              0.0000 YYXZ=              0.0000 ZZXY=              0.0000
 N-N= 5.966211787272D+01 E-N=-7.056461742527D+03  KE= 2.900065927042D+03
 Symmetry A1   KE= 2.057282294646D+03
 Symmetry A2   KE= 5.289826707214D+01
 Symmetry B1   KE= 3.626845989169D+02
 Symmetry B2   KE= 4.272007664069D+02
 No NMR shielding tensors so no spin-rotation constants.
 Leave Link  601 at Wed May 13 12:10:04 2020, MaxMem= 1073741824 cpu:       0.8
 (Enter /home/matheus/.gaussian/g09/l122.exe)
 Counterpoise: doing DCBS calculation for fragment   1 NewBq=T
 Leave Link  122 at Wed May 13 12:10:04 2020, MaxMem= 1073741824 cpu:       0.0
 (Enter /home/matheus/.gaussian/g09/l301.exe)
 Basis read from rwf:  (5D, 7F)
 No pseudopotential information found on rwf file.
 There are    71 symmetry adapted basis functions of A1  symmetry.
 There are    29 symmetry adapted basis functions of A2  symmetry.
 There are    37 symmetry adapted basis functions of B1  symmetry.
 There are    60 symmetry adapted basis functions of B2  symmetry.
 Integral buffers will be    131072 words long.
 Raffenetti 2 integral format.
 Two-electron integral symmetry is turned on.
   197 basis functions,   415 primitive gaussians,   229 cartesian basis functions
     9 alpha electrons        9 beta electrons
       nuclear repulsion energy        36.6667523957 Hartrees.
 IExCor=32609 DFT=T Ex+Corr=LC-wPBE ExCW=0 ScaHFX=  1.000000
 ScaDFX=  1.000000  0.000000  1.000000  1.000000 ScalE2=  1.000000  1.000000
 IRadAn=      5 IRanWt=     -1 IRanGd=            0 ICorTp=0
  HFx wShort=  0.000000 wLong=  0.400000 cFull=  0.000000 cShort=  0.000000 cLong=  1.000000
  DFx wShort=  0.000000 wLong=  0.400000 cFull=  0.000000 cShort=  0.000000 cLong=  1.000000
 NAtoms=    5 NActive=    5 NUniq=    3 SFac= 2.78D+00 NAtFMM=   60 NAOKFM=F Big=F
 No density basis found on file   718.
 Leave Link  301 at Wed May 13 12:10:04 2020, MaxMem= 1073741824 cpu:       0.2
 (Enter /home/matheus/.gaussian/g09/l302.exe)
 NPDir=0 NMtPBC=     1 NCelOv=     1 NCel=       1 NClECP=     1 NCelD=      1
         NCelK=      1 NCelE2=     1 NClLst=     1 CellRange=     0.0.
 One-electron integrals computed using PRISM.
 One-electron integral symmetry used in STVInt
 NBasis=   197 RedAO= T  NBF=    71    29    37    60
 NBsUse=   197 1.00D-06 NBFU=    71    29    37    60
 Precomputing XC quadrature grid using
 IXCGrd= 2 IRadAn=           5 IRanWt=          -1 IRanGd=           0 AccXCQ= 0.00D+00.
 NRdTot=     437 NPtTot=      127438 NUsed=      130575 NTot=      130607
 NSgBfM=   164   164   164   164   164 NAtAll=     5     5.
 Leave Link  302 at Wed May 13 12:10:04 2020, MaxMem= 1073741824 cpu:       0.9
 (Enter /home/matheus/.gaussian/g09/l303.exe)
 DipDrv:  MaxL=1.
 Leave Link  303 at Wed May 13 12:10:04 2020, MaxMem= 1073741824 cpu:       0.2
 (Enter /home/matheus/.gaussian/g09/l401.exe)
 Harris functional with IExCor=32609 diagonalized for initial guess.
 ExpMin= 2.53D-02 ExpMax= 1.17D+07 ExpMxC= 1.33D+04 IAcc=3 IRadAn=         5 AccDes= 0.00D+00
 HarFok:  IExCor=32609 AccDes= 0.00D+00 IRadAn=         5 IDoV= 1
 ScaDFX=  1.000000  1.000000  1.000000  1.000000
 FoFCou: FMM=F IPFlag=           0 FMFlag=      100000 FMFlg1=           0
         NFxFlg=           0 DoJE=T BraDBF=F KetDBF=T FulRan=T
         Omega=  0.000000  0.000000  1.000000  0.000000  0.000000 ICntrl=     500 IOpCl=  0
         NMat0=    1 NMatS0=    1 NMatT0=    0 NMatD0=    1 NMtDS0=    0 NMtDT0=    0
         I1Cent=           4 NGrid=           0.
 Petite list used in FoFCou.
 Harris En= -151.498436523797    
 Initial guess orbital symmetries:
       Occupied  (B2) (A1) (A1) (B2) (A1) (A1) (B1) (B2) (A2)
       Virtual   (B2) (A1) (B2) (A1) (A1) (B1) (A1) (B2) (B2) (B1)
                 (A1) (B2) (A1) (A2) (B1) (A1) (B2) (A1) (A2) (B2)
                 (A1) (B2) (A1) (B2) (B1) (B2) (A1) (A2) (A1) (B1)
                 (B2) (A1) (A1) (B1) (B1) (A1) (B2) (A1) (A2) (B1)
                 (A2) (B2) (A1) (B2) (A1) (A1) (B1) (B1) (B2) (A1)
                 (A2) (B2) (B2) (A1) (A2) (B2) (A2) (B1) (B2) (A1)
                 (A1) (B2) (A1) (B1) (A1) (A1) (A2) (B1) (B2) (A1)
                 (B1) (A2) (B2) (B1) (A1) (B2) (A1) (B2) (A2) (A1)
                 (B2) (B1) (A1) (A1) (B2) (B1) (A1) (A2) (B2) (B1)
                 (A1) (A2) (A1) (B2) (B2) (A1) (B1) (B2) (B1) (B2)
                 (A2) (A1) (A2) (A1) (B2) (B2) (A2) (B2) (A1) (A1)
                 (B1) (B2) (A1) (B1) (B2) (A1) (B1) (A2) (A1) (A2)
                 (B1) (B2) (A1) (A1) (A2) (B1) (B1) (B2) (B2) (A1)
                 (B1) (A2) (A1) (B2) (A2) (A1) (A1) (B2) (B2) (A1)
                 (A1) (B1) (B2) (B2) (A2) (B2) (A1) (B1) (A1) (B2)
                 (B1) (A1) (A2) (B2) (B1) (A1) (A1) (A2) (B1) (B1)
                 (B2) (A2) (A2) (A1) (B2) (A2) (A1) (B2) (B2) (A1)
                 (B2) (B2) (A1) (A1) (B2) (B1) (B2) (A1) (A1) (B1)
                 (A2) (B2) (A1) (A1) (B1) (B2) (A1) (A1)
 The electronic state of the initial guess is 1-A1.
 Leave Link  401 at Wed May 13 12:10:04 2020, MaxMem= 1073741824 cpu:       1.4
 (Enter /home/matheus/.gaussian/g09/l502.exe)
 Closed shell SCF:
 Requested convergence on RMS density matrix=1.00D-08 within 128 cycles.
 Requested convergence on MAX density matrix=1.00D-06.
 Requested convergence on             energy=1.00D-06.
 No special actions if energy rises.
 Using DIIS extrapolation, IDIIS=  1040.
 Integral symmetry usage will be decided dynamically.
       130517 words used for storage of precomputed grid.
 IEnd=      309856 IEndB=      309856 NGot=  1073741824 MDV=  1073501279
 LenX=  1073501279 LenY=  1073448397
 Fock matrices will be formed incrementally for  20 cycles.

 Cycle   1  Pass 1  IDiag  1:
 FoFJK:  IHMeth= 1 ICntrl=     0 DoSepK=T KAlg= 1 I1Cent= 0 FoldK=F
 FoFCou: FMM=F IPFlag=           0 FMFlag=      100000 FMFlg1=           0
         NFxFlg=           0 DoJE=T BraDBF=F KetDBF=F FulRan=T
         Omega=  0.000000  0.000000  1.000000  0.000000  0.000000 ICntrl=     500 IOpCl=  0
         NMat0=    1 NMatS0=    1 NMatT0=    0 NMatD0=    1 NMtDS0=    0 NMtDT0=    0
         I1Cent=           0 NGrid=           0.
 Petite list used in FoFCou.
 E= -151.486499496567    
 DIIS: error= 2.21D-02 at cycle   1 NSaved=   1.
 NSaved= 1 IEnMin= 1 EnMin= -151.486499496567     IErMin= 1 ErrMin= 2.21D-02
 ErrMax= 2.21D-02 EMaxC= 1.00D-01 BMatC= 4.26D-02 BMatP= 4.26D-02
 IDIUse=3 WtCom= 7.79D-01 WtEn= 2.21D-01
 Coeff-Com:  0.100D+01
 Coeff-En:   0.100D+01
 Coeff:      0.100D+01
 Gap=     0.365 Goal=   None    Shift=    0.000
 GapD=    0.365 DampG=1.000 DampE=0.500 DampFc=0.5000 IDamp=-1.
 Damping current iteration by 5.00D-01
 RMSDP=9.39D-04 MaxDP=2.37D-02              OVMax= 6.85D-02

 Cycle   2  Pass 1  IDiag  1:
 RMSU=  3.32D-04    CP:  9.98D-01
 FoFJK:  IHMeth= 1 ICntrl=     0 DoSepK=T KAlg= 1 I1Cent= 0 FoldK=F
 E= -151.502207729146     Delta-E=       -0.015708232579 Rises=F Damp=T
 DIIS: error= 5.26D-03 at cycle   2 NSaved=   2.
 NSaved= 2 IEnMin= 2 EnMin= -151.502207729146     IErMin= 2 ErrMin= 5.26D-03
 ErrMax= 5.26D-03 EMaxC= 1.00D-01 BMatC= 3.66D-03 BMatP= 4.26D-02
 IDIUse=3 WtCom= 9.47D-01 WtEn= 5.26D-02
 Coeff-Com: -0.140D+00 0.114D+01
 Coeff-En:   0.000D+00 0.100D+01
 Coeff:     -0.132D+00 0.113D+01
 Gap=     0.412 Goal=   None    Shift=    0.000
 RMSDP=3.12D-04 MaxDP=2.12D-02 DE=-1.57D-02 OVMax= 3.01D-02

 Cycle   3  Pass 1  IDiag  1:
 RMSU=  2.10D-04    CP:  9.91D-01  1.15D+00
 FoFJK:  IHMeth= 1 ICntrl=     0 DoSepK=T KAlg= 1 I1Cent= 0 FoldK=F
 E= -151.516494772143     Delta-E=       -0.014287042997 Rises=F Damp=F
 DIIS: error= 1.94D-03 at cycle   3 NSaved=   3.
 NSaved= 3 IEnMin= 3 EnMin= -151.516494772143     IErMin= 3 ErrMin= 1.94D-03
 ErrMax= 1.94D-03 EMaxC= 1.00D-01 BMatC= 2.81D-04 BMatP= 3.66D-03
 IDIUse=3 WtCom= 9.81D-01 WtEn= 1.94D-02
 Coeff-Com: -0.534D-01 0.239D+00 0.815D+00
 Coeff-En:   0.000D+00 0.000D+00 0.100D+01
 Coeff:     -0.524D-01 0.234D+00 0.818D+00
 Gap=     0.409 Goal=   None    Shift=    0.000
 RMSDP=5.35D-05 MaxDP=2.13D-03 DE=-1.43D-02 OVMax= 3.86D-03

 Cycle   4  Pass 1  IDiag  1:
 RMSU=  2.91D-05    CP:  9.90D-01  1.21D+00  1.05D+00
 FoFJK:  IHMeth= 1 ICntrl=     0 DoSepK=T KAlg= 1 I1Cent= 0 FoldK=F
 E= -151.516662812610     Delta-E=       -0.000168040467 Rises=F Damp=F
 DIIS: error= 4.24D-04 at cycle   4 NSaved=   4.
 NSaved= 4 IEnMin= 4 EnMin= -151.516662812610     IErMin= 4 ErrMin= 4.24D-04
 ErrMax= 4.24D-04 EMaxC= 1.00D-01 BMatC= 1.46D-05 BMatP= 2.81D-04
 IDIUse=3 WtCom= 9.96D-01 WtEn= 4.24D-03
 Coeff-Com:  0.712D-02-0.249D-01 0.124D+00 0.894D+00
 Coeff-En:   0.000D+00 0.000D+00 0.000D+00 0.100D+01
 Coeff:      0.709D-02-0.248D-01 0.123D+00 0.895D+00
 Gap=     0.411 Goal=   None    Shift=    0.000
 RMSDP=1.15D-05 MaxDP=5.67D-04 DE=-1.68D-04 OVMax= 7.83D-04

 Cycle   5  Pass 1  IDiag  1:
 RMSU=  5.46D-06    CP:  9.90D-01  1.20D+00  1.07D+00  9.89D-01
 FoFJK:  IHMeth= 1 ICntrl=     0 DoSepK=T KAlg= 1 I1Cent= 0 FoldK=F
 E= -151.516672447566     Delta-E=       -0.000009634956 Rises=F Damp=F
 DIIS: error= 5.57D-05 at cycle   5 NSaved=   5.
 NSaved= 5 IEnMin= 5 EnMin= -151.516672447566     IErMin= 5 ErrMin= 5.57D-05
 ErrMax= 5.57D-05 EMaxC= 1.00D-01 BMatC= 1.00D-07 BMatP= 1.46D-05
 IDIUse=1 WtCom= 1.00D+00 WtEn= 0.00D+00
 Coeff-Com:  0.848D-04-0.145D-02-0.283D-01-0.902D-01 0.112D+01
 Coeff:      0.848D-04-0.145D-02-0.283D-01-0.902D-01 0.112D+01
 Gap=     0.411 Goal=   None    Shift=    0.000
 RMSDP=2.40D-06 MaxDP=6.63D-05 DE=-9.63D-06 OVMax= 2.24D-04

 Cycle   6  Pass 1  IDiag  1:
 RMSU=  7.63D-07    CP:  9.90D-01  1.20D+00  1.07D+00  1.01D+00  1.24D+00
 FoFJK:  IHMeth= 1 ICntrl=     0 DoSepK=T KAlg= 1 I1Cent= 0 FoldK=F
 E= -151.516672641126     Delta-E=       -0.000000193560 Rises=F Damp=F
 DIIS: error= 9.37D-06 at cycle   6 NSaved=   6.
 NSaved= 6 IEnMin= 6 EnMin= -151.516672641126     IErMin= 6 ErrMin= 9.37D-06
 ErrMax= 9.37D-06 EMaxC= 1.00D-01 BMatC= 2.55D-09 BMatP= 1.00D-07
 IDIUse=1 WtCom= 1.00D+00 WtEn= 0.00D+00
 Coeff-Com: -0.994D-04 0.396D-03-0.730D-03-0.948D-02-0.310D-01 0.104D+01
 Coeff:     -0.994D-04 0.396D-03-0.730D-03-0.948D-02-0.310D-01 0.104D+01
 Gap=     0.411 Goal=   None    Shift=    0.000
 RMSDP=3.25D-07 MaxDP=1.14D-05 DE=-1.94D-07 OVMax= 3.69D-05

 Cycle   7  Pass 1  IDiag  1:
 RMSU=  1.30D-07    CP:  9.90D-01  1.20D+00  1.07D+00  1.01D+00  1.25D+00
                    CP:  1.17D+00
 FoFJK:  IHMeth= 1 ICntrl=     0 DoSepK=T KAlg= 1 I1Cent= 0 FoldK=F
 E= -151.516672646525     Delta-E=       -0.000000005399 Rises=F Damp=F
 DIIS: error= 2.61D-06 at cycle   7 NSaved=   7.
 NSaved= 7 IEnMin= 7 EnMin= -151.516672646525     IErMin= 7 ErrMin= 2.61D-06
 ErrMax= 2.61D-06 EMaxC= 1.00D-01 BMatC= 1.99D-10 BMatP= 2.55D-09
 IDIUse=1 WtCom= 1.00D+00 WtEn= 0.00D+00
 Coeff-Com: -0.107D-04 0.869D-04 0.104D-02 0.309D-02-0.579D-01 0.990D-01
 Coeff-Com:  0.955D+00
 Coeff:     -0.107D-04 0.869D-04 0.104D-02 0.309D-02-0.579D-01 0.990D-01
 Coeff:      0.955D+00
 Gap=     0.411 Goal=   None    Shift=    0.000
 RMSDP=7.78D-08 MaxDP=2.29D-06 DE=-5.40D-09 OVMax= 9.41D-06

 Cycle   8  Pass 1  IDiag  1:
 RMSU=  3.21D-08    CP:  9.90D-01  1.20D+00  1.07D+00  1.01D+00  1.25D+00
                    CP:  1.22D+00  1.13D+00
 FoFJK:  IHMeth= 1 ICntrl=     0 DoSepK=T KAlg= 1 I1Cent= 0 FoldK=F
 E= -151.516672646862     Delta-E=       -0.000000000337 Rises=F Damp=F
 DIIS: error= 4.32D-07 at cycle   8 NSaved=   8.
 NSaved= 8 IEnMin= 8 EnMin= -151.516672646862     IErMin= 8 ErrMin= 4.32D-07
 ErrMax= 4.32D-07 EMaxC= 1.00D-01 BMatC= 4.87D-12 BMatP= 1.99D-10
 IDIUse=1 WtCom= 1.00D+00 WtEn= 0.00D+00
 Coeff-Com:  0.841D-05-0.336D-04-0.144D-03 0.101D-03 0.899D-02-0.459D-01
 Coeff-Com: -0.156D+00 0.119D+01
 Coeff:      0.841D-05-0.336D-04-0.144D-03 0.101D-03 0.899D-02-0.459D-01
 Coeff:     -0.156D+00 0.119D+01
 Gap=     0.411 Goal=   None    Shift=    0.000
 RMSDP=1.89D-08 MaxDP=5.99D-07 DE=-3.37D-10 OVMax= 2.99D-06

 Cycle   9  Pass 1  IDiag  1:
 RMSU=  7.97D-09    CP:  9.90D-01  1.20D+00  1.07D+00  1.01D+00  1.25D+00
                    CP:  1.22D+00  1.17D+00  1.20D+00
 FoFJK:  IHMeth= 1 ICntrl=     0 DoSepK=T KAlg= 1 I1Cent= 0 FoldK=F
 E= -151.516672646877     Delta-E=       -0.000000000014 Rises=F Damp=F
 DIIS: error= 5.16D-08 at cycle   9 NSaved=   9.
 NSaved= 9 IEnMin= 9 EnMin= -151.516672646877     IErMin= 9 ErrMin= 5.16D-08
 ErrMax= 5.16D-08 EMaxC= 1.00D-01 BMatC= 1.07D-13 BMatP= 4.87D-12
 IDIUse=1 WtCom= 1.00D+00 WtEn= 0.00D+00
 Coeff-Com: -0.445D-06 0.295D-05 0.702D-05-0.630D-04-0.771D-03 0.849D-02
 Coeff-Com:  0.108D-01-0.252D+00 0.123D+01
 Coeff:     -0.445D-06 0.295D-05 0.702D-05-0.630D-04-0.771D-03 0.849D-02
 Coeff:      0.108D-01-0.252D+00 0.123D+01
 Gap=     0.411 Goal=   None    Shift=    0.000
 RMSDP=4.87D-09 MaxDP=1.35D-07 DE=-1.45D-11 OVMax= 5.28D-07

 SCF Done:  E(RLC-wPBE) =  -151.516672647     A.U. after    9 cycles
             Convg  =    0.4867D-08             -V/T =  2.0065
 KE= 1.505307690868D+02 PE=-4.315810590687D+02 EE= 9.286686493929D+01
 Leave Link  502 at Wed May 13 12:10:13 2020, MaxMem= 1073741824 cpu:      74.7
 (Enter /home/matheus/.gaussian/g09/l601.exe)
 Copying SCF densities to generalized density rwf, IOpCl= 0 IROHF=0.

 **********************************************************************

            Population analysis using the SCF density.

 **********************************************************************

 Orbital symmetries:
       Occupied  (B2) (A1) (A1) (B2) (A1) (A1) (B1) (B2) (A2)
       Virtual   (A1) (B2) (A1) (A1) (B2) (B1) (B2) (A1) (B2) (B1)
                 (A1) (A1) (B2) (A2) (B1) (A1) (B2) (A1) (A2) (A1)
                 (B2) (A1) (B2) (B1) (A1) (A1) (B2) (B1) (A2) (A1)
                 (B2) (B2) (A1) (B1) (A1) (B2) (B1) (A1) (A2) (A2)
                 (B1) (B2) (A1) (B2) (A1) (A1) (B1) (A1) (B1) (B2)
                 (A2) (B2) (B2) (A1) (A2) (A1) (B2) (B1) (A1) (B2)
                 (A2) (A1) (B2) (B1) (A2) (A1) (B2) (A1) (A1) (B2)
                 (B1) (A2) (A1) (B2) (B1) (B1) (A1) (B2) (A2) (A1)
                 (B2) (B1) (A1) (B2) (A1) (B1) (A1) (A2) (B2) (B1)
                 (A1) (A2) (A1) (B2) (B2) (A1) (B1) (B2) (B1) (B2)
                 (A2) (A1) (A2) (A1) (B2) (B2) (A2) (B2) (A1) (A1)
                 (B2) (B1) (A1) (B2) (B1) (A1) (B2) (B1) (A2) (A1)
                 (A1) (B2) (B1) (A2) (A1) (B2) (B1) (A1) (B1) (A2)
                 (B1) (A2) (A1) (B2) (A2) (A1) (A1) (B2) (B2) (A1)
                 (A1) (B1) (B2) (B2) (A2) (B2) (A1) (B1) (A1) (B2)
                 (B1) (A1) (A2) (B2) (B1) (A1) (A1) (A2) (B1) (B1)
                 (B2) (A2) (A2) (A1) (B2) (A1) (A2) (B2) (B2) (A1)
                 (B2) (B2) (A1) (A1) (B2) (A1) (B2) (B1) (A1) (B2)
                 (B1) (A2) (A1) (A1) (A1) (B2) (B1) (A1)
 The electronic state is 1-A1.
 Alpha  occ. eigenvalues --  -19.03906 -19.03904  -1.26003  -1.04196  -0.71565
 Alpha  occ. eigenvalues --   -0.56246  -0.54117  -0.51467  -0.38932
 Alpha virt. eigenvalues --    0.02161   0.03732   0.06311   0.08774   0.08787
 Alpha virt. eigenvalues --    0.08788   0.10019   0.11345   0.15349   0.16112
 Alpha virt. eigenvalues --    0.16562   0.18716   0.19441   0.19737   0.24210
 Alpha virt. eigenvalues --    0.26787   0.26888   0.30136   0.32873   0.33050
 Alpha virt. eigenvalues --    0.35455   0.36209   0.36217   0.36217   0.37329
 Alpha virt. eigenvalues --    0.39176   0.39177   0.39177   0.39182   0.39182
 Alpha virt. eigenvalues --    0.41295   0.42703   0.56883   0.63547   0.64138
 Alpha virt. eigenvalues --    0.64922   0.67315   0.68912   0.77110   0.78973
 Alpha virt. eigenvalues --    0.79927   0.81871   0.82917   0.83952   0.87304
 Alpha virt. eigenvalues --    0.90341   0.91886   0.94306   0.96001   0.97579
 Alpha virt. eigenvalues --    0.97669   0.98433   1.00473   1.09337   1.11967
 Alpha virt. eigenvalues --    1.13414   1.13418   1.13418   1.16463   1.17313
 Alpha virt. eigenvalues --    1.27219   1.29161   1.29161   1.29161   1.29164
 Alpha virt. eigenvalues --    1.29164   1.32088   1.32754   1.32845   1.32845
 Alpha virt. eigenvalues --    1.32845   1.32846   1.32846   1.32848   1.32848
 Alpha virt. eigenvalues --    1.40537   1.45881   1.48022   1.51873   1.56415
 Alpha virt. eigenvalues --    1.62065   1.75743   1.81614   1.90069   1.92513
 Alpha virt. eigenvalues --    1.96773   2.00677   2.11531   2.15501   2.17380
 Alpha virt. eigenvalues --    2.19852   2.25385   2.29179   2.31735   2.37975
 Alpha virt. eigenvalues --    2.41612   2.44258   2.50459   2.57111   2.66690
 Alpha virt. eigenvalues --    2.69325   2.73199   2.73531   2.82632   2.89898
 Alpha virt. eigenvalues --    2.99955   3.09693   3.14536   3.21162   3.25398
 Alpha virt. eigenvalues --    3.25400   3.25400   3.41147   3.69113   3.75060
 Alpha virt. eigenvalues --    3.77916   3.77916   3.77916   3.77917   3.77917
 Alpha virt. eigenvalues --    3.82595   3.82596   3.82596   3.82596   3.82596
 Alpha virt. eigenvalues --    3.82597   3.82597   3.88192   3.91392   4.02419
 Alpha virt. eigenvalues --    4.07272   4.12069   4.14068   4.17422   4.25826
 Alpha virt. eigenvalues --    4.30922   4.37652   4.54789   4.66029   4.92128
 Alpha virt. eigenvalues --    4.98158   4.99069   5.01365   5.13784   5.14196
 Alpha virt. eigenvalues --    5.51874   5.76236   5.94049   6.02654   6.03399
 Alpha virt. eigenvalues --    6.22285   6.31485   6.43460   6.54747   6.65395
 Alpha virt. eigenvalues --    6.65432   6.71127   6.72731   6.76182   6.82148
 Alpha virt. eigenvalues --    6.82294   6.85326   6.90084   6.96135   7.04298
 Alpha virt. eigenvalues --    7.18395   7.18418   7.25651   7.59071   7.90632
 Alpha virt. eigenvalues --    8.01255   8.11206  10.14849  13.42762  14.62331
 Alpha virt. eigenvalues --   14.82848  14.82848  14.82848  29.02307  29.02307
 Alpha virt. eigenvalues --   29.02307  29.02307  29.02307  48.56961 148.30038
 Alpha virt. eigenvalues --  148.30038 148.30038 750.88990
          Condensed to atoms (all electrons):
              1          2          3          4          5
     1  O    8.233827  -0.277307   0.171665   0.047989   0.000000
     2  O   -0.277307   8.233827   0.047989   0.171665   0.000000
     3  H    0.171665   0.047989   0.622289  -0.018119   0.000000
     4  H    0.047989   0.171665  -0.018119   0.622289   0.000000
     5  Kr   0.000000   0.000000   0.000000   0.000000   0.000000
 Mulliken atomic charges:
              1
     1  O   -0.176175
     2  O   -0.176175
     3  H    0.176175
     4  H    0.176175
     5  Kr   0.000000
 Sum of Mulliken atomic charges =   0.00000
 Mulliken charges with hydrogens summed into heavy atoms:
              1
     1  O    0.000000
     2  O    0.000000
     5  Kr   0.000000
 Sum of Mulliken charges with hydrogens summed into heavy atoms =   0.00000
          Condensed to fragments (all electrons):
     1       0.000000
     2       0.000000
 Electronic spatial extent (au):  <R**2>=           6454.6740
 Charge=              0.0000 electrons
 Dipole moment (field-independent basis, Debye):
    X=              0.0000    Y=              0.0000    Z=              3.1403  Tot=              3.1403
 Quadrupole moment (field-independent basis, Debye-Ang):
   XX=            -13.1591   YY=            -10.6169   ZZ=            -71.8220
   XY=              0.0000   XZ=              0.0000   YZ=              0.0000
 Traceless Quadrupole moment (field-independent basis, Debye-Ang):
   XX=             18.7069   YY=             21.2491   ZZ=            -39.9560
   XY=              0.0000   XZ=              0.0000   YZ=              0.0000
 Octapole moment (field-independent basis, Debye-Ang**2):
  XXX=              0.0000  YYY=              0.0000  ZZZ=           1213.9630  XYY=              0.0000
  XXY=              0.0000  XXZ=            131.0254  XZZ=              0.0000  YZZ=              0.0000
  YYZ=            109.7254  XYZ=              0.0000
 Hexadecapole moment (field-independent basis, Debye-Ang**3):
 XXXX=            -11.5743 YYYY=            -45.5905 ZZZZ=         -18037.3890 XXXY=              0.0000
 XXXZ=              0.0000 YYYX=              0.0000 YYYZ=              0.0000 ZZZX=              0.0000
 ZZZY=              0.0000 XXYY=            -11.5537 XXZZ=          -1308.8524 YYZZ=          -1140.4168
 XXYZ=              0.0000 YYXZ=              0.0000 ZZXY=              0.0000
 N-N= 3.666675239568D+01 E-N=-4.315810599141D+02  KE= 1.505307690868D+02
 Symmetry A1   KE= 7.192980346472D+01
 Symmetry A2   KE= 5.418042333704D+00
 Symmetry B1   KE= 4.333374883807D+00
 Symmetry B2   KE= 6.884954840458D+01
 No NMR shielding tensors so no spin-rotation constants.
 Leave Link  601 at Wed May 13 12:10:13 2020, MaxMem= 1073741824 cpu:       0.9
 (Enter /home/matheus/.gaussian/g09/l122.exe)
 Counterpoise: doing DCBS calculation for fragment   2 NewBq=T
 Leave Link  122 at Wed May 13 12:10:13 2020, MaxMem= 1073741824 cpu:       0.0
 (Enter /home/matheus/.gaussian/g09/l301.exe)
 Basis read from rwf:  (5D, 7F)
 No pseudopotential information found on rwf file.
 There are    71 symmetry adapted basis functions of A1  symmetry.
 There are    29 symmetry adapted basis functions of A2  symmetry.
 There are    37 symmetry adapted basis functions of B1  symmetry.
 There are    60 symmetry adapted basis functions of B2  symmetry.
 Integral buffers will be    131072 words long.
 Raffenetti 2 integral format.
 Two-electron integral symmetry is turned on.
   197 basis functions,   415 primitive gaussians,   229 cartesian basis functions
    18 alpha electrons       18 beta electrons
       nuclear repulsion energy         0.0000000000 Hartrees.
 IExCor=32609 DFT=T Ex+Corr=LC-wPBE ExCW=0 ScaHFX=  1.000000
 ScaDFX=  1.000000  0.000000  1.000000  1.000000 ScalE2=  1.000000  1.000000
 IRadAn=      5 IRanWt=     -1 IRanGd=            0 ICorTp=0
  HFx wShort=  0.000000 wLong=  0.400000 cFull=  0.000000 cShort=  0.000000 cLong=  1.000000
  DFx wShort=  0.000000 wLong=  0.400000 cFull=  0.000000 cShort=  0.000000 cLong=  1.000000
 NAtoms=    5 NActive=    5 NUniq=    3 SFac= 2.78D+00 NAtFMM=   60 NAOKFM=F Big=F
 No density basis found on file   718.
 Leave Link  301 at Wed May 13 12:10:13 2020, MaxMem= 1073741824 cpu:       0.2
 (Enter /home/matheus/.gaussian/g09/l302.exe)
 NPDir=0 NMtPBC=     1 NCelOv=     1 NCel=       1 NClECP=     1 NCelD=      1
         NCelK=      1 NCelE2=     1 NClLst=     1 CellRange=     0.0.
 One-electron integrals computed using PRISM.
 One-electron integral symmetry used in STVInt
 NBasis=   197 RedAO= T  NBF=    71    29    37    60
 NBsUse=   197 1.00D-06 NBFU=    71    29    37    60
 Precomputing XC quadrature grid using
 IXCGrd= 2 IRadAn=           5 IRanWt=          -1 IRanGd=           0 AccXCQ= 0.00D+00.
 NRdTot=     437 NPtTot=      127438 NUsed=      130575 NTot=      130607
 NSgBfM=   164   164   164   164   164 NAtAll=     5     5.
 Leave Link  302 at Wed May 13 12:10:14 2020, MaxMem= 1073741824 cpu:       0.9
 (Enter /home/matheus/.gaussian/g09/l303.exe)
 DipDrv:  MaxL=1.
 Leave Link  303 at Wed May 13 12:10:14 2020, MaxMem= 1073741824 cpu:       0.2
 (Enter /home/matheus/.gaussian/g09/l401.exe)
 Harris functional with IExCor=32609 diagonalized for initial guess.
 ExpMin= 2.53D-02 ExpMax= 1.17D+07 ExpMxC= 1.33D+04 IAcc=3 IRadAn=         5 AccDes= 0.00D+00
 HarFok:  IExCor=32609 AccDes= 0.00D+00 IRadAn=         5 IDoV= 1
 ScaDFX=  1.000000  1.000000  1.000000  1.000000
 FoFCou: FMM=F IPFlag=           0 FMFlag=      100000 FMFlg1=           0
         NFxFlg=           0 DoJE=T BraDBF=F KetDBF=T FulRan=T
         Omega=  0.000000  0.000000  1.000000  0.000000  0.000000 ICntrl=     500 IOpCl=  0
         NMat0=    1 NMatS0=    1 NMatT0=    0 NMatD0=    1 NMtDS0=    0 NMtDT0=    0
         I1Cent=           4 NGrid=           0.
 Petite list used in FoFCou.
 DSYEVD returned Info=         143 IAlg= 4 N=    71 NDim=   197 NE2=     5449925 trying DSYEV.
 Harris En= -2753.24576831835    
 Initial guess orbital symmetries:
       Occupied  (A1) (A1) (B2) (A1) (B1) (A1) (B1) (B2) (A1) (A2)
                 (B2) (B1) (A1) (A1) (A1) (B1) (B2) (A1)
       Virtual   (A1) (A1) (A1) (B2) (B1) (B2) (A1) (A2) (B1) (B2)
                 (A1) (A1) (B1) (A1) (B2) (B2) (A2) (A1) (A1) (B1)
                 (B2) (A1) (B2) (A2) (A1) (B1) (B2) (A1) (B2) (B2)
                 (A1) (A1) (A2) (A1) (B1) (B2) (A1) (B1) (A1) (B2)
                 (A2) (A1) (B1) (B1) (B1) (A1) (B2) (B2) (B1) (A2)
                 (A1) (A1) (B2) (B2) (A1) (A2) (B2) (A1) (B1) (A1)
                 (B2) (A2) (B1) (B2) (A1) (A2) (B2) (A1) (A2) (B2)
                 (A1) (B2) (B2) (B1) (A1) (A1) (A2) (B2) (B1) (B2)
                 (A1) (B2) (A2) (A1) (B2) (B1) (A1) (A1) (B1) (B1)
                 (A1) (B2) (B1) (B2) (A2) (A1) (A1) (B1) (A1) (B1)
                 (B2) (A2) (A1) (A2) (B2) (B1) (A2) (B2) (A1) (B1)
                 (A1) (B2) (A1) (A2) (B2) (B1) (A1) (A2) (B2) (A1)
                 (B2) (A1) (B2) (B2) (A2) (A1) (B1) (A1) (B2) (A2)
                 (B2) (B1) (A1) (A1) (A2) (B2) (B2) (B1) (A1) (A2)
                 (A1) (B2) (B2) (A1) (B2) (B1) (A1) (B1) (A1) (A2)
                 (B2) (A1) (B1) (A2) (B2) (A1) (A2) (B2) (B2) (A1)
                 (B2) (B1) (B1) (A1) (A2) (B2) (A2) (B2) (A1) (B1)
                 (A1) (A2) (A1) (B2) (B2) (A1) (B2) (A1) (B2)
 The electronic state of the initial guess is 1-A1.
 Leave Link  401 at Wed May 13 12:10:14 2020, MaxMem= 1073741824 cpu:       1.3
 (Enter /home/matheus/.gaussian/g09/l502.exe)
 Closed shell SCF:
 Requested convergence on RMS density matrix=1.00D-08 within 128 cycles.
 Requested convergence on MAX density matrix=1.00D-06.
 Requested convergence on             energy=1.00D-06.
 No special actions if energy rises.
 Using DIIS extrapolation, IDIIS=  1040.
 Integral symmetry usage will be decided dynamically.
       130517 words used for storage of precomputed grid.
 IEnd=      309856 IEndB=      309856 NGot=  1073741824 MDV=  1073501279
 LenX=  1073501279 LenY=  1073448397
 Fock matrices will be formed incrementally for  20 cycles.

 Cycle   1  Pass 1  IDiag  1:
 FoFJK:  IHMeth= 1 ICntrl=     0 DoSepK=T KAlg= 1 I1Cent= 0 FoldK=F
 FoFCou: FMM=F IPFlag=           0 FMFlag=      100000 FMFlg1=           0
         NFxFlg=           0 DoJE=T BraDBF=F KetDBF=F FulRan=T
         Omega=  0.000000  0.000000  1.000000  0.000000  0.000000 ICntrl=     500 IOpCl=  0
         NMat0=    1 NMatS0=    1 NMatT0=    0 NMatD0=    1 NMtDS0=    0 NMtDT0=    0
         I1Cent=           0 NGrid=           0.
 Petite list used in FoFCou.
 E= -2753.39021209973    
 DIIS: error= 5.41D-02 at cycle   1 NSaved=   1.
 NSaved= 1 IEnMin= 1 EnMin= -2753.39021209973     IErMin= 1 ErrMin= 5.41D-02
 ErrMax= 5.41D-02 EMaxC= 1.00D-01 BMatC= 2.13D-01 BMatP= 2.13D-01
 IDIUse=3 WtCom= 4.59D-01 WtEn= 5.41D-01
 Coeff-Com:  0.100D+01
 Coeff-En:   0.100D+01
 Coeff:      0.100D+01
 Gap=     0.639 Goal=   None    Shift=    0.000
 GapD=    0.639 DampG=2.000 DampE=0.500 DampFc=1.0000 IDamp=-1.
 RMSDP=1.78D-03 MaxDP=1.30D-01              OVMax= 5.09D-02

 Cycle   2  Pass 1  IDiag  1:
 RMSU=  1.21D-03    CP:  1.02D+00
 FoFJK:  IHMeth= 1 ICntrl=     0 DoSepK=T KAlg= 1 I1Cent= 0 FoldK=F
 E= -2753.42055591568     Delta-E=       -0.030343815942 Rises=F Damp=F
 DIIS: error= 2.28D-02 at cycle   2 NSaved=   2.
 NSaved= 2 IEnMin= 2 EnMin= -2753.42055591568     IErMin= 2 ErrMin= 2.28D-02
 ErrMax= 2.28D-02 EMaxC= 1.00D-01 BMatC= 5.29D-02 BMatP= 2.13D-01
 IDIUse=3 WtCom= 7.72D-01 WtEn= 2.28D-01
 Coeff-Com:  0.328D+00 0.672D+00
 Coeff-En:   0.127D+00 0.873D+00
 Coeff:      0.282D+00 0.718D+00
 Gap=     0.521 Goal=   None    Shift=    0.000
 RMSDP=7.04D-04 MaxDP=4.78D-02 DE=-3.03D-02 OVMax= 2.15D-02

 Cycle   3  Pass 1  IDiag  1:
 RMSU=  1.04D-04    CP:  1.01D+00  6.15D-01
 FoFJK:  IHMeth= 1 ICntrl=     0 DoSepK=T KAlg= 1 I1Cent= 0 FoldK=F
 E= -2753.43532548118     Delta-E=       -0.014769565501 Rises=F Damp=F
 DIIS: error= 3.11D-03 at cycle   3 NSaved=   3.
 NSaved= 3 IEnMin= 3 EnMin= -2753.43532548118     IErMin= 3 ErrMin= 3.11D-03
 ErrMax= 3.11D-03 EMaxC= 1.00D-01 BMatC= 1.03D-03 BMatP= 5.29D-02
 IDIUse=3 WtCom= 9.69D-01 WtEn= 3.11D-02
 Coeff-Com: -0.591D-03 0.121D+00 0.879D+00
 Coeff-En:   0.000D+00 0.000D+00 0.100D+01
 Coeff:     -0.573D-03 0.117D+00 0.883D+00
 Gap=     0.530 Goal=   None    Shift=    0.000
 RMSDP=8.94D-05 MaxDP=5.49D-03 DE=-1.48D-02 OVMax= 3.33D-03

 Cycle   4  Pass 1  IDiag  1:
 RMSU=  1.42D-05    CP:  1.01D+00  6.63D-01  9.56D-01
 FoFJK:  IHMeth= 1 ICntrl=     0 DoSepK=T KAlg= 1 I1Cent= 0 FoldK=F
 E= -2753.43563207898     Delta-E=       -0.000306597806 Rises=F Damp=F
 DIIS: error= 1.39D-04 at cycle   4 NSaved=   4.
 NSaved= 4 IEnMin= 4 EnMin= -2753.43563207898     IErMin= 4 ErrMin= 1.39D-04
 ErrMax= 1.39D-04 EMaxC= 1.00D-01 BMatC= 9.21D-07 BMatP= 1.03D-03
 IDIUse=3 WtCom= 9.99D-01 WtEn= 1.39D-03
 Coeff-Com: -0.124D-02-0.215D-01-0.108D+00 0.113D+01
 Coeff-En:   0.000D+00 0.000D+00 0.000D+00 0.100D+01
 Coeff:     -0.124D-02-0.214D-01-0.108D+00 0.113D+01
 Gap=     0.530 Goal=   None    Shift=    0.000
 RMSDP=5.69D-06 MaxDP=2.80D-04 DE=-3.07D-04 OVMax= 4.07D-04

 Cycle   5  Pass 1  IDiag  1:
 RMSU=  1.38D-06    CP:  1.01D+00  6.62D-01  9.83D-01  1.15D+00
 FoFJK:  IHMeth= 1 ICntrl=     0 DoSepK=T KAlg= 1 I1Cent= 0 FoldK=F
 E= -2753.43563276158     Delta-E=       -0.000000682593 Rises=F Damp=F
 DIIS: error= 1.62D-05 at cycle   5 NSaved=   5.
 NSaved= 5 IEnMin= 5 EnMin= -2753.43563276158     IErMin= 5 ErrMin= 1.62D-05
 ErrMax= 1.62D-05 EMaxC= 1.00D-01 BMatC= 1.02D-08 BMatP= 9.21D-07
 IDIUse=1 WtCom= 1.00D+00 WtEn= 0.00D+00
 Coeff-Com:  0.373D-04-0.312D-02-0.228D-01 0.923D-01 0.934D+00
 Coeff:      0.373D-04-0.312D-02-0.228D-01 0.923D-01 0.934D+00
 Gap=     0.530 Goal=   None    Shift=    0.000
 RMSDP=6.54D-07 MaxDP=2.67D-05 DE=-6.83D-07 OVMax= 2.88D-05

 Cycle   6  Pass 1  IDiag  1:
 RMSU=  1.02D-07    CP:  1.01D+00  6.62D-01  9.83D-01  1.17D+00  1.01D+00
 FoFJK:  IHMeth= 1 ICntrl=     0 DoSepK=T KAlg= 1 I1Cent= 0 FoldK=F
 E= -2753.43563277016     Delta-E=       -0.000000008581 Rises=F Damp=F
 DIIS: error= 8.44D-07 at cycle   6 NSaved=   6.
 NSaved= 6 IEnMin= 6 EnMin= -2753.43563277016     IErMin= 6 ErrMin= 8.44D-07
 ErrMax= 8.44D-07 EMaxC= 1.00D-01 BMatC= 3.71D-11 BMatP= 1.02D-08
 IDIUse=1 WtCom= 1.00D+00 WtEn= 0.00D+00
 Coeff-Com:  0.184D-05 0.217D-03 0.155D-02-0.115D-01-0.830D-01 0.109D+01
 Coeff:      0.184D-05 0.217D-03 0.155D-02-0.115D-01-0.830D-01 0.109D+01
 Gap=     0.530 Goal=   None    Shift=    0.000
 RMSDP=8.51D-08 MaxDP=3.29D-06 DE=-8.58D-09 OVMax= 3.85D-06

 Cycle   7  Pass 1  IDiag  1:
 RMSU=  1.26D-08    CP:  1.01D+00  6.62D-01  9.83D-01  1.18D+00  1.02D+00
                    CP:  1.26D+00
 FoFJK:  IHMeth= 1 ICntrl=     0 DoSepK=T KAlg= 1 I1Cent= 0 FoldK=F
 E= -2753.43563277023     Delta-E=       -0.000000000076 Rises=F Damp=F
 DIIS: error= 1.47D-07 at cycle   7 NSaved=   7.
 NSaved= 7 IEnMin= 7 EnMin= -2753.43563277023     IErMin= 7 ErrMin= 1.47D-07
 ErrMax= 1.47D-07 EMaxC= 1.00D-01 BMatC= 5.22D-13 BMatP= 3.71D-11
 IDIUse=1 WtCom= 1.00D+00 WtEn= 0.00D+00
 Coeff-Com: -0.906D-06-0.472D-04-0.330D-03 0.287D-02 0.143D-01-0.266D+00
 Coeff-Com:  0.125D+01
 Coeff:     -0.906D-06-0.472D-04-0.330D-03 0.287D-02 0.143D-01-0.266D+00
 Coeff:      0.125D+01
 Gap=     0.530 Goal=   None    Shift=    0.000
 RMSDP=1.16D-08 MaxDP=5.91D-07 DE=-7.59D-11 OVMax= 5.59D-07

 Cycle   8  Pass 1  IDiag  1:
 RMSU=  8.75D-10    CP:  1.01D+00  6.62D-01  9.83D-01  1.18D+00  1.02D+00
                    CP:  1.31D+00  1.30D+00
 FoFJK:  IHMeth= 1 ICntrl=     0 DoSepK=T KAlg= 1 I1Cent= 0 FoldK=F
 E= -2753.43563277023     Delta-E=        0.000000000001 Rises=F Damp=F
 DIIS: error= 5.49D-09 at cycle   8 NSaved=   8.
 NSaved= 8 IEnMin= 7 EnMin= -2753.43563277023     IErMin= 8 ErrMin= 5.49D-09
 ErrMax= 5.49D-09 EMaxC= 1.00D-01 BMatC= 1.07D-15 BMatP= 5.22D-13
 IDIUse=1 WtCom= 1.00D+00 WtEn= 0.00D+00
 Coeff-Com:  0.522D-07 0.205D-05 0.155D-04-0.139D-03-0.876D-03 0.170D-01
 Coeff-Com: -0.113D+00 0.110D+01
 Coeff:      0.522D-07 0.205D-05 0.155D-04-0.139D-03-0.876D-03 0.170D-01
 Coeff:     -0.113D+00 0.110D+01
 Gap=     0.530 Goal=   None    Shift=    0.000
 RMSDP=4.33D-10 MaxDP=2.86D-08 DE= 9.09D-13 OVMax= 2.22D-08

 SCF Done:  E(RLC-wPBE) =  -2753.43563277     A.U. after    8 cycles
             Convg  =    0.4329D-09             -V/T =  2.0014
 KE= 2.749535160894D+03 PE=-6.578948648405D+03 EE= 1.075977854741D+03
 Leave Link  502 at Wed May 13 12:10:24 2020, MaxMem= 1073741824 cpu:      78.8
 (Enter /home/matheus/.gaussian/g09/l601.exe)
 Copying SCF densities to generalized density rwf, IOpCl= 0 IROHF=0.

 **********************************************************************

            Population analysis using the SCF density.

 **********************************************************************

 Orbital symmetries:
       Occupied  (A1) (A1) (B1) (B2) (A1) (A1) (B1) (B2) (A1) (A2)
                 (B1) (A1) (B2) (A1) (A1) (B1) (A1) (B2)
       Virtual   (A1) (B2) (A1) (A1) (B1) (B2) (A1) (B1) (A1) (B2)
                 (B2) (A2) (A1) (A1) (B1) (B1) (A1) (A2) (B2) (A1)
                 (B2) (A1) (B2) (A2) (A1) (B2) (B2) (B1) (B2) (A1)
                 (A1) (B1) (A1) (A1) (B2) (A2) (A1) (B1) (A1) (B1)
                 (A2) (B2) (A1) (B1) (A1) (B2) (B2) (A1) (A2) (B2)
                 (A1) (B1) (A1) (B2) (A2) (B1) (B1) (A1) (B2) (B2)
                 (A2) (B1) (A1) (B2) (A1) (A2) (B2) (A1) (A2) (B2)
                 (A1) (B2) (B2) (B1) (A1) (A1) (A2) (B2) (B2) (B1)
                 (B2) (A1) (A1) (B1) (A2) (A1) (B2) (B1) (A1) (A1)
                 (B1) (A1) (B1) (B2) (A2) (B1) (A1) (B2) (B2) (B1)
                 (A2) (A1) (A1) (A2) (B2) (B1) (A2) (B2) (A1) (B1)
                 (A1) (B2) (A1) (A2) (B2) (B1) (A1) (A2) (B2) (B2)
                 (A1) (A1) (B2) (B2) (A2) (A1) (B1) (A1) (B2) (A2)
                 (B2) (B1) (A1) (A1) (A2) (B2) (B2) (B1) (A1) (A2)
                 (A1) (B2) (B2) (A1) (B2) (B1) (A1) (B1) (A1) (A2)
                 (B2) (A1) (B1) (A2) (B2) (A1) (A2) (B2) (B2) (A1)
                 (B2) (B1) (B1) (A1) (A2) (B2) (A2) (B2) (A1) (B1)
                 (A1) (A2) (A1) (B2) (B2) (A1) (B2) (A1) (B2)
 The electronic state is 1-A1.
 Alpha  occ. eigenvalues -- -511.10527 -66.65262 -60.31468 -60.31468 -60.31468
 Alpha  occ. eigenvalues --   -9.58570  -7.32992  -7.32992  -7.32992  -3.28536
 Alpha  occ. eigenvalues --   -3.28536  -3.28536  -3.28536  -3.28536  -1.03236
 Alpha  occ. eigenvalues --   -0.50222  -0.50222  -0.50222
 Alpha virt. eigenvalues --    0.02748   0.04856   0.09667   0.10341   0.10341
 Alpha virt. eigenvalues --    0.10341   0.11377   0.12835   0.12931   0.13569
 Alpha virt. eigenvalues --    0.17427   0.18080   0.18398   0.26990   0.27319
 Alpha virt. eigenvalues --    0.28065   0.28065   0.28065   0.28065   0.28065
 Alpha virt. eigenvalues --    0.28443   0.33873   0.34374   0.35362   0.35697
 Alpha virt. eigenvalues --    0.39250   0.45543   0.52123   0.52123   0.52123
 Alpha virt. eigenvalues --    0.52155   0.59348   0.64186   0.67459   0.68490
 Alpha virt. eigenvalues --    0.70528   0.73504   0.76346   0.76609   0.76609
 Alpha virt. eigenvalues --    0.76609   0.76609   0.76609   0.79349   0.80855
 Alpha virt. eigenvalues --    0.82322   0.85741   0.86256   0.89058   0.92919
 Alpha virt. eigenvalues --    0.94118   0.96234   1.01175   1.02060   1.03550
 Alpha virt. eigenvalues --    1.04759   1.06136   1.06136   1.06136   1.06136
 Alpha virt. eigenvalues --    1.06136   1.06136   1.06136   1.06311   1.11804
 Alpha virt. eigenvalues --    1.13721   1.22005   1.22713   1.29400   1.40290
 Alpha virt. eigenvalues --    1.45965   1.48366   1.64449   1.66927   1.72488
 Alpha virt. eigenvalues --    1.78107   1.79056   1.85332   1.96302   2.13358
 Alpha virt. eigenvalues --    2.13358   2.13358   2.14416   2.20943   2.28956
 Alpha virt. eigenvalues --    2.28956   2.28956   2.28956   2.28956   2.31395
 Alpha virt. eigenvalues --    2.33837   2.36004   2.37162   2.44727   2.46402
 Alpha virt. eigenvalues --    2.48941   2.48941   2.48941   2.48941   2.48941
 Alpha virt. eigenvalues --    2.48941   2.48941   2.48969   2.55339   2.61474
 Alpha virt. eigenvalues --    2.62624   2.66397   2.68960   2.70147   2.83780
 Alpha virt. eigenvalues --    2.84096   2.87787   3.02334   3.05825   3.11579
 Alpha virt. eigenvalues --    3.21519   3.23645   3.27392   3.27645   3.50331
 Alpha virt. eigenvalues --    3.57206   3.59861   3.60601   3.87004   3.88109
 Alpha virt. eigenvalues --    3.98340   4.42364   4.47898   4.47915   4.62853
 Alpha virt. eigenvalues --    4.71118   4.81319   4.81822   4.93044   4.97043
 Alpha virt. eigenvalues --    4.98372   5.32563   5.50935   5.64888   5.72530
 Alpha virt. eigenvalues --    5.87472   6.02578   6.30218   6.66980   6.95294
 Alpha virt. eigenvalues --    7.24378   7.28009   7.56481   7.63705   7.78018
 Alpha virt. eigenvalues --    7.87829   7.99670   8.11355   8.12188   8.22194
 Alpha virt. eigenvalues --    8.25185   8.29050   8.70859   9.01765   9.42525
 Alpha virt. eigenvalues --    9.73005   9.75146   9.86204   9.87592   9.90991
 Alpha virt. eigenvalues --   10.16082  10.19347  10.74560  10.86843  11.37550
 Alpha virt. eigenvalues --   11.54886  11.60271  11.85868  12.06984  13.27968
 Alpha virt. eigenvalues --   13.50013  14.55499  61.61780  64.75820
          Condensed to atoms (all electrons):
              1          2          3          4          5
     1  O    0.000000   0.000000   0.000000   0.000000   0.000000
     2  O    0.000000   0.000000   0.000000   0.000000   0.000000
     3  H    0.000000   0.000000   0.000000   0.000000   0.000000
     4  H    0.000000   0.000000   0.000000   0.000000   0.000000
     5  Kr   0.000000   0.000000   0.000000   0.000000  36.000000
 Mulliken atomic charges:
              1
     1  O    0.000000
     2  O    0.000000
     3  H    0.000000
     4  H    0.000000
     5  Kr   0.000000
 Sum of Mulliken atomic charges =   0.00000
 Mulliken charges with hydrogens summed into heavy atoms:
              1
     1  O    0.000000
     2  O    0.000000
     5  Kr   0.000000
 Sum of Mulliken charges with hydrogens summed into heavy atoms =   0.00000
          Condensed to fragments (all electrons):
     1       0.000000
     2       0.000000
 Electronic spatial extent (au):  <R**2>=           3209.6731
 Charge=              0.0000 electrons
 Dipole moment (field-independent basis, Debye):
    X=              0.0000    Y=              0.0000    Z=              0.0000  Tot=              0.0000
 Quadrupole moment (field-independent basis, Debye-Ang):
   XX=            -17.6245   YY=            -17.6245   ZZ=            -17.6245
   XY=              0.0000   XZ=              0.0000   YZ=              0.0000
 Traceless Quadrupole moment (field-independent basis, Debye-Ang):
   XX=              0.0000   YY=              0.0000   ZZ=              0.0000
   XY=              0.0000   XZ=              0.0000   YZ=              0.0000
 Octapole moment (field-independent basis, Debye-Ang**2):
  XXX=              0.0000  YYY=              0.0000  ZZZ=           -262.5677  XYY=              0.0000
  XXY=              0.0000  XXZ=            -87.5226  XZZ=              0.0000  YZZ=              0.0000
  YYZ=            -87.5226  XYZ=              0.0000
 Hexadecapole moment (field-independent basis, Debye-Ang**3):
 XXXX=            -18.3655 YYYY=            -18.3655 ZZZZ=          -2626.1735 XXXY=              0.0000
 XXXZ=              0.0000 YYYX=              0.0000 YYYZ=              0.0000 ZZZX=              0.0000
 ZZZY=              0.0000 XXYY=             -6.1218 XXZZ=           -440.7565 YYZZ=           -440.7565
 XXYZ=              0.0000 YYXZ=              0.0000 ZZXY=              0.0000
 N-N= 0.000000000000D+00 E-N=-6.578948648598D+03  KE= 2.749535160894D+03
 Symmetry A1   KE= 1.985352646097D+03
 Symmetry A2   KE= 4.748022147661D+01
 Symmetry B1   KE= 3.583511466250D+02
 Symmetry B2   KE= 3.583511466957D+02
 No NMR shielding tensors so no spin-rotation constants.
 Leave Link  601 at Wed May 13 12:10:24 2020, MaxMem= 1073741824 cpu:       0.8
 (Enter /home/matheus/.gaussian/g09/l122.exe)
 Counterpoise: doing MCBS calculation for fragment   1
 Leave Link  122 at Wed May 13 12:10:24 2020, MaxMem= 1073741824 cpu:       0.0
 (Enter /home/matheus/.gaussian/g09/l301.exe)
 Basis read from rwf:  (5D, 7F)
 No pseudopotential information found on rwf file.
 There are    46 symmetry adapted basis functions of A1  symmetry.
 There are    23 symmetry adapted basis functions of A2  symmetry.
 There are    23 symmetry adapted basis functions of B1  symmetry.
 There are    46 symmetry adapted basis functions of B2  symmetry.
 Integral buffers will be    131072 words long.
 Raffenetti 2 integral format.
 Two-electron integral symmetry is turned on.
   138 basis functions,   198 primitive gaussians,   160 cartesian basis functions
     9 alpha electrons        9 beta electrons
       nuclear repulsion energy        36.6667523957 Hartrees.
 IExCor=32609 DFT=T Ex+Corr=LC-wPBE ExCW=0 ScaHFX=  1.000000
 ScaDFX=  1.000000  0.000000  1.000000  1.000000 ScalE2=  1.000000  1.000000
 IRadAn=      5 IRanWt=     -1 IRanGd=            0 ICorTp=0
  HFx wShort=  0.000000 wLong=  0.400000 cFull=  0.000000 cShort=  0.000000 cLong=  1.000000
  DFx wShort=  0.000000 wLong=  0.400000 cFull=  0.000000 cShort=  0.000000 cLong=  1.000000
 NAtoms=    5 NActive=    4 NUniq=    2 SFac= 4.00D+00 NAtFMM=   60 NAOKFM=F Big=F
 No density basis found on file   718.
 Leave Link  301 at Wed May 13 12:10:24 2020, MaxMem= 1073741824 cpu:       0.2
 (Enter /home/matheus/.gaussian/g09/l302.exe)
 NPDir=0 NMtPBC=     1 NCelOv=     1 NCel=       1 NClECP=     1 NCelD=      1
         NCelK=      1 NCelE2=     1 NClLst=     1 CellRange=     0.0.
 One-electron integrals computed using PRISM.
 One-electron integral symmetry used in STVInt
 NBasis=   138 RedAO= T  NBF=    46    23    23    46
 NBsUse=   138 1.00D-06 NBFU=    46    23    23    46
 Precomputing XC quadrature grid using
 IXCGrd= 2 IRadAn=           5 IRanWt=          -1 IRanGd=           0 AccXCQ= 0.00D+00.
 NRdTot=     344 NPtTot=       92556 NUsed=       95038 NTot=       95070
 NSgBfM=   160   160   160   160   160 NAtAll=     4     4.
 Leave Link  302 at Wed May 13 12:10:24 2020, MaxMem= 1073741824 cpu:       0.7
 (Enter /home/matheus/.gaussian/g09/l303.exe)
 DipDrv:  MaxL=1.
 Leave Link  303 at Wed May 13 12:10:24 2020, MaxMem= 1073741824 cpu:       0.1
 (Enter /home/matheus/.gaussian/g09/l401.exe)
 Harris functional with IExCor=32609 diagonalized for initial guess.
 ExpMin= 2.53D-02 ExpMax= 1.53D+04 ExpMxC= 5.22D+02 IAcc=3 IRadAn=         5 AccDes= 0.00D+00
 HarFok:  IExCor=32609 AccDes= 0.00D+00 IRadAn=         5 IDoV= 1
 ScaDFX=  1.000000  1.000000  1.000000  1.000000
 FoFCou: FMM=F IPFlag=           0 FMFlag=      100000 FMFlg1=           0
         NFxFlg=           0 DoJE=T BraDBF=F KetDBF=T FulRan=T
         Omega=  0.000000  0.000000  1.000000  0.000000  0.000000 ICntrl=     500 IOpCl=  0
         NMat0=    1 NMatS0=    1 NMatT0=    0 NMatD0=    1 NMtDS0=    0 NMtDT0=    0
         I1Cent=           4 NGrid=           0.
 Petite list used in FoFCou.
 Harris En= -151.498436523797    
 Initial guess orbital symmetries:
       Occupied  (B2) (A1) (A1) (B2) (A1) (A1) (B1) (B2) (A2)
       Virtual   (B2) (A1) (B2) (A1) (B1) (A1) (B2) (B2) (A1) (A2)
                 (B1) (A1) (B2) (A1) (A2) (B2) (A1) (B2) (B2) (A1)
                 (B1) (B1) (A1) (B2) (A1) (A2) (B1) (A2) (B2) (A1)
                 (B2) (A1) (A1) (B1) (B1) (B2) (A1) (A2) (B2) (B2)
                 (A1) (A2) (B2) (A2) (A1) (B2) (B1) (A1) (B2) (A2)
                 (A1) (B2) (B1) (A1) (A1) (B2) (B1) (A1) (A2) (B2)
                 (B1) (A1) (A2) (A1) (B2) (B2) (A1) (B1) (B2) (B1)
                 (B2) (A2) (A1) (A2) (A1) (B2) (B2) (A2) (B2) (A1)
                 (B1) (B2) (A1) (B1) (A2) (B1) (A2) (A1) (B2) (A2)
                 (A1) (A1) (B2) (B2) (A1) (A1) (B1) (B2) (B2) (A2)
                 (B2) (A1) (B1) (A1) (B2) (B1) (A1) (A2) (B2) (B1)
                 (A1) (A1) (A2) (B1) (B1) (B2) (A2) (A2) (A1) (B2)
                 (A2) (A1) (B2) (B2) (A1) (B2) (B2) (A1) (B2)
 The electronic state of the initial guess is 1-A1.
 Leave Link  401 at Wed May 13 12:10:24 2020, MaxMem= 1073741824 cpu:       1.2
 (Enter /home/matheus/.gaussian/g09/l502.exe)
 Closed shell SCF:
 Requested convergence on RMS density matrix=1.00D-08 within 128 cycles.
 Requested convergence on MAX density matrix=1.00D-06.
 Requested convergence on             energy=1.00D-06.
 No special actions if energy rises.
 Using DIIS extrapolation, IDIIS=  1040.
 Integral symmetry usage will be decided dynamically.
        94980 words used for storage of precomputed grid.
 IEnd=      192636 IEndB=      192636 NGot=  1073741824 MDV=  1073591589
 LenX=  1073591589 LenY=  1073565548
 Fock matrices will be formed incrementally for  20 cycles.

 Cycle   1  Pass 1  IDiag  1:
 FoFJK:  IHMeth= 1 ICntrl=     0 DoSepK=T KAlg= 1 I1Cent= 0 FoldK=F
 FoFCou: FMM=F IPFlag=           0 FMFlag=      100000 FMFlg1=           0
         NFxFlg=           0 DoJE=T BraDBF=F KetDBF=F FulRan=T
         Omega=  0.000000  0.000000  1.000000  0.000000  0.000000 ICntrl=     500 IOpCl=  0
         NMat0=    1 NMatS0=    1 NMatT0=    0 NMatD0=    1 NMtDS0=    0 NMtDT0=    0
         I1Cent=           0 NGrid=           0.
 Petite list used in FoFCou.
 E= -151.486499496567    
 DIIS: error= 2.21D-02 at cycle   1 NSaved=   1.
 NSaved= 1 IEnMin= 1 EnMin= -151.486499496567     IErMin= 1 ErrMin= 2.21D-02
 ErrMax= 2.21D-02 EMaxC= 1.00D-01 BMatC= 4.26D-02 BMatP= 4.26D-02
 IDIUse=3 WtCom= 7.79D-01 WtEn= 2.21D-01
 Coeff-Com:  0.100D+01
 Coeff-En:   0.100D+01
 Coeff:      0.100D+01
 Gap=     0.365 Goal=   None    Shift=    0.000
 GapD=    0.365 DampG=1.000 DampE=0.500 DampFc=0.5000 IDamp=-1.
 Damping current iteration by 5.00D-01
 RMSDP=1.34D-03 MaxDP=2.37D-02              OVMax= 6.85D-02

 Cycle   2  Pass 1  IDiag  1:
 RMSU=  4.74D-04    CP:  9.98D-01
 FoFJK:  IHMeth= 1 ICntrl=     0 DoSepK=T KAlg= 1 I1Cent= 0 FoldK=F
 E= -151.502207729146     Delta-E=       -0.015708232578 Rises=F Damp=T
 DIIS: error= 5.26D-03 at cycle   2 NSaved=   2.
 NSaved= 2 IEnMin= 2 EnMin= -151.502207729146     IErMin= 2 ErrMin= 5.26D-03
 ErrMax= 5.26D-03 EMaxC= 1.00D-01 BMatC= 3.66D-03 BMatP= 4.26D-02
 IDIUse=3 WtCom= 9.47D-01 WtEn= 5.26D-02
 Coeff-Com: -0.140D+00 0.114D+01
 Coeff-En:   0.000D+00 0.100D+01
 Coeff:     -0.132D+00 0.113D+01
 Gap=     0.412 Goal=   None    Shift=    0.000
 RMSDP=4.45D-04 MaxDP=2.12D-02 DE=-1.57D-02 OVMax= 3.01D-02

 Cycle   3  Pass 1  IDiag  1:
 RMSU=  3.00D-04    CP:  9.91D-01  1.15D+00
 FoFJK:  IHMeth= 1 ICntrl=     0 DoSepK=T KAlg= 1 I1Cent= 0 FoldK=F
 E= -151.516494772143     Delta-E=       -0.014287042997 Rises=F Damp=F
 DIIS: error= 1.94D-03 at cycle   3 NSaved=   3.
 NSaved= 3 IEnMin= 3 EnMin= -151.516494772143     IErMin= 3 ErrMin= 1.94D-03
 ErrMax= 1.94D-03 EMaxC= 1.00D-01 BMatC= 2.81D-04 BMatP= 3.66D-03
 IDIUse=3 WtCom= 9.81D-01 WtEn= 1.94D-02
 Coeff-Com: -0.534D-01 0.239D+00 0.815D+00
 Coeff-En:   0.000D+00 0.000D+00 0.100D+01
 Coeff:     -0.524D-01 0.234D+00 0.818D+00
 Gap=     0.409 Goal=   None    Shift=    0.000
 RMSDP=7.64D-05 MaxDP=2.13D-03 DE=-1.43D-02 OVMax= 3.86D-03

 Cycle   4  Pass 1  IDiag  1:
 RMSU=  4.15D-05    CP:  9.90D-01  1.21D+00  1.05D+00
 FoFJK:  IHMeth= 1 ICntrl=     0 DoSepK=T KAlg= 1 I1Cent= 0 FoldK=F
 E= -151.516662812610     Delta-E=       -0.000168040467 Rises=F Damp=F
 DIIS: error= 4.24D-04 at cycle   4 NSaved=   4.
 NSaved= 4 IEnMin= 4 EnMin= -151.516662812610     IErMin= 4 ErrMin= 4.24D-04
 ErrMax= 4.24D-04 EMaxC= 1.00D-01 BMatC= 1.46D-05 BMatP= 2.81D-04
 IDIUse=3 WtCom= 9.96D-01 WtEn= 4.24D-03
 Coeff-Com:  0.712D-02-0.249D-01 0.124D+00 0.894D+00
 Coeff-En:   0.000D+00 0.000D+00 0.000D+00 0.100D+01
 Coeff:      0.709D-02-0.248D-01 0.123D+00 0.895D+00
 Gap=     0.411 Goal=   None    Shift=    0.000
 RMSDP=1.65D-05 MaxDP=5.67D-04 DE=-1.68D-04 OVMax= 7.83D-04

 Cycle   5  Pass 1  IDiag  1:
 RMSU=  7.79D-06    CP:  9.90D-01  1.20D+00  1.07D+00  9.89D-01
 FoFJK:  IHMeth= 1 ICntrl=     0 DoSepK=T KAlg= 1 I1Cent= 0 FoldK=F
 E= -151.516672447565     Delta-E=       -0.000009634956 Rises=F Damp=F
 DIIS: error= 5.57D-05 at cycle   5 NSaved=   5.
 NSaved= 5 IEnMin= 5 EnMin= -151.516672447565     IErMin= 5 ErrMin= 5.57D-05
 ErrMax= 5.57D-05 EMaxC= 1.00D-01 BMatC= 1.00D-07 BMatP= 1.46D-05
 IDIUse=1 WtCom= 1.00D+00 WtEn= 0.00D+00
 Coeff-Com:  0.848D-04-0.145D-02-0.283D-01-0.902D-01 0.112D+01
 Coeff:      0.848D-04-0.145D-02-0.283D-01-0.902D-01 0.112D+01
 Gap=     0.411 Goal=   None    Shift=    0.000
 RMSDP=3.43D-06 MaxDP=6.63D-05 DE=-9.63D-06 OVMax= 2.24D-04

 Cycle   6  Pass 1  IDiag  1:
 RMSU=  1.09D-06    CP:  9.90D-01  1.20D+00  1.07D+00  1.01D+00  1.24D+00
 FoFJK:  IHMeth= 1 ICntrl=     0 DoSepK=T KAlg= 1 I1Cent= 0 FoldK=F
 E= -151.516672641126     Delta-E=       -0.000000193561 Rises=F Damp=F
 DIIS: error= 9.37D-06 at cycle   6 NSaved=   6.
 NSaved= 6 IEnMin= 6 EnMin= -151.516672641126     IErMin= 6 ErrMin= 9.37D-06
 ErrMax= 9.37D-06 EMaxC= 1.00D-01 BMatC= 2.55D-09 BMatP= 1.00D-07
 IDIUse=1 WtCom= 1.00D+00 WtEn= 0.00D+00
 Coeff-Com: -0.994D-04 0.396D-03-0.730D-03-0.948D-02-0.310D-01 0.104D+01
 Coeff:     -0.994D-04 0.396D-03-0.730D-03-0.948D-02-0.310D-01 0.104D+01
 Gap=     0.411 Goal=   None    Shift=    0.000
 RMSDP=4.63D-07 MaxDP=1.14D-05 DE=-1.94D-07 OVMax= 3.69D-05

 Cycle   7  Pass 1  IDiag  1:
 RMSU=  1.86D-07    CP:  9.90D-01  1.20D+00  1.07D+00  1.01D+00  1.25D+00
                    CP:  1.17D+00
 FoFJK:  IHMeth= 1 ICntrl=     0 DoSepK=T KAlg= 1 I1Cent= 0 FoldK=F
 E= -151.516672646526     Delta-E=       -0.000000005400 Rises=F Damp=F
 DIIS: error= 2.61D-06 at cycle   7 NSaved=   7.
 NSaved= 7 IEnMin= 7 EnMin= -151.516672646526     IErMin= 7 ErrMin= 2.61D-06
 ErrMax= 2.61D-06 EMaxC= 1.00D-01 BMatC= 1.99D-10 BMatP= 2.55D-09
 IDIUse=1 WtCom= 1.00D+00 WtEn= 0.00D+00
 Coeff-Com: -0.107D-04 0.869D-04 0.104D-02 0.309D-02-0.579D-01 0.990D-01
 Coeff-Com:  0.955D+00
 Coeff:     -0.107D-04 0.869D-04 0.104D-02 0.309D-02-0.579D-01 0.990D-01
 Coeff:      0.955D+00
 Gap=     0.411 Goal=   None    Shift=    0.000
 RMSDP=1.11D-07 MaxDP=2.29D-06 DE=-5.40D-09 OVMax= 9.41D-06

 Cycle   8  Pass 1  IDiag  1:
 RMSU=  4.58D-08    CP:  9.90D-01  1.20D+00  1.07D+00  1.01D+00  1.25D+00
                    CP:  1.22D+00  1.13D+00
 FoFJK:  IHMeth= 1 ICntrl=     0 DoSepK=T KAlg= 1 I1Cent= 0 FoldK=F
 E= -151.516672646861     Delta-E=       -0.000000000335 Rises=F Damp=F
 DIIS: error= 4.32D-07 at cycle   8 NSaved=   8.
 NSaved= 8 IEnMin= 8 EnMin= -151.516672646861     IErMin= 8 ErrMin= 4.32D-07
 ErrMax= 4.32D-07 EMaxC= 1.00D-01 BMatC= 4.87D-12 BMatP= 1.99D-10
 IDIUse=1 WtCom= 1.00D+00 WtEn= 0.00D+00
 Coeff-Com:  0.841D-05-0.336D-04-0.144D-03 0.101D-03 0.899D-02-0.459D-01
 Coeff-Com: -0.156D+00 0.119D+01
 Coeff:      0.841D-05-0.336D-04-0.144D-03 0.101D-03 0.899D-02-0.459D-01
 Coeff:     -0.156D+00 0.119D+01
 Gap=     0.411 Goal=   None    Shift=    0.000
 RMSDP=2.70D-08 MaxDP=5.99D-07 DE=-3.35D-10 OVMax= 2.99D-06

 Cycle   9  Pass 1  IDiag  1:
 RMSU=  1.14D-08    CP:  9.90D-01  1.20D+00  1.07D+00  1.01D+00  1.25D+00
                    CP:  1.22D+00  1.17D+00  1.20D+00
 FoFJK:  IHMeth= 1 ICntrl=     0 DoSepK=T KAlg= 1 I1Cent= 0 FoldK=F
 E= -151.516672646877     Delta-E=       -0.000000000016 Rises=F Damp=F
 DIIS: error= 5.16D-08 at cycle   9 NSaved=   9.
 NSaved= 9 IEnMin= 9 EnMin= -151.516672646877     IErMin= 9 ErrMin= 5.16D-08
 ErrMax= 5.16D-08 EMaxC= 1.00D-01 BMatC= 1.07D-13 BMatP= 4.87D-12
 IDIUse=1 WtCom= 1.00D+00 WtEn= 0.00D+00
 Coeff-Com: -0.445D-06 0.295D-05 0.702D-05-0.630D-04-0.771D-03 0.849D-02
 Coeff-Com:  0.108D-01-0.252D+00 0.123D+01
[...]
 Alpha virt. eigenvalues --    1.56415   1.62065   1.75743   1.81614   1.90069
 Alpha virt. eigenvalues --    1.92513   1.96773   2.00677   2.11531   2.15501
 Alpha virt. eigenvalues --    2.17380   2.19852   2.25385   2.29179   2.31735
 Alpha virt. eigenvalues --    2.37975   2.41612   2.44258   2.50459   2.57111
 Alpha virt. eigenvalues --    2.66690   2.69325   2.73199   2.73531   2.82632
 Alpha virt. eigenvalues --    2.89898   2.99955   3.09693   3.14536   3.41147
 Alpha virt. eigenvalues --    3.69113   3.75060   3.88192   3.91392   4.02419
 Alpha virt. eigenvalues --    4.07272   4.12069   4.14068   4.17422   4.25826
 Alpha virt. eigenvalues --    4.30922   4.37652   4.54789   4.66029   4.92128
 Alpha virt. eigenvalues --    4.98158   4.99069   5.01365   5.13784   5.14196
 Alpha virt. eigenvalues --    5.51874   5.76236   5.94049   6.02654   6.03399
 Alpha virt. eigenvalues --    6.22285   6.31485   6.43460   6.54747   6.65395
 Alpha virt. eigenvalues --    6.65432   6.71127   6.72731   6.76182   6.82148
 Alpha virt. eigenvalues --    6.82294   6.85326   6.90084   6.96135   7.04298
 Alpha virt. eigenvalues --    7.18395   7.18418   7.25651   7.59071   7.90632
 Alpha virt. eigenvalues --    8.01255   8.11206  13.42762  14.62331
          Condensed to atoms (all electrons):
              1          2          3          4
     1  O    8.233827  -0.277307   0.171665   0.047989
     2  O   -0.277307   8.233827   0.047989   0.171665
     3  H    0.171665   0.047989   0.622289  -0.018119
     4  H    0.047989   0.171665  -0.018119   0.622289
 Mulliken atomic charges:
              1
     1  O   -0.176175
     2  O   -0.176175
     3  H    0.176175
     4  H    0.176175
     5  Kr   0.000000
 Sum of Mulliken atomic charges =   0.00000
 Mulliken charges with hydrogens summed into heavy atoms:
              1
     1  O    0.000000
     2  O    0.000000
     5  Kr   0.000000
 Sum of Mulliken charges with hydrogens summed into heavy atoms =   0.00000
          Condensed to fragments (all electrons):
     1       0.000000
     2       0.000000
 Electronic spatial extent (au):  <R**2>=           6454.6740
 Charge=              0.0000 electrons
 Dipole moment (field-independent basis, Debye):
    X=              0.0000    Y=              0.0000    Z=              3.1403  Tot=              3.1403
 Quadrupole moment (field-independent basis, Debye-Ang):
   XX=            -13.1591   YY=            -10.6169   ZZ=            -71.8220
   XY=              0.0000   XZ=              0.0000   YZ=              0.0000
 Traceless Quadrupole moment (field-independent basis, Debye-Ang):
   XX=             18.7069   YY=             21.2491   ZZ=            -39.9560
   XY=              0.0000   XZ=              0.0000   YZ=              0.0000
 Octapole moment (field-independent basis, Debye-Ang**2):
  XXX=              0.0000  YYY=              0.0000  ZZZ=           1213.9630  XYY=              0.0000
  XXY=              0.0000  XXZ=            131.0254  XZZ=              0.0000  YZZ=              0.0000
  YYZ=            109.7254  XYZ=              0.0000
 Hexadecapole moment (field-independent basis, Debye-Ang**3):
 XXXX=            -11.5743 YYYY=            -45.5905 ZZZZ=         -18037.3890 XXXY=              0.0000
 XXXZ=              0.0000 YYYX=              0.0000 YYYZ=              0.0000 ZZZX=              0.0000
 ZZZY=              0.0000 XXYY=            -11.5537 XXZZ=          -1308.8524 YYZZ=          -1140.4168
 XXYZ=              0.0000 YYXZ=              0.0000 ZZXY=              0.0000
 N-N= 3.666675239568D+01 E-N=-4.315810599141D+02  KE= 1.505307690868D+02
 Symmetry A1   KE= 7.192980346472D+01
 Symmetry A2   KE= 5.418042333703D+00
 Symmetry B1   KE= 4.333374883807D+00
 Symmetry B2   KE= 6.884954840458D+01
 No NMR shielding tensors so no spin-rotation constants.
 Leave Link  601 at Wed May 13 12:10:30 2020, MaxMem= 1073741824 cpu:       0.7
 (Enter /home/matheus/.gaussian/g09/l122.exe)
 Counterpoise: doing MCBS calculation for fragment   2
 Leave Link  122 at Wed May 13 12:10:30 2020, MaxMem= 1073741824 cpu:       0.0
 (Enter /home/matheus/.gaussian/g09/l301.exe)
 Basis read from rwf:  (5D, 7F)
 No pseudopotential information found on rwf file.
 There are    25 symmetry adapted basis functions of A1  symmetry.
 There are     6 symmetry adapted basis functions of A2  symmetry.
 There are    14 symmetry adapted basis functions of B1  symmetry.
 There are    14 symmetry adapted basis functions of B2  symmetry.
 Integral buffers will be    131072 words long.
 Raffenetti 2 integral format.
 Two-electron integral symmetry is turned on.
    59 basis functions,   217 primitive gaussians,    69 cartesian basis functions
    18 alpha electrons       18 beta electrons
       nuclear repulsion energy         0.0000000000 Hartrees.
 IExCor=32609 DFT=T Ex+Corr=LC-wPBE ExCW=0 ScaHFX=  1.000000
 ScaDFX=  1.000000  0.000000  1.000000  1.000000 ScalE2=  1.000000  1.000000
 IRadAn=      5 IRanWt=     -1 IRanGd=            0 ICorTp=0
  HFx wShort=  0.000000 wLong=  0.400000 cFull=  0.000000 cShort=  0.000000 cLong=  1.000000
  DFx wShort=  0.000000 wLong=  0.400000 cFull=  0.000000 cShort=  0.000000 cLong=  1.000000
 NAtoms=    5 NActive=    1 NUniq=    1 SFac= 1.00D+00 NAtFMM=   60 NAOKFM=F Big=F
 No density basis found on file   718.
 Leave Link  301 at Wed May 13 12:10:30 2020, MaxMem= 1073741824 cpu:       0.2
 (Enter /home/matheus/.gaussian/g09/l302.exe)
 NPDir=0 NMtPBC=     1 NCelOv=     1 NCel=       1 NClECP=     1 NCelD=      1
         NCelK=      1 NCelE2=     1 NClLst=     1 CellRange=     0.0.
 One-electron integrals computed using PRISM.
 One-electron integral symmetry used in STVInt
 NBasis=    59 RedAO= T  NBF=    25     6    14    14
 NBsUse=    59 1.00D-06 NBFU=    25     6    14    14
 Precomputing XC quadrature grid using
 IXCGrd= 2 IRadAn=           5 IRanWt=          -1 IRanGd=           0 AccXCQ= 0.00D+00.
 NRdTot=      81 NPtTot=       30352 NUsed=       30981 NTot=       31013
 NSgBfM=    69    69    69    69    69 NAtAll=     1     1.
 Leave Link  302 at Wed May 13 12:10:30 2020, MaxMem= 1073741824 cpu:       0.6
 (Enter /home/matheus/.gaussian/g09/l303.exe)
 DipDrv:  MaxL=1.
 Leave Link  303 at Wed May 13 12:10:30 2020, MaxMem= 1073741824 cpu:       0.1
 (Enter /home/matheus/.gaussian/g09/l401.exe)
 Harris functional with IExCor=32609 diagonalized for initial guess.
 ExpMin= 4.00D-02 ExpMax= 1.17D+07 ExpMxC= 1.33D+04 IAcc=3 IRadAn=         5 AccDes= 0.00D+00
 HarFok:  IExCor=32609 AccDes= 0.00D+00 IRadAn=         5 IDoV= 1
 ScaDFX=  1.000000  1.000000  1.000000  1.000000
 FoFCou: FMM=F IPFlag=           0 FMFlag=      100000 FMFlg1=           0
         NFxFlg=           0 DoJE=T BraDBF=F KetDBF=T FulRan=T
         Omega=  0.000000  0.000000  1.000000  0.000000  0.000000 ICntrl=     500 IOpCl=  0
         NMat0=    1 NMatS0=    1 NMatT0=    0 NMatD0=    1 NMtDS0=    0 NMtDT0=    0
         I1Cent=           4 NGrid=           0.
 Petite list used in FoFCou.
 Harris En= -2753.24576836237    
 Initial guess orbital symmetries:
       Occupied  (A1) (A1) (B1) (B2) (A1) (A1) (B1) (B2) (A1) (A2)
                 (B2) (B1) (A1) (A1) (A1) (A1) (B2) (B1)
       Virtual   (A1) (A1) (B2) (B1) (B1) (A2) (B2) (A1) (A1) (B2)
                 (A1) (B1) (A1) (B1) (A2) (B2) (A1) (A1) (A1) (B1)
                 (B2) (A2) (B1) (A1) (B2) (B1) (B2) (A1) (B1) (B2)
                 (A2) (A1) (A1) (A1) (B1) (B2) (A2) (B1) (B2) (A1)
                 (A1)
 The electronic state of the initial guess is 1-A1.
 Leave Link  401 at Wed May 13 12:10:30 2020, MaxMem= 1073741824 cpu:       0.7
 (Enter /home/matheus/.gaussian/g09/l502.exe)
 Closed shell SCF:
 Requested convergence on RMS density matrix=1.00D-08 within 128 cycles.
 Requested convergence on MAX density matrix=1.00D-06.
 Requested convergence on             energy=1.00D-06.
 No special actions if energy rises.
 Using DIIS extrapolation, IDIIS=  1040.
 Integral symmetry usage will be decided dynamically.
        30923 words used for storage of precomputed grid.
 IEnd=       64522 IEndB=       64522 NGot=  1073741824 MDV=  1073698773
 LenX=  1073698773 LenY=  1073693571
 Fock matrices will be formed incrementally for  20 cycles.

 Cycle   1  Pass 1  IDiag  1:
 FoFJK:  IHMeth= 1 ICntrl=     0 DoSepK=T KAlg= 1 I1Cent= 0 FoldK=F
 FoFCou: FMM=F IPFlag=           0 FMFlag=      100000 FMFlg1=           0
         NFxFlg=           0 DoJE=T BraDBF=F KetDBF=F FulRan=T
         Omega=  0.000000  0.000000  1.000000  0.000000  0.000000 ICntrl=     500 IOpCl=  0
         NMat0=    1 NMatS0=    1 NMatT0=    0 NMatD0=    1 NMtDS0=    0 NMtDT0=    0
         I1Cent=           0 NGrid=           0.
 Petite list used in FoFCou.
 E= -2753.39021200754    
 DIIS: error= 5.41D-02 at cycle   1 NSaved=   1.
 NSaved= 1 IEnMin= 1 EnMin= -2753.39021200754     IErMin= 1 ErrMin= 5.41D-02
 ErrMax= 5.41D-02 EMaxC= 1.00D-01 BMatC= 2.13D-01 BMatP= 2.13D-01
 IDIUse=3 WtCom= 4.59D-01 WtEn= 5.41D-01
 Coeff-Com:  0.100D+01
 Coeff-En:   0.100D+01
 Coeff:      0.100D+01
 Gap=     0.639 Goal=   None    Shift=    0.000
 GapD=    0.639 DampG=2.000 DampE=0.500 DampFc=1.0000 IDamp=-1.
 RMSDP=5.95D-03 MaxDP=1.30D-01              OVMax= 4.39D-02

 Cycle   2  Pass 1  IDiag  1:
 RMSU=  4.04D-03    CP:  1.02D+00
 FoFJK:  IHMeth= 1 ICntrl=     0 DoSepK=T KAlg= 1 I1Cent= 0 FoldK=F
 E= -2753.42055587377     Delta-E=       -0.030343866228 Rises=F Damp=F
 DIIS: error= 2.28D-02 at cycle   2 NSaved=   2.
 NSaved= 2 IEnMin= 2 EnMin= -2753.42055587377     IErMin= 2 ErrMin= 2.28D-02
 ErrMax= 2.28D-02 EMaxC= 1.00D-01 BMatC= 5.29D-02 BMatP= 2.13D-01
 IDIUse=3 WtCom= 7.72D-01 WtEn= 2.28D-01
 Coeff-Com:  0.328D+00 0.672D+00
 Coeff-En:   0.127D+00 0.873D+00
 Coeff:      0.282D+00 0.718D+00
 Gap=     0.591 Goal=   None    Shift=    0.000
 RMSDP=2.35D-03 MaxDP=4.78D-02 DE=-3.03D-02 OVMax= 1.88D-02

 Cycle   3  Pass 1  IDiag  1:
 RMSU=  3.46D-04    CP:  1.01D+00  6.15D-01
 FoFJK:  IHMeth= 1 ICntrl=     0 DoSepK=T KAlg= 1 I1Cent= 0 FoldK=F
 E= -2753.43532547662     Delta-E=       -0.014769602854 Rises=F Damp=F
 DIIS: error= 3.11D-03 at cycle   3 NSaved=   3.
 NSaved= 3 IEnMin= 3 EnMin= -2753.43532547662     IErMin= 3 ErrMin= 3.11D-03
 ErrMax= 3.11D-03 EMaxC= 1.00D-01 BMatC= 1.03D-03 BMatP= 5.29D-02
 IDIUse=3 WtCom= 9.69D-01 WtEn= 3.11D-02
 Coeff-Com: -0.591D-03 0.121D+00 0.879D+00
 Coeff-En:   0.000D+00 0.000D+00 0.100D+01
 Coeff:     -0.573D-03 0.117D+00 0.883D+00
 Gap=     0.599 Goal=   None    Shift=    0.000
 RMSDP=2.99D-04 MaxDP=5.49D-03 DE=-1.48D-02 OVMax= 2.96D-03

 Cycle   4  Pass 1  IDiag  1:
 RMSU=  4.74D-05    CP:  1.01D+00  6.63D-01  9.56D-01
 FoFJK:  IHMeth= 1 ICntrl=     0 DoSepK=T KAlg= 1 I1Cent= 0 FoldK=F
 E= -2753.43563207412     Delta-E=       -0.000306597495 Rises=F Damp=F
 DIIS: error= 1.39D-04 at cycle   4 NSaved=   4.
 NSaved= 4 IEnMin= 4 EnMin= -2753.43563207412     IErMin= 4 ErrMin= 1.39D-04
 ErrMax= 1.39D-04 EMaxC= 1.00D-01 BMatC= 9.21D-07 BMatP= 1.03D-03
 IDIUse=3 WtCom= 9.99D-01 WtEn= 1.39D-03
 Coeff-Com: -0.124D-02-0.215D-01-0.108D+00 0.113D+01
 Coeff-En:   0.000D+00 0.000D+00 0.000D+00 0.100D+01
 Coeff:     -0.124D-02-0.214D-01-0.108D+00 0.113D+01
 Gap=     0.599 Goal=   None    Shift=    0.000
 RMSDP=1.90D-05 MaxDP=2.80D-04 DE=-3.07D-04 OVMax= 4.02D-04

 Cycle   5  Pass 1  IDiag  1:
 RMSU=  4.61D-06    CP:  1.01D+00  6.62D-01  9.83D-01  1.15D+00
 FoFJK:  IHMeth= 1 ICntrl=     0 DoSepK=T KAlg= 1 I1Cent= 0 FoldK=F
 E= -2753.43563275670     Delta-E=       -0.000000682584 Rises=F Damp=F
 DIIS: error= 1.62D-05 at cycle   5 NSaved=   5.
 NSaved= 5 IEnMin= 5 EnMin= -2753.43563275670     IErMin= 5 ErrMin= 1.62D-05
 ErrMax= 1.62D-05 EMaxC= 1.00D-01 BMatC= 1.02D-08 BMatP= 9.21D-07
 IDIUse=1 WtCom= 1.00D+00 WtEn= 0.00D+00
 Coeff-Com:  0.373D-04-0.312D-02-0.228D-01 0.923D-01 0.934D+00
 Coeff:      0.373D-04-0.312D-02-0.228D-01 0.923D-01 0.934D+00
 Gap=     0.599 Goal=   None    Shift=    0.000
 RMSDP=2.18D-06 MaxDP=2.67D-05 DE=-6.83D-07 OVMax= 2.73D-05

 Cycle   6  Pass 1  IDiag  1:
 RMSU=  3.41D-07    CP:  1.01D+00  6.62D-01  9.83D-01  1.17D+00  1.01D+00
 FoFJK:  IHMeth= 1 ICntrl=     0 DoSepK=T KAlg= 1 I1Cent= 0 FoldK=F
 E= -2753.43563276528     Delta-E=       -0.000000008580 Rises=F Damp=F
 DIIS: error= 8.44D-07 at cycle   6 NSaved=   6.
 NSaved= 6 IEnMin= 6 EnMin= -2753.43563276528     IErMin= 6 ErrMin= 8.44D-07
 ErrMax= 8.44D-07 EMaxC= 1.00D-01 BMatC= 3.71D-11 BMatP= 1.02D-08
 IDIUse=1 WtCom= 1.00D+00 WtEn= 0.00D+00
 Coeff-Com:  0.184D-05 0.217D-03 0.155D-02-0.115D-01-0.830D-01 0.109D+01
 Coeff:      0.184D-05 0.217D-03 0.155D-02-0.115D-01-0.830D-01 0.109D+01
 Gap=     0.599 Goal=   None    Shift=    0.000
 RMSDP=2.84D-07 MaxDP=3.29D-06 DE=-8.58D-09 OVMax= 3.85D-06

 Cycle   7  Pass 1  IDiag  1:
 RMSU=  4.21D-08    CP:  1.01D+00  6.62D-01  9.83D-01  1.18D+00  1.02D+00
                    CP:  1.26D+00
 FoFJK:  IHMeth= 1 ICntrl=     0 DoSepK=T KAlg= 1 I1Cent= 0 FoldK=F
 E= -2753.43563276536     Delta-E=       -0.000000000077 Rises=F Damp=F
 DIIS: error= 1.47D-07 at cycle   7 NSaved=   7.
 NSaved= 7 IEnMin= 7 EnMin= -2753.43563276536     IErMin= 7 ErrMin= 1.47D-07
 ErrMax= 1.47D-07 EMaxC= 1.00D-01 BMatC= 5.22D-13 BMatP= 3.71D-11
 IDIUse=1 WtCom= 1.00D+00 WtEn= 0.00D+00
 Coeff-Com: -0.906D-06-0.472D-04-0.330D-03 0.287D-02 0.143D-01-0.266D+00
 Coeff-Com:  0.125D+01
 Coeff:     -0.906D-06-0.472D-04-0.330D-03 0.287D-02 0.143D-01-0.266D+00
 Coeff:      0.125D+01
 Gap=     0.599 Goal=   None    Shift=    0.000
 RMSDP=3.87D-08 MaxDP=5.91D-07 DE=-7.73D-11 OVMax= 5.56D-07

 Cycle   8  Pass 1  IDiag  1:
 RMSU=  2.92D-09    CP:  1.01D+00  6.62D-01  9.83D-01  1.18D+00  1.02D+00
                    CP:  1.31D+00  1.30D+00
 FoFJK:  IHMeth= 1 ICntrl=     0 DoSepK=T KAlg= 1 I1Cent= 0 FoldK=F
 E= -2753.43563276536     Delta-E=        0.000000000000 Rises=F Damp=F
 DIIS: error= 5.49D-09 at cycle   8 NSaved=   8.
 NSaved= 8 IEnMin= 7 EnMin= -2753.43563276536     IErMin= 8 ErrMin= 5.49D-09
 ErrMax= 5.49D-09 EMaxC= 1.00D-01 BMatC= 1.07D-15 BMatP= 5.22D-13
 IDIUse=1 WtCom= 1.00D+00 WtEn= 0.00D+00
 Coeff-Com:  0.522D-07 0.205D-05 0.155D-04-0.139D-03-0.876D-03 0.170D-01
 Coeff-Com: -0.113D+00 0.110D+01
 Coeff:      0.522D-07 0.205D-05 0.155D-04-0.139D-03-0.876D-03 0.170D-01
 Coeff:     -0.113D+00 0.110D+01
 Gap=     0.599 Goal=   None    Shift=    0.000
 RMSDP=1.45D-09 MaxDP=2.86D-08 DE= 0.00D+00 OVMax= 2.19D-08

 SCF Done:  E(RLC-wPBE) =  -2753.43563277     A.U. after    8 cycles
             Convg  =    0.1446D-08             -V/T =  2.0014
 KE= 2.749535160912D+03 PE=-6.578948648491D+03 EE= 1.075977854813D+03
 Leave Link  502 at Wed May 13 12:10:41 2020, MaxMem= 1073741824 cpu:      84.7
 (Enter /home/matheus/.gaussian/g09/l601.exe)
 Copying SCF densities to generalized density rwf, IOpCl= 0 IROHF=0.

 **********************************************************************

            Population analysis using the SCF density.

 **********************************************************************

 Orbital symmetries:
       Occupied  (A1) (A1) (B2) (B1) (A1) (A1) (A1) (B1) (B2) (B2)
                 (A2) (B1) (A1) (A1) (A1) (B1) (A1) (B2)
       Virtual   (A1) (B1) (A1) (B2) (B2) (B1) (A2) (A1) (A1) (B1)
                 (A1) (B2) (A1) (A2) (B1) (B2) (A1) (A1) (B2) (A1)
                 (B1) (A2) (B1) (B2) (A1) (B2) (A1) (B1) (A2) (B1)
                 (B2) (A1) (A1) (A1) (B2) (B1) (A2) (B1) (B2) (A1)
                 (A1)
 The electronic state is 1-A1.
 Alpha  occ. eigenvalues -- -511.10527 -66.65262 -60.31468 -60.31468 -60.31468
 Alpha  occ. eigenvalues --   -9.58570  -7.32992  -7.32992  -7.32992  -3.28536
 Alpha  occ. eigenvalues --   -3.28536  -3.28536  -3.28536  -3.28536  -1.03236
 Alpha  occ. eigenvalues --   -0.50222  -0.50222  -0.50222
 Alpha virt. eigenvalues --    0.09667   0.10341   0.10341   0.10341   0.28065
 Alpha virt. eigenvalues --    0.28065   0.28065   0.28065   0.28065   0.52123
 Alpha virt. eigenvalues --    0.52123   0.52123   0.67459   0.76609   0.76609
 Alpha virt. eigenvalues --    0.76609   0.76609   0.76609   1.06136   1.06136
 Alpha virt. eigenvalues --    1.06136   1.06136   1.06136   1.06136   1.06136
 Alpha virt. eigenvalues --    2.13358   2.13358   2.13358   2.28956   2.28956
 Alpha virt. eigenvalues --    2.28956   2.28956   2.28956   2.48941   2.48941
 Alpha virt. eigenvalues --    2.48941   2.48941   2.48941   2.48941   2.48941
 Alpha virt. eigenvalues --    3.59861
          Condensed to atoms (all electrons):
              1
     1  Kr  36.000000
 Mulliken atomic charges:
              1
     1  O    0.000000
     2  O    0.000000
     3  H    0.000000
     4  H    0.000000
     5  Kr   0.000000
 Sum of Mulliken atomic charges =   0.00000
 Mulliken charges with hydrogens summed into heavy atoms:
              1
     1  O    0.000000
     2  O    0.000000
     5  Kr   0.000000
 Sum of Mulliken charges with hydrogens summed into heavy atoms =   0.00000
          Condensed to fragments (all electrons):
     1       0.000000
     2       0.000000
 Electronic spatial extent (au):  <R**2>=           3209.6731
 Charge=              0.0000 electrons
 Dipole moment (field-independent basis, Debye):
    X=              0.0000    Y=              0.0000    Z=              0.0000  Tot=              0.0000
 Quadrupole moment (field-independent basis, Debye-Ang):
   XX=            -17.6245   YY=            -17.6245   ZZ=            -17.6245
   XY=              0.0000   XZ=              0.0000   YZ=              0.0000
 Traceless Quadrupole moment (field-independent basis, Debye-Ang):
   XX=              0.0000   YY=              0.0000   ZZ=              0.0000
   XY=              0.0000   XZ=              0.0000   YZ=              0.0000
 Octapole moment (field-independent basis, Debye-Ang**2):
  XXX=              0.0000  YYY=              0.0000  ZZZ=           -262.5677  XYY=              0.0000
  XXY=              0.0000  XXZ=            -87.5226  XZZ=              0.0000  YZZ=              0.0000
  YYZ=            -87.5226  XYZ=              0.0000
 Hexadecapole moment (field-independent basis, Debye-Ang**3):
 XXXX=            -18.3655 YYYY=            -18.3655 ZZZZ=          -2626.1735 XXXY=              0.0000
 XXXZ=              0.0000 YYYX=              0.0000 YYYZ=              0.0000 ZZZX=              0.0000
 ZZZY=              0.0000 XXYY=             -6.1218 XXZZ=           -440.7565 YYZZ=           -440.7565
 XXYZ=              0.0000 YYXZ=              0.0000 ZZXY=              0.0000
 N-N= 0.000000000000D+00 E-N=-6.578948648684D+03  KE= 2.749535160912D+03
 Symmetry A1   KE= 1.985352646068D+03
 Symmetry A2   KE= 4.748022147547D+01
 Symmetry B1   KE= 3.583511466845D+02
 Symmetry B2   KE= 3.583511466845D+02
 No NMR shielding tensors so no spin-rotation constants.
 Leave Link  601 at Wed May 13 12:10:41 2020, MaxMem= 1073741824 cpu:       0.6
 (Enter /home/matheus/.gaussian/g09/l122.exe)
 Restoring MOs from calculation   1 to rwf.
 Counterpoise: corrected energy =   -2904.952305530253
 Counterpoise: BSSE energy =       0.000000004870
 Leave Link  122 at Wed May 13 12:10:41 2020, MaxMem= 1073741824 cpu:       0.0
 (Enter /home/matheus/.gaussian/g09/l9999.exe)
 1\1\GINC-REDGIANT\SP\RLC-wPBE\Aug-CC-pVTZ\H2Kr1O2\ROOT\13-May-2020\0\\
 #p lc-wpbe/aug-cc-PVTz int=ultrafine counterpoise=2\\TCC\\0,1\O,0,0.,0
 .,0.725\O,0,0.,0.,-0.725\H,0,0.,0.9187205947,1.0235104166\H,0,0.,0.918
 7205947,-1.0235104166\Kr,0,0.,15.,0.\\Version=EM64L-G09RevC.01\State=1
 -A1\HF=-2753.4356328\RMSD=1.446e-09\Dipole=0.,1.2374769,0.\Quadrupole=
 13.8959554,-29.681928,15.7859726,0.,0.,0.\PG=C02V [C2(Kr1),SGV(H2O2)]\
 \@


 TRUTH, IN SCIENCE, CAN BE DEFINED AS THE WORKING HYPOTHESIS 
 BEST FITTED TO OPEN THE WAY TO THE NEXT BETTER ONE.

                              -- KONRAD LORENZ
 Job cpu time:  0 days  0 hours  6 minutes 32.5 seconds.
 File lengths (MBytes):  RWF=     33 Int=      0 D2E=      0 Chk=      6 Scr=      1
 Normal termination of Gaussian 09 at Wed May 13 12:10:41 2020.
