 Entering Gaussian System, Link 0=g09
 Input=/home/matheus/.tcc/Inputs/Inputs-lc-wpbe-default/H2O2-Kr_28.com
 Output=/home/matheus/.tcc/Logs/Logs-lc-wpbe-default/H2O2-Kr_28.log
 Initial command:
 /home/matheus/.gaussian/g09/l1.exe /home/matheus/.gaussian/g09/scratch/Gau-30663.inp -scrdir=/home/matheus/.gaussian/g09/scratch/
 Entering Link 1 = /home/matheus/.gaussian/g09/l1.exe PID=     30667.
  
 Copyright (c) 1988,1990,1992,1993,1995,1998,2003,2009,2011,
            Gaussian, Inc.  All Rights Reserved.
  
 This is part of the Gaussian(R) 09 program.  It is based on
 the Gaussian(R) 03 system (copyright 2003, Gaussian, Inc.),
 the Gaussian(R) 98 system (copyright 1998, Gaussian, Inc.),
 the Gaussian(R) 94 system (copyright 1995, Gaussian, Inc.),
 the Gaussian 92(TM) system (copyright 1992, Gaussian, Inc.),
 the Gaussian 90(TM) system (copyright 1990, Gaussian, Inc.),
 the Gaussian 88(TM) system (copyright 1988, Gaussian, Inc.),
 the Gaussian 86(TM) system (copyright 1986, Carnegie Mellon
 University), and the Gaussian 82(TM) system (copyright 1983,
 Carnegie Mellon University). Gaussian is a federally registered
 trademark of Gaussian, Inc.
  
 This software contains proprietary and confidential information,
 including trade secrets, belonging to Gaussian, Inc.
  
 This software is provided under written license and may be
 used, copied, transmitted, or stored only in accord with that
 written license.
  
 The following legend is applicable only to US Government
 contracts under FAR:
  
                    RESTRICTED RIGHTS LEGEND
  
 Use, reproduction and disclosure by the US Government is
 subject to restrictions as set forth in subparagraphs (a)
 and (c) of the Commercial Computer Software - Restricted
 Rights clause in FAR 52.227-19.
  
 Gaussian, Inc.
 340 Quinnipiac St., Bldg. 40, Wallingford CT 06492
  
  
 ---------------------------------------------------------------
 Warning -- This program may not be used in any manner that
 competes with the business of Gaussian, Inc. or will provide
 assistance to any competitor of Gaussian, Inc.  The licensee
 of this program is prohibited from giving any competitor of
 Gaussian, Inc. access to this program.  By using this program,
 the user acknowledges that Gaussian, Inc. is engaged in the
 business of creating and licensing software in the field of
 computational chemistry and represents and warrants to the
 licensee that it is not a competitor of Gaussian, Inc. and that
 it will not use this program in any manner prohibited above.
 ---------------------------------------------------------------
  

 Cite this work as:
 Gaussian 09, Revision C.01,
 M. J. Frisch, G. W. Trucks, H. B. Schlegel, G. E. Scuseria, 
 M. A. Robb, J. R. Cheeseman, G. Scalmani, V. Barone, B. Mennucci, 
 G. A. Petersson, H. Nakatsuji, M. Caricato, X. Li, H. P. Hratchian, 
 A. F. Izmaylov, J. Bloino, G. Zheng, J. L. Sonnenberg, M. Hada, 
 M. Ehara, K. Toyota, R. Fukuda, J. Hasegawa, M. Ishida, T. Nakajima, 
 Y. Honda, O. Kitao, H. Nakai, T. Vreven, J. A. Montgomery, Jr., 
 J. E. Peralta, F. Ogliaro, M. Bearpark, J. J. Heyd, E. Brothers, 
 K. N. Kudin, V. N. Staroverov, T. Keith, R. Kobayashi, J. Normand, 
 K. Raghavachari, A. Rendell, J. C. Burant, S. S. Iyengar, J. Tomasi, 
 M. Cossi, N. Rega, J. M. Millam, M. Klene, J. E. Knox, J. B. Cross, 
 V. Bakken, C. Adamo, J. Jaramillo, R. Gomperts, R. E. Stratmann, 
 O. Yazyev, A. J. Austin, R. Cammi, C. Pomelli, J. W. Ochterski, 
 R. L. Martin, K. Morokuma, V. G. Zakrzewski, G. A. Voth, 
 P. Salvador, J. J. Dannenberg, S. Dapprich, A. D. Daniels, 
 O. Farkas, J. B. Foresman, J. V. Ortiz, J. Cioslowski, 
 and D. J. Fox, Gaussian, Inc., Wallingford CT, 2010.
 
 ******************************************
 Gaussian 09:  EM64L-G09RevC.01 23-Sep-2011
                12-May-2020 
 ******************************************
 %mem=8GB
 %nproc=8
 Will use up to    8 processors via shared memory.
 --------------------------------------------------------
 #p lc-wpbe/aug-cc-PVTz int=ultrafine counterpoise=2 Scan
 --------------------------------------------------------
 1/38=1,60=1,62=2/1,8;
 2/12=2,17=6,18=5,29=3,40=1/2;
 1/38=1,53=5172,62=2/22;
 3/5=16,6=1,7=10,11=2,16=1,25=1,30=1,74=-41,75=-5/1,2,3;
 4//1;
 5/5=2,38=5/2;
 6/7=2,8=2,9=2,10=2,18=1,28=1/1;
 1/53=4052,62=2,63=1/22;
 3/5=7,6=11,7=10,11=2,16=1,25=1,30=1,74=-41,75=-5,82=7/1,2,3;
 4//1;
 5/5=2,38=5/2;
 6/7=2,8=2,9=2,10=2,18=1,28=1/1;
 1/53=3042,62=2,63=2/22;
 3/5=7,6=11,7=10,11=2,16=1,25=1,30=1,74=-41,75=-5,82=7/1,2,3;
 4//1;
 5/5=2,38=5/2;
 6/7=2,8=2,9=2,10=2,18=1,28=1/1;
 1/53=2032,62=2,63=3/22;
 3/5=7,6=11,7=10,11=2,16=1,25=1,30=1,74=-41,75=-5,82=7/1,2,3;
 4//1;
 5/5=2,38=5/2;
 6/7=2,8=2,9=2,10=2,18=1,28=1/1;
 1/53=1022,62=2,63=4/22;
 3/5=7,6=11,7=10,11=2,16=1,25=1,30=1,74=-41,75=-5,82=7/1,2,3;
 4//1;
 5/5=2,38=5/2;
 6/7=2,8=2,9=2,10=2,18=1,28=1/1;
 1/53=5014,62=2,63=5/22;
 1/60=1,62=2/8(1);
 99/9=1/99;
 2/29=3/2;
 1/53=5173,62=2/22;
 3/5=7,6=11,7=10,11=2,16=1,25=1,30=1,74=-41,75=-5,82=7/1,2,3;
 4/5=5,16=3/1;
 5/5=2,38=5/2;
 1/53=4053,62=2,63=1/22;
 3/5=7,6=11,7=10,11=2,16=1,25=1,30=1,74=-41,75=-5,82=7/1,2,3;
 4/5=5,16=3/1;
 5/5=2,38=5/2;
 1/53=3043,62=2,63=2/22;
 3/5=7,6=11,7=10,11=2,16=1,25=1,30=1,74=-41,75=-5,82=7/1,2,3;
 4/5=5,16=3/1;
 5/5=2,38=5/2;
 1/53=2033,62=2,63=3/22;
 3/5=7,6=11,7=10,11=2,16=1,25=1,30=1,74=-41,75=-5,82=7/1,2,3;
 4/5=5,16=3/1;
 5/5=2,38=5/2;
 1/53=1024,62=2,63=4/22;
 3/5=7,6=11,7=10,11=2,16=1,25=1,30=1,74=-41,75=-5,82=7/1,2,3;
 4/5=5,16=3/1;
 5/5=2,38=5/2;
 1/53=5014,62=2,63=5/22;
 1/60=1,62=2/8(-22);
 99/9=1/99;
 Leave Link    1 at Tue May 12 20:29:59 2020, MaxMem= 1073741824 cpu:       0.1
 (Enter /home/matheus/.gaussian/g09/l101.exe)
 ---
 TCC
 ---
 Charge =  0 Multiplicity = 1 in supermolecule
 Charge =  0 Multiplicity = 1 in fragment  1.
 Charge =  0 Multiplicity = 1 in fragment  2.
 Symbolic Z-Matrix:
 O(Fragment=1)         0.        0.        0.725 
 O(Fragment=1)         0.        0.       -0.725 
 H(Fragment=1)        -0.90476   0.15953   1.02351 
 H(Fragment=1)         0.        0.91872  -1.02351 
 Kr(Fragment=2)        0.       R1        0. 
       Variables:
  R1                    3.     Scan 20    0.1    
 
 NAtoms=      5 NQM=        0 NQMF=       0 NMMI=      5 NMMIF=      0
                NMic=       0 NMicF=      0.
                    Isotopes and Nuclear Properties:
 (Nuclear quadrupole moments (NQMom) in fm**2, nuclear magnetic moments (NMagM)
  in nuclear magnetons)

  Atom         1           2           3           4           5
 IAtWgt=          16          16           1           1          84
 AtmWgt=  15.9949146  15.9949146   1.0078250   1.0078250  83.9115064
 NucSpn=           0           0           1           1           0
 AtZEff=   0.0000000   0.0000000   0.0000000   0.0000000   0.0000000
 NQMom=    0.0000000   0.0000000   0.0000000   0.0000000   0.0000000
 NMagM=    0.0000000   0.0000000   2.7928460   2.7928460   0.0000000
 Leave Link  101 at Tue May 12 20:29:59 2020, MaxMem= 1073741824 cpu:       0.3
 (Enter /home/matheus/.gaussian/g09/l108.exe)
 Scan the potential surface.
 Variable   Value     No. Steps Step-Size
 -------- ----------- --------- ---------
     1       3.000000      20      0.1000
 A total of     21 points will be computed.
 Leave Link  108 at Tue May 12 20:29:59 2020, MaxMem= 1073741824 cpu:       0.0
 (Enter /home/matheus/.gaussian/g09/l202.exe)
 ---------------------------------------------------------------------------------------------------
                            Z-MATRIX (ANGSTROMS AND DEGREES)
   CD    Cent   Atom    N1       Length/X        N2       Alpha/Y        N3        Beta/Z          J
 ---------------------------------------------------------------------------------------------------
      1      1  O        0   0.000000          0.000000          0.725000
      2      2  O        0   0.000000          0.000000         -0.725000
      3      3  H        0  -0.904763          0.159534          1.023510
      4      4  H        0   0.000000          0.918721         -1.023510
      5      5  Kr       0   0.000000          3.000000          0.000000
 ---------------------------------------------------------------------------------------------------
                         Z-Matrix orientation:                         
 ---------------------------------------------------------------------
 Center     Atomic      Atomic             Coordinates (Angstroms)
 Number     Number       Type             X           Y           Z
 ---------------------------------------------------------------------
      1          8           0        0.000000    0.000000    0.725000
      2          8           0        0.000000    0.000000   -0.725000
      3          1           0       -0.904763    0.159534    1.023510
      4          1           0        0.000000    0.918721   -1.023510
      5         36           0        0.000000    3.000000    0.000000
 ---------------------------------------------------------------------
                    Distance matrix (angstroms):
                    1          2          3          4          5
     1  O    0.000000
     2  O    1.450000   0.000000
     3  H    0.966000   1.975180   0.000000
     4  H    1.975180   0.966000   2.363314   0.000000
     5  Kr   3.086361   3.086361   3.151891   2.319331   0.000000
 Stoichiometry    H2KrO2
 Framework group  C1[X(H2KrO2)]
 Deg. of freedom     9
 Full point group                 C1      NOp   1
 Largest Abelian subgroup         C1      NOp   1
 Largest concise Abelian subgroup C1      NOp   1
                         Standard orientation:                         
 ---------------------------------------------------------------------
 Center     Atomic      Atomic             Coordinates (Angstroms)
 Number     Number       Type             X           Y           Z
 ---------------------------------------------------------------------
      1          8           0       -2.025459   -0.700316   -0.115097
      2          8           0       -2.013251    0.743386    0.019343
      3          1           0       -1.883208   -1.082864    0.760447
      4          1           0       -1.092171    1.031511    0.061209
      5         36           0        0.980140   -0.008145   -0.001545
 ---------------------------------------------------------------------
 Rotational constants (GHZ):     25.6204873      2.3529019      2.1689661
 Leave Link  202 at Tue May 12 20:29:59 2020, MaxMem= 1073741824 cpu:       0.0
 (Enter /home/matheus/.gaussian/g09/l122.exe)
 Leave Link  122 at Tue May 12 20:29:59 2020, MaxMem= 1073741824 cpu:       0.0
 (Enter /home/matheus/.gaussian/g09/l301.exe)
 Standard basis: Aug-CC-pVTZ (5D, 7F)
 Ernie: Thresh=  0.10000D-02 Tol=  0.10000D-05 Strict=F.
 Ernie:  38 primitive shells out of 205 were deleted.
 There are   197 symmetry adapted basis functions of A   symmetry.
 Integral buffers will be    131072 words long.
 Raffenetti 2 integral format.
 Two-electron integral symmetry is turned on.
   197 basis functions,   415 primitive gaussians,   229 cartesian basis functions
    27 alpha electrons       27 beta electrons
       nuclear repulsion energy       149.6490473971 Hartrees.
 IExCor=32609 DFT=T Ex+Corr=LC-wPBE ExCW=0 ScaHFX=  1.000000
 ScaDFX=  1.000000  0.000000  1.000000  1.000000 ScalE2=  1.000000  1.000000
 IRadAn=      5 IRanWt=     -1 IRanGd=            0 ICorTp=0
  HFx wShort=  0.000000 wLong=  0.400000 cFull=  0.000000 cShort=  0.000000 cLong=  1.000000
  DFx wShort=  0.000000 wLong=  0.400000 cFull=  0.000000 cShort=  0.000000 cLong=  1.000000
 NAtoms=    5 NActive=    5 NUniq=    5 SFac= 1.00D+00 NAtFMM=   60 NAOKFM=F Big=F
 Leave Link  301 at Tue May 12 20:29:59 2020, MaxMem= 1073741824 cpu:       0.2
 (Enter /home/matheus/.gaussian/g09/l302.exe)
 NPDir=0 NMtPBC=     1 NCelOv=     1 NCel=       1 NClECP=     1 NCelD=      1
         NCelK=      1 NCelE2=     1 NClLst=     1 CellRange=     0.0.
 One-electron integrals computed using PRISM.
 NBasis=   197 RedAO= T  NBF=   197
 NBsUse=   197 1.00D-06 NBFU=   197
 Precomputing XC quadrature grid using
 IXCGrd= 2 IRadAn=           5 IRanWt=          -1 IRanGd=           0 AccXCQ= 0.00D+00.
 NRdTot=     427 NPtTot=      123512 NUsed=      126579 NTot=      126611
 NSgBfM=   229   229   229   229   229 NAtAll=     5     5.
 Leave Link  302 at Tue May 12 20:29:59 2020, MaxMem= 1073741824 cpu:       0.9
 (Enter /home/matheus/.gaussian/g09/l303.exe)
 DipDrv:  MaxL=1.
 Leave Link  303 at Tue May 12 20:29:59 2020, MaxMem= 1073741824 cpu:       0.2
 (Enter /home/matheus/.gaussian/g09/l401.exe)
 Harris functional with IExCor=32609 diagonalized for initial guess.
 ExpMin= 2.53D-02 ExpMax= 1.17D+07 ExpMxC= 1.33D+04 IAcc=3 IRadAn=         5 AccDes= 0.00D+00
 HarFok:  IExCor=32609 AccDes= 0.00D+00 IRadAn=         5 IDoV= 1
 ScaDFX=  1.000000  1.000000  1.000000  1.000000
 FoFCou: FMM=F IPFlag=           0 FMFlag=      100000 FMFlg1=           0
         NFxFlg=           0 DoJE=T BraDBF=F KetDBF=T FulRan=T
         Omega=  0.000000  0.000000  1.000000  0.000000  0.000000 ICntrl=     500 IOpCl=  0
         NMat0=    1 NMatS0=    1 NMatT0=    0 NMatD0=    1 NMtDS0=    0 NMtDT0=    0
         I1Cent=           4 NGrid=           0.
 Petite list used in FoFCou.
 Harris En= -2904.73926553181    
 Initial guess orbital symmetries:
       Occupied  (A) (A) (A) (A) (A) (A) (A) (A) (A) (A) (A) (A)
                 (A) (A) (A) (A) (A) (A) (A) (A) (A) (A) (A) (A)
                 (A) (A) (A)
       Virtual   (A) (A) (A) (A) (A) (A) (A) (A) (A) (A) (A) (A)
                 (A) (A) (A) (A) (A) (A) (A) (A) (A) (A) (A) (A)
                 (A) (A) (A) (A) (A) (A) (A) (A) (A) (A) (A) (A)
                 (A) (A) (A) (A) (A) (A) (A) (A) (A) (A) (A) (A)
                 (A) (A) (A) (A) (A) (A) (A) (A) (A) (A) (A) (A)
                 (A) (A) (A) (A) (A) (A) (A) (A) (A) (A) (A) (A)
                 (A) (A) (A) (A) (A) (A) (A) (A) (A) (A) (A) (A)
                 (A) (A) (A) (A) (A) (A) (A) (A) (A) (A) (A) (A)
                 (A) (A) (A) (A) (A) (A) (A) (A) (A) (A) (A) (A)
                 (A) (A) (A) (A) (A) (A) (A) (A) (A) (A) (A) (A)
                 (A) (A) (A) (A) (A) (A) (A) (A) (A) (A) (A) (A)
                 (A) (A) (A) (A) (A) (A) (A) (A) (A) (A) (A) (A)
                 (A) (A) (A) (A) (A) (A) (A) (A) (A) (A) (A) (A)
                 (A) (A) (A) (A) (A) (A) (A) (A) (A) (A) (A) (A)
                 (A) (A)
 The electronic state of the initial guess is 1-A.
 Leave Link  401 at Tue May 12 20:30:00 2020, MaxMem= 1073741824 cpu:       3.9
 (Enter /home/matheus/.gaussian/g09/l502.exe)
 Closed shell SCF:
 Requested convergence on RMS density matrix=1.00D-08 within 128 cycles.
 Requested convergence on MAX density matrix=1.00D-06.
 Requested convergence on             energy=1.00D-06.
 No special actions if energy rises.
 Using DIIS extrapolation, IDIIS=  1040.
 Integral symmetry usage will be decided dynamically.
       126521 words used for storage of precomputed grid.
 IEnd=      305468 IEndB=      305468 NGot=  1073741824 MDV=  1073505667
 LenX=  1073505667 LenY=  1073452785
 Fock matrices will be formed incrementally for  20 cycles.

 Cycle   1  Pass 1  IDiag  1:
 FoFJK:  IHMeth= 1 ICntrl=     0 DoSepK=T KAlg= 1 I1Cent= 0 FoldK=F
 FoFCou: FMM=F IPFlag=           0 FMFlag=      100000 FMFlg1=           0
         NFxFlg=           0 DoJE=T BraDBF=F KetDBF=F FulRan=T
         Omega=  0.000000  0.000000  1.000000  0.000000  0.000000 ICntrl=     500 IOpCl=  0
         NMat0=    1 NMatS0=    1 NMatT0=    0 NMatD0=    1 NMtDS0=    0 NMtDT0=    0
         I1Cent=           0 NGrid=           0.
 Symmetry not used in FoFCou.
 E= -2904.88222131612    
 DIIS: error= 2.34D-02 at cycle   1 NSaved=   1.
 NSaved= 1 IEnMin= 1 EnMin= -2904.88222131612     IErMin= 1 ErrMin= 2.34D-02
 ErrMax= 2.34D-02 EMaxC= 1.00D-01 BMatC= 2.62D-01 BMatP= 2.62D-01
 IDIUse=3 WtCom= 7.66D-01 WtEn= 2.34D-01
 Coeff-Com:  0.100D+01
 Coeff-En:   0.100D+01
 Coeff:      0.100D+01
 Gap=     0.514 Goal=   None    Shift=    0.000
 GapD=    0.514 DampG=2.000 DampE=0.500 DampFc=1.0000 IDamp=-1.
 RMSDP=2.27D-03 MaxDP=1.47D-01              OVMax= 6.00D-02

 Cycle   2  Pass 1  IDiag  1:
 RMSU=  1.58D-03    CP:  1.02D+00
 FoFJK:  IHMeth= 1 ICntrl=     0 DoSepK=T KAlg= 1 I1Cent= 0 FoldK=F
 E= -2904.92591922975     Delta-E=       -0.043697913634 Rises=F Damp=F
 DIIS: error= 9.75D-03 at cycle   2 NSaved=   2.
 NSaved= 2 IEnMin= 2 EnMin= -2904.92591922975     IErMin= 2 ErrMin= 9.75D-03
 ErrMax= 9.75D-03 EMaxC= 1.00D-01 BMatC= 7.90D-02 BMatP= 2.62D-01
 IDIUse=3 WtCom= 9.02D-01 WtEn= 9.75D-02
 Coeff-Com:  0.347D+00 0.653D+00
 Coeff-En:   0.194D+00 0.806D+00
 Coeff:      0.332D+00 0.668D+00
 Gap=     0.464 Goal=   None    Shift=    0.000
 RMSDP=9.34D-04 MaxDP=5.06D-02 DE=-4.37D-02 OVMax= 3.07D-02

 Cycle   3  Pass 1  IDiag  1:
 RMSU=  3.22D-04    CP:  1.01D+00  6.46D-01
 FoFJK:  IHMeth= 1 ICntrl=     0 DoSepK=T KAlg= 1 I1Cent= 0 FoldK=F
 E= -2904.95417831685     Delta-E=       -0.028259087099 Rises=F Damp=F
 DIIS: error= 2.15D-03 at cycle   3 NSaved=   3.
 NSaved= 3 IEnMin= 3 EnMin= -2904.95417831685     IErMin= 3 ErrMin= 2.15D-03
 ErrMax= 2.15D-03 EMaxC= 1.00D-01 BMatC= 1.81D-03 BMatP= 7.90D-02
 IDIUse=3 WtCom= 9.79D-01 WtEn= 2.15D-02
 Coeff-Com:  0.659D-01 0.196D+00 0.738D+00
 Coeff-En:   0.000D+00 0.000D+00 0.100D+01
 Coeff:      0.645D-01 0.192D+00 0.743D+00
 Gap=     0.445 Goal=   None    Shift=    0.000
 RMSDP=1.20D-04 MaxDP=3.13D-03 DE=-2.83D-02 OVMax= 8.01D-03

 Cycle   4  Pass 1  IDiag  1:
 RMSU=  6.37D-05    CP:  1.01D+00  6.73D-01  8.89D-01
 FoFJK:  IHMeth= 1 ICntrl=     0 DoSepK=T KAlg= 1 I1Cent= 0 FoldK=F
 E= -2904.95514828797     Delta-E=       -0.000969971125 Rises=F Damp=F
 DIIS: error= 4.98D-04 at cycle   4 NSaved=   4.
 NSaved= 4 IEnMin= 4 EnMin= -2904.95514828797     IErMin= 4 ErrMin= 4.98D-04
 ErrMax= 4.98D-04 EMaxC= 1.00D-01 BMatC= 1.45D-04 BMatP= 1.81D-03
 IDIUse=3 WtCom= 9.95D-01 WtEn= 4.98D-03
 Coeff-Com: -0.172D-02 0.264D-01 0.280D+00 0.695D+00
 Coeff-En:   0.000D+00 0.000D+00 0.000D+00 0.100D+01
 Coeff:     -0.171D-02 0.263D-01 0.279D+00 0.697D+00
 Gap=     0.450 Goal=   None    Shift=    0.000
 RMSDP=3.62D-05 MaxDP=2.06D-03 DE=-9.70D-04 OVMax= 1.93D-03

 Cycle   5  Pass 1  IDiag  1:
 RMSU=  1.28D-05    CP:  1.01D+00  6.77D-01  9.46D-01  8.26D-01
 FoFJK:  IHMeth= 1 ICntrl=     0 DoSepK=T KAlg= 1 I1Cent= 0 FoldK=F
 E= -2904.95522947374     Delta-E=       -0.000081185766 Rises=F Damp=F
 DIIS: error= 8.52D-05 at cycle   5 NSaved=   5.
 NSaved= 5 IEnMin= 5 EnMin= -2904.95522947374     IErMin= 5 ErrMin= 8.52D-05
 ErrMax= 8.52D-05 EMaxC= 1.00D-01 BMatC= 3.08D-06 BMatP= 1.45D-04
 IDIUse=1 WtCom= 1.00D+00 WtEn= 0.00D+00
 Coeff-Com: -0.202D-02 0.151D-02 0.521D-01 0.186D+00 0.762D+00
 Coeff:     -0.202D-02 0.151D-02 0.521D-01 0.186D+00 0.762D+00
 Gap=     0.450 Goal=   None    Shift=    0.000
 RMSDP=7.08D-06 MaxDP=2.30D-04 DE=-8.12D-05 OVMax= 5.52D-04

 Cycle   6  Pass 1  IDiag  1:
 RMSU=  4.47D-06    CP:  1.01D+00  6.77D-01  9.47D-01  8.61D-01  1.02D+00
 FoFJK:  IHMeth= 1 ICntrl=     0 DoSepK=T KAlg= 1 I1Cent= 0 FoldK=F
 E= -2904.95523107680     Delta-E=       -0.000001603061 Rises=F Damp=F
 DIIS: error= 5.72D-05 at cycle   6 NSaved=   6.
 NSaved= 6 IEnMin= 6 EnMin= -2904.95523107680     IErMin= 6 ErrMin= 5.72D-05
 ErrMax= 5.72D-05 EMaxC= 1.00D-01 BMatC= 1.20D-06 BMatP= 3.08D-06
 IDIUse=1 WtCom= 1.00D+00 WtEn= 0.00D+00
 Coeff-Com: -0.704D-03-0.309D-02-0.149D-01-0.572D-02 0.392D+00 0.632D+00
 Coeff:     -0.704D-03-0.309D-02-0.149D-01-0.572D-02 0.392D+00 0.632D+00
 Gap=     0.450 Goal=   None    Shift=    0.000
 RMSDP=3.53D-06 MaxDP=1.22D-04 DE=-1.60D-06 OVMax= 2.43D-04

 Cycle   7  Pass 1  IDiag  1:
 RMSU=  1.79D-06    CP:  1.01D+00  6.77D-01  9.47D-01  8.75D-01  1.13D+00
                    CP:  8.64D-01
 FoFJK:  IHMeth= 1 ICntrl=     0 DoSepK=T KAlg= 1 I1Cent= 0 FoldK=F
 E= -2904.95523194843     Delta-E=       -0.000000871623 Rises=F Damp=F
 DIIS: error= 1.12D-05 at cycle   7 NSaved=   7.
 NSaved= 7 IEnMin= 7 EnMin= -2904.95523194843     IErMin= 7 ErrMin= 1.12D-05
 ErrMax= 1.12D-05 EMaxC= 1.00D-01 BMatC= 4.76D-08 BMatP= 1.20D-06
 IDIUse=1 WtCom= 1.00D+00 WtEn= 0.00D+00
 Coeff-Com: -0.631D-05-0.117D-02-0.108D-01-0.241D-01 0.997D-02 0.177D+00
 Coeff-Com:  0.849D+00
 Coeff:     -0.631D-05-0.117D-02-0.108D-01-0.241D-01 0.997D-02 0.177D+00
 Coeff:      0.849D+00
 Gap=     0.450 Goal=   None    Shift=    0.000
 RMSDP=1.14D-06 MaxDP=4.12D-05 DE=-8.72D-07 OVMax= 7.78D-05

 Cycle   8  Pass 1  IDiag  1:
 RMSU=  3.55D-07    CP:  1.01D+00  6.77D-01  9.48D-01  8.80D-01  1.16D+00
                    CP:  9.76D-01  1.05D+00
 FoFJK:  IHMeth= 1 ICntrl=     0 DoSepK=T KAlg= 1 I1Cent= 0 FoldK=F
 E= -2904.95523198398     Delta-E=       -0.000000035555 Rises=F Damp=F
 DIIS: error= 1.61D-06 at cycle   8 NSaved=   8.
 NSaved= 8 IEnMin= 8 EnMin= -2904.95523198398     IErMin= 8 ErrMin= 1.61D-06
 ErrMax= 1.61D-06 EMaxC= 1.00D-01 BMatC= 7.36D-10 BMatP= 4.76D-08
 IDIUse=1 WtCom= 1.00D+00 WtEn= 0.00D+00
 Coeff-Com:  0.307D-04 0.272D-03 0.193D-02 0.344D-02-0.146D-01-0.476D-01
 Coeff-Com: -0.122D+00 0.118D+01
 Coeff:      0.307D-04 0.272D-03 0.193D-02 0.344D-02-0.146D-01-0.476D-01
 Coeff:     -0.122D+00 0.118D+01
 Gap=     0.450 Goal=   None    Shift=    0.000
 RMSDP=3.13D-07 MaxDP=9.81D-06 DE=-3.56D-08 OVMax= 2.84D-05

 Cycle   9  Pass 1  IDiag  1:
 RMSU=  8.65D-08    CP:  1.01D+00  6.77D-01  9.48D-01  8.80D-01  1.16D+00
                    CP:  9.92D-01  1.10D+00  1.37D+00
 FoFJK:  IHMeth= 1 ICntrl=     0 DoSepK=T KAlg= 1 I1Cent= 0 FoldK=F
 E= -2904.95523196948     Delta-E=        0.000000014498 Rises=F Damp=F
 DIIS: error= 4.52D-07 at cycle   9 NSaved=   9.
 NSaved= 9 IEnMin= 8 EnMin= -2904.95523198398     IErMin= 9 ErrMin= 4.52D-07
 ErrMax= 4.52D-07 EMaxC= 1.00D-01 BMatC= 4.12D-11 BMatP= 7.36D-10
 IDIUse=1 WtCom= 1.00D+00 WtEn= 0.00D+00
 Coeff-Com: -0.183D-05 0.396D-04 0.405D-03 0.108D-02-0.188D-03-0.758D-02
 Coeff-Com: -0.381D-01 0.509D-02 0.104D+01
 Coeff:     -0.183D-05 0.396D-04 0.405D-03 0.108D-02-0.188D-03-0.758D-02
 Coeff:     -0.381D-01 0.509D-02 0.104D+01
 Gap=     0.450 Goal=   None    Shift=    0.000
 RMSDP=6.07D-08 MaxDP=2.17D-06 DE= 1.45D-08 OVMax= 6.83D-06

 Cycle  10  Pass 1  IDiag  1:
 RMSU=  2.10D-08    CP:  1.01D+00  6.77D-01  9.48D-01  8.80D-01  1.16D+00
                    CP:  9.93D-01  1.11D+00  1.44D+00  1.23D+00
 FoFJK:  IHMeth= 1 ICntrl=     0 DoSepK=T KAlg= 1 I1Cent= 0 FoldK=F
 E= -2904.95523196960     Delta-E=       -0.000000000117 Rises=F Damp=F
 DIIS: error= 1.18D-07 at cycle  10 NSaved=  10.
 NSaved=10 IEnMin= 8 EnMin= -2904.95523198398     IErMin=10 ErrMin= 1.18D-07
 ErrMax= 1.18D-07 EMaxC= 1.00D-01 BMatC= 3.23D-12 BMatP= 4.12D-11
 IDIUse=1 WtCom= 1.00D+00 WtEn= 0.00D+00
 Coeff-Com: -0.185D-05-0.156D-04-0.115D-03-0.198D-03 0.104D-02 0.306D-02
 Coeff-Com:  0.617D-02-0.791D-01 0.435D-01 0.103D+01
 Coeff:     -0.185D-05-0.156D-04-0.115D-03-0.198D-03 0.104D-02 0.306D-02
 Coeff:      0.617D-02-0.791D-01 0.435D-01 0.103D+01
 Gap=     0.450 Goal=   None    Shift=    0.000
 RMSDP=1.84D-08 MaxDP=8.99D-07 DE=-1.17D-10 OVMax= 2.09D-06

 Cycle  11  Pass 1  IDiag  1:
 RMSU=  5.93D-09    CP:  1.01D+00  6.77D-01  9.48D-01  8.80D-01  1.16D+00
                    CP:  9.92D-01  1.11D+00  1.45D+00  1.32D+00  1.27D+00
 FoFJK:  IHMeth= 1 ICntrl=     0 DoSepK=T KAlg= 1 I1Cent= 0 FoldK=F
 E= -2904.95523196960     Delta-E=       -0.000000000002 Rises=F Damp=F
 DIIS: error= 3.33D-08 at cycle  11 NSaved=  11.
 NSaved=11 IEnMin= 8 EnMin= -2904.95523198398     IErMin=11 ErrMin= 3.33D-08
 ErrMax= 3.33D-08 EMaxC= 1.00D-01 BMatC= 2.86D-13 BMatP= 3.23D-12
 IDIUse=1 WtCom= 1.00D+00 WtEn= 0.00D+00
 Coeff-Com:  0.131D-06-0.348D-05-0.354D-04-0.986D-04 0.825D-04 0.826D-03
 Coeff-Com:  0.311D-02-0.602D-02-0.696D-01 0.399D-01 0.103D+01
 Coeff:      0.131D-06-0.348D-05-0.354D-04-0.986D-04 0.825D-04 0.826D-03
 Coeff:      0.311D-02-0.602D-02-0.696D-01 0.399D-01 0.103D+01
 Gap=     0.450 Goal=   None    Shift=    0.000
 RMSDP=5.65D-09 MaxDP=2.03D-07 DE=-1.82D-12 OVMax= 6.55D-07

 SCF Done:  E(RLC-wPBE) =  -2904.95523197     A.U. after   11 cycles
             Convg  =    0.5652D-08             -V/T =  2.0017
 KE= 2.900052140506D+03 PE=-7.235885421597D+03 EE= 1.281229001725D+03
 Leave Link  502 at Tue May 12 20:30:33 2020, MaxMem= 1073741824 cpu:     269.2
 (Enter /home/matheus/.gaussian/g09/l601.exe)
 Copying SCF densities to generalized density rwf, IOpCl= 0 IROHF=0.

 **********************************************************************

            Population analysis using the SCF density.

 **********************************************************************

 Orbital symmetries:
       Occupied  (A) (A) (A) (A) (A) (A) (A) (A) (A) (A) (A) (A)
                 (A) (A) (A) (A) (A) (A) (A) (A) (A) (A) (A) (A)
                 (A) (A) (A)
       Virtual   (A) (A) (A) (A) (A) (A) (A) (A) (A) (A) (A) (A)
                 (A) (A) (A) (A) (A) (A) (A) (A) (A) (A) (A) (A)
                 (A) (A) (A) (A) (A) (A) (A) (A) (A) (A) (A) (A)
                 (A) (A) (A) (A) (A) (A) (A) (A) (A) (A) (A) (A)
                 (A) (A) (A) (A) (A) (A) (A) (A) (A) (A) (A) (A)
                 (A) (A) (A) (A) (A) (A) (A) (A) (A) (A) (A) (A)
                 (A) (A) (A) (A) (A) (A) (A) (A) (A) (A) (A) (A)
                 (A) (A) (A) (A) (A) (A) (A) (A) (A) (A) (A) (A)
                 (A) (A) (A) (A) (A) (A) (A) (A) (A) (A) (A) (A)
                 (A) (A) (A) (A) (A) (A) (A) (A) (A) (A) (A) (A)
                 (A) (A) (A) (A) (A) (A) (A) (A) (A) (A) (A) (A)
                 (A) (A) (A) (A) (A) (A) (A) (A) (A) (A) (A) (A)
                 (A) (A) (A) (A) (A) (A) (A) (A) (A) (A) (A) (A)
                 (A) (A) (A) (A) (A) (A) (A) (A) (A) (A) (A) (A)
                 (A) (A)
 The electronic state is 1-A.
 Alpha  occ. eigenvalues -- -511.12413 -66.67105 -60.33329 -60.33313 -60.33303
 Alpha  occ. eigenvalues --  -19.03636 -19.03290  -9.60387  -7.34851  -7.34804
 Alpha  occ. eigenvalues --   -7.34775  -3.30389  -3.30381  -3.30360  -3.30325
 Alpha  occ. eigenvalues --   -3.30322  -1.25422  -1.05283  -1.03839  -0.69610
 Alpha  occ. eigenvalues --   -0.60247  -0.55907  -0.52320  -0.51962  -0.50959
 Alpha  occ. eigenvalues --   -0.43992  -0.41922
 Alpha virt. eigenvalues --    0.03098   0.04119   0.08247   0.09346   0.10273
 Alpha virt. eigenvalues --    0.11398   0.13300   0.13932   0.17185   0.17793
 Alpha virt. eigenvalues --    0.18224   0.19239   0.20264   0.22188   0.23863
 Alpha virt. eigenvalues --    0.24798   0.26157   0.28455   0.31294   0.32478
 Alpha virt. eigenvalues --    0.33841   0.35531   0.37378   0.38936   0.39499
 Alpha virt. eigenvalues --    0.40861   0.43068   0.47701   0.53183   0.54997
 Alpha virt. eigenvalues --    0.55913   0.60599   0.61846   0.64672   0.68557
 Alpha virt. eigenvalues --    0.71342   0.72042   0.73912   0.75713   0.75876
 Alpha virt. eigenvalues --    0.77276   0.77704   0.79187   0.81098   0.83263
 Alpha virt. eigenvalues --    0.84261   0.87071   0.89062   0.90677   0.91418
 Alpha virt. eigenvalues --    0.92315   0.93265   0.95441   0.96143   0.98637
 Alpha virt. eigenvalues --    1.00083   1.03740   1.06154   1.07550   1.08737
 Alpha virt. eigenvalues --    1.10554   1.15455   1.18459   1.22939   1.24856
 Alpha virt. eigenvalues --    1.25879   1.29679   1.35676   1.37443   1.40521
 Alpha virt. eigenvalues --    1.43727   1.48581   1.50741   1.54895   1.59382
 Alpha virt. eigenvalues --    1.69084   1.70394   1.82902   1.91877   1.94493
 Alpha virt. eigenvalues --    1.99945   2.02980   2.04645   2.09461   2.13664
 Alpha virt. eigenvalues --    2.16056   2.18130   2.20296   2.23472   2.25002
 Alpha virt. eigenvalues --    2.26890   2.29551   2.30197   2.30965   2.32668
 Alpha virt. eigenvalues --    2.36736   2.38806   2.45149   2.47346   2.48384
 Alpha virt. eigenvalues --    2.48955   2.49889   2.51950   2.56370   2.57451
 Alpha virt. eigenvalues --    2.59972   2.63076   2.65989   2.69694   2.71760
 Alpha virt. eigenvalues --    2.72515   2.75130   2.76395   2.83643   2.88139
 Alpha virt. eigenvalues --    2.95294   3.03529   3.10026   3.12661   3.61275
 Alpha virt. eigenvalues --    3.65909   3.91749   3.93188   3.98709   4.07314
 Alpha virt. eigenvalues --    4.13012   4.15763   4.21741   4.24181   4.28881
 Alpha virt. eigenvalues --    4.34071   4.48331   4.49119   4.55808   4.70508
 Alpha virt. eigenvalues --    4.92129   4.96223   4.99024   5.14571   5.15086
 Alpha virt. eigenvalues --    5.19090   5.41629   5.83442   6.01179   6.12653
 Alpha virt. eigenvalues --    6.20104   6.24421   6.29240   6.42158   6.47199
 Alpha virt. eigenvalues --    6.58877   6.74303   6.75059   6.79496   6.82620
 Alpha virt. eigenvalues --    6.86908   6.88081   6.90556   6.95626   6.98699
 Alpha virt. eigenvalues --    7.05107   7.10478   7.21408   7.43716   7.54791
 Alpha virt. eigenvalues --    7.76421   8.07041   8.09958  14.01577  14.57146
          Condensed to atoms (all electrons):
              1          2          3          4          5
     1  O    8.274809  -0.235208   0.185852   0.005560  -0.021789
     2  O   -0.235208   8.270242   0.017548   0.189062  -0.013582
     3  H    0.185852   0.017548   0.586676  -0.000132  -0.002914
     4  H    0.005560   0.189062  -0.000132   0.601736  -0.011787
     5  Kr  -0.021789  -0.013582  -0.002914  -0.011787  36.041318
 Mulliken atomic charges:
              1
     1  O   -0.209223
     2  O   -0.228063
     3  H    0.212970
     4  H    0.215562
     5  Kr   0.008754
 Sum of Mulliken atomic charges =   0.00000
 Mulliken charges with hydrogens summed into heavy atoms:
              1
     1  O    0.003747
     2  O   -0.012501
     5  Kr   0.008754
 Sum of Mulliken charges with hydrogens summed into heavy atoms =   0.00000
          Condensed to fragments (all electrons):
     1      -0.008754
     2       0.008754
 Electronic spatial extent (au):  <R**2>=            482.6560
 Charge=              0.0000 electrons
 Dipole moment (field-independent basis, Debye):
    X=              2.0716    Y=             -0.3749    Z=              1.4529  Tot=              2.5579
 Quadrupole moment (field-independent basis, Debye-Ang):
   XX=            -35.8308   YY=            -27.8974   ZZ=            -29.0404
   XY=              1.9181   XZ=             -2.8801   YZ=             -1.8328
 Traceless Quadrupole moment (field-independent basis, Debye-Ang):
   XX=             -4.9079   YY=              3.0255   ZZ=              1.8824
   XY=              1.9181   XZ=             -2.8801   YZ=             -1.8328
 Octapole moment (field-independent basis, Debye-Ang**2):
  XXX=             38.0589  YYY=             -1.0401  ZZZ=              1.1322  XYY=              5.6687
  XXY=             -5.6682  XXZ=              4.9762  XZZ=              5.7560  YZZ=             -1.8457
  YYZ=              2.2903  XYZ=              3.5717
 Hexadecapole moment (field-independent basis, Debye-Ang**3):
 XXXX=           -458.8786 YYYY=            -63.1622 ZZZZ=            -29.7889 XXXY=             11.1286
 XXXZ=             -9.9504 YYYX=              3.6402 YYYZ=             -2.7186 ZZZX=             -2.6469
 ZZZY=             -1.9885 XXYY=            -82.0634 XXZZ=            -72.4561 YYZZ=            -15.9344
 XXYZ=             -7.0957 YYXZ=             -4.3374 ZZXY=              3.3614
 N-N= 1.496490473971D+02 E-N=-7.235885424709D+03  KE= 2.900052140506D+03
 No NMR shielding tensors so no spin-rotation constants.
 Leave Link  601 at Tue May 12 20:30:34 2020, MaxMem= 1073741824 cpu:       0.8
 (Enter /home/matheus/.gaussian/g09/l122.exe)
 Counterpoise: doing DCBS calculation for fragment   1 NewBq=T
 Leave Link  122 at Tue May 12 20:30:34 2020, MaxMem= 1073741824 cpu:       0.0
 (Enter /home/matheus/.gaussian/g09/l301.exe)
 Basis read from rwf:  (5D, 7F)
 No pseudopotential information found on rwf file.
 There are   197 symmetry adapted basis functions of A   symmetry.
 Integral buffers will be    131072 words long.
 Raffenetti 2 integral format.
 Two-electron integral symmetry is turned on.
   197 basis functions,   415 primitive gaussians,   229 cartesian basis functions
     9 alpha electrons        9 beta electrons
       nuclear repulsion energy        36.6321546607 Hartrees.
 IExCor=32609 DFT=T Ex+Corr=LC-wPBE ExCW=0 ScaHFX=  1.000000
 ScaDFX=  1.000000  0.000000  1.000000  1.000000 ScalE2=  1.000000  1.000000
 IRadAn=      5 IRanWt=     -1 IRanGd=            0 ICorTp=0
  HFx wShort=  0.000000 wLong=  0.400000 cFull=  0.000000 cShort=  0.000000 cLong=  1.000000
  DFx wShort=  0.000000 wLong=  0.400000 cFull=  0.000000 cShort=  0.000000 cLong=  1.000000
 NAtoms=    5 NActive=    5 NUniq=    5 SFac= 1.00D+00 NAtFMM=   60 NAOKFM=F Big=F
 No density basis found on file   718.
 Leave Link  301 at Tue May 12 20:30:34 2020, MaxMem= 1073741824 cpu:       0.2
 (Enter /home/matheus/.gaussian/g09/l302.exe)
 NPDir=0 NMtPBC=     1 NCelOv=     1 NCel=       1 NClECP=     1 NCelD=      1
         NCelK=      1 NCelE2=     1 NClLst=     1 CellRange=     0.0.
 One-electron integrals computed using PRISM.
 NBasis=   197 RedAO= T  NBF=   197
 NBsUse=   197 1.00D-06 NBFU=   197
 Precomputing XC quadrature grid using
 IXCGrd= 2 IRadAn=           5 IRanWt=          -1 IRanGd=           0 AccXCQ= 0.00D+00.
 NRdTot=     427 NPtTot=      123512 NUsed=      126579 NTot=      126611
 NSgBfM=   229   229   229   229   229 NAtAll=     5     5.
 Leave Link  302 at Tue May 12 20:30:34 2020, MaxMem= 1073741824 cpu:       1.0
 (Enter /home/matheus/.gaussian/g09/l303.exe)
 DipDrv:  MaxL=1.
 Leave Link  303 at Tue May 12 20:30:34 2020, MaxMem= 1073741824 cpu:       0.2
 (Enter /home/matheus/.gaussian/g09/l401.exe)
 Harris functional with IExCor=32609 diagonalized for initial guess.
 ExpMin= 2.53D-02 ExpMax= 1.17D+07 ExpMxC= 1.33D+04 IAcc=3 IRadAn=         5 AccDes= 0.00D+00
 HarFok:  IExCor=32609 AccDes= 0.00D+00 IRadAn=         5 IDoV= 1
 ScaDFX=  1.000000  1.000000  1.000000  1.000000
 FoFCou: FMM=F IPFlag=           0 FMFlag=      100000 FMFlg1=           0
         NFxFlg=           0 DoJE=T BraDBF=F KetDBF=T FulRan=T
         Omega=  0.000000  0.000000  1.000000  0.000000  0.000000 ICntrl=     500 IOpCl=  0
         NMat0=    1 NMatS0=    1 NMatT0=    0 NMatD0=    1 NMtDS0=    0 NMtDT0=    0
         I1Cent=           4 NGrid=           0.
 Petite list used in FoFCou.
 Harris En= -151.502682189446    
 Initial guess orbital symmetries:
       Occupied  (A) (A) (A) (A) (A) (A) (A) (A) (A)
       Virtual   (A) (A) (A) (A) (A) (A) (A) (A) (A) (A) (A) (A)
                 (A) (A) (A) (A) (A) (A) (A) (A) (A) (A) (A) (A)
                 (A) (A) (A) (A) (A) (A) (A) (A) (A) (A) (A) (A)
                 (A) (A) (A) (A) (A) (A) (A) (A) (A) (A) (A) (A)
                 (A) (A) (A) (A) (A) (A) (A) (A) (A) (A) (A) (A)
                 (A) (A) (A) (A) (A) (A) (A) (A) (A) (A) (A) (A)
                 (A) (A) (A) (A) (A) (A) (A) (A) (A) (A) (A) (A)
                 (A) (A) (A) (A) (A) (A) (A) (A) (A) (A) (A) (A)
                 (A) (A) (A) (A) (A) (A) (A) (A) (A) (A) (A) (A)
                 (A) (A) (A) (A) (A) (A) (A) (A) (A) (A) (A) (A)
                 (A) (A) (A) (A) (A) (A) (A) (A) (A) (A) (A) (A)
                 (A) (A) (A) (A) (A) (A) (A) (A) (A) (A) (A) (A)
                 (A) (A) (A) (A) (A) (A) (A) (A) (A) (A) (A) (A)
                 (A) (A) (A) (A) (A) (A) (A) (A) (A) (A) (A) (A)
                 (A) (A) (A) (A) (A) (A) (A) (A) (A) (A) (A) (A)
                 (A) (A) (A) (A) (A) (A) (A) (A)
 The electronic state of the initial guess is 1-A.
 Leave Link  401 at Tue May 12 20:30:34 2020, MaxMem= 1073741824 cpu:       3.9
 (Enter /home/matheus/.gaussian/g09/l502.exe)
 Closed shell SCF:
 Requested convergence on RMS density matrix=1.00D-08 within 128 cycles.
 Requested convergence on MAX density matrix=1.00D-06.
 Requested convergence on             energy=1.00D-06.
 No special actions if energy rises.
 Using DIIS extrapolation, IDIIS=  1040.
 Integral symmetry usage will be decided dynamically.
       126521 words used for storage of precomputed grid.
 IEnd=      305468 IEndB=      305468 NGot=  1073741824 MDV=  1073505667
 LenX=  1073505667 LenY=  1073452785
 Fock matrices will be formed incrementally for  20 cycles.

 Cycle   1  Pass 1  IDiag  1:
 FoFJK:  IHMeth= 1 ICntrl=     0 DoSepK=T KAlg= 1 I1Cent= 0 FoldK=F
 FoFCou: FMM=F IPFlag=           0 FMFlag=      100000 FMFlg1=           0
         NFxFlg=           0 DoJE=T BraDBF=F KetDBF=F FulRan=T
         Omega=  0.000000  0.000000  1.000000  0.000000  0.000000 ICntrl=     500 IOpCl=  0
         NMat0=    1 NMatS0=    1 NMatT0=    0 NMatD0=    1 NMtDS0=    0 NMtDT0=    0
         I1Cent=           0 NGrid=           0.
 Symmetry not used in FoFCou.
 E= -151.497563114653    
 DIIS: error= 1.34D-02 at cycle   1 NSaved=   1.
 NSaved= 1 IEnMin= 1 EnMin= -151.497563114653     IErMin= 1 ErrMin= 1.34D-02
 ErrMax= 1.34D-02 EMaxC= 1.00D-01 BMatC= 3.93D-02 BMatP= 3.93D-02
 IDIUse=3 WtCom= 8.66D-01 WtEn= 1.34D-01
 Coeff-Com:  0.100D+01
 Coeff-En:   0.100D+01
 Coeff:      0.100D+01
 Gap=     0.514 Goal=   None    Shift=    0.000
 GapD=    0.514 DampG=2.000 DampE=0.500 DampFc=1.0000 IDamp=-1.
 RMSDP=8.39D-04 MaxDP=2.40D-02              OVMax= 5.87D-02

 Cycle   2  Pass 1  IDiag  1:
 RMSU=  5.89D-04    CP:  9.90D-01
 FoFJK:  IHMeth= 1 ICntrl=     0 DoSepK=T KAlg= 1 I1Cent= 0 FoldK=F
 E= -151.511314540789     Delta-E=       -0.013751426136 Rises=F Damp=F
 DIIS: error= 9.20D-03 at cycle   2 NSaved=   2.
 NSaved= 2 IEnMin= 2 EnMin= -151.511314540789     IErMin= 2 ErrMin= 9.20D-03
 ErrMax= 9.20D-03 EMaxC= 1.00D-01 BMatC= 2.24D-02 BMatP= 3.93D-02
 IDIUse=3 WtCom= 9.08D-01 WtEn= 9.20D-02
 Coeff-Com:  0.423D+00 0.577D+00
 Coeff-En:   0.263D+00 0.737D+00
 Coeff:      0.408D+00 0.592D+00
 Gap=     0.450 Goal=   None    Shift=    0.000
 RMSDP=4.64D-04 MaxDP=2.33D-02 DE=-1.38D-02 OVMax= 2.67D-02

 Cycle   3  Pass 1  IDiag  1:
 RMSU=  2.39D-04    CP:  9.86D-01  6.22D-01
 FoFJK:  IHMeth= 1 ICntrl=     0 DoSepK=T KAlg= 1 I1Cent= 0 FoldK=F
 E= -151.524355420292     Delta-E=       -0.013040879502 Rises=F Damp=F
 DIIS: error= 1.52D-03 at cycle   3 NSaved=   3.
 NSaved= 3 IEnMin= 3 EnMin= -151.524355420292     IErMin= 3 ErrMin= 1.52D-03
 ErrMax= 1.52D-03 EMaxC= 1.00D-01 BMatC= 3.99D-04 BMatP= 2.24D-02
 IDIUse=3 WtCom= 9.85D-01 WtEn= 1.52D-02
 Coeff-Com:  0.653D-01 0.149D+00 0.786D+00
 Coeff-En:   0.000D+00 0.000D+00 0.100D+01
 Coeff:      0.643D-01 0.147D+00 0.789D+00
 Gap=     0.444 Goal=   None    Shift=    0.000
 RMSDP=5.69D-05 MaxDP=2.11D-03 DE=-1.30D-02 OVMax= 4.00D-03

 Cycle   4  Pass 1  IDiag  1:
 RMSU=  2.86D-05    CP:  9.84D-01  6.66D-01  1.02D+00
 FoFJK:  IHMeth= 1 ICntrl=     0 DoSepK=T KAlg= 1 I1Cent= 0 FoldK=F
 E= -151.524600000149     Delta-E=       -0.000244579857 Rises=F Damp=F
 DIIS: error= 1.82D-04 at cycle   4 NSaved=   4.
 NSaved= 4 IEnMin= 4 EnMin= -151.524600000149     IErMin= 4 ErrMin= 1.82D-04
 ErrMax= 1.82D-04 EMaxC= 1.00D-01 BMatC= 1.39D-05 BMatP= 3.99D-04
 IDIUse=3 WtCom= 9.98D-01 WtEn= 1.82D-03
 Coeff-Com: -0.512D-02-0.933D-02 0.117D+00 0.898D+00
 Coeff-En:   0.000D+00 0.000D+00 0.000D+00 0.100D+01
 Coeff:     -0.511D-02-0.931D-02 0.116D+00 0.898D+00
 Gap=     0.446 Goal=   None    Shift=    0.000
 RMSDP=1.34D-05 MaxDP=8.11D-04 DE=-2.45D-04 OVMax= 7.24D-04

 Cycle   5  Pass 1  IDiag  1:
 RMSU=  5.68D-06    CP:  9.84D-01  6.64D-01  1.05D+00  1.01D+00
 FoFJK:  IHMeth= 1 ICntrl=     0 DoSepK=T KAlg= 1 I1Cent= 0 FoldK=F
 E= -151.524609488134     Delta-E=       -0.000009487985 Rises=F Damp=F
 DIIS: error= 2.91D-05 at cycle   5 NSaved=   5.
 NSaved= 5 IEnMin= 5 EnMin= -151.524609488134     IErMin= 5 ErrMin= 2.91D-05
 ErrMax= 2.91D-05 EMaxC= 1.00D-01 BMatC= 1.16D-07 BMatP= 1.39D-05
 IDIUse=1 WtCom= 1.00D+00 WtEn= 0.00D+00
 Coeff-Com: -0.851D-03-0.224D-02-0.282D-01-0.840D-01 0.112D+01
 Coeff:     -0.851D-03-0.224D-02-0.282D-01-0.840D-01 0.112D+01
 Gap=     0.446 Goal=   None    Shift=    0.000
 RMSDP=3.00D-06 MaxDP=1.08D-04 DE=-9.49D-06 OVMax= 2.62D-04

 Cycle   6  Pass 1  IDiag  1:
 RMSU=  9.27D-07    CP:  9.84D-01  6.65D-01  1.05D+00  1.03D+00  1.30D+00
 FoFJK:  IHMeth= 1 ICntrl=     0 DoSepK=T KAlg= 1 I1Cent= 0 FoldK=F
 E= -151.524609772341     Delta-E=       -0.000000284208 Rises=F Damp=F
 DIIS: error= 6.51D-06 at cycle   6 NSaved=   6.
 NSaved= 6 IEnMin= 6 EnMin= -151.524609772341     IErMin= 6 ErrMin= 6.51D-06
 ErrMax= 6.51D-06 EMaxC= 1.00D-01 BMatC= 5.28D-09 BMatP= 1.16D-07
 IDIUse=1 WtCom= 1.00D+00 WtEn= 0.00D+00
 Coeff-Com:  0.150D-03 0.366D-03-0.803D-03-0.135D-01-0.523D-01 0.107D+01
 Coeff:      0.150D-03 0.366D-03-0.803D-03-0.135D-01-0.523D-01 0.107D+01
 Gap=     0.446 Goal=   None    Shift=    0.000
 RMSDP=5.84D-07 MaxDP=1.78D-05 DE=-2.84D-07 OVMax= 8.82D-05

 Cycle   7  Pass 1  IDiag  1:
 RMSU=  2.23D-07    CP:  9.84D-01  6.65D-01  1.05D+00  1.03D+00  1.34D+00
                    CP:  1.22D+00
 FoFJK:  IHMeth= 1 ICntrl=     0 DoSepK=T KAlg= 1 I1Cent= 0 FoldK=F
 E= -151.524609789606     Delta-E=       -0.000000017265 Rises=F Damp=F
 DIIS: error= 2.28D-06 at cycle   7 NSaved=   7.
 NSaved= 7 IEnMin= 7 EnMin= -151.524609789606     IErMin= 7 ErrMin= 2.28D-06
 ErrMax= 2.28D-06 EMaxC= 1.00D-01 BMatC= 6.71D-10 BMatP= 5.28D-09
 IDIUse=1 WtCom= 1.00D+00 WtEn= 0.00D+00
 Coeff-Com:  0.475D-04 0.124D-03 0.140D-02 0.450D-02-0.698D-01 0.329D-02
 Coeff-Com:  0.106D+01
 Coeff:      0.475D-04 0.124D-03 0.140D-02 0.450D-02-0.698D-01 0.329D-02
 Coeff:      0.106D+01
 Gap=     0.446 Goal=   None    Shift=    0.000
 RMSDP=2.07D-07 MaxDP=5.81D-06 DE=-1.73D-08 OVMax= 3.74D-05

 Cycle   8  Pass 1  IDiag  1:
 RMSU=  6.80D-08    CP:  9.84D-01  6.65D-01  1.05D+00  1.03D+00  1.35D+00
                    CP:  1.31D+00  1.35D+00
 FoFJK:  IHMeth= 1 ICntrl=     0 DoSepK=T KAlg= 1 I1Cent= 0 FoldK=F
 E= -151.524609791755     Delta-E=       -0.000000002149 Rises=F Damp=F
 DIIS: error= 9.73D-07 at cycle   8 NSaved=   8.
 NSaved= 8 IEnMin= 8 EnMin= -151.524609791755     IErMin= 8 ErrMin= 9.73D-07
 ErrMax= 9.73D-07 EMaxC= 1.00D-01 BMatC= 2.64D-10 BMatP= 6.71D-10
 IDIUse=1 WtCom= 1.00D+00 WtEn= 0.00D+00
 Coeff-Com:  0.842D-05 0.196D-04 0.604D-03 0.297D-02-0.244D-01-0.849D-01
 Coeff-Com:  0.451D+00 0.654D+00
 Coeff:      0.842D-05 0.196D-04 0.604D-03 0.297D-02-0.244D-01-0.849D-01
 Coeff:      0.451D+00 0.654D+00
 Gap=     0.446 Goal=   None    Shift=    0.000
 RMSDP=6.26D-08 MaxDP=2.44D-06 DE=-2.15D-09 OVMax= 9.39D-06

 Cycle   9  Pass 1  IDiag  1:
 RMSU=  3.52D-08    CP:  9.84D-01  6.65D-01  1.05D+00  1.03D+00  1.35D+00
                    CP:  1.32D+00  1.45D+00  9.49D-01
 FoFJK:  IHMeth= 1 ICntrl=     0 DoSepK=T KAlg= 1 I1Cent= 0 FoldK=F
 E= -151.524609792050     Delta-E=       -0.000000000295 Rises=F Damp=F
 DIIS: error= 3.57D-07 at cycle   9 NSaved=   9.
 NSaved= 9 IEnMin= 9 EnMin= -151.524609792050     IErMin= 9 ErrMin= 3.57D-07
 ErrMax= 3.57D-07 EMaxC= 1.00D-01 BMatC= 5.03D-11 BMatP= 2.64D-10
 IDIUse=1 WtCom= 1.00D+00 WtEn= 0.00D+00
 Coeff-Com: -0.108D-04-0.329D-04-0.245D-03-0.341D-03 0.138D-01-0.306D-01
 Coeff-Com: -0.179D+00 0.271D+00 0.926D+00
 Coeff:     -0.108D-04-0.329D-04-0.245D-03-0.341D-03 0.138D-01-0.306D-01
 Coeff:     -0.179D+00 0.271D+00 0.926D+00
 Gap=     0.446 Goal=   None    Shift=    0.000
 RMSDP=4.26D-08 MaxDP=1.63D-06 DE=-2.95D-10 OVMax= 6.93D-06

 Cycle  10  Pass 1  IDiag  1:
 RMSU=  1.11D-08    CP:  9.84D-01  6.65D-01  1.05D+00  1.03D+00  1.35D+00
                    CP:  1.32D+00  1.53D+00  1.22D+00  1.15D+00
 FoFJK:  IHMeth= 1 ICntrl=     0 DoSepK=T KAlg= 1 I1Cent= 0 FoldK=F
 E= -151.524609792291     Delta-E=       -0.000000000242 Rises=F Damp=F
 DIIS: error= 6.65D-08 at cycle  10 NSaved=  10.
 NSaved=10 IEnMin=10 EnMin= -151.524609792291     IErMin=10 ErrMin= 6.65D-08
 ErrMax= 6.65D-08 EMaxC= 1.00D-01 BMatC= 9.26D-13 BMatP= 5.03D-11
 IDIUse=1 WtCom= 1.00D+00 WtEn= 0.00D+00
 Coeff-Com:  0.537D-06 0.175D-05-0.223D-04-0.187D-03 0.665D-03 0.824D-02
 Coeff-Com: -0.281D-01-0.549D-01-0.485D-01 0.112D+01
 Coeff:      0.537D-06 0.175D-05-0.223D-04-0.187D-03 0.665D-03 0.824D-02
 Coeff:     -0.281D-01-0.549D-01-0.485D-01 0.112D+01
 Gap=     0.446 Goal=   None    Shift=    0.000
 RMSDP=1.12D-08 MaxDP=2.57D-07 DE=-2.42D-10 OVMax= 1.34D-06

 Cycle  11  Pass 1  IDiag  1:
 RMSU=  2.19D-09    CP:  9.84D-01  6.65D-01  1.05D+00  1.03D+00  1.35D+00
                    CP:  1.32D+00  1.54D+00  1.26D+00  1.26D+00  1.34D+00
 FoFJK:  IHMeth= 1 ICntrl=     0 DoSepK=T KAlg= 1 I1Cent= 0 FoldK=F
 E= -151.524609792294     Delta-E=       -0.000000000003 Rises=F Damp=F
 DIIS: error= 1.47D-08 at cycle  11 NSaved=  11.
 NSaved=11 IEnMin=11 EnMin= -151.524609792294     IErMin=11 ErrMin= 1.47D-08
 ErrMax= 1.47D-08 EMaxC= 1.00D-01 BMatC= 4.27D-14 BMatP= 9.26D-13
 IDIUse=1 WtCom= 1.00D+00 WtEn= 0.00D+00
 Coeff-Com:  0.678D-06 0.215D-05 0.157D-04 0.272D-04-0.835D-03 0.179D-02
 Coeff-Com:  0.115D-01-0.559D-02-0.356D-01-0.155D+00 0.118D+01
 Coeff:      0.678D-06 0.215D-05 0.157D-04 0.272D-04-0.835D-03 0.179D-02
 Coeff:      0.115D-01-0.559D-02-0.356D-01-0.155D+00 0.118D+01
 Gap=     0.446 Goal=   None    Shift=    0.000
 RMSDP=3.11D-09 MaxDP=1.25D-07 DE=-3.07D-12 OVMax= 3.38D-07

 SCF Done:  E(RLC-wPBE) =  -151.524609792     A.U. after   11 cycles
             Convg  =    0.3114D-08             -V/T =  2.0067
 KE= 1.505117982399D+02 PE=-4.315268502602D+02 EE= 9.285828756736D+01
 Leave Link  502 at Tue May 12 20:31:07 2020, MaxMem= 1073741824 cpu:     258.1
 (Enter /home/matheus/.gaussian/g09/l601.exe)
 Copying SCF densities to generalized density rwf, IOpCl= 0 IROHF=0.

 **********************************************************************

            Population analysis using the SCF density.

 **********************************************************************

 Orbital symmetries:
       Occupied  (A) (A) (A) (A) (A) (A) (A) (A) (A)
       Virtual   (A) (A) (A) (A) (A) (A) (A) (A) (A) (A) (A) (A)
                 (A) (A) (A) (A) (A) (A) (A) (A) (A) (A) (A) (A)
                 (A) (A) (A) (A) (A) (A) (A) (A) (A) (A) (A) (A)
                 (A) (A) (A) (A) (A) (A) (A) (A) (A) (A) (A) (A)
                 (A) (A) (A) (A) (A) (A) (A) (A) (A) (A) (A) (A)
                 (A) (A) (A) (A) (A) (A) (A) (A) (A) (A) (A) (A)
                 (A) (A) (A) (A) (A) (A) (A) (A) (A) (A) (A) (A)
                 (A) (A) (A) (A) (A) (A) (A) (A) (A) (A) (A) (A)
                 (A) (A) (A) (A) (A) (A) (A) (A) (A) (A) (A) (A)
                 (A) (A) (A) (A) (A) (A) (A) (A) (A) (A) (A) (A)
                 (A) (A) (A) (A) (A) (A) (A) (A) (A) (A) (A) (A)
                 (A) (A) (A) (A) (A) (A) (A) (A) (A) (A) (A) (A)
                 (A) (A) (A) (A) (A) (A) (A) (A) (A) (A) (A) (A)
                 (A) (A) (A) (A) (A) (A) (A) (A) (A) (A) (A) (A)
                 (A) (A) (A) (A) (A) (A) (A) (A) (A) (A) (A) (A)
                 (A) (A) (A) (A) (A) (A) (A) (A)
 The electronic state is 1-A.
 Alpha  occ. eigenvalues --  -19.03871 -19.03868  -1.25678  -1.04210  -0.69699
 Alpha  occ. eigenvalues --   -0.59830  -0.55671  -0.44388  -0.42268
 Alpha virt. eigenvalues --    0.02364   0.03652   0.07024   0.08230   0.10026
 Alpha virt. eigenvalues --    0.10316   0.10551   0.13954   0.16965   0.17523
 Alpha virt. eigenvalues --    0.18554   0.18654   0.20680   0.22595   0.25375
 Alpha virt. eigenvalues --    0.27154   0.30399   0.31167   0.32384   0.33837
 Alpha virt. eigenvalues --    0.34231   0.36926   0.37491   0.39313   0.40311
 Alpha virt. eigenvalues --    0.43127   0.44518   0.46513   0.47810   0.49831
 Alpha virt. eigenvalues --    0.53075   0.58005   0.60824   0.62509   0.66279
 Alpha virt. eigenvalues --    0.70551   0.75401   0.76944   0.77164   0.79597
 Alpha virt. eigenvalues --    0.80987   0.81735   0.88448   0.89814   0.91425
 Alpha virt. eigenvalues --    0.91638   0.93838   0.95018   0.95992   0.97661
 Alpha virt. eigenvalues --    0.99737   1.00807   1.04528   1.09547   1.12606
 Alpha virt. eigenvalues --    1.13543   1.15950   1.20875   1.22178   1.23467
 Alpha virt. eigenvalues --    1.26023   1.29584   1.29824   1.31189   1.33386
 Alpha virt. eigenvalues --    1.33934   1.34427   1.38172   1.38683   1.41062
 Alpha virt. eigenvalues --    1.44923   1.48020   1.50598   1.52277   1.55253
 Alpha virt. eigenvalues --    1.59378   1.65450   1.66476   1.72413   1.77757
 Alpha virt. eigenvalues --    1.82637   1.85847   1.93902   1.97606   2.02707
 Alpha virt. eigenvalues --    2.03900   2.07129   2.15078   2.20689   2.22417
 Alpha virt. eigenvalues --    2.27977   2.29180   2.34100   2.36972   2.37622
 Alpha virt. eigenvalues --    2.48341   2.53459   2.56204   2.61383   2.64603
 Alpha virt. eigenvalues --    2.66544   2.73876   2.78341   2.85592   2.94067
 Alpha virt. eigenvalues --    3.01774   3.09170   3.10604   3.25655   3.29849
 Alpha virt. eigenvalues --    3.40194   3.54074   3.60293   3.66690   3.77843
 Alpha virt. eigenvalues --    3.78169   3.81254   3.81732   3.82290   3.83291
 Alpha virt. eigenvalues --    3.86377   3.89084   3.93136   3.94749   3.95866
 Alpha virt. eigenvalues --    3.97171   4.00866   4.04756   4.10414   4.15485
 Alpha virt. eigenvalues --    4.17104   4.22351   4.24867   4.31645   4.35231
 Alpha virt. eigenvalues --    4.38591   4.48869   4.56440   4.70650   4.92100
 Alpha virt. eigenvalues --    4.96552   4.99299   5.14649   5.15316   5.19416
 Alpha virt. eigenvalues --    5.41399   5.83234   6.00640   6.12648   6.19952
 Alpha virt. eigenvalues --    6.24329   6.29073   6.41999   6.47132   6.58660
 Alpha virt. eigenvalues --    6.74011   6.74865   6.79069   6.82352   6.86740
 Alpha virt. eigenvalues --    6.87780   6.90317   6.95433   6.98399   7.04901
 Alpha virt. eigenvalues --    7.10215   7.21201   7.43438   7.54560   7.76116
 Alpha virt. eigenvalues --    8.06789   8.08962  10.88856  14.01158  14.56552
 Alpha virt. eigenvalues --   14.83036  14.87827  15.09429  29.02660  29.02832
 Alpha virt. eigenvalues --   29.07488  29.13161  29.22660  49.09716 148.31286
 Alpha virt. eigenvalues --  148.38535 148.70594 752.49365
          Condensed to atoms (all electrons):
              1          2          3          4          5
     1  O    8.238766  -0.228898   0.186136   0.003612  -0.000201
     2  O   -0.228898   8.235678   0.018377   0.190557  -0.000638
     3  H    0.186136   0.018377   0.598011   0.000848  -0.000949
     4  H    0.003612   0.190557   0.000848   0.597074  -0.004048
     5  Kr  -0.000201  -0.000638  -0.000949  -0.004048   0.000881
 Mulliken atomic charges:
              1
     1  O   -0.199415
     2  O   -0.215075
     3  H    0.197578
     4  H    0.211957
     5  Kr   0.004956
 Sum of Mulliken atomic charges =   0.00000
 Mulliken charges with hydrogens summed into heavy atoms:
              1
     1  O   -0.001838
     2  O   -0.003118
     5  Kr   0.004956
 Sum of Mulliken charges with hydrogens summed into heavy atoms =   0.00000
          Condensed to fragments (all electrons):
     1      -0.004956
     2       0.004956
 Electronic spatial extent (au):  <R**2>=            320.0010
 Charge=              0.0000 electrons
 Dipole moment (field-independent basis, Debye):
    X=              1.8355    Y=             -0.1629    Z=              1.5828  Tot=              2.4291
 Quadrupole moment (field-independent basis, Debye-Ang):
   XX=            -18.2908   YY=            -10.3117   ZZ=            -11.5170
   XY=              2.0295   XZ=             -2.7872   YZ=             -1.8534
 Traceless Quadrupole moment (field-independent basis, Debye-Ang):
   XX=             -4.9176   YY=              3.0615   ZZ=              1.8562
   XY=              2.0295   XZ=             -2.7872   YZ=             -1.8534
 Octapole moment (field-independent basis, Debye-Ang**2):
  XXX=             88.4442  YYY=             -1.1996  ZZZ=              1.2767  XYY=             22.7136
  XXY=             -5.5320  XXZ=              5.0844  XZZ=             22.8479  YZZ=             -1.9038
  YYZ=              2.3398  XYZ=              3.5777
 Hexadecapole moment (field-independent basis, Debye-Ang**3):
 XXXX=           -338.4172 YYYY=            -45.0175 ZZZZ=            -11.7365 XXXY=             10.7915
 XXXZ=             -9.7689 YYYX=              3.4653 YYYZ=             -2.7575 ZZZX=             -2.5653
 ZZZY=             -2.0261 XXYY=            -59.0081 XXZZ=            -49.5573 YYZZ=             -9.8938
 XXYZ=             -7.1143 YYXZ=             -4.2977 ZZXY=              3.2737
 N-N= 3.663215466067D+01 E-N=-4.315268502002D+02  KE= 1.505117982399D+02
 No NMR shielding tensors so no spin-rotation constants.
 Leave Link  601 at Tue May 12 20:31:07 2020, MaxMem= 1073741824 cpu:       0.8
 (Enter /home/matheus/.gaussian/g09/l122.exe)
 Counterpoise: doing DCBS calculation for fragment   2 NewBq=T
 Leave Link  122 at Tue May 12 20:31:07 2020, MaxMem= 1073741824 cpu:       0.0
 (Enter /home/matheus/.gaussian/g09/l301.exe)
 Basis read from rwf:  (5D, 7F)
 No pseudopotential information found on rwf file.
 There are   197 symmetry adapted basis functions of A   symmetry.
 Integral buffers will be    131072 words long.
 Raffenetti 2 integral format.
 Two-electron integral symmetry is turned on.
   197 basis functions,   415 primitive gaussians,   229 cartesian basis functions
    18 alpha electrons       18 beta electrons
       nuclear repulsion energy         0.0000000000 Hartrees.
 IExCor=32609 DFT=T Ex+Corr=LC-wPBE ExCW=0 ScaHFX=  1.000000
 ScaDFX=  1.000000  0.000000  1.000000  1.000000 ScalE2=  1.000000  1.000000
 IRadAn=      5 IRanWt=     -1 IRanGd=            0 ICorTp=0
  HFx wShort=  0.000000 wLong=  0.400000 cFull=  0.000000 cShort=  0.000000 cLong=  1.000000
  DFx wShort=  0.000000 wLong=  0.400000 cFull=  0.000000 cShort=  0.000000 cLong=  1.000000
 NAtoms=    5 NActive=    5 NUniq=    5 SFac= 1.00D+00 NAtFMM=   60 NAOKFM=F Big=F
 No density basis found on file   718.
 Leave Link  301 at Tue May 12 20:31:07 2020, MaxMem= 1073741824 cpu:       0.2
 (Enter /home/matheus/.gaussian/g09/l302.exe)
 NPDir=0 NMtPBC=     1 NCelOv=     1 NCel=       1 NClECP=     1 NCelD=      1
         NCelK=      1 NCelE2=     1 NClLst=     1 CellRange=     0.0.
 One-electron integrals computed using PRISM.
 NBasis=   197 RedAO= T  NBF=   197
 NBsUse=   197 1.00D-06 NBFU=   197
 Precomputing XC quadrature grid using
 IXCGrd= 2 IRadAn=           5 IRanWt=          -1 IRanGd=           0 AccXCQ= 0.00D+00.
 NRdTot=     427 NPtTot=      123512 NUsed=      126579 NTot=      126611
 NSgBfM=   229   229   229   229   229 NAtAll=     5     5.
 Leave Link  302 at Tue May 12 20:31:07 2020, MaxMem= 1073741824 cpu:       1.0
 (Enter /home/matheus/.gaussian/g09/l303.exe)
 DipDrv:  MaxL=1.
 Leave Link  303 at Tue May 12 20:31:07 2020, MaxMem= 1073741824 cpu:       0.2
 (Enter /home/matheus/.gaussian/g09/l401.exe)
 Harris functional with IExCor=32609 diagonalized for initial guess.
 ExpMin= 2.53D-02 ExpMax= 1.17D+07 ExpMxC= 1.33D+04 IAcc=3 IRadAn=         5 AccDes= 0.00D+00
 HarFok:  IExCor=32609 AccDes= 0.00D+00 IRadAn=         5 IDoV= 1
 ScaDFX=  1.000000  1.000000  1.000000  1.000000
 FoFCou: FMM=F IPFlag=           0 FMFlag=      100000 FMFlg1=           0
         NFxFlg=           0 DoJE=T BraDBF=F KetDBF=T FulRan=T
         Omega=  0.000000  0.000000  1.000000  0.000000  0.000000 ICntrl=     500 IOpCl=  0
         NMat0=    1 NMatS0=    1 NMatT0=    0 NMatD0=    1 NMtDS0=    0 NMtDT0=    0
         I1Cent=           4 NGrid=           0.
 Petite list used in FoFCou.
 Harris En= -2753.24649194649    
 Initial guess orbital symmetries:
       Occupied  (A) (A) (A) (A) (A) (A) (A) (A) (A) (A) (A) (A)
                 (A) (A) (A) (A) (A) (A)
       Virtual   (A) (A) (A) (A) (A) (A) (A) (A) (A) (A) (A) (A)
                 (A) (A) (A) (A) (A) (A) (A) (A) (A) (A) (A) (A)
                 (A) (A) (A) (A) (A) (A) (A) (A) (A) (A) (A) (A)
                 (A) (A) (A) (A) (A) (A) (A) (A) (A) (A) (A) (A)
                 (A) (A) (A) (A) (A) (A) (A) (A) (A) (A) (A) (A)
                 (A) (A) (A) (A) (A) (A) (A) (A) (A) (A) (A) (A)
                 (A) (A) (A) (A) (A) (A) (A) (A) (A) (A) (A) (A)
                 (A) (A) (A) (A) (A) (A) (A) (A) (A) (A) (A) (A)
                 (A) (A) (A) (A) (A) (A) (A) (A) (A) (A) (A) (A)
                 (A) (A) (A) (A) (A) (A) (A) (A) (A) (A) (A) (A)
                 (A) (A) (A) (A) (A) (A) (A) (A) (A) (A) (A) (A)
                 (A) (A) (A) (A) (A) (A) (A) (A) (A) (A) (A) (A)
                 (A) (A) (A) (A) (A) (A) (A) (A) (A) (A) (A) (A)
                 (A) (A) (A) (A) (A) (A) (A) (A) (A) (A) (A) (A)
                 (A) (A) (A) (A) (A) (A) (A) (A) (A) (A) (A)
 The electronic state of the initial guess is 1-A.
 Leave Link  401 at Tue May 12 20:31:07 2020, MaxMem= 1073741824 cpu:       4.1
 (Enter /home/matheus/.gaussian/g09/l502.exe)
 Closed shell SCF:
 Requested convergence on RMS density matrix=1.00D-08 within 128 cycles.
 Requested convergence on MAX density matrix=1.00D-06.
 Requested convergence on             energy=1.00D-06.
 No special actions if energy rises.
 Using DIIS extrapolation, IDIIS=  1040.
 Integral symmetry usage will be decided dynamically.
       126521 words used for storage of precomputed grid.
 IEnd=      305468 IEndB=      305468 NGot=  1073741824 MDV=  1073505667
 LenX=  1073505667 LenY=  1073452785
 Fock matrices will be formed incrementally for  20 cycles.

 Cycle   1  Pass 1  IDiag  1:
 FoFJK:  IHMeth= 1 ICntrl=     0 DoSepK=T KAlg= 1 I1Cent= 0 FoldK=F
 FoFCou: FMM=F IPFlag=           0 FMFlag=      100000 FMFlg1=           0
         NFxFlg=           0 DoJE=T BraDBF=F KetDBF=F FulRan=T
         Omega=  0.000000  0.000000  1.000000  0.000000  0.000000 ICntrl=     500 IOpCl=  0
         NMat0=    1 NMatS0=    1 NMatT0=    0 NMatD0=    1 NMtDS0=    0 NMtDT0=    0
         I1Cent=           0 NGrid=           0.
 Symmetry not used in FoFCou.
 E= -2753.38971533566    
 DIIS: error= 2.32D-02 at cycle   1 NSaved=   1.
 NSaved= 1 IEnMin= 1 EnMin= -2753.38971533566     IErMin= 1 ErrMin= 2.32D-02
 ErrMax= 2.32D-02 EMaxC= 1.00D-01 BMatC= 2.22D-01 BMatP= 2.22D-01
 IDIUse=3 WtCom= 7.68D-01 WtEn= 2.32D-01
 Coeff-Com:  0.100D+01
 Coeff-En:   0.100D+01
 Coeff:      0.100D+01
 Gap=     0.610 Goal=   None    Shift=    0.000
 GapD=    0.610 DampG=2.000 DampE=0.500 DampFc=1.0000 IDamp=-1.
 RMSDP=2.09D-03 MaxDP=1.47D-01              OVMax= 5.10D-02

 Cycle   2  Pass 1  IDiag  1:
 RMSU=  1.44D-03    CP:  1.02D+00
 FoFJK:  IHMeth= 1 ICntrl=     0 DoSepK=T KAlg= 1 I1Cent= 0 FoldK=F
 E= -2753.42035850157     Delta-E=       -0.030643165911 Rises=F Damp=F
 DIIS: error= 9.73D-03 at cycle   2 NSaved=   2.
 NSaved= 2 IEnMin= 2 EnMin= -2753.42035850157     IErMin= 2 ErrMin= 9.73D-03
 ErrMax= 9.73D-03 EMaxC= 1.00D-01 BMatC= 5.51D-02 BMatP= 2.22D-01
 IDIUse=3 WtCom= 9.03D-01 WtEn= 9.73D-02
 Coeff-Com:  0.328D+00 0.672D+00
 Coeff-En:   0.130D+00 0.870D+00
 Coeff:      0.309D+00 0.691D+00
 Gap=     0.525 Goal=   None    Shift=    0.000
 RMSDP=7.84D-04 MaxDP=5.12D-02 DE=-3.06D-02 OVMax= 2.08D-02

 Cycle   3  Pass 1  IDiag  1:
 RMSU=  1.56D-04    CP:  1.01D+00  6.42D-01
 FoFJK:  IHMeth= 1 ICntrl=     0 DoSepK=T KAlg= 1 I1Cent= 0 FoldK=F
 E= -2753.43559077342     Delta-E=       -0.015232271845 Rises=F Damp=F
 DIIS: error= 9.23D-04 at cycle   3 NSaved=   3.
 NSaved= 3 IEnMin= 3 EnMin= -2753.43559077342     IErMin= 3 ErrMin= 9.23D-04
 ErrMax= 9.23D-04 EMaxC= 1.00D-01 BMatC= 5.31D-04 BMatP= 5.51D-02
 IDIUse=3 WtCom= 9.91D-01 WtEn= 9.23D-03
 Coeff-Com: -0.232D-03 0.885D-01 0.912D+00
 Coeff-En:   0.000D+00 0.000D+00 0.100D+01
 Coeff:     -0.230D-03 0.876D-01 0.913D+00
 Gap=     0.532 Goal=   None    Shift=    0.000
 RMSDP=7.04D-05 MaxDP=4.12D-03 DE=-1.52D-02 OVMax= 2.56D-03

 Cycle   4  Pass 1  IDiag  1:
 RMSU=  1.77D-05    CP:  1.01D+00  6.73D-01  9.97D-01
 FoFJK:  IHMeth= 1 ICntrl=     0 DoSepK=T KAlg= 1 I1Cent= 0 FoldK=F
 E= -2753.43575284449     Delta-E=       -0.000162071071 Rises=F Damp=F
 DIIS: error= 2.87D-05 at cycle   4 NSaved=   4.
 NSaved= 4 IEnMin= 4 EnMin= -2753.43575284449     IErMin= 4 ErrMin= 2.87D-05
 ErrMax= 2.87D-05 EMaxC= 1.00D-01 BMatC= 3.98D-07 BMatP= 5.31D-04
 IDIUse=1 WtCom= 1.00D+00 WtEn= 0.00D+00
 Coeff-Com: -0.125D-02-0.152D-01-0.113D+00 0.113D+01
 Coeff:     -0.125D-02-0.152D-01-0.113D+00 0.113D+01
 Gap=     0.532 Goal=   None    Shift=    0.000
 RMSDP=6.14D-06 MaxDP=2.44D-04 DE=-1.62D-04 OVMax= 3.88D-04

 Cycle   5  Pass 1  IDiag  1:
 RMSU=  2.15D-06    CP:  1.01D+00  6.73D-01  1.02D+00  1.13D+00
 FoFJK:  IHMeth= 1 ICntrl=     0 DoSepK=T KAlg= 1 I1Cent= 0 FoldK=F
 E= -2753.43575335466     Delta-E=       -0.000000510173 Rises=F Damp=F
 DIIS: error= 7.63D-06 at cycle   5 NSaved=   5.
 NSaved= 5 IEnMin= 5 EnMin= -2753.43575335466     IErMin= 5 ErrMin= 7.63D-06
 ErrMax= 7.63D-06 EMaxC= 1.00D-01 BMatC= 1.17D-08 BMatP= 3.98D-07
 IDIUse=1 WtCom= 1.00D+00 WtEn= 0.00D+00
 Coeff-Com:  0.275D-04-0.218D-02-0.247D-01 0.929D-01 0.934D+00
 Coeff:      0.275D-04-0.218D-02-0.247D-01 0.929D-01 0.934D+00
 Gap=     0.532 Goal=   None    Shift=    0.000
 RMSDP=7.18D-07 MaxDP=3.13D-05 DE=-5.10D-07 OVMax= 3.06D-05

 Cycle   6  Pass 1  IDiag  1:
 RMSU=  2.09D-07    CP:  1.01D+00  6.73D-01  1.02D+00  1.15D+00  1.03D+00
 FoFJK:  IHMeth= 1 ICntrl=     0 DoSepK=T KAlg= 1 I1Cent= 0 FoldK=F
 E= -2753.43575336428     Delta-E=       -0.000000009617 Rises=F Damp=F
 DIIS: error= 3.96D-07 at cycle   6 NSaved=   6.
 NSaved= 6 IEnMin= 6 EnMin= -2753.43575336428     IErMin= 6 ErrMin= 3.96D-07
 ErrMax= 3.96D-07 EMaxC= 1.00D-01 BMatC= 4.12D-11 BMatP= 1.17D-08
 IDIUse=1 WtCom= 1.00D+00 WtEn= 0.00D+00
 Coeff-Com:  0.249D-05 0.140D-03 0.164D-02-0.113D-01-0.810D-01 0.109D+01
 Coeff:      0.249D-05 0.140D-03 0.164D-02-0.113D-01-0.810D-01 0.109D+01
 Gap=     0.532 Goal=   None    Shift=    0.000
 RMSDP=9.74D-08 MaxDP=3.56D-06 DE=-9.62D-09 OVMax= 4.48D-06

 Cycle   7  Pass 1  IDiag  1:
 RMSU=  1.58D-08    CP:  1.01D+00  6.73D-01  1.02D+00  1.15D+00  1.04D+00
                    CP:  1.23D+00
 FoFJK:  IHMeth= 1 ICntrl=     0 DoSepK=T KAlg= 1 I1Cent= 0 FoldK=F
 E= -2753.43575336438     Delta-E=       -0.000000000094 Rises=F Damp=F
 DIIS: error= 6.94D-08 at cycle   7 NSaved=   7.
 NSaved= 7 IEnMin= 7 EnMin= -2753.43575336438     IErMin= 7 ErrMin= 6.94D-08
 ErrMax= 6.94D-08 EMaxC= 1.00D-01 BMatC= 1.38D-12 BMatP= 4.12D-11
 IDIUse=1 WtCom= 1.00D+00 WtEn= 0.00D+00
 Coeff-Com: -0.234D-06 0.232D-04 0.280D-03-0.140D-02-0.159D-01 0.120D+00
 Coeff-Com:  0.897D+00
 Coeff:     -0.234D-06 0.232D-04 0.280D-03-0.140D-02-0.159D-01 0.120D+00
 Coeff:      0.897D+00
 Gap=     0.532 Goal=   None    Shift=    0.000
 RMSDP=1.07D-08 MaxDP=3.99D-07 DE=-9.41D-11 OVMax= 6.27D-07

 Cycle   8  Pass 1  IDiag  1:
 RMSU=  3.67D-09    CP:  1.01D+00  6.73D-01  1.02D+00  1.15D+00  1.05D+00
                    CP:  1.25D+00  1.11D+00
 FoFJK:  IHMeth= 1 ICntrl=     0 DoSepK=T KAlg= 1 I1Cent= 0 FoldK=F
 E= -2753.43575336437     Delta-E=        0.000000000002 Rises=F Damp=F
 DIIS: error= 2.14D-08 at cycle   8 NSaved=   8.
 NSaved= 8 IEnMin= 7 EnMin= -2753.43575336438     IErMin= 8 ErrMin= 2.14D-08
 ErrMax= 2.14D-08 EMaxC= 1.00D-01 BMatC= 1.11D-13 BMatP= 1.38D-12
 IDIUse=1 WtCom= 1.00D+00 WtEn= 0.00D+00
 Coeff-Com: -0.283D-06-0.113D-04-0.130D-03 0.971D-03 0.520D-02-0.856D-01
 Coeff-Com:  0.735D-01 0.101D+01
 Coeff:     -0.283D-06-0.113D-04-0.130D-03 0.971D-03 0.520D-02-0.856D-01
 Coeff:      0.735D-01 0.101D+01
 Gap=     0.532 Goal=   None    Shift=    0.000
 RMSDP=3.78D-09 MaxDP=1.55D-07 DE= 2.27D-12 OVMax= 2.38D-07

 SCF Done:  E(RLC-wPBE) =  -2753.43575336     A.U. after    8 cycles
             Convg  =    0.3781D-08             -V/T =  2.0014
 KE= 2.749488101141D+03 PE=-6.578896551728D+03 EE= 1.075972697223D+03
 Leave Link  502 at Tue May 12 20:31:33 2020, MaxMem= 1073741824 cpu:     206.0
 (Enter /home/matheus/.gaussian/g09/l601.exe)
 Copying SCF densities to generalized density rwf, IOpCl= 0 IROHF=0.

 **********************************************************************

            Population analysis using the SCF density.

 **********************************************************************

 Orbital symmetries:
       Occupied  (A) (A) (A) (A) (A) (A) (A) (A) (A) (A) (A) (A)
                 (A) (A) (A) (A) (A) (A)
       Virtual   (A) (A) (A) (A) (A) (A) (A) (A) (A) (A) (A) (A)
                 (A) (A) (A) (A) (A) (A) (A) (A) (A) (A) (A) (A)
                 (A) (A) (A) (A) (A) (A) (A) (A) (A) (A) (A) (A)
                 (A) (A) (A) (A) (A) (A) (A) (A) (A) (A) (A) (A)
                 (A) (A) (A) (A) (A) (A) (A) (A) (A) (A) (A) (A)
                 (A) (A) (A) (A) (A) (A) (A) (A) (A) (A) (A) (A)
                 (A) (A) (A) (A) (A) (A) (A) (A) (A) (A) (A) (A)
                 (A) (A) (A) (A) (A) (A) (A) (A) (A) (A) (A) (A)
                 (A) (A) (A) (A) (A) (A) (A) (A) (A) (A) (A) (A)
                 (A) (A) (A) (A) (A) (A) (A) (A) (A) (A) (A) (A)
                 (A) (A) (A) (A) (A) (A) (A) (A) (A) (A) (A) (A)
                 (A) (A) (A) (A) (A) (A) (A) (A) (A) (A) (A) (A)
                 (A) (A) (A) (A) (A) (A) (A) (A) (A) (A) (A) (A)
                 (A) (A) (A) (A) (A) (A) (A) (A) (A) (A) (A) (A)
                 (A) (A) (A) (A) (A) (A) (A) (A) (A) (A) (A)
 The electronic state is 1-A.
 Alpha  occ. eigenvalues -- -511.10626 -66.65305 -60.31519 -60.31516 -60.31516
 Alpha  occ. eigenvalues --   -9.58572  -7.32996  -7.32994  -7.32994  -3.28540
 Alpha  occ. eigenvalues --   -3.28540  -3.28539  -3.28538  -3.28538  -1.03232
 Alpha  occ. eigenvalues --   -0.50220  -0.50217  -0.50216
 Alpha virt. eigenvalues --    0.02956   0.04927   0.08459   0.09120   0.11943
 Alpha virt. eigenvalues --    0.12279   0.13297   0.13598   0.16088   0.17011
 Alpha virt. eigenvalues --    0.17812   0.19545   0.20807   0.26032   0.27117
 Alpha virt. eigenvalues --    0.27748   0.28643   0.30996   0.33182   0.34581
 Alpha virt. eigenvalues --    0.35699   0.37436   0.38522   0.39925   0.41273
 Alpha virt. eigenvalues --    0.42098   0.43590   0.53547   0.54516   0.58689
 Alpha virt. eigenvalues --    0.58799   0.66344   0.68568   0.69066   0.71722
 Alpha virt. eigenvalues --    0.74396   0.74705   0.76855   0.78227   0.78607
 Alpha virt. eigenvalues --    0.79965   0.81067   0.83572   0.85129   0.87414
 Alpha virt. eigenvalues --    0.88214   0.89110   0.91038   0.91239   0.96318
 Alpha virt. eigenvalues --    0.97180   0.97934   0.98869   0.99586   1.01852
 Alpha virt. eigenvalues --    1.04911   1.07201   1.08713   1.10784   1.12486
 Alpha virt. eigenvalues --    1.17126   1.20090   1.24513   1.28091   1.31073
 Alpha virt. eigenvalues --    1.32266   1.38003   1.39681   1.45192   1.46588
 Alpha virt. eigenvalues --    1.54724   1.56824   1.59203   1.73878   1.74866
 Alpha virt. eigenvalues --    1.81552   1.82338   1.86124   1.98243   2.15655
 Alpha virt. eigenvalues --    2.19242   2.24701   2.27804   2.29234   2.30550
 Alpha virt. eigenvalues --    2.32478   2.33339   2.34848   2.37759   2.41414
 Alpha virt. eigenvalues --    2.42340   2.45140   2.47031   2.49126   2.50581
 Alpha virt. eigenvalues --    2.51189   2.52589   2.56473   2.58097   2.58507
 Alpha virt. eigenvalues --    2.61789   2.62944   2.65270   2.69227   2.72382
 Alpha virt. eigenvalues --    2.74697   2.78152   2.84227   2.87868   2.89960
 Alpha virt. eigenvalues --    2.95139   2.99289   3.04550   3.08591   3.18276
 Alpha virt. eigenvalues --    3.21211   3.28446   3.30507   3.38875   3.45550
 Alpha virt. eigenvalues --    3.60811   3.65084   3.82128   3.86445   4.03701
 Alpha virt. eigenvalues --    4.33373   4.44101   4.55367   4.57830   4.62885
 Alpha virt. eigenvalues --    4.72170   4.87020   4.89243   4.96878   5.02999
 Alpha virt. eigenvalues --    5.11292   5.26816   5.60022   5.64071   5.81732
 Alpha virt. eigenvalues --    5.90690   6.00766   6.10831   6.77400   6.83784
 Alpha virt. eigenvalues --    7.38174   7.50125   7.53741   7.62308   7.75789
 Alpha virt. eigenvalues --    7.78578   7.94564   8.15847   8.16581   8.21443
 Alpha virt. eigenvalues --    8.38898   8.51064   8.56052   8.86568   9.64374
 Alpha virt. eigenvalues --    9.76588   9.83430   9.86892   9.93024   9.99265
 Alpha virt. eigenvalues --   10.15298  10.28877  10.42010  10.96905  11.53507
 Alpha virt. eigenvalues --   11.63807  11.82055  12.06062  12.09219  13.20041
 Alpha virt. eigenvalues --   13.68762  14.51381  62.84451  64.69420
          Condensed to atoms (all electrons):
              1          2          3          4          5
     1  O    0.000697  -0.000990  -0.000280   0.000768  -0.005753
     2  O   -0.000990   0.003774   0.000275  -0.003024   0.000545
     3  H   -0.000280   0.000275   0.000212  -0.000138  -0.001016
     4  H    0.000768  -0.003024  -0.000138   0.003727  -0.028092
     5  Kr  -0.005753   0.000545  -0.001016  -0.028092  36.066998
 Mulliken atomic charges:
              1
     1  O    0.005558
     2  O   -0.000580
     3  H    0.000947
     4  H    0.026758
     5  Kr  -0.032683
 Sum of Mulliken atomic charges =   0.00000
 Mulliken charges with hydrogens summed into heavy atoms:
              1
     1  O    0.006504
     2  O    0.026178
     5  Kr  -0.032683
 Sum of Mulliken charges with hydrogens summed into heavy atoms =   0.00000
          Condensed to fragments (all electrons):
     1       0.032683
     2      -0.032683
 Electronic spatial extent (au):  <R**2>=            162.8158
 Charge=              0.0000 electrons
 Dipole moment (field-independent basis, Debye):
    X=             -0.0006    Y=              0.0003    Z=              0.0001  Tot=              0.0007
 Quadrupole moment (field-independent basis, Debye-Ang):
   XX=            -17.6136   YY=            -17.6232   ZZ=            -17.6286
   XY=             -0.0026   XZ=             -0.0012   YZ=             -0.0004
 Traceless Quadrupole moment (field-independent basis, Debye-Ang):
   XX=              0.0082   YY=             -0.0014   ZZ=             -0.0068
   XY=             -0.0026   XZ=             -0.0012   YZ=             -0.0004
 Octapole moment (field-independent basis, Debye-Ang**2):
  XXX=            -51.7898  YYY=              0.4301  ZZZ=              0.0822  XYY=            -17.2736
  XXY=              0.1389  XXZ=              0.0253  XZZ=            -17.2765  YZZ=              0.1438
  YYZ=              0.0275  XYZ=              0.0000
 Hexadecapole moment (field-independent basis, Debye-Ang**3):
 XXXX=           -119.8744 YYYY=            -18.3822 ZZZZ=            -18.3924 XXXY=              0.4151
 XXXZ=              0.0762 YYYX=              0.4136 YYYZ=             -0.0009 ZZZX=              0.0779
 ZZZY=             -0.0006 XXYY=            -23.0514 XXZZ=            -23.0533 YYZZ=             -6.1280
 XXYZ=             -0.0010 YYXZ=              0.0261 ZZXY=              0.1371
 N-N= 0.000000000000D+00 E-N=-6.578896553444D+03  KE= 2.749488101141D+03
 No NMR shielding tensors so no spin-rotation constants.
 Leave Link  601 at Tue May 12 20:31:33 2020, MaxMem= 1073741824 cpu:       0.8
 (Enter /home/matheus/.gaussian/g09/l122.exe)
 Counterpoise: doing MCBS calculation for fragment   1
 Leave Link  122 at Tue May 12 20:31:33 2020, MaxMem= 1073741824 cpu:       0.0
 (Enter /home/matheus/.gaussian/g09/l301.exe)
 Basis read from rwf:  (5D, 7F)
 No pseudopotential information found on rwf file.
 There are   138 symmetry adapted basis functions of A   symmetry.
 Integral buffers will be    131072 words long.
 Raffenetti 2 integral format.
 Two-electron integral symmetry is turned on.
   138 basis functions,   198 primitive gaussians,   160 cartesian basis functions
     9 alpha electrons        9 beta electrons
       nuclear repulsion energy        36.6321546607 Hartrees.
 IExCor=32609 DFT=T Ex+Corr=LC-wPBE ExCW=0 ScaHFX=  1.000000
 ScaDFX=  1.000000  0.000000  1.000000  1.000000 ScalE2=  1.000000  1.000000
 IRadAn=      5 IRanWt=     -1 IRanGd=            0 ICorTp=0
  HFx wShort=  0.000000 wLong=  0.400000 cFull=  0.000000 cShort=  0.000000 cLong=  1.000000
  DFx wShort=  0.000000 wLong=  0.400000 cFull=  0.000000 cShort=  0.000000 cLong=  1.000000
 NAtoms=    5 NActive=    4 NUniq=    4 SFac= 1.00D+00 NAtFMM=   60 NAOKFM=F Big=F
 No density basis found on file   718.
 Leave Link  301 at Tue May 12 20:31:33 2020, MaxMem= 1073741824 cpu:       0.2
 (Enter /home/matheus/.gaussian/g09/l302.exe)
 NPDir=0 NMtPBC=     1 NCelOv=     1 NCel=       1 NClECP=     1 NCelD=      1
         NCelK=      1 NCelE2=     1 NClLst=     1 CellRange=     0.0.
 One-electron integrals computed using PRISM.
 NBasis=   138 RedAO= T  NBF=   138
 NBsUse=   138 1.00D-06 NBFU=   138
 Precomputing XC quadrature grid using
 IXCGrd= 2 IRadAn=           5 IRanWt=          -1 IRanGd=           0 AccXCQ= 0.00D+00.
 NRdTot=     344 NPtTot=       92556 NUsed=       95038 NTot=       95070
 NSgBfM=   160   160   160   160   160 NAtAll=     4     4.
 Leave Link  302 at Tue May 12 20:31:34 2020, MaxMem= 1073741824 cpu:       0.9
 (Enter /home/matheus/.gaussian/g09/l303.exe)
 DipDrv:  MaxL=1.
 Leave Link  303 at Tue May 12 20:31:34 2020, MaxMem= 1073741824 cpu:       0.1
 (Enter /home/matheus/.gaussian/g09/l401.exe)
 Harris functional with IExCor=32609 diagonalized for initial guess.
 ExpMin= 2.53D-02 ExpMax= 1.53D+04 ExpMxC= 5.22D+02 IAcc=3 IRadAn=         5 AccDes= 0.00D+00
 HarFok:  IExCor=32609 AccDes= 0.00D+00 IRadAn=         5 IDoV= 1
 ScaDFX=  1.000000  1.000000  1.000000  1.000000
 FoFCou: FMM=F IPFlag=           0 FMFlag=      100000 FMFlg1=           0
         NFxFlg=           0 DoJE=T BraDBF=F KetDBF=T FulRan=T
         Omega=  0.000000  0.000000  1.000000  0.000000  0.000000 ICntrl=     500 IOpCl=  0
         NMat0=    1 NMatS0=    1 NMatT0=    0 NMatD0=    1 NMtDS0=    0 NMtDT0=    0
         I1Cent=           4 NGrid=           0.
 Petite list used in FoFCou.
 Harris En= -151.502591917129    
 Initial guess orbital symmetries:
       Occupied  (A) (A) (A) (A) (A) (A) (A) (A) (A)
       Virtual   (A) (A) (A) (A) (A) (A) (A) (A) (A) (A) (A) (A)
                 (A) (A) (A) (A) (A) (A) (A) (A) (A) (A) (A) (A)
                 (A) (A) (A) (A) (A) (A) (A) (A) (A) (A) (A) (A)
                 (A) (A) (A) (A) (A) (A) (A) (A) (A) (A) (A) (A)
                 (A) (A) (A) (A) (A) (A) (A) (A) (A) (A) (A) (A)
                 (A) (A) (A) (A) (A) (A) (A) (A) (A) (A) (A) (A)
                 (A) (A) (A) (A) (A) (A) (A) (A) (A) (A) (A) (A)
                 (A) (A) (A) (A) (A) (A) (A) (A) (A) (A) (A) (A)
                 (A) (A) (A) (A) (A) (A) (A) (A) (A) (A) (A) (A)
                 (A) (A) (A) (A) (A) (A) (A) (A) (A) (A) (A) (A)
                 (A) (A) (A) (A) (A) (A) (A) (A) (A)
 The electronic state of the initial guess is 1-A.
 Leave Link  401 at Tue May 12 20:31:34 2020, MaxMem= 1073741824 cpu:       2.2
 (Enter /home/matheus/.gaussian/g09/l502.exe)
 Closed shell SCF:
 Requested convergence on RMS density matrix=1.00D-08 within 128 cycles.
 Requested convergence on MAX density matrix=1.00D-06.
 Requested convergence on             energy=1.00D-06.
 No special actions if energy rises.
 Using DIIS extrapolation, IDIIS=  1040.
 Integral symmetry usage will be decided dynamically.
        94980 words used for storage of precomputed grid.
 IEnd=      192360 IEndB=      192360 NGot=  1073741824 MDV=  1073591865
 LenX=  1073591865 LenY=  1073565824
 Fock matrices will be formed incrementally for  20 cycles.

 Cycle   1  Pass 1  IDiag  1:
 FoFJK:  IHMeth= 1 ICntrl=     0 DoSepK=T KAlg= 1 I1Cent= 0 FoldK=F
 FoFCou: FMM=F IPFlag=           0 FMFlag=      100000 FMFlg1=           0
         NFxFlg=           0 DoJE=T BraDBF=F KetDBF=F FulRan=T
         Omega=  0.000000  0.000000  1.000000  0.000000  0.000000 ICntrl=     500 IOpCl=  0
         NMat0=    1 NMatS0=    1 NMatT0=    0 NMatD0=    1 NMtDS0=    0 NMtDT0=    0
         I1Cent=           0 NGrid=           0.
 Symmetry not used in FoFCou.
 E= -151.497522411985    
 DIIS: error= 1.48D-02 at cycle   1 NSaved=   1.
 NSaved= 1 IEnMin= 1 EnMin= -151.497522411985     IErMin= 1 ErrMin= 1.48D-02
 ErrMax= 1.48D-02 EMaxC= 1.00D-01 BMatC= 3.93D-02 BMatP= 3.93D-02
 IDIUse=3 WtCom= 8.52D-01 WtEn= 1.48D-01
 Coeff-Com:  0.100D+01
 Coeff-En:   0.100D+01
 Coeff:      0.100D+01
 Gap=     0.514 Goal=   None    Shift=    0.000
 GapD=    0.514 DampG=2.000 DampE=0.500 DampFc=1.0000 IDamp=-1.
 RMSDP=1.17D-03 MaxDP=2.28D-02              OVMax= 5.87D-02

 Cycle   2  Pass 1  IDiag  1:
 RMSU=  8.24D-04    CP:  9.90D-01
 FoFJK:  IHMeth= 1 ICntrl=     0 DoSepK=T KAlg= 1 I1Cent= 0 FoldK=F
 E= -151.511262331718     Delta-E=       -0.013739919733 Rises=F Damp=F
 DIIS: error= 1.13D-02 at cycle   2 NSaved=   2.
 NSaved= 2 IEnMin= 2 EnMin= -151.511262331718     IErMin= 2 ErrMin= 1.13D-02
 ErrMax= 1.13D-02 EMaxC= 1.00D-01 BMatC= 2.24D-02 BMatP= 3.93D-02
 IDIUse=3 WtCom= 8.87D-01 WtEn= 1.13D-01
 Coeff-Com:  0.423D+00 0.577D+00
 Coeff-En:   0.263D+00 0.737D+00
 Coeff:      0.405D+00 0.595D+00
 Gap=     0.454 Goal=   None    Shift=    0.000
 RMSDP=6.52D-04 MaxDP=2.30D-02 DE=-1.37D-02 OVMax= 2.68D-02

 Cycle   3  Pass 1  IDiag  1:
 RMSU=  3.39D-04    CP:  9.86D-01  6.24D-01
 FoFJK:  IHMeth= 1 ICntrl=     0 DoSepK=T KAlg= 1 I1Cent= 0 FoldK=F
 E= -151.524275584014     Delta-E=       -0.013013252296 Rises=F Damp=F
 DIIS: error= 2.14D-03 at cycle   3 NSaved=   3.
 NSaved= 3 IEnMin= 3 EnMin= -151.524275584014     IErMin= 3 ErrMin= 2.14D-03
 ErrMax= 2.14D-03 EMaxC= 1.00D-01 BMatC= 4.27D-04 BMatP= 2.24D-02
 IDIUse=3 WtCom= 9.79D-01 WtEn= 2.14D-02
 Coeff-Com:  0.654D-01 0.153D+00 0.781D+00
 Coeff-En:   0.000D+00 0.000D+00 0.100D+01
 Coeff:      0.640D-01 0.150D+00 0.786D+00
 Gap=     0.448 Goal=   None    Shift=    0.000
 RMSDP=8.24D-05 MaxDP=1.94D-03 DE=-1.30D-02 OVMax= 4.06D-03

 Cycle   4  Pass 1  IDiag  1:
 RMSU=  4.06D-05    CP:  9.84D-01  6.70D-01  1.02D+00
 FoFJK:  IHMeth= 1 ICntrl=     0 DoSepK=T KAlg= 1 I1Cent= 0 FoldK=F
 E= -151.524537441999     Delta-E=       -0.000261857985 Rises=F Damp=F
 DIIS: error= 3.44D-04 at cycle   4 NSaved=   4.
 NSaved= 4 IEnMin= 4 EnMin= -151.524537441999     IErMin= 4 ErrMin= 3.44D-04
 ErrMax= 3.44D-04 EMaxC= 1.00D-01 BMatC= 1.44D-05 BMatP= 4.27D-04
 IDIUse=3 WtCom= 9.97D-01 WtEn= 3.44D-03
 Coeff-Com: -0.511D-02-0.897D-02 0.118D+00 0.896D+00
 Coeff-En:   0.000D+00 0.000D+00 0.000D+00 0.100D+01
 Coeff:     -0.509D-02-0.894D-02 0.117D+00 0.897D+00
 Gap=     0.450 Goal=   None    Shift=    0.000
 RMSDP=1.91D-05 MaxDP=8.08D-04 DE=-2.62D-04 OVMax= 7.34D-04

 Cycle   5  Pass 1  IDiag  1:
 RMSU=  7.90D-06    CP:  9.84D-01  6.69D-01  1.05D+00  1.01D+00
 FoFJK:  IHMeth= 1 ICntrl=     0 DoSepK=T KAlg= 1 I1Cent= 0 FoldK=F
 E= -151.524547210776     Delta-E=       -0.000009768777 Rises=F Damp=F
 DIIS: error= 4.48D-05 at cycle   5 NSaved=   5.
 NSaved= 5 IEnMin= 5 EnMin= -151.524547210776     IErMin= 5 ErrMin= 4.48D-05
 ErrMax= 4.48D-05 EMaxC= 1.00D-01 BMatC= 1.16D-07 BMatP= 1.44D-05
 IDIUse=1 WtCom= 1.00D+00 WtEn= 0.00D+00
 Coeff-Com: -0.851D-03-0.235D-02-0.284D-01-0.846D-01 0.112D+01
 Coeff:     -0.851D-03-0.235D-02-0.284D-01-0.846D-01 0.112D+01
 Gap=     0.450 Goal=   None    Shift=    0.000
 RMSDP=4.22D-06 MaxDP=8.49D-05 DE=-9.77D-06 OVMax= 2.63D-04

 Cycle   6  Pass 1  IDiag  1:
 RMSU=  1.29D-06    CP:  9.84D-01  6.70D-01  1.05D+00  1.03D+00  1.29D+00
 FoFJK:  IHMeth= 1 ICntrl=     0 DoSepK=T KAlg= 1 I1Cent= 0 FoldK=F
 E= -151.524547501645     Delta-E=       -0.000000290869 Rises=F Damp=F
 DIIS: error= 9.36D-06 at cycle   6 NSaved=   6.
 NSaved= 6 IEnMin= 6 EnMin= -151.524547501645     IErMin= 6 ErrMin= 9.36D-06
 ErrMax= 9.36D-06 EMaxC= 1.00D-01 BMatC= 5.22D-09 BMatP= 1.16D-07
 IDIUse=1 WtCom= 1.00D+00 WtEn= 0.00D+00
 Coeff-Com:  0.152D-03 0.367D-03-0.778D-03-0.133D-01-0.540D-01 0.107D+01
 Coeff:      0.152D-03 0.367D-03-0.778D-03-0.133D-01-0.540D-01 0.107D+01
 Gap=     0.450 Goal=   None    Shift=    0.000
 RMSDP=8.25D-07 MaxDP=1.29D-05 DE=-2.91D-07 OVMax= 8.83D-05

 Cycle   7  Pass 1  IDiag  1:
 RMSU=  3.09D-07    CP:  9.84D-01  6.70D-01  1.05D+00  1.03D+00  1.33D+00
                    CP:  1.23D+00
 FoFJK:  IHMeth= 1 ICntrl=     0 DoSepK=T KAlg= 1 I1Cent= 0 FoldK=F
 E= -151.524547494880     Delta-E=        0.000000006765 Rises=F Damp=F
 DIIS: error= 3.53D-06 at cycle   7 NSaved=   7.
[...]
 Coeff:      0.100D+01
 Gap=     0.530 Goal=   None    Shift=    0.000
 RMSDP=1.29D-05 MaxDP=6.62D-04              OVMax= 2.61D-04

 Cycle   2  Pass 1  IDiag  1:
 RMSU=  9.12D-06    CP:  1.00D+00
 FoFJK:  IHMeth= 1 ICntrl=     0 DoSepK=T KAlg= 1 I1Cent= 0 FoldK=F
 E= -2753.43565009909     Delta-E=       -0.000000441104 Rises=F Damp=F
 DIIS: error= 3.85D-06 at cycle   2 NSaved=   2.
 NSaved= 2 IEnMin= 2 EnMin= -2753.43565009909     IErMin= 2 ErrMin= 3.85D-06
 ErrMax= 3.85D-06 EMaxC= 1.00D-01 BMatC= 2.67D-09 BMatP= 4.68D-06
 IDIUse=1 WtCom= 1.00D+00 WtEn= 0.00D+00
 Coeff-Com: -0.673D-02 0.101D+01
 Coeff:     -0.673D-02 0.101D+01
 Gap=     0.530 Goal=   None    Shift=    0.000
 RMSDP=1.38D-06 MaxDP=5.90D-05 DE=-4.41D-07 OVMax= 3.83D-05

 Cycle   3  Pass 1  IDiag  1:
 RMSU=  4.77D-07    CP:  1.00D+00  1.09D+00
 FoFJK:  IHMeth= 1 ICntrl=     0 DoSepK=T KAlg= 1 I1Cent= 0 FoldK=F
 E= -2753.43565010369     Delta-E=       -0.000000004599 Rises=F Damp=F
 DIIS: error= 6.35D-07 at cycle   3 NSaved=   3.
 NSaved= 3 IEnMin= 3 EnMin= -2753.43565010369     IErMin= 3 ErrMin= 6.35D-07
 ErrMax= 6.35D-07 EMaxC= 1.00D-01 BMatC= 7.14D-11 BMatP= 2.67D-09
 IDIUse=1 WtCom= 1.00D+00 WtEn= 0.00D+00
 Coeff-Com:  0.219D-03-0.108D+00 0.111D+01
 Coeff:      0.219D-03-0.108D+00 0.111D+01
 Gap=     0.530 Goal=   None    Shift=    0.000
 RMSDP=1.79D-07 MaxDP=8.58D-06 DE=-4.60D-09 OVMax= 7.58D-06

 Cycle   4  Pass 1  IDiag  1:
 RMSU=  4.54D-08    CP:  1.00D+00  1.10D+00  1.19D+00
 FoFJK:  IHMeth= 1 ICntrl=     0 DoSepK=T KAlg= 1 I1Cent= 0 FoldK=F
 E= -2753.43565010382     Delta-E=       -0.000000000135 Rises=F Damp=F
 DIIS: error= 2.44D-07 at cycle   4 NSaved=   4.
 NSaved= 4 IEnMin= 4 EnMin= -2753.43565010382     IErMin= 4 ErrMin= 2.44D-07
 ErrMax= 2.44D-07 EMaxC= 1.00D-01 BMatC= 1.05D-11 BMatP= 7.14D-11
 IDIUse=1 WtCom= 1.00D+00 WtEn= 0.00D+00
 Coeff-Com:  0.184D-03-0.513D-01 0.327D+00 0.724D+00
 Coeff:      0.184D-03-0.513D-01 0.327D+00 0.724D+00
 Gap=     0.530 Goal=   None    Shift=    0.000
 RMSDP=1.65D-08 MaxDP=6.58D-07 DE=-1.35D-10 OVMax= 8.55D-07

 Cycle   5  Pass 1  IDiag  1:
 RMSU=  8.48D-09    CP:  1.00D+00  1.10D+00  1.20D+00  1.09D+00
 FoFJK:  IHMeth= 1 ICntrl=     0 DoSepK=T KAlg= 1 I1Cent= 0 FoldK=F
 E= -2753.43565010383     Delta-E=       -0.000000000005 Rises=F Damp=F
 DIIS: error= 2.88D-08 at cycle   5 NSaved=   5.
 NSaved= 5 IEnMin= 5 EnMin= -2753.43565010383     IErMin= 5 ErrMin= 2.88D-08
 ErrMax= 2.88D-08 EMaxC= 1.00D-01 BMatC= 1.83D-13 BMatP= 1.05D-11
 IDIUse=1 WtCom= 1.00D+00 WtEn= 0.00D+00
 Coeff-Com:  0.166D-05 0.225D-02-0.331D-01 0.194D-01 0.101D+01
 Coeff:      0.166D-05 0.225D-02-0.331D-01 0.194D-01 0.101D+01
 Gap=     0.530 Goal=   None    Shift=    0.000
 RMSDP=7.09D-09 MaxDP=4.00D-07 DE=-5.46D-12 OVMax= 3.30D-07

 SCF Done:  E(RLC-wPBE) =  -2753.43565010     A.U. after    5 cycles
             Convg  =    0.7091D-08             -V/T =  2.0014
 KE= 2.749528640389D+03 PE=-6.578941585716D+03 EE= 1.075977295223D+03
 Leave Link  502 at Tue May 12 20:54:39 2020, MaxMem= 1073741824 cpu:      90.5
 (Enter /home/matheus/.gaussian/g09/l122.exe)
 Restoring MOs from calculation   4 to rwf.
 Counterpoise: doing MCBS calculation for fragment   1
 Leave Link  122 at Tue May 12 20:54:39 2020, MaxMem= 1073741824 cpu:       0.0
 (Enter /home/matheus/.gaussian/g09/l301.exe)
 Basis read from rwf:  (5D, 7F)
 No pseudopotential information found on rwf file.
 There are   138 symmetry adapted basis functions of A   symmetry.
 Integral buffers will be    131072 words long.
 Raffenetti 2 integral format.
 Two-electron integral symmetry is turned on.
   138 basis functions,   198 primitive gaussians,   160 cartesian basis functions
     9 alpha electrons        9 beta electrons
       nuclear repulsion energy        36.6321546607 Hartrees.
 IExCor=32609 DFT=T Ex+Corr=LC-wPBE ExCW=0 ScaHFX=  1.000000
 ScaDFX=  1.000000  0.000000  1.000000  1.000000 ScalE2=  1.000000  1.000000
 IRadAn=      5 IRanWt=     -1 IRanGd=            0 ICorTp=0
  HFx wShort=  0.000000 wLong=  0.400000 cFull=  0.000000 cShort=  0.000000 cLong=  1.000000
  DFx wShort=  0.000000 wLong=  0.400000 cFull=  0.000000 cShort=  0.000000 cLong=  1.000000
 NAtoms=    5 NActive=    4 NUniq=    4 SFac= 1.00D+00 NAtFMM=   60 NAOKFM=F Big=F
 No density basis found on file   718.
 Leave Link  301 at Tue May 12 20:54:39 2020, MaxMem= 1073741824 cpu:       0.2
 (Enter /home/matheus/.gaussian/g09/l302.exe)
 NPDir=0 NMtPBC=     1 NCelOv=     1 NCel=       1 NClECP=     1 NCelD=      1
         NCelK=      1 NCelE2=     1 NClLst=     1 CellRange=     0.0.
 One-electron integrals computed using PRISM.
 NBasis=   138 RedAO= T  NBF=   138
 NBsUse=   138 1.00D-06 NBFU=   138
 Precomputing XC quadrature grid using
 IXCGrd= 2 IRadAn=           5 IRanWt=          -1 IRanGd=           0 AccXCQ= 0.00D+00.
 NRdTot=     344 NPtTot=       92556 NUsed=       95038 NTot=       95070
 NSgBfM=   160   160   160   160   160 NAtAll=     4     4.
 Leave Link  302 at Tue May 12 20:54:39 2020, MaxMem= 1073741824 cpu:       0.8
 (Enter /home/matheus/.gaussian/g09/l303.exe)
 DipDrv:  MaxL=1.
 Leave Link  303 at Tue May 12 20:54:39 2020, MaxMem= 1073741824 cpu:       0.2
 (Enter /home/matheus/.gaussian/g09/l401.exe)
 Initial guess read from the read-write file.
 Guess basis will be translated and rotated to current coordinates.
 Initial guess orbital symmetries:
       Occupied  (A) (A) (A) (A) (A) (A) (A) (A) (A)
       Virtual   (A) (A) (A) (A) (A) (A) (A) (A) (A) (A) (A) (A)
                 (A) (A) (A) (A) (A) (A) (A) (A) (A) (A) (A) (A)
                 (A) (A) (A) (A) (A) (A) (A) (A) (A) (A) (A) (A)
                 (A) (A) (A) (A) (A) (A) (A) (A) (A) (A) (A) (A)
                 (A) (A) (A) (A) (A) (A) (A) (A) (A) (A) (A) (A)
                 (A) (A) (A) (A) (A) (A) (A) (A) (A) (A) (A) (A)
                 (A) (A) (A) (A) (A) (A) (A) (A) (A) (A) (A) (A)
                 (A) (A) (A) (A) (A) (A) (A) (A) (A) (A) (A) (A)
                 (A) (A) (A) (A) (A) (A) (A) (A) (A) (A) (A) (A)
                 (A) (A) (A) (A) (A) (A) (A) (A) (A) (A) (A) (A)
                 (A) (A) (A) (A) (A) (A) (A) (A) (A)
 The electronic state of the initial guess is 1-A.
 Generating alternative initial guess.
 Harris functional with IExCor=32609 diagonalized for initial guess.
 ExpMin= 2.53D-02 ExpMax= 1.53D+04 ExpMxC= 5.22D+02 IAcc=3 IRadAn=         5 AccDes= 0.00D+00
 HarFok:  IExCor=32609 AccDes= 0.00D+00 IRadAn=         5 IDoV= 1
 ScaDFX=  1.000000  1.000000  1.000000  1.000000
 FoFCou: FMM=F IPFlag=           0 FMFlag=      100000 FMFlg1=           0
         NFxFlg=           0 DoJE=T BraDBF=F KetDBF=T FulRan=T
         Omega=  0.000000  0.000000  1.000000  0.000000  0.000000 ICntrl=     500 IOpCl=  0
         NMat0=    1 NMatS0=    1 NMatT0=    0 NMatD0=    1 NMtDS0=    0 NMtDT0=    0
         I1Cent=           4 NGrid=           0.
 Petite list used in FoFCou.
 Harris En= -151.502591887922    
 Leave Link  401 at Tue May 12 20:54:40 2020, MaxMem= 1073741824 cpu:       2.6
 (Enter /home/matheus/.gaussian/g09/l502.exe)
 Closed shell SCF:
 Requested convergence on RMS density matrix=1.00D-08 within 128 cycles.
 Requested convergence on MAX density matrix=1.00D-06.
 Requested convergence on             energy=1.00D-06.
 No special actions if energy rises.
 Using DIIS extrapolation, IDIIS=  1040.
 Integral symmetry usage will be decided dynamically.
        94980 words used for storage of precomputed grid.
 IEnd=      192360 IEndB=      192360 NGot=  1073741824 MDV=  1073591865
 LenX=  1073591865 LenY=  1073565824
 Fock matrices will be formed incrementally for  20 cycles.

 Cycle   1  Pass 1  IDiag  1:
 FoFJK:  IHMeth= 1 ICntrl=     0 DoSepK=T KAlg= 1 I1Cent= 0 FoldK=F
 FoFCou: FMM=F IPFlag=           0 FMFlag=      100000 FMFlg1=           0
         NFxFlg=           0 DoJE=T BraDBF=F KetDBF=F FulRan=T
         Omega=  0.000000  0.000000  1.000000  0.000000  0.000000 ICntrl=     500 IOpCl=  0
         NMat0=    1 NMatS0=    1 NMatT0=    0 NMatD0=    1 NMtDS0=    0 NMtDT0=    0
         I1Cent=           0 NGrid=           0.
 Symmetry not used in FoFCou.
 E= -151.524547397654    
 DIIS: error= 9.44D-06 at cycle   1 NSaved=   1.
 NSaved= 1 IEnMin= 1 EnMin= -151.524547397654     IErMin= 1 ErrMin= 9.44D-06
 ErrMax= 9.44D-06 EMaxC= 1.00D-01 BMatC= 2.04D-08 BMatP= 2.04D-08
 IDIUse=1 WtCom= 1.00D+00 WtEn= 0.00D+00
 Coeff-Com:  0.100D+01
 Coeff:      0.100D+01
 Gap=     0.450 Goal=   None    Shift=    0.000
 RMSDP=9.23D-07 MaxDP=2.17D-05              OVMax= 3.72D-05

 Cycle   2  Pass 1  IDiag  1:
 RMSU=  6.53D-07    CP:  1.00D+00
 FoFJK:  IHMeth= 1 ICntrl=     0 DoSepK=T KAlg= 1 I1Cent= 0 FoldK=F
 E= -151.524547417029     Delta-E=       -0.000000019375 Rises=F Damp=F
 DIIS: error= 2.08D-06 at cycle   2 NSaved=   2.
 NSaved= 2 IEnMin= 2 EnMin= -151.524547417029     IErMin= 2 ErrMin= 2.08D-06
 ErrMax= 2.08D-06 EMaxC= 1.00D-01 BMatC= 7.21D-10 BMatP= 2.04D-08
 IDIUse=1 WtCom= 1.00D+00 WtEn= 0.00D+00
 Coeff-Com: -0.121D+00 0.112D+01
 Coeff:     -0.121D+00 0.112D+01
 Gap=     0.450 Goal=   None    Shift=    0.000
 RMSDP=2.58D-07 MaxDP=7.38D-06 DE=-1.94D-08 OVMax= 1.39D-05

 Cycle   3  Pass 1  IDiag  1:
 RMSU=  9.65D-08    CP:  1.00D+00  1.24D+00
 FoFJK:  IHMeth= 1 ICntrl=     0 DoSepK=T KAlg= 1 I1Cent= 0 FoldK=F
 E= -151.524547418647     Delta-E=       -0.000000001618 Rises=F Damp=F
 DIIS: error= 5.95D-07 at cycle   3 NSaved=   3.
 NSaved= 3 IEnMin= 3 EnMin= -151.524547418647     IErMin= 3 ErrMin= 5.95D-07
 ErrMax= 5.95D-07 EMaxC= 1.00D-01 BMatC= 5.80D-11 BMatP= 7.21D-10
 IDIUse=1 WtCom= 1.00D+00 WtEn= 0.00D+00
 Coeff-Com: -0.114D-01-0.692D-01 0.108D+01
 Coeff:     -0.114D-01-0.692D-01 0.108D+01
 Gap=     0.450 Goal=   None    Shift=    0.000
 RMSDP=8.14D-08 MaxDP=1.67D-06 DE=-1.62D-09 OVMax= 5.56D-06

 Cycle   4  Pass 1  IDiag  1:
 RMSU=  2.92D-08    CP:  1.00D+00  1.29D+00  1.37D+00
 FoFJK:  IHMeth= 1 ICntrl=     0 DoSepK=T KAlg= 1 I1Cent= 0 FoldK=F
 E= -151.524547418791     Delta-E=       -0.000000000144 Rises=F Damp=F
 DIIS: error= 4.56D-07 at cycle   4 NSaved=   4.
 NSaved= 4 IEnMin= 4 EnMin= -151.524547418791     IErMin= 4 ErrMin= 4.56D-07
 ErrMax= 4.56D-07 EMaxC= 1.00D-01 BMatC= 3.52D-11 BMatP= 5.80D-11
 IDIUse=1 WtCom= 1.00D+00 WtEn= 0.00D+00
 Coeff-Com:  0.554D-02-0.140D+00 0.510D+00 0.624D+00
 Coeff:      0.554D-02-0.140D+00 0.510D+00 0.624D+00
 Gap=     0.450 Goal=   None    Shift=    0.000
 RMSDP=2.92D-08 MaxDP=5.30D-07 DE=-1.44D-10 OVMax= 1.91D-06

 Cycle   5  Pass 1  IDiag  1:
 RMSU=  1.38D-08    CP:  1.00D+00  1.30D+00  1.50D+00  7.75D-01
 FoFJK:  IHMeth= 1 ICntrl=     0 DoSepK=T KAlg= 1 I1Cent= 0 FoldK=F
 E= -151.524547418824     Delta-E=       -0.000000000033 Rises=F Damp=F
 DIIS: error= 1.65D-07 at cycle   5 NSaved=   5.
 NSaved= 5 IEnMin= 5 EnMin= -151.524547418824     IErMin= 5 ErrMin= 1.65D-07
 ErrMax= 1.65D-07 EMaxC= 1.00D-01 BMatC= 4.24D-12 BMatP= 3.52D-11
 IDIUse=1 WtCom= 1.00D+00 WtEn= 0.00D+00
 Coeff-Com:  0.450D-02-0.371D-01-0.730D-01 0.233D+00 0.872D+00
 Coeff:      0.450D-02-0.371D-01-0.730D-01 0.233D+00 0.872D+00
 Gap=     0.450 Goal=   None    Shift=    0.000
 RMSDP=1.60D-08 MaxDP=2.88D-07 DE=-3.31D-11 OVMax= 1.32D-06

 Cycle   6  Pass 1  IDiag  1:
 RMSU=  4.17D-09    CP:  1.00D+00  1.30D+00  1.57D+00  1.01D+00  1.20D+00
 FoFJK:  IHMeth= 1 ICntrl=     0 DoSepK=T KAlg= 1 I1Cent= 0 FoldK=F
 E= -151.524547418830     Delta-E=       -0.000000000006 Rises=F Damp=F
 DIIS: error= 3.46D-08 at cycle   6 NSaved=   6.
 NSaved= 6 IEnMin= 6 EnMin= -151.524547418830     IErMin= 6 ErrMin= 3.46D-08
 ErrMax= 3.46D-08 EMaxC= 1.00D-01 BMatC= 2.05D-13 BMatP= 4.24D-12
 IDIUse=1 WtCom= 1.00D+00 WtEn= 0.00D+00
 Coeff-Com: -0.435D-03 0.131D-01-0.540D-01-0.431D-01 0.569D-01 0.103D+01
 Coeff:     -0.435D-03 0.131D-01-0.540D-01-0.431D-01 0.569D-01 0.103D+01
 Gap=     0.450 Goal=   None    Shift=    0.000
 RMSDP=5.85D-09 MaxDP=1.32D-07 DE=-5.74D-12 OVMax= 5.18D-07

 SCF Done:  E(RLC-wPBE) =  -151.524547419     A.U. after    6 cycles
             Convg  =    0.5846D-08             -V/T =  2.0067
 KE= 1.505106734022D+02 PE=-4.315250119584D+02 EE= 9.285763647664D+01
 Leave Link  502 at Tue May 12 20:54:45 2020, MaxMem= 1073741824 cpu:      45.6
 (Enter /home/matheus/.gaussian/g09/l122.exe)
 Restoring MOs from calculation   5 to rwf.
 Counterpoise: doing MCBS calculation for fragment   2
 Leave Link  122 at Tue May 12 20:54:45 2020, MaxMem= 1073741824 cpu:       0.0
 (Enter /home/matheus/.gaussian/g09/l301.exe)
 Basis read from rwf:  (5D, 7F)
 No pseudopotential information found on rwf file.
 There are    59 symmetry adapted basis functions of A   symmetry.
 Integral buffers will be    131072 words long.
 Raffenetti 2 integral format.
 Two-electron integral symmetry is turned on.
    59 basis functions,   217 primitive gaussians,    69 cartesian basis functions
    18 alpha electrons       18 beta electrons
       nuclear repulsion energy         0.0000000000 Hartrees.
 IExCor=32609 DFT=T Ex+Corr=LC-wPBE ExCW=0 ScaHFX=  1.000000
 ScaDFX=  1.000000  0.000000  1.000000  1.000000 ScalE2=  1.000000  1.000000
 IRadAn=      5 IRanWt=     -1 IRanGd=            0 ICorTp=0
  HFx wShort=  0.000000 wLong=  0.400000 cFull=  0.000000 cShort=  0.000000 cLong=  1.000000
  DFx wShort=  0.000000 wLong=  0.400000 cFull=  0.000000 cShort=  0.000000 cLong=  1.000000
 NAtoms=    5 NActive=    1 NUniq=    1 SFac= 1.00D+00 NAtFMM=   60 NAOKFM=F Big=F
 No density basis found on file   718.
 Leave Link  301 at Tue May 12 20:54:46 2020, MaxMem= 1073741824 cpu:       0.2
 (Enter /home/matheus/.gaussian/g09/l302.exe)
 NPDir=0 NMtPBC=     1 NCelOv=     1 NCel=       1 NClECP=     1 NCelD=      1
         NCelK=      1 NCelE2=     1 NClLst=     1 CellRange=     0.0.
 One-electron integrals computed using PRISM.
 NBasis=    59 RedAO= T  NBF=    59
 NBsUse=    59 1.00D-06 NBFU=    59
 Precomputing XC quadrature grid using
 IXCGrd= 2 IRadAn=           5 IRanWt=          -1 IRanGd=           0 AccXCQ= 0.00D+00.
 NRdTot=      81 NPtTot=       30352 NUsed=       30981 NTot=       31013
 NSgBfM=    69    69    69    69    69 NAtAll=     1     1.
 Leave Link  302 at Tue May 12 20:54:46 2020, MaxMem= 1073741824 cpu:       0.6
 (Enter /home/matheus/.gaussian/g09/l303.exe)
 DipDrv:  MaxL=1.
 Leave Link  303 at Tue May 12 20:54:46 2020, MaxMem= 1073741824 cpu:       0.1
 (Enter /home/matheus/.gaussian/g09/l401.exe)
 Initial guess read from the read-write file.
 Guess basis will be translated and rotated to current coordinates.
 Initial guess orbital symmetries:
       Occupied  (A) (A) (A) (A) (A) (A) (A) (A) (A) (A) (A) (A)
                 (A) (A) (A) (A) (A) (A)
       Virtual   (A) (A) (A) (A) (A) (A) (A) (A) (A) (A) (A) (A)
                 (A) (A) (A) (A) (A) (A) (A) (A) (A) (A) (A) (A)
                 (A) (A) (A) (A) (A) (A) (A) (A) (A) (A) (A) (A)
                 (A) (A) (A) (A) (A)
 The electronic state of the initial guess is 1-A.
 Generating alternative initial guess.
 Harris functional with IExCor=32609 diagonalized for initial guess.
 ExpMin= 4.00D-02 ExpMax= 1.17D+07 ExpMxC= 1.33D+04 IAcc=3 IRadAn=         5 AccDes= 0.00D+00
 HarFok:  IExCor=32609 AccDes= 0.00D+00 IRadAn=         5 IDoV= 1
 ScaDFX=  1.000000  1.000000  1.000000  1.000000
 FoFCou: FMM=F IPFlag=           0 FMFlag=      100000 FMFlg1=           0
         NFxFlg=           0 DoJE=T BraDBF=F KetDBF=T FulRan=T
         Omega=  0.000000  0.000000  1.000000  0.000000  0.000000 ICntrl=     500 IOpCl=  0
         NMat0=    1 NMatS0=    1 NMatT0=    0 NMatD0=    1 NMtDS0=    0 NMtDT0=    0
         I1Cent=           4 NGrid=           0.
 Petite list used in FoFCou.
 DSYEVD returned Info=          89 IAlg= 4 N=    59 NDim=    59 NE2=    18198841 trying DSYEV.
 Harris En= -2753.24576836237    
 Leave Link  401 at Tue May 12 20:54:46 2020, MaxMem= 1073741824 cpu:       1.0
 (Enter /home/matheus/.gaussian/g09/l502.exe)
 Closed shell SCF:
 Requested convergence on RMS density matrix=1.00D-08 within 128 cycles.
 Requested convergence on MAX density matrix=1.00D-06.
 Requested convergence on             energy=1.00D-06.
 No special actions if energy rises.
 Using DIIS extrapolation, IDIIS=  1040.
 Integral symmetry usage will be decided dynamically.
        30923 words used for storage of precomputed grid.
 IEnd=       64406 IEndB=       64406 NGot=  1073741824 MDV=  1073698889
 LenX=  1073698889 LenY=  1073693687
 Fock matrices will be formed incrementally for  20 cycles.

 Cycle   1  Pass 1  IDiag  1:
 FoFJK:  IHMeth= 1 ICntrl=     0 DoSepK=T KAlg= 1 I1Cent= 0 FoldK=F
 FoFCou: FMM=F IPFlag=           0 FMFlag=      100000 FMFlg1=           0
         NFxFlg=           0 DoJE=T BraDBF=F KetDBF=F FulRan=T
         Omega=  0.000000  0.000000  1.000000  0.000000  0.000000 ICntrl=     500 IOpCl=  0
         NMat0=    1 NMatS0=    1 NMatT0=    0 NMatD0=    1 NMtDS0=    0 NMtDT0=    0
         I1Cent=           0 NGrid=           0.
 Symmetry not used in FoFCou.
 E= -2753.43563276534    
 DIIS: error= 8.80D-14 at cycle   1 NSaved=   1.
 NSaved= 1 IEnMin= 1 EnMin= -2753.43563276534     IErMin= 1 ErrMin= 8.80D-14
 ErrMax= 8.80D-14 EMaxC= 1.00D-01 BMatC= 2.05D-25 BMatP= 2.05D-25
 IDIUse=1 WtCom= 1.00D+00 WtEn= 0.00D+00
 Coeff-Com:  0.100D+01
 Coeff:      0.100D+01
 Gap=     0.599 Goal=   None    Shift=    0.000
 RMSDP=7.31D-15 MaxDP=1.34D-13              OVMax= 1.49D-13

 SCF Done:  E(RLC-wPBE) =  -2753.43563277     A.U. after    1 cycles
             Convg  =    0.7312D-14             -V/T =  2.0014
 KE= 2.749535160915D+03 PE=-6.578948648680D+03 EE= 1.075977855000D+03
 Leave Link  502 at Tue May 12 20:54:47 2020, MaxMem= 1073741824 cpu:      11.0
 (Enter /home/matheus/.gaussian/g09/l122.exe)
 Restoring MOs from calculation   1 to rwf.
 Counterpoise: corrected energy =   -2904.960221231627
 Counterpoise: BSSE energy =       0.000021223297
 Leave Link  122 at Tue May 12 20:54:47 2020, MaxMem= 1073741824 cpu:       0.0
 (Enter /home/matheus/.gaussian/g09/l108.exe)
 Scan completed.

 Summary of the potential surface scan:
   N      R1          SCF    
 ----  ---------  -----------
    1     3.0000  -2753.43563
    2     3.1000  -2753.43563
    3     3.2000  -2753.43563
    4     3.3000  -2753.43563
    5     3.4000  -2753.43563
    6     3.5000  -2753.43563
    7     3.6000  -2753.43563
    8     3.7000  -2753.43563
    9     3.8000  -2753.43563
   10     3.9000  -2753.43563
   11     4.0000  -2753.43563
   12     4.1000  -2753.43563
   13     4.2000  -2753.43563
   14     4.3000  -2753.43563
   15     4.4000  -2753.43563
   16     4.5000  -2753.43563
   17     4.6000  -2753.43563
   18     4.7000  -2753.43563
   19     4.8000  -2753.43563
   20     4.9000  -2753.43563
   21     5.0000  -2753.43563
 ----  ---------  -----------
  
 Leave Link  108 at Tue May 12 20:54:47 2020, MaxMem= 1073741824 cpu:       0.0
 (Enter /home/matheus/.gaussian/g09/l9999.exe)
 1\1\GINC-REDGIANT\Scan\RLC-wPBE\Aug-CC-pVTZ\H2Kr1O2\MATHEUS\12-May-202
 0\1\\#p lc-wpbe/aug-cc-PVTz int=ultrafine counterpoise=2 Scan\\TCC\\0,
 1\O,0,0.,0.,0.725\O,0,0.,0.,-0.725\H,0,-0.9047631646,0.1595341571,1.02
 35104166\H,0,0.,0.9187205947,-1.0235104166\Kr,0,0.,R1,0.\\R1=3.,s,20,0
 .1\\Version=EM64L-G09RevC.01\State=1-A\HF=-2753.4356328,-2753.4356328,
 -2753.4356328,-2753.4356328,-2753.4356328,-2753.4356328,-2753.4356328,
 -2753.4356328,-2753.4356328,-2753.4356328,-2753.4356328,-2753.4356328,
 -2753.4356328,-2753.4356328,-2753.4356328,-2753.4356328,-2753.4356328,
 -2753.4356328,-2753.4356328,-2753.4356328,-2753.4356328\RMSD=1.428e-09
 ,5.221e-11,1.075e-11,2.471e-12,6.371e-13,1.597e-13,4.115e-14,1.115e-14
 ,7.982e-15,1.195e-14,6.946e-15,8.246e-15,3.900e-15,8.209e-15,6.891e-15
 ,4.589e-15,5.345e-15,7.571e-15,5.285e-15,7.696e-15,7.312e-15\PG=C01 [X
 (H2Kr1O2)]\\@


  THE LARGE PRINT GIVETH,
  AND THE SMALL PRINT TAKETH AWAY.

                     -- TOM WAITS
 Job cpu time:  0 days  3 hours 17 minutes  9.0 seconds.
 File lengths (MBytes):  RWF=     33 Int=      0 D2E=      0 Chk=      8 Scr=      1
 Normal termination of Gaussian 09 at Tue May 12 20:54:47 2020.
