 Entering Gaussian System, Link 0=g09
 Input=/home/matheus/.tcc/Inputs/Inputs-lc-wpbe-default/H2O2-Kr_0.com
 Output=/home/matheus/.tcc/Logs/Logs-lc-wpbe-default/H2O2-Kr_0.log
 Initial command:
 /home/matheus/.gaussian/g09/l1.exe /home/matheus/.gaussian/g09/scratch/Gau-4158.inp -scrdir=/home/matheus/.gaussian/g09/scratch/
 Entering Link 1 = /home/matheus/.gaussian/g09/l1.exe PID=      4162.
  
 Copyright (c) 1988,1990,1992,1993,1995,1998,2003,2009,2011,
            Gaussian, Inc.  All Rights Reserved.
  
 This is part of the Gaussian(R) 09 program.  It is based on
 the Gaussian(R) 03 system (copyright 2003, Gaussian, Inc.),
 the Gaussian(R) 98 system (copyright 1998, Gaussian, Inc.),
 the Gaussian(R) 94 system (copyright 1995, Gaussian, Inc.),
 the Gaussian 92(TM) system (copyright 1992, Gaussian, Inc.),
 the Gaussian 90(TM) system (copyright 1990, Gaussian, Inc.),
 the Gaussian 88(TM) system (copyright 1988, Gaussian, Inc.),
 the Gaussian 86(TM) system (copyright 1986, Carnegie Mellon
 University), and the Gaussian 82(TM) system (copyright 1983,
 Carnegie Mellon University). Gaussian is a federally registered
 trademark of Gaussian, Inc.
  
 This software contains proprietary and confidential information,
 including trade secrets, belonging to Gaussian, Inc.
  
 This software is provided under written license and may be
 used, copied, transmitted, or stored only in accord with that
 written license.
  
 The following legend is applicable only to US Government
 contracts under FAR:
  
                    RESTRICTED RIGHTS LEGEND
  
 Use, reproduction and disclosure by the US Government is
 subject to restrictions as set forth in subparagraphs (a)
 and (c) of the Commercial Computer Software - Restricted
 Rights clause in FAR 52.227-19.
  
 Gaussian, Inc.
 340 Quinnipiac St., Bldg. 40, Wallingford CT 06492
  
  
 ---------------------------------------------------------------
 Warning -- This program may not be used in any manner that
 competes with the business of Gaussian, Inc. or will provide
 assistance to any competitor of Gaussian, Inc.  The licensee
 of this program is prohibited from giving any competitor of
 Gaussian, Inc. access to this program.  By using this program,
 the user acknowledges that Gaussian, Inc. is engaged in the
 business of creating and licensing software in the field of
 computational chemistry and represents and warrants to the
 licensee that it is not a competitor of Gaussian, Inc. and that
 it will not use this program in any manner prohibited above.
 ---------------------------------------------------------------
  

 Cite this work as:
 Gaussian 09, Revision C.01,
 M. J. Frisch, G. W. Trucks, H. B. Schlegel, G. E. Scuseria, 
 M. A. Robb, J. R. Cheeseman, G. Scalmani, V. Barone, B. Mennucci, 
 G. A. Petersson, H. Nakatsuji, M. Caricato, X. Li, H. P. Hratchian, 
 A. F. Izmaylov, J. Bloino, G. Zheng, J. L. Sonnenberg, M. Hada, 
 M. Ehara, K. Toyota, R. Fukuda, J. Hasegawa, M. Ishida, T. Nakajima, 
 Y. Honda, O. Kitao, H. Nakai, T. Vreven, J. A. Montgomery, Jr., 
 J. E. Peralta, F. Ogliaro, M. Bearpark, J. J. Heyd, E. Brothers, 
 K. N. Kudin, V. N. Staroverov, T. Keith, R. Kobayashi, J. Normand, 
 K. Raghavachari, A. Rendell, J. C. Burant, S. S. Iyengar, J. Tomasi, 
 M. Cossi, N. Rega, J. M. Millam, M. Klene, J. E. Knox, J. B. Cross, 
 V. Bakken, C. Adamo, J. Jaramillo, R. Gomperts, R. E. Stratmann, 
 O. Yazyev, A. J. Austin, R. Cammi, C. Pomelli, J. W. Ochterski, 
 R. L. Martin, K. Morokuma, V. G. Zakrzewski, G. A. Voth, 
 P. Salvador, J. J. Dannenberg, S. Dapprich, A. D. Daniels, 
 O. Farkas, J. B. Foresman, J. V. Ortiz, J. Cioslowski, 
 and D. J. Fox, Gaussian, Inc., Wallingford CT, 2010.
 
 ******************************************
 Gaussian 09:  EM64L-G09RevC.01 23-Sep-2011
                12-May-2020 
 ******************************************
 %mem=8GB
 %nproc=8
 Will use up to    8 processors via shared memory.
 --------------------------------------------------------
 #p lc-wpbe/aug-cc-PVTz int=ultrafine counterpoise=2 Scan
 --------------------------------------------------------
 1/38=1,60=1,62=2/1,8;
 2/12=2,17=6,18=5,29=3,40=1/2;
 1/38=1,53=5172,62=2/22;
 3/5=16,6=1,7=10,11=2,16=1,25=1,30=1,74=-41,75=-5/1,2,3;
 4//1;
 5/5=2,38=5/2;
 6/7=2,8=2,9=2,10=2,18=1,28=1/1;
 1/53=4052,62=2,63=1/22;
 3/5=7,6=11,7=10,11=2,16=1,25=1,30=1,74=-41,75=-5,82=7/1,2,3;
 4//1;
 5/5=2,38=5/2;
 6/7=2,8=2,9=2,10=2,18=1,28=1/1;
 1/53=3042,62=2,63=2/22;
 3/5=7,6=11,7=10,11=2,16=1,25=1,30=1,74=-41,75=-5,82=7/1,2,3;
 4//1;
 5/5=2,38=5/2;
 6/7=2,8=2,9=2,10=2,18=1,28=1/1;
 1/53=2032,62=2,63=3/22;
 3/5=7,6=11,7=10,11=2,16=1,25=1,30=1,74=-41,75=-5,82=7/1,2,3;
 4//1;
 5/5=2,38=5/2;
 6/7=2,8=2,9=2,10=2,18=1,28=1/1;
 1/53=1022,62=2,63=4/22;
 3/5=7,6=11,7=10,11=2,16=1,25=1,30=1,74=-41,75=-5,82=7/1,2,3;
 4//1;
 5/5=2,38=5/2;
 6/7=2,8=2,9=2,10=2,18=1,28=1/1;
 1/53=5014,62=2,63=5/22;
 1/60=1,62=2/8(1);
 99/9=1/99;
 2/29=3/2;
 1/53=5173,62=2/22;
 3/5=7,6=11,7=10,11=2,16=1,25=1,30=1,74=-41,75=-5,82=7/1,2,3;
 4/5=5,16=3/1;
 5/5=2,38=5/2;
 1/53=4053,62=2,63=1/22;
 3/5=7,6=11,7=10,11=2,16=1,25=1,30=1,74=-41,75=-5,82=7/1,2,3;
 4/5=5,16=3/1;
 5/5=2,38=5/2;
 1/53=3043,62=2,63=2/22;
 3/5=7,6=11,7=10,11=2,16=1,25=1,30=1,74=-41,75=-5,82=7/1,2,3;
 4/5=5,16=3/1;
 5/5=2,38=5/2;
 1/53=2033,62=2,63=3/22;
 3/5=7,6=11,7=10,11=2,16=1,25=1,30=1,74=-41,75=-5,82=7/1,2,3;
 4/5=5,16=3/1;
 5/5=2,38=5/2;
 1/53=1024,62=2,63=4/22;
 3/5=7,6=11,7=10,11=2,16=1,25=1,30=1,74=-41,75=-5,82=7/1,2,3;
 4/5=5,16=3/1;
 5/5=2,38=5/2;
 1/53=5014,62=2,63=5/22;
 1/60=1,62=2/8(-22);
 99/9=1/99;
 Leave Link    1 at Tue May 12 09:13:55 2020, MaxMem= 1073741824 cpu:       0.3
 (Enter /home/matheus/.gaussian/g09/l101.exe)
 ---
 TCC
 ---
 Charge =  0 Multiplicity = 1 in supermolecule
 Charge =  0 Multiplicity = 1 in fragment  1.
 Charge =  0 Multiplicity = 1 in fragment  2.
 Symbolic Z-Matrix:
 O(Fragment=1)         0.        0.        0.725 
 O(Fragment=1)         0.        0.       -0.725 
 H(Fragment=1)         0.        0.91872   1.02351 
 H(Fragment=1)         0.        0.91872  -1.02351 
 Kr(Fragment=2)        0.       R1        0. 
       Variables:
  R1                    3.     Scan 20    0.1    
 
 NAtoms=      5 NQM=        0 NQMF=       0 NMMI=      5 NMMIF=      0
                NMic=       0 NMicF=      0.
                    Isotopes and Nuclear Properties:
 (Nuclear quadrupole moments (NQMom) in fm**2, nuclear magnetic moments (NMagM)
  in nuclear magnetons)

  Atom         1           2           3           4           5
 IAtWgt=          16          16           1           1          84
 AtmWgt=  15.9949146  15.9949146   1.0078250   1.0078250  83.9115064
 NucSpn=           0           0           1           1           0
 AtZEff=   0.0000000   0.0000000   0.0000000   0.0000000   0.0000000
 NQMom=    0.0000000   0.0000000   0.0000000   0.0000000   0.0000000
 NMagM=    0.0000000   0.0000000   2.7928460   2.7928460   0.0000000
 Leave Link  101 at Tue May 12 09:13:55 2020, MaxMem= 1073741824 cpu:       0.3
 (Enter /home/matheus/.gaussian/g09/l108.exe)
 Scan the potential surface.
 Variable   Value     No. Steps Step-Size
 -------- ----------- --------- ---------
     1       3.000000      20      0.1000
 A total of     21 points will be computed.
 Leave Link  108 at Tue May 12 09:13:55 2020, MaxMem= 1073741824 cpu:       0.0
 (Enter /home/matheus/.gaussian/g09/l202.exe)
 ---------------------------------------------------------------------------------------------------
                            Z-MATRIX (ANGSTROMS AND DEGREES)
   CD    Cent   Atom    N1       Length/X        N2       Alpha/Y        N3        Beta/Z          J
 ---------------------------------------------------------------------------------------------------
      1      1  O        0   0.000000          0.000000          0.725000
      2      2  O        0   0.000000          0.000000         -0.725000
      3      3  H        0   0.000000          0.918721          1.023510
      4      4  H        0   0.000000          0.918721         -1.023510
      5      5  Kr       0   0.000000          3.000000          0.000000
 ---------------------------------------------------------------------------------------------------
                         Z-Matrix orientation:                         
 ---------------------------------------------------------------------
 Center     Atomic      Atomic             Coordinates (Angstroms)
 Number     Number       Type             X           Y           Z
 ---------------------------------------------------------------------
      1          8           0        0.000000    0.000000    0.725000
      2          8           0        0.000000    0.000000   -0.725000
      3          1           0        0.000000    0.918721    1.023510
      4          1           0        0.000000    0.918721   -1.023510
      5         36           0        0.000000    3.000000    0.000000
 ---------------------------------------------------------------------
                    Distance matrix (angstroms):
                    1          2          3          4          5
     1  O    0.000000
     2  O    1.450000   0.000000
     3  H    0.966000   1.975180   0.000000
     4  H    1.975180   0.966000   2.047021   0.000000
     5  Kr   3.086361   3.086361   2.319331   2.319331   0.000000
 Stoichiometry    H2KrO2
 Framework group  C2V[C2(Kr),SGV(H2O2)]
 Deg. of freedom     4
 Full point group                 C2V     NOp   4
 Largest Abelian subgroup         C2V     NOp   4
 Largest concise Abelian subgroup C2      NOp   2
                         Standard orientation:                         
 ---------------------------------------------------------------------
 Center     Atomic      Atomic             Coordinates (Angstroms)
 Number     Number       Type             X           Y           Z
 ---------------------------------------------------------------------
      1          8           0        0.000000    0.725000   -2.034027
      2          8           0        0.000000   -0.725000   -2.034027
      3          1           0        0.000000    1.023510   -1.115306
      4          1           0        0.000000   -1.023510   -1.115306
      5         36           0        0.000000    0.000000    0.965973
 ---------------------------------------------------------------------
 Rotational constants (GHZ):     26.7026195      2.3888795      2.1927141
 Leave Link  202 at Tue May 12 09:13:55 2020, MaxMem= 1073741824 cpu:       0.0
 (Enter /home/matheus/.gaussian/g09/l122.exe)
 Leave Link  122 at Tue May 12 09:13:55 2020, MaxMem= 1073741824 cpu:       0.0
 (Enter /home/matheus/.gaussian/g09/l301.exe)
 Standard basis: Aug-CC-pVTZ (5D, 7F)
 Ernie: Thresh=  0.10000D-02 Tol=  0.10000D-05 Strict=F.
 Ernie:  38 primitive shells out of 205 were deleted.
 There are    71 symmetry adapted basis functions of A1  symmetry.
 There are    29 symmetry adapted basis functions of A2  symmetry.
 There are    37 symmetry adapted basis functions of B1  symmetry.
 There are    60 symmetry adapted basis functions of B2  symmetry.
 Integral buffers will be    131072 words long.
 Raffenetti 2 integral format.
 Two-electron integral symmetry is turned on.
   197 basis functions,   415 primitive gaussians,   229 cartesian basis functions
    27 alpha electrons       27 beta electrons
       nuclear repulsion energy       151.8532718296 Hartrees.
 IExCor=32609 DFT=T Ex+Corr=LC-wPBE ExCW=0 ScaHFX=  1.000000
 ScaDFX=  1.000000  0.000000  1.000000  1.000000 ScalE2=  1.000000  1.000000
 IRadAn=      5 IRanWt=     -1 IRanGd=            0 ICorTp=0
  HFx wShort=  0.000000 wLong=  0.400000 cFull=  0.000000 cShort=  0.000000 cLong=  1.000000
  DFx wShort=  0.000000 wLong=  0.400000 cFull=  0.000000 cShort=  0.000000 cLong=  1.000000
 NAtoms=    5 NActive=    5 NUniq=    3 SFac= 2.78D+00 NAtFMM=   60 NAOKFM=F Big=F
 Leave Link  301 at Tue May 12 09:13:55 2020, MaxMem= 1073741824 cpu:       0.1
 (Enter /home/matheus/.gaussian/g09/l302.exe)
 NPDir=0 NMtPBC=     1 NCelOv=     1 NCel=       1 NClECP=     1 NCelD=      1
         NCelK=      1 NCelE2=     1 NClLst=     1 CellRange=     0.0.
 One-electron integrals computed using PRISM.
 One-electron integral symmetry used in STVInt
 NBasis=   197 RedAO= T  NBF=    71    29    37    60
 NBsUse=   197 1.00D-06 NBFU=    71    29    37    60
 Precomputing XC quadrature grid using
 IXCGrd= 2 IRadAn=           5 IRanWt=          -1 IRanGd=           0 AccXCQ= 0.00D+00.
 NRdTot=     427 NPtTot=      123512 NUsed=      126579 NTot=      126611
 NSgBfM=   229   229   229   229   229 NAtAll=     5     5.
 Leave Link  302 at Tue May 12 09:13:55 2020, MaxMem= 1073741824 cpu:       0.8
 (Enter /home/matheus/.gaussian/g09/l303.exe)
 DipDrv:  MaxL=1.
 Leave Link  303 at Tue May 12 09:13:55 2020, MaxMem= 1073741824 cpu:       0.2
 (Enter /home/matheus/.gaussian/g09/l401.exe)
 Harris functional with IExCor=32609 diagonalized for initial guess.
 ExpMin= 2.53D-02 ExpMax= 1.17D+07 ExpMxC= 1.33D+04 IAcc=3 IRadAn=         5 AccDes= 0.00D+00
 HarFok:  IExCor=32609 AccDes= 0.00D+00 IRadAn=         5 IDoV= 1
 ScaDFX=  1.000000  1.000000  1.000000  1.000000
 FoFCou: FMM=F IPFlag=           0 FMFlag=      100000 FMFlg1=           0
         NFxFlg=           0 DoJE=T BraDBF=F KetDBF=T FulRan=T
         Omega=  0.000000  0.000000  1.000000  0.000000  0.000000 ICntrl=     500 IOpCl=  0
         NMat0=    1 NMatS0=    1 NMatT0=    0 NMatD0=    1 NMtDS0=    0 NMtDT0=    0
         I1Cent=           4 NGrid=           0.
 Petite list used in FoFCou.
 Harris En= -2904.72916960224    
 Initial guess orbital symmetries:
       Occupied  (A1) (A1) (A1) (B2) (B1) (B2) (A1) (A1) (A1) (B2)
                 (B1) (A1) (B2) (B1) (A1) (A2) (A1) (B2) (A1) (A1)
                 (A1) (B1) (B2) (B1) (A1) (B2) (A2)
       Virtual   (B2) (A1) (B2) (A1) (B1) (B2) (A1) (A1) (B1) (B2)
                 (A1) (A2) (A1) (B1) (B2) (A1) (A2) (B2) (A1) (A1)
                 (B1) (B2) (B2) (A1) (A2) (B2) (B2) (A1) (B1) (A1)
                 (A1) (B1) (B2) (A1) (B2) (B1) (A2) (B1) (A1) (A1)
                 (B2) (A2) (A1) (A1) (A2) (B2) (A1) (B2) (B1) (B1)
                 (A2) (A1) (B2) (B1) (B2) (A1) (B1) (B2) (A1) (A2)
                 (B2) (A2) (A1) (B2) (A1) (A1) (B2) (B1) (A2) (B1)
                 (A1) (B2) (A2) (A1) (B2) (A1) (B2) (B1) (A1) (B2)
                 (A1) (B1) (A1) (A2) (B1) (A1) (B2) (B1) (B2) (A2)
                 (B2) (A1) (A2) (A1) (A1) (B1) (B2) (A1) (B1) (B2)
                 (B1) (B2) (A1) (A2) (B1) (B2) (A1) (B1) (A2) (B2)
                 (A1) (A2) (B2) (A1) (A1) (B2) (B2) (A2) (B2) (A1)
                 (B1) (B2) (B1) (A2) (A1) (B1) (A2) (A1) (B2) (A2)
                 (A1) (A1) (B2) (B2) (A1) (A1) (B1) (A1) (B2) (A2)
                 (B2) (B2) (A1) (B1) (B2) (A1) (B1) (A1) (A2) (B2)
                 (B1) (A1) (A2) (A1) (B1) (B1) (B2) (A2) (A2) (B2)
                 (A1) (A2) (A1) (B2) (B2) (A1) (B2) (B2) (A1) (B2)
 The electronic state of the initial guess is 1-A1.
 Leave Link  401 at Tue May 12 09:13:56 2020, MaxMem= 1073741824 cpu:       1.6
 (Enter /home/matheus/.gaussian/g09/l502.exe)
 Closed shell SCF:
 Requested convergence on RMS density matrix=1.00D-08 within 128 cycles.
 Requested convergence on MAX density matrix=1.00D-06.
 Requested convergence on             energy=1.00D-06.
 No special actions if energy rises.
 Using DIIS extrapolation, IDIIS=  1040.
 Integral symmetry usage will be decided dynamically.
       126521 words used for storage of precomputed grid.
 IEnd=      305860 IEndB=      305860 NGot=  1073741824 MDV=  1073505275
 LenX=  1073505275 LenY=  1073452393
 Fock matrices will be formed incrementally for  20 cycles.

 Cycle   1  Pass 1  IDiag  1:
 FoFJK:  IHMeth= 1 ICntrl=     0 DoSepK=T KAlg= 1 I1Cent= 0 FoldK=F
 FoFCou: FMM=F IPFlag=           0 FMFlag=      100000 FMFlg1=           0
         NFxFlg=           0 DoJE=T BraDBF=F KetDBF=F FulRan=T
         Omega=  0.000000  0.000000  1.000000  0.000000  0.000000 ICntrl=     500 IOpCl=  0
         NMat0=    1 NMatS0=    1 NMatT0=    0 NMatD0=    1 NMtDS0=    0 NMtDT0=    0
         I1Cent=           0 NGrid=           0.
 Petite list used in FoFCou.
 E= -2904.86686919296    
 DIIS: error= 3.15D-02 at cycle   1 NSaved=   1.
 NSaved= 1 IEnMin= 1 EnMin= -2904.86686919296     IErMin= 1 ErrMin= 3.15D-02
 ErrMax= 3.15D-02 EMaxC= 1.00D-01 BMatC= 2.74D-01 BMatP= 2.74D-01
 IDIUse=3 WtCom= 6.85D-01 WtEn= 3.15D-01
 Coeff-Com:  0.100D+01
 Coeff-En:   0.100D+01
 Coeff:      0.100D+01
 Gap=     0.364 Goal=   None    Shift=    0.000
 GapD=    0.364 DampG=1.000 DampE=0.500 DampFc=0.5000 IDamp=-1.
 Damping current iteration by 5.00D-01
 RMSDP=2.48D-03 MaxDP=1.54D-01              OVMax= 7.97D-02

 Cycle   2  Pass 1  IDiag  1:
 RMSU=  8.61D-04    CP:  1.01D+00
 FoFJK:  IHMeth= 1 ICntrl=     0 DoSepK=T KAlg= 1 I1Cent= 0 FoldK=F
 E= -2904.90978947772     Delta-E=       -0.042920284762 Rises=F Damp=T
 DIIS: error= 9.89D-03 at cycle   2 NSaved=   2.
 NSaved= 2 IEnMin= 2 EnMin= -2904.90978947772     IErMin= 2 ErrMin= 9.89D-03
 ErrMax= 9.89D-03 EMaxC= 1.00D-01 BMatC= 1.98D-02 BMatP= 2.74D-01
 IDIUse=3 WtCom= 9.01D-01 WtEn= 9.89D-02
 Coeff-Com: -0.280D+00 0.128D+01
 Coeff-En:   0.000D+00 0.100D+01
 Coeff:     -0.252D+00 0.125D+01
 Gap=     0.426 Goal=   None    Shift=    0.000
 RMSDP=5.80D-04 MaxDP=2.66D-02 DE=-4.29D-02 OVMax= 3.64D-02

 Cycle   3  Pass 1  IDiag  1:
 RMSU=  3.26D-04    CP:  1.01D+00  1.29D+00
 FoFJK:  IHMeth= 1 ICntrl=     0 DoSepK=T KAlg= 1 I1Cent= 0 FoldK=F
 E= -2904.94523558218     Delta-E=       -0.035446104467 Rises=F Damp=F
 DIIS: error= 3.47D-03 at cycle   3 NSaved=   3.
 NSaved= 3 IEnMin= 3 EnMin= -2904.94523558218     IErMin= 3 ErrMin= 3.47D-03
 ErrMax= 3.47D-03 EMaxC= 1.00D-01 BMatC= 1.17D-03 BMatP= 1.98D-02
 IDIUse=3 WtCom= 9.65D-01 WtEn= 3.47D-02
 Coeff-Com: -0.875D-01 0.324D+00 0.764D+00
 Coeff-En:   0.000D+00 0.000D+00 0.100D+01
 Coeff:     -0.845D-01 0.312D+00 0.772D+00
 Gap=     0.408 Goal=   None    Shift=    0.000
 RMSDP=1.15D-04 MaxDP=2.71D-03 DE=-3.54D-02 OVMax= 7.53D-03

 Cycle   4  Pass 1  IDiag  1:
 RMSU=  7.05D-05    CP:  1.01D+00  1.31D+00  8.86D-01
 FoFJK:  IHMeth= 1 ICntrl=     0 DoSepK=T KAlg= 1 I1Cent= 0 FoldK=F
 E= -2904.94587842196     Delta-E=       -0.000642839774 Rises=F Damp=F
 DIIS: error= 1.13D-03 at cycle   4 NSaved=   4.
 NSaved= 4 IEnMin= 4 EnMin= -2904.94587842196     IErMin= 4 ErrMin= 1.13D-03
 ErrMax= 1.13D-03 EMaxC= 1.00D-01 BMatC= 1.67D-04 BMatP= 1.17D-03
 IDIUse=3 WtCom= 9.89D-01 WtEn= 1.13D-02
 Coeff-Com: -0.102D-01 0.157D-01 0.286D+00 0.708D+00
 Coeff-En:   0.000D+00 0.000D+00 0.000D+00 0.100D+01
 Coeff:     -0.101D-01 0.156D-01 0.283D+00 0.712D+00
 Gap=     0.414 Goal=   None    Shift=    0.000
 RMSDP=4.27D-05 MaxDP=1.78D-03 DE=-6.43D-04 OVMax= 2.25D-03

 Cycle   5  Pass 1  IDiag  1:
 RMSU=  1.19D-05    CP:  1.01D+00  1.31D+00  9.59D-01  8.02D-01
 FoFJK:  IHMeth= 1 ICntrl=     0 DoSepK=T KAlg= 1 I1Cent= 0 FoldK=F
 E= -2904.94597527812     Delta-E=       -0.000096856165 Rises=F Damp=F
 DIIS: error= 9.29D-05 at cycle   5 NSaved=   5.
 NSaved= 5 IEnMin= 5 EnMin= -2904.94597527812     IErMin= 5 ErrMin= 9.29D-05
 ErrMax= 9.29D-05 EMaxC= 1.00D-01 BMatC= 1.12D-06 BMatP= 1.67D-04
 IDIUse=1 WtCom= 1.00D+00 WtEn= 0.00D+00
 Coeff-Com:  0.126D-02-0.554D-02 0.517D-02 0.666D-01 0.933D+00
 Coeff:      0.126D-02-0.554D-02 0.517D-02 0.666D-01 0.933D+00
 Gap=     0.414 Goal=   None    Shift=    0.000
 RMSDP=5.83D-06 MaxDP=1.74D-04 DE=-9.69D-05 OVMax= 4.01D-04

 Cycle   6  Pass 1  IDiag  1:
 RMSU=  2.98D-06    CP:  1.01D+00  1.31D+00  9.59D-01  8.35D-01  1.13D+00
 FoFJK:  IHMeth= 1 ICntrl=     0 DoSepK=T KAlg= 1 I1Cent= 0 FoldK=F
 E= -2904.94597651404     Delta-E=       -0.000001235915 Rises=F Damp=F
 DIIS: error= 1.71D-05 at cycle   6 NSaved=   6.
 NSaved= 6 IEnMin= 6 EnMin= -2904.94597651404     IErMin= 6 ErrMin= 1.71D-05
 ErrMax= 1.71D-05 EMaxC= 1.00D-01 BMatC= 6.19D-08 BMatP= 1.12D-06
 IDIUse=1 WtCom= 1.00D+00 WtEn= 0.00D+00
 Coeff-Com:  0.882D-03-0.182D-02-0.197D-01-0.419D-01 0.713D-01 0.991D+00
 Coeff:      0.882D-03-0.182D-02-0.197D-01-0.419D-01 0.713D-01 0.991D+00
 Gap=     0.414 Goal=   None    Shift=    0.000
 RMSDP=2.03D-06 MaxDP=5.47D-05 DE=-1.24D-06 OVMax= 1.54D-04

 Cycle   7  Pass 1  IDiag  1:
 RMSU=  5.91D-07    CP:  1.01D+00  1.31D+00  9.60D-01  8.41D-01  1.22D+00
                    CP:  1.20D+00
 FoFJK:  IHMeth= 1 ICntrl=     0 DoSepK=T KAlg= 1 I1Cent= 0 FoldK=F
 E= -2904.94597660459     Delta-E=       -0.000000090549 Rises=F Damp=F
 DIIS: error= 2.83D-06 at cycle   7 NSaved=   7.
 NSaved= 7 IEnMin= 7 EnMin= -2904.94597660459     IErMin= 7 ErrMin= 2.83D-06
 ErrMax= 2.83D-06 EMaxC= 1.00D-01 BMatC= 1.42D-09 BMatP= 6.19D-08
 IDIUse=1 WtCom= 1.00D+00 WtEn= 0.00D+00
 Coeff-Com: -0.122D-03 0.317D-03 0.185D-02 0.273D-02-0.256D-01-0.107D+00
 Coeff-Com:  0.113D+01
 Coeff:     -0.122D-03 0.317D-03 0.185D-02 0.273D-02-0.256D-01-0.107D+00
 Coeff:      0.113D+01
 Gap=     0.414 Goal=   None    Shift=    0.000
 RMSDP=4.11D-07 MaxDP=8.07D-06 DE=-9.05D-08 OVMax= 3.47D-05

 Cycle   8  Pass 1  IDiag  1:
 RMSU=  1.32D-07    CP:  1.01D+00  1.31D+00  9.60D-01  8.41D-01  1.23D+00
                    CP:  1.24D+00  1.29D+00
 FoFJK:  IHMeth= 1 ICntrl=     0 DoSepK=T KAlg= 1 I1Cent= 0 FoldK=F
 E= -2904.94597660875     Delta-E=       -0.000000004168 Rises=F Damp=F
 DIIS: error= 9.22D-07 at cycle   8 NSaved=   8.
 NSaved= 8 IEnMin= 8 EnMin= -2904.94597660875     IErMin= 8 ErrMin= 9.22D-07
 ErrMax= 9.22D-07 EMaxC= 1.00D-01 BMatC= 1.42D-10 BMatP= 1.42D-09
 IDIUse=1 WtCom= 1.00D+00 WtEn= 0.00D+00
 Coeff-Com: -0.565D-04 0.122D-03 0.125D-02 0.266D-02-0.654D-02-0.697D-01
 Coeff-Com:  0.158D+00 0.914D+00
 Coeff:     -0.565D-04 0.122D-03 0.125D-02 0.266D-02-0.654D-02-0.697D-01
 Coeff:      0.158D+00 0.914D+00
 Gap=     0.414 Goal=   None    Shift=    0.000
 RMSDP=8.81D-08 MaxDP=1.87D-06 DE=-4.17D-09 OVMax= 7.49D-06

 Cycle   9  Pass 1  IDiag  1:
 RMSU=  3.34D-08    CP:  1.01D+00  1.31D+00  9.60D-01  8.41D-01  1.23D+00
                    CP:  1.24D+00  1.37D+00  1.09D+00
 FoFJK:  IHMeth= 1 ICntrl=     0 DoSepK=T KAlg= 1 I1Cent= 0 FoldK=F
 E= -2904.94597668304     Delta-E=       -0.000000074289 Rises=F Damp=F
 DIIS: error= 2.80D-07 at cycle   9 NSaved=   9.
 NSaved= 9 IEnMin= 9 EnMin= -2904.94597668304     IErMin= 9 ErrMin= 2.80D-07
 ErrMax= 2.80D-07 EMaxC= 1.00D-01 BMatC= 6.66D-12 BMatP= 1.42D-10
 IDIUse=1 WtCom= 1.00D+00 WtEn= 0.00D+00
 Coeff-Com:  0.861D-05-0.229D-04-0.116D-03-0.141D-03 0.171D-02 0.565D-02
 Coeff-Com: -0.736D-01 0.914D-02 0.106D+01
 Coeff:      0.861D-05-0.229D-04-0.116D-03-0.141D-03 0.171D-02 0.565D-02
 Coeff:     -0.736D-01 0.914D-02 0.106D+01
 Gap=     0.414 Goal=   None    Shift=    0.000
 RMSDP=2.90D-08 MaxDP=1.25D-06 DE=-7.43D-08 OVMax= 3.03D-06

 Cycle  10  Pass 1  IDiag  1:
 RMSU=  8.23D-09    CP:  1.01D+00  1.31D+00  9.60D-01  8.41D-01  1.23D+00
                    CP:  1.24D+00  1.38D+00  1.17D+00  1.22D+00
 FoFJK:  IHMeth= 1 ICntrl=     0 DoSepK=T KAlg= 1 I1Cent= 0 FoldK=F
 E= -2904.94597668307     Delta-E=       -0.000000000025 Rises=F Damp=F
 DIIS: error= 7.01D-08 at cycle  10 NSaved=  10.
 NSaved=10 IEnMin=10 EnMin= -2904.94597668307     IErMin=10 ErrMin= 7.01D-08
 ErrMax= 7.01D-08 EMaxC= 1.00D-01 BMatC= 5.76D-13 BMatP= 6.66D-12
 IDIUse=1 WtCom= 1.00D+00 WtEn= 0.00D+00
 Coeff-Com:  0.245D-05-0.527D-05-0.563D-04-0.138D-03 0.440D-03 0.362D-02
 Coeff-Com: -0.103D-01-0.428D-01 0.184D-01 0.103D+01
 Coeff:      0.245D-05-0.527D-05-0.563D-04-0.138D-03 0.440D-03 0.362D-02
 Coeff:     -0.103D-01-0.428D-01 0.184D-01 0.103D+01
 Gap=     0.414 Goal=   None    Shift=    0.000
 RMSDP=8.24D-09 MaxDP=3.50D-07 DE=-2.55D-11 OVMax= 8.36D-07

 SCF Done:  E(RLC-wPBE) =  -2904.94597668     A.U. after   10 cycles
             Convg  =    0.8238D-08             -V/T =  2.0017
 KE= 2.900069931665D+03 PE=-7.239488462613D+03 EE= 1.282619282435D+03
 Leave Link  502 at Tue May 12 09:14:14 2020, MaxMem= 1073741824 cpu:     146.4
 (Enter /home/matheus/.gaussian/g09/l601.exe)
 Copying SCF densities to generalized density rwf, IOpCl= 0 IROHF=0.

 **********************************************************************

            Population analysis using the SCF density.

 **********************************************************************

 Orbital symmetries:
       Occupied  (A1) (A1) (A1) (B2) (B1) (B2) (A1) (A1) (A1) (B2)
                 (B1) (A1) (B2) (B1) (A2) (A1) (A1) (A1) (B2) (A1)
                 (A1) (B2) (B1) (B1) (A1) (B2) (A2)
       Virtual   (A1) (B2) (A1) (B1) (B2) (B2) (A1) (A1) (B1) (B2)
                 (A1) (A2) (B2) (A1) (B1) (A1) (A2) (B2) (A1) (A1)
                 (B2) (B1) (A1) (A2) (B2) (B2) (B2) (A1) (B1) (A1)
                 (A1) (B2) (B1) (A1) (B2) (B1) (A2) (A1) (B1) (B2)
                 (A1) (A2) (A1) (A2) (A1) (B2) (B2) (A1) (B1) (B1)
                 (A2) (A1) (B2) (B2) (B1) (A1) (A1) (B2) (B1) (A2)
                 (B2) (A2) (A1) (B2) (A1) (A1) (B2) (B1) (A2) (B1)
                 (B2) (A1) (A2) (A1) (B2) (B2) (A1) (B1) (A1) (B2)
                 (A1) (B1) (A1) (B1) (A2) (A1) (B2) (B2) (B1) (A2)
                 (A1) (A2) (A1) (B2) (A1) (B1) (A1) (B2) (B1) (B2)
                 (B1) (B2) (A1) (A2) (B1) (B2) (A1) (B1) (A2) (A1)
                 (B2) (A2) (B2) (A1) (A1) (B2) (B2) (A2) (B2) (A1)
                 (B2) (B1) (B1) (A1) (A2) (B1) (A2) (A1) (B2) (A2)
                 (A1) (A1) (B2) (B2) (A1) (A1) (B1) (A1) (B2) (A2)
                 (B2) (B2) (A1) (B1) (B2) (A1) (B1) (A1) (A2) (B2)
                 (B1) (A1) (A2) (A1) (B1) (B1) (B2) (A2) (A2) (B2)
                 (A1) (A2) (A1) (B2) (B2) (A1) (B2) (B2) (A1) (B2)
 The electronic state is 1-A1.
 Alpha  occ. eigenvalues -- -511.14849 -66.69524 -60.35747 -60.35737 -60.35724
 Alpha  occ. eigenvalues --  -19.02975 -19.02972  -9.62796  -7.37254  -7.37219
 Alpha  occ. eigenvalues --   -7.37183  -3.32796  -3.32792  -3.32764  -3.32737
 Alpha  occ. eigenvalues --   -3.32734  -1.25282  -1.07650  -1.03450  -0.71403
 Alpha  occ. eigenvalues --   -0.56962  -0.55425  -0.54631  -0.52959  -0.52822
 Alpha  occ. eigenvalues --   -0.49949  -0.38176
 Alpha virt. eigenvalues --    0.03257   0.04236   0.08218   0.09002   0.09955
 Alpha virt. eigenvalues --    0.11702   0.12703   0.16856   0.17426   0.17560
 Alpha virt. eigenvalues --    0.18491   0.19054   0.20035   0.21905   0.23076
 Alpha virt. eigenvalues --    0.23981   0.24719   0.25995   0.30316   0.33868
 Alpha virt. eigenvalues --    0.35244   0.37888   0.38884   0.39224   0.39874
 Alpha virt. eigenvalues --    0.43573   0.45859   0.49265   0.52118   0.53908
 Alpha virt. eigenvalues --    0.59343   0.62524   0.63159   0.63870   0.64130
 Alpha virt. eigenvalues --    0.69489   0.69539   0.71319   0.72697   0.74777
 Alpha virt. eigenvalues --    0.75164   0.78154   0.80068   0.84104   0.85581
 Alpha virt. eigenvalues --    0.86971   0.87155   0.89031   0.89096   0.91351
 Alpha virt. eigenvalues --    0.94515   0.96990   0.97732   1.00120   1.01204
 Alpha virt. eigenvalues --    1.03279   1.06808   1.08344   1.09080   1.10767
 Alpha virt. eigenvalues --    1.12163   1.20293   1.22633   1.28184   1.29171
 Alpha virt. eigenvalues --    1.31646   1.31688   1.37947   1.41460   1.47116
 Alpha virt. eigenvalues --    1.49012   1.49584   1.55689   1.56232   1.59266
 Alpha virt. eigenvalues --    1.65237   1.66868   1.77787   1.94610   1.94931
 Alpha virt. eigenvalues --    1.97129   1.98430   2.08109   2.11199   2.13104
 Alpha virt. eigenvalues --    2.19382   2.20485   2.22091   2.22711   2.27051
 Alpha virt. eigenvalues --    2.30703   2.32407   2.32561   2.33556   2.37250
 Alpha virt. eigenvalues --    2.38365   2.40802   2.42690   2.46997   2.48040
 Alpha virt. eigenvalues --    2.48580   2.49826   2.57173   2.58139   2.63867
 Alpha virt. eigenvalues --    2.66214   2.67622   2.69099   2.71742   2.72285
 Alpha virt. eigenvalues --    2.72293   2.76439   2.79853   2.88383   2.89536
 Alpha virt. eigenvalues --    2.95199   3.10475   3.12201   3.20195   3.53670
 Alpha virt. eigenvalues --    3.77746   3.80630   3.95565   4.04125   4.07831
 Alpha virt. eigenvalues --    4.09078   4.12727   4.19776   4.20854   4.27094
 Alpha virt. eigenvalues --    4.33971   4.45841   4.58102   4.70519   4.73732
 Alpha virt. eigenvalues --    4.95769   4.99739   5.00931   5.07490   5.14818
 Alpha virt. eigenvalues --    5.17595   5.53557   5.79552   5.96776   6.05948
 Alpha virt. eigenvalues --    6.12045   6.29981   6.37898   6.47171   6.56904
 Alpha virt. eigenvalues --    6.67324   6.69972   6.73633   6.75156   6.78854
 Alpha virt. eigenvalues --    6.84774   6.84930   6.86880   6.91190   7.10536
 Alpha virt. eigenvalues --    7.13945   7.20216   7.23431   7.26985   7.60752
 Alpha virt. eigenvalues --    7.93317   8.04261   8.18954  13.74067  14.67604
          Condensed to atoms (all electrons):
              1          2          3          4          5
     1  O    8.291816  -0.288336   0.168486   0.046225  -0.014881
     2  O   -0.288336   8.291816   0.046225   0.168486  -0.014881
     3  H    0.168486   0.046225   0.632198  -0.028412  -0.015953
     4  H    0.046225   0.168486  -0.028412   0.632198  -0.015953
     5  Kr  -0.014881  -0.014881  -0.015953  -0.015953  36.049960
 Mulliken atomic charges:
              1
     1  O   -0.203310
     2  O   -0.203310
     3  H    0.197456
     4  H    0.197456
     5  Kr   0.011708
 Sum of Mulliken atomic charges =   0.00000
 Mulliken charges with hydrogens summed into heavy atoms:
              1
     1  O   -0.005854
     2  O   -0.005854
     5  Kr   0.011708
 Sum of Mulliken charges with hydrogens summed into heavy atoms =   0.00000
          Condensed to fragments (all electrons):
     1      -0.011708
     2       0.011708
 Electronic spatial extent (au):  <R**2>=            475.2787
 Charge=              0.0000 electrons
 Dipole moment (field-independent basis, Debye):
    X=              0.0000    Y=              0.0000    Z=              3.7641  Tot=              3.7641
 Quadrupole moment (field-independent basis, Debye-Ang):
   XX=            -30.5536   YY=            -28.1869   ZZ=            -38.8156
   XY=              0.0000   XZ=              0.0000   YZ=              0.0000
 Traceless Quadrupole moment (field-independent basis, Debye-Ang):
   XX=              1.9651   YY=              4.3318   ZZ=             -6.2969
   XY=              0.0000   XZ=              0.0000   YZ=              0.0000
 Octapole moment (field-independent basis, Debye-Ang**2):
  XXX=              0.0000  YYY=              0.0000  ZZZ=             45.4312  XYY=              0.0000
  XXY=              0.0000  XXZ=              9.1952  XZZ=              0.0000  YZZ=              0.0000
  YYZ=              8.3555  XYZ=              0.0000
 Hexadecapole moment (field-independent basis, Debye-Ang**3):
 XXXX=            -29.2339 YYYY=            -63.6533 ZZZZ=           -455.6661 XXXY=              0.0000
 XXXZ=              0.0000 YYYX=              0.0000 YYYZ=              0.0000 ZZZX=              0.0000
 ZZZY=              0.0000 XXYY=            -17.5099 XXZZ=            -76.7897 YYZZ=            -86.7847
 XXYZ=              0.0000 YYXZ=              0.0000 ZZXY=              0.0000
 N-N= 1.518532718296D+02 E-N=-7.239488466765D+03  KE= 2.900069931665D+03
 Symmetry A1   KE= 2.057296550487D+03
 Symmetry A2   KE= 5.287974000218D+01
 Symmetry B1   KE= 3.627171647486D+02
 Symmetry B2   KE= 4.271764764268D+02
 No NMR shielding tensors so no spin-rotation constants.
 Leave Link  601 at Tue May 12 09:14:14 2020, MaxMem= 1073741824 cpu:       1.3
 (Enter /home/matheus/.gaussian/g09/l122.exe)
 Counterpoise: doing DCBS calculation for fragment   1 NewBq=T
 Leave Link  122 at Tue May 12 09:14:14 2020, MaxMem= 1073741824 cpu:       0.0
 (Enter /home/matheus/.gaussian/g09/l301.exe)
 Basis read from rwf:  (5D, 7F)
 No pseudopotential information found on rwf file.
 There are    71 symmetry adapted basis functions of A1  symmetry.
 There are    29 symmetry adapted basis functions of A2  symmetry.
 There are    37 symmetry adapted basis functions of B1  symmetry.
 There are    60 symmetry adapted basis functions of B2  symmetry.
 Integral buffers will be    131072 words long.
 Raffenetti 2 integral format.
 Two-electron integral symmetry is turned on.
   197 basis functions,   415 primitive gaussians,   229 cartesian basis functions
     9 alpha electrons        9 beta electrons
       nuclear repulsion energy        36.6667523957 Hartrees.
 IExCor=32609 DFT=T Ex+Corr=LC-wPBE ExCW=0 ScaHFX=  1.000000
 ScaDFX=  1.000000  0.000000  1.000000  1.000000 ScalE2=  1.000000  1.000000
 IRadAn=      5 IRanWt=     -1 IRanGd=            0 ICorTp=0
  HFx wShort=  0.000000 wLong=  0.400000 cFull=  0.000000 cShort=  0.000000 cLong=  1.000000
  DFx wShort=  0.000000 wLong=  0.400000 cFull=  0.000000 cShort=  0.000000 cLong=  1.000000
 NAtoms=    5 NActive=    5 NUniq=    3 SFac= 2.78D+00 NAtFMM=   60 NAOKFM=F Big=F
 No density basis found on file   718.
 Leave Link  301 at Tue May 12 09:14:14 2020, MaxMem= 1073741824 cpu:       0.2
 (Enter /home/matheus/.gaussian/g09/l302.exe)
 NPDir=0 NMtPBC=     1 NCelOv=     1 NCel=       1 NClECP=     1 NCelD=      1
         NCelK=      1 NCelE2=     1 NClLst=     1 CellRange=     0.0.
 One-electron integrals computed using PRISM.
 One-electron integral symmetry used in STVInt
 NBasis=   197 RedAO= T  NBF=    71    29    37    60
 NBsUse=   197 1.00D-06 NBFU=    71    29    37    60
 Precomputing XC quadrature grid using
 IXCGrd= 2 IRadAn=           5 IRanWt=          -1 IRanGd=           0 AccXCQ= 0.00D+00.
 NRdTot=     427 NPtTot=      123512 NUsed=      126579 NTot=      126611
 NSgBfM=   229   229   229   229   229 NAtAll=     5     5.
 Leave Link  302 at Tue May 12 09:14:14 2020, MaxMem= 1073741824 cpu:       0.9
 (Enter /home/matheus/.gaussian/g09/l303.exe)
 DipDrv:  MaxL=1.
 Leave Link  303 at Tue May 12 09:14:14 2020, MaxMem= 1073741824 cpu:       0.2
 (Enter /home/matheus/.gaussian/g09/l401.exe)
 Harris functional with IExCor=32609 diagonalized for initial guess.
 ExpMin= 2.53D-02 ExpMax= 1.17D+07 ExpMxC= 1.33D+04 IAcc=3 IRadAn=         5 AccDes= 0.00D+00
 HarFok:  IExCor=32609 AccDes= 0.00D+00 IRadAn=         5 IDoV= 1
 ScaDFX=  1.000000  1.000000  1.000000  1.000000
 FoFCou: FMM=F IPFlag=           0 FMFlag=      100000 FMFlg1=           0
         NFxFlg=           0 DoJE=T BraDBF=F KetDBF=T FulRan=T
         Omega=  0.000000  0.000000  1.000000  0.000000  0.000000 ICntrl=     500 IOpCl=  0
         NMat0=    1 NMatS0=    1 NMatT0=    0 NMatD0=    1 NMtDS0=    0 NMtDT0=    0
         I1Cent=           4 NGrid=           0.
 Petite list used in FoFCou.
 Harris En= -151.498531346553    
 Initial guess orbital symmetries:
       Occupied  (B2) (A1) (A1) (B2) (A1) (A1) (B1) (B2) (A2)
       Virtual   (B2) (A1) (B2) (A1) (B1) (A1) (B2) (A1) (B2) (B1)
                 (A1) (A2) (B2) (A1) (A1) (B1) (B2) (A1) (A2) (B2)
                 (A1) (B2) (B1) (B2) (A1) (A1) (A2) (B1) (B2) (A1)
                 (A1) (A1) (B2) (B1) (B2) (B1) (A1) (A2) (A1) (A2)
                 (B1) (B2) (A1) (A1) (B2) (B1) (B2) (A2) (B2) (A1)
                 (B2) (B1) (A1) (A2) (A1) (B1) (B2) (A1) (A2) (B2)
                 (B2) (A1) (B1) (A2) (A1) (A1) (B1) (B2) (A1) (A1)
                 (B2) (A2) (B1) (B2) (B1) (A1) (A2) (A1) (B2) (B1)
                 (A1) (B2) (A1) (B1) (A1) (B2) (A2) (B2) (A1) (B1)
                 (A2) (A1) (B2) (A1) (B2) (A1) (B1) (B2) (B1) (A2)
                 (B2) (A2) (A1) (A1) (B2) (B2) (A2) (B2) (B1) (A1)
                 (B2) (A1) (B1) (B2) (A1) (A2) (A1) (B1) (A2) (B1)
                 (A1) (B2) (B1) (A1) (B1) (A2) (B2) (A1) (A2) (B1)
                 (A1) (B2) (A2) (B2) (A1) (A1) (B2) (A1) (B2) (A1)
                 (B1) (A1) (B2) (A2) (B2) (B2) (A1) (B1) (B2) (A1)
                 (B1) (A1) (A2) (B2) (B1) (A1) (A2) (A1) (B1) (B1)
                 (B2) (A2) (A2) (B2) (A1) (A2) (A1) (B2) (B2) (A1)
                 (B2) (B2) (A1) (A1) (B2) (B1) (B2) (A1) (A2) (A1)
                 (B1) (A1) (B2) (A1) (B1) (B2) (A1) (A1)
 The electronic state of the initial guess is 1-A1.
 Leave Link  401 at Tue May 12 09:14:15 2020, MaxMem= 1073741824 cpu:       1.7
 (Enter /home/matheus/.gaussian/g09/l502.exe)
 Closed shell SCF:
 Requested convergence on RMS density matrix=1.00D-08 within 128 cycles.
 Requested convergence on MAX density matrix=1.00D-06.
 Requested convergence on             energy=1.00D-06.
 No special actions if energy rises.
 Using DIIS extrapolation, IDIIS=  1040.
 Integral symmetry usage will be decided dynamically.
       126521 words used for storage of precomputed grid.
 IEnd=      305860 IEndB=      305860 NGot=  1073741824 MDV=  1073505275
 LenX=  1073505275 LenY=  1073452393
 Fock matrices will be formed incrementally for  20 cycles.

 Cycle   1  Pass 1  IDiag  1:
 FoFJK:  IHMeth= 1 ICntrl=     0 DoSepK=T KAlg= 1 I1Cent= 0 FoldK=F
 FoFCou: FMM=F IPFlag=           0 FMFlag=      100000 FMFlg1=           0
         NFxFlg=           0 DoJE=T BraDBF=F KetDBF=F FulRan=T
         Omega=  0.000000  0.000000  1.000000  0.000000  0.000000 ICntrl=     500 IOpCl=  0
         NMat0=    1 NMatS0=    1 NMatT0=    0 NMatD0=    1 NMtDS0=    0 NMtDT0=    0
         I1Cent=           0 NGrid=           0.
 Petite list used in FoFCou.
 E= -151.486537818215    
 DIIS: error= 2.07D-02 at cycle   1 NSaved=   1.
 NSaved= 1 IEnMin= 1 EnMin= -151.486537818215     IErMin= 1 ErrMin= 2.07D-02
 ErrMax= 2.07D-02 EMaxC= 1.00D-01 BMatC= 4.26D-02 BMatP= 4.26D-02
 IDIUse=3 WtCom= 7.93D-01 WtEn= 2.07D-01
 Coeff-Com:  0.100D+01
 Coeff-En:   0.100D+01
 Coeff:      0.100D+01
 Gap=     0.364 Goal=   None    Shift=    0.000
 GapD=    0.364 DampG=1.000 DampE=0.500 DampFc=0.5000 IDamp=-1.
 Damping current iteration by 5.00D-01
 RMSDP=9.28D-04 MaxDP=2.19D-02              OVMax= 6.85D-02

 Cycle   2  Pass 1  IDiag  1:
 RMSU=  3.28D-04    CP:  9.98D-01
 FoFJK:  IHMeth= 1 ICntrl=     0 DoSepK=T KAlg= 1 I1Cent= 0 FoldK=F
 E= -151.502257888032     Delta-E=       -0.015720069817 Rises=F Damp=T
 DIIS: error= 4.04D-03 at cycle   2 NSaved=   2.
 NSaved= 2 IEnMin= 2 EnMin= -151.502257888032     IErMin= 2 ErrMin= 4.04D-03
 ErrMax= 4.04D-03 EMaxC= 1.00D-01 BMatC= 3.67D-03 BMatP= 4.26D-02
 IDIUse=3 WtCom= 9.60D-01 WtEn= 4.04D-02
 Coeff-Com: -0.140D+00 0.114D+01
 Coeff-En:   0.000D+00 0.100D+01
 Coeff:     -0.134D+00 0.113D+01
 Gap=     0.408 Goal=   None    Shift=    0.000
 RMSDP=3.22D-04 MaxDP=2.14D-02 DE=-1.57D-02 OVMax= 3.02D-02

 Cycle   3  Pass 1  IDiag  1:
 RMSU=  2.18D-04    CP:  9.90D-01  1.11D+00
 FoFJK:  IHMeth= 1 ICntrl=     0 DoSepK=T KAlg= 1 I1Cent= 0 FoldK=F
 E= -151.516553956217     Delta-E=       -0.014296068185 Rises=F Damp=F
 DIIS: error= 1.79D-03 at cycle   3 NSaved=   3.
 NSaved= 3 IEnMin= 3 EnMin= -151.516553956217     IErMin= 3 ErrMin= 1.79D-03
 ErrMax= 1.79D-03 EMaxC= 1.00D-01 BMatC= 2.87D-04 BMatP= 3.67D-03
 IDIUse=3 WtCom= 9.82D-01 WtEn= 1.79D-02
 Coeff-Com: -0.547D-01 0.241D+00 0.814D+00
 Coeff-En:   0.000D+00 0.000D+00 0.100D+01
 Coeff:     -0.537D-01 0.237D+00 0.817D+00
 Gap=     0.405 Goal=   None    Shift=    0.000
 RMSDP=5.18D-05 MaxDP=2.08D-03 DE=-1.43D-02 OVMax= 3.87D-03

 Cycle   4  Pass 1  IDiag  1:
 RMSU=  2.87D-05    CP:  9.89D-01  1.17D+00  1.04D+00
 FoFJK:  IHMeth= 1 ICntrl=     0 DoSepK=T KAlg= 1 I1Cent= 0 FoldK=F
 E= -151.516725582358     Delta-E=       -0.000171626141 Rises=F Damp=F
 DIIS: error= 4.02D-04 at cycle   4 NSaved=   4.
 NSaved= 4 IEnMin= 4 EnMin= -151.516725582358     IErMin= 4 ErrMin= 4.02D-04
 ErrMax= 4.02D-04 EMaxC= 1.00D-01 BMatC= 1.46D-05 BMatP= 2.87D-04
 IDIUse=3 WtCom= 9.96D-01 WtEn= 4.02D-03
 Coeff-Com:  0.692D-02-0.246D-01 0.123D+00 0.895D+00
 Coeff-En:   0.000D+00 0.000D+00 0.000D+00 0.100D+01
 Coeff:      0.690D-02-0.245D-01 0.123D+00 0.895D+00
 Gap=     0.407 Goal=   None    Shift=    0.000
 RMSDP=1.18D-05 MaxDP=5.51D-04 DE=-1.72D-04 OVMax= 7.82D-04

 Cycle   5  Pass 1  IDiag  1:
 RMSU=  5.80D-06    CP:  9.89D-01  1.16D+00  1.07D+00  9.87D-01
 FoFJK:  IHMeth= 1 ICntrl=     0 DoSepK=T KAlg= 1 I1Cent= 0 FoldK=F
 E= -151.516735138088     Delta-E=       -0.000009555729 Rises=F Damp=F
 DIIS: error= 2.86D-05 at cycle   5 NSaved=   5.
 NSaved= 5 IEnMin= 5 EnMin= -151.516735138088     IErMin= 5 ErrMin= 2.86D-05
 ErrMax= 2.86D-05 EMaxC= 1.00D-01 BMatC= 1.00D-07 BMatP= 1.46D-05
 IDIUse=1 WtCom= 1.00D+00 WtEn= 0.00D+00
 Coeff-Com:  0.137D-03-0.155D-02-0.281D-01-0.892D-01 0.112D+01
 Coeff:      0.137D-03-0.155D-02-0.281D-01-0.892D-01 0.112D+01
 Gap=     0.407 Goal=   None    Shift=    0.000
 RMSDP=2.67D-06 MaxDP=8.60D-05 DE=-9.56D-06 OVMax= 2.23D-04

 Cycle   6  Pass 1  IDiag  1:
 RMSU=  8.00D-07    CP:  9.89D-01  1.16D+00  1.07D+00  1.01D+00  1.25D+00
 FoFJK:  IHMeth= 1 ICntrl=     0 DoSepK=T KAlg= 1 I1Cent= 0 FoldK=F
 E= -151.516735360691     Delta-E=       -0.000000222603 Rises=F Damp=F
 DIIS: error= 4.79D-06 at cycle   6 NSaved=   6.
 NSaved= 6 IEnMin= 6 EnMin= -151.516735360691     IErMin= 6 ErrMin= 4.79D-06
 ErrMax= 4.79D-06 EMaxC= 1.00D-01 BMatC= 2.56D-09 BMatP= 1.00D-07
 IDIUse=1 WtCom= 1.00D+00 WtEn= 0.00D+00
 Coeff-Com: -0.993D-04 0.398D-03-0.701D-03-0.947D-02-0.316D-01 0.104D+01
 Coeff:     -0.993D-04 0.398D-03-0.701D-03-0.947D-02-0.316D-01 0.104D+01
 Gap=     0.407 Goal=   None    Shift=    0.000
 RMSDP=3.67D-07 MaxDP=1.30D-05 DE=-2.23D-07 OVMax= 3.70D-05

 Cycle   7  Pass 1  IDiag  1:
 RMSU=  1.33D-07    CP:  9.89D-01  1.16D+00  1.06D+00  1.01D+00  1.27D+00
                    CP:  1.18D+00
 FoFJK:  IHMeth= 1 ICntrl=     0 DoSepK=T KAlg= 1 I1Cent= 0 FoldK=F
 E= -151.516735366122     Delta-E=       -0.000000005431 Rises=F Damp=F
 DIIS: error= 1.27D-06 at cycle   7 NSaved=   7.
 NSaved= 7 IEnMin= 7 EnMin= -151.516735366122     IErMin= 7 ErrMin= 1.27D-06
 ErrMax= 1.27D-06 EMaxC= 1.00D-01 BMatC= 2.00D-10 BMatP= 2.56D-09
 IDIUse=1 WtCom= 1.00D+00 WtEn= 0.00D+00
 Coeff-Com: -0.131D-04 0.924D-04 0.103D-02 0.305D-02-0.580D-01 0.984D-01
 Coeff-Com:  0.955D+00
 Coeff:     -0.131D-04 0.924D-04 0.103D-02 0.305D-02-0.580D-01 0.984D-01
 Coeff:      0.955D+00
 Gap=     0.407 Goal=   None    Shift=    0.000
 RMSDP=8.79D-08 MaxDP=2.73D-06 DE=-5.43D-09 OVMax= 9.43D-06

 Cycle   8  Pass 1  IDiag  1:
 RMSU=  3.43D-08    CP:  9.89D-01  1.16D+00  1.06D+00  1.01D+00  1.28D+00
                    CP:  1.23D+00  1.14D+00
 FoFJK:  IHMeth= 1 ICntrl=     0 DoSepK=T KAlg= 1 I1Cent= 0 FoldK=F
 E= -151.516735366460     Delta-E=       -0.000000000338 Rises=F Damp=F
 DIIS: error= 2.77D-07 at cycle   8 NSaved=   8.
 NSaved= 8 IEnMin= 8 EnMin= -151.516735366460     IErMin= 8 ErrMin= 2.77D-07
 ErrMax= 2.77D-07 EMaxC= 1.00D-01 BMatC= 4.89D-12 BMatP= 2.00D-10
 IDIUse=1 WtCom= 1.00D+00 WtEn= 0.00D+00
 Coeff-Com:  0.872D-05-0.343D-04-0.142D-03 0.116D-03 0.892D-02-0.459D-01
 Coeff-Com: -0.154D+00 0.119D+01
 Coeff:      0.872D-05-0.343D-04-0.142D-03 0.116D-03 0.892D-02-0.459D-01
 Coeff:     -0.154D+00 0.119D+01
 Gap=     0.407 Goal=   None    Shift=    0.000
 RMSDP=2.00D-08 MaxDP=6.14D-07 DE=-3.38D-10 OVMax= 2.99D-06

 Cycle   9  Pass 1  IDiag  1:
 RMSU=  8.50D-09    CP:  9.89D-01  1.16D+00  1.06D+00  1.01D+00  1.28D+00
                    CP:  1.23D+00  1.18D+00  1.20D+00
 FoFJK:  IHMeth= 1 ICntrl=     0 DoSepK=T KAlg= 1 I1Cent= 0 FoldK=F
 E= -151.516735366476     Delta-E=       -0.000000000015 Rises=F Damp=F
 DIIS: error= 4.41D-08 at cycle   9 NSaved=   9.
 NSaved= 9 IEnMin= 9 EnMin= -151.516735366476     IErMin= 9 ErrMin= 4.41D-08
 ErrMax= 4.41D-08 EMaxC= 1.00D-01 BMatC= 1.08D-13 BMatP= 4.89D-12
 IDIUse=1 WtCom= 1.00D+00 WtEn= 0.00D+00
 Coeff-Com: -0.437D-06 0.295D-05 0.692D-05-0.649D-04-0.764D-03 0.855D-02
 Coeff-Com:  0.106D-01-0.253D+00 0.123D+01
 Coeff:     -0.437D-06 0.295D-05 0.692D-05-0.649D-04-0.764D-03 0.855D-02
 Coeff:      0.106D-01-0.253D+00 0.123D+01
 Gap=     0.407 Goal=   None    Shift=    0.000
 RMSDP=4.77D-09 MaxDP=1.49D-07 DE=-1.55D-11 OVMax= 5.30D-07

 SCF Done:  E(RLC-wPBE) =  -151.516735366     A.U. after    9 cycles
             Convg  =    0.4772D-08             -V/T =  2.0065
 KE= 1.505315471448D+02 PE=-4.315827604434D+02 EE= 9.286772553644D+01
 Leave Link  502 at Tue May 12 09:14:32 2020, MaxMem= 1073741824 cpu:     139.4
 (Enter /home/matheus/.gaussian/g09/l601.exe)
 Copying SCF densities to generalized density rwf, IOpCl= 0 IROHF=0.

 **********************************************************************

            Population analysis using the SCF density.

 **********************************************************************

 Orbital symmetries:
       Occupied  (B2) (A1) (A1) (B2) (A1) (A1) (B1) (B2) (A2)
       Virtual   (A1) (B2) (A1) (B1) (A1) (B2) (B2) (A1) (B1) (A1)
                 (B2) (B2) (A2) (A1) (B1) (A1) (B2) (A1) (A2) (A1)
                 (B2) (B1) (B2) (A1) (B2) (A1) (A2) (B1) (B2) (A1)
                 (A1) (B2) (A1) (B2) (B1) (A1) (B1) (A1) (A2) (A2)
                 (B1) (B2) (A1) (B2) (A1) (B1) (B2) (A1) (A2) (B2)
                 (B2) (A1) (B1) (A1) (B1) (A2) (B2) (A1) (A2) (B2)
                 (B2) (A1) (B1) (A2) (B1) (A1) (A1) (B2) (A1) (A1)
                 (B1) (B2) (A2) (B2) (A1) (B1) (A2) (B2) (A1) (B1)
                 (A1) (B2) (A1) (B1) (B2) (A1) (A2) (B2) (A1) (B1)
                 (A1) (A2) (A1) (B2) (B2) (A1) (B1) (B2) (B1) (A2)
                 (B2) (A2) (A1) (A1) (B2) (B2) (A2) (B2) (B1) (A1)
                 (B2) (A1) (A1) (B2) (B1) (A2) (A1) (B1) (B2) (B1)
                 (A2) (A1) (A1) (B1) (B1) (B2) (A1) (A2) (B2) (B1)
                 (A2) (A1) (B2) (A2) (A1) (A1) (A1) (B2) (B2) (A1)
                 (B1) (A1) (B2) (A2) (B2) (B2) (A1) (B1) (B2) (A1)
                 (B1) (A1) (A2) (B2) (B1) (A1) (A2) (A1) (B1) (B1)
                 (B2) (A2) (A2) (B2) (A1) (A2) (A1) (B2) (B2) (A1)
                 (B2) (B2) (A1) (A1) (B2) (B1) (B2) (A1) (A2) (A1)
                 (B1) (A1) (B2) (A1) (B1) (B2) (A1) (A1)
 The electronic state is 1-A1.
 Alpha  occ. eigenvalues --  -19.03900 -19.03897  -1.25998  -1.04192  -0.71561
 Alpha  occ. eigenvalues --   -0.56244  -0.54113  -0.51463  -0.38928
 Alpha virt. eigenvalues --    0.01765   0.03700   0.07260   0.07602   0.09036
 Alpha virt. eigenvalues --    0.09921   0.10311   0.16887   0.17692   0.17714
 Alpha virt. eigenvalues --    0.18686   0.19308   0.19472   0.21678   0.26399
 Alpha virt. eigenvalues --    0.26948   0.27970   0.28895   0.31460   0.35105
 Alpha virt. eigenvalues --    0.35152   0.36228   0.37389   0.41057   0.44243
 Alpha virt. eigenvalues --    0.44545   0.45091   0.47973   0.48613   0.53822
 Alpha virt. eigenvalues --    0.55215   0.58575   0.58744   0.64775   0.64934
 Alpha virt. eigenvalues --    0.69138   0.71112   0.77157   0.77437   0.80161
 Alpha virt. eigenvalues --    0.82453   0.83919   0.85780   0.88525   0.89443
 Alpha virt. eigenvalues --    0.94807   0.97126   0.97290   0.99469   1.00106
 Alpha virt. eigenvalues --    1.01950   1.04645   1.05852   1.09795   1.11233
 Alpha virt. eigenvalues --    1.11581   1.18926   1.23582   1.23958   1.25603
 Alpha virt. eigenvalues --    1.28894   1.29427   1.30502   1.32438   1.33516
 Alpha virt. eigenvalues --    1.34165   1.36892   1.38791   1.43710   1.49696
 Alpha virt. eigenvalues --    1.49748   1.49973   1.51988   1.54761   1.61738
 Alpha virt. eigenvalues --    1.63622   1.64949   1.71516   1.71644   1.78834
 Alpha virt. eigenvalues --    1.81506   1.86738   1.96559   1.99396   2.00748
 Alpha virt. eigenvalues --    2.02735   2.13042   2.22767   2.22991   2.27566
 Alpha virt. eigenvalues --    2.27829   2.30647   2.34450   2.35043   2.44219
 Alpha virt. eigenvalues --    2.46216   2.52463   2.54020   2.61965   2.70702
 Alpha virt. eigenvalues --    2.71906   2.75523   2.82669   2.85670   2.92698
 Alpha virt. eigenvalues --    3.08478   3.11445   3.17719   3.23400   3.34781
 Alpha virt. eigenvalues --    3.36334   3.55553   3.64529   3.71980   3.76622
 Alpha virt. eigenvalues --    3.77768   3.78757   3.81148   3.83224   3.84065
 Alpha virt. eigenvalues --    3.89338   3.90341   3.94427   3.95060   3.97336
 Alpha virt. eigenvalues --    3.99179   4.04926   4.08999   4.10144   4.10340
 Alpha virt. eigenvalues --    4.13145   4.15155   4.26056   4.26926   4.28496
 Alpha virt. eigenvalues --    4.41984   4.60333   4.61068   4.70428   4.95139
 Alpha virt. eigenvalues --    4.99404   5.01404   5.07831   5.14529   5.17366
 Alpha virt. eigenvalues --    5.53658   5.78972   5.96150   6.05556   6.10825
 Alpha virt. eigenvalues --    6.29473   6.37306   6.46533   6.56248   6.66573
 Alpha virt. eigenvalues --    6.69581   6.72911   6.74204   6.78189   6.84138
 Alpha virt. eigenvalues --    6.84275   6.86154   6.90537   7.10058   7.13480
 Alpha virt. eigenvalues --    7.19488   7.22515   7.26297   7.60177   7.92484
 Alpha virt. eigenvalues --    8.03518   8.18313  11.09223  13.73869  14.66829
 Alpha virt. eigenvalues --   14.80534  14.96557  15.09733  29.01715  29.02446
 Alpha virt. eigenvalues --   29.05947  29.20323  29.25089  49.23973 148.28673
 Alpha virt. eigenvalues --  148.52682 148.72650 753.00863
          Condensed to atoms (all electrons):
              1          2          3          4          5
     1  O    8.250992  -0.278305   0.171253   0.041469   0.001807
     2  O   -0.278305   8.250992   0.041469   0.171253   0.001807
     3  H    0.171253   0.041469   0.622798  -0.020181  -0.002878
     4  H    0.041469   0.171253  -0.020181   0.622798  -0.002878
     5  Kr   0.001807   0.001807  -0.002878  -0.002878   0.002782
 Mulliken atomic charges:
              1
     1  O   -0.187217
     2  O   -0.187217
     3  H    0.187538
     4  H    0.187538
     5  Kr  -0.000642
 Sum of Mulliken atomic charges =   0.00000
 Mulliken charges with hydrogens summed into heavy atoms:
              1
     1  O    0.000321
     2  O    0.000321
     5  Kr  -0.000642
 Sum of Mulliken charges with hydrogens summed into heavy atoms =   0.00000
          Condensed to fragments (all electrons):
     1       0.000642
     2      -0.000642
 Electronic spatial extent (au):  <R**2>=            316.5062
 Charge=              0.0000 electrons
 Dipole moment (field-independent basis, Debye):
    X=              0.0000    Y=              0.0000    Z=              3.1402  Tot=              3.1402
 Quadrupole moment (field-independent basis, Debye-Ang):
   XX=            -13.1555   YY=            -10.6169   ZZ=            -21.5773
   XY=              0.0000   XZ=              0.0000   YZ=              0.0000
 Traceless Quadrupole moment (field-independent basis, Debye-Ang):
   XX=              1.9611   YY=              4.4997   ZZ=             -6.4608
   XY=              0.0000   XZ=              0.0000   YZ=              0.0000
 Octapole moment (field-independent basis, Debye-Ang**2):
  XXX=              0.0000  YYY=              0.0000  ZZZ=             93.1822  XYY=              0.0000
  XXY=              0.0000  XXZ=             25.7480  XZZ=              0.0000  YZZ=              0.0000
  YYZ=             24.7922  XYZ=              0.0000
 Hexadecapole moment (field-independent basis, Debye-Ang**3):
 XXXX=            -11.5697 YYYY=            -45.6029 ZZZZ=           -338.8354 XXXY=              0.0000
 XXXZ=              0.0000 YYYX=              0.0000 YYYZ=              0.0000 ZZZX=              0.0000
 ZZZY=              0.0000 XXYY=            -11.5480 XXZZ=            -54.6275 YYZZ=            -64.3065
 XXYZ=              0.0000 YYXZ=              0.0000 ZZXY=              0.0000
 N-N= 3.666675239568D+01 E-N=-4.315827613038D+02  KE= 1.505315471448D+02
 Symmetry A1   KE= 7.193047355467D+01
 Symmetry A2   KE= 5.418085535801D+00
 Symmetry B1   KE= 4.333512226454D+00
 Symmetry B2   KE= 6.884947582788D+01
 No NMR shielding tensors so no spin-rotation constants.
 Leave Link  601 at Tue May 12 09:14:32 2020, MaxMem= 1073741824 cpu:       0.9
 (Enter /home/matheus/.gaussian/g09/l122.exe)
 Counterpoise: doing DCBS calculation for fragment   2 NewBq=T
 Leave Link  122 at Tue May 12 09:14:32 2020, MaxMem= 1073741824 cpu:       0.0
 (Enter /home/matheus/.gaussian/g09/l301.exe)
 Basis read from rwf:  (5D, 7F)
 No pseudopotential information found on rwf file.
 There are    71 symmetry adapted basis functions of A1  symmetry.
 There are    29 symmetry adapted basis functions of A2  symmetry.
 There are    37 symmetry adapted basis functions of B1  symmetry.
 There are    60 symmetry adapted basis functions of B2  symmetry.
 Integral buffers will be    131072 words long.
 Raffenetti 2 integral format.
 Two-electron integral symmetry is turned on.
   197 basis functions,   415 primitive gaussians,   229 cartesian basis functions
    18 alpha electrons       18 beta electrons
       nuclear repulsion energy         0.0000000000 Hartrees.
 IExCor=32609 DFT=T Ex+Corr=LC-wPBE ExCW=0 ScaHFX=  1.000000
 ScaDFX=  1.000000  0.000000  1.000000  1.000000 ScalE2=  1.000000  1.000000
 IRadAn=      5 IRanWt=     -1 IRanGd=            0 ICorTp=0
  HFx wShort=  0.000000 wLong=  0.400000 cFull=  0.000000 cShort=  0.000000 cLong=  1.000000
  DFx wShort=  0.000000 wLong=  0.400000 cFull=  0.000000 cShort=  0.000000 cLong=  1.000000
 NAtoms=    5 NActive=    5 NUniq=    3 SFac= 2.78D+00 NAtFMM=   60 NAOKFM=F Big=F
 No density basis found on file   718.
 Leave Link  301 at Tue May 12 09:14:32 2020, MaxMem= 1073741824 cpu:       0.2
 (Enter /home/matheus/.gaussian/g09/l302.exe)
 NPDir=0 NMtPBC=     1 NCelOv=     1 NCel=       1 NClECP=     1 NCelD=      1
         NCelK=      1 NCelE2=     1 NClLst=     1 CellRange=     0.0.
 One-electron integrals computed using PRISM.
 One-electron integral symmetry used in STVInt
 NBasis=   197 RedAO= T  NBF=    71    29    37    60
 NBsUse=   197 1.00D-06 NBFU=    71    29    37    60
 Precomputing XC quadrature grid using
 IXCGrd= 2 IRadAn=           5 IRanWt=          -1 IRanGd=           0 AccXCQ= 0.00D+00.
 NRdTot=     427 NPtTot=      123512 NUsed=      126579 NTot=      126611
 NSgBfM=   229   229   229   229   229 NAtAll=     5     5.
 Leave Link  302 at Tue May 12 09:14:32 2020, MaxMem= 1073741824 cpu:       0.9
 (Enter /home/matheus/.gaussian/g09/l303.exe)
 DipDrv:  MaxL=1.
 Leave Link  303 at Tue May 12 09:14:32 2020, MaxMem= 1073741824 cpu:       0.2
 (Enter /home/matheus/.gaussian/g09/l401.exe)
 Harris functional with IExCor=32609 diagonalized for initial guess.
 ExpMin= 2.53D-02 ExpMax= 1.17D+07 ExpMxC= 1.33D+04 IAcc=3 IRadAn=         5 AccDes= 0.00D+00
 HarFok:  IExCor=32609 AccDes= 0.00D+00 IRadAn=         5 IDoV= 1
 ScaDFX=  1.000000  1.000000  1.000000  1.000000
 FoFCou: FMM=F IPFlag=           0 FMFlag=      100000 FMFlg1=           0
         NFxFlg=           0 DoJE=T BraDBF=F KetDBF=T FulRan=T
         Omega=  0.000000  0.000000  1.000000  0.000000  0.000000 ICntrl=     500 IOpCl=  0
         NMat0=    1 NMatS0=    1 NMatT0=    0 NMatD0=    1 NMtDS0=    0 NMtDT0=    0
         I1Cent=           4 NGrid=           0.
 Petite list used in FoFCou.
 Harris En= -2753.24672162075    
 Initial guess orbital symmetries:
       Occupied  (A1) (A1) (A1) (B2) (B1) (A1) (A1) (B2) (B1) (B2)
                 (A1) (B1) (A1) (A2) (A1) (A1) (B2) (B1)
       Virtual   (A1) (B2) (A1) (B1) (B2) (A1) (B1) (A1) (A1) (A2)
                 (B2) (A1) (B2) (B1) (A2) (A1) (A1) (B2) (A1) (B1)
                 (B2) (A1) (B2) (A2) (B2) (A1) (B2) (B1) (A1) (A1)
                 (B2) (B1) (A2) (A1) (A1) (B2) (B1) (A1) (B1) (B2)
                 (A2) (A1) (A1) (B1) (A2) (B2) (A1) (B2) (B1) (A1)
                 (B2) (A1) (B1) (A2) (B2) (B2) (B1) (B2) (A1) (A2)
                 (A1) (A1) (A2) (B2) (A1) (B1) (A2) (B2) (B2) (A1)
                 (A1) (B2) (B2) (B1) (A1) (A2) (A1) (B2) (B2) (B1)
                 (A1) (B2) (A2) (A1) (B1) (B1) (A1) (B1) (B2) (A1)
                 (B1) (A2) (A1) (A1) (B1) (A1) (B2) (A2) (B2) (A1)
                 (B1) (A2) (B2) (B1) (B2) (A2) (A1) (B2) (A1) (B1)
                 (A1) (B2) (A1) (A2) (B2) (B1) (A2) (B2) (A1) (B2)
                 (B2) (A1) (B2) (A2) (A1) (A1) (B1) (B2) (A2) (A1)
                 (B2) (B1) (A1) (A2) (B2) (A1) (B2) (B1) (A1) (A2)
                 (A1) (B2) (B2) (A1) (B2) (B1) (A1) (B1) (A1) (A2)
                 (B2) (A1) (B1) (A2) (A2) (B2) (A1) (B2) (B2) (A1)
                 (B1) (B2) (B1) (A2) (A1) (A2) (B2) (B2) (A1) (B1)
                 (A2) (A1) (A1) (B2) (B2) (A1) (B2) (A1) (B2)
 The electronic state of the initial guess is 1-A1.
 Leave Link  401 at Tue May 12 09:14:33 2020, MaxMem= 1073741824 cpu:       2.0
 (Enter /home/matheus/.gaussian/g09/l502.exe)
 Closed shell SCF:
 Requested convergence on RMS density matrix=1.00D-08 within 128 cycles.
 Requested convergence on MAX density matrix=1.00D-06.
 Requested convergence on             energy=1.00D-06.
 No special actions if energy rises.
 Using DIIS extrapolation, IDIIS=  1040.
 Integral symmetry usage will be decided dynamically.
       126521 words used for storage of precomputed grid.
 IEnd=      305860 IEndB=      305860 NGot=  1073741824 MDV=  1073505275
 LenX=  1073505275 LenY=  1073452393
 Fock matrices will be formed incrementally for  20 cycles.

 Cycle   1  Pass 1  IDiag  1:
 FoFJK:  IHMeth= 1 ICntrl=     0 DoSepK=T KAlg= 1 I1Cent= 0 FoldK=F
 FoFCou: FMM=F IPFlag=           0 FMFlag=      100000 FMFlg1=           0
         NFxFlg=           0 DoJE=T BraDBF=F KetDBF=F FulRan=T
         Omega=  0.000000  0.000000  1.000000  0.000000  0.000000 ICntrl=     500 IOpCl=  0
         NMat0=    1 NMatS0=    1 NMatT0=    0 NMatD0=    1 NMtDS0=    0 NMtDT0=    0
         I1Cent=           0 NGrid=           0.
 Petite list used in FoFCou.
 E= -2753.38953522978    
 DIIS: error= 3.20D-02 at cycle   1 NSaved=   1.
 NSaved= 1 IEnMin= 1 EnMin= -2753.38953522978     IErMin= 1 ErrMin= 3.20D-02
 ErrMax= 3.20D-02 EMaxC= 1.00D-01 BMatC= 2.25D-01 BMatP= 2.25D-01
 IDIUse=3 WtCom= 6.80D-01 WtEn= 3.20D-01
 Coeff-Com:  0.100D+01
 Coeff-En:   0.100D+01
 Coeff:      0.100D+01
 Gap=     0.608 Goal=   None    Shift=    0.000
 GapD=    0.608 DampG=2.000 DampE=0.500 DampFc=1.0000 IDamp=-1.
 RMSDP=2.24D-03 MaxDP=1.52D-01              OVMax= 5.10D-02

 Cycle   2  Pass 1  IDiag  1:
 RMSU=  1.55D-03    CP:  1.02D+00
 FoFJK:  IHMeth= 1 ICntrl=     0 DoSepK=T KAlg= 1 I1Cent= 0 FoldK=F
 E= -2753.42027794262     Delta-E=       -0.030742712834 Rises=F Damp=F
 DIIS: error= 1.70D-02 at cycle   2 NSaved=   2.
 NSaved= 2 IEnMin= 2 EnMin= -2753.42027794262     IErMin= 2 ErrMin= 1.70D-02
 ErrMax= 1.70D-02 EMaxC= 1.00D-01 BMatC= 5.59D-02 BMatP= 2.25D-01
 IDIUse=3 WtCom= 8.30D-01 WtEn= 1.70D-01
 Coeff-Com:  0.328D+00 0.672D+00
 Coeff-En:   0.132D+00 0.868D+00
 Coeff:      0.295D+00 0.705D+00
 Gap=     0.524 Goal=   None    Shift=    0.000
 RMSDP=8.57D-04 MaxDP=5.40D-02 DE=-3.07D-02 OVMax= 2.12D-02

 Cycle   3  Pass 1  IDiag  1:
 RMSU=  1.68D-04    CP:  1.01D+00  6.35D-01
 FoFJK:  IHMeth= 1 ICntrl=     0 DoSepK=T KAlg= 1 I1Cent= 0 FoldK=F
 E= -2753.43554550378     Delta-E=       -0.015267561159 Rises=F Damp=F
 DIIS: error= 2.01D-03 at cycle   3 NSaved=   3.
 NSaved= 3 IEnMin= 3 EnMin= -2753.43554550378     IErMin= 3 ErrMin= 2.01D-03
 ErrMax= 2.01D-03 EMaxC= 1.00D-01 BMatC= 8.30D-04 BMatP= 5.59D-02
 IDIUse=3 WtCom= 9.80D-01 WtEn= 2.01D-02
 Coeff-Com: -0.220D-03 0.108D+00 0.892D+00
 Coeff-En:   0.000D+00 0.000D+00 0.100D+01
 Coeff:     -0.215D-03 0.106D+00 0.895D+00
 Gap=     0.533 Goal=   None    Shift=    0.000
 RMSDP=9.09D-05 MaxDP=5.37D-03 DE=-1.53D-02 OVMax= 3.00D-03

 Cycle   4  Pass 1  IDiag  1:
 RMSU=  1.84D-05    CP:  1.01D+00  6.73D-01  9.75D-01
 FoFJK:  IHMeth= 1 ICntrl=     0 DoSepK=T KAlg= 1 I1Cent= 0 FoldK=F
 E= -2753.43578964291     Delta-E=       -0.000244139130 Rises=F Damp=F
 DIIS: error= 6.42D-05 at cycle   4 NSaved=   4.
 NSaved= 4 IEnMin= 4 EnMin= -2753.43578964291     IErMin= 4 ErrMin= 6.42D-05
 ErrMax= 6.42D-05 EMaxC= 1.00D-01 BMatC= 6.09D-07 BMatP= 8.30D-04
 IDIUse=1 WtCom= 1.00D+00 WtEn= 0.00D+00
 Coeff-Com: -0.124D-02-0.186D-01-0.110D+00 0.113D+01
 Coeff:     -0.124D-02-0.186D-01-0.110D+00 0.113D+01
 Gap=     0.532 Goal=   None    Shift=    0.000
 RMSDP=6.60D-06 MaxDP=2.62D-04 DE=-2.44D-04 OVMax= 4.00D-04

 Cycle   5  Pass 1  IDiag  1:
 RMSU=  2.31D-06    CP:  1.01D+00  6.73D-01  9.94D-01  1.13D+00
 FoFJK:  IHMeth= 1 ICntrl=     0 DoSepK=T KAlg= 1 I1Cent= 0 FoldK=F
 E= -2753.43579022989     Delta-E=       -0.000000586984 Rises=F Damp=F
 DIIS: error= 8.41D-06 at cycle   5 NSaved=   5.
 NSaved= 5 IEnMin= 5 EnMin= -2753.43579022989     IErMin= 5 ErrMin= 8.41D-06
 ErrMax= 8.41D-06 EMaxC= 1.00D-01 BMatC= 1.17D-08 BMatP= 6.09D-07
 IDIUse=1 WtCom= 1.00D+00 WtEn= 0.00D+00
 Coeff-Com:  0.244D-04-0.278D-02-0.239D-01 0.963D-01 0.930D+00
 Coeff:      0.244D-04-0.278D-02-0.239D-01 0.963D-01 0.930D+00
 Gap=     0.532 Goal=   None    Shift=    0.000
 RMSDP=7.19D-07 MaxDP=3.25D-05 DE=-5.87D-07 OVMax= 3.05D-05

 Cycle   6  Pass 1  IDiag  1:
 RMSU=  2.22D-07    CP:  1.01D+00  6.73D-01  9.94D-01  1.15D+00  1.02D+00
 FoFJK:  IHMeth= 1 ICntrl=     0 DoSepK=T KAlg= 1 I1Cent= 0 FoldK=F
 E= -2753.43579023944     Delta-E=       -0.000000009547 Rises=F Damp=F
 DIIS: error= 5.14D-07 at cycle   6 NSaved=   6.
 NSaved= 6 IEnMin= 6 EnMin= -2753.43579023944     IErMin= 6 ErrMin= 5.14D-07
 ErrMax= 5.14D-07 EMaxC= 1.00D-01 BMatC= 4.81D-11 BMatP= 1.17D-08
 IDIUse=1 WtCom= 1.00D+00 WtEn= 0.00D+00
 Coeff-Com:  0.359D-05 0.156D-03 0.132D-02-0.109D-01-0.683D-01 0.108D+01
 Coeff:      0.359D-05 0.156D-03 0.132D-02-0.109D-01-0.683D-01 0.108D+01
 Gap=     0.532 Goal=   None    Shift=    0.000
 RMSDP=9.74D-08 MaxDP=3.44D-06 DE=-9.55D-09 OVMax= 4.56D-06

 Cycle   7  Pass 1  IDiag  1:
 RMSU=  1.91D-08    CP:  1.01D+00  6.73D-01  9.94D-01  1.15D+00  1.04D+00
                    CP:  1.21D+00
 FoFJK:  IHMeth= 1 ICntrl=     0 DoSepK=T KAlg= 1 I1Cent= 0 FoldK=F
 E= -2753.43579023952     Delta-E=       -0.000000000084 Rises=F Damp=F
 DIIS: error= 1.52D-07 at cycle   7 NSaved=   7.
 NSaved= 7 IEnMin= 7 EnMin= -2753.43579023952     IErMin= 7 ErrMin= 1.52D-07
 ErrMax= 1.52D-07 EMaxC= 1.00D-01 BMatC= 2.63D-12 BMatP= 4.81D-11
 IDIUse=1 WtCom= 1.00D+00 WtEn= 0.00D+00
 Coeff-Com: -0.693D-08 0.476D-04 0.423D-03-0.257D-02-0.233D-01 0.212D+00
 Coeff-Com:  0.814D+00
 Coeff:     -0.693D-08 0.476D-04 0.423D-03-0.257D-02-0.233D-01 0.212D+00
 Coeff:      0.814D+00
 Gap=     0.532 Goal=   None    Shift=    0.000
 RMSDP=1.15D-08 MaxDP=3.92D-07 DE=-8.37D-11 OVMax= 7.01D-07

 Cycle   8  Pass 1  IDiag  1:
 RMSU=  4.76D-09    CP:  1.01D+00  6.73D-01  9.94D-01  1.15D+00  1.04D+00
                    CP:  1.23D+00  1.03D+00
 FoFJK:  IHMeth= 1 ICntrl=     0 DoSepK=T KAlg= 1 I1Cent= 0 FoldK=F
 E= -2753.43579023951     Delta-E=        0.000000000013 Rises=F Damp=F
 DIIS: error= 2.51D-08 at cycle   8 NSaved=   8.
 NSaved= 8 IEnMin= 7 EnMin= -2753.43579023952     IErMin= 8 ErrMin= 2.51D-08
 ErrMax= 2.51D-08 EMaxC= 1.00D-01 BMatC= 1.20D-13 BMatP= 2.63D-12
 IDIUse=1 WtCom= 1.00D+00 WtEn= 0.00D+00
 Coeff-Com: -0.306D-06-0.140D-04-0.119D-03 0.977D-03 0.486D-02-0.829D-01
 Coeff-Com: -0.383D-01 0.112D+01
 Coeff:     -0.306D-06-0.140D-04-0.119D-03 0.977D-03 0.486D-02-0.829D-01
 Coeff:     -0.383D-01 0.112D+01
 Gap=     0.532 Goal=   None    Shift=    0.000
 RMSDP=4.57D-09 MaxDP=1.90D-07 DE= 1.32D-11 OVMax= 2.75D-07

 SCF Done:  E(RLC-wPBE) =  -2753.43579024     A.U. after    8 cycles
             Convg  =    0.4570D-08             -V/T =  2.0014
 KE= 2.749474037704D+03 PE=-6.578880834945D+03 EE= 1.075971007002D+03
 Leave Link  502 at Tue May 12 09:14:49 2020, MaxMem= 1073741824 cpu:     127.5
 (Enter /home/matheus/.gaussian/g09/l601.exe)
 Copying SCF densities to generalized density rwf, IOpCl= 0 IROHF=0.

 **********************************************************************

            Population analysis using the SCF density.

 **********************************************************************

 Orbital symmetries:
       Occupied  (A1) (A1) (A1) (B2) (B1) (A1) (A1) (B2) (B1) (A1)
                 (B2) (B1) (A1) (A2) (A1) (A1) (B2) (B1)
       Virtual   (A1) (B2) (A1) (B1) (B2) (A1) (A1) (B1) (B2) (A1)
                 (A2) (B2) (A1) (B1) (A1) (A2) (B2) (A1) (B2) (A1)
                 (B1) (A1) (B2) (A2) (A1) (B2) (B2) (B1) (A1) (A1)
                 (B2) (B1) (A2) (A1) (B2) (B1) (A1) (A1) (B2) (A2)
                 (B1) (A1) (A1) (B1) (A1) (B2) (B2) (A2) (B1) (B2)
                 (A1) (B2) (A1) (A2) (B2) (B1) (A2) (A1) (B1) (B2)
                 (A1) (A2) (A1) (B2) (B2) (A1) (B1) (A2) (B2) (A1)
                 (A1) (B2) (B2) (B1) (A1) (A2) (A1) (B2) (B2) (B1)
                 (B1) (A1) (A1) (B2) (B1) (A2) (A1) (A1) (B1) (A1)
                 (A2) (B2) (B1) (A1) (B2) (B1) (A2) (A1) (A2) (B2)
                 (A1) (B1) (B2) (B1) (A2) (A1) (B2) (B2) (A1) (B1)
                 (A1) (B2) (A2) (A1) (B2) (B1) (A2) (B2) (A1) (B2)
                 (B2) (A1) (A2) (B2) (A1) (A1) (B1) (B2) (A2) (A1)
                 (B2) (B1) (A1) (A2) (B2) (A1) (B2) (B1) (A1) (A2)
                 (A1) (B2) (B2) (A1) (B2) (B1) (A1) (B1) (A1) (A2)
                 (B2) (A1) (B1) (A2) (A2) (B2) (A1) (B2) (B2) (A1)
                 (B1) (B2) (B1) (A2) (A1) (A2) (B2) (B2) (A1) (B1)
                 (A2) (A1) (A1) (B2) (B2) (A1) (B2) (A1) (B2)
 The electronic state is 1-A1.
 Alpha  occ. eigenvalues -- -511.10657 -66.65318 -60.31534 -60.31531 -60.31530
 Alpha  occ. eigenvalues --   -9.58574  -7.32998  -7.32996  -7.32995  -3.28541
 Alpha  occ. eigenvalues --   -3.28541  -3.28540  -3.28539  -3.28539  -1.03231
 Alpha  occ. eigenvalues --   -0.50219  -0.50217  -0.50215
 Alpha virt. eigenvalues --    0.03012   0.04882   0.08426   0.09748   0.11991
 Alpha virt. eigenvalues --    0.13121   0.13678   0.14482   0.15523   0.17302
 Alpha virt. eigenvalues --    0.17663   0.17835   0.21184   0.26510   0.27033
 Alpha virt. eigenvalues --    0.27375   0.29670   0.31693   0.33318   0.37654
 Alpha virt. eigenvalues --    0.38579   0.39635   0.39948   0.40897   0.41747
 Alpha virt. eigenvalues --    0.42703   0.46408   0.54595   0.55667   0.58918
 Alpha virt. eigenvalues --    0.62539   0.62585   0.69648   0.70696   0.71460
 Alpha virt. eigenvalues --    0.73412   0.74403   0.75968   0.76030   0.77722
 Alpha virt. eigenvalues --    0.78198   0.83424   0.84822   0.87609   0.88355
 Alpha virt. eigenvalues --    0.89310   0.89569   0.90375   0.97377   0.97980
 Alpha virt. eigenvalues --    0.98639   1.00049   1.00386   1.00568   1.04599
 Alpha virt. eigenvalues --    1.04678   1.09999   1.12117   1.14889   1.16021
 Alpha virt. eigenvalues --    1.16158   1.25340   1.29614   1.32846   1.40569
 Alpha virt. eigenvalues --    1.41193   1.44740   1.45346   1.50284   1.52478
 Alpha virt. eigenvalues --    1.56394   1.61552   1.68440   1.70084   1.74858
 Alpha virt. eigenvalues --    1.79587   1.84537   1.88350   1.96262   2.15290
 Alpha virt. eigenvalues --    2.22835   2.23165   2.27958   2.27960   2.32619
 Alpha virt. eigenvalues --    2.33755   2.34929   2.37190   2.39197   2.40314
 Alpha virt. eigenvalues --    2.46889   2.49888   2.50558   2.52029   2.52139
 Alpha virt. eigenvalues --    2.53381   2.54225   2.61403   2.61627   2.62106
 Alpha virt. eigenvalues --    2.64210   2.64269   2.65089   2.69697   2.75170
 Alpha virt. eigenvalues --    2.75576   2.77239   2.84400   2.89876   2.89918
 Alpha virt. eigenvalues --    2.96614   2.99741   3.11942   3.12868   3.16412
 Alpha virt. eigenvalues --    3.27108   3.28472   3.29553   3.39624   3.56194
 Alpha virt. eigenvalues --    3.63680   3.66555   3.88342   3.88852   4.02591
 Alpha virt. eigenvalues --    4.42931   4.43735   4.52503   4.61867   4.68452
 Alpha virt. eigenvalues --    4.73250   4.81760   4.87902   4.96149   5.05595
 Alpha virt. eigenvalues --    5.12308   5.32708   5.51320   5.66860   5.72268
 Alpha virt. eigenvalues --    5.91215   6.04426   6.30539   6.70705   6.96761
 Alpha virt. eigenvalues --    7.25886   7.38460   7.64197   7.67334   7.80314
 Alpha virt. eigenvalues --    7.88241   8.03848   8.11943   8.13070   8.29322
 Alpha virt. eigenvalues --    8.32397   8.37334   8.72206   9.03127   9.50947
 Alpha virt. eigenvalues --    9.75595   9.76854   9.88032   9.90947   9.94894
 Alpha virt. eigenvalues --   10.21272  10.22945  10.75020  10.87172  11.43309
 Alpha virt. eigenvalues --   11.63695  11.67269  11.92648  12.07768  13.30906
 Alpha virt. eigenvalues --   13.60001  14.56423  62.40208  64.85216
          Condensed to atoms (all electrons):
              1          2          3          4          5
     1  O    0.001833  -0.000245  -0.001674   0.000248  -0.003545
     2  O   -0.000245   0.001833   0.000248  -0.001674  -0.003545
     3  H   -0.001674   0.000248   0.002599   0.000362  -0.024409
     4  H    0.000248  -0.001674   0.000362   0.002599  -0.024409
     5  Kr  -0.003545  -0.003545  -0.024409  -0.024409  36.108422
 Mulliken atomic charges:
              1
     1  O    0.003382
     2  O    0.003382
     3  H    0.022874
     4  H    0.022874
     5  Kr  -0.052512
 Sum of Mulliken atomic charges =   0.00000
 Mulliken charges with hydrogens summed into heavy atoms:
              1
     1  O    0.026256
     2  O    0.026256
     5  Kr  -0.052512
 Sum of Mulliken charges with hydrogens summed into heavy atoms =   0.00000
          Condensed to fragments (all electrons):
     1       0.052512
     2      -0.052512
 Electronic spatial extent (au):  <R**2>=            159.2616
 Charge=              0.0000 electrons
 Dipole moment (field-independent basis, Debye):
    X=              0.0000    Y=              0.0000    Z=             -0.0014  Tot=              0.0014
 Quadrupole moment (field-independent basis, Debye-Ang):
   XX=            -17.6288   YY=            -17.6208   ZZ=            -17.6146
   XY=              0.0000   XZ=              0.0000   YZ=              0.0000
 Traceless Quadrupole moment (field-independent basis, Debye-Ang):
   XX=             -0.0074   YY=              0.0006   ZZ=              0.0068
   XY=              0.0000   XZ=              0.0000   YZ=              0.0000
 Octapole moment (field-independent basis, Debye-Ang**2):
  XXX=              0.0000  YYY=              0.0000  ZZZ=            -51.0436  XYY=              0.0000
  XXY=              0.0000  XXZ=            -17.0293  XZZ=              0.0000  YZZ=              0.0000
  YYZ=            -17.0250  XYZ=              0.0000
 Hexadecapole moment (field-independent basis, Debye-Ang**3):
 XXXX=            -18.3998 YYYY=            -18.3770 ZZZZ=           -116.9722 XXXY=              0.0000
 XXXZ=              0.0000 YYYX=              0.0000 YYYZ=              0.0000 ZZZX=              0.0000
 ZZZY=              0.0000 XXYY=             -6.1265 XXZZ=            -22.5713 YYZZ=            -22.5661
 XXYZ=              0.0000 YYXZ=              0.0000 ZZXY=              0.0000
 N-N= 0.000000000000D+00 E-N=-6.578880837153D+03  KE= 2.749474037704D+03
 Symmetry A1   KE= 1.985297985563D+03
 Symmetry A2   KE= 4.748031559134D+01
 Symmetry B1   KE= 3.583507429374D+02
 Symmetry B2   KE= 3.583449936119D+02
 No NMR shielding tensors so no spin-rotation constants.
 Leave Link  601 at Tue May 12 09:14:49 2020, MaxMem= 1073741824 cpu:       1.0
 (Enter /home/matheus/.gaussian/g09/l122.exe)
 Counterpoise: doing MCBS calculation for fragment   1
 Leave Link  122 at Tue May 12 09:14:49 2020, MaxMem= 1073741824 cpu:       0.0
 (Enter /home/matheus/.gaussian/g09/l301.exe)
 Basis read from rwf:  (5D, 7F)
 No pseudopotential information found on rwf file.
 There are    46 symmetry adapted basis functions of A1  symmetry.
 There are    23 symmetry adapted basis functions of A2  symmetry.
 There are    23 symmetry adapted basis functions of B1  symmetry.
 There are    46 symmetry adapted basis functions of B2  symmetry.
 Integral buffers will be    131072 words long.
 Raffenetti 2 integral format.
 Two-electron integral symmetry is turned on.
   138 basis functions,   198 primitive gaussians,   160 cartesian basis functions
     9 alpha electrons        9 beta electrons
       nuclear repulsion energy        36.6667523957 Hartrees.
 IExCor=32609 DFT=T Ex+Corr=LC-wPBE ExCW=0 ScaHFX=  1.000000
 ScaDFX=  1.000000  0.000000  1.000000  1.000000 ScalE2=  1.000000  1.000000
 IRadAn=      5 IRanWt=     -1 IRanGd=            0 ICorTp=0
  HFx wShort=  0.000000 wLong=  0.400000 cFull=  0.000000 cShort=  0.000000 cLong=  1.000000
  DFx wShort=  0.000000 wLong=  0.400000 cFull=  0.000000 cShort=  0.000000 cLong=  1.000000
 NAtoms=    5 NActive=    4 NUniq=    2 SFac= 4.00D+00 NAtFMM=   60 NAOKFM=F Big=F
 No density basis found on file   718.
 Leave Link  301 at Tue May 12 09:14:49 2020, MaxMem= 1073741824 cpu:       0.2
 (Enter /home/matheus/.gaussian/g09/l302.exe)
 NPDir=0 NMtPBC=     1 NCelOv=     1 NCel=       1 NClECP=     1 NCelD=      1
         NCelK=      1 NCelE2=     1 NClLst=     1 CellRange=     0.0.
 One-electron integrals computed using PRISM.
 One-electron integral symmetry used in STVInt
 NBasis=   138 RedAO= T  NBF=    46    23    23    46
 NBsUse=   138 1.00D-06 NBFU=    46    23    23    46
 Precomputing XC quadrature grid using
 IXCGrd= 2 IRadAn=           5 IRanWt=          -1 IRanGd=           0 AccXCQ= 0.00D+00.
 NRdTot=     344 NPtTot=       92556 NUsed=       95038 NTot=       95070
 NSgBfM=   160   160   160   160   160 NAtAll=     4     4.
 Leave Link  302 at Tue May 12 09:14:49 2020, MaxMem= 1073741824 cpu:       0.8
 (Enter /home/matheus/.gaussian/g09/l303.exe)
 DipDrv:  MaxL=1.
 Leave Link  303 at Tue May 12 09:14:49 2020, MaxMem= 1073741824 cpu:       0.1
 (Enter /home/matheus/.gaussian/g09/l401.exe)
 Harris functional with IExCor=32609 diagonalized for initial guess.
 ExpMin= 2.53D-02 ExpMax= 1.53D+04 ExpMxC= 5.22D+02 IAcc=3 IRadAn=         5 AccDes= 0.00D+00
 HarFok:  IExCor=32609 AccDes= 0.00D+00 IRadAn=         5 IDoV= 1
 ScaDFX=  1.000000  1.000000  1.000000  1.000000
 FoFCou: FMM=F IPFlag=           0 FMFlag=      100000 FMFlg1=           0
         NFxFlg=           0 DoJE=T BraDBF=F KetDBF=T FulRan=T
         Omega=  0.000000  0.000000  1.000000  0.000000  0.000000 ICntrl=     500 IOpCl=  0
         NMat0=    1 NMatS0=    1 NMatT0=    0 NMatD0=    1 NMtDS0=    0 NMtDT0=    0
         I1Cent=           4 NGrid=           0.
 Petite list used in FoFCou.
 Harris En= -151.498436523797    
 Initial guess orbital symmetries:
       Occupied  (B2) (A1) (A1) (B2) (A1) (A1) (B1) (B2) (A2)
       Virtual   (B2) (A1) (B2) (A1) (B1) (A1) (B2) (B2) (A1) (A2)
                 (B1) (A1) (B2) (A1) (A2) (B2) (A1) (B2) (B2) (A1)
                 (B1) (B1) (A1) (B2) (A1) (A2) (B1) (A2) (B2) (A1)
                 (B2) (A1) (A1) (B1) (B1) (B2) (A1) (A2) (B2) (B2)
                 (A1) (A2) (B2) (A2) (A1) (B2) (B1) (A1) (B2) (A2)
                 (A1) (B2) (B1) (A1) (A1) (B2) (B1) (A1) (A2) (B2)
                 (B1) (A1) (A2) (A1) (B2) (B2) (A1) (B1) (B2) (B1)
                 (B2) (A2) (A1) (A2) (A1) (B2) (B2) (A2) (B2) (A1)
                 (B1) (B2) (A1) (B1) (A2) (B1) (A2) (A1) (B2) (A2)
                 (A1) (A1) (B2) (B2) (A1) (A1) (B1) (B2) (B2) (A2)
                 (B2) (A1) (B1) (A1) (B2) (B1) (A1) (A2) (B2) (B1)
                 (A1) (A1) (A2) (B1) (B1) (B2) (A2) (A2) (A1) (B2)
                 (A2) (A1) (B2) (B2) (A1) (B2) (B2) (A1) (B2)
 The electronic state of the initial guess is 1-A1.
 Leave Link  401 at Tue May 12 09:14:49 2020, MaxMem= 1073741824 cpu:       1.2
 (Enter /home/matheus/.gaussian/g09/l502.exe)
 Closed shell SCF:
 Requested convergence on RMS density matrix=1.00D-08 within 128 cycles.
 Requested convergence on MAX density matrix=1.00D-06.
 Requested convergence on             energy=1.00D-06.
 No special actions if energy rises.
 Using DIIS extrapolation, IDIIS=  1040.
 Integral symmetry usage will be decided dynamically.
        94980 words used for storage of precomputed grid.
 IEnd=      192636 IEndB=      192636 NGot=  1073741824 MDV=  1073591589
 LenX=  1073591589 LenY=  1073565548
 Fock matrices will be formed incrementally for  20 cycles.

 Cycle   1  Pass 1  IDiag  1:
 FoFJK:  IHMeth= 1 ICntrl=     0 DoSepK=T KAlg= 1 I1Cent= 0 FoldK=F
 FoFCou: FMM=F IPFlag=           0 FMFlag=      100000 FMFlg1=           0
         NFxFlg=           0 DoJE=T BraDBF=F KetDBF=F FulRan=T
         Omega=  0.000000  0.000000  1.000000  0.000000  0.000000 ICntrl=     500 IOpCl=  0
         NMat0=    1 NMatS0=    1 NMatT0=    0 NMatD0=    1 NMtDS0=    0 NMtDT0=    0
         I1Cent=           0 NGrid=           0.
 Petite list used in FoFCou.
 E= -151.486499496568    
 DIIS: error= 2.21D-02 at cycle   1 NSaved=   1.
 NSaved= 1 IEnMin= 1 EnMin= -151.486499496568     IErMin= 1 ErrMin= 2.21D-02
 ErrMax= 2.21D-02 EMaxC= 1.00D-01 BMatC= 4.26D-02 BMatP= 4.26D-02
 IDIUse=3 WtCom= 7.79D-01 WtEn= 2.21D-01
 Coeff-Com:  0.100D+01
 Coeff-En:   0.100D+01
 Coeff:      0.100D+01
 Gap=     0.365 Goal=   None    Shift=    0.000
 GapD=    0.365 DampG=1.000 DampE=0.500 DampFc=0.5000 IDamp=-1.
 Damping current iteration by 5.00D-01
 RMSDP=1.34D-03 MaxDP=2.37D-02              OVMax= 6.85D-02

 Cycle   2  Pass 1  IDiag  1:
 RMSU=  4.74D-04    CP:  9.98D-01
 FoFJK:  IHMeth= 1 ICntrl=     0 DoSepK=T KAlg= 1 I1Cent= 0 FoldK=F
 E= -151.502207729145     Delta-E=       -0.015708232578 Rises=F Damp=T
 DIIS: error= 5.26D-03 at cycle   2 NSaved=   2.
 NSaved= 2 IEnMin= 2 EnMin= -151.502207729145     IErMin= 2 ErrMin= 5.26D-03
 ErrMax= 5.26D-03 EMaxC= 1.00D-01 BMatC= 3.66D-03 BMatP= 4.26D-02
 IDIUse=3 WtCom= 9.47D-01 WtEn= 5.26D-02
 Coeff-Com: -0.140D+00 0.114D+01
 Coeff-En:   0.000D+00 0.100D+01
 Coeff:     -0.132D+00 0.113D+01
 Gap=     0.412 Goal=   None    Shift=    0.000
 RMSDP=4.45D-04 MaxDP=2.12D-02 DE=-1.57D-02 OVMax= 3.01D-02

 Cycle   3  Pass 1  IDiag  1:
 RMSU=  3.00D-04    CP:  9.91D-01  1.15D+00
 FoFJK:  IHMeth= 1 ICntrl=     0 DoSepK=T KAlg= 1 I1Cent= 0 FoldK=F
 E= -151.516494772142     Delta-E=       -0.014287042997 Rises=F Damp=F
 DIIS: error= 1.94D-03 at cycle   3 NSaved=   3.
 NSaved= 3 IEnMin= 3 EnMin= -151.516494772142     IErMin= 3 ErrMin= 1.94D-03
 ErrMax= 1.94D-03 EMaxC= 1.00D-01 BMatC= 2.81D-04 BMatP= 3.66D-03
 IDIUse=3 WtCom= 9.81D-01 WtEn= 1.94D-02
 Coeff-Com: -0.534D-01 0.239D+00 0.815D+00
 Coeff-En:   0.000D+00 0.000D+00 0.100D+01
 Coeff:     -0.524D-01 0.234D+00 0.818D+00
 Gap=     0.409 Goal=   None    Shift=    0.000
 RMSDP=7.64D-05 MaxDP=2.13D-03 DE=-1.43D-02 OVMax= 3.86D-03

 Cycle   4  Pass 1  IDiag  1:
 RMSU=  4.15D-05    CP:  9.90D-01  1.21D+00  1.05D+00
 FoFJK:  IHMeth= 1 ICntrl=     0 DoSepK=T KAlg= 1 I1Cent= 0 FoldK=F
 E= -151.516662812610     Delta-E=       -0.000168040468 Rises=F Damp=F
 DIIS: error= 4.24D-04 at cycle   4 NSaved=   4.
 NSaved= 4 IEnMin= 4 EnMin= -151.516662812610     IErMin= 4 ErrMin= 4.24D-04
 ErrMax= 4.24D-04 EMaxC= 1.00D-01 BMatC= 1.46D-05 BMatP= 2.81D-04
 IDIUse=3 WtCom= 9.96D-01 WtEn= 4.24D-03
 Coeff-Com:  0.712D-02-0.249D-01 0.124D+00 0.894D+00
 Coeff-En:   0.000D+00 0.000D+00 0.000D+00 0.100D+01
 Coeff:      0.709D-02-0.248D-01 0.123D+00 0.895D+00
 Gap=     0.411 Goal=   None    Shift=    0.000
 RMSDP=1.65D-05 MaxDP=5.67D-04 DE=-1.68D-04 OVMax= 7.83D-04

 Cycle   5  Pass 1  IDiag  1:
 RMSU=  7.79D-06    CP:  9.90D-01  1.20D+00  1.07D+00  9.89D-01
 FoFJK:  IHMeth= 1 ICntrl=     0 DoSepK=T KAlg= 1 I1Cent= 0 FoldK=F
 E= -151.516672447565     Delta-E=       -0.000009634955 Rises=F Damp=F
 DIIS: error= 5.57D-05 at cycle   5 NSaved=   5.
 NSaved= 5 IEnMin= 5 EnMin= -151.516672447565     IErMin= 5 ErrMin= 5.57D-05
 ErrMax= 5.57D-05 EMaxC= 1.00D-01 BMatC= 1.00D-07 BMatP= 1.46D-05
 IDIUse=1 WtCom= 1.00D+00 WtEn= 0.00D+00
 Coeff-Com:  0.848D-04-0.145D-02-0.283D-01-0.902D-01 0.112D+01
 Coeff:      0.848D-04-0.145D-02-0.283D-01-0.902D-01 0.112D+01
 Gap=     0.411 Goal=   None    Shift=    0.000
 RMSDP=3.43D-06 MaxDP=6.63D-05 DE=-9.63D-06 OVMax= 2.24D-04

 Cycle   6  Pass 1  IDiag  1:
 RMSU=  1.09D-06    CP:  9.90D-01  1.20D+00  1.07D+00  1.01D+00  1.24D+00
 FoFJK:  IHMeth= 1 ICntrl=     0 DoSepK=T KAlg= 1 I1Cent= 0 FoldK=F
 E= -151.516672641126     Delta-E=       -0.000000193561 Rises=F Damp=F
 DIIS: error= 9.37D-06 at cycle   6 NSaved=   6.
 NSaved= 6 IEnMin= 6 EnMin= -151.516672641126     IErMin= 6 ErrMin= 9.37D-06
 ErrMax= 9.37D-06 EMaxC= 1.00D-01 BMatC= 2.55D-09 BMatP= 1.00D-07
 IDIUse=1 WtCom= 1.00D+00 WtEn= 0.00D+00
[...]
                 (B2) (B1) (A1) (A1) (A2) (B2) (B2) (B1) (A1) (A2)
                 (A1) (B2) (B2) (A1) (B2) (B1) (A1) (B1) (A1) (A2)
                 (B2) (A1) (B1) (A2) (B2) (A1) (A2) (B2) (B2) (A1)
                 (B2) (B1) (B1) (A1) (A2) (B2) (A2) (B2) (A1) (B1)
                 (A1) (A2) (A1) (B2) (B2) (A1) (B2) (A1) (B2)
 The electronic state of the initial guess is 1-A1.
 Generating alternative initial guess.
 Harris functional with IExCor=32609 diagonalized for initial guess.
 ExpMin= 2.53D-02 ExpMax= 1.17D+07 ExpMxC= 1.33D+04 IAcc=3 IRadAn=         5 AccDes= 0.00D+00
 HarFok:  IExCor=32609 AccDes= 0.00D+00 IRadAn=         5 IDoV= 1
 ScaDFX=  1.000000  1.000000  1.000000  1.000000
 FoFCou: FMM=F IPFlag=           0 FMFlag=      100000 FMFlg1=           0
         NFxFlg=           0 DoJE=T BraDBF=F KetDBF=T FulRan=T
         Omega=  0.000000  0.000000  1.000000  0.000000  0.000000 ICntrl=     500 IOpCl=  0
         NMat0=    1 NMatS0=    1 NMatT0=    0 NMatD0=    1 NMtDS0=    0 NMtDT0=    0
         I1Cent=           4 NGrid=           0.
 Petite list used in FoFCou.
 Harris En= -2753.24587757103    
 Leave Link  401 at Tue May 12 09:27:43 2020, MaxMem= 1073741824 cpu:       2.2
 (Enter /home/matheus/.gaussian/g09/l502.exe)
 Closed shell SCF:
 Requested convergence on RMS density matrix=1.00D-08 within 128 cycles.
 Requested convergence on MAX density matrix=1.00D-06.
 Requested convergence on             energy=1.00D-06.
 No special actions if energy rises.
 Using DIIS extrapolation, IDIIS=  1040.
 Integral symmetry usage will be decided dynamically.
       126823 words used for storage of precomputed grid.
 IEnd=      306162 IEndB=      306162 NGot=  1073741824 MDV=  1073504973
 LenX=  1073504973 LenY=  1073452091
 Fock matrices will be formed incrementally for  20 cycles.

 Cycle   1  Pass 1  IDiag  1:
 FoFJK:  IHMeth= 1 ICntrl=     0 DoSepK=T KAlg= 1 I1Cent= 0 FoldK=F
 FoFCou: FMM=F IPFlag=           0 FMFlag=      100000 FMFlg1=           0
         NFxFlg=           0 DoJE=T BraDBF=F KetDBF=F FulRan=T
         Omega=  0.000000  0.000000  1.000000  0.000000  0.000000 ICntrl=     500 IOpCl=  0
         NMat0=    1 NMatS0=    1 NMatT0=    0 NMatD0=    1 NMtDS0=    0 NMtDT0=    0
         I1Cent=           0 NGrid=           0.
 Petite list used in FoFCou.
 E= -2753.43565088746    
 DIIS: error= 1.63D-04 at cycle   1 NSaved=   1.
 NSaved= 1 IEnMin= 1 EnMin= -2753.43565088746     IErMin= 1 ErrMin= 1.63D-04
 ErrMax= 1.63D-04 EMaxC= 1.00D-01 BMatC= 5.27D-06 BMatP= 5.27D-06
 IDIUse=3 WtCom= 9.98D-01 WtEn= 1.63D-03
 Coeff-Com:  0.100D+01
 Coeff-En:   0.100D+01
 Coeff:      0.100D+01
 Gap=     0.531 Goal=   None    Shift=    0.000
 RMSDP=1.17D-05 MaxDP=5.37D-04              OVMax= 3.00D-04

 Cycle   2  Pass 1  IDiag  1:
 RMSU=  8.26D-06    CP:  1.00D+00
 FoFJK:  IHMeth= 1 ICntrl=     0 DoSepK=T KAlg= 1 I1Cent= 0 FoldK=F
 E= -2753.43565151328     Delta-E=       -0.000000625819 Rises=F Damp=F
 DIIS: error= 6.46D-06 at cycle   2 NSaved=   2.
 NSaved= 2 IEnMin= 2 EnMin= -2753.43565151328     IErMin= 2 ErrMin= 6.46D-06
 ErrMax= 6.46D-06 EMaxC= 1.00D-01 BMatC= 3.82D-09 BMatP= 5.27D-06
 IDIUse=1 WtCom= 1.00D+00 WtEn= 0.00D+00
 Coeff-Com: -0.802D-02 0.101D+01
 Coeff:     -0.802D-02 0.101D+01
 Gap=     0.531 Goal=   None    Shift=    0.000
 RMSDP=1.08D-06 MaxDP=4.29D-05 DE=-6.26D-07 OVMax= 4.49D-05

 Cycle   3  Pass 1  IDiag  1:
 RMSU=  4.41D-07    CP:  1.00D+00  1.08D+00
 FoFJK:  IHMeth= 1 ICntrl=     0 DoSepK=T KAlg= 1 I1Cent= 0 FoldK=F
 E= -2753.43565151978     Delta-E=       -0.000000006495 Rises=F Damp=F
 DIIS: error= 8.53D-07 at cycle   3 NSaved=   3.
 NSaved= 3 IEnMin= 3 EnMin= -2753.43565151978     IErMin= 3 ErrMin= 8.53D-07
 ErrMax= 8.53D-07 EMaxC= 1.00D-01 BMatC= 9.42D-11 BMatP= 3.82D-09
 IDIUse=1 WtCom= 1.00D+00 WtEn= 0.00D+00
 Coeff-Com:  0.248D-03-0.114D+00 0.111D+01
 Coeff:      0.248D-03-0.114D+00 0.111D+01
 Gap=     0.531 Goal=   None    Shift=    0.000
 RMSDP=1.45D-07 MaxDP=4.58D-06 DE=-6.49D-09 OVMax= 9.04D-06

 Cycle   4  Pass 1  IDiag  1:
 RMSU=  4.86D-08    CP:  1.00D+00  1.08D+00  1.19D+00
 FoFJK:  IHMeth= 1 ICntrl=     0 DoSepK=T KAlg= 1 I1Cent= 0 FoldK=F
 E= -2753.43565151997     Delta-E=       -0.000000000195 Rises=F Damp=F
 DIIS: error= 4.37D-07 at cycle   4 NSaved=   4.
 NSaved= 4 IEnMin= 4 EnMin= -2753.43565151997     IErMin= 4 ErrMin= 4.37D-07
 ErrMax= 4.37D-07 EMaxC= 1.00D-01 BMatC= 7.58D-12 BMatP= 9.42D-11
 IDIUse=1 WtCom= 1.00D+00 WtEn= 0.00D+00
 Coeff-Com:  0.189D-03-0.431D-01 0.257D+00 0.786D+00
 Coeff:      0.189D-03-0.431D-01 0.257D+00 0.786D+00
 Gap=     0.531 Goal=   None    Shift=    0.000
 RMSDP=1.84D-08 MaxDP=6.43D-07 DE=-1.95D-10 OVMax= 1.14D-06

 Cycle   5  Pass 1  IDiag  1:
 RMSU=  8.38D-09    CP:  1.00D+00  1.08D+00  1.21D+00  1.12D+00
 FoFJK:  IHMeth= 1 ICntrl=     0 DoSepK=T KAlg= 1 I1Cent= 0 FoldK=F
 E= -2753.43565151999     Delta-E=       -0.000000000013 Rises=F Damp=F
 DIIS: error= 3.76D-08 at cycle   5 NSaved=   5.
 NSaved= 5 IEnMin= 5 EnMin= -2753.43565151999     IErMin= 5 ErrMin= 3.76D-08
 ErrMax= 3.76D-08 EMaxC= 1.00D-01 BMatC= 1.19D-13 BMatP= 7.58D-12
 IDIUse=1 WtCom= 1.00D+00 WtEn= 0.00D+00
 Coeff-Com: -0.278D-04 0.843D-02-0.672D-01-0.620D-01 0.112D+01
 Coeff:     -0.278D-04 0.843D-02-0.672D-01-0.620D-01 0.112D+01
 Gap=     0.531 Goal=   None    Shift=    0.000
 RMSDP=8.06D-09 MaxDP=3.38D-07 DE=-1.27D-11 OVMax= 3.55D-07

 SCF Done:  E(RLC-wPBE) =  -2753.43565152     A.U. after    5 cycles
             Convg  =    0.8055D-08             -V/T =  2.0014
 KE= 2.749528342109D+03 PE=-6.578941230549D+03 EE= 1.075977236919D+03
 Leave Link  502 at Tue May 12 09:27:51 2020, MaxMem= 1073741824 cpu:      63.9
 (Enter /home/matheus/.gaussian/g09/l122.exe)
 Restoring MOs from calculation   4 to rwf.
 Counterpoise: doing MCBS calculation for fragment   1
 Leave Link  122 at Tue May 12 09:27:51 2020, MaxMem= 1073741824 cpu:       0.0
 (Enter /home/matheus/.gaussian/g09/l301.exe)
 Basis read from rwf:  (5D, 7F)
 No pseudopotential information found on rwf file.
 There are    46 symmetry adapted basis functions of A1  symmetry.
 There are    23 symmetry adapted basis functions of A2  symmetry.
 There are    23 symmetry adapted basis functions of B1  symmetry.
 There are    46 symmetry adapted basis functions of B2  symmetry.
 Integral buffers will be    131072 words long.
 Raffenetti 2 integral format.
 Two-electron integral symmetry is turned on.
   138 basis functions,   198 primitive gaussians,   160 cartesian basis functions
     9 alpha electrons        9 beta electrons
       nuclear repulsion energy        36.6667523957 Hartrees.
 IExCor=32609 DFT=T Ex+Corr=LC-wPBE ExCW=0 ScaHFX=  1.000000
 ScaDFX=  1.000000  0.000000  1.000000  1.000000 ScalE2=  1.000000  1.000000
 IRadAn=      5 IRanWt=     -1 IRanGd=            0 ICorTp=0
  HFx wShort=  0.000000 wLong=  0.400000 cFull=  0.000000 cShort=  0.000000 cLong=  1.000000
  DFx wShort=  0.000000 wLong=  0.400000 cFull=  0.000000 cShort=  0.000000 cLong=  1.000000
 NAtoms=    5 NActive=    4 NUniq=    2 SFac= 4.00D+00 NAtFMM=   60 NAOKFM=F Big=F
 No density basis found on file   718.
 Leave Link  301 at Tue May 12 09:27:51 2020, MaxMem= 1073741824 cpu:       0.2
 (Enter /home/matheus/.gaussian/g09/l302.exe)
 NPDir=0 NMtPBC=     1 NCelOv=     1 NCel=       1 NClECP=     1 NCelD=      1
         NCelK=      1 NCelE2=     1 NClLst=     1 CellRange=     0.0.
 One-electron integrals computed using PRISM.
 One-electron integral symmetry used in STVInt
 NBasis=   138 RedAO= T  NBF=    46    23    23    46
 NBsUse=   138 1.00D-06 NBFU=    46    23    23    46
 Precomputing XC quadrature grid using
 IXCGrd= 2 IRadAn=           5 IRanWt=          -1 IRanGd=           0 AccXCQ= 0.00D+00.
 NRdTot=     344 NPtTot=       92556 NUsed=       95038 NTot=       95070
 NSgBfM=   160   160   160   160   160 NAtAll=     4     4.
 Leave Link  302 at Tue May 12 09:27:51 2020, MaxMem= 1073741824 cpu:       0.8
 (Enter /home/matheus/.gaussian/g09/l303.exe)
 DipDrv:  MaxL=1.
 Leave Link  303 at Tue May 12 09:27:51 2020, MaxMem= 1073741824 cpu:       0.1
 (Enter /home/matheus/.gaussian/g09/l401.exe)
 Initial guess read from the read-write file.
 Guess basis will be translated and rotated to current coordinates.
 Initial guess orbital symmetries:
       Occupied  (B2) (A1) (A1) (B2) (A1) (A1) (B1) (B2) (A2)
       Virtual   (A1) (B2) (B2) (A1) (B2) (B1) (A1) (A1) (B2) (A2)
                 (B1) (A1) (B2) (A1) (A2) (B2) (A1) (B2) (B2) (A1)
                 (B1) (A1) (B2) (B1) (A1) (A2) (A2) (B1) (B2) (A1)
                 (B2) (A1) (A1) (B1) (A1) (B1) (B2) (A2) (B2) (B2)
                 (A1) (A2) (B2) (A2) (B2) (A1) (B1) (A1) (B2) (A2)
                 (A1) (B2) (B1) (A1) (B2) (A1) (B1) (A1) (A2) (B2)
                 (B1) (A1) (A2) (A1) (B2) (B2) (A1) (B1) (B2) (B1)
                 (B2) (A2) (A1) (A2) (A1) (B2) (B2) (A2) (B2) (A1)
                 (B2) (B1) (A1) (B1) (A2) (B1) (A2) (A1) (B2) (A2)
                 (A1) (A1) (B2) (B2) (A1) (A1) (B1) (B2) (B2) (A2)
                 (B2) (A1) (B1) (A1) (B2) (B1) (A1) (A2) (B2) (B1)
                 (A1) (A1) (A2) (B1) (B1) (B2) (A2) (A2) (A1) (B2)
                 (A1) (A2) (B2) (B2) (A1) (B2) (B2) (A1) (B2)
 The electronic state of the initial guess is 1-A1.
 Generating alternative initial guess.
 Harris functional with IExCor=32609 diagonalized for initial guess.
 ExpMin= 2.53D-02 ExpMax= 1.53D+04 ExpMxC= 5.22D+02 IAcc=3 IRadAn=         5 AccDes= 0.00D+00
 HarFok:  IExCor=32609 AccDes= 0.00D+00 IRadAn=         5 IDoV= 1
 ScaDFX=  1.000000  1.000000  1.000000  1.000000
 FoFCou: FMM=F IPFlag=           0 FMFlag=      100000 FMFlg1=           0
         NFxFlg=           0 DoJE=T BraDBF=F KetDBF=T FulRan=T
         Omega=  0.000000  0.000000  1.000000  0.000000  0.000000 ICntrl=     500 IOpCl=  0
         NMat0=    1 NMatS0=    1 NMatT0=    0 NMatD0=    1 NMtDS0=    0 NMtDT0=    0
         I1Cent=           4 NGrid=           0.
 Petite list used in FoFCou.
 Harris En= -151.498436523796    
 Leave Link  401 at Tue May 12 09:27:52 2020, MaxMem= 1073741824 cpu:       1.5
 (Enter /home/matheus/.gaussian/g09/l502.exe)
 Closed shell SCF:
 Requested convergence on RMS density matrix=1.00D-08 within 128 cycles.
 Requested convergence on MAX density matrix=1.00D-06.
 Requested convergence on             energy=1.00D-06.
 No special actions if energy rises.
 Using DIIS extrapolation, IDIIS=  1040.
 Integral symmetry usage will be decided dynamically.
        94980 words used for storage of precomputed grid.
 IEnd=      192636 IEndB=      192636 NGot=  1073741824 MDV=  1073591589
 LenX=  1073591589 LenY=  1073565548
 Fock matrices will be formed incrementally for  20 cycles.

 Cycle   1  Pass 1  IDiag  1:
 FoFJK:  IHMeth= 1 ICntrl=     0 DoSepK=T KAlg= 1 I1Cent= 0 FoldK=F
 FoFCou: FMM=F IPFlag=           0 FMFlag=      100000 FMFlg1=           0
         NFxFlg=           0 DoJE=T BraDBF=F KetDBF=F FulRan=T
         Omega=  0.000000  0.000000  1.000000  0.000000  0.000000 ICntrl=     500 IOpCl=  0
         NMat0=    1 NMatS0=    1 NMatT0=    0 NMatD0=    1 NMtDS0=    0 NMtDT0=    0
         I1Cent=           0 NGrid=           0.
 Petite list used in FoFCou.
 E= -151.516672646879    
 DIIS: error= 3.17D-10 at cycle   1 NSaved=   1.
 NSaved= 1 IEnMin= 1 EnMin= -151.516672646879     IErMin= 1 ErrMin= 3.17D-10
 ErrMax= 3.17D-10 EMaxC= 1.00D-01 BMatC= 9.99D-18 BMatP= 9.99D-18
 IDIUse=1 WtCom= 1.00D+00 WtEn= 0.00D+00
 Coeff-Com:  0.100D+01
 Coeff:      0.100D+01
 Gap=     0.411 Goal=   None    Shift=    0.000
 RMSDP=2.24D-11 MaxDP=5.61D-10              OVMax= 1.05D-09

 SCF Done:  E(RLC-wPBE) =  -151.516672647     A.U. after    1 cycles
             Convg  =    0.2236D-10             -V/T =  2.0065
 KE= 1.505307688218D+02 PE=-4.315810594215D+02 EE= 9.286686555707D+01
 Leave Link  502 at Tue May 12 09:27:52 2020, MaxMem= 1073741824 cpu:       6.3
 (Enter /home/matheus/.gaussian/g09/l122.exe)
 Restoring MOs from calculation   5 to rwf.
 Counterpoise: doing MCBS calculation for fragment   2
 Leave Link  122 at Tue May 12 09:27:52 2020, MaxMem= 1073741824 cpu:       0.0
 (Enter /home/matheus/.gaussian/g09/l301.exe)
 Basis read from rwf:  (5D, 7F)
 No pseudopotential information found on rwf file.
 There are    25 symmetry adapted basis functions of A1  symmetry.
 There are     6 symmetry adapted basis functions of A2  symmetry.
 There are    14 symmetry adapted basis functions of B1  symmetry.
 There are    14 symmetry adapted basis functions of B2  symmetry.
 Integral buffers will be    131072 words long.
 Raffenetti 2 integral format.
 Two-electron integral symmetry is turned on.
    59 basis functions,   217 primitive gaussians,    69 cartesian basis functions
    18 alpha electrons       18 beta electrons
       nuclear repulsion energy         0.0000000000 Hartrees.
 IExCor=32609 DFT=T Ex+Corr=LC-wPBE ExCW=0 ScaHFX=  1.000000
 ScaDFX=  1.000000  0.000000  1.000000  1.000000 ScalE2=  1.000000  1.000000
 IRadAn=      5 IRanWt=     -1 IRanGd=            0 ICorTp=0
  HFx wShort=  0.000000 wLong=  0.400000 cFull=  0.000000 cShort=  0.000000 cLong=  1.000000
  DFx wShort=  0.000000 wLong=  0.400000 cFull=  0.000000 cShort=  0.000000 cLong=  1.000000
 NAtoms=    5 NActive=    1 NUniq=    1 SFac= 1.00D+00 NAtFMM=   60 NAOKFM=F Big=F
 No density basis found on file   718.
 Leave Link  301 at Tue May 12 09:27:52 2020, MaxMem= 1073741824 cpu:       0.2
 (Enter /home/matheus/.gaussian/g09/l302.exe)
 NPDir=0 NMtPBC=     1 NCelOv=     1 NCel=       1 NClECP=     1 NCelD=      1
         NCelK=      1 NCelE2=     1 NClLst=     1 CellRange=     0.0.
 One-electron integrals computed using PRISM.
 One-electron integral symmetry used in STVInt
 NBasis=    59 RedAO= T  NBF=    25     6    14    14
 NBsUse=    59 1.00D-06 NBFU=    25     6    14    14
 Precomputing XC quadrature grid using
 IXCGrd= 2 IRadAn=           5 IRanWt=          -1 IRanGd=           0 AccXCQ= 0.00D+00.
 NRdTot=      81 NPtTot=       30352 NUsed=       30981 NTot=       31013
 NSgBfM=    69    69    69    69    69 NAtAll=     1     1.
 Leave Link  302 at Tue May 12 09:27:52 2020, MaxMem= 1073741824 cpu:       0.7
 (Enter /home/matheus/.gaussian/g09/l303.exe)
 DipDrv:  MaxL=1.
 Leave Link  303 at Tue May 12 09:27:53 2020, MaxMem= 1073741824 cpu:       0.1
 (Enter /home/matheus/.gaussian/g09/l401.exe)
 Initial guess read from the read-write file.
 Guess basis will be translated and rotated to current coordinates.
 Initial guess orbital symmetries:
       Occupied  (A1) (A1) (B2) (B1) (A1) (A1) (B2) (B1) (A1) (B2)
                 (B1) (A2) (A1) (A1) (A1) (B1) (A1) (B2)
       Virtual   (A1) (B2) (B1) (A1) (B2) (A2) (B1) (A1) (A1) (B1)
                 (B2) (A1) (A1) (B1) (A2) (B2) (A1) (A1) (B2) (A1)
                 (B1) (A2) (B1) (B2) (A1) (B1) (B2) (A1) (B2) (A2)
                 (B1) (A1) (A1) (A1) (B2) (B1) (A2) (B1) (A1) (B2)
                 (A1)
 The electronic state of the initial guess is 1-A1.
 Generating alternative initial guess.
 Harris functional with IExCor=32609 diagonalized for initial guess.
 ExpMin= 4.00D-02 ExpMax= 1.17D+07 ExpMxC= 1.33D+04 IAcc=3 IRadAn=         5 AccDes= 0.00D+00
 HarFok:  IExCor=32609 AccDes= 0.00D+00 IRadAn=         5 IDoV= 1
 ScaDFX=  1.000000  1.000000  1.000000  1.000000
 FoFCou: FMM=F IPFlag=           0 FMFlag=      100000 FMFlg1=           0
         NFxFlg=           0 DoJE=T BraDBF=F KetDBF=T FulRan=T
         Omega=  0.000000  0.000000  1.000000  0.000000  0.000000 ICntrl=     500 IOpCl=  0
         NMat0=    1 NMatS0=    1 NMatT0=    0 NMatD0=    1 NMtDS0=    0 NMtDT0=    0
         I1Cent=           4 NGrid=           0.
 Petite list used in FoFCou.
 Harris En= -2753.24576836237    
 Leave Link  401 at Tue May 12 09:27:53 2020, MaxMem= 1073741824 cpu:       0.9
 (Enter /home/matheus/.gaussian/g09/l502.exe)
 Closed shell SCF:
 Requested convergence on RMS density matrix=1.00D-08 within 128 cycles.
 Requested convergence on MAX density matrix=1.00D-06.
 Requested convergence on             energy=1.00D-06.
 No special actions if energy rises.
 Using DIIS extrapolation, IDIIS=  1040.
 Integral symmetry usage will be decided dynamically.
        30923 words used for storage of precomputed grid.
 IEnd=       64522 IEndB=       64522 NGot=  1073741824 MDV=  1073698773
 LenX=  1073698773 LenY=  1073693571
 Fock matrices will be formed incrementally for  20 cycles.

 Cycle   1  Pass 1  IDiag  1:
 FoFJK:  IHMeth= 1 ICntrl=     0 DoSepK=T KAlg= 1 I1Cent= 0 FoldK=F
 FoFCou: FMM=F IPFlag=           0 FMFlag=      100000 FMFlg1=           0
         NFxFlg=           0 DoJE=T BraDBF=F KetDBF=F FulRan=T
         Omega=  0.000000  0.000000  1.000000  0.000000  0.000000 ICntrl=     500 IOpCl=  0
         NMat0=    1 NMatS0=    1 NMatT0=    0 NMatD0=    1 NMtDS0=    0 NMtDT0=    0
         I1Cent=           0 NGrid=           0.
 Petite list used in FoFCou.
 E= -2753.43563276534    
 DIIS: error= 1.95D-13 at cycle   1 NSaved=   1.
 NSaved= 1 IEnMin= 1 EnMin= -2753.43563276534     IErMin= 1 ErrMin= 1.95D-13
 ErrMax= 1.95D-13 EMaxC= 1.00D-01 BMatC= 1.05D-24 BMatP= 1.05D-24
 IDIUse=1 WtCom= 1.00D+00 WtEn= 0.00D+00
 Coeff-Com:  0.100D+01
 Coeff:      0.100D+01
 Gap=     0.599 Goal=   None    Shift=    0.000
 RMSDP=8.78D-15 MaxDP=2.23D-13              OVMax= 2.12D-14

 SCF Done:  E(RLC-wPBE) =  -2753.43563277     A.U. after    1 cycles
             Convg  =    0.8784D-14             -V/T =  2.0014
 KE= 2.749535160915D+03 PE=-6.578948648680D+03 EE= 1.075977855000D+03
 Leave Link  502 at Tue May 12 09:27:54 2020, MaxMem= 1073741824 cpu:      11.1
 (Enter /home/matheus/.gaussian/g09/l122.exe)
 Restoring MOs from calculation   1 to rwf.
 Counterpoise: corrected energy =   -2904.952434027662
 Counterpoise: BSSE energy =       0.000022105437
 Leave Link  122 at Tue May 12 09:27:54 2020, MaxMem= 1073741824 cpu:       0.0
 (Enter /home/matheus/.gaussian/g09/l108.exe)
 Scan completed.

 Summary of the potential surface scan:
   N      R1          SCF    
 ----  ---------  -----------
    1     3.0000  -2753.43563
    2     3.1000  -2753.43563
    3     3.2000  -2753.43563
    4     3.3000  -2753.43563
    5     3.4000  -2753.43563
    6     3.5000  -2753.43563
    7     3.6000  -2753.43563
    8     3.7000  -2753.43563
    9     3.8000  -2753.43563
   10     3.9000  -2753.43563
   11     4.0000  -2753.43563
   12     4.1000  -2753.43563
   13     4.2000  -2753.43563
   14     4.3000  -2753.43563
   15     4.4000  -2753.43563
   16     4.5000  -2753.43563
   17     4.6000  -2753.43563
   18     4.7000  -2753.43563
   19     4.8000  -2753.43563
   20     4.9000  -2753.43563
   21     5.0000  -2753.43563
 ----  ---------  -----------
  
 Leave Link  108 at Tue May 12 09:27:54 2020, MaxMem= 1073741824 cpu:       0.0
 (Enter /home/matheus/.gaussian/g09/l9999.exe)
 1\1\GINC-REDGIANT\Scan\RLC-wPBE\Aug-CC-pVTZ\H2Kr1O2\MATHEUS\12-May-202
 0\1\\#p lc-wpbe/aug-cc-PVTz int=ultrafine counterpoise=2 Scan\\TCC\\0,
 1\O,0,0.,0.,0.725\O,0,0.,0.,-0.725\H,0,0.,0.9187205947,1.0235104166\H,
 0,0.,0.9187205947,-1.0235104166\Kr,0,0.,R1,0.\\R1=3.,s,20,0.1\\Version
 =EM64L-G09RevC.01\State=1-A1\HF=-2753.4356328,-2753.4356328,-2753.4356
 328,-2753.4356328,-2753.4356328,-2753.4356328,-2753.4356328,-2753.4356
 328,-2753.4356328,-2753.4356328,-2753.4356328,-2753.4356328,-2753.4356
 328,-2753.4356328,-2753.4356328,-2753.4356328,-2753.4356328,-2753.4356
 328,-2753.4356328,-2753.4356328,-2753.4356328\RMSD=1.446e-09,5.256e-11
 ,1.084e-11,2.501e-12,6.441e-13,1.596e-13,4.629e-14,1.955e-14,8.100e-15
 ,4.714e-15,1.421e-14,1.010e-14,1.017e-14,9.461e-15,7.426e-15,8.916e-15
 ,5.606e-15,6.574e-15,7.495e-15,3.899e-15,8.784e-15\PG=C02V [C2(Kr1),SG
 V(H2O2)]\\@


 A SOLDIER'S LIFE IS A LIFE OF HONOR, BUT A DOG WOULD NOT LEAD IT.
 -- PRINCE RUPERT, FOUNDER OF THE HUDSON'S BAY COMPANY
 Job cpu time:  0 days  1 hours 51 minutes  4.9 seconds.
 File lengths (MBytes):  RWF=     33 Int=      0 D2E=      0 Chk=      8 Scr=      1
 Normal termination of Gaussian 09 at Tue May 12 09:27:54 2020.
