 Entering Gaussian System, Link 0=g09
 Input=/home/matheus/.tcc/Inputs/Inputs-lc-wpbe-default/H2O2-Kr_3.com
 Output=/home/matheus/.tcc/Logs/Logs-lc-wpbe-default/H2O2-Kr_3.log
 Initial command:
 /home/matheus/.gaussian/g09/l1.exe /home/matheus/.gaussian/g09/scratch/Gau-20780.inp -scrdir=/home/matheus/.gaussian/g09/scratch/
 Entering Link 1 = /home/matheus/.gaussian/g09/l1.exe PID=     20784.
  
 Copyright (c) 1988,1990,1992,1993,1995,1998,2003,2009,2011,
            Gaussian, Inc.  All Rights Reserved.
  
 This is part of the Gaussian(R) 09 program.  It is based on
 the Gaussian(R) 03 system (copyright 2003, Gaussian, Inc.),
 the Gaussian(R) 98 system (copyright 1998, Gaussian, Inc.),
 the Gaussian(R) 94 system (copyright 1995, Gaussian, Inc.),
 the Gaussian 92(TM) system (copyright 1992, Gaussian, Inc.),
 the Gaussian 90(TM) system (copyright 1990, Gaussian, Inc.),
 the Gaussian 88(TM) system (copyright 1988, Gaussian, Inc.),
 the Gaussian 86(TM) system (copyright 1986, Carnegie Mellon
 University), and the Gaussian 82(TM) system (copyright 1983,
 Carnegie Mellon University). Gaussian is a federally registered
 trademark of Gaussian, Inc.
  
 This software contains proprietary and confidential information,
 including trade secrets, belonging to Gaussian, Inc.
  
 This software is provided under written license and may be
 used, copied, transmitted, or stored only in accord with that
 written license.
  
 The following legend is applicable only to US Government
 contracts under FAR:
  
                    RESTRICTED RIGHTS LEGEND
  
 Use, reproduction and disclosure by the US Government is
 subject to restrictions as set forth in subparagraphs (a)
 and (c) of the Commercial Computer Software - Restricted
 Rights clause in FAR 52.227-19.
  
 Gaussian, Inc.
 340 Quinnipiac St., Bldg. 40, Wallingford CT 06492
  
  
 ---------------------------------------------------------------
 Warning -- This program may not be used in any manner that
 competes with the business of Gaussian, Inc. or will provide
 assistance to any competitor of Gaussian, Inc.  The licensee
 of this program is prohibited from giving any competitor of
 Gaussian, Inc. access to this program.  By using this program,
 the user acknowledges that Gaussian, Inc. is engaged in the
 business of creating and licensing software in the field of
 computational chemistry and represents and warrants to the
 licensee that it is not a competitor of Gaussian, Inc. and that
 it will not use this program in any manner prohibited above.
 ---------------------------------------------------------------
  

 Cite this work as:
 Gaussian 09, Revision C.01,
 M. J. Frisch, G. W. Trucks, H. B. Schlegel, G. E. Scuseria, 
 M. A. Robb, J. R. Cheeseman, G. Scalmani, V. Barone, B. Mennucci, 
 G. A. Petersson, H. Nakatsuji, M. Caricato, X. Li, H. P. Hratchian, 
 A. F. Izmaylov, J. Bloino, G. Zheng, J. L. Sonnenberg, M. Hada, 
 M. Ehara, K. Toyota, R. Fukuda, J. Hasegawa, M. Ishida, T. Nakajima, 
 Y. Honda, O. Kitao, H. Nakai, T. Vreven, J. A. Montgomery, Jr., 
 J. E. Peralta, F. Ogliaro, M. Bearpark, J. J. Heyd, E. Brothers, 
 K. N. Kudin, V. N. Staroverov, T. Keith, R. Kobayashi, J. Normand, 
 K. Raghavachari, A. Rendell, J. C. Burant, S. S. Iyengar, J. Tomasi, 
 M. Cossi, N. Rega, J. M. Millam, M. Klene, J. E. Knox, J. B. Cross, 
 V. Bakken, C. Adamo, J. Jaramillo, R. Gomperts, R. E. Stratmann, 
 O. Yazyev, A. J. Austin, R. Cammi, C. Pomelli, J. W. Ochterski, 
 R. L. Martin, K. Morokuma, V. G. Zakrzewski, G. A. Voth, 
 P. Salvador, J. J. Dannenberg, S. Dapprich, A. D. Daniels, 
 O. Farkas, J. B. Foresman, J. V. Ortiz, J. Cioslowski, 
 and D. J. Fox, Gaussian, Inc., Wallingford CT, 2010.
 
 ******************************************
 Gaussian 09:  EM64L-G09RevC.01 23-Sep-2011
                12-May-2020 
 ******************************************
 %mem=8GB
 %nproc=8
 Will use up to    8 processors via shared memory.
 --------------------------------------------------------
 #p lc-wpbe/aug-cc-PVTz int=ultrafine counterpoise=2 Scan
 --------------------------------------------------------
 1/38=1,60=1,62=2/1,8;
 2/12=2,17=6,18=5,29=3,40=1/2;
 1/38=1,53=5172,62=2/22;
 3/5=16,6=1,7=10,11=2,16=1,25=1,30=1,74=-41,75=-5/1,2,3;
 4//1;
 5/5=2,38=5/2;
 6/7=2,8=2,9=2,10=2,18=1,28=1/1;
 1/53=4052,62=2,63=1/22;
 3/5=7,6=11,7=10,11=2,16=1,25=1,30=1,74=-41,75=-5,82=7/1,2,3;
 4//1;
 5/5=2,38=5/2;
 6/7=2,8=2,9=2,10=2,18=1,28=1/1;
 1/53=3042,62=2,63=2/22;
 3/5=7,6=11,7=10,11=2,16=1,25=1,30=1,74=-41,75=-5,82=7/1,2,3;
 4//1;
 5/5=2,38=5/2;
 6/7=2,8=2,9=2,10=2,18=1,28=1/1;
 1/53=2032,62=2,63=3/22;
 3/5=7,6=11,7=10,11=2,16=1,25=1,30=1,74=-41,75=-5,82=7/1,2,3;
 4//1;
 5/5=2,38=5/2;
 6/7=2,8=2,9=2,10=2,18=1,28=1/1;
 1/53=1022,62=2,63=4/22;
 3/5=7,6=11,7=10,11=2,16=1,25=1,30=1,74=-41,75=-5,82=7/1,2,3;
 4//1;
 5/5=2,38=5/2;
 6/7=2,8=2,9=2,10=2,18=1,28=1/1;
 1/53=5014,62=2,63=5/22;
 1/60=1,62=2/8(1);
 99/9=1/99;
 2/29=3/2;
 1/53=5173,62=2/22;
 3/5=7,6=11,7=10,11=2,16=1,25=1,30=1,74=-41,75=-5,82=7/1,2,3;
 4/5=5,16=3/1;
 5/5=2,38=5/2;
 1/53=4053,62=2,63=1/22;
 3/5=7,6=11,7=10,11=2,16=1,25=1,30=1,74=-41,75=-5,82=7/1,2,3;
 4/5=5,16=3/1;
 5/5=2,38=5/2;
 1/53=3043,62=2,63=2/22;
 3/5=7,6=11,7=10,11=2,16=1,25=1,30=1,74=-41,75=-5,82=7/1,2,3;
 4/5=5,16=3/1;
 5/5=2,38=5/2;
 1/53=2033,62=2,63=3/22;
 3/5=7,6=11,7=10,11=2,16=1,25=1,30=1,74=-41,75=-5,82=7/1,2,3;
 4/5=5,16=3/1;
 5/5=2,38=5/2;
 1/53=1024,62=2,63=4/22;
 3/5=7,6=11,7=10,11=2,16=1,25=1,30=1,74=-41,75=-5,82=7/1,2,3;
 4/5=5,16=3/1;
 5/5=2,38=5/2;
 1/53=5014,62=2,63=5/22;
 1/60=1,62=2/8(-22);
 99/9=1/99;
 Leave Link    1 at Tue May 12 10:15:27 2020, MaxMem= 1073741824 cpu:       0.1
 (Enter /home/matheus/.gaussian/g09/l101.exe)
 ---
 TCC
 ---
 Charge =  0 Multiplicity = 1 in supermolecule
 Charge =  0 Multiplicity = 1 in fragment  1.
 Charge =  0 Multiplicity = 1 in fragment  2.
 Symbolic Z-Matrix:
 O(Fragment=1)         0.        0.        0.725 
 O(Fragment=1)         0.        0.       -0.725 
 H(Fragment=1)         0.45936   0.79564   1.02351 
 H(Fragment=1)         0.        0.91872  -1.02351 
 Kr(Fragment=2)        0.       R1        0. 
       Variables:
  R1                    3.     Scan 20    0.1    
 
 NAtoms=      5 NQM=        0 NQMF=       0 NMMI=      5 NMMIF=      0
                NMic=       0 NMicF=      0.
                    Isotopes and Nuclear Properties:
 (Nuclear quadrupole moments (NQMom) in fm**2, nuclear magnetic moments (NMagM)
  in nuclear magnetons)

  Atom         1           2           3           4           5
 IAtWgt=          16          16           1           1          84
 AtmWgt=  15.9949146  15.9949146   1.0078250   1.0078250  83.9115064
 NucSpn=           0           0           1           1           0
 AtZEff=   0.0000000   0.0000000   0.0000000   0.0000000   0.0000000
 NQMom=    0.0000000   0.0000000   0.0000000   0.0000000   0.0000000
 NMagM=    0.0000000   0.0000000   2.7928460   2.7928460   0.0000000
 Leave Link  101 at Tue May 12 10:15:27 2020, MaxMem= 1073741824 cpu:       0.3
 (Enter /home/matheus/.gaussian/g09/l108.exe)
 Scan the potential surface.
 Variable   Value     No. Steps Step-Size
 -------- ----------- --------- ---------
     1       3.000000      20      0.1000
 A total of     21 points will be computed.
 Leave Link  108 at Tue May 12 10:15:27 2020, MaxMem= 1073741824 cpu:       0.0
 (Enter /home/matheus/.gaussian/g09/l202.exe)
 ---------------------------------------------------------------------------------------------------
                            Z-MATRIX (ANGSTROMS AND DEGREES)
   CD    Cent   Atom    N1       Length/X        N2       Alpha/Y        N3        Beta/Z          J
 ---------------------------------------------------------------------------------------------------
      1      1  O        0   0.000000          0.000000          0.725000
      2      2  O        0   0.000000          0.000000         -0.725000
      3      3  H        0   0.459360          0.795635          1.023510
      4      4  H        0   0.000000          0.918721         -1.023510
      5      5  Kr       0   0.000000          3.000000          0.000000
 ---------------------------------------------------------------------------------------------------
                         Z-Matrix orientation:                         
 ---------------------------------------------------------------------
 Center     Atomic      Atomic             Coordinates (Angstroms)
 Number     Number       Type             X           Y           Z
 ---------------------------------------------------------------------
      1          8           0        0.000000    0.000000    0.725000
      2          8           0        0.000000    0.000000   -0.725000
      3          1           0        0.459360    0.795635    1.023510
      4          1           0        0.000000    0.918721   -1.023510
      5         36           0        0.000000    3.000000    0.000000
 ---------------------------------------------------------------------
                    Distance matrix (angstroms):
                    1          2          3          4          5
     1  O    0.000000
     2  O    1.450000   0.000000
     3  H    0.966000   1.975180   0.000000
     4  H    1.975180   0.966000   2.101537   0.000000
     5  Kr   3.086361   3.086361   2.473420   2.319331   0.000000
 Stoichiometry    H2KrO2
 Framework group  C1[X(H2KrO2)]
 Deg. of freedom     9
 Full point group                 C1      NOp   1
 Largest Abelian subgroup         C1      NOp   1
 Largest concise Abelian subgroup C1      NOp   1
                         Standard orientation:                         
 ---------------------------------------------------------------------
 Center     Atomic      Atomic             Coordinates (Angstroms)
 Number     Number       Type             X           Y           Z
 ---------------------------------------------------------------------
      1          8           0        2.032679   -0.720517   -0.052579
      2          8           0        2.030654    0.727985    0.013298
      3          1           0        1.240025   -1.040895    0.397102
      4          1           0        1.111532    1.024673    0.031898
      5         36           0       -0.968284   -0.001209   -0.003188
 ---------------------------------------------------------------------
 Rotational constants (GHZ):     26.4110984      2.3830252      2.1895357
 Leave Link  202 at Tue May 12 10:15:27 2020, MaxMem= 1073741824 cpu:       0.0
 (Enter /home/matheus/.gaussian/g09/l122.exe)
 Leave Link  122 at Tue May 12 10:15:27 2020, MaxMem= 1073741824 cpu:       0.0
 (Enter /home/matheus/.gaussian/g09/l301.exe)
 Standard basis: Aug-CC-pVTZ (5D, 7F)
 Ernie: Thresh=  0.10000D-02 Tol=  0.10000D-05 Strict=F.
 Ernie:  38 primitive shells out of 205 were deleted.
 There are   197 symmetry adapted basis functions of A   symmetry.
 Integral buffers will be    131072 words long.
 Raffenetti 2 integral format.
 Two-electron integral symmetry is turned on.
   197 basis functions,   415 primitive gaussians,   229 cartesian basis functions
    27 alpha electrons       27 beta electrons
       nuclear repulsion energy       151.3348661682 Hartrees.
 IExCor=32609 DFT=T Ex+Corr=LC-wPBE ExCW=0 ScaHFX=  1.000000
 ScaDFX=  1.000000  0.000000  1.000000  1.000000 ScalE2=  1.000000  1.000000
 IRadAn=      5 IRanWt=     -1 IRanGd=            0 ICorTp=0
  HFx wShort=  0.000000 wLong=  0.400000 cFull=  0.000000 cShort=  0.000000 cLong=  1.000000
  DFx wShort=  0.000000 wLong=  0.400000 cFull=  0.000000 cShort=  0.000000 cLong=  1.000000
 NAtoms=    5 NActive=    5 NUniq=    5 SFac= 1.00D+00 NAtFMM=   60 NAOKFM=F Big=F
 Leave Link  301 at Tue May 12 10:15:27 2020, MaxMem= 1073741824 cpu:       0.2
 (Enter /home/matheus/.gaussian/g09/l302.exe)
 NPDir=0 NMtPBC=     1 NCelOv=     1 NCel=       1 NClECP=     1 NCelD=      1
         NCelK=      1 NCelE2=     1 NClLst=     1 CellRange=     0.0.
 One-electron integrals computed using PRISM.
 NBasis=   197 RedAO= T  NBF=   197
 NBsUse=   197 1.00D-06 NBFU=   197
 Precomputing XC quadrature grid using
 IXCGrd= 2 IRadAn=           5 IRanWt=          -1 IRanGd=           0 AccXCQ= 0.00D+00.
 NRdTot=     427 NPtTot=      123512 NUsed=      126579 NTot=      126611
 NSgBfM=   229   229   229   229   229 NAtAll=     5     5.
 Leave Link  302 at Tue May 12 10:15:27 2020, MaxMem= 1073741824 cpu:       0.9
 (Enter /home/matheus/.gaussian/g09/l303.exe)
 DipDrv:  MaxL=1.
 Leave Link  303 at Tue May 12 10:15:27 2020, MaxMem= 1073741824 cpu:       0.2
 (Enter /home/matheus/.gaussian/g09/l401.exe)
 Harris functional with IExCor=32609 diagonalized for initial guess.
 ExpMin= 2.53D-02 ExpMax= 1.17D+07 ExpMxC= 1.33D+04 IAcc=3 IRadAn=         5 AccDes= 0.00D+00
 HarFok:  IExCor=32609 AccDes= 0.00D+00 IRadAn=         5 IDoV= 1
 ScaDFX=  1.000000  1.000000  1.000000  1.000000
 FoFCou: FMM=F IPFlag=           0 FMFlag=      100000 FMFlg1=           0
         NFxFlg=           0 DoJE=T BraDBF=F KetDBF=T FulRan=T
         Omega=  0.000000  0.000000  1.000000  0.000000  0.000000 ICntrl=     500 IOpCl=  0
         NMat0=    1 NMatS0=    1 NMatT0=    0 NMatD0=    1 NMtDS0=    0 NMtDT0=    0
         I1Cent=           4 NGrid=           0.
 Petite list used in FoFCou.
 Harris En= -2904.73199376591    
 Initial guess orbital symmetries:
       Occupied  (A) (A) (A) (A) (A) (A) (A) (A) (A) (A) (A) (A)
                 (A) (A) (A) (A) (A) (A) (A) (A) (A) (A) (A) (A)
                 (A) (A) (A)
       Virtual   (A) (A) (A) (A) (A) (A) (A) (A) (A) (A) (A) (A)
                 (A) (A) (A) (A) (A) (A) (A) (A) (A) (A) (A) (A)
                 (A) (A) (A) (A) (A) (A) (A) (A) (A) (A) (A) (A)
                 (A) (A) (A) (A) (A) (A) (A) (A) (A) (A) (A) (A)
                 (A) (A) (A) (A) (A) (A) (A) (A) (A) (A) (A) (A)
                 (A) (A) (A) (A) (A) (A) (A) (A) (A) (A) (A) (A)
                 (A) (A) (A) (A) (A) (A) (A) (A) (A) (A) (A) (A)
                 (A) (A) (A) (A) (A) (A) (A) (A) (A) (A) (A) (A)
                 (A) (A) (A) (A) (A) (A) (A) (A) (A) (A) (A) (A)
                 (A) (A) (A) (A) (A) (A) (A) (A) (A) (A) (A) (A)
                 (A) (A) (A) (A) (A) (A) (A) (A) (A) (A) (A) (A)
                 (A) (A) (A) (A) (A) (A) (A) (A) (A) (A) (A) (A)
                 (A) (A) (A) (A) (A) (A) (A) (A) (A) (A) (A) (A)
                 (A) (A) (A) (A) (A) (A) (A) (A) (A) (A) (A) (A)
                 (A) (A)
 The electronic state of the initial guess is 1-A.
 Leave Link  401 at Tue May 12 10:15:28 2020, MaxMem= 1073741824 cpu:       4.0
 (Enter /home/matheus/.gaussian/g09/l502.exe)
 Closed shell SCF:
 Requested convergence on RMS density matrix=1.00D-08 within 128 cycles.
 Requested convergence on MAX density matrix=1.00D-06.
 Requested convergence on             energy=1.00D-06.
 No special actions if energy rises.
 Using DIIS extrapolation, IDIIS=  1040.
 Integral symmetry usage will be decided dynamically.
       126521 words used for storage of precomputed grid.
 IEnd=      305468 IEndB=      305468 NGot=  1073741824 MDV=  1073505667
 LenX=  1073505667 LenY=  1073452785
 Fock matrices will be formed incrementally for  20 cycles.

 Cycle   1  Pass 1  IDiag  1:
 FoFJK:  IHMeth= 1 ICntrl=     0 DoSepK=T KAlg= 1 I1Cent= 0 FoldK=F
 FoFCou: FMM=F IPFlag=           0 FMFlag=      100000 FMFlg1=           0
         NFxFlg=           0 DoJE=T BraDBF=F KetDBF=F FulRan=T
         Omega=  0.000000  0.000000  1.000000  0.000000  0.000000 ICntrl=     500 IOpCl=  0
         NMat0=    1 NMatS0=    1 NMatT0=    0 NMatD0=    1 NMtDS0=    0 NMtDT0=    0
         I1Cent=           0 NGrid=           0.
 Symmetry not used in FoFCou.
 E= -2904.87128023569    
 DIIS: error= 3.11D-02 at cycle   1 NSaved=   1.
 NSaved= 1 IEnMin= 1 EnMin= -2904.87128023569     IErMin= 1 ErrMin= 3.11D-02
 ErrMax= 3.11D-02 EMaxC= 1.00D-01 BMatC= 2.70D-01 BMatP= 2.70D-01
 IDIUse=3 WtCom= 6.89D-01 WtEn= 3.11D-01
 Coeff-Com:  0.100D+01
 Coeff-En:   0.100D+01
 Coeff:      0.100D+01
 Gap=     0.482 Goal=   None    Shift=    0.000
 GapD=    0.482 DampG=2.000 DampE=0.500 DampFc=1.0000 IDamp=-1.
 RMSDP=2.37D-03 MaxDP=1.53D-01              OVMax= 7.41D-02

 Cycle   2  Pass 1  IDiag  1:
 RMSU=  1.65D-03    CP:  1.02D+00
 FoFJK:  IHMeth= 1 ICntrl=     0 DoSepK=T KAlg= 1 I1Cent= 0 FoldK=F
 E= -2904.91596253264     Delta-E=       -0.044682296947 Rises=F Damp=F
 DIIS: error= 1.16D-02 at cycle   2 NSaved=   2.
 NSaved= 2 IEnMin= 2 EnMin= -2904.91596253264     IErMin= 2 ErrMin= 1.16D-02
 ErrMax= 1.16D-02 EMaxC= 1.00D-01 BMatC= 8.52D-02 BMatP= 2.70D-01
 IDIUse=3 WtCom= 8.84D-01 WtEn= 1.16D-01
 Coeff-Com:  0.353D+00 0.647D+00
 Coeff-En:   0.215D+00 0.785D+00
 Coeff:      0.337D+00 0.663D+00
 Gap=     0.436 Goal=   None    Shift=    0.000
 RMSDP=9.99D-04 MaxDP=5.25D-02 DE=-4.47D-02 OVMax= 3.56D-02

 Cycle   3  Pass 1  IDiag  1:
 RMSU=  3.31D-04    CP:  1.01D+00  6.32D-01
 FoFJK:  IHMeth= 1 ICntrl=     0 DoSepK=T KAlg= 1 I1Cent= 0 FoldK=F
 E= -2904.94726330669     Delta-E=       -0.031300774051 Rises=F Damp=F
 DIIS: error= 2.22D-03 at cycle   3 NSaved=   3.
 NSaved= 3 IEnMin= 3 EnMin= -2904.94726330669     IErMin= 3 ErrMin= 2.22D-03
 ErrMax= 2.22D-03 EMaxC= 1.00D-01 BMatC= 2.06D-03 BMatP= 8.52D-02
 IDIUse=3 WtCom= 9.78D-01 WtEn= 2.22D-02
 Coeff-Com:  0.703D-01 0.202D+00 0.728D+00
 Coeff-En:   0.000D+00 0.000D+00 0.100D+01
 Coeff:      0.688D-01 0.197D+00 0.734D+00
 Gap=     0.415 Goal=   None    Shift=    0.000
 RMSDP=1.34D-04 MaxDP=3.44D-03 DE=-3.13D-02 OVMax= 8.67D-03

 Cycle   4  Pass 1  IDiag  1:
 RMSU=  6.71D-05    CP:  1.01D+00  6.60D-01  8.55D-01
 FoFJK:  IHMeth= 1 ICntrl=     0 DoSepK=T KAlg= 1 I1Cent= 0 FoldK=F
 E= -2904.94839304285     Delta-E=       -0.001129736160 Rises=F Damp=F
 DIIS: error= 5.85D-04 at cycle   4 NSaved=   4.
 NSaved= 4 IEnMin= 4 EnMin= -2904.94839304285     IErMin= 4 ErrMin= 5.85D-04
 ErrMax= 5.85D-04 EMaxC= 1.00D-01 BMatC= 1.54D-04 BMatP= 2.06D-03
 IDIUse=3 WtCom= 9.94D-01 WtEn= 5.85D-03
 Coeff-Com: -0.248D-02 0.244D-01 0.270D+00 0.708D+00
 Coeff-En:   0.000D+00 0.000D+00 0.000D+00 0.100D+01
 Coeff:     -0.247D-02 0.243D-01 0.268D+00 0.710D+00
 Gap=     0.421 Goal=   None    Shift=    0.000
 RMSDP=3.87D-05 MaxDP=1.82D-03 DE=-1.13D-03 OVMax= 2.08D-03

 Cycle   5  Pass 1  IDiag  1:
 RMSU=  1.20D-05    CP:  1.01D+00  6.63D-01  9.17D-01  8.12D-01
 FoFJK:  IHMeth= 1 ICntrl=     0 DoSepK=T KAlg= 1 I1Cent= 0 FoldK=F
 E= -2904.94847994906     Delta-E=       -0.000086906213 Rises=F Damp=F
 DIIS: error= 6.75D-05 at cycle   5 NSaved=   5.
 NSaved= 5 IEnMin= 5 EnMin= -2904.94847994906     IErMin= 5 ErrMin= 6.75D-05
 ErrMax= 6.75D-05 EMaxC= 1.00D-01 BMatC= 1.42D-06 BMatP= 1.54D-04
 IDIUse=1 WtCom= 1.00D+00 WtEn= 0.00D+00
 Coeff-Com: -0.165D-02-0.145D-02 0.163D-01 0.970D-01 0.890D+00
 Coeff:     -0.165D-02-0.145D-02 0.163D-01 0.970D-01 0.890D+00
 Gap=     0.421 Goal=   None    Shift=    0.000
 RMSDP=5.99D-06 MaxDP=1.94D-04 DE=-8.69D-05 OVMax= 4.04D-04

 Cycle   6  Pass 1  IDiag  1:
 RMSU=  3.36D-06    CP:  1.01D+00  6.63D-01  9.17D-01  8.45D-01  1.11D+00
 FoFJK:  IHMeth= 1 ICntrl=     0 DoSepK=T KAlg= 1 I1Cent= 0 FoldK=F
 E= -2904.94848104861     Delta-E=       -0.000001099548 Rises=F Damp=F
 DIIS: error= 3.49D-05 at cycle   6 NSaved=   6.
 NSaved= 6 IEnMin= 6 EnMin= -2904.94848104861     IErMin= 6 ErrMin= 3.49D-05
 ErrMax= 3.49D-05 EMaxC= 1.00D-01 BMatC= 4.22D-07 BMatP= 1.42D-06
 IDIUse=1 WtCom= 1.00D+00 WtEn= 0.00D+00
 Coeff-Com: -0.482D-03-0.265D-02-0.154D-01-0.170D-01 0.345D+00 0.691D+00
 Coeff:     -0.482D-03-0.265D-02-0.154D-01-0.170D-01 0.345D+00 0.691D+00
 Gap=     0.421 Goal=   None    Shift=    0.000
 RMSDP=2.53D-06 MaxDP=9.54D-05 DE=-1.10D-06 OVMax= 2.11D-04

 Cycle   7  Pass 1  IDiag  1:
 RMSU=  1.42D-06    CP:  1.01D+00  6.63D-01  9.17D-01  8.53D-01  1.18D+00
                    CP:  9.73D-01
 FoFJK:  IHMeth= 1 ICntrl=     0 DoSepK=T KAlg= 1 I1Cent= 0 FoldK=F
 E= -2904.94848138774     Delta-E=       -0.000000339131 Rises=F Damp=F
 DIIS: error= 1.88D-05 at cycle   7 NSaved=   7.
 NSaved= 7 IEnMin= 7 EnMin= -2904.94848138774     IErMin= 7 ErrMin= 1.88D-05
 ErrMax= 1.88D-05 EMaxC= 1.00D-01 BMatC= 9.80D-08 BMatP= 4.22D-07
 IDIUse=1 WtCom= 1.00D+00 WtEn= 0.00D+00
 Coeff-Com:  0.222D-05-0.115D-02-0.105D-01-0.242D-01 0.195D-01 0.353D+00
 Coeff-Com:  0.663D+00
 Coeff:      0.222D-05-0.115D-02-0.105D-01-0.242D-01 0.195D-01 0.353D+00
 Coeff:      0.663D+00
 Gap=     0.421 Goal=   None    Shift=    0.000
 RMSDP=9.50D-07 MaxDP=4.21D-05 DE=-3.39D-07 OVMax= 7.11D-05

 Cycle   8  Pass 1  IDiag  1:
 RMSU=  3.60D-07    CP:  1.01D+00  6.63D-01  9.17D-01  8.54D-01  1.21D+00
                    CP:  1.09D+00  8.46D-01
 FoFJK:  IHMeth= 1 ICntrl=     0 DoSepK=T KAlg= 1 I1Cent= 0 FoldK=F
 E= -2904.94848144890     Delta-E=       -0.000000061162 Rises=F Damp=F
 DIIS: error= 2.17D-06 at cycle   8 NSaved=   8.
 NSaved= 8 IEnMin= 8 EnMin= -2904.94848144890     IErMin= 8 ErrMin= 2.17D-06
 ErrMax= 2.17D-06 EMaxC= 1.00D-01 BMatC= 7.80D-10 BMatP= 9.80D-08
 IDIUse=1 WtCom= 1.00D+00 WtEn= 0.00D+00
 Coeff-Com:  0.255D-04 0.264D-03 0.199D-02 0.376D-02-0.186D-01-0.800D-01
 Coeff-Com: -0.830D-01 0.118D+01
 Coeff:      0.255D-04 0.264D-03 0.199D-02 0.376D-02-0.186D-01-0.800D-01
 Coeff:     -0.830D-01 0.118D+01
 Gap=     0.421 Goal=   None    Shift=    0.000
 RMSDP=2.99D-07 MaxDP=6.05D-06 DE=-6.12D-08 OVMax= 2.57D-05

 Cycle   9  Pass 1  IDiag  1:
 RMSU=  8.38D-08    CP:  1.01D+00  6.63D-01  9.17D-01  8.55D-01  1.21D+00
                    CP:  1.12D+00  9.08D-01  1.36D+00
 FoFJK:  IHMeth= 1 ICntrl=     0 DoSepK=T KAlg= 1 I1Cent= 0 FoldK=F
 E= -2904.94848145130     Delta-E=       -0.000000002395 Rises=F Damp=F
 DIIS: error= 5.05D-07 at cycle   9 NSaved=   9.
 NSaved= 9 IEnMin= 9 EnMin= -2904.94848145130     IErMin= 9 ErrMin= 5.05D-07
 ErrMax= 5.05D-07 EMaxC= 1.00D-01 BMatC= 4.72D-11 BMatP= 7.80D-10
 IDIUse=1 WtCom= 1.00D+00 WtEn= 0.00D+00
 Coeff-Com: -0.316D-06 0.581D-04 0.531D-03 0.130D-02-0.149D-02-0.203D-01
 Coeff-Com: -0.356D-01 0.676D-01 0.988D+00
 Coeff:     -0.316D-06 0.581D-04 0.531D-03 0.130D-02-0.149D-02-0.203D-01
 Coeff:     -0.356D-01 0.676D-01 0.988D+00
 Gap=     0.421 Goal=   None    Shift=    0.000
 RMSDP=5.90D-08 MaxDP=1.63D-06 DE=-2.39D-09 OVMax= 5.86D-06

 Cycle  10  Pass 1  IDiag  1:
 RMSU=  2.30D-08    CP:  1.01D+00  6.63D-01  9.17D-01  8.55D-01  1.21D+00
                    CP:  1.12D+00  9.14D-01  1.44D+00  1.19D+00
 FoFJK:  IHMeth= 1 ICntrl=     0 DoSepK=T KAlg= 1 I1Cent= 0 FoldK=F
 E= -2904.94848145142     Delta-E=       -0.000000000123 Rises=F Damp=F
 DIIS: error= 1.42D-07 at cycle  10 NSaved=  10.
 NSaved=10 IEnMin=10 EnMin= -2904.94848145142     IErMin=10 ErrMin= 1.42D-07
 ErrMax= 1.42D-07 EMaxC= 1.00D-01 BMatC= 4.13D-12 BMatP= 4.72D-11
 IDIUse=1 WtCom= 1.00D+00 WtEn= 0.00D+00
 Coeff-Com: -0.200D-05-0.176D-04-0.132D-03-0.242D-03 0.150D-02 0.549D-02
 Coeff-Com:  0.442D-02-0.936D-01 0.574D-01 0.103D+01
 Coeff:     -0.200D-05-0.176D-04-0.132D-03-0.242D-03 0.150D-02 0.549D-02
 Coeff:      0.442D-02-0.936D-01 0.574D-01 0.103D+01
 Gap=     0.421 Goal=   None    Shift=    0.000
 RMSDP=2.16D-08 MaxDP=8.44D-07 DE=-1.23D-10 OVMax= 2.49D-06

 Cycle  11  Pass 1  IDiag  1:
 RMSU=  6.79D-09    CP:  1.01D+00  6.63D-01  9.18D-01  8.55D-01  1.21D+00
                    CP:  1.12D+00  9.14D-01  1.45D+00  1.30D+00  1.26D+00
 FoFJK:  IHMeth= 1 ICntrl=     0 DoSepK=T KAlg= 1 I1Cent= 0 FoldK=F
 E= -2904.94848144929     Delta-E=        0.000000002135 Rises=F Damp=F
 DIIS: error= 4.27D-08 at cycle  11 NSaved=  11.
 NSaved=11 IEnMin=10 EnMin= -2904.94848145142     IErMin=11 ErrMin= 4.27D-08
 ErrMax= 4.27D-08 EMaxC= 1.00D-01 BMatC= 4.13D-13 BMatP= 4.13D-12
 IDIUse=1 WtCom= 1.00D+00 WtEn= 0.00D+00
 Coeff-Com:  0.275D-06-0.233D-05-0.243D-04-0.850D-04 0.114D-04 0.125D-02
 Coeff-Com:  0.231D-02 0.335D-03-0.723D-01-0.812D-01 0.115D+01
 Coeff:      0.275D-06-0.233D-05-0.243D-04-0.850D-04 0.114D-04 0.125D-02
 Coeff:      0.231D-02 0.335D-03-0.723D-01-0.812D-01 0.115D+01
 Gap=     0.421 Goal=   None    Shift=    0.000
 RMSDP=7.90D-09 MaxDP=2.08D-07 DE= 2.13D-09 OVMax= 1.04D-06

 Cycle  12  Pass 1  IDiag  1:
 RMSU=  2.09D-09    CP:  1.01D+00  6.63D-01  9.18D-01  8.55D-01  1.21D+00
                    CP:  1.11D+00  9.14D-01  1.45D+00  1.32D+00  1.40D+00
                    CP:  1.41D+00
 FoFJK:  IHMeth= 1 ICntrl=     0 DoSepK=T KAlg= 1 I1Cent= 0 FoldK=F
 E= -2904.94848144928     Delta-E=        0.000000000009 Rises=F Damp=F
 DIIS: error= 1.92D-08 at cycle  12 NSaved=  12.
 NSaved=12 IEnMin=10 EnMin= -2904.94848145142     IErMin=12 ErrMin= 1.92D-08
 ErrMax= 1.92D-08 EMaxC= 1.00D-01 BMatC= 4.11D-14 BMatP= 4.13D-13
 IDIUse=1 WtCom= 1.00D+00 WtEn= 0.00D+00
 Coeff-Com:  0.149D-06 0.173D-05 0.141D-04 0.289D-04-0.195D-03-0.569D-03
 Coeff-Com: -0.459D-03 0.899D-02 0.362D-03-0.938D-01-0.812D-01 0.117D+01
 Coeff:      0.149D-06 0.173D-05 0.141D-04 0.289D-04-0.195D-03-0.569D-03
 Coeff:     -0.459D-03 0.899D-02 0.362D-03-0.938D-01-0.812D-01 0.117D+01
 Gap=     0.421 Goal=   None    Shift=    0.000
 RMSDP=2.94D-09 MaxDP=5.51D-08 DE= 8.64D-12 OVMax= 4.37D-07

 SCF Done:  E(RLC-wPBE) =  -2904.94848145     A.U. after   12 cycles
             Convg  =    0.2937D-08             -V/T =  2.0017
 KE= 2.900064009315D+03 PE=-7.238648009082D+03 EE= 1.282300652149D+03
 Leave Link  502 at Tue May 12 10:16:07 2020, MaxMem= 1073741824 cpu:     313.8
 (Enter /home/matheus/.gaussian/g09/l601.exe)
 Copying SCF densities to generalized density rwf, IOpCl= 0 IROHF=0.

 **********************************************************************

            Population analysis using the SCF density.

 **********************************************************************

 Orbital symmetries:
       Occupied  (A) (A) (A) (A) (A) (A) (A) (A) (A) (A) (A) (A)
                 (A) (A) (A) (A) (A) (A) (A) (A) (A) (A) (A) (A)
                 (A) (A) (A)
       Virtual   (A) (A) (A) (A) (A) (A) (A) (A) (A) (A) (A) (A)
                 (A) (A) (A) (A) (A) (A) (A) (A) (A) (A) (A) (A)
                 (A) (A) (A) (A) (A) (A) (A) (A) (A) (A) (A) (A)
                 (A) (A) (A) (A) (A) (A) (A) (A) (A) (A) (A) (A)
                 (A) (A) (A) (A) (A) (A) (A) (A) (A) (A) (A) (A)
                 (A) (A) (A) (A) (A) (A) (A) (A) (A) (A) (A) (A)
                 (A) (A) (A) (A) (A) (A) (A) (A) (A) (A) (A) (A)
                 (A) (A) (A) (A) (A) (A) (A) (A) (A) (A) (A) (A)
                 (A) (A) (A) (A) (A) (A) (A) (A) (A) (A) (A) (A)
                 (A) (A) (A) (A) (A) (A) (A) (A) (A) (A) (A) (A)
                 (A) (A) (A) (A) (A) (A) (A) (A) (A) (A) (A) (A)
                 (A) (A) (A) (A) (A) (A) (A) (A) (A) (A) (A) (A)
                 (A) (A) (A) (A) (A) (A) (A) (A) (A) (A) (A) (A)
                 (A) (A) (A) (A) (A) (A) (A) (A) (A) (A) (A) (A)
                 (A) (A)
 The electronic state is 1-A.
 Alpha  occ. eigenvalues -- -511.14219 -66.68899 -60.35121 -60.35111 -60.35099
 Alpha  occ. eigenvalues --  -19.03252 -19.03102  -9.62174  -7.36630  -7.36598
 Alpha  occ. eigenvalues --   -7.36562  -3.32172  -3.32168  -3.32141  -3.32117
 Alpha  occ. eigenvalues --   -3.32113  -1.25391  -1.07010  -1.03618  -0.71123
 Alpha  occ. eigenvalues --   -0.56958  -0.55989  -0.54137  -0.53415  -0.52312
 Alpha  occ. eigenvalues --   -0.48411  -0.38870
 Alpha virt. eigenvalues --    0.03219   0.04209   0.08208   0.09038   0.10057
 Alpha virt. eigenvalues --    0.11585   0.12815   0.15345   0.17173   0.17933
 Alpha virt. eigenvalues --    0.18185   0.19294   0.20184   0.21709   0.23644
 Alpha virt. eigenvalues --    0.24196   0.24828   0.27516   0.30706   0.33760
 Alpha virt. eigenvalues --    0.34757   0.35931   0.38177   0.38830   0.40163
 Alpha virt. eigenvalues --    0.42577   0.44482   0.48241   0.52992   0.54277
 Alpha virt. eigenvalues --    0.58879   0.61086   0.61408   0.64164   0.66579
 Alpha virt. eigenvalues --    0.68651   0.70159   0.73376   0.73799   0.75120
 Alpha virt. eigenvalues --    0.75949   0.77558   0.80428   0.82501   0.85713
 Alpha virt. eigenvalues --    0.86407   0.87271   0.88315   0.89615   0.91870
 Alpha virt. eigenvalues --    0.93937   0.94751   0.96991   0.99014   1.00968
 Alpha virt. eigenvalues --    1.03178   1.04023   1.06090   1.07397   1.11003
 Alpha virt. eigenvalues --    1.13721   1.19626   1.22010   1.22863   1.25146
 Alpha virt. eigenvalues --    1.31281   1.33583   1.38345   1.39698   1.46242
 Alpha virt. eigenvalues --    1.49398   1.51298   1.53561   1.55995   1.60010
 Alpha virt. eigenvalues --    1.61150   1.67502   1.83679   1.88399   1.93896
 Alpha virt. eigenvalues --    1.98579   2.06400   2.07512   2.12406   2.13002
 Alpha virt. eigenvalues --    2.14384   2.19448   2.20863   2.21156   2.28034
 Alpha virt. eigenvalues --    2.28364   2.31053   2.32518   2.32878   2.34255
 Alpha virt. eigenvalues --    2.37462   2.39813   2.43325   2.47135   2.48121
 Alpha virt. eigenvalues --    2.50055   2.51296   2.55238   2.57125   2.58039
 Alpha virt. eigenvalues --    2.60717   2.66151   2.68393   2.69409   2.72723
 Alpha virt. eigenvalues --    2.73921   2.75752   2.80092   2.88707   2.91310
 Alpha virt. eigenvalues --    2.92813   3.05531   3.10608   3.12041   3.58379
 Alpha virt. eigenvalues --    3.68377   3.88801   3.99224   4.00019   4.05128
 Alpha virt. eigenvalues --    4.14364   4.17275   4.19334   4.21060   4.22980
 Alpha virt. eigenvalues --    4.42621   4.52339   4.54267   4.64180   4.68053
 Alpha virt. eigenvalues --    4.98291   4.98948   5.05627   5.07717   5.08361
 Alpha virt. eigenvalues --    5.13203   5.46501   5.81474   6.01193   6.04402
 Alpha virt. eigenvalues --    6.10911   6.33873   6.36425   6.44119   6.54637
 Alpha virt. eigenvalues --    6.65859   6.69835   6.75460   6.81230   6.82473
 Alpha virt. eigenvalues --    6.83840   6.86821   6.88025   6.89656   7.05655
 Alpha virt. eigenvalues --    7.11974   7.15148   7.21656   7.34530   7.53526
 Alpha virt. eigenvalues --    7.94794   7.96693   8.13192  13.79458  14.59777
          Condensed to atoms (all electrons):
              1          2          3          4          5
     1  O    8.291796  -0.270955   0.165117   0.032189  -0.021685
     2  O   -0.270955   8.278143   0.038128   0.179468  -0.012580
     3  H    0.165117   0.038128   0.626160  -0.017103  -0.005514
     4  H    0.032189   0.179468  -0.017103   0.618939  -0.017520
     5  Kr  -0.021685  -0.012580  -0.005514  -0.017520  36.045872
 Mulliken atomic charges:
              1
     1  O   -0.196462
     2  O   -0.212204
     3  H    0.193212
     4  H    0.204027
     5  Kr   0.011427
 Sum of Mulliken atomic charges =   0.00000
 Mulliken charges with hydrogens summed into heavy atoms:
              1
     1  O   -0.003251
     2  O   -0.008176
     5  Kr   0.011427
 Sum of Mulliken charges with hydrogens summed into heavy atoms =   0.00000
          Condensed to fragments (all electrons):
     1      -0.011427
     2       0.011427
 Electronic spatial extent (au):  <R**2>=            476.5013
 Charge=              0.0000 electrons
 Dipole moment (field-independent basis, Debye):
    X=             -3.4283    Y=             -0.0975    Z=              0.6672  Tot=              3.4940
 Quadrupole moment (field-independent basis, Debye-Ang):
   XX=            -38.5494   YY=            -28.1058   ZZ=            -30.1605
   XY=             -0.3049   XZ=              0.8107   YZ=             -0.8895
 Traceless Quadrupole moment (field-independent basis, Debye-Ang):
   XX=             -6.2775   YY=              4.1661   ZZ=              2.1114
   XY=             -0.3049   XZ=              0.8107   YZ=             -0.8895
 Octapole moment (field-independent basis, Debye-Ang**2):
  XXX=            -44.8916  YYY=             -0.2411  ZZZ=              0.0907  XYY=             -7.8442
  XXY=             -0.7135  XXZ=              0.1622  XZZ=             -8.4812  YZZ=             -0.4692
  YYZ=              1.0363  XYZ=             -1.0690
 Hexadecapole moment (field-independent basis, Debye-Ang**3):
 XXXX=           -458.9855 YYYY=            -63.5092 ZZZZ=            -29.5928 XXXY=             -0.7596
 XXXZ=             -0.9873 YYYX=             -0.5731 YYYZ=             -1.2354 ZZZX=              0.3789
 ZZZY=             -0.5932 XXYY=            -86.2382 XXZZ=            -76.0801 YYZZ=            -17.1197
 XXYZ=             -1.2394 YYXZ=              1.2670 ZZXY=             -0.6355
 N-N= 1.513348661682D+02 E-N=-7.238648008536D+03  KE= 2.900064009315D+03
 No NMR shielding tensors so no spin-rotation constants.
 Leave Link  601 at Tue May 12 10:16:07 2020, MaxMem= 1073741824 cpu:       0.7
 (Enter /home/matheus/.gaussian/g09/l122.exe)
 Counterpoise: doing DCBS calculation for fragment   1 NewBq=T
 Leave Link  122 at Tue May 12 10:16:07 2020, MaxMem= 1073741824 cpu:       0.0
 (Enter /home/matheus/.gaussian/g09/l301.exe)
 Basis read from rwf:  (5D, 7F)
 No pseudopotential information found on rwf file.
 There are   197 symmetry adapted basis functions of A   symmetry.
 Integral buffers will be    131072 words long.
 Raffenetti 2 integral format.
 Two-electron integral symmetry is turned on.
   197 basis functions,   415 primitive gaussians,   229 cartesian basis functions
     9 alpha electrons        9 beta electrons
       nuclear repulsion energy        36.6600463863 Hartrees.
 IExCor=32609 DFT=T Ex+Corr=LC-wPBE ExCW=0 ScaHFX=  1.000000
 ScaDFX=  1.000000  0.000000  1.000000  1.000000 ScalE2=  1.000000  1.000000
 IRadAn=      5 IRanWt=     -1 IRanGd=            0 ICorTp=0
  HFx wShort=  0.000000 wLong=  0.400000 cFull=  0.000000 cShort=  0.000000 cLong=  1.000000
  DFx wShort=  0.000000 wLong=  0.400000 cFull=  0.000000 cShort=  0.000000 cLong=  1.000000
 NAtoms=    5 NActive=    5 NUniq=    5 SFac= 1.00D+00 NAtFMM=   60 NAOKFM=F Big=F
 No density basis found on file   718.
 Leave Link  301 at Tue May 12 10:16:07 2020, MaxMem= 1073741824 cpu:       0.2
 (Enter /home/matheus/.gaussian/g09/l302.exe)
 NPDir=0 NMtPBC=     1 NCelOv=     1 NCel=       1 NClECP=     1 NCelD=      1
         NCelK=      1 NCelE2=     1 NClLst=     1 CellRange=     0.0.
 One-electron integrals computed using PRISM.
 NBasis=   197 RedAO= T  NBF=   197
 NBsUse=   197 1.00D-06 NBFU=   197
 Precomputing XC quadrature grid using
 IXCGrd= 2 IRadAn=           5 IRanWt=          -1 IRanGd=           0 AccXCQ= 0.00D+00.
 NRdTot=     427 NPtTot=      123512 NUsed=      126579 NTot=      126611
 NSgBfM=   229   229   229   229   229 NAtAll=     5     5.
 Leave Link  302 at Tue May 12 10:16:07 2020, MaxMem= 1073741824 cpu:       0.9
 (Enter /home/matheus/.gaussian/g09/l303.exe)
 DipDrv:  MaxL=1.
 Leave Link  303 at Tue May 12 10:16:08 2020, MaxMem= 1073741824 cpu:       0.2
 (Enter /home/matheus/.gaussian/g09/l401.exe)
 Harris functional with IExCor=32609 diagonalized for initial guess.
 ExpMin= 2.53D-02 ExpMax= 1.17D+07 ExpMxC= 1.33D+04 IAcc=3 IRadAn=         5 AccDes= 0.00D+00
 HarFok:  IExCor=32609 AccDes= 0.00D+00 IRadAn=         5 IDoV= 1
 ScaDFX=  1.000000  1.000000  1.000000  1.000000
 FoFCou: FMM=F IPFlag=           0 FMFlag=      100000 FMFlg1=           0
         NFxFlg=           0 DoJE=T BraDBF=F KetDBF=T FulRan=T
         Omega=  0.000000  0.000000  1.000000  0.000000  0.000000 ICntrl=     500 IOpCl=  0
         NMat0=    1 NMatS0=    1 NMatT0=    0 NMatD0=    1 NMtDS0=    0 NMtDT0=    0
         I1Cent=           4 NGrid=           0.
 Petite list used in FoFCou.
 Harris En= -151.499652285562    
 Initial guess orbital symmetries:
       Occupied  (A) (A) (A) (A) (A) (A) (A) (A) (A)
       Virtual   (A) (A) (A) (A) (A) (A) (A) (A) (A) (A) (A) (A)
                 (A) (A) (A) (A) (A) (A) (A) (A) (A) (A) (A) (A)
                 (A) (A) (A) (A) (A) (A) (A) (A) (A) (A) (A) (A)
                 (A) (A) (A) (A) (A) (A) (A) (A) (A) (A) (A) (A)
                 (A) (A) (A) (A) (A) (A) (A) (A) (A) (A) (A) (A)
                 (A) (A) (A) (A) (A) (A) (A) (A) (A) (A) (A) (A)
                 (A) (A) (A) (A) (A) (A) (A) (A) (A) (A) (A) (A)
                 (A) (A) (A) (A) (A) (A) (A) (A) (A) (A) (A) (A)
                 (A) (A) (A) (A) (A) (A) (A) (A) (A) (A) (A) (A)
                 (A) (A) (A) (A) (A) (A) (A) (A) (A) (A) (A) (A)
                 (A) (A) (A) (A) (A) (A) (A) (A) (A) (A) (A) (A)
                 (A) (A) (A) (A) (A) (A) (A) (A) (A) (A) (A) (A)
                 (A) (A) (A) (A) (A) (A) (A) (A) (A) (A) (A) (A)
                 (A) (A) (A) (A) (A) (A) (A) (A) (A) (A) (A) (A)
                 (A) (A) (A) (A) (A) (A) (A) (A) (A) (A) (A) (A)
                 (A) (A) (A) (A) (A) (A) (A) (A)
 The electronic state of the initial guess is 1-A.
 Leave Link  401 at Tue May 12 10:16:08 2020, MaxMem= 1073741824 cpu:       4.2
 (Enter /home/matheus/.gaussian/g09/l502.exe)
 Closed shell SCF:
 Requested convergence on RMS density matrix=1.00D-08 within 128 cycles.
 Requested convergence on MAX density matrix=1.00D-06.
 Requested convergence on             energy=1.00D-06.
 No special actions if energy rises.
 Using DIIS extrapolation, IDIIS=  1040.
 Integral symmetry usage will be decided dynamically.
       126521 words used for storage of precomputed grid.
 IEnd=      305468 IEndB=      305468 NGot=  1073741824 MDV=  1073505667
 LenX=  1073505667 LenY=  1073452785
 Fock matrices will be formed incrementally for  20 cycles.

 Cycle   1  Pass 1  IDiag  1:
 FoFJK:  IHMeth= 1 ICntrl=     0 DoSepK=T KAlg= 1 I1Cent= 0 FoldK=F
 FoFCou: FMM=F IPFlag=           0 FMFlag=      100000 FMFlg1=           0
         NFxFlg=           0 DoJE=T BraDBF=F KetDBF=F FulRan=T
         Omega=  0.000000  0.000000  1.000000  0.000000  0.000000 ICntrl=     500 IOpCl=  0
         NMat0=    1 NMatS0=    1 NMatT0=    0 NMatD0=    1 NMtDS0=    0 NMtDT0=    0
         I1Cent=           0 NGrid=           0.
 Symmetry not used in FoFCou.
 E= -151.489172734709    
 DIIS: error= 1.28D-02 at cycle   1 NSaved=   1.
 NSaved= 1 IEnMin= 1 EnMin= -151.489172734709     IErMin= 1 ErrMin= 1.28D-02
 ErrMax= 1.28D-02 EMaxC= 1.00D-01 BMatC= 4.19D-02 BMatP= 4.19D-02
 IDIUse=3 WtCom= 8.72D-01 WtEn= 1.28D-01
 Coeff-Com:  0.100D+01
 Coeff-En:   0.100D+01
 Coeff:      0.100D+01
 Gap=     0.484 Goal=   None    Shift=    0.000
 GapD=    0.484 DampG=2.000 DampE=0.500 DampFc=1.0000 IDamp=-1.
 RMSDP=8.85D-04 MaxDP=2.19D-02              OVMax= 6.49D-02

 Cycle   2  Pass 1  IDiag  1:
 RMSU=  6.24D-04    CP:  9.93D-01
 FoFJK:  IHMeth= 1 ICntrl=     0 DoSepK=T KAlg= 1 I1Cent= 0 FoldK=F
 E= -151.503688179751     Delta-E=       -0.014515445043 Rises=F Damp=F
 DIIS: error= 8.20D-03 at cycle   2 NSaved=   2.
 NSaved= 2 IEnMin= 2 EnMin= -151.503688179751     IErMin= 2 ErrMin= 8.20D-03
 ErrMax= 8.20D-03 EMaxC= 1.00D-01 BMatC= 2.49D-02 BMatP= 4.19D-02
 IDIUse=3 WtCom= 9.18D-01 WtEn= 8.20D-02
 Coeff-Com:  0.429D+00 0.571D+00
 Coeff-En:   0.277D+00 0.723D+00
 Coeff:      0.416D+00 0.584D+00
 Gap=     0.417 Goal=   None    Shift=    0.000
 RMSDP=5.04D-04 MaxDP=2.31D-02 DE=-1.45D-02 OVMax= 2.90D-02

 Cycle   3  Pass 1  IDiag  1:
 RMSU=  2.29D-04    CP:  9.88D-01  5.66D-01
 FoFJK:  IHMeth= 1 ICntrl=     0 DoSepK=T KAlg= 1 I1Cent= 0 FoldK=F
 E= -151.518444063959     Delta-E=       -0.014755884208 Rises=F Damp=F
 DIIS: error= 1.15D-03 at cycle   3 NSaved=   3.
 NSaved= 3 IEnMin= 3 EnMin= -151.518444063959     IErMin= 3 ErrMin= 1.15D-03
 ErrMax= 1.15D-03 EMaxC= 1.00D-01 BMatC= 4.00D-04 BMatP= 2.49D-02
 IDIUse=3 WtCom= 9.89D-01 WtEn= 1.15D-02
 Coeff-Com:  0.669D-01 0.144D+00 0.789D+00
 Coeff-En:   0.000D+00 0.000D+00 0.100D+01
 Coeff:      0.662D-01 0.142D+00 0.792D+00
 Gap=     0.411 Goal=   None    Shift=    0.000
 RMSDP=5.55D-05 MaxDP=1.64D-03 DE=-1.48D-02 OVMax= 4.08D-03

 Cycle   4  Pass 1  IDiag  1:
 RMSU=  2.86D-05    CP:  9.87D-01  6.06D-01  1.02D+00
 FoFJK:  IHMeth= 1 ICntrl=     0 DoSepK=T KAlg= 1 I1Cent= 0 FoldK=F
 E= -151.518687487108     Delta-E=       -0.000243423149 Rises=F Damp=F
 DIIS: error= 2.44D-04 at cycle   4 NSaved=   4.
 NSaved= 4 IEnMin= 4 EnMin= -151.518687487108     IErMin= 4 ErrMin= 2.44D-04
 ErrMax= 2.44D-04 EMaxC= 1.00D-01 BMatC= 1.39D-05 BMatP= 4.00D-04
 IDIUse=3 WtCom= 9.98D-01 WtEn= 2.44D-03
 Coeff-Com: -0.566D-02-0.100D-01 0.113D+00 0.903D+00
 Coeff-En:   0.000D+00 0.000D+00 0.000D+00 0.100D+01
 Coeff:     -0.565D-02-0.998D-02 0.113D+00 0.903D+00
 Gap=     0.413 Goal=   None    Shift=    0.000
 RMSDP=1.21D-05 MaxDP=6.02D-04 DE=-2.43D-04 OVMax= 7.71D-04

 Cycle   5  Pass 1  IDiag  1:
 RMSU=  6.08D-06    CP:  9.87D-01  6.03D-01  1.04D+00  1.00D+00
 FoFJK:  IHMeth= 1 ICntrl=     0 DoSepK=T KAlg= 1 I1Cent= 0 FoldK=F
 E= -151.518696957689     Delta-E=       -0.000009470581 Rises=F Damp=F
 DIIS: error= 3.43D-05 at cycle   5 NSaved=   5.
 NSaved= 5 IEnMin= 5 EnMin= -151.518696957689     IErMin= 5 ErrMin= 3.43D-05
 ErrMax= 3.43D-05 EMaxC= 1.00D-01 BMatC= 1.04D-07 BMatP= 1.39D-05
 IDIUse=1 WtCom= 1.00D+00 WtEn= 0.00D+00
 Coeff-Com: -0.701D-03-0.164D-02-0.269D-01-0.850D-01 0.111D+01
 Coeff:     -0.701D-03-0.164D-02-0.269D-01-0.850D-01 0.111D+01
 Gap=     0.413 Goal=   None    Shift=    0.000
 RMSDP=2.91D-06 MaxDP=9.29D-05 DE=-9.47D-06 OVMax= 2.17D-04

 Cycle   6  Pass 1  IDiag  1:
 RMSU=  8.36D-07    CP:  9.87D-01  6.04D-01  1.04D+00  1.02D+00  1.27D+00
 FoFJK:  IHMeth= 1 ICntrl=     0 DoSepK=T KAlg= 1 I1Cent= 0 FoldK=F
 E= -151.518697170055     Delta-E=       -0.000000212366 Rises=F Damp=F
 DIIS: error= 6.52D-06 at cycle   6 NSaved=   6.
 NSaved= 6 IEnMin= 6 EnMin= -151.518697170055     IErMin= 6 ErrMin= 6.52D-06
 ErrMax= 6.52D-06 EMaxC= 1.00D-01 BMatC= 3.33D-09 BMatP= 1.04D-07
 IDIUse=1 WtCom= 1.00D+00 WtEn= 0.00D+00
 Coeff-Com:  0.119D-03 0.265D-03-0.662D-04-0.819D-02-0.575D-01 0.107D+01
 Coeff:      0.119D-03 0.265D-03-0.662D-04-0.819D-02-0.575D-01 0.107D+01
 Gap=     0.413 Goal=   None    Shift=    0.000
 RMSDP=4.81D-07 MaxDP=1.55D-05 DE=-2.12D-07 OVMax= 5.45D-05

 Cycle   7  Pass 1  IDiag  1:
 RMSU=  1.69D-07    CP:  9.87D-01  6.04D-01  1.04D+00  1.02D+00  1.30D+00
                    CP:  1.22D+00
 FoFJK:  IHMeth= 1 ICntrl=     0 DoSepK=T KAlg= 1 I1Cent= 0 FoldK=F
 E= -151.518697180338     Delta-E=       -0.000000010282 Rises=F Damp=F
 DIIS: error= 1.27D-06 at cycle   7 NSaved=   7.
 NSaved= 7 IEnMin= 7 EnMin= -151.518697180338     IErMin= 7 ErrMin= 1.27D-06
 ErrMax= 1.27D-06 EMaxC= 1.00D-01 BMatC= 5.13D-10 BMatP= 3.33D-09
 IDIUse=1 WtCom= 1.00D+00 WtEn= 0.00D+00
 Coeff-Com:  0.454D-04 0.104D-03 0.111D-02 0.282D-02-0.656D-01 0.148D+00
 Coeff-Com:  0.914D+00
 Coeff:      0.454D-04 0.104D-03 0.111D-02 0.282D-02-0.656D-01 0.148D+00
 Coeff:      0.914D+00
 Gap=     0.413 Goal=   None    Shift=    0.000
 RMSDP=1.38D-07 MaxDP=4.17D-06 DE=-1.03D-08 OVMax= 2.28D-05

 Cycle   8  Pass 1  IDiag  1:
 RMSU=  6.46D-08    CP:  9.87D-01  6.04D-01  1.04D+00  1.02D+00  1.31D+00
                    CP:  1.28D+00  1.20D+00
 FoFJK:  IHMeth= 1 ICntrl=     0 DoSepK=T KAlg= 1 I1Cent= 0 FoldK=F
 E= -151.518697181367     Delta-E=       -0.000000001029 Rises=F Damp=F
 DIIS: error= 9.78D-07 at cycle   8 NSaved=   8.
 NSaved= 8 IEnMin= 8 EnMin= -151.518697181367     IErMin= 8 ErrMin= 9.78D-07
 ErrMax= 9.78D-07 EMaxC= 1.00D-01 BMatC= 2.53D-10 BMatP= 5.13D-10
 IDIUse=1 WtCom= 1.00D+00 WtEn= 0.00D+00
 Coeff-Com:  0.999D-05 0.209D-04 0.509D-03 0.223D-02-0.261D-01-0.361D-01
 Coeff-Com:  0.452D+00 0.607D+00
 Coeff:      0.999D-05 0.209D-04 0.509D-03 0.223D-02-0.261D-01-0.361D-01
 Coeff:      0.452D+00 0.607D+00
 Gap=     0.413 Goal=   None    Shift=    0.000
 RMSDP=5.02D-08 MaxDP=1.61D-06 DE=-1.03D-09 OVMax= 8.68D-06

 Cycle   9  Pass 1  IDiag  1:
 RMSU=  2.86D-08    CP:  9.87D-01  6.04D-01  1.04D+00  1.02D+00  1.31D+00
                    CP:  1.29D+00  1.31D+00  9.16D-01
 FoFJK:  IHMeth= 1 ICntrl=     0 DoSepK=T KAlg= 1 I1Cent= 0 FoldK=F
 E= -151.518697181649     Delta-E=       -0.000000000283 Rises=F Damp=F
 DIIS: error= 3.81D-07 at cycle   9 NSaved=   9.
 NSaved= 9 IEnMin= 9 EnMin= -151.518697181649     IErMin= 9 ErrMin= 3.81D-07
 ErrMax= 3.81D-07 EMaxC= 1.00D-01 BMatC= 2.47D-11 BMatP= 2.53D-10
 IDIUse=1 WtCom= 1.00D+00 WtEn= 0.00D+00
 Coeff-Com: -0.112D-04-0.295D-04-0.257D-03-0.369D-03 0.153D-01-0.509D-01
 Coeff-Com: -0.190D+00 0.123D+00 0.110D+01
 Coeff:     -0.112D-04-0.295D-04-0.257D-03-0.369D-03 0.153D-01-0.509D-01
 Coeff:     -0.190D+00 0.123D+00 0.110D+01
 Gap=     0.413 Goal=   None    Shift=    0.000
 RMSDP=3.88D-08 MaxDP=1.10D-06 DE=-2.83D-10 OVMax= 8.84D-06

 Cycle  10  Pass 1  IDiag  1:
 RMSU=  1.15D-08    CP:  9.87D-01  6.04D-01  1.04D+00  1.02D+00  1.31D+00
                    CP:  1.29D+00  1.38D+00  1.18D+00  1.36D+00
 FoFJK:  IHMeth= 1 ICntrl=     0 DoSepK=T KAlg= 1 I1Cent= 0 FoldK=F
 E= -151.518697181726     Delta-E=       -0.000000000077 Rises=F Damp=F
 DIIS: error= 9.54D-08 at cycle  10 NSaved=  10.
 NSaved=10 IEnMin=10 EnMin= -151.518697181726     IErMin=10 ErrMin= 9.54D-08
 ErrMax= 9.54D-08 EMaxC= 1.00D-01 BMatC= 7.43D-13 BMatP= 2.47D-11
 IDIUse=1 WtCom= 1.00D+00 WtEn= 0.00D+00
 Coeff-Com:  0.216D-05 0.637D-05 0.299D-04-0.851D-04-0.186D-02 0.153D-01
 Coeff-Com:  0.127D-01-0.758D-01-0.284D+00 0.133D+01
 Coeff:      0.216D-05 0.637D-05 0.299D-04-0.851D-04-0.186D-02 0.153D-01
 Coeff:      0.127D-01-0.758D-01-0.284D+00 0.133D+01
 Gap=     0.413 Goal=   None    Shift=    0.000
 RMSDP=1.12D-08 MaxDP=3.63D-07 DE=-7.70D-11 OVMax= 2.49D-06

 Cycle  11  Pass 1  IDiag  1:
 RMSU=  2.25D-09    CP:  9.87D-01  6.04D-01  1.04D+00  1.02D+00  1.31D+00
                    CP:  1.29D+00  1.39D+00  1.23D+00  1.52D+00  1.38D+00
 FoFJK:  IHMeth= 1 ICntrl=     0 DoSepK=T KAlg= 1 I1Cent= 0 FoldK=F
 E= -151.518697181731     Delta-E=       -0.000000000004 Rises=F Damp=F
 DIIS: error= 1.52D-08 at cycle  11 NSaved=  11.
 NSaved=11 IEnMin=11 EnMin= -151.518697181731     IErMin=11 ErrMin= 1.52D-08
 ErrMax= 1.52D-08 EMaxC= 1.00D-01 BMatC= 1.93D-14 BMatP= 7.43D-13
 IDIUse=1 WtCom= 1.00D+00 WtEn= 0.00D+00
 Coeff-Com:  0.326D-06 0.117D-05 0.967D-05 0.171D-04-0.526D-03 0.114D-02
 Coeff-Com:  0.875D-02 0.191D-02-0.250D-01-0.770D-01 0.109D+01
 Coeff:      0.326D-06 0.117D-05 0.967D-05 0.171D-04-0.526D-03 0.114D-02
 Coeff:      0.875D-02 0.191D-02-0.250D-01-0.770D-01 0.109D+01
 Gap=     0.413 Goal=   None    Shift=    0.000
 RMSDP=1.43D-09 MaxDP=5.34D-08 DE=-4.49D-12 OVMax= 1.38D-07

 SCF Done:  E(RLC-wPBE) =  -151.518697182     A.U. after   11 cycles
             Convg  =    0.1432D-08             -V/T =  2.0066
 KE= 1.505275112874D+02 PE=-4.315709030371D+02 EE= 9.286464818161D+01
 Leave Link  502 at Tue May 12 10:16:43 2020, MaxMem= 1073741824 cpu:     276.0
 (Enter /home/matheus/.gaussian/g09/l601.exe)
 Copying SCF densities to generalized density rwf, IOpCl= 0 IROHF=0.

 **********************************************************************

            Population analysis using the SCF density.

 **********************************************************************

 Orbital symmetries:
       Occupied  (A) (A) (A) (A) (A) (A) (A) (A) (A)
       Virtual   (A) (A) (A) (A) (A) (A) (A) (A) (A) (A) (A) (A)
                 (A) (A) (A) (A) (A) (A) (A) (A) (A) (A) (A) (A)
                 (A) (A) (A) (A) (A) (A) (A) (A) (A) (A) (A) (A)
                 (A) (A) (A) (A) (A) (A) (A) (A) (A) (A) (A) (A)
                 (A) (A) (A) (A) (A) (A) (A) (A) (A) (A) (A) (A)
                 (A) (A) (A) (A) (A) (A) (A) (A) (A) (A) (A) (A)
                 (A) (A) (A) (A) (A) (A) (A) (A) (A) (A) (A) (A)
                 (A) (A) (A) (A) (A) (A) (A) (A) (A) (A) (A) (A)
                 (A) (A) (A) (A) (A) (A) (A) (A) (A) (A) (A) (A)
                 (A) (A) (A) (A) (A) (A) (A) (A) (A) (A) (A) (A)
                 (A) (A) (A) (A) (A) (A) (A) (A) (A) (A) (A) (A)
                 (A) (A) (A) (A) (A) (A) (A) (A) (A) (A) (A) (A)
                 (A) (A) (A) (A) (A) (A) (A) (A) (A) (A) (A) (A)
                 (A) (A) (A) (A) (A) (A) (A) (A) (A) (A) (A) (A)
                 (A) (A) (A) (A) (A) (A) (A) (A) (A) (A) (A) (A)
                 (A) (A) (A) (A) (A) (A) (A) (A)
 The electronic state is 1-A.
 Alpha  occ. eigenvalues --  -19.03912 -19.03910  -1.25943  -1.04199  -0.71250
 Alpha  occ. eigenvalues --   -0.56171  -0.55990  -0.49390  -0.39462
 Alpha virt. eigenvalues --    0.01886   0.03715   0.07102   0.07761   0.09372
 Alpha virt. eigenvalues --    0.09986   0.10295   0.15667   0.17112   0.17820
 Alpha virt. eigenvalues --    0.18617   0.19373   0.20475   0.21549   0.25689
 Alpha virt. eigenvalues --    0.27187   0.28717   0.29103   0.32495   0.34704
 Alpha virt. eigenvalues --    0.35598   0.35818   0.37897   0.40554   0.41333
 Alpha virt. eigenvalues --    0.44005   0.44997   0.46409   0.48692   0.52367
 Alpha virt. eigenvalues --    0.54661   0.57730   0.59062   0.62419   0.67001
 Alpha virt. eigenvalues --    0.70025   0.72428   0.76923   0.77662   0.80504
 Alpha virt. eigenvalues --    0.82738   0.83911   0.87348   0.88033   0.90273
 Alpha virt. eigenvalues --    0.93257   0.95695   0.96524   0.98673   1.00346
 Alpha virt. eigenvalues --    1.01737   1.05032   1.06788   1.08677   1.09561
 Alpha virt. eigenvalues --    1.12322   1.16357   1.20304   1.22571   1.25210
 Alpha virt. eigenvalues --    1.26523   1.29371   1.31126   1.31437   1.33806
 Alpha virt. eigenvalues --    1.34263   1.36423   1.37907   1.44021   1.45946
 Alpha virt. eigenvalues --    1.48519   1.50410   1.53575   1.56082   1.59513
 Alpha virt. eigenvalues --    1.61829   1.63848   1.68651   1.74289   1.76951
 Alpha virt. eigenvalues --    1.83024   1.85896   1.92304   1.97617   2.02407
 Alpha virt. eigenvalues --    2.08176   2.13099   2.16344   2.20916   2.23269
 Alpha virt. eigenvalues --    2.28048   2.32756   2.33594   2.34468   2.40366
 Alpha virt. eigenvalues --    2.48971   2.52694   2.57738   2.63439   2.65450
 Alpha virt. eigenvalues --    2.68539   2.71633   2.85433   2.89418   2.90777
 Alpha virt. eigenvalues --    3.02732   3.09064   3.10272   3.24214   3.31952
 Alpha virt. eigenvalues --    3.41785   3.55764   3.60793   3.65807   3.77282
 Alpha virt. eigenvalues --    3.78191   3.79965   3.81588   3.81987   3.85908
 Alpha virt. eigenvalues --    3.90407   3.91683   3.92208   3.93579   3.96454
 Alpha virt. eigenvalues --    3.99687   4.01969   4.06407   4.12070   4.13860
 Alpha virt. eigenvalues --    4.18290   4.21680   4.22439   4.26301   4.31498
 Alpha virt. eigenvalues --    4.51984   4.54470   4.56045   4.64702   4.98224
 Alpha virt. eigenvalues --    4.98907   5.05542   5.07786   5.08592   5.13072
 Alpha virt. eigenvalues --    5.46293   5.81065   6.00589   6.03836   6.10209
 Alpha virt. eigenvalues --    6.33417   6.35939   6.43776   6.54143   6.65342
 Alpha virt. eigenvalues --    6.69108   6.74830   6.80697   6.81798   6.83368
 Alpha virt. eigenvalues --    6.86269   6.87582   6.89058   7.05257   7.11413
 Alpha virt. eigenvalues --    7.14811   7.20998   7.33928   7.53031   7.94191
 Alpha virt. eigenvalues --    7.96022   8.12414  11.06830  13.78469  14.58351
 Alpha virt. eigenvalues --   14.81324  14.91270  15.10065  29.01396  29.02106
 Alpha virt. eigenvalues --   29.06131  29.19158  29.21679  49.21797 148.29570
 Alpha virt. eigenvalues --  148.44447 148.71155 752.92665
          Condensed to atoms (all electrons):
              1          2          3          4          5
     1  O    8.258652  -0.265081   0.169847   0.028821   0.003022
     2  O   -0.265081   8.240452   0.036329   0.182216   0.000635
     3  H    0.169847   0.036329   0.613451  -0.010953  -0.001915
     4  H    0.028821   0.182216  -0.010953   0.609655  -0.004718
     5  Kr   0.003022   0.000635  -0.001915  -0.004718   0.001384
 Mulliken atomic charges:
              1
     1  O   -0.195262
     2  O   -0.194551
     3  H    0.193241
     4  H    0.194979
     5  Kr   0.001592
 Sum of Mulliken atomic charges =   0.00000
 Mulliken charges with hydrogens summed into heavy atoms:
              1
     1  O   -0.002020
     2  O    0.000428
     5  Kr   0.001592
 Sum of Mulliken charges with hydrogens summed into heavy atoms =   0.00000
          Condensed to fragments (all electrons):
     1      -0.001592
     2       0.001592
 Electronic spatial extent (au):  <R**2>=            317.0760
 Charge=              0.0000 electrons
 Dipole moment (field-independent basis, Debye):
    X=             -2.9294    Y=             -0.0408    Z=              0.8014  Tot=              3.0373
 Quadrupole moment (field-independent basis, Debye-Ang):
   XX=            -21.2590   YY=            -10.5317   ZZ=            -12.7153
   XY=             -0.3260   XZ=              0.7162   YZ=             -0.9180
 Traceless Quadrupole moment (field-independent basis, Debye-Ang):
   XX=             -6.4237   YY=              4.3036   ZZ=              2.1201
   XY=             -0.3260   XZ=              0.7162   YZ=             -0.9180
 Octapole moment (field-independent basis, Debye-Ang**2):
  XXX=            -93.3783  YYY=             -0.2457  ZZZ=              0.1320  XYY=            -24.4421
  XXY=             -0.6353  XXZ=              0.2255  XZZ=            -25.1639  YZZ=             -0.4769
  YYZ=              1.0595  XYZ=             -1.0689
 Hexadecapole moment (field-independent basis, Debye-Ang**3):
 XXXX=           -341.7070 YYYY=            -45.4310 ZZZZ=            -11.7989 XXXY=             -0.6579
 XXXZ=             -1.1008 YYYX=             -0.5713 YYYZ=             -1.2799 ZZZX=              0.3851
 ZZZY=             -0.6301 XXYY=            -63.6974 XXZZ=            -53.8005 YYZZ=            -11.1286
 XXYZ=             -1.2423 YYXZ=              1.2560 ZZXY=             -0.6200
 N-N= 3.666004638632D+01 E-N=-4.315709028278D+02  KE= 1.505275112874D+02
 No NMR shielding tensors so no spin-rotation constants.
 Leave Link  601 at Tue May 12 10:16:43 2020, MaxMem= 1073741824 cpu:       0.9
 (Enter /home/matheus/.gaussian/g09/l122.exe)
 Counterpoise: doing DCBS calculation for fragment   2 NewBq=T
 Leave Link  122 at Tue May 12 10:16:43 2020, MaxMem= 1073741824 cpu:       0.0
 (Enter /home/matheus/.gaussian/g09/l301.exe)
 Basis read from rwf:  (5D, 7F)
 No pseudopotential information found on rwf file.
 There are   197 symmetry adapted basis functions of A   symmetry.
 Integral buffers will be    131072 words long.
 Raffenetti 2 integral format.
 Two-electron integral symmetry is turned on.
   197 basis functions,   415 primitive gaussians,   229 cartesian basis functions
    18 alpha electrons       18 beta electrons
       nuclear repulsion energy         0.0000000000 Hartrees.
 IExCor=32609 DFT=T Ex+Corr=LC-wPBE ExCW=0 ScaHFX=  1.000000
 ScaDFX=  1.000000  0.000000  1.000000  1.000000 ScalE2=  1.000000  1.000000
 IRadAn=      5 IRanWt=     -1 IRanGd=            0 ICorTp=0
  HFx wShort=  0.000000 wLong=  0.400000 cFull=  0.000000 cShort=  0.000000 cLong=  1.000000
  DFx wShort=  0.000000 wLong=  0.400000 cFull=  0.000000 cShort=  0.000000 cLong=  1.000000
 NAtoms=    5 NActive=    5 NUniq=    5 SFac= 1.00D+00 NAtFMM=   60 NAOKFM=F Big=F
 No density basis found on file   718.
 Leave Link  301 at Tue May 12 10:16:43 2020, MaxMem= 1073741824 cpu:       0.2
 (Enter /home/matheus/.gaussian/g09/l302.exe)
 NPDir=0 NMtPBC=     1 NCelOv=     1 NCel=       1 NClECP=     1 NCelD=      1
         NCelK=      1 NCelE2=     1 NClLst=     1 CellRange=     0.0.
 One-electron integrals computed using PRISM.
 NBasis=   197 RedAO= T  NBF=   197
 NBsUse=   197 1.00D-06 NBFU=   197
 Precomputing XC quadrature grid using
 IXCGrd= 2 IRadAn=           5 IRanWt=          -1 IRanGd=           0 AccXCQ= 0.00D+00.
 NRdTot=     427 NPtTot=      123512 NUsed=      126579 NTot=      126611
 NSgBfM=   229   229   229   229   229 NAtAll=     5     5.
 Leave Link  302 at Tue May 12 10:16:43 2020, MaxMem= 1073741824 cpu:       0.9
 (Enter /home/matheus/.gaussian/g09/l303.exe)
 DipDrv:  MaxL=1.
 Leave Link  303 at Tue May 12 10:16:43 2020, MaxMem= 1073741824 cpu:       0.2
 (Enter /home/matheus/.gaussian/g09/l401.exe)
 Harris functional with IExCor=32609 diagonalized for initial guess.
 ExpMin= 2.53D-02 ExpMax= 1.17D+07 ExpMxC= 1.33D+04 IAcc=3 IRadAn=         5 AccDes= 0.00D+00
 HarFok:  IExCor=32609 AccDes= 0.00D+00 IRadAn=         5 IDoV= 1
 ScaDFX=  1.000000  1.000000  1.000000  1.000000
 FoFCou: FMM=F IPFlag=           0 FMFlag=      100000 FMFlg1=           0
         NFxFlg=           0 DoJE=T BraDBF=F KetDBF=T FulRan=T
         Omega=  0.000000  0.000000  1.000000  0.000000  0.000000 ICntrl=     500 IOpCl=  0
         NMat0=    1 NMatS0=    1 NMatT0=    0 NMatD0=    1 NMtDS0=    0 NMtDT0=    0
         I1Cent=           4 NGrid=           0.
 Petite list used in FoFCou.
 Harris En= -2753.24664188248    
 Initial guess orbital symmetries:
       Occupied  (A) (A) (A) (A) (A) (A) (A) (A) (A) (A) (A) (A)
                 (A) (A) (A) (A) (A) (A)
       Virtual   (A) (A) (A) (A) (A) (A) (A) (A) (A) (A) (A) (A)
                 (A) (A) (A) (A) (A) (A) (A) (A) (A) (A) (A) (A)
                 (A) (A) (A) (A) (A) (A) (A) (A) (A) (A) (A) (A)
                 (A) (A) (A) (A) (A) (A) (A) (A) (A) (A) (A) (A)
                 (A) (A) (A) (A) (A) (A) (A) (A) (A) (A) (A) (A)
                 (A) (A) (A) (A) (A) (A) (A) (A) (A) (A) (A) (A)
                 (A) (A) (A) (A) (A) (A) (A) (A) (A) (A) (A) (A)
                 (A) (A) (A) (A) (A) (A) (A) (A) (A) (A) (A) (A)
                 (A) (A) (A) (A) (A) (A) (A) (A) (A) (A) (A) (A)
                 (A) (A) (A) (A) (A) (A) (A) (A) (A) (A) (A) (A)
                 (A) (A) (A) (A) (A) (A) (A) (A) (A) (A) (A) (A)
                 (A) (A) (A) (A) (A) (A) (A) (A) (A) (A) (A) (A)
                 (A) (A) (A) (A) (A) (A) (A) (A) (A) (A) (A) (A)
                 (A) (A) (A) (A) (A) (A) (A) (A) (A) (A) (A) (A)
                 (A) (A) (A) (A) (A) (A) (A) (A) (A) (A) (A)
 The electronic state of the initial guess is 1-A.
 Leave Link  401 at Tue May 12 10:16:44 2020, MaxMem= 1073741824 cpu:       4.3
 (Enter /home/matheus/.gaussian/g09/l502.exe)
 Closed shell SCF:
 Requested convergence on RMS density matrix=1.00D-08 within 128 cycles.
 Requested convergence on MAX density matrix=1.00D-06.
 Requested convergence on             energy=1.00D-06.
 No special actions if energy rises.
 Using DIIS extrapolation, IDIIS=  1040.
 Integral symmetry usage will be decided dynamically.
       126521 words used for storage of precomputed grid.
 IEnd=      305468 IEndB=      305468 NGot=  1073741824 MDV=  1073505667
 LenX=  1073505667 LenY=  1073452785
 Fock matrices will be formed incrementally for  20 cycles.

 Cycle   1  Pass 1  IDiag  1:
 FoFJK:  IHMeth= 1 ICntrl=     0 DoSepK=T KAlg= 1 I1Cent= 0 FoldK=F
 FoFCou: FMM=F IPFlag=           0 FMFlag=      100000 FMFlg1=           0
         NFxFlg=           0 DoJE=T BraDBF=F KetDBF=F FulRan=T
         Omega=  0.000000  0.000000  1.000000  0.000000  0.000000 ICntrl=     500 IOpCl=  0
         NMat0=    1 NMatS0=    1 NMatT0=    0 NMatD0=    1 NMtDS0=    0 NMtDT0=    0
         I1Cent=           0 NGrid=           0.
 Symmetry not used in FoFCou.
 E= -2753.38960904713    
 DIIS: error= 3.10D-02 at cycle   1 NSaved=   1.
 NSaved= 1 IEnMin= 1 EnMin= -2753.38960904713     IErMin= 1 ErrMin= 3.10D-02
 ErrMax= 3.10D-02 EMaxC= 1.00D-01 BMatC= 2.24D-01 BMatP= 2.24D-01
 IDIUse=3 WtCom= 6.90D-01 WtEn= 3.10D-01
 Coeff-Com:  0.100D+01
 Coeff-En:   0.100D+01
 Coeff:      0.100D+01
 Gap=     0.609 Goal=   None    Shift=    0.000
 GapD=    0.609 DampG=2.000 DampE=0.500 DampFc=1.0000 IDamp=-1.
 RMSDP=2.16D-03 MaxDP=1.51D-01              OVMax= 5.10D-02

 Cycle   2  Pass 1  IDiag  1:
 RMSU=  1.49D-03    CP:  1.02D+00
 FoFJK:  IHMeth= 1 ICntrl=     0 DoSepK=T KAlg= 1 I1Cent= 0 FoldK=F
 E= -2753.42031625230     Delta-E=       -0.030707205176 Rises=F Damp=F
 DIIS: error= 1.09D-02 at cycle   2 NSaved=   2.
 NSaved= 2 IEnMin= 2 EnMin= -2753.42031625230     IErMin= 2 ErrMin= 1.09D-02
 ErrMax= 1.09D-02 EMaxC= 1.00D-01 BMatC= 5.56D-02 BMatP= 2.24D-01
 IDIUse=3 WtCom= 8.91D-01 WtEn= 1.09D-01
 Coeff-Com:  0.328D+00 0.672D+00
 Coeff-En:   0.131D+00 0.869D+00
 Coeff:      0.307D+00 0.693D+00
 Gap=     0.525 Goal=   None    Shift=    0.000
 RMSDP=8.07D-04 MaxDP=5.27D-02 DE=-3.07D-02 OVMax= 2.09D-02

 Cycle   3  Pass 1  IDiag  1:
 RMSU=  1.57D-04    CP:  1.01D+00  6.42D-01
 FoFJK:  IHMeth= 1 ICntrl=     0 DoSepK=T KAlg= 1 I1Cent= 0 FoldK=F
 E= -2753.43560409806     Delta-E=       -0.015287845754 Rises=F Damp=F
 DIIS: error= 1.07D-03 at cycle   3 NSaved=   3.
 NSaved= 3 IEnMin= 3 EnMin= -2753.43560409806     IErMin= 3 ErrMin= 1.07D-03
 ErrMax= 1.07D-03 EMaxC= 1.00D-01 BMatC= 5.81D-04 BMatP= 5.56D-02
 IDIUse=3 WtCom= 9.89D-01 WtEn= 1.07D-02
 Coeff-Com: -0.176D-03 0.919D-01 0.908D+00
 Coeff-En:   0.000D+00 0.000D+00 0.100D+01
 Coeff:     -0.174D-03 0.910D-01 0.909D+00
 Gap=     0.533 Goal=   None    Shift=    0.000
 RMSDP=7.48D-05 MaxDP=4.41D-03 DE=-1.53D-02 OVMax= 2.63D-03

 Cycle   4  Pass 1  IDiag  1:
 RMSU=  1.80D-05    CP:  1.01D+00  6.75D-01  9.89D-01
 FoFJK:  IHMeth= 1 ICntrl=     0 DoSepK=T KAlg= 1 I1Cent= 0 FoldK=F
 E= -2753.43577960741     Delta-E=       -0.000175509351 Rises=F Damp=F
 DIIS: error= 3.20D-05 at cycle   4 NSaved=   4.
 NSaved= 4 IEnMin= 4 EnMin= -2753.43577960741     IErMin= 4 ErrMin= 3.20D-05
 ErrMax= 3.20D-05 EMaxC= 1.00D-01 BMatC= 4.21D-07 BMatP= 5.81D-04
 IDIUse=1 WtCom= 1.00D+00 WtEn= 0.00D+00
 Coeff-Com: -0.125D-02-0.158D-01-0.113D+00 0.113D+01
 Coeff:     -0.125D-02-0.158D-01-0.113D+00 0.113D+01
 Gap=     0.532 Goal=   None    Shift=    0.000
 RMSDP=6.23D-06 MaxDP=2.47D-04 DE=-1.76D-04 OVMax= 3.90D-04

 Cycle   5  Pass 1  IDiag  1:
 RMSU=  2.25D-06    CP:  1.01D+00  6.74D-01  1.01D+00  1.13D+00
 FoFJK:  IHMeth= 1 ICntrl=     0 DoSepK=T KAlg= 1 I1Cent= 0 FoldK=F
 E= -2753.43578012748     Delta-E=       -0.000000520071 Rises=F Damp=F
 DIIS: error= 6.26D-06 at cycle   5 NSaved=   5.
 NSaved= 5 IEnMin= 5 EnMin= -2753.43578012748     IErMin= 5 ErrMin= 6.26D-06
 ErrMax= 6.26D-06 EMaxC= 1.00D-01 BMatC= 1.18D-08 BMatP= 4.21D-07
 IDIUse=1 WtCom= 1.00D+00 WtEn= 0.00D+00
 Coeff-Com:  0.249D-04-0.230D-02-0.247D-01 0.943D-01 0.933D+00
 Coeff:      0.249D-04-0.230D-02-0.247D-01 0.943D-01 0.933D+00
 Gap=     0.532 Goal=   None    Shift=    0.000
 RMSDP=7.33D-07 MaxDP=3.29D-05 DE=-5.20D-07 OVMax= 3.08D-05

 Cycle   6  Pass 1  IDiag  1:
 RMSU=  2.14D-07    CP:  1.01D+00  6.74D-01  1.01D+00  1.15D+00  1.03D+00
 FoFJK:  IHMeth= 1 ICntrl=     0 DoSepK=T KAlg= 1 I1Cent= 0 FoldK=F
 E= -2753.43578013722     Delta-E=       -0.000000009745 Rises=F Damp=F
 DIIS: error= 4.31D-07 at cycle   6 NSaved=   6.
 NSaved= 6 IEnMin= 6 EnMin= -2753.43578013722     IErMin= 6 ErrMin= 4.31D-07
 ErrMax= 4.31D-07 EMaxC= 1.00D-01 BMatC= 4.44D-11 BMatP= 1.18D-08
 IDIUse=1 WtCom= 1.00D+00 WtEn= 0.00D+00
 Coeff-Com:  0.301D-05 0.137D-03 0.151D-02-0.110D-01-0.752D-01 0.108D+01
 Coeff:      0.301D-05 0.137D-03 0.151D-02-0.110D-01-0.752D-01 0.108D+01
 Gap=     0.532 Goal=   None    Shift=    0.000
 RMSDP=9.89D-08 MaxDP=3.49D-06 DE=-9.74D-09 OVMax= 4.54D-06

 Cycle   7  Pass 1  IDiag  1:
 RMSU=  1.74D-08    CP:  1.01D+00  6.74D-01  1.01D+00  1.16D+00  1.04D+00
                    CP:  1.22D+00
 FoFJK:  IHMeth= 1 ICntrl=     0 DoSepK=T KAlg= 1 I1Cent= 0 FoldK=F
 E= -2753.43578013730     Delta-E=       -0.000000000079 Rises=F Damp=F
 DIIS: error= 8.16D-08 at cycle   7 NSaved=   7.
 NSaved= 7 IEnMin= 7 EnMin= -2753.43578013730     IErMin= 7 ErrMin= 8.16D-08
 ErrMax= 8.16D-08 EMaxC= 1.00D-01 BMatC= 2.05D-12 BMatP= 4.44D-11
 IDIUse=1 WtCom= 1.00D+00 WtEn= 0.00D+00
 Coeff-Com: -0.962D-07 0.348D-04 0.395D-03-0.218D-02-0.213D-01 0.184D+00
 Coeff-Com:  0.839D+00
 Coeff:     -0.962D-07 0.348D-04 0.395D-03-0.218D-02-0.213D-01 0.184D+00
 Coeff:      0.839D+00
 Gap=     0.532 Goal=   None    Shift=    0.000
 RMSDP=1.10D-08 MaxDP=3.89D-07 DE=-7.87D-11 OVMax= 6.66D-07

 Cycle   8  Pass 1  IDiag  1:
 RMSU=  4.30D-09    CP:  1.01D+00  6.74D-01  1.01D+00  1.16D+00  1.04D+00
                    CP:  1.24D+00  1.05D+00
 FoFJK:  IHMeth= 1 ICntrl=     0 DoSepK=T KAlg= 1 I1Cent= 0 FoldK=F
 E= -2753.43578013725     Delta-E=        0.000000000057 Rises=F Damp=F
 DIIS: error= 2.57D-08 at cycle   8 NSaved=   8.
 NSaved= 8 IEnMin= 7 EnMin= -2753.43578013730     IErMin= 8 ErrMin= 2.57D-08
 ErrMax= 2.57D-08 EMaxC= 1.00D-01 BMatC= 1.18D-13 BMatP= 2.05D-12
 IDIUse=1 WtCom= 1.00D+00 WtEn= 0.00D+00
 Coeff-Com: -0.290D-06-0.117D-04-0.128D-03 0.974D-03 0.513D-02-0.845D-01
 Coeff-Com: -0.428D-03 0.108D+01
 Coeff:     -0.290D-06-0.117D-04-0.128D-03 0.974D-03 0.513D-02-0.845D-01
 Coeff:     -0.428D-03 0.108D+01
 Gap=     0.532 Goal=   None    Shift=    0.000
 RMSDP=4.32D-09 MaxDP=1.80D-07 DE= 5.68D-11 OVMax= 2.66D-07

 SCF Done:  E(RLC-wPBE) =  -2753.43578014     A.U. after    8 cycles
             Convg  =    0.4317D-08             -V/T =  2.0014
 KE= 2.749477763525D+03 PE=-6.578885279827D+03 EE= 1.075971736164D+03
 Leave Link  502 at Tue May 12 10:17:10 2020, MaxMem= 1073741824 cpu:     213.2
 (Enter /home/matheus/.gaussian/g09/l601.exe)
 Copying SCF densities to generalized density rwf, IOpCl= 0 IROHF=0.

 **********************************************************************

            Population analysis using the SCF density.

 **********************************************************************

 Orbital symmetries:
       Occupied  (A) (A) (A) (A) (A) (A) (A) (A) (A) (A) (A) (A)
                 (A) (A) (A) (A) (A) (A)
       Virtual   (A) (A) (A) (A) (A) (A) (A) (A) (A) (A) (A) (A)
                 (A) (A) (A) (A) (A) (A) (A) (A) (A) (A) (A) (A)
                 (A) (A) (A) (A) (A) (A) (A) (A) (A) (A) (A) (A)
                 (A) (A) (A) (A) (A) (A) (A) (A) (A) (A) (A) (A)
                 (A) (A) (A) (A) (A) (A) (A) (A) (A) (A) (A) (A)
                 (A) (A) (A) (A) (A) (A) (A) (A) (A) (A) (A) (A)
                 (A) (A) (A) (A) (A) (A) (A) (A) (A) (A) (A) (A)
                 (A) (A) (A) (A) (A) (A) (A) (A) (A) (A) (A) (A)
                 (A) (A) (A) (A) (A) (A) (A) (A) (A) (A) (A) (A)
                 (A) (A) (A) (A) (A) (A) (A) (A) (A) (A) (A) (A)
                 (A) (A) (A) (A) (A) (A) (A) (A) (A) (A) (A) (A)
                 (A) (A) (A) (A) (A) (A) (A) (A) (A) (A) (A) (A)
                 (A) (A) (A) (A) (A) (A) (A) (A) (A) (A) (A) (A)
                 (A) (A) (A) (A) (A) (A) (A) (A) (A) (A) (A) (A)
                 (A) (A) (A) (A) (A) (A) (A) (A) (A) (A) (A)
 The electronic state is 1-A.
 Alpha  occ. eigenvalues -- -511.10647 -66.65313 -60.31529 -60.31526 -60.31524
 Alpha  occ. eigenvalues --   -9.58573  -7.32997  -7.32995  -7.32994  -3.28540
 Alpha  occ. eigenvalues --   -3.28540  -3.28539  -3.28538  -3.28538  -1.03231
 Alpha  occ. eigenvalues --   -0.50219  -0.50217  -0.50215
 Alpha virt. eigenvalues --    0.03008   0.04927   0.08437   0.09523   0.12049
 Alpha virt. eigenvalues --    0.13112   0.13518   0.13673   0.15883   0.17097
 Alpha virt. eigenvalues --    0.17700   0.18615   0.21144   0.26156   0.27130
 Alpha virt. eigenvalues --    0.27329   0.29485   0.31798   0.33400   0.36995
 Alpha virt. eigenvalues --    0.37339   0.38513   0.39212   0.40228   0.41857
 Alpha virt. eigenvalues --    0.41958   0.45805   0.53932   0.56318   0.58656
 Alpha virt. eigenvalues --    0.62227   0.64544   0.68691   0.70024   0.71755
 Alpha virt. eigenvalues --    0.72424   0.74128   0.76043   0.76403   0.77710
 Alpha virt. eigenvalues --    0.78839   0.82681   0.84681   0.85644   0.88620
 Alpha virt. eigenvalues --    0.89102   0.89941   0.91748   0.92993   0.97199
 Alpha virt. eigenvalues --    0.98966   0.99437   1.00426   1.01491   1.03002
 Alpha virt. eigenvalues --    1.05591   1.08060   1.09639   1.14150   1.15728
 Alpha virt. eigenvalues --    1.19959   1.22721   1.27954   1.33334   1.36539
 Alpha virt. eigenvalues --    1.39033   1.41290   1.44803   1.47816   1.52660
 Alpha virt. eigenvalues --    1.56905   1.59822   1.61229   1.74528   1.77211
 Alpha virt. eigenvalues --    1.84140   1.84444   1.87055   1.89967   2.15734
 Alpha virt. eigenvalues --    2.22539   2.23436   2.25982   2.28550   2.32110
 Alpha virt. eigenvalues --    2.33352   2.35837   2.36597   2.37739   2.41879
 Alpha virt. eigenvalues --    2.44141   2.47063   2.49314   2.51394   2.51827
 Alpha virt. eigenvalues --    2.52601   2.54303   2.58970   2.59500   2.61573
 Alpha virt. eigenvalues --    2.62294   2.65169   2.67883   2.69433   2.71225
 Alpha virt. eigenvalues --    2.75722   2.79966   2.82236   2.89197   2.91725
 Alpha virt. eigenvalues --    2.95198   2.99303   3.05204   3.11119   3.19630
 Alpha virt. eigenvalues --    3.24338   3.26971   3.31356   3.41280   3.49014
 Alpha virt. eigenvalues --    3.61132   3.65353   3.85479   3.87838   4.02217
 Alpha virt. eigenvalues --    4.43219   4.47245   4.53343   4.58709   4.69429
 Alpha virt. eigenvalues --    4.71409   4.86226   4.89783   4.97980   5.03904
 Alpha virt. eigenvalues --    5.16085   5.23940   5.59655   5.60904   5.74128
 Alpha virt. eigenvalues --    5.97677   6.02612   6.14068   6.75661   6.89637
 Alpha virt. eigenvalues --    7.33280   7.36622   7.64352   7.69108   7.76937
 Alpha virt. eigenvalues --    7.85790   8.01309   8.14295   8.18842   8.26633
 Alpha virt. eigenvalues --    8.27055   8.41797   8.68083   8.97286   9.51584
 Alpha virt. eigenvalues --    9.72440   9.80801   9.90191   9.93374   9.94535
 Alpha virt. eigenvalues --   10.19400  10.22114  10.64703  10.89884  11.52369
 Alpha virt. eigenvalues --   11.62502  11.71023  11.97249  12.01763  13.24608
 Alpha virt. eigenvalues --   13.62129  14.53942  62.42659  64.71978
          Condensed to atoms (all electrons):
              1          2          3          4          5
     1  O    0.000876  -0.000237  -0.000559   0.000389  -0.006944
     2  O   -0.000237   0.002405  -0.000063  -0.002119  -0.001141
     3  H   -0.000559  -0.000063   0.001135   0.000268  -0.015826
     4  H    0.000389  -0.002119   0.000268   0.003014  -0.025722
     5  Kr  -0.006944  -0.001141  -0.015826  -0.025722  36.096481
 Mulliken atomic charges:
              1
     1  O    0.006476
     2  O    0.001156
     3  H    0.015046
     4  H    0.024170
     5  Kr  -0.046848
 Sum of Mulliken atomic charges =   0.00000
 Mulliken charges with hydrogens summed into heavy atoms:
              1
     1  O    0.021521
     2  O    0.025326
     5  Kr  -0.046848
 Sum of Mulliken charges with hydrogens summed into heavy atoms =   0.00000
          Condensed to fragments (all electrons):
     1       0.046848
     2      -0.046848
 Electronic spatial extent (au):  <R**2>=            159.8378
 Charge=              0.0000 electrons
 Dipole moment (field-independent basis, Debye):
    X=              0.0011    Y=              0.0000    Z=              0.0000  Tot=              0.0011
 Quadrupole moment (field-independent basis, Debye-Ang):
   XX=            -17.6138   YY=            -17.6218   ZZ=            -17.6288
   XY=              0.0007   XZ=              0.0020   YZ=             -0.0011
 Traceless Quadrupole moment (field-independent basis, Debye-Ang):
   XX=              0.0077   YY=             -0.0004   ZZ=             -0.0073
   XY=              0.0007   XZ=              0.0020   YZ=             -0.0011
 Octapole moment (field-independent basis, Debye-Ang**2):
  XXX=             51.1633  YYY=              0.0631  ZZZ=              0.1671  XYY=             17.0655
  XXY=              0.0198  XXZ=              0.0531  XZZ=             17.0689  YZZ=              0.0215
  YYZ=              0.0560  XYZ=              0.0001
 Hexadecapole moment (field-independent basis, Debye-Ang**3):
 XXXX=           -117.4367 YYYY=            -18.3771 ZZZZ=            -18.3986 XXXY=             -0.0597
 XXXZ=             -0.1571 YYYX=             -0.0594 YYYZ=             -0.0003 ZZZX=             -0.1568
 ZZZY=             -0.0022 XXYY=            -22.6431 XXZZ=            -22.6483 YYZZ=             -6.1283
 XXYZ=             -0.0004 YYXZ=             -0.0528 ZZXY=             -0.0189
 N-N= 0.000000000000D+00 E-N=-6.578885281837D+03  KE= 2.749477763525D+03
 No NMR shielding tensors so no spin-rotation constants.
 Leave Link  601 at Tue May 12 10:17:10 2020, MaxMem= 1073741824 cpu:       0.7
 (Enter /home/matheus/.gaussian/g09/l122.exe)
 Counterpoise: doing MCBS calculation for fragment   1
 Leave Link  122 at Tue May 12 10:17:10 2020, MaxMem= 1073741824 cpu:       0.0
 (Enter /home/matheus/.gaussian/g09/l301.exe)
 Basis read from rwf:  (5D, 7F)
 No pseudopotential information found on rwf file.
 There are   138 symmetry adapted basis functions of A   symmetry.
 Integral buffers will be    131072 words long.
 Raffenetti 2 integral format.
 Two-electron integral symmetry is turned on.
   138 basis functions,   198 primitive gaussians,   160 cartesian basis functions
     9 alpha electrons        9 beta electrons
       nuclear repulsion energy        36.6600463863 Hartrees.
 IExCor=32609 DFT=T Ex+Corr=LC-wPBE ExCW=0 ScaHFX=  1.000000
 ScaDFX=  1.000000  0.000000  1.000000  1.000000 ScalE2=  1.000000  1.000000
 IRadAn=      5 IRanWt=     -1 IRanGd=            0 ICorTp=0
  HFx wShort=  0.000000 wLong=  0.400000 cFull=  0.000000 cShort=  0.000000 cLong=  1.000000
  DFx wShort=  0.000000 wLong=  0.400000 cFull=  0.000000 cShort=  0.000000 cLong=  1.000000
 NAtoms=    5 NActive=    4 NUniq=    4 SFac= 1.00D+00 NAtFMM=   60 NAOKFM=F Big=F
 No density basis found on file   718.
 Leave Link  301 at Tue May 12 10:17:10 2020, MaxMem= 1073741824 cpu:       0.2
 (Enter /home/matheus/.gaussian/g09/l302.exe)
 NPDir=0 NMtPBC=     1 NCelOv=     1 NCel=       1 NClECP=     1 NCelD=      1
         NCelK=      1 NCelE2=     1 NClLst=     1 CellRange=     0.0.
 One-electron integrals computed using PRISM.
 NBasis=   138 RedAO= T  NBF=   138
 NBsUse=   138 1.00D-06 NBFU=   138
 Precomputing XC quadrature grid using
 IXCGrd= 2 IRadAn=           5 IRanWt=          -1 IRanGd=           0 AccXCQ= 0.00D+00.
 NRdTot=     344 NPtTot=       92556 NUsed=       95038 NTot=       95070
 NSgBfM=   160   160   160   160   160 NAtAll=     4     4.
 Leave Link  302 at Tue May 12 10:17:11 2020, MaxMem= 1073741824 cpu:       0.7
 (Enter /home/matheus/.gaussian/g09/l303.exe)
 DipDrv:  MaxL=1.
 Leave Link  303 at Tue May 12 10:17:11 2020, MaxMem= 1073741824 cpu:       0.1
 (Enter /home/matheus/.gaussian/g09/l401.exe)
 Harris functional with IExCor=32609 diagonalized for initial guess.
 ExpMin= 2.53D-02 ExpMax= 1.53D+04 ExpMxC= 5.22D+02 IAcc=3 IRadAn=         5 AccDes= 0.00D+00
 HarFok:  IExCor=32609 AccDes= 0.00D+00 IRadAn=         5 IDoV= 1
 ScaDFX=  1.000000  1.000000  1.000000  1.000000
 FoFCou: FMM=F IPFlag=           0 FMFlag=      100000 FMFlg1=           0
         NFxFlg=           0 DoJE=T BraDBF=F KetDBF=T FulRan=T
         Omega=  0.000000  0.000000  1.000000  0.000000  0.000000 ICntrl=     500 IOpCl=  0
         NMat0=    1 NMatS0=    1 NMatT0=    0 NMatD0=    1 NMtDS0=    0 NMtDT0=    0
         I1Cent=           4 NGrid=           0.
 Petite list used in FoFCou.
 Harris En= -151.499567687460    
 Initial guess orbital symmetries:
       Occupied  (A) (A) (A) (A) (A) (A) (A) (A) (A)
       Virtual   (A) (A) (A) (A) (A) (A) (A) (A) (A) (A) (A) (A)
                 (A) (A) (A) (A) (A) (A) (A) (A) (A) (A) (A) (A)
                 (A) (A) (A) (A) (A) (A) (A) (A) (A) (A) (A) (A)
                 (A) (A) (A) (A) (A) (A) (A) (A) (A) (A) (A) (A)
                 (A) (A) (A) (A) (A) (A) (A) (A) (A) (A) (A) (A)
                 (A) (A) (A) (A) (A) (A) (A) (A) (A) (A) (A) (A)
                 (A) (A) (A) (A) (A) (A) (A) (A) (A) (A) (A) (A)
                 (A) (A) (A) (A) (A) (A) (A) (A) (A) (A) (A) (A)
                 (A) (A) (A) (A) (A) (A) (A) (A) (A) (A) (A) (A)
                 (A) (A) (A) (A) (A) (A) (A) (A) (A) (A) (A) (A)
                 (A) (A) (A) (A) (A) (A) (A) (A) (A)
 The electronic state of the initial guess is 1-A.
 Leave Link  401 at Tue May 12 10:17:11 2020, MaxMem= 1073741824 cpu:       2.1
 (Enter /home/matheus/.gaussian/g09/l502.exe)
 Closed shell SCF:
 Requested convergence on RMS density matrix=1.00D-08 within 128 cycles.
 Requested convergence on MAX density matrix=1.00D-06.
 Requested convergence on             energy=1.00D-06.
 No special actions if energy rises.
 Using DIIS extrapolation, IDIIS=  1040.
 Integral symmetry usage will be decided dynamically.
        94980 words used for storage of precomputed grid.
 IEnd=      192360 IEndB=      192360 NGot=  1073741824 MDV=  1073591865
 LenX=  1073591865 LenY=  1073565824
 Fock matrices will be formed incrementally for  20 cycles.

 Cycle   1  Pass 1  IDiag  1:
 FoFJK:  IHMeth= 1 ICntrl=     0 DoSepK=T KAlg= 1 I1Cent= 0 FoldK=F
 FoFCou: FMM=F IPFlag=           0 FMFlag=      100000 FMFlg1=           0
         NFxFlg=           0 DoJE=T BraDBF=F KetDBF=F FulRan=T
         Omega=  0.000000  0.000000  1.000000  0.000000  0.000000 ICntrl=     500 IOpCl=  0
         NMat0=    1 NMatS0=    1 NMatT0=    0 NMatD0=    1 NMtDS0=    0 NMtDT0=    0
         I1Cent=           0 NGrid=           0.
 Symmetry not used in FoFCou.
 E= -151.489139884391    
 DIIS: error= 1.99D-02 at cycle   1 NSaved=   1.
 NSaved= 1 IEnMin= 1 EnMin= -151.489139884391     IErMin= 1 ErrMin= 1.99D-02
 ErrMax= 1.99D-02 EMaxC= 1.00D-01 BMatC= 4.19D-02 BMatP= 4.19D-02
 IDIUse=3 WtCom= 8.01D-01 WtEn= 1.99D-01
 Coeff-Com:  0.100D+01
 Coeff-En:   0.100D+01
 Coeff:      0.100D+01
 Gap=     0.484 Goal=   None    Shift=    0.000
 GapD=    0.484 DampG=2.000 DampE=0.500 DampFc=1.0000 IDamp=-1.
 RMSDP=1.29D-03 MaxDP=2.28D-02              OVMax= 6.49D-02

 Cycle   2  Pass 1  IDiag  1:
 RMSU=  9.12D-04    CP:  9.94D-01
 FoFJK:  IHMeth= 1 ICntrl=     0 DoSepK=T KAlg= 1 I1Cent= 0 FoldK=F
 E= -151.503644338266     Delta-E=       -0.014504453875 Rises=F Damp=F
 DIIS: error= 1.43D-02 at cycle   2 NSaved=   2.
 NSaved= 2 IEnMin= 2 EnMin= -151.503644338266     IErMin= 2 ErrMin= 1.43D-02
 ErrMax= 1.43D-02 EMaxC= 1.00D-01 BMatC= 2.49D-02 BMatP= 4.19D-02
 IDIUse=3 WtCom= 8.57D-01 WtEn= 1.43D-01
 Coeff-Com:  0.429D+00 0.571D+00
 Coeff-En:   0.277D+00 0.723D+00
 Coeff:      0.407D+00 0.593D+00
 Gap=     0.422 Goal=   None    Shift=    0.000
 RMSDP=7.21D-04 MaxDP=2.34D-02 DE=-1.45D-02 OVMax= 2.95D-02

 Cycle   3  Pass 1  IDiag  1:
 RMSU=  3.18D-04    CP:  9.90D-01  5.66D-01
 FoFJK:  IHMeth= 1 ICntrl=     0 DoSepK=T KAlg= 1 I1Cent= 0 FoldK=F
 E= -151.518333114828     Delta-E=       -0.014688776562 Rises=F Damp=F
 DIIS: error= 2.30D-03 at cycle   3 NSaved=   3.
 NSaved= 3 IEnMin= 3 EnMin= -151.518333114828     IErMin= 3 ErrMin= 2.30D-03
 ErrMax= 2.30D-03 EMaxC= 1.00D-01 BMatC= 4.88D-04 BMatP= 2.49D-02
 IDIUse=3 WtCom= 9.77D-01 WtEn= 2.30D-02
 Coeff-Com:  0.670D-01 0.156D+00 0.777D+00
 Coeff-En:   0.000D+00 0.000D+00 0.100D+01
 Coeff:      0.655D-01 0.152D+00 0.782D+00
 Gap=     0.415 Goal=   None    Shift=    0.000
 RMSDP=8.55D-05 MaxDP=1.24D-03 DE=-1.47D-02 OVMax= 4.24D-03

 Cycle   4  Pass 1  IDiag  1:
 RMSU=  4.06D-05    CP:  9.88D-01  6.13D-01  1.00D+00
 FoFJK:  IHMeth= 1 ICntrl=     0 DoSepK=T KAlg= 1 I1Cent= 0 FoldK=F
 E= -151.518630602844     Delta-E=       -0.000297488016 Rises=F Damp=F
 DIIS: error= 3.97D-04 at cycle   4 NSaved=   4.
 NSaved= 4 IEnMin= 4 EnMin= -151.518630602844     IErMin= 4 ErrMin= 3.97D-04
 ErrMax= 3.97D-04 EMaxC= 1.00D-01 BMatC= 1.50D-05 BMatP= 4.88D-04
 IDIUse=3 WtCom= 9.96D-01 WtEn= 3.97D-03
 Coeff-Com: -0.567D-02-0.884D-02 0.114D+00 0.900D+00
 Coeff-En:   0.000D+00 0.000D+00 0.000D+00 0.100D+01
 Coeff:     -0.564D-02-0.881D-02 0.114D+00 0.901D+00
 Gap=     0.417 Goal=   None    Shift=    0.000
 RMSDP=1.69D-05 MaxDP=6.19D-04 DE=-2.97D-04 OVMax= 7.89D-04

 Cycle   5  Pass 1  IDiag  1:
 RMSU=  7.88D-06    CP:  9.88D-01  6.10D-01  1.03D+00  9.90D-01
 FoFJK:  IHMeth= 1 ICntrl=     0 DoSepK=T KAlg= 1 I1Cent= 0 FoldK=F
 E= -151.518640666290     Delta-E=       -0.000010063446 Rises=F Damp=F
 DIIS: error= 5.40D-05 at cycle   5 NSaved=   5.
 NSaved= 5 IEnMin= 5 EnMin= -151.518640666290     IErMin= 5 ErrMin= 5.40D-05
 ErrMax= 5.40D-05 EMaxC= 1.00D-01 BMatC= 1.05D-07 BMatP= 1.50D-05
 IDIUse=1 WtCom= 1.00D+00 WtEn= 0.00D+00
 Coeff-Com: -0.699D-03-0.197D-02-0.270D-01-0.856D-01 0.112D+01
 Coeff:     -0.699D-03-0.197D-02-0.270D-01-0.856D-01 0.112D+01
 Gap=     0.417 Goal=   None    Shift=    0.000
 RMSDP=3.67D-06 MaxDP=6.99D-05 DE=-1.01D-05 OVMax= 2.18D-04

 Cycle   6  Pass 1  IDiag  1:
 RMSU=  1.13D-06    CP:  9.88D-01  6.11D-01  1.03D+00  1.01D+00  1.26D+00
[...]
 Requested convergence on RMS density matrix=1.00D-08 within 128 cycles.
 Requested convergence on MAX density matrix=1.00D-06.
 Requested convergence on             energy=1.00D-06.
 No special actions if energy rises.
 Using DIIS extrapolation, IDIIS=  1040.
 Integral symmetry usage will be decided dynamically.
       126823 words used for storage of precomputed grid.
 IEnd=      305770 IEndB=      305770 NGot=  1073741824 MDV=  1073505365
 LenX=  1073505365 LenY=  1073452483
 Fock matrices will be formed incrementally for  20 cycles.

 Cycle   1  Pass 1  IDiag  1:
 FoFJK:  IHMeth= 1 ICntrl=     0 DoSepK=T KAlg= 1 I1Cent= 0 FoldK=F
 FoFCou: FMM=F IPFlag=           0 FMFlag=      100000 FMFlg1=           0
         NFxFlg=           0 DoJE=T BraDBF=F KetDBF=F FulRan=T
         Omega=  0.000000  0.000000  1.000000  0.000000  0.000000 ICntrl=     500 IOpCl=  0
         NMat0=    1 NMatS0=    1 NMatT0=    0 NMatD0=    1 NMtDS0=    0 NMtDT0=    0
         I1Cent=           0 NGrid=           0.
 Symmetry not used in FoFCou.
 E= -2753.43565032647    
 DIIS: error= 1.92D-04 at cycle   1 NSaved=   1.
 NSaved= 1 IEnMin= 1 EnMin= -2753.43565032647     IErMin= 1 ErrMin= 1.92D-04
 ErrMax= 1.92D-04 EMaxC= 1.00D-01 BMatC= 5.08D-06 BMatP= 5.08D-06
 IDIUse=3 WtCom= 9.98D-01 WtEn= 1.92D-03
 Coeff-Com:  0.100D+01
 Coeff-En:   0.100D+01
 Coeff:      0.100D+01
 Gap=     0.531 Goal=   None    Shift=    0.000
 RMSDP=1.12D-05 MaxDP=4.76D-04              OVMax= 2.92D-04

 Cycle   2  Pass 1  IDiag  1:
 RMSU=  7.90D-06    CP:  1.00D+00
 FoFJK:  IHMeth= 1 ICntrl=     0 DoSepK=T KAlg= 1 I1Cent= 0 FoldK=F
 E= -2753.43565087219     Delta-E=       -0.000000545718 Rises=F Damp=F
 DIIS: error= 5.01D-06 at cycle   2 NSaved=   2.
 NSaved= 2 IEnMin= 2 EnMin= -2753.43565087219     IErMin= 2 ErrMin= 5.01D-06
 ErrMax= 5.01D-06 EMaxC= 1.00D-01 BMatC= 3.46D-09 BMatP= 5.08D-06
 IDIUse=1 WtCom= 1.00D+00 WtEn= 0.00D+00
 Coeff-Com: -0.775D-02 0.101D+01
 Coeff:     -0.775D-02 0.101D+01
 Gap=     0.531 Goal=   None    Shift=    0.000
 DSYEVD returned Info=       19799 IAlg= 4 N=   197 NDim=   197 NE2=     5448996 trying DSYEV.
 RMSDP=9.94D-07 MaxDP=4.32D-05 DE=-5.46D-07 OVMax= 4.32D-05

 Cycle   3  Pass 1  IDiag  1:
 RMSU=  4.24D-07    CP:  1.00D+00  1.07D+00
 FoFJK:  IHMeth= 1 ICntrl=     0 DoSepK=T KAlg= 1 I1Cent= 0 FoldK=F
 E= -2753.43565087810     Delta-E=       -0.000000005916 Rises=F Damp=F
 DIIS: error= 7.44D-07 at cycle   3 NSaved=   3.
 NSaved= 3 IEnMin= 3 EnMin= -2753.43565087810     IErMin= 3 ErrMin= 7.44D-07
 ErrMax= 7.44D-07 EMaxC= 1.00D-01 BMatC= 8.33D-11 BMatP= 3.46D-09
 IDIUse=1 WtCom= 1.00D+00 WtEn= 0.00D+00
 Coeff-Com:  0.263D-03-0.115D+00 0.111D+01
 Coeff:      0.263D-03-0.115D+00 0.111D+01
 Gap=     0.531 Goal=   None    Shift=    0.000
 RMSDP=1.44D-07 MaxDP=5.17D-06 DE=-5.92D-09 OVMax= 8.62D-06

 Cycle   4  Pass 1  IDiag  1:
 RMSU=  4.65D-08    CP:  1.00D+00  1.07D+00  1.20D+00
 FoFJK:  IHMeth= 1 ICntrl=     0 DoSepK=T KAlg= 1 I1Cent= 0 FoldK=F
 E= -2753.43565087827     Delta-E=       -0.000000000163 Rises=F Damp=F
 DIIS: error= 3.27D-07 at cycle   4 NSaved=   4.
 NSaved= 4 IEnMin= 4 EnMin= -2753.43565087827     IErMin= 4 ErrMin= 3.27D-07
 ErrMax= 3.27D-07 EMaxC= 1.00D-01 BMatC= 6.68D-12 BMatP= 8.33D-11
 IDIUse=1 WtCom= 1.00D+00 WtEn= 0.00D+00
 Coeff-Com:  0.180D-03-0.424D-01 0.257D+00 0.785D+00
 Coeff:      0.180D-03-0.424D-01 0.257D+00 0.785D+00
 Gap=     0.531 Goal=   None    Shift=    0.000
 RMSDP=1.82D-08 MaxDP=6.63D-07 DE=-1.63D-10 OVMax= 1.07D-06

 Cycle   5  Pass 1  IDiag  1:
 RMSU=  7.73D-09    CP:  1.00D+00  1.07D+00  1.22D+00  1.12D+00
 FoFJK:  IHMeth= 1 ICntrl=     0 DoSepK=T KAlg= 1 I1Cent= 0 FoldK=F
 E= -2753.43565087827     Delta-E=       -0.000000000002 Rises=F Damp=F
 DIIS: error= 2.95D-08 at cycle   5 NSaved=   5.
 NSaved= 5 IEnMin= 5 EnMin= -2753.43565087827     IErMin= 5 ErrMin= 2.95D-08
 ErrMax= 2.95D-08 EMaxC= 1.00D-01 BMatC= 1.21D-13 BMatP= 6.68D-12
 IDIUse=1 WtCom= 1.00D+00 WtEn= 0.00D+00
 Coeff-Com: -0.225D-04 0.748D-02-0.627D-01-0.428D-01 0.110D+01
 Coeff:     -0.225D-04 0.748D-02-0.627D-01-0.428D-01 0.110D+01
 Gap=     0.531 Goal=   None    Shift=    0.000
 RMSDP=7.65D-09 MaxDP=3.30D-07 DE=-1.82D-12 OVMax= 3.49D-07

 SCF Done:  E(RLC-wPBE) =  -2753.43565088     A.U. after    5 cycles
             Convg  =    0.7650D-08             -V/T =  2.0014
 KE= 2.749528556470D+03 PE=-6.578941467694D+03 EE= 1.075977260346D+03
 Leave Link  502 at Tue May 12 10:39:53 2020, MaxMem= 1073741824 cpu:      93.3
 (Enter /home/matheus/.gaussian/g09/l122.exe)
 Restoring MOs from calculation   4 to rwf.
 Counterpoise: doing MCBS calculation for fragment   1
 Leave Link  122 at Tue May 12 10:39:53 2020, MaxMem= 1073741824 cpu:       0.0
 (Enter /home/matheus/.gaussian/g09/l301.exe)
 Basis read from rwf:  (5D, 7F)
 No pseudopotential information found on rwf file.
 There are   138 symmetry adapted basis functions of A   symmetry.
 Integral buffers will be    131072 words long.
 Raffenetti 2 integral format.
 Two-electron integral symmetry is turned on.
   138 basis functions,   198 primitive gaussians,   160 cartesian basis functions
     9 alpha electrons        9 beta electrons
       nuclear repulsion energy        36.6600463863 Hartrees.
 IExCor=32609 DFT=T Ex+Corr=LC-wPBE ExCW=0 ScaHFX=  1.000000
 ScaDFX=  1.000000  0.000000  1.000000  1.000000 ScalE2=  1.000000  1.000000
 IRadAn=      5 IRanWt=     -1 IRanGd=            0 ICorTp=0
  HFx wShort=  0.000000 wLong=  0.400000 cFull=  0.000000 cShort=  0.000000 cLong=  1.000000
  DFx wShort=  0.000000 wLong=  0.400000 cFull=  0.000000 cShort=  0.000000 cLong=  1.000000
 NAtoms=    5 NActive=    4 NUniq=    4 SFac= 1.00D+00 NAtFMM=   60 NAOKFM=F Big=F
 No density basis found on file   718.
 Leave Link  301 at Tue May 12 10:39:54 2020, MaxMem= 1073741824 cpu:       0.2
 (Enter /home/matheus/.gaussian/g09/l302.exe)
 NPDir=0 NMtPBC=     1 NCelOv=     1 NCel=       1 NClECP=     1 NCelD=      1
         NCelK=      1 NCelE2=     1 NClLst=     1 CellRange=     0.0.
 One-electron integrals computed using PRISM.
 NBasis=   138 RedAO= T  NBF=   138
 NBsUse=   138 1.00D-06 NBFU=   138
 Precomputing XC quadrature grid using
 IXCGrd= 2 IRadAn=           5 IRanWt=          -1 IRanGd=           0 AccXCQ= 0.00D+00.
 NRdTot=     344 NPtTot=       92556 NUsed=       95038 NTot=       95070
 NSgBfM=   160   160   160   160   160 NAtAll=     4     4.
 Leave Link  302 at Tue May 12 10:39:54 2020, MaxMem= 1073741824 cpu:       0.7
 (Enter /home/matheus/.gaussian/g09/l303.exe)
 DipDrv:  MaxL=1.
 Leave Link  303 at Tue May 12 10:39:54 2020, MaxMem= 1073741824 cpu:       0.1
 (Enter /home/matheus/.gaussian/g09/l401.exe)
 Initial guess read from the read-write file.
 Guess basis will be translated and rotated to current coordinates.
 Initial guess orbital symmetries:
       Occupied  (A) (A) (A) (A) (A) (A) (A) (A) (A)
       Virtual   (A) (A) (A) (A) (A) (A) (A) (A) (A) (A) (A) (A)
                 (A) (A) (A) (A) (A) (A) (A) (A) (A) (A) (A) (A)
                 (A) (A) (A) (A) (A) (A) (A) (A) (A) (A) (A) (A)
                 (A) (A) (A) (A) (A) (A) (A) (A) (A) (A) (A) (A)
                 (A) (A) (A) (A) (A) (A) (A) (A) (A) (A) (A) (A)
                 (A) (A) (A) (A) (A) (A) (A) (A) (A) (A) (A) (A)
                 (A) (A) (A) (A) (A) (A) (A) (A) (A) (A) (A) (A)
                 (A) (A) (A) (A) (A) (A) (A) (A) (A) (A) (A) (A)
                 (A) (A) (A) (A) (A) (A) (A) (A) (A) (A) (A) (A)
                 (A) (A) (A) (A) (A) (A) (A) (A) (A) (A) (A) (A)
                 (A) (A) (A) (A) (A) (A) (A) (A) (A)
 The electronic state of the initial guess is 1-A.
 Generating alternative initial guess.
 Harris functional with IExCor=32609 diagonalized for initial guess.
 ExpMin= 2.53D-02 ExpMax= 1.53D+04 ExpMxC= 5.22D+02 IAcc=3 IRadAn=         5 AccDes= 0.00D+00
 HarFok:  IExCor=32609 AccDes= 0.00D+00 IRadAn=         5 IDoV= 1
 ScaDFX=  1.000000  1.000000  1.000000  1.000000
 FoFCou: FMM=F IPFlag=           0 FMFlag=      100000 FMFlg1=           0
         NFxFlg=           0 DoJE=T BraDBF=F KetDBF=T FulRan=T
         Omega=  0.000000  0.000000  1.000000  0.000000  0.000000 ICntrl=     500 IOpCl=  0
         NMat0=    1 NMatS0=    1 NMatT0=    0 NMatD0=    1 NMtDS0=    0 NMtDT0=    0
         I1Cent=           4 NGrid=           0.
 Petite list used in FoFCou.
 Harris En= -151.499567649487    
 Leave Link  401 at Tue May 12 10:39:54 2020, MaxMem= 1073741824 cpu:       2.5
 (Enter /home/matheus/.gaussian/g09/l502.exe)
 Closed shell SCF:
 Requested convergence on RMS density matrix=1.00D-08 within 128 cycles.
 Requested convergence on MAX density matrix=1.00D-06.
 Requested convergence on             energy=1.00D-06.
 No special actions if energy rises.
 Using DIIS extrapolation, IDIIS=  1040.
 Integral symmetry usage will be decided dynamically.
        94980 words used for storage of precomputed grid.
 IEnd=      192360 IEndB=      192360 NGot=  1073741824 MDV=  1073591865
 LenX=  1073591865 LenY=  1073565824
 Fock matrices will be formed incrementally for  20 cycles.

 Cycle   1  Pass 1  IDiag  1:
 FoFJK:  IHMeth= 1 ICntrl=     0 DoSepK=T KAlg= 1 I1Cent= 0 FoldK=F
 FoFCou: FMM=F IPFlag=           0 FMFlag=      100000 FMFlg1=           0
         NFxFlg=           0 DoJE=T BraDBF=F KetDBF=F FulRan=T
         Omega=  0.000000  0.000000  1.000000  0.000000  0.000000 ICntrl=     500 IOpCl=  0
         NMat0=    1 NMatS0=    1 NMatT0=    0 NMatD0=    1 NMtDS0=    0 NMtDT0=    0
         I1Cent=           0 NGrid=           0.
 Symmetry not used in FoFCou.
 E= -151.518640966172    
 DIIS: error= 2.51D-06 at cycle   1 NSaved=   1.
 NSaved= 1 IEnMin= 1 EnMin= -151.518640966172     IErMin= 1 ErrMin= 2.51D-06
 ErrMax= 2.51D-06 EMaxC= 1.00D-01 BMatC= 1.27D-09 BMatP= 1.27D-09
 IDIUse=1 WtCom= 1.00D+00 WtEn= 0.00D+00
 Coeff-Com:  0.100D+01
 Coeff:      0.100D+01
 Gap=     0.417 Goal=   None    Shift=    0.000
 RMSDP=2.74D-07 MaxDP=6.40D-06              OVMax= 9.88D-06

 Cycle   2  Pass 1  IDiag  1:
 RMSU=  1.94D-07    CP:  1.00D+00
 FoFJK:  IHMeth= 1 ICntrl=     0 DoSepK=T KAlg= 1 I1Cent= 0 FoldK=F
 E= -151.518640967408     Delta-E=       -0.000000001236 Rises=F Damp=F
 DIIS: error= 4.82D-07 at cycle   2 NSaved=   2.
 NSaved= 2 IEnMin= 2 EnMin= -151.518640967408     IErMin= 2 ErrMin= 4.82D-07
 ErrMax= 4.82D-07 EMaxC= 1.00D-01 BMatC= 4.89D-11 BMatP= 1.27D-09
 IDIUse=1 WtCom= 1.00D+00 WtEn= 0.00D+00
 Coeff-Com: -0.121D+00 0.112D+01
 Coeff:     -0.121D+00 0.112D+01
 Gap=     0.417 Goal=   None    Shift=    0.000
 RMSDP=6.69D-08 MaxDP=1.96D-06 DE=-1.24D-09 OVMax= 3.21D-06

 Cycle   3  Pass 1  IDiag  1:
 RMSU=  2.20D-08    CP:  1.00D+00  1.22D+00
 FoFJK:  IHMeth= 1 ICntrl=     0 DoSepK=T KAlg= 1 I1Cent= 0 FoldK=F
 E= -151.518640967492     Delta-E=       -0.000000000085 Rises=F Damp=F
 DIIS: error= 1.67D-07 at cycle   3 NSaved=   3.
 NSaved= 3 IEnMin= 3 EnMin= -151.518640967492     IErMin= 3 ErrMin= 1.67D-07
 ErrMax= 1.67D-07 EMaxC= 1.00D-01 BMatC= 4.20D-12 BMatP= 4.89D-11
 IDIUse=1 WtCom= 1.00D+00 WtEn= 0.00D+00
 Coeff-Com: -0.265D-01 0.842D-01 0.942D+00
 Coeff:     -0.265D-01 0.842D-01 0.942D+00
 Gap=     0.417 Goal=   None    Shift=    0.000
 RMSDP=1.66D-08 MaxDP=3.80D-07 DE=-8.46D-11 OVMax= 1.10D-06

 Cycle   4  Pass 1  IDiag  1:
 RMSU=  8.01D-09    CP:  1.00D+00  1.26D+00  1.15D+00
 FoFJK:  IHMeth= 1 ICntrl=     0 DoSepK=T KAlg= 1 I1Cent= 0 FoldK=F
 E= -151.518640967497     Delta-E=       -0.000000000005 Rises=F Damp=F
 DIIS: error= 1.60D-07 at cycle   4 NSaved=   4.
 NSaved= 4 IEnMin= 4 EnMin= -151.518640967497     IErMin= 4 ErrMin= 1.60D-07
 ErrMax= 1.60D-07 EMaxC= 1.00D-01 BMatC= 2.99D-12 BMatP= 4.20D-12
 IDIUse=1 WtCom= 1.00D+00 WtEn= 0.00D+00
 Coeff-Com: -0.370D-03-0.790D-01 0.480D+00 0.599D+00
 Coeff:     -0.370D-03-0.790D-01 0.480D+00 0.599D+00
 Gap=     0.417 Goal=   None    Shift=    0.000
 RMSDP=7.83D-09 MaxDP=2.00D-07 DE=-5.29D-12 OVMax= 6.04D-07

 SCF Done:  E(RLC-wPBE) =  -151.518640967     A.U. after    4 cycles
             Convg  =    0.7826D-08             -V/T =  2.0066
 KE= 1.505265482887D+02 PE=-4.315691448516D+02 EE= 9.286390920909D+01
 Leave Link  502 at Tue May 12 10:39:58 2020, MaxMem= 1073741824 cpu:      30.8
 (Enter /home/matheus/.gaussian/g09/l122.exe)
 Restoring MOs from calculation   5 to rwf.
 Counterpoise: doing MCBS calculation for fragment   2
 Leave Link  122 at Tue May 12 10:39:58 2020, MaxMem= 1073741824 cpu:       0.0
 (Enter /home/matheus/.gaussian/g09/l301.exe)
 Basis read from rwf:  (5D, 7F)
 No pseudopotential information found on rwf file.
 There are    59 symmetry adapted basis functions of A   symmetry.
 Integral buffers will be    131072 words long.
 Raffenetti 2 integral format.
 Two-electron integral symmetry is turned on.
    59 basis functions,   217 primitive gaussians,    69 cartesian basis functions
    18 alpha electrons       18 beta electrons
       nuclear repulsion energy         0.0000000000 Hartrees.
 IExCor=32609 DFT=T Ex+Corr=LC-wPBE ExCW=0 ScaHFX=  1.000000
 ScaDFX=  1.000000  0.000000  1.000000  1.000000 ScalE2=  1.000000  1.000000
 IRadAn=      5 IRanWt=     -1 IRanGd=            0 ICorTp=0
  HFx wShort=  0.000000 wLong=  0.400000 cFull=  0.000000 cShort=  0.000000 cLong=  1.000000
  DFx wShort=  0.000000 wLong=  0.400000 cFull=  0.000000 cShort=  0.000000 cLong=  1.000000
 NAtoms=    5 NActive=    1 NUniq=    1 SFac= 1.00D+00 NAtFMM=   60 NAOKFM=F Big=F
 No density basis found on file   718.
 Leave Link  301 at Tue May 12 10:39:58 2020, MaxMem= 1073741824 cpu:       0.2
 (Enter /home/matheus/.gaussian/g09/l302.exe)
 NPDir=0 NMtPBC=     1 NCelOv=     1 NCel=       1 NClECP=     1 NCelD=      1
         NCelK=      1 NCelE2=     1 NClLst=     1 CellRange=     0.0.
 One-electron integrals computed using PRISM.
 NBasis=    59 RedAO= T  NBF=    59
 NBsUse=    59 1.00D-06 NBFU=    59
 Precomputing XC quadrature grid using
 IXCGrd= 2 IRadAn=           5 IRanWt=          -1 IRanGd=           0 AccXCQ= 0.00D+00.
 NRdTot=      81 NPtTot=       30352 NUsed=       30981 NTot=       31013
 NSgBfM=    69    69    69    69    69 NAtAll=     1     1.
 Leave Link  302 at Tue May 12 10:39:58 2020, MaxMem= 1073741824 cpu:       0.7
 (Enter /home/matheus/.gaussian/g09/l303.exe)
 DipDrv:  MaxL=1.
 Leave Link  303 at Tue May 12 10:39:58 2020, MaxMem= 1073741824 cpu:       0.2
 (Enter /home/matheus/.gaussian/g09/l401.exe)
 Initial guess read from the read-write file.
 Guess basis will be translated and rotated to current coordinates.
 Initial guess orbital symmetries:
       Occupied  (A) (A) (A) (A) (A) (A) (A) (A) (A) (A) (A) (A)
                 (A) (A) (A) (A) (A) (A)
       Virtual   (A) (A) (A) (A) (A) (A) (A) (A) (A) (A) (A) (A)
                 (A) (A) (A) (A) (A) (A) (A) (A) (A) (A) (A) (A)
                 (A) (A) (A) (A) (A) (A) (A) (A) (A) (A) (A) (A)
                 (A) (A) (A) (A) (A)
 The electronic state of the initial guess is 1-A.
 Generating alternative initial guess.
 Harris functional with IExCor=32609 diagonalized for initial guess.
 ExpMin= 4.00D-02 ExpMax= 1.17D+07 ExpMxC= 1.33D+04 IAcc=3 IRadAn=         5 AccDes= 0.00D+00
 HarFok:  IExCor=32609 AccDes= 0.00D+00 IRadAn=         5 IDoV= 1
 ScaDFX=  1.000000  1.000000  1.000000  1.000000
 FoFCou: FMM=F IPFlag=           0 FMFlag=      100000 FMFlg1=           0
         NFxFlg=           0 DoJE=T BraDBF=F KetDBF=T FulRan=T
         Omega=  0.000000  0.000000  1.000000  0.000000  0.000000 ICntrl=     500 IOpCl=  0
         NMat0=    1 NMatS0=    1 NMatT0=    0 NMatD0=    1 NMtDS0=    0 NMtDT0=    0
         I1Cent=           4 NGrid=           0.
 Petite list used in FoFCou.
 Harris En= -2753.24576836237    
 Leave Link  401 at Tue May 12 10:39:58 2020, MaxMem= 1073741824 cpu:       1.4
 (Enter /home/matheus/.gaussian/g09/l502.exe)
 Closed shell SCF:
 Requested convergence on RMS density matrix=1.00D-08 within 128 cycles.
 Requested convergence on MAX density matrix=1.00D-06.
 Requested convergence on             energy=1.00D-06.
 No special actions if energy rises.
 Using DIIS extrapolation, IDIIS=  1040.
 Integral symmetry usage will be decided dynamically.
        30923 words used for storage of precomputed grid.
 IEnd=       64406 IEndB=       64406 NGot=  1073741824 MDV=  1073698889
 LenX=  1073698889 LenY=  1073693687
 Fock matrices will be formed incrementally for  20 cycles.

 Cycle   1  Pass 1  IDiag  1:
 FoFJK:  IHMeth= 1 ICntrl=     0 DoSepK=T KAlg= 1 I1Cent= 0 FoldK=F
 FoFCou: FMM=F IPFlag=           0 FMFlag=      100000 FMFlg1=           0
         NFxFlg=           0 DoJE=T BraDBF=F KetDBF=F FulRan=T
         Omega=  0.000000  0.000000  1.000000  0.000000  0.000000 ICntrl=     500 IOpCl=  0
         NMat0=    1 NMatS0=    1 NMatT0=    0 NMatD0=    1 NMtDS0=    0 NMtDT0=    0
         I1Cent=           0 NGrid=           0.
 Symmetry not used in FoFCou.
 E= -2753.43563276534    
 DIIS: error= 9.72D-14 at cycle   1 NSaved=   1.
 NSaved= 1 IEnMin= 1 EnMin= -2753.43563276534     IErMin= 1 ErrMin= 9.72D-14
 ErrMax= 9.72D-14 EMaxC= 1.00D-01 BMatC= 3.09D-25 BMatP= 3.09D-25
 IDIUse=1 WtCom= 1.00D+00 WtEn= 0.00D+00
 Coeff-Com:  0.100D+01
 Coeff:      0.100D+01
 Gap=     0.599 Goal=   None    Shift=    0.000
 DSYEVD returned Info=          89 IAlg= 4 N=    59 NDim=    59 NE2=    18198197 trying DSYEV.
 RMSDP=4.73D-15 MaxDP=1.12D-13              OVMax= 2.81D-14

 SCF Done:  E(RLC-wPBE) =  -2753.43563277     A.U. after    1 cycles
             Convg  =    0.4733D-14             -V/T =  2.0014
 KE= 2.749535160915D+03 PE=-6.578948648680D+03 EE= 1.075977855000D+03
 Leave Link  502 at Tue May 12 10:40:00 2020, MaxMem= 1073741824 cpu:      11.9
 (Enter /home/matheus/.gaussian/g09/l122.exe)
 Restoring MOs from calculation   1 to rwf.
 Counterpoise: corrected energy =   -2904.954375405159
 Counterpoise: BSSE energy =       0.000021875461
 Leave Link  122 at Tue May 12 10:40:00 2020, MaxMem= 1073741824 cpu:       0.0
 (Enter /home/matheus/.gaussian/g09/l108.exe)
 Scan completed.

 Summary of the potential surface scan:
   N      R1          SCF    
 ----  ---------  -----------
    1     3.0000  -2753.43563
    2     3.1000  -2753.43563
    3     3.2000  -2753.43563
    4     3.3000  -2753.43563
    5     3.4000  -2753.43563
    6     3.5000  -2753.43563
    7     3.6000  -2753.43563
    8     3.7000  -2753.43563
    9     3.8000  -2753.43563
   10     3.9000  -2753.43563
   11     4.0000  -2753.43563
   12     4.1000  -2753.43563
   13     4.2000  -2753.43563
   14     4.3000  -2753.43563
   15     4.4000  -2753.43563
   16     4.5000  -2753.43563
   17     4.6000  -2753.43563
   18     4.7000  -2753.43563
   19     4.8000  -2753.43563
   20     4.9000  -2753.43563
   21     5.0000  -2753.43563
 ----  ---------  -----------
  
 Leave Link  108 at Tue May 12 10:40:00 2020, MaxMem= 1073741824 cpu:       0.0
 (Enter /home/matheus/.gaussian/g09/l9999.exe)
 1\1\GINC-REDGIANT\Scan\RLC-wPBE\Aug-CC-pVTZ\H2Kr1O2\MATHEUS\12-May-202
 0\1\\#p lc-wpbe/aug-cc-PVTz int=ultrafine counterpoise=2 Scan\\TCC\\0,
 1\O,0,0.,0.,0.725\O,0,0.,0.,-0.725\H,0,0.4593602974,0.795635374,1.0235
 104166\H,0,0.,0.9187205947,-1.0235104166\Kr,0,0.,R1,0.\\R1=3.,s,20,0.1
 \\Version=EM64L-G09RevC.01\State=1-A\HF=-2753.4356328,-2753.4356328,-2
 753.4356328,-2753.4356328,-2753.4356328,-2753.4356328,-2753.4356328,-2
 753.4356328,-2753.4356328,-2753.4356328,-2753.4356328,-2753.4356328,-2
 753.4356328,-2753.4356328,-2753.4356328,-2753.4356328,-2753.4356328,-2
 753.4356328,-2753.4356328,-2753.4356328,-2753.4356328\RMSD=1.428e-09,5
 .221e-11,1.075e-11,2.471e-12,6.363e-13,1.589e-13,4.591e-14,1.254e-14,9
 .541e-15,7.807e-15,5.036e-15,4.934e-15,3.903e-15,4.394e-15,5.310e-15,8
 .649e-15,4.523e-15,6.847e-15,8.943e-15,5.036e-15,4.733e-15\PG=C01 [X(H
 2Kr1O2)]\\@


 Just remember, when you're over the hill, you begin to pick up speed.
 -- Charles Schulz
 Job cpu time:  0 days  3 hours 15 minutes  6.6 seconds.
 File lengths (MBytes):  RWF=     33 Int=      0 D2E=      0 Chk=      8 Scr=      1
 Normal termination of Gaussian 09 at Tue May 12 10:40:00 2020.
