 Entering Gaussian System, Link 0=g09
 Input=/home/matheus/.tcc/Inputs/Inputs-lc-wpbe-default/H2O2-Kr_5.com
 Output=/home/matheus/.tcc/Logs/Logs-lc-wpbe-default/H2O2-Kr_5.log
 Initial command:
 /home/matheus/.gaussian/g09/l1.exe /home/matheus/.gaussian/g09/scratch/Gau-703.inp -scrdir=/home/matheus/.gaussian/g09/scratch/
 Entering Link 1 = /home/matheus/.gaussian/g09/l1.exe PID=       707.
  
 Copyright (c) 1988,1990,1992,1993,1995,1998,2003,2009,2011,
            Gaussian, Inc.  All Rights Reserved.
  
 This is part of the Gaussian(R) 09 program.  It is based on
 the Gaussian(R) 03 system (copyright 2003, Gaussian, Inc.),
 the Gaussian(R) 98 system (copyright 1998, Gaussian, Inc.),
 the Gaussian(R) 94 system (copyright 1995, Gaussian, Inc.),
 the Gaussian 92(TM) system (copyright 1992, Gaussian, Inc.),
 the Gaussian 90(TM) system (copyright 1990, Gaussian, Inc.),
 the Gaussian 88(TM) system (copyright 1988, Gaussian, Inc.),
 the Gaussian 86(TM) system (copyright 1986, Carnegie Mellon
 University), and the Gaussian 82(TM) system (copyright 1983,
 Carnegie Mellon University). Gaussian is a federally registered
 trademark of Gaussian, Inc.
  
 This software contains proprietary and confidential information,
 including trade secrets, belonging to Gaussian, Inc.
  
 This software is provided under written license and may be
 used, copied, transmitted, or stored only in accord with that
 written license.
  
 The following legend is applicable only to US Government
 contracts under FAR:
  
                    RESTRICTED RIGHTS LEGEND
  
 Use, reproduction and disclosure by the US Government is
 subject to restrictions as set forth in subparagraphs (a)
 and (c) of the Commercial Computer Software - Restricted
 Rights clause in FAR 52.227-19.
  
 Gaussian, Inc.
 340 Quinnipiac St., Bldg. 40, Wallingford CT 06492
  
  
 ---------------------------------------------------------------
 Warning -- This program may not be used in any manner that
 competes with the business of Gaussian, Inc. or will provide
 assistance to any competitor of Gaussian, Inc.  The licensee
 of this program is prohibited from giving any competitor of
 Gaussian, Inc. access to this program.  By using this program,
 the user acknowledges that Gaussian, Inc. is engaged in the
 business of creating and licensing software in the field of
 computational chemistry and represents and warrants to the
 licensee that it is not a competitor of Gaussian, Inc. and that
 it will not use this program in any manner prohibited above.
 ---------------------------------------------------------------
  

 Cite this work as:
 Gaussian 09, Revision C.01,
 M. J. Frisch, G. W. Trucks, H. B. Schlegel, G. E. Scuseria, 
 M. A. Robb, J. R. Cheeseman, G. Scalmani, V. Barone, B. Mennucci, 
 G. A. Petersson, H. Nakatsuji, M. Caricato, X. Li, H. P. Hratchian, 
 A. F. Izmaylov, J. Bloino, G. Zheng, J. L. Sonnenberg, M. Hada, 
 M. Ehara, K. Toyota, R. Fukuda, J. Hasegawa, M. Ishida, T. Nakajima, 
 Y. Honda, O. Kitao, H. Nakai, T. Vreven, J. A. Montgomery, Jr., 
 J. E. Peralta, F. Ogliaro, M. Bearpark, J. J. Heyd, E. Brothers, 
 K. N. Kudin, V. N. Staroverov, T. Keith, R. Kobayashi, J. Normand, 
 K. Raghavachari, A. Rendell, J. C. Burant, S. S. Iyengar, J. Tomasi, 
 M. Cossi, N. Rega, J. M. Millam, M. Klene, J. E. Knox, J. B. Cross, 
 V. Bakken, C. Adamo, J. Jaramillo, R. Gomperts, R. E. Stratmann, 
 O. Yazyev, A. J. Austin, R. Cammi, C. Pomelli, J. W. Ochterski, 
 R. L. Martin, K. Morokuma, V. G. Zakrzewski, G. A. Voth, 
 P. Salvador, J. J. Dannenberg, S. Dapprich, A. D. Daniels, 
 O. Farkas, J. B. Foresman, J. V. Ortiz, J. Cioslowski, 
 and D. J. Fox, Gaussian, Inc., Wallingford CT, 2010.
 
 ******************************************
 Gaussian 09:  EM64L-G09RevC.01 23-Sep-2011
                12-May-2020 
 ******************************************
 %mem=8GB
 %nproc=8
 Will use up to    8 processors via shared memory.
 --------------------------------------------------------
 #p lc-wpbe/aug-cc-PVTz int=ultrafine counterpoise=2 Scan
 --------------------------------------------------------
 1/38=1,60=1,62=2/1,8;
 2/12=2,17=6,18=5,29=3,40=1/2;
 1/38=1,53=5172,62=2/22;
 3/5=16,6=1,7=10,11=2,16=1,25=1,30=1,74=-41,75=-5/1,2,3;
 4//1;
 5/5=2,38=5/2;
 6/7=2,8=2,9=2,10=2,18=1,28=1/1;
 1/53=4052,62=2,63=1/22;
 3/5=7,6=11,7=10,11=2,16=1,25=1,30=1,74=-41,75=-5,82=7/1,2,3;
 4//1;
 5/5=2,38=5/2;
 6/7=2,8=2,9=2,10=2,18=1,28=1/1;
 1/53=3042,62=2,63=2/22;
 3/5=7,6=11,7=10,11=2,16=1,25=1,30=1,74=-41,75=-5,82=7/1,2,3;
 4//1;
 5/5=2,38=5/2;
 6/7=2,8=2,9=2,10=2,18=1,28=1/1;
 1/53=2032,62=2,63=3/22;
 3/5=7,6=11,7=10,11=2,16=1,25=1,30=1,74=-41,75=-5,82=7/1,2,3;
 4//1;
 5/5=2,38=5/2;
 6/7=2,8=2,9=2,10=2,18=1,28=1/1;
 1/53=1022,62=2,63=4/22;
 3/5=7,6=11,7=10,11=2,16=1,25=1,30=1,74=-41,75=-5,82=7/1,2,3;
 4//1;
 5/5=2,38=5/2;
 6/7=2,8=2,9=2,10=2,18=1,28=1/1;
 1/53=5014,62=2,63=5/22;
 1/60=1,62=2/8(1);
 99/9=1/99;
 2/29=3/2;
 1/53=5173,62=2/22;
 3/5=7,6=11,7=10,11=2,16=1,25=1,30=1,74=-41,75=-5,82=7/1,2,3;
 4/5=5,16=3/1;
 5/5=2,38=5/2;
 1/53=4053,62=2,63=1/22;
 3/5=7,6=11,7=10,11=2,16=1,25=1,30=1,74=-41,75=-5,82=7/1,2,3;
 4/5=5,16=3/1;
 5/5=2,38=5/2;
 1/53=3043,62=2,63=2/22;
 3/5=7,6=11,7=10,11=2,16=1,25=1,30=1,74=-41,75=-5,82=7/1,2,3;
 4/5=5,16=3/1;
 5/5=2,38=5/2;
 1/53=2033,62=2,63=3/22;
 3/5=7,6=11,7=10,11=2,16=1,25=1,30=1,74=-41,75=-5,82=7/1,2,3;
 4/5=5,16=3/1;
 5/5=2,38=5/2;
 1/53=1024,62=2,63=4/22;
 3/5=7,6=11,7=10,11=2,16=1,25=1,30=1,74=-41,75=-5,82=7/1,2,3;
 4/5=5,16=3/1;
 5/5=2,38=5/2;
 1/53=5014,62=2,63=5/22;
 1/60=1,62=2/8(-22);
 99/9=1/99;
 Leave Link    1 at Tue May 12 11:06:31 2020, MaxMem= 1073741824 cpu:       0.2
 (Enter /home/matheus/.gaussian/g09/l101.exe)
 ---
 TCC
 ---
 Charge =  0 Multiplicity = 1 in supermolecule
 Charge =  0 Multiplicity = 1 in fragment  1.
 Charge =  0 Multiplicity = 1 in fragment  2.
 Symbolic Z-Matrix:
 O(Fragment=1)         0.        0.        0.725 
 O(Fragment=1)         0.        0.       -0.725 
 H(Fragment=1)         0.70378   0.59054   1.02351 
 H(Fragment=1)         0.        0.91872  -1.02351 
 Kr(Fragment=2)        0.       R1        0. 
       Variables:
  R1                    3.     Scan 20    0.1    
 
 NAtoms=      5 NQM=        0 NQMF=       0 NMMI=      5 NMMIF=      0
                NMic=       0 NMicF=      0.
                    Isotopes and Nuclear Properties:
 (Nuclear quadrupole moments (NQMom) in fm**2, nuclear magnetic moments (NMagM)
  in nuclear magnetons)

  Atom         1           2           3           4           5
 IAtWgt=          16          16           1           1          84
 AtmWgt=  15.9949146  15.9949146   1.0078250   1.0078250  83.9115064
 NucSpn=           0           0           1           1           0
 AtZEff=   0.0000000   0.0000000   0.0000000   0.0000000   0.0000000
 NQMom=    0.0000000   0.0000000   0.0000000   0.0000000   0.0000000
 NMagM=    0.0000000   0.0000000   2.7928460   2.7928460   0.0000000
 Leave Link  101 at Tue May 12 11:06:31 2020, MaxMem= 1073741824 cpu:       0.3
 (Enter /home/matheus/.gaussian/g09/l108.exe)
 Scan the potential surface.
 Variable   Value     No. Steps Step-Size
 -------- ----------- --------- ---------
     1       3.000000      20      0.1000
 A total of     21 points will be computed.
 Leave Link  108 at Tue May 12 11:06:31 2020, MaxMem= 1073741824 cpu:       0.0
 (Enter /home/matheus/.gaussian/g09/l202.exe)
 ---------------------------------------------------------------------------------------------------
                            Z-MATRIX (ANGSTROMS AND DEGREES)
   CD    Cent   Atom    N1       Length/X        N2       Alpha/Y        N3        Beta/Z          J
 ---------------------------------------------------------------------------------------------------
      1      1  O        0   0.000000          0.000000          0.725000
      2      2  O        0   0.000000          0.000000         -0.725000
      3      3  H        0   0.703781          0.590542          1.023510
      4      4  H        0   0.000000          0.918721         -1.023510
      5      5  Kr       0   0.000000          3.000000          0.000000
 ---------------------------------------------------------------------------------------------------
                         Z-Matrix orientation:                         
 ---------------------------------------------------------------------
 Center     Atomic      Atomic             Coordinates (Angstroms)
 Number     Number       Type             X           Y           Z
 ---------------------------------------------------------------------
      1          8           0        0.000000    0.000000    0.725000
      2          8           0        0.000000    0.000000   -0.725000
      3          1           0        0.703781    0.590542    1.023510
      4          1           0        0.000000    0.918721   -1.023510
      5         36           0        0.000000    3.000000    0.000000
 ---------------------------------------------------------------------
                    Distance matrix (angstroms):
                    1          2          3          4          5
     1  O    0.000000
     2  O    1.450000   0.000000
     3  H    0.966000   1.975180   0.000000
     4  H    1.975180   0.966000   2.189361   0.000000
     5  Kr   3.086361   3.086361   2.710787   2.319331   0.000000
 Stoichiometry    H2KrO2
 Framework group  C1[X(H2KrO2)]
 Deg. of freedom     9
 Full point group                 C1      NOp   1
 Largest Abelian subgroup         C1      NOp   1
 Largest concise Abelian subgroup C1      NOp   1
                         Standard orientation:                         
 ---------------------------------------------------------------------
 Center     Atomic      Atomic             Coordinates (Angstroms)
 Number     Number       Type             X           Y           Z
 ---------------------------------------------------------------------
      1          8           0        2.030392   -0.713331   -0.083900
      2          8           0        2.025023    0.733004    0.018989
      3          1           0        1.447943   -1.063593    0.602558
      4          1           0        1.105248    1.026723    0.048985
      5         36           0       -0.972125   -0.003348   -0.003674
 ---------------------------------------------------------------------
 Rotational constants (GHZ):     26.0306695      2.3732907      2.1836508
 Leave Link  202 at Tue May 12 11:06:31 2020, MaxMem= 1073741824 cpu:       0.0
 (Enter /home/matheus/.gaussian/g09/l122.exe)
 Leave Link  122 at Tue May 12 11:06:31 2020, MaxMem= 1073741824 cpu:       0.0
 (Enter /home/matheus/.gaussian/g09/l301.exe)
 Standard basis: Aug-CC-pVTZ (5D, 7F)
 Ernie: Thresh=  0.10000D-02 Tol=  0.10000D-05 Strict=F.
 Ernie:  38 primitive shells out of 205 were deleted.
 There are   197 symmetry adapted basis functions of A   symmetry.
 Integral buffers will be    131072 words long.
 Raffenetti 2 integral format.
 Two-electron integral symmetry is turned on.
   197 basis functions,   415 primitive gaussians,   229 cartesian basis functions
    27 alpha electrons       27 beta electrons
       nuclear repulsion energy       150.6503454741 Hartrees.
 IExCor=32609 DFT=T Ex+Corr=LC-wPBE ExCW=0 ScaHFX=  1.000000
 ScaDFX=  1.000000  0.000000  1.000000  1.000000 ScalE2=  1.000000  1.000000
 IRadAn=      5 IRanWt=     -1 IRanGd=            0 ICorTp=0
  HFx wShort=  0.000000 wLong=  0.400000 cFull=  0.000000 cShort=  0.000000 cLong=  1.000000
  DFx wShort=  0.000000 wLong=  0.400000 cFull=  0.000000 cShort=  0.000000 cLong=  1.000000
 NAtoms=    5 NActive=    5 NUniq=    5 SFac= 1.00D+00 NAtFMM=   60 NAOKFM=F Big=F
 Leave Link  301 at Tue May 12 11:06:31 2020, MaxMem= 1073741824 cpu:       0.2
 (Enter /home/matheus/.gaussian/g09/l302.exe)
 NPDir=0 NMtPBC=     1 NCelOv=     1 NCel=       1 NClECP=     1 NCelD=      1
         NCelK=      1 NCelE2=     1 NClLst=     1 CellRange=     0.0.
 One-electron integrals computed using PRISM.
 NBasis=   197 RedAO= T  NBF=   197
 NBsUse=   197 1.00D-06 NBFU=   197
 Precomputing XC quadrature grid using
 IXCGrd= 2 IRadAn=           5 IRanWt=          -1 IRanGd=           0 AccXCQ= 0.00D+00.
 NRdTot=     427 NPtTot=      123512 NUsed=      126579 NTot=      126611
 NSgBfM=   229   229   229   229   229 NAtAll=     5     5.
 Leave Link  302 at Tue May 12 11:06:31 2020, MaxMem= 1073741824 cpu:       1.0
 (Enter /home/matheus/.gaussian/g09/l303.exe)
 DipDrv:  MaxL=1.
 Leave Link  303 at Tue May 12 11:06:31 2020, MaxMem= 1073741824 cpu:       0.2
 (Enter /home/matheus/.gaussian/g09/l401.exe)
 Harris functional with IExCor=32609 diagonalized for initial guess.
 ExpMin= 2.53D-02 ExpMax= 1.17D+07 ExpMxC= 1.33D+04 IAcc=3 IRadAn=         5 AccDes= 0.00D+00
 HarFok:  IExCor=32609 AccDes= 0.00D+00 IRadAn=         5 IDoV= 1
 ScaDFX=  1.000000  1.000000  1.000000  1.000000
 FoFCou: FMM=F IPFlag=           0 FMFlag=      100000 FMFlg1=           0
         NFxFlg=           0 DoJE=T BraDBF=F KetDBF=T FulRan=T
         Omega=  0.000000  0.000000  1.000000  0.000000  0.000000 ICntrl=     500 IOpCl=  0
         NMat0=    1 NMatS0=    1 NMatT0=    0 NMatD0=    1 NMtDS0=    0 NMtDT0=    0
         I1Cent=           4 NGrid=           0.
 Petite list used in FoFCou.
 Harris En= -2904.73549159691    
 Initial guess orbital symmetries:
       Occupied  (A) (A) (A) (A) (A) (A) (A) (A) (A) (A) (A) (A)
                 (A) (A) (A) (A) (A) (A) (A) (A) (A) (A) (A) (A)
                 (A) (A) (A)
       Virtual   (A) (A) (A) (A) (A) (A) (A) (A) (A) (A) (A) (A)
                 (A) (A) (A) (A) (A) (A) (A) (A) (A) (A) (A) (A)
                 (A) (A) (A) (A) (A) (A) (A) (A) (A) (A) (A) (A)
                 (A) (A) (A) (A) (A) (A) (A) (A) (A) (A) (A) (A)
                 (A) (A) (A) (A) (A) (A) (A) (A) (A) (A) (A) (A)
                 (A) (A) (A) (A) (A) (A) (A) (A) (A) (A) (A) (A)
                 (A) (A) (A) (A) (A) (A) (A) (A) (A) (A) (A) (A)
                 (A) (A) (A) (A) (A) (A) (A) (A) (A) (A) (A) (A)
                 (A) (A) (A) (A) (A) (A) (A) (A) (A) (A) (A) (A)
                 (A) (A) (A) (A) (A) (A) (A) (A) (A) (A) (A) (A)
                 (A) (A) (A) (A) (A) (A) (A) (A) (A) (A) (A) (A)
                 (A) (A) (A) (A) (A) (A) (A) (A) (A) (A) (A) (A)
                 (A) (A) (A) (A) (A) (A) (A) (A) (A) (A) (A) (A)
                 (A) (A) (A) (A) (A) (A) (A) (A) (A) (A) (A) (A)
                 (A) (A)
 The electronic state of the initial guess is 1-A.
 Leave Link  401 at Tue May 12 11:06:32 2020, MaxMem= 1073741824 cpu:       4.4
 (Enter /home/matheus/.gaussian/g09/l502.exe)
 Closed shell SCF:
 Requested convergence on RMS density matrix=1.00D-08 within 128 cycles.
 Requested convergence on MAX density matrix=1.00D-06.
 Requested convergence on             energy=1.00D-06.
 No special actions if energy rises.
 Using DIIS extrapolation, IDIIS=  1040.
 Integral symmetry usage will be decided dynamically.
       126521 words used for storage of precomputed grid.
 IEnd=      305468 IEndB=      305468 NGot=  1073741824 MDV=  1073505667
 LenX=  1073505667 LenY=  1073452785
 Fock matrices will be formed incrementally for  20 cycles.

 Cycle   1  Pass 1  IDiag  1:
 FoFJK:  IHMeth= 1 ICntrl=     0 DoSepK=T KAlg= 1 I1Cent= 0 FoldK=F
 FoFCou: FMM=F IPFlag=           0 FMFlag=      100000 FMFlg1=           0
         NFxFlg=           0 DoJE=T BraDBF=F KetDBF=F FulRan=T
         Omega=  0.000000  0.000000  1.000000  0.000000  0.000000 ICntrl=     500 IOpCl=  0
         NMat0=    1 NMatS0=    1 NMatT0=    0 NMatD0=    1 NMtDS0=    0 NMtDT0=    0
         I1Cent=           0 NGrid=           0.
 Symmetry not used in FoFCou.
 E= -2904.87640177590    
 DIIS: error= 2.81D-02 at cycle   1 NSaved=   1.
 NSaved= 1 IEnMin= 1 EnMin= -2904.87640177590     IErMin= 1 ErrMin= 2.81D-02
 ErrMax= 2.81D-02 EMaxC= 1.00D-01 BMatC= 2.66D-01 BMatP= 2.66D-01
 IDIUse=3 WtCom= 7.19D-01 WtEn= 2.81D-01
 Coeff-Com:  0.100D+01
 Coeff-En:   0.100D+01
 Coeff:      0.100D+01
 Gap=     0.492 Goal=   None    Shift=    0.000
 GapD=    0.492 DampG=2.000 DampE=0.500 DampFc=1.0000 IDamp=-1.
 RMSDP=2.32D-03 MaxDP=1.50D-01              OVMax= 6.23D-02

 Cycle   2  Pass 1  IDiag  1:
 RMSU=  1.61D-03    CP:  1.02D+00
 FoFJK:  IHMeth= 1 ICntrl=     0 DoSepK=T KAlg= 1 I1Cent= 0 FoldK=F
 E= -2904.92055702985     Delta-E=       -0.044155253942 Rises=F Damp=F
 DIIS: error= 1.10D-02 at cycle   2 NSaved=   2.
 NSaved= 2 IEnMin= 2 EnMin= -2904.92055702985     IErMin= 2 ErrMin= 1.10D-02
 ErrMax= 1.10D-02 EMaxC= 1.00D-01 BMatC= 8.22D-02 BMatP= 2.66D-01
 IDIUse=3 WtCom= 8.90D-01 WtEn= 1.10D-01
 Coeff-Com:  0.350D+00 0.650D+00
 Coeff-En:   0.206D+00 0.794D+00
 Coeff:      0.334D+00 0.666D+00
 Gap=     0.445 Goal=   None    Shift=    0.000
 RMSDP=9.66D-04 MaxDP=5.16D-02 DE=-4.42D-02 OVMax= 3.35D-02

 Cycle   3  Pass 1  IDiag  1:
 RMSU=  3.25D-04    CP:  1.01D+00  6.38D-01
 FoFJK:  IHMeth= 1 ICntrl=     0 DoSepK=T KAlg= 1 I1Cent= 0 FoldK=F
 E= -2904.95042443515     Delta-E=       -0.029867405302 Rises=F Damp=F
 DIIS: error= 1.98D-03 at cycle   3 NSaved=   3.
 NSaved= 3 IEnMin= 3 EnMin= -2904.95042443515     IErMin= 3 ErrMin= 1.98D-03
 ErrMax= 1.98D-03 EMaxC= 1.00D-01 BMatC= 1.98D-03 BMatP= 8.22D-02
 IDIUse=3 WtCom= 9.80D-01 WtEn= 1.98D-02
 Coeff-Com:  0.686D-01 0.201D+00 0.731D+00
 Coeff-En:   0.000D+00 0.000D+00 0.100D+01
 Coeff:      0.673D-01 0.197D+00 0.736D+00
 Gap=     0.425 Goal=   None    Shift=    0.000
 RMSDP=1.28D-04 MaxDP=3.33D-03 DE=-2.99D-02 OVMax= 8.39D-03

 Cycle   4  Pass 1  IDiag  1:
 RMSU=  6.53D-05    CP:  1.01D+00  6.66D-01  8.67D-01
 FoFJK:  IHMeth= 1 ICntrl=     0 DoSepK=T KAlg= 1 I1Cent= 0 FoldK=F
 E= -2904.95149671137     Delta-E=       -0.001072276225 Rises=F Damp=F
 DIIS: error= 5.41D-04 at cycle   4 NSaved=   4.
 NSaved= 4 IEnMin= 4 EnMin= -2904.95149671137     IErMin= 4 ErrMin= 5.41D-04
 ErrMax= 5.41D-04 EMaxC= 1.00D-01 BMatC= 1.49D-04 BMatP= 1.98D-03
 IDIUse=3 WtCom= 9.95D-01 WtEn= 5.41D-03
 Coeff-Com: -0.209D-02 0.257D-01 0.273D+00 0.703D+00
 Coeff-En:   0.000D+00 0.000D+00 0.000D+00 0.100D+01
 Coeff:     -0.207D-02 0.256D-01 0.272D+00 0.705D+00
 Gap=     0.431 Goal=   None    Shift=    0.000
 RMSDP=3.72D-05 MaxDP=1.93D-03 DE=-1.07D-03 OVMax= 2.01D-03

 Cycle   5  Pass 1  IDiag  1:
 RMSU=  1.23D-05    CP:  1.01D+00  6.69D-01  9.26D-01  8.20D-01
 FoFJK:  IHMeth= 1 ICntrl=     0 DoSepK=T KAlg= 1 I1Cent= 0 FoldK=F
 E= -2904.95158036566     Delta-E=       -0.000083654288 Rises=F Damp=F
 DIIS: error= 6.37D-05 at cycle   5 NSaved=   5.
 NSaved= 5 IEnMin= 5 EnMin= -2904.95158036566     IErMin= 5 ErrMin= 6.37D-05
 ErrMax= 6.37D-05 EMaxC= 1.00D-01 BMatC= 2.23D-06 BMatP= 1.49D-04
 IDIUse=1 WtCom= 1.00D+00 WtEn= 0.00D+00
 Coeff-Com: -0.186D-02 0.384D-03 0.371D-01 0.150D+00 0.814D+00
 Coeff:     -0.186D-02 0.384D-03 0.371D-01 0.150D+00 0.814D+00
 Gap=     0.431 Goal=   None    Shift=    0.000
 RMSDP=6.46D-06 MaxDP=2.15D-04 DE=-8.37D-05 OVMax= 4.93D-04

 Cycle   6  Pass 1  IDiag  1:
 RMSU=  3.98D-06    CP:  1.01D+00  6.69D-01  9.26D-01  8.53D-01  1.05D+00
 FoFJK:  IHMeth= 1 ICntrl=     0 DoSepK=T KAlg= 1 I1Cent= 0 FoldK=F
 E= -2904.95158179678     Delta-E=       -0.000001431122 Rises=F Damp=F
 DIIS: error= 4.90D-05 at cycle   6 NSaved=   6.
 NSaved= 6 IEnMin= 6 EnMin= -2904.95158179678     IErMin= 6 ErrMin= 4.90D-05
 ErrMax= 4.90D-05 EMaxC= 1.00D-01 BMatC= 9.42D-07 BMatP= 2.23D-06
 IDIUse=1 WtCom= 1.00D+00 WtEn= 0.00D+00
 Coeff-Com: -0.649D-03-0.292D-02-0.145D-01-0.812D-02 0.404D+00 0.622D+00
 Coeff:     -0.649D-03-0.292D-02-0.145D-01-0.812D-02 0.404D+00 0.622D+00
 Gap=     0.431 Goal=   None    Shift=    0.000
 RMSDP=3.13D-06 MaxDP=1.07D-04 DE=-1.43D-06 OVMax= 2.22D-04

 Cycle   7  Pass 1  IDiag  1:
 RMSU=  1.66D-06    CP:  1.01D+00  6.69D-01  9.26D-01  8.64D-01  1.14D+00
                    CP:  8.65D-01
 FoFJK:  IHMeth= 1 ICntrl=     0 DoSepK=T KAlg= 1 I1Cent= 0 FoldK=F
 E= -2904.95158229007     Delta-E=       -0.000000493290 Rises=F Damp=F
 DIIS: error= 1.17D-05 at cycle   7 NSaved=   7.
 NSaved= 7 IEnMin= 7 EnMin= -2904.95158229007     IErMin= 7 ErrMin= 1.17D-05
 ErrMax= 1.17D-05 EMaxC= 1.00D-01 BMatC= 6.16D-08 BMatP= 9.42D-07
 IDIUse=1 WtCom= 1.00D+00 WtEn= 0.00D+00
 Coeff-Com: -0.343D-05-0.117D-02-0.106D-01-0.242D-01 0.146D-01 0.219D+00
 Coeff-Com:  0.802D+00
 Coeff:     -0.343D-05-0.117D-02-0.106D-01-0.242D-01 0.146D-01 0.219D+00
 Coeff:      0.802D+00
 Gap=     0.431 Goal=   None    Shift=    0.000
 RMSDP=1.04D-06 MaxDP=4.36D-05 DE=-4.93D-07 OVMax= 7.48D-05

 Cycle   8  Pass 1  IDiag  1:
 RMSU=  3.54D-07    CP:  1.01D+00  6.69D-01  9.27D-01  8.67D-01  1.17D+00
                    CP:  9.83D-01  9.90D-01
 FoFJK:  IHMeth= 1 ICntrl=     0 DoSepK=T KAlg= 1 I1Cent= 0 FoldK=F
 E= -2904.95158233149     Delta-E=       -0.000000041419 Rises=F Damp=F
 DIIS: error= 1.94D-06 at cycle   8 NSaved=   8.
 NSaved= 8 IEnMin= 8 EnMin= -2904.95158233149     IErMin= 8 ErrMin= 1.94D-06
 ErrMax= 1.94D-06 EMaxC= 1.00D-01 BMatC= 7.30D-10 BMatP= 6.16D-08
 IDIUse=1 WtCom= 1.00D+00 WtEn= 0.00D+00
 Coeff-Com:  0.282D-04 0.272D-03 0.197D-02 0.365D-02-0.166D-01-0.554D-01
 Coeff-Com: -0.117D+00 0.118D+01
 Coeff:      0.282D-04 0.272D-03 0.197D-02 0.365D-02-0.166D-01-0.554D-01
 Coeff:     -0.117D+00 0.118D+01
 Gap=     0.431 Goal=   None    Shift=    0.000
 RMSDP=2.94D-07 MaxDP=5.81D-06 DE=-4.14D-08 OVMax= 2.47D-05

 Cycle   9  Pass 1  IDiag  1:
 RMSU=  8.53D-08    CP:  1.01D+00  6.69D-01  9.27D-01  8.67D-01  1.18D+00
                    CP:  9.99D-01  1.04D+00  1.37D+00
 FoFJK:  IHMeth= 1 ICntrl=     0 DoSepK=T KAlg= 1 I1Cent= 0 FoldK=F
 E= -2904.95158233394     Delta-E=       -0.000000002444 Rises=F Damp=F
 DIIS: error= 4.33D-07 at cycle   9 NSaved=   9.
 NSaved= 9 IEnMin= 9 EnMin= -2904.95158233394     IErMin= 9 ErrMin= 4.33D-07
 ErrMax= 4.33D-07 EMaxC= 1.00D-01 BMatC= 4.52D-11 BMatP= 7.30D-10
 IDIUse=1 WtCom= 1.00D+00 WtEn= 0.00D+00
 Coeff-Com: -0.842D-06 0.515D-04 0.482D-03 0.122D-02-0.923D-03-0.114D-01
 Coeff-Com: -0.409D-01 0.428D-01 0.101D+01
 Coeff:     -0.842D-06 0.515D-04 0.482D-03 0.122D-02-0.923D-03-0.114D-01
 Coeff:     -0.409D-01 0.428D-01 0.101D+01
 Gap=     0.431 Goal=   None    Shift=    0.000
 RMSDP=5.92D-08 MaxDP=1.90D-06 DE=-2.44D-09 OVMax= 6.36D-06

 Cycle  10  Pass 1  IDiag  1:
 RMSU=  2.27D-08    CP:  1.01D+00  6.69D-01  9.27D-01  8.67D-01  1.18D+00
                    CP:  9.99D-01  1.05D+00  1.44D+00  1.21D+00
 FoFJK:  IHMeth= 1 ICntrl=     0 DoSepK=T KAlg= 1 I1Cent= 0 FoldK=F
 E= -2904.95158233404     Delta-E=       -0.000000000104 Rises=F Damp=F
 DIIS: error= 1.51D-07 at cycle  10 NSaved=  10.
 NSaved=10 IEnMin=10 EnMin= -2904.95158233404     IErMin=10 ErrMin= 1.51D-07
 ErrMax= 1.51D-07 EMaxC= 1.00D-01 BMatC= 3.88D-12 BMatP= 4.52D-11
 IDIUse=1 WtCom= 1.00D+00 WtEn= 0.00D+00
 Coeff-Com: -0.200D-05-0.171D-04-0.124D-03-0.222D-03 0.126D-02 0.379D-02
 Coeff-Com:  0.642D-02-0.888D-01 0.557D-01 0.102D+01
 Coeff:     -0.200D-05-0.171D-04-0.124D-03-0.222D-03 0.126D-02 0.379D-02
 Coeff:      0.642D-02-0.888D-01 0.557D-01 0.102D+01
 Gap=     0.431 Goal=   None    Shift=    0.000
 RMSDP=2.09D-08 MaxDP=8.77D-07 DE=-1.04D-10 OVMax= 2.44D-06

 Cycle  11  Pass 1  IDiag  1:
 RMSU=  6.74D-09    CP:  1.01D+00  6.69D-01  9.27D-01  8.67D-01  1.18D+00
                    CP:  9.98D-01  1.05D+00  1.45D+00  1.32D+00  1.27D+00
 FoFJK:  IHMeth= 1 ICntrl=     0 DoSepK=T KAlg= 1 I1Cent= 0 FoldK=F
 E= -2904.95158233405     Delta-E=       -0.000000000013 Rises=F Damp=F
 DIIS: error= 4.84D-08 at cycle  11 NSaved=  11.
 NSaved=11 IEnMin=11 EnMin= -2904.95158233405     IErMin=11 ErrMin= 4.84D-08
 ErrMax= 4.84D-08 EMaxC= 1.00D-01 BMatC= 3.91D-13 BMatP= 3.88D-12
 IDIUse=1 WtCom= 1.00D+00 WtEn= 0.00D+00
 Coeff-Com:  0.235D-06-0.282D-05-0.294D-04-0.938D-04 0.421D-04 0.888D-03
 Coeff-Com:  0.294D-02-0.240D-02-0.738D-01-0.334D-01 0.111D+01
 Coeff:      0.235D-06-0.282D-05-0.294D-04-0.938D-04 0.421D-04 0.888D-03
 Coeff:      0.294D-02-0.240D-02-0.738D-01-0.334D-01 0.111D+01
 Gap=     0.431 Goal=   None    Shift=    0.000
 RMSDP=7.55D-09 MaxDP=2.14D-07 DE=-1.32D-11 OVMax= 9.90D-07

 SCF Done:  E(RLC-wPBE) =  -2904.95158233     A.U. after   11 cycles
             Convg  =    0.7553D-08             -V/T =  2.0017
 KE= 2.900058617620D+03 PE=-7.237534049999D+03 EE= 1.281873504571D+03
 Leave Link  502 at Tue May 12 11:07:07 2020, MaxMem= 1073741824 cpu:     282.9
 (Enter /home/matheus/.gaussian/g09/l601.exe)
 Copying SCF densities to generalized density rwf, IOpCl= 0 IROHF=0.

 **********************************************************************

            Population analysis using the SCF density.

 **********************************************************************

 Orbital symmetries:
       Occupied  (A) (A) (A) (A) (A) (A) (A) (A) (A) (A) (A) (A)
                 (A) (A) (A) (A) (A) (A) (A) (A) (A) (A) (A) (A)
                 (A) (A) (A)
       Virtual   (A) (A) (A) (A) (A) (A) (A) (A) (A) (A) (A) (A)
                 (A) (A) (A) (A) (A) (A) (A) (A) (A) (A) (A) (A)
                 (A) (A) (A) (A) (A) (A) (A) (A) (A) (A) (A) (A)
                 (A) (A) (A) (A) (A) (A) (A) (A) (A) (A) (A) (A)
                 (A) (A) (A) (A) (A) (A) (A) (A) (A) (A) (A) (A)
                 (A) (A) (A) (A) (A) (A) (A) (A) (A) (A) (A) (A)
                 (A) (A) (A) (A) (A) (A) (A) (A) (A) (A) (A) (A)
                 (A) (A) (A) (A) (A) (A) (A) (A) (A) (A) (A) (A)
                 (A) (A) (A) (A) (A) (A) (A) (A) (A) (A) (A) (A)
                 (A) (A) (A) (A) (A) (A) (A) (A) (A) (A) (A) (A)
                 (A) (A) (A) (A) (A) (A) (A) (A) (A) (A) (A) (A)
                 (A) (A) (A) (A) (A) (A) (A) (A) (A) (A) (A) (A)
                 (A) (A) (A) (A) (A) (A) (A) (A) (A) (A) (A) (A)
                 (A) (A) (A) (A) (A) (A) (A) (A) (A) (A) (A) (A)
                 (A) (A)
 The electronic state is 1-A.
 Alpha  occ. eigenvalues -- -511.13438 -66.68123 -60.34346 -60.34333 -60.34322
 Alpha  occ. eigenvalues --  -19.03500 -19.03225  -9.61401  -7.35859  -7.35823
 Alpha  occ. eigenvalues --   -7.35790  -3.31400  -3.31394  -3.31370  -3.31344
 Alpha  occ. eigenvalues --   -3.31340  -1.25463  -1.06237  -1.03768  -0.70644
 Alpha  occ. eigenvalues --   -0.58017  -0.56286  -0.53359  -0.52882  -0.51758
 Alpha  occ. eigenvalues --   -0.46728  -0.39908
 Alpha virt. eigenvalues --    0.03153   0.04162   0.08216   0.09128   0.10151
 Alpha virt. eigenvalues --    0.11457   0.12956   0.14497   0.17274   0.17791
 Alpha virt. eigenvalues --    0.18107   0.19334   0.20199   0.21919   0.23895
 Alpha virt. eigenvalues --    0.24474   0.25330   0.28492   0.30959   0.32907
 Alpha virt. eigenvalues --    0.34024   0.35301   0.37507   0.39011   0.40197
 Alpha virt. eigenvalues --    0.42161   0.42846   0.47683   0.53263   0.54771
 Alpha virt. eigenvalues --    0.57579   0.59709   0.61399   0.64442   0.68151
 Alpha virt. eigenvalues --    0.68943   0.71045   0.73858   0.75376   0.76096
 Alpha virt. eigenvalues --    0.76807   0.77731   0.79229   0.81236   0.84375
 Alpha virt. eigenvalues --    0.85699   0.87159   0.89001   0.89515   0.91189
 Alpha virt. eigenvalues --    0.91951   0.95765   0.97181   0.98236   1.00550
 Alpha virt. eigenvalues --    1.01371   1.02870   1.05693   1.07334   1.10974
 Alpha virt. eigenvalues --    1.12377   1.15868   1.19161   1.22365   1.24721
 Alpha virt. eigenvalues --    1.29351   1.34280   1.37490   1.40858   1.43052
 Alpha virt. eigenvalues --    1.44528   1.48450   1.51011   1.54982   1.59610
 Alpha virt. eigenvalues --    1.66003   1.69413   1.83622   1.90261   1.93131
 Alpha virt. eigenvalues --    2.00291   2.05759   2.08852   2.10287   2.12850
 Alpha virt. eigenvalues --    2.14900   2.18235   2.19589   2.21316   2.25599
 Alpha virt. eigenvalues --    2.29117   2.29222   2.30304   2.32053   2.32949
 Alpha virt. eigenvalues --    2.38018   2.38230   2.44392   2.47837   2.47990
 Alpha virt. eigenvalues --    2.49826   2.51363   2.54933   2.55775   2.57460
 Alpha virt. eigenvalues --    2.58245   2.63188   2.66199   2.69437   2.71732
 Alpha virt. eigenvalues --    2.72992   2.76804   2.82383   2.87907   2.88875
 Alpha virt. eigenvalues --    2.94414   3.00981   3.08530   3.11953   3.61007
 Alpha virt. eigenvalues --    3.67007   3.92465   3.97104   3.99364   4.03904
 Alpha virt. eigenvalues --    4.09462   4.12690   4.23165   4.24008   4.26197
 Alpha virt. eigenvalues --    4.42525   4.45886   4.57757   4.60640   4.68212
 Alpha virt. eigenvalues --    4.96490   4.99773   5.00714   5.06546   5.14242
 Alpha virt. eigenvalues --    5.16630   5.42456   5.83106   5.99651   6.10980
 Alpha virt. eigenvalues --    6.11966   6.29408   6.37387   6.38746   6.51555
 Alpha virt. eigenvalues --    6.63524   6.71744   6.75601   6.80982   6.83299
 Alpha virt. eigenvalues --    6.87201   6.88654   6.89281   6.90087   7.02543
 Alpha virt. eigenvalues --    7.08038   7.13832   7.21591   7.42789   7.47674
 Alpha virt. eigenvalues --    7.84352   8.01465   8.12273  13.95160  14.56744
          Condensed to atoms (all electrons):
              1          2          3          4          5
     1  O    8.292820  -0.255718   0.172179   0.019398  -0.023740
     2  O   -0.255718   8.275907   0.028084   0.184004  -0.013525
     3  H    0.172179   0.028084   0.604436  -0.007643  -0.001366
     4  H    0.019398   0.184004  -0.007643   0.610376  -0.015321
     5  Kr  -0.023740  -0.013525  -0.001366  -0.015321  36.043759
 Mulliken atomic charges:
              1
     1  O   -0.204938
     2  O   -0.218752
     3  H    0.204310
     4  H    0.209187
     5  Kr   0.010193
 Sum of Mulliken atomic charges =   0.00000
 Mulliken charges with hydrogens summed into heavy atoms:
              1
     1  O   -0.000628
     2  O   -0.009566
     5  Kr   0.010193
 Sum of Mulliken charges with hydrogens summed into heavy atoms =   0.00000
          Condensed to fragments (all electrons):
     1      -0.010193
     2       0.010193
 Electronic spatial extent (au):  <R**2>=            478.5159
 Charge=              0.0000 electrons
 Dipole moment (field-independent basis, Debye):
    X=             -2.9456    Y=             -0.2222    Z=              1.0690  Tot=              3.1415
 Quadrupole moment (field-independent basis, Debye-Ang):
   XX=            -37.9275   YY=            -27.9985   ZZ=            -29.6255
   XY=             -0.8247   XZ=              1.5585   YZ=             -1.3985
 Traceless Quadrupole moment (field-independent basis, Debye-Ang):
   XX=             -6.0770   YY=              3.8520   ZZ=              2.2250
   XY=             -0.8247   XZ=              1.5585   YZ=             -1.3985
 Octapole moment (field-independent basis, Debye-Ang**2):
  XXX=            -43.6166  YYY=             -0.5838  ZZZ=              0.4767  XYY=             -7.0659
  XXY=             -2.0691  XXZ=              1.3192  XZZ=             -7.3947  YZZ=             -1.1120
  YYZ=              1.6863  XYZ=             -2.0242
 Hexadecapole moment (field-independent basis, Debye-Ang**3):
 XXXX=           -462.5640 YYYY=            -63.3201 ZZZZ=            -29.8175 XXXY=             -2.8463
 XXXZ=              0.9639 YYYX=             -1.5816 YYYZ=             -2.0164 ZZZX=              1.0622
 ZZZY=             -1.2168 XXYY=            -85.1295 XXZZ=            -74.8638 YYZZ=            -16.5599
 XXYZ=             -2.9653 YYXZ=              2.4305 ZZXY=             -1.6662
 N-N= 1.506503454741D+02 E-N=-7.237534053469D+03  KE= 2.900058617620D+03
 No NMR shielding tensors so no spin-rotation constants.
 Leave Link  601 at Tue May 12 11:07:07 2020, MaxMem= 1073741824 cpu:       0.9
 (Enter /home/matheus/.gaussian/g09/l122.exe)
 Counterpoise: doing DCBS calculation for fragment   1 NewBq=T
 Leave Link  122 at Tue May 12 11:07:07 2020, MaxMem= 1073741824 cpu:       0.0
 (Enter /home/matheus/.gaussian/g09/l301.exe)
 Basis read from rwf:  (5D, 7F)
 No pseudopotential information found on rwf file.
 There are   197 symmetry adapted basis functions of A   symmetry.
 Integral buffers will be    131072 words long.
 Raffenetti 2 integral format.
 Two-electron integral symmetry is turned on.
   197 basis functions,   415 primitive gaussians,   229 cartesian basis functions
     9 alpha electrons        9 beta electrons
       nuclear repulsion energy        36.6499454140 Hartrees.
 IExCor=32609 DFT=T Ex+Corr=LC-wPBE ExCW=0 ScaHFX=  1.000000
 ScaDFX=  1.000000  0.000000  1.000000  1.000000 ScalE2=  1.000000  1.000000
 IRadAn=      5 IRanWt=     -1 IRanGd=            0 ICorTp=0
  HFx wShort=  0.000000 wLong=  0.400000 cFull=  0.000000 cShort=  0.000000 cLong=  1.000000
  DFx wShort=  0.000000 wLong=  0.400000 cFull=  0.000000 cShort=  0.000000 cLong=  1.000000
 NAtoms=    5 NActive=    5 NUniq=    5 SFac= 1.00D+00 NAtFMM=   60 NAOKFM=F Big=F
 No density basis found on file   718.
 Leave Link  301 at Tue May 12 11:07:07 2020, MaxMem= 1073741824 cpu:       0.2
 (Enter /home/matheus/.gaussian/g09/l302.exe)
 NPDir=0 NMtPBC=     1 NCelOv=     1 NCel=       1 NClECP=     1 NCelD=      1
         NCelK=      1 NCelE2=     1 NClLst=     1 CellRange=     0.0.
 One-electron integrals computed using PRISM.
 NBasis=   197 RedAO= T  NBF=   197
 NBsUse=   197 1.00D-06 NBFU=   197
 Precomputing XC quadrature grid using
 IXCGrd= 2 IRadAn=           5 IRanWt=          -1 IRanGd=           0 AccXCQ= 0.00D+00.
 NRdTot=     427 NPtTot=      123512 NUsed=      126579 NTot=      126611
 NSgBfM=   229   229   229   229   229 NAtAll=     5     5.
 Leave Link  302 at Tue May 12 11:07:08 2020, MaxMem= 1073741824 cpu:       1.0
 (Enter /home/matheus/.gaussian/g09/l303.exe)
 DipDrv:  MaxL=1.
 Leave Link  303 at Tue May 12 11:07:08 2020, MaxMem= 1073741824 cpu:       0.2
 (Enter /home/matheus/.gaussian/g09/l401.exe)
 Harris functional with IExCor=32609 diagonalized for initial guess.
 ExpMin= 2.53D-02 ExpMax= 1.17D+07 ExpMxC= 1.33D+04 IAcc=3 IRadAn=         5 AccDes= 0.00D+00
 HarFok:  IExCor=32609 AccDes= 0.00D+00 IRadAn=         5 IDoV= 1
 ScaDFX=  1.000000  1.000000  1.000000  1.000000
 FoFCou: FMM=F IPFlag=           0 FMFlag=      100000 FMFlg1=           0
         NFxFlg=           0 DoJE=T BraDBF=F KetDBF=T FulRan=T
         Omega=  0.000000  0.000000  1.000000  0.000000  0.000000 ICntrl=     500 IOpCl=  0
         NMat0=    1 NMatS0=    1 NMatT0=    0 NMatD0=    1 NMtDS0=    0 NMtDT0=    0
         I1Cent=           4 NGrid=           0.
 Petite list used in FoFCou.
 Harris En= -151.501096406521    
 Initial guess orbital symmetries:
       Occupied  (A) (A) (A) (A) (A) (A) (A) (A) (A)
       Virtual   (A) (A) (A) (A) (A) (A) (A) (A) (A) (A) (A) (A)
                 (A) (A) (A) (A) (A) (A) (A) (A) (A) (A) (A) (A)
                 (A) (A) (A) (A) (A) (A) (A) (A) (A) (A) (A) (A)
                 (A) (A) (A) (A) (A) (A) (A) (A) (A) (A) (A) (A)
                 (A) (A) (A) (A) (A) (A) (A) (A) (A) (A) (A) (A)
                 (A) (A) (A) (A) (A) (A) (A) (A) (A) (A) (A) (A)
                 (A) (A) (A) (A) (A) (A) (A) (A) (A) (A) (A) (A)
                 (A) (A) (A) (A) (A) (A) (A) (A) (A) (A) (A) (A)
                 (A) (A) (A) (A) (A) (A) (A) (A) (A) (A) (A) (A)
                 (A) (A) (A) (A) (A) (A) (A) (A) (A) (A) (A) (A)
                 (A) (A) (A) (A) (A) (A) (A) (A) (A) (A) (A) (A)
                 (A) (A) (A) (A) (A) (A) (A) (A) (A) (A) (A) (A)
                 (A) (A) (A) (A) (A) (A) (A) (A) (A) (A) (A) (A)
                 (A) (A) (A) (A) (A) (A) (A) (A) (A) (A) (A) (A)
                 (A) (A) (A) (A) (A) (A) (A) (A) (A) (A) (A) (A)
                 (A) (A) (A) (A) (A) (A) (A) (A)
 The electronic state of the initial guess is 1-A.
 Leave Link  401 at Tue May 12 11:07:08 2020, MaxMem= 1073741824 cpu:       4.2
 (Enter /home/matheus/.gaussian/g09/l502.exe)
 Closed shell SCF:
 Requested convergence on RMS density matrix=1.00D-08 within 128 cycles.
 Requested convergence on MAX density matrix=1.00D-06.
 Requested convergence on             energy=1.00D-06.
 No special actions if energy rises.
 Using DIIS extrapolation, IDIIS=  1040.
 Integral symmetry usage will be decided dynamically.
       126521 words used for storage of precomputed grid.
 IEnd=      305468 IEndB=      305468 NGot=  1073741824 MDV=  1073505667
 LenX=  1073505667 LenY=  1073452785
 Fock matrices will be formed incrementally for  20 cycles.

 Cycle   1  Pass 1  IDiag  1:
 FoFJK:  IHMeth= 1 ICntrl=     0 DoSepK=T KAlg= 1 I1Cent= 0 FoldK=F
 FoFCou: FMM=F IPFlag=           0 FMFlag=      100000 FMFlg1=           0
         NFxFlg=           0 DoJE=T BraDBF=F KetDBF=F FulRan=T
         Omega=  0.000000  0.000000  1.000000  0.000000  0.000000 ICntrl=     500 IOpCl=  0
         NMat0=    1 NMatS0=    1 NMatT0=    0 NMatD0=    1 NMtDS0=    0 NMtDT0=    0
         I1Cent=           0 NGrid=           0.
 Symmetry not used in FoFCou.
 E= -151.492775134161    
 DIIS: error= 1.15D-02 at cycle   1 NSaved=   1.
 NSaved= 1 IEnMin= 1 EnMin= -151.492775134161     IErMin= 1 ErrMin= 1.15D-02
 ErrMax= 1.15D-02 EMaxC= 1.00D-01 BMatC= 4.08D-02 BMatP= 4.08D-02
 IDIUse=3 WtCom= 8.85D-01 WtEn= 1.15D-01
 Coeff-Com:  0.100D+01
 Coeff-En:   0.100D+01
 Coeff:      0.100D+01
 Gap=     0.494 Goal=   None    Shift=    0.000
 GapD=    0.494 DampG=2.000 DampE=0.500 DampFc=1.0000 IDamp=-1.
 RMSDP=8.62D-04 MaxDP=2.29D-02              OVMax= 6.26D-02

 Cycle   2  Pass 1  IDiag  1:
 RMSU=  6.07D-04    CP:  9.92D-01
 FoFJK:  IHMeth= 1 ICntrl=     0 DoSepK=T KAlg= 1 I1Cent= 0 FoldK=F
 E= -151.506974926530     Delta-E=       -0.014199792369 Rises=F Damp=F
 DIIS: error= 8.53D-03 at cycle   2 NSaved=   2.
 NSaved= 2 IEnMin= 2 EnMin= -151.506974926530     IErMin= 2 ErrMin= 8.53D-03
 ErrMax= 8.53D-03 EMaxC= 1.00D-01 BMatC= 2.39D-02 BMatP= 4.08D-02
 IDIUse=3 WtCom= 9.15D-01 WtEn= 8.53D-02
 Coeff-Com:  0.427D+00 0.573D+00
 Coeff-En:   0.272D+00 0.728D+00
 Coeff:      0.413D+00 0.587D+00
 Gap=     0.427 Goal=   None    Shift=    0.000
 RMSDP=4.85D-04 MaxDP=2.32D-02 DE=-1.42D-02 OVMax= 2.80D-02

 Cycle   3  Pass 1  IDiag  1:
 RMSU=  2.32D-04    CP:  9.87D-01  5.87D-01
 FoFJK:  IHMeth= 1 ICntrl=     0 DoSepK=T KAlg= 1 I1Cent= 0 FoldK=F
 E= -151.521075578874     Delta-E=       -0.014100652344 Rises=F Damp=F
 DIIS: error= 1.24D-03 at cycle   3 NSaved=   3.
 NSaved= 3 IEnMin= 3 EnMin= -151.521075578874     IErMin= 3 ErrMin= 1.24D-03
 ErrMax= 1.24D-03 EMaxC= 1.00D-01 BMatC= 3.99D-04 BMatP= 2.39D-02
 IDIUse=3 WtCom= 9.88D-01 WtEn= 1.24D-02
 Coeff-Com:  0.664D-01 0.146D+00 0.788D+00
 Coeff-En:   0.000D+00 0.000D+00 0.100D+01
 Coeff:      0.656D-01 0.144D+00 0.791D+00
 Gap=     0.422 Goal=   None    Shift=    0.000
 RMSDP=5.57D-05 MaxDP=1.80D-03 DE=-1.41D-02 OVMax= 4.05D-03

 Cycle   4  Pass 1  IDiag  1:
 RMSU=  2.85D-05    CP:  9.86D-01  6.28D-01  1.02D+00
 FoFJK:  IHMeth= 1 ICntrl=     0 DoSepK=T KAlg= 1 I1Cent= 0 FoldK=F
 E= -151.521319313815     Delta-E=       -0.000243734941 Rises=F Damp=F
 DIIS: error= 2.04D-04 at cycle   4 NSaved=   4.
 NSaved= 4 IEnMin= 4 EnMin= -151.521319313815     IErMin= 4 ErrMin= 2.04D-04
 ErrMax= 2.04D-04 EMaxC= 1.00D-01 BMatC= 1.38D-05 BMatP= 3.99D-04
 IDIUse=3 WtCom= 9.98D-01 WtEn= 2.04D-03
 Coeff-Com: -0.548D-02-0.976D-02 0.114D+00 0.901D+00
 Coeff-En:   0.000D+00 0.000D+00 0.000D+00 0.100D+01
 Coeff:     -0.547D-02-0.974D-02 0.114D+00 0.901D+00
 Gap=     0.424 Goal=   None    Shift=    0.000
 RMSDP=1.24D-05 MaxDP=6.79D-04 DE=-2.44D-04 OVMax= 7.58D-04

 Cycle   5  Pass 1  IDiag  1:
 RMSU=  5.86D-06    CP:  9.86D-01  6.25D-01  1.04D+00  1.00D+00
 FoFJK:  IHMeth= 1 ICntrl=     0 DoSepK=T KAlg= 1 I1Cent= 0 FoldK=F
 E= -151.521328768331     Delta-E=       -0.000009454516 Rises=F Damp=F
 DIIS: error= 2.56D-05 at cycle   5 NSaved=   5.
 NSaved= 5 IEnMin= 5 EnMin= -151.521328768331     IErMin= 5 ErrMin= 2.56D-05
 ErrMax= 2.56D-05 EMaxC= 1.00D-01 BMatC= 1.09D-07 BMatP= 1.38D-05
 IDIUse=1 WtCom= 1.00D+00 WtEn= 0.00D+00
 Coeff-Com: -0.751D-03-0.183D-02-0.274D-01-0.856D-01 0.112D+01
 Coeff:     -0.751D-03-0.183D-02-0.274D-01-0.856D-01 0.112D+01
 Gap=     0.424 Goal=   None    Shift=    0.000
 RMSDP=2.87D-06 MaxDP=9.90D-05 DE=-9.45D-06 OVMax= 2.18D-04

 Cycle   6  Pass 1  IDiag  1:
 RMSU=  8.63D-07    CP:  9.86D-01  6.26D-01  1.04D+00  1.02D+00  1.28D+00
 FoFJK:  IHMeth= 1 ICntrl=     0 DoSepK=T KAlg= 1 I1Cent= 0 FoldK=F
 E= -151.521329000718     Delta-E=       -0.000000232387 Rises=F Damp=F
 DIIS: error= 4.79D-06 at cycle   6 NSaved=   6.
 NSaved= 6 IEnMin= 6 EnMin= -151.521329000718     IErMin= 6 ErrMin= 4.79D-06
 ErrMax= 4.79D-06 EMaxC= 1.00D-01 BMatC= 4.37D-09 BMatP= 1.09D-07
 IDIUse=1 WtCom= 1.00D+00 WtEn= 0.00D+00
 Coeff-Com:  0.133D-03 0.308D-03-0.330D-03-0.102D-01-0.565D-01 0.107D+01
 Coeff:      0.133D-03 0.308D-03-0.330D-03-0.102D-01-0.565D-01 0.107D+01
 Gap=     0.424 Goal=   None    Shift=    0.000
 RMSDP=5.26D-07 MaxDP=1.34D-05 DE=-2.32D-07 OVMax= 7.82D-05

 Cycle   7  Pass 1  IDiag  1:
 RMSU=  1.99D-07    CP:  9.86D-01  6.26D-01  1.04D+00  1.02D+00  1.31D+00
                    CP:  1.23D+00
 FoFJK:  IHMeth= 1 ICntrl=     0 DoSepK=T KAlg= 1 I1Cent= 0 FoldK=F
 E= -151.521329011820     Delta-E=       -0.000000011102 Rises=F Damp=F
 DIIS: error= 1.81D-06 at cycle   7 NSaved=   7.
 NSaved= 7 IEnMin= 7 EnMin= -151.521329011820     IErMin= 7 ErrMin= 1.81D-06
 ErrMax= 1.81D-06 EMaxC= 1.00D-01 BMatC= 7.20D-10 BMatP= 4.37D-09
 IDIUse=1 WtCom= 1.00D+00 WtEn= 0.00D+00
 Coeff-Com:  0.518D-04 0.124D-03 0.126D-02 0.339D-02-0.716D-01 0.113D+00
 Coeff-Com:  0.953D+00
 Coeff:      0.518D-04 0.124D-03 0.126D-02 0.339D-02-0.716D-01 0.113D+00
 Coeff:      0.953D+00
 Gap=     0.424 Goal=   None    Shift=    0.000
 RMSDP=1.78D-07 MaxDP=4.86D-06 DE=-1.11D-08 OVMax= 3.29D-05

 Cycle   8  Pass 1  IDiag  1:
 RMSU=  7.60D-08    CP:  9.86D-01  6.26D-01  1.04D+00  1.02D+00  1.32D+00
                    CP:  1.31D+00  1.27D+00
 FoFJK:  IHMeth= 1 ICntrl=     0 DoSepK=T KAlg= 1 I1Cent= 0 FoldK=F
 E= -151.521329013579     Delta-E=       -0.000000001760 Rises=F Damp=F
 DIIS: error= 9.99D-07 at cycle   8 NSaved=   8.
 NSaved= 8 IEnMin= 8 EnMin= -151.521329013579     IErMin= 8 ErrMin= 9.99D-07
 ErrMax= 9.99D-07 EMaxC= 1.00D-01 BMatC= 3.87D-10 BMatP= 7.20D-10
 IDIUse=1 WtCom= 1.00D+00 WtEn= 0.00D+00
 Coeff-Com:  0.951D-05 0.209D-04 0.610D-03 0.288D-02-0.280D-01-0.737D-01
 Coeff-Com:  0.480D+00 0.618D+00
 Coeff:      0.951D-05 0.209D-04 0.610D-03 0.288D-02-0.280D-01-0.737D-01
 Coeff:      0.480D+00 0.618D+00
 Gap=     0.424 Goal=   None    Shift=    0.000
 RMSDP=6.58D-08 MaxDP=2.17D-06 DE=-1.76D-09 OVMax= 1.18D-05

 Cycle   9  Pass 1  IDiag  1:
 RMSU=  3.46D-08    CP:  9.86D-01  6.26D-01  1.04D+00  1.02D+00  1.32D+00
                    CP:  1.32D+00  1.41D+00  8.93D-01
 FoFJK:  IHMeth= 1 ICntrl=     0 DoSepK=T KAlg= 1 I1Cent= 0 FoldK=F
 E= -151.521329013479     Delta-E=        0.000000000100 Rises=F Damp=F
 DIIS: error= 3.89D-07 at cycle   9 NSaved=   9.
 NSaved= 9 IEnMin= 8 EnMin= -151.521329013579     IErMin= 9 ErrMin= 3.89D-07
 ErrMax= 3.89D-07 EMaxC= 1.00D-01 BMatC= 3.46D-11 BMatP= 3.87D-10
 IDIUse=1 WtCom= 1.00D+00 WtEn= 0.00D+00
 Coeff-Com: -0.120D-04-0.331D-04-0.273D-03-0.401D-03 0.160D-01-0.460D-01
 Coeff-Com: -0.183D+00 0.130D+00 0.108D+01
 Coeff:     -0.120D-04-0.331D-04-0.273D-03-0.401D-03 0.160D-01-0.460D-01
 Coeff:     -0.183D+00 0.130D+00 0.108D+01
 Gap=     0.424 Goal=   None    Shift=    0.000
 RMSDP=4.64D-08 MaxDP=1.44D-06 DE= 1.00D-10 OVMax= 9.92D-06

 Cycle  10  Pass 1  IDiag  1:
 RMSU=  1.19D-08    CP:  9.86D-01  6.26D-01  1.04D+00  1.02D+00  1.32D+00
                    CP:  1.33D+00  1.50D+00  1.14D+00  1.32D+00
 FoFJK:  IHMeth= 1 ICntrl=     0 DoSepK=T KAlg= 1 I1Cent= 0 FoldK=F
 E= -151.521329017150     Delta-E=       -0.000000003671 Rises=F Damp=F
 DIIS: error= 7.67D-08 at cycle  10 NSaved=  10.
 NSaved=10 IEnMin=10 EnMin= -151.521329017150     IErMin=10 ErrMin= 7.67D-08
 ErrMax= 7.67D-08 EMaxC= 1.00D-01 BMatC= 7.76D-13 BMatP= 3.46D-11
 IDIUse=1 WtCom= 1.00D+00 WtEn= 0.00D+00
 Coeff-Com:  0.140D-05 0.437D-05 0.647D-05-0.129D-03-0.660D-03 0.111D-01
 Coeff-Com: -0.647D-02-0.575D-01-0.161D+00 0.121D+01
 Coeff:      0.140D-05 0.437D-05 0.647D-05-0.129D-03-0.660D-03 0.111D-01
 Coeff:     -0.647D-02-0.575D-01-0.161D+00 0.121D+01
 Gap=     0.424 Goal=   None    Shift=    0.000
 RMSDP=1.07D-08 MaxDP=3.13D-07 DE=-3.67D-09 OVMax= 2.08D-06

 Cycle  11  Pass 1  IDiag  1:
 RMSU=  2.16D-09    CP:  9.86D-01  6.26D-01  1.04D+00  1.02D+00  1.32D+00
                    CP:  1.33D+00  1.51D+00  1.18D+00  1.43D+00  1.32D+00
 FoFJK:  IHMeth= 1 ICntrl=     0 DoSepK=T KAlg= 1 I1Cent= 0 FoldK=F
 E= -151.521329017153     Delta-E=       -0.000000000003 Rises=F Damp=F
 DIIS: error= 1.53D-08 at cycle  11 NSaved=  11.
 NSaved=11 IEnMin=11 EnMin= -151.521329017153     IErMin=11 ErrMin= 1.53D-08
 ErrMax= 1.53D-08 EMaxC= 1.00D-01 BMatC= 2.22D-14 BMatP= 7.76D-13
 IDIUse=1 WtCom= 1.00D+00 WtEn= 0.00D+00
 Coeff-Com:  0.524D-06 0.170D-05 0.129D-04 0.183D-04-0.707D-03 0.197D-02
 Coeff-Com:  0.938D-02-0.190D-02-0.381D-01-0.434D-01 0.107D+01
 Coeff:      0.524D-06 0.170D-05 0.129D-04 0.183D-04-0.707D-03 0.197D-02
 Coeff:      0.938D-02-0.190D-02-0.381D-01-0.434D-01 0.107D+01
 Gap=     0.424 Goal=   None    Shift=    0.000
 RMSDP=1.74D-09 MaxDP=7.53D-08 DE=-2.73D-12 OVMax= 1.38D-07

 SCF Done:  E(RLC-wPBE) =  -151.521329017     A.U. after   11 cycles
             Convg  =    0.1739D-08             -V/T =  2.0066
 KE= 1.505216962217D+02 PE=-4.315538330309D+02 EE= 9.286086237805D+01
 Leave Link  502 at Tue May 12 11:07:45 2020, MaxMem= 1073741824 cpu:     292.1
 (Enter /home/matheus/.gaussian/g09/l601.exe)
 Copying SCF densities to generalized density rwf, IOpCl= 0 IROHF=0.

 **********************************************************************

            Population analysis using the SCF density.

 **********************************************************************

 Orbital symmetries:
       Occupied  (A) (A) (A) (A) (A) (A) (A) (A) (A)
       Virtual   (A) (A) (A) (A) (A) (A) (A) (A) (A) (A) (A) (A)
                 (A) (A) (A) (A) (A) (A) (A) (A) (A) (A) (A) (A)
                 (A) (A) (A) (A) (A) (A) (A) (A) (A) (A) (A) (A)
                 (A) (A) (A) (A) (A) (A) (A) (A) (A) (A) (A) (A)
                 (A) (A) (A) (A) (A) (A) (A) (A) (A) (A) (A) (A)
                 (A) (A) (A) (A) (A) (A) (A) (A) (A) (A) (A) (A)
                 (A) (A) (A) (A) (A) (A) (A) (A) (A) (A) (A) (A)
                 (A) (A) (A) (A) (A) (A) (A) (A) (A) (A) (A) (A)
                 (A) (A) (A) (A) (A) (A) (A) (A) (A) (A) (A) (A)
                 (A) (A) (A) (A) (A) (A) (A) (A) (A) (A) (A) (A)
                 (A) (A) (A) (A) (A) (A) (A) (A) (A) (A) (A) (A)
                 (A) (A) (A) (A) (A) (A) (A) (A) (A) (A) (A) (A)
                 (A) (A) (A) (A) (A) (A) (A) (A) (A) (A) (A) (A)
                 (A) (A) (A) (A) (A) (A) (A) (A) (A) (A) (A) (A)
                 (A) (A) (A) (A) (A) (A) (A) (A) (A) (A) (A) (A)
                 (A) (A) (A) (A) (A) (A) (A) (A)
 The electronic state is 1-A.
 Alpha  occ. eigenvalues --  -19.03918 -19.03915  -1.25856  -1.04207  -0.70742
 Alpha  occ. eigenvalues --   -0.57646  -0.56034  -0.47387  -0.40356
 Alpha virt. eigenvalues --    0.02062   0.03703   0.07017   0.07939   0.09777
 Alpha virt. eigenvalues --    0.10083   0.10288   0.14694   0.17149   0.17743
 Alpha virt. eigenvalues --    0.18541   0.19081   0.20580   0.21994   0.25443
 Alpha virt. eigenvalues --    0.27327   0.29241   0.29855   0.33299   0.33958
 Alpha virt. eigenvalues --    0.35044   0.36267   0.37838   0.39594   0.40450
 Alpha virt. eigenvalues --    0.43065   0.45235   0.45827   0.48107   0.51182
 Alpha virt. eigenvalues --    0.53483   0.57697   0.59769   0.62152   0.67424
 Alpha virt. eigenvalues --    0.70175   0.73619   0.77165   0.77956   0.80051
 Alpha virt. eigenvalues --    0.81708   0.83212   0.86974   0.89946   0.90858
 Alpha virt. eigenvalues --    0.92720   0.93754   0.96169   0.97289   0.98866
 Alpha virt. eigenvalues --    1.03169   1.04660   1.05756   1.08167   1.09835
 Alpha virt. eigenvalues --    1.12680   1.16032   1.19941   1.20503   1.23566
 Alpha virt. eigenvalues --    1.28541   1.29514   1.30634   1.30927   1.32065
 Alpha virt. eigenvalues --    1.34496   1.34846   1.37776   1.41204   1.43000
 Alpha virt. eigenvalues --    1.47867   1.49597   1.52684   1.54138   1.58813
 Alpha virt. eigenvalues --    1.60131   1.63226   1.66835   1.74356   1.76837
 Alpha virt. eigenvalues --    1.82420   1.86151   1.91660   1.98391   2.03168
 Alpha virt. eigenvalues --    2.07956   2.10591   2.14700   2.18622   2.23004
 Alpha virt. eigenvalues --    2.28435   2.30375   2.33274   2.35847   2.37676
 Alpha virt. eigenvalues --    2.50491   2.54717   2.58734   2.61217   2.63364
 Alpha virt. eigenvalues --    2.64210   2.76808   2.85451   2.86561   2.93457
 Alpha virt. eigenvalues --    2.97597   3.07292   3.10154   3.24811   3.29845
 Alpha virt. eigenvalues --    3.41515   3.57284   3.63423   3.65119   3.77323
 Alpha virt. eigenvalues --    3.78123   3.80862   3.81321   3.81909   3.85460
 Alpha virt. eigenvalues --    3.87130   3.89338   3.91451   3.94063   3.96945
 Alpha virt. eigenvalues --    3.98654   4.02675   4.05629   4.09028   4.13887
 Alpha virt. eigenvalues --    4.15089   4.21038   4.23990   4.29296   4.34317
 Alpha virt. eigenvalues --    4.45749   4.48864   4.60650   4.68592   4.96435
 Alpha virt. eigenvalues --    4.99721   5.00775   5.06850   5.14428   5.16603
 Alpha virt. eigenvalues --    5.42118   5.82796   5.98946   6.10566   6.11707
 Alpha virt. eigenvalues --    6.29149   6.37200   6.38433   6.51281   6.63162
 Alpha virt. eigenvalues --    6.71243   6.75260   6.80358   6.82915   6.86815
 Alpha virt. eigenvalues --    6.88182   6.88946   6.89735   7.02200   7.07665
 Alpha virt. eigenvalues --    7.13432   7.21188   7.42428   7.47266   7.83881
 Alpha virt. eigenvalues --    8.01067   8.10996  11.00282  13.94849  14.54693
 Alpha virt. eigenvalues --   14.82036  14.88754  15.10106  29.01645  29.02187
 Alpha virt. eigenvalues --   29.06585  29.14999  29.21741  49.17334 148.30298
 Alpha virt. eigenvalues --  148.40212 148.70839 752.75022
          Condensed to atoms (all electrons):
              1          2          3          4          5
     1  O    8.253040  -0.249842   0.179466   0.016865   0.001448
     2  O   -0.249842   8.239416   0.028380   0.186035  -0.000468
     3  H    0.179466   0.028380   0.600427  -0.004649  -0.001338
     4  H    0.016865   0.186035  -0.004649   0.603558  -0.004542
     5  Kr   0.001448  -0.000468  -0.001338  -0.004542   0.000850
 Mulliken atomic charges:
              1
     1  O   -0.200977
     2  O   -0.203521
     3  H    0.197714
     4  H    0.202734
     5  Kr   0.004050
 Sum of Mulliken atomic charges =   0.00000
 Mulliken charges with hydrogens summed into heavy atoms:
              1
     1  O   -0.003263
     2  O   -0.000787
     5  Kr   0.004050
 Sum of Mulliken charges with hydrogens summed into heavy atoms =   0.00000
          Condensed to fragments (all electrons):
     1      -0.004050
     2       0.004050
 Electronic spatial extent (au):  <R**2>=            318.0230
 Charge=              0.0000 electrons
 Dipole moment (field-independent basis, Debye):
    X=             -2.5771    Y=             -0.0969    Z=              1.2290  Tot=              2.8568
 Quadrupole moment (field-independent basis, Debye-Ang):
   XX=            -20.5431   YY=            -10.4182   ZZ=            -12.1357
   XY=             -0.8794   XZ=              1.4471   YZ=             -1.4308
 Traceless Quadrupole moment (field-independent basis, Debye-Ang):
   XX=             -6.1774   YY=              3.9475   ZZ=              2.2299
   XY=             -0.8794   XZ=              1.4471   YZ=             -1.4308
 Octapole moment (field-independent basis, Debye-Ang**2):
  XXX=            -92.9395  YYY=             -0.6176  ZZZ=              0.5502  XYY=            -23.8524
  XXY=             -1.9345  XXZ=              1.4033  XZZ=            -24.2427  YZZ=             -1.1305
  YYZ=              1.7164  XYZ=             -2.0268
 Hexadecapole moment (field-independent basis, Debye-Ang**3):
 XXXX=           -344.3050 YYYY=            -45.2063 ZZZZ=            -11.8826 XXXY=             -2.6428
 XXXZ=              0.8274 YYYX=             -1.5454 YYYZ=             -2.0710 ZZZX=              1.0621
 ZZZY=             -1.2683 XXYY=            -62.4336 XXZZ=            -52.3733 YYZZ=            -10.5415
 XXYZ=             -2.9777 YYXZ=              2.4150 ZZXY=             -1.6285
 N-N= 3.664994541398D+01 E-N=-4.315538329130D+02  KE= 1.505216962217D+02
 No NMR shielding tensors so no spin-rotation constants.
 Leave Link  601 at Tue May 12 11:07:45 2020, MaxMem= 1073741824 cpu:       0.8
 (Enter /home/matheus/.gaussian/g09/l122.exe)
 Counterpoise: doing DCBS calculation for fragment   2 NewBq=T
 Leave Link  122 at Tue May 12 11:07:45 2020, MaxMem= 1073741824 cpu:       0.0
 (Enter /home/matheus/.gaussian/g09/l301.exe)
 Basis read from rwf:  (5D, 7F)
 No pseudopotential information found on rwf file.
 There are   197 symmetry adapted basis functions of A   symmetry.
 Integral buffers will be    131072 words long.
 Raffenetti 2 integral format.
 Two-electron integral symmetry is turned on.
   197 basis functions,   415 primitive gaussians,   229 cartesian basis functions
    18 alpha electrons       18 beta electrons
       nuclear repulsion energy         0.0000000000 Hartrees.
 IExCor=32609 DFT=T Ex+Corr=LC-wPBE ExCW=0 ScaHFX=  1.000000
 ScaDFX=  1.000000  0.000000  1.000000  1.000000 ScalE2=  1.000000  1.000000
 IRadAn=      5 IRanWt=     -1 IRanGd=            0 ICorTp=0
  HFx wShort=  0.000000 wLong=  0.400000 cFull=  0.000000 cShort=  0.000000 cLong=  1.000000
  DFx wShort=  0.000000 wLong=  0.400000 cFull=  0.000000 cShort=  0.000000 cLong=  1.000000
 NAtoms=    5 NActive=    5 NUniq=    5 SFac= 1.00D+00 NAtFMM=   60 NAOKFM=F Big=F
 No density basis found on file   718.
 Leave Link  301 at Tue May 12 11:07:45 2020, MaxMem= 1073741824 cpu:       0.2
 (Enter /home/matheus/.gaussian/g09/l302.exe)
 NPDir=0 NMtPBC=     1 NCelOv=     1 NCel=       1 NClECP=     1 NCelD=      1
         NCelK=      1 NCelE2=     1 NClLst=     1 CellRange=     0.0.
 One-electron integrals computed using PRISM.
 NBasis=   197 RedAO= T  NBF=   197
 NBsUse=   197 1.00D-06 NBFU=   197
 Precomputing XC quadrature grid using
 IXCGrd= 2 IRadAn=           5 IRanWt=          -1 IRanGd=           0 AccXCQ= 0.00D+00.
 NRdTot=     427 NPtTot=      123512 NUsed=      126579 NTot=      126611
 NSgBfM=   229   229   229   229   229 NAtAll=     5     5.
 Leave Link  302 at Tue May 12 11:07:45 2020, MaxMem= 1073741824 cpu:       1.0
 (Enter /home/matheus/.gaussian/g09/l303.exe)
 DipDrv:  MaxL=1.
 Leave Link  303 at Tue May 12 11:07:45 2020, MaxMem= 1073741824 cpu:       0.2
 (Enter /home/matheus/.gaussian/g09/l401.exe)
 Harris functional with IExCor=32609 diagonalized for initial guess.
 ExpMin= 2.53D-02 ExpMax= 1.17D+07 ExpMxC= 1.33D+04 IAcc=3 IRadAn=         5 AccDes= 0.00D+00
 HarFok:  IExCor=32609 AccDes= 0.00D+00 IRadAn=         5 IDoV= 1
 ScaDFX=  1.000000  1.000000  1.000000  1.000000
 FoFCou: FMM=F IPFlag=           0 FMFlag=      100000 FMFlg1=           0
         NFxFlg=           0 DoJE=T BraDBF=F KetDBF=T FulRan=T
         Omega=  0.000000  0.000000  1.000000  0.000000  0.000000 ICntrl=     500 IOpCl=  0
         NMat0=    1 NMatS0=    1 NMatT0=    0 NMatD0=    1 NMtDS0=    0 NMtDT0=    0
         I1Cent=           4 NGrid=           0.
 Petite list used in FoFCou.
 Harris En= -2753.24656513065    
 Initial guess orbital symmetries:
       Occupied  (A) (A) (A) (A) (A) (A) (A) (A) (A) (A) (A) (A)
                 (A) (A) (A) (A) (A) (A)
       Virtual   (A) (A) (A) (A) (A) (A) (A) (A) (A) (A) (A) (A)
                 (A) (A) (A) (A) (A) (A) (A) (A) (A) (A) (A) (A)
                 (A) (A) (A) (A) (A) (A) (A) (A) (A) (A) (A) (A)
                 (A) (A) (A) (A) (A) (A) (A) (A) (A) (A) (A) (A)
                 (A) (A) (A) (A) (A) (A) (A) (A) (A) (A) (A) (A)
                 (A) (A) (A) (A) (A) (A) (A) (A) (A) (A) (A) (A)
                 (A) (A) (A) (A) (A) (A) (A) (A) (A) (A) (A) (A)
                 (A) (A) (A) (A) (A) (A) (A) (A) (A) (A) (A) (A)
                 (A) (A) (A) (A) (A) (A) (A) (A) (A) (A) (A) (A)
                 (A) (A) (A) (A) (A) (A) (A) (A) (A) (A) (A) (A)
                 (A) (A) (A) (A) (A) (A) (A) (A) (A) (A) (A) (A)
                 (A) (A) (A) (A) (A) (A) (A) (A) (A) (A) (A) (A)
                 (A) (A) (A) (A) (A) (A) (A) (A) (A) (A) (A) (A)
                 (A) (A) (A) (A) (A) (A) (A) (A) (A) (A) (A) (A)
                 (A) (A) (A) (A) (A) (A) (A) (A) (A) (A) (A)
 The electronic state of the initial guess is 1-A.
 Leave Link  401 at Tue May 12 11:07:46 2020, MaxMem= 1073741824 cpu:       4.5
 (Enter /home/matheus/.gaussian/g09/l502.exe)
 Closed shell SCF:
 Requested convergence on RMS density matrix=1.00D-08 within 128 cycles.
 Requested convergence on MAX density matrix=1.00D-06.
 Requested convergence on             energy=1.00D-06.
 No special actions if energy rises.
 Using DIIS extrapolation, IDIIS=  1040.
 Integral symmetry usage will be decided dynamically.
       126521 words used for storage of precomputed grid.
 IEnd=      305468 IEndB=      305468 NGot=  1073741824 MDV=  1073505667
 LenX=  1073505667 LenY=  1073452785
 Fock matrices will be formed incrementally for  20 cycles.

 Cycle   1  Pass 1  IDiag  1:
 FoFJK:  IHMeth= 1 ICntrl=     0 DoSepK=T KAlg= 1 I1Cent= 0 FoldK=F
 FoFCou: FMM=F IPFlag=           0 FMFlag=      100000 FMFlg1=           0
         NFxFlg=           0 DoJE=T BraDBF=F KetDBF=F FulRan=T
         Omega=  0.000000  0.000000  1.000000  0.000000  0.000000 ICntrl=     500 IOpCl=  0
         NMat0=    1 NMatS0=    1 NMatT0=    0 NMatD0=    1 NMtDS0=    0 NMtDT0=    0
         I1Cent=           0 NGrid=           0.
 Symmetry not used in FoFCou.
 E= -2753.38966884511    
 DIIS: error= 2.78D-02 at cycle   1 NSaved=   1.
 NSaved= 1 IEnMin= 1 EnMin= -2753.38966884511     IErMin= 1 ErrMin= 2.78D-02
 ErrMax= 2.78D-02 EMaxC= 1.00D-01 BMatC= 2.23D-01 BMatP= 2.23D-01
 IDIUse=3 WtCom= 7.22D-01 WtEn= 2.78D-01
 Coeff-Com:  0.100D+01
 Coeff-En:   0.100D+01
 Coeff:      0.100D+01
 Gap=     0.609 Goal=   None    Shift=    0.000
 GapD=    0.609 DampG=2.000 DampE=0.500 DampFc=1.0000 IDamp=-1.
 RMSDP=2.12D-03 MaxDP=1.49D-01              OVMax= 5.10D-02

 Cycle   2  Pass 1  IDiag  1:
 RMSU=  1.46D-03    CP:  1.02D+00
 FoFJK:  IHMeth= 1 ICntrl=     0 DoSepK=T KAlg= 1 I1Cent= 0 FoldK=F
 E= -2753.42034343359     Delta-E=       -0.030674588478 Rises=F Damp=F
 DIIS: error= 1.05D-02 at cycle   2 NSaved=   2.
 NSaved= 2 IEnMin= 2 EnMin= -2753.42034343359     IErMin= 2 ErrMin= 1.05D-02
 ErrMax= 1.05D-02 EMaxC= 1.00D-01 BMatC= 5.54D-02 BMatP= 2.23D-01
 IDIUse=3 WtCom= 8.95D-01 WtEn= 1.05D-01
 Coeff-Com:  0.328D+00 0.672D+00
 Coeff-En:   0.131D+00 0.869D+00
 Coeff:      0.307D+00 0.693D+00
 Gap=     0.525 Goal=   None    Shift=    0.000
 RMSDP=7.94D-04 MaxDP=5.21D-02 DE=-3.07D-02 OVMax= 2.08D-02

 Cycle   3  Pass 1  IDiag  1:
 RMSU=  1.56D-04    CP:  1.01D+00  6.43D-01
 FoFJK:  IHMeth= 1 ICntrl=     0 DoSepK=T KAlg= 1 I1Cent= 0 FoldK=F
 E= -2753.43559700153     Delta-E=       -0.015253567944 Rises=F Damp=F
 DIIS: error= 1.03D-03 at cycle   3 NSaved=   3.
 NSaved= 3 IEnMin= 3 EnMin= -2753.43559700153     IErMin= 3 ErrMin= 1.03D-03
 ErrMax= 1.03D-03 EMaxC= 1.00D-01 BMatC= 5.62D-04 BMatP= 5.54D-02
 IDIUse=3 WtCom= 9.90D-01 WtEn= 1.03D-02
 Coeff-Com: -0.196D-03 0.907D-01 0.909D+00
 Coeff-En:   0.000D+00 0.000D+00 0.100D+01
 Coeff:     -0.194D-03 0.898D-01 0.910D+00
 Gap=     0.532 Goal=   None    Shift=    0.000
 RMSDP=7.28D-05 MaxDP=4.30D-03 DE=-1.53D-02 OVMax= 2.61D-03

 Cycle   4  Pass 1  IDiag  1:
 RMSU=  1.79D-05    CP:  1.01D+00  6.75D-01  9.91D-01
 FoFJK:  IHMeth= 1 ICntrl=     0 DoSepK=T KAlg= 1 I1Cent= 0 FoldK=F
 E= -2753.43576751938     Delta-E=       -0.000170517845 Rises=F Damp=F
 DIIS: error= 3.20D-05 at cycle   4 NSaved=   4.
 NSaved= 4 IEnMin= 4 EnMin= -2753.43576751938     IErMin= 4 ErrMin= 3.20D-05
 ErrMax= 3.20D-05 EMaxC= 1.00D-01 BMatC= 4.13D-07 BMatP= 5.62D-04
 IDIUse=1 WtCom= 1.00D+00 WtEn= 0.00D+00
 Coeff-Com: -0.125D-02-0.156D-01-0.113D+00 0.113D+01
 Coeff:     -0.125D-02-0.156D-01-0.113D+00 0.113D+01
 Gap=     0.532 Goal=   None    Shift=    0.000
 RMSDP=6.19D-06 MaxDP=2.45D-04 DE=-1.71D-04 OVMax= 3.89D-04

 Cycle   5  Pass 1  IDiag  1:
 RMSU=  2.21D-06    CP:  1.01D+00  6.74D-01  1.01D+00  1.13D+00
 FoFJK:  IHMeth= 1 ICntrl=     0 DoSepK=T KAlg= 1 I1Cent= 0 FoldK=F
 E= -2753.43576803775     Delta-E=       -0.000000518376 Rises=F Damp=F
 DIIS: error= 6.04D-06 at cycle   5 NSaved=   5.
 NSaved= 5 IEnMin= 5 EnMin= -2753.43576803775     IErMin= 5 ErrMin= 6.04D-06
 ErrMax= 6.04D-06 EMaxC= 1.00D-01 BMatC= 1.18D-08 BMatP= 4.13D-07
 IDIUse=1 WtCom= 1.00D+00 WtEn= 0.00D+00
 Coeff-Com:  0.262D-04-0.225D-02-0.246D-01 0.934D-01 0.933D+00
 Coeff:      0.262D-04-0.225D-02-0.246D-01 0.934D-01 0.933D+00
 Gap=     0.532 Goal=   None    Shift=    0.000
 RMSDP=7.28D-07 MaxDP=3.23D-05 DE=-5.18D-07 OVMax= 3.07D-05

 Cycle   6  Pass 1  IDiag  1:
 RMSU=  2.11D-07    CP:  1.01D+00  6.74D-01  1.01D+00  1.15D+00  1.03D+00
 FoFJK:  IHMeth= 1 ICntrl=     0 DoSepK=T KAlg= 1 I1Cent= 0 FoldK=F
 E= -2753.43576804743     Delta-E=       -0.000000009673 Rises=F Damp=F
 DIIS: error= 4.16D-07 at cycle   6 NSaved=   6.
 NSaved= 6 IEnMin= 6 EnMin= -2753.43576804743     IErMin= 6 ErrMin= 4.16D-07
 ErrMax= 4.16D-07 EMaxC= 1.00D-01 BMatC= 4.23D-11 BMatP= 1.18D-08
 IDIUse=1 WtCom= 1.00D+00 WtEn= 0.00D+00
 Coeff-Com:  0.266D-05 0.142D-03 0.159D-02-0.112D-01-0.791D-01 0.109D+01
 Coeff:      0.266D-05 0.142D-03 0.159D-02-0.112D-01-0.791D-01 0.109D+01
 Gap=     0.532 Goal=   None    Shift=    0.000
 RMSDP=9.84D-08 MaxDP=3.51D-06 DE=-9.67D-09 OVMax= 4.51D-06

 Cycle   7  Pass 1  IDiag  1:
 RMSU=  1.64D-08    CP:  1.01D+00  6.74D-01  1.01D+00  1.15D+00  1.04D+00
                    CP:  1.22D+00
 FoFJK:  IHMeth= 1 ICntrl=     0 DoSepK=T KAlg= 1 I1Cent= 0 FoldK=F
 E= -2753.43576804753     Delta-E=       -0.000000000098 Rises=F Damp=F
 DIIS: error= 6.93D-08 at cycle   7 NSaved=   7.
 NSaved= 7 IEnMin= 7 EnMin= -2753.43576804753     IErMin= 7 ErrMin= 6.93D-08
 ErrMax= 6.93D-08 EMaxC= 1.00D-01 BMatC= 1.59D-12 BMatP= 4.23D-11
 IDIUse=1 WtCom= 1.00D+00 WtEn= 0.00D+00
 Coeff-Com: -0.182D-06 0.279D-04 0.324D-03-0.170D-02-0.180D-01 0.145D+00
 Coeff-Com:  0.875D+00
 Coeff:     -0.182D-06 0.279D-04 0.324D-03-0.170D-02-0.180D-01 0.145D+00
 Coeff:      0.875D+00
 Gap=     0.532 Goal=   None    Shift=    0.000
 RMSDP=1.07D-08 MaxDP=3.93D-07 DE=-9.82D-11 OVMax= 6.38D-07

 Cycle   8  Pass 1  IDiag  1:
 RMSU=  3.90D-09    CP:  1.01D+00  6.74D-01  1.01D+00  1.16D+00  1.04D+00
                    CP:  1.25D+00  1.09D+00
 FoFJK:  IHMeth= 1 ICntrl=     0 DoSepK=T KAlg= 1 I1Cent= 0 FoldK=F
 E= -2753.43576804752     Delta-E=        0.000000000009 Rises=F Damp=F
 DIIS: error= 2.46D-08 at cycle   8 NSaved=   8.
 NSaved= 8 IEnMin= 7 EnMin= -2753.43576804753     IErMin= 8 ErrMin= 2.46D-08
 ErrMax= 2.46D-08 EMaxC= 1.00D-01 BMatC= 1.15D-13 BMatP= 1.59D-12
 IDIUse=1 WtCom= 1.00D+00 WtEn= 0.00D+00
 Coeff-Com: -0.287D-06-0.116D-04-0.129D-03 0.971D-03 0.516D-02-0.853D-01
 Coeff-Com:  0.468D-01 0.103D+01
 Coeff:     -0.287D-06-0.116D-04-0.129D-03 0.971D-03 0.516D-02-0.853D-01
 Coeff:      0.468D-01 0.103D+01
 Gap=     0.532 Goal=   None    Shift=    0.000
 RMSDP=3.98D-09 MaxDP=1.65D-07 DE= 9.09D-12 OVMax= 2.51D-07

 SCF Done:  E(RLC-wPBE) =  -2753.43576805     A.U. after    8 cycles
             Convg  =    0.3982D-08             -V/T =  2.0014
 KE= 2.749482281833D+03 PE=-6.578890336029D+03 EE= 1.075972286149D+03
 Leave Link  502 at Tue May 12 11:08:12 2020, MaxMem= 1073741824 cpu:     209.9
 (Enter /home/matheus/.gaussian/g09/l601.exe)
 Copying SCF densities to generalized density rwf, IOpCl= 0 IROHF=0.

 **********************************************************************

            Population analysis using the SCF density.

 **********************************************************************

 Orbital symmetries:
       Occupied  (A) (A) (A) (A) (A) (A) (A) (A) (A) (A) (A) (A)
                 (A) (A) (A) (A) (A) (A)
       Virtual   (A) (A) (A) (A) (A) (A) (A) (A) (A) (A) (A) (A)
                 (A) (A) (A) (A) (A) (A) (A) (A) (A) (A) (A) (A)
                 (A) (A) (A) (A) (A) (A) (A) (A) (A) (A) (A) (A)
                 (A) (A) (A) (A) (A) (A) (A) (A) (A) (A) (A) (A)
                 (A) (A) (A) (A) (A) (A) (A) (A) (A) (A) (A) (A)
                 (A) (A) (A) (A) (A) (A) (A) (A) (A) (A) (A) (A)
                 (A) (A) (A) (A) (A) (A) (A) (A) (A) (A) (A) (A)
                 (A) (A) (A) (A) (A) (A) (A) (A) (A) (A) (A) (A)
                 (A) (A) (A) (A) (A) (A) (A) (A) (A) (A) (A) (A)
                 (A) (A) (A) (A) (A) (A) (A) (A) (A) (A) (A) (A)
                 (A) (A) (A) (A) (A) (A) (A) (A) (A) (A) (A) (A)
                 (A) (A) (A) (A) (A) (A) (A) (A) (A) (A) (A) (A)
                 (A) (A) (A) (A) (A) (A) (A) (A) (A) (A) (A) (A)
                 (A) (A) (A) (A) (A) (A) (A) (A) (A) (A) (A) (A)
                 (A) (A) (A) (A) (A) (A) (A) (A) (A) (A) (A)
 The electronic state is 1-A.
 Alpha  occ. eigenvalues -- -511.10637 -66.65309 -60.31524 -60.31521 -60.31520
 Alpha  occ. eigenvalues --   -9.58572  -7.32996  -7.32994  -7.32994  -3.28540
 Alpha  occ. eigenvalues --   -3.28540  -3.28539  -3.28537  -3.28537  -1.03232
 Alpha  occ. eigenvalues --   -0.50220  -0.50217  -0.50215
 Alpha virt. eigenvalues --    0.02995   0.04945   0.08444   0.09304   0.12069
 Alpha virt. eigenvalues --    0.12705   0.13408   0.13564   0.15969   0.17099
 Alpha virt. eigenvalues --    0.17777   0.19128   0.20994   0.25962   0.27109
 Alpha virt. eigenvalues --    0.27537   0.29165   0.31671   0.33242   0.35715
 Alpha virt. eigenvalues --    0.36054   0.38032   0.38726   0.40075   0.41530
 Alpha virt. eigenvalues --    0.41945   0.45102   0.53684   0.56090   0.58650
 Alpha virt. eigenvalues --    0.60897   0.65635   0.67667   0.69412   0.71339
 Alpha virt. eigenvalues --    0.72685   0.74389   0.76403   0.77673   0.78232
 Alpha virt. eigenvalues --    0.79635   0.81064   0.84823   0.84981   0.88059
 Alpha virt. eigenvalues --    0.88734   0.90051   0.90579   0.92321   0.96231
 Alpha virt. eigenvalues --    0.97917   0.98932   1.00508   1.01099   1.02891
 Alpha virt. eigenvalues --    1.05874   1.07169   1.07726   1.13460   1.16457
 Alpha virt. eigenvalues --    1.18005   1.22893   1.24612   1.31628   1.33185
 Alpha virt. eigenvalues --    1.33516   1.39828   1.44633   1.48311   1.53561
 Alpha virt. eigenvalues --    1.55137   1.57464   1.58976   1.70555   1.80038
 Alpha virt. eigenvalues --    1.82271   1.83528   1.86096   1.92314   2.15619
 Alpha virt. eigenvalues --    2.20664   2.23489   2.28353   2.28753   2.30723
 Alpha virt. eigenvalues --    2.32400   2.34723   2.36131   2.37881   2.41405
 Alpha virt. eigenvalues --    2.42801   2.45433   2.46335   2.50587   2.50716
 Alpha virt. eigenvalues --    2.51828   2.54087   2.57263   2.59176   2.61688
 Alpha virt. eigenvalues --    2.62472   2.63966   2.67598   2.70403   2.71741
 Alpha virt. eigenvalues --    2.74153   2.79215   2.84927   2.87370   2.90097
 Alpha virt. eigenvalues --    2.95209   2.99588   3.05419   3.08717   3.18060
 Alpha virt. eigenvalues --    3.20796   3.26825   3.32393   3.40396   3.45328
 Alpha virt. eigenvalues --    3.61139   3.66572   3.82438   3.86954   4.02626
 Alpha virt. eigenvalues --    4.41871   4.48149   4.52320   4.58248   4.67976
 Alpha virt. eigenvalues --    4.71255   4.85739   4.85996   4.97989   5.08240
 Alpha virt. eigenvalues --    5.14273   5.24692   5.55289   5.68621   5.81758
 Alpha virt. eigenvalues --    5.90777   5.99346   6.13714   6.79769   6.83542
 Alpha virt. eigenvalues --    7.37173   7.40733   7.59591   7.70302   7.71326
 Alpha virt. eigenvalues --    7.82498   7.98979   8.15976   8.16914   8.25812
 Alpha virt. eigenvalues --    8.31698   8.47615   8.62394   8.92104   9.57243
 Alpha virt. eigenvalues --    9.73555   9.82910   9.87651   9.94753   9.96902
 Alpha virt. eigenvalues --   10.17564  10.22847  10.55149  10.93115  11.57228
 Alpha virt. eigenvalues --   11.59328  11.77075  11.99388  12.04583  13.20549
 Alpha virt. eigenvalues --   13.68694  14.52188  62.67546  64.67791
          Condensed to atoms (all electrons):
              1          2          3          4          5
     1  O    0.000671  -0.000688  -0.000224   0.000682  -0.007797
     2  O   -0.000688   0.003259   0.000106  -0.002725   0.000291
     3  H   -0.000224   0.000106   0.000355   0.000013  -0.006580
     4  H    0.000682  -0.002725   0.000013   0.003548  -0.027637
     5  Kr  -0.007797   0.000291  -0.006580  -0.027637  36.081290
 Mulliken atomic charges:
              1
     1  O    0.007356
     2  O   -0.000241
     3  H    0.006330
     4  H    0.026121
     5  Kr  -0.039566
 Sum of Mulliken atomic charges =   0.00000
 Mulliken charges with hydrogens summed into heavy atoms:
              1
     1  O    0.013687
     2  O    0.025880
     5  Kr  -0.039566
 Sum of Mulliken charges with hydrogens summed into heavy atoms =   0.00000
          Condensed to fragments (all electrons):
     1       0.039566
     2      -0.039566
 Electronic spatial extent (au):  <R**2>=            160.7981
 Charge=              0.0000 electrons
 Dipole moment (field-independent basis, Debye):
    X=              0.0009    Y=              0.0002    Z=              0.0000  Tot=              0.0009
 Quadrupole moment (field-independent basis, Debye-Ang):
   XX=            -17.6130   YY=            -17.6229   ZZ=            -17.6290
   XY=              0.0014   XZ=              0.0021   YZ=             -0.0011
 Traceless Quadrupole moment (field-independent basis, Debye-Ang):
   XX=              0.0086   YY=             -0.0012   ZZ=             -0.0074
   XY=              0.0014   XZ=              0.0021   YZ=             -0.0011
 Octapole moment (field-independent basis, Debye-Ang**2):
  XXX=             51.3642  YYY=              0.1767  ZZZ=              0.1929  XYY=             17.1330
  XXY=              0.0562  XXZ=              0.0617  XZZ=             17.1359  YZZ=              0.0592
  YYZ=              0.0650  XYZ=              0.0000
 Hexadecapole moment (field-independent basis, Debye-Ang**3):
 XXXX=           -118.2161 YYYY=            -18.3789 ZZZZ=            -18.3978 XXXY=             -0.1687
 XXXZ=             -0.1825 YYYX=             -0.1674 YYYZ=             -0.0010 ZZZX=             -0.1836
 ZZZY=             -0.0016 XXYY=            -22.7738 XXZZ=            -22.7783 YYZZ=             -6.1287
 XXYZ=             -0.0012 YYXZ=             -0.0611 ZZXY=             -0.0548
 N-N= 0.000000000000D+00 E-N=-6.578890337861D+03  KE= 2.749482281833D+03
 No NMR shielding tensors so no spin-rotation constants.
 Leave Link  601 at Tue May 12 11:08:12 2020, MaxMem= 1073741824 cpu:       0.8
 (Enter /home/matheus/.gaussian/g09/l122.exe)
 Counterpoise: doing MCBS calculation for fragment   1
 Leave Link  122 at Tue May 12 11:08:12 2020, MaxMem= 1073741824 cpu:       0.0
 (Enter /home/matheus/.gaussian/g09/l301.exe)
 Basis read from rwf:  (5D, 7F)
 No pseudopotential information found on rwf file.
 There are   138 symmetry adapted basis functions of A   symmetry.
 Integral buffers will be    131072 words long.
 Raffenetti 2 integral format.
 Two-electron integral symmetry is turned on.
   138 basis functions,   198 primitive gaussians,   160 cartesian basis functions
     9 alpha electrons        9 beta electrons
       nuclear repulsion energy        36.6499454140 Hartrees.
 IExCor=32609 DFT=T Ex+Corr=LC-wPBE ExCW=0 ScaHFX=  1.000000
 ScaDFX=  1.000000  0.000000  1.000000  1.000000 ScalE2=  1.000000  1.000000
 IRadAn=      5 IRanWt=     -1 IRanGd=            0 ICorTp=0
  HFx wShort=  0.000000 wLong=  0.400000 cFull=  0.000000 cShort=  0.000000 cLong=  1.000000
  DFx wShort=  0.000000 wLong=  0.400000 cFull=  0.000000 cShort=  0.000000 cLong=  1.000000
 NAtoms=    5 NActive=    4 NUniq=    4 SFac= 1.00D+00 NAtFMM=   60 NAOKFM=F Big=F
 No density basis found on file   718.
 Leave Link  301 at Tue May 12 11:08:12 2020, MaxMem= 1073741824 cpu:       0.2
 (Enter /home/matheus/.gaussian/g09/l302.exe)
 NPDir=0 NMtPBC=     1 NCelOv=     1 NCel=       1 NClECP=     1 NCelD=      1
         NCelK=      1 NCelE2=     1 NClLst=     1 CellRange=     0.0.
 One-electron integrals computed using PRISM.
 NBasis=   138 RedAO= T  NBF=   138
 NBsUse=   138 1.00D-06 NBFU=   138
 Precomputing XC quadrature grid using
 IXCGrd= 2 IRadAn=           5 IRanWt=          -1 IRanGd=           0 AccXCQ= 0.00D+00.
 NRdTot=     344 NPtTot=       92556 NUsed=       95038 NTot=       95070
 NSgBfM=   160   160   160   160   160 NAtAll=     4     4.
 Leave Link  302 at Tue May 12 11:08:12 2020, MaxMem= 1073741824 cpu:       0.8
 (Enter /home/matheus/.gaussian/g09/l303.exe)
 DipDrv:  MaxL=1.
 Leave Link  303 at Tue May 12 11:08:12 2020, MaxMem= 1073741824 cpu:       0.1
 (Enter /home/matheus/.gaussian/g09/l401.exe)
 Harris functional with IExCor=32609 diagonalized for initial guess.
 ExpMin= 2.53D-02 ExpMax= 1.53D+04 ExpMxC= 5.22D+02 IAcc=3 IRadAn=         5 AccDes= 0.00D+00
 HarFok:  IExCor=32609 AccDes= 0.00D+00 IRadAn=         5 IDoV= 1
 ScaDFX=  1.000000  1.000000  1.000000  1.000000
 FoFCou: FMM=F IPFlag=           0 FMFlag=      100000 FMFlg1=           0
         NFxFlg=           0 DoJE=T BraDBF=F KetDBF=T FulRan=T
         Omega=  0.000000  0.000000  1.000000  0.000000  0.000000 ICntrl=     500 IOpCl=  0
         NMat0=    1 NMatS0=    1 NMatT0=    0 NMatD0=    1 NMtDS0=    0 NMtDT0=    0
         I1Cent=           4 NGrid=           0.
 Petite list used in FoFCou.
 Harris En= -151.501020246784    
 Initial guess orbital symmetries:
       Occupied  (A) (A) (A) (A) (A) (A) (A) (A) (A)
       Virtual   (A) (A) (A) (A) (A) (A) (A) (A) (A) (A) (A) (A)
                 (A) (A) (A) (A) (A) (A) (A) (A) (A) (A) (A) (A)
                 (A) (A) (A) (A) (A) (A) (A) (A) (A) (A) (A) (A)
                 (A) (A) (A) (A) (A) (A) (A) (A) (A) (A) (A) (A)
                 (A) (A) (A) (A) (A) (A) (A) (A) (A) (A) (A) (A)
                 (A) (A) (A) (A) (A) (A) (A) (A) (A) (A) (A) (A)
                 (A) (A) (A) (A) (A) (A) (A) (A) (A) (A) (A) (A)
                 (A) (A) (A) (A) (A) (A) (A) (A) (A) (A) (A) (A)
                 (A) (A) (A) (A) (A) (A) (A) (A) (A) (A) (A) (A)
                 (A) (A) (A) (A) (A) (A) (A) (A) (A) (A) (A) (A)
                 (A) (A) (A) (A) (A) (A) (A) (A) (A)
 The electronic state of the initial guess is 1-A.
 Leave Link  401 at Tue May 12 11:08:13 2020, MaxMem= 1073741824 cpu:       2.3
 (Enter /home/matheus/.gaussian/g09/l502.exe)
 Closed shell SCF:
 Requested convergence on RMS density matrix=1.00D-08 within 128 cycles.
 Requested convergence on MAX density matrix=1.00D-06.
 Requested convergence on             energy=1.00D-06.
 No special actions if energy rises.
 Using DIIS extrapolation, IDIIS=  1040.
 Integral symmetry usage will be decided dynamically.
        94980 words used for storage of precomputed grid.
 IEnd=      192360 IEndB=      192360 NGot=  1073741824 MDV=  1073591865
 LenX=  1073591865 LenY=  1073565824
 Fock matrices will be formed incrementally for  20 cycles.

 Cycle   1  Pass 1  IDiag  1:
 FoFJK:  IHMeth= 1 ICntrl=     0 DoSepK=T KAlg= 1 I1Cent= 0 FoldK=F
 FoFCou: FMM=F IPFlag=           0 FMFlag=      100000 FMFlg1=           0
         NFxFlg=           0 DoJE=T BraDBF=F KetDBF=F FulRan=T
         Omega=  0.000000  0.000000  1.000000  0.000000  0.000000 ICntrl=     500 IOpCl=  0
         NMat0=    1 NMatS0=    1 NMatT0=    0 NMatD0=    1 NMtDS0=    0 NMtDT0=    0
         I1Cent=           0 NGrid=           0.
 Symmetry not used in FoFCou.
 E= -151.492742114156    
 DIIS: error= 1.79D-02 at cycle   1 NSaved=   1.
 NSaved= 1 IEnMin= 1 EnMin= -151.492742114156     IErMin= 1 ErrMin= 1.79D-02
 ErrMax= 1.79D-02 EMaxC= 1.00D-01 BMatC= 4.08D-02 BMatP= 4.08D-02
 IDIUse=3 WtCom= 8.21D-01 WtEn= 1.79D-01
 Coeff-Com:  0.100D+01
 Coeff-En:   0.100D+01
 Coeff:      0.100D+01
 Gap=     0.494 Goal=   None    Shift=    0.000
 GapD=    0.494 DampG=2.000 DampE=0.500 DampFc=1.0000 IDamp=-1.
 RMSDP=1.24D-03 MaxDP=2.28D-02              OVMax= 6.25D-02

 Cycle   2  Pass 1  IDiag  1:
 RMSU=  8.72D-04    CP:  9.92D-01
 FoFJK:  IHMeth= 1 ICntrl=     0 DoSepK=T KAlg= 1 I1Cent= 0 FoldK=F
 E= -151.506931579595     Delta-E=       -0.014189465439 Rises=F Damp=F
 DIIS: error= 1.29D-02 at cycle   2 NSaved=   2.
 NSaved= 2 IEnMin= 2 EnMin= -151.506931579595     IErMin= 2 ErrMin= 1.29D-02
 ErrMax= 1.29D-02 EMaxC= 1.00D-01 BMatC= 2.39D-02 BMatP= 4.08D-02
 IDIUse=3 WtCom= 8.71D-01 WtEn= 1.29D-01
 Coeff-Com:  0.427D+00 0.573D+00
 Coeff-En:   0.272D+00 0.728D+00
 Coeff:      0.407D+00 0.593D+00
 Gap=     0.432 Goal=   None    Shift=    0.000
 RMSDP=6.90D-04 MaxDP=2.32D-02 DE=-1.42D-02 OVMax= 2.83D-02

 Cycle   3  Pass 1  IDiag  1:
 RMSU=  3.26D-04    CP:  9.88D-01  5.86D-01
 FoFJK:  IHMeth= 1 ICntrl=     0 DoSepK=T KAlg= 1 I1Cent= 0 FoldK=F
 E= -151.520983070603     Delta-E=       -0.014051491008 Rises=F Damp=F
 DIIS: error= 2.00D-03 at cycle   3 NSaved=   3.
 NSaved= 3 IEnMin= 3 EnMin= -151.520983070603     IErMin= 3 ErrMin= 2.00D-03
 ErrMax= 2.00D-03 EMaxC= 1.00D-01 BMatC= 4.61D-04 BMatP= 2.39D-02
 IDIUse=3 WtCom= 9.80D-01 WtEn= 2.00D-02
 Coeff-Com:  0.665D-01 0.155D+00 0.779D+00
 Coeff-En:   0.000D+00 0.000D+00 0.100D+01
 Coeff:      0.652D-01 0.151D+00 0.783D+00
 Gap=     0.426 Goal=   None    Shift=    0.000
 RMSDP=8.29D-05 MaxDP=1.52D-03 DE=-1.41D-02 OVMax= 4.17D-03

 Cycle   4  Pass 1  IDiag  1:
 RMSU=  4.03D-05    CP:  9.87D-01  6.32D-01  1.01D+00
 FoFJK:  IHMeth= 1 ICntrl=     0 DoSepK=T KAlg= 1 I1Cent= 0 FoldK=F
 E= -151.521265020070     Delta-E=       -0.000281949467 Rises=F Damp=F
 DIIS: error= 3.38D-04 at cycle   4 NSaved=   4.
 NSaved= 4 IEnMin= 4 EnMin= -151.521265020070     IErMin= 4 ErrMin= 3.38D-04
 ErrMax= 3.38D-04 EMaxC= 1.00D-01 BMatC= 1.45D-05 BMatP= 4.61D-04
 IDIUse=3 WtCom= 9.97D-01 WtEn= 3.38D-03
 Coeff-Com: -0.549D-02-0.886D-02 0.115D+00 0.899D+00
 Coeff-En:   0.000D+00 0.000D+00 0.000D+00 0.100D+01
 Coeff:     -0.547D-02-0.883D-02 0.114D+00 0.900D+00
 Gap=     0.428 Goal=   None    Shift=    0.000
 RMSDP=1.74D-05 MaxDP=6.84D-04 DE=-2.82D-04 OVMax= 7.70D-04

 Cycle   5  Pass 1  IDiag  1:
 RMSU=  7.81D-06    CP:  9.87D-01  6.29D-01  1.04D+00  9.93D-01
 FoFJK:  IHMeth= 1 ICntrl=     0 DoSepK=T KAlg= 1 I1Cent= 0 FoldK=F
 E= -151.521274852454     Delta-E=       -0.000009832384 Rises=F Damp=F
 DIIS: error= 5.15D-05 at cycle   5 NSaved=   5.
 NSaved= 5 IEnMin= 5 EnMin= -151.521274852454     IErMin= 5 ErrMin= 5.15D-05
 ErrMax= 5.15D-05 EMaxC= 1.00D-01 BMatC= 1.09D-07 BMatP= 1.45D-05
 IDIUse=1 WtCom= 1.00D+00 WtEn= 0.00D+00
 Coeff-Com: -0.749D-03-0.208D-02-0.275D-01-0.862D-01 0.112D+01
 Coeff:     -0.749D-03-0.208D-02-0.275D-01-0.862D-01 0.112D+01
 Gap=     0.428 Goal=   None    Shift=    0.000
 RMSDP=3.82D-06 MaxDP=7.51D-05 DE=-9.83D-06 OVMax= 2.19D-04

 Cycle   6  Pass 1  IDiag  1:
 RMSU=  1.18D-06    CP:  9.87D-01  6.30D-01  1.03D+00  1.01D+00  1.28D+00
 FoFJK:  IHMeth= 1 ICntrl=     0 DoSepK=T KAlg= 1 I1Cent= 0 FoldK=F
 E= -151.521275101048     Delta-E=       -0.000000248594 Rises=F Damp=F
 DIIS: error= 8.43D-06 at cycle   6 NSaved=   6.
 NSaved= 6 IEnMin= 6 EnMin= -151.521275101048     IErMin= 6 ErrMin= 8.43D-06
 ErrMax= 8.43D-06 EMaxC= 1.00D-01 BMatC= 4.24D-09 BMatP= 1.09D-07
 IDIUse=1 WtCom= 1.00D+00 WtEn= 0.00D+00
 Coeff-Com:  0.137D-03 0.316D-03-0.199D-03-0.971D-02-0.624D-01 0.107D+01
 Coeff:      0.137D-03 0.316D-03-0.199D-03-0.971D-02-0.624D-01 0.107D+01
 Gap=     0.428 Goal=   None    Shift=    0.000
 RMSDP=7.16D-07 MaxDP=1.15D-05 DE=-2.49D-07 OVMax= 7.86D-05

 Cycle   7  Pass 1  IDiag  1:
 RMSU=  2.71D-07    CP:  9.87D-01  6.30D-01  1.03D+00  1.02D+00  1.31D+00
                    CP:  1.24D+00
 FoFJK:  IHMeth= 1 ICntrl=     0 DoSepK=T KAlg= 1 I1Cent= 0 FoldK=F
 E= -151.521275115019     Delta-E=       -0.000000013971 Rises=F Damp=F
 DIIS: error= 3.82D-06 at cycle   7 NSaved=   7.
[...]
 FoFCou: FMM=F IPFlag=           0 FMFlag=      100000 FMFlg1=           0
         NFxFlg=           0 DoJE=T BraDBF=F KetDBF=F FulRan=T
         Omega=  0.000000  0.000000  1.000000  0.000000  0.000000 ICntrl=     500 IOpCl=  0
         NMat0=    1 NMatS0=    1 NMatT0=    0 NMatD0=    1 NMtDS0=    0 NMtDT0=    0
         I1Cent=           0 NGrid=           0.
 Symmetry not used in FoFCou.
 E= -2753.43564989731    
 DIIS: error= 2.01D-04 at cycle   1 NSaved=   1.
 NSaved= 1 IEnMin= 1 EnMin= -2753.43564989731     IErMin= 1 ErrMin= 2.01D-04
 ErrMax= 2.01D-04 EMaxC= 1.00D-01 BMatC= 5.00D-06 BMatP= 5.00D-06
 IDIUse=3 WtCom= 9.98D-01 WtEn= 2.01D-03
 Coeff-Com:  0.100D+01
 Coeff-En:   0.100D+01
 Coeff:      0.100D+01
 Gap=     0.531 Goal=   None    Shift=    0.000
 RMSDP=1.04D-05 MaxDP=5.64D-04              OVMax= 2.79D-04

 Cycle   2  Pass 1  IDiag  1:
 RMSU=  7.35D-06    CP:  1.00D+00
 FoFJK:  IHMeth= 1 ICntrl=     0 DoSepK=T KAlg= 1 I1Cent= 0 FoldK=F
 E= -2753.43565040219     Delta-E=       -0.000000504878 Rises=F Damp=F
 DIIS: error= 3.44D-06 at cycle   2 NSaved=   2.
 NSaved= 2 IEnMin= 2 EnMin= -2753.43565040219     IErMin= 2 ErrMin= 3.44D-06
 ErrMax= 3.44D-06 EMaxC= 1.00D-01 BMatC= 3.07D-09 BMatP= 5.00D-06
 IDIUse=1 WtCom= 1.00D+00 WtEn= 0.00D+00
 Coeff-Com: -0.718D-02 0.101D+01
 Coeff:     -0.718D-02 0.101D+01
 Gap=     0.531 Goal=   None    Shift=    0.000
 RMSDP=1.06D-06 MaxDP=5.28D-05 DE=-5.05D-07 OVMax= 4.12D-05

 Cycle   3  Pass 1  IDiag  1:
 RMSU=  4.72D-07    CP:  1.00D+00  1.08D+00
 FoFJK:  IHMeth= 1 ICntrl=     0 DoSepK=T KAlg= 1 I1Cent= 0 FoldK=F
 E= -2753.43565040752     Delta-E=       -0.000000005324 Rises=F Damp=F
 DIIS: error= 5.71D-07 at cycle   3 NSaved=   3.
 NSaved= 3 IEnMin= 3 EnMin= -2753.43565040752     IErMin= 3 ErrMin= 5.71D-07
 ErrMax= 5.71D-07 EMaxC= 1.00D-01 BMatC= 7.60D-11 BMatP= 3.07D-09
 IDIUse=1 WtCom= 1.00D+00 WtEn= 0.00D+00
 Coeff-Com:  0.266D-03-0.115D+00 0.112D+01
 Coeff:      0.266D-03-0.115D+00 0.112D+01
 Gap=     0.531 Goal=   None    Shift=    0.000
 RMSDP=1.67D-07 MaxDP=7.23D-06 DE=-5.32D-09 OVMax= 8.26D-06

 Cycle   4  Pass 1  IDiag  1:
 RMSU=  4.62D-08    CP:  1.00D+00  1.08D+00  1.21D+00
 FoFJK:  IHMeth= 1 ICntrl=     0 DoSepK=T KAlg= 1 I1Cent= 0 FoldK=F
 E= -2753.43565040766     Delta-E=       -0.000000000146 Rises=F Damp=F
 DIIS: error= 2.95D-07 at cycle   4 NSaved=   4.
 NSaved= 4 IEnMin= 4 EnMin= -2753.43565040766     IErMin= 4 ErrMin= 2.95D-07
 ErrMax= 2.95D-07 EMaxC= 1.00D-01 BMatC= 6.80D-12 BMatP= 7.60D-11
 IDIUse=1 WtCom= 1.00D+00 WtEn= 0.00D+00
 Coeff-Com:  0.176D-03-0.442D-01 0.269D+00 0.775D+00
 Coeff:      0.176D-03-0.442D-01 0.269D+00 0.775D+00
 Gap=     0.531 Goal=   None    Shift=    0.000
 RMSDP=1.80D-08 MaxDP=6.95D-07 DE=-1.46D-10 OVMax= 9.74D-07

 Cycle   5  Pass 1  IDiag  1:
 RMSU=  7.62D-09    CP:  1.00D+00  1.08D+00  1.23D+00  1.12D+00
 FoFJK:  IHMeth= 1 ICntrl=     0 DoSepK=T KAlg= 1 I1Cent= 0 FoldK=F
 E= -2753.43565040766     Delta-E=        0.000000000000 Rises=F Damp=F
 DIIS: error= 2.26D-08 at cycle   5 NSaved=   5.
 NSaved= 5 IEnMin= 4 EnMin= -2753.43565040766     IErMin= 5 ErrMin= 2.26D-08
 ErrMax= 2.26D-08 EMaxC= 1.00D-01 BMatC= 1.49D-13 BMatP= 6.80D-12
 IDIUse=1 WtCom= 1.00D+00 WtEn= 0.00D+00
 Coeff-Com: -0.128D-04 0.553D-02-0.518D-01-0.627D-02 0.105D+01
 Coeff:     -0.128D-04 0.553D-02-0.518D-01-0.627D-02 0.105D+01
 Gap=     0.531 Goal=   None    Shift=    0.000
 RMSDP=7.05D-09 MaxDP=3.46D-07 DE= 0.00D+00 OVMax= 3.34D-07

 SCF Done:  E(RLC-wPBE) =  -2753.43565041     A.U. after    5 cycles
             Convg  =    0.7051D-08             -V/T =  2.0014
 KE= 2.749528621769D+03 PE=-6.578941541207D+03 EE= 1.075977269030D+03
 Leave Link  502 at Tue May 12 11:33:18 2020, MaxMem= 1073741824 cpu:      92.0
 (Enter /home/matheus/.gaussian/g09/l122.exe)
 Restoring MOs from calculation   4 to rwf.
 Counterpoise: doing MCBS calculation for fragment   1
 Leave Link  122 at Tue May 12 11:33:18 2020, MaxMem= 1073741824 cpu:       0.0
 (Enter /home/matheus/.gaussian/g09/l301.exe)
 Basis read from rwf:  (5D, 7F)
 No pseudopotential information found on rwf file.
 There are   138 symmetry adapted basis functions of A   symmetry.
 Integral buffers will be    131072 words long.
 Raffenetti 2 integral format.
 Two-electron integral symmetry is turned on.
   138 basis functions,   198 primitive gaussians,   160 cartesian basis functions
     9 alpha electrons        9 beta electrons
       nuclear repulsion energy        36.6499454140 Hartrees.
 IExCor=32609 DFT=T Ex+Corr=LC-wPBE ExCW=0 ScaHFX=  1.000000
 ScaDFX=  1.000000  0.000000  1.000000  1.000000 ScalE2=  1.000000  1.000000
 IRadAn=      5 IRanWt=     -1 IRanGd=            0 ICorTp=0
  HFx wShort=  0.000000 wLong=  0.400000 cFull=  0.000000 cShort=  0.000000 cLong=  1.000000
  DFx wShort=  0.000000 wLong=  0.400000 cFull=  0.000000 cShort=  0.000000 cLong=  1.000000
 NAtoms=    5 NActive=    4 NUniq=    4 SFac= 1.00D+00 NAtFMM=   60 NAOKFM=F Big=F
 No density basis found on file   718.
 Leave Link  301 at Tue May 12 11:33:18 2020, MaxMem= 1073741824 cpu:       0.2
 (Enter /home/matheus/.gaussian/g09/l302.exe)
 NPDir=0 NMtPBC=     1 NCelOv=     1 NCel=       1 NClECP=     1 NCelD=      1
         NCelK=      1 NCelE2=     1 NClLst=     1 CellRange=     0.0.
 One-electron integrals computed using PRISM.
 NBasis=   138 RedAO= T  NBF=   138
 NBsUse=   138 1.00D-06 NBFU=   138
 Precomputing XC quadrature grid using
 IXCGrd= 2 IRadAn=           5 IRanWt=          -1 IRanGd=           0 AccXCQ= 0.00D+00.
 NRdTot=     344 NPtTot=       92556 NUsed=       95038 NTot=       95070
 NSgBfM=   160   160   160   160   160 NAtAll=     4     4.
 Leave Link  302 at Tue May 12 11:33:18 2020, MaxMem= 1073741824 cpu:       0.8
 (Enter /home/matheus/.gaussian/g09/l303.exe)
 DipDrv:  MaxL=1.
 Leave Link  303 at Tue May 12 11:33:18 2020, MaxMem= 1073741824 cpu:       0.1
 (Enter /home/matheus/.gaussian/g09/l401.exe)
 Initial guess read from the read-write file.
 Guess basis will be translated and rotated to current coordinates.
 Initial guess orbital symmetries:
       Occupied  (A) (A) (A) (A) (A) (A) (A) (A) (A)
       Virtual   (A) (A) (A) (A) (A) (A) (A) (A) (A) (A) (A) (A)
                 (A) (A) (A) (A) (A) (A) (A) (A) (A) (A) (A) (A)
                 (A) (A) (A) (A) (A) (A) (A) (A) (A) (A) (A) (A)
                 (A) (A) (A) (A) (A) (A) (A) (A) (A) (A) (A) (A)
                 (A) (A) (A) (A) (A) (A) (A) (A) (A) (A) (A) (A)
                 (A) (A) (A) (A) (A) (A) (A) (A) (A) (A) (A) (A)
                 (A) (A) (A) (A) (A) (A) (A) (A) (A) (A) (A) (A)
                 (A) (A) (A) (A) (A) (A) (A) (A) (A) (A) (A) (A)
                 (A) (A) (A) (A) (A) (A) (A) (A) (A) (A) (A) (A)
                 (A) (A) (A) (A) (A) (A) (A) (A) (A) (A) (A) (A)
                 (A) (A) (A) (A) (A) (A) (A) (A) (A)
 The electronic state of the initial guess is 1-A.
 Generating alternative initial guess.
 Harris functional with IExCor=32609 diagonalized for initial guess.
 ExpMin= 2.53D-02 ExpMax= 1.53D+04 ExpMxC= 5.22D+02 IAcc=3 IRadAn=         5 AccDes= 0.00D+00
 HarFok:  IExCor=32609 AccDes= 0.00D+00 IRadAn=         5 IDoV= 1
 ScaDFX=  1.000000  1.000000  1.000000  1.000000
 FoFCou: FMM=F IPFlag=           0 FMFlag=      100000 FMFlg1=           0
         NFxFlg=           0 DoJE=T BraDBF=F KetDBF=T FulRan=T
         Omega=  0.000000  0.000000  1.000000  0.000000  0.000000 ICntrl=     500 IOpCl=  0
         NMat0=    1 NMatS0=    1 NMatT0=    0 NMatD0=    1 NMtDS0=    0 NMtDT0=    0
         I1Cent=           4 NGrid=           0.
 Petite list used in FoFCou.
 Harris En= -151.501020202129    
 Leave Link  401 at Tue May 12 11:33:18 2020, MaxMem= 1073741824 cpu:       2.5
 (Enter /home/matheus/.gaussian/g09/l502.exe)
 Closed shell SCF:
 Requested convergence on RMS density matrix=1.00D-08 within 128 cycles.
 Requested convergence on MAX density matrix=1.00D-06.
 Requested convergence on             energy=1.00D-06.
 No special actions if energy rises.
 Using DIIS extrapolation, IDIIS=  1040.
 Integral symmetry usage will be decided dynamically.
        94980 words used for storage of precomputed grid.
 IEnd=      192360 IEndB=      192360 NGot=  1073741824 MDV=  1073591865
 LenX=  1073591865 LenY=  1073565824
 Fock matrices will be formed incrementally for  20 cycles.

 Cycle   1  Pass 1  IDiag  1:
 FoFJK:  IHMeth= 1 ICntrl=     0 DoSepK=T KAlg= 1 I1Cent= 0 FoldK=F
 FoFCou: FMM=F IPFlag=           0 FMFlag=      100000 FMFlg1=           0
         NFxFlg=           0 DoJE=T BraDBF=F KetDBF=F FulRan=T
         Omega=  0.000000  0.000000  1.000000  0.000000  0.000000 ICntrl=     500 IOpCl=  0
         NMat0=    1 NMatS0=    1 NMatT0=    0 NMatD0=    1 NMtDS0=    0 NMtDT0=    0
         I1Cent=           0 NGrid=           0.
 Symmetry not used in FoFCou.
 E= -151.521275091302    
 DIIS: error= 5.32D-06 at cycle   1 NSaved=   1.
 NSaved= 1 IEnMin= 1 EnMin= -151.521275091302     IErMin= 1 ErrMin= 5.32D-06
 ErrMax= 5.32D-06 EMaxC= 1.00D-01 BMatC= 5.45D-09 BMatP= 5.45D-09
 IDIUse=1 WtCom= 1.00D+00 WtEn= 0.00D+00
 Coeff-Com:  0.100D+01
 Coeff:      0.100D+01
 Gap=     0.428 Goal=   None    Shift=    0.000
 RMSDP=5.16D-07 MaxDP=1.15D-05              OVMax= 1.84D-05

 Cycle   2  Pass 1  IDiag  1:
 RMSU=  3.65D-07    CP:  1.00D+00
 FoFJK:  IHMeth= 1 ICntrl=     0 DoSepK=T KAlg= 1 I1Cent= 0 FoldK=F
 E= -151.521275096454     Delta-E=       -0.000000005152 Rises=F Damp=F
 DIIS: error= 9.47D-07 at cycle   2 NSaved=   2.
 NSaved= 2 IEnMin= 2 EnMin= -151.521275096454     IErMin= 2 ErrMin= 9.47D-07
 ErrMax= 9.47D-07 EMaxC= 1.00D-01 BMatC= 1.94D-10 BMatP= 5.45D-09
 IDIUse=1 WtCom= 1.00D+00 WtEn= 0.00D+00
 Coeff-Com: -0.121D+00 0.112D+01
 Coeff:     -0.121D+00 0.112D+01
 Gap=     0.428 Goal=   None    Shift=    0.000
 RMSDP=1.33D-07 MaxDP=3.63D-06 DE=-5.15D-09 OVMax= 6.34D-06

 Cycle   3  Pass 1  IDiag  1:
 RMSU=  4.74D-08    CP:  1.00D+00  1.22D+00
 FoFJK:  IHMeth= 1 ICntrl=     0 DoSepK=T KAlg= 1 I1Cent= 0 FoldK=F
 E= -151.521275096842     Delta-E=       -0.000000000388 Rises=F Damp=F
 DIIS: error= 2.97D-07 at cycle   3 NSaved=   3.
 NSaved= 3 IEnMin= 3 EnMin= -151.521275096842     IErMin= 3 ErrMin= 2.97D-07
 ErrMax= 2.97D-07 EMaxC= 1.00D-01 BMatC= 1.19D-11 BMatP= 1.94D-10
 IDIUse=1 WtCom= 1.00D+00 WtEn= 0.00D+00
 Coeff-Com: -0.121D-01-0.519D-01 0.106D+01
 Coeff:     -0.121D-01-0.519D-01 0.106D+01
 Gap=     0.428 Goal=   None    Shift=    0.000
 RMSDP=3.55D-08 MaxDP=7.92D-07 DE=-3.88D-10 OVMax= 2.28D-06

 Cycle   4  Pass 1  IDiag  1:
 RMSU=  1.16D-08    CP:  1.00D+00  1.27D+00  1.31D+00
 FoFJK:  IHMeth= 1 ICntrl=     0 DoSepK=T KAlg= 1 I1Cent= 0 FoldK=F
 E= -151.521275096873     Delta-E=       -0.000000000031 Rises=F Damp=F
 DIIS: error= 1.46D-07 at cycle   4 NSaved=   4.
 NSaved= 4 IEnMin= 4 EnMin= -151.521275096873     IErMin= 4 ErrMin= 1.46D-07
 ErrMax= 1.46D-07 EMaxC= 1.00D-01 BMatC= 4.11D-12 BMatP= 1.19D-11
 IDIUse=1 WtCom= 1.00D+00 WtEn= 0.00D+00
 Coeff-Com:  0.433D-02-0.101D+00 0.347D+00 0.749D+00
 Coeff:      0.433D-02-0.101D+00 0.347D+00 0.749D+00
 Gap=     0.428 Goal=   None    Shift=    0.000
 RMSDP=1.33D-08 MaxDP=3.57D-07 DE=-3.08D-11 OVMax= 1.03D-06

 Cycle   5  Pass 1  IDiag  1:
 RMSU=  6.57D-09    CP:  1.00D+00  1.28D+00  1.43D+00  9.42D-01
 FoFJK:  IHMeth= 1 ICntrl=     0 DoSepK=T KAlg= 1 I1Cent= 0 FoldK=F
 E= -151.521275096877     Delta-E=       -0.000000000004 Rises=F Damp=F
 DIIS: error= 9.40D-08 at cycle   5 NSaved=   5.
 NSaved= 5 IEnMin= 5 EnMin= -151.521275096877     IErMin= 5 ErrMin= 9.40D-08
 ErrMax= 9.40D-08 EMaxC= 1.00D-01 BMatC= 1.46D-12 BMatP= 4.11D-12
 IDIUse=1 WtCom= 1.00D+00 WtEn= 0.00D+00
 Coeff-Com:  0.498D-02-0.449D-01-0.581D-01 0.405D+00 0.693D+00
 Coeff:      0.498D-02-0.449D-01-0.581D-01 0.405D+00 0.693D+00
 Gap=     0.428 Goal=   None    Shift=    0.000
 RMSDP=6.23D-09 MaxDP=1.00D-07 DE=-4.06D-12 OVMax= 4.52D-07

 SCF Done:  E(RLC-wPBE) =  -151.521275097     A.U. after    5 cycles
             Convg  =    0.6233D-08             -V/T =  2.0066
 KE= 1.505205611356D+02 PE=-4.315520734318D+02 EE= 9.286029178531D+01
 Leave Link  502 at Tue May 12 11:33:23 2020, MaxMem= 1073741824 cpu:      37.8
 (Enter /home/matheus/.gaussian/g09/l122.exe)
 Restoring MOs from calculation   5 to rwf.
 Counterpoise: doing MCBS calculation for fragment   2
 Leave Link  122 at Tue May 12 11:33:23 2020, MaxMem= 1073741824 cpu:       0.0
 (Enter /home/matheus/.gaussian/g09/l301.exe)
 Basis read from rwf:  (5D, 7F)
 No pseudopotential information found on rwf file.
 There are    59 symmetry adapted basis functions of A   symmetry.
 Integral buffers will be    131072 words long.
 Raffenetti 2 integral format.
 Two-electron integral symmetry is turned on.
    59 basis functions,   217 primitive gaussians,    69 cartesian basis functions
    18 alpha electrons       18 beta electrons
       nuclear repulsion energy         0.0000000000 Hartrees.
 IExCor=32609 DFT=T Ex+Corr=LC-wPBE ExCW=0 ScaHFX=  1.000000
 ScaDFX=  1.000000  0.000000  1.000000  1.000000 ScalE2=  1.000000  1.000000
 IRadAn=      5 IRanWt=     -1 IRanGd=            0 ICorTp=0
  HFx wShort=  0.000000 wLong=  0.400000 cFull=  0.000000 cShort=  0.000000 cLong=  1.000000
  DFx wShort=  0.000000 wLong=  0.400000 cFull=  0.000000 cShort=  0.000000 cLong=  1.000000
 NAtoms=    5 NActive=    1 NUniq=    1 SFac= 1.00D+00 NAtFMM=   60 NAOKFM=F Big=F
 No density basis found on file   718.
 Leave Link  301 at Tue May 12 11:33:23 2020, MaxMem= 1073741824 cpu:       0.2
 (Enter /home/matheus/.gaussian/g09/l302.exe)
 NPDir=0 NMtPBC=     1 NCelOv=     1 NCel=       1 NClECP=     1 NCelD=      1
         NCelK=      1 NCelE2=     1 NClLst=     1 CellRange=     0.0.
 One-electron integrals computed using PRISM.
 NBasis=    59 RedAO= T  NBF=    59
 NBsUse=    59 1.00D-06 NBFU=    59
 Precomputing XC quadrature grid using
 IXCGrd= 2 IRadAn=           5 IRanWt=          -1 IRanGd=           0 AccXCQ= 0.00D+00.
 NRdTot=      81 NPtTot=       30352 NUsed=       30981 NTot=       31013
 NSgBfM=    69    69    69    69    69 NAtAll=     1     1.
 Leave Link  302 at Tue May 12 11:33:23 2020, MaxMem= 1073741824 cpu:       0.7
 (Enter /home/matheus/.gaussian/g09/l303.exe)
 DipDrv:  MaxL=1.
 Leave Link  303 at Tue May 12 11:33:23 2020, MaxMem= 1073741824 cpu:       0.1
 (Enter /home/matheus/.gaussian/g09/l401.exe)
 Initial guess read from the read-write file.
 Guess basis will be translated and rotated to current coordinates.
 Initial guess orbital symmetries:
       Occupied  (A) (A) (A) (A) (A) (A) (A) (A) (A) (A) (A) (A)
                 (A) (A) (A) (A) (A) (A)
       Virtual   (A) (A) (A) (A) (A) (A) (A) (A) (A) (A) (A) (A)
                 (A) (A) (A) (A) (A) (A) (A) (A) (A) (A) (A) (A)
                 (A) (A) (A) (A) (A) (A) (A) (A) (A) (A) (A) (A)
                 (A) (A) (A) (A) (A)
 The electronic state of the initial guess is 1-A.
 Generating alternative initial guess.
 Harris functional with IExCor=32609 diagonalized for initial guess.
 ExpMin= 4.00D-02 ExpMax= 1.17D+07 ExpMxC= 1.33D+04 IAcc=3 IRadAn=         5 AccDes= 0.00D+00
 HarFok:  IExCor=32609 AccDes= 0.00D+00 IRadAn=         5 IDoV= 1
 ScaDFX=  1.000000  1.000000  1.000000  1.000000
 FoFCou: FMM=F IPFlag=           0 FMFlag=      100000 FMFlg1=           0
         NFxFlg=           0 DoJE=T BraDBF=F KetDBF=T FulRan=T
         Omega=  0.000000  0.000000  1.000000  0.000000  0.000000 ICntrl=     500 IOpCl=  0
         NMat0=    1 NMatS0=    1 NMatT0=    0 NMatD0=    1 NMtDS0=    0 NMtDT0=    0
         I1Cent=           4 NGrid=           0.
 Petite list used in FoFCou.
 Harris En= -2753.24576836237    
 Leave Link  401 at Tue May 12 11:33:23 2020, MaxMem= 1073741824 cpu:       1.1
 (Enter /home/matheus/.gaussian/g09/l502.exe)
 Closed shell SCF:
 Requested convergence on RMS density matrix=1.00D-08 within 128 cycles.
 Requested convergence on MAX density matrix=1.00D-06.
 Requested convergence on             energy=1.00D-06.
 No special actions if energy rises.
 Using DIIS extrapolation, IDIIS=  1040.
 Integral symmetry usage will be decided dynamically.
        30923 words used for storage of precomputed grid.
 IEnd=       64406 IEndB=       64406 NGot=  1073741824 MDV=  1073698889
 LenX=  1073698889 LenY=  1073693687
 Fock matrices will be formed incrementally for  20 cycles.

 Cycle   1  Pass 1  IDiag  1:
 FoFJK:  IHMeth= 1 ICntrl=     0 DoSepK=T KAlg= 1 I1Cent= 0 FoldK=F
 FoFCou: FMM=F IPFlag=           0 FMFlag=      100000 FMFlg1=           0
         NFxFlg=           0 DoJE=T BraDBF=F KetDBF=F FulRan=T
         Omega=  0.000000  0.000000  1.000000  0.000000  0.000000 ICntrl=     500 IOpCl=  0
         NMat0=    1 NMatS0=    1 NMatT0=    0 NMatD0=    1 NMtDS0=    0 NMtDT0=    0
         I1Cent=           0 NGrid=           0.
 Symmetry not used in FoFCou.
 E= -2753.43563276534    
 DIIS: error= 1.14D-13 at cycle   1 NSaved=   1.
 NSaved= 1 IEnMin= 1 EnMin= -2753.43563276534     IErMin= 1 ErrMin= 1.14D-13
 ErrMax= 1.14D-13 EMaxC= 1.00D-01 BMatC= 3.18D-25 BMatP= 3.18D-25
 IDIUse=1 WtCom= 1.00D+00 WtEn= 0.00D+00
 Coeff-Com:  0.100D+01
 Coeff:      0.100D+01
 Gap=     0.599 Goal=   None    Shift=    0.000
 DSYEVD returned Info=          89 IAlg= 4 N=    59 NDim=    59 NE2=    18198197 trying DSYEV.
 RMSDP=6.46D-15 MaxDP=1.48D-13              OVMax= 1.85D-14

 SCF Done:  E(RLC-wPBE) =  -2753.43563277     A.U. after    1 cycles
             Convg  =    0.6457D-14             -V/T =  2.0014
 KE= 2.749535160915D+03 PE=-6.578948648680D+03 EE= 1.075977855000D+03
 Leave Link  502 at Tue May 12 11:33:25 2020, MaxMem= 1073741824 cpu:      11.7
 (Enter /home/matheus/.gaussian/g09/l122.exe)
 Restoring MOs from calculation   1 to rwf.
 Counterpoise: corrected energy =   -2904.956979936845
 Counterpoise: BSSE energy =       0.000021756282
 Leave Link  122 at Tue May 12 11:33:25 2020, MaxMem= 1073741824 cpu:       0.0
 (Enter /home/matheus/.gaussian/g09/l108.exe)
 Scan completed.

 Summary of the potential surface scan:
   N      R1          SCF    
 ----  ---------  -----------
    1     3.0000  -2753.43563
    2     3.1000  -2753.43563
    3     3.2000  -2753.43563
    4     3.3000  -2753.43563
    5     3.4000  -2753.43563
    6     3.5000  -2753.43563
    7     3.6000  -2753.43563
    8     3.7000  -2753.43563
    9     3.8000  -2753.43563
   10     3.9000  -2753.43563
   11     4.0000  -2753.43563
   12     4.1000  -2753.43563
   13     4.2000  -2753.43563
   14     4.3000  -2753.43563
   15     4.4000  -2753.43563
   16     4.5000  -2753.43563
   17     4.6000  -2753.43563
   18     4.7000  -2753.43563
   19     4.8000  -2753.43563
   20     4.9000  -2753.43563
   21     5.0000  -2753.43563
 ----  ---------  -----------
  
 Leave Link  108 at Tue May 12 11:33:25 2020, MaxMem= 1073741824 cpu:       0.0
 (Enter /home/matheus/.gaussian/g09/l9999.exe)
 1\1\GINC-REDGIANT\Scan\RLC-wPBE\Aug-CC-pVTZ\H2Kr1O2\MATHEUS\12-May-202
 0\1\\#p lc-wpbe/aug-cc-PVTz int=ultrafine counterpoise=2 Scan\\TCC\\0,
 1\O,0,0.,0.,0.725\O,0,0.,0.,-0.725\H,0,0.7037808064,0.5905422151,1.023
 5104166\H,0,0.,0.9187205947,-1.0235104166\Kr,0,0.,R1,0.\\R1=3.,s,20,0.
 1\\Version=EM64L-G09RevC.01\State=1-A\HF=-2753.4356328,-2753.4356328,-
 2753.4356328,-2753.4356328,-2753.4356328,-2753.4356328,-2753.4356328,-
 2753.4356328,-2753.4356328,-2753.4356328,-2753.4356328,-2753.4356328,-
 2753.4356328,-2753.4356328,-2753.4356328,-2753.4356328,-2753.4356328,-
 2753.4356328,-2753.4356328,-2753.4356328,-2753.4356328\RMSD=1.428e-09,
 5.221e-11,1.075e-11,2.470e-12,6.344e-13,1.646e-13,3.892e-14,1.212e-14,
 6.226e-15,9.018e-15,9.858e-15,1.353e-14,1.180e-14,1.174e-14,1.156e-14,
 2.321e-15,1.042e-14,9.942e-15,4.027e-15,8.037e-15,6.457e-15\PG=C01 [X(
 H2Kr1O2)]\\@


 Change starts when someone sees the next step.
                            -- William Drayton
 Job cpu time:  0 days  3 hours 33 minutes 32.9 seconds.
 File lengths (MBytes):  RWF=     33 Int=      0 D2E=      0 Chk=      8 Scr=      1
 Normal termination of Gaussian 09 at Tue May 12 11:33:25 2020.
