 Entering Gaussian System, Link 0=g09
 Input=/home/matheus/.tcc/Inputs/Inputs-lc-wpbe-default/H2O2-Kr_23.com
 Output=/home/matheus/.tcc/Logs/Logs-lc-wpbe-default/H2O2-Kr_23.log
 Initial command:
 /home/matheus/.gaussian/g09/l1.exe /home/matheus/.gaussian/g09/scratch/Gau-32120.inp -scrdir=/home/matheus/.gaussian/g09/scratch/
 Entering Link 1 = /home/matheus/.gaussian/g09/l1.exe PID=     32124.
  
 Copyright (c) 1988,1990,1992,1993,1995,1998,2003,2009,2011,
            Gaussian, Inc.  All Rights Reserved.
  
 This is part of the Gaussian(R) 09 program.  It is based on
 the Gaussian(R) 03 system (copyright 2003, Gaussian, Inc.),
 the Gaussian(R) 98 system (copyright 1998, Gaussian, Inc.),
 the Gaussian(R) 94 system (copyright 1995, Gaussian, Inc.),
 the Gaussian 92(TM) system (copyright 1992, Gaussian, Inc.),
 the Gaussian 90(TM) system (copyright 1990, Gaussian, Inc.),
 the Gaussian 88(TM) system (copyright 1988, Gaussian, Inc.),
 the Gaussian 86(TM) system (copyright 1986, Carnegie Mellon
 University), and the Gaussian 82(TM) system (copyright 1983,
 Carnegie Mellon University). Gaussian is a federally registered
 trademark of Gaussian, Inc.
  
 This software contains proprietary and confidential information,
 including trade secrets, belonging to Gaussian, Inc.
  
 This software is provided under written license and may be
 used, copied, transmitted, or stored only in accord with that
 written license.
  
 The following legend is applicable only to US Government
 contracts under FAR:
  
                    RESTRICTED RIGHTS LEGEND
  
 Use, reproduction and disclosure by the US Government is
 subject to restrictions as set forth in subparagraphs (a)
 and (c) of the Commercial Computer Software - Restricted
 Rights clause in FAR 52.227-19.
  
 Gaussian, Inc.
 340 Quinnipiac St., Bldg. 40, Wallingford CT 06492
  
  
 ---------------------------------------------------------------
 Warning -- This program may not be used in any manner that
 competes with the business of Gaussian, Inc. or will provide
 assistance to any competitor of Gaussian, Inc.  The licensee
 of this program is prohibited from giving any competitor of
 Gaussian, Inc. access to this program.  By using this program,
 the user acknowledges that Gaussian, Inc. is engaged in the
 business of creating and licensing software in the field of
 computational chemistry and represents and warrants to the
 licensee that it is not a competitor of Gaussian, Inc. and that
 it will not use this program in any manner prohibited above.
 ---------------------------------------------------------------
  

 Cite this work as:
 Gaussian 09, Revision C.01,
 M. J. Frisch, G. W. Trucks, H. B. Schlegel, G. E. Scuseria, 
 M. A. Robb, J. R. Cheeseman, G. Scalmani, V. Barone, B. Mennucci, 
 G. A. Petersson, H. Nakatsuji, M. Caricato, X. Li, H. P. Hratchian, 
 A. F. Izmaylov, J. Bloino, G. Zheng, J. L. Sonnenberg, M. Hada, 
 M. Ehara, K. Toyota, R. Fukuda, J. Hasegawa, M. Ishida, T. Nakajima, 
 Y. Honda, O. Kitao, H. Nakai, T. Vreven, J. A. Montgomery, Jr., 
 J. E. Peralta, F. Ogliaro, M. Bearpark, J. J. Heyd, E. Brothers, 
 K. N. Kudin, V. N. Staroverov, T. Keith, R. Kobayashi, J. Normand, 
 K. Raghavachari, A. Rendell, J. C. Burant, S. S. Iyengar, J. Tomasi, 
 M. Cossi, N. Rega, J. M. Millam, M. Klene, J. E. Knox, J. B. Cross, 
 V. Bakken, C. Adamo, J. Jaramillo, R. Gomperts, R. E. Stratmann, 
 O. Yazyev, A. J. Austin, R. Cammi, C. Pomelli, J. W. Ochterski, 
 R. L. Martin, K. Morokuma, V. G. Zakrzewski, G. A. Voth, 
 P. Salvador, J. J. Dannenberg, S. Dapprich, A. D. Daniels, 
 O. Farkas, J. B. Foresman, J. V. Ortiz, J. Cioslowski, 
 and D. J. Fox, Gaussian, Inc., Wallingford CT, 2010.
 
 ******************************************
 Gaussian 09:  EM64L-G09RevC.01 23-Sep-2011
                12-May-2020 
 ******************************************
 %mem=8GB
 %nproc=8
 Will use up to    8 processors via shared memory.
 --------------------------------------------------------
 #p lc-wpbe/aug-cc-PVTz int=ultrafine counterpoise=2 Scan
 --------------------------------------------------------
 1/38=1,60=1,62=2/1,8;
 2/12=2,17=6,18=5,29=3,40=1/2;
 1/38=1,53=5172,62=2/22;
 3/5=16,6=1,7=10,11=2,16=1,25=1,30=1,74=-41,75=-5/1,2,3;
 4//1;
 5/5=2,38=5/2;
 6/7=2,8=2,9=2,10=2,18=1,28=1/1;
 1/53=4052,62=2,63=1/22;
 3/5=7,6=11,7=10,11=2,16=1,25=1,30=1,74=-41,75=-5,82=7/1,2,3;
 4//1;
 5/5=2,38=5/2;
 6/7=2,8=2,9=2,10=2,18=1,28=1/1;
 1/53=3042,62=2,63=2/22;
 3/5=7,6=11,7=10,11=2,16=1,25=1,30=1,74=-41,75=-5,82=7/1,2,3;
 4//1;
 5/5=2,38=5/2;
 6/7=2,8=2,9=2,10=2,18=1,28=1/1;
 1/53=2032,62=2,63=3/22;
 3/5=7,6=11,7=10,11=2,16=1,25=1,30=1,74=-41,75=-5,82=7/1,2,3;
 4//1;
 5/5=2,38=5/2;
 6/7=2,8=2,9=2,10=2,18=1,28=1/1;
 1/53=1022,62=2,63=4/22;
 3/5=7,6=11,7=10,11=2,16=1,25=1,30=1,74=-41,75=-5,82=7/1,2,3;
 4//1;
 5/5=2,38=5/2;
 6/7=2,8=2,9=2,10=2,18=1,28=1/1;
 1/53=5014,62=2,63=5/22;
 1/60=1,62=2/8(1);
 99/9=1/99;
 2/29=3/2;
 1/53=5173,62=2/22;
 3/5=7,6=11,7=10,11=2,16=1,25=1,30=1,74=-41,75=-5,82=7/1,2,3;
 4/5=5,16=3/1;
 5/5=2,38=5/2;
 1/53=4053,62=2,63=1/22;
 3/5=7,6=11,7=10,11=2,16=1,25=1,30=1,74=-41,75=-5,82=7/1,2,3;
 4/5=5,16=3/1;
 5/5=2,38=5/2;
 1/53=3043,62=2,63=2/22;
 3/5=7,6=11,7=10,11=2,16=1,25=1,30=1,74=-41,75=-5,82=7/1,2,3;
 4/5=5,16=3/1;
 5/5=2,38=5/2;
 1/53=2033,62=2,63=3/22;
 3/5=7,6=11,7=10,11=2,16=1,25=1,30=1,74=-41,75=-5,82=7/1,2,3;
 4/5=5,16=3/1;
 5/5=2,38=5/2;
 1/53=1024,62=2,63=4/22;
 3/5=7,6=11,7=10,11=2,16=1,25=1,30=1,74=-41,75=-5,82=7/1,2,3;
 4/5=5,16=3/1;
 5/5=2,38=5/2;
 1/53=5014,62=2,63=5/22;
 1/60=1,62=2/8(-22);
 99/9=1/99;
 Leave Link    1 at Tue May 12 18:27:19 2020, MaxMem= 1073741824 cpu:       0.1
 (Enter /home/matheus/.gaussian/g09/l101.exe)
 ---
 TCC
 ---
 Charge =  0 Multiplicity = 1 in supermolecule
 Charge =  0 Multiplicity = 1 in fragment  1.
 Charge =  0 Multiplicity = 1 in fragment  2.
 Symbolic Z-Matrix:
 O(Fragment=1)         0.        0.        0.725 
 O(Fragment=1)         0.        0.       -0.725 
 H(Fragment=1)        -0.70378  -0.59054   1.02351 
 H(Fragment=1)         0.        0.91872  -1.02351 
 Kr(Fragment=2)        0.       R1        0. 
       Variables:
  R1                    3.     Scan 20    0.1    
 
 NAtoms=      5 NQM=        0 NQMF=       0 NMMI=      5 NMMIF=      0
                NMic=       0 NMicF=      0.
                    Isotopes and Nuclear Properties:
 (Nuclear quadrupole moments (NQMom) in fm**2, nuclear magnetic moments (NMagM)
  in nuclear magnetons)

  Atom         1           2           3           4           5
 IAtWgt=          16          16           1           1          84
 AtmWgt=  15.9949146  15.9949146   1.0078250   1.0078250  83.9115064
 NucSpn=           0           0           1           1           0
 AtZEff=   0.0000000   0.0000000   0.0000000   0.0000000   0.0000000
 NQMom=    0.0000000   0.0000000   0.0000000   0.0000000   0.0000000
 NMagM=    0.0000000   0.0000000   2.7928460   2.7928460   0.0000000
 Leave Link  101 at Tue May 12 18:27:19 2020, MaxMem= 1073741824 cpu:       0.3
 (Enter /home/matheus/.gaussian/g09/l108.exe)
 Scan the potential surface.
 Variable   Value     No. Steps Step-Size
 -------- ----------- --------- ---------
     1       3.000000      20      0.1000
 A total of     21 points will be computed.
 Leave Link  108 at Tue May 12 18:27:19 2020, MaxMem= 1073741824 cpu:       0.0
 (Enter /home/matheus/.gaussian/g09/l202.exe)
 ---------------------------------------------------------------------------------------------------
                            Z-MATRIX (ANGSTROMS AND DEGREES)
   CD    Cent   Atom    N1       Length/X        N2       Alpha/Y        N3        Beta/Z          J
 ---------------------------------------------------------------------------------------------------
      1      1  O        0   0.000000          0.000000          0.725000
      2      2  O        0   0.000000          0.000000         -0.725000
      3      3  H        0  -0.703781         -0.590542          1.023510
      4      4  H        0   0.000000          0.918721         -1.023510
      5      5  Kr       0   0.000000          3.000000          0.000000
 ---------------------------------------------------------------------------------------------------
                         Z-Matrix orientation:                         
 ---------------------------------------------------------------------
 Center     Atomic      Atomic             Coordinates (Angstroms)
 Number     Number       Type             X           Y           Z
 ---------------------------------------------------------------------
      1          8           0        0.000000    0.000000    0.725000
      2          8           0        0.000000    0.000000   -0.725000
      3          1           0       -0.703781   -0.590542    1.023510
      4          1           0        0.000000    0.918721   -1.023510
      5         36           0        0.000000    3.000000    0.000000
 ---------------------------------------------------------------------
                    Distance matrix (angstroms):
                    1          2          3          4          5
     1  O    0.000000
     2  O    1.450000   0.000000
     3  H    0.966000   1.975180   0.000000
     4  H    1.975180   0.966000   2.638840   0.000000
     5  Kr   3.086361   3.086361   3.799326   2.319331   0.000000
 Stoichiometry    H2KrO2
 Framework group  C1[X(H2KrO2)]
 Deg. of freedom     9
 Full point group                 C1      NOp   1
 Largest Abelian subgroup         C1      NOp   1
 Largest concise Abelian subgroup C1      NOp   1
                         Standard orientation:                         
 ---------------------------------------------------------------------
 Center     Atomic      Atomic             Coordinates (Angstroms)
 Number     Number       Type             X           Y           Z
 ---------------------------------------------------------------------
      1          8           0       -2.016888   -0.687971   -0.094863
      2          8           0       -1.993721    0.758416    0.004771
      3          1           0       -2.624080   -1.023798    0.577220
      4          1           0       -1.070483    1.040460    0.039958
      5         36           0        0.993873   -0.016117    0.002877
 ---------------------------------------------------------------------
 Rotational constants (GHZ):     26.0617959      2.3176349      2.1364645
 Leave Link  202 at Tue May 12 18:27:19 2020, MaxMem= 1073741824 cpu:       0.0
 (Enter /home/matheus/.gaussian/g09/l122.exe)
 Leave Link  122 at Tue May 12 18:27:19 2020, MaxMem= 1073741824 cpu:       0.0
 (Enter /home/matheus/.gaussian/g09/l301.exe)
 Standard basis: Aug-CC-pVTZ (5D, 7F)
 Ernie: Thresh=  0.10000D-02 Tol=  0.10000D-05 Strict=F.
 Ernie:  38 primitive shells out of 205 were deleted.
 There are   197 symmetry adapted basis functions of A   symmetry.
 Integral buffers will be    131072 words long.
 Raffenetti 2 integral format.
 Two-electron integral symmetry is turned on.
   197 basis functions,   415 primitive gaussians,   229 cartesian basis functions
    27 alpha electrons       27 beta electrons
       nuclear repulsion energy       148.5957046553 Hartrees.
 IExCor=32609 DFT=T Ex+Corr=LC-wPBE ExCW=0 ScaHFX=  1.000000
 ScaDFX=  1.000000  0.000000  1.000000  1.000000 ScalE2=  1.000000  1.000000
 IRadAn=      5 IRanWt=     -1 IRanGd=            0 ICorTp=0
  HFx wShort=  0.000000 wLong=  0.400000 cFull=  0.000000 cShort=  0.000000 cLong=  1.000000
  DFx wShort=  0.000000 wLong=  0.400000 cFull=  0.000000 cShort=  0.000000 cLong=  1.000000
 NAtoms=    5 NActive=    5 NUniq=    5 SFac= 1.00D+00 NAtFMM=   60 NAOKFM=F Big=F
 Leave Link  301 at Tue May 12 18:27:19 2020, MaxMem= 1073741824 cpu:       0.2
 (Enter /home/matheus/.gaussian/g09/l302.exe)
 NPDir=0 NMtPBC=     1 NCelOv=     1 NCel=       1 NClECP=     1 NCelD=      1
         NCelK=      1 NCelE2=     1 NClLst=     1 CellRange=     0.0.
 One-electron integrals computed using PRISM.
 NBasis=   197 RedAO= T  NBF=   197
 NBsUse=   197 1.00D-06 NBFU=   197
 Precomputing XC quadrature grid using
 IXCGrd= 2 IRadAn=           5 IRanWt=          -1 IRanGd=           0 AccXCQ= 0.00D+00.
 NRdTot=     427 NPtTot=      123512 NUsed=      126579 NTot=      126611
 NSgBfM=   229   229   229   229   229 NAtAll=     5     5.
 Leave Link  302 at Tue May 12 18:27:20 2020, MaxMem= 1073741824 cpu:       1.0
 (Enter /home/matheus/.gaussian/g09/l303.exe)
 DipDrv:  MaxL=1.
 Leave Link  303 at Tue May 12 18:27:20 2020, MaxMem= 1073741824 cpu:       0.2
 (Enter /home/matheus/.gaussian/g09/l401.exe)
 Harris functional with IExCor=32609 diagonalized for initial guess.
 ExpMin= 2.53D-02 ExpMax= 1.17D+07 ExpMxC= 1.33D+04 IAcc=3 IRadAn=         5 AccDes= 0.00D+00
 HarFok:  IExCor=32609 AccDes= 0.00D+00 IRadAn=         5 IDoV= 1
 ScaDFX=  1.000000  1.000000  1.000000  1.000000
 FoFCou: FMM=F IPFlag=           0 FMFlag=      100000 FMFlg1=           0
         NFxFlg=           0 DoJE=T BraDBF=F KetDBF=T FulRan=T
         Omega=  0.000000  0.000000  1.000000  0.000000  0.000000 ICntrl=     500 IOpCl=  0
         NMat0=    1 NMatS0=    1 NMatT0=    0 NMatD0=    1 NMtDS0=    0 NMtDT0=    0
         I1Cent=           4 NGrid=           0.
 Petite list used in FoFCou.
 Harris En= -2904.73877156039    
 Initial guess orbital symmetries:
       Occupied  (A) (A) (A) (A) (A) (A) (A) (A) (A) (A) (A) (A)
                 (A) (A) (A) (A) (A) (A) (A) (A) (A) (A) (A) (A)
                 (A) (A) (A)
       Virtual   (A) (A) (A) (A) (A) (A) (A) (A) (A) (A) (A) (A)
                 (A) (A) (A) (A) (A) (A) (A) (A) (A) (A) (A) (A)
                 (A) (A) (A) (A) (A) (A) (A) (A) (A) (A) (A) (A)
                 (A) (A) (A) (A) (A) (A) (A) (A) (A) (A) (A) (A)
                 (A) (A) (A) (A) (A) (A) (A) (A) (A) (A) (A) (A)
                 (A) (A) (A) (A) (A) (A) (A) (A) (A) (A) (A) (A)
                 (A) (A) (A) (A) (A) (A) (A) (A) (A) (A) (A) (A)
                 (A) (A) (A) (A) (A) (A) (A) (A) (A) (A) (A) (A)
                 (A) (A) (A) (A) (A) (A) (A) (A) (A) (A) (A) (A)
                 (A) (A) (A) (A) (A) (A) (A) (A) (A) (A) (A) (A)
                 (A) (A) (A) (A) (A) (A) (A) (A) (A) (A) (A) (A)
                 (A) (A) (A) (A) (A) (A) (A) (A) (A) (A) (A) (A)
                 (A) (A) (A) (A) (A) (A) (A) (A) (A) (A) (A) (A)
                 (A) (A) (A) (A) (A) (A) (A) (A) (A) (A) (A) (A)
                 (A) (A)
 The electronic state of the initial guess is 1-A.
 Leave Link  401 at Tue May 12 18:27:20 2020, MaxMem= 1073741824 cpu:       4.3
 (Enter /home/matheus/.gaussian/g09/l502.exe)
 Closed shell SCF:
 Requested convergence on RMS density matrix=1.00D-08 within 128 cycles.
 Requested convergence on MAX density matrix=1.00D-06.
 Requested convergence on             energy=1.00D-06.
 No special actions if energy rises.
 Using DIIS extrapolation, IDIIS=  1040.
 Integral symmetry usage will be decided dynamically.
       126521 words used for storage of precomputed grid.
 IEnd=      305468 IEndB=      305468 NGot=  1073741824 MDV=  1073505667
 LenX=  1073505667 LenY=  1073452785
 Fock matrices will be formed incrementally for  20 cycles.

 Cycle   1  Pass 1  IDiag  1:
 FoFJK:  IHMeth= 1 ICntrl=     0 DoSepK=T KAlg= 1 I1Cent= 0 FoldK=F
 FoFCou: FMM=F IPFlag=           0 FMFlag=      100000 FMFlg1=           0
         NFxFlg=           0 DoJE=T BraDBF=F KetDBF=F FulRan=T
         Omega=  0.000000  0.000000  1.000000  0.000000  0.000000 ICntrl=     500 IOpCl=  0
         NMat0=    1 NMatS0=    1 NMatT0=    0 NMatD0=    1 NMtDS0=    0 NMtDT0=    0
         I1Cent=           0 NGrid=           0.
 Symmetry not used in FoFCou.
 E= -2904.88284538059    
 DIIS: error= 2.87D-02 at cycle   1 NSaved=   1.
 NSaved= 1 IEnMin= 1 EnMin= -2904.88284538059     IErMin= 1 ErrMin= 2.87D-02
 ErrMax= 2.87D-02 EMaxC= 1.00D-01 BMatC= 2.62D-01 BMatP= 2.62D-01
 IDIUse=3 WtCom= 7.13D-01 WtEn= 2.87D-01
 Coeff-Com:  0.100D+01
 Coeff-En:   0.100D+01
 Coeff:      0.100D+01
 Gap=     0.491 Goal=   None    Shift=    0.000
 GapD=    0.491 DampG=2.000 DampE=0.500 DampFc=1.0000 IDamp=-1.
 RMSDP=2.29D-03 MaxDP=1.47D-01              OVMax= 6.25D-02

 Cycle   2  Pass 1  IDiag  1:
 RMSU=  1.59D-03    CP:  1.02D+00
 FoFJK:  IHMeth= 1 ICntrl=     0 DoSepK=T KAlg= 1 I1Cent= 0 FoldK=F
 E= -2904.92679531428     Delta-E=       -0.043949933693 Rises=F Damp=F
 DIIS: error= 1.21D-02 at cycle   2 NSaved=   2.
 NSaved= 2 IEnMin= 2 EnMin= -2904.92679531428     IErMin= 2 ErrMin= 1.21D-02
 ErrMax= 1.21D-02 EMaxC= 1.00D-01 BMatC= 7.75D-02 BMatP= 2.62D-01
 IDIUse=3 WtCom= 8.79D-01 WtEn= 1.21D-01
 Coeff-Com:  0.346D+00 0.654D+00
 Coeff-En:   0.183D+00 0.817D+00
 Coeff:      0.326D+00 0.674D+00
 Gap=     0.446 Goal=   None    Shift=    0.000
 RMSDP=9.28D-04 MaxDP=5.10D-02 DE=-4.39D-02 OVMax= 2.98D-02

 Cycle   3  Pass 1  IDiag  1:
 RMSU=  3.24D-04    CP:  1.01D+00  6.52D-01
 FoFJK:  IHMeth= 1 ICntrl=     0 DoSepK=T KAlg= 1 I1Cent= 0 FoldK=F
 E= -2904.95401315903     Delta-E=       -0.027217844754 Rises=F Damp=F
 DIIS: error= 2.14D-03 at cycle   3 NSaved=   3.
 NSaved= 3 IEnMin= 3 EnMin= -2904.95401315903     IErMin= 3 ErrMin= 2.14D-03
 ErrMax= 2.14D-03 EMaxC= 1.00D-01 BMatC= 1.81D-03 BMatP= 7.75D-02
 IDIUse=3 WtCom= 9.79D-01 WtEn= 2.14D-02
 Coeff-Com:  0.617D-01 0.195D+00 0.743D+00
 Coeff-En:   0.000D+00 0.000D+00 0.100D+01
 Coeff:      0.604D-01 0.191D+00 0.749D+00
 Gap=     0.427 Goal=   None    Shift=    0.000
 RMSDP=1.16D-04 MaxDP=3.05D-03 DE=-2.72D-02 OVMax= 7.99D-03

 Cycle   4  Pass 1  IDiag  1:
 RMSU=  6.12D-05    CP:  1.01D+00  6.81D-01  9.07D-01
 FoFJK:  IHMeth= 1 ICntrl=     0 DoSepK=T KAlg= 1 I1Cent= 0 FoldK=F
 E= -2904.95495841146     Delta-E=       -0.000945252427 Rises=F Damp=F
 DIIS: error= 5.69D-04 at cycle   4 NSaved=   4.
 NSaved= 4 IEnMin= 4 EnMin= -2904.95495841146     IErMin= 4 ErrMin= 5.69D-04
 ErrMax= 5.69D-04 EMaxC= 1.00D-01 BMatC= 1.35D-04 BMatP= 1.81D-03
 IDIUse=3 WtCom= 9.94D-01 WtEn= 5.69D-03
 Coeff-Com: -0.160D-02 0.285D-01 0.284D+00 0.689D+00
 Coeff-En:   0.000D+00 0.000D+00 0.000D+00 0.100D+01
 Coeff:     -0.159D-02 0.283D-01 0.282D+00 0.691D+00
 Gap=     0.432 Goal=   None    Shift=    0.000
 RMSDP=3.45D-05 MaxDP=2.06D-03 DE=-9.45D-04 OVMax= 1.97D-03

 Cycle   5  Pass 1  IDiag  1:
 RMSU=  1.30D-05    CP:  1.01D+00  6.85D-01  9.57D-01  8.23D-01
 FoFJK:  IHMeth= 1 ICntrl=     0 DoSepK=T KAlg= 1 I1Cent= 0 FoldK=F
 E= -2904.95503469780     Delta-E=       -0.000076286340 Rises=F Damp=F
 DIIS: error= 8.20D-05 at cycle   5 NSaved=   5.
 NSaved= 5 IEnMin= 5 EnMin= -2904.95503469780     IErMin= 5 ErrMin= 8.20D-05
 ErrMax= 8.20D-05 EMaxC= 1.00D-01 BMatC= 2.84D-06 BMatP= 1.35D-04
 IDIUse=1 WtCom= 1.00D+00 WtEn= 0.00D+00
 Coeff-Com: -0.192D-02 0.137D-02 0.477D-01 0.175D+00 0.778D+00
 Coeff:     -0.192D-02 0.137D-02 0.477D-01 0.175D+00 0.778D+00
 Gap=     0.432 Goal=   None    Shift=    0.000
 RMSDP=6.98D-06 MaxDP=2.28D-04 DE=-7.63D-05 OVMax= 5.13D-04

 Cycle   6  Pass 1  IDiag  1:
 RMSU=  4.35D-06    CP:  1.01D+00  6.85D-01  9.58D-01  8.60D-01  1.03D+00
 FoFJK:  IHMeth= 1 ICntrl=     0 DoSepK=T KAlg= 1 I1Cent= 0 FoldK=F
 E= -2904.95503626161     Delta-E=       -0.000001563812 Rises=F Damp=F
 DIIS: error= 6.42D-05 at cycle   6 NSaved=   6.
 NSaved= 6 IEnMin= 6 EnMin= -2904.95503626161     IErMin= 6 ErrMin= 6.42D-05
 ErrMax= 6.42D-05 EMaxC= 1.00D-01 BMatC= 1.15D-06 BMatP= 2.84D-06
 IDIUse=1 WtCom= 1.00D+00 WtEn= 0.00D+00
 Coeff-Com: -0.676D-03-0.318D-02-0.149D-01-0.489D-02 0.399D+00 0.624D+00
 Coeff:     -0.676D-03-0.318D-02-0.149D-01-0.489D-02 0.399D+00 0.624D+00
 Gap=     0.432 Goal=   None    Shift=    0.000
 RMSDP=3.40D-06 MaxDP=1.32D-04 DE=-1.56D-06 OVMax= 2.48D-04

 Cycle   7  Pass 1  IDiag  1:
 RMSU=  1.78D-06    CP:  1.01D+00  6.85D-01  9.59D-01  8.73D-01  1.13D+00
                    CP:  8.74D-01
 FoFJK:  IHMeth= 1 ICntrl=     0 DoSepK=T KAlg= 1 I1Cent= 0 FoldK=F
 E= -2904.95503705807     Delta-E=       -0.000000796458 Rises=F Damp=F
 DIIS: error= 1.24D-05 at cycle   7 NSaved=   7.
 NSaved= 7 IEnMin= 7 EnMin= -2904.95503705807     IErMin= 7 ErrMin= 1.24D-05
 ErrMax= 1.24D-05 EMaxC= 1.00D-01 BMatC= 5.10D-08 BMatP= 1.15D-06
 IDIUse=1 WtCom= 1.00D+00 WtEn= 0.00D+00
 Coeff-Com: -0.452D-05-0.124D-02-0.109D-01-0.242D-01 0.829D-02 0.182D+00
 Coeff-Com:  0.846D+00
 Coeff:     -0.452D-05-0.124D-02-0.109D-01-0.242D-01 0.829D-02 0.182D+00
 Coeff:      0.846D+00
 Gap=     0.432 Goal=   None    Shift=    0.000
 RMSDP=1.17D-06 MaxDP=3.31D-05 DE=-7.96D-07 OVMax= 9.08D-05

 Cycle   8  Pass 1  IDiag  1:
 RMSU=  3.75D-07    CP:  1.01D+00  6.85D-01  9.59D-01  8.77D-01  1.16D+00
                    CP:  9.95D-01  1.04D+00
 FoFJK:  IHMeth= 1 ICntrl=     0 DoSepK=T KAlg= 1 I1Cent= 0 FoldK=F
 E= -2904.95503711937     Delta-E=       -0.000000061304 Rises=F Damp=F
 DIIS: error= 2.10D-06 at cycle   8 NSaved=   8.
 NSaved= 8 IEnMin= 8 EnMin= -2904.95503711937     IErMin= 8 ErrMin= 2.10D-06
 ErrMax= 2.10D-06 EMaxC= 1.00D-01 BMatC= 8.75D-10 BMatP= 5.10D-08
 IDIUse=1 WtCom= 1.00D+00 WtEn= 0.00D+00
 Coeff-Com:  0.340D-04 0.301D-03 0.202D-02 0.344D-02-0.157D-01-0.505D-01
 Coeff-Com: -0.125D+00 0.119D+01
 Coeff:      0.340D-04 0.301D-03 0.202D-02 0.344D-02-0.157D-01-0.505D-01
 Coeff:     -0.125D+00 0.119D+01
 Gap=     0.432 Goal=   None    Shift=    0.000
 RMSDP=3.35D-07 MaxDP=1.00D-05 DE=-6.13D-08 OVMax= 3.46D-05

 Cycle   9  Pass 1  IDiag  1:
 RMSU=  9.84D-08    CP:  1.01D+00  6.85D-01  9.59D-01  8.78D-01  1.16D+00
                    CP:  1.01D+00  1.09D+00  1.40D+00
 FoFJK:  IHMeth= 1 ICntrl=     0 DoSepK=T KAlg= 1 I1Cent= 0 FoldK=F
 E= -2904.95503712239     Delta-E=       -0.000000003020 Rises=F Damp=F
 DIIS: error= 4.94D-07 at cycle   9 NSaved=   9.
 NSaved= 9 IEnMin= 9 EnMin= -2904.95503712239     IErMin= 9 ErrMin= 4.94D-07
 ErrMax= 4.94D-07 EMaxC= 1.00D-01 BMatC= 4.82D-11 BMatP= 8.75D-10
 IDIUse=1 WtCom= 1.00D+00 WtEn= 0.00D+00
 Coeff-Com: -0.329D-05 0.352D-04 0.373D-03 0.106D-02 0.601D-03-0.692D-02
 Coeff-Com: -0.371D-01-0.401D-01 0.108D+01
 Coeff:     -0.329D-05 0.352D-04 0.373D-03 0.106D-02 0.601D-03-0.692D-02
 Coeff:     -0.371D-01-0.401D-01 0.108D+01
 Gap=     0.432 Goal=   None    Shift=    0.000
 RMSDP=7.35D-08 MaxDP=2.13D-06 DE=-3.02D-09 OVMax= 7.85D-06

 Cycle  10  Pass 1  IDiag  1:
 RMSU=  2.24D-08    CP:  1.01D+00  6.85D-01  9.59D-01  8.78D-01  1.16D+00
                    CP:  1.02D+00  1.09D+00  1.49D+00  1.28D+00
 FoFJK:  IHMeth= 1 ICntrl=     0 DoSepK=T KAlg= 1 I1Cent= 0 FoldK=F
 E= -2904.95503712254     Delta-E=       -0.000000000146 Rises=F Damp=F
 DIIS: error= 1.09D-07 at cycle  10 NSaved=  10.
 NSaved=10 IEnMin=10 EnMin= -2904.95503712254     IErMin=10 ErrMin= 1.09D-07
 ErrMax= 1.09D-07 EMaxC= 1.00D-01 BMatC= 3.57D-12 BMatP= 4.82D-11
 IDIUse=1 WtCom= 1.00D+00 WtEn= 0.00D+00
 Coeff-Com: -0.147D-05-0.165D-04-0.125D-03-0.239D-03 0.997D-03 0.313D-02
 Coeff-Com:  0.756D-02-0.675D-01-0.428D-01 0.110D+01
 Coeff:     -0.147D-05-0.165D-04-0.125D-03-0.239D-03 0.997D-03 0.313D-02
 Coeff:      0.756D-02-0.675D-01-0.428D-01 0.110D+01
 Gap=     0.432 Goal=   None    Shift=    0.000
 RMSDP=2.30D-08 MaxDP=9.06D-07 DE=-1.46D-10 OVMax= 2.48D-06

 Cycle  11  Pass 1  IDiag  1:
 RMSU=  6.74D-09    CP:  1.01D+00  6.85D-01  9.59D-01  8.78D-01  1.16D+00
                    CP:  1.02D+00  1.09D+00  1.50D+00  1.38D+00  1.36D+00
 FoFJK:  IHMeth= 1 ICntrl=     0 DoSepK=T KAlg= 1 I1Cent= 0 FoldK=F
 E= -2904.95503712256     Delta-E=       -0.000000000020 Rises=F Damp=F
 DIIS: error= 3.80D-08 at cycle  11 NSaved=  11.
 NSaved=11 IEnMin=11 EnMin= -2904.95503712256     IErMin=11 ErrMin= 3.80D-08
 ErrMax= 3.80D-08 EMaxC= 1.00D-01 BMatC= 4.38D-13 BMatP= 3.57D-12
 IDIUse=1 WtCom= 1.00D+00 WtEn= 0.00D+00
 Coeff-Com:  0.279D-06-0.328D-05-0.339D-04-0.100D-03-0.768D-05 0.695D-03
 Coeff-Com:  0.323D-02 0.485D-03-0.867D-01 0.368D-01 0.105D+01
 Coeff:      0.279D-06-0.328D-05-0.339D-04-0.100D-03-0.768D-05 0.695D-03
 Coeff:      0.323D-02 0.485D-03-0.867D-01 0.368D-01 0.105D+01
 Gap=     0.432 Goal=   None    Shift=    0.000
 RMSDP=7.50D-09 MaxDP=1.74D-07 DE=-2.00D-11 OVMax= 1.11D-06

 SCF Done:  E(RLC-wPBE) =  -2904.95503712     A.U. after   11 cycles
             Convg  =    0.7500D-08             -V/T =  2.0017
 KE= 2.900038167504D+03 PE=-7.234077408428D+03 EE= 1.280488499146D+03
 Leave Link  502 at Tue May 12 18:27:58 2020, MaxMem= 1073741824 cpu:     301.0
 (Enter /home/matheus/.gaussian/g09/l601.exe)
 Copying SCF densities to generalized density rwf, IOpCl= 0 IROHF=0.

 **********************************************************************

            Population analysis using the SCF density.

 **********************************************************************

 Orbital symmetries:
       Occupied  (A) (A) (A) (A) (A) (A) (A) (A) (A) (A) (A) (A)
                 (A) (A) (A) (A) (A) (A) (A) (A) (A) (A) (A) (A)
                 (A) (A) (A)
       Virtual   (A) (A) (A) (A) (A) (A) (A) (A) (A) (A) (A) (A)
                 (A) (A) (A) (A) (A) (A) (A) (A) (A) (A) (A) (A)
                 (A) (A) (A) (A) (A) (A) (A) (A) (A) (A) (A) (A)
                 (A) (A) (A) (A) (A) (A) (A) (A) (A) (A) (A) (A)
                 (A) (A) (A) (A) (A) (A) (A) (A) (A) (A) (A) (A)
                 (A) (A) (A) (A) (A) (A) (A) (A) (A) (A) (A) (A)
                 (A) (A) (A) (A) (A) (A) (A) (A) (A) (A) (A) (A)
                 (A) (A) (A) (A) (A) (A) (A) (A) (A) (A) (A) (A)
                 (A) (A) (A) (A) (A) (A) (A) (A) (A) (A) (A) (A)
                 (A) (A) (A) (A) (A) (A) (A) (A) (A) (A) (A) (A)
                 (A) (A) (A) (A) (A) (A) (A) (A) (A) (A) (A) (A)
                 (A) (A) (A) (A) (A) (A) (A) (A) (A) (A) (A) (A)
                 (A) (A) (A) (A) (A) (A) (A) (A) (A) (A) (A) (A)
                 (A) (A) (A) (A) (A) (A) (A) (A) (A) (A) (A) (A)
                 (A) (A)
 The electronic state is 1-A.
 Alpha  occ. eigenvalues -- -511.11618 -66.66309 -60.32535 -60.32516 -60.32507
 Alpha  occ. eigenvalues --  -19.03433 -19.03057  -9.59591  -7.34060  -7.34004
 Alpha  occ. eigenvalues --   -7.33977  -3.29596  -3.29585  -3.29566  -3.29525
 Alpha  occ. eigenvalues --   -3.29523  -1.25166  -1.04674  -1.03673  -0.67747
 Alpha  occ. eigenvalues --   -0.62749  -0.54744  -0.51607  -0.51143  -0.50379
 Alpha  occ. eigenvalues --   -0.45511  -0.40000
 Alpha virt. eigenvalues --    0.03221   0.04094   0.08195   0.09815   0.10473
 Alpha virt. eigenvalues --    0.11280   0.13488   0.14276   0.16672   0.17658
 Alpha virt. eigenvalues --    0.18755   0.19173   0.20591   0.22591   0.24140
 Alpha virt. eigenvalues --    0.24864   0.26634   0.29037   0.32018   0.33798
 Alpha virt. eigenvalues --    0.34352   0.34755   0.36292   0.39237   0.40105
 Alpha virt. eigenvalues --    0.41622   0.42482   0.48233   0.53199   0.56158
 Alpha virt. eigenvalues --    0.57112   0.59450   0.62754   0.67250   0.68183
 Alpha virt. eigenvalues --    0.71300   0.72062   0.72813   0.74687   0.76282
 Alpha virt. eigenvalues --    0.76449   0.78511   0.78957   0.80860   0.82560
 Alpha virt. eigenvalues --    0.85629   0.86115   0.88316   0.90291   0.91095
 Alpha virt. eigenvalues --    0.93301   0.94543   0.96832   0.97271   1.00020
 Alpha virt. eigenvalues --    1.02494   1.03263   1.05463   1.08249   1.09618
 Alpha virt. eigenvalues --    1.10729   1.14736   1.15956   1.18605   1.23158
 Alpha virt. eigenvalues --    1.25919   1.32639   1.33464   1.38331   1.41589
 Alpha virt. eigenvalues --    1.42406   1.50284   1.53685   1.55099   1.60143
 Alpha virt. eigenvalues --    1.64919   1.74583   1.83324   1.85118   1.93852
 Alpha virt. eigenvalues --    1.97506   2.00463   2.08634   2.12903   2.14109
 Alpha virt. eigenvalues --    2.15437   2.18101   2.20547   2.21809   2.24619
 Alpha virt. eigenvalues --    2.25484   2.30453   2.30976   2.31824   2.35534
 Alpha virt. eigenvalues --    2.36731   2.39302   2.43853   2.46112   2.49010
 Alpha virt. eigenvalues --    2.49084   2.50591   2.53523   2.55790   2.58244
 Alpha virt. eigenvalues --    2.60251   2.62280   2.64693   2.65911   2.71243
 Alpha virt. eigenvalues --    2.73111   2.75214   2.81495   2.85920   2.87168
 Alpha virt. eigenvalues --    2.91520   3.04461   3.10084   3.13785   3.62302
 Alpha virt. eigenvalues --    3.66264   3.85807   3.97923   4.01154   4.04721
 Alpha virt. eigenvalues --    4.07791   4.14563   4.20798   4.24693   4.27260
 Alpha virt. eigenvalues --    4.44012   4.48336   4.51151   4.52750   4.69181
 Alpha virt. eigenvalues --    4.89111   4.97810   5.05664   5.09944   5.10108
 Alpha virt. eigenvalues --    5.23456   5.40912   5.82090   6.04324   6.06961
 Alpha virt. eigenvalues --    6.09889   6.29849   6.33915   6.39440   6.51418
 Alpha virt. eigenvalues --    6.60836   6.72712   6.75017   6.79466   6.82540
 Alpha virt. eigenvalues --    6.83803   6.86901   6.87814   6.94550   7.00017
 Alpha virt. eigenvalues --    7.01325   7.16934   7.23497   7.38460   7.73933
 Alpha virt. eigenvalues --    7.74935   8.03308   8.08724  13.87072  14.55128
          Condensed to atoms (all electrons):
              1          2          3          4          5
     1  O    8.219783  -0.224952   0.214289   0.000945  -0.027723
     2  O   -0.224952   8.256409   0.013023   0.204348  -0.009065
     3  H    0.214289   0.013023   0.573178   0.002596   0.002983
     4  H    0.000945   0.204348   0.002596   0.583335  -0.013272
     5  Kr  -0.027723  -0.009065   0.002983  -0.013272  36.040951
 Mulliken atomic charges:
              1
     1  O   -0.182342
     2  O   -0.239763
     3  H    0.193932
     4  H    0.222048
     5  Kr   0.006125
 Sum of Mulliken atomic charges =   0.00000
 Mulliken charges with hydrogens summed into heavy atoms:
              1
     1  O    0.011589
     2  O   -0.017714
     5  Kr   0.006125
 Sum of Mulliken charges with hydrogens summed into heavy atoms =   0.00000
          Condensed to fragments (all electrons):
     1      -0.006125
     2       0.006125
 Electronic spatial extent (au):  <R**2>=            489.6243
 Charge=              0.0000 electrons
 Dipole moment (field-independent basis, Debye):
    X=              0.7241    Y=             -0.3723    Z=              1.1939  Tot=              1.4451
 Quadrupole moment (field-independent basis, Debye-Ang):
   XX=            -29.7119   YY=            -28.1564   ZZ=            -29.7393
   XY=              3.4684   XZ=             -3.4195   YZ=             -1.3423
 Traceless Quadrupole moment (field-independent basis, Debye-Ang):
   XX=             -0.5093   YY=              1.0461   ZZ=             -0.5368
   XY=              3.4684   XZ=             -3.4195   YZ=             -1.3423
 Octapole moment (field-independent basis, Debye-Ang**2):
  XXX=             15.3197  YYY=             -0.9340  ZZZ=              0.7605  XYY=              4.4411
  XXY=            -13.3346  XXZ=              9.2794  XZZ=              6.4769  YZZ=             -1.2086
  YYZ=              1.6369  XYZ=              3.7569
 Hexadecapole moment (field-independent basis, Debye-Ang**3):
 XXXX=           -397.0596 YYYY=            -63.8247 ZZZZ=            -30.0559 XXXY=             37.7492
 XXXZ=            -25.9763 YYYX=              5.6147 YYYZ=             -1.8021 ZZZX=             -2.3803
 ZZZY=             -1.1236 XXYY=            -76.7084 XXZZ=            -74.0046 YYZZ=            -16.7659
 XXYZ=            -10.3577 YYXZ=             -4.3525 ZZXY=              2.6684
 N-N= 1.485957046553D+02 E-N=-7.234077410417D+03  KE= 2.900038167504D+03
 No NMR shielding tensors so no spin-rotation constants.
 Leave Link  601 at Tue May 12 18:27:58 2020, MaxMem= 1073741824 cpu:       0.8
 (Enter /home/matheus/.gaussian/g09/l122.exe)
 Counterpoise: doing DCBS calculation for fragment   1 NewBq=T
 Leave Link  122 at Tue May 12 18:27:58 2020, MaxMem= 1073741824 cpu:       0.0
 (Enter /home/matheus/.gaussian/g09/l301.exe)
 Basis read from rwf:  (5D, 7F)
 No pseudopotential information found on rwf file.
 There are   197 symmetry adapted basis functions of A   symmetry.
 Integral buffers will be    131072 words long.
 Raffenetti 2 integral format.
 Two-electron integral symmetry is turned on.
   197 basis functions,   415 primitive gaussians,   229 cartesian basis functions
     9 alpha electrons        9 beta electrons
       nuclear repulsion energy        36.6087755249 Hartrees.
 IExCor=32609 DFT=T Ex+Corr=LC-wPBE ExCW=0 ScaHFX=  1.000000
 ScaDFX=  1.000000  0.000000  1.000000  1.000000 ScalE2=  1.000000  1.000000
 IRadAn=      5 IRanWt=     -1 IRanGd=            0 ICorTp=0
  HFx wShort=  0.000000 wLong=  0.400000 cFull=  0.000000 cShort=  0.000000 cLong=  1.000000
  DFx wShort=  0.000000 wLong=  0.400000 cFull=  0.000000 cShort=  0.000000 cLong=  1.000000
 NAtoms=    5 NActive=    5 NUniq=    5 SFac= 1.00D+00 NAtFMM=   60 NAOKFM=F Big=F
 No density basis found on file   718.
 Leave Link  301 at Tue May 12 18:27:58 2020, MaxMem= 1073741824 cpu:       0.2
 (Enter /home/matheus/.gaussian/g09/l302.exe)
 NPDir=0 NMtPBC=     1 NCelOv=     1 NCel=       1 NClECP=     1 NCelD=      1
         NCelK=      1 NCelE2=     1 NClLst=     1 CellRange=     0.0.
 One-electron integrals computed using PRISM.
 NBasis=   197 RedAO= T  NBF=   197
 NBsUse=   197 1.00D-06 NBFU=   197
 Precomputing XC quadrature grid using
 IXCGrd= 2 IRadAn=           5 IRanWt=          -1 IRanGd=           0 AccXCQ= 0.00D+00.
 NRdTot=     427 NPtTot=      123512 NUsed=      126579 NTot=      126611
 NSgBfM=   229   229   229   229   229 NAtAll=     5     5.
 Leave Link  302 at Tue May 12 18:27:58 2020, MaxMem= 1073741824 cpu:       1.0
 (Enter /home/matheus/.gaussian/g09/l303.exe)
 DipDrv:  MaxL=1.
 Leave Link  303 at Tue May 12 18:27:58 2020, MaxMem= 1073741824 cpu:       0.2
 (Enter /home/matheus/.gaussian/g09/l401.exe)
 Harris functional with IExCor=32609 diagonalized for initial guess.
 ExpMin= 2.53D-02 ExpMax= 1.17D+07 ExpMxC= 1.33D+04 IAcc=3 IRadAn=         5 AccDes= 0.00D+00
 HarFok:  IExCor=32609 AccDes= 0.00D+00 IRadAn=         5 IDoV= 1
 ScaDFX=  1.000000  1.000000  1.000000  1.000000
 FoFCou: FMM=F IPFlag=           0 FMFlag=      100000 FMFlg1=           0
         NFxFlg=           0 DoJE=T BraDBF=F KetDBF=T FulRan=T
         Omega=  0.000000  0.000000  1.000000  0.000000  0.000000 ICntrl=     500 IOpCl=  0
         NMat0=    1 NMatS0=    1 NMatT0=    0 NMatD0=    1 NMtDS0=    0 NMtDT0=    0
         I1Cent=           4 NGrid=           0.
 Petite list used in FoFCou.
 Harris En= -151.501464407379    
 Initial guess orbital symmetries:
       Occupied  (A) (A) (A) (A) (A) (A) (A) (A) (A)
       Virtual   (A) (A) (A) (A) (A) (A) (A) (A) (A) (A) (A) (A)
                 (A) (A) (A) (A) (A) (A) (A) (A) (A) (A) (A) (A)
                 (A) (A) (A) (A) (A) (A) (A) (A) (A) (A) (A) (A)
                 (A) (A) (A) (A) (A) (A) (A) (A) (A) (A) (A) (A)
                 (A) (A) (A) (A) (A) (A) (A) (A) (A) (A) (A) (A)
                 (A) (A) (A) (A) (A) (A) (A) (A) (A) (A) (A) (A)
                 (A) (A) (A) (A) (A) (A) (A) (A) (A) (A) (A) (A)
                 (A) (A) (A) (A) (A) (A) (A) (A) (A) (A) (A) (A)
                 (A) (A) (A) (A) (A) (A) (A) (A) (A) (A) (A) (A)
                 (A) (A) (A) (A) (A) (A) (A) (A) (A) (A) (A) (A)
                 (A) (A) (A) (A) (A) (A) (A) (A) (A) (A) (A) (A)
                 (A) (A) (A) (A) (A) (A) (A) (A) (A) (A) (A) (A)
                 (A) (A) (A) (A) (A) (A) (A) (A) (A) (A) (A) (A)
                 (A) (A) (A) (A) (A) (A) (A) (A) (A) (A) (A) (A)
                 (A) (A) (A) (A) (A) (A) (A) (A) (A) (A) (A) (A)
                 (A) (A) (A) (A) (A) (A) (A) (A)
 The electronic state of the initial guess is 1-A.
 Leave Link  401 at Tue May 12 18:27:59 2020, MaxMem= 1073741824 cpu:       4.2
 (Enter /home/matheus/.gaussian/g09/l502.exe)
 Closed shell SCF:
 Requested convergence on RMS density matrix=1.00D-08 within 128 cycles.
 Requested convergence on MAX density matrix=1.00D-06.
 Requested convergence on             energy=1.00D-06.
 No special actions if energy rises.
 Using DIIS extrapolation, IDIIS=  1040.
 Integral symmetry usage will be decided dynamically.
       126521 words used for storage of precomputed grid.
 IEnd=      305468 IEndB=      305468 NGot=  1073741824 MDV=  1073505667
 LenX=  1073505667 LenY=  1073452785
 Fock matrices will be formed incrementally for  20 cycles.

 Cycle   1  Pass 1  IDiag  1:
 FoFJK:  IHMeth= 1 ICntrl=     0 DoSepK=T KAlg= 1 I1Cent= 0 FoldK=F
 FoFCou: FMM=F IPFlag=           0 FMFlag=      100000 FMFlg1=           0
         NFxFlg=           0 DoJE=T BraDBF=F KetDBF=F FulRan=T
         Omega=  0.000000  0.000000  1.000000  0.000000  0.000000 ICntrl=     500 IOpCl=  0
         NMat0=    1 NMatS0=    1 NMatT0=    0 NMatD0=    1 NMtDS0=    0 NMtDT0=    0
         I1Cent=           0 NGrid=           0.
 Symmetry not used in FoFCou.
 E= -151.498398634966    
 DIIS: error= 1.29D-02 at cycle   1 NSaved=   1.
 NSaved= 1 IEnMin= 1 EnMin= -151.498398634966     IErMin= 1 ErrMin= 1.29D-02
 ErrMax= 1.29D-02 EMaxC= 1.00D-01 BMatC= 3.82D-02 BMatP= 3.82D-02
 IDIUse=3 WtCom= 8.71D-01 WtEn= 1.29D-01
 Coeff-Com:  0.100D+01
 Coeff-En:   0.100D+01
 Coeff:      0.100D+01
 Gap=     0.492 Goal=   None    Shift=    0.000
 GapD=    0.492 DampG=2.000 DampE=0.500 DampFc=1.0000 IDamp=-1.
 RMSDP=8.21D-04 MaxDP=2.29D-02              OVMax= 5.48D-02

 Cycle   2  Pass 1  IDiag  1:
 RMSU=  5.73D-04    CP:  9.88D-01
 FoFJK:  IHMeth= 1 ICntrl=     0 DoSepK=T KAlg= 1 I1Cent= 0 FoldK=F
 E= -151.511914015708     Delta-E=       -0.013515380742 Rises=F Damp=F
 DIIS: error= 8.17D-03 at cycle   2 NSaved=   2.
 NSaved= 2 IEnMin= 2 EnMin= -151.511914015708     IErMin= 2 ErrMin= 8.17D-03
 ErrMax= 8.17D-03 EMaxC= 1.00D-01 BMatC= 2.09D-02 BMatP= 3.82D-02
 IDIUse=3 WtCom= 9.18D-01 WtEn= 8.17D-02
 Coeff-Com:  0.417D+00 0.583D+00
 Coeff-En:   0.248D+00 0.752D+00
 Coeff:      0.403D+00 0.597D+00
 Gap=     0.434 Goal=   None    Shift=    0.000
 RMSDP=4.33D-04 MaxDP=2.30D-02 DE=-1.35D-02 OVMax= 2.50D-02

 Cycle   3  Pass 1  IDiag  1:
 RMSU=  2.40D-04    CP:  9.84D-01  6.70D-01
 FoFJK:  IHMeth= 1 ICntrl=     0 DoSepK=T KAlg= 1 I1Cent= 0 FoldK=F
 E= -151.523874118862     Delta-E=       -0.011960103154 Rises=F Damp=F
 DIIS: error= 1.29D-03 at cycle   3 NSaved=   3.
 NSaved= 3 IEnMin= 3 EnMin= -151.523874118862     IErMin= 3 ErrMin= 1.29D-03
 ErrMax= 1.29D-03 EMaxC= 1.00D-01 BMatC= 3.72D-04 BMatP= 2.09D-02
 IDIUse=3 WtCom= 9.87D-01 WtEn= 1.29D-02
 Coeff-Com:  0.630D-01 0.148D+00 0.789D+00
 Coeff-En:   0.000D+00 0.000D+00 0.100D+01
 Coeff:      0.621D-01 0.146D+00 0.792D+00
 Gap=     0.428 Goal=   None    Shift=    0.000
 RMSDP=5.77D-05 MaxDP=2.46D-03 DE=-1.20D-02 OVMax= 3.88D-03

 Cycle   4  Pass 1  IDiag  1:
 RMSU=  2.92D-05    CP:  9.82D-01  7.13D-01  1.02D+00
 FoFJK:  IHMeth= 1 ICntrl=     0 DoSepK=T KAlg= 1 I1Cent= 0 FoldK=F
 E= -151.524103415574     Delta-E=       -0.000229296712 Rises=F Damp=F
 DIIS: error= 2.34D-04 at cycle   4 NSaved=   4.
 NSaved= 4 IEnMin= 4 EnMin= -151.524103415574     IErMin= 4 ErrMin= 2.34D-04
 ErrMax= 2.34D-04 EMaxC= 1.00D-01 BMatC= 1.36D-05 BMatP= 3.72D-04
 IDIUse=3 WtCom= 9.98D-01 WtEn= 2.34D-03
 Coeff-Com: -0.437D-02-0.867D-02 0.121D+00 0.892D+00
 Coeff-En:   0.000D+00 0.000D+00 0.000D+00 0.100D+01
 Coeff:     -0.436D-02-0.864D-02 0.121D+00 0.892D+00
 Gap=     0.430 Goal=   None    Shift=    0.000
 RMSDP=1.37D-05 MaxDP=9.30D-04 DE=-2.29D-04 OVMax= 7.82D-04

 Cycle   5  Pass 1  IDiag  1:
 RMSU=  5.43D-06    CP:  9.82D-01  7.12D-01  1.06D+00  1.03D+00
 FoFJK:  IHMeth= 1 ICntrl=     0 DoSepK=T KAlg= 1 I1Cent= 0 FoldK=F
 E= -151.524112684318     Delta-E=       -0.000009268744 Rises=F Damp=F
 DIIS: error= 3.27D-05 at cycle   5 NSaved=   5.
 NSaved= 5 IEnMin= 5 EnMin= -151.524112684318     IErMin= 5 ErrMin= 3.27D-05
 ErrMax= 3.27D-05 EMaxC= 1.00D-01 BMatC= 1.23D-07 BMatP= 1.36D-05
 IDIUse=1 WtCom= 1.00D+00 WtEn= 0.00D+00
 Coeff-Com: -0.996D-03-0.281D-02-0.290D-01-0.770D-01 0.111D+01
 Coeff:     -0.996D-03-0.281D-02-0.290D-01-0.770D-01 0.111D+01
 Gap=     0.430 Goal=   None    Shift=    0.000
 RMSDP=3.28D-06 MaxDP=1.15D-04 DE=-9.27D-06 OVMax= 2.14D-04

 Cycle   6  Pass 1  IDiag  1:
 RMSU=  1.11D-06    CP:  9.82D-01  7.13D-01  1.06D+00  1.06D+00  1.32D+00
 FoFJK:  IHMeth= 1 ICntrl=     0 DoSepK=T KAlg= 1 I1Cent= 0 FoldK=F
 E= -151.524112955626     Delta-E=       -0.000000271308 Rises=F Damp=F
 DIIS: error= 7.21D-06 at cycle   6 NSaved=   6.
 NSaved= 6 IEnMin= 6 EnMin= -151.524112955626     IErMin= 6 ErrMin= 7.21D-06
 ErrMax= 7.21D-06 EMaxC= 1.00D-01 BMatC= 5.21D-09 BMatP= 1.23D-07
 IDIUse=1 WtCom= 1.00D+00 WtEn= 0.00D+00
 Coeff-Com:  0.152D-03 0.399D-03-0.137D-02-0.172D-01-0.429D-01 0.106D+01
 Coeff:      0.152D-03 0.399D-03-0.137D-02-0.172D-01-0.429D-01 0.106D+01
 Gap=     0.430 Goal=   None    Shift=    0.000
 RMSDP=6.80D-07 MaxDP=2.16D-05 DE=-2.71D-07 OVMax= 6.37D-05

 Cycle   7  Pass 1  IDiag  1:
 RMSU=  2.47D-07    CP:  9.82D-01  7.13D-01  1.06D+00  1.06D+00  1.37D+00
                    CP:  1.22D+00
 FoFJK:  IHMeth= 1 ICntrl=     0 DoSepK=T KAlg= 1 I1Cent= 0 FoldK=F
 E= -151.524112970898     Delta-E=       -0.000000015272 Rises=F Damp=F
 DIIS: error= 1.77D-06 at cycle   7 NSaved=   7.
 NSaved= 7 IEnMin= 7 EnMin= -151.524112970898     IErMin= 7 ErrMin= 1.77D-06
 ErrMax= 1.77D-06 EMaxC= 1.00D-01 BMatC= 4.48D-10 BMatP= 5.21D-09
 IDIUse=1 WtCom= 1.00D+00 WtEn= 0.00D+00
 Coeff-Com:  0.328D-04 0.921D-04 0.129D-02 0.469D-02-0.526D-01-0.961D-01
 Coeff-Com:  0.114D+01
 Coeff:      0.328D-04 0.921D-04 0.129D-02 0.469D-02-0.526D-01-0.961D-01
 Coeff:      0.114D+01
 Gap=     0.430 Goal=   None    Shift=    0.000
 RMSDP=2.23D-07 MaxDP=4.72D-06 DE=-1.53D-08 OVMax= 2.42D-05

 Cycle   8  Pass 1  IDiag  1:
 RMSU=  6.18D-08    CP:  9.82D-01  7.13D-01  1.06D+00  1.06D+00  1.37D+00
                    CP:  1.30D+00  1.40D+00
 FoFJK:  IHMeth= 1 ICntrl=     0 DoSepK=T KAlg= 1 I1Cent= 0 FoldK=F
 E= -151.524112972618     Delta-E=       -0.000000001721 Rises=F Damp=F
 DIIS: error= 3.89D-07 at cycle   8 NSaved=   8.
 NSaved= 8 IEnMin= 8 EnMin= -151.524112972618     IErMin= 8 ErrMin= 3.89D-07
 ErrMax= 3.89D-07 EMaxC= 1.00D-01 BMatC= 4.27D-11 BMatP= 4.48D-10
 IDIUse=1 WtCom= 1.00D+00 WtEn= 0.00D+00
 Coeff-Com: -0.956D-05-0.316D-04-0.110D-03 0.368D-03 0.840D-02-0.422D-01
 Coeff-Com: -0.123D+00 0.116D+01
 Coeff:     -0.956D-05-0.316D-04-0.110D-03 0.368D-03 0.840D-02-0.422D-01
 Coeff:     -0.123D+00 0.116D+01
 Gap=     0.430 Goal=   None    Shift=    0.000
 RMSDP=7.88D-08 MaxDP=2.55D-06 DE=-1.72D-09 OVMax= 1.03D-05

 Cycle   9  Pass 1  IDiag  1:
 RMSU=  2.37D-08    CP:  9.82D-01  7.13D-01  1.06D+00  1.06D+00  1.38D+00
                    CP:  1.30D+00  1.54D+00  1.52D+00
 FoFJK:  IHMeth= 1 ICntrl=     0 DoSepK=T KAlg= 1 I1Cent= 0 FoldK=F
 E= -151.524112972779     Delta-E=       -0.000000000160 Rises=F Damp=F
 DIIS: error= 3.23D-07 at cycle   9 NSaved=   9.
 NSaved= 9 IEnMin= 9 EnMin= -151.524112972779     IErMin= 9 ErrMin= 3.23D-07
 ErrMax= 3.23D-07 EMaxC= 1.00D-01 BMatC= 3.45D-11 BMatP= 4.27D-11
 IDIUse=1 WtCom= 1.00D+00 WtEn= 0.00D+00
 Coeff-Com: -0.902D-05-0.285D-04-0.232D-03-0.442D-03 0.115D-01-0.850D-02
 Coeff-Com: -0.230D+00 0.660D+00 0.567D+00
 Coeff:     -0.902D-05-0.285D-04-0.232D-03-0.442D-03 0.115D-01-0.850D-02
 Coeff:     -0.230D+00 0.660D+00 0.567D+00
 Gap=     0.430 Goal=   None    Shift=    0.000
 RMSDP=2.61D-08 MaxDP=7.86D-07 DE=-1.60D-10 OVMax= 3.36D-06

 Cycle  10  Pass 1  IDiag  1:
 RMSU=  1.03D-08    CP:  9.82D-01  7.13D-01  1.06D+00  1.06D+00  1.38D+00
                    CP:  1.30D+00  1.57D+00  1.73D+00  1.01D+00
 FoFJK:  IHMeth= 1 ICntrl=     0 DoSepK=T KAlg= 1 I1Cent= 0 FoldK=F
 E= -151.524112972815     Delta-E=       -0.000000000037 Rises=F Damp=F
 DIIS: error= 9.80D-08 at cycle  10 NSaved=  10.
 NSaved=10 IEnMin=10 EnMin= -151.524112972815     IErMin=10 ErrMin= 9.80D-08
 ErrMax= 9.80D-08 EMaxC= 1.00D-01 BMatC= 2.25D-12 BMatP= 3.45D-11
 IDIUse=1 WtCom= 1.00D+00 WtEn= 0.00D+00
 Coeff-Com:  0.116D-05 0.404D-05-0.227D-04-0.255D-03 0.197D-03 0.132D-01
 Coeff-Com: -0.356D-01-0.152D+00 0.558D-01 0.112D+01
 Coeff:      0.116D-05 0.404D-05-0.227D-04-0.255D-03 0.197D-03 0.132D-01
 Coeff:     -0.356D-01-0.152D+00 0.558D-01 0.112D+01
 Gap=     0.430 Goal=   None    Shift=    0.000
 RMSDP=2.02D-08 MaxDP=4.22D-07 DE=-3.68D-11 OVMax= 3.05D-06

 Cycle  11  Pass 1  IDiag  1:
 RMSU=  3.30D-09    CP:  9.82D-01  7.13D-01  1.06D+00  1.06D+00  1.38D+00
                    CP:  1.30D+00  1.59D+00  1.88D+00  1.32D+00  1.41D+00
 FoFJK:  IHMeth= 1 ICntrl=     0 DoSepK=T KAlg= 1 I1Cent= 0 FoldK=F
 E= -151.524112972824     Delta-E=       -0.000000000009 Rises=F Damp=F
 DIIS: error= 2.62D-08 at cycle  11 NSaved=  11.
 NSaved=11 IEnMin=11 EnMin= -151.524112972824     IErMin=11 ErrMin= 2.62D-08
 ErrMax= 2.62D-08 EMaxC= 1.00D-01 BMatC= 1.57D-13 BMatP= 2.25D-12
 IDIUse=1 WtCom= 1.00D+00 WtEn= 0.00D+00
 Coeff-Com:  0.122D-05 0.390D-05 0.311D-04 0.638D-04-0.148D-02 0.125D-02
 Coeff-Com:  0.292D-01-0.411D-01-0.764D-01-0.192D+00 0.128D+01
 Coeff:      0.122D-05 0.390D-05 0.311D-04 0.638D-04-0.148D-02 0.125D-02
 Coeff:      0.292D-01-0.411D-01-0.764D-01-0.192D+00 0.128D+01
 Gap=     0.430 Goal=   None    Shift=    0.000
 RMSDP=7.13D-09 MaxDP=2.57D-07 DE=-8.58D-12 OVMax= 9.58D-07

 SCF Done:  E(RLC-wPBE) =  -151.524112973     A.U. after   11 cycles
             Convg  =    0.7133D-08             -V/T =  2.0068
 KE= 1.505000079640D+02 PE=-4.315025537209D+02 EE= 9.286965725916D+01
 Leave Link  502 at Tue May 12 18:28:37 2020, MaxMem= 1073741824 cpu:     301.2
 (Enter /home/matheus/.gaussian/g09/l601.exe)
 Copying SCF densities to generalized density rwf, IOpCl= 0 IROHF=0.

 **********************************************************************

            Population analysis using the SCF density.

 **********************************************************************

 Orbital symmetries:
       Occupied  (A) (A) (A) (A) (A) (A) (A) (A) (A)
       Virtual   (A) (A) (A) (A) (A) (A) (A) (A) (A) (A) (A) (A)
                 (A) (A) (A) (A) (A) (A) (A) (A) (A) (A) (A) (A)
                 (A) (A) (A) (A) (A) (A) (A) (A) (A) (A) (A) (A)
                 (A) (A) (A) (A) (A) (A) (A) (A) (A) (A) (A) (A)
                 (A) (A) (A) (A) (A) (A) (A) (A) (A) (A) (A) (A)
                 (A) (A) (A) (A) (A) (A) (A) (A) (A) (A) (A) (A)
                 (A) (A) (A) (A) (A) (A) (A) (A) (A) (A) (A) (A)
                 (A) (A) (A) (A) (A) (A) (A) (A) (A) (A) (A) (A)
                 (A) (A) (A) (A) (A) (A) (A) (A) (A) (A) (A) (A)
                 (A) (A) (A) (A) (A) (A) (A) (A) (A) (A) (A) (A)
                 (A) (A) (A) (A) (A) (A) (A) (A) (A) (A) (A) (A)
                 (A) (A) (A) (A) (A) (A) (A) (A) (A) (A) (A) (A)
                 (A) (A) (A) (A) (A) (A) (A) (A) (A) (A) (A) (A)
                 (A) (A) (A) (A) (A) (A) (A) (A) (A) (A) (A) (A)
                 (A) (A) (A) (A) (A) (A) (A) (A) (A) (A) (A) (A)
                 (A) (A) (A) (A) (A) (A) (A) (A)
 The electronic state is 1-A.
 Alpha  occ. eigenvalues --  -19.03598 -19.03596  -1.25376  -1.04189  -0.67874
 Alpha  occ. eigenvalues --   -0.62264  -0.54629  -0.45916  -0.40261
 Alpha virt. eigenvalues --    0.02754   0.03567   0.07090   0.08707   0.10083
 Alpha virt. eigenvalues --    0.10368   0.11052   0.13906   0.16589   0.16997
 Alpha virt. eigenvalues --    0.18645   0.19130   0.21061   0.23191   0.25246
 Alpha virt. eigenvalues --    0.27192   0.30518   0.31533   0.32714   0.33349
 Alpha virt. eigenvalues --    0.34772   0.38073   0.38508   0.39785   0.40645
 Alpha virt. eigenvalues --    0.42605   0.44126   0.47102   0.48673   0.49836
 Alpha virt. eigenvalues --    0.54964   0.57787   0.59749   0.63081   0.68691
 Alpha virt. eigenvalues --    0.71212   0.73837   0.74589   0.76506   0.78089
 Alpha virt. eigenvalues --    0.80195   0.82175   0.88049   0.89888   0.90773
 Alpha virt. eigenvalues --    0.91350   0.93992   0.95476   0.97158   0.99396
 Alpha virt. eigenvalues --    1.00184   1.04267   1.05929   1.08632   1.11637
 Alpha virt. eigenvalues --    1.13027   1.15275   1.17948   1.22855   1.24765
 Alpha virt. eigenvalues --    1.25933   1.30170   1.31451   1.32568   1.33598
 Alpha virt. eigenvalues --    1.34235   1.35811   1.36933   1.37606   1.38662
 Alpha virt. eigenvalues --    1.45633   1.50417   1.52479   1.53881   1.56012
 Alpha virt. eigenvalues --    1.58461   1.64301   1.67320   1.69005   1.79339
 Alpha virt. eigenvalues --    1.82767   1.85431   1.87788   1.95751   2.00486
 Alpha virt. eigenvalues --    2.07855   2.11196   2.15163   2.17556   2.21530
 Alpha virt. eigenvalues --    2.28281   2.29821   2.31133   2.35729   2.43495
 Alpha virt. eigenvalues --    2.46449   2.51939   2.53436   2.63368   2.65108
 Alpha virt. eigenvalues --    2.66917   2.74508   2.83049   2.85478   2.89220
 Alpha virt. eigenvalues --    3.03556   3.08280   3.10985   3.26079   3.30462
 Alpha virt. eigenvalues --    3.40800   3.55396   3.62137   3.67809   3.78690
 Alpha virt. eigenvalues --    3.78862   3.81314   3.82605   3.82755   3.83307
 Alpha virt. eigenvalues --    3.86443   3.89073   3.90710   3.94258   3.96194
 Alpha virt. eigenvalues --    4.00413   4.01836   4.05205   4.07372   4.11333
 Alpha virt. eigenvalues --    4.16358   4.22209   4.24313   4.29170   4.34833
 Alpha virt. eigenvalues --    4.46451   4.51718   4.53452   4.69235   4.89700
 Alpha virt. eigenvalues --    4.97842   5.05692   5.09996   5.10344   5.23862
 Alpha virt. eigenvalues --    5.40717   5.81854   6.04262   6.06826   6.09575
 Alpha virt. eigenvalues --    6.29834   6.33895   6.39304   6.51312   6.60671
 Alpha virt. eigenvalues --    6.72482   6.74720   6.79309   6.82135   6.83527
 Alpha virt. eigenvalues --    6.86756   6.87625   6.94386   6.99945   7.01131
 Alpha virt. eigenvalues --    7.16740   7.23126   7.38328   7.73717   7.74725
 Alpha virt. eigenvalues --    8.03133   8.08074  10.89967  13.86970  14.53638
 Alpha virt. eigenvalues --   14.83501  14.88501  15.10416  29.03268  29.03706
 Alpha virt. eigenvalues --   29.08192  29.13800  29.23286  49.10996 148.31573
 Alpha virt. eigenvalues --  148.38661 148.71076 752.51385
          Condensed to atoms (all electrons):
              1          2          3          4          5
     1  O    8.224355  -0.220702   0.198554  -0.002130   0.001101
     2  O   -0.220702   8.221896   0.013813   0.203407  -0.000344
     3  H    0.198554   0.013813   0.582923   0.003983  -0.000364
     4  H   -0.002130   0.203407   0.003983   0.584810  -0.004812
     5  Kr   0.001101  -0.000344  -0.000364  -0.004812   0.001001
 Mulliken atomic charges:
              1
     1  O   -0.201179
     2  O   -0.218070
     3  H    0.201090
     4  H    0.214742
     5  Kr   0.003418
 Sum of Mulliken atomic charges =   0.00000
 Mulliken charges with hydrogens summed into heavy atoms:
              1
     1  O   -0.000089
     2  O   -0.003328
     5  Kr   0.003418
 Sum of Mulliken charges with hydrogens summed into heavy atoms =   0.00000
          Condensed to fragments (all electrons):
     1      -0.003418
     2       0.003418
 Electronic spatial extent (au):  <R**2>=            323.3782
 Charge=              0.0000 electrons
 Dipole moment (field-independent basis, Debye):
    X=              0.5539    Y=             -0.0943    Z=              1.2386  Tot=              1.3601
 Quadrupole moment (field-independent basis, Debye-Ang):
   XX=            -12.0659   YY=            -10.5720   ZZ=            -12.2125
   XY=              3.6316   XZ=             -3.3857   YZ=             -1.3426
 Traceless Quadrupole moment (field-independent basis, Debye-Ang):
   XX=             -0.4491   YY=              1.0448   ZZ=             -0.5957
   XY=              3.6316   XZ=             -3.3857   YZ=             -1.3426
 Octapole moment (field-independent basis, Debye-Ang**2):
  XXX=             66.7394  YYY=             -1.4010  ZZZ=              0.9890  XYY=             21.7797
  XXY=            -13.2664  XXZ=              9.3888  XZZ=             23.8651  YZZ=             -1.3647
  YYZ=              1.7112  XYZ=              3.7582
 Hexadecapole moment (field-independent basis, Debye-Ang**3):
 XXXX=           -273.1882 YYYY=            -45.6518 ZZZZ=            -11.9817 XXXY=             37.1364
 XXXZ=            -25.7631 YYYX=              5.1149 YYYZ=             -1.8048 ZZZX=             -2.1654
 ZZZY=             -1.1267 XXYY=            -53.0975 XXZZ=            -50.5519 YYZZ=            -10.7195
 XXYZ=            -10.3703 YYXZ=             -4.2757 ZZXY=              2.4652
 N-N= 3.660877552490D+01 E-N=-4.315025536395D+02  KE= 1.505000079640D+02
 No NMR shielding tensors so no spin-rotation constants.
 Leave Link  601 at Tue May 12 18:28:37 2020, MaxMem= 1073741824 cpu:       0.9
 (Enter /home/matheus/.gaussian/g09/l122.exe)
 Counterpoise: doing DCBS calculation for fragment   2 NewBq=T
 Leave Link  122 at Tue May 12 18:28:37 2020, MaxMem= 1073741824 cpu:       0.0
 (Enter /home/matheus/.gaussian/g09/l301.exe)
 Basis read from rwf:  (5D, 7F)
 No pseudopotential information found on rwf file.
 There are   197 symmetry adapted basis functions of A   symmetry.
 Integral buffers will be    131072 words long.
 Raffenetti 2 integral format.
 Two-electron integral symmetry is turned on.
   197 basis functions,   415 primitive gaussians,   229 cartesian basis functions
    18 alpha electrons       18 beta electrons
       nuclear repulsion energy         0.0000000000 Hartrees.
 IExCor=32609 DFT=T Ex+Corr=LC-wPBE ExCW=0 ScaHFX=  1.000000
 ScaDFX=  1.000000  0.000000  1.000000  1.000000 ScalE2=  1.000000  1.000000
 IRadAn=      5 IRanWt=     -1 IRanGd=            0 ICorTp=0
  HFx wShort=  0.000000 wLong=  0.400000 cFull=  0.000000 cShort=  0.000000 cLong=  1.000000
  DFx wShort=  0.000000 wLong=  0.400000 cFull=  0.000000 cShort=  0.000000 cLong=  1.000000
 NAtoms=    5 NActive=    5 NUniq=    5 SFac= 1.00D+00 NAtFMM=   60 NAOKFM=F Big=F
 No density basis found on file   718.
 Leave Link  301 at Tue May 12 18:28:37 2020, MaxMem= 1073741824 cpu:       0.2
 (Enter /home/matheus/.gaussian/g09/l302.exe)
 NPDir=0 NMtPBC=     1 NCelOv=     1 NCel=       1 NClECP=     1 NCelD=      1
         NCelK=      1 NCelE2=     1 NClLst=     1 CellRange=     0.0.
 One-electron integrals computed using PRISM.
 NBasis=   197 RedAO= T  NBF=   197
 NBsUse=   197 1.00D-06 NBFU=   197
 Precomputing XC quadrature grid using
 IXCGrd= 2 IRadAn=           5 IRanWt=          -1 IRanGd=           0 AccXCQ= 0.00D+00.
 NRdTot=     427 NPtTot=      123512 NUsed=      126579 NTot=      126611
 NSgBfM=   229   229   229   229   229 NAtAll=     5     5.
 Leave Link  302 at Tue May 12 18:28:37 2020, MaxMem= 1073741824 cpu:       1.0
 (Enter /home/matheus/.gaussian/g09/l303.exe)
 DipDrv:  MaxL=1.
 Leave Link  303 at Tue May 12 18:28:37 2020, MaxMem= 1073741824 cpu:       0.2
 (Enter /home/matheus/.gaussian/g09/l401.exe)
 Harris functional with IExCor=32609 diagonalized for initial guess.
 ExpMin= 2.53D-02 ExpMax= 1.17D+07 ExpMxC= 1.33D+04 IAcc=3 IRadAn=         5 AccDes= 0.00D+00
 HarFok:  IExCor=32609 AccDes= 0.00D+00 IRadAn=         5 IDoV= 1
 ScaDFX=  1.000000  1.000000  1.000000  1.000000
 FoFCou: FMM=F IPFlag=           0 FMFlag=      100000 FMFlg1=           0
         NFxFlg=           0 DoJE=T BraDBF=F KetDBF=T FulRan=T
         Omega=  0.000000  0.000000  1.000000  0.000000  0.000000 ICntrl=     500 IOpCl=  0
         NMat0=    1 NMatS0=    1 NMatT0=    0 NMatD0=    1 NMtDS0=    0 NMtDT0=    0
         I1Cent=           4 NGrid=           0.
 Petite list used in FoFCou.
 Harris En= -2753.24648670955    
 Initial guess orbital symmetries:
       Occupied  (A) (A) (A) (A) (A) (A) (A) (A) (A) (A) (A) (A)
                 (A) (A) (A) (A) (A) (A)
       Virtual   (A) (A) (A) (A) (A) (A) (A) (A) (A) (A) (A) (A)
                 (A) (A) (A) (A) (A) (A) (A) (A) (A) (A) (A) (A)
                 (A) (A) (A) (A) (A) (A) (A) (A) (A) (A) (A) (A)
                 (A) (A) (A) (A) (A) (A) (A) (A) (A) (A) (A) (A)
                 (A) (A) (A) (A) (A) (A) (A) (A) (A) (A) (A) (A)
                 (A) (A) (A) (A) (A) (A) (A) (A) (A) (A) (A) (A)
                 (A) (A) (A) (A) (A) (A) (A) (A) (A) (A) (A) (A)
                 (A) (A) (A) (A) (A) (A) (A) (A) (A) (A) (A) (A)
                 (A) (A) (A) (A) (A) (A) (A) (A) (A) (A) (A) (A)
                 (A) (A) (A) (A) (A) (A) (A) (A) (A) (A) (A) (A)
                 (A) (A) (A) (A) (A) (A) (A) (A) (A) (A) (A) (A)
                 (A) (A) (A) (A) (A) (A) (A) (A) (A) (A) (A) (A)
                 (A) (A) (A) (A) (A) (A) (A) (A) (A) (A) (A) (A)
                 (A) (A) (A) (A) (A) (A) (A) (A) (A) (A) (A) (A)
                 (A) (A) (A) (A) (A) (A) (A) (A) (A) (A) (A)
 The electronic state of the initial guess is 1-A.
 Leave Link  401 at Tue May 12 18:28:37 2020, MaxMem= 1073741824 cpu:       4.3
 (Enter /home/matheus/.gaussian/g09/l502.exe)
 Closed shell SCF:
 Requested convergence on RMS density matrix=1.00D-08 within 128 cycles.
 Requested convergence on MAX density matrix=1.00D-06.
 Requested convergence on             energy=1.00D-06.
 No special actions if energy rises.
 Using DIIS extrapolation, IDIIS=  1040.
 Integral symmetry usage will be decided dynamically.
       126521 words used for storage of precomputed grid.
 IEnd=      305468 IEndB=      305468 NGot=  1073741824 MDV=  1073505667
 LenX=  1073505667 LenY=  1073452785
 Fock matrices will be formed incrementally for  20 cycles.

 Cycle   1  Pass 1  IDiag  1:
 FoFJK:  IHMeth= 1 ICntrl=     0 DoSepK=T KAlg= 1 I1Cent= 0 FoldK=F
 FoFCou: FMM=F IPFlag=           0 FMFlag=      100000 FMFlg1=           0
         NFxFlg=           0 DoJE=T BraDBF=F KetDBF=F FulRan=T
         Omega=  0.000000  0.000000  1.000000  0.000000  0.000000 ICntrl=     500 IOpCl=  0
         NMat0=    1 NMatS0=    1 NMatT0=    0 NMatD0=    1 NMtDS0=    0 NMtDT0=    0
         I1Cent=           0 NGrid=           0.
 Symmetry not used in FoFCou.
 E= -2753.38972162138    
 DIIS: error= 2.84D-02 at cycle   1 NSaved=   1.
 NSaved= 1 IEnMin= 1 EnMin= -2753.38972162138     IErMin= 1 ErrMin= 2.84D-02
 ErrMax= 2.84D-02 EMaxC= 1.00D-01 BMatC= 2.22D-01 BMatP= 2.22D-01
 IDIUse=3 WtCom= 7.16D-01 WtEn= 2.84D-01
 Coeff-Com:  0.100D+01
 Coeff-En:   0.100D+01
 Coeff:      0.100D+01
 Gap=     0.610 Goal=   None    Shift=    0.000
 GapD=    0.610 DampG=2.000 DampE=0.500 DampFc=1.0000 IDamp=-1.
 RMSDP=2.11D-03 MaxDP=1.47D-01              OVMax= 5.10D-02

 Cycle   2  Pass 1  IDiag  1:
 RMSU=  1.45D-03    CP:  1.02D+00
 FoFJK:  IHMeth= 1 ICntrl=     0 DoSepK=T KAlg= 1 I1Cent= 0 FoldK=F
 E= -2753.42036184045     Delta-E=       -0.030640219068 Rises=F Damp=F
 DIIS: error= 1.17D-02 at cycle   2 NSaved=   2.
 NSaved= 2 IEnMin= 2 EnMin= -2753.42036184045     IErMin= 2 ErrMin= 1.17D-02
 ErrMax= 1.17D-02 EMaxC= 1.00D-01 BMatC= 5.51D-02 BMatP= 2.22D-01
 IDIUse=3 WtCom= 8.83D-01 WtEn= 1.17D-01
 Coeff-Com:  0.328D+00 0.672D+00
 Coeff-En:   0.130D+00 0.870D+00
 Coeff:      0.305D+00 0.695D+00
 Gap=     0.524 Goal=   None    Shift=    0.000
 RMSDP=7.99D-04 MaxDP=5.15D-02 DE=-3.06D-02 OVMax= 2.09D-02

 Cycle   3  Pass 1  IDiag  1:
 RMSU=  1.66D-04    CP:  1.01D+00  6.40D-01
 FoFJK:  IHMeth= 1 ICntrl=     0 DoSepK=T KAlg= 1 I1Cent= 0 FoldK=F
 E= -2753.43557015442     Delta-E=       -0.015208313968 Rises=F Damp=F
 DIIS: error= 1.34D-03 at cycle   3 NSaved=   3.
 NSaved= 3 IEnMin= 3 EnMin= -2753.43557015442     IErMin= 3 ErrMin= 1.34D-03
 ErrMax= 1.34D-03 EMaxC= 1.00D-01 BMatC= 6.03D-04 BMatP= 5.51D-02
 IDIUse=3 WtCom= 9.87D-01 WtEn= 1.34D-02
 Coeff-Com: -0.246D-03 0.938D-01 0.906D+00
 Coeff-En:   0.000D+00 0.000D+00 0.100D+01
 Coeff:     -0.243D-03 0.925D-01 0.908D+00
 Gap=     0.531 Goal=   None    Shift=    0.000
 RMSDP=7.50D-05 MaxDP=4.42D-03 DE=-1.52D-02 OVMax= 2.68D-03

 Cycle   4  Pass 1  IDiag  1:
 RMSU=  1.80D-05    CP:  1.01D+00  6.73D-01  9.95D-01
 FoFJK:  IHMeth= 1 ICntrl=     0 DoSepK=T KAlg= 1 I1Cent= 0 FoldK=F
 E= -2753.43575232404     Delta-E=       -0.000182169616 Rises=F Damp=F
 DIIS: error= 3.41D-05 at cycle   4 NSaved=   4.
 NSaved= 4 IEnMin= 4 EnMin= -2753.43575232404     IErMin= 4 ErrMin= 3.41D-05
 ErrMax= 3.41D-05 EMaxC= 1.00D-01 BMatC= 4.53D-07 BMatP= 6.03D-04
 IDIUse=1 WtCom= 1.00D+00 WtEn= 0.00D+00
 Coeff-Com: -0.125D-02-0.162D-01-0.112D+00 0.113D+01
 Coeff:     -0.125D-02-0.162D-01-0.112D+00 0.113D+01
 Gap=     0.531 Goal=   None    Shift=    0.000
 RMSDP=6.38D-06 MaxDP=2.49D-04 DE=-1.82D-04 OVMax= 3.91D-04

 Cycle   5  Pass 1  IDiag  1:
 RMSU=  2.19D-06    CP:  1.01D+00  6.73D-01  1.01D+00  1.12D+00
 FoFJK:  IHMeth= 1 ICntrl=     0 DoSepK=T KAlg= 1 I1Cent= 0 FoldK=F
 E= -2753.43575285199     Delta-E=       -0.000000527958 Rises=F Damp=F
 DIIS: error= 7.16D-06 at cycle   5 NSaved=   5.
 NSaved= 5 IEnMin= 5 EnMin= -2753.43575285199     IErMin= 5 ErrMin= 7.16D-06
 ErrMax= 7.16D-06 EMaxC= 1.00D-01 BMatC= 1.16D-08 BMatP= 4.53D-07
 IDIUse=1 WtCom= 1.00D+00 WtEn= 0.00D+00
 Coeff-Com:  0.278D-04-0.234D-02-0.244D-01 0.932D-01 0.934D+00
 Coeff:      0.278D-04-0.234D-02-0.244D-01 0.932D-01 0.934D+00
 Gap=     0.531 Goal=   None    Shift=    0.000
 RMSDP=7.15D-07 MaxDP=3.10D-05 DE=-5.28D-07 OVMax= 3.05D-05

 Cycle   6  Pass 1  IDiag  1:
 RMSU=  2.14D-07    CP:  1.01D+00  6.73D-01  1.01D+00  1.15D+00  1.03D+00
 FoFJK:  IHMeth= 1 ICntrl=     0 DoSepK=T KAlg= 1 I1Cent= 0 FoldK=F
 E= -2753.43575286148     Delta-E=       -0.000000009489 Rises=F Damp=F
 DIIS: error= 3.55D-07 at cycle   6 NSaved=   6.
 NSaved= 6 IEnMin= 6 EnMin= -2753.43575286148     IErMin= 6 ErrMin= 3.55D-07
 ErrMax= 3.55D-07 EMaxC= 1.00D-01 BMatC= 4.15D-11 BMatP= 1.16D-08
 IDIUse=1 WtCom= 1.00D+00 WtEn= 0.00D+00
 Coeff-Com:  0.255D-05 0.151D-03 0.160D-02-0.113D-01-0.799D-01 0.109D+01
 Coeff:      0.255D-05 0.151D-03 0.160D-02-0.113D-01-0.799D-01 0.109D+01
 Gap=     0.531 Goal=   None    Shift=    0.000
 RMSDP=9.82D-08 MaxDP=3.60D-06 DE=-9.49D-09 OVMax= 4.46D-06

 Cycle   7  Pass 1  IDiag  1:
 RMSU=  1.61D-08    CP:  1.01D+00  6.73D-01  1.01D+00  1.15D+00  1.05D+00
                    CP:  1.22D+00
 FoFJK:  IHMeth= 1 ICntrl=     0 DoSepK=T KAlg= 1 I1Cent= 0 FoldK=F
 E= -2753.43575286036     Delta-E=        0.000000001124 Rises=F Damp=F
 DIIS: error= 6.18D-08 at cycle   7 NSaved=   7.
 NSaved= 7 IEnMin= 6 EnMin= -2753.43575286148     IErMin= 7 ErrMin= 6.18D-08
 ErrMax= 6.18D-08 EMaxC= 1.00D-01 BMatC= 1.40D-12 BMatP= 4.15D-11
 IDIUse=1 WtCom= 1.00D+00 WtEn= 0.00D+00
 Coeff-Com: -0.224D-06 0.256D-04 0.282D-03-0.145D-02-0.161D-01 0.124D+00
 Coeff-Com:  0.894D+00
 Coeff:     -0.224D-06 0.256D-04 0.282D-03-0.145D-02-0.161D-01 0.124D+00
 Coeff:      0.894D+00
 Gap=     0.531 Goal=   None    Shift=    0.000
 RMSDP=1.09D-08 MaxDP=4.02D-07 DE= 1.12D-09 OVMax= 6.29D-07

 Cycle   8  Pass 1  IDiag  1:
 RMSU=  3.72D-09    CP:  1.01D+00  6.73D-01  1.01D+00  1.15D+00  1.05D+00
                    CP:  1.25D+00  1.11D+00
 FoFJK:  IHMeth= 1 ICntrl=     0 DoSepK=T KAlg= 1 I1Cent= 0 FoldK=F
 E= -2753.43575286036     Delta-E=       -0.000000000005 Rises=F Damp=F
 DIIS: error= 1.70D-08 at cycle   8 NSaved=   8.
 NSaved= 8 IEnMin= 6 EnMin= -2753.43575286148     IErMin= 8 ErrMin= 1.70D-08
 ErrMax= 1.70D-08 EMaxC= 1.00D-01 BMatC= 1.11D-13 BMatP= 1.40D-12
 IDIUse=1 WtCom= 1.00D+00 WtEn= 0.00D+00
 Coeff-Com: -0.287D-06-0.121D-04-0.127D-03 0.970D-03 0.512D-02-0.854D-01
 Coeff-Com:  0.694D-01 0.101D+01
 Coeff:     -0.287D-06-0.121D-04-0.127D-03 0.970D-03 0.512D-02-0.854D-01
 Coeff:      0.694D-01 0.101D+01
 Gap=     0.531 Goal=   None    Shift=    0.000
 RMSDP=3.87D-09 MaxDP=1.57D-07 DE=-4.55D-12 OVMax= 2.39D-07

 SCF Done:  E(RLC-wPBE) =  -2753.43575286     A.U. after    8 cycles
             Convg  =    0.3869D-08             -V/T =  2.0014
 KE= 2.749488080818D+03 PE=-6.578896553475D+03 EE= 1.075972719797D+03
 Leave Link  502 at Tue May 12 18:29:05 2020, MaxMem= 1073741824 cpu:     221.3
 (Enter /home/matheus/.gaussian/g09/l601.exe)
 Copying SCF densities to generalized density rwf, IOpCl= 0 IROHF=0.

 **********************************************************************

            Population analysis using the SCF density.

 **********************************************************************

 Orbital symmetries:
       Occupied  (A) (A) (A) (A) (A) (A) (A) (A) (A) (A) (A) (A)
                 (A) (A) (A) (A) (A) (A)
       Virtual   (A) (A) (A) (A) (A) (A) (A) (A) (A) (A) (A) (A)
                 (A) (A) (A) (A) (A) (A) (A) (A) (A) (A) (A) (A)
                 (A) (A) (A) (A) (A) (A) (A) (A) (A) (A) (A) (A)
                 (A) (A) (A) (A) (A) (A) (A) (A) (A) (A) (A) (A)
                 (A) (A) (A) (A) (A) (A) (A) (A) (A) (A) (A) (A)
                 (A) (A) (A) (A) (A) (A) (A) (A) (A) (A) (A) (A)
                 (A) (A) (A) (A) (A) (A) (A) (A) (A) (A) (A) (A)
                 (A) (A) (A) (A) (A) (A) (A) (A) (A) (A) (A) (A)
                 (A) (A) (A) (A) (A) (A) (A) (A) (A) (A) (A) (A)
                 (A) (A) (A) (A) (A) (A) (A) (A) (A) (A) (A) (A)
                 (A) (A) (A) (A) (A) (A) (A) (A) (A) (A) (A) (A)
                 (A) (A) (A) (A) (A) (A) (A) (A) (A) (A) (A) (A)
                 (A) (A) (A) (A) (A) (A) (A) (A) (A) (A) (A) (A)
                 (A) (A) (A) (A) (A) (A) (A) (A) (A) (A) (A) (A)
                 (A) (A) (A) (A) (A) (A) (A) (A) (A) (A) (A)
 The electronic state is 1-A.
 Alpha  occ. eigenvalues -- -511.10626 -66.65305 -60.31519 -60.31516 -60.31515
 Alpha  occ. eigenvalues --   -9.58572  -7.32996  -7.32994  -7.32994  -3.28540
 Alpha  occ. eigenvalues --   -3.28540  -3.28539  -3.28538  -3.28538  -1.03232
 Alpha  occ. eigenvalues --   -0.50220  -0.50217  -0.50216
 Alpha virt. eigenvalues --    0.02879   0.04869   0.08372   0.09404   0.11226
 Alpha virt. eigenvalues --    0.12150   0.13127   0.14008   0.16437   0.17045
 Alpha virt. eigenvalues --    0.17647   0.19669   0.20975   0.25762   0.27248
 Alpha virt. eigenvalues --    0.27765   0.28361   0.31699   0.33417   0.35091
 Alpha virt. eigenvalues --    0.36025   0.37270   0.37895   0.39193   0.41711
 Alpha virt. eigenvalues --    0.41878   0.43287   0.53878   0.54605   0.58094
 Alpha virt. eigenvalues --    0.58718   0.66178   0.67024   0.70161   0.72341
 Alpha virt. eigenvalues --    0.74618   0.75241   0.76958   0.77140   0.79042
 Alpha virt. eigenvalues --    0.80247   0.80381   0.83617   0.85465   0.85875
 Alpha virt. eigenvalues --    0.87358   0.88280   0.89475   0.91559   0.94697
 Alpha virt. eigenvalues --    0.97413   0.99174   0.99965   1.02647   1.03170
 Alpha virt. eigenvalues --    1.05713   1.06564   1.08548   1.11417   1.12475
 Alpha virt. eigenvalues --    1.15223   1.19561   1.21941   1.23025   1.28321
 Alpha virt. eigenvalues --    1.33088   1.35401   1.40383   1.44286   1.44729
 Alpha virt. eigenvalues --    1.55417   1.58777   1.59696   1.71728   1.78866
 Alpha virt. eigenvalues --    1.80219   1.84245   1.87350   1.93732   2.15357
 Alpha virt. eigenvalues --    2.19063   2.25039   2.27410   2.30486   2.30963
 Alpha virt. eigenvalues --    2.32043   2.32883   2.35866   2.37479   2.40501
 Alpha virt. eigenvalues --    2.44653   2.47261   2.48200   2.49165   2.49305
 Alpha virt. eigenvalues --    2.51172   2.53712   2.55379   2.55959   2.58456
 Alpha virt. eigenvalues --    2.62097   2.63513   2.63920   2.65663   2.69021
 Alpha virt. eigenvalues --    2.72424   2.75841   2.82410   2.86382   2.87784
 Alpha virt. eigenvalues --    2.92999   2.94597   3.03971   3.12688   3.19107
 Alpha virt. eigenvalues --    3.22196   3.27411   3.33397   3.33874   3.50569
 Alpha virt. eigenvalues --    3.61177   3.66608   3.82436   3.87141   4.03487
 Alpha virt. eigenvalues --    4.35074   4.48915   4.52318   4.56770   4.59936
 Alpha virt. eigenvalues --    4.72044   4.87625   4.88487   4.94090   5.02204
 Alpha virt. eigenvalues --    5.16216   5.17804   5.59089   5.63675   5.78600
 Alpha virt. eigenvalues --    5.98380   6.00498   6.17061   6.75876   6.88415
 Alpha virt. eigenvalues --    7.35183   7.39350   7.62246   7.65607   7.70315
 Alpha virt. eigenvalues --    7.86663   7.96259   8.10550   8.17603   8.21531
 Alpha virt. eigenvalues --    8.38712   8.42377   8.62219   8.88035   9.62703
 Alpha virt. eigenvalues --    9.71929   9.81502   9.88657   9.95696  10.02015
 Alpha virt. eigenvalues --   10.15471  10.28218  10.43771  10.95209  11.51214
 Alpha virt. eigenvalues --   11.63199  11.66925  12.04472  12.08135  13.26707
 Alpha virt. eigenvalues --   13.61511  14.53669  62.69707  64.61105
          Condensed to atoms (all electrons):
              1          2          3          4          5
     1  O    0.001855  -0.001362  -0.001094   0.000938  -0.009382
     2  O   -0.001362   0.004111   0.000335  -0.002991   0.000971
     3  H   -0.001094   0.000335   0.000860  -0.000222   0.002655
     4  H    0.000938  -0.002991  -0.000222   0.003631  -0.028864
     5  Kr  -0.009382   0.000971   0.002655  -0.028864  36.067574
 Mulliken atomic charges:
              1
     1  O    0.009044
     2  O   -0.001064
     3  H   -0.002535
     4  H    0.027508
     5  Kr  -0.032954
 Sum of Mulliken atomic charges =   0.00000
 Mulliken charges with hydrogens summed into heavy atoms:
              1
     1  O    0.006510
     2  O    0.026444
     5  Kr  -0.032954
 Sum of Mulliken charges with hydrogens summed into heavy atoms =   0.00000
          Condensed to fragments (all electrons):
     1       0.032954
     2      -0.032954
 Electronic spatial extent (au):  <R**2>=            166.3266
 Charge=              0.0000 electrons
 Dipole moment (field-independent basis, Debye):
    X=             -0.0007    Y=              0.0003    Z=              0.0001  Tot=              0.0008
 Quadrupole moment (field-independent basis, Debye-Ang):
   XX=            -17.6149   YY=            -17.6228   ZZ=            -17.6279
   XY=             -0.0036   XZ=              0.0002   YZ=              0.0003
 Traceless Quadrupole moment (field-independent basis, Debye-Ang):
   XX=              0.0070   YY=             -0.0009   ZZ=             -0.0060
   XY=             -0.0036   XZ=              0.0002   YZ=              0.0003
 Octapole moment (field-independent basis, Debye-Ang**2):
  XXX=            -52.5195  YYY=              0.8514  ZZZ=             -0.1511  XYY=            -17.5155
  XXY=              0.2773  XXZ=             -0.0505  XZZ=            -17.5180  YZZ=              0.2847
  YYZ=             -0.0501  XYZ=              0.0002
 Hexadecapole moment (field-independent basis, Debye-Ang**3):
 XXXX=           -122.7553 YYYY=            -18.3989 ZZZZ=            -18.3882 XXXY=              0.8334
 XXXZ=             -0.1503 YYYX=              0.8358 YYYZ=              0.0018 ZZZX=             -0.1506
 ZZZY=              0.0034 XXYY=            -23.5338 XXZZ=            -23.5323 YYZZ=             -6.1297
 XXYZ=              0.0013 YYXZ=             -0.0501 ZZXY=              0.2771
 N-N= 0.000000000000D+00 E-N=-6.578896555213D+03  KE= 2.749488080818D+03
 No NMR shielding tensors so no spin-rotation constants.
 Leave Link  601 at Tue May 12 18:29:05 2020, MaxMem= 1073741824 cpu:       0.8
 (Enter /home/matheus/.gaussian/g09/l122.exe)
 Counterpoise: doing MCBS calculation for fragment   1
 Leave Link  122 at Tue May 12 18:29:05 2020, MaxMem= 1073741824 cpu:       0.0
 (Enter /home/matheus/.gaussian/g09/l301.exe)
 Basis read from rwf:  (5D, 7F)
 No pseudopotential information found on rwf file.
 There are   138 symmetry adapted basis functions of A   symmetry.
 Integral buffers will be    131072 words long.
 Raffenetti 2 integral format.
 Two-electron integral symmetry is turned on.
   138 basis functions,   198 primitive gaussians,   160 cartesian basis functions
     9 alpha electrons        9 beta electrons
       nuclear repulsion energy        36.6087755249 Hartrees.
 IExCor=32609 DFT=T Ex+Corr=LC-wPBE ExCW=0 ScaHFX=  1.000000
 ScaDFX=  1.000000  0.000000  1.000000  1.000000 ScalE2=  1.000000  1.000000
 IRadAn=      5 IRanWt=     -1 IRanGd=            0 ICorTp=0
  HFx wShort=  0.000000 wLong=  0.400000 cFull=  0.000000 cShort=  0.000000 cLong=  1.000000
  DFx wShort=  0.000000 wLong=  0.400000 cFull=  0.000000 cShort=  0.000000 cLong=  1.000000
 NAtoms=    5 NActive=    4 NUniq=    4 SFac= 1.00D+00 NAtFMM=   60 NAOKFM=F Big=F
 No density basis found on file   718.
 Leave Link  301 at Tue May 12 18:29:05 2020, MaxMem= 1073741824 cpu:       0.2
 (Enter /home/matheus/.gaussian/g09/l302.exe)
 NPDir=0 NMtPBC=     1 NCelOv=     1 NCel=       1 NClECP=     1 NCelD=      1
         NCelK=      1 NCelE2=     1 NClLst=     1 CellRange=     0.0.
 One-electron integrals computed using PRISM.
 NBasis=   138 RedAO= T  NBF=   138
 NBsUse=   138 1.00D-06 NBFU=   138
 Precomputing XC quadrature grid using
 IXCGrd= 2 IRadAn=           5 IRanWt=          -1 IRanGd=           0 AccXCQ= 0.00D+00.
 NRdTot=     344 NPtTot=       92556 NUsed=       95038 NTot=       95070
 NSgBfM=   160   160   160   160   160 NAtAll=     4     4.
 Leave Link  302 at Tue May 12 18:29:06 2020, MaxMem= 1073741824 cpu:       0.8
 (Enter /home/matheus/.gaussian/g09/l303.exe)
 DipDrv:  MaxL=1.
 Leave Link  303 at Tue May 12 18:29:06 2020, MaxMem= 1073741824 cpu:       0.1
 (Enter /home/matheus/.gaussian/g09/l401.exe)
 Harris functional with IExCor=32609 diagonalized for initial guess.
 ExpMin= 2.53D-02 ExpMax= 1.53D+04 ExpMxC= 5.22D+02 IAcc=3 IRadAn=         5 AccDes= 0.00D+00
 HarFok:  IExCor=32609 AccDes= 0.00D+00 IRadAn=         5 IDoV= 1
 ScaDFX=  1.000000  1.000000  1.000000  1.000000
 FoFCou: FMM=F IPFlag=           0 FMFlag=      100000 FMFlg1=           0
         NFxFlg=           0 DoJE=T BraDBF=F KetDBF=T FulRan=T
         Omega=  0.000000  0.000000  1.000000  0.000000  0.000000 ICntrl=     500 IOpCl=  0
         NMat0=    1 NMatS0=    1 NMatT0=    0 NMatD0=    1 NMtDS0=    0 NMtDT0=    0
         I1Cent=           4 NGrid=           0.
 Petite list used in FoFCou.
 Harris En= -151.501379389993    
 Initial guess orbital symmetries:
       Occupied  (A) (A) (A) (A) (A) (A) (A) (A) (A)
       Virtual   (A) (A) (A) (A) (A) (A) (A) (A) (A) (A) (A) (A)
                 (A) (A) (A) (A) (A) (A) (A) (A) (A) (A) (A) (A)
                 (A) (A) (A) (A) (A) (A) (A) (A) (A) (A) (A) (A)
                 (A) (A) (A) (A) (A) (A) (A) (A) (A) (A) (A) (A)
                 (A) (A) (A) (A) (A) (A) (A) (A) (A) (A) (A) (A)
                 (A) (A) (A) (A) (A) (A) (A) (A) (A) (A) (A) (A)
                 (A) (A) (A) (A) (A) (A) (A) (A) (A) (A) (A) (A)
                 (A) (A) (A) (A) (A) (A) (A) (A) (A) (A) (A) (A)
                 (A) (A) (A) (A) (A) (A) (A) (A) (A) (A) (A) (A)
                 (A) (A) (A) (A) (A) (A) (A) (A) (A) (A) (A) (A)
                 (A) (A) (A) (A) (A) (A) (A) (A) (A)
 The electronic state of the initial guess is 1-A.
 Leave Link  401 at Tue May 12 18:29:06 2020, MaxMem= 1073741824 cpu:       2.3
 (Enter /home/matheus/.gaussian/g09/l502.exe)
 Closed shell SCF:
 Requested convergence on RMS density matrix=1.00D-08 within 128 cycles.
 Requested convergence on MAX density matrix=1.00D-06.
 Requested convergence on             energy=1.00D-06.
 No special actions if energy rises.
 Using DIIS extrapolation, IDIIS=  1040.
 Integral symmetry usage will be decided dynamically.
        94980 words used for storage of precomputed grid.
 IEnd=      192360 IEndB=      192360 NGot=  1073741824 MDV=  1073591865
 LenX=  1073591865 LenY=  1073565824
 Fock matrices will be formed incrementally for  20 cycles.

 Cycle   1  Pass 1  IDiag  1:
 FoFJK:  IHMeth= 1 ICntrl=     0 DoSepK=T KAlg= 1 I1Cent= 0 FoldK=F
 FoFCou: FMM=F IPFlag=           0 FMFlag=      100000 FMFlg1=           0
         NFxFlg=           0 DoJE=T BraDBF=F KetDBF=F FulRan=T
         Omega=  0.000000  0.000000  1.000000  0.000000  0.000000 ICntrl=     500 IOpCl=  0
         NMat0=    1 NMatS0=    1 NMatT0=    0 NMatD0=    1 NMtDS0=    0 NMtDT0=    0
         I1Cent=           0 NGrid=           0.
 Symmetry not used in FoFCou.
 E= -151.498367014851    
 DIIS: error= 1.54D-02 at cycle   1 NSaved=   1.
 NSaved= 1 IEnMin= 1 EnMin= -151.498367014851     IErMin= 1 ErrMin= 1.54D-02
 ErrMax= 1.54D-02 EMaxC= 1.00D-01 BMatC= 3.82D-02 BMatP= 3.82D-02
 IDIUse=3 WtCom= 8.46D-01 WtEn= 1.54D-01
 Coeff-Com:  0.100D+01
 Coeff-En:   0.100D+01
 Coeff:      0.100D+01
 Gap=     0.492 Goal=   None    Shift=    0.000
 GapD=    0.492 DampG=2.000 DampE=0.500 DampFc=1.0000 IDamp=-1.
 RMSDP=1.17D-03 MaxDP=2.40D-02              OVMax= 5.48D-02

 Cycle   2  Pass 1  IDiag  1:
 RMSU=  8.18D-04    CP:  9.88D-01
 FoFJK:  IHMeth= 1 ICntrl=     0 DoSepK=T KAlg= 1 I1Cent= 0 FoldK=F
 E= -151.511870020981     Delta-E=       -0.013503006130 Rises=F Damp=F
 DIIS: error= 1.07D-02 at cycle   2 NSaved=   2.
 NSaved= 2 IEnMin= 2 EnMin= -151.511870020981     IErMin= 2 ErrMin= 1.07D-02
 ErrMax= 1.07D-02 EMaxC= 1.00D-01 BMatC= 2.09D-02 BMatP= 3.82D-02
 IDIUse=3 WtCom= 8.93D-01 WtEn= 1.07D-01
 Coeff-Com:  0.417D+00 0.583D+00
 Coeff-En:   0.248D+00 0.752D+00
 Coeff:      0.399D+00 0.601D+00
 Gap=     0.437 Goal=   None    Shift=    0.000
 RMSDP=6.20D-04 MaxDP=2.27D-02 DE=-1.35D-02 OVMax= 2.52D-02

 Cycle   3  Pass 1  IDiag  1:
 RMSU=  3.41D-04    CP:  9.84D-01  6.66D-01
 FoFJK:  IHMeth= 1 ICntrl=     0 DoSepK=T KAlg= 1 I1Cent= 0 FoldK=F
 E= -151.523798750592     Delta-E=       -0.011928729612 Rises=F Damp=F
 DIIS: error= 2.29D-03 at cycle   3 NSaved=   3.
 NSaved= 3 IEnMin= 3 EnMin= -151.523798750592     IErMin= 3 ErrMin= 2.29D-03
 ErrMax= 2.29D-03 EMaxC= 1.00D-01 BMatC= 4.06D-04 BMatP= 2.09D-02
 IDIUse=3 WtCom= 9.77D-01 WtEn= 2.29D-02
 Coeff-Com:  0.630D-01 0.153D+00 0.784D+00
 Coeff-En:   0.000D+00 0.000D+00 0.100D+01
 Coeff:      0.616D-01 0.150D+00 0.789D+00
 Gap=     0.431 Goal=   None    Shift=    0.000
 RMSDP=8.48D-05 MaxDP=2.28D-03 DE=-1.19D-02 OVMax= 3.96D-03

 Cycle   4  Pass 1  IDiag  1:
 RMSU=  4.17D-05    CP:  9.83D-01  7.13D-01  1.02D+00
 FoFJK:  IHMeth= 1 ICntrl=     0 DoSepK=T KAlg= 1 I1Cent= 0 FoldK=F
 E= -151.524048664225     Delta-E=       -0.000249913633 Rises=F Damp=F
 DIIS: error= 3.66D-04 at cycle   4 NSaved=   4.
 NSaved= 4 IEnMin= 4 EnMin= -151.524048664225     IErMin= 4 ErrMin= 3.66D-04
 ErrMax= 3.66D-04 EMaxC= 1.00D-01 BMatC= 1.44D-05 BMatP= 4.06D-04
 IDIUse=3 WtCom= 9.96D-01 WtEn= 3.66D-03
 Coeff-Com: -0.435D-02-0.826D-02 0.123D+00 0.890D+00
 Coeff-En:   0.000D+00 0.000D+00 0.000D+00 0.100D+01
 Coeff:     -0.434D-02-0.823D-02 0.122D+00 0.890D+00
 Gap=     0.433 Goal=   None    Shift=    0.000
 RMSDP=1.98D-05 MaxDP=9.33D-04 DE=-2.50D-04 OVMax= 7.88D-04

 Cycle   5  Pass 1  IDiag  1:
 RMSU=  7.71D-06    CP:  9.82D-01  7.13D-01  1.05D+00  1.03D+00
 FoFJK:  IHMeth= 1 ICntrl=     0 DoSepK=T KAlg= 1 I1Cent= 0 FoldK=F
 E= -151.524058405371     Delta-E=       -0.000009741146 Rises=F Damp=F
 DIIS: error= 4.11D-05 at cycle   5 NSaved=   5.
 NSaved= 5 IEnMin= 5 EnMin= -151.524058405371     IErMin= 5 ErrMin= 4.11D-05
 ErrMax= 4.11D-05 EMaxC= 1.00D-01 BMatC= 1.23D-07 BMatP= 1.44D-05
 IDIUse=1 WtCom= 1.00D+00 WtEn= 0.00D+00
 Coeff-Com: -0.998D-03-0.296D-02-0.293D-01-0.776D-01 0.111D+01
 Coeff:     -0.998D-03-0.296D-02-0.293D-01-0.776D-01 0.111D+01
 Gap=     0.433 Goal=   None    Shift=    0.000
 RMSDP=4.70D-06 MaxDP=9.87D-05 DE=-9.74D-06 OVMax= 2.15D-04

 Cycle   6  Pass 1  IDiag  1:
 RMSU=  1.53D-06    CP:  9.82D-01  7.14D-01  1.05D+00  1.06D+00  1.31D+00
 FoFJK:  IHMeth= 1 ICntrl=     0 DoSepK=T KAlg= 1 I1Cent= 0 FoldK=F
 E= -151.524058709658     Delta-E=       -0.000000304287 Rises=F Damp=F
 DIIS: error= 9.05D-06 at cycle   6 NSaved=   6.
 NSaved= 6 IEnMin= 6 EnMin= -151.524058709658     IErMin= 6 ErrMin= 9.05D-06
 ErrMax= 9.05D-06 EMaxC= 1.00D-01 BMatC= 5.19D-09 BMatP= 1.23D-07
 IDIUse=1 WtCom= 1.00D+00 WtEn= 0.00D+00
 Coeff-Com:  0.152D-03 0.394D-03-0.143D-02-0.172D-01-0.421D-01 0.106D+01
 Coeff:      0.152D-03 0.394D-03-0.143D-02-0.172D-01-0.421D-01 0.106D+01
 Gap=     0.433 Goal=   None    Shift=    0.000
 RMSDP=9.29D-07 MaxDP=1.52D-05 DE=-3.04D-07 OVMax= 6.35D-05

 Cycle   7  Pass 1  IDiag  1:
 RMSU=  3.50D-07    CP:  9.82D-01  7.14D-01  1.05D+00  1.06D+00  1.36D+00
                    CP:  1.22D+00
 FoFJK:  IHMeth= 1 ICntrl=     0 DoSepK=T KAlg= 1 I1Cent= 0 FoldK=F
 E= -151.524058722039     Delta-E=       -0.000000012380 Rises=F Damp=F
 DIIS: error= 2.26D-06 at cycle   7 NSaved=   7.
[...]
 Gap=     0.530 Goal=   None    Shift=    0.000
 RMSDP=1.46D-05 MaxDP=6.84D-04              OVMax= 2.58D-04

 Cycle   2  Pass 1  IDiag  1:
 RMSU=  1.03D-05    CP:  1.00D+00
 FoFJK:  IHMeth= 1 ICntrl=     0 DoSepK=T KAlg= 1 I1Cent= 0 FoldK=F
 E= -2753.43565055189     Delta-E=       -0.000000449674 Rises=F Damp=F
 DIIS: error= 2.77D-06 at cycle   2 NSaved=   2.
 NSaved= 2 IEnMin= 2 EnMin= -2753.43565055189     IErMin= 2 ErrMin= 2.77D-06
 ErrMax= 2.77D-06 EMaxC= 1.00D-01 BMatC= 2.67D-09 BMatP= 4.99D-06
 IDIUse=1 WtCom= 1.00D+00 WtEn= 0.00D+00
 Coeff-Com: -0.641D-02 0.101D+01
 Coeff:     -0.641D-02 0.101D+01
 Gap=     0.530 Goal=   None    Shift=    0.000
 RMSDP=1.42D-06 MaxDP=5.70D-05 DE=-4.50D-07 OVMax= 3.82D-05

 Cycle   3  Pass 1  IDiag  1:
 RMSU=  4.69D-07    CP:  1.00D+00  1.09D+00
 FoFJK:  IHMeth= 1 ICntrl=     0 DoSepK=T KAlg= 1 I1Cent= 0 FoldK=F
 E= -2753.43565055209     Delta-E=       -0.000000000204 Rises=F Damp=F
 DIIS: error= 4.09D-07 at cycle   3 NSaved=   3.
 NSaved= 3 IEnMin= 3 EnMin= -2753.43565055209     IErMin= 3 ErrMin= 4.09D-07
 ErrMax= 4.09D-07 EMaxC= 1.00D-01 BMatC= 7.63D-11 BMatP= 2.67D-09
 IDIUse=1 WtCom= 1.00D+00 WtEn= 0.00D+00
 Coeff-Com:  0.181D-03-0.102D+00 0.110D+01
 Coeff:      0.181D-03-0.102D+00 0.110D+01
 Gap=     0.530 Goal=   None    Shift=    0.000
 RMSDP=1.68D-07 MaxDP=6.10D-06 DE=-2.04D-10 OVMax= 7.58D-06

 Cycle   4  Pass 1  IDiag  1:
 RMSU=  4.94D-08    CP:  1.00D+00  1.09D+00  1.17D+00
 FoFJK:  IHMeth= 1 ICntrl=     0 DoSepK=T KAlg= 1 I1Cent= 0 FoldK=F
 E= -2753.43565055223     Delta-E=       -0.000000000134 Rises=F Damp=F
 DIIS: error= 2.38D-07 at cycle   4 NSaved=   4.
 NSaved= 4 IEnMin= 4 EnMin= -2753.43565055223     IErMin= 4 ErrMin= 2.38D-07
 ErrMax= 2.38D-07 EMaxC= 1.00D-01 BMatC= 1.29D-11 BMatP= 7.63D-11
 IDIUse=1 WtCom= 1.00D+00 WtEn= 0.00D+00
 Coeff-Com:  0.185D-03-0.534D-01 0.338D+00 0.715D+00
 Coeff:      0.185D-03-0.534D-01 0.338D+00 0.715D+00
 Gap=     0.530 Goal=   None    Shift=    0.000
 RMSDP=1.74D-08 MaxDP=7.07D-07 DE=-1.34D-10 OVMax= 8.81D-07

 Cycle   5  Pass 1  IDiag  1:
 RMSU=  9.27D-09    CP:  1.00D+00  1.09D+00  1.18D+00  1.10D+00
 FoFJK:  IHMeth= 1 ICntrl=     0 DoSepK=T KAlg= 1 I1Cent= 0 FoldK=F
 E= -2753.43565055223     Delta-E=        0.000000000000 Rises=F Damp=F
 DIIS: error= 3.11D-08 at cycle   5 NSaved=   5.
 NSaved= 5 IEnMin= 4 EnMin= -2753.43565055223     IErMin= 5 ErrMin= 3.11D-08
 ErrMax= 3.11D-08 EMaxC= 1.00D-01 BMatC= 1.90D-13 BMatP= 1.29D-11
 IDIUse=1 WtCom= 1.00D+00 WtEn= 0.00D+00
 Coeff-Com:  0.398D-05 0.160D-02-0.291D-01 0.159D-01 0.101D+01
 Coeff:      0.398D-05 0.160D-02-0.291D-01 0.159D-01 0.101D+01
 Gap=     0.530 Goal=   None    Shift=    0.000
 RMSDP=7.60D-09 MaxDP=4.45D-07 DE= 0.00D+00 OVMax= 3.26D-07

 SCF Done:  E(RLC-wPBE) =  -2753.43565055     A.U. after    5 cycles
             Convg  =    0.7597D-08             -V/T =  2.0014
 KE= 2.749528304395D+03 PE=-6.578941213166D+03 EE= 1.075977258219D+03
 Leave Link  502 at Tue May 12 18:52:41 2020, MaxMem= 1073741824 cpu:      90.5
 (Enter /home/matheus/.gaussian/g09/l122.exe)
 Restoring MOs from calculation   4 to rwf.
 Counterpoise: doing MCBS calculation for fragment   1
 Leave Link  122 at Tue May 12 18:52:41 2020, MaxMem= 1073741824 cpu:       0.0
 (Enter /home/matheus/.gaussian/g09/l301.exe)
 Basis read from rwf:  (5D, 7F)
 No pseudopotential information found on rwf file.
 There are   138 symmetry adapted basis functions of A   symmetry.
 Integral buffers will be    131072 words long.
 Raffenetti 2 integral format.
 Two-electron integral symmetry is turned on.
   138 basis functions,   198 primitive gaussians,   160 cartesian basis functions
     9 alpha electrons        9 beta electrons
       nuclear repulsion energy        36.6087755249 Hartrees.
 IExCor=32609 DFT=T Ex+Corr=LC-wPBE ExCW=0 ScaHFX=  1.000000
 ScaDFX=  1.000000  0.000000  1.000000  1.000000 ScalE2=  1.000000  1.000000
 IRadAn=      5 IRanWt=     -1 IRanGd=            0 ICorTp=0
  HFx wShort=  0.000000 wLong=  0.400000 cFull=  0.000000 cShort=  0.000000 cLong=  1.000000
  DFx wShort=  0.000000 wLong=  0.400000 cFull=  0.000000 cShort=  0.000000 cLong=  1.000000
 NAtoms=    5 NActive=    4 NUniq=    4 SFac= 1.00D+00 NAtFMM=   60 NAOKFM=F Big=F
 No density basis found on file   718.
 Leave Link  301 at Tue May 12 18:52:41 2020, MaxMem= 1073741824 cpu:       0.2
 (Enter /home/matheus/.gaussian/g09/l302.exe)
 NPDir=0 NMtPBC=     1 NCelOv=     1 NCel=       1 NClECP=     1 NCelD=      1
         NCelK=      1 NCelE2=     1 NClLst=     1 CellRange=     0.0.
 One-electron integrals computed using PRISM.
 NBasis=   138 RedAO= T  NBF=   138
 NBsUse=   138 1.00D-06 NBFU=   138
 Precomputing XC quadrature grid using
 IXCGrd= 2 IRadAn=           5 IRanWt=          -1 IRanGd=           0 AccXCQ= 0.00D+00.
 NRdTot=     344 NPtTot=       92556 NUsed=       95038 NTot=       95070
 NSgBfM=   160   160   160   160   160 NAtAll=     4     4.
 Leave Link  302 at Tue May 12 18:52:42 2020, MaxMem= 1073741824 cpu:       0.8
 (Enter /home/matheus/.gaussian/g09/l303.exe)
 DipDrv:  MaxL=1.
 Leave Link  303 at Tue May 12 18:52:42 2020, MaxMem= 1073741824 cpu:       0.1
 (Enter /home/matheus/.gaussian/g09/l401.exe)
 Initial guess read from the read-write file.
 Guess basis will be translated and rotated to current coordinates.
 Initial guess orbital symmetries:
       Occupied  (A) (A) (A) (A) (A) (A) (A) (A) (A)
       Virtual   (A) (A) (A) (A) (A) (A) (A) (A) (A) (A) (A) (A)
                 (A) (A) (A) (A) (A) (A) (A) (A) (A) (A) (A) (A)
                 (A) (A) (A) (A) (A) (A) (A) (A) (A) (A) (A) (A)
                 (A) (A) (A) (A) (A) (A) (A) (A) (A) (A) (A) (A)
                 (A) (A) (A) (A) (A) (A) (A) (A) (A) (A) (A) (A)
                 (A) (A) (A) (A) (A) (A) (A) (A) (A) (A) (A) (A)
                 (A) (A) (A) (A) (A) (A) (A) (A) (A) (A) (A) (A)
                 (A) (A) (A) (A) (A) (A) (A) (A) (A) (A) (A) (A)
                 (A) (A) (A) (A) (A) (A) (A) (A) (A) (A) (A) (A)
                 (A) (A) (A) (A) (A) (A) (A) (A) (A) (A) (A) (A)
                 (A) (A) (A) (A) (A) (A) (A) (A) (A)
 The electronic state of the initial guess is 1-A.
 Generating alternative initial guess.
 Harris functional with IExCor=32609 diagonalized for initial guess.
 ExpMin= 2.53D-02 ExpMax= 1.53D+04 ExpMxC= 5.22D+02 IAcc=3 IRadAn=         5 AccDes= 0.00D+00
 HarFok:  IExCor=32609 AccDes= 0.00D+00 IRadAn=         5 IDoV= 1
 ScaDFX=  1.000000  1.000000  1.000000  1.000000
 FoFCou: FMM=F IPFlag=           0 FMFlag=      100000 FMFlg1=           0
         NFxFlg=           0 DoJE=T BraDBF=F KetDBF=T FulRan=T
         Omega=  0.000000  0.000000  1.000000  0.000000  0.000000 ICntrl=     500 IOpCl=  0
         NMat0=    1 NMatS0=    1 NMatT0=    0 NMatD0=    1 NMtDS0=    0 NMtDT0=    0
         I1Cent=           4 NGrid=           0.
 Petite list used in FoFCou.
 Harris En= -151.501379556677    
 Leave Link  401 at Tue May 12 18:52:42 2020, MaxMem= 1073741824 cpu:       2.4
 (Enter /home/matheus/.gaussian/g09/l502.exe)
 Closed shell SCF:
 Requested convergence on RMS density matrix=1.00D-08 within 128 cycles.
 Requested convergence on MAX density matrix=1.00D-06.
 Requested convergence on             energy=1.00D-06.
 No special actions if energy rises.
 Using DIIS extrapolation, IDIIS=  1040.
 Integral symmetry usage will be decided dynamically.
        94980 words used for storage of precomputed grid.
 IEnd=      192360 IEndB=      192360 NGot=  1073741824 MDV=  1073591865
 LenX=  1073591865 LenY=  1073565824
 Fock matrices will be formed incrementally for  20 cycles.

 Cycle   1  Pass 1  IDiag  1:
 FoFJK:  IHMeth= 1 ICntrl=     0 DoSepK=T KAlg= 1 I1Cent= 0 FoldK=F
 FoFCou: FMM=F IPFlag=           0 FMFlag=      100000 FMFlg1=           0
         NFxFlg=           0 DoJE=T BraDBF=F KetDBF=F FulRan=T
         Omega=  0.000000  0.000000  1.000000  0.000000  0.000000 ICntrl=     500 IOpCl=  0
         NMat0=    1 NMatS0=    1 NMatT0=    0 NMatD0=    1 NMtDS0=    0 NMtDT0=    0
         I1Cent=           0 NGrid=           0.
 Symmetry not used in FoFCou.
 E= -151.524058905573    
 DIIS: error= 1.96D-05 at cycle   1 NSaved=   1.
 NSaved= 1 IEnMin= 1 EnMin= -151.524058905573     IErMin= 1 ErrMin= 1.96D-05
 ErrMax= 1.96D-05 EMaxC= 1.00D-01 BMatC= 4.84D-08 BMatP= 4.84D-08
 IDIUse=1 WtCom= 1.00D+00 WtEn= 0.00D+00
 Coeff-Com:  0.100D+01
 Coeff:      0.100D+01
 Gap=     0.433 Goal=   None    Shift=    0.000
 RMSDP=1.22D-06 MaxDP=2.20D-05              OVMax= 7.40D-05

 Cycle   2  Pass 1  IDiag  1:
 RMSU=  8.63D-07    CP:  1.00D+00
 FoFJK:  IHMeth= 1 ICntrl=     0 DoSepK=T KAlg= 1 I1Cent= 0 FoldK=F
 E= -151.524058951212     Delta-E=       -0.000000045639 Rises=F Damp=F
 DIIS: error= 3.41D-06 at cycle   2 NSaved=   2.
 NSaved= 2 IEnMin= 2 EnMin= -151.524058951212     IErMin= 2 ErrMin= 3.41D-06
 ErrMax= 3.41D-06 EMaxC= 1.00D-01 BMatC= 1.68D-09 BMatP= 4.84D-08
 IDIUse=1 WtCom= 1.00D+00 WtEn= 0.00D+00
 Coeff-Com: -0.114D+00 0.111D+01
 Coeff:     -0.114D+00 0.111D+01
 Gap=     0.433 Goal=   None    Shift=    0.000
 RMSDP=3.81D-07 MaxDP=6.74D-06 DE=-4.56D-08 OVMax= 2.98D-05

 Cycle   3  Pass 1  IDiag  1:
 RMSU=  1.51D-07    CP:  1.00D+00  1.26D+00
 FoFJK:  IHMeth= 1 ICntrl=     0 DoSepK=T KAlg= 1 I1Cent= 0 FoldK=F
 E= -151.524058954993     Delta-E=       -0.000000003782 Rises=F Damp=F
 DIIS: error= 1.06D-06 at cycle   3 NSaved=   3.
 NSaved= 3 IEnMin= 3 EnMin= -151.524058954993     IErMin= 3 ErrMin= 1.06D-06
 ErrMax= 1.06D-06 EMaxC= 1.00D-01 BMatC= 2.33D-10 BMatP= 1.68D-09
 IDIUse=1 WtCom= 1.00D+00 WtEn= 0.00D+00
 Coeff-Com: -0.280D-01 0.862D-01 0.942D+00
 Coeff:     -0.280D-01 0.862D-01 0.942D+00
 Gap=     0.433 Goal=   None    Shift=    0.000
 RMSDP=1.29D-07 MaxDP=3.21D-06 DE=-3.78D-09 OVMax= 9.32D-06

 Cycle   4  Pass 1  IDiag  1:
 RMSU=  6.67D-08    CP:  1.00D+00  1.32D+00  1.24D+00
 FoFJK:  IHMeth= 1 ICntrl=     0 DoSepK=T KAlg= 1 I1Cent= 0 FoldK=F
 E= -151.524058955310     Delta-E=       -0.000000000316 Rises=F Damp=F
 DIIS: error= 1.03D-06 at cycle   4 NSaved=   4.
 NSaved= 4 IEnMin= 4 EnMin= -151.524058955310     IErMin= 4 ErrMin= 1.03D-06
 ErrMax= 1.03D-06 EMaxC= 1.00D-01 BMatC= 1.95D-10 BMatP= 2.33D-10
 IDIUse=1 WtCom= 1.00D+00 WtEn= 0.00D+00
 Coeff-Com:  0.645D-02-0.175D+00 0.546D+00 0.623D+00
 Coeff:      0.645D-02-0.175D+00 0.546D+00 0.623D+00
 Gap=     0.433 Goal=   None    Shift=    0.000
 RMSDP=6.58D-08 MaxDP=1.70D-06 DE=-3.16D-10 OVMax= 4.09D-06

 Cycle   5  Pass 1  IDiag  1:
 RMSU=  1.95D-08    CP:  1.00D+00  1.34D+00  1.47D+00  7.59D-01
 FoFJK:  IHMeth= 1 ICntrl=     0 DoSepK=T KAlg= 1 I1Cent= 0 FoldK=F
 E= -151.524058955478     Delta-E=       -0.000000000168 Rises=F Damp=F
 DIIS: error= 2.13D-07 at cycle   5 NSaved=   5.
 NSaved= 5 IEnMin= 5 EnMin= -151.524058955478     IErMin= 5 ErrMin= 2.13D-07
 ErrMax= 2.13D-07 EMaxC= 1.00D-01 BMatC= 5.86D-12 BMatP= 1.95D-10
 IDIUse=1 WtCom= 1.00D+00 WtEn= 0.00D+00
 Coeff-Com:  0.425D-02-0.449D-01-0.107D-01 0.108D+00 0.943D+00
 Coeff:      0.425D-02-0.449D-01-0.107D-01 0.108D+00 0.943D+00
 Gap=     0.433 Goal=   None    Shift=    0.000
 RMSDP=2.39D-08 MaxDP=3.47D-07 DE=-1.68D-10 OVMax= 2.15D-06

 Cycle   6  Pass 1  IDiag  1:
 RMSU=  7.76D-09    CP:  1.00D+00  1.34D+00  1.53D+00  8.76D-01  1.31D+00
 FoFJK:  IHMeth= 1 ICntrl=     0 DoSepK=T KAlg= 1 I1Cent= 0 FoldK=F
 E= -151.524058955490     Delta-E=       -0.000000000012 Rises=F Damp=F
 DIIS: error= 7.95D-08 at cycle   6 NSaved=   6.
 NSaved= 6 IEnMin= 6 EnMin= -151.524058955490     IErMin= 6 ErrMin= 7.95D-08
 ErrMax= 7.95D-08 EMaxC= 1.00D-01 BMatC= 9.08D-13 BMatP= 5.86D-12
 IDIUse=1 WtCom= 1.00D+00 WtEn= 0.00D+00
 Coeff-Com:  0.421D-03 0.687D-02-0.577D-01-0.358D-01 0.241D+00 0.845D+00
 Coeff:      0.421D-03 0.687D-02-0.577D-01-0.358D-01 0.241D+00 0.845D+00
 Gap=     0.433 Goal=   None    Shift=    0.000
 RMSDP=9.20D-09 MaxDP=1.30D-07 DE=-1.19D-11 OVMax= 9.33D-07

 SCF Done:  E(RLC-wPBE) =  -151.524058955     A.U. after    6 cycles
             Convg  =    0.9201D-08             -V/T =  2.0068
 KE= 1.504994268903D+02 PE=-4.315012897123D+02 EE= 9.286902834165D+01
 Leave Link  502 at Tue May 12 18:52:48 2020, MaxMem= 1073741824 cpu:      46.3
 (Enter /home/matheus/.gaussian/g09/l122.exe)
 Restoring MOs from calculation   5 to rwf.
 Counterpoise: doing MCBS calculation for fragment   2
 Leave Link  122 at Tue May 12 18:52:48 2020, MaxMem= 1073741824 cpu:       0.0
 (Enter /home/matheus/.gaussian/g09/l301.exe)
 Basis read from rwf:  (5D, 7F)
 No pseudopotential information found on rwf file.
 There are    59 symmetry adapted basis functions of A   symmetry.
 Integral buffers will be    131072 words long.
 Raffenetti 2 integral format.
 Two-electron integral symmetry is turned on.
    59 basis functions,   217 primitive gaussians,    69 cartesian basis functions
    18 alpha electrons       18 beta electrons
       nuclear repulsion energy         0.0000000000 Hartrees.
 IExCor=32609 DFT=T Ex+Corr=LC-wPBE ExCW=0 ScaHFX=  1.000000
 ScaDFX=  1.000000  0.000000  1.000000  1.000000 ScalE2=  1.000000  1.000000
 IRadAn=      5 IRanWt=     -1 IRanGd=            0 ICorTp=0
  HFx wShort=  0.000000 wLong=  0.400000 cFull=  0.000000 cShort=  0.000000 cLong=  1.000000
  DFx wShort=  0.000000 wLong=  0.400000 cFull=  0.000000 cShort=  0.000000 cLong=  1.000000
 NAtoms=    5 NActive=    1 NUniq=    1 SFac= 1.00D+00 NAtFMM=   60 NAOKFM=F Big=F
 No density basis found on file   718.
 Leave Link  301 at Tue May 12 18:52:48 2020, MaxMem= 1073741824 cpu:       0.2
 (Enter /home/matheus/.gaussian/g09/l302.exe)
 NPDir=0 NMtPBC=     1 NCelOv=     1 NCel=       1 NClECP=     1 NCelD=      1
         NCelK=      1 NCelE2=     1 NClLst=     1 CellRange=     0.0.
 One-electron integrals computed using PRISM.
 NBasis=    59 RedAO= T  NBF=    59
 NBsUse=    59 1.00D-06 NBFU=    59
 Precomputing XC quadrature grid using
 IXCGrd= 2 IRadAn=           5 IRanWt=          -1 IRanGd=           0 AccXCQ= 0.00D+00.
 NRdTot=      81 NPtTot=       30352 NUsed=       30981 NTot=       31013
 NSgBfM=    69    69    69    69    69 NAtAll=     1     1.
 Leave Link  302 at Tue May 12 18:52:48 2020, MaxMem= 1073741824 cpu:       0.6
 (Enter /home/matheus/.gaussian/g09/l303.exe)
 DipDrv:  MaxL=1.
 Leave Link  303 at Tue May 12 18:52:48 2020, MaxMem= 1073741824 cpu:       0.1
 (Enter /home/matheus/.gaussian/g09/l401.exe)
 Initial guess read from the read-write file.
 Guess basis will be translated and rotated to current coordinates.
 Initial guess orbital symmetries:
       Occupied  (A) (A) (A) (A) (A) (A) (A) (A) (A) (A) (A) (A)
                 (A) (A) (A) (A) (A) (A)
       Virtual   (A) (A) (A) (A) (A) (A) (A) (A) (A) (A) (A) (A)
                 (A) (A) (A) (A) (A) (A) (A) (A) (A) (A) (A) (A)
                 (A) (A) (A) (A) (A) (A) (A) (A) (A) (A) (A) (A)
                 (A) (A) (A) (A) (A)
 The electronic state of the initial guess is 1-A.
 Generating alternative initial guess.
 Harris functional with IExCor=32609 diagonalized for initial guess.
 ExpMin= 4.00D-02 ExpMax= 1.17D+07 ExpMxC= 1.33D+04 IAcc=3 IRadAn=         5 AccDes= 0.00D+00
 HarFok:  IExCor=32609 AccDes= 0.00D+00 IRadAn=         5 IDoV= 1
 ScaDFX=  1.000000  1.000000  1.000000  1.000000
 FoFCou: FMM=F IPFlag=           0 FMFlag=      100000 FMFlg1=           0
         NFxFlg=           0 DoJE=T BraDBF=F KetDBF=T FulRan=T
         Omega=  0.000000  0.000000  1.000000  0.000000  0.000000 ICntrl=     500 IOpCl=  0
         NMat0=    1 NMatS0=    1 NMatT0=    0 NMatD0=    1 NMtDS0=    0 NMtDT0=    0
         I1Cent=           4 NGrid=           0.
 Petite list used in FoFCou.
 Harris En= -2753.24576836237    
 Leave Link  401 at Tue May 12 18:52:48 2020, MaxMem= 1073741824 cpu:       1.0
 (Enter /home/matheus/.gaussian/g09/l502.exe)
 Closed shell SCF:
 Requested convergence on RMS density matrix=1.00D-08 within 128 cycles.
 Requested convergence on MAX density matrix=1.00D-06.
 Requested convergence on             energy=1.00D-06.
 No special actions if energy rises.
 Using DIIS extrapolation, IDIIS=  1040.
 Integral symmetry usage will be decided dynamically.
        30923 words used for storage of precomputed grid.
 IEnd=       64406 IEndB=       64406 NGot=  1073741824 MDV=  1073698889
 LenX=  1073698889 LenY=  1073693687
 Fock matrices will be formed incrementally for  20 cycles.

 Cycle   1  Pass 1  IDiag  1:
 FoFJK:  IHMeth= 1 ICntrl=     0 DoSepK=T KAlg= 1 I1Cent= 0 FoldK=F
 FoFCou: FMM=F IPFlag=           0 FMFlag=      100000 FMFlg1=           0
         NFxFlg=           0 DoJE=T BraDBF=F KetDBF=F FulRan=T
         Omega=  0.000000  0.000000  1.000000  0.000000  0.000000 ICntrl=     500 IOpCl=  0
         NMat0=    1 NMatS0=    1 NMatT0=    0 NMatD0=    1 NMtDS0=    0 NMtDT0=    0
         I1Cent=           0 NGrid=           0.
 Symmetry not used in FoFCou.
 E= -2753.43563276534    
 DIIS: error= 1.07D-13 at cycle   1 NSaved=   1.
 NSaved= 1 IEnMin= 1 EnMin= -2753.43563276534     IErMin= 1 ErrMin= 1.07D-13
 ErrMax= 1.07D-13 EMaxC= 1.00D-01 BMatC= 3.05D-25 BMatP= 3.05D-25
 IDIUse=1 WtCom= 1.00D+00 WtEn= 0.00D+00
 Coeff-Com:  0.100D+01
 Coeff:      0.100D+01
 Gap=     0.599 Goal=   None    Shift=    0.000
 DSYEVD returned Info=          89 IAlg= 4 N=    59 NDim=    59 NE2=    18198197 trying DSYEV.
 RMSDP=5.29D-15 MaxDP=9.33D-14              OVMax= 1.98D-14

 SCF Done:  E(RLC-wPBE) =  -2753.43563277     A.U. after    1 cycles
             Convg  =    0.5294D-14             -V/T =  2.0014
 KE= 2.749535160915D+03 PE=-6.578948648680D+03 EE= 1.075977855000D+03
 Leave Link  502 at Tue May 12 18:52:49 2020, MaxMem= 1073741824 cpu:      11.6
 (Enter /home/matheus/.gaussian/g09/l122.exe)
 Restoring MOs from calculation   1 to rwf.
 Counterpoise: corrected energy =   -2904.959717806290
 Counterpoise: BSSE energy =       0.000021514241
 Leave Link  122 at Tue May 12 18:52:49 2020, MaxMem= 1073741824 cpu:       0.0
 (Enter /home/matheus/.gaussian/g09/l108.exe)
 Scan completed.

 Summary of the potential surface scan:
   N      R1          SCF    
 ----  ---------  -----------
    1     3.0000  -2753.43563
    2     3.1000  -2753.43563
    3     3.2000  -2753.43563
    4     3.3000  -2753.43563
    5     3.4000  -2753.43563
    6     3.5000  -2753.43563
    7     3.6000  -2753.43563
    8     3.7000  -2753.43563
    9     3.8000  -2753.43563
   10     3.9000  -2753.43563
   11     4.0000  -2753.43563
   12     4.1000  -2753.43563
   13     4.2000  -2753.43563
   14     4.3000  -2753.43563
   15     4.4000  -2753.43563
   16     4.5000  -2753.43563
   17     4.6000  -2753.43563
   18     4.7000  -2753.43563
   19     4.8000  -2753.43563
   20     4.9000  -2753.43563
   21     5.0000  -2753.43563
 ----  ---------  -----------
  
 Leave Link  108 at Tue May 12 18:52:49 2020, MaxMem= 1073741824 cpu:       0.0
 (Enter /home/matheus/.gaussian/g09/l9999.exe)
 1\1\GINC-REDGIANT\Scan\RLC-wPBE\Aug-CC-pVTZ\H2Kr1O2\MATHEUS\12-May-202
 0\1\\#p lc-wpbe/aug-cc-PVTz int=ultrafine counterpoise=2 Scan\\TCC\\0,
 1\O,0,0.,0.,0.725\O,0,0.,0.,-0.725\H,0,-0.7037808064,-0.5905422151,1.0
 235104166\H,0,0.,0.9187205947,-1.0235104166\Kr,0,0.,R1,0.\\R1=3.,s,20,
 0.1\\Version=EM64L-G09RevC.01\State=1-A\HF=-2753.4356328,-2753.4356328
 ,-2753.4356328,-2753.4356328,-2753.4356328,-2753.4356328,-2753.4356328
 ,-2753.4356328,-2753.4356328,-2753.4356328,-2753.4356328,-2753.4356328
 ,-2753.4356328,-2753.4356328,-2753.4356328,-2753.4356328,-2753.4356328
 ,-2753.4356328,-2753.4356328,-2753.4356328,-2753.4356328\RMSD=1.428e-0
 9,5.221e-11,1.075e-11,2.473e-12,6.363e-13,1.574e-13,4.233e-14,1.161e-1
 4,1.588e-14,1.001e-14,7.967e-15,8.471e-15,7.330e-15,7.709e-15,1.131e-1
 4,6.563e-15,6.631e-15,6.401e-15,6.093e-15,8.056e-15,5.294e-15\PG=C01 [
 X(H2Kr1O2)]\\@


 THERE ARE PEOPLE SO ADDICTED TO EXAGERATING THEY
 CAN'T TELL THE TRUTH WITHOUT LYING. -- FORTUNE COOKIE
 Job cpu time:  0 days  3 hours 22 minutes 41.8 seconds.
 File lengths (MBytes):  RWF=     33 Int=      0 D2E=      0 Chk=      8 Scr=      1
 Normal termination of Gaussian 09 at Tue May 12 18:52:49 2020.
