 Entering Gaussian System, Link 0=g09
 Input=/home/matheus/.tcc/Inputs/Inputs-lc-blyp/H2O2-Kr_24.com
 Output=/home/matheus/.tcc/Logs/Logs-lc-blyp/H2O2-Kr_24.log
 Initial command:
 /home/matheus/.gaussian/g09/l1.exe /home/matheus/.gaussian/g09/scratch/Gau-25240.inp -scrdir=/home/matheus/.gaussian/g09/scratch/
 Entering Link 1 = /home/matheus/.gaussian/g09/l1.exe PID=     25243.
  
 Copyright (c) 1988,1990,1992,1993,1995,1998,2003,2009,2011,
            Gaussian, Inc.  All Rights Reserved.
  
 This is part of the Gaussian(R) 09 program.  It is based on
 the Gaussian(R) 03 system (copyright 2003, Gaussian, Inc.),
 the Gaussian(R) 98 system (copyright 1998, Gaussian, Inc.),
 the Gaussian(R) 94 system (copyright 1995, Gaussian, Inc.),
 the Gaussian 92(TM) system (copyright 1992, Gaussian, Inc.),
 the Gaussian 90(TM) system (copyright 1990, Gaussian, Inc.),
 the Gaussian 88(TM) system (copyright 1988, Gaussian, Inc.),
 the Gaussian 86(TM) system (copyright 1986, Carnegie Mellon
 University), and the Gaussian 82(TM) system (copyright 1983,
 Carnegie Mellon University). Gaussian is a federally registered
 trademark of Gaussian, Inc.
  
 This software contains proprietary and confidential information,
 including trade secrets, belonging to Gaussian, Inc.
  
 This software is provided under written license and may be
 used, copied, transmitted, or stored only in accord with that
 written license.
  
 The following legend is applicable only to US Government
 contracts under FAR:
  
                    RESTRICTED RIGHTS LEGEND
  
 Use, reproduction and disclosure by the US Government is
 subject to restrictions as set forth in subparagraphs (a)
 and (c) of the Commercial Computer Software - Restricted
 Rights clause in FAR 52.227-19.
  
 Gaussian, Inc.
 340 Quinnipiac St., Bldg. 40, Wallingford CT 06492
  
  
 ---------------------------------------------------------------
 Warning -- This program may not be used in any manner that
 competes with the business of Gaussian, Inc. or will provide
 assistance to any competitor of Gaussian, Inc.  The licensee
 of this program is prohibited from giving any competitor of
 Gaussian, Inc. access to this program.  By using this program,
 the user acknowledges that Gaussian, Inc. is engaged in the
 business of creating and licensing software in the field of
 computational chemistry and represents and warrants to the
 licensee that it is not a competitor of Gaussian, Inc. and that
 it will not use this program in any manner prohibited above.
 ---------------------------------------------------------------
  

 Cite this work as:
 Gaussian 09, Revision C.01,
 M. J. Frisch, G. W. Trucks, H. B. Schlegel, G. E. Scuseria, 
 M. A. Robb, J. R. Cheeseman, G. Scalmani, V. Barone, B. Mennucci, 
 G. A. Petersson, H. Nakatsuji, M. Caricato, X. Li, H. P. Hratchian, 
 A. F. Izmaylov, J. Bloino, G. Zheng, J. L. Sonnenberg, M. Hada, 
 M. Ehara, K. Toyota, R. Fukuda, J. Hasegawa, M. Ishida, T. Nakajima, 
 Y. Honda, O. Kitao, H. Nakai, T. Vreven, J. A. Montgomery, Jr., 
 J. E. Peralta, F. Ogliaro, M. Bearpark, J. J. Heyd, E. Brothers, 
 K. N. Kudin, V. N. Staroverov, T. Keith, R. Kobayashi, J. Normand, 
 K. Raghavachari, A. Rendell, J. C. Burant, S. S. Iyengar, J. Tomasi, 
 M. Cossi, N. Rega, J. M. Millam, M. Klene, J. E. Knox, J. B. Cross, 
 V. Bakken, C. Adamo, J. Jaramillo, R. Gomperts, R. E. Stratmann, 
 O. Yazyev, A. J. Austin, R. Cammi, C. Pomelli, J. W. Ochterski, 
 R. L. Martin, K. Morokuma, V. G. Zakrzewski, G. A. Voth, 
 P. Salvador, J. J. Dannenberg, S. Dapprich, A. D. Daniels, 
 O. Farkas, J. B. Foresman, J. V. Ortiz, J. Cioslowski, 
 and D. J. Fox, Gaussian, Inc., Wallingford CT, 2010.
 
 ******************************************
 Gaussian 09:  EM64L-G09RevC.01 23-Sep-2011
                11-May-2020 
 ******************************************
 %mem=8GB
 %nproc=8
 Will use up to    8 processors via shared memory.
 ----------------------------------------------------------------------
 #p lc-blyp/aug-cc-PVTz iop(3/107=1350000000) iop(3/108=1350000000) int
 =ultrafine counterpoise=2 Scan
 ----------------------------------------------------------------------
 1/38=1,60=1,62=2/1,8;
 2/12=2,17=6,18=5,29=3,40=1/2;
 1/38=1,53=5172,62=2/22;
 3/5=16,6=1,7=10,11=2,16=1,25=1,30=1,74=1000402,75=-5,107=1350000000,108=1350000000/1,2,3;
 4//1;
 5/5=2,38=5/2;
 6/7=2,8=2,9=2,10=2,18=1,28=1/1;
 1/53=4052,62=2,63=1/22;
 3/5=7,6=11,7=10,11=2,16=1,25=1,30=1,74=1000402,75=-5,82=7,107=1350000000,108=1350000000/1,2,3;
 4//1;
 5/5=2,38=5/2;
 6/7=2,8=2,9=2,10=2,18=1,28=1/1;
 1/53=3042,62=2,63=2/22;
 3/5=7,6=11,7=10,11=2,16=1,25=1,30=1,74=1000402,75=-5,82=7,107=1350000000,108=1350000000/1,2,3;
 4//1;
 5/5=2,38=5/2;
 6/7=2,8=2,9=2,10=2,18=1,28=1/1;
 1/53=2032,62=2,63=3/22;
 3/5=7,6=11,7=10,11=2,16=1,25=1,30=1,74=1000402,75=-5,82=7,107=1350000000,108=1350000000/1,2,3;
 4//1;
 5/5=2,38=5/2;
 6/7=2,8=2,9=2,10=2,18=1,28=1/1;
 1/53=1022,62=2,63=4/22;
 3/5=7,6=11,7=10,11=2,16=1,25=1,30=1,74=1000402,75=-5,82=7,107=1350000000,108=1350000000/1,2,3;
 4//1;
 5/5=2,38=5/2;
 6/7=2,8=2,9=2,10=2,18=1,28=1/1;
 1/53=5014,62=2,63=5/22;
 1/60=1,62=2/8(1);
 99/9=1/99;
 2/29=3/2;
 1/53=5173,62=2/22;
 3/5=7,6=11,7=10,11=2,16=1,25=1,30=1,74=1000402,75=-5,82=7,107=1350000000,108=1350000000/1,2,3;
 4/5=5,16=3/1;
 5/5=2,38=5/2;
 1/53=4053,62=2,63=1/22;
 3/5=7,6=11,7=10,11=2,16=1,25=1,30=1,74=1000402,75=-5,82=7,107=1350000000,108=1350000000/1,2,3;
 4/5=5,16=3/1;
 5/5=2,38=5/2;
 1/53=3043,62=2,63=2/22;
 3/5=7,6=11,7=10,11=2,16=1,25=1,30=1,74=1000402,75=-5,82=7,107=1350000000,108=1350000000/1,2,3;
 4/5=5,16=3/1;
 5/5=2,38=5/2;
 1/53=2033,62=2,63=3/22;
 3/5=7,6=11,7=10,11=2,16=1,25=1,30=1,74=1000402,75=-5,82=7,107=1350000000,108=1350000000/1,2,3;
 4/5=5,16=3/1;
 5/5=2,38=5/2;
 1/53=1024,62=2,63=4/22;
 3/5=7,6=11,7=10,11=2,16=1,25=1,30=1,74=1000402,75=-5,82=7,107=1350000000,108=1350000000/1,2,3;
 4/5=5,16=3/1;
 5/5=2,38=5/2;
 1/53=5014,62=2,63=5/22;
 1/60=1,62=2/8(-22);
 99/9=1/99;
 Leave Link    1 at Mon May 11 19:46:45 2020, MaxMem= 1073741824 cpu:       0.1
 (Enter /home/matheus/.gaussian/g09/l101.exe)
 ---
 TCC
 ---
 Charge =  0 Multiplicity = 1 in supermolecule
 Charge =  0 Multiplicity = 1 in fragment  1.
 Charge =  0 Multiplicity = 1 in fragment  2.
 Symbolic Z-Matrix:
 O(Fragment=1)         0.        0.        0.725 
 O(Fragment=1)         0.        0.       -0.725 
 H(Fragment=1)        -0.79564  -0.45936   1.02351 
 H(Fragment=1)         0.        0.91872  -1.02351 
 Kr(Fragment=2)        0.       R1        0. 
       Variables:
  R1                    3.     Scan 20    0.1    
 
 NAtoms=      5 NQM=        0 NQMF=       0 NMMI=      5 NMMIF=      0
                NMic=       0 NMicF=      0.
                    Isotopes and Nuclear Properties:
 (Nuclear quadrupole moments (NQMom) in fm**2, nuclear magnetic moments (NMagM)
  in nuclear magnetons)

  Atom         1           2           3           4           5
 IAtWgt=          16          16           1           1          84
 AtmWgt=  15.9949146  15.9949146   1.0078250   1.0078250  83.9115064
 NucSpn=           0           0           1           1           0
 AtZEff=   0.0000000   0.0000000   0.0000000   0.0000000   0.0000000
 NQMom=    0.0000000   0.0000000   0.0000000   0.0000000   0.0000000
 NMagM=    0.0000000   0.0000000   2.7928460   2.7928460   0.0000000
 Leave Link  101 at Mon May 11 19:46:45 2020, MaxMem= 1073741824 cpu:       0.3
 (Enter /home/matheus/.gaussian/g09/l108.exe)
 Scan the potential surface.
 Variable   Value     No. Steps Step-Size
 -------- ----------- --------- ---------
     1       3.000000      20      0.1000
 A total of     21 points will be computed.
 Leave Link  108 at Mon May 11 19:46:45 2020, MaxMem= 1073741824 cpu:       0.0
 (Enter /home/matheus/.gaussian/g09/l202.exe)
 ---------------------------------------------------------------------------------------------------
                            Z-MATRIX (ANGSTROMS AND DEGREES)
   CD    Cent   Atom    N1       Length/X        N2       Alpha/Y        N3        Beta/Z          J
 ---------------------------------------------------------------------------------------------------
      1      1  O        0   0.000000          0.000000          0.725000
      2      2  O        0   0.000000          0.000000         -0.725000
      3      3  H        0  -0.795635         -0.459360          1.023510
      4      4  H        0   0.000000          0.918721         -1.023510
      5      5  Kr       0   0.000000          3.000000          0.000000
 ---------------------------------------------------------------------------------------------------
                         Z-Matrix orientation:                         
 ---------------------------------------------------------------------
 Center     Atomic      Atomic             Coordinates (Angstroms)
 Number     Number       Type             X           Y           Z
 ---------------------------------------------------------------------
      1          8           0        0.000000    0.000000    0.725000
      2          8           0        0.000000    0.000000   -0.725000
      3          1           0       -0.795635   -0.459360    1.023510
      4          1           0        0.000000    0.918721   -1.023510
      5         36           0        0.000000    3.000000    0.000000
 ---------------------------------------------------------------------
                    Distance matrix (angstroms):
                    1          2          3          4          5
     1  O    0.000000
     2  O    1.450000   0.000000
     3  H    0.966000   1.975180   0.000000
     4  H    1.975180   0.966000   2.592766   0.000000
     5  Kr   3.086361   3.086361   3.694291   2.319331   0.000000
 Stoichiometry    H2KrO2
 Framework group  C1[X(H2KrO2)]
 Deg. of freedom     9
 Full point group                 C1      NOp   1
 Largest Abelian subgroup         C1      NOp   1
 Largest concise Abelian subgroup C1      NOp   1
                         Standard orientation:                         
 ---------------------------------------------------------------------
 Center     Atomic      Atomic             Coordinates (Angstroms)
 Number     Number       Type             X           Y           Z
 ---------------------------------------------------------------------
      1          8           0       -2.018349   -0.689087   -0.106614
      2          8           0       -1.996994    0.756239    0.007743
      3          1           0       -2.496711   -1.041750    0.654934
      4          1           0       -1.074134    1.038958    0.047181
      5         36           0        0.991489   -0.014845    0.002468
 ---------------------------------------------------------------------
 Rotational constants (GHZ):     25.8792574      2.3237795      2.1427447
 Leave Link  202 at Mon May 11 19:46:45 2020, MaxMem= 1073741824 cpu:       0.0
 (Enter /home/matheus/.gaussian/g09/l122.exe)
 Leave Link  122 at Mon May 11 19:46:45 2020, MaxMem= 1073741824 cpu:       0.0
 (Enter /home/matheus/.gaussian/g09/l301.exe)
 Standard basis: Aug-CC-pVTZ (5D, 7F)
 Ernie: Thresh=  0.10000D-02 Tol=  0.10000D-05 Strict=F.
 Ernie:  38 primitive shells out of 205 were deleted.
 There are   197 symmetry adapted basis functions of A   symmetry.
 Integral buffers will be    131072 words long.
 Raffenetti 2 integral format.
 Two-electron integral symmetry is turned on.
   197 basis functions,   415 primitive gaussians,   229 cartesian basis functions
    27 alpha electrons       27 beta electrons
       nuclear repulsion energy       148.7418288716 Hartrees.
 IExCor=10402 DFT=T Ex=LC-B+HF Corr=LYP ExCW=0 ScaHFX=  1.000000
 ScaDFX=  1.000000  1.000000  1.000000  1.000000 ScalE2=  1.000000  1.000000
 IRadAn=      5 IRanWt=     -1 IRanGd=            0 ICorTp=0
  HFx wShort=  0.000000 wLong=  1.350000 cFull=  0.000000 cShort=  0.000000 cLong=  1.000000
  DFx wShort=  0.000000 wLong=  1.350000 cFull=  0.000000 cShort=  0.000000 cLong=  1.000000
 NAtoms=    5 NActive=    5 NUniq=    5 SFac= 1.00D+00 NAtFMM=   60 NAOKFM=F Big=F
 Leave Link  301 at Mon May 11 19:46:46 2020, MaxMem= 1073741824 cpu:       0.2
 (Enter /home/matheus/.gaussian/g09/l302.exe)
 NPDir=0 NMtPBC=     1 NCelOv=     1 NCel=       1 NClECP=     1 NCelD=      1
         NCelK=      1 NCelE2=     1 NClLst=     1 CellRange=     0.0.
 One-electron integrals computed using PRISM.
 NBasis=   197 RedAO= T  NBF=   197
 NBsUse=   197 1.00D-06 NBFU=   197
 Precomputing XC quadrature grid using
 IXCGrd= 2 IRadAn=           5 IRanWt=          -1 IRanGd=           0 AccXCQ= 0.00D+00.
 NRdTot=     427 NPtTot=      123512 NUsed=      126579 NTot=      126611
 NSgBfM=   229   229   229   229   229 NAtAll=     5     5.
 Leave Link  302 at Mon May 11 19:46:46 2020, MaxMem= 1073741824 cpu:       1.2
 (Enter /home/matheus/.gaussian/g09/l303.exe)
 DipDrv:  MaxL=1.
 Leave Link  303 at Mon May 11 19:46:46 2020, MaxMem= 1073741824 cpu:       0.2
 (Enter /home/matheus/.gaussian/g09/l401.exe)
 Harris functional with IExCor=10402 diagonalized for initial guess.
 ExpMin= 2.53D-02 ExpMax= 1.17D+07 ExpMxC= 1.33D+04 IAcc=3 IRadAn=         5 AccDes= 0.00D+00
 HarFok:  IExCor=10402 AccDes= 0.00D+00 IRadAn=         5 IDoV= 1
 ScaDFX=  1.000000  1.000000  1.000000  1.000000
 FoFCou: FMM=F IPFlag=           0 FMFlag=      100000 FMFlg1=           0
         NFxFlg=           0 DoJE=T BraDBF=F KetDBF=T FulRan=T
         Omega=  0.000000  0.000000  1.000000  0.000000  0.000000 ICntrl=     500 IOpCl=  0
         NMat0=    1 NMatS0=    1 NMatT0=    0 NMatD0=    1 NMtDS0=    0 NMtDT0=    0
         I1Cent=           4 NGrid=           0.
 Petite list used in FoFCou.
 Harris En= -2874.93234201828    
 Initial guess orbital symmetries:
       Occupied  (A) (A) (A) (A) (A) (A) (A) (A) (A) (A) (A) (A)
                 (A) (A) (A) (A) (A) (A) (A) (A) (A) (A) (A) (A)
                 (A) (A) (A)
       Virtual   (A) (A) (A) (A) (A) (A) (A) (A) (A) (A) (A) (A)
                 (A) (A) (A) (A) (A) (A) (A) (A) (A) (A) (A) (A)
                 (A) (A) (A) (A) (A) (A) (A) (A) (A) (A) (A) (A)
                 (A) (A) (A) (A) (A) (A) (A) (A) (A) (A) (A) (A)
                 (A) (A) (A) (A) (A) (A) (A) (A) (A) (A) (A) (A)
                 (A) (A) (A) (A) (A) (A) (A) (A) (A) (A) (A) (A)
                 (A) (A) (A) (A) (A) (A) (A) (A) (A) (A) (A) (A)
                 (A) (A) (A) (A) (A) (A) (A) (A) (A) (A) (A) (A)
                 (A) (A) (A) (A) (A) (A) (A) (A) (A) (A) (A) (A)
                 (A) (A) (A) (A) (A) (A) (A) (A) (A) (A) (A) (A)
                 (A) (A) (A) (A) (A) (A) (A) (A) (A) (A) (A) (A)
                 (A) (A) (A) (A) (A) (A) (A) (A) (A) (A) (A) (A)
                 (A) (A) (A) (A) (A) (A) (A) (A) (A) (A) (A) (A)
                 (A) (A) (A) (A) (A) (A) (A) (A) (A) (A) (A) (A)
                 (A) (A)
 The electronic state of the initial guess is 1-A.
 Leave Link  401 at Mon May 11 19:46:46 2020, MaxMem= 1073741824 cpu:       4.2
 (Enter /home/matheus/.gaussian/g09/l502.exe)
 Closed shell SCF:
 Requested convergence on RMS density matrix=1.00D-08 within 128 cycles.
 Requested convergence on MAX density matrix=1.00D-06.
 Requested convergence on             energy=1.00D-06.
 No special actions if energy rises.
 Using DIIS extrapolation, IDIIS=  1040.
 Integral symmetry usage will be decided dynamically.
       126521 words used for storage of precomputed grid.
 IEnd=      305468 IEndB=      305468 NGot=  1073741824 MDV=  1073505667
 LenX=  1073505667 LenY=  1073452785
 Fock matrices will be formed incrementally for  20 cycles.

 Cycle   1  Pass 1  IDiag  1:
 FoFJK:  IHMeth= 1 ICntrl=     0 DoSepK=T KAlg= 1 I1Cent= 0 FoldK=F
 FoFCou: FMM=F IPFlag=           0 FMFlag=      100000 FMFlg1=           0
         NFxFlg=           0 DoJE=T BraDBF=F KetDBF=F FulRan=T
         Omega=  0.000000  0.000000  1.000000  0.000000  0.000000 ICntrl=     500 IOpCl=  0
         NMat0=    1 NMatS0=    1 NMatT0=    0 NMatD0=    1 NMtDS0=    0 NMtDT0=    0
         I1Cent=           0 NGrid=           0.
 Symmetry not used in FoFCou.
 E= -2898.54132974906    
 DIIS: error= 1.41D-01 at cycle   1 NSaved=   1.
 NSaved= 1 IEnMin= 1 EnMin= -2898.54132974906     IErMin= 1 ErrMin= 1.41D-01
 ErrMax= 1.41D-01 EMaxC= 1.00D-01 BMatC= 3.89D+00 BMatP= 3.89D+00
 IDIUse=3 WtCom= 0.00D+00 WtEn= 1.00D+00
 Coeff-Com:  0.100D+01
 Coeff-En:   0.100D+01
 Coeff:      0.100D+01
 Gap=    -1.086 Goal=   None    Shift=    0.000
 GapD=   -1.086 DampG=0.250 DampE=0.250 DampFc=0.2500 IDamp=-1.
 Damping current iteration by 2.50D-01
 RMSDP=1.07D-01 MaxDP=8.76D+00              OVMax= 9.97D-01

 Cycle   2  Pass 1  IDiag  1:
 RMSU=  4.47D-03    CP:  7.62D-01
 FoFJK:  IHMeth= 1 ICntrl=     0 DoSepK=T KAlg= 1 I1Cent= 0 FoldK=F
 E= -2900.83405501999     Delta-E=       -2.292725270925 Rises=F Damp=T
 DIIS: error= 6.21D-02 at cycle   2 NSaved=   2.
 NSaved= 2 IEnMin= 2 EnMin= -2900.83405501999     IErMin= 2 ErrMin= 6.21D-02
 ErrMax= 6.21D-02 EMaxC= 1.00D-01 BMatC= 1.05D+00 BMatP= 3.89D+00
 IDIUse=3 WtCom= 3.79D-01 WtEn= 6.21D-01
 Coeff-Com: -0.760D+00 0.176D+01
 Coeff-En:   0.000D+00 0.100D+01
 Coeff:     -0.288D+00 0.129D+01
 Gap=     0.115 Goal=   None    Shift=    0.000
 RMSDP=8.00D-02 MaxDP=6.57D+00 DE=-2.29D+00 OVMax= 8.95D-01

 Cycle   3  Pass 1  IDiag  1:
 RMSU=  5.93D-03    CP:  5.00D-02  3.00D+00
 FoFJK:  IHMeth= 1 ICntrl=     0 DoSepK=T KAlg= 1 I1Cent= 0 FoldK=F
 E= -2904.20084199429     Delta-E=       -3.366786974304 Rises=F Damp=F
 DIIS: error= 3.74D-02 at cycle   3 NSaved=   3.
 NSaved= 3 IEnMin= 3 EnMin= -2904.20084199429     IErMin= 3 ErrMin= 3.74D-02
 ErrMax= 3.74D-02 EMaxC= 1.00D-01 BMatC= 6.39D-01 BMatP= 1.05D+00
 IDIUse=3 WtCom= 6.26D-01 WtEn= 3.74D-01
 Coeff-Com: -0.118D-01 0.443D+00 0.569D+00
 Coeff-En:   0.000D+00 0.000D+00 0.100D+01
 Coeff:     -0.741D-02 0.278D+00 0.730D+00
 Gap=     0.629 Goal=   None    Shift=    0.000
 RMSDP=2.63D-03 MaxDP=9.02D-02 DE=-3.37D+00 OVMax= 1.22D-01

 Cycle   4  Pass 1  IDiag  1:
 RMSU=  1.86D-03    CP:  4.96D-02  3.00D+00  9.83D-01
 FoFJK:  IHMeth= 1 ICntrl=     0 DoSepK=T KAlg= 1 I1Cent= 0 FoldK=F
 E= -2904.61127709106     Delta-E=       -0.410435096772 Rises=F Damp=F
 DIIS: error= 4.36D-03 at cycle   4 NSaved=   4.
 NSaved= 4 IEnMin= 4 EnMin= -2904.61127709106     IErMin= 4 ErrMin= 4.36D-03
 ErrMax= 4.36D-03 EMaxC= 1.00D-01 BMatC= 1.34D-02 BMatP= 6.39D-01
 IDIUse=3 WtCom= 9.56D-01 WtEn= 4.36D-02
 Coeff-Com: -0.206D-01 0.652D-01 0.820D-01 0.873D+00
 Coeff-En:   0.000D+00 0.000D+00 0.000D+00 0.100D+01
 Coeff:     -0.197D-01 0.624D-01 0.784D-01 0.879D+00
 Gap=     0.513 Goal=   None    Shift=    0.000
 RMSDP=5.92D-04 MaxDP=1.98D-02 DE=-4.10D-01 OVMax= 1.69D-02

 Cycle   5  Pass 1  IDiag  1:
 RMSU=  4.15D-04    CP:  4.97D-02  3.00D+00  9.83D-01  1.03D+00
 FoFJK:  IHMeth= 1 ICntrl=     0 DoSepK=T KAlg= 1 I1Cent= 0 FoldK=F
 E= -2904.61919291833     Delta-E=       -0.007915827260 Rises=F Damp=F
 DIIS: error= 1.45D-03 at cycle   5 NSaved=   5.
 NSaved= 5 IEnMin= 5 EnMin= -2904.61919291833     IErMin= 5 ErrMin= 1.45D-03
 ErrMax= 1.45D-03 EMaxC= 1.00D-01 BMatC= 7.98D-04 BMatP= 1.34D-02
 IDIUse=3 WtCom= 9.85D-01 WtEn= 1.45D-02
 Coeff-Com: -0.195D-01 0.415D-01-0.127D-01-0.478D-01 0.104D+01
 Coeff-En:   0.000D+00 0.000D+00 0.000D+00 0.000D+00 0.100D+01
 Coeff:     -0.192D-01 0.409D-01-0.125D-01-0.471D-01 0.104D+01
 Gap=     0.529 Goal=   None    Shift=    0.000
 RMSDP=1.70D-04 MaxDP=5.52D-03 DE=-7.92D-03 OVMax= 8.45D-03

 Cycle   6  Pass 1  IDiag  1:
 RMSU=  9.05D-05    CP:  4.97D-02  3.00D+00  9.81D-01  1.05D+00  1.17D+00
 FoFJK:  IHMeth= 1 ICntrl=     0 DoSepK=T KAlg= 1 I1Cent= 0 FoldK=F
 E= -2904.62002714657     Delta-E=       -0.000834228249 Rises=F Damp=F
 DIIS: error= 6.84D-04 at cycle   6 NSaved=   6.
 NSaved= 6 IEnMin= 6 EnMin= -2904.62002714657     IErMin= 6 ErrMin= 6.84D-04
 ErrMax= 6.84D-04 EMaxC= 1.00D-01 BMatC= 1.98D-04 BMatP= 7.98D-04
 IDIUse=3 WtCom= 9.93D-01 WtEn= 6.84D-03
 Coeff-Com: -0.505D-02 0.110D-01-0.130D-01-0.639D-01 0.244D+00 0.827D+00
 Coeff-En:   0.000D+00 0.000D+00 0.000D+00 0.000D+00 0.000D+00 0.100D+01
 Coeff:     -0.501D-02 0.109D-01-0.129D-01-0.634D-01 0.242D+00 0.828D+00
 Gap=     0.531 Goal=   None    Shift=    0.000
 RMSDP=6.75D-05 MaxDP=1.69D-03 DE=-8.34D-04 OVMax= 4.81D-03

 Cycle   7  Pass 1  IDiag  1:
 RMSU=  3.02D-05    CP:  4.97D-02  3.00D+00  9.80D-01  1.06D+00  1.25D+00
                    CP:  1.10D+00
 FoFJK:  IHMeth= 1 ICntrl=     0 DoSepK=T KAlg= 1 I1Cent= 0 FoldK=F
 E= -2904.62024566555     Delta-E=       -0.000218518973 Rises=F Damp=F
 DIIS: error= 3.47D-04 at cycle   7 NSaved=   7.
 NSaved= 7 IEnMin= 7 EnMin= -2904.62024566555     IErMin= 7 ErrMin= 3.47D-04
 ErrMax= 3.47D-04 EMaxC= 1.00D-01 BMatC= 3.92D-05 BMatP= 1.98D-04
 IDIUse=3 WtCom= 9.97D-01 WtEn= 3.47D-03
 Coeff-Com:  0.218D-02-0.436D-02-0.463D-02-0.142D-01-0.988D-01 0.260D+00
 Coeff-Com:  0.860D+00
 Coeff-En:   0.000D+00 0.000D+00 0.000D+00 0.000D+00 0.000D+00 0.000D+00
 Coeff-En:   0.100D+01
 Coeff:      0.217D-02-0.435D-02-0.461D-02-0.141D-01-0.984D-01 0.259D+00
 Coeff:      0.861D+00
 Gap=     0.531 Goal=   None    Shift=    0.000
 RMSDP=3.74D-05 MaxDP=8.73D-04 DE=-2.19D-04 OVMax= 3.48D-03

 Cycle   8  Pass 1  IDiag  1:
 RMSU=  1.51D-05    CP:  4.97D-02  3.00D+00  9.80D-01  1.06D+00  1.28D+00
                    CP:  1.22D+00  1.20D+00
 FoFJK:  IHMeth= 1 ICntrl=     0 DoSepK=T KAlg= 1 I1Cent= 0 FoldK=F
 E= -2904.62030375170     Delta-E=       -0.000058086155 Rises=F Damp=F
 DIIS: error= 1.19D-04 at cycle   8 NSaved=   8.
 NSaved= 8 IEnMin= 8 EnMin= -2904.62030375170     IErMin= 8 ErrMin= 1.19D-04
 ErrMax= 1.19D-04 EMaxC= 1.00D-01 BMatC= 3.85D-06 BMatP= 3.92D-05
 IDIUse=3 WtCom= 9.99D-01 WtEn= 1.19D-03
 Coeff-Com:  0.140D-02-0.262D-02 0.295D-02 0.104D-01-0.170D-01-0.122D+00
 Coeff-Com: -0.655D-01 0.119D+01
 Coeff-En:   0.000D+00 0.000D+00 0.000D+00 0.000D+00 0.000D+00 0.000D+00
 Coeff-En:   0.000D+00 0.100D+01
 Coeff:      0.140D-02-0.262D-02 0.295D-02 0.104D-01-0.170D-01-0.122D+00
 Coeff:     -0.654D-01 0.119D+01
 Gap=     0.531 Goal=   None    Shift=    0.000
 RMSDP=1.73D-05 MaxDP=3.66D-04 DE=-5.81D-05 OVMax= 2.44D-03

 Cycle   9  Pass 1  IDiag  1:
 RMSU=  6.12D-06    CP:  4.97D-02  3.00D+00  9.80D-01  1.06D+00  1.28D+00
                    CP:  1.26D+00  1.43D+00  1.45D+00
 FoFJK:  IHMeth= 1 ICntrl=     0 DoSepK=T KAlg= 1 I1Cent= 0 FoldK=F
 E= -2904.62031651718     Delta-E=       -0.000012765480 Rises=F Damp=F
 DIIS: error= 5.86D-05 at cycle   9 NSaved=   9.
 NSaved= 9 IEnMin= 9 EnMin= -2904.62031651718     IErMin= 9 ErrMin= 5.86D-05
 ErrMax= 5.86D-05 EMaxC= 1.00D-01 BMatC= 7.97D-07 BMatP= 3.85D-06
 IDIUse=1 WtCom= 1.00D+00 WtEn= 0.00D+00
 Coeff-Com: -0.337D-03 0.706D-03 0.412D-03 0.542D-03 0.769D-02 0.916D-02
 Coeff-Com: -0.733D-01-0.437D+00 0.149D+01
 Coeff:     -0.337D-03 0.706D-03 0.412D-03 0.542D-03 0.769D-02 0.916D-02
 Coeff:     -0.733D-01-0.437D+00 0.149D+01
 Gap=     0.531 Goal=   None    Shift=    0.000
 RMSDP=1.13D-05 MaxDP=2.42D-04 DE=-1.28D-05 OVMax= 1.72D-03

 Cycle  10  Pass 1  IDiag  1:
 RMSU=  2.33D-06    CP:  4.97D-02  3.00D+00  9.80D-01  1.06D+00  1.27D+00
                    CP:  1.27D+00  1.54D+00  1.76D+00  1.78D+00
 FoFJK:  IHMeth= 1 ICntrl=     0 DoSepK=T KAlg= 1 I1Cent= 0 FoldK=F
 E= -2904.62032013903     Delta-E=       -0.000003621847 Rises=F Damp=F
 DIIS: error= 1.92D-05 at cycle  10 NSaved=  10.
 NSaved=10 IEnMin=10 EnMin= -2904.62032013903     IErMin=10 ErrMin= 1.92D-05
 ErrMax= 1.92D-05 EMaxC= 1.00D-01 BMatC= 1.06D-07 BMatP= 7.97D-07
 IDIUse=1 WtCom= 1.00D+00 WtEn= 0.00D+00
 Coeff-Com: -0.215D-03 0.393D-03-0.567D-03-0.163D-02-0.243D-03 0.157D-01
 Coeff-Com:  0.134D-01-0.147D+00-0.872D-01 0.121D+01
 Coeff:     -0.215D-03 0.393D-03-0.567D-03-0.163D-02-0.243D-03 0.157D-01
 Coeff:      0.134D-01-0.147D+00-0.872D-01 0.121D+01
 Gap=     0.531 Goal=   None    Shift=    0.000
 RMSDP=4.28D-06 MaxDP=9.55D-05 DE=-3.62D-06 OVMax= 6.81D-04

 Cycle  11  Pass 1  IDiag  1:
 RMSU=  8.95D-07    CP:  4.97D-02  3.00D+00  9.80D-01  1.06D+00  1.28D+00
                    CP:  1.28D+00  1.57D+00  1.86D+00  2.06D+00  1.45D+00
 FoFJK:  IHMeth= 1 ICntrl=     0 DoSepK=T KAlg= 1 I1Cent= 0 FoldK=F
 E= -2904.62032060670     Delta-E=       -0.000000467669 Rises=F Damp=F
 DIIS: error= 6.05D-06 at cycle  11 NSaved=  11.
 NSaved=11 IEnMin=11 EnMin= -2904.62032060670     IErMin=11 ErrMin= 6.05D-06
 ErrMax= 6.05D-06 EMaxC= 1.00D-01 BMatC= 1.08D-08 BMatP= 1.06D-07
 IDIUse=1 WtCom= 1.00D+00 WtEn= 0.00D+00
 Coeff-Com: -0.601D-05 0.667D-06 0.276D-04 0.144D-03 0.108D-02-0.501D-02
 Coeff-Com: -0.240D-02 0.686D-01-0.113D+00-0.281D+00 0.133D+01
 Coeff:     -0.601D-05 0.667D-06 0.276D-04 0.144D-03 0.108D-02-0.501D-02
 Coeff:     -0.240D-02 0.686D-01-0.113D+00-0.281D+00 0.133D+01
 Gap=     0.531 Goal=   None    Shift=    0.000
 RMSDP=1.40D-06 MaxDP=2.80D-05 DE=-4.68D-07 OVMax= 2.08D-04

 Cycle  12  Pass 1  IDiag  1:
 RMSU=  3.02D-07    CP:  4.97D-02  3.00D+00  9.80D-01  1.06D+00  1.28D+00
                    CP:  1.28D+00  1.59D+00  1.90D+00  2.12D+00  1.62D+00
                    CP:  1.47D+00
 FoFJK:  IHMeth= 1 ICntrl=     0 DoSepK=T KAlg= 1 I1Cent= 0 FoldK=F
 E= -2904.62032065164     Delta-E=       -0.000000044940 Rises=F Damp=F
 DIIS: error= 1.42D-06 at cycle  12 NSaved=  12.
 NSaved=12 IEnMin=12 EnMin= -2904.62032065164     IErMin=12 ErrMin= 1.42D-06
 ErrMax= 1.42D-06 EMaxC= 1.00D-01 BMatC= 6.30D-10 BMatP= 1.08D-08
 IDIUse=1 WtCom= 1.00D+00 WtEn= 0.00D+00
 Coeff-Com:  0.597D-05-0.128D-04 0.244D-04 0.931D-04-0.472D-03 0.600D-03
 Coeff-Com:  0.110D-02-0.872D-02 0.315D-01-0.720D-02-0.346D+00 0.133D+01
 Coeff:      0.597D-05-0.128D-04 0.244D-04 0.931D-04-0.472D-03 0.600D-03
 Coeff:      0.110D-02-0.872D-02 0.315D-01-0.720D-02-0.346D+00 0.133D+01
 Gap=     0.531 Goal=   None    Shift=    0.000
 RMSDP=3.01D-07 MaxDP=7.64D-06 DE=-4.49D-08 OVMax= 3.25D-05

 Cycle  13  Pass 1  IDiag  1:
 RMSU=  5.91D-08    CP:  4.97D-02  3.00D+00  9.80D-01  1.06D+00  1.28D+00
                    CP:  1.28D+00  1.59D+00  1.90D+00  2.13D+00  1.64D+00
                    CP:  1.60D+00  1.40D+00
 FoFJK:  IHMeth= 1 ICntrl=     0 DoSepK=T KAlg= 1 I1Cent= 0 FoldK=F
 E= -2904.62032065386     Delta-E=       -0.000000002226 Rises=F Damp=F
 DIIS: error= 3.59D-07 at cycle  13 NSaved=  13.
 NSaved=13 IEnMin=13 EnMin= -2904.62032065386     IErMin=13 ErrMin= 3.59D-07
 ErrMax= 3.59D-07 EMaxC= 1.00D-01 BMatC= 2.98D-11 BMatP= 6.30D-10
 IDIUse=1 WtCom= 1.00D+00 WtEn= 0.00D+00
 Coeff-Com:  0.776D-06-0.829D-06-0.254D-05-0.109D-04 0.150D-04 0.788D-04
 Coeff-Com:  0.839D-05-0.130D-02-0.191D-02 0.144D-01-0.798D-03-0.216D+00
 Coeff-Com:  0.121D+01
 Coeff:      0.776D-06-0.829D-06-0.254D-05-0.109D-04 0.150D-04 0.788D-04
 Coeff:      0.839D-05-0.130D-02-0.191D-02 0.144D-01-0.798D-03-0.216D+00
 Coeff:      0.121D+01
 Gap=     0.531 Goal=   None    Shift=    0.000
 RMSDP=5.62D-08 MaxDP=1.61D-06 DE=-2.23D-09 OVMax= 4.73D-06

 Cycle  14  Pass 1  IDiag  1:
 RMSU=  1.18D-08    CP:  4.97D-02  3.00D+00  9.80D-01  1.06D+00  1.28D+00
                    CP:  1.28D+00  1.59D+00  1.90D+00  2.13D+00  1.64D+00
                    CP:  1.61D+00  1.44D+00  1.37D+00
 FoFJK:  IHMeth= 1 ICntrl=     0 DoSepK=T KAlg= 1 I1Cent= 0 FoldK=F
 E= -2904.62032065391     Delta-E=       -0.000000000048 Rises=F Damp=F
 DIIS: error= 8.49D-08 at cycle  14 NSaved=  14.
 NSaved=14 IEnMin=14 EnMin= -2904.62032065391     IErMin=14 ErrMin= 8.49D-08
 ErrMax= 8.49D-08 EMaxC= 1.00D-01 BMatC= 2.00D-12 BMatP= 2.98D-11
 IDIUse=1 WtCom= 1.00D+00 WtEn= 0.00D+00
 Coeff-Com:  0.433D-06-0.667D-06-0.101D-05-0.486D-05 0.377D-04-0.756D-04
 Coeff-Com: -0.103D-03 0.867D-03-0.193D-02-0.109D-02 0.247D-01-0.733D-01
 Coeff-Com: -0.110D+00 0.116D+01
 Coeff:      0.433D-06-0.667D-06-0.101D-05-0.486D-05 0.377D-04-0.756D-04
 Coeff:     -0.103D-03 0.867D-03-0.193D-02-0.109D-02 0.247D-01-0.733D-01
 Coeff:     -0.110D+00 0.116D+01
 Gap=     0.531 Goal=   None    Shift=    0.000
 RMSDP=1.27D-08 MaxDP=4.50D-07 DE=-4.82D-11 OVMax= 1.24D-06

 Cycle  15  Pass 1  IDiag  1:
 RMSU=  4.16D-09    CP:  4.97D-02  3.00D+00  9.80D-01  1.06D+00  1.28D+00
                    CP:  1.28D+00  1.59D+00  1.90D+00  2.13D+00  1.64D+00
                    CP:  1.61D+00  1.45D+00  1.46D+00  1.38D+00
 FoFJK:  IHMeth= 1 ICntrl=     0 DoSepK=T KAlg= 1 I1Cent= 0 FoldK=F
 E= -2904.62032065394     Delta-E=       -0.000000000026 Rises=F Damp=F
 DIIS: error= 2.35D-08 at cycle  15 NSaved=  15.
 NSaved=15 IEnMin=15 EnMin= -2904.62032065394     IErMin=15 ErrMin= 2.35D-08
 ErrMax= 2.35D-08 EMaxC= 1.00D-01 BMatC= 1.75D-13 BMatP= 2.00D-12
 IDIUse=1 WtCom= 1.00D+00 WtEn= 0.00D+00
 Coeff-Com:  0.270D-07-0.634D-07 0.317D-06 0.183D-05-0.130D-04 0.173D-04
 Coeff-Com:  0.544D-04-0.174D-03 0.424D-03-0.946D-04-0.637D-02 0.285D-01
 Coeff-Com: -0.285D-01-0.322D+00 0.133D+01
 Coeff:      0.270D-07-0.634D-07 0.317D-06 0.183D-05-0.130D-04 0.173D-04
 Coeff:      0.544D-04-0.174D-03 0.424D-03-0.946D-04-0.637D-02 0.285D-01
 Coeff:     -0.285D-01-0.322D+00 0.133D+01
 Gap=     0.531 Goal=   None    Shift=    0.000
 RMSDP=4.41D-09 MaxDP=1.01D-07 DE=-2.64D-11 OVMax= 4.87D-07

 SCF Done:  E(RLC-B+HF-LYP) =  -2904.62032065     A.U. after   15 cycles
             Convg  =    0.4409D-08             -V/T =  2.0016
 KE= 2.899950983561D+03 PE=-7.234890593078D+03 EE= 1.281577459992D+03
 Leave Link  502 at Mon May 11 19:47:35 2020, MaxMem= 1073741824 cpu:     390.5
 (Enter /home/matheus/.gaussian/g09/l601.exe)
 Copying SCF densities to generalized density rwf, IOpCl= 0 IROHF=0.

 **********************************************************************

            Population analysis using the SCF density.

 **********************************************************************

 Orbital symmetries:
       Occupied  (A) (A) (A) (A) (A) (A) (A) (A) (A) (A) (A) (A)
                 (A) (A) (A) (A) (A) (A) (A) (A) (A) (A) (A) (A)
                 (A) (A) (A)
       Virtual   (A) (A) (A) (A) (A) (A) (A) (A) (A) (A) (A) (A)
                 (A) (A) (A) (A) (A) (A) (A) (A) (A) (A) (A) (A)
                 (A) (A) (A) (A) (A) (A) (A) (A) (A) (A) (A) (A)
                 (A) (A) (A) (A) (A) (A) (A) (A) (A) (A) (A) (A)
                 (A) (A) (A) (A) (A) (A) (A) (A) (A) (A) (A) (A)
                 (A) (A) (A) (A) (A) (A) (A) (A) (A) (A) (A) (A)
                 (A) (A) (A) (A) (A) (A) (A) (A) (A) (A) (A) (A)
                 (A) (A) (A) (A) (A) (A) (A) (A) (A) (A) (A) (A)
                 (A) (A) (A) (A) (A) (A) (A) (A) (A) (A) (A) (A)
                 (A) (A) (A) (A) (A) (A) (A) (A) (A) (A) (A) (A)
                 (A) (A) (A) (A) (A) (A) (A) (A) (A) (A) (A) (A)
                 (A) (A) (A) (A) (A) (A) (A) (A) (A) (A) (A) (A)
                 (A) (A) (A) (A) (A) (A) (A) (A) (A) (A) (A) (A)
                 (A) (A) (A) (A) (A) (A) (A) (A) (A) (A) (A) (A)
                 (A) (A)
 The electronic state is 1-A.
 Alpha  occ. eigenvalues -- -511.66604 -67.19100 -60.86307 -60.86291 -60.86280
 Alpha  occ. eigenvalues --  -19.48296 -19.47993 -10.09229  -7.80829  -7.80788
 Alpha  occ. eigenvalues --   -7.80759  -3.63790  -3.63782  -3.63759  -3.63725
 Alpha  occ. eigenvalues --   -3.63722  -1.46105  -1.21471  -1.18641  -0.75467
 Alpha  occ. eigenvalues --   -0.72790  -0.63954  -0.57170  -0.56470  -0.55990
 Alpha  occ. eigenvalues --   -0.53605  -0.50354
 Alpha virt. eigenvalues --    0.02763   0.03815   0.07842   0.09178   0.10629
 Alpha virt. eigenvalues --    0.11249   0.13481   0.13897   0.16193   0.17141
 Alpha virt. eigenvalues --    0.17846   0.19799   0.21594   0.23440   0.24125
 Alpha virt. eigenvalues --    0.24793   0.26122   0.29090   0.31973   0.33874
 Alpha virt. eigenvalues --    0.34053   0.34960   0.35950   0.39585   0.40128
 Alpha virt. eigenvalues --    0.41937   0.43933   0.49009   0.54146   0.57295
 Alpha virt. eigenvalues --    0.57958   0.61127   0.64120   0.68339   0.70124
 Alpha virt. eigenvalues --    0.73074   0.74587   0.75044   0.77403   0.78573
 Alpha virt. eigenvalues --    0.79931   0.80977   0.82350   0.84219   0.85516
 Alpha virt. eigenvalues --    0.88095   0.88255   0.89960   0.91896   0.94032
 Alpha virt. eigenvalues --    0.96362   0.97069   0.98051   0.99425   1.03255
 Alpha virt. eigenvalues --    1.04526   1.06077   1.10051   1.11117   1.13804
 Alpha virt. eigenvalues --    1.14371   1.18859   1.20466   1.22329   1.27523
 Alpha virt. eigenvalues --    1.28515   1.35135   1.39001   1.43909   1.47508
 Alpha virt. eigenvalues --    1.50074   1.55211   1.57888   1.59205   1.65281
 Alpha virt. eigenvalues --    1.72917   1.82005   1.91702   1.97403   2.03745
 Alpha virt. eigenvalues --    2.08860   2.12198   2.21112   2.23031   2.26713
 Alpha virt. eigenvalues --    2.27630   2.29747   2.31697   2.33601   2.36818
 Alpha virt. eigenvalues --    2.38721   2.41923   2.45719   2.45952   2.48775
 Alpha virt. eigenvalues --    2.49128   2.51584   2.55839   2.57335   2.61507
 Alpha virt. eigenvalues --    2.64182   2.64529   2.66774   2.69750   2.70700
 Alpha virt. eigenvalues --    2.72972   2.75391   2.75889   2.80140   2.84760
 Alpha virt. eigenvalues --    2.86260   2.90123   2.92821   2.99367   3.01681
 Alpha virt. eigenvalues --    3.03112   3.18788   3.24583   3.28234   3.76819
 Alpha virt. eigenvalues --    3.82840   4.04399   4.10175   4.18535   4.21003
 Alpha virt. eigenvalues --    4.28600   4.30252   4.36293   4.41130   4.43264
 Alpha virt. eigenvalues --    4.57243   4.66114   4.67407   4.72509   4.87134
 Alpha virt. eigenvalues --    5.06588   5.14398   5.23018   5.29999   5.30984
 Alpha virt. eigenvalues --    5.41208   5.66219   6.05757   6.28854   6.34440
 Alpha virt. eigenvalues --    6.36328   6.55225   6.59035   6.67584   6.79686
 Alpha virt. eigenvalues --    6.84396   7.03984   7.04414   7.07613   7.09932
 Alpha virt. eigenvalues --    7.13495   7.13758   7.14611   7.22760   7.27562
 Alpha virt. eigenvalues --    7.31880   7.43696   7.50664   7.68432   7.98647
 Alpha virt. eigenvalues --    8.06177   8.33625   8.37691  14.17912  14.87780
          Condensed to atoms (all electrons):
              1          2          3          4          5
     1  O    8.216306  -0.166862   0.205302  -0.008581  -0.032423
     2  O   -0.166862   8.226406   0.005206   0.204356  -0.009130
     3  H    0.205302   0.005206   0.559458   0.003465   0.003011
     4  H   -0.008581   0.204356   0.003465   0.565981  -0.012414
     5  Kr  -0.032423  -0.009130   0.003011  -0.012414  36.047992
 Mulliken atomic charges:
              1
     1  O   -0.213742
     2  O   -0.259975
     3  H    0.223558
     4  H    0.247194
     5  Kr   0.002965
 Sum of Mulliken atomic charges =   0.00000
 Mulliken charges with hydrogens summed into heavy atoms:
              1
     1  O    0.009816
     2  O   -0.012781
     5  Kr   0.002965
 Sum of Mulliken charges with hydrogens summed into heavy atoms =   0.00000
          Condensed to fragments (all electrons):
     1      -0.002965
     2       0.002965
 Electronic spatial extent (au):  <R**2>=            487.6995
 Charge=              0.0000 electrons
 Dipole moment (field-independent basis, Debye):
    X=              0.9933    Y=             -0.3899    Z=              1.4469  Tot=              1.7978
 Quadrupole moment (field-independent basis, Debye-Ang):
   XX=            -30.7598   YY=            -27.7433   ZZ=            -29.0573
   XY=              3.4311   XZ=             -3.8749   YZ=             -1.6513
 Traceless Quadrupole moment (field-independent basis, Debye-Ang):
   XX=             -1.5730   YY=              1.4435   ZZ=              0.1295
   XY=              3.4311   XZ=             -3.8749   YZ=             -1.6513
 Octapole moment (field-independent basis, Debye-Ang**2):
  XXX=             19.0933  YYY=             -0.9984  ZZZ=              1.0932  XYY=              4.0595
  XXY=            -12.6478  XXZ=              9.8775  XZZ=              5.1982  YZZ=             -1.4887
  YYZ=              2.0473  XYZ=              4.3452
 Hexadecapole moment (field-independent basis, Debye-Ang**3):
 XXXX=           -405.2691 YYYY=            -61.7505 ZZZZ=            -28.5456 XXXY=             34.2912
 XXXZ=            -26.3779 YYYX=              5.7172 YYYZ=             -2.2979 ZZZX=             -3.1501
 ZZZY=             -1.5461 XXYY=            -75.7910 XXZZ=            -70.5662 YYZZ=            -15.7390
 XXYZ=            -11.3674 YYXZ=             -5.1153 ZZXY=              3.3655
 N-N= 1.487418288716D+02 E-N=-7.234890594260D+03  KE= 2.899950983561D+03
 No NMR shielding tensors so no spin-rotation constants.
 Leave Link  601 at Mon May 11 19:47:35 2020, MaxMem= 1073741824 cpu:       0.7
 (Enter /home/matheus/.gaussian/g09/l122.exe)
 Counterpoise: doing DCBS calculation for fragment   1 NewBq=T
 Leave Link  122 at Mon May 11 19:47:35 2020, MaxMem= 1073741824 cpu:       0.0
 (Enter /home/matheus/.gaussian/g09/l301.exe)
 Basis read from rwf:  (5D, 7F)
 No pseudopotential information found on rwf file.
 There are   197 symmetry adapted basis functions of A   symmetry.
 Integral buffers will be    131072 words long.
 Raffenetti 2 integral format.
 Two-electron integral symmetry is turned on.
   197 basis functions,   415 primitive gaussians,   229 cartesian basis functions
     9 alpha electrons        9 beta electrons
       nuclear repulsion energy        36.6123390277 Hartrees.
 IExCor=10402 DFT=T Ex=LC-B+HF Corr=LYP ExCW=0 ScaHFX=  1.000000
 ScaDFX=  1.000000  1.000000  1.000000  1.000000 ScalE2=  1.000000  1.000000
 IRadAn=      5 IRanWt=     -1 IRanGd=            0 ICorTp=0
  HFx wShort=  0.000000 wLong=  1.350000 cFull=  0.000000 cShort=  0.000000 cLong=  1.000000
  DFx wShort=  0.000000 wLong=  1.350000 cFull=  0.000000 cShort=  0.000000 cLong=  1.000000
 NAtoms=    5 NActive=    5 NUniq=    5 SFac= 1.00D+00 NAtFMM=   60 NAOKFM=F Big=F
 No density basis found on file   718.
 Leave Link  301 at Mon May 11 19:47:35 2020, MaxMem= 1073741824 cpu:       0.2
 (Enter /home/matheus/.gaussian/g09/l302.exe)
 NPDir=0 NMtPBC=     1 NCelOv=     1 NCel=       1 NClECP=     1 NCelD=      1
         NCelK=      1 NCelE2=     1 NClLst=     1 CellRange=     0.0.
 One-electron integrals computed using PRISM.
 NBasis=   197 RedAO= T  NBF=   197
 NBsUse=   197 1.00D-06 NBFU=   197
 Precomputing XC quadrature grid using
 IXCGrd= 2 IRadAn=           5 IRanWt=          -1 IRanGd=           0 AccXCQ= 0.00D+00.
 NRdTot=     427 NPtTot=      123512 NUsed=      126579 NTot=      126611
 NSgBfM=   229   229   229   229   229 NAtAll=     5     5.
 Leave Link  302 at Mon May 11 19:47:35 2020, MaxMem= 1073741824 cpu:       1.0
 (Enter /home/matheus/.gaussian/g09/l303.exe)
 DipDrv:  MaxL=1.
 Leave Link  303 at Mon May 11 19:47:35 2020, MaxMem= 1073741824 cpu:       0.2
 (Enter /home/matheus/.gaussian/g09/l401.exe)
 Harris functional with IExCor=10402 diagonalized for initial guess.
 ExpMin= 2.53D-02 ExpMax= 1.17D+07 ExpMxC= 1.33D+04 IAcc=3 IRadAn=         5 AccDes= 0.00D+00
 HarFok:  IExCor=10402 AccDes= 0.00D+00 IRadAn=         5 IDoV= 1
 ScaDFX=  1.000000  1.000000  1.000000  1.000000
 FoFCou: FMM=F IPFlag=           0 FMFlag=      100000 FMFlg1=           0
         NFxFlg=           0 DoJE=T BraDBF=F KetDBF=T FulRan=T
         Omega=  0.000000  0.000000  1.000000  0.000000  0.000000 ICntrl=     500 IOpCl=  0
         NMat0=    1 NMatS0=    1 NMatT0=    0 NMatD0=    1 NMtDS0=    0 NMtDT0=    0
         I1Cent=           4 NGrid=           0.
 Petite list used in FoFCou.
 Harris En= -143.244874606694    
 Initial guess orbital symmetries:
       Occupied  (A) (A) (A) (A) (A) (A) (A) (A) (A)
       Virtual   (A) (A) (A) (A) (A) (A) (A) (A) (A) (A) (A) (A)
                 (A) (A) (A) (A) (A) (A) (A) (A) (A) (A) (A) (A)
                 (A) (A) (A) (A) (A) (A) (A) (A) (A) (A) (A) (A)
                 (A) (A) (A) (A) (A) (A) (A) (A) (A) (A) (A) (A)
                 (A) (A) (A) (A) (A) (A) (A) (A) (A) (A) (A) (A)
                 (A) (A) (A) (A) (A) (A) (A) (A) (A) (A) (A) (A)
                 (A) (A) (A) (A) (A) (A) (A) (A) (A) (A) (A) (A)
                 (A) (A) (A) (A) (A) (A) (A) (A) (A) (A) (A) (A)
                 (A) (A) (A) (A) (A) (A) (A) (A) (A) (A) (A) (A)
                 (A) (A) (A) (A) (A) (A) (A) (A) (A) (A) (A) (A)
                 (A) (A) (A) (A) (A) (A) (A) (A) (A) (A) (A) (A)
                 (A) (A) (A) (A) (A) (A) (A) (A) (A) (A) (A) (A)
                 (A) (A) (A) (A) (A) (A) (A) (A) (A) (A) (A) (A)
                 (A) (A) (A) (A) (A) (A) (A) (A) (A) (A) (A) (A)
                 (A) (A) (A) (A) (A) (A) (A) (A) (A) (A) (A) (A)
                 (A) (A) (A) (A) (A) (A) (A) (A)
 The electronic state of the initial guess is 1-A.
 Leave Link  401 at Mon May 11 19:47:36 2020, MaxMem= 1073741824 cpu:       3.7
 (Enter /home/matheus/.gaussian/g09/l502.exe)
 Closed shell SCF:
 Requested convergence on RMS density matrix=1.00D-08 within 128 cycles.
 Requested convergence on MAX density matrix=1.00D-06.
 Requested convergence on             energy=1.00D-06.
 No special actions if energy rises.
 Using DIIS extrapolation, IDIIS=  1040.
 Integral symmetry usage will be decided dynamically.
       126521 words used for storage of precomputed grid.
 IEnd=      305468 IEndB=      305468 NGot=  1073741824 MDV=  1073505667
 LenX=  1073505667 LenY=  1073452785
 Fock matrices will be formed incrementally for  20 cycles.

 Cycle   1  Pass 1  IDiag  1:
 FoFJK:  IHMeth= 1 ICntrl=     0 DoSepK=T KAlg= 1 I1Cent= 0 FoldK=F
 FoFCou: FMM=F IPFlag=           0 FMFlag=      100000 FMFlg1=           0
         NFxFlg=           0 DoJE=T BraDBF=F KetDBF=F FulRan=T
         Omega=  0.000000  0.000000  1.000000  0.000000  0.000000 ICntrl=     500 IOpCl=  0
         NMat0=    1 NMatS0=    1 NMatT0=    0 NMatD0=    1 NMtDS0=    0 NMtDT0=    0
         I1Cent=           0 NGrid=           0.
 Symmetry not used in FoFCou.
 E= -145.691224031148    
 DIIS: error= 1.39D-01 at cycle   1 NSaved=   1.
 NSaved= 1 IEnMin= 1 EnMin= -145.691224031148     IErMin= 1 ErrMin= 1.39D-01
 ErrMax= 1.39D-01 EMaxC= 1.00D-01 BMatC= 2.72D+00 BMatP= 2.72D+00
 IDIUse=3 WtCom= 0.00D+00 WtEn= 1.00D+00
 Coeff-Com:  0.100D+01
 Coeff-En:   0.100D+01
 Coeff:      0.100D+01
 Gap=    -0.967 Goal=   None    Shift=    0.000
 GapD=   -0.967 DampG=0.250 DampE=0.250 DampFc=0.2500 IDamp=-1.
 Damping current iteration by 2.50D-01
 RMSDP=9.12D-02 MaxDP=7.18D+00              OVMax= 9.99D-01

 Cycle   2  Pass 1  IDiag  1:
 RMSU=  1.82D-03    CP:  7.52D-01
 FoFJK:  IHMeth= 1 ICntrl=     0 DoSepK=T KAlg= 1 I1Cent= 0 FoldK=F
 E= -147.796210859719     Delta-E=       -2.104986828571 Rises=F Damp=T
 DIIS: error= 7.31D-02 at cycle   2 NSaved=   2.
 NSaved= 2 IEnMin= 2 EnMin= -147.796210859719     IErMin= 2 ErrMin= 7.31D-02
 ErrMax= 7.31D-02 EMaxC= 1.00D-01 BMatC= 7.21D-01 BMatP= 2.72D+00
 IDIUse=3 WtCom= 2.69D-01 WtEn= 7.31D-01
 Coeff-Com: -0.970D+00 0.197D+01
 Coeff-En:   0.000D+00 0.100D+01
 Coeff:     -0.261D+00 0.126D+01
 Gap=     0.348 Goal=   None    Shift=    0.000
 RMSDP=6.84D-02 MaxDP=5.38D+00 DE=-2.10D+00 OVMax= 1.14D-01

 Cycle   3  Pass 1  IDiag  1:
 RMSU=  2.12D-03    CP:  8.85D-03  3.00D+00
 FoFJK:  IHMeth= 1 ICntrl=     0 DoSepK=T KAlg= 1 I1Cent= 0 FoldK=F
 E= -150.468651241864     Delta-E=       -2.672440382145 Rises=F Damp=F
 DIIS: error= 5.16D-02 at cycle   3 NSaved=   3.
 NSaved= 3 IEnMin= 3 EnMin= -150.468651241864     IErMin= 3 ErrMin= 5.16D-02
 ErrMax= 5.16D-02 EMaxC= 1.00D-01 BMatC= 1.08D+00 BMatP= 7.21D-01
 IDIUse=2 WtCom= 0.00D+00 WtEn= 1.00D+00
 Coeff-En:   0.244D-01 0.000D+00 0.976D+00
 Coeff:      0.244D-01 0.000D+00 0.976D+00
 Gap=     0.796 Goal=   None    Shift=    0.000
 RMSDP=4.10D-03 MaxDP=1.51D-01 DE=-2.67D+00 OVMax= 3.01D-01

 Cycle   4  Pass 1  IDiag  1:
 RMSU=  2.88D-03    CP:  1.00D-02  3.00D+00  1.17D+00
 FoFJK:  IHMeth= 1 ICntrl=     0 DoSepK=T KAlg= 1 I1Cent= 0 FoldK=F
 E= -150.953389678614     Delta-E=       -0.484738436750 Rises=F Damp=F
 DIIS: error= 3.70D-02 at cycle   4 NSaved=   4.
 NSaved= 4 IEnMin= 4 EnMin= -150.953389678614     IErMin= 4 ErrMin= 3.70D-02
 ErrMax= 3.70D-02 EMaxC= 1.00D-01 BMatC= 4.02D-01 BMatP= 7.21D-01
 IDIUse=3 WtCom= 6.30D-01 WtEn= 3.70D-01
 Coeff-Com: -0.441D+00 0.742D+00 0.178D+00 0.521D+00
 Coeff-En:   0.000D+00 0.000D+00 0.135D+00 0.865D+00
 Coeff:     -0.278D+00 0.467D+00 0.162D+00 0.648D+00
 Gap=     0.595 Goal=   None    Shift=    0.000
 RMSDP=1.89D-03 MaxDP=5.17D-02 DE=-4.85D-01 OVMax= 1.48D-01

 Cycle   5  Pass 1  IDiag  1:
 RMSU=  4.10D-04    CP:  9.09D-03  3.00D+00  1.21D+00  5.59D-01
 FoFJK:  IHMeth= 1 ICntrl=     0 DoSepK=T KAlg= 1 I1Cent= 0 FoldK=F
 E= -151.186538933008     Delta-E=       -0.233149254394 Rises=F Damp=F
 DIIS: error= 1.01D-02 at cycle   5 NSaved=   5.
 NSaved= 5 IEnMin= 5 EnMin= -151.186538933008     IErMin= 5 ErrMin= 1.01D-02
 ErrMax= 1.01D-02 EMaxC= 1.00D-01 BMatC= 3.71D-02 BMatP= 4.02D-01
 IDIUse=3 WtCom= 8.99D-01 WtEn= 1.01D-01
 Coeff-Com: -0.103D+00 0.187D+00-0.149D+00 0.927D-01 0.972D+00
 Coeff-En:   0.000D+00 0.000D+00 0.000D+00 0.000D+00 0.100D+01
 Coeff:     -0.926D-01 0.168D+00-0.134D+00 0.833D-01 0.975D+00
 Gap=     0.583 Goal=   None    Shift=    0.000
 RMSDP=4.63D-04 MaxDP=1.79D-02 DE=-2.33D-01 OVMax= 2.86D-02

 Cycle   6  Pass 1  IDiag  1:
 RMSU=  9.47D-05    CP:  9.29D-03  3.00D+00  1.23D+00  6.65D-01  1.11D+00
 FoFJK:  IHMeth= 1 ICntrl=     0 DoSepK=T KAlg= 1 I1Cent= 0 FoldK=F
 E= -151.211895225299     Delta-E=       -0.025356292291 Rises=F Damp=F
 DIIS: error= 1.92D-03 at cycle   6 NSaved=   6.
 NSaved= 6 IEnMin= 6 EnMin= -151.211895225299     IErMin= 6 ErrMin= 1.92D-03
 ErrMax= 1.92D-03 EMaxC= 1.00D-01 BMatC= 1.08D-03 BMatP= 3.71D-02
 IDIUse=3 WtCom= 9.81D-01 WtEn= 1.92D-02
 Coeff-Com: -0.394D-01 0.764D-01 0.125D-01-0.412D-01-0.462D+00 0.145D+01
 Coeff-En:   0.000D+00 0.000D+00 0.000D+00 0.000D+00 0.000D+00 0.100D+01
 Coeff:     -0.386D-01 0.749D-01 0.122D-01-0.404D-01-0.453D+00 0.144D+01
 Gap=     0.535 Goal=   None    Shift=    0.000
 RMSDP=1.10D-04 MaxDP=2.40D-03 DE=-2.54D-02 OVMax= 1.04D-02

 Cycle   7  Pass 1  IDiag  1:
 RMSU=  3.22D-05    CP:  9.33D-03  3.00D+00  1.23D+00  6.80D-01  1.17D+00
                    CP:  1.55D+00
 FoFJK:  IHMeth= 1 ICntrl=     0 DoSepK=T KAlg= 1 I1Cent= 0 FoldK=F
 E= -151.212796683984     Delta-E=       -0.000901458685 Rises=F Damp=F
 DIIS: error= 1.29D-03 at cycle   7 NSaved=   7.
 NSaved= 7 IEnMin= 7 EnMin= -151.212796683984     IErMin= 7 ErrMin= 1.29D-03
 ErrMax= 1.29D-03 EMaxC= 1.00D-01 BMatC= 3.76D-04 BMatP= 1.08D-03
 IDIUse=3 WtCom= 9.87D-01 WtEn= 1.29D-02
 Coeff-Com: -0.737D-02 0.140D-01 0.101D-01 0.873D-02-0.116D+00-0.394D+00
 Coeff-Com:  0.148D+01
 Coeff-En:   0.000D+00 0.000D+00 0.000D+00 0.000D+00 0.000D+00 0.000D+00
 Coeff-En:   0.100D+01
 Coeff:     -0.727D-02 0.138D-01 0.998D-02 0.862D-02-0.114D+00-0.389D+00
 Coeff:      0.148D+01
 Gap=     0.530 Goal=   None    Shift=    0.000
 RMSDP=8.70D-05 MaxDP=2.22D-03 DE=-9.01D-04 OVMax= 7.86D-03

 Cycle   8  Pass 1  IDiag  1:
 RMSU=  1.08D-05    CP:  9.38D-03  3.00D+00  1.23D+00  6.95D-01  1.17D+00
                    CP:  1.88D+00  1.87D+00
 FoFJK:  IHMeth= 1 ICntrl=     0 DoSepK=T KAlg= 1 I1Cent= 0 FoldK=F
 E= -151.213182791049     Delta-E=       -0.000386107065 Rises=F Damp=F
 DIIS: error= 2.25D-04 at cycle   8 NSaved=   8.
 NSaved= 8 IEnMin= 8 EnMin= -151.213182791049     IErMin= 8 ErrMin= 2.25D-04
 ErrMax= 2.25D-04 EMaxC= 1.00D-01 BMatC= 9.88D-06 BMatP= 3.76D-04
 IDIUse=3 WtCom= 9.98D-01 WtEn= 2.25D-03
 Coeff-Com: -0.433D-03 0.461D-03-0.304D-02 0.409D-02 0.498D-01-0.281D-01
 Coeff-Com: -0.383D+00 0.136D+01
 Coeff-En:   0.000D+00 0.000D+00 0.000D+00 0.000D+00 0.000D+00 0.000D+00
 Coeff-En:   0.000D+00 0.100D+01
 Coeff:     -0.432D-03 0.460D-03-0.303D-02 0.408D-02 0.497D-01-0.281D-01
 Coeff:     -0.382D+00 0.136D+01
 Gap=     0.530 Goal=   None    Shift=    0.000
 RMSDP=2.33D-05 MaxDP=6.20D-04 DE=-3.86D-04 OVMax= 2.68D-03

 Cycle   9  Pass 1  IDiag  1:
 RMSU=  3.68D-06    CP:  9.40D-03  3.00D+00  1.23D+00  6.98D-01  1.17D+00
                    CP:  1.94D+00  2.17D+00  1.56D+00
 FoFJK:  IHMeth= 1 ICntrl=     0 DoSepK=T KAlg= 1 I1Cent= 0 FoldK=F
 E= -151.213198853497     Delta-E=       -0.000016062447 Rises=F Damp=F
 DIIS: error= 2.83D-05 at cycle   9 NSaved=   9.
 NSaved= 9 IEnMin= 9 EnMin= -151.213198853497     IErMin= 9 ErrMin= 2.83D-05
 ErrMax= 2.83D-05 EMaxC= 1.00D-01 BMatC= 1.84D-07 BMatP= 9.88D-06
 IDIUse=1 WtCom= 1.00D+00 WtEn= 0.00D+00
 Coeff-Com:  0.364D-03-0.704D-03 0.576D-03-0.191D-02-0.951D-02 0.493D-01
 Coeff-Com: -0.289D-01-0.287D+00 0.128D+01
 Coeff:      0.364D-03-0.704D-03 0.576D-03-0.191D-02-0.951D-02 0.493D-01
 Coeff:     -0.289D-01-0.287D+00 0.128D+01
 Gap=     0.530 Goal=   None    Shift=    0.000
 RMSDP=4.53D-06 MaxDP=8.70D-05 DE=-1.61D-05 OVMax= 6.83D-04

 Cycle  10  Pass 1  IDiag  1:
 RMSU=  1.14D-06    CP:  9.40D-03  3.00D+00  1.23D+00  6.98D-01  1.17D+00
                    CP:  1.94D+00  2.21D+00  1.68D+00  1.59D+00
 FoFJK:  IHMeth= 1 ICntrl=     0 DoSepK=T KAlg= 1 I1Cent= 0 FoldK=F
 E= -151.213199533412     Delta-E=       -0.000000679916 Rises=F Damp=F
 DIIS: error= 1.85D-05 at cycle  10 NSaved=  10.
 NSaved=10 IEnMin=10 EnMin= -151.213199533412     IErMin=10 ErrMin= 1.85D-05
 ErrMax= 1.85D-05 EMaxC= 1.00D-01 BMatC= 9.44D-08 BMatP= 1.84D-07
 IDIUse=1 WtCom= 1.00D+00 WtEn= 0.00D+00
 Coeff-Com:  0.465D-03-0.810D-03 0.939D-03-0.184D-02-0.138D-01 0.312D-01
 Coeff-Com:  0.470D-01-0.353D+00 0.444D+00 0.846D+00
 Coeff:      0.465D-03-0.810D-03 0.939D-03-0.184D-02-0.138D-01 0.312D-01
 Coeff:      0.470D-01-0.353D+00 0.444D+00 0.846D+00
 Gap=     0.530 Goal=   None    Shift=    0.000
 RMSDP=2.02D-06 MaxDP=5.15D-05 DE=-6.80D-07 OVMax= 3.00D-04

 Cycle  11  Pass 1  IDiag  1:
 RMSU=  5.20D-07    CP:  9.40D-03  3.00D+00  1.23D+00  6.98D-01  1.17D+00
                    CP:  1.95D+00  2.23D+00  1.71D+00  1.87D+00  1.29D+00
 FoFJK:  IHMeth= 1 ICntrl=     0 DoSepK=T KAlg= 1 I1Cent= 0 FoldK=F
 E= -151.213199690723     Delta-E=       -0.000000157311 Rises=F Damp=F
 DIIS: error= 1.04D-05 at cycle  11 NSaved=  11.
 NSaved=11 IEnMin=11 EnMin= -151.213199690723     IErMin=11 ErrMin= 1.04D-05
 ErrMax= 1.04D-05 EMaxC= 1.00D-01 BMatC= 3.86D-08 BMatP= 9.44D-08
 IDIUse=1 WtCom= 1.00D+00 WtEn= 0.00D+00
 Coeff-Com:  0.192D-03-0.333D-03-0.896D-04 0.213D-03 0.304D-02-0.863D-02
 Coeff-Com: -0.614D-02 0.100D+00-0.394D+00 0.798D-02 0.130D+01
 Coeff:      0.192D-03-0.333D-03-0.896D-04 0.213D-03 0.304D-02-0.863D-02
 Coeff:     -0.614D-02 0.100D+00-0.394D+00 0.798D-02 0.130D+01
 Gap=     0.530 Goal=   None    Shift=    0.000
 RMSDP=1.43D-06 MaxDP=2.75D-05 DE=-1.57D-07 OVMax= 2.04D-04

 Cycle  12  Pass 1  IDiag  1:
 RMSU=  2.11D-07    CP:  9.40D-03  3.00D+00  1.23D+00  6.98D-01  1.17D+00
                    CP:  1.95D+00  2.23D+00  1.72D+00  2.03D+00  1.69D+00
                    CP:  1.41D+00
 FoFJK:  IHMeth= 1 ICntrl=     0 DoSepK=T KAlg= 1 I1Cent= 0 FoldK=F
 E= -151.213199746703     Delta-E=       -0.000000055980 Rises=F Damp=F
 DIIS: error= 3.45D-06 at cycle  12 NSaved=  12.
 NSaved=12 IEnMin=12 EnMin= -151.213199746703     IErMin=12 ErrMin= 3.45D-06
 ErrMax= 3.45D-06 EMaxC= 1.00D-01 BMatC= 4.22D-09 BMatP= 3.86D-08
 IDIUse=1 WtCom= 1.00D+00 WtEn= 0.00D+00
 Coeff-Com:  0.252D-04-0.432D-04-0.257D-04-0.585D-05 0.398D-03 0.878D-03
 Coeff-Com: -0.228D-02-0.310D-02 0.623D-01-0.606D-01-0.284D+00 0.129D+01
 Coeff:      0.252D-04-0.432D-04-0.257D-04-0.585D-05 0.398D-03 0.878D-03
 Coeff:     -0.228D-02-0.310D-02 0.623D-01-0.606D-01-0.284D+00 0.129D+01
 Gap=     0.530 Goal=   None    Shift=    0.000
 RMSDP=2.62D-07 MaxDP=5.35D-06 DE=-5.60D-08 OVMax= 3.16D-05

 Cycle  13  Pass 1  IDiag  1:
 RMSU=  4.77D-08    CP:  9.40D-03  3.00D+00  1.23D+00  6.98D-01  1.17D+00
                    CP:  1.95D+00  2.24D+00  1.72D+00  2.06D+00  1.73D+00
                    CP:  1.51D+00  1.34D+00
 FoFJK:  IHMeth= 1 ICntrl=     0 DoSepK=T KAlg= 1 I1Cent= 0 FoldK=F
 E= -151.213199750390     Delta-E=       -0.000000003688 Rises=F Damp=F
 DIIS: error= 5.37D-07 at cycle  13 NSaved=  13.
 NSaved=13 IEnMin=13 EnMin= -151.213199750390     IErMin=13 ErrMin= 5.37D-07
 ErrMax= 5.37D-07 EMaxC= 1.00D-01 BMatC= 8.77D-11 BMatP= 4.22D-09
 IDIUse=1 WtCom= 1.00D+00 WtEn= 0.00D+00
 Coeff-Com:  0.292D-05-0.568D-05 0.147D-04-0.331D-04-0.306D-03 0.510D-03
 Coeff-Com:  0.124D-02-0.100D-01 0.249D-01 0.109D-01-0.666D-01-0.220D+00
 Coeff-Com:  0.126D+01
 Coeff:      0.292D-05-0.568D-05 0.147D-04-0.331D-04-0.306D-03 0.510D-03
 Coeff:      0.124D-02-0.100D-01 0.249D-01 0.109D-01-0.666D-01-0.220D+00
 Coeff:      0.126D+01
 Gap=     0.530 Goal=   None    Shift=    0.000
 RMSDP=6.58D-08 MaxDP=1.55D-06 DE=-3.69D-09 OVMax= 9.31D-06

 Cycle  14  Pass 1  IDiag  1:
 RMSU=  1.10D-08    CP:  9.40D-03  3.00D+00  1.23D+00  6.98D-01  1.17D+00
                    CP:  1.95D+00  2.24D+00  1.72D+00  2.06D+00  1.73D+00
                    CP:  1.52D+00  1.41D+00  1.47D+00
 FoFJK:  IHMeth= 1 ICntrl=     0 DoSepK=T KAlg= 1 I1Cent= 0 FoldK=F
 E= -151.213199750482     Delta-E=       -0.000000000092 Rises=F Damp=F
 DIIS: error= 1.47D-07 at cycle  14 NSaved=  14.
 NSaved=14 IEnMin=14 EnMin= -151.213199750482     IErMin=14 ErrMin= 1.47D-07
 ErrMax= 1.47D-07 EMaxC= 1.00D-01 BMatC= 4.39D-12 BMatP= 8.77D-11
 IDIUse=1 WtCom= 1.00D+00 WtEn= 0.00D+00
 Coeff-Com: -0.187D-06 0.167D-06-0.291D-05 0.635D-05 0.660D-04-0.189D-03
 Coeff-Com: -0.175D-03 0.276D-02-0.956D-02 0.643D-03 0.325D-01-0.199D-01
 Coeff-Com: -0.250D+00 0.124D+01
 Coeff:     -0.187D-06 0.167D-06-0.291D-05 0.635D-05 0.660D-04-0.189D-03
 Coeff:     -0.175D-03 0.276D-02-0.956D-02 0.643D-03 0.325D-01-0.199D-01
 Coeff:     -0.250D+00 0.124D+01
 Gap=     0.530 Goal=   None    Shift=    0.000
 RMSDP=1.32D-08 MaxDP=4.32D-07 DE=-9.17D-11 OVMax= 8.83D-07

 Cycle  15  Pass 1  IDiag  1:
 RMSU=  2.42D-09    CP:  9.40D-03  3.00D+00  1.23D+00  6.98D-01  1.17D+00
                    CP:  1.95D+00  2.24D+00  1.72D+00  2.06D+00  1.73D+00
                    CP:  1.52D+00  1.40D+00  1.55D+00  1.30D+00
 FoFJK:  IHMeth= 1 ICntrl=     0 DoSepK=T KAlg= 1 I1Cent= 0 FoldK=F
 E= -151.213199750461     Delta-E=        0.000000000021 Rises=F Damp=F
 DIIS: error= 1.71D-08 at cycle  15 NSaved=  15.
 NSaved=15 IEnMin=14 EnMin= -151.213199750482     IErMin=15 ErrMin= 1.71D-08
 ErrMax= 1.71D-08 EMaxC= 1.00D-01 BMatC= 3.79D-14 BMatP= 4.39D-12
 IDIUse=1 WtCom= 1.00D+00 WtEn= 0.00D+00
 Coeff-Com: -0.168D-06 0.302D-06 0.660D-07-0.137D-07-0.296D-05 0.208D-04
 Coeff-Com:  0.177D-05-0.308D-03 0.127D-02-0.546D-03-0.468D-02 0.110D-01
 Coeff-Com:  0.173D-01-0.307D+00 0.128D+01
 Coeff:     -0.168D-06 0.302D-06 0.660D-07-0.137D-07-0.296D-05 0.208D-04
 Coeff:      0.177D-05-0.308D-03 0.127D-02-0.546D-03-0.468D-02 0.110D-01
 Coeff:      0.173D-01-0.307D+00 0.128D+01
 Gap=     0.530 Goal=   None    Shift=    0.000
 RMSDP=1.78D-09 MaxDP=5.03D-08 DE= 2.11D-11 OVMax= 1.74D-07

 SCF Done:  E(RLC-B+HF-LYP) =  -151.213199750     A.U. after   15 cycles
             Convg  =    0.1776D-08             -V/T =  2.0063
 KE= 1.502633446284D+02 PE=-4.315441440373D+02 EE= 9.345526063073D+01
 Leave Link  502 at Mon May 11 19:48:20 2020, MaxMem= 1073741824 cpu:     349.2
 (Enter /home/matheus/.gaussian/g09/l601.exe)
 Copying SCF densities to generalized density rwf, IOpCl= 0 IROHF=0.

 **********************************************************************

            Population analysis using the SCF density.

 **********************************************************************

 Orbital symmetries:
       Occupied  (A) (A) (A) (A) (A) (A) (A) (A) (A)
       Virtual   (A) (A) (A) (A) (A) (A) (A) (A) (A) (A) (A) (A)
                 (A) (A) (A) (A) (A) (A) (A) (A) (A) (A) (A) (A)
                 (A) (A) (A) (A) (A) (A) (A) (A) (A) (A) (A) (A)
                 (A) (A) (A) (A) (A) (A) (A) (A) (A) (A) (A) (A)
                 (A) (A) (A) (A) (A) (A) (A) (A) (A) (A) (A) (A)
                 (A) (A) (A) (A) (A) (A) (A) (A) (A) (A) (A) (A)
                 (A) (A) (A) (A) (A) (A) (A) (A) (A) (A) (A) (A)
                 (A) (A) (A) (A) (A) (A) (A) (A) (A) (A) (A) (A)
                 (A) (A) (A) (A) (A) (A) (A) (A) (A) (A) (A) (A)
                 (A) (A) (A) (A) (A) (A) (A) (A) (A) (A) (A) (A)
                 (A) (A) (A) (A) (A) (A) (A) (A) (A) (A) (A) (A)
                 (A) (A) (A) (A) (A) (A) (A) (A) (A) (A) (A) (A)
                 (A) (A) (A) (A) (A) (A) (A) (A) (A) (A) (A) (A)
                 (A) (A) (A) (A) (A) (A) (A) (A) (A) (A) (A) (A)
                 (A) (A) (A) (A) (A) (A) (A) (A) (A) (A) (A) (A)
                 (A) (A) (A) (A) (A) (A) (A) (A)
 The electronic state is 1-A.
 Alpha  occ. eigenvalues --  -19.48501 -19.48471  -1.46272  -1.21591  -0.75490
 Alpha  occ. eigenvalues --   -0.72455  -0.64031  -0.54162  -0.50659
 Alpha virt. eigenvalues --    0.02323   0.03402   0.07018   0.08360   0.10075
 Alpha virt. eigenvalues --    0.10555   0.11890   0.13527   0.16267   0.16648
 Alpha virt. eigenvalues --    0.18243   0.19797   0.22466   0.23640   0.25077
 Alpha virt. eigenvalues --    0.26251   0.30095   0.30942   0.32134   0.32745
 Alpha virt. eigenvalues --    0.33719   0.37503   0.37988   0.40520   0.41556
 Alpha virt. eigenvalues --    0.42610   0.43975   0.47726   0.48276   0.49533
 Alpha virt. eigenvalues --    0.54606   0.57286   0.61404   0.64237   0.69347
 Alpha virt. eigenvalues --    0.73340   0.74942   0.76358   0.78713   0.79675
 Alpha virt. eigenvalues --    0.81736   0.83155   0.89076   0.90460   0.91425
 Alpha virt. eigenvalues --    0.92401   0.93869   0.97007   0.98832   0.99657
 Alpha virt. eigenvalues --    1.00740   1.03735   1.06547   1.10124   1.12757
 Alpha virt. eigenvalues --    1.13991   1.15661   1.18299   1.24574   1.26604
 Alpha virt. eigenvalues --    1.27997   1.29452   1.31637   1.32766   1.33376
 Alpha virt. eigenvalues --    1.33973   1.36144   1.37705   1.39392   1.40970
 Alpha virt. eigenvalues --    1.46028   1.51876   1.54421   1.56901   1.59369
 Alpha virt. eigenvalues --    1.62354   1.67405   1.68849   1.73629   1.84199
 Alpha virt. eigenvalues --    1.87843   1.93421   1.98288   2.05231   2.11186
 Alpha virt. eigenvalues --    2.17377   2.22335   2.25255   2.27966   2.32006
 Alpha virt. eigenvalues --    2.37651   2.41019   2.42787   2.46954   2.54009
 Alpha virt. eigenvalues --    2.54930   2.61429   2.64418   2.72913   2.76307
 Alpha virt. eigenvalues --    2.76430   2.84566   2.97081   2.98739   3.01568
 Alpha virt. eigenvalues --    3.18002   3.21758   3.24237   3.25771   3.31651
 Alpha virt. eigenvalues --    3.43418   3.56277   3.75467   3.77415   3.78321
 Alpha virt. eigenvalues --    3.79445   3.81898   3.82369   3.82822   3.86386
 Alpha virt. eigenvalues --    3.88542   3.91718   3.95236   3.98452   3.99804
 Alpha virt. eigenvalues --    4.07151   4.11955   4.17137   4.21672   4.26222
 Alpha virt. eigenvalues --    4.31358   4.37773   4.38398   4.41484   4.45897
 Alpha virt. eigenvalues --    4.59447   4.67067   4.72465   4.87011   5.07009
 Alpha virt. eigenvalues --    5.14390   5.22974   5.30143   5.31062   5.41442
 Alpha virt. eigenvalues --    5.65946   6.05509   6.28679   6.34253   6.36034
 Alpha virt. eigenvalues --    6.55175   6.58962   6.67453   6.79568   6.84232
 Alpha virt. eigenvalues --    7.03741   7.04131   7.07478   7.09426   7.13252
 Alpha virt. eigenvalues --    7.13556   7.14377   7.22515   7.27433   7.31690
 Alpha virt. eigenvalues --    7.43502   7.50155   7.68279   7.98434   8.05979
 Alpha virt. eigenvalues --    8.33460   8.36881  10.89686  14.17651  14.82969
 Alpha virt. eigenvalues --   14.83177  14.90002  15.11000  29.02863  29.03242
 Alpha virt. eigenvalues --   29.07754  29.13390  29.22823  49.10549 148.31163
 Alpha virt. eigenvalues --  148.37995 148.70336 752.51432
          Condensed to atoms (all electrons):
              1          2          3          4          5
     1  O    8.194313  -0.161607   0.202637  -0.011314   0.000488
     2  O   -0.161607   8.212337   0.003936   0.198663  -0.001339
     3  H    0.202637   0.003936   0.562824   0.005024  -0.000968
     4  H   -0.011314   0.198663   0.005024   0.564332  -0.003193
     5  Kr   0.000488  -0.001339  -0.000968  -0.003193   0.001539
 Mulliken atomic charges:
              1
     1  O   -0.224517
     2  O   -0.251990
     3  H    0.226546
     4  H    0.246488
     5  Kr   0.003473
 Sum of Mulliken atomic charges =   0.00000
 Mulliken charges with hydrogens summed into heavy atoms:
              1
     1  O    0.002029
     2  O   -0.005502
     5  Kr   0.003473
 Sum of Mulliken charges with hydrogens summed into heavy atoms =   0.00000
          Condensed to fragments (all electrons):
     1      -0.003473
     2       0.003473
 Electronic spatial extent (au):  <R**2>=            322.1716
 Charge=              0.0000 electrons
 Dipole moment (field-independent basis, Debye):
    X=              0.8385    Y=             -0.1317    Z=              1.5096  Tot=              1.7318
 Quadrupole moment (field-independent basis, Debye-Ang):
   XX=            -13.1750   YY=            -10.2018   ZZ=            -11.5665
   XY=              3.6129   XZ=             -3.8251   YZ=             -1.6546
 Traceless Quadrupole moment (field-independent basis, Debye-Ang):
   XX=             -1.5273   YY=              1.4459   ZZ=              0.0813
   XY=              3.6129   XZ=             -3.8251   YZ=             -1.6546
 Octapole moment (field-independent basis, Debye-Ang**2):
  XXX=             70.2768  YYY=             -1.4442  ZZZ=              1.3305  XYY=             21.3251
  XXY=            -12.6073  XXZ=              9.9958  XZZ=             22.5096  YZZ=             -1.6366
  YYZ=              2.1247  XYZ=              4.3469
 Hexadecapole moment (field-independent basis, Debye-Ang**3):
 XXXX=           -282.7016 YYYY=            -43.8203 ZZZZ=            -10.6973 XXXY=             33.8612
 XXXZ=            -26.1335 YYYX=              5.3200 YYYZ=             -2.3058 ZZZX=             -2.9343
 ZZZY=             -1.5546 XXYY=            -52.4383 XXZZ=            -47.3516 YYZZ=             -9.7709
 XXYZ=            -11.3798 YYXZ=             -5.0357 ZZXY=              3.1969
 N-N= 3.661233902771D+01 E-N=-4.315441445031D+02  KE= 1.502633446284D+02
 No NMR shielding tensors so no spin-rotation constants.
 Leave Link  601 at Mon May 11 19:48:20 2020, MaxMem= 1073741824 cpu:       0.7
 (Enter /home/matheus/.gaussian/g09/l122.exe)
 Counterpoise: doing DCBS calculation for fragment   2 NewBq=T
 Leave Link  122 at Mon May 11 19:48:20 2020, MaxMem= 1073741824 cpu:       0.0
 (Enter /home/matheus/.gaussian/g09/l301.exe)
 Basis read from rwf:  (5D, 7F)
 No pseudopotential information found on rwf file.
 There are   197 symmetry adapted basis functions of A   symmetry.
 Integral buffers will be    131072 words long.
 Raffenetti 2 integral format.
 Two-electron integral symmetry is turned on.
   197 basis functions,   415 primitive gaussians,   229 cartesian basis functions
    18 alpha electrons       18 beta electrons
       nuclear repulsion energy         0.0000000000 Hartrees.
 IExCor=10402 DFT=T Ex=LC-B+HF Corr=LYP ExCW=0 ScaHFX=  1.000000
 ScaDFX=  1.000000  1.000000  1.000000  1.000000 ScalE2=  1.000000  1.000000
 IRadAn=      5 IRanWt=     -1 IRanGd=            0 ICorTp=0
  HFx wShort=  0.000000 wLong=  1.350000 cFull=  0.000000 cShort=  0.000000 cLong=  1.000000
  DFx wShort=  0.000000 wLong=  1.350000 cFull=  0.000000 cShort=  0.000000 cLong=  1.000000
 NAtoms=    5 NActive=    5 NUniq=    5 SFac= 1.00D+00 NAtFMM=   60 NAOKFM=F Big=F
 No density basis found on file   718.
 Leave Link  301 at Mon May 11 19:48:20 2020, MaxMem= 1073741824 cpu:       0.2
 (Enter /home/matheus/.gaussian/g09/l302.exe)
 NPDir=0 NMtPBC=     1 NCelOv=     1 NCel=       1 NClECP=     1 NCelD=      1
         NCelK=      1 NCelE2=     1 NClLst=     1 CellRange=     0.0.
 One-electron integrals computed using PRISM.
 NBasis=   197 RedAO= T  NBF=   197
 NBsUse=   197 1.00D-06 NBFU=   197
 Precomputing XC quadrature grid using
 IXCGrd= 2 IRadAn=           5 IRanWt=          -1 IRanGd=           0 AccXCQ= 0.00D+00.
 NRdTot=     427 NPtTot=      123512 NUsed=      126579 NTot=      126611
 NSgBfM=   229   229   229   229   229 NAtAll=     5     5.
 Leave Link  302 at Mon May 11 19:48:20 2020, MaxMem= 1073741824 cpu:       0.9
 (Enter /home/matheus/.gaussian/g09/l303.exe)
 DipDrv:  MaxL=1.
 Leave Link  303 at Mon May 11 19:48:20 2020, MaxMem= 1073741824 cpu:       0.2
 (Enter /home/matheus/.gaussian/g09/l401.exe)
 Harris functional with IExCor=10402 diagonalized for initial guess.
 ExpMin= 2.53D-02 ExpMax= 1.17D+07 ExpMxC= 1.33D+04 IAcc=3 IRadAn=         5 AccDes= 0.00D+00
 HarFok:  IExCor=10402 AccDes= 0.00D+00 IRadAn=         5 IDoV= 1
 ScaDFX=  1.000000  1.000000  1.000000  1.000000
 FoFCou: FMM=F IPFlag=           0 FMFlag=      100000 FMFlg1=           0
         NFxFlg=           0 DoJE=T BraDBF=F KetDBF=T FulRan=T
         Omega=  0.000000  0.000000  1.000000  0.000000  0.000000 ICntrl=     500 IOpCl=  0
         NMat0=    1 NMatS0=    1 NMatT0=    0 NMatD0=    1 NMtDS0=    0 NMtDT0=    0
         I1Cent=           4 NGrid=           0.
 Petite list used in FoFCou.
 Harris En= -2731.73456373278    
 Initial guess orbital symmetries:
       Occupied  (A) (A) (A) (A) (A) (A) (A) (A) (A) (A) (A) (A)
                 (A) (A) (A) (A) (A) (A)
       Virtual   (A) (A) (A) (A) (A) (A) (A) (A) (A) (A) (A) (A)
                 (A) (A) (A) (A) (A) (A) (A) (A) (A) (A) (A) (A)
                 (A) (A) (A) (A) (A) (A) (A) (A) (A) (A) (A) (A)
                 (A) (A) (A) (A) (A) (A) (A) (A) (A) (A) (A) (A)
                 (A) (A) (A) (A) (A) (A) (A) (A) (A) (A) (A) (A)
                 (A) (A) (A) (A) (A) (A) (A) (A) (A) (A) (A) (A)
                 (A) (A) (A) (A) (A) (A) (A) (A) (A) (A) (A) (A)
                 (A) (A) (A) (A) (A) (A) (A) (A) (A) (A) (A) (A)
                 (A) (A) (A) (A) (A) (A) (A) (A) (A) (A) (A) (A)
                 (A) (A) (A) (A) (A) (A) (A) (A) (A) (A) (A) (A)
                 (A) (A) (A) (A) (A) (A) (A) (A) (A) (A) (A) (A)
                 (A) (A) (A) (A) (A) (A) (A) (A) (A) (A) (A) (A)
                 (A) (A) (A) (A) (A) (A) (A) (A) (A) (A) (A) (A)
                 (A) (A) (A) (A) (A) (A) (A) (A) (A) (A) (A) (A)
                 (A) (A) (A) (A) (A) (A) (A) (A) (A) (A) (A)
 The electronic state of the initial guess is 1-A.
 Leave Link  401 at Mon May 11 19:48:21 2020, MaxMem= 1073741824 cpu:       3.9
 (Enter /home/matheus/.gaussian/g09/l502.exe)
 Closed shell SCF:
 Requested convergence on RMS density matrix=1.00D-08 within 128 cycles.
 Requested convergence on MAX density matrix=1.00D-06.
 Requested convergence on             energy=1.00D-06.
 No special actions if energy rises.
 Using DIIS extrapolation, IDIIS=  1040.
 Integral symmetry usage will be decided dynamically.
       126521 words used for storage of precomputed grid.
 IEnd=      305468 IEndB=      305468 NGot=  1073741824 MDV=  1073505667
 LenX=  1073505667 LenY=  1073452785
 Fock matrices will be formed incrementally for  20 cycles.

 Cycle   1  Pass 1  IDiag  1:
 FoFJK:  IHMeth= 1 ICntrl=     0 DoSepK=T KAlg= 1 I1Cent= 0 FoldK=F
 FoFCou: FMM=F IPFlag=           0 FMFlag=      100000 FMFlg1=           0
         NFxFlg=           0 DoJE=T BraDBF=F KetDBF=F FulRan=T
         Omega=  0.000000  0.000000  1.000000  0.000000  0.000000 ICntrl=     500 IOpCl=  0
         NMat0=    1 NMatS0=    1 NMatT0=    0 NMatD0=    1 NMtDS0=    0 NMtDT0=    0
         I1Cent=           0 NGrid=           0.
 Symmetry not used in FoFCou.
 E= -2752.71013571912    
 DIIS: error= 4.33D-02 at cycle   1 NSaved=   1.
 NSaved= 1 IEnMin= 1 EnMin= -2752.71013571912     IErMin= 1 ErrMin= 4.33D-02
 ErrMax= 4.33D-02 EMaxC= 1.00D-01 BMatC= 1.18D+00 BMatP= 1.18D+00
 IDIUse=3 WtCom= 5.67D-01 WtEn= 4.33D-01
 Coeff-Com:  0.100D+01
 Coeff-En:   0.100D+01
 Coeff:      0.100D+01
 Gap=     0.767 Goal=   None    Shift=    0.000
 GapD=    0.767 DampG=2.000 DampE=0.500 DampFc=1.0000 IDamp=-1.
 RMSDP=4.97D-03 MaxDP=2.25D-01              OVMax= 3.37D-01

 Cycle   2  Pass 1  IDiag  1:
 RMSU=  3.43D-03    CP:  1.05D+00
 FoFJK:  IHMeth= 1 ICntrl=     0 DoSepK=T KAlg= 1 I1Cent= 0 FoldK=F
 E= -2753.27696139145     Delta-E=       -0.566825672333 Rises=F Damp=F
 DIIS: error= 2.67D-02 at cycle   2 NSaved=   2.
 NSaved= 2 IEnMin= 2 EnMin= -2753.27696139145     IErMin= 2 ErrMin= 2.67D-02
 ErrMax= 2.67D-02 EMaxC= 1.00D-01 BMatC= 3.64D-01 BMatP= 1.18D+00
 IDIUse=3 WtCom= 7.33D-01 WtEn= 2.67D-01
 Coeff-Com:  0.351D+00 0.649D+00
 Coeff-En:   0.000D+00 0.100D+01
 Coeff:      0.257D+00 0.743D+00
 Gap=     0.605 Goal=   None    Shift=    0.000
 RMSDP=2.20D-03 MaxDP=1.32D-01 DE=-5.67D-01 OVMax= 7.31D-02

 Cycle   3  Pass 1  IDiag  1:
 RMSU=  8.56D-04    CP:  1.03D+00  6.31D-01
 FoFJK:  IHMeth= 1 ICntrl=     0 DoSepK=T KAlg= 1 I1Cent= 0 FoldK=F
 E= -2753.40764326932     Delta-E=       -0.130681877866 Rises=F Damp=F
 DIIS: error= 3.33D-03 at cycle   3 NSaved=   3.
 NSaved= 3 IEnMin= 3 EnMin= -2753.40764326932     IErMin= 3 ErrMin= 3.33D-03
 ErrMax= 3.33D-03 EMaxC= 1.00D-01 BMatC= 5.79D-03 BMatP= 3.64D-01
 IDIUse=3 WtCom= 9.67D-01 WtEn= 3.33D-02
 Coeff-Com: -0.923D-02 0.860D-01 0.923D+00
 Coeff-En:   0.000D+00 0.000D+00 0.100D+01
 Coeff:     -0.893D-02 0.832D-01 0.926D+00
 Gap=     0.574 Goal=   None    Shift=    0.000
 RMSDP=3.50D-04 MaxDP=1.52D-02 DE=-1.31D-01 OVMax= 1.06D-02

 Cycle   4  Pass 1  IDiag  1:
 RMSU=  2.28D-04    CP:  1.03D+00  6.58D-01  9.84D-01
 FoFJK:  IHMeth= 1 ICntrl=     0 DoSepK=T KAlg= 1 I1Cent= 0 FoldK=F
 E= -2753.40945829091     Delta-E=       -0.001815021590 Rises=F Damp=F
 DIIS: error= 2.87D-04 at cycle   4 NSaved=   4.
 NSaved= 4 IEnMin= 4 EnMin= -2753.40945829091     IErMin= 4 ErrMin= 2.87D-04
 ErrMax= 2.87D-04 EMaxC= 1.00D-01 BMatC= 3.60D-05 BMatP= 5.79D-03
 IDIUse=3 WtCom= 9.97D-01 WtEn= 2.87D-03
 Coeff-Com: -0.670D-02-0.431D-02-0.184D-02 0.101D+01
 Coeff-En:   0.000D+00 0.000D+00 0.000D+00 0.100D+01
 Coeff:     -0.668D-02-0.430D-02-0.183D-02 0.101D+01
 Gap=     0.580 Goal=   None    Shift=    0.000
 RMSDP=5.03D-05 MaxDP=2.24D-03 DE=-1.82D-03 OVMax= 3.46D-03

 Cycle   5  Pass 1  IDiag  1:
 RMSU=  2.05D-05    CP:  1.03D+00  6.61D-01  1.01D+00  1.08D+00
 FoFJK:  IHMeth= 1 ICntrl=     0 DoSepK=T KAlg= 1 I1Cent= 0 FoldK=F
 E= -2753.40951853984     Delta-E=       -0.000060248927 Rises=F Damp=F
 DIIS: error= 4.29D-05 at cycle   5 NSaved=   5.
 NSaved= 5 IEnMin= 5 EnMin= -2753.40951853984     IErMin= 5 ErrMin= 4.29D-05
 ErrMax= 4.29D-05 EMaxC= 1.00D-01 BMatC= 4.94D-07 BMatP= 3.60D-05
 IDIUse=1 WtCom= 1.00D+00 WtEn= 0.00D+00
 Coeff-Com: -0.805D-04-0.146D-02 0.120D-02-0.168D+00 0.117D+01
 Coeff:     -0.805D-04-0.146D-02 0.120D-02-0.168D+00 0.117D+01
 Gap=     0.580 Goal=   None    Shift=    0.000
 RMSDP=1.07D-05 MaxDP=4.40D-04 DE=-6.02D-05 OVMax= 6.34D-04

 Cycle   6  Pass 1  IDiag  1:
 RMSU=  9.78D-07    CP:  1.03D+00  6.61D-01  1.01D+00  1.10D+00  1.20D+00
 FoFJK:  IHMeth= 1 ICntrl=     0 DoSepK=T KAlg= 1 I1Cent= 0 FoldK=F
 E= -2753.40951994836     Delta-E=       -0.000001408521 Rises=F Damp=F
 DIIS: error= 1.86D-06 at cycle   6 NSaved=   6.
 NSaved= 6 IEnMin= 6 EnMin= -2753.40951994836     IErMin= 6 ErrMin= 1.86D-06
 ErrMax= 1.86D-06 EMaxC= 1.00D-01 BMatC= 9.74D-10 BMatP= 4.94D-07
 IDIUse=1 WtCom= 1.00D+00 WtEn= 0.00D+00
 Coeff-Com:  0.237D-04 0.113D-03-0.373D-03 0.120D-01-0.113D+00 0.110D+01
 Coeff:      0.237D-04 0.113D-03-0.373D-03 0.120D-01-0.113D+00 0.110D+01
 Gap=     0.580 Goal=   None    Shift=    0.000
 RMSDP=5.25D-07 MaxDP=2.32D-05 DE=-1.41D-06 OVMax= 2.32D-05

 Cycle   7  Pass 1  IDiag  1:
 RMSU=  6.01D-08    CP:  1.03D+00  6.61D-01  1.01D+00  1.10D+00  1.21D+00
                    CP:  1.13D+00
 FoFJK:  IHMeth= 1 ICntrl=     0 DoSepK=T KAlg= 1 I1Cent= 0 FoldK=F
 E= -2753.40951994909     Delta-E=       -0.000000000736 Rises=F Damp=F
 DIIS: error= 1.26D-07 at cycle   7 NSaved=   7.
 NSaved= 7 IEnMin= 7 EnMin= -2753.40951994909     IErMin= 7 ErrMin= 1.26D-07
 ErrMax= 1.26D-07 EMaxC= 1.00D-01 BMatC= 1.04D-11 BMatP= 9.74D-10
 IDIUse=1 WtCom= 1.00D+00 WtEn= 0.00D+00
 Coeff-Com:  0.260D-05 0.404D-05-0.330D-04 0.612D-03-0.281D-02-0.184D-01
 Coeff-Com:  0.102D+01
 Coeff:      0.260D-05 0.404D-05-0.330D-04 0.612D-03-0.281D-02-0.184D-01
 Coeff:      0.102D+01
 Gap=     0.580 Goal=   None    Shift=    0.000
 RMSDP=2.23D-08 MaxDP=1.01D-06 DE=-7.36D-10 OVMax= 1.28D-06

 Cycle   8  Pass 1  IDiag  1:
 RMSU=  9.06D-09    CP:  1.03D+00  6.61D-01  1.01D+00  1.10D+00  1.21D+00
                    CP:  1.14D+00  1.13D+00
 FoFJK:  IHMeth= 1 ICntrl=     0 DoSepK=T KAlg= 1 I1Cent= 0 FoldK=F
 E= -2753.40951994917     Delta-E=       -0.000000000072 Rises=F Damp=F
 DIIS: error= 3.97D-08 at cycle   8 NSaved=   8.
 NSaved= 8 IEnMin= 8 EnMin= -2753.40951994917     IErMin= 8 ErrMin= 3.97D-08
 ErrMax= 3.97D-08 EMaxC= 1.00D-01 BMatC= 4.09D-13 BMatP= 1.04D-11
 IDIUse=1 WtCom= 1.00D+00 WtEn= 0.00D+00
 Coeff-Com:  0.710D-07-0.197D-05 0.276D-05-0.206D-03 0.230D-02-0.275D-01
 Coeff-Com:  0.112D+00 0.913D+00
 Coeff:      0.710D-07-0.197D-05 0.276D-05-0.206D-03 0.230D-02-0.275D-01
 Coeff:      0.112D+00 0.913D+00
 Gap=     0.580 Goal=   None    Shift=    0.000
 RMSDP=4.52D-09 MaxDP=1.43D-07 DE=-7.19D-11 OVMax= 3.38D-07

 SCF Done:  E(RLC-B+HF-LYP) =  -2753.40951995     A.U. after    8 cycles
             Convg  =    0.4521D-08             -V/T =  2.0014
 KE= 2.749635202666D+03 PE=-6.579422730798D+03 EE= 1.076378008183D+03
 Leave Link  502 at Mon May 11 19:48:46 2020, MaxMem= 1073741824 cpu:     203.5
 (Enter /home/matheus/.gaussian/g09/l601.exe)
 Copying SCF densities to generalized density rwf, IOpCl= 0 IROHF=0.

 **********************************************************************

            Population analysis using the SCF density.

 **********************************************************************

 Orbital symmetries:
       Occupied  (A) (A) (A) (A) (A) (A) (A) (A) (A) (A) (A) (A)
                 (A) (A) (A) (A) (A) (A)
       Virtual   (A) (A) (A) (A) (A) (A) (A) (A) (A) (A) (A) (A)
                 (A) (A) (A) (A) (A) (A) (A) (A) (A) (A) (A) (A)
                 (A) (A) (A) (A) (A) (A) (A) (A) (A) (A) (A) (A)
                 (A) (A) (A) (A) (A) (A) (A) (A) (A) (A) (A) (A)
                 (A) (A) (A) (A) (A) (A) (A) (A) (A) (A) (A) (A)
                 (A) (A) (A) (A) (A) (A) (A) (A) (A) (A) (A) (A)
                 (A) (A) (A) (A) (A) (A) (A) (A) (A) (A) (A) (A)
                 (A) (A) (A) (A) (A) (A) (A) (A) (A) (A) (A) (A)
                 (A) (A) (A) (A) (A) (A) (A) (A) (A) (A) (A) (A)
                 (A) (A) (A) (A) (A) (A) (A) (A) (A) (A) (A) (A)
                 (A) (A) (A) (A) (A) (A) (A) (A) (A) (A) (A) (A)
                 (A) (A) (A) (A) (A) (A) (A) (A) (A) (A) (A) (A)
                 (A) (A) (A) (A) (A) (A) (A) (A) (A) (A) (A) (A)
                 (A) (A) (A) (A) (A) (A) (A) (A) (A) (A) (A) (A)
                 (A) (A) (A) (A) (A) (A) (A) (A) (A) (A) (A)
 The electronic state is 1-A.
 Alpha  occ. eigenvalues -- -511.65510 -67.17993 -60.85190 -60.85186 -60.85186
 Alpha  occ. eigenvalues --  -10.08108  -7.79671  -7.79670  -7.79669  -3.62634
 Alpha  occ. eigenvalues --   -3.62633  -3.62633  -3.62632  -3.62632  -1.17384
 Alpha  occ. eigenvalues --   -0.55371  -0.55367  -0.55365
 Alpha virt. eigenvalues --    0.02634   0.04707   0.07868   0.08811   0.10796
 Alpha virt. eigenvalues --    0.11703   0.12808   0.13483   0.16006   0.16726
 Alpha virt. eigenvalues --    0.17399   0.19342   0.20391   0.25435   0.27022
 Alpha virt. eigenvalues --    0.27555   0.28211   0.31221   0.33561   0.34777
 Alpha virt. eigenvalues --    0.36311   0.37322   0.38177   0.39087   0.41402
 Alpha virt. eigenvalues --    0.41672   0.43089   0.54469   0.54914   0.58303
 Alpha virt. eigenvalues --    0.59733   0.65983   0.67354   0.70328   0.72873
 Alpha virt. eigenvalues --    0.75090   0.76850   0.78170   0.79618   0.80838
 Alpha virt. eigenvalues --    0.82657   0.82927   0.84988   0.86624   0.86692
 Alpha virt. eigenvalues --    0.88997   0.89298   0.90487   0.92115   0.96815
 Alpha virt. eigenvalues --    0.97252   0.99824   1.00588   1.03869   1.04213
 Alpha virt. eigenvalues --    1.06436   1.09865   1.10575   1.13728   1.14786
 Alpha virt. eigenvalues --    1.17848   1.22654   1.24805   1.25666   1.28879
 Alpha virt. eigenvalues --    1.35642   1.36482   1.40526   1.46811   1.48815
 Alpha virt. eigenvalues --    1.54701   1.58592   1.62824   1.73080   1.78234
 Alpha virt. eigenvalues --    1.78559   1.83591   1.88162   1.95859   2.25024
 Alpha virt. eigenvalues --    2.29186   2.29727   2.33462   2.33744   2.37144
 Alpha virt. eigenvalues --    2.41523   2.42562   2.44632   2.46251   2.47090
 Alpha virt. eigenvalues --    2.47822   2.49709   2.52969   2.55009   2.56586
 Alpha virt. eigenvalues --    2.58038   2.60840   2.62143   2.63947   2.65827
 Alpha virt. eigenvalues --    2.66480   2.69420   2.70597   2.75254   2.76796
 Alpha virt. eigenvalues --    2.80017   2.83932   2.88043   2.88838   2.91972
 Alpha virt. eigenvalues --    2.96123   3.00716   3.04827   3.12808   3.20630
 Alpha virt. eigenvalues --    3.22377   3.26044   3.31305   3.34589   3.49816
 Alpha virt. eigenvalues --    3.60779   3.65395   3.81934   3.86507   4.03245
 Alpha virt. eigenvalues --    4.42827   4.45250   4.52092   4.58806   4.67429
 Alpha virt. eigenvalues --    4.71876   4.86807   4.88296   4.93844   5.01310
 Alpha virt. eigenvalues --    5.16413   5.17914   5.57821   5.64613   5.74611
 Alpha virt. eigenvalues --    5.92211   6.00804   6.17920   6.73429   6.89018
 Alpha virt. eigenvalues --    7.36181   7.40095   7.60746   7.63926   7.71574
 Alpha virt. eigenvalues --    7.87707   7.91313   8.10287   8.16635   8.20860
 Alpha virt. eigenvalues --    8.38879   8.43535   8.59685   8.86592   9.63342
 Alpha virt. eigenvalues --    9.72709   9.82528   9.88340   9.93229  10.00402
 Alpha virt. eigenvalues --   10.14562  10.29623  10.40327  10.95791  11.50801
 Alpha virt. eigenvalues --   11.64419  11.70928  12.03941  12.09340  13.26214
 Alpha virt. eigenvalues --   13.60283  14.52875  62.69826  64.63755
          Condensed to atoms (all electrons):
              1          2          3          4          5
     1  O    0.003931  -0.002664  -0.002547   0.001677  -0.011620
     2  O   -0.002664   0.006652   0.000893  -0.004316  -0.001365
     3  H   -0.002547   0.000893   0.002041  -0.000580   0.003907
     4  H    0.001677  -0.004316  -0.000580   0.004153  -0.022303
     5  Kr  -0.011620  -0.001365   0.003907  -0.022303  36.061059
 Mulliken atomic charges:
              1
     1  O    0.011224
     2  O    0.000800
     3  H   -0.003715
     4  H    0.021369
     5  Kr  -0.029678
 Sum of Mulliken atomic charges =   0.00000
 Mulliken charges with hydrogens summed into heavy atoms:
              1
     1  O    0.007509
     2  O    0.022169
     5  Kr  -0.029678
 Sum of Mulliken charges with hydrogens summed into heavy atoms =   0.00000
          Condensed to fragments (all electrons):
     1       0.029678
     2      -0.029678
 Electronic spatial extent (au):  <R**2>=            165.6033
 Charge=              0.0000 electrons
 Dipole moment (field-independent basis, Debye):
    X=             -0.0014    Y=              0.0007    Z=              0.0001  Tot=              0.0016
 Quadrupole moment (field-independent basis, Debye-Ang):
   XX=            -17.5635   YY=            -17.5737   ZZ=            -17.5813
   XY=             -0.0046   XZ=              0.0001   YZ=              0.0004
 Traceless Quadrupole moment (field-independent basis, Debye-Ang):
   XX=              0.0093   YY=             -0.0009   ZZ=             -0.0084
   XY=             -0.0046   XZ=              0.0001   YZ=              0.0004
 Octapole moment (field-independent basis, Debye-Ang**2):
  XXX=            -52.2410  YYY=              0.7841  ZZZ=             -0.1289  XYY=            -17.4262
  XXY=              0.2517  XXZ=             -0.0435  XZZ=            -17.4306  YZZ=              0.2624
  YYZ=             -0.0426  XYZ=              0.0002
 Hexadecapole moment (field-independent basis, Debye-Ang**3):
 XXXX=           -121.6443 YYYY=            -18.0985 ZZZZ=            -18.1051 XXXY=              0.7545
 XXXZ=             -0.1290 YYYX=              0.7621 YYYZ=              0.0017 ZZZX=             -0.1284
[...]
 E= -2753.40937595660     Delta-E=       -0.000000008317 Rises=F Damp=F
 DIIS: error= 6.35D-07 at cycle   3 NSaved=   3.
 NSaved= 3 IEnMin= 3 EnMin= -2753.40937595660     IErMin= 3 ErrMin= 6.35D-07
 ErrMax= 6.35D-07 EMaxC= 1.00D-01 BMatC= 1.03D-10 BMatP= 4.50D-09
 IDIUse=1 WtCom= 1.00D+00 WtEn= 0.00D+00
 Coeff-Com:  0.505D-03-0.141D+00 0.114D+01
 Coeff:      0.505D-03-0.141D+00 0.114D+01
 Gap=     0.580 Goal=   None    Shift=    0.000
 RMSDP=2.36D-07 MaxDP=8.95D-06 DE=-8.32D-09 OVMax= 1.01D-05

 Cycle   4  Pass 1  IDiag  1:
 RMSU=  5.49D-08    CP:  1.00D+00  1.10D+00  1.17D+00
 FoFJK:  IHMeth= 1 ICntrl=     0 DoSepK=T KAlg= 1 I1Cent= 0 FoldK=F
 E= -2753.40937595692     Delta-E=       -0.000000000322 Rises=F Damp=F
 DIIS: error= 1.75D-07 at cycle   4 NSaved=   4.
 NSaved= 4 IEnMin= 4 EnMin= -2753.40937595692     IErMin= 4 ErrMin= 1.75D-07
 ErrMax= 1.75D-07 EMaxC= 1.00D-01 BMatC= 3.83D-12 BMatP= 1.03D-10
 IDIUse=1 WtCom= 1.00D+00 WtEn= 0.00D+00
 Coeff-Com:  0.151D-03-0.277D-01 0.150D+00 0.878D+00
 Coeff:      0.151D-03-0.277D-01 0.150D+00 0.878D+00
 Gap=     0.580 Goal=   None    Shift=    0.000
 RMSDP=1.71D-08 MaxDP=8.54D-07 DE=-3.22D-10 OVMax= 8.28D-07

 Cycle   5  Pass 1  IDiag  1:
 RMSU=  5.78D-09    CP:  1.00D+00  1.10D+00  1.18D+00  1.15D+00
 FoFJK:  IHMeth= 1 ICntrl=     0 DoSepK=T KAlg= 1 I1Cent= 0 FoldK=F
 E= -2753.40937595693     Delta-E=       -0.000000000015 Rises=F Damp=F
 DIIS: error= 4.39D-08 at cycle   5 NSaved=   5.
 NSaved= 5 IEnMin= 5 EnMin= -2753.40937595693     IErMin= 5 ErrMin= 4.39D-08
 ErrMax= 4.39D-08 EMaxC= 1.00D-01 BMatC= 3.15D-13 BMatP= 3.83D-12
 IDIUse=1 WtCom= 1.00D+00 WtEn= 0.00D+00
 Coeff-Com: -0.342D-04 0.948D-02-0.786D-01 0.331D-01 0.104D+01
 Coeff:     -0.342D-04 0.948D-02-0.786D-01 0.331D-01 0.104D+01
 Gap=     0.580 Goal=   None    Shift=    0.000
 RMSDP=6.77D-09 MaxDP=3.77D-07 DE=-1.46D-11 OVMax= 4.29D-07

 SCF Done:  E(RLC-B+HF-LYP) =  -2753.40937596     A.U. after    5 cycles
             Convg  =    0.6773D-08             -V/T =  2.0014
 KE= 2.749687484074D+03 PE=-6.579480316125D+03 EE= 1.076383456095D+03
 Leave Link  502 at Mon May 11 20:12:05 2020, MaxMem= 1073741824 cpu:      87.6
 (Enter /home/matheus/.gaussian/g09/l122.exe)
 Restoring MOs from calculation   4 to rwf.
 Counterpoise: doing MCBS calculation for fragment   1
 Leave Link  122 at Mon May 11 20:12:06 2020, MaxMem= 1073741824 cpu:       0.0
 (Enter /home/matheus/.gaussian/g09/l301.exe)
 Basis read from rwf:  (5D, 7F)
 No pseudopotential information found on rwf file.
 There are   138 symmetry adapted basis functions of A   symmetry.
 Integral buffers will be    131072 words long.
 Raffenetti 2 integral format.
 Two-electron integral symmetry is turned on.
   138 basis functions,   198 primitive gaussians,   160 cartesian basis functions
     9 alpha electrons        9 beta electrons
       nuclear repulsion energy        36.6123390277 Hartrees.
 IExCor=10402 DFT=T Ex=LC-B+HF Corr=LYP ExCW=0 ScaHFX=  1.000000
 ScaDFX=  1.000000  1.000000  1.000000  1.000000 ScalE2=  1.000000  1.000000
 IRadAn=      5 IRanWt=     -1 IRanGd=            0 ICorTp=0
  HFx wShort=  0.000000 wLong=  1.350000 cFull=  0.000000 cShort=  0.000000 cLong=  1.000000
  DFx wShort=  0.000000 wLong=  1.350000 cFull=  0.000000 cShort=  0.000000 cLong=  1.000000
 NAtoms=    5 NActive=    4 NUniq=    4 SFac= 1.00D+00 NAtFMM=   60 NAOKFM=F Big=F
 No density basis found on file   718.
 Leave Link  301 at Mon May 11 20:12:06 2020, MaxMem= 1073741824 cpu:       0.2
 (Enter /home/matheus/.gaussian/g09/l302.exe)
 NPDir=0 NMtPBC=     1 NCelOv=     1 NCel=       1 NClECP=     1 NCelD=      1
         NCelK=      1 NCelE2=     1 NClLst=     1 CellRange=     0.0.
 One-electron integrals computed using PRISM.
 NBasis=   138 RedAO= T  NBF=   138
 NBsUse=   138 1.00D-06 NBFU=   138
 Precomputing XC quadrature grid using
 IXCGrd= 2 IRadAn=           5 IRanWt=          -1 IRanGd=           0 AccXCQ= 0.00D+00.
 NRdTot=     344 NPtTot=       92556 NUsed=       95038 NTot=       95070
 NSgBfM=   160   160   160   160   160 NAtAll=     4     4.
 Leave Link  302 at Mon May 11 20:12:06 2020, MaxMem= 1073741824 cpu:       0.7
 (Enter /home/matheus/.gaussian/g09/l303.exe)
 DipDrv:  MaxL=1.
 Leave Link  303 at Mon May 11 20:12:06 2020, MaxMem= 1073741824 cpu:       0.1
 (Enter /home/matheus/.gaussian/g09/l401.exe)
 Initial guess read from the read-write file.
 Guess basis will be translated and rotated to current coordinates.
 Initial guess orbital symmetries:
       Occupied  (A) (A) (A) (A) (A) (A) (A) (A) (A)
       Virtual   (A) (A) (A) (A) (A) (A) (A) (A) (A) (A) (A) (A)
                 (A) (A) (A) (A) (A) (A) (A) (A) (A) (A) (A) (A)
                 (A) (A) (A) (A) (A) (A) (A) (A) (A) (A) (A) (A)
                 (A) (A) (A) (A) (A) (A) (A) (A) (A) (A) (A) (A)
                 (A) (A) (A) (A) (A) (A) (A) (A) (A) (A) (A) (A)
                 (A) (A) (A) (A) (A) (A) (A) (A) (A) (A) (A) (A)
                 (A) (A) (A) (A) (A) (A) (A) (A) (A) (A) (A) (A)
                 (A) (A) (A) (A) (A) (A) (A) (A) (A) (A) (A) (A)
                 (A) (A) (A) (A) (A) (A) (A) (A) (A) (A) (A) (A)
                 (A) (A) (A) (A) (A) (A) (A) (A) (A) (A) (A) (A)
                 (A) (A) (A) (A) (A) (A) (A) (A) (A)
 The electronic state of the initial guess is 1-A.
 Generating alternative initial guess.
 Harris functional with IExCor=10402 diagonalized for initial guess.
 ExpMin= 2.53D-02 ExpMax= 1.53D+04 ExpMxC= 5.22D+02 IAcc=3 IRadAn=         5 AccDes= 0.00D+00
 HarFok:  IExCor=10402 AccDes= 0.00D+00 IRadAn=         5 IDoV= 1
 ScaDFX=  1.000000  1.000000  1.000000  1.000000
 FoFCou: FMM=F IPFlag=           0 FMFlag=      100000 FMFlg1=           0
         NFxFlg=           0 DoJE=T BraDBF=F KetDBF=T FulRan=T
         Omega=  0.000000  0.000000  1.000000  0.000000  0.000000 ICntrl=     500 IOpCl=  0
         NMat0=    1 NMatS0=    1 NMatT0=    0 NMatD0=    1 NMtDS0=    0 NMtDT0=    0
         I1Cent=           4 NGrid=           0.
 Petite list used in FoFCou.
 Harris En= -143.235921800271    
 Leave Link  401 at Mon May 11 20:12:06 2020, MaxMem= 1073741824 cpu:       2.4
 (Enter /home/matheus/.gaussian/g09/l502.exe)
 Closed shell SCF:
 Requested convergence on RMS density matrix=1.00D-08 within 128 cycles.
 Requested convergence on MAX density matrix=1.00D-06.
 Requested convergence on             energy=1.00D-06.
 No special actions if energy rises.
 Using DIIS extrapolation, IDIIS=  1040.
 Integral symmetry usage will be decided dynamically.
        94980 words used for storage of precomputed grid.
 IEnd=      192360 IEndB=      192360 NGot=  1073741824 MDV=  1073591865
 LenX=  1073591865 LenY=  1073565824
 Fock matrices will be formed incrementally for  20 cycles.

 Cycle   1  Pass 1  IDiag  1:
 FoFJK:  IHMeth= 1 ICntrl=     0 DoSepK=T KAlg= 1 I1Cent= 0 FoldK=F
 FoFCou: FMM=F IPFlag=           0 FMFlag=      100000 FMFlg1=           0
         NFxFlg=           0 DoJE=T BraDBF=F KetDBF=F FulRan=T
         Omega=  0.000000  0.000000  1.000000  0.000000  0.000000 ICntrl=     500 IOpCl=  0
         NMat0=    1 NMatS0=    1 NMatT0=    0 NMatD0=    1 NMtDS0=    0 NMtDT0=    0
         I1Cent=           0 NGrid=           0.
 Symmetry not used in FoFCou.
 E= -151.213110631316    
 DIIS: error= 1.45D-05 at cycle   1 NSaved=   1.
 NSaved= 1 IEnMin= 1 EnMin= -151.213110631316     IErMin= 1 ErrMin= 1.45D-05
 ErrMax= 1.45D-05 EMaxC= 1.00D-01 BMatC= 4.09D-08 BMatP= 4.09D-08
 IDIUse=1 WtCom= 1.00D+00 WtEn= 0.00D+00
 Coeff-Com:  0.100D+01
 Coeff:      0.100D+01
 Gap=     0.533 Goal=   None    Shift=    0.000
 RMSDP=1.19D-06 MaxDP=2.47D-05              OVMax= 6.13D-05

 Cycle   2  Pass 1  IDiag  1:
 RMSU=  8.39D-07    CP:  1.00D+00
 FoFJK:  IHMeth= 1 ICntrl=     0 DoSepK=T KAlg= 1 I1Cent= 0 FoldK=F
 E= -151.213110673499     Delta-E=       -0.000000042183 Rises=F Damp=F
 DIIS: error= 3.81D-06 at cycle   2 NSaved=   2.
 NSaved= 2 IEnMin= 2 EnMin= -151.213110673499     IErMin= 2 ErrMin= 3.81D-06
 ErrMax= 3.81D-06 EMaxC= 1.00D-01 BMatC= 2.47D-09 BMatP= 4.09D-08
 IDIUse=1 WtCom= 1.00D+00 WtEn= 0.00D+00
 Coeff-Com: -0.206D+00 0.121D+01
 Coeff:     -0.206D+00 0.121D+01
 Gap=     0.533 Goal=   None    Shift=    0.000
 RMSDP=4.20D-07 MaxDP=9.33D-06 DE=-4.22D-08 OVMax= 3.19D-05

 Cycle   3  Pass 1  IDiag  1:
 RMSU=  1.66D-07    CP:  1.00D+00  1.29D+00
 FoFJK:  IHMeth= 1 ICntrl=     0 DoSepK=T KAlg= 1 I1Cent= 0 FoldK=F
 E= -151.213110678715     Delta-E=       -0.000000005217 Rises=F Damp=F
 DIIS: error= 1.25D-06 at cycle   3 NSaved=   3.
 NSaved= 3 IEnMin= 3 EnMin= -151.213110678715     IErMin= 3 ErrMin= 1.25D-06
 ErrMax= 1.25D-06 EMaxC= 1.00D-01 BMatC= 2.61D-10 BMatP= 2.47D-09
 IDIUse=1 WtCom= 1.00D+00 WtEn= 0.00D+00
 Coeff-Com: -0.154D-01-0.806D-01 0.110D+01
 Coeff:     -0.154D-01-0.806D-01 0.110D+01
 Gap=     0.533 Goal=   None    Shift=    0.000
 RMSDP=1.39D-07 MaxDP=3.31D-06 DE=-5.22D-09 OVMax= 1.16D-05

 Cycle   4  Pass 1  IDiag  1:
 RMSU=  5.73D-08    CP:  1.00D+00  1.36D+00  1.36D+00
 FoFJK:  IHMeth= 1 ICntrl=     0 DoSepK=T KAlg= 1 I1Cent= 0 FoldK=F
 E= -151.213110679298     Delta-E=       -0.000000000583 Rises=F Damp=F
 DIIS: error= 6.56D-07 at cycle   4 NSaved=   4.
 NSaved= 4 IEnMin= 4 EnMin= -151.213110679298     IErMin= 4 ErrMin= 6.56D-07
 ErrMax= 6.56D-07 EMaxC= 1.00D-01 BMatC= 1.07D-10 BMatP= 2.61D-10
 IDIUse=1 WtCom= 1.00D+00 WtEn= 0.00D+00
 Coeff-Com:  0.289D-01-0.245D+00 0.441D+00 0.775D+00
 Coeff:      0.289D-01-0.245D+00 0.441D+00 0.775D+00
 Gap=     0.533 Goal=   None    Shift=    0.000
 RMSDP=6.45D-08 MaxDP=1.30D-06 DE=-5.83D-10 OVMax= 4.92D-06

 Cycle   5  Pass 1  IDiag  1:
 RMSU=  2.35D-08    CP:  1.00D+00  1.38D+00  1.57D+00  9.62D-01
 FoFJK:  IHMeth= 1 ICntrl=     0 DoSepK=T KAlg= 1 I1Cent= 0 FoldK=F
 E= -151.213110679453     Delta-E=       -0.000000000155 Rises=F Damp=F
 DIIS: error= 2.18D-07 at cycle   5 NSaved=   5.
 NSaved= 5 IEnMin= 5 EnMin= -151.213110679453     IErMin= 5 ErrMin= 2.18D-07
 ErrMax= 2.18D-07 EMaxC= 1.00D-01 BMatC= 7.47D-12 BMatP= 1.07D-10
 IDIUse=1 WtCom= 1.00D+00 WtEn= 0.00D+00
 Coeff-Com: -0.238D-03 0.293D-01-0.200D+00-0.520D-01 0.122D+01
 Coeff:     -0.238D-03 0.293D-01-0.200D+00-0.520D-01 0.122D+01
 Gap=     0.533 Goal=   None    Shift=    0.000
 RMSDP=3.25D-08 MaxDP=7.23D-07 DE=-1.55D-10 OVMax= 2.93D-06

 Cycle   6  Pass 1  IDiag  1:
 RMSU=  8.23D-09    CP:  1.00D+00  1.38D+00  1.64D+00  1.17D+00  1.49D+00
 FoFJK:  IHMeth= 1 ICntrl=     0 DoSepK=T KAlg= 1 I1Cent= 0 FoldK=F
 E= -151.213110679482     Delta-E=       -0.000000000030 Rises=F Damp=F
 DIIS: error= 8.09D-08 at cycle   6 NSaved=   6.
 NSaved= 6 IEnMin= 6 EnMin= -151.213110679482     IErMin= 6 ErrMin= 8.09D-08
 ErrMax= 8.09D-08 EMaxC= 1.00D-01 BMatC= 7.49D-13 BMatP= 7.47D-12
 IDIUse=1 WtCom= 1.00D+00 WtEn= 0.00D+00
 Coeff-Com: -0.223D-02 0.163D-01-0.202D-02-0.598D-01-0.221D+00 0.127D+01
 Coeff:     -0.223D-02 0.163D-01-0.202D-02-0.598D-01-0.221D+00 0.127D+01
 Gap=     0.533 Goal=   None    Shift=    0.000
 RMSDP=1.25D-08 MaxDP=2.48D-07 DE=-2.96D-11 OVMax= 1.31D-06

 Cycle   7  Pass 1  IDiag  1:
 RMSU=  2.97D-09    CP:  1.00D+00  1.38D+00  1.66D+00  1.21D+00  1.70D+00
                    CP:  1.68D+00
 FoFJK:  IHMeth= 1 ICntrl=     0 DoSepK=T KAlg= 1 I1Cent= 0 FoldK=F
 E= -151.213110679485     Delta-E=       -0.000000000002 Rises=F Damp=F
 DIIS: error= 4.13D-08 at cycle   7 NSaved=   7.
 NSaved= 7 IEnMin= 7 EnMin= -151.213110679485     IErMin= 7 ErrMin= 4.13D-08
 ErrMax= 4.13D-08 EMaxC= 1.00D-01 BMatC= 1.55D-13 BMatP= 7.49D-13
 IDIUse=1 WtCom= 1.00D+00 WtEn= 0.00D+00
 Coeff-Com:  0.236D-03-0.508D-02 0.268D-01 0.105D-01-0.160D+00-0.434D-01
 Coeff-Com:  0.117D+01
 Coeff:      0.236D-03-0.508D-02 0.268D-01 0.105D-01-0.160D+00-0.434D-01
 Coeff:      0.117D+01
 Gap=     0.533 Goal=   None    Shift=    0.000
 RMSDP=5.94D-09 MaxDP=9.18D-08 DE=-2.39D-12 OVMax= 6.35D-07

 SCF Done:  E(RLC-B+HF-LYP) =  -151.213110679     A.U. after    7 cycles
             Convg  =    0.5945D-08             -V/T =  2.0063
 KE= 1.502635516249D+02 PE=-4.315429577814D+02 EE= 9.345395644929D+01
 Leave Link  502 at Mon May 11 20:12:12 2020, MaxMem= 1073741824 cpu:      52.0
 (Enter /home/matheus/.gaussian/g09/l122.exe)
 Restoring MOs from calculation   5 to rwf.
 Counterpoise: doing MCBS calculation for fragment   2
 Leave Link  122 at Mon May 11 20:12:12 2020, MaxMem= 1073741824 cpu:       0.0
 (Enter /home/matheus/.gaussian/g09/l301.exe)
 Basis read from rwf:  (5D, 7F)
 No pseudopotential information found on rwf file.
 There are    59 symmetry adapted basis functions of A   symmetry.
 Integral buffers will be    131072 words long.
 Raffenetti 2 integral format.
 Two-electron integral symmetry is turned on.
    59 basis functions,   217 primitive gaussians,    69 cartesian basis functions
    18 alpha electrons       18 beta electrons
       nuclear repulsion energy         0.0000000000 Hartrees.
 IExCor=10402 DFT=T Ex=LC-B+HF Corr=LYP ExCW=0 ScaHFX=  1.000000
 ScaDFX=  1.000000  1.000000  1.000000  1.000000 ScalE2=  1.000000  1.000000
 IRadAn=      5 IRanWt=     -1 IRanGd=            0 ICorTp=0
  HFx wShort=  0.000000 wLong=  1.350000 cFull=  0.000000 cShort=  0.000000 cLong=  1.000000
  DFx wShort=  0.000000 wLong=  1.350000 cFull=  0.000000 cShort=  0.000000 cLong=  1.000000
 NAtoms=    5 NActive=    1 NUniq=    1 SFac= 1.00D+00 NAtFMM=   60 NAOKFM=F Big=F
 No density basis found on file   718.
 Leave Link  301 at Mon May 11 20:12:13 2020, MaxMem= 1073741824 cpu:       0.2
 (Enter /home/matheus/.gaussian/g09/l302.exe)
 NPDir=0 NMtPBC=     1 NCelOv=     1 NCel=       1 NClECP=     1 NCelD=      1
         NCelK=      1 NCelE2=     1 NClLst=     1 CellRange=     0.0.
 One-electron integrals computed using PRISM.
 NBasis=    59 RedAO= T  NBF=    59
 NBsUse=    59 1.00D-06 NBFU=    59
 Precomputing XC quadrature grid using
 IXCGrd= 2 IRadAn=           5 IRanWt=          -1 IRanGd=           0 AccXCQ= 0.00D+00.
 NRdTot=      81 NPtTot=       30352 NUsed=       30981 NTot=       31013
 NSgBfM=    69    69    69    69    69 NAtAll=     1     1.
 Leave Link  302 at Mon May 11 20:12:13 2020, MaxMem= 1073741824 cpu:       0.7
 (Enter /home/matheus/.gaussian/g09/l303.exe)
 DipDrv:  MaxL=1.
 Leave Link  303 at Mon May 11 20:12:13 2020, MaxMem= 1073741824 cpu:       0.1
 (Enter /home/matheus/.gaussian/g09/l401.exe)
 Initial guess read from the read-write file.
 Guess basis will be translated and rotated to current coordinates.
 Initial guess orbital symmetries:
       Occupied  (A) (A) (A) (A) (A) (A) (A) (A) (A) (A) (A) (A)
                 (A) (A) (A) (A) (A) (A)
       Virtual   (A) (A) (A) (A) (A) (A) (A) (A) (A) (A) (A) (A)
                 (A) (A) (A) (A) (A) (A) (A) (A) (A) (A) (A) (A)
                 (A) (A) (A) (A) (A) (A) (A) (A) (A) (A) (A) (A)
                 (A) (A) (A) (A) (A)
 The electronic state of the initial guess is 1-A.
 Generating alternative initial guess.
 Harris functional with IExCor=10402 diagonalized for initial guess.
 ExpMin= 4.00D-02 ExpMax= 1.17D+07 ExpMxC= 1.33D+04 IAcc=3 IRadAn=         5 AccDes= 0.00D+00
 HarFok:  IExCor=10402 AccDes= 0.00D+00 IRadAn=         5 IDoV= 1
 ScaDFX=  1.000000  1.000000  1.000000  1.000000
 FoFCou: FMM=F IPFlag=           0 FMFlag=      100000 FMFlg1=           0
         NFxFlg=           0 DoJE=T BraDBF=F KetDBF=T FulRan=T
         Omega=  0.000000  0.000000  1.000000  0.000000  0.000000 ICntrl=     500 IOpCl=  0
         NMat0=    1 NMatS0=    1 NMatT0=    0 NMatD0=    1 NMtDS0=    0 NMtDT0=    0
         I1Cent=           4 NGrid=           0.
 Petite list used in FoFCou.
 Harris En= -2731.73388500824    
 Leave Link  401 at Mon May 11 20:12:13 2020, MaxMem= 1073741824 cpu:       1.0
 (Enter /home/matheus/.gaussian/g09/l502.exe)
 Closed shell SCF:
 Requested convergence on RMS density matrix=1.00D-08 within 128 cycles.
 Requested convergence on MAX density matrix=1.00D-06.
 Requested convergence on             energy=1.00D-06.
 No special actions if energy rises.
 Using DIIS extrapolation, IDIIS=  1040.
 Integral symmetry usage will be decided dynamically.
        30923 words used for storage of precomputed grid.
 IEnd=       64406 IEndB=       64406 NGot=  1073741824 MDV=  1073698889
 LenX=  1073698889 LenY=  1073693687
 Fock matrices will be formed incrementally for  20 cycles.

 Cycle   1  Pass 1  IDiag  1:
 FoFJK:  IHMeth= 1 ICntrl=     0 DoSepK=T KAlg= 1 I1Cent= 0 FoldK=F
 FoFCou: FMM=F IPFlag=           0 FMFlag=      100000 FMFlg1=           0
         NFxFlg=           0 DoJE=T BraDBF=F KetDBF=F FulRan=T
         Omega=  0.000000  0.000000  1.000000  0.000000  0.000000 ICntrl=     500 IOpCl=  0
         NMat0=    1 NMatS0=    1 NMatT0=    0 NMatD0=    1 NMtDS0=    0 NMtDT0=    0
         I1Cent=           0 NGrid=           0.
 Symmetry not used in FoFCou.
 E= -2753.40934852740    
 DIIS: error= 2.07D-13 at cycle   1 NSaved=   1.
 NSaved= 1 IEnMin= 1 EnMin= -2753.40934852740     IErMin= 1 ErrMin= 2.07D-13
 ErrMax= 2.07D-13 EMaxC= 1.00D-01 BMatC= 6.92D-25 BMatP= 6.92D-25
 IDIUse=1 WtCom= 1.00D+00 WtEn= 0.00D+00
 Coeff-Com:  0.100D+01
 Coeff:      0.100D+01
 Gap=     0.640 Goal=   None    Shift=    0.000
 RMSDP=5.31D-15 MaxDP=7.63D-14              OVMax= 9.14D-14

 SCF Done:  E(RLC-B+HF-LYP) =  -2753.40934853     A.U. after    1 cycles
             Convg  =    0.5310D-14             -V/T =  2.0014
 KE= 2.749695852517D+03 PE=-6.579489077514D+03 EE= 1.076383876470D+03
 Leave Link  502 at Mon May 11 20:12:14 2020, MaxMem= 1073741824 cpu:      11.1
 (Enter /home/matheus/.gaussian/g09/l122.exe)
 Restoring MOs from calculation   1 to rwf.
 Counterpoise: corrected energy =   -2904.622522559093
 Counterpoise: BSSE energy =       0.000031317677
 Leave Link  122 at Mon May 11 20:12:14 2020, MaxMem= 1073741824 cpu:       0.0
 (Enter /home/matheus/.gaussian/g09/l108.exe)
 Scan completed.

 Summary of the potential surface scan:
   N      R1          SCF    
 ----  ---------  -----------
    1     3.0000  -2753.40935
    2     3.1000  -2753.40935
    3     3.2000  -2753.40935
    4     3.3000  -2753.40935
    5     3.4000  -2753.40935
    6     3.5000  -2753.40935
    7     3.6000  -2753.40935
    8     3.7000  -2753.40935
    9     3.8000  -2753.40935
   10     3.9000  -2753.40935
   11     4.0000  -2753.40935
   12     4.1000  -2753.40935
   13     4.2000  -2753.40935
   14     4.3000  -2753.40935
   15     4.4000  -2753.40935
   16     4.5000  -2753.40935
   17     4.6000  -2753.40935
   18     4.7000  -2753.40935
   19     4.8000  -2753.40935
   20     4.9000  -2753.40935
   21     5.0000  -2753.40935
 ----  ---------  -----------
  
 Leave Link  108 at Mon May 11 20:12:14 2020, MaxMem= 1073741824 cpu:       0.0
 (Enter /home/matheus/.gaussian/g09/l9999.exe)

 Test job not archived.
 1\1\GINC-REDGIANT\Scan\RLC-BLYP\Aug-CC-pVTZ\H2Kr1O2\MATHEUS\11-May-202
 0\1\\#p lc-blyp/aug-cc-PVTz iop(3/107=1350000000) iop(3/108=1350000000
 ) int=ultrafine counterpoise=2 Scan\\TCC\\0,1\O,0,0.,0.,0.725\O,0,0.,0
 .,-0.725\H,0,-0.795635374,-0.4593602974,1.0235104166\H,0,0.,0.91872059
 47,-1.0235104166\Kr,0,0.,R1,0.\\R1=3.,s,20,0.1\\Version=EM64L-G09RevC.
 01\State=1-A\HF=-2753.4093485,-2753.4093485,-2753.4093485,-2753.409348
 5,-2753.4093485,-2753.4093485,-2753.4093485,-2753.4093485,-2753.409348
 5,-2753.4093485,-2753.4093485,-2753.4093485,-2753.4093485,-2753.409348
 5,-2753.4093485,-2753.4093485,-2753.4093485,-2753.4093485,-2753.409348
 5,-2753.4093485,-2753.4093485\RMSD=5.461e-09,3.089e-10,7.451e-11,2.036
 e-11,7.196e-12,3.148e-12,1.458e-12,6.949e-13,3.352e-13,1.557e-13,7.410
 e-14,3.450e-14,1.571e-14,1.176e-14,6.849e-15,7.520e-15,1.272e-14,8.703
 e-15,4.033e-15,5.065e-15,5.310e-15\PG=C01 [X(H2Kr1O2)]\\@


 IMAGINATION WILL OFTEN CARRY US TO WORLDS THAT NEVER WERE.
 BUT WITHOUT IT, WE GO NOWHERE. -- CARL SAGAN (COSMOS)
 Job cpu time:  0 days  3 hours 22 minutes 36.5 seconds.
 File lengths (MBytes):  RWF=     33 Int=      0 D2E=      0 Chk=      8 Scr=      1
 Normal termination of Gaussian 09 at Mon May 11 20:12:14 2020.
