 Entering Gaussian System, Link 0=g09
 Input=/home/matheus/.tcc/Inputs/Inputs-lc-blyp/H2O2-Kr_6.com
 Output=/home/matheus/.tcc/Logs/Logs-lc-blyp/H2O2-Kr_6.log
 Initial command:
 /home/matheus/.gaussian/g09/l1.exe /home/matheus/.gaussian/g09/scratch/Gau-15615.inp -scrdir=/home/matheus/.gaussian/g09/scratch/
 Entering Link 1 = /home/matheus/.gaussian/g09/l1.exe PID=     15618.
  
 Copyright (c) 1988,1990,1992,1993,1995,1998,2003,2009,2011,
            Gaussian, Inc.  All Rights Reserved.
  
 This is part of the Gaussian(R) 09 program.  It is based on
 the Gaussian(R) 03 system (copyright 2003, Gaussian, Inc.),
 the Gaussian(R) 98 system (copyright 1998, Gaussian, Inc.),
 the Gaussian(R) 94 system (copyright 1995, Gaussian, Inc.),
 the Gaussian 92(TM) system (copyright 1992, Gaussian, Inc.),
 the Gaussian 90(TM) system (copyright 1990, Gaussian, Inc.),
 the Gaussian 88(TM) system (copyright 1988, Gaussian, Inc.),
 the Gaussian 86(TM) system (copyright 1986, Carnegie Mellon
 University), and the Gaussian 82(TM) system (copyright 1983,
 Carnegie Mellon University). Gaussian is a federally registered
 trademark of Gaussian, Inc.
  
 This software contains proprietary and confidential information,
 including trade secrets, belonging to Gaussian, Inc.
  
 This software is provided under written license and may be
 used, copied, transmitted, or stored only in accord with that
 written license.
  
 The following legend is applicable only to US Government
 contracts under FAR:
  
                    RESTRICTED RIGHTS LEGEND
  
 Use, reproduction and disclosure by the US Government is
 subject to restrictions as set forth in subparagraphs (a)
 and (c) of the Commercial Computer Software - Restricted
 Rights clause in FAR 52.227-19.
  
 Gaussian, Inc.
 340 Quinnipiac St., Bldg. 40, Wallingford CT 06492
  
  
 ---------------------------------------------------------------
 Warning -- This program may not be used in any manner that
 competes with the business of Gaussian, Inc. or will provide
 assistance to any competitor of Gaussian, Inc.  The licensee
 of this program is prohibited from giving any competitor of
 Gaussian, Inc. access to this program.  By using this program,
 the user acknowledges that Gaussian, Inc. is engaged in the
 business of creating and licensing software in the field of
 computational chemistry and represents and warrants to the
 licensee that it is not a competitor of Gaussian, Inc. and that
 it will not use this program in any manner prohibited above.
 ---------------------------------------------------------------
  

 Cite this work as:
 Gaussian 09, Revision C.01,
 M. J. Frisch, G. W. Trucks, H. B. Schlegel, G. E. Scuseria, 
 M. A. Robb, J. R. Cheeseman, G. Scalmani, V. Barone, B. Mennucci, 
 G. A. Petersson, H. Nakatsuji, M. Caricato, X. Li, H. P. Hratchian, 
 A. F. Izmaylov, J. Bloino, G. Zheng, J. L. Sonnenberg, M. Hada, 
 M. Ehara, K. Toyota, R. Fukuda, J. Hasegawa, M. Ishida, T. Nakajima, 
 Y. Honda, O. Kitao, H. Nakai, T. Vreven, J. A. Montgomery, Jr., 
 J. E. Peralta, F. Ogliaro, M. Bearpark, J. J. Heyd, E. Brothers, 
 K. N. Kudin, V. N. Staroverov, T. Keith, R. Kobayashi, J. Normand, 
 K. Raghavachari, A. Rendell, J. C. Burant, S. S. Iyengar, J. Tomasi, 
 M. Cossi, N. Rega, J. M. Millam, M. Klene, J. E. Knox, J. B. Cross, 
 V. Bakken, C. Adamo, J. Jaramillo, R. Gomperts, R. E. Stratmann, 
 O. Yazyev, A. J. Austin, R. Cammi, C. Pomelli, J. W. Ochterski, 
 R. L. Martin, K. Morokuma, V. G. Zakrzewski, G. A. Voth, 
 P. Salvador, J. J. Dannenberg, S. Dapprich, A. D. Daniels, 
 O. Farkas, J. B. Foresman, J. V. Ortiz, J. Cioslowski, 
 and D. J. Fox, Gaussian, Inc., Wallingford CT, 2010.
 
 ******************************************
 Gaussian 09:  EM64L-G09RevC.01 23-Sep-2011
                11-May-2020 
 ******************************************
 %mem=8GB
 %nproc=8
 Will use up to    8 processors via shared memory.
 ----------------------------------------------------------------------
 #p lc-blyp/aug-cc-PVTz iop(3/107=1350000000) iop(3/108=1350000000) int
 =ultrafine counterpoise=2 Scan
 ----------------------------------------------------------------------
 1/38=1,60=1,62=2/1,8;
 2/12=2,17=6,18=5,29=3,40=1/2;
 1/38=1,53=5172,62=2/22;
 3/5=16,6=1,7=10,11=2,16=1,25=1,30=1,74=1000402,75=-5,107=1350000000,108=1350000000/1,2,3;
 4//1;
 5/5=2,38=5/2;
 6/7=2,8=2,9=2,10=2,18=1,28=1/1;
 1/53=4052,62=2,63=1/22;
 3/5=7,6=11,7=10,11=2,16=1,25=1,30=1,74=1000402,75=-5,82=7,107=1350000000,108=1350000000/1,2,3;
 4//1;
 5/5=2,38=5/2;
 6/7=2,8=2,9=2,10=2,18=1,28=1/1;
 1/53=3042,62=2,63=2/22;
 3/5=7,6=11,7=10,11=2,16=1,25=1,30=1,74=1000402,75=-5,82=7,107=1350000000,108=1350000000/1,2,3;
 4//1;
 5/5=2,38=5/2;
 6/7=2,8=2,9=2,10=2,18=1,28=1/1;
 1/53=2032,62=2,63=3/22;
 3/5=7,6=11,7=10,11=2,16=1,25=1,30=1,74=1000402,75=-5,82=7,107=1350000000,108=1350000000/1,2,3;
 4//1;
 5/5=2,38=5/2;
 6/7=2,8=2,9=2,10=2,18=1,28=1/1;
 1/53=1022,62=2,63=4/22;
 3/5=7,6=11,7=10,11=2,16=1,25=1,30=1,74=1000402,75=-5,82=7,107=1350000000,108=1350000000/1,2,3;
 4//1;
 5/5=2,38=5/2;
 6/7=2,8=2,9=2,10=2,18=1,28=1/1;
 1/53=5014,62=2,63=5/22;
 1/60=1,62=2/8(1);
 99/9=1/99;
 2/29=3/2;
 1/53=5173,62=2/22;
 3/5=7,6=11,7=10,11=2,16=1,25=1,30=1,74=1000402,75=-5,82=7,107=1350000000,108=1350000000/1,2,3;
 4/5=5,16=3/1;
 5/5=2,38=5/2;
 1/53=4053,62=2,63=1/22;
 3/5=7,6=11,7=10,11=2,16=1,25=1,30=1,74=1000402,75=-5,82=7,107=1350000000,108=1350000000/1,2,3;
 4/5=5,16=3/1;
 5/5=2,38=5/2;
 1/53=3043,62=2,63=2/22;
 3/5=7,6=11,7=10,11=2,16=1,25=1,30=1,74=1000402,75=-5,82=7,107=1350000000,108=1350000000/1,2,3;
 4/5=5,16=3/1;
 5/5=2,38=5/2;
 1/53=2033,62=2,63=3/22;
 3/5=7,6=11,7=10,11=2,16=1,25=1,30=1,74=1000402,75=-5,82=7,107=1350000000,108=1350000000/1,2,3;
 4/5=5,16=3/1;
 5/5=2,38=5/2;
 1/53=1024,62=2,63=4/22;
 3/5=7,6=11,7=10,11=2,16=1,25=1,30=1,74=1000402,75=-5,82=7,107=1350000000,108=1350000000/1,2,3;
 4/5=5,16=3/1;
 5/5=2,38=5/2;
 1/53=5014,62=2,63=5/22;
 1/60=1,62=2/8(-22);
 99/9=1/99;
 Leave Link    1 at Mon May 11 12:31:06 2020, MaxMem= 1073741824 cpu:       0.1
 (Enter /home/matheus/.gaussian/g09/l101.exe)
 ---
 TCC
 ---
 Charge =  0 Multiplicity = 1 in supermolecule
 Charge =  0 Multiplicity = 1 in fragment  1.
 Charge =  0 Multiplicity = 1 in fragment  2.
 Symbolic Z-Matrix:
 O(Fragment=1)         0.        0.        0.725 
 O(Fragment=1)         0.        0.       -0.725 
 H(Fragment=1)         0.79564   0.45936   1.02351 
 H(Fragment=1)         0.        0.91872  -1.02351 
 Kr(Fragment=2)        0.       R1        0. 
       Variables:
  R1                    3.     Scan 20    0.1    
 
 NAtoms=      5 NQM=        0 NQMF=       0 NMMI=      5 NMMIF=      0
                NMic=       0 NMicF=      0.
                    Isotopes and Nuclear Properties:
 (Nuclear quadrupole moments (NQMom) in fm**2, nuclear magnetic moments (NMagM)
  in nuclear magnetons)

  Atom         1           2           3           4           5
 IAtWgt=          16          16           1           1          84
 AtmWgt=  15.9949146  15.9949146   1.0078250   1.0078250  83.9115064
 NucSpn=           0           0           1           1           0
 AtZEff=   0.0000000   0.0000000   0.0000000   0.0000000   0.0000000
 NQMom=    0.0000000   0.0000000   0.0000000   0.0000000   0.0000000
 NMagM=    0.0000000   0.0000000   2.7928460   2.7928460   0.0000000
 Leave Link  101 at Mon May 11 12:31:06 2020, MaxMem= 1073741824 cpu:       0.3
 (Enter /home/matheus/.gaussian/g09/l108.exe)
 Scan the potential surface.
 Variable   Value     No. Steps Step-Size
 -------- ----------- --------- ---------
     1       3.000000      20      0.1000
 A total of     21 points will be computed.
 Leave Link  108 at Mon May 11 12:31:06 2020, MaxMem= 1073741824 cpu:       0.0
 (Enter /home/matheus/.gaussian/g09/l202.exe)
 ---------------------------------------------------------------------------------------------------
                            Z-MATRIX (ANGSTROMS AND DEGREES)
   CD    Cent   Atom    N1       Length/X        N2       Alpha/Y        N3        Beta/Z          J
 ---------------------------------------------------------------------------------------------------
      1      1  O        0   0.000000          0.000000          0.725000
      2      2  O        0   0.000000          0.000000         -0.725000
      3      3  H        0   0.795635          0.459360          1.023510
      4      4  H        0   0.000000          0.918721         -1.023510
      5      5  Kr       0   0.000000          3.000000          0.000000
 ---------------------------------------------------------------------------------------------------
                         Z-Matrix orientation:                         
 ---------------------------------------------------------------------
 Center     Atomic      Atomic             Coordinates (Angstroms)
 Number     Number       Type             X           Y           Z
 ---------------------------------------------------------------------
      1          8           0        0.000000    0.000000    0.725000
      2          8           0        0.000000    0.000000   -0.725000
      3          1           0        0.795635    0.459360    1.023510
      4          1           0        0.000000    0.918721   -1.023510
      5         36           0        0.000000    3.000000    0.000000
 ---------------------------------------------------------------------
                    Distance matrix (angstroms):
                    1          2          3          4          5
     1  O    0.000000
     2  O    1.450000   0.000000
     3  H    0.966000   1.975180   0.000000
     4  H    1.975180   0.966000   2.243734   0.000000
     5  Kr   3.086361   3.086361   2.852273   2.319331   0.000000
 Stoichiometry    H2KrO2
 Framework group  C1[X(H2KrO2)]
 Deg. of freedom     9
 Full point group                 C1      NOp   1
 Largest Abelian subgroup         C1      NOp   1
 Largest concise Abelian subgroup C1      NOp   1
                         Standard orientation:                         
 ---------------------------------------------------------------------
 Center     Atomic      Atomic             Coordinates (Angstroms)
 Number     Number       Type             X           Y           Z
 ---------------------------------------------------------------------
      1          8           0        2.028906   -0.709015   -0.097019
      2          8           0        2.021423    0.736213    0.020285
      3          1           0        1.580792   -1.073669    0.677176
      4          1           0        1.101242    1.028113    0.055175
      5         36           0       -0.974574   -0.004779   -0.003291
 ---------------------------------------------------------------------
 Rotational constants (GHZ):     25.8520084      2.3670759      2.1795084
 Leave Link  202 at Mon May 11 12:31:06 2020, MaxMem= 1073741824 cpu:       0.0
 (Enter /home/matheus/.gaussian/g09/l122.exe)
 Leave Link  122 at Mon May 11 12:31:06 2020, MaxMem= 1073741824 cpu:       0.0
 (Enter /home/matheus/.gaussian/g09/l301.exe)
 Standard basis: Aug-CC-pVTZ (5D, 7F)
 Ernie: Thresh=  0.10000D-02 Tol=  0.10000D-05 Strict=F.
 Ernie:  38 primitive shells out of 205 were deleted.
 There are   197 symmetry adapted basis functions of A   symmetry.
 Integral buffers will be    131072 words long.
 Raffenetti 2 integral format.
 Two-electron integral symmetry is turned on.
   197 basis functions,   415 primitive gaussians,   229 cartesian basis functions
    27 alpha electrons       27 beta electrons
       nuclear repulsion energy       150.2958872335 Hartrees.
 IExCor=10402 DFT=T Ex=LC-B+HF Corr=LYP ExCW=0 ScaHFX=  1.000000
 ScaDFX=  1.000000  1.000000  1.000000  1.000000 ScalE2=  1.000000  1.000000
 IRadAn=      5 IRanWt=     -1 IRanGd=            0 ICorTp=0
  HFx wShort=  0.000000 wLong=  1.350000 cFull=  0.000000 cShort=  0.000000 cLong=  1.000000
  DFx wShort=  0.000000 wLong=  1.350000 cFull=  0.000000 cShort=  0.000000 cLong=  1.000000
 NAtoms=    5 NActive=    5 NUniq=    5 SFac= 1.00D+00 NAtFMM=   60 NAOKFM=F Big=F
 Leave Link  301 at Mon May 11 12:31:06 2020, MaxMem= 1073741824 cpu:       0.2
 (Enter /home/matheus/.gaussian/g09/l302.exe)
 NPDir=0 NMtPBC=     1 NCelOv=     1 NCel=       1 NClECP=     1 NCelD=      1
         NCelK=      1 NCelE2=     1 NClLst=     1 CellRange=     0.0.
 One-electron integrals computed using PRISM.
 NBasis=   197 RedAO= T  NBF=   197
 NBsUse=   197 1.00D-06 NBFU=   197
 Precomputing XC quadrature grid using
 IXCGrd= 2 IRadAn=           5 IRanWt=          -1 IRanGd=           0 AccXCQ= 0.00D+00.
 NRdTot=     427 NPtTot=      123512 NUsed=      126579 NTot=      126611
 NSgBfM=   229   229   229   229   229 NAtAll=     5     5.
 Leave Link  302 at Mon May 11 12:31:06 2020, MaxMem= 1073741824 cpu:       1.0
 (Enter /home/matheus/.gaussian/g09/l303.exe)
 DipDrv:  MaxL=1.
 Leave Link  303 at Mon May 11 12:31:06 2020, MaxMem= 1073741824 cpu:       0.2
 (Enter /home/matheus/.gaussian/g09/l401.exe)
 Harris functional with IExCor=10402 diagonalized for initial guess.
 ExpMin= 2.53D-02 ExpMax= 1.17D+07 ExpMxC= 1.33D+04 IAcc=3 IRadAn=         5 AccDes= 0.00D+00
 HarFok:  IExCor=10402 AccDes= 0.00D+00 IRadAn=         5 IDoV= 1
 ScaDFX=  1.000000  1.000000  1.000000  1.000000
 FoFCou: FMM=F IPFlag=           0 FMFlag=      100000 FMFlg1=           0
         NFxFlg=           0 DoJE=T BraDBF=F KetDBF=T FulRan=T
         Omega=  0.000000  0.000000  1.000000  0.000000  0.000000 ICntrl=     500 IOpCl=  0
         NMat0=    1 NMatS0=    1 NMatT0=    0 NMatD0=    1 NMtDS0=    0 NMtDT0=    0
         I1Cent=           4 NGrid=           0.
 Petite list used in FoFCou.
 Harris En= -2874.91539471543    
 Initial guess orbital symmetries:
       Occupied  (A) (A) (A) (A) (A) (A) (A) (A) (A) (A) (A) (A)
                 (A) (A) (A) (A) (A) (A) (A) (A) (A) (A) (A) (A)
                 (A) (A) (A)
       Virtual   (A) (A) (A) (A) (A) (A) (A) (A) (A) (A) (A) (A)
                 (A) (A) (A) (A) (A) (A) (A) (A) (A) (A) (A) (A)
                 (A) (A) (A) (A) (A) (A) (A) (A) (A) (A) (A) (A)
                 (A) (A) (A) (A) (A) (A) (A) (A) (A) (A) (A) (A)
                 (A) (A) (A) (A) (A) (A) (A) (A) (A) (A) (A) (A)
                 (A) (A) (A) (A) (A) (A) (A) (A) (A) (A) (A) (A)
                 (A) (A) (A) (A) (A) (A) (A) (A) (A) (A) (A) (A)
                 (A) (A) (A) (A) (A) (A) (A) (A) (A) (A) (A) (A)
                 (A) (A) (A) (A) (A) (A) (A) (A) (A) (A) (A) (A)
                 (A) (A) (A) (A) (A) (A) (A) (A) (A) (A) (A) (A)
                 (A) (A) (A) (A) (A) (A) (A) (A) (A) (A) (A) (A)
                 (A) (A) (A) (A) (A) (A) (A) (A) (A) (A) (A) (A)
                 (A) (A) (A) (A) (A) (A) (A) (A) (A) (A) (A) (A)
                 (A) (A) (A) (A) (A) (A) (A) (A) (A) (A) (A) (A)
                 (A) (A)
 The electronic state of the initial guess is 1-A.
 Leave Link  401 at Mon May 11 12:31:07 2020, MaxMem= 1073741824 cpu:       3.9
 (Enter /home/matheus/.gaussian/g09/l502.exe)
 Closed shell SCF:
 Requested convergence on RMS density matrix=1.00D-08 within 128 cycles.
 Requested convergence on MAX density matrix=1.00D-06.
 Requested convergence on             energy=1.00D-06.
 No special actions if energy rises.
 Using DIIS extrapolation, IDIIS=  1040.
 Integral symmetry usage will be decided dynamically.
       126521 words used for storage of precomputed grid.
 IEnd=      305468 IEndB=      305468 NGot=  1073741824 MDV=  1073505667
 LenX=  1073505667 LenY=  1073452785
 Fock matrices will be formed incrementally for  20 cycles.

 Cycle   1  Pass 1  IDiag  1:
 FoFJK:  IHMeth= 1 ICntrl=     0 DoSepK=T KAlg= 1 I1Cent= 0 FoldK=F
 FoFCou: FMM=F IPFlag=           0 FMFlag=      100000 FMFlg1=           0
         NFxFlg=           0 DoJE=T BraDBF=F KetDBF=F FulRan=T
         Omega=  0.000000  0.000000  1.000000  0.000000  0.000000 ICntrl=     500 IOpCl=  0
         NMat0=    1 NMatS0=    1 NMatT0=    0 NMatD0=    1 NMtDS0=    0 NMtDT0=    0
         I1Cent=           0 NGrid=           0.
 Symmetry not used in FoFCou.
 E= -2898.62502526125    
 DIIS: error= 1.08D-01 at cycle   1 NSaved=   1.
 NSaved= 1 IEnMin= 1 EnMin= -2898.62502526125     IErMin= 1 ErrMin= 1.08D-01
 ErrMax= 1.08D-01 EMaxC= 1.00D-01 BMatC= 3.96D+00 BMatP= 3.96D+00
 IDIUse=3 WtCom= 0.00D+00 WtEn= 1.00D+00
 Coeff-Com:  0.100D+01
 Coeff-En:   0.100D+01
 Coeff:      0.100D+01
 Gap=    -0.970 Goal=   None    Shift=    0.000
 GapD=   -0.970 DampG=0.250 DampE=0.250 DampFc=0.2500 IDamp=-1.
 Damping current iteration by 2.50D-01
 RMSDP=1.14D-01 MaxDP=1.01D+01              OVMax= 9.96D-01

 Cycle   2  Pass 1  IDiag  1:
 RMSU=  4.48D-03    CP:  7.61D-01
 FoFJK:  IHMeth= 1 ICntrl=     0 DoSepK=T KAlg= 1 I1Cent= 0 FoldK=F
 E= -2900.86376745012     Delta-E=       -2.238742188876 Rises=F Damp=T
 DIIS: error= 4.94D-02 at cycle   2 NSaved=   2.
 NSaved= 2 IEnMin= 2 EnMin= -2900.86376745012     IErMin= 2 ErrMin= 4.94D-02
 ErrMax= 4.94D-02 EMaxC= 1.00D-01 BMatC= 1.07D+00 BMatP= 3.96D+00
 IDIUse=3 WtCom= 5.06D-01 WtEn= 4.94D-01
 Coeff-Com: -0.761D+00 0.176D+01
 Coeff-En:   0.000D+00 0.100D+01
 Coeff:     -0.385D+00 0.138D+01
 Gap=     0.125 Goal=   None    Shift=    0.000
 RMSDP=8.56D-02 MaxDP=7.55D+00 DE=-2.24D+00 OVMax= 9.81D-01

 Cycle   3  Pass 1  IDiag  1:
 RMSU=  6.01D-03    CP:  4.40D-02  3.00D+00
 FoFJK:  IHMeth= 1 ICntrl=     0 DoSepK=T KAlg= 1 I1Cent= 0 FoldK=F
 E= -2904.29835338535     Delta-E=       -3.434585935225 Rises=F Damp=F
 DIIS: error= 2.79D-02 at cycle   3 NSaved=   3.
 NSaved= 3 IEnMin= 3 EnMin= -2904.29835338535     IErMin= 3 ErrMin= 2.79D-02
 ErrMax= 2.79D-02 EMaxC= 1.00D-01 BMatC= 4.94D-01 BMatP= 1.07D+00
 IDIUse=3 WtCom= 7.21D-01 WtEn= 2.79D-01
 Coeff-Com: -0.304D-01 0.434D+00 0.596D+00
 Coeff-En:   0.000D+00 0.000D+00 0.100D+01
 Coeff:     -0.219D-01 0.313D+00 0.709D+00
 Gap=     0.602 Goal=   None    Shift=    0.000
 RMSDP=2.31D-03 MaxDP=8.49D-02 DE=-3.43D+00 OVMax= 8.96D-02

 Cycle   4  Pass 1  IDiag  1:
 RMSU=  1.63D-03    CP:  4.34D-02  3.00D+00  9.81D-01
 FoFJK:  IHMeth= 1 ICntrl=     0 DoSepK=T KAlg= 1 I1Cent= 0 FoldK=F
 E= -2904.60742126316     Delta-E=       -0.309067877809 Rises=F Damp=F
 DIIS: error= 4.43D-03 at cycle   4 NSaved=   4.
 NSaved= 4 IEnMin= 4 EnMin= -2904.60742126316     IErMin= 4 ErrMin= 4.43D-03
 ErrMax= 4.43D-03 EMaxC= 1.00D-01 BMatC= 9.60D-03 BMatP= 4.94D-01
 IDIUse=3 WtCom= 9.56D-01 WtEn= 4.43D-02
 Coeff-Com:  0.919D-02 0.108D-01 0.358D-01 0.944D+00
 Coeff-En:   0.000D+00 0.000D+00 0.000D+00 0.100D+01
 Coeff:      0.879D-02 0.103D-01 0.342D-01 0.947D+00
 Gap=     0.510 Goal=   None    Shift=    0.000
 RMSDP=6.87D-04 MaxDP=2.20D-02 DE=-3.09D-01 OVMax= 2.27D-02

 Cycle   5  Pass 1  IDiag  1:
 RMSU=  4.47D-04    CP:  4.34D-02  3.00D+00  9.81D-01  1.12D+00
 FoFJK:  IHMeth= 1 ICntrl=     0 DoSepK=T KAlg= 1 I1Cent= 0 FoldK=F
 E= -2904.61660152732     Delta-E=       -0.009180264161 Rises=F Damp=F
 DIIS: error= 1.12D-03 at cycle   5 NSaved=   5.
 NSaved= 5 IEnMin= 5 EnMin= -2904.61660152732     IErMin= 5 ErrMin= 1.12D-03
 ErrMax= 1.12D-03 EMaxC= 1.00D-01 BMatC= 5.63D-04 BMatP= 9.60D-03
 IDIUse=3 WtCom= 9.89D-01 WtEn= 1.12D-02
 Coeff-Com: -0.149D-01 0.317D-01-0.197D-02-0.141D-01 0.999D+00
 Coeff-En:   0.000D+00 0.000D+00 0.000D+00 0.000D+00 0.100D+01
 Coeff:     -0.147D-01 0.313D-01-0.195D-02-0.139D-01 0.999D+00
 Gap=     0.524 Goal=   None    Shift=    0.000
 RMSDP=1.54D-04 MaxDP=4.73D-03 DE=-9.18D-03 OVMax= 6.90D-03

 Cycle   6  Pass 1  IDiag  1:
 RMSU=  9.06D-05    CP:  4.34D-02  3.00D+00  9.80D-01  1.13D+00  1.12D+00
 FoFJK:  IHMeth= 1 ICntrl=     0 DoSepK=T KAlg= 1 I1Cent= 0 FoldK=F
 E= -2904.61715202954     Delta-E=       -0.000550502223 Rises=F Damp=F
 DIIS: error= 4.31D-04 at cycle   6 NSaved=   6.
 NSaved= 6 IEnMin= 6 EnMin= -2904.61715202954     IErMin= 6 ErrMin= 4.31D-04
 ErrMax= 4.31D-04 EMaxC= 1.00D-01 BMatC= 1.09D-04 BMatP= 5.63D-04
 IDIUse=3 WtCom= 9.96D-01 WtEn= 4.31D-03
 Coeff-Com: -0.430D-02 0.871D-02-0.687D-02-0.437D-01 0.125D+00 0.921D+00
 Coeff-En:   0.000D+00 0.000D+00 0.000D+00 0.000D+00 0.000D+00 0.100D+01
 Coeff:     -0.428D-02 0.867D-02-0.684D-02-0.435D-01 0.124D+00 0.922D+00
 Gap=     0.527 Goal=   None    Shift=    0.000
 RMSDP=6.09D-05 MaxDP=1.61D-03 DE=-5.51D-04 OVMax= 3.54D-03

 Cycle   7  Pass 1  IDiag  1:
 RMSU=  2.61D-05    CP:  4.34D-02  3.00D+00  9.80D-01  1.14D+00  1.18D+00
                    CP:  1.12D+00
 FoFJK:  IHMeth= 1 ICntrl=     0 DoSepK=T KAlg= 1 I1Cent= 0 FoldK=F
 E= -2904.61727714111     Delta-E=       -0.000125111572 Rises=F Damp=F
 DIIS: error= 2.37D-04 at cycle   7 NSaved=   7.
 NSaved= 7 IEnMin= 7 EnMin= -2904.61727714111     IErMin= 7 ErrMin= 2.37D-04
 ErrMax= 2.37D-04 EMaxC= 1.00D-01 BMatC= 2.66D-05 BMatP= 1.09D-04
 IDIUse=3 WtCom= 9.98D-01 WtEn= 2.37D-03
 Coeff-Com:  0.536D-03-0.126D-02-0.404D-02-0.159D-01-0.782D-01 0.342D+00
 Coeff-Com:  0.757D+00
 Coeff-En:   0.000D+00 0.000D+00 0.000D+00 0.000D+00 0.000D+00 0.000D+00
 Coeff-En:   0.100D+01
 Coeff:      0.534D-03-0.126D-02-0.403D-02-0.159D-01-0.780D-01 0.341D+00
 Coeff:      0.757D+00
 Gap=     0.528 Goal=   None    Shift=    0.000
 RMSDP=2.57D-05 MaxDP=7.96D-04 DE=-1.25D-04 OVMax= 1.79D-03

 Cycle   8  Pass 1  IDiag  1:
 RMSU=  1.14D-05    CP:  4.34D-02  3.00D+00  9.80D-01  1.15D+00  1.20D+00
                    CP:  1.19D+00  1.10D+00
 FoFJK:  IHMeth= 1 ICntrl=     0 DoSepK=T KAlg= 1 I1Cent= 0 FoldK=F
 E= -2904.61730516804     Delta-E=       -0.000028026930 Rises=F Damp=F
 DIIS: error= 7.02D-05 at cycle   8 NSaved=   8.
 NSaved= 8 IEnMin= 8 EnMin= -2904.61730516804     IErMin= 8 ErrMin= 7.02D-05
 ErrMax= 7.02D-05 EMaxC= 1.00D-01 BMatC= 1.69D-06 BMatP= 2.66D-05
 IDIUse=1 WtCom= 1.00D+00 WtEn= 0.00D+00
 Coeff-Com:  0.114D-02-0.215D-02 0.109D-02 0.449D-02-0.952D-02-0.105D+00
 Coeff-Com:  0.931D-02 0.110D+01
 Coeff:      0.114D-02-0.215D-02 0.109D-02 0.449D-02-0.952D-02-0.105D+00
 Coeff:      0.931D-02 0.110D+01
 Gap=     0.528 Goal=   None    Shift=    0.000
 RMSDP=1.08D-05 MaxDP=3.79D-04 DE=-2.80D-05 OVMax= 1.10D-03

 Cycle   9  Pass 1  IDiag  1:
 RMSU=  3.98D-06    CP:  4.34D-02  3.00D+00  9.80D-01  1.15D+00  1.21D+00
                    CP:  1.20D+00  1.28D+00  1.34D+00
 FoFJK:  IHMeth= 1 ICntrl=     0 DoSepK=T KAlg= 1 I1Cent= 0 FoldK=F
 E= -2904.61730926463     Delta-E=       -0.000004096586 Rises=F Damp=F
 DIIS: error= 2.96D-05 at cycle   9 NSaved=   9.
 NSaved= 9 IEnMin= 9 EnMin= -2904.61730926463     IErMin= 9 ErrMin= 2.96D-05
 ErrMax= 2.96D-05 EMaxC= 1.00D-01 BMatC= 2.81D-07 BMatP= 1.69D-06
 IDIUse=1 WtCom= 1.00D+00 WtEn= 0.00D+00
 Coeff-Com:  0.641D-04-0.603D-04 0.592D-03 0.172D-02 0.362D-02-0.603D-02
 Coeff-Com: -0.531D-01-0.205D+00 0.126D+01
 Coeff:      0.641D-04-0.603D-04 0.592D-03 0.172D-02 0.362D-02-0.603D-02
 Coeff:     -0.531D-01-0.205D+00 0.126D+01
 Gap=     0.528 Goal=   None    Shift=    0.000
 RMSDP=4.92D-06 MaxDP=9.20D-05 DE=-4.10D-06 OVMax= 5.84D-04

 Cycle  10  Pass 1  IDiag  1:
 RMSU=  1.44D-06    CP:  4.34D-02  3.00D+00  9.80D-01  1.15D+00  1.20D+00
                    CP:  1.21D+00  1.32D+00  1.49D+00  1.51D+00
 FoFJK:  IHMeth= 1 ICntrl=     0 DoSepK=T KAlg= 1 I1Cent= 0 FoldK=F
 E= -2904.61731010875     Delta-E=       -0.000000844121 Rises=F Damp=F
 DIIS: error= 1.02D-05 at cycle  10 NSaved=  10.
 NSaved=10 IEnMin=10 EnMin= -2904.61731010875     IErMin=10 ErrMin= 1.02D-05
 ErrMax= 1.02D-05 EMaxC= 1.00D-01 BMatC= 3.64D-08 BMatP= 2.81D-07
 IDIUse=1 WtCom= 1.00D+00 WtEn= 0.00D+00
 Coeff-Com: -0.132D-03 0.252D-03-0.239D-03-0.722D-03-0.135D-02 0.170D-01
 Coeff-Com:  0.705D-02-0.156D+00-0.103D+00 0.124D+01
 Coeff:     -0.132D-03 0.252D-03-0.239D-03-0.722D-03-0.135D-02 0.170D-01
 Coeff:      0.705D-02-0.156D+00-0.103D+00 0.124D+01
 Gap=     0.528 Goal=   None    Shift=    0.000
 RMSDP=2.17D-06 MaxDP=5.06D-05 DE=-8.44D-07 OVMax= 3.03D-04

 Cycle  11  Pass 1  IDiag  1:
 RMSU=  5.21D-07    CP:  4.34D-02  3.00D+00  9.80D-01  1.15D+00  1.20D+00
                    CP:  1.21D+00  1.34D+00  1.55D+00  1.75D+00  1.46D+00
 FoFJK:  IHMeth= 1 ICntrl=     0 DoSepK=T KAlg= 1 I1Cent= 0 FoldK=F
 E= -2904.61731025304     Delta-E=       -0.000000144293 Rises=F Damp=F
 DIIS: error= 3.31D-06 at cycle  11 NSaved=  11.
 NSaved=11 IEnMin=11 EnMin= -2904.61731025304     IErMin=11 ErrMin= 3.31D-06
 ErrMax= 3.31D-06 EMaxC= 1.00D-01 BMatC= 3.61D-09 BMatP= 3.64D-08
 IDIUse=1 WtCom= 1.00D+00 WtEn= 0.00D+00
 Coeff-Com: -0.184D-04 0.278D-04-0.193D-04-0.996D-04 0.914D-03-0.370D-02
 Coeff-Com: -0.136D-02 0.449D-01-0.559D-01-0.343D+00 0.136D+01
 Coeff:     -0.184D-04 0.278D-04-0.193D-04-0.996D-04 0.914D-03-0.370D-02
 Coeff:     -0.136D-02 0.449D-01-0.559D-01-0.343D+00 0.136D+01
 Gap=     0.528 Goal=   None    Shift=    0.000
 RMSDP=7.03D-07 MaxDP=1.73D-05 DE=-1.44D-07 OVMax= 9.90D-05

 Cycle  12  Pass 1  IDiag  1:
 RMSU=  1.66D-07    CP:  4.34D-02  3.00D+00  9.80D-01  1.15D+00  1.20D+00
                    CP:  1.21D+00  1.35D+00  1.57D+00  1.80D+00  1.62D+00
                    CP:  1.45D+00
 FoFJK:  IHMeth= 1 ICntrl=     0 DoSepK=T KAlg= 1 I1Cent= 0 FoldK=F
 E= -2904.61731026688     Delta-E=       -0.000000013840 Rises=F Damp=F
 DIIS: error= 7.36D-07 at cycle  12 NSaved=  12.
 NSaved=12 IEnMin=12 EnMin= -2904.61731026688     IErMin=12 ErrMin= 7.36D-07
 ErrMax= 7.36D-07 EMaxC= 1.00D-01 BMatC= 1.87D-10 BMatP= 3.61D-09
 IDIUse=1 WtCom= 1.00D+00 WtEn= 0.00D+00
 Coeff-Com:  0.193D-05-0.462D-05 0.937D-05 0.587D-04-0.228D-03 0.743D-03
 Coeff-Com:  0.281D-03-0.757D-02 0.262D-01 0.314D-01-0.412D+00 0.136D+01
 Coeff:      0.193D-05-0.462D-05 0.937D-05 0.587D-04-0.228D-03 0.743D-03
 Coeff:      0.281D-03-0.757D-02 0.262D-01 0.314D-01-0.412D+00 0.136D+01
 Gap=     0.528 Goal=   None    Shift=    0.000
 RMSDP=1.48D-07 MaxDP=2.87D-06 DE=-1.38D-08 OVMax= 1.69D-05

 Cycle  13  Pass 1  IDiag  1:
 RMSU=  3.32D-08    CP:  4.34D-02  3.00D+00  9.80D-01  1.15D+00  1.20D+00
                    CP:  1.21D+00  1.35D+00  1.57D+00  1.80D+00  1.62D+00
                    CP:  1.55D+00  1.45D+00
 FoFJK:  IHMeth= 1 ICntrl=     0 DoSepK=T KAlg= 1 I1Cent= 0 FoldK=F
 E= -2904.61731026755     Delta-E=       -0.000000000665 Rises=F Damp=F
 DIIS: error= 1.70D-07 at cycle  13 NSaved=  13.
 NSaved=13 IEnMin=13 EnMin= -2904.61731026755     IErMin=13 ErrMin= 1.70D-07
 ErrMax= 1.70D-07 EMaxC= 1.00D-01 BMatC= 9.00D-12 BMatP= 1.87D-10
 IDIUse=1 WtCom= 1.00D+00 WtEn= 0.00D+00
 Coeff-Com:  0.532D-06-0.810D-06-0.159D-06 0.196D-05-0.360D-04 0.173D-03
 Coeff-Com:  0.436D-04-0.201D-02-0.999D-04 0.144D-01-0.304D-01-0.100D+00
 Coeff-Com:  0.112D+01
 Coeff:      0.532D-06-0.810D-06-0.159D-06 0.196D-05-0.360D-04 0.173D-03
 Coeff:      0.436D-04-0.201D-02-0.999D-04 0.144D-01-0.304D-01-0.100D+00
 Coeff:      0.112D+01
 Gap=     0.528 Goal=   None    Shift=    0.000
 RMSDP=2.92D-08 MaxDP=7.66D-07 DE=-6.65D-10 OVMax= 2.74D-06

 Cycle  14  Pass 1  IDiag  1:
 RMSU=  6.33D-09    CP:  4.34D-02  3.00D+00  9.80D-01  1.15D+00  1.20D+00
                    CP:  1.21D+00  1.35D+00  1.57D+00  1.81D+00  1.63D+00
                    CP:  1.55D+00  1.50D+00  1.33D+00
 FoFJK:  IHMeth= 1 ICntrl=     0 DoSepK=T KAlg= 1 I1Cent= 0 FoldK=F
 E= -2904.61731026753     Delta-E=        0.000000000019 Rises=F Damp=F
 DIIS: error= 5.95D-08 at cycle  14 NSaved=  14.
 NSaved=14 IEnMin=13 EnMin= -2904.61731026755     IErMin=14 ErrMin= 5.95D-08
 ErrMax= 5.95D-08 EMaxC= 1.00D-01 BMatC= 8.34D-13 BMatP= 9.00D-12
 IDIUse=1 WtCom= 1.00D+00 WtEn= 0.00D+00
 Coeff-Com:  0.158D-06-0.234D-06-0.338D-06-0.423D-05 0.224D-04-0.647D-04
 Coeff-Com: -0.416D-04 0.772D-03-0.112D-02-0.464D-02 0.303D-01-0.630D-01
 Coeff-Com: -0.290D+00 0.133D+01
 Coeff:      0.158D-06-0.234D-06-0.338D-06-0.423D-05 0.224D-04-0.647D-04
 Coeff:     -0.416D-04 0.772D-03-0.112D-02-0.464D-02 0.303D-01-0.630D-01
 Coeff:     -0.290D+00 0.133D+01
 Gap=     0.528 Goal=   None    Shift=    0.000
 RMSDP=9.30D-09 MaxDP=2.35D-07 DE= 1.91D-11 OVMax= 9.87D-07

 SCF Done:  E(RLC-B+HF-LYP) =  -2904.61731027     A.U. after   14 cycles
             Convg  =    0.9299D-08             -V/T =  2.0016
 KE= 2.899964619617D+03 PE=-7.237465340881D+03 EE= 1.282587523763D+03
 Leave Link  502 at Mon May 11 12:31:49 2020, MaxMem= 1073741824 cpu:     335.3
 (Enter /home/matheus/.gaussian/g09/l601.exe)
 Copying SCF densities to generalized density rwf, IOpCl= 0 IROHF=0.

 **********************************************************************

            Population analysis using the SCF density.

 **********************************************************************

 Orbital symmetries:
       Occupied  (A) (A) (A) (A) (A) (A) (A) (A) (A) (A) (A) (A)
                 (A) (A) (A) (A) (A) (A) (A) (A) (A) (A) (A) (A)
                 (A) (A) (A)
       Virtual   (A) (A) (A) (A) (A) (A) (A) (A) (A) (A) (A) (A)
                 (A) (A) (A) (A) (A) (A) (A) (A) (A) (A) (A) (A)
                 (A) (A) (A) (A) (A) (A) (A) (A) (A) (A) (A) (A)
                 (A) (A) (A) (A) (A) (A) (A) (A) (A) (A) (A) (A)
                 (A) (A) (A) (A) (A) (A) (A) (A) (A) (A) (A) (A)
                 (A) (A) (A) (A) (A) (A) (A) (A) (A) (A) (A) (A)
                 (A) (A) (A) (A) (A) (A) (A) (A) (A) (A) (A) (A)
                 (A) (A) (A) (A) (A) (A) (A) (A) (A) (A) (A) (A)
                 (A) (A) (A) (A) (A) (A) (A) (A) (A) (A) (A) (A)
                 (A) (A) (A) (A) (A) (A) (A) (A) (A) (A) (A) (A)
                 (A) (A) (A) (A) (A) (A) (A) (A) (A) (A) (A) (A)
                 (A) (A) (A) (A) (A) (A) (A) (A) (A) (A) (A) (A)
                 (A) (A) (A) (A) (A) (A) (A) (A) (A) (A) (A) (A)
                 (A) (A) (A) (A) (A) (A) (A) (A) (A) (A) (A) (A)
                 (A) (A)
 The electronic state is 1-A.
 Alpha  occ. eigenvalues -- -511.68065 -67.20557 -60.87762 -60.87750 -60.87739
 Alpha  occ. eigenvalues --  -19.48412 -19.48153 -10.10684  -7.82276  -7.82247
 Alpha  occ. eigenvalues --   -7.82217  -3.65239  -3.65234  -3.65210  -3.65187
 Alpha  occ. eigenvalues --   -3.65182  -1.46365  -1.21436  -1.20121  -0.78631
 Alpha  occ. eigenvalues --   -0.69101  -0.63415  -0.58690  -0.57912  -0.57349
 Alpha  occ. eigenvalues --   -0.55192  -0.50169
 Alpha virt. eigenvalues --    0.02595   0.03903   0.07614   0.08609   0.10585
 Alpha virt. eigenvalues --    0.11500   0.12910   0.13993   0.16761   0.17442
 Alpha virt. eigenvalues --    0.17581   0.19522   0.20897   0.23328   0.24375
 Alpha virt. eigenvalues --    0.24566   0.25382   0.29044   0.31511   0.32222
 Alpha virt. eigenvalues --    0.33374   0.35155   0.37579   0.38928   0.40088
 Alpha virt. eigenvalues --    0.41923   0.44109   0.48553   0.54266   0.56088
 Alpha virt. eigenvalues --    0.57922   0.61736   0.63281   0.65935   0.70049
 Alpha virt. eigenvalues --    0.72189   0.74018   0.76063   0.78269   0.79406
 Alpha virt. eigenvalues --    0.80321   0.80664   0.82497   0.83390   0.86471
 Alpha virt. eigenvalues --    0.87952   0.89342   0.90646   0.91909   0.94255
 Alpha virt. eigenvalues --    0.95642   0.97676   0.98961   1.00944   1.01407
 Alpha virt. eigenvalues --    1.02373   1.07061   1.10359   1.11501   1.15164
 Alpha virt. eigenvalues --    1.15663   1.17930   1.20973   1.26286   1.29066
 Alpha virt. eigenvalues --    1.31492   1.39827   1.42732   1.44922   1.46544
 Alpha virt. eigenvalues --    1.48625   1.53363   1.55563   1.60159   1.65392
 Alpha virt. eigenvalues --    1.75031   1.77688   1.92441   2.01697   2.03283
 Alpha virt. eigenvalues --    2.11525   2.14983   2.18210   2.21814   2.26465
 Alpha virt. eigenvalues --    2.27894   2.29031   2.31676   2.34293   2.37856
 Alpha virt. eigenvalues --    2.39843   2.41417   2.43816   2.44547   2.45568
 Alpha virt. eigenvalues --    2.48745   2.51775   2.57865   2.60602   2.62411
 Alpha virt. eigenvalues --    2.62645   2.64525   2.65821   2.69944   2.71768
 Alpha virt. eigenvalues --    2.72275   2.73353   2.78547   2.82567   2.85009
 Alpha virt. eigenvalues --    2.86977   2.88913   2.93610   2.99395   3.02678
 Alpha virt. eigenvalues --    3.07972   3.15025   3.23536   3.26182   3.76287
 Alpha virt. eigenvalues --    3.84366   4.10249   4.13477   4.15102   4.18951
 Alpha virt. eigenvalues --    4.26281   4.28101   4.39117   4.40604   4.42266
 Alpha virt. eigenvalues --    4.53388   4.65333   4.72969   4.78346   4.87715
 Alpha virt. eigenvalues --    5.13018   5.17284   5.18142   5.28579   5.35243
 Alpha virt. eigenvalues --    5.36308   5.65933   6.07543   6.24265   6.37225
 Alpha virt. eigenvalues --    6.40590   6.52541   6.60340   6.65795   6.76551
 Alpha virt. eigenvalues --    6.89408   7.02350   7.04720   7.09171   7.10951
 Alpha virt. eigenvalues --    7.15293   7.16088   7.19659   7.20124   7.28706
 Alpha virt. eigenvalues --    7.35269   7.41067   7.49375   7.73804   7.76371
 Alpha virt. eigenvalues --    8.09311   8.33218   8.40330  14.31756  14.87925
          Condensed to atoms (all electrons):
              1          2          3          4          5
     1  O    8.249830  -0.193129   0.183308   0.007811  -0.024091
     2  O   -0.193129   8.244836   0.020290   0.188022  -0.014820
     3  H    0.183308   0.020290   0.574453  -0.004668  -0.003477
     4  H    0.007811   0.188022  -0.004668   0.585514  -0.013385
     5  Kr  -0.024091  -0.014820  -0.003477  -0.013385  36.053641
 Mulliken atomic charges:
              1
     1  O   -0.223730
     2  O   -0.245200
     3  H    0.230093
     4  H    0.236705
     5  Kr   0.002132
 Sum of Mulliken atomic charges =   0.00000
 Mulliken charges with hydrogens summed into heavy atoms:
              1
     1  O    0.006363
     2  O   -0.008495
     5  Kr   0.002132
 Sum of Mulliken charges with hydrogens summed into heavy atoms =   0.00000
          Condensed to fragments (all electrons):
     1      -0.002132
     2       0.002132
 Electronic spatial extent (au):  <R**2>=            479.4334
 Charge=              0.0000 electrons
 Dipole moment (field-independent basis, Debye):
    X=             -2.8324    Y=             -0.2800    Z=              1.3434  Tot=              3.1473
 Quadrupole moment (field-independent basis, Debye-Ang):
   XX=            -37.6669   YY=            -27.6148   ZZ=            -28.9619
   XY=             -1.2213   XZ=              2.1949   YZ=             -1.7064
 Traceless Quadrupole moment (field-independent basis, Debye-Ang):
   XX=             -6.2524   YY=              3.7997   ZZ=              2.4527
   XY=             -1.2213   XZ=              2.1949   YZ=             -1.7064
 Octapole moment (field-independent basis, Debye-Ang**2):
  XXX=            -42.5165  YYY=             -0.7620  ZZZ=              0.8785  XYY=             -6.2995
  XXY=             -3.2479  XXZ=              2.7234  XZZ=             -6.1731  YZZ=             -1.4474
  YYZ=              2.1001  XYZ=             -2.7562
 Hexadecapole moment (field-independent basis, Debye-Ang**3):
 XXXX=           -459.5346 YYYY=            -61.3614 ZZZZ=            -28.3773 XXXY=             -5.3345
 XXXZ=              4.0914 YYYX=             -2.3365 YYYZ=             -2.5050 ZZZX=              1.8464
 ZZZY=             -1.6492 XXYY=            -83.2670 XXZZ=            -72.4282 YYZZ=            -15.5513
 XXYZ=             -4.5807 YYXZ=              3.3520 ZZXY=             -2.3007
 N-N= 1.502958872335D+02 E-N=-7.237465344580D+03  KE= 2.899964619617D+03
 No NMR shielding tensors so no spin-rotation constants.
 Leave Link  601 at Mon May 11 12:31:49 2020, MaxMem= 1073741824 cpu:       0.7
 (Enter /home/matheus/.gaussian/g09/l122.exe)
 Counterpoise: doing DCBS calculation for fragment   1 NewBq=T
 Leave Link  122 at Mon May 11 12:31:49 2020, MaxMem= 1073741824 cpu:       0.0
 (Enter /home/matheus/.gaussian/g09/l301.exe)
 Basis read from rwf:  (5D, 7F)
 No pseudopotential information found on rwf file.
 There are   197 symmetry adapted basis functions of A   symmetry.
 Integral buffers will be    131072 words long.
 Raffenetti 2 integral format.
 Two-electron integral symmetry is turned on.
   197 basis functions,   415 primitive gaussians,   229 cartesian basis functions
     9 alpha electrons        9 beta electrons
       nuclear repulsion energy        36.6440881780 Hartrees.
 IExCor=10402 DFT=T Ex=LC-B+HF Corr=LYP ExCW=0 ScaHFX=  1.000000
 ScaDFX=  1.000000  1.000000  1.000000  1.000000 ScalE2=  1.000000  1.000000
 IRadAn=      5 IRanWt=     -1 IRanGd=            0 ICorTp=0
  HFx wShort=  0.000000 wLong=  1.350000 cFull=  0.000000 cShort=  0.000000 cLong=  1.000000
  DFx wShort=  0.000000 wLong=  1.350000 cFull=  0.000000 cShort=  0.000000 cLong=  1.000000
 NAtoms=    5 NActive=    5 NUniq=    5 SFac= 1.00D+00 NAtFMM=   60 NAOKFM=F Big=F
 No density basis found on file   718.
 Leave Link  301 at Mon May 11 12:31:49 2020, MaxMem= 1073741824 cpu:       0.2
 (Enter /home/matheus/.gaussian/g09/l302.exe)
 NPDir=0 NMtPBC=     1 NCelOv=     1 NCel=       1 NClECP=     1 NCelD=      1
         NCelK=      1 NCelE2=     1 NClLst=     1 CellRange=     0.0.
 One-electron integrals computed using PRISM.
 NBasis=   197 RedAO= T  NBF=   197
 NBsUse=   197 1.00D-06 NBFU=   197
 Precomputing XC quadrature grid using
 IXCGrd= 2 IRadAn=           5 IRanWt=          -1 IRanGd=           0 AccXCQ= 0.00D+00.
 NRdTot=     427 NPtTot=      123512 NUsed=      126579 NTot=      126611
 NSgBfM=   229   229   229   229   229 NAtAll=     5     5.
 Leave Link  302 at Mon May 11 12:31:49 2020, MaxMem= 1073741824 cpu:       0.9
 (Enter /home/matheus/.gaussian/g09/l303.exe)
 DipDrv:  MaxL=1.
 Leave Link  303 at Mon May 11 12:31:49 2020, MaxMem= 1073741824 cpu:       0.2
 (Enter /home/matheus/.gaussian/g09/l401.exe)
 Harris functional with IExCor=10402 diagonalized for initial guess.
 ExpMin= 2.53D-02 ExpMax= 1.17D+07 ExpMxC= 1.33D+04 IAcc=3 IRadAn=         5 AccDes= 0.00D+00
 HarFok:  IExCor=10402 AccDes= 0.00D+00 IRadAn=         5 IDoV= 1
 ScaDFX=  1.000000  1.000000  1.000000  1.000000
 FoFCou: FMM=F IPFlag=           0 FMFlag=      100000 FMFlg1=           0
         NFxFlg=           0 DoJE=T BraDBF=F KetDBF=T FulRan=T
         Omega=  0.000000  0.000000  1.000000  0.000000  0.000000 ICntrl=     500 IOpCl=  0
         NMat0=    1 NMatS0=    1 NMatT0=    0 NMatD0=    1 NMtDS0=    0 NMtDT0=    0
         I1Cent=           4 NGrid=           0.
 Petite list used in FoFCou.
 Harris En= -143.229233895189    
 Initial guess orbital symmetries:
       Occupied  (A) (A) (A) (A) (A) (A) (A) (A) (A)
       Virtual   (A) (A) (A) (A) (A) (A) (A) (A) (A) (A) (A) (A)
                 (A) (A) (A) (A) (A) (A) (A) (A) (A) (A) (A) (A)
                 (A) (A) (A) (A) (A) (A) (A) (A) (A) (A) (A) (A)
                 (A) (A) (A) (A) (A) (A) (A) (A) (A) (A) (A) (A)
                 (A) (A) (A) (A) (A) (A) (A) (A) (A) (A) (A) (A)
                 (A) (A) (A) (A) (A) (A) (A) (A) (A) (A) (A) (A)
                 (A) (A) (A) (A) (A) (A) (A) (A) (A) (A) (A) (A)
                 (A) (A) (A) (A) (A) (A) (A) (A) (A) (A) (A) (A)
                 (A) (A) (A) (A) (A) (A) (A) (A) (A) (A) (A) (A)
                 (A) (A) (A) (A) (A) (A) (A) (A) (A) (A) (A) (A)
                 (A) (A) (A) (A) (A) (A) (A) (A) (A) (A) (A) (A)
                 (A) (A) (A) (A) (A) (A) (A) (A) (A) (A) (A) (A)
                 (A) (A) (A) (A) (A) (A) (A) (A) (A) (A) (A) (A)
                 (A) (A) (A) (A) (A) (A) (A) (A) (A) (A) (A) (A)
                 (A) (A) (A) (A) (A) (A) (A) (A) (A) (A) (A) (A)
                 (A) (A) (A) (A) (A) (A) (A) (A)
 The electronic state of the initial guess is 1-A.
 Leave Link  401 at Mon May 11 12:31:50 2020, MaxMem= 1073741824 cpu:       3.9
 (Enter /home/matheus/.gaussian/g09/l502.exe)
 Closed shell SCF:
 Requested convergence on RMS density matrix=1.00D-08 within 128 cycles.
 Requested convergence on MAX density matrix=1.00D-06.
 Requested convergence on             energy=1.00D-06.
 No special actions if energy rises.
 Using DIIS extrapolation, IDIIS=  1040.
 Integral symmetry usage will be decided dynamically.
       126521 words used for storage of precomputed grid.
 IEnd=      305468 IEndB=      305468 NGot=  1073741824 MDV=  1073505667
 LenX=  1073505667 LenY=  1073452785
 Fock matrices will be formed incrementally for  20 cycles.

 Cycle   1  Pass 1  IDiag  1:
 FoFJK:  IHMeth= 1 ICntrl=     0 DoSepK=T KAlg= 1 I1Cent= 0 FoldK=F
 FoFCou: FMM=F IPFlag=           0 FMFlag=      100000 FMFlg1=           0
         NFxFlg=           0 DoJE=T BraDBF=F KetDBF=F FulRan=T
         Omega=  0.000000  0.000000  1.000000  0.000000  0.000000 ICntrl=     500 IOpCl=  0
         NMat0=    1 NMatS0=    1 NMatT0=    0 NMatD0=    1 NMtDS0=    0 NMtDT0=    0
         I1Cent=           0 NGrid=           0.
 Symmetry not used in FoFCou.
 E= -145.616541254335    
 DIIS: error= 1.15D-01 at cycle   1 NSaved=   1.
 NSaved= 1 IEnMin= 1 EnMin= -145.616541254335     IErMin= 1 ErrMin= 1.15D-01
 ErrMax= 1.15D-01 EMaxC= 1.00D-01 BMatC= 2.73D+00 BMatP= 2.73D+00
 IDIUse=3 WtCom= 0.00D+00 WtEn= 1.00D+00
 Coeff-Com:  0.100D+01
 Coeff-En:   0.100D+01
 Coeff:      0.100D+01
 Gap=    -1.019 Goal=   None    Shift=    0.000
 GapD=   -1.019 DampG=0.250 DampE=0.250 DampFc=0.2500 IDamp=-1.
 Damping current iteration by 2.50D-01
 RMSDP=1.06D-01 MaxDP=9.02D+00              OVMax= 9.98D-01

 Cycle   2  Pass 1  IDiag  1:
 RMSU=  1.82D-03    CP:  7.52D-01
 FoFJK:  IHMeth= 1 ICntrl=     0 DoSepK=T KAlg= 1 I1Cent= 0 FoldK=F
 E= -147.744167284195     Delta-E=       -2.127626029860 Rises=F Damp=T
 DIIS: error= 6.01D-02 at cycle   2 NSaved=   2.
 NSaved= 2 IEnMin= 2 EnMin= -147.744167284195     IErMin= 2 ErrMin= 6.01D-02
 ErrMax= 6.01D-02 EMaxC= 1.00D-01 BMatC= 7.23D-01 BMatP= 2.73D+00
 IDIUse=3 WtCom= 3.99D-01 WtEn= 6.01D-01
 Coeff-Com: -0.965D+00 0.197D+01
 Coeff-En:   0.000D+00 0.100D+01
 Coeff:     -0.385D+00 0.139D+01
 Gap=     0.362 Goal=   None    Shift=    0.000
 RMSDP=7.97D-02 MaxDP=6.77D+00 DE=-2.13D+00 OVMax= 1.35D-01

 Cycle   3  Pass 1  IDiag  1:
 RMSU=  2.21D-03    CP:  6.51D-03  3.00D+00
 FoFJK:  IHMeth= 1 ICntrl=     0 DoSepK=T KAlg= 1 I1Cent= 0 FoldK=F
 E= -150.567110619289     Delta-E=       -2.822943335094 Rises=F Damp=F
 DIIS: error= 4.97D-02 at cycle   3 NSaved=   3.
 NSaved= 3 IEnMin= 3 EnMin= -150.567110619289     IErMin= 3 ErrMin= 4.97D-02
 ErrMax= 4.97D-02 EMaxC= 1.00D-01 BMatC= 9.10D-01 BMatP= 7.23D-01
 IDIUse=2 WtCom= 0.00D+00 WtEn= 1.00D+00
 Coeff-En:   0.000D+00 0.000D+00 0.100D+01
 Coeff:      0.000D+00 0.000D+00 0.100D+01
 Gap=     0.804 Goal=   None    Shift=    0.000
 RMSDP=4.18D-03 MaxDP=1.44D-01 DE=-2.82D+00 OVMax= 2.97D-01

 Cycle   4  Pass 1  IDiag  1:
 RMSU=  2.92D-03    CP:  7.03D-03  3.00D+00  1.21D+00
 FoFJK:  IHMeth= 1 ICntrl=     0 DoSepK=T KAlg= 1 I1Cent= 0 FoldK=F
 E= -150.916364572173     Delta-E=       -0.349253952884 Rises=F Damp=F
 DIIS: error= 3.50D-02 at cycle   4 NSaved=   4.
 NSaved= 4 IEnMin= 4 EnMin= -150.916364572173     IErMin= 4 ErrMin= 3.50D-02
 ErrMax= 3.50D-02 EMaxC= 1.00D-01 BMatC= 4.45D-01 BMatP= 7.23D-01
 IDIUse=3 WtCom= 6.50D-01 WtEn= 3.50D-01
 Coeff-Com: -0.394D+00 0.661D+00 0.221D+00 0.512D+00
 Coeff-En:   0.000D+00 0.000D+00 0.232D+00 0.768D+00
 Coeff:     -0.256D+00 0.429D+00 0.225D+00 0.602D+00
 Gap=     0.573 Goal=   None    Shift=    0.000
 RMSDP=2.01D-03 MaxDP=5.62D-02 DE=-3.49D-01 OVMax= 1.50D-01

 Cycle   5  Pass 1  IDiag  1:
 RMSU=  3.96D-04    CP:  6.56D-03  3.00D+00  1.22D+00  5.32D-01
 FoFJK:  IHMeth= 1 ICntrl=     0 DoSepK=T KAlg= 1 I1Cent= 0 FoldK=F
 E= -151.192385646756     Delta-E=       -0.276021074583 Rises=F Damp=F
 DIIS: error= 8.31D-03 at cycle   5 NSaved=   5.
 NSaved= 5 IEnMin= 5 EnMin= -151.192385646756     IErMin= 5 ErrMin= 8.31D-03
 ErrMax= 8.31D-03 EMaxC= 1.00D-01 BMatC= 2.50D-02 BMatP= 4.45D-01
 IDIUse=3 WtCom= 9.17D-01 WtEn= 8.31D-02
 Coeff-Com: -0.928D-01 0.167D+00-0.142D+00 0.692D-01 0.999D+00
 Coeff-En:   0.000D+00 0.000D+00 0.000D+00 0.000D+00 0.100D+01
 Coeff:     -0.851D-01 0.153D+00-0.131D+00 0.635D-01 0.999D+00
 Gap=     0.532 Goal=   None    Shift=    0.000
 RMSDP=4.09D-04 MaxDP=1.46D-02 DE=-2.76D-01 OVMax= 2.53D-02

 Cycle   6  Pass 1  IDiag  1:
 RMSU=  8.67D-05    CP:  6.64D-03  3.00D+00  1.24D+00  6.24D-01  1.09D+00
 FoFJK:  IHMeth= 1 ICntrl=     0 DoSepK=T KAlg= 1 I1Cent= 0 FoldK=F
 E= -151.209775356242     Delta-E=       -0.017389709487 Rises=F Damp=F
 DIIS: error= 1.77D-03 at cycle   6 NSaved=   6.
 NSaved= 6 IEnMin= 6 EnMin= -151.209775356242     IErMin= 6 ErrMin= 1.77D-03
 ErrMax= 1.77D-03 EMaxC= 1.00D-01 BMatC= 9.22D-04 BMatP= 2.50D-02
 IDIUse=3 WtCom= 9.82D-01 WtEn= 1.77D-02
 Coeff-Com: -0.333D-01 0.639D-01-0.345D-02-0.194D-01-0.341D+00 0.133D+01
 Coeff-En:   0.000D+00 0.000D+00 0.000D+00 0.000D+00 0.000D+00 0.100D+01
 Coeff:     -0.327D-01 0.628D-01-0.338D-02-0.191D-01-0.335D+00 0.133D+01
 Gap=     0.528 Goal=   None    Shift=    0.000
 RMSDP=8.95D-05 MaxDP=2.12D-03 DE=-1.74D-02 OVMax= 5.09D-03

 Cycle   7  Pass 1  IDiag  1:
 RMSU=  2.52D-05    CP:  6.66D-03  3.00D+00  1.24D+00  6.39D-01  1.12D+00
                    CP:  1.43D+00
 FoFJK:  IHMeth= 1 ICntrl=     0 DoSepK=T KAlg= 1 I1Cent= 0 FoldK=F
 E= -151.210432885196     Delta-E=       -0.000657528954 Rises=F Damp=F
 DIIS: error= 9.17D-04 at cycle   7 NSaved=   7.
 NSaved= 7 IEnMin= 7 EnMin= -151.210432885196     IErMin= 7 ErrMin= 9.17D-04
 ErrMax= 9.17D-04 EMaxC= 1.00D-01 BMatC= 2.66D-04 BMatP= 9.22D-04
 IDIUse=3 WtCom= 9.91D-01 WtEn= 9.17D-03
 Coeff-Com: -0.381D-02 0.757D-02 0.600D-02 0.723D-02-0.906D-01-0.342D+00
 Coeff-Com:  0.142D+01
 Coeff-En:   0.000D+00 0.000D+00 0.000D+00 0.000D+00 0.000D+00 0.000D+00
 Coeff-En:   0.100D+01
 Coeff:     -0.378D-02 0.750D-02 0.595D-02 0.716D-02-0.898D-01-0.339D+00
 Coeff:      0.141D+01
 Gap=     0.523 Goal=   None    Shift=    0.000
 RMSDP=7.05D-05 MaxDP=1.79D-03 DE=-6.58D-04 OVMax= 4.23D-03

 Cycle   8  Pass 1  IDiag  1:
 RMSU=  9.05D-06    CP:  6.69D-03  3.00D+00  1.24D+00  6.53D-01  1.11D+00
                    CP:  1.67D+00  1.69D+00
 FoFJK:  IHMeth= 1 ICntrl=     0 DoSepK=T KAlg= 1 I1Cent= 0 FoldK=F
 E= -151.210672314890     Delta-E=       -0.000239429694 Rises=F Damp=F
 DIIS: error= 1.12D-04 at cycle   8 NSaved=   8.
 NSaved= 8 IEnMin= 8 EnMin= -151.210672314890     IErMin= 8 ErrMin= 1.12D-04
 ErrMax= 1.12D-04 EMaxC= 1.00D-01 BMatC= 3.46D-06 BMatP= 2.66D-04
 IDIUse=3 WtCom= 9.99D-01 WtEn= 1.12D-03
 Coeff-Com: -0.331D-03 0.510D-03-0.161D-02 0.226D-02 0.363D-01-0.443D-01
 Coeff-Com: -0.230D+00 0.124D+01
 Coeff-En:   0.000D+00 0.000D+00 0.000D+00 0.000D+00 0.000D+00 0.000D+00
 Coeff-En:   0.000D+00 0.100D+01
 Coeff:     -0.331D-03 0.509D-03-0.161D-02 0.226D-02 0.363D-01-0.443D-01
 Coeff:     -0.230D+00 0.124D+01
 Gap=     0.523 Goal=   None    Shift=    0.000
 RMSDP=1.23D-05 MaxDP=3.07D-04 DE=-2.39D-04 OVMax= 7.79D-04

 Cycle   9  Pass 1  IDiag  1:
 RMSU=  1.61D-06    CP:  6.69D-03  3.00D+00  1.24D+00  6.55D-01  1.10D+00
                    CP:  1.69D+00  1.85D+00  1.34D+00
 FoFJK:  IHMeth= 1 ICntrl=     0 DoSepK=T KAlg= 1 I1Cent= 0 FoldK=F
 E= -151.210676650739     Delta-E=       -0.000004335849 Rises=F Damp=F
 DIIS: error= 1.02D-05 at cycle   9 NSaved=   9.
 NSaved= 9 IEnMin= 9 EnMin= -151.210676650739     IErMin= 9 ErrMin= 1.02D-05
 ErrMax= 1.02D-05 EMaxC= 1.00D-01 BMatC= 2.39D-08 BMatP= 3.46D-06
 IDIUse=1 WtCom= 1.00D+00 WtEn= 0.00D+00
 Coeff-Com: -0.376D-04 0.492D-04 0.939D-04-0.315D-03-0.467D-02 0.634D-02
 Coeff-Com:  0.410D-01-0.300D+00 0.126D+01
 Coeff:     -0.376D-04 0.492D-04 0.939D-04-0.315D-03-0.467D-02 0.634D-02
 Coeff:      0.410D-01-0.300D+00 0.126D+01
 Gap=     0.523 Goal=   None    Shift=    0.000
 RMSDP=1.43D-06 MaxDP=3.65D-05 DE=-4.34D-06 OVMax= 1.68D-04

 Cycle  10  Pass 1  IDiag  1:
 RMSU=  5.39D-07    CP:  6.69D-03  3.00D+00  1.24D+00  6.55D-01  1.10D+00
                    CP:  1.69D+00  1.87D+00  1.35D+00  1.43D+00
 FoFJK:  IHMeth= 1 ICntrl=     0 DoSepK=T KAlg= 1 I1Cent= 0 FoldK=F
 E= -151.210676720502     Delta-E=       -0.000000069763 Rises=F Damp=F
 DIIS: error= 3.81D-06 at cycle  10 NSaved=  10.
 NSaved=10 IEnMin=10 EnMin= -151.210676720502     IErMin=10 ErrMin= 3.81D-06
 ErrMax= 3.81D-06 EMaxC= 1.00D-01 BMatC= 2.85D-09 BMatP= 2.39D-08
 IDIUse=1 WtCom= 1.00D+00 WtEn= 0.00D+00
 Coeff-Com:  0.461D-04-0.843D-04 0.472D-04-0.200D-04-0.550D-03-0.232D-02
 Coeff-Com:  0.783D-02 0.405D-02-0.390D+00 0.138D+01
 Coeff:      0.461D-04-0.843D-04 0.472D-04-0.200D-04-0.550D-03-0.232D-02
 Coeff:      0.783D-02 0.405D-02-0.390D+00 0.138D+01
 Gap=     0.523 Goal=   None    Shift=    0.000
 RMSDP=6.48D-07 MaxDP=1.41D-05 DE=-6.98D-08 OVMax= 9.06D-05

 Cycle  11  Pass 1  IDiag  1:
 RMSU=  1.20D-07    CP:  6.69D-03  3.00D+00  1.24D+00  6.55D-01  1.10D+00
                    CP:  1.69D+00  1.87D+00  1.35D+00  1.57D+00  1.63D+00
 FoFJK:  IHMeth= 1 ICntrl=     0 DoSepK=T KAlg= 1 I1Cent= 0 FoldK=F
 E= -151.210676732273     Delta-E=       -0.000000011771 Rises=F Damp=F
 DIIS: error= 1.47D-06 at cycle  11 NSaved=  11.
 NSaved=11 IEnMin=11 EnMin= -151.210676732273     IErMin=11 ErrMin= 1.47D-06
 ErrMax= 1.47D-06 EMaxC= 1.00D-01 BMatC= 8.50D-10 BMatP= 2.85D-09
 IDIUse=1 WtCom= 1.00D+00 WtEn= 0.00D+00
 Coeff-Com:  0.130D-04-0.223D-04-0.132D-04 0.360D-04 0.665D-03-0.136D-02
 Coeff-Com: -0.307D-02 0.345D-01-0.186D+00 0.460D-01 0.111D+01
 Coeff:      0.130D-04-0.223D-04-0.132D-04 0.360D-04 0.665D-03-0.136D-02
 Coeff:     -0.307D-02 0.345D-01-0.186D+00 0.460D-01 0.111D+01
 Gap=     0.523 Goal=   None    Shift=    0.000
 RMSDP=2.61D-07 MaxDP=7.54D-06 DE=-1.18D-08 OVMax= 3.48D-05

 Cycle  12  Pass 1  IDiag  1:
 RMSU=  4.86D-08    CP:  6.69D-03  3.00D+00  1.24D+00  6.55D-01  1.10D+00
                    CP:  1.69D+00  1.87D+00  1.35D+00  1.60D+00  1.87D+00
                    CP:  1.45D+00
 FoFJK:  IHMeth= 1 ICntrl=     0 DoSepK=T KAlg= 1 I1Cent= 0 FoldK=F
 E= -151.210676733910     Delta-E=       -0.000000001637 Rises=F Damp=F
 DIIS: error= 5.66D-07 at cycle  12 NSaved=  12.
 NSaved=12 IEnMin=12 EnMin= -151.210676733910     IErMin=12 ErrMin= 5.66D-07
 ErrMax= 5.66D-07 EMaxC= 1.00D-01 BMatC= 1.44D-10 BMatP= 8.50D-10
 IDIUse=1 WtCom= 1.00D+00 WtEn= 0.00D+00
 Coeff-Com: -0.820D-06 0.214D-05-0.129D-04 0.160D-04 0.342D-03-0.219D-03
 Coeff-Com: -0.177D-02 0.893D-02 0.825D-02-0.246D+00 0.443D+00 0.788D+00
 Coeff:     -0.820D-06 0.214D-05-0.129D-04 0.160D-04 0.342D-03-0.219D-03
 Coeff:     -0.177D-02 0.893D-02 0.825D-02-0.246D+00 0.443D+00 0.788D+00
 Gap=     0.523 Goal=   None    Shift=    0.000
 RMSDP=7.86D-08 MaxDP=2.80D-06 DE=-1.64D-09 OVMax= 1.03D-05

 Cycle  13  Pass 1  IDiag  1:
 RMSU=  1.65D-08    CP:  6.69D-03  3.00D+00  1.24D+00  6.54D-01  1.10D+00
                    CP:  1.69D+00  1.88D+00  1.35D+00  1.61D+00  1.93D+00
                    CP:  1.69D+00  9.52D-01
 FoFJK:  IHMeth= 1 ICntrl=     0 DoSepK=T KAlg= 1 I1Cent= 0 FoldK=F
 E= -151.210676734064     Delta-E=       -0.000000000154 Rises=F Damp=F
 DIIS: error= 1.56D-07 at cycle  13 NSaved=  13.
 NSaved=13 IEnMin=13 EnMin= -151.210676734064     IErMin=13 ErrMin= 1.56D-07
 ErrMax= 1.56D-07 EMaxC= 1.00D-01 BMatC= 7.54D-12 BMatP= 1.44D-10
 IDIUse=1 WtCom= 1.00D+00 WtEn= 0.00D+00
 Coeff-Com: -0.189D-06 0.903D-07 0.326D-05-0.594D-05-0.131D-03 0.847D-04
 Coeff-Com:  0.101D-02-0.739D-02 0.304D-01 0.135D-01-0.183D+00-0.744D-01
 Coeff-Com:  0.122D+01
 Coeff:     -0.189D-06 0.903D-07 0.326D-05-0.594D-05-0.131D-03 0.847D-04
 Coeff:      0.101D-02-0.739D-02 0.304D-01 0.135D-01-0.183D+00-0.744D-01
 Coeff:      0.122D+01
 Gap=     0.523 Goal=   None    Shift=    0.000
 RMSDP=2.46D-08 MaxDP=5.86D-07 DE=-1.54D-10 OVMax= 2.65D-06

 Cycle  14  Pass 1  IDiag  1:
 RMSU=  6.05D-09    CP:  6.69D-03  3.00D+00  1.24D+00  6.54D-01  1.10D+00
                    CP:  1.69D+00  1.88D+00  1.35D+00  1.61D+00  1.94D+00
                    CP:  1.75D+00  1.07D+00  1.43D+00
 FoFJK:  IHMeth= 1 ICntrl=     0 DoSepK=T KAlg= 1 I1Cent= 0 FoldK=F
 E= -151.210676734102     Delta-E=       -0.000000000038 Rises=F Damp=F
 DIIS: error= 4.90D-08 at cycle  14 NSaved=  14.
 NSaved=14 IEnMin=14 EnMin= -151.210676734102     IErMin=14 ErrMin= 4.90D-08
 ErrMax= 4.90D-08 EMaxC= 1.00D-01 BMatC= 5.14D-13 BMatP= 7.54D-12
 IDIUse=1 WtCom= 1.00D+00 WtEn= 0.00D+00
 Coeff-Com: -0.146D-06 0.238D-06-0.385D-06 0.739D-06 0.239D-04-0.291D-05
 Coeff-Com: -0.283D-03 0.225D-02-0.119D-01 0.115D-01 0.322D-01-0.258D-01
 Coeff-Com: -0.420D+00 0.141D+01
 Coeff:     -0.146D-06 0.238D-06-0.385D-06 0.739D-06 0.239D-04-0.291D-05
 Coeff:     -0.283D-03 0.225D-02-0.119D-01 0.115D-01 0.322D-01-0.258D-01
 Coeff:     -0.420D+00 0.141D+01
 Gap=     0.523 Goal=   None    Shift=    0.000
 RMSDP=7.76D-09 MaxDP=2.20D-07 DE=-3.83D-11 OVMax= 9.43D-07

 SCF Done:  E(RLC-B+HF-LYP) =  -151.210676734     A.U. after   14 cycles
             Convg  =    0.7756D-08             -V/T =  2.0062
 KE= 1.502772716872D+02 PE=-4.315761176762D+02 EE= 9.344408107685D+01
 Leave Link  502 at Mon May 11 12:32:30 2020, MaxMem= 1073741824 cpu:     324.2
 (Enter /home/matheus/.gaussian/g09/l601.exe)
 Copying SCF densities to generalized density rwf, IOpCl= 0 IROHF=0.

 **********************************************************************

            Population analysis using the SCF density.

 **********************************************************************

 Orbital symmetries:
       Occupied  (A) (A) (A) (A) (A) (A) (A) (A) (A)
       Virtual   (A) (A) (A) (A) (A) (A) (A) (A) (A) (A) (A) (A)
                 (A) (A) (A) (A) (A) (A) (A) (A) (A) (A) (A) (A)
                 (A) (A) (A) (A) (A) (A) (A) (A) (A) (A) (A) (A)
                 (A) (A) (A) (A) (A) (A) (A) (A) (A) (A) (A) (A)
                 (A) (A) (A) (A) (A) (A) (A) (A) (A) (A) (A) (A)
                 (A) (A) (A) (A) (A) (A) (A) (A) (A) (A) (A) (A)
                 (A) (A) (A) (A) (A) (A) (A) (A) (A) (A) (A) (A)
                 (A) (A) (A) (A) (A) (A) (A) (A) (A) (A) (A) (A)
                 (A) (A) (A) (A) (A) (A) (A) (A) (A) (A) (A) (A)
                 (A) (A) (A) (A) (A) (A) (A) (A) (A) (A) (A) (A)
                 (A) (A) (A) (A) (A) (A) (A) (A) (A) (A) (A) (A)
                 (A) (A) (A) (A) (A) (A) (A) (A) (A) (A) (A) (A)
                 (A) (A) (A) (A) (A) (A) (A) (A) (A) (A) (A) (A)
                 (A) (A) (A) (A) (A) (A) (A) (A) (A) (A) (A) (A)
                 (A) (A) (A) (A) (A) (A) (A) (A) (A) (A) (A) (A)
                 (A) (A) (A) (A) (A) (A) (A) (A)
 The electronic state is 1-A.
 Alpha  occ. eigenvalues --  -19.48786 -19.48756  -1.46662  -1.21690  -0.78623
 Alpha  occ. eigenvalues --   -0.69066  -0.63433  -0.56039  -0.50597
 Alpha virt. eigenvalues --    0.01724   0.03523   0.06793   0.07731   0.09669
 Alpha virt. eigenvalues --    0.10038   0.12004   0.14080   0.16617   0.17238
 Alpha virt. eigenvalues --    0.18008   0.19720   0.21469   0.23629   0.25494
 Alpha virt. eigenvalues --    0.26452   0.28808   0.29552   0.32736   0.33105
 Alpha virt. eigenvalues --    0.34014   0.36024   0.37321   0.39954   0.40987
 Alpha virt. eigenvalues --    0.42941   0.44799   0.46541   0.47965   0.50375
 Alpha virt. eigenvalues --    0.53207   0.57408   0.61759   0.63818   0.68242
 Alpha virt. eigenvalues --    0.71860   0.75368   0.78403   0.79250   0.81330
 Alpha virt. eigenvalues --    0.82803   0.84544   0.88179   0.91500   0.91743
 Alpha virt. eigenvalues --    0.93549   0.94515   0.96933   0.97982   0.99903
 Alpha virt. eigenvalues --    1.02843   1.03582   1.05290   1.10609   1.12492
 Alpha virt. eigenvalues --    1.13535   1.16554   1.20161   1.22041   1.24986
 Alpha virt. eigenvalues --    1.29227   1.29443   1.30630   1.31214   1.33091
 Alpha virt. eigenvalues --    1.34138   1.34949   1.40642   1.40673   1.41996
 Alpha virt. eigenvalues --    1.49698   1.52326   1.54875   1.56364   1.58993
 Alpha virt. eigenvalues --    1.62632   1.67585   1.68609   1.78099   1.81666
 Alpha virt. eigenvalues --    1.86886   1.93829   2.02280   2.07009   2.12654
 Alpha virt. eigenvalues --    2.15716   2.20342   2.25250   2.29686   2.32452
 Alpha virt. eigenvalues --    2.38475   2.40170   2.43105   2.46806   2.47513
 Alpha virt. eigenvalues --    2.61408   2.65364   2.67856   2.72066   2.72889
 Alpha virt. eigenvalues --    2.76922   2.86418   2.94506   3.00630   3.06316
 Alpha virt. eigenvalues --    3.12105   3.21864   3.23267   3.25038   3.29968
 Alpha virt. eigenvalues --    3.43433   3.58079   3.73681   3.76788   3.77794
 Alpha virt. eigenvalues --    3.79192   3.81074   3.81414   3.81592   3.87542
 Alpha virt. eigenvalues --    3.90460   3.90979   3.93962   3.97798   4.01438
 Alpha virt. eigenvalues --    4.11746   4.13885   4.15924   4.19922   4.25347
 Alpha virt. eigenvalues --    4.28224   4.36950   4.39498   4.42624   4.46875
 Alpha virt. eigenvalues --    4.54236   4.66700   4.78781   4.87668   5.12822
 Alpha virt. eigenvalues --    5.17229   5.18335   5.28680   5.35177   5.36426
 Alpha virt. eigenvalues --    5.65526   6.07190   6.23477   6.36952   6.40336
 Alpha virt. eigenvalues --    6.52337   6.60093   6.65535   6.76328   6.89097
 Alpha virt. eigenvalues --    7.01921   7.04404   7.08625   7.10624   7.14906
 Alpha virt. eigenvalues --    7.15720   7.19363   7.19773   7.28317   7.34914
 Alpha virt. eigenvalues --    7.40707   7.48923   7.73391   7.76054   8.08889
 Alpha virt. eigenvalues --    8.32879   8.38921  10.95170  14.31334  14.81903
 Alpha virt. eigenvalues --   14.83320  14.89513  15.10801  29.01496  29.01840
 Alpha virt. eigenvalues --   29.06307  29.13239  29.21624  49.13597 148.30194
 Alpha virt. eigenvalues --  148.39009 148.70479 752.63592
          Condensed to atoms (all electrons):
              1          2          3          4          5
     1  O    8.215730  -0.189507   0.187728   0.007012   0.002453
     2  O   -0.189507   8.230153   0.019482   0.182522  -0.001676
     3  H    0.187728   0.019482   0.572338  -0.003345  -0.001563
     4  H    0.007012   0.182522  -0.003345   0.581114  -0.003364
     5  Kr   0.002453  -0.001676  -0.001563  -0.003364   0.001182
 Mulliken atomic charges:
              1
     1  O   -0.223416
     2  O   -0.240974
     3  H    0.225360
     4  H    0.236061
     5  Kr   0.002969
 Sum of Mulliken atomic charges =   0.00000
 Mulliken charges with hydrogens summed into heavy atoms:
              1
     1  O    0.001944
     2  O   -0.004913
     5  Kr   0.002969
 Sum of Mulliken charges with hydrogens summed into heavy atoms =   0.00000
          Condensed to fragments (all electrons):
     1      -0.002969
     2       0.002969
 Electronic spatial extent (au):  <R**2>=            318.3747
 Charge=              0.0000 electrons
 Dipole moment (field-independent basis, Debye):
    X=             -2.5347    Y=             -0.1344    Z=              1.4982  Tot=              2.9475
 Quadrupole moment (field-independent basis, Debye-Ang):
   XX=            -20.2836   YY=            -10.0761   ZZ=            -11.4944
   XY=             -1.3134   XZ=              2.0824   YZ=             -1.7332
 Traceless Quadrupole moment (field-independent basis, Debye-Ang):
   XX=             -6.3322   YY=              3.8753   ZZ=              2.4569
   XY=             -1.3134   XZ=              2.0824   YZ=             -1.7332
 Octapole moment (field-independent basis, Debye-Ang**2):
  XXX=            -92.1293  YYY=             -0.8541  ZZZ=              0.9631  XYY=            -23.1493
  XXY=             -3.1378  XXZ=              2.8142  XZZ=            -23.0789  YZZ=             -1.4837
  YYZ=              2.1325  XYZ=             -2.7584
 Hexadecapole moment (field-independent basis, Debye-Ang**3):
 XXXX=           -341.3518 YYYY=            -43.4674 ZZZZ=            -10.6109 XXXY=             -5.1781
 XXXZ=              3.9302 YYYX=             -2.2997 YYYZ=             -2.5488 ZZZX=              1.8290
 ZZZY=             -1.6907 XXYY=            -60.6196 XXZZ=            -49.9555 YYZZ=             -9.5995
 XXYZ=             -4.5889 YYXZ=              3.3323 ZZXY=             -2.2610
 N-N= 3.664408817804D+01 E-N=-4.315761206466D+02  KE= 1.502772716872D+02
 No NMR shielding tensors so no spin-rotation constants.
 Leave Link  601 at Mon May 11 12:32:31 2020, MaxMem= 1073741824 cpu:       0.7
 (Enter /home/matheus/.gaussian/g09/l122.exe)
 Counterpoise: doing DCBS calculation for fragment   2 NewBq=T
 Leave Link  122 at Mon May 11 12:32:31 2020, MaxMem= 1073741824 cpu:       0.0
 (Enter /home/matheus/.gaussian/g09/l301.exe)
 Basis read from rwf:  (5D, 7F)
 No pseudopotential information found on rwf file.
 There are   197 symmetry adapted basis functions of A   symmetry.
 Integral buffers will be    131072 words long.
 Raffenetti 2 integral format.
 Two-electron integral symmetry is turned on.
   197 basis functions,   415 primitive gaussians,   229 cartesian basis functions
    18 alpha electrons       18 beta electrons
       nuclear repulsion energy         0.0000000000 Hartrees.
 IExCor=10402 DFT=T Ex=LC-B+HF Corr=LYP ExCW=0 ScaHFX=  1.000000
 ScaDFX=  1.000000  1.000000  1.000000  1.000000 ScalE2=  1.000000  1.000000
 IRadAn=      5 IRanWt=     -1 IRanGd=            0 ICorTp=0
  HFx wShort=  0.000000 wLong=  1.350000 cFull=  0.000000 cShort=  0.000000 cLong=  1.000000
  DFx wShort=  0.000000 wLong=  1.350000 cFull=  0.000000 cShort=  0.000000 cLong=  1.000000
 NAtoms=    5 NActive=    5 NUniq=    5 SFac= 1.00D+00 NAtFMM=   60 NAOKFM=F Big=F
 No density basis found on file   718.
 Leave Link  301 at Mon May 11 12:32:31 2020, MaxMem= 1073741824 cpu:       0.2
 (Enter /home/matheus/.gaussian/g09/l302.exe)
 NPDir=0 NMtPBC=     1 NCelOv=     1 NCel=       1 NClECP=     1 NCelD=      1
         NCelK=      1 NCelE2=     1 NClLst=     1 CellRange=     0.0.
 One-electron integrals computed using PRISM.
 NBasis=   197 RedAO= T  NBF=   197
 NBsUse=   197 1.00D-06 NBFU=   197
 Precomputing XC quadrature grid using
 IXCGrd= 2 IRadAn=           5 IRanWt=          -1 IRanGd=           0 AccXCQ= 0.00D+00.
 NRdTot=     427 NPtTot=      123512 NUsed=      126579 NTot=      126611
 NSgBfM=   229   229   229   229   229 NAtAll=     5     5.
 Leave Link  302 at Mon May 11 12:32:31 2020, MaxMem= 1073741824 cpu:       1.0
 (Enter /home/matheus/.gaussian/g09/l303.exe)
 DipDrv:  MaxL=1.
 Leave Link  303 at Mon May 11 12:32:31 2020, MaxMem= 1073741824 cpu:       0.3
 (Enter /home/matheus/.gaussian/g09/l401.exe)
 Harris functional with IExCor=10402 diagonalized for initial guess.
 ExpMin= 2.53D-02 ExpMax= 1.17D+07 ExpMxC= 1.33D+04 IAcc=3 IRadAn=         5 AccDes= 0.00D+00
 HarFok:  IExCor=10402 AccDes= 0.00D+00 IRadAn=         5 IDoV= 1
 ScaDFX=  1.000000  1.000000  1.000000  1.000000
 FoFCou: FMM=F IPFlag=           0 FMFlag=      100000 FMFlg1=           0
         NFxFlg=           0 DoJE=T BraDBF=F KetDBF=T FulRan=T
         Omega=  0.000000  0.000000  1.000000  0.000000  0.000000 ICntrl=     500 IOpCl=  0
         NMat0=    1 NMatS0=    1 NMatT0=    0 NMatD0=    1 NMtDS0=    0 NMtDT0=    0
         I1Cent=           4 NGrid=           0.
 Petite list used in FoFCou.
 Harris En= -2731.73461500705    
 Initial guess orbital symmetries:
       Occupied  (A) (A) (A) (A) (A) (A) (A) (A) (A) (A) (A) (A)
                 (A) (A) (A) (A) (A) (A)
       Virtual   (A) (A) (A) (A) (A) (A) (A) (A) (A) (A) (A) (A)
                 (A) (A) (A) (A) (A) (A) (A) (A) (A) (A) (A) (A)
                 (A) (A) (A) (A) (A) (A) (A) (A) (A) (A) (A) (A)
                 (A) (A) (A) (A) (A) (A) (A) (A) (A) (A) (A) (A)
                 (A) (A) (A) (A) (A) (A) (A) (A) (A) (A) (A) (A)
                 (A) (A) (A) (A) (A) (A) (A) (A) (A) (A) (A) (A)
                 (A) (A) (A) (A) (A) (A) (A) (A) (A) (A) (A) (A)
                 (A) (A) (A) (A) (A) (A) (A) (A) (A) (A) (A) (A)
                 (A) (A) (A) (A) (A) (A) (A) (A) (A) (A) (A) (A)
                 (A) (A) (A) (A) (A) (A) (A) (A) (A) (A) (A) (A)
                 (A) (A) (A) (A) (A) (A) (A) (A) (A) (A) (A) (A)
                 (A) (A) (A) (A) (A) (A) (A) (A) (A) (A) (A) (A)
                 (A) (A) (A) (A) (A) (A) (A) (A) (A) (A) (A) (A)
                 (A) (A) (A) (A) (A) (A) (A) (A) (A) (A) (A) (A)
                 (A) (A) (A) (A) (A) (A) (A) (A) (A) (A) (A)
 The electronic state of the initial guess is 1-A.
 Leave Link  401 at Mon May 11 12:32:31 2020, MaxMem= 1073741824 cpu:       3.8
 (Enter /home/matheus/.gaussian/g09/l502.exe)
 Closed shell SCF:
 Requested convergence on RMS density matrix=1.00D-08 within 128 cycles.
 Requested convergence on MAX density matrix=1.00D-06.
 Requested convergence on             energy=1.00D-06.
 No special actions if energy rises.
 Using DIIS extrapolation, IDIIS=  1040.
 Integral symmetry usage will be decided dynamically.
       126521 words used for storage of precomputed grid.
 IEnd=      305468 IEndB=      305468 NGot=  1073741824 MDV=  1073505667
 LenX=  1073505667 LenY=  1073452785
 Fock matrices will be formed incrementally for  20 cycles.

 Cycle   1  Pass 1  IDiag  1:
 FoFJK:  IHMeth= 1 ICntrl=     0 DoSepK=T KAlg= 1 I1Cent= 0 FoldK=F
 FoFCou: FMM=F IPFlag=           0 FMFlag=      100000 FMFlg1=           0
         NFxFlg=           0 DoJE=T BraDBF=F KetDBF=F FulRan=T
         Omega=  0.000000  0.000000  1.000000  0.000000  0.000000 ICntrl=     500 IOpCl=  0
         NMat0=    1 NMatS0=    1 NMatT0=    0 NMatD0=    1 NMtDS0=    0 NMtDT0=    0
         I1Cent=           0 NGrid=           0.
 Symmetry not used in FoFCou.
 E= -2752.70974619697    
 DIIS: error= 3.92D-02 at cycle   1 NSaved=   1.
 NSaved= 1 IEnMin= 1 EnMin= -2752.70974619697     IErMin= 1 ErrMin= 3.92D-02
 ErrMax= 3.92D-02 EMaxC= 1.00D-01 BMatC= 1.18D+00 BMatP= 1.18D+00
 IDIUse=3 WtCom= 6.08D-01 WtEn= 3.92D-01
 Coeff-Com:  0.100D+01
 Coeff-En:   0.100D+01
 Coeff:      0.100D+01
 Gap=     0.766 Goal=   None    Shift=    0.000
 GapD=    0.766 DampG=2.000 DampE=0.500 DampFc=1.0000 IDamp=-1.
 RMSDP=4.96D-03 MaxDP=2.26D-01              OVMax= 3.37D-01

 Cycle   2  Pass 1  IDiag  1:
 RMSU=  3.43D-03    CP:  1.05D+00
 FoFJK:  IHMeth= 1 ICntrl=     0 DoSepK=T KAlg= 1 I1Cent= 0 FoldK=F
 E= -2753.27685035201     Delta-E=       -0.567104155042 Rises=F Damp=F
 DIIS: error= 2.65D-02 at cycle   2 NSaved=   2.
 NSaved= 2 IEnMin= 2 EnMin= -2753.27685035201     IErMin= 2 ErrMin= 2.65D-02
 ErrMax= 2.65D-02 EMaxC= 1.00D-01 BMatC= 3.65D-01 BMatP= 1.18D+00
 IDIUse=3 WtCom= 7.35D-01 WtEn= 2.65D-01
 Coeff-Com:  0.351D+00 0.649D+00
 Coeff-En:   0.000D+00 0.100D+01
 Coeff:      0.258D+00 0.742D+00
 Gap=     0.605 Goal=   None    Shift=    0.000
 RMSDP=2.20D-03 MaxDP=1.33D-01 DE=-5.67D-01 OVMax= 7.30D-02

 Cycle   3  Pass 1  IDiag  1:
 RMSU=  8.57D-04    CP:  1.03D+00  6.32D-01
 FoFJK:  IHMeth= 1 ICntrl=     0 DoSepK=T KAlg= 1 I1Cent= 0 FoldK=F
 E= -2753.40767507425     Delta-E=       -0.130824722246 Rises=F Damp=F
 DIIS: error= 3.14D-03 at cycle   3 NSaved=   3.
 NSaved= 3 IEnMin= 3 EnMin= -2753.40767507425     IErMin= 3 ErrMin= 3.14D-03
 ErrMax= 3.14D-03 EMaxC= 1.00D-01 BMatC= 5.70D-03 BMatP= 3.65D-01
 IDIUse=3 WtCom= 9.69D-01 WtEn= 3.14D-02
 Coeff-Com: -0.912D-02 0.852D-01 0.924D+00
 Coeff-En:   0.000D+00 0.000D+00 0.100D+01
 Coeff:     -0.884D-02 0.825D-01 0.926D+00
 Gap=     0.575 Goal=   None    Shift=    0.000
 RMSDP=3.45D-04 MaxDP=1.52D-02 DE=-1.31D-01 OVMax= 1.06D-02

 Cycle   4  Pass 1  IDiag  1:
 RMSU=  2.25D-04    CP:  1.03D+00  6.58D-01  9.83D-01
 FoFJK:  IHMeth= 1 ICntrl=     0 DoSepK=T KAlg= 1 I1Cent= 0 FoldK=F
 E= -2753.40947053812     Delta-E=       -0.001795463869 Rises=F Damp=F
 DIIS: error= 3.46D-04 at cycle   4 NSaved=   4.
 NSaved= 4 IEnMin= 4 EnMin= -2753.40947053812     IErMin= 4 ErrMin= 3.46D-04
 ErrMax= 3.46D-04 EMaxC= 1.00D-01 BMatC= 3.67D-05 BMatP= 5.70D-03
 IDIUse=3 WtCom= 9.97D-01 WtEn= 3.46D-03
 Coeff-Com: -0.670D-02-0.422D-02-0.224D-02 0.101D+01
 Coeff-En:   0.000D+00 0.000D+00 0.000D+00 0.100D+01
 Coeff:     -0.667D-02-0.421D-02-0.223D-02 0.101D+01
 Gap=     0.581 Goal=   None    Shift=    0.000
 RMSDP=4.99D-05 MaxDP=2.24D-03 DE=-1.80D-03 OVMax= 3.47D-03

 Cycle   5  Pass 1  IDiag  1:
 RMSU=  2.02D-05    CP:  1.03D+00  6.61D-01  1.01D+00  1.08D+00
 FoFJK:  IHMeth= 1 ICntrl=     0 DoSepK=T KAlg= 1 I1Cent= 0 FoldK=F
 E= -2753.40953123524     Delta-E=       -0.000060697114 Rises=F Damp=F
 DIIS: error= 5.53D-05 at cycle   5 NSaved=   5.
 NSaved= 5 IEnMin= 5 EnMin= -2753.40953123524     IErMin= 5 ErrMin= 5.53D-05
 ErrMax= 5.53D-05 EMaxC= 1.00D-01 BMatC= 4.97D-07 BMatP= 3.67D-05
 IDIUse=1 WtCom= 1.00D+00 WtEn= 0.00D+00
 Coeff-Com: -0.810D-04-0.148D-02 0.124D-02-0.168D+00 0.117D+01
 Coeff:     -0.810D-04-0.148D-02 0.124D-02-0.168D+00 0.117D+01
 Gap=     0.581 Goal=   None    Shift=    0.000
 RMSDP=1.05D-05 MaxDP=4.45D-04 DE=-6.07D-05 OVMax= 6.34D-04

 Cycle   6  Pass 1  IDiag  1:
 RMSU=  9.81D-07    CP:  1.03D+00  6.62D-01  1.01D+00  1.10D+00  1.20D+00
 FoFJK:  IHMeth= 1 ICntrl=     0 DoSepK=T KAlg= 1 I1Cent= 0 FoldK=F
 E= -2753.40953264975     Delta-E=       -0.000001414509 Rises=F Damp=F
 DIIS: error= 2.04D-06 at cycle   6 NSaved=   6.
 NSaved= 6 IEnMin= 6 EnMin= -2753.40953264975     IErMin= 6 ErrMin= 2.04D-06
 ErrMax= 2.04D-06 EMaxC= 1.00D-01 BMatC= 9.90D-10 BMatP= 4.97D-07
 IDIUse=1 WtCom= 1.00D+00 WtEn= 0.00D+00
 Coeff-Com:  0.238D-04 0.114D-03-0.379D-03 0.119D-01-0.113D+00 0.110D+01
 Coeff:      0.238D-04 0.114D-03-0.379D-03 0.119D-01-0.113D+00 0.110D+01
 Gap=     0.581 Goal=   None    Shift=    0.000
 RMSDP=5.16D-07 MaxDP=2.32D-05 DE=-1.41D-06 OVMax= 2.33D-05

 Cycle   7  Pass 1  IDiag  1:
 RMSU=  6.05D-08    CP:  1.03D+00  6.62D-01  1.01D+00  1.10D+00  1.21D+00
                    CP:  1.13D+00
 FoFJK:  IHMeth= 1 ICntrl=     0 DoSepK=T KAlg= 1 I1Cent= 0 FoldK=F
 E= -2753.40953265051     Delta-E=       -0.000000000759 Rises=F Damp=F
 DIIS: error= 1.33D-07 at cycle   7 NSaved=   7.
 NSaved= 7 IEnMin= 7 EnMin= -2753.40953265051     IErMin= 7 ErrMin= 1.33D-07
 ErrMax= 1.33D-07 EMaxC= 1.00D-01 BMatC= 1.10D-11 BMatP= 9.90D-10
 IDIUse=1 WtCom= 1.00D+00 WtEn= 0.00D+00
 Coeff-Com:  0.273D-05 0.488D-05-0.355D-04 0.691D-03-0.353D-02-0.122D-01
 Coeff-Com:  0.102D+01
 Coeff:      0.273D-05 0.488D-05-0.355D-04 0.691D-03-0.353D-02-0.122D-01
 Coeff:      0.102D+01
 Gap=     0.581 Goal=   None    Shift=    0.000
 RMSDP=2.22D-08 MaxDP=1.02D-06 DE=-7.59D-10 OVMax= 1.32D-06

 Cycle   8  Pass 1  IDiag  1:
 RMSU=  9.04D-09    CP:  1.03D+00  6.62D-01  1.01D+00  1.10D+00  1.21D+00
                    CP:  1.14D+00  1.12D+00
 FoFJK:  IHMeth= 1 ICntrl=     0 DoSepK=T KAlg= 1 I1Cent= 0 FoldK=F
 E= -2753.40953265056     Delta-E=       -0.000000000058 Rises=F Damp=F
 DIIS: error= 3.29D-08 at cycle   8 NSaved=   8.
 NSaved= 8 IEnMin= 8 EnMin= -2753.40953265056     IErMin= 8 ErrMin= 3.29D-08
 ErrMax= 3.29D-08 EMaxC= 1.00D-01 BMatC= 4.56D-13 BMatP= 1.10D-11
 IDIUse=1 WtCom= 1.00D+00 WtEn= 0.00D+00
 Coeff-Com:  0.489D-07-0.210D-05 0.323D-05-0.218D-03 0.242D-02-0.285D-01
 Coeff-Com:  0.107D+00 0.919D+00
 Coeff:      0.489D-07-0.210D-05 0.323D-05-0.218D-03 0.242D-02-0.285D-01
 Coeff:      0.107D+00 0.919D+00
 Gap=     0.581 Goal=   None    Shift=    0.000
 RMSDP=4.60D-09 MaxDP=1.52D-07 DE=-5.82D-11 OVMax= 3.80D-07

 SCF Done:  E(RLC-B+HF-LYP) =  -2753.40953265     A.U. after    8 cycles
             Convg  =    0.4600D-08             -V/T =  2.0014
 KE= 2.749630711804D+03 PE=-6.579418026208D+03 EE= 1.076377781753D+03
 Leave Link  502 at Mon May 11 12:32:55 2020, MaxMem= 1073741824 cpu:     190.8
 (Enter /home/matheus/.gaussian/g09/l601.exe)
 Copying SCF densities to generalized density rwf, IOpCl= 0 IROHF=0.

 **********************************************************************

            Population analysis using the SCF density.

 **********************************************************************

 Orbital symmetries:
       Occupied  (A) (A) (A) (A) (A) (A) (A) (A) (A) (A) (A) (A)
                 (A) (A) (A) (A) (A) (A)
       Virtual   (A) (A) (A) (A) (A) (A) (A) (A) (A) (A) (A) (A)
                 (A) (A) (A) (A) (A) (A) (A) (A) (A) (A) (A) (A)
                 (A) (A) (A) (A) (A) (A) (A) (A) (A) (A) (A) (A)
                 (A) (A) (A) (A) (A) (A) (A) (A) (A) (A) (A) (A)
                 (A) (A) (A) (A) (A) (A) (A) (A) (A) (A) (A) (A)
                 (A) (A) (A) (A) (A) (A) (A) (A) (A) (A) (A) (A)
                 (A) (A) (A) (A) (A) (A) (A) (A) (A) (A) (A) (A)
                 (A) (A) (A) (A) (A) (A) (A) (A) (A) (A) (A) (A)
                 (A) (A) (A) (A) (A) (A) (A) (A) (A) (A) (A) (A)
                 (A) (A) (A) (A) (A) (A) (A) (A) (A) (A) (A) (A)
                 (A) (A) (A) (A) (A) (A) (A) (A) (A) (A) (A) (A)
                 (A) (A) (A) (A) (A) (A) (A) (A) (A) (A) (A) (A)
                 (A) (A) (A) (A) (A) (A) (A) (A) (A) (A) (A) (A)
                 (A) (A) (A) (A) (A) (A) (A) (A) (A) (A) (A) (A)
                 (A) (A) (A) (A) (A) (A) (A) (A) (A) (A) (A)
 The electronic state is 1-A.
 Alpha  occ. eigenvalues -- -511.65518 -67.17996 -60.85193 -60.85190 -60.85189
 Alpha  occ. eigenvalues --  -10.08107  -7.79670  -7.79669  -7.79669  -3.62633
 Alpha  occ. eigenvalues --   -3.62633  -3.62633  -3.62632  -3.62631  -1.17383
 Alpha  occ. eigenvalues --   -0.55371  -0.55366  -0.55364
 Alpha virt. eigenvalues --    0.02693   0.04792   0.07902   0.08748   0.11490
 Alpha virt. eigenvalues --    0.12081   0.13014   0.13118   0.15681   0.16814
 Alpha virt. eigenvalues --    0.17500   0.19013   0.20450   0.25606   0.26862
 Alpha virt. eigenvalues --    0.27456   0.28838   0.31404   0.33306   0.35286
 Alpha virt. eigenvalues --    0.35666   0.37622   0.38561   0.40063   0.41264
 Alpha virt. eigenvalues --    0.41620   0.44571   0.54272   0.56140   0.59829
 Alpha virt. eigenvalues --    0.60526   0.66072   0.68159   0.69289   0.72060
 Alpha virt. eigenvalues --    0.73195   0.76157   0.78149   0.79356   0.81356
 Alpha virt. eigenvalues --    0.81833   0.83694   0.85241   0.86665   0.88642
 Alpha virt. eigenvalues --    0.89290   0.90184   0.91023   0.92695   0.96891
 Alpha virt. eigenvalues --    0.98241   0.99917   1.01746   1.02569   1.04655
 Alpha virt. eigenvalues --    1.06195   1.08750   1.11220   1.14857   1.18806
 Alpha virt. eigenvalues --    1.19582   1.23406   1.25433   1.32531   1.33014
 Alpha virt. eigenvalues --    1.35524   1.39645   1.48747   1.49913   1.53110
 Alpha virt. eigenvalues --    1.55614   1.57964   1.62902   1.69887   1.78424
 Alpha virt. eigenvalues --    1.80902   1.82383   1.87146   1.95135   2.24657
 Alpha virt. eigenvalues --    2.29149   2.31202   2.33225   2.34580   2.36771
 Alpha virt. eigenvalues --    2.38549   2.41990   2.42730   2.46510   2.47155
 Alpha virt. eigenvalues --    2.48353   2.49393   2.52901   2.54543   2.57048
 Alpha virt. eigenvalues --    2.59279   2.63014   2.64955   2.66050   2.66465
 Alpha virt. eigenvalues --    2.68108   2.70706   2.75930   2.76872   2.79049
 Alpha virt. eigenvalues --    2.80336   2.85832   2.88341   2.90050   2.93511
 Alpha virt. eigenvalues --    2.99514   3.02312   3.06552   3.08759   3.17664
 Alpha virt. eigenvalues --    3.19243   3.27759   3.30950   3.39587   3.45214
 Alpha virt. eigenvalues --    3.60755   3.66050   3.81099   3.86028   4.02432
 Alpha virt. eigenvalues --    4.43744   4.49086   4.52038   4.58307   4.68742
 Alpha virt. eigenvalues --    4.74576   4.84111   4.86309   4.96688   5.09142
 Alpha virt. eigenvalues --    5.10735   5.26625   5.54347   5.68568   5.84023
 Alpha virt. eigenvalues --    5.87705   5.94707   6.15433   6.79163   6.81155
 Alpha virt. eigenvalues --    7.37189   7.44106   7.56176   7.66430   7.71676
 Alpha virt. eigenvalues --    7.80267   7.96862   8.15524   8.16537   8.23236
 Alpha virt. eigenvalues --    8.33810   8.49252   8.58711   8.89144   9.59493
 Alpha virt. eigenvalues --    9.74103   9.83158   9.85720   9.93992   9.97444
 Alpha virt. eigenvalues --   10.16233  10.23727  10.49899  10.93986  11.55784
 Alpha virt. eigenvalues --   11.59663  11.79163  12.00301  12.06921  13.19045
 Alpha virt. eigenvalues --   13.70345  14.51138  62.76678  64.66990
          Condensed to atoms (all electrons):
              1          2          3          4          5
     1  O    0.001200  -0.001365  -0.000529   0.000994  -0.007397
     2  O   -0.001365   0.005355   0.000465  -0.003938  -0.003150
     3  H   -0.000529   0.000465   0.000568  -0.000282  -0.003954
     4  H    0.000994  -0.003938  -0.000282   0.004159  -0.020741
     5  Kr  -0.007397  -0.003150  -0.003954  -0.020741  36.068512
 Mulliken atomic charges:
              1
     1  O    0.007097
     2  O    0.002633
     3  H    0.003732
     4  H    0.019808
     5  Kr  -0.033269
 Sum of Mulliken atomic charges =   0.00000
 Mulliken charges with hydrogens summed into heavy atoms:
              1
     1  O    0.010829
     2  O    0.022440
     5  Kr  -0.033269
 Sum of Mulliken charges with hydrogens summed into heavy atoms =   0.00000
          Condensed to fragments (all electrons):
     1       0.033269
     2      -0.033269
 Electronic spatial extent (au):  <R**2>=            161.3024
 Charge=              0.0000 electrons
 Dipole moment (field-independent basis, Debye):
    X=              0.0016    Y=              0.0005    Z=              0.0002  Tot=              0.0017
 Quadrupole moment (field-independent basis, Debye-Ang):
   XX=            -17.5612   YY=            -17.5739   ZZ=            -17.5823
   XY=              0.0023   XZ=              0.0024   YZ=             -0.0012
 Traceless Quadrupole moment (field-independent basis, Debye-Ang):
   XX=              0.0112   YY=             -0.0014   ZZ=             -0.0098
   XY=              0.0023   XZ=              0.0024   YZ=             -0.0012
 Octapole moment (field-independent basis, Debye-Ang**2):
  XXX=             51.3430  YYY=              0.2542  ZZZ=              0.1730  XYY=             17.1294
  XXY=              0.0787  XXZ=              0.0539  XZZ=             17.1344  YZZ=              0.0847
  YYZ=              0.0584  XYZ=              0.0002
 Hexadecapole moment (field-independent basis, Debye-Ang**3):
 XXXX=           -118.1161 YYYY=            -18.0843 ZZZZ=            -18.1134 XXXY=             -0.2355
 XXXZ=             -0.1606 YYYX=             -0.2378 YYYZ=             -0.0016 ZZZX=             -0.1641
 ZZZY=             -0.0017 XXYY=            -22.7120 XXZZ=            -22.7200 YYZZ=             -6.0320
 XXYZ=             -0.0019 YYXZ=             -0.0543 ZZXY=             -0.0786
 N-N= 0.000000000000D+00 E-N=-6.579418019069D+03  KE= 2.749630711804D+03
 No NMR shielding tensors so no spin-rotation constants.
 Leave Link  601 at Mon May 11 12:32:55 2020, MaxMem= 1073741824 cpu:       0.8
 (Enter /home/matheus/.gaussian/g09/l122.exe)
 Counterpoise: doing MCBS calculation for fragment   1
 Leave Link  122 at Mon May 11 12:32:55 2020, MaxMem= 1073741824 cpu:       0.0
 (Enter /home/matheus/.gaussian/g09/l301.exe)
 Basis read from rwf:  (5D, 7F)
 No pseudopotential information found on rwf file.
 There are   138 symmetry adapted basis functions of A   symmetry.
 Integral buffers will be    131072 words long.
 Raffenetti 2 integral format.
 Two-electron integral symmetry is turned on.
   138 basis functions,   198 primitive gaussians,   160 cartesian basis functions
     9 alpha electrons        9 beta electrons
       nuclear repulsion energy        36.6440881780 Hartrees.
 IExCor=10402 DFT=T Ex=LC-B+HF Corr=LYP ExCW=0 ScaHFX=  1.000000
 ScaDFX=  1.000000  1.000000  1.000000  1.000000 ScalE2=  1.000000  1.000000
 IRadAn=      5 IRanWt=     -1 IRanGd=            0 ICorTp=0
  HFx wShort=  0.000000 wLong=  1.350000 cFull=  0.000000 cShort=  0.000000 cLong=  1.000000
  DFx wShort=  0.000000 wLong=  1.350000 cFull=  0.000000 cShort=  0.000000 cLong=  1.000000
 NAtoms=    5 NActive=    4 NUniq=    4 SFac= 1.00D+00 NAtFMM=   60 NAOKFM=F Big=F
 No density basis found on file   718.
 Leave Link  301 at Mon May 11 12:32:55 2020, MaxMem= 1073741824 cpu:       0.2
 (Enter /home/matheus/.gaussian/g09/l302.exe)
 NPDir=0 NMtPBC=     1 NCelOv=     1 NCel=       1 NClECP=     1 NCelD=      1
         NCelK=      1 NCelE2=     1 NClLst=     1 CellRange=     0.0.
 One-electron integrals computed using PRISM.
 NBasis=   138 RedAO= T  NBF=   138
 NBsUse=   138 1.00D-06 NBFU=   138
 Precomputing XC quadrature grid using
 IXCGrd= 2 IRadAn=           5 IRanWt=          -1 IRanGd=           0 AccXCQ= 0.00D+00.
 NRdTot=     344 NPtTot=       92556 NUsed=       95038 NTot=       95070
 NSgBfM=   160   160   160   160   160 NAtAll=     4     4.
[...]
         NFxFlg=           0 DoJE=T BraDBF=F KetDBF=F FulRan=T
         Omega=  0.000000  0.000000  1.000000  0.000000  0.000000 ICntrl=     500 IOpCl=  0
         NMat0=    1 NMatS0=    1 NMatT0=    0 NMatD0=    1 NMtDS0=    0 NMtDT0=    0
         I1Cent=           0 NGrid=           0.
 Symmetry not used in FoFCou.
 E= -2753.40937572647    
 DIIS: error= 2.30D-04 at cycle   1 NSaved=   1.
 NSaved= 1 IEnMin= 1 EnMin= -2753.40937572647     IErMin= 1 ErrMin= 2.30D-04
 ErrMax= 2.30D-04 EMaxC= 1.00D-01 BMatC= 5.77D-06 BMatP= 5.77D-06
 IDIUse=3 WtCom= 9.98D-01 WtEn= 2.30D-03
 Coeff-Com:  0.100D+01
 Coeff-En:   0.100D+01
 Coeff:      0.100D+01
 Gap=     0.581 Goal=   None    Shift=    0.000
 RMSDP=1.45D-05 MaxDP=7.53D-04              OVMax= 3.60D-04

 Cycle   2  Pass 1  IDiag  1:
 RMSU=  1.03D-05    CP:  1.00D+00
 FoFJK:  IHMeth= 1 ICntrl=     0 DoSepK=T KAlg= 1 I1Cent= 0 FoldK=F
 E= -2753.40937647513     Delta-E=       -0.000000748666 Rises=F Damp=F
 DIIS: error= 4.09D-06 at cycle   2 NSaved=   2.
 NSaved= 2 IEnMin= 2 EnMin= -2753.40937647513     IErMin= 2 ErrMin= 4.09D-06
 ErrMax= 4.09D-06 EMaxC= 1.00D-01 BMatC= 4.99D-09 BMatP= 5.77D-06
 IDIUse=1 WtCom= 1.00D+00 WtEn= 0.00D+00
 Coeff-Com: -0.942D-02 0.101D+01
 Coeff:     -0.942D-02 0.101D+01
 Gap=     0.580 Goal=   None    Shift=    0.000
 RMSDP=1.56D-06 MaxDP=6.77D-05 DE=-7.49D-07 OVMax= 5.37D-05

 Cycle   3  Pass 1  IDiag  1:
 RMSU=  5.83D-07    CP:  1.00D+00  1.09D+00
 FoFJK:  IHMeth= 1 ICntrl=     0 DoSepK=T KAlg= 1 I1Cent= 0 FoldK=F
 E= -2753.40937648436     Delta-E=       -0.000000009231 Rises=F Damp=F
 DIIS: error= 6.81D-07 at cycle   3 NSaved=   3.
 NSaved= 3 IEnMin= 3 EnMin= -2753.40937648436     IErMin= 3 ErrMin= 6.81D-07
 ErrMax= 6.81D-07 EMaxC= 1.00D-01 BMatC= 1.18D-10 BMatP= 4.99D-09
 IDIUse=1 WtCom= 1.00D+00 WtEn= 0.00D+00
 Coeff-Com:  0.463D-03-0.135D+00 0.113D+01
 Coeff:      0.463D-03-0.135D+00 0.113D+01
 Gap=     0.580 Goal=   None    Shift=    0.000
 RMSDP=2.24D-07 MaxDP=1.04D-05 DE=-9.23D-09 OVMax= 1.06D-05

 Cycle   4  Pass 1  IDiag  1:
 RMSU=  5.32D-08    CP:  1.00D+00  1.10D+00  1.21D+00
 FoFJK:  IHMeth= 1 ICntrl=     0 DoSepK=T KAlg= 1 I1Cent= 0 FoldK=F
 E= -2753.40937648471     Delta-E=       -0.000000000343 Rises=F Damp=F
 DIIS: error= 1.83D-07 at cycle   4 NSaved=   4.
 NSaved= 4 IEnMin= 4 EnMin= -2753.40937648471     IErMin= 4 ErrMin= 1.83D-07
 ErrMax= 1.83D-07 EMaxC= 1.00D-01 BMatC= 6.05D-12 BMatP= 1.18D-10
 IDIUse=1 WtCom= 1.00D+00 WtEn= 0.00D+00
 Coeff-Com:  0.191D-03-0.350D-01 0.202D+00 0.832D+00
 Coeff:      0.191D-03-0.350D-01 0.202D+00 0.832D+00
 Gap=     0.580 Goal=   None    Shift=    0.000
 RMSDP=1.86D-08 MaxDP=7.30D-07 DE=-3.43D-10 OVMax= 8.62D-07

 Cycle   5  Pass 1  IDiag  1:
 RMSU=  7.02D-09    CP:  1.00D+00  1.10D+00  1.22D+00  1.13D+00
 FoFJK:  IHMeth= 1 ICntrl=     0 DoSepK=T KAlg= 1 I1Cent= 0 FoldK=F
 E= -2753.40937648474     Delta-E=       -0.000000000031 Rises=F Damp=F
 DIIS: error= 3.84D-08 at cycle   5 NSaved=   5.
 NSaved= 5 IEnMin= 5 EnMin= -2753.40937648474     IErMin= 5 ErrMin= 3.84D-08
 ErrMax= 3.84D-08 EMaxC= 1.00D-01 BMatC= 3.47D-13 BMatP= 6.05D-12
 IDIUse=1 WtCom= 1.00D+00 WtEn= 0.00D+00
 Coeff-Com: -0.301D-04 0.850D-02-0.727D-01 0.169D-01 0.105D+01
 Coeff:     -0.301D-04 0.850D-02-0.727D-01 0.169D-01 0.105D+01
 Gap=     0.580 Goal=   None    Shift=    0.000
 RMSDP=7.25D-09 MaxDP=3.69D-07 DE=-3.09D-11 OVMax= 4.24D-07

 SCF Done:  E(RLC-B+HF-LYP) =  -2753.40937648     A.U. after    5 cycles
             Convg  =    0.7245D-08             -V/T =  2.0014
 KE= 2.749687864616D+03 PE=-6.579480765911D+03 EE= 1.076383524810D+03
 Leave Link  502 at Mon May 11 12:55:13 2020, MaxMem= 1073741824 cpu:      92.1
 (Enter /home/matheus/.gaussian/g09/l122.exe)
 Restoring MOs from calculation   4 to rwf.
 Counterpoise: doing MCBS calculation for fragment   1
 Leave Link  122 at Mon May 11 12:55:13 2020, MaxMem= 1073741824 cpu:       0.0
 (Enter /home/matheus/.gaussian/g09/l301.exe)
 Basis read from rwf:  (5D, 7F)
 No pseudopotential information found on rwf file.
 There are   138 symmetry adapted basis functions of A   symmetry.
 Integral buffers will be    131072 words long.
 Raffenetti 2 integral format.
 Two-electron integral symmetry is turned on.
   138 basis functions,   198 primitive gaussians,   160 cartesian basis functions
     9 alpha electrons        9 beta electrons
       nuclear repulsion energy        36.6440881780 Hartrees.
 IExCor=10402 DFT=T Ex=LC-B+HF Corr=LYP ExCW=0 ScaHFX=  1.000000
 ScaDFX=  1.000000  1.000000  1.000000  1.000000 ScalE2=  1.000000  1.000000
 IRadAn=      5 IRanWt=     -1 IRanGd=            0 ICorTp=0
  HFx wShort=  0.000000 wLong=  1.350000 cFull=  0.000000 cShort=  0.000000 cLong=  1.000000
  DFx wShort=  0.000000 wLong=  1.350000 cFull=  0.000000 cShort=  0.000000 cLong=  1.000000
 NAtoms=    5 NActive=    4 NUniq=    4 SFac= 1.00D+00 NAtFMM=   60 NAOKFM=F Big=F
 No density basis found on file   718.
 Leave Link  301 at Mon May 11 12:55:13 2020, MaxMem= 1073741824 cpu:       0.2
 (Enter /home/matheus/.gaussian/g09/l302.exe)
 NPDir=0 NMtPBC=     1 NCelOv=     1 NCel=       1 NClECP=     1 NCelD=      1
         NCelK=      1 NCelE2=     1 NClLst=     1 CellRange=     0.0.
 One-electron integrals computed using PRISM.
 NBasis=   138 RedAO= T  NBF=   138
 NBsUse=   138 1.00D-06 NBFU=   138
 Precomputing XC quadrature grid using
 IXCGrd= 2 IRadAn=           5 IRanWt=          -1 IRanGd=           0 AccXCQ= 0.00D+00.
 NRdTot=     344 NPtTot=       92556 NUsed=       95038 NTot=       95070
 NSgBfM=   160   160   160   160   160 NAtAll=     4     4.
 Leave Link  302 at Mon May 11 12:55:13 2020, MaxMem= 1073741824 cpu:       0.7
 (Enter /home/matheus/.gaussian/g09/l303.exe)
 DipDrv:  MaxL=1.
 Leave Link  303 at Mon May 11 12:55:13 2020, MaxMem= 1073741824 cpu:       0.1
 (Enter /home/matheus/.gaussian/g09/l401.exe)
 Initial guess read from the read-write file.
 Guess basis will be translated and rotated to current coordinates.
 Initial guess orbital symmetries:
       Occupied  (A) (A) (A) (A) (A) (A) (A) (A) (A)
       Virtual   (A) (A) (A) (A) (A) (A) (A) (A) (A) (A) (A) (A)
                 (A) (A) (A) (A) (A) (A) (A) (A) (A) (A) (A) (A)
                 (A) (A) (A) (A) (A) (A) (A) (A) (A) (A) (A) (A)
                 (A) (A) (A) (A) (A) (A) (A) (A) (A) (A) (A) (A)
                 (A) (A) (A) (A) (A) (A) (A) (A) (A) (A) (A) (A)
                 (A) (A) (A) (A) (A) (A) (A) (A) (A) (A) (A) (A)
                 (A) (A) (A) (A) (A) (A) (A) (A) (A) (A) (A) (A)
                 (A) (A) (A) (A) (A) (A) (A) (A) (A) (A) (A) (A)
                 (A) (A) (A) (A) (A) (A) (A) (A) (A) (A) (A) (A)
                 (A) (A) (A) (A) (A) (A) (A) (A) (A) (A) (A) (A)
                 (A) (A) (A) (A) (A) (A) (A) (A) (A)
 The electronic state of the initial guess is 1-A.
 Generating alternative initial guess.
 Harris functional with IExCor=10402 diagonalized for initial guess.
 ExpMin= 2.53D-02 ExpMax= 1.53D+04 ExpMxC= 5.22D+02 IAcc=3 IRadAn=         5 AccDes= 0.00D+00
 HarFok:  IExCor=10402 AccDes= 0.00D+00 IRadAn=         5 IDoV= 1
 ScaDFX=  1.000000  1.000000  1.000000  1.000000
 FoFCou: FMM=F IPFlag=           0 FMFlag=      100000 FMFlg1=           0
         NFxFlg=           0 DoJE=T BraDBF=F KetDBF=T FulRan=T
         Omega=  0.000000  0.000000  1.000000  0.000000  0.000000 ICntrl=     500 IOpCl=  0
         NMat0=    1 NMatS0=    1 NMatT0=    0 NMatD0=    1 NMtDS0=    0 NMtDT0=    0
         I1Cent=           4 NGrid=           0.
 Petite list used in FoFCou.
 Harris En= -143.220246094551    
 Leave Link  401 at Mon May 11 12:55:13 2020, MaxMem= 1073741824 cpu:       2.6
 (Enter /home/matheus/.gaussian/g09/l502.exe)
 Closed shell SCF:
 Requested convergence on RMS density matrix=1.00D-08 within 128 cycles.
 Requested convergence on MAX density matrix=1.00D-06.
 Requested convergence on             energy=1.00D-06.
 No special actions if energy rises.
 Using DIIS extrapolation, IDIIS=  1040.
 Integral symmetry usage will be decided dynamically.
        94980 words used for storage of precomputed grid.
 IEnd=      192360 IEndB=      192360 NGot=  1073741824 MDV=  1073591865
 LenX=  1073591865 LenY=  1073565824
 Fock matrices will be formed incrementally for  20 cycles.

 Cycle   1  Pass 1  IDiag  1:
 FoFJK:  IHMeth= 1 ICntrl=     0 DoSepK=T KAlg= 1 I1Cent= 0 FoldK=F
 FoFCou: FMM=F IPFlag=           0 FMFlag=      100000 FMFlg1=           0
         NFxFlg=           0 DoJE=T BraDBF=F KetDBF=F FulRan=T
         Omega=  0.000000  0.000000  1.000000  0.000000  0.000000 ICntrl=     500 IOpCl=  0
         NMat0=    1 NMatS0=    1 NMatT0=    0 NMatD0=    1 NMtDS0=    0 NMtDT0=    0
         I1Cent=           0 NGrid=           0.
 Symmetry not used in FoFCou.
 E= -151.210598254516    
 DIIS: error= 5.61D-06 at cycle   1 NSaved=   1.
 NSaved= 1 IEnMin= 1 EnMin= -151.210598254516     IErMin= 1 ErrMin= 5.61D-06
 ErrMax= 5.61D-06 EMaxC= 1.00D-01 BMatC= 9.14D-09 BMatP= 9.14D-09
 IDIUse=1 WtCom= 1.00D+00 WtEn= 0.00D+00
 Coeff-Com:  0.100D+01
 Coeff:      0.100D+01
 Gap=     0.526 Goal=   None    Shift=    0.000
 RMSDP=6.39D-07 MaxDP=1.46D-05              OVMax= 2.26D-05

 Cycle   2  Pass 1  IDiag  1:
 RMSU=  4.52D-07    CP:  1.00D+00
 FoFJK:  IHMeth= 1 ICntrl=     0 DoSepK=T KAlg= 1 I1Cent= 0 FoldK=F
 E= -151.210598263536     Delta-E=       -0.000000009020 Rises=F Damp=F
 DIIS: error= 1.52D-06 at cycle   2 NSaved=   2.
 NSaved= 2 IEnMin= 2 EnMin= -151.210598263536     IErMin= 2 ErrMin= 1.52D-06
 ErrMax= 1.52D-06 EMaxC= 1.00D-01 BMatC= 5.00D-10 BMatP= 9.14D-09
 IDIUse=1 WtCom= 1.00D+00 WtEn= 0.00D+00
 Coeff-Com: -0.203D+00 0.120D+01
 Coeff:     -0.203D+00 0.120D+01
 Gap=     0.526 Goal=   None    Shift=    0.000
 RMSDP=1.97D-07 MaxDP=5.38D-06 DE=-9.02D-09 OVMax= 9.52D-06

 Cycle   3  Pass 1  IDiag  1:
 RMSU=  7.07D-08    CP:  1.00D+00  1.27D+00
 FoFJK:  IHMeth= 1 ICntrl=     0 DoSepK=T KAlg= 1 I1Cent= 0 FoldK=F
 E= -151.210598264521     Delta-E=       -0.000000000985 Rises=F Damp=F
 DIIS: error= 4.45D-07 at cycle   3 NSaved=   3.
 NSaved= 3 IEnMin= 3 EnMin= -151.210598264521     IErMin= 3 ErrMin= 4.45D-07
 ErrMax= 4.45D-07 EMaxC= 1.00D-01 BMatC= 3.33D-11 BMatP= 5.00D-10
 IDIUse=1 WtCom= 1.00D+00 WtEn= 0.00D+00
 Coeff-Com:  0.287D-01-0.318D+00 0.129D+01
 Coeff:      0.287D-01-0.318D+00 0.129D+01
 Gap=     0.526 Goal=   None    Shift=    0.000
 RMSDP=6.06D-08 MaxDP=1.25D-06 DE=-9.85D-10 OVMax= 3.95D-06

 Cycle   4  Pass 1  IDiag  1:
 RMSU=  1.70D-08    CP:  1.00D+00  1.32D+00  1.42D+00
 FoFJK:  IHMeth= 1 ICntrl=     0 DoSepK=T KAlg= 1 I1Cent= 0 FoldK=F
 E= -151.210598264629     Delta-E=       -0.000000000107 Rises=F Damp=F
 DIIS: error= 1.59D-07 at cycle   4 NSaved=   4.
 NSaved= 4 IEnMin= 4 EnMin= -151.210598264629     IErMin= 4 ErrMin= 1.59D-07
 ErrMax= 1.59D-07 EMaxC= 1.00D-01 BMatC= 3.41D-12 BMatP= 3.33D-11
 IDIUse=1 WtCom= 1.00D+00 WtEn= 0.00D+00
 Coeff-Com:  0.765D-02-0.267D-01-0.274D+00 0.129D+01
 Coeff:      0.765D-02-0.267D-01-0.274D+00 0.129D+01
 Gap=     0.526 Goal=   None    Shift=    0.000
 RMSDP=2.25D-08 MaxDP=4.85D-07 DE=-1.07D-10 OVMax= 1.64D-06

 Cycle   5  Pass 1  IDiag  1:
 RMSU=  4.73D-09    CP:  1.00D+00  1.33D+00  1.56D+00  1.63D+00
 FoFJK:  IHMeth= 1 ICntrl=     0 DoSepK=T KAlg= 1 I1Cent= 0 FoldK=F
 E= -151.210598264644     Delta-E=       -0.000000000015 Rises=F Damp=F
 DIIS: error= 4.25D-08 at cycle   5 NSaved=   5.
 NSaved= 5 IEnMin= 5 EnMin= -151.210598264644     IErMin= 5 ErrMin= 4.25D-08
 ErrMax= 4.25D-08 EMaxC= 1.00D-01 BMatC= 3.14D-13 BMatP= 3.41D-12
 IDIUse=1 WtCom= 1.00D+00 WtEn= 0.00D+00
 Coeff-Com: -0.443D-02 0.401D-01-0.891D-01-0.184D+00 0.124D+01
 Coeff:     -0.443D-02 0.401D-01-0.891D-01-0.184D+00 0.124D+01
 Gap=     0.526 Goal=   None    Shift=    0.000
 RMSDP=7.30D-09 MaxDP=1.68D-07 DE=-1.50D-11 OVMax= 5.44D-07

 SCF Done:  E(RLC-B+HF-LYP) =  -151.210598265     A.U. after    5 cycles
             Convg  =    0.7299D-08             -V/T =  2.0062
 KE= 1.502774323957D+02 PE=-4.315751356878D+02 EE= 9.344301684945D+01
 Leave Link  502 at Mon May 11 12:55:18 2020, MaxMem= 1073741824 cpu:      37.3
 (Enter /home/matheus/.gaussian/g09/l122.exe)
 Restoring MOs from calculation   5 to rwf.
 Counterpoise: doing MCBS calculation for fragment   2
 Leave Link  122 at Mon May 11 12:55:18 2020, MaxMem= 1073741824 cpu:       0.0
 (Enter /home/matheus/.gaussian/g09/l301.exe)
 Basis read from rwf:  (5D, 7F)
 No pseudopotential information found on rwf file.
 There are    59 symmetry adapted basis functions of A   symmetry.
 Integral buffers will be    131072 words long.
 Raffenetti 2 integral format.
 Two-electron integral symmetry is turned on.
    59 basis functions,   217 primitive gaussians,    69 cartesian basis functions
    18 alpha electrons       18 beta electrons
       nuclear repulsion energy         0.0000000000 Hartrees.
 IExCor=10402 DFT=T Ex=LC-B+HF Corr=LYP ExCW=0 ScaHFX=  1.000000
 ScaDFX=  1.000000  1.000000  1.000000  1.000000 ScalE2=  1.000000  1.000000
 IRadAn=      5 IRanWt=     -1 IRanGd=            0 ICorTp=0
  HFx wShort=  0.000000 wLong=  1.350000 cFull=  0.000000 cShort=  0.000000 cLong=  1.000000
  DFx wShort=  0.000000 wLong=  1.350000 cFull=  0.000000 cShort=  0.000000 cLong=  1.000000
 NAtoms=    5 NActive=    1 NUniq=    1 SFac= 1.00D+00 NAtFMM=   60 NAOKFM=F Big=F
 No density basis found on file   718.
 Leave Link  301 at Mon May 11 12:55:18 2020, MaxMem= 1073741824 cpu:       0.2
 (Enter /home/matheus/.gaussian/g09/l302.exe)
 NPDir=0 NMtPBC=     1 NCelOv=     1 NCel=       1 NClECP=     1 NCelD=      1
         NCelK=      1 NCelE2=     1 NClLst=     1 CellRange=     0.0.
 One-electron integrals computed using PRISM.
 NBasis=    59 RedAO= T  NBF=    59
 NBsUse=    59 1.00D-06 NBFU=    59
 Precomputing XC quadrature grid using
 IXCGrd= 2 IRadAn=           5 IRanWt=          -1 IRanGd=           0 AccXCQ= 0.00D+00.
 NRdTot=      81 NPtTot=       30352 NUsed=       30981 NTot=       31013
 NSgBfM=    69    69    69    69    69 NAtAll=     1     1.
 Leave Link  302 at Mon May 11 12:55:18 2020, MaxMem= 1073741824 cpu:       0.7
 (Enter /home/matheus/.gaussian/g09/l303.exe)
 DipDrv:  MaxL=1.
 Leave Link  303 at Mon May 11 12:55:18 2020, MaxMem= 1073741824 cpu:       0.1
 (Enter /home/matheus/.gaussian/g09/l401.exe)
 Initial guess read from the read-write file.
 Guess basis will be translated and rotated to current coordinates.
 Initial guess orbital symmetries:
       Occupied  (A) (A) (A) (A) (A) (A) (A) (A) (A) (A) (A) (A)
                 (A) (A) (A) (A) (A) (A)
       Virtual   (A) (A) (A) (A) (A) (A) (A) (A) (A) (A) (A) (A)
                 (A) (A) (A) (A) (A) (A) (A) (A) (A) (A) (A) (A)
                 (A) (A) (A) (A) (A) (A) (A) (A) (A) (A) (A) (A)
                 (A) (A) (A) (A) (A)
 The electronic state of the initial guess is 1-A.
 Generating alternative initial guess.
 Harris functional with IExCor=10402 diagonalized for initial guess.
 ExpMin= 4.00D-02 ExpMax= 1.17D+07 ExpMxC= 1.33D+04 IAcc=3 IRadAn=         5 AccDes= 0.00D+00
 HarFok:  IExCor=10402 AccDes= 0.00D+00 IRadAn=         5 IDoV= 1
 ScaDFX=  1.000000  1.000000  1.000000  1.000000
 FoFCou: FMM=F IPFlag=           0 FMFlag=      100000 FMFlg1=           0
         NFxFlg=           0 DoJE=T BraDBF=F KetDBF=T FulRan=T
         Omega=  0.000000  0.000000  1.000000  0.000000  0.000000 ICntrl=     500 IOpCl=  0
         NMat0=    1 NMatS0=    1 NMatT0=    0 NMatD0=    1 NMtDS0=    0 NMtDT0=    0
         I1Cent=           4 NGrid=           0.
 Petite list used in FoFCou.
 DSYEVD returned Info=          89 IAlg= 4 N=    59 NDim=    59 NE2=    18198841 trying DSYEV.
 Harris En= -2731.73388500824    
 Leave Link  401 at Mon May 11 12:55:18 2020, MaxMem= 1073741824 cpu:       1.0
 (Enter /home/matheus/.gaussian/g09/l502.exe)
 Closed shell SCF:
 Requested convergence on RMS density matrix=1.00D-08 within 128 cycles.
 Requested convergence on MAX density matrix=1.00D-06.
 Requested convergence on             energy=1.00D-06.
 No special actions if energy rises.
 Using DIIS extrapolation, IDIIS=  1040.
 Integral symmetry usage will be decided dynamically.
        30923 words used for storage of precomputed grid.
 IEnd=       64406 IEndB=       64406 NGot=  1073741824 MDV=  1073698889
 LenX=  1073698889 LenY=  1073693687
 Fock matrices will be formed incrementally for  20 cycles.

 Cycle   1  Pass 1  IDiag  1:
 FoFJK:  IHMeth= 1 ICntrl=     0 DoSepK=T KAlg= 1 I1Cent= 0 FoldK=F
 FoFCou: FMM=F IPFlag=           0 FMFlag=      100000 FMFlg1=           0
         NFxFlg=           0 DoJE=T BraDBF=F KetDBF=F FulRan=T
         Omega=  0.000000  0.000000  1.000000  0.000000  0.000000 ICntrl=     500 IOpCl=  0
         NMat0=    1 NMatS0=    1 NMatT0=    0 NMatD0=    1 NMtDS0=    0 NMtDT0=    0
         I1Cent=           0 NGrid=           0.
 Symmetry not used in FoFCou.
 E= -2753.40934852740    
 DIIS: error= 9.69D-14 at cycle   1 NSaved=   1.
 NSaved= 1 IEnMin= 1 EnMin= -2753.40934852740     IErMin= 1 ErrMin= 9.69D-14
 ErrMax= 9.69D-14 EMaxC= 1.00D-01 BMatC= 2.19D-25 BMatP= 2.19D-25
 IDIUse=1 WtCom= 1.00D+00 WtEn= 0.00D+00
 Coeff-Com:  0.100D+01
 Coeff:      0.100D+01
 Gap=     0.640 Goal=   None    Shift=    0.000
 RMSDP=9.90D-15 MaxDP=2.01D-13              OVMax= 6.93D-14

 SCF Done:  E(RLC-B+HF-LYP) =  -2753.40934853     A.U. after    1 cycles
             Convg  =    0.9899D-14             -V/T =  2.0014
 KE= 2.749695852517D+03 PE=-6.579489077514D+03 EE= 1.076383876470D+03
 Leave Link  502 at Mon May 11 12:55:19 2020, MaxMem= 1073741824 cpu:      11.1
 (Enter /home/matheus/.gaussian/g09/l122.exe)
 Restoring MOs from calculation   1 to rwf.
 Counterpoise: corrected energy =   -2904.620049884367
 Counterpoise: BSSE energy =       0.000031453113
 Leave Link  122 at Mon May 11 12:55:19 2020, MaxMem= 1073741824 cpu:       0.0
 (Enter /home/matheus/.gaussian/g09/l108.exe)
 Scan completed.

 Summary of the potential surface scan:
   N      R1          SCF    
 ----  ---------  -----------
    1     3.0000  -2753.40935
    2     3.1000  -2753.40935
    3     3.2000  -2753.40935
    4     3.3000  -2753.40935
    5     3.4000  -2753.40935
    6     3.5000  -2753.40935
    7     3.6000  -2753.40935
    8     3.7000  -2753.40935
    9     3.8000  -2753.40935
   10     3.9000  -2753.40935
   11     4.0000  -2753.40935
   12     4.1000  -2753.40935
   13     4.2000  -2753.40935
   14     4.3000  -2753.40935
   15     4.4000  -2753.40935
   16     4.5000  -2753.40935
   17     4.6000  -2753.40935
   18     4.7000  -2753.40935
   19     4.8000  -2753.40935
   20     4.9000  -2753.40935
   21     5.0000  -2753.40935
 ----  ---------  -----------
  
 Leave Link  108 at Mon May 11 12:55:19 2020, MaxMem= 1073741824 cpu:       0.0
 (Enter /home/matheus/.gaussian/g09/l9999.exe)

 Test job not archived.
 1\1\GINC-REDGIANT\Scan\RLC-BLYP\Aug-CC-pVTZ\H2Kr1O2\MATHEUS\11-May-202
 0\1\\#p lc-blyp/aug-cc-PVTz iop(3/107=1350000000) iop(3/108=1350000000
 ) int=ultrafine counterpoise=2 Scan\\TCC\\0,1\O,0,0.,0.,0.725\O,0,0.,0
 .,-0.725\H,0,0.795635374,0.4593602974,1.0235104166\H,0,0.,0.9187205947
 ,-1.0235104166\Kr,0,0.,R1,0.\\R1=3.,s,20,0.1\\Version=EM64L-G09RevC.01
 \State=1-A\HF=-2753.4093485,-2753.4093485,-2753.4093485,-2753.4093485,
 -2753.4093485,-2753.4093485,-2753.4093485,-2753.4093485,-2753.4093485,
 -2753.4093485,-2753.4093485,-2753.4093485,-2753.4093485,-2753.4093485,
 -2753.4093485,-2753.4093485,-2753.4093485,-2753.4093485,-2753.4093485,
 -2753.4093485,-2753.4093485\RMSD=5.461e-09,3.089e-10,7.451e-11,2.036e-
 11,7.195e-12,3.152e-12,1.458e-12,6.901e-13,3.310e-13,1.529e-13,6.475e-
 14,3.103e-14,1.535e-14,7.764e-15,7.583e-15,5.907e-15,6.350e-15,6.074e-
 15,4.453e-15,5.122e-15,9.899e-15\PG=C01 [X(H2Kr1O2)]\\@


 NATURE REVEALS EVERY SECRET ONCE.
                    - RALPH WALDO EMERSON
 Job cpu time:  0 days  3 hours 12 minutes 35.3 seconds.
 File lengths (MBytes):  RWF=     33 Int=      0 D2E=      0 Chk=      8 Scr=      1
 Normal termination of Gaussian 09 at Mon May 11 12:55:20 2020.
