 Entering Gaussian System, Link 0=g09
 Input=/home/matheus/.tcc/Inputs/Inputs-lc-blyp/H2O2-Kr_13.com
 Output=/home/matheus/.tcc/Logs/Logs-lc-blyp/H2O2-Kr_13.log
 Initial command:
 /home/matheus/.gaussian/g09/l1.exe /home/matheus/.gaussian/g09/scratch/Gau-25530.inp -scrdir=/home/matheus/.gaussian/g09/scratch/
 Entering Link 1 = /home/matheus/.gaussian/g09/l1.exe PID=     25533.
  
 Copyright (c) 1988,1990,1992,1993,1995,1998,2003,2009,2011,
            Gaussian, Inc.  All Rights Reserved.
  
 This is part of the Gaussian(R) 09 program.  It is based on
 the Gaussian(R) 03 system (copyright 2003, Gaussian, Inc.),
 the Gaussian(R) 98 system (copyright 1998, Gaussian, Inc.),
 the Gaussian(R) 94 system (copyright 1995, Gaussian, Inc.),
 the Gaussian 92(TM) system (copyright 1992, Gaussian, Inc.),
 the Gaussian 90(TM) system (copyright 1990, Gaussian, Inc.),
 the Gaussian 88(TM) system (copyright 1988, Gaussian, Inc.),
 the Gaussian 86(TM) system (copyright 1986, Carnegie Mellon
 University), and the Gaussian 82(TM) system (copyright 1983,
 Carnegie Mellon University). Gaussian is a federally registered
 trademark of Gaussian, Inc.
  
 This software contains proprietary and confidential information,
 including trade secrets, belonging to Gaussian, Inc.
  
 This software is provided under written license and may be
 used, copied, transmitted, or stored only in accord with that
 written license.
  
 The following legend is applicable only to US Government
 contracts under FAR:
  
                    RESTRICTED RIGHTS LEGEND
  
 Use, reproduction and disclosure by the US Government is
 subject to restrictions as set forth in subparagraphs (a)
 and (c) of the Commercial Computer Software - Restricted
 Rights clause in FAR 52.227-19.
  
 Gaussian, Inc.
 340 Quinnipiac St., Bldg. 40, Wallingford CT 06492
  
  
 ---------------------------------------------------------------
 Warning -- This program may not be used in any manner that
 competes with the business of Gaussian, Inc. or will provide
 assistance to any competitor of Gaussian, Inc.  The licensee
 of this program is prohibited from giving any competitor of
 Gaussian, Inc. access to this program.  By using this program,
 the user acknowledges that Gaussian, Inc. is engaged in the
 business of creating and licensing software in the field of
 computational chemistry and represents and warrants to the
 licensee that it is not a competitor of Gaussian, Inc. and that
 it will not use this program in any manner prohibited above.
 ---------------------------------------------------------------
  

 Cite this work as:
 Gaussian 09, Revision C.01,
 M. J. Frisch, G. W. Trucks, H. B. Schlegel, G. E. Scuseria, 
 M. A. Robb, J. R. Cheeseman, G. Scalmani, V. Barone, B. Mennucci, 
 G. A. Petersson, H. Nakatsuji, M. Caricato, X. Li, H. P. Hratchian, 
 A. F. Izmaylov, J. Bloino, G. Zheng, J. L. Sonnenberg, M. Hada, 
 M. Ehara, K. Toyota, R. Fukuda, J. Hasegawa, M. Ishida, T. Nakajima, 
 Y. Honda, O. Kitao, H. Nakai, T. Vreven, J. A. Montgomery, Jr., 
 J. E. Peralta, F. Ogliaro, M. Bearpark, J. J. Heyd, E. Brothers, 
 K. N. Kudin, V. N. Staroverov, T. Keith, R. Kobayashi, J. Normand, 
 K. Raghavachari, A. Rendell, J. C. Burant, S. S. Iyengar, J. Tomasi, 
 M. Cossi, N. Rega, J. M. Millam, M. Klene, J. E. Knox, J. B. Cross, 
 V. Bakken, C. Adamo, J. Jaramillo, R. Gomperts, R. E. Stratmann, 
 O. Yazyev, A. J. Austin, R. Cammi, C. Pomelli, J. W. Ochterski, 
 R. L. Martin, K. Morokuma, V. G. Zakrzewski, G. A. Voth, 
 P. Salvador, J. J. Dannenberg, S. Dapprich, A. D. Daniels, 
 O. Farkas, J. B. Foresman, J. V. Ortiz, J. Cioslowski, 
 and D. J. Fox, Gaussian, Inc., Wallingford CT, 2010.
 
 ******************************************
 Gaussian 09:  EM64L-G09RevC.01 23-Sep-2011
                11-May-2020 
 ******************************************
 %mem=8GB
 %nproc=8
 Will use up to    8 processors via shared memory.
 ----------------------------------------------------------------------
 #p lc-blyp/aug-cc-PVTz iop(3/107=1350000000) iop(3/108=1350000000) int
 =ultrafine counterpoise=2 Scan
 ----------------------------------------------------------------------
 1/38=1,60=1,62=2/1,8;
 2/12=2,17=6,18=5,29=3,40=1/2;
 1/38=1,53=5172,62=2/22;
 3/5=16,6=1,7=10,11=2,16=1,25=1,30=1,74=1000402,75=-5,107=1350000000,108=1350000000/1,2,3;
 4//1;
 5/5=2,38=5/2;
 6/7=2,8=2,9=2,10=2,18=1,28=1/1;
 1/53=4052,62=2,63=1/22;
 3/5=7,6=11,7=10,11=2,16=1,25=1,30=1,74=1000402,75=-5,82=7,107=1350000000,108=1350000000/1,2,3;
 4//1;
 5/5=2,38=5/2;
 6/7=2,8=2,9=2,10=2,18=1,28=1/1;
 1/53=3042,62=2,63=2/22;
 3/5=7,6=11,7=10,11=2,16=1,25=1,30=1,74=1000402,75=-5,82=7,107=1350000000,108=1350000000/1,2,3;
 4//1;
 5/5=2,38=5/2;
 6/7=2,8=2,9=2,10=2,18=1,28=1/1;
 1/53=2032,62=2,63=3/22;
 3/5=7,6=11,7=10,11=2,16=1,25=1,30=1,74=1000402,75=-5,82=7,107=1350000000,108=1350000000/1,2,3;
 4//1;
 5/5=2,38=5/2;
 6/7=2,8=2,9=2,10=2,18=1,28=1/1;
 1/53=1022,62=2,63=4/22;
 3/5=7,6=11,7=10,11=2,16=1,25=1,30=1,74=1000402,75=-5,82=7,107=1350000000,108=1350000000/1,2,3;
 4//1;
 5/5=2,38=5/2;
 6/7=2,8=2,9=2,10=2,18=1,28=1/1;
 1/53=5014,62=2,63=5/22;
 1/60=1,62=2/8(1);
 99/9=1/99;
 2/29=3/2;
 1/53=5173,62=2/22;
 3/5=7,6=11,7=10,11=2,16=1,25=1,30=1,74=1000402,75=-5,82=7,107=1350000000,108=1350000000/1,2,3;
 4/5=5,16=3/1;
 5/5=2,38=5/2;
 1/53=4053,62=2,63=1/22;
 3/5=7,6=11,7=10,11=2,16=1,25=1,30=1,74=1000402,75=-5,82=7,107=1350000000,108=1350000000/1,2,3;
 4/5=5,16=3/1;
 5/5=2,38=5/2;
 1/53=3043,62=2,63=2/22;
 3/5=7,6=11,7=10,11=2,16=1,25=1,30=1,74=1000402,75=-5,82=7,107=1350000000,108=1350000000/1,2,3;
 4/5=5,16=3/1;
 5/5=2,38=5/2;
 1/53=2033,62=2,63=3/22;
 3/5=7,6=11,7=10,11=2,16=1,25=1,30=1,74=1000402,75=-5,82=7,107=1350000000,108=1350000000/1,2,3;
 4/5=5,16=3/1;
 5/5=2,38=5/2;
 1/53=1024,62=2,63=4/22;
 3/5=7,6=11,7=10,11=2,16=1,25=1,30=1,74=1000402,75=-5,82=7,107=1350000000,108=1350000000/1,2,3;
 4/5=5,16=3/1;
 5/5=2,38=5/2;
 1/53=5014,62=2,63=5/22;
 1/60=1,62=2/8(-22);
 99/9=1/99;
 Leave Link    1 at Mon May 11 15:24:27 2020, MaxMem= 1073741824 cpu:       0.1
 (Enter /home/matheus/.gaussian/g09/l101.exe)
 ---
 TCC
 ---
 Charge =  0 Multiplicity = 1 in supermolecule
 Charge =  0 Multiplicity = 1 in fragment  1.
 Charge =  0 Multiplicity = 1 in fragment  2.
 Symbolic Z-Matrix:
 O(Fragment=1)         0.        0.        0.725 
 O(Fragment=1)         0.        0.       -0.725 
 H(Fragment=1)         0.70378  -0.59054   1.02351 
 H(Fragment=1)         0.        0.91872  -1.02351 
 Kr(Fragment=2)        0.       R1        0. 
       Variables:
  R1                    3.     Scan 20    0.1    
 
 NAtoms=      5 NQM=        0 NQMF=       0 NMMI=      5 NMMIF=      0
                NMic=       0 NMicF=      0.
                    Isotopes and Nuclear Properties:
 (Nuclear quadrupole moments (NQMom) in fm**2, nuclear magnetic moments (NMagM)
  in nuclear magnetons)

  Atom         1           2           3           4           5
 IAtWgt=          16          16           1           1          84
 AtmWgt=  15.9949146  15.9949146   1.0078250   1.0078250  83.9115064
 NucSpn=           0           0           1           1           0
 AtZEff=   0.0000000   0.0000000   0.0000000   0.0000000   0.0000000
 NQMom=    0.0000000   0.0000000   0.0000000   0.0000000   0.0000000
 NMagM=    0.0000000   0.0000000   2.7928460   2.7928460   0.0000000
 Leave Link  101 at Mon May 11 15:24:27 2020, MaxMem= 1073741824 cpu:       0.3
 (Enter /home/matheus/.gaussian/g09/l108.exe)
 Scan the potential surface.
 Variable   Value     No. Steps Step-Size
 -------- ----------- --------- ---------
     1       3.000000      20      0.1000
 A total of     21 points will be computed.
 Leave Link  108 at Mon May 11 15:24:27 2020, MaxMem= 1073741824 cpu:       0.0
 (Enter /home/matheus/.gaussian/g09/l202.exe)
 ---------------------------------------------------------------------------------------------------
                            Z-MATRIX (ANGSTROMS AND DEGREES)
   CD    Cent   Atom    N1       Length/X        N2       Alpha/Y        N3        Beta/Z          J
 ---------------------------------------------------------------------------------------------------
      1      1  O        0   0.000000          0.000000          0.725000
      2      2  O        0   0.000000          0.000000         -0.725000
      3      3  H        0   0.703781         -0.590542          1.023510
      4      4  H        0   0.000000          0.918721         -1.023510
      5      5  Kr       0   0.000000          3.000000          0.000000
 ---------------------------------------------------------------------------------------------------
                         Z-Matrix orientation:                         
 ---------------------------------------------------------------------
 Center     Atomic      Atomic             Coordinates (Angstroms)
 Number     Number       Type             X           Y           Z
 ---------------------------------------------------------------------
      1          8           0        0.000000    0.000000    0.725000
      2          8           0        0.000000    0.000000   -0.725000
      3          1           0        0.703781   -0.590542    1.023510
      4          1           0        0.000000    0.918721   -1.023510
      5         36           0        0.000000    3.000000    0.000000
 ---------------------------------------------------------------------
                    Distance matrix (angstroms):
                    1          2          3          4          5
     1  O    0.000000
     2  O    1.450000   0.000000
     3  H    0.966000   1.975180   0.000000
     4  H    1.975180   0.966000   2.638840   0.000000
     5  Kr   3.086361   3.086361   3.799326   2.319331   0.000000
 Stoichiometry    H2KrO2
 Framework group  C1[X(H2KrO2)]
 Deg. of freedom     9
 Full point group                 C1      NOp   1
 Largest Abelian subgroup         C1      NOp   1
 Largest concise Abelian subgroup C1      NOp   1
                         Standard orientation:                         
 ---------------------------------------------------------------------
 Center     Atomic      Atomic             Coordinates (Angstroms)
 Number     Number       Type             X           Y           Z
 ---------------------------------------------------------------------
      1          8           0        2.016888   -0.687971   -0.094863
      2          8           0        1.993721    0.758416    0.004771
      3          1           0        2.624080   -1.023798    0.577220
      4          1           0        1.070483    1.040460    0.039958
      5         36           0       -0.993873   -0.016117    0.002877
 ---------------------------------------------------------------------
 Rotational constants (GHZ):     26.0617959      2.3176349      2.1364645
 Leave Link  202 at Mon May 11 15:24:27 2020, MaxMem= 1073741824 cpu:       0.0
 (Enter /home/matheus/.gaussian/g09/l122.exe)
 Leave Link  122 at Mon May 11 15:24:27 2020, MaxMem= 1073741824 cpu:       0.0
 (Enter /home/matheus/.gaussian/g09/l301.exe)
 Standard basis: Aug-CC-pVTZ (5D, 7F)
 Ernie: Thresh=  0.10000D-02 Tol=  0.10000D-05 Strict=F.
 Ernie:  38 primitive shells out of 205 were deleted.
 There are   197 symmetry adapted basis functions of A   symmetry.
 Integral buffers will be    131072 words long.
 Raffenetti 2 integral format.
 Two-electron integral symmetry is turned on.
   197 basis functions,   415 primitive gaussians,   229 cartesian basis functions
    27 alpha electrons       27 beta electrons
       nuclear repulsion energy       148.5957046553 Hartrees.
 IExCor=10402 DFT=T Ex=LC-B+HF Corr=LYP ExCW=0 ScaHFX=  1.000000
 ScaDFX=  1.000000  1.000000  1.000000  1.000000 ScalE2=  1.000000  1.000000
 IRadAn=      5 IRanWt=     -1 IRanGd=            0 ICorTp=0
  HFx wShort=  0.000000 wLong=  1.350000 cFull=  0.000000 cShort=  0.000000 cLong=  1.000000
  DFx wShort=  0.000000 wLong=  1.350000 cFull=  0.000000 cShort=  0.000000 cLong=  1.000000
 NAtoms=    5 NActive=    5 NUniq=    5 SFac= 1.00D+00 NAtFMM=   60 NAOKFM=F Big=F
 Leave Link  301 at Mon May 11 15:24:27 2020, MaxMem= 1073741824 cpu:       0.2
 (Enter /home/matheus/.gaussian/g09/l302.exe)
 NPDir=0 NMtPBC=     1 NCelOv=     1 NCel=       1 NClECP=     1 NCelD=      1
         NCelK=      1 NCelE2=     1 NClLst=     1 CellRange=     0.0.
 One-electron integrals computed using PRISM.
 NBasis=   197 RedAO= T  NBF=   197
 NBsUse=   197 1.00D-06 NBFU=   197
 Precomputing XC quadrature grid using
 IXCGrd= 2 IRadAn=           5 IRanWt=          -1 IRanGd=           0 AccXCQ= 0.00D+00.
 NRdTot=     427 NPtTot=      123512 NUsed=      126579 NTot=      126611
 NSgBfM=   229   229   229   229   229 NAtAll=     5     5.
 Leave Link  302 at Mon May 11 15:24:28 2020, MaxMem= 1073741824 cpu:       1.0
 (Enter /home/matheus/.gaussian/g09/l303.exe)
 DipDrv:  MaxL=1.
 Leave Link  303 at Mon May 11 15:24:28 2020, MaxMem= 1073741824 cpu:       0.2
 (Enter /home/matheus/.gaussian/g09/l401.exe)
 Harris functional with IExCor=10402 diagonalized for initial guess.
 ExpMin= 2.53D-02 ExpMax= 1.17D+07 ExpMxC= 1.33D+04 IAcc=3 IRadAn=         5 AccDes= 0.00D+00
 HarFok:  IExCor=10402 AccDes= 0.00D+00 IRadAn=         5 IDoV= 1
 ScaDFX=  1.000000  1.000000  1.000000  1.000000
 FoFCou: FMM=F IPFlag=           0 FMFlag=      100000 FMFlg1=           0
         NFxFlg=           0 DoJE=T BraDBF=F KetDBF=T FulRan=T
         Omega=  0.000000  0.000000  1.000000  0.000000  0.000000 ICntrl=     500 IOpCl=  0
         NMat0=    1 NMatS0=    1 NMatT0=    0 NMatD0=    1 NMtDS0=    0 NMtDT0=    0
         I1Cent=           4 NGrid=           0.
 Petite list used in FoFCou.
 Harris En= -2874.93190113436    
 Initial guess orbital symmetries:
       Occupied  (A) (A) (A) (A) (A) (A) (A) (A) (A) (A) (A) (A)
                 (A) (A) (A) (A) (A) (A) (A) (A) (A) (A) (A) (A)
                 (A) (A) (A)
       Virtual   (A) (A) (A) (A) (A) (A) (A) (A) (A) (A) (A) (A)
                 (A) (A) (A) (A) (A) (A) (A) (A) (A) (A) (A) (A)
                 (A) (A) (A) (A) (A) (A) (A) (A) (A) (A) (A) (A)
                 (A) (A) (A) (A) (A) (A) (A) (A) (A) (A) (A) (A)
                 (A) (A) (A) (A) (A) (A) (A) (A) (A) (A) (A) (A)
                 (A) (A) (A) (A) (A) (A) (A) (A) (A) (A) (A) (A)
                 (A) (A) (A) (A) (A) (A) (A) (A) (A) (A) (A) (A)
                 (A) (A) (A) (A) (A) (A) (A) (A) (A) (A) (A) (A)
                 (A) (A) (A) (A) (A) (A) (A) (A) (A) (A) (A) (A)
                 (A) (A) (A) (A) (A) (A) (A) (A) (A) (A) (A) (A)
                 (A) (A) (A) (A) (A) (A) (A) (A) (A) (A) (A) (A)
                 (A) (A) (A) (A) (A) (A) (A) (A) (A) (A) (A) (A)
                 (A) (A) (A) (A) (A) (A) (A) (A) (A) (A) (A) (A)
                 (A) (A) (A) (A) (A) (A) (A) (A) (A) (A) (A) (A)
                 (A) (A)
 The electronic state of the initial guess is 1-A.
 Leave Link  401 at Mon May 11 15:24:28 2020, MaxMem= 1073741824 cpu:       3.8
 (Enter /home/matheus/.gaussian/g09/l502.exe)
 Closed shell SCF:
 Requested convergence on RMS density matrix=1.00D-08 within 128 cycles.
 Requested convergence on MAX density matrix=1.00D-06.
 Requested convergence on             energy=1.00D-06.
 No special actions if energy rises.
 Using DIIS extrapolation, IDIIS=  1040.
 Integral symmetry usage will be decided dynamically.
       126521 words used for storage of precomputed grid.
 IEnd=      305468 IEndB=      305468 NGot=  1073741824 MDV=  1073505667
 LenX=  1073505667 LenY=  1073452785
 Fock matrices will be formed incrementally for  20 cycles.

 Cycle   1  Pass 1  IDiag  1:
 FoFJK:  IHMeth= 1 ICntrl=     0 DoSepK=T KAlg= 1 I1Cent= 0 FoldK=F
 FoFCou: FMM=F IPFlag=           0 FMFlag=      100000 FMFlg1=           0
         NFxFlg=           0 DoJE=T BraDBF=F KetDBF=F FulRan=T
         Omega=  0.000000  0.000000  1.000000  0.000000  0.000000 ICntrl=     500 IOpCl=  0
         NMat0=    1 NMatS0=    1 NMatT0=    0 NMatD0=    1 NMtDS0=    0 NMtDT0=    0
         I1Cent=           0 NGrid=           0.
 Symmetry not used in FoFCou.
 E= -2898.62179013362    
 DIIS: error= 1.32D-01 at cycle   1 NSaved=   1.
 NSaved= 1 IEnMin= 1 EnMin= -2898.62179013362     IErMin= 1 ErrMin= 1.32D-01
 ErrMax= 1.32D-01 EMaxC= 1.00D-01 BMatC= 3.93D+00 BMatP= 3.93D+00
 IDIUse=3 WtCom= 0.00D+00 WtEn= 1.00D+00
 Coeff-Com:  0.100D+01
 Coeff-En:   0.100D+01
 Coeff:      0.100D+01
 Gap=    -1.053 Goal=   None    Shift=    0.000
 GapD=   -1.053 DampG=0.250 DampE=0.250 DampFc=0.2500 IDamp=-1.
 Damping current iteration by 2.50D-01
 RMSDP=1.05D-01 MaxDP=8.23D+00              OVMax= 9.98D-01

 Cycle   2  Pass 1  IDiag  1:
 RMSU=  4.46D-03    CP:  7.63D-01
 FoFJK:  IHMeth= 1 ICntrl=     0 DoSepK=T KAlg= 1 I1Cent= 0 FoldK=F
 E= -2900.87618118349     Delta-E=       -2.254391049871 Rises=F Damp=T
 DIIS: error= 5.90D-02 at cycle   2 NSaved=   2.
 NSaved= 2 IEnMin= 2 EnMin= -2900.87618118349     IErMin= 2 ErrMin= 5.90D-02
 ErrMax= 5.90D-02 EMaxC= 1.00D-01 BMatC= 1.06D+00 BMatP= 3.93D+00
 IDIUse=3 WtCom= 4.10D-01 WtEn= 5.90D-01
 Coeff-Com: -0.763D+00 0.176D+01
 Coeff-En:   0.000D+00 0.100D+01
 Coeff:     -0.313D+00 0.131D+01
 Gap=     0.118 Goal=   None    Shift=    0.000
 RMSDP=7.87D-02 MaxDP=6.17D+00 DE=-2.25D+00 OVMax= 8.00D-01

 Cycle   3  Pass 1  IDiag  1:
 RMSU=  5.92D-03    CP:  5.16D-02  3.00D+00
 FoFJK:  IHMeth= 1 ICntrl=     0 DoSepK=T KAlg= 1 I1Cent= 0 FoldK=F
 E= -2904.22775934019     Delta-E=       -3.351578156701 Rises=F Damp=F
 DIIS: error= 3.47D-02 at cycle   3 NSaved=   3.
 NSaved= 3 IEnMin= 3 EnMin= -2904.22775934019     IErMin= 3 ErrMin= 3.47D-02
 ErrMax= 3.47D-02 EMaxC= 1.00D-01 BMatC= 5.99D-01 BMatP= 1.06D+00
 IDIUse=3 WtCom= 6.53D-01 WtEn= 3.47D-01
 Coeff-Com: -0.216D-01 0.448D+00 0.573D+00
 Coeff-En:   0.000D+00 0.000D+00 0.100D+01
 Coeff:     -0.141D-01 0.293D+00 0.722D+00
 Gap=     0.615 Goal=   None    Shift=    0.000
 RMSDP=2.52D-03 MaxDP=8.76D-02 DE=-3.35D+00 OVMax= 1.14D-01

 Cycle   4  Pass 1  IDiag  1:
 RMSU=  1.78D-03    CP:  5.11D-02  3.00D+00  9.82D-01
 FoFJK:  IHMeth= 1 ICntrl=     0 DoSepK=T KAlg= 1 I1Cent= 0 FoldK=F
 E= -2904.61103121494     Delta-E=       -0.383271874748 Rises=F Damp=F
 DIIS: error= 4.27D-03 at cycle   4 NSaved=   4.
 NSaved= 4 IEnMin= 4 EnMin= -2904.61103121494     IErMin= 4 ErrMin= 4.27D-03
 ErrMax= 4.27D-03 EMaxC= 1.00D-01 BMatC= 1.15D-02 BMatP= 5.99D-01
 IDIUse=3 WtCom= 9.57D-01 WtEn= 4.27D-02
 Coeff-Com: -0.176D-01 0.582D-01 0.674D-01 0.892D+00
 Coeff-En:   0.000D+00 0.000D+00 0.000D+00 0.100D+01
 Coeff:     -0.169D-01 0.557D-01 0.645D-01 0.897D+00
 Gap=     0.507 Goal=   None    Shift=    0.000
 RMSDP=6.13D-04 MaxDP=2.00D-02 DE=-3.83D-01 OVMax= 1.69D-02

 Cycle   5  Pass 1  IDiag  1:
 RMSU=  4.24D-04    CP:  5.12D-02  3.00D+00  9.81D-01  1.05D+00
 FoFJK:  IHMeth= 1 ICntrl=     0 DoSepK=T KAlg= 1 I1Cent= 0 FoldK=F
 E= -2904.61880383211     Delta-E=       -0.007772617167 Rises=F Damp=F
 DIIS: error= 1.43D-03 at cycle   5 NSaved=   5.
 NSaved= 5 IEnMin= 5 EnMin= -2904.61880383211     IErMin= 5 ErrMin= 1.43D-03
 ErrMax= 1.43D-03 EMaxC= 1.00D-01 BMatC= 7.61D-04 BMatP= 1.15D-02
 IDIUse=3 WtCom= 9.86D-01 WtEn= 1.43D-02
 Coeff-Com: -0.209D-01 0.435D-01-0.989D-02-0.443D-01 0.103D+01
 Coeff-En:   0.000D+00 0.000D+00 0.000D+00 0.000D+00 0.100D+01
 Coeff:     -0.206D-01 0.429D-01-0.974D-02-0.436D-01 0.103D+01
 Gap=     0.523 Goal=   None    Shift=    0.000
 RMSDP=1.65D-04 MaxDP=5.72D-03 DE=-7.77D-03 OVMax= 8.12D-03

 Cycle   6  Pass 1  IDiag  1:
 RMSU=  9.02D-05    CP:  5.12D-02  3.00D+00  9.79D-01  1.06D+00  1.16D+00
 FoFJK:  IHMeth= 1 ICntrl=     0 DoSepK=T KAlg= 1 I1Cent= 0 FoldK=F
 E= -2904.61959778684     Delta-E=       -0.000793954733 Rises=F Damp=F
 DIIS: error= 6.83D-04 at cycle   6 NSaved=   6.
 NSaved= 6 IEnMin= 6 EnMin= -2904.61959778684     IErMin= 6 ErrMin= 6.83D-04
 ErrMax= 6.83D-04 EMaxC= 1.00D-01 BMatC= 1.83D-04 BMatP= 7.61D-04
 IDIUse=3 WtCom= 9.93D-01 WtEn= 6.83D-03
 Coeff-Com: -0.555D-02 0.115D-01-0.118D-01-0.616D-01 0.210D+00 0.858D+00
 Coeff-En:   0.000D+00 0.000D+00 0.000D+00 0.000D+00 0.000D+00 0.100D+01
 Coeff:     -0.551D-02 0.114D-01-0.117D-01-0.612D-01 0.208D+00 0.859D+00
 Gap=     0.525 Goal=   None    Shift=    0.000
 RMSDP=6.80D-05 MaxDP=1.64D-03 DE=-7.94D-04 OVMax= 4.79D-03

 Cycle   7  Pass 1  IDiag  1:
 RMSU=  2.96D-05    CP:  5.12D-02  3.00D+00  9.79D-01  1.07D+00  1.23D+00
                    CP:  1.11D+00
 FoFJK:  IHMeth= 1 ICntrl=     0 DoSepK=T KAlg= 1 I1Cent= 0 FoldK=F
 E= -2904.61981148884     Delta-E=       -0.000213701994 Rises=F Damp=F
 DIIS: error= 3.66D-04 at cycle   7 NSaved=   7.
 NSaved= 7 IEnMin= 7 EnMin= -2904.61981148884     IErMin= 7 ErrMin= 3.66D-04
 ErrMax= 3.66D-04 EMaxC= 1.00D-01 BMatC= 3.87D-05 BMatP= 1.83D-04
 IDIUse=3 WtCom= 9.96D-01 WtEn= 3.66D-03
 Coeff-Com:  0.188D-02-0.387D-02-0.490D-02-0.155D-01-0.102D+00 0.285D+00
 Coeff-Com:  0.839D+00
 Coeff-En:   0.000D+00 0.000D+00 0.000D+00 0.000D+00 0.000D+00 0.000D+00
 Coeff-En:   0.100D+01
 Coeff:      0.187D-02-0.385D-02-0.488D-02-0.154D-01-0.102D+00 0.284D+00
 Coeff:      0.840D+00
 Gap=     0.525 Goal=   None    Shift=    0.000
 RMSDP=3.58D-05 MaxDP=8.13D-04 DE=-2.14D-04 OVMax= 3.36D-03

 Cycle   8  Pass 1  IDiag  1:
 RMSU=  1.48D-05    CP:  5.12D-02  3.00D+00  9.79D-01  1.08D+00  1.26D+00
                    CP:  1.22D+00  1.20D+00
 FoFJK:  IHMeth= 1 ICntrl=     0 DoSepK=T KAlg= 1 I1Cent= 0 FoldK=F
 E= -2904.61986781439     Delta-E=       -0.000056325559 Rises=F Damp=F
 DIIS: error= 1.23D-04 at cycle   8 NSaved=   8.
 NSaved= 8 IEnMin= 8 EnMin= -2904.61986781439     IErMin= 8 ErrMin= 1.23D-04
 ErrMax= 1.23D-04 EMaxC= 1.00D-01 BMatC= 3.79D-06 BMatP= 3.87D-05
 IDIUse=3 WtCom= 9.99D-01 WtEn= 1.23D-03
 Coeff-Com:  0.142D-02-0.263D-02 0.279D-02 0.101D-01-0.136D-01-0.130D+00
 Coeff-Com: -0.592D-01 0.119D+01
 Coeff-En:   0.000D+00 0.000D+00 0.000D+00 0.000D+00 0.000D+00 0.000D+00
 Coeff-En:   0.000D+00 0.100D+01
 Coeff:      0.142D-02-0.262D-02 0.279D-02 0.100D-01-0.136D-01-0.130D+00
 Coeff:     -0.591D-01 0.119D+01
 Gap=     0.525 Goal=   None    Shift=    0.000
 RMSDP=1.72D-05 MaxDP=3.66D-04 DE=-5.63D-05 OVMax= 2.45D-03

 Cycle   9  Pass 1  IDiag  1:
 RMSU=  6.17D-06    CP:  5.12D-02  3.00D+00  9.79D-01  1.08D+00  1.26D+00
                    CP:  1.26D+00  1.45D+00  1.45D+00
 FoFJK:  IHMeth= 1 ICntrl=     0 DoSepK=T KAlg= 1 I1Cent= 0 FoldK=F
 E= -2904.61988063856     Delta-E=       -0.000012824163 Rises=F Damp=F
 DIIS: error= 6.06D-05 at cycle   9 NSaved=   9.
 NSaved= 9 IEnMin= 9 EnMin= -2904.61988063856     IErMin= 9 ErrMin= 6.06D-05
 ErrMax= 6.06D-05 EMaxC= 1.00D-01 BMatC= 8.01D-07 BMatP= 3.79D-06
 IDIUse=1 WtCom= 1.00D+00 WtEn= 0.00D+00
 Coeff-Com: -0.272D-03 0.592D-03 0.383D-03 0.587D-03 0.669D-02 0.124D-01
 Coeff-Com: -0.730D-01-0.450D+00 0.150D+01
 Coeff:     -0.272D-03 0.592D-03 0.383D-03 0.587D-03 0.669D-02 0.124D-01
 Coeff:     -0.730D-01-0.450D+00 0.150D+01
 Gap=     0.525 Goal=   None    Shift=    0.000
 RMSDP=1.14D-05 MaxDP=2.47D-04 DE=-1.28D-05 OVMax= 1.76D-03

 Cycle  10  Pass 1  IDiag  1:
 RMSU=  2.36D-06    CP:  5.12D-02  3.00D+00  9.79D-01  1.08D+00  1.26D+00
                    CP:  1.28D+00  1.56D+00  1.76D+00  1.79D+00
 FoFJK:  IHMeth= 1 ICntrl=     0 DoSepK=T KAlg= 1 I1Cent= 0 FoldK=F
 E= -2904.61988438655     Delta-E=       -0.000003747997 Rises=F Damp=F
 DIIS: error= 2.14D-05 at cycle  10 NSaved=  10.
 NSaved=10 IEnMin=10 EnMin= -2904.61988438655     IErMin=10 ErrMin= 2.14D-05
 ErrMax= 2.14D-05 EMaxC= 1.00D-01 BMatC= 1.11D-07 BMatP= 8.01D-07
 IDIUse=1 WtCom= 1.00D+00 WtEn= 0.00D+00
 Coeff-Com: -0.216D-03 0.395D-03-0.549D-03-0.164D-02-0.383D-03 0.173D-01
 Coeff-Com:  0.131D-01-0.148D+00-0.112D+00 0.123D+01
 Coeff:     -0.216D-03 0.395D-03-0.549D-03-0.164D-02-0.383D-03 0.173D-01
 Coeff:      0.131D-01-0.148D+00-0.112D+00 0.123D+01
 Gap=     0.525 Goal=   None    Shift=    0.000
 RMSDP=4.56D-06 MaxDP=1.03D-04 DE=-3.75D-06 OVMax= 7.30D-04

 Cycle  11  Pass 1  IDiag  1:
 RMSU=  9.23D-07    CP:  5.12D-02  3.00D+00  9.79D-01  1.08D+00  1.26D+00
                    CP:  1.28D+00  1.61D+00  1.87D+00  2.09D+00  1.48D+00
 FoFJK:  IHMeth= 1 ICntrl=     0 DoSepK=T KAlg= 1 I1Cent= 0 FoldK=F
 E= -2904.61988490431     Delta-E=       -0.000000517758 Rises=F Damp=F
 DIIS: error= 6.50D-06 at cycle  11 NSaved=  11.
 NSaved=11 IEnMin=11 EnMin= -2904.61988490431     IErMin=11 ErrMin= 6.50D-06
 ErrMax= 6.50D-06 EMaxC= 1.00D-01 BMatC= 1.18D-08 BMatP= 1.11D-07
 IDIUse=1 WtCom= 1.00D+00 WtEn= 0.00D+00
 Coeff-Com: -0.107D-04 0.781D-05 0.253D-04 0.131D-03 0.122D-02-0.609D-02
 Coeff-Com: -0.136D-02 0.744D-01-0.127D+00-0.268D+00 0.133D+01
 Coeff:     -0.107D-04 0.781D-05 0.253D-04 0.131D-03 0.122D-02-0.609D-02
 Coeff:     -0.136D-02 0.744D-01-0.127D+00-0.268D+00 0.133D+01
 Gap=     0.525 Goal=   None    Shift=    0.000
 RMSDP=1.51D-06 MaxDP=3.09D-05 DE=-5.18D-07 OVMax= 2.26D-04

 Cycle  12  Pass 1  IDiag  1:
 RMSU=  3.17D-07    CP:  5.12D-02  3.00D+00  9.79D-01  1.08D+00  1.26D+00
                    CP:  1.29D+00  1.62D+00  1.90D+00  2.16D+00  1.67D+00
                    CP:  1.49D+00
 FoFJK:  IHMeth= 1 ICntrl=     0 DoSepK=T KAlg= 1 I1Cent= 0 FoldK=F
 E= -2904.61988495495     Delta-E=       -0.000000050642 Rises=F Damp=F
 DIIS: error= 1.43D-06 at cycle  12 NSaved=  12.
 NSaved=12 IEnMin=12 EnMin= -2904.61988495495     IErMin=12 ErrMin= 1.43D-06
 ErrMax= 1.43D-06 EMaxC= 1.00D-01 BMatC= 7.06D-10 BMatP= 1.18D-08
 IDIUse=1 WtCom= 1.00D+00 WtEn= 0.00D+00
 Coeff-Com:  0.633D-05-0.135D-04 0.245D-04 0.102D-03-0.467D-03 0.626D-03
 Coeff-Com:  0.747D-03-0.932D-02 0.366D-01-0.170D-01-0.342D+00 0.133D+01
 Coeff:      0.633D-05-0.135D-04 0.245D-04 0.102D-03-0.467D-03 0.626D-03
 Coeff:      0.747D-03-0.932D-02 0.366D-01-0.170D-01-0.342D+00 0.133D+01
 Gap=     0.525 Goal=   None    Shift=    0.000
 RMSDP=3.31D-07 MaxDP=8.18D-06 DE=-5.06D-08 OVMax= 3.67D-05

 Cycle  13  Pass 1  IDiag  1:
 RMSU=  6.30D-08    CP:  5.12D-02  3.00D+00  9.79D-01  1.08D+00  1.26D+00
                    CP:  1.29D+00  1.62D+00  1.91D+00  2.16D+00  1.69D+00
                    CP:  1.63D+00  1.40D+00
 FoFJK:  IHMeth= 1 ICntrl=     0 DoSepK=T KAlg= 1 I1Cent= 0 FoldK=F
 E= -2904.61988495747     Delta-E=       -0.000000002519 Rises=F Damp=F
 DIIS: error= 3.66D-07 at cycle  13 NSaved=  13.
 NSaved=13 IEnMin=13 EnMin= -2904.61988495747     IErMin=13 ErrMin= 3.66D-07
 ErrMax= 3.66D-07 EMaxC= 1.00D-01 BMatC= 3.30D-11 BMatP= 7.06D-10
 IDIUse=1 WtCom= 1.00D+00 WtEn= 0.00D+00
 Coeff-Com:  0.846D-06-0.847D-06-0.253D-05-0.109D-04 0.749D-05 0.113D-03
 Coeff-Com:  0.832D-04-0.149D-02-0.220D-02 0.161D-01-0.467D-02-0.206D+00
 Coeff-Com:  0.120D+01
 Coeff:      0.846D-06-0.847D-06-0.253D-05-0.109D-04 0.749D-05 0.113D-03
 Coeff:      0.832D-04-0.149D-02-0.220D-02 0.161D-01-0.467D-02-0.206D+00
 Coeff:      0.120D+01
 Gap=     0.525 Goal=   None    Shift=    0.000
 RMSDP=5.95D-08 MaxDP=1.80D-06 DE=-2.52D-09 OVMax= 4.82D-06

 Cycle  14  Pass 1  IDiag  1:
 RMSU=  1.30D-08    CP:  5.12D-02  3.00D+00  9.79D-01  1.08D+00  1.26D+00
                    CP:  1.29D+00  1.62D+00  1.91D+00  2.16D+00  1.69D+00
                    CP:  1.63D+00  1.45D+00  1.37D+00
 FoFJK:  IHMeth= 1 ICntrl=     0 DoSepK=T KAlg= 1 I1Cent= 0 FoldK=F
 E= -2904.61988495752     Delta-E=       -0.000000000050 Rises=F Damp=F
 DIIS: error= 1.09D-07 at cycle  14 NSaved=  14.
 NSaved=14 IEnMin=14 EnMin= -2904.61988495752     IErMin=14 ErrMin= 1.09D-07
 ErrMax= 1.09D-07 EMaxC= 1.00D-01 BMatC= 2.66D-12 BMatP= 3.30D-11
 IDIUse=1 WtCom= 1.00D+00 WtEn= 0.00D+00
 Coeff-Com:  0.493D-06-0.771D-06-0.100D-05-0.564D-05 0.422D-04-0.106D-03
 Coeff-Com: -0.814D-04 0.109D-02-0.256D-02-0.835D-03 0.269D-01-0.769D-01
 Coeff-Com: -0.130D+00 0.118D+01
 Coeff:      0.493D-06-0.771D-06-0.100D-05-0.564D-05 0.422D-04-0.106D-03
 Coeff:     -0.814D-04 0.109D-02-0.256D-02-0.835D-03 0.269D-01-0.769D-01
 Coeff:     -0.130D+00 0.118D+01
 Gap=     0.525 Goal=   None    Shift=    0.000
 RMSDP=1.48D-08 MaxDP=5.58D-07 DE=-5.00D-11 OVMax= 1.37D-06

 Cycle  15  Pass 1  IDiag  1:
 RMSU=  4.81D-09    CP:  5.12D-02  3.00D+00  9.79D-01  1.08D+00  1.26D+00
                    CP:  1.29D+00  1.62D+00  1.91D+00  2.16D+00  1.69D+00
                    CP:  1.64D+00  1.46D+00  1.47D+00  1.40D+00
 FoFJK:  IHMeth= 1 ICntrl=     0 DoSepK=T KAlg= 1 I1Cent= 0 FoldK=F
 E= -2904.61988495756     Delta-E=       -0.000000000038 Rises=F Damp=F
 DIIS: error= 3.12D-08 at cycle  15 NSaved=  15.
 NSaved=15 IEnMin=15 EnMin= -2904.61988495756     IErMin=15 ErrMin= 3.12D-08
 ErrMax= 3.12D-08 EMaxC= 1.00D-01 BMatC= 2.71D-13 BMatP= 2.66D-12
 IDIUse=1 WtCom= 1.00D+00 WtEn= 0.00D+00
 Coeff-Com: -0.205D-07 0.838D-08 0.405D-06 0.254D-05-0.170D-04 0.267D-04
 Coeff-Com:  0.604D-04-0.262D-03 0.680D-03-0.201D-03-0.826D-02 0.342D-01
 Coeff-Com: -0.161D-01-0.436D+00 0.143D+01
 Coeff:     -0.205D-07 0.838D-08 0.405D-06 0.254D-05-0.170D-04 0.267D-04
 Coeff:      0.604D-04-0.262D-03 0.680D-03-0.201D-03-0.826D-02 0.342D-01
 Coeff:     -0.161D-01-0.436D+00 0.143D+01
 Gap=     0.525 Goal=   None    Shift=    0.000
 RMSDP=5.76D-09 MaxDP=1.16D-07 DE=-3.82D-11 OVMax= 7.04D-07

 SCF Done:  E(RLC-B+HF-LYP) =  -2904.61988496     A.U. after   15 cycles
             Convg  =    0.5757D-08             -V/T =  2.0016
 KE= 2.899949528704D+03 PE=-7.234637175225D+03 EE= 1.281472056907D+03
 Leave Link  502 at Mon May 11 15:25:12 2020, MaxMem= 1073741824 cpu:     354.6
 (Enter /home/matheus/.gaussian/g09/l601.exe)
 Copying SCF densities to generalized density rwf, IOpCl= 0 IROHF=0.

 **********************************************************************

            Population analysis using the SCF density.

 **********************************************************************

 Orbital symmetries:
       Occupied  (A) (A) (A) (A) (A) (A) (A) (A) (A) (A) (A) (A)
                 (A) (A) (A) (A) (A) (A) (A) (A) (A) (A) (A) (A)
                 (A) (A) (A)
       Virtual   (A) (A) (A) (A) (A) (A) (A) (A) (A) (A) (A) (A)
                 (A) (A) (A) (A) (A) (A) (A) (A) (A) (A) (A) (A)
                 (A) (A) (A) (A) (A) (A) (A) (A) (A) (A) (A) (A)
                 (A) (A) (A) (A) (A) (A) (A) (A) (A) (A) (A) (A)
                 (A) (A) (A) (A) (A) (A) (A) (A) (A) (A) (A) (A)
                 (A) (A) (A) (A) (A) (A) (A) (A) (A) (A) (A) (A)
                 (A) (A) (A) (A) (A) (A) (A) (A) (A) (A) (A) (A)
                 (A) (A) (A) (A) (A) (A) (A) (A) (A) (A) (A) (A)
                 (A) (A) (A) (A) (A) (A) (A) (A) (A) (A) (A) (A)
                 (A) (A) (A) (A) (A) (A) (A) (A) (A) (A) (A) (A)
                 (A) (A) (A) (A) (A) (A) (A) (A) (A) (A) (A) (A)
                 (A) (A) (A) (A) (A) (A) (A) (A) (A) (A) (A) (A)
                 (A) (A) (A) (A) (A) (A) (A) (A) (A) (A) (A) (A)
                 (A) (A) (A) (A) (A) (A) (A) (A) (A) (A) (A) (A)
                 (A) (A)
 The electronic state is 1-A.
 Alpha  occ. eigenvalues -- -511.66512 -67.19008 -60.86215 -60.86198 -60.86188
 Alpha  occ. eigenvalues --  -19.48234 -19.47923 -10.09136  -7.80737  -7.80694
 Alpha  occ. eigenvalues --   -7.80666  -3.63697  -3.63689  -3.63667  -3.63632
 Alpha  occ. eigenvalues --   -3.63628  -1.46047  -1.21453  -1.18545  -0.74913
 Alpha  occ. eigenvalues --   -0.73148  -0.64122  -0.57170  -0.56368  -0.55912
 Alpha  occ. eigenvalues --   -0.54002  -0.49709
 Alpha virt. eigenvalues --    0.02812   0.03805   0.07848   0.09282   0.10588
 Alpha virt. eigenvalues --    0.11253   0.13595   0.14002   0.16090   0.17025
 Alpha virt. eigenvalues --    0.17957   0.19847   0.21810   0.23632   0.24085
 Alpha virt. eigenvalues --    0.24785   0.26277   0.29290   0.32002   0.34040
 Alpha virt. eigenvalues --    0.34242   0.34706   0.36037   0.39583   0.40365
 Alpha virt. eigenvalues --    0.42254   0.43595   0.49132   0.54154   0.57379
 Alpha virt. eigenvalues --    0.58248   0.61121   0.64610   0.68935   0.69734
 Alpha virt. eigenvalues --    0.73703   0.74417   0.74628   0.76700   0.78596
 Alpha virt. eigenvalues --    0.80225   0.81573   0.82704   0.84218   0.84829
 Alpha virt. eigenvalues --    0.88092   0.88490   0.89806   0.92255   0.94490
 Alpha virt. eigenvalues --    0.96259   0.97194   0.99116   0.99472   1.02861
 Alpha virt. eigenvalues --    1.05480   1.05682   1.09860   1.11614   1.14287
 Alpha virt. eigenvalues --    1.14738   1.17976   1.20250   1.22610   1.26910
 Alpha virt. eigenvalues --    1.29356   1.36489   1.38645   1.44327   1.47120
 Alpha virt. eigenvalues --    1.48661   1.55479   1.58721   1.60521   1.65964
 Alpha virt. eigenvalues --    1.71448   1.82987   1.92156   1.95613   2.03603
 Alpha virt. eigenvalues --    2.08799   2.12044   2.19064   2.23743   2.26754
 Alpha virt. eigenvalues --    2.27880   2.30446   2.33215   2.33857   2.36153
 Alpha virt. eigenvalues --    2.37409   2.42338   2.45588   2.46228   2.48045
 Alpha virt. eigenvalues --    2.49423   2.51396   2.55902   2.58545   2.62272
 Alpha virt. eigenvalues --    2.64267   2.64608   2.65656   2.70114   2.70667
 Alpha virt. eigenvalues --    2.73287   2.75142   2.77378   2.79679   2.83112
 Alpha virt. eigenvalues --    2.86607   2.89576   2.94827   2.98456   3.01442
 Alpha virt. eigenvalues --    3.04184   3.18829   3.24121   3.28191   3.77933
 Alpha virt. eigenvalues --    3.82240   4.04931   4.12243   4.17441   4.18487
 Alpha virt. eigenvalues --    4.28505   4.29252   4.34664   4.40333   4.42737
 Alpha virt. eigenvalues --    4.60433   4.64855   4.67626   4.72330   4.89311
 Alpha virt. eigenvalues --    5.07659   5.15788   5.23939   5.28169   5.28967
 Alpha virt. eigenvalues --    5.43197   5.66027   6.05632   6.28895   6.32334
 Alpha virt. eigenvalues --    6.35062   6.55877   6.60132   6.65685   6.78278
 Alpha virt. eigenvalues --    6.87901   7.02432   7.03154   7.08190   7.10667
 Alpha virt. eigenvalues --    7.12274   7.14891   7.16279   7.22268   7.28494
 Alpha virt. eigenvalues --    7.30342   7.45698   7.51145   7.66450   8.02707
 Alpha virt. eigenvalues --    8.03539   8.32562   8.37599  14.18316  14.86698
          Condensed to atoms (all electrons):
              1          2          3          4          5
     1  O    8.208156  -0.163745   0.209896  -0.009790  -0.032936
     2  O   -0.163745   8.219347   0.004127   0.209179  -0.009024
     3  H    0.209896   0.004127   0.555215   0.004373   0.003710
     4  H   -0.009790   0.209179   0.004373   0.561859  -0.012729
     5  Kr  -0.032936  -0.009024   0.003710  -0.012729  36.049301
 Mulliken atomic charges:
              1
     1  O   -0.211581
     2  O   -0.259884
     3  H    0.222679
     4  H    0.247108
     5  Kr   0.001679
 Sum of Mulliken atomic charges =   0.00000
 Mulliken charges with hydrogens summed into heavy atoms:
              1
     1  O    0.011098
     2  O   -0.012776
     5  Kr   0.001679
 Sum of Mulliken charges with hydrogens summed into heavy atoms =   0.00000
          Condensed to fragments (all electrons):
     1      -0.001679
     2       0.001679
 Electronic spatial extent (au):  <R**2>=            488.8433
 Charge=              0.0000 electrons
 Dipole moment (field-independent basis, Debye):
    X=             -0.7494    Y=             -0.3665    Z=              1.2894  Tot=              1.5357
 Quadrupole moment (field-independent basis, Debye-Ang):
   XX=            -29.3950   YY=            -27.8268   ZZ=            -29.3354
   XY=             -3.6607   XZ=              3.6370   YZ=             -1.4346
 Traceless Quadrupole moment (field-independent basis, Debye-Ang):
   XX=             -0.5426   YY=              1.0256   ZZ=             -0.4830
   XY=             -3.6607   XZ=              3.6370   YZ=             -1.4346
 Octapole moment (field-independent basis, Debye-Ang**2):
  XXX=            -13.4331  YYY=             -0.8993  ZZZ=              0.8692  XYY=             -3.9657
  XXY=            -14.0842  XXZ=              9.7982  XZZ=             -5.7576  YZZ=             -1.2114
  YYZ=              1.7611  XYZ=             -3.9799
 Hexadecapole moment (field-independent basis, Debye-Ang**3):
 XXXX=           -386.8433 YYYY=            -61.9324 ZZZZ=            -28.5716 XXXY=            -40.1581
 XXXZ=             27.3353 YYYX=             -5.8590 YYYZ=             -1.9397 ZZZX=              2.6054
 ZZZY=             -1.2046 XXYY=            -74.9565 XXZZ=            -71.8872 YYZZ=            -16.0327
 XXYZ=            -10.9181 YYXZ=              4.6208 ZZXY=             -2.7849
 N-N= 1.485957046553D+02 E-N=-7.234637176959D+03  KE= 2.899949528704D+03
 No NMR shielding tensors so no spin-rotation constants.
 Leave Link  601 at Mon May 11 15:25:13 2020, MaxMem= 1073741824 cpu:       0.8
 (Enter /home/matheus/.gaussian/g09/l122.exe)
 Counterpoise: doing DCBS calculation for fragment   1 NewBq=T
 Leave Link  122 at Mon May 11 15:25:13 2020, MaxMem= 1073741824 cpu:       0.0
 (Enter /home/matheus/.gaussian/g09/l301.exe)
 Basis read from rwf:  (5D, 7F)
 No pseudopotential information found on rwf file.
 There are   197 symmetry adapted basis functions of A   symmetry.
 Integral buffers will be    131072 words long.
 Raffenetti 2 integral format.
 Two-electron integral symmetry is turned on.
   197 basis functions,   415 primitive gaussians,   229 cartesian basis functions
     9 alpha electrons        9 beta electrons
       nuclear repulsion energy        36.6087755249 Hartrees.
 IExCor=10402 DFT=T Ex=LC-B+HF Corr=LYP ExCW=0 ScaHFX=  1.000000
 ScaDFX=  1.000000  1.000000  1.000000  1.000000 ScalE2=  1.000000  1.000000
 IRadAn=      5 IRanWt=     -1 IRanGd=            0 ICorTp=0
  HFx wShort=  0.000000 wLong=  1.350000 cFull=  0.000000 cShort=  0.000000 cLong=  1.000000
  DFx wShort=  0.000000 wLong=  1.350000 cFull=  0.000000 cShort=  0.000000 cLong=  1.000000
 NAtoms=    5 NActive=    5 NUniq=    5 SFac= 1.00D+00 NAtFMM=   60 NAOKFM=F Big=F
 No density basis found on file   718.
 Leave Link  301 at Mon May 11 15:25:13 2020, MaxMem= 1073741824 cpu:       0.2
 (Enter /home/matheus/.gaussian/g09/l302.exe)
 NPDir=0 NMtPBC=     1 NCelOv=     1 NCel=       1 NClECP=     1 NCelD=      1
         NCelK=      1 NCelE2=     1 NClLst=     1 CellRange=     0.0.
 One-electron integrals computed using PRISM.
 NBasis=   197 RedAO= T  NBF=   197
 NBsUse=   197 1.00D-06 NBFU=   197
 Precomputing XC quadrature grid using
 IXCGrd= 2 IRadAn=           5 IRanWt=          -1 IRanGd=           0 AccXCQ= 0.00D+00.
 NRdTot=     427 NPtTot=      123512 NUsed=      126579 NTot=      126611
 NSgBfM=   229   229   229   229   229 NAtAll=     5     5.
 Leave Link  302 at Mon May 11 15:25:13 2020, MaxMem= 1073741824 cpu:       1.0
 (Enter /home/matheus/.gaussian/g09/l303.exe)
 DipDrv:  MaxL=1.
 Leave Link  303 at Mon May 11 15:25:13 2020, MaxMem= 1073741824 cpu:       0.2
 (Enter /home/matheus/.gaussian/g09/l401.exe)
 Harris functional with IExCor=10402 diagonalized for initial guess.
 ExpMin= 2.53D-02 ExpMax= 1.17D+07 ExpMxC= 1.33D+04 IAcc=3 IRadAn=         5 AccDes= 0.00D+00
 HarFok:  IExCor=10402 AccDes= 0.00D+00 IRadAn=         5 IDoV= 1
 ScaDFX=  1.000000  1.000000  1.000000  1.000000
 FoFCou: FMM=F IPFlag=           0 FMFlag=      100000 FMFlg1=           0
         NFxFlg=           0 DoJE=T BraDBF=F KetDBF=T FulRan=T
         Omega=  0.000000  0.000000  1.000000  0.000000  0.000000 ICntrl=     500 IOpCl=  0
         NMat0=    1 NMatS0=    1 NMatT0=    0 NMatD0=    1 NMtDS0=    0 NMtDT0=    0
         I1Cent=           4 NGrid=           0.
 Petite list used in FoFCou.
 Harris En= -143.243612401730    
 Initial guess orbital symmetries:
       Occupied  (A) (A) (A) (A) (A) (A) (A) (A) (A)
       Virtual   (A) (A) (A) (A) (A) (A) (A) (A) (A) (A) (A) (A)
                 (A) (A) (A) (A) (A) (A) (A) (A) (A) (A) (A) (A)
                 (A) (A) (A) (A) (A) (A) (A) (A) (A) (A) (A) (A)
                 (A) (A) (A) (A) (A) (A) (A) (A) (A) (A) (A) (A)
                 (A) (A) (A) (A) (A) (A) (A) (A) (A) (A) (A) (A)
                 (A) (A) (A) (A) (A) (A) (A) (A) (A) (A) (A) (A)
                 (A) (A) (A) (A) (A) (A) (A) (A) (A) (A) (A) (A)
                 (A) (A) (A) (A) (A) (A) (A) (A) (A) (A) (A) (A)
                 (A) (A) (A) (A) (A) (A) (A) (A) (A) (A) (A) (A)
                 (A) (A) (A) (A) (A) (A) (A) (A) (A) (A) (A) (A)
                 (A) (A) (A) (A) (A) (A) (A) (A) (A) (A) (A) (A)
                 (A) (A) (A) (A) (A) (A) (A) (A) (A) (A) (A) (A)
                 (A) (A) (A) (A) (A) (A) (A) (A) (A) (A) (A) (A)
                 (A) (A) (A) (A) (A) (A) (A) (A) (A) (A) (A) (A)
                 (A) (A) (A) (A) (A) (A) (A) (A) (A) (A) (A) (A)
                 (A) (A) (A) (A) (A) (A) (A) (A)
 The electronic state of the initial guess is 1-A.
 Leave Link  401 at Mon May 11 15:25:13 2020, MaxMem= 1073741824 cpu:       3.7
 (Enter /home/matheus/.gaussian/g09/l502.exe)
 Closed shell SCF:
 Requested convergence on RMS density matrix=1.00D-08 within 128 cycles.
 Requested convergence on MAX density matrix=1.00D-06.
 Requested convergence on             energy=1.00D-06.
 No special actions if energy rises.
 Using DIIS extrapolation, IDIIS=  1040.
 Integral symmetry usage will be decided dynamically.
       126521 words used for storage of precomputed grid.
 IEnd=      305468 IEndB=      305468 NGot=  1073741824 MDV=  1073505667
 LenX=  1073505667 LenY=  1073452785
 Fock matrices will be formed incrementally for  20 cycles.

 Cycle   1  Pass 1  IDiag  1:
 FoFJK:  IHMeth= 1 ICntrl=     0 DoSepK=T KAlg= 1 I1Cent= 0 FoldK=F
 FoFCou: FMM=F IPFlag=           0 FMFlag=      100000 FMFlg1=           0
         NFxFlg=           0 DoJE=T BraDBF=F KetDBF=F FulRan=T
         Omega=  0.000000  0.000000  1.000000  0.000000  0.000000 ICntrl=     500 IOpCl=  0
         NMat0=    1 NMatS0=    1 NMatT0=    0 NMatD0=    1 NMtDS0=    0 NMtDT0=    0
         I1Cent=           0 NGrid=           0.
 Symmetry not used in FoFCou.
 E= -145.713747587775    
 DIIS: error= 1.31D-01 at cycle   1 NSaved=   1.
 NSaved= 1 IEnMin= 1 EnMin= -145.713747587775     IErMin= 1 ErrMin= 1.31D-01
 ErrMax= 1.31D-01 EMaxC= 1.00D-01 BMatC= 2.74D+00 BMatP= 2.74D+00
 IDIUse=3 WtCom= 0.00D+00 WtEn= 1.00D+00
 Coeff-Com:  0.100D+01
 Coeff-En:   0.100D+01
 Coeff:      0.100D+01
 Gap=    -1.026 Goal=   None    Shift=    0.000
 GapD=   -1.026 DampG=0.250 DampE=0.250 DampFc=0.2500 IDamp=-1.
 Damping current iteration by 2.50D-01
 RMSDP=9.05D-02 MaxDP=6.97D+00              OVMax= 9.99D-01

 Cycle   2  Pass 1  IDiag  1:
 RMSU=  1.82D-03    CP:  7.52D-01
 FoFJK:  IHMeth= 1 ICntrl=     0 DoSepK=T KAlg= 1 I1Cent= 0 FoldK=F
 E= -147.810279243210     Delta-E=       -2.096531655435 Rises=F Damp=T
 DIIS: error= 6.90D-02 at cycle   2 NSaved=   2.
 NSaved= 2 IEnMin= 2 EnMin= -147.810279243210     IErMin= 2 ErrMin= 6.90D-02
 ErrMax= 6.90D-02 EMaxC= 1.00D-01 BMatC= 7.28D-01 BMatP= 2.74D+00
 IDIUse=3 WtCom= 3.10D-01 WtEn= 6.90D-01
 Coeff-Com: -0.973D+00 0.197D+01
 Coeff-En:   0.000D+00 0.100D+01
 Coeff:     -0.301D+00 0.130D+01
 Gap=     0.355 Goal=   None    Shift=    0.000
 RMSDP=6.79D-02 MaxDP=5.23D+00 DE=-2.10D+00 OVMax= 1.18D-01

 Cycle   3  Pass 1  IDiag  1:
 RMSU=  2.14D-03    CP:  8.97D-03  3.00D+00
 FoFJK:  IHMeth= 1 ICntrl=     0 DoSepK=T KAlg= 1 I1Cent= 0 FoldK=F
 E= -150.503938223412     Delta-E=       -2.693658980201 Rises=F Damp=F
 DIIS: error= 5.34D-02 at cycle   3 NSaved=   3.
 NSaved= 3 IEnMin= 3 EnMin= -150.503938223412     IErMin= 3 ErrMin= 5.34D-02
 ErrMax= 5.34D-02 EMaxC= 1.00D-01 BMatC= 1.02D+00 BMatP= 7.28D-01
 IDIUse=2 WtCom= 0.00D+00 WtEn= 1.00D+00
 Coeff-En:   0.163D-01 0.000D+00 0.984D+00
 Coeff:      0.163D-01 0.000D+00 0.984D+00
 Gap=     0.789 Goal=   None    Shift=    0.000
 RMSDP=4.05D-03 MaxDP=1.45D-01 DE=-2.69D+00 OVMax= 2.99D-01

 Cycle   4  Pass 1  IDiag  1:
 RMSU=  2.84D-03    CP:  1.01D-02  3.00D+00  1.18D+00
 FoFJK:  IHMeth= 1 ICntrl=     0 DoSepK=T KAlg= 1 I1Cent= 0 FoldK=F
 E= -150.946266599855     Delta-E=       -0.442328376443 Rises=F Damp=F
 DIIS: error= 3.85D-02 at cycle   4 NSaved=   4.
 NSaved= 4 IEnMin= 4 EnMin= -150.946266599855     IErMin= 4 ErrMin= 3.85D-02
 ErrMax= 3.85D-02 EMaxC= 1.00D-01 BMatC= 4.10D-01 BMatP= 7.28D-01
 IDIUse=3 WtCom= 6.15D-01 WtEn= 3.85D-01
 Coeff-Com: -0.428D+00 0.717D+00 0.190D+00 0.521D+00
 Coeff-En:   0.000D+00 0.000D+00 0.160D+00 0.840D+00
 Coeff:     -0.263D+00 0.441D+00 0.178D+00 0.644D+00
 Gap=     0.585 Goal=   None    Shift=    0.000
 RMSDP=1.89D-03 MaxDP=5.04D-02 DE=-4.42D-01 OVMax= 1.49D-01

 Cycle   5  Pass 1  IDiag  1:
 RMSU=  4.06D-04    CP:  9.20D-03  3.00D+00  1.21D+00  5.53D-01
 FoFJK:  IHMeth= 1 ICntrl=     0 DoSepK=T KAlg= 1 I1Cent= 0 FoldK=F
 E= -151.188354213570     Delta-E=       -0.242087613715 Rises=F Damp=F
 DIIS: error= 1.03D-02 at cycle   5 NSaved=   5.
 NSaved= 5 IEnMin= 5 EnMin= -151.188354213570     IErMin= 5 ErrMin= 1.03D-02
 ErrMax= 1.03D-02 EMaxC= 1.00D-01 BMatC= 3.35D-02 BMatP= 4.10D-01
 IDIUse=3 WtCom= 8.97D-01 WtEn= 1.03D-01
 Coeff-Com: -0.953D-01 0.173D+00-0.151D+00 0.829D-01 0.990D+00
 Coeff-En:   0.000D+00 0.000D+00 0.000D+00 0.000D+00 0.100D+01
 Coeff:     -0.855D-01 0.155D+00-0.135D+00 0.744D-01 0.991D+00
 Gap=     0.568 Goal=   None    Shift=    0.000
 RMSDP=4.45D-04 MaxDP=1.67D-02 DE=-2.42D-01 OVMax= 2.81D-02

 Cycle   6  Pass 1  IDiag  1:
 RMSU=  9.52D-05    CP:  9.39D-03  3.00D+00  1.23D+00  6.56D-01  1.13D+00
 FoFJK:  IHMeth= 1 ICntrl=     0 DoSepK=T KAlg= 1 I1Cent= 0 FoldK=F
 E= -151.211501145065     Delta-E=       -0.023146931494 Rises=F Damp=F
 DIIS: error= 1.89D-03 at cycle   6 NSaved=   6.
 NSaved= 6 IEnMin= 6 EnMin= -151.211501145065     IErMin= 6 ErrMin= 1.89D-03
 ErrMax= 1.89D-03 EMaxC= 1.00D-01 BMatC= 9.09D-04 BMatP= 3.35D-02
 IDIUse=3 WtCom= 9.81D-01 WtEn= 1.89D-02
 Coeff-Com: -0.365D-01 0.707D-01 0.106D-01-0.403D-01-0.445D+00 0.144D+01
 Coeff-En:   0.000D+00 0.000D+00 0.000D+00 0.000D+00 0.000D+00 0.100D+01
 Coeff:     -0.358D-01 0.694D-01 0.104D-01-0.396D-01-0.436D+00 0.143D+01
 Gap=     0.529 Goal=   None    Shift=    0.000
 RMSDP=1.10D-04 MaxDP=2.21D-03 DE=-2.31D-02 OVMax= 1.13D-02

 Cycle   7  Pass 1  IDiag  1:
 RMSU=  3.19D-05    CP:  9.43D-03  3.00D+00  1.23D+00  6.69D-01  1.21D+00
                    CP:  1.55D+00
 FoFJK:  IHMeth= 1 ICntrl=     0 DoSepK=T KAlg= 1 I1Cent= 0 FoldK=F
 E= -151.212336455713     Delta-E=       -0.000835310648 Rises=F Damp=F
 DIIS: error= 1.27D-03 at cycle   7 NSaved=   7.
 NSaved= 7 IEnMin= 7 EnMin= -151.212336455713     IErMin= 7 ErrMin= 1.27D-03
 ErrMax= 1.27D-03 EMaxC= 1.00D-01 BMatC= 3.26D-04 BMatP= 9.09D-04
 IDIUse=3 WtCom= 9.87D-01 WtEn= 1.27D-02
 Coeff-Com: -0.731D-02 0.138D-01 0.101D-01 0.843D-02-0.117D+00-0.377D+00
 Coeff-Com:  0.147D+01
 Coeff-En:   0.000D+00 0.000D+00 0.000D+00 0.000D+00 0.000D+00 0.000D+00
 Coeff-En:   0.100D+01
 Coeff:     -0.722D-02 0.136D-01 0.100D-01 0.833D-02-0.116D+00-0.373D+00
 Coeff:      0.146D+01
 Gap=     0.524 Goal=   None    Shift=    0.000
 RMSDP=8.37D-05 MaxDP=1.97D-03 DE=-8.35D-04 OVMax= 8.40D-03

 Cycle   8  Pass 1  IDiag  1:
 RMSU=  1.04D-05    CP:  9.48D-03  3.00D+00  1.22D+00  6.83D-01  1.22D+00
                    CP:  1.88D+00  1.88D+00
 FoFJK:  IHMeth= 1 ICntrl=     0 DoSepK=T KAlg= 1 I1Cent= 0 FoldK=F
 E= -151.212690135779     Delta-E=       -0.000353680066 Rises=F Damp=F
 DIIS: error= 2.28D-04 at cycle   8 NSaved=   8.
 NSaved= 8 IEnMin= 8 EnMin= -151.212690135779     IErMin= 8 ErrMin= 2.28D-04
 ErrMax= 2.28D-04 EMaxC= 1.00D-01 BMatC= 9.98D-06 BMatP= 3.26D-04
 IDIUse=3 WtCom= 9.98D-01 WtEn= 2.28D-03
 Coeff-Com: -0.455D-03 0.487D-03-0.287D-02 0.419D-02 0.494D-01-0.374D-01
 Coeff-Com: -0.379D+00 0.137D+01
 Coeff-En:   0.000D+00 0.000D+00 0.000D+00 0.000D+00 0.000D+00 0.000D+00
 Coeff-En:   0.000D+00 0.100D+01
 Coeff:     -0.454D-03 0.486D-03-0.286D-02 0.418D-02 0.493D-01-0.373D-01
 Coeff:     -0.378D+00 0.136D+01
 Gap=     0.524 Goal=   None    Shift=    0.000
 RMSDP=2.45D-05 MaxDP=5.74D-04 DE=-3.54D-04 OVMax= 3.08D-03

 Cycle   9  Pass 1  IDiag  1:
 RMSU=  4.03D-06    CP:  9.49D-03  3.00D+00  1.22D+00  6.86D-01  1.21D+00
                    CP:  1.95D+00  2.22D+00  1.59D+00
 FoFJK:  IHMeth= 1 ICntrl=     0 DoSepK=T KAlg= 1 I1Cent= 0 FoldK=F
 E= -151.212708033682     Delta-E=       -0.000017897903 Rises=F Damp=F
 DIIS: error= 3.23D-05 at cycle   9 NSaved=   9.
 NSaved= 9 IEnMin= 9 EnMin= -151.212708033682     IErMin= 9 ErrMin= 3.23D-05
 ErrMax= 3.23D-05 EMaxC= 1.00D-01 BMatC= 3.52D-07 BMatP= 9.98D-06
 IDIUse=1 WtCom= 1.00D+00 WtEn= 0.00D+00
 Coeff-Com:  0.259D-03-0.628D-03-0.830D-03-0.215D-03 0.129D-01 0.349D-01
 Coeff-Com: -0.191D+00 0.252D+00 0.893D+00
 Coeff:      0.259D-03-0.628D-03-0.830D-03-0.215D-03 0.129D-01 0.349D-01
 Coeff:     -0.191D+00 0.252D+00 0.893D+00
 Gap=     0.524 Goal=   None    Shift=    0.000
 RMSDP=4.39D-06 MaxDP=8.74D-05 DE=-1.79D-05 OVMax= 6.56D-04

 Cycle  10  Pass 1  IDiag  1:
 RMSU=  1.44D-06    CP:  9.50D-03  3.00D+00  1.22D+00  6.86D-01  1.21D+00
                    CP:  1.96D+00  2.27D+00  1.71D+00  1.38D+00
 FoFJK:  IHMeth= 1 ICntrl=     0 DoSepK=T KAlg= 1 I1Cent= 0 FoldK=F
 E= -151.212708890639     Delta-E=       -0.000000856957 Rises=F Damp=F
 DIIS: error= 2.45D-05 at cycle  10 NSaved=  10.
 NSaved=10 IEnMin=10 EnMin= -151.212708890639     IErMin=10 ErrMin= 2.45D-05
 ErrMax= 2.45D-05 EMaxC= 1.00D-01 BMatC= 1.55D-07 BMatP= 3.52D-07
 IDIUse=1 WtCom= 1.00D+00 WtEn= 0.00D+00
 Coeff-Com:  0.577D-03-0.100D-02 0.116D-02-0.222D-02-0.172D-01 0.394D-01
 Coeff-Com:  0.632D-01-0.437D+00 0.250D+00 0.110D+01
 Coeff:      0.577D-03-0.100D-02 0.116D-02-0.222D-02-0.172D-01 0.394D-01
 Coeff:      0.632D-01-0.437D+00 0.250D+00 0.110D+01
 Gap=     0.524 Goal=   None    Shift=    0.000
 RMSDP=3.73D-06 MaxDP=7.48D-05 DE=-8.57D-07 OVMax= 5.63D-04

 Cycle  11  Pass 1  IDiag  1:
 RMSU=  6.88D-07    CP:  9.49D-03  3.00D+00  1.22D+00  6.86D-01  1.22D+00
                    CP:  1.96D+00  2.31D+00  1.78D+00  1.84D+00  1.41D+00
 FoFJK:  IHMeth= 1 ICntrl=     0 DoSepK=T KAlg= 1 I1Cent= 0 FoldK=F
 E= -151.212709264968     Delta-E=       -0.000000374329 Rises=F Damp=F
 DIIS: error= 1.43D-05 at cycle  11 NSaved=  11.
 NSaved=11 IEnMin=11 EnMin= -151.212709264968     IErMin=11 ErrMin= 1.43D-05
 ErrMax= 1.43D-05 EMaxC= 1.00D-01 BMatC= 5.20D-08 BMatP= 1.55D-07
 IDIUse=1 WtCom= 1.00D+00 WtEn= 0.00D+00
 Coeff-Com:  0.211D-03-0.368D-03-0.998D-04 0.224D-03 0.345D-02-0.921D-02
 Coeff-Com: -0.799D-02 0.104D+00-0.204D+00-0.338D+00 0.145D+01
 Coeff:      0.211D-03-0.368D-03-0.998D-04 0.224D-03 0.345D-02-0.921D-02
 Coeff:     -0.799D-02 0.104D+00-0.204D+00-0.338D+00 0.145D+01
 Gap=     0.524 Goal=   None    Shift=    0.000
 RMSDP=1.57D-06 MaxDP=2.99D-05 DE=-3.74D-07 OVMax= 2.16D-04

 Cycle  12  Pass 1  IDiag  1:
 RMSU=  2.16D-07    CP:  9.49D-03  3.00D+00  1.22D+00  6.86D-01  1.22D+00
                    CP:  1.97D+00  2.32D+00  1.79D+00  2.00D+00  1.71D+00
                    CP:  1.51D+00
 FoFJK:  IHMeth= 1 ICntrl=     0 DoSepK=T KAlg= 1 I1Cent= 0 FoldK=F
 E= -151.212709334092     Delta-E=       -0.000000069124 Rises=F Damp=F
 DIIS: error= 4.18D-06 at cycle  12 NSaved=  12.
 NSaved=12 IEnMin=12 EnMin= -151.212709334092     IErMin=12 ErrMin= 4.18D-06
 ErrMax= 4.18D-06 EMaxC= 1.00D-01 BMatC= 5.17D-09 BMatP= 5.20D-08
 IDIUse=1 WtCom= 1.00D+00 WtEn= 0.00D+00
 Coeff-Com:  0.256D-04-0.449D-04-0.172D-04-0.246D-04 0.250D-03 0.133D-02
 Coeff-Com: -0.196D-02-0.828D-02 0.444D-01 0.350D-01-0.398D+00 0.133D+01
 Coeff:      0.256D-04-0.449D-04-0.172D-04-0.246D-04 0.250D-03 0.133D-02
 Coeff:     -0.196D-02-0.828D-02 0.444D-01 0.350D-01-0.398D+00 0.133D+01
 Gap=     0.524 Goal=   None    Shift=    0.000
 RMSDP=2.69D-07 MaxDP=6.12D-06 DE=-6.91D-08 OVMax= 2.94D-05

 Cycle  13  Pass 1  IDiag  1:
 RMSU=  5.19D-08    CP:  9.49D-03  3.00D+00  1.22D+00  6.86D-01  1.22D+00
                    CP:  1.97D+00  2.32D+00  1.79D+00  2.01D+00  1.73D+00
                    CP:  1.57D+00  1.37D+00
 FoFJK:  IHMeth= 1 ICntrl=     0 DoSepK=T KAlg= 1 I1Cent= 0 FoldK=F
 E= -151.212709338389     Delta-E=       -0.000000004297 Rises=F Damp=F
 DIIS: error= 6.41D-07 at cycle  13 NSaved=  13.
 NSaved=13 IEnMin=13 EnMin= -151.212709338389     IErMin=13 ErrMin= 6.41D-07
 ErrMax= 6.41D-07 EMaxC= 1.00D-01 BMatC= 1.04D-10 BMatP= 5.17D-09
 IDIUse=1 WtCom= 1.00D+00 WtEn= 0.00D+00
 Coeff-Com:  0.222D-05-0.453D-05 0.139D-04-0.316D-04-0.297D-03 0.508D-03
 Coeff-Com:  0.121D-02-0.925D-02 0.108D-01 0.254D-01-0.674D-01-0.188D+00
 Coeff-Com:  0.123D+01
 Coeff:      0.222D-05-0.453D-05 0.139D-04-0.316D-04-0.297D-03 0.508D-03
 Coeff:      0.121D-02-0.925D-02 0.108D-01 0.254D-01-0.674D-01-0.188D+00
 Coeff:      0.123D+01
 Gap=     0.524 Goal=   None    Shift=    0.000
 RMSDP=6.79D-08 MaxDP=1.50D-06 DE=-4.30D-09 OVMax= 9.65D-06

 Cycle  14  Pass 1  IDiag  1:
 RMSU=  1.02D-08    CP:  9.49D-03  3.00D+00  1.22D+00  6.86D-01  1.22D+00
                    CP:  1.97D+00  2.32D+00  1.79D+00  2.02D+00  1.74D+00
                    CP:  1.58D+00  1.43D+00  1.44D+00
 FoFJK:  IHMeth= 1 ICntrl=     0 DoSepK=T KAlg= 1 I1Cent= 0 FoldK=F
 E= -151.212709338476     Delta-E=       -0.000000000087 Rises=F Damp=F
 DIIS: error= 1.37D-07 at cycle  14 NSaved=  14.
 NSaved=14 IEnMin=14 EnMin= -151.212709338476     IErMin=14 ErrMin= 1.37D-07
 ErrMax= 1.37D-07 EMaxC= 1.00D-01 BMatC= 3.58D-12 BMatP= 1.04D-10
 IDIUse=1 WtCom= 1.00D+00 WtEn= 0.00D+00
 Coeff-Com: -0.328D-06 0.416D-06-0.301D-05 0.664D-05 0.676D-04-0.198D-03
 Coeff-Com: -0.189D-03 0.270D-02-0.473D-02-0.783D-02 0.368D-01-0.285D-01
 Coeff-Com: -0.227D+00 0.123D+01
 Coeff:     -0.328D-06 0.416D-06-0.301D-05 0.664D-05 0.676D-04-0.198D-03
 Coeff:     -0.189D-03 0.270D-02-0.473D-02-0.783D-02 0.368D-01-0.285D-01
 Coeff:     -0.227D+00 0.123D+01
 Gap=     0.524 Goal=   None    Shift=    0.000
 RMSDP=1.27D-08 MaxDP=4.07D-07 DE=-8.67D-11 OVMax= 7.49D-07

 Cycle  15  Pass 1  IDiag  1:
 RMSU=  2.36D-09    CP:  9.49D-03  3.00D+00  1.22D+00  6.86D-01  1.22D+00
                    CP:  1.97D+00  2.32D+00  1.79D+00  2.02D+00  1.74D+00
                    CP:  1.58D+00  1.42D+00  1.51D+00  1.30D+00
 FoFJK:  IHMeth= 1 ICntrl=     0 DoSepK=T KAlg= 1 I1Cent= 0 FoldK=F
 E= -151.212709338455     Delta-E=        0.000000000021 Rises=F Damp=F
 DIIS: error= 1.78D-08 at cycle  15 NSaved=  15.
 NSaved=15 IEnMin=14 EnMin= -151.212709338476     IErMin=15 ErrMin= 1.78D-08
 ErrMax= 1.78D-08 EMaxC= 1.00D-01 BMatC= 4.36D-14 BMatP= 3.58D-12
 IDIUse=1 WtCom= 1.00D+00 WtEn= 0.00D+00
 Coeff-Com: -0.154D-06 0.284D-06 0.182D-06-0.288D-06-0.560D-05 0.281D-04
 Coeff-Com:  0.124D-04-0.412D-03 0.858D-03 0.110D-02-0.684D-02 0.127D-01
 Coeff-Com:  0.227D-01-0.343D+00 0.131D+01
 Coeff:     -0.154D-06 0.284D-06 0.182D-06-0.288D-06-0.560D-05 0.281D-04
 Coeff:      0.124D-04-0.412D-03 0.858D-03 0.110D-02-0.684D-02 0.127D-01
 Coeff:      0.227D-01-0.343D+00 0.131D+01
 Gap=     0.524 Goal=   None    Shift=    0.000
 RMSDP=1.79D-09 MaxDP=5.76D-08 DE= 2.08D-11 OVMax= 1.65D-07

 SCF Done:  E(RLC-B+HF-LYP) =  -151.212709338     A.U. after   15 cycles
             Convg  =    0.1793D-08             -V/T =  2.0063
 KE= 1.502624887877D+02 PE=-4.315429504694D+02 EE= 9.345897681839D+01
 Leave Link  502 at Mon May 11 15:25:56 2020, MaxMem= 1073741824 cpu:     344.1
 (Enter /home/matheus/.gaussian/g09/l601.exe)
 Copying SCF densities to generalized density rwf, IOpCl= 0 IROHF=0.

 **********************************************************************

            Population analysis using the SCF density.

 **********************************************************************

 Orbital symmetries:
       Occupied  (A) (A) (A) (A) (A) (A) (A) (A) (A)
       Virtual   (A) (A) (A) (A) (A) (A) (A) (A) (A) (A) (A) (A)
                 (A) (A) (A) (A) (A) (A) (A) (A) (A) (A) (A) (A)
                 (A) (A) (A) (A) (A) (A) (A) (A) (A) (A) (A) (A)
                 (A) (A) (A) (A) (A) (A) (A) (A) (A) (A) (A) (A)
                 (A) (A) (A) (A) (A) (A) (A) (A) (A) (A) (A) (A)
                 (A) (A) (A) (A) (A) (A) (A) (A) (A) (A) (A) (A)
                 (A) (A) (A) (A) (A) (A) (A) (A) (A) (A) (A) (A)
                 (A) (A) (A) (A) (A) (A) (A) (A) (A) (A) (A) (A)
                 (A) (A) (A) (A) (A) (A) (A) (A) (A) (A) (A) (A)
                 (A) (A) (A) (A) (A) (A) (A) (A) (A) (A) (A) (A)
                 (A) (A) (A) (A) (A) (A) (A) (A) (A) (A) (A) (A)
                 (A) (A) (A) (A) (A) (A) (A) (A) (A) (A) (A) (A)
                 (A) (A) (A) (A) (A) (A) (A) (A) (A) (A) (A) (A)
                 (A) (A) (A) (A) (A) (A) (A) (A) (A) (A) (A) (A)
                 (A) (A) (A) (A) (A) (A) (A) (A) (A) (A) (A) (A)
                 (A) (A) (A) (A) (A) (A) (A) (A)
 The electronic state is 1-A.
 Alpha  occ. eigenvalues --  -19.48433 -19.48403  -1.46214  -1.21571  -0.74942
 Alpha  occ. eigenvalues --   -0.72803  -0.64225  -0.54654  -0.49994
 Alpha virt. eigenvalues --    0.02392   0.03387   0.07042   0.08456   0.10065
 Alpha virt. eigenvalues --    0.10608   0.11898   0.13636   0.16200   0.16562
 Alpha virt. eigenvalues --    0.18381   0.19843   0.22640   0.23635   0.25047
 Alpha virt. eigenvalues --    0.26476   0.29997   0.30948   0.32046   0.32806
 Alpha virt. eigenvalues --    0.34170   0.37804   0.38241   0.40715   0.41335
 Alpha virt. eigenvalues --    0.42536   0.43990   0.47801   0.48413   0.49599
 Alpha virt. eigenvalues --    0.54968   0.57371   0.61321   0.64696   0.69906
 Alpha virt. eigenvalues --    0.72877   0.75513   0.76111   0.77969   0.79199
 Alpha virt. eigenvalues --    0.81454   0.83421   0.88733   0.91203   0.91572
 Alpha virt. eigenvalues --    0.92190   0.94703   0.97025   0.99131   1.00473
 Alpha virt. eigenvalues --    1.01104   1.04648   1.06631   1.09746   1.12756
 Alpha virt. eigenvalues --    1.13630   1.15726   1.18284   1.24434   1.26248
 Alpha virt. eigenvalues --    1.27603   1.30427   1.32200   1.33155   1.33677
 Alpha virt. eigenvalues --    1.34187   1.36166   1.37453   1.38627   1.40842
 Alpha virt. eigenvalues --    1.46952   1.51876   1.55737   1.57454   1.58550
 Alpha virt. eigenvalues --    1.62312   1.67254   1.70101   1.73095   1.84535
 Alpha virt. eigenvalues --    1.88291   1.93897   1.96286   2.05310   2.10685
 Alpha virt. eigenvalues --    2.17594   2.21039   2.25361   2.28093   2.32071
 Alpha virt. eigenvalues --    2.38554   2.39819   2.41358   2.46163   2.54087
 Alpha virt. eigenvalues --    2.56300   2.62274   2.64328   2.73620   2.75888
 Alpha virt. eigenvalues --    2.78197   2.84907   2.96078   2.99256   3.01210
 Alpha virt. eigenvalues --    3.18057   3.21878   3.23733   3.25796   3.31416
 Alpha virt. eigenvalues --    3.43338   3.56846   3.75632   3.77087   3.78511
 Alpha virt. eigenvalues --    3.79567   3.82018   3.82434   3.82921   3.87374
 Alpha virt. eigenvalues --    3.88689   3.91507   3.95191   3.98577   3.99994
 Alpha virt. eigenvalues --    4.08963   4.13013   4.17209   4.18211   4.25063
 Alpha virt. eigenvalues --    4.30561   4.34730   4.40109   4.41749   4.45679
 Alpha virt. eigenvalues --    4.61314   4.66708   4.71874   4.89253   5.08097
 Alpha virt. eigenvalues --    5.15637   5.23942   5.28369   5.28949   5.43439
 Alpha virt. eigenvalues --    5.65763   6.05325   6.28770   6.32197   6.34692
 Alpha virt. eigenvalues --    6.55818   6.60067   6.65533   6.78156   6.87735
 Alpha virt. eigenvalues --    7.02204   7.02904   7.08049   7.10189   7.12060
 Alpha virt. eigenvalues --    7.14598   7.16061   7.22035   7.28356   7.30106
 Alpha virt. eigenvalues --    7.45507   7.50667   7.66305   8.02515   8.03305
 Alpha virt. eigenvalues --    8.32387   8.36872  10.89745  14.18145  14.82116
 Alpha virt. eigenvalues --   14.83165  14.89895  15.11334  29.02920  29.03358
 Alpha virt. eigenvalues --   29.07812  29.13419  29.22896  49.10654 148.31234
 Alpha virt. eigenvalues --  148.38321 148.70729 752.51132
          Condensed to atoms (all electrons):
              1          2          3          4          5
     1  O    8.190246  -0.158911   0.205914  -0.012803   0.000580
     2  O   -0.158911   8.204848   0.003051   0.203347  -0.001250
     3  H    0.205914   0.003051   0.558512   0.005956  -0.000513
     4  H   -0.012803   0.203347   0.005956   0.560841  -0.003352
     5  Kr   0.000580  -0.001250  -0.000513  -0.003352   0.001519
 Mulliken atomic charges:
              1
     1  O   -0.225025
     2  O   -0.251084
     3  H    0.227081
     4  H    0.246012
     5  Kr   0.003016
 Sum of Mulliken atomic charges =   0.00000
 Mulliken charges with hydrogens summed into heavy atoms:
              1
     1  O    0.002055
     2  O   -0.005072
     5  Kr   0.003016
 Sum of Mulliken charges with hydrogens summed into heavy atoms =   0.00000
          Condensed to fragments (all electrons):
     1      -0.003016
     2       0.003016
 Electronic spatial extent (au):  <R**2>=            322.6976
 Charge=              0.0000 electrons
 Dipole moment (field-independent basis, Debye):
    X=             -0.5979    Y=             -0.1014    Z=              1.3370  Tot=              1.4681
 Quadrupole moment (field-independent basis, Debye-Ang):
   XX=            -11.8029   YY=            -10.2858   ZZ=            -11.8461
   XY=             -3.8484   XZ=              3.5980   YZ=             -1.4355
 Traceless Quadrupole moment (field-independent basis, Debye-Ang):
   XX=             -0.4913   YY=              1.0258   ZZ=             -0.5344
   XY=             -3.8484   XZ=              3.5980   YZ=             -1.4355
 Octapole moment (field-independent basis, Debye-Ang**2):
  XXX=            -64.7593  YYY=             -1.3997  ZZZ=              1.1023  XYY=            -21.2752
  XXY=            -14.0550  XXZ=              9.9070  XZZ=            -23.1140  YZZ=             -1.3767
  YYZ=              1.8368  XYZ=             -3.9804
 Hexadecapole moment (field-independent basis, Debye-Ang**3):
 XXXX=           -263.7267 YYYY=            -43.9985 ZZZZ=            -10.7276 XXXY=            -39.6716
 XXXZ=             27.0985 YYYX=             -5.4048 YYYZ=             -1.9432 ZZZX=              2.3858
 ZZZY=             -1.2091 XXYY=            -51.5153 XXZZ=            -48.5858 YYZZ=            -10.0655
 XXYZ=            -10.9274 YYXZ=              4.5409 ZZXY=             -2.5958
 N-N= 3.660877552490D+01 E-N=-4.315429503535D+02  KE= 1.502624887877D+02
 No NMR shielding tensors so no spin-rotation constants.
 Leave Link  601 at Mon May 11 15:25:57 2020, MaxMem= 1073741824 cpu:       0.7
 (Enter /home/matheus/.gaussian/g09/l122.exe)
 Counterpoise: doing DCBS calculation for fragment   2 NewBq=T
 Leave Link  122 at Mon May 11 15:25:57 2020, MaxMem= 1073741824 cpu:       0.0
 (Enter /home/matheus/.gaussian/g09/l301.exe)
 Basis read from rwf:  (5D, 7F)
 No pseudopotential information found on rwf file.
 There are   197 symmetry adapted basis functions of A   symmetry.
 Integral buffers will be    131072 words long.
 Raffenetti 2 integral format.
 Two-electron integral symmetry is turned on.
   197 basis functions,   415 primitive gaussians,   229 cartesian basis functions
    18 alpha electrons       18 beta electrons
       nuclear repulsion energy         0.0000000000 Hartrees.
 IExCor=10402 DFT=T Ex=LC-B+HF Corr=LYP ExCW=0 ScaHFX=  1.000000
 ScaDFX=  1.000000  1.000000  1.000000  1.000000 ScalE2=  1.000000  1.000000
 IRadAn=      5 IRanWt=     -1 IRanGd=            0 ICorTp=0
  HFx wShort=  0.000000 wLong=  1.350000 cFull=  0.000000 cShort=  0.000000 cLong=  1.000000
  DFx wShort=  0.000000 wLong=  1.350000 cFull=  0.000000 cShort=  0.000000 cLong=  1.000000
 NAtoms=    5 NActive=    5 NUniq=    5 SFac= 1.00D+00 NAtFMM=   60 NAOKFM=F Big=F
 No density basis found on file   718.
 Leave Link  301 at Mon May 11 15:25:57 2020, MaxMem= 1073741824 cpu:       0.2
 (Enter /home/matheus/.gaussian/g09/l302.exe)
 NPDir=0 NMtPBC=     1 NCelOv=     1 NCel=       1 NClECP=     1 NCelD=      1
         NCelK=      1 NCelE2=     1 NClLst=     1 CellRange=     0.0.
 One-electron integrals computed using PRISM.
 NBasis=   197 RedAO= T  NBF=   197
 NBsUse=   197 1.00D-06 NBFU=   197
 Precomputing XC quadrature grid using
 IXCGrd= 2 IRadAn=           5 IRanWt=          -1 IRanGd=           0 AccXCQ= 0.00D+00.
 NRdTot=     427 NPtTot=      123512 NUsed=      126579 NTot=      126611
 NSgBfM=   229   229   229   229   229 NAtAll=     5     5.
 Leave Link  302 at Mon May 11 15:25:57 2020, MaxMem= 1073741824 cpu:       1.0
 (Enter /home/matheus/.gaussian/g09/l303.exe)
 DipDrv:  MaxL=1.
 Leave Link  303 at Mon May 11 15:25:57 2020, MaxMem= 1073741824 cpu:       0.2
 (Enter /home/matheus/.gaussian/g09/l401.exe)
 Harris functional with IExCor=10402 diagonalized for initial guess.
 ExpMin= 2.53D-02 ExpMax= 1.17D+07 ExpMxC= 1.33D+04 IAcc=3 IRadAn=         5 AccDes= 0.00D+00
 HarFok:  IExCor=10402 AccDes= 0.00D+00 IRadAn=         5 IDoV= 1
 ScaDFX=  1.000000  1.000000  1.000000  1.000000
 FoFCou: FMM=F IPFlag=           0 FMFlag=      100000 FMFlg1=           0
         NFxFlg=           0 DoJE=T BraDBF=F KetDBF=T FulRan=T
         Omega=  0.000000  0.000000  1.000000  0.000000  0.000000 ICntrl=     500 IOpCl=  0
         NMat0=    1 NMatS0=    1 NMatT0=    0 NMatD0=    1 NMtDS0=    0 NMtDT0=    0
         I1Cent=           4 NGrid=           0.
 Petite list used in FoFCou.
 Harris En= -2731.73456353752    
 Initial guess orbital symmetries:
       Occupied  (A) (A) (A) (A) (A) (A) (A) (A) (A) (A) (A) (A)
                 (A) (A) (A) (A) (A) (A)
       Virtual   (A) (A) (A) (A) (A) (A) (A) (A) (A) (A) (A) (A)
                 (A) (A) (A) (A) (A) (A) (A) (A) (A) (A) (A) (A)
                 (A) (A) (A) (A) (A) (A) (A) (A) (A) (A) (A) (A)
                 (A) (A) (A) (A) (A) (A) (A) (A) (A) (A) (A) (A)
                 (A) (A) (A) (A) (A) (A) (A) (A) (A) (A) (A) (A)
                 (A) (A) (A) (A) (A) (A) (A) (A) (A) (A) (A) (A)
                 (A) (A) (A) (A) (A) (A) (A) (A) (A) (A) (A) (A)
                 (A) (A) (A) (A) (A) (A) (A) (A) (A) (A) (A) (A)
                 (A) (A) (A) (A) (A) (A) (A) (A) (A) (A) (A) (A)
                 (A) (A) (A) (A) (A) (A) (A) (A) (A) (A) (A) (A)
                 (A) (A) (A) (A) (A) (A) (A) (A) (A) (A) (A) (A)
                 (A) (A) (A) (A) (A) (A) (A) (A) (A) (A) (A) (A)
                 (A) (A) (A) (A) (A) (A) (A) (A) (A) (A) (A) (A)
                 (A) (A) (A) (A) (A) (A) (A) (A) (A) (A) (A) (A)
                 (A) (A) (A) (A) (A) (A) (A) (A) (A) (A) (A)
 The electronic state of the initial guess is 1-A.
 Leave Link  401 at Mon May 11 15:25:57 2020, MaxMem= 1073741824 cpu:       3.7
 (Enter /home/matheus/.gaussian/g09/l502.exe)
 Closed shell SCF:
 Requested convergence on RMS density matrix=1.00D-08 within 128 cycles.
 Requested convergence on MAX density matrix=1.00D-06.
 Requested convergence on             energy=1.00D-06.
 No special actions if energy rises.
 Using DIIS extrapolation, IDIIS=  1040.
 Integral symmetry usage will be decided dynamically.
       126521 words used for storage of precomputed grid.
 IEnd=      305468 IEndB=      305468 NGot=  1073741824 MDV=  1073505667
 LenX=  1073505667 LenY=  1073452785
 Fock matrices will be formed incrementally for  20 cycles.

 Cycle   1  Pass 1  IDiag  1:
 FoFJK:  IHMeth= 1 ICntrl=     0 DoSepK=T KAlg= 1 I1Cent= 0 FoldK=F
 FoFCou: FMM=F IPFlag=           0 FMFlag=      100000 FMFlg1=           0
         NFxFlg=           0 DoJE=T BraDBF=F KetDBF=F FulRan=T
         Omega=  0.000000  0.000000  1.000000  0.000000  0.000000 ICntrl=     500 IOpCl=  0
         NMat0=    1 NMatS0=    1 NMatT0=    0 NMatD0=    1 NMtDS0=    0 NMtDT0=    0
         I1Cent=           0 NGrid=           0.
 Symmetry not used in FoFCou.
 E= -2752.71019907144    
 DIIS: error= 4.24D-02 at cycle   1 NSaved=   1.
 NSaved= 1 IEnMin= 1 EnMin= -2752.71019907144     IErMin= 1 ErrMin= 4.24D-02
 ErrMax= 4.24D-02 EMaxC= 1.00D-01 BMatC= 1.18D+00 BMatP= 1.18D+00
 IDIUse=3 WtCom= 5.76D-01 WtEn= 4.24D-01
 Coeff-Com:  0.100D+01
 Coeff-En:   0.100D+01
 Coeff:      0.100D+01
 Gap=     0.767 Goal=   None    Shift=    0.000
 GapD=    0.767 DampG=2.000 DampE=0.500 DampFc=1.0000 IDamp=-1.
 RMSDP=4.97D-03 MaxDP=2.25D-01              OVMax= 3.36D-01

 Cycle   2  Pass 1  IDiag  1:
 RMSU=  3.43D-03    CP:  1.05D+00
 FoFJK:  IHMeth= 1 ICntrl=     0 DoSepK=T KAlg= 1 I1Cent= 0 FoldK=F
 E= -2753.27697151891     Delta-E=       -0.566772447474 Rises=F Damp=F
 DIIS: error= 3.20D-02 at cycle   2 NSaved=   2.
 NSaved= 2 IEnMin= 2 EnMin= -2753.27697151891     IErMin= 2 ErrMin= 3.20D-02
 ErrMax= 3.20D-02 EMaxC= 1.00D-01 BMatC= 3.64D-01 BMatP= 1.18D+00
 IDIUse=3 WtCom= 6.80D-01 WtEn= 3.20D-01
 Coeff-Com:  0.351D+00 0.649D+00
 Coeff-En:   0.000D+00 0.100D+01
 Coeff:      0.239D+00 0.761D+00
 Gap=     0.599 Goal=   None    Shift=    0.000
 RMSDP=2.25D-03 MaxDP=1.35D-01 DE=-5.67D-01 OVMax= 7.49D-02

 Cycle   3  Pass 1  IDiag  1:
 RMSU=  8.74D-04    CP:  1.03D+00  6.22D-01
 FoFJK:  IHMeth= 1 ICntrl=     0 DoSepK=T KAlg= 1 I1Cent= 0 FoldK=F
 E= -2753.40702520627     Delta-E=       -0.130053687359 Rises=F Damp=F
 DIIS: error= 3.85D-03 at cycle   3 NSaved=   3.
 NSaved= 3 IEnMin= 3 EnMin= -2753.40702520627     IErMin= 3 ErrMin= 3.85D-03
 ErrMax= 3.85D-03 EMaxC= 1.00D-01 BMatC= 8.52D-03 BMatP= 3.64D-01
 IDIUse=3 WtCom= 9.61D-01 WtEn= 3.85D-02
 Coeff-Com: -0.100D-01 0.109D+00 0.901D+00
 Coeff-En:   0.000D+00 0.000D+00 0.100D+01
 Coeff:     -0.962D-02 0.105D+00 0.905D+00
 Gap=     0.574 Goal=   None    Shift=    0.000
 RMSDP=3.71D-04 MaxDP=1.83D-02 DE=-1.30D-01 OVMax= 1.10D-02

 Cycle   4  Pass 1  IDiag  1:
 RMSU=  2.27D-04    CP:  1.03D+00  6.58D-01  9.63D-01
 FoFJK:  IHMeth= 1 ICntrl=     0 DoSepK=T KAlg= 1 I1Cent= 0 FoldK=F
 E= -2753.40946013976     Delta-E=       -0.002434933491 Rises=F Damp=F
 DIIS: error= 2.80D-04 at cycle   4 NSaved=   4.
 NSaved= 4 IEnMin= 4 EnMin= -2753.40946013976     IErMin= 4 ErrMin= 2.80D-04
 ErrMax= 2.80D-04 EMaxC= 1.00D-01 BMatC= 3.33D-05 BMatP= 8.52D-03
 IDIUse=3 WtCom= 9.97D-01 WtEn= 2.80D-03
 Coeff-Com: -0.682D-02-0.476D-02 0.139D-02 0.101D+01
 Coeff-En:   0.000D+00 0.000D+00 0.000D+00 0.100D+01
 Coeff:     -0.681D-02-0.474D-02 0.139D-02 0.101D+01
 Gap=     0.580 Goal=   None    Shift=    0.000
 RMSDP=4.98D-05 MaxDP=2.22D-03 DE=-2.43D-03 OVMax= 3.45D-03

 Cycle   5  Pass 1  IDiag  1:
 RMSU=  2.04D-05    CP:  1.03D+00  6.61D-01  9.85D-01  1.08D+00
 FoFJK:  IHMeth= 1 ICntrl=     0 DoSepK=T KAlg= 1 I1Cent= 0 FoldK=F
 E= -2753.40951936146     Delta-E=       -0.000059221700 Rises=F Damp=F
 DIIS: error= 4.52D-05 at cycle   5 NSaved=   5.
 NSaved= 5 IEnMin= 5 EnMin= -2753.40951936146     IErMin= 5 ErrMin= 4.52D-05
 ErrMax= 4.52D-05 EMaxC= 1.00D-01 BMatC= 4.98D-07 BMatP= 3.33D-05
 IDIUse=1 WtCom= 1.00D+00 WtEn= 0.00D+00
 Coeff-Com: -0.889D-04-0.136D-02 0.917D-03-0.166D+00 0.117D+01
 Coeff:     -0.889D-04-0.136D-02 0.917D-03-0.166D+00 0.117D+01
 Gap=     0.580 Goal=   None    Shift=    0.000
 RMSDP=1.06D-05 MaxDP=4.37D-04 DE=-5.92D-05 OVMax= 6.33D-04

 Cycle   6  Pass 1  IDiag  1:
 RMSU=  9.89D-07    CP:  1.03D+00  6.61D-01  9.90D-01  1.10D+00  1.20D+00
 FoFJK:  IHMeth= 1 ICntrl=     0 DoSepK=T KAlg= 1 I1Cent= 0 FoldK=F
 E= -2753.40952077151     Delta-E=       -0.000001410045 Rises=F Damp=F
 DIIS: error= 1.65D-06 at cycle   6 NSaved=   6.
 NSaved= 6 IEnMin= 6 EnMin= -2753.40952077151     IErMin= 6 ErrMin= 1.65D-06
 ErrMax= 1.65D-06 EMaxC= 1.00D-01 BMatC= 1.01D-09 BMatP= 4.98D-07
 IDIUse=1 WtCom= 1.00D+00 WtEn= 0.00D+00
 Coeff-Com:  0.247D-04 0.104D-03-0.337D-03 0.122D-01-0.116D+00 0.110D+01
 Coeff:      0.247D-04 0.104D-03-0.337D-03 0.122D-01-0.116D+00 0.110D+01
 Gap=     0.580 Goal=   None    Shift=    0.000
 RMSDP=5.41D-07 MaxDP=2.37D-05 DE=-1.41D-06 OVMax= 2.39D-05

 Cycle   7  Pass 1  IDiag  1:
 RMSU=  6.21D-08    CP:  1.03D+00  6.61D-01  9.90D-01  1.10D+00  1.21D+00
                    CP:  1.13D+00
 FoFJK:  IHMeth= 1 ICntrl=     0 DoSepK=T KAlg= 1 I1Cent= 0 FoldK=F
 E= -2753.40952077226     Delta-E=       -0.000000000757 Rises=F Damp=F
 DIIS: error= 1.43D-07 at cycle   7 NSaved=   7.
 NSaved= 7 IEnMin= 7 EnMin= -2753.40952077226     IErMin= 7 ErrMin= 1.43D-07
 ErrMax= 1.43D-07 EMaxC= 1.00D-01 BMatC= 1.07D-11 BMatP= 1.01D-09
 IDIUse=1 WtCom= 1.00D+00 WtEn= 0.00D+00
 Coeff-Com:  0.271D-05 0.306D-05-0.311D-04 0.617D-03-0.285D-02-0.186D-01
 Coeff-Com:  0.102D+01
 Coeff:      0.271D-05 0.306D-05-0.311D-04 0.617D-03-0.285D-02-0.186D-01
 Coeff:      0.102D+01
 Gap=     0.580 Goal=   None    Shift=    0.000
 RMSDP=2.28D-08 MaxDP=1.03D-06 DE=-7.57D-10 OVMax= 1.29D-06

 Cycle   8  Pass 1  IDiag  1:
 RMSU=  9.15D-09    CP:  1.03D+00  6.61D-01  9.90D-01  1.10D+00  1.21D+00
                    CP:  1.14D+00  1.13D+00
 FoFJK:  IHMeth= 1 ICntrl=     0 DoSepK=T KAlg= 1 I1Cent= 0 FoldK=F
 E= -2753.40952077234     Delta-E=       -0.000000000080 Rises=F Damp=F
 DIIS: error= 4.25D-08 at cycle   8 NSaved=   8.
 NSaved= 8 IEnMin= 8 EnMin= -2753.40952077234     IErMin= 8 ErrMin= 4.25D-08
 ErrMax= 4.25D-08 EMaxC= 1.00D-01 BMatC= 4.11D-13 BMatP= 1.07D-11
 IDIUse=1 WtCom= 1.00D+00 WtEn= 0.00D+00
 Coeff-Com:  0.822D-07-0.188D-05 0.206D-05-0.204D-03 0.233D-02-0.273D-01
 Coeff-Com:  0.114D+00 0.912D+00
 Coeff:      0.822D-07-0.188D-05 0.206D-05-0.204D-03 0.233D-02-0.273D-01
 Coeff:      0.114D+00 0.912D+00
 Gap=     0.580 Goal=   None    Shift=    0.000
 RMSDP=4.56D-09 MaxDP=1.43D-07 DE=-8.00D-11 OVMax= 3.32D-07

 SCF Done:  E(RLC-B+HF-LYP) =  -2753.40952077     A.U. after    8 cycles
             Convg  =    0.4558D-08             -V/T =  2.0014
 KE= 2.749635175806D+03 PE=-6.579422742905D+03 EE= 1.076378046327D+03
 Leave Link  502 at Mon May 11 15:26:21 2020, MaxMem= 1073741824 cpu:     187.7
 (Enter /home/matheus/.gaussian/g09/l601.exe)
 Copying SCF densities to generalized density rwf, IOpCl= 0 IROHF=0.

 **********************************************************************

            Population analysis using the SCF density.

 **********************************************************************

 Orbital symmetries:
       Occupied  (A) (A) (A) (A) (A) (A) (A) (A) (A) (A) (A) (A)
                 (A) (A) (A) (A) (A) (A)
       Virtual   (A) (A) (A) (A) (A) (A) (A) (A) (A) (A) (A) (A)
                 (A) (A) (A) (A) (A) (A) (A) (A) (A) (A) (A) (A)
                 (A) (A) (A) (A) (A) (A) (A) (A) (A) (A) (A) (A)
                 (A) (A) (A) (A) (A) (A) (A) (A) (A) (A) (A) (A)
                 (A) (A) (A) (A) (A) (A) (A) (A) (A) (A) (A) (A)
                 (A) (A) (A) (A) (A) (A) (A) (A) (A) (A) (A) (A)
                 (A) (A) (A) (A) (A) (A) (A) (A) (A) (A) (A) (A)
                 (A) (A) (A) (A) (A) (A) (A) (A) (A) (A) (A) (A)
                 (A) (A) (A) (A) (A) (A) (A) (A) (A) (A) (A) (A)
                 (A) (A) (A) (A) (A) (A) (A) (A) (A) (A) (A) (A)
                 (A) (A) (A) (A) (A) (A) (A) (A) (A) (A) (A) (A)
                 (A) (A) (A) (A) (A) (A) (A) (A) (A) (A) (A) (A)
                 (A) (A) (A) (A) (A) (A) (A) (A) (A) (A) (A) (A)
                 (A) (A) (A) (A) (A) (A) (A) (A) (A) (A) (A) (A)
                 (A) (A) (A) (A) (A) (A) (A) (A) (A) (A) (A)
 The electronic state is 1-A.
 Alpha  occ. eigenvalues -- -511.65510 -67.17993 -60.85190 -60.85186 -60.85186
 Alpha  occ. eigenvalues --  -10.08108  -7.79670  -7.79669  -7.79669  -3.62634
 Alpha  occ. eigenvalues --   -3.62633  -3.62633  -3.62632  -3.62632  -1.17384
 Alpha  occ. eigenvalues --   -0.55371  -0.55367  -0.55365
 Alpha virt. eigenvalues --    0.02623   0.04693   0.07849   0.08910   0.10653
 Alpha virt. eigenvalues --    0.11698   0.12768   0.13613   0.16048   0.16762
 Alpha virt. eigenvalues --    0.17374   0.19329   0.20507   0.25442   0.27030
 Alpha virt. eigenvalues --    0.27596   0.28195   0.31660   0.33588   0.35162
 Alpha virt. eigenvalues --    0.36233   0.37341   0.37775   0.39134   0.41496
 Alpha virt. eigenvalues --    0.41734   0.43315   0.54846   0.55127   0.58094
 Alpha virt. eigenvalues --    0.59753   0.65949   0.67094   0.70555   0.73206
 Alpha virt. eigenvalues --    0.74792   0.77034   0.78357   0.79436   0.80135
 Alpha virt. eigenvalues --    0.82445   0.83380   0.84592   0.86468   0.86644
 Alpha virt. eigenvalues --    0.88766   0.89140   0.90321   0.92296   0.96263
 Alpha virt. eigenvalues --    0.98155   1.00330   1.00656   1.04552   1.04821
 Alpha virt. eigenvalues --    1.07556   1.09317   1.11024   1.13519   1.15224
 Alpha virt. eigenvalues --    1.17956   1.22375   1.23892   1.24831   1.28752
 Alpha virt. eigenvalues --    1.35880   1.36235   1.41540   1.47432   1.48735
 Alpha virt. eigenvalues --    1.56099   1.59936   1.62692   1.71862   1.78530
 Alpha virt. eigenvalues --    1.79978   1.84333   1.88296   1.93617   2.25455
 Alpha virt. eigenvalues --    2.29054   2.29675   2.33522   2.34085   2.36885
 Alpha virt. eigenvalues --    2.41399   2.42262   2.44653   2.46415   2.47072
 Alpha virt. eigenvalues --    2.48289   2.51034   2.53286   2.54238   2.57016
 Alpha virt. eigenvalues --    2.58008   2.60481   2.62072   2.64199   2.65683
 Alpha virt. eigenvalues --    2.66521   2.68233   2.69914   2.74889   2.76142
 Alpha virt. eigenvalues --    2.79366   2.83062   2.87648   2.90386   2.90751
 Alpha virt. eigenvalues --    2.95117   2.98454   3.05142   3.12733   3.18872
 Alpha virt. eigenvalues --    3.22217   3.26866   3.33400   3.34106   3.50442
 Alpha virt. eigenvalues --    3.60662   3.66137   3.81914   3.86485   4.03060
 Alpha virt. eigenvalues --    4.44102   4.48136   4.51542   4.56843   4.65425
 Alpha virt. eigenvalues --    4.71773   4.87146   4.87413   4.93969   5.03444
 Alpha virt. eigenvalues --    5.15583   5.17521   5.58149   5.63155   5.77955
 Alpha virt. eigenvalues --    5.97668   6.00010   6.16441   6.75164   6.87585
 Alpha virt. eigenvalues --    7.34650   7.38784   7.61607   7.64951   7.69648
 Alpha virt. eigenvalues --    7.85993   7.95655   8.09940   8.16924   8.20887
 Alpha virt. eigenvalues --    8.38088   8.41763   8.61515   8.87420   9.62139
 Alpha virt. eigenvalues --    9.71403   9.80955   9.88071   9.95102  10.01410
 Alpha virt. eigenvalues --   10.14941  10.27689  10.43149  10.94626  11.50616
 Alpha virt. eigenvalues --   11.62627  11.66442  12.03937  12.07523  13.26129
 Alpha virt. eigenvalues --   13.60938  14.53125  62.69204  64.60619
          Condensed to atoms (all electrons):
              1          2          3          4          5
     1  O    0.003912  -0.002731  -0.002365   0.001693  -0.012417
     2  O   -0.002731   0.006749   0.000870  -0.004264  -0.001974
     3  H   -0.002365   0.000870   0.001810  -0.000556   0.003987
     4  H    0.001693  -0.004264  -0.000556   0.004075  -0.022165
     5  Kr  -0.012417  -0.001974   0.003987  -0.022165  36.063295
 Mulliken atomic charges:
              1
     1  O    0.011908
     2  O    0.001349
     3  H   -0.003747
     4  H    0.021217
     5  Kr  -0.030726
 Sum of Mulliken atomic charges =   0.00000
 Mulliken charges with hydrogens summed into heavy atoms:
              1
     1  O    0.008161
     2  O    0.022566
     5  Kr  -0.030726
 Sum of Mulliken charges with hydrogens summed into heavy atoms =   0.00000
          Condensed to fragments (all electrons):
     1       0.030726
     2      -0.030726
 Electronic spatial extent (au):  <R**2>=            166.2173
 Charge=              0.0000 electrons
 Dipole moment (field-independent basis, Debye):
    X=              0.0015    Y=              0.0007    Z=              0.0001  Tot=              0.0017
 Quadrupole moment (field-independent basis, Debye-Ang):
   XX=            -17.5637   YY=            -17.5737   ZZ=            -17.5811
   XY=              0.0047   XZ=             -0.0003   YZ=              0.0005
 Traceless Quadrupole moment (field-independent basis, Debye-Ang):
   XX=              0.0091   YY=             -0.0008   ZZ=             -0.0083
   XY=              0.0047   XZ=             -0.0003   YZ=              0.0005
 Octapole moment (field-independent basis, Debye-Ang**2):
  XXX=             52.3673  YYY=              0.8516  ZZZ=             -0.1505  XYY=             17.4682
  XXY=              0.2738  XXZ=             -0.0504  XZZ=             17.4725  YZZ=              0.2848
  YYZ=             -0.0497  XYZ=             -0.0003
 Hexadecapole moment (field-independent basis, Debye-Ang**3):
 XXXX=           -122.1470 YYYY=            -18.1026 ZZZZ=            -18.1044 XXXY=             -0.8220
 XXXZ=              0.1504 YYYX=             -0.8305 YYYZ=              0.0020 ZZZX=              0.1498
[...]
 E= -2753.40937604002     Delta-E=       -0.000000008308 Rises=F Damp=F
 DIIS: error= 5.39D-07 at cycle   3 NSaved=   3.
 NSaved= 3 IEnMin= 3 EnMin= -2753.40937604002     IErMin= 3 ErrMin= 5.39D-07
 ErrMax= 5.39D-07 EMaxC= 1.00D-01 BMatC= 1.04D-10 BMatP= 4.51D-09
 IDIUse=1 WtCom= 1.00D+00 WtEn= 0.00D+00
 Coeff-Com:  0.506D-03-0.142D+00 0.114D+01
 Coeff:      0.506D-03-0.142D+00 0.114D+01
 Gap=     0.580 Goal=   None    Shift=    0.000
 RMSDP=2.29D-07 MaxDP=7.81D-06 DE=-8.31D-09 OVMax= 1.02D-05

 Cycle   4  Pass 1  IDiag  1:
 RMSU=  5.62D-08    CP:  1.00D+00  1.10D+00  1.18D+00
 FoFJK:  IHMeth= 1 ICntrl=     0 DoSepK=T KAlg= 1 I1Cent= 0 FoldK=F
 E= -2753.40937604033     Delta-E=       -0.000000000316 Rises=F Damp=F
 DIIS: error= 1.85D-07 at cycle   4 NSaved=   4.
 NSaved= 4 IEnMin= 4 EnMin= -2753.40937604033     IErMin= 4 ErrMin= 1.85D-07
 ErrMax= 1.85D-07 EMaxC= 1.00D-01 BMatC= 3.83D-12 BMatP= 1.04D-10
 IDIUse=1 WtCom= 1.00D+00 WtEn= 0.00D+00
 Coeff-Com:  0.149D-03-0.274D-01 0.147D+00 0.880D+00
 Coeff:      0.149D-03-0.274D-01 0.147D+00 0.880D+00
 Gap=     0.580 Goal=   None    Shift=    0.000
 RMSDP=1.76D-08 MaxDP=9.05D-07 DE=-3.16D-10 OVMax= 8.30D-07

 Cycle   5  Pass 1  IDiag  1:
 RMSU=  5.78D-09    CP:  1.00D+00  1.10D+00  1.18D+00  1.15D+00
 FoFJK:  IHMeth= 1 ICntrl=     0 DoSepK=T KAlg= 1 I1Cent= 0 FoldK=F
 E= -2753.40937604036     Delta-E=       -0.000000000023 Rises=F Damp=F
 DIIS: error= 4.11D-08 at cycle   5 NSaved=   5.
 NSaved= 5 IEnMin= 5 EnMin= -2753.40937604036     IErMin= 5 ErrMin= 4.11D-08
 ErrMax= 4.11D-08 EMaxC= 1.00D-01 BMatC= 3.28D-13 BMatP= 3.83D-12
 IDIUse=1 WtCom= 1.00D+00 WtEn= 0.00D+00
 Coeff-Com: -0.345D-04 0.954D-02-0.813D-01 0.306D-01 0.104D+01
 Coeff:     -0.345D-04 0.954D-02-0.813D-01 0.306D-01 0.104D+01
 Gap=     0.580 Goal=   None    Shift=    0.000
 RMSDP=6.66D-09 MaxDP=3.61D-07 DE=-2.27D-11 OVMax= 4.48D-07

 SCF Done:  E(RLC-B+HF-LYP) =  -2753.40937604     A.U. after    5 cycles
             Convg  =    0.6659D-08             -V/T =  2.0014
 KE= 2.749687415779D+03 PE=-6.579480233974D+03 EE= 1.076383442155D+03
 Leave Link  502 at Mon May 11 15:49:07 2020, MaxMem= 1073741824 cpu:      93.8
 (Enter /home/matheus/.gaussian/g09/l122.exe)
 Restoring MOs from calculation   4 to rwf.
 Counterpoise: doing MCBS calculation for fragment   1
 Leave Link  122 at Mon May 11 15:49:07 2020, MaxMem= 1073741824 cpu:       0.0
 (Enter /home/matheus/.gaussian/g09/l301.exe)
 Basis read from rwf:  (5D, 7F)
 No pseudopotential information found on rwf file.
 There are   138 symmetry adapted basis functions of A   symmetry.
 Integral buffers will be    131072 words long.
 Raffenetti 2 integral format.
 Two-electron integral symmetry is turned on.
   138 basis functions,   198 primitive gaussians,   160 cartesian basis functions
     9 alpha electrons        9 beta electrons
       nuclear repulsion energy        36.6087755249 Hartrees.
 IExCor=10402 DFT=T Ex=LC-B+HF Corr=LYP ExCW=0 ScaHFX=  1.000000
 ScaDFX=  1.000000  1.000000  1.000000  1.000000 ScalE2=  1.000000  1.000000
 IRadAn=      5 IRanWt=     -1 IRanGd=            0 ICorTp=0
  HFx wShort=  0.000000 wLong=  1.350000 cFull=  0.000000 cShort=  0.000000 cLong=  1.000000
  DFx wShort=  0.000000 wLong=  1.350000 cFull=  0.000000 cShort=  0.000000 cLong=  1.000000
 NAtoms=    5 NActive=    4 NUniq=    4 SFac= 1.00D+00 NAtFMM=   60 NAOKFM=F Big=F
 No density basis found on file   718.
 Leave Link  301 at Mon May 11 15:49:07 2020, MaxMem= 1073741824 cpu:       0.2
 (Enter /home/matheus/.gaussian/g09/l302.exe)
 NPDir=0 NMtPBC=     1 NCelOv=     1 NCel=       1 NClECP=     1 NCelD=      1
         NCelK=      1 NCelE2=     1 NClLst=     1 CellRange=     0.0.
 One-electron integrals computed using PRISM.
 NBasis=   138 RedAO= T  NBF=   138
 NBsUse=   138 1.00D-06 NBFU=   138
 Precomputing XC quadrature grid using
 IXCGrd= 2 IRadAn=           5 IRanWt=          -1 IRanGd=           0 AccXCQ= 0.00D+00.
 NRdTot=     344 NPtTot=       92556 NUsed=       95038 NTot=       95070
 NSgBfM=   160   160   160   160   160 NAtAll=     4     4.
 Leave Link  302 at Mon May 11 15:49:07 2020, MaxMem= 1073741824 cpu:       0.8
 (Enter /home/matheus/.gaussian/g09/l303.exe)
 DipDrv:  MaxL=1.
 Leave Link  303 at Mon May 11 15:49:07 2020, MaxMem= 1073741824 cpu:       0.1
 (Enter /home/matheus/.gaussian/g09/l401.exe)
 Initial guess read from the read-write file.
 Guess basis will be translated and rotated to current coordinates.
 Initial guess orbital symmetries:
       Occupied  (A) (A) (A) (A) (A) (A) (A) (A) (A)
       Virtual   (A) (A) (A) (A) (A) (A) (A) (A) (A) (A) (A) (A)
                 (A) (A) (A) (A) (A) (A) (A) (A) (A) (A) (A) (A)
                 (A) (A) (A) (A) (A) (A) (A) (A) (A) (A) (A) (A)
                 (A) (A) (A) (A) (A) (A) (A) (A) (A) (A) (A) (A)
                 (A) (A) (A) (A) (A) (A) (A) (A) (A) (A) (A) (A)
                 (A) (A) (A) (A) (A) (A) (A) (A) (A) (A) (A) (A)
                 (A) (A) (A) (A) (A) (A) (A) (A) (A) (A) (A) (A)
                 (A) (A) (A) (A) (A) (A) (A) (A) (A) (A) (A) (A)
                 (A) (A) (A) (A) (A) (A) (A) (A) (A) (A) (A) (A)
                 (A) (A) (A) (A) (A) (A) (A) (A) (A) (A) (A) (A)
                 (A) (A) (A) (A) (A) (A) (A) (A) (A)
 The electronic state of the initial guess is 1-A.
 Generating alternative initial guess.
 Harris functional with IExCor=10402 diagonalized for initial guess.
 ExpMin= 2.53D-02 ExpMax= 1.53D+04 ExpMxC= 5.22D+02 IAcc=3 IRadAn=         5 AccDes= 0.00D+00
 HarFok:  IExCor=10402 AccDes= 0.00D+00 IRadAn=         5 IDoV= 1
 ScaDFX=  1.000000  1.000000  1.000000  1.000000
 FoFCou: FMM=F IPFlag=           0 FMFlag=      100000 FMFlg1=           0
         NFxFlg=           0 DoJE=T BraDBF=F KetDBF=T FulRan=T
         Omega=  0.000000  0.000000  1.000000  0.000000  0.000000 ICntrl=     500 IOpCl=  0
         NMat0=    1 NMatS0=    1 NMatT0=    0 NMatD0=    1 NMtDS0=    0 NMtDT0=    0
         I1Cent=           4 NGrid=           0.
 Petite list used in FoFCou.
 Harris En= -143.234849372913    
 Leave Link  401 at Mon May 11 15:49:07 2020, MaxMem= 1073741824 cpu:       2.5
 (Enter /home/matheus/.gaussian/g09/l502.exe)
 Closed shell SCF:
 Requested convergence on RMS density matrix=1.00D-08 within 128 cycles.
 Requested convergence on MAX density matrix=1.00D-06.
 Requested convergence on             energy=1.00D-06.
 No special actions if energy rises.
 Using DIIS extrapolation, IDIIS=  1040.
 Integral symmetry usage will be decided dynamically.
        94980 words used for storage of precomputed grid.
 IEnd=      192360 IEndB=      192360 NGot=  1073741824 MDV=  1073591865
 LenX=  1073591865 LenY=  1073565824
 Fock matrices will be formed incrementally for  20 cycles.

 Cycle   1  Pass 1  IDiag  1:
 FoFJK:  IHMeth= 1 ICntrl=     0 DoSepK=T KAlg= 1 I1Cent= 0 FoldK=F
 FoFCou: FMM=F IPFlag=           0 FMFlag=      100000 FMFlg1=           0
         NFxFlg=           0 DoJE=T BraDBF=F KetDBF=F FulRan=T
         Omega=  0.000000  0.000000  1.000000  0.000000  0.000000 ICntrl=     500 IOpCl=  0
         NMat0=    1 NMatS0=    1 NMatT0=    0 NMatD0=    1 NMtDS0=    0 NMtDT0=    0
         I1Cent=           0 NGrid=           0.
 Symmetry not used in FoFCou.
 E= -151.212629023594    
 DIIS: error= 1.67D-05 at cycle   1 NSaved=   1.
 NSaved= 1 IEnMin= 1 EnMin= -151.212629023594     IErMin= 1 ErrMin= 1.67D-05
 ErrMax= 1.67D-05 EMaxC= 1.00D-01 BMatC= 4.30D-08 BMatP= 4.30D-08
 IDIUse=1 WtCom= 1.00D+00 WtEn= 0.00D+00
 Coeff-Com:  0.100D+01
 Coeff:      0.100D+01
 Gap=     0.527 Goal=   None    Shift=    0.000
 RMSDP=1.18D-06 MaxDP=2.31D-05              OVMax= 6.67D-05

 Cycle   2  Pass 1  IDiag  1:
 RMSU=  8.31D-07    CP:  1.00D+00
 FoFJK:  IHMeth= 1 ICntrl=     0 DoSepK=T KAlg= 1 I1Cent= 0 FoldK=F
 E= -151.212629067994     Delta-E=       -0.000000044399 Rises=F Damp=F
 DIIS: error= 4.33D-06 at cycle   2 NSaved=   2.
 NSaved= 2 IEnMin= 2 EnMin= -151.212629067994     IErMin= 2 ErrMin= 4.33D-06
 ErrMax= 4.33D-06 EMaxC= 1.00D-01 BMatC= 2.61D-09 BMatP= 4.30D-08
 IDIUse=1 WtCom= 1.00D+00 WtEn= 0.00D+00
 Coeff-Com: -0.209D+00 0.121D+01
 Coeff:     -0.209D+00 0.121D+01
 Gap=     0.527 Goal=   None    Shift=    0.000
 RMSDP=4.27D-07 MaxDP=8.04D-06 DE=-4.44D-08 OVMax= 3.49D-05

 Cycle   3  Pass 1  IDiag  1:
 RMSU=  1.71D-07    CP:  1.00D+00  1.30D+00
 FoFJK:  IHMeth= 1 ICntrl=     0 DoSepK=T KAlg= 1 I1Cent= 0 FoldK=F
 E= -151.212629073538     Delta-E=       -0.000000005544 Rises=F Damp=F
 DIIS: error= 1.35D-06 at cycle   3 NSaved=   3.
 NSaved= 3 IEnMin= 3 EnMin= -151.212629073538     IErMin= 3 ErrMin= 1.35D-06
 ErrMax= 1.35D-06 EMaxC= 1.00D-01 BMatC= 2.54D-10 BMatP= 2.61D-09
 IDIUse=1 WtCom= 1.00D+00 WtEn= 0.00D+00
 Coeff-Com: -0.521D-02-0.144D+00 0.115D+01
 Coeff:     -0.521D-02-0.144D+00 0.115D+01
 Gap=     0.527 Goal=   None    Shift=    0.000
 RMSDP=1.48D-07 MaxDP=3.44D-06 DE=-5.54D-09 OVMax= 1.30D-05

 Cycle   4  Pass 1  IDiag  1:
 RMSU=  5.51D-08    CP:  1.00D+00  1.37D+00  1.40D+00
 FoFJK:  IHMeth= 1 ICntrl=     0 DoSepK=T KAlg= 1 I1Cent= 0 FoldK=F
 E= -151.212629074144     Delta-E=       -0.000000000607 Rises=F Damp=F
 DIIS: error= 6.13D-07 at cycle   4 NSaved=   4.
 NSaved= 4 IEnMin= 4 EnMin= -151.212629074144     IErMin= 4 ErrMin= 6.13D-07
 ErrMax= 6.13D-07 EMaxC= 1.00D-01 BMatC= 9.76D-11 BMatP= 2.54D-10
 IDIUse=1 WtCom= 1.00D+00 WtEn= 0.00D+00
 Coeff-Com:  0.283D-01-0.239D+00 0.455D+00 0.756D+00
 Coeff:      0.283D-01-0.239D+00 0.455D+00 0.756D+00
 Gap=     0.527 Goal=   None    Shift=    0.000
 RMSDP=6.03D-08 MaxDP=1.38D-06 DE=-6.07D-10 OVMax= 4.75D-06

 Cycle   5  Pass 1  IDiag  1:
 RMSU=  2.28D-08    CP:  1.00D+00  1.39D+00  1.59D+00  9.48D-01
 FoFJK:  IHMeth= 1 ICntrl=     0 DoSepK=T KAlg= 1 I1Cent= 0 FoldK=F
 E= -151.212629074284     Delta-E=       -0.000000000140 Rises=F Damp=F
 DIIS: error= 2.19D-07 at cycle   5 NSaved=   5.
 NSaved= 5 IEnMin= 5 EnMin= -151.212629074284     IErMin= 5 ErrMin= 2.19D-07
 ErrMax= 2.19D-07 EMaxC= 1.00D-01 BMatC= 7.52D-12 BMatP= 9.76D-11
 IDIUse=1 WtCom= 1.00D+00 WtEn= 0.00D+00
 Coeff-Com: -0.125D-03 0.278D-01-0.199D+00-0.116D-01 0.118D+01
 Coeff:     -0.125D-03 0.278D-01-0.199D+00-0.116D-01 0.118D+01
 Gap=     0.527 Goal=   None    Shift=    0.000
 RMSDP=3.11D-08 MaxDP=6.29D-07 DE=-1.40D-10 OVMax= 2.75D-06

 Cycle   6  Pass 1  IDiag  1:
 RMSU=  8.21D-09    CP:  1.00D+00  1.39D+00  1.66D+00  1.16D+00  1.44D+00
 FoFJK:  IHMeth= 1 ICntrl=     0 DoSepK=T KAlg= 1 I1Cent= 0 FoldK=F
 E= -151.212629074313     Delta-E=       -0.000000000029 Rises=F Damp=F
 DIIS: error= 7.99D-08 at cycle   6 NSaved=   6.
 NSaved= 6 IEnMin= 6 EnMin= -151.212629074313     IErMin= 6 ErrMin= 7.99D-08
 ErrMax= 7.99D-08 EMaxC= 1.00D-01 BMatC= 7.65D-13 BMatP= 7.52D-12
 IDIUse=1 WtCom= 1.00D+00 WtEn= 0.00D+00
 Coeff-Com: -0.211D-02 0.166D-01-0.123D-01-0.637D-01-0.152D+00 0.121D+01
 Coeff:     -0.211D-02 0.166D-01-0.123D-01-0.637D-01-0.152D+00 0.121D+01
 Gap=     0.527 Goal=   None    Shift=    0.000
 RMSDP=1.18D-08 MaxDP=2.10D-07 DE=-2.86D-11 OVMax= 1.26D-06

 Cycle   7  Pass 1  IDiag  1:
 RMSU=  3.07D-09    CP:  1.00D+00  1.39D+00  1.68D+00  1.20D+00  1.64D+00
                    CP:  1.64D+00
 FoFJK:  IHMeth= 1 ICntrl=     0 DoSepK=T KAlg= 1 I1Cent= 0 FoldK=F
 E= -151.212629074314     Delta-E=       -0.000000000001 Rises=F Damp=F
 DIIS: error= 4.58D-08 at cycle   7 NSaved=   7.
 NSaved= 7 IEnMin= 7 EnMin= -151.212629074314     IErMin= 7 ErrMin= 4.58D-08
 ErrMax= 4.58D-08 EMaxC= 1.00D-01 BMatC= 1.84D-13 BMatP= 7.65D-13
 IDIUse=1 WtCom= 1.00D+00 WtEn= 0.00D+00
 Coeff-Com:  0.970D-04-0.437D-02 0.300D-01 0.586D-03-0.190D+00 0.536D-01
 Coeff-Com:  0.111D+01
 Coeff:      0.970D-04-0.437D-02 0.300D-01 0.586D-03-0.190D+00 0.536D-01
 Coeff:      0.111D+01
 Gap=     0.527 Goal=   None    Shift=    0.000
 RMSDP=6.13D-09 MaxDP=8.98D-08 DE=-9.09D-13 OVMax= 6.69D-07

 SCF Done:  E(RLC-B+HF-LYP) =  -151.212629074     A.U. after    7 cycles
             Convg  =    0.6130D-08             -V/T =  2.0063
 KE= 1.502627581917D+02 PE=-4.315419796514D+02 EE= 9.345781686046D+01
 Leave Link  502 at Mon May 11 15:49:14 2020, MaxMem= 1073741824 cpu:      53.2
 (Enter /home/matheus/.gaussian/g09/l122.exe)
 Restoring MOs from calculation   5 to rwf.
 Counterpoise: doing MCBS calculation for fragment   2
 Leave Link  122 at Mon May 11 15:49:14 2020, MaxMem= 1073741824 cpu:       0.0
 (Enter /home/matheus/.gaussian/g09/l301.exe)
 Basis read from rwf:  (5D, 7F)
 No pseudopotential information found on rwf file.
 There are    59 symmetry adapted basis functions of A   symmetry.
 Integral buffers will be    131072 words long.
 Raffenetti 2 integral format.
 Two-electron integral symmetry is turned on.
    59 basis functions,   217 primitive gaussians,    69 cartesian basis functions
    18 alpha electrons       18 beta electrons
       nuclear repulsion energy         0.0000000000 Hartrees.
 IExCor=10402 DFT=T Ex=LC-B+HF Corr=LYP ExCW=0 ScaHFX=  1.000000
 ScaDFX=  1.000000  1.000000  1.000000  1.000000 ScalE2=  1.000000  1.000000
 IRadAn=      5 IRanWt=     -1 IRanGd=            0 ICorTp=0
  HFx wShort=  0.000000 wLong=  1.350000 cFull=  0.000000 cShort=  0.000000 cLong=  1.000000
  DFx wShort=  0.000000 wLong=  1.350000 cFull=  0.000000 cShort=  0.000000 cLong=  1.000000
 NAtoms=    5 NActive=    1 NUniq=    1 SFac= 1.00D+00 NAtFMM=   60 NAOKFM=F Big=F
 No density basis found on file   718.
 Leave Link  301 at Mon May 11 15:49:14 2020, MaxMem= 1073741824 cpu:       0.2
 (Enter /home/matheus/.gaussian/g09/l302.exe)
 NPDir=0 NMtPBC=     1 NCelOv=     1 NCel=       1 NClECP=     1 NCelD=      1
         NCelK=      1 NCelE2=     1 NClLst=     1 CellRange=     0.0.
 One-electron integrals computed using PRISM.
 NBasis=    59 RedAO= T  NBF=    59
 NBsUse=    59 1.00D-06 NBFU=    59
 Precomputing XC quadrature grid using
 IXCGrd= 2 IRadAn=           5 IRanWt=          -1 IRanGd=           0 AccXCQ= 0.00D+00.
 NRdTot=      81 NPtTot=       30352 NUsed=       30981 NTot=       31013
 NSgBfM=    69    69    69    69    69 NAtAll=     1     1.
 Leave Link  302 at Mon May 11 15:49:14 2020, MaxMem= 1073741824 cpu:       0.7
 (Enter /home/matheus/.gaussian/g09/l303.exe)
 DipDrv:  MaxL=1.
 Leave Link  303 at Mon May 11 15:49:14 2020, MaxMem= 1073741824 cpu:       0.1
 (Enter /home/matheus/.gaussian/g09/l401.exe)
 Initial guess read from the read-write file.
 Guess basis will be translated and rotated to current coordinates.
 Initial guess orbital symmetries:
       Occupied  (A) (A) (A) (A) (A) (A) (A) (A) (A) (A) (A) (A)
                 (A) (A) (A) (A) (A) (A)
       Virtual   (A) (A) (A) (A) (A) (A) (A) (A) (A) (A) (A) (A)
                 (A) (A) (A) (A) (A) (A) (A) (A) (A) (A) (A) (A)
                 (A) (A) (A) (A) (A) (A) (A) (A) (A) (A) (A) (A)
                 (A) (A) (A) (A) (A)
 The electronic state of the initial guess is 1-A.
 Generating alternative initial guess.
 Harris functional with IExCor=10402 diagonalized for initial guess.
 ExpMin= 4.00D-02 ExpMax= 1.17D+07 ExpMxC= 1.33D+04 IAcc=3 IRadAn=         5 AccDes= 0.00D+00
 HarFok:  IExCor=10402 AccDes= 0.00D+00 IRadAn=         5 IDoV= 1
 ScaDFX=  1.000000  1.000000  1.000000  1.000000
 FoFCou: FMM=F IPFlag=           0 FMFlag=      100000 FMFlg1=           0
         NFxFlg=           0 DoJE=T BraDBF=F KetDBF=T FulRan=T
         Omega=  0.000000  0.000000  1.000000  0.000000  0.000000 ICntrl=     500 IOpCl=  0
         NMat0=    1 NMatS0=    1 NMatT0=    0 NMatD0=    1 NMtDS0=    0 NMtDT0=    0
         I1Cent=           4 NGrid=           0.
 Petite list used in FoFCou.
 Harris En= -2731.73388500824    
 Leave Link  401 at Mon May 11 15:49:14 2020, MaxMem= 1073741824 cpu:       1.0
 (Enter /home/matheus/.gaussian/g09/l502.exe)
 Closed shell SCF:
 Requested convergence on RMS density matrix=1.00D-08 within 128 cycles.
 Requested convergence on MAX density matrix=1.00D-06.
 Requested convergence on             energy=1.00D-06.
 No special actions if energy rises.
 Using DIIS extrapolation, IDIIS=  1040.
 Integral symmetry usage will be decided dynamically.
        30923 words used for storage of precomputed grid.
 IEnd=       64406 IEndB=       64406 NGot=  1073741824 MDV=  1073698889
 LenX=  1073698889 LenY=  1073693687
 Fock matrices will be formed incrementally for  20 cycles.

 Cycle   1  Pass 1  IDiag  1:
 FoFJK:  IHMeth= 1 ICntrl=     0 DoSepK=T KAlg= 1 I1Cent= 0 FoldK=F
 FoFCou: FMM=F IPFlag=           0 FMFlag=      100000 FMFlg1=           0
         NFxFlg=           0 DoJE=T BraDBF=F KetDBF=F FulRan=T
         Omega=  0.000000  0.000000  1.000000  0.000000  0.000000 ICntrl=     500 IOpCl=  0
         NMat0=    1 NMatS0=    1 NMatT0=    0 NMatD0=    1 NMtDS0=    0 NMtDT0=    0
         I1Cent=           0 NGrid=           0.
 Symmetry not used in FoFCou.
 E= -2753.40934852740    
 DIIS: error= 1.03D-13 at cycle   1 NSaved=   1.
 NSaved= 1 IEnMin= 1 EnMin= -2753.40934852740     IErMin= 1 ErrMin= 1.03D-13
 ErrMax= 1.03D-13 EMaxC= 1.00D-01 BMatC= 2.09D-25 BMatP= 2.09D-25
 IDIUse=1 WtCom= 1.00D+00 WtEn= 0.00D+00
 Coeff-Com:  0.100D+01
 Coeff:      0.100D+01
 Gap=     0.640 Goal=   None    Shift=    0.000
 RMSDP=1.50D-14 MaxDP=2.04D-13              OVMax= 3.27D-13

 SCF Done:  E(RLC-B+HF-LYP) =  -2753.40934853     A.U. after    1 cycles
             Convg  =    0.1504D-13             -V/T =  2.0014
 KE= 2.749695852517D+03 PE=-6.579489077514D+03 EE= 1.076383876470D+03
 Leave Link  502 at Mon May 11 15:49:15 2020, MaxMem= 1073741824 cpu:      11.1
 (Enter /home/matheus/.gaussian/g09/l122.exe)
 Restoring MOs from calculation   1 to rwf.
 Counterpoise: corrected energy =   -2904.622039117807
 Counterpoise: BSSE energy =       0.000031148125
 Leave Link  122 at Mon May 11 15:49:15 2020, MaxMem= 1073741824 cpu:       0.0
 (Enter /home/matheus/.gaussian/g09/l108.exe)
 Scan completed.

 Summary of the potential surface scan:
   N      R1          SCF    
 ----  ---------  -----------
    1     3.0000  -2753.40935
    2     3.1000  -2753.40935
    3     3.2000  -2753.40935
    4     3.3000  -2753.40935
    5     3.4000  -2753.40935
    6     3.5000  -2753.40935
    7     3.6000  -2753.40935
    8     3.7000  -2753.40935
    9     3.8000  -2753.40935
   10     3.9000  -2753.40935
   11     4.0000  -2753.40935
   12     4.1000  -2753.40935
   13     4.2000  -2753.40935
   14     4.3000  -2753.40935
   15     4.4000  -2753.40935
   16     4.5000  -2753.40935
   17     4.6000  -2753.40935
   18     4.7000  -2753.40935
   19     4.8000  -2753.40935
   20     4.9000  -2753.40935
   21     5.0000  -2753.40935
 ----  ---------  -----------
  
 Leave Link  108 at Mon May 11 15:49:15 2020, MaxMem= 1073741824 cpu:       0.0
 (Enter /home/matheus/.gaussian/g09/l9999.exe)

 Test job not archived.
 1\1\GINC-REDGIANT\Scan\RLC-BLYP\Aug-CC-pVTZ\H2Kr1O2\MATHEUS\11-May-202
 0\1\\#p lc-blyp/aug-cc-PVTz iop(3/107=1350000000) iop(3/108=1350000000
 ) int=ultrafine counterpoise=2 Scan\\TCC\\0,1\O,0,0.,0.,0.725\O,0,0.,0
 .,-0.725\H,0,0.7037808064,-0.5905422151,1.0235104166\H,0,0.,0.91872059
 47,-1.0235104166\Kr,0,0.,R1,0.\\R1=3.,s,20,0.1\\Version=EM64L-G09RevC.
 01\State=1-A\HF=-2753.4093485,-2753.4093485,-2753.4093485,-2753.409348
 5,-2753.4093485,-2753.4093485,-2753.4093485,-2753.4093485,-2753.409348
 5,-2753.4093485,-2753.4093485,-2753.4093485,-2753.4093485,-2753.409348
 5,-2753.4093485,-2753.4093485,-2753.4093485,-2753.4093485,-2753.409348
 5,-2753.4093485,-2753.4093485\RMSD=5.461e-09,3.089e-10,7.451e-11,2.036
 e-11,7.197e-12,3.144e-12,1.453e-12,6.866e-13,3.245e-13,1.562e-13,7.511
 e-14,3.719e-14,1.517e-14,1.103e-14,1.325e-14,1.258e-14,3.788e-15,9.904
 e-15,1.462e-14,1.135e-14,1.504e-14\PG=C01 [X(H2Kr1O2)]\\@


 IT IS DOUBTED WHETHER A MAN EVER BRINGS HIS FACULTIES TO BEAR WITH THEIR FULL FORCE
 ON A SUBJECT UNTIL HE WRITES UPON IT.

                          -- CICERO
 Job cpu time:  0 days  3 hours 17 minutes 14.4 seconds.
 File lengths (MBytes):  RWF=     33 Int=      0 D2E=      0 Chk=      8 Scr=      1
 Normal termination of Gaussian 09 at Mon May 11 15:49:15 2020.
