 Entering Gaussian System, Link 0=g09
 Input=/home/matheus/.tcc/Inputs/Inputs-lc-blyp/H2O2-Kr_17.com
 Output=/home/matheus/.tcc/Logs/Logs-lc-blyp/H2O2-Kr_17.log
 Initial command:
 /home/matheus/.gaussian/g09/l1.exe /home/matheus/.gaussian/g09/scratch/Gau-17721.inp -scrdir=/home/matheus/.gaussian/g09/scratch/
 Entering Link 1 = /home/matheus/.gaussian/g09/l1.exe PID=     17724.
  
 Copyright (c) 1988,1990,1992,1993,1995,1998,2003,2009,2011,
            Gaussian, Inc.  All Rights Reserved.
  
 This is part of the Gaussian(R) 09 program.  It is based on
 the Gaussian(R) 03 system (copyright 2003, Gaussian, Inc.),
 the Gaussian(R) 98 system (copyright 1998, Gaussian, Inc.),
 the Gaussian(R) 94 system (copyright 1995, Gaussian, Inc.),
 the Gaussian 92(TM) system (copyright 1992, Gaussian, Inc.),
 the Gaussian 90(TM) system (copyright 1990, Gaussian, Inc.),
 the Gaussian 88(TM) system (copyright 1988, Gaussian, Inc.),
 the Gaussian 86(TM) system (copyright 1986, Carnegie Mellon
 University), and the Gaussian 82(TM) system (copyright 1983,
 Carnegie Mellon University). Gaussian is a federally registered
 trademark of Gaussian, Inc.
  
 This software contains proprietary and confidential information,
 including trade secrets, belonging to Gaussian, Inc.
  
 This software is provided under written license and may be
 used, copied, transmitted, or stored only in accord with that
 written license.
  
 The following legend is applicable only to US Government
 contracts under FAR:
  
                    RESTRICTED RIGHTS LEGEND
  
 Use, reproduction and disclosure by the US Government is
 subject to restrictions as set forth in subparagraphs (a)
 and (c) of the Commercial Computer Software - Restricted
 Rights clause in FAR 52.227-19.
  
 Gaussian, Inc.
 340 Quinnipiac St., Bldg. 40, Wallingford CT 06492
  
  
 ---------------------------------------------------------------
 Warning -- This program may not be used in any manner that
 competes with the business of Gaussian, Inc. or will provide
 assistance to any competitor of Gaussian, Inc.  The licensee
 of this program is prohibited from giving any competitor of
 Gaussian, Inc. access to this program.  By using this program,
 the user acknowledges that Gaussian, Inc. is engaged in the
 business of creating and licensing software in the field of
 computational chemistry and represents and warrants to the
 licensee that it is not a competitor of Gaussian, Inc. and that
 it will not use this program in any manner prohibited above.
 ---------------------------------------------------------------
  

 Cite this work as:
 Gaussian 09, Revision C.01,
 M. J. Frisch, G. W. Trucks, H. B. Schlegel, G. E. Scuseria, 
 M. A. Robb, J. R. Cheeseman, G. Scalmani, V. Barone, B. Mennucci, 
 G. A. Petersson, H. Nakatsuji, M. Caricato, X. Li, H. P. Hratchian, 
 A. F. Izmaylov, J. Bloino, G. Zheng, J. L. Sonnenberg, M. Hada, 
 M. Ehara, K. Toyota, R. Fukuda, J. Hasegawa, M. Ishida, T. Nakajima, 
 Y. Honda, O. Kitao, H. Nakai, T. Vreven, J. A. Montgomery, Jr., 
 J. E. Peralta, F. Ogliaro, M. Bearpark, J. J. Heyd, E. Brothers, 
 K. N. Kudin, V. N. Staroverov, T. Keith, R. Kobayashi, J. Normand, 
 K. Raghavachari, A. Rendell, J. C. Burant, S. S. Iyengar, J. Tomasi, 
 M. Cossi, N. Rega, J. M. Millam, M. Klene, J. E. Knox, J. B. Cross, 
 V. Bakken, C. Adamo, J. Jaramillo, R. Gomperts, R. E. Stratmann, 
 O. Yazyev, A. J. Austin, R. Cammi, C. Pomelli, J. W. Ochterski, 
 R. L. Martin, K. Morokuma, V. G. Zakrzewski, G. A. Voth, 
 P. Salvador, J. J. Dannenberg, S. Dapprich, A. D. Daniels, 
 O. Farkas, J. B. Foresman, J. V. Ortiz, J. Cioslowski, 
 and D. J. Fox, Gaussian, Inc., Wallingford CT, 2010.
 
 ******************************************
 Gaussian 09:  EM64L-G09RevC.01 23-Sep-2011
                11-May-2020 
 ******************************************
 %mem=8GB
 %nproc=8
 Will use up to    8 processors via shared memory.
 ----------------------------------------------------------------------
 #p lc-blyp/aug-cc-PVTz iop(3/107=1350000000) iop(3/108=1350000000) int
 =ultrafine counterpoise=2 Scan
 ----------------------------------------------------------------------
 1/38=1,60=1,62=2/1,8;
 2/12=2,17=6,18=5,29=3,40=1/2;
 1/38=1,53=5172,62=2/22;
 3/5=16,6=1,7=10,11=2,16=1,25=1,30=1,74=1000402,75=-5,107=1350000000,108=1350000000/1,2,3;
 4//1;
 5/5=2,38=5/2;
 6/7=2,8=2,9=2,10=2,18=1,28=1/1;
 1/53=4052,62=2,63=1/22;
 3/5=7,6=11,7=10,11=2,16=1,25=1,30=1,74=1000402,75=-5,82=7,107=1350000000,108=1350000000/1,2,3;
 4//1;
 5/5=2,38=5/2;
 6/7=2,8=2,9=2,10=2,18=1,28=1/1;
 1/53=3042,62=2,63=2/22;
 3/5=7,6=11,7=10,11=2,16=1,25=1,30=1,74=1000402,75=-5,82=7,107=1350000000,108=1350000000/1,2,3;
 4//1;
 5/5=2,38=5/2;
 6/7=2,8=2,9=2,10=2,18=1,28=1/1;
 1/53=2032,62=2,63=3/22;
 3/5=7,6=11,7=10,11=2,16=1,25=1,30=1,74=1000402,75=-5,82=7,107=1350000000,108=1350000000/1,2,3;
 4//1;
 5/5=2,38=5/2;
 6/7=2,8=2,9=2,10=2,18=1,28=1/1;
 1/53=1022,62=2,63=4/22;
 3/5=7,6=11,7=10,11=2,16=1,25=1,30=1,74=1000402,75=-5,82=7,107=1350000000,108=1350000000/1,2,3;
 4//1;
 5/5=2,38=5/2;
 6/7=2,8=2,9=2,10=2,18=1,28=1/1;
 1/53=5014,62=2,63=5/22;
 1/60=1,62=2/8(1);
 99/9=1/99;
 2/29=3/2;
 1/53=5173,62=2/22;
 3/5=7,6=11,7=10,11=2,16=1,25=1,30=1,74=1000402,75=-5,82=7,107=1350000000,108=1350000000/1,2,3;
 4/5=5,16=3/1;
 5/5=2,38=5/2;
 1/53=4053,62=2,63=1/22;
 3/5=7,6=11,7=10,11=2,16=1,25=1,30=1,74=1000402,75=-5,82=7,107=1350000000,108=1350000000/1,2,3;
 4/5=5,16=3/1;
 5/5=2,38=5/2;
 1/53=3043,62=2,63=2/22;
 3/5=7,6=11,7=10,11=2,16=1,25=1,30=1,74=1000402,75=-5,82=7,107=1350000000,108=1350000000/1,2,3;
 4/5=5,16=3/1;
 5/5=2,38=5/2;
 1/53=2033,62=2,63=3/22;
 3/5=7,6=11,7=10,11=2,16=1,25=1,30=1,74=1000402,75=-5,82=7,107=1350000000,108=1350000000/1,2,3;
 4/5=5,16=3/1;
 5/5=2,38=5/2;
 1/53=1024,62=2,63=4/22;
 3/5=7,6=11,7=10,11=2,16=1,25=1,30=1,74=1000402,75=-5,82=7,107=1350000000,108=1350000000/1,2,3;
 4/5=5,16=3/1;
 5/5=2,38=5/2;
 1/53=5014,62=2,63=5/22;
 1/60=1,62=2/8(-22);
 99/9=1/99;
 Leave Link    1 at Mon May 11 17:05:03 2020, MaxMem= 1073741824 cpu:       0.1
 (Enter /home/matheus/.gaussian/g09/l101.exe)
 ---
 TCC
 ---
 Charge =  0 Multiplicity = 1 in supermolecule
 Charge =  0 Multiplicity = 1 in fragment  1.
 Charge =  0 Multiplicity = 1 in fragment  2.
 Symbolic Z-Matrix:
 O(Fragment=1)         0.        0.        0.725 
 O(Fragment=1)         0.        0.       -0.725 
 H(Fragment=1)         0.15953  -0.90476   1.02351 
 H(Fragment=1)         0.        0.91872  -1.02351 
 Kr(Fragment=2)        0.       R1        0. 
       Variables:
  R1                    3.     Scan 20    0.1    
 
 NAtoms=      5 NQM=        0 NQMF=       0 NMMI=      5 NMMIF=      0
                NMic=       0 NMicF=      0.
                    Isotopes and Nuclear Properties:
 (Nuclear quadrupole moments (NQMom) in fm**2, nuclear magnetic moments (NMagM)
  in nuclear magnetons)

  Atom         1           2           3           4           5
 IAtWgt=          16          16           1           1          84
 AtmWgt=  15.9949146  15.9949146   1.0078250   1.0078250  83.9115064
 NucSpn=           0           0           1           1           0
 AtZEff=   0.0000000   0.0000000   0.0000000   0.0000000   0.0000000
 NQMom=    0.0000000   0.0000000   0.0000000   0.0000000   0.0000000
 NMagM=    0.0000000   0.0000000   2.7928460   2.7928460   0.0000000
 Leave Link  101 at Mon May 11 17:05:03 2020, MaxMem= 1073741824 cpu:       0.3
 (Enter /home/matheus/.gaussian/g09/l108.exe)
 Scan the potential surface.
 Variable   Value     No. Steps Step-Size
 -------- ----------- --------- ---------
     1       3.000000      20      0.1000
 A total of     21 points will be computed.
 Leave Link  108 at Mon May 11 17:05:03 2020, MaxMem= 1073741824 cpu:       0.0
 (Enter /home/matheus/.gaussian/g09/l202.exe)
 ---------------------------------------------------------------------------------------------------
                            Z-MATRIX (ANGSTROMS AND DEGREES)
   CD    Cent   Atom    N1       Length/X        N2       Alpha/Y        N3        Beta/Z          J
 ---------------------------------------------------------------------------------------------------
      1      1  O        0   0.000000          0.000000          0.725000
      2      2  O        0   0.000000          0.000000         -0.725000
      3      3  H        0   0.159534         -0.904763          1.023510
      4      4  H        0   0.000000          0.918721         -1.023510
      5      5  Kr       0   0.000000          3.000000          0.000000
 ---------------------------------------------------------------------------------------------------
                         Z-Matrix orientation:                         
 ---------------------------------------------------------------------
 Center     Atomic      Atomic             Coordinates (Angstroms)
 Number     Number       Type             X           Y           Z
 ---------------------------------------------------------------------
      1          8           0        0.000000    0.000000    0.725000
      2          8           0        0.000000    0.000000   -0.725000
      3          1           0        0.159534   -0.904763    1.023510
      4          1           0        0.000000    0.918721   -1.023510
      5         36           0        0.000000    3.000000    0.000000
 ---------------------------------------------------------------------
                    Distance matrix (angstroms):
                    1          2          3          4          5
     1  O    0.000000
     2  O    1.450000   0.000000
     3  H    0.966000   1.975180   0.000000
     4  H    1.975180   0.966000   2.746059   0.000000
     5  Kr   3.086361   3.086361   4.039827   2.319331   0.000000
 Stoichiometry    H2KrO2
 Framework group  C1[X(H2KrO2)]
 Deg. of freedom     9
 Full point group                 C1      NOp   1
 Largest Abelian subgroup         C1      NOp   1
 Largest concise Abelian subgroup C1      NOp   1
                         Standard orientation:                         
 ---------------------------------------------------------------------
 Center     Atomic      Atomic             Coordinates (Angstroms)
 Number     Number       Type             X           Y           Z
 ---------------------------------------------------------------------
      1          8           0        2.013524   -0.686962   -0.021683
      2          8           0        1.986222    0.762620   -0.000129
      3          1           0        2.924418   -0.970655    0.129799
      4          1           0        1.062052    1.043690    0.007960
      5         36           0       -0.999568   -0.018842    0.001020
 ---------------------------------------------------------------------
 Rotational constants (GHZ):     26.6931850      2.3029701      2.1204694
 Leave Link  202 at Mon May 11 17:05:03 2020, MaxMem= 1073741824 cpu:       0.0
 (Enter /home/matheus/.gaussian/g09/l122.exe)
 Leave Link  122 at Mon May 11 17:05:03 2020, MaxMem= 1073741824 cpu:       0.0
 (Enter /home/matheus/.gaussian/g09/l301.exe)
 Standard basis: Aug-CC-pVTZ (5D, 7F)
 Ernie: Thresh=  0.10000D-02 Tol=  0.10000D-05 Strict=F.
 Ernie:  38 primitive shells out of 205 were deleted.
 There are   197 symmetry adapted basis functions of A   symmetry.
 Integral buffers will be    131072 words long.
 Raffenetti 2 integral format.
 Two-electron integral symmetry is turned on.
   197 basis functions,   415 primitive gaussians,   229 cartesian basis functions
    27 alpha electrons       27 beta electrons
       nuclear repulsion energy       148.2893698349 Hartrees.
 IExCor=10402 DFT=T Ex=LC-B+HF Corr=LYP ExCW=0 ScaHFX=  1.000000
 ScaDFX=  1.000000  1.000000  1.000000  1.000000 ScalE2=  1.000000  1.000000
 IRadAn=      5 IRanWt=     -1 IRanGd=            0 ICorTp=0
  HFx wShort=  0.000000 wLong=  1.350000 cFull=  0.000000 cShort=  0.000000 cLong=  1.000000
  DFx wShort=  0.000000 wLong=  1.350000 cFull=  0.000000 cShort=  0.000000 cLong=  1.000000
 NAtoms=    5 NActive=    5 NUniq=    5 SFac= 1.00D+00 NAtFMM=   60 NAOKFM=F Big=F
 Leave Link  301 at Mon May 11 17:05:03 2020, MaxMem= 1073741824 cpu:       0.2
 (Enter /home/matheus/.gaussian/g09/l302.exe)
 NPDir=0 NMtPBC=     1 NCelOv=     1 NCel=       1 NClECP=     1 NCelD=      1
         NCelK=      1 NCelE2=     1 NClLst=     1 CellRange=     0.0.
 One-electron integrals computed using PRISM.
 NBasis=   197 RedAO= T  NBF=   197
 NBsUse=   197 1.00D-06 NBFU=   197
 Precomputing XC quadrature grid using
 IXCGrd= 2 IRadAn=           5 IRanWt=          -1 IRanGd=           0 AccXCQ= 0.00D+00.
 NRdTot=     427 NPtTot=      123814 NUsed=      126881 NTot=      126913
 NSgBfM=   229   229   229   229   229 NAtAll=     5     5.
 Leave Link  302 at Mon May 11 17:05:03 2020, MaxMem= 1073741824 cpu:       1.0
 (Enter /home/matheus/.gaussian/g09/l303.exe)
 DipDrv:  MaxL=1.
 Leave Link  303 at Mon May 11 17:05:03 2020, MaxMem= 1073741824 cpu:       0.2
 (Enter /home/matheus/.gaussian/g09/l401.exe)
 Harris functional with IExCor=10402 diagonalized for initial guess.
 ExpMin= 2.53D-02 ExpMax= 1.17D+07 ExpMxC= 1.33D+04 IAcc=3 IRadAn=         5 AccDes= 0.00D+00
 HarFok:  IExCor=10402 AccDes= 0.00D+00 IRadAn=         5 IDoV= 1
 ScaDFX=  1.000000  1.000000  1.000000  1.000000
 FoFCou: FMM=F IPFlag=           0 FMFlag=      100000 FMFlg1=           0
         NFxFlg=           0 DoJE=T BraDBF=F KetDBF=T FulRan=T
         Omega=  0.000000  0.000000  1.000000  0.000000  0.000000 ICntrl=     500 IOpCl=  0
         NMat0=    1 NMatS0=    1 NMatT0=    0 NMatD0=    1 NMtDS0=    0 NMtDT0=    0
         I1Cent=           4 NGrid=           0.
 Petite list used in FoFCou.
 Harris En= -2874.93284022846    
 Initial guess orbital symmetries:
       Occupied  (A) (A) (A) (A) (A) (A) (A) (A) (A) (A) (A) (A)
                 (A) (A) (A) (A) (A) (A) (A) (A) (A) (A) (A) (A)
                 (A) (A) (A)
       Virtual   (A) (A) (A) (A) (A) (A) (A) (A) (A) (A) (A) (A)
                 (A) (A) (A) (A) (A) (A) (A) (A) (A) (A) (A) (A)
                 (A) (A) (A) (A) (A) (A) (A) (A) (A) (A) (A) (A)
                 (A) (A) (A) (A) (A) (A) (A) (A) (A) (A) (A) (A)
                 (A) (A) (A) (A) (A) (A) (A) (A) (A) (A) (A) (A)
                 (A) (A) (A) (A) (A) (A) (A) (A) (A) (A) (A) (A)
                 (A) (A) (A) (A) (A) (A) (A) (A) (A) (A) (A) (A)
                 (A) (A) (A) (A) (A) (A) (A) (A) (A) (A) (A) (A)
                 (A) (A) (A) (A) (A) (A) (A) (A) (A) (A) (A) (A)
                 (A) (A) (A) (A) (A) (A) (A) (A) (A) (A) (A) (A)
                 (A) (A) (A) (A) (A) (A) (A) (A) (A) (A) (A) (A)
                 (A) (A) (A) (A) (A) (A) (A) (A) (A) (A) (A) (A)
                 (A) (A) (A) (A) (A) (A) (A) (A) (A) (A) (A) (A)
                 (A) (A) (A) (A) (A) (A) (A) (A) (A) (A) (A) (A)
                 (A) (A)
 The electronic state of the initial guess is 1-A.
 Leave Link  401 at Mon May 11 17:05:04 2020, MaxMem= 1073741824 cpu:       3.7
 (Enter /home/matheus/.gaussian/g09/l502.exe)
 Closed shell SCF:
 Requested convergence on RMS density matrix=1.00D-08 within 128 cycles.
 Requested convergence on MAX density matrix=1.00D-06.
 Requested convergence on             energy=1.00D-06.
 No special actions if energy rises.
 Using DIIS extrapolation, IDIIS=  1040.
 Integral symmetry usage will be decided dynamically.
       126823 words used for storage of precomputed grid.
 IEnd=      305770 IEndB=      305770 NGot=  1073741824 MDV=  1073505365
 LenX=  1073505365 LenY=  1073452483
 Fock matrices will be formed incrementally for  20 cycles.

 Cycle   1  Pass 1  IDiag  1:
 FoFJK:  IHMeth= 1 ICntrl=     0 DoSepK=T KAlg= 1 I1Cent= 0 FoldK=F
 FoFCou: FMM=F IPFlag=           0 FMFlag=      100000 FMFlg1=           0
         NFxFlg=           0 DoJE=T BraDBF=F KetDBF=F FulRan=T
         Omega=  0.000000  0.000000  1.000000  0.000000  0.000000 ICntrl=     500 IOpCl=  0
         NMat0=    1 NMatS0=    1 NMatT0=    0 NMatD0=    1 NMtDS0=    0 NMtDT0=    0
         I1Cent=           0 NGrid=           0.
 Symmetry not used in FoFCou.
 E= -2899.39834425955    
 DIIS: error= 1.41D-01 at cycle   1 NSaved=   1.
 NSaved= 1 IEnMin= 1 EnMin= -2899.39834425955     IErMin= 1 ErrMin= 1.41D-01
 ErrMax= 1.41D-01 EMaxC= 1.00D-01 BMatC= 4.04D+00 BMatP= 4.04D+00
 IDIUse=3 WtCom= 0.00D+00 WtEn= 1.00D+00
 Coeff-Com:  0.100D+01
 Coeff-En:   0.100D+01
 Coeff:      0.100D+01
 Gap=    -0.531 Goal=   None    Shift=    0.000
 GapD=   -0.531 DampG=0.250 DampE=0.250 DampFc=0.2500 IDamp=-1.
 Damping current iteration by 2.50D-01
 RMSDP=9.95D-02 MaxDP=6.22D+00              OVMax= 1.00D+00

 Cycle   2  Pass 1  IDiag  1:
 RMSU=  4.45D-03    CP:  7.64D-01
 FoFJK:  IHMeth= 1 ICntrl=     0 DoSepK=T KAlg= 1 I1Cent= 0 FoldK=F
 E= -2901.28622420552     Delta-E=       -1.887879945977 Rises=F Damp=T
 DIIS: error= 5.93D-02 at cycle   2 NSaved=   2.
 NSaved= 2 IEnMin= 2 EnMin= -2901.28622420552     IErMin= 2 ErrMin= 5.93D-02
 ErrMax= 5.93D-02 EMaxC= 1.00D-01 BMatC= 1.09D+00 BMatP= 4.04D+00
 IDIUse=3 WtCom= 4.07D-01 WtEn= 5.93D-01
 Coeff-Com: -0.786D+00 0.179D+01
 Coeff-En:   0.000D+00 0.100D+01
 Coeff:     -0.320D+00 0.132D+01
 Gap=     0.126 Goal=   None    Shift=    0.000
 RMSDP=7.46D-02 MaxDP=4.67D+00 DE=-1.89D+00 OVMax= 9.09D-01

 Cycle   3  Pass 1  IDiag  1:
 RMSU=  5.83D-03    CP:  5.76D-02  3.00D+00
 FoFJK:  IHMeth= 1 ICntrl=     0 DoSepK=T KAlg= 1 I1Cent= 0 FoldK=F
 E= -2904.30104128811     Delta-E=       -3.014817082590 Rises=F Damp=F
 DIIS: error= 3.41D-02 at cycle   3 NSaved=   3.
 NSaved= 3 IEnMin= 3 EnMin= -2904.30104128811     IErMin= 3 ErrMin= 3.41D-02
 ErrMax= 3.41D-02 EMaxC= 1.00D-01 BMatC= 5.03D-01 BMatP= 1.09D+00
 IDIUse=3 WtCom= 6.59D-01 WtEn= 3.41D-01
 Coeff-Com: -0.617D-01 0.482D+00 0.579D+00
 Coeff-En:   0.000D+00 0.000D+00 0.100D+01
 Coeff:     -0.407D-01 0.318D+00 0.723D+00
 Gap=     0.595 Goal=   None    Shift=    0.000
 RMSDP=2.37D-03 MaxDP=8.69D-02 DE=-3.01D+00 OVMax= 1.02D-01

 Cycle   4  Pass 1  IDiag  1:
 RMSU=  1.67D-03    CP:  5.72D-02  3.00D+00  9.78D-01
 FoFJK:  IHMeth= 1 ICntrl=     0 DoSepK=T KAlg= 1 I1Cent= 0 FoldK=F
 E= -2904.61063218019     Delta-E=       -0.309590892076 Rises=F Damp=F
 DIIS: error= 4.29D-03 at cycle   4 NSaved=   4.
 NSaved= 4 IEnMin= 4 EnMin= -2904.61063218019     IErMin= 4 ErrMin= 4.29D-03
 ErrMax= 4.29D-03 EMaxC= 1.00D-01 BMatC= 1.13D-02 BMatP= 5.03D-01
 IDIUse=3 WtCom= 9.57D-01 WtEn= 4.29D-02
 Coeff-Com: -0.382D-01 0.821D-01 0.728D-01 0.883D+00
 Coeff-En:   0.000D+00 0.000D+00 0.000D+00 0.100D+01
 Coeff:     -0.366D-01 0.785D-01 0.696D-01 0.888D+00
 Gap=     0.490 Goal=   None    Shift=    0.000
 RMSDP=5.93D-04 MaxDP=1.93D-02 DE=-3.10D-01 OVMax= 2.11D-02

 Cycle   5  Pass 1  IDiag  1:
 RMSU=  4.14D-04    CP:  5.71D-02  3.00D+00  9.78D-01  1.04D+00
 FoFJK:  IHMeth= 1 ICntrl=     0 DoSepK=T KAlg= 1 I1Cent= 0 FoldK=F
 E= -2904.61718857100     Delta-E=       -0.006556390810 Rises=F Damp=F
 DIIS: error= 1.59D-03 at cycle   5 NSaved=   5.
 NSaved= 5 IEnMin= 5 EnMin= -2904.61718857100     IErMin= 5 ErrMin= 1.59D-03
 ErrMax= 1.59D-03 EMaxC= 1.00D-01 BMatC= 7.09D-04 BMatP= 1.13D-02
 IDIUse=3 WtCom= 9.84D-01 WtEn= 1.59D-02
 Coeff-Com: -0.281D-01 0.531D-01-0.123D-01-0.606D-01 0.105D+01
 Coeff-En:   0.000D+00 0.000D+00 0.000D+00 0.000D+00 0.100D+01
 Coeff:     -0.277D-01 0.523D-01-0.121D-01-0.596D-01 0.105D+01
 Gap=     0.508 Goal=   None    Shift=    0.000
 RMSDP=1.48D-04 MaxDP=4.03D-03 DE=-6.56D-03 OVMax= 7.59D-03

 Cycle   6  Pass 1  IDiag  1:
 RMSU=  8.04D-05    CP:  5.70D-02  3.00D+00  9.76D-01  1.05D+00  1.15D+00
 FoFJK:  IHMeth= 1 ICntrl=     0 DoSepK=T KAlg= 1 I1Cent= 0 FoldK=F
 E= -2904.61789654064     Delta-E=       -0.000707969640 Rises=F Damp=F
 DIIS: error= 4.74D-04 at cycle   6 NSaved=   6.
 NSaved= 6 IEnMin= 6 EnMin= -2904.61789654064     IErMin= 6 ErrMin= 4.74D-04
 ErrMax= 4.74D-04 EMaxC= 1.00D-01 BMatC= 1.12D-04 BMatP= 7.09D-04
 IDIUse=3 WtCom= 9.95D-01 WtEn= 4.74D-03
 Coeff-Com: -0.501D-02 0.870D-02-0.139D-01-0.548D-01 0.369D-01 0.103D+01
 Coeff-En:   0.000D+00 0.000D+00 0.000D+00 0.000D+00 0.000D+00 0.100D+01
 Coeff:     -0.499D-02 0.866D-02-0.139D-01-0.546D-01 0.368D-01 0.103D+01
 Gap=     0.511 Goal=   None    Shift=    0.000
 RMSDP=6.64D-05 MaxDP=1.86D-03 DE=-7.08D-04 OVMax= 3.82D-03

 Cycle   7  Pass 1  IDiag  1:
 RMSU=  2.37D-05    CP:  5.70D-02  3.00D+00  9.76D-01  1.07D+00  1.23D+00
                    CP:  1.16D+00
 FoFJK:  IHMeth= 1 ICntrl=     0 DoSepK=T KAlg= 1 I1Cent= 0 FoldK=F
 E= -2904.61804653028     Delta-E=       -0.000149989637 Rises=F Damp=F
 DIIS: error= 3.06D-04 at cycle   7 NSaved=   7.
 NSaved= 7 IEnMin= 7 EnMin= -2904.61804653028     IErMin= 7 ErrMin= 3.06D-04
 ErrMax= 3.06D-04 EMaxC= 1.00D-01 BMatC= 1.85D-05 BMatP= 1.12D-04
 IDIUse=3 WtCom= 9.97D-01 WtEn= 3.06D-03
 Coeff-Com:  0.908D-03-0.215D-02-0.509D-02-0.148D-01-0.943D-01 0.359D+00
 Coeff-Com:  0.756D+00
 Coeff-En:   0.000D+00 0.000D+00 0.000D+00 0.000D+00 0.000D+00 0.000D+00
 Coeff-En:   0.100D+01
 Coeff:      0.905D-03-0.215D-02-0.507D-02-0.148D-01-0.940D-01 0.358D+00
 Coeff:      0.757D+00
 Gap=     0.511 Goal=   None    Shift=    0.000
 RMSDP=1.80D-05 MaxDP=5.38D-04 DE=-1.50D-04 OVMax= 1.51D-03

 Cycle   8  Pass 1  IDiag  1:
 RMSU=  8.66D-06    CP:  5.70D-02  3.00D+00  9.76D-01  1.07D+00  1.24D+00
                    CP:  1.22D+00  1.13D+00
 FoFJK:  IHMeth= 1 ICntrl=     0 DoSepK=T KAlg= 1 I1Cent= 0 FoldK=F
 E= -2904.61806511842     Delta-E=       -0.000018588147 Rises=F Damp=F
 DIIS: error= 8.14D-05 at cycle   8 NSaved=   8.
 NSaved= 8 IEnMin= 8 EnMin= -2904.61806511842     IErMin= 8 ErrMin= 8.14D-05
 ErrMax= 8.14D-05 EMaxC= 1.00D-01 BMatC= 1.52D-06 BMatP= 1.85D-05
 IDIUse=1 WtCom= 1.00D+00 WtEn= 0.00D+00
 Coeff-Com:  0.107D-02-0.193D-02 0.159D-02 0.546D-02-0.959D-02-0.904D-01
 Coeff-Com:  0.105D+00 0.988D+00
 Coeff:      0.107D-02-0.193D-02 0.159D-02 0.546D-02-0.959D-02-0.904D-01
 Coeff:      0.105D+00 0.988D+00
 Gap=     0.511 Goal=   None    Shift=    0.000
 RMSDP=7.67D-06 MaxDP=2.59D-04 DE=-1.86D-05 OVMax= 5.37D-04

 Cycle   9  Pass 1  IDiag  1:
 RMSU=  3.63D-06    CP:  5.70D-02  3.00D+00  9.76D-01  1.07D+00  1.24D+00
                    CP:  1.23D+00  1.28D+00  1.11D+00
 FoFJK:  IHMeth= 1 ICntrl=     0 DoSepK=T KAlg= 1 I1Cent= 0 FoldK=F
 E= -2904.61806778680     Delta-E=       -0.000002668381 Rises=F Damp=F
 DIIS: error= 1.81D-05 at cycle   9 NSaved=   9.
 NSaved= 9 IEnMin= 9 EnMin= -2904.61806778680     IErMin= 9 ErrMin= 1.81D-05
 ErrMax= 1.81D-05 EMaxC= 1.00D-01 BMatC= 1.88D-07 BMatP= 1.52D-06
 IDIUse=1 WtCom= 1.00D+00 WtEn= 0.00D+00
 Coeff-Com:  0.104D-03-0.131D-03 0.365D-03 0.629D-03 0.212D-02 0.519D-02
 Coeff-Com: -0.754D-01-0.165D+00 0.123D+01
 Coeff:      0.104D-03-0.131D-03 0.365D-03 0.629D-03 0.212D-02 0.519D-02
 Coeff:     -0.754D-01-0.165D+00 0.123D+01
 Gap=     0.511 Goal=   None    Shift=    0.000
 RMSDP=3.79D-06 MaxDP=6.66D-05 DE=-2.67D-06 OVMax= 3.67D-04

 Cycle  10  Pass 1  IDiag  1:
 RMSU=  1.27D-06    CP:  5.70D-02  3.00D+00  9.76D-01  1.07D+00  1.24D+00
                    CP:  1.23D+00  1.30D+00  1.19D+00  1.51D+00
 FoFJK:  IHMeth= 1 ICntrl=     0 DoSepK=T KAlg= 1 I1Cent= 0 FoldK=F
 E= -2904.61806829621     Delta-E=       -0.000000509412 Rises=F Damp=F
 DIIS: error= 1.04D-05 at cycle  10 NSaved=  10.
 NSaved=10 IEnMin=10 EnMin= -2904.61806829621     IErMin=10 ErrMin= 1.04D-05
 ErrMax= 1.04D-05 EMaxC= 1.00D-01 BMatC= 2.66D-08 BMatP= 1.88D-07
 IDIUse=1 WtCom= 1.00D+00 WtEn= 0.00D+00
 Coeff-Com: -0.652D-04 0.125D-03-0.237D-03-0.755D-03-0.114D-02 0.142D-01
 Coeff-Com: -0.782D-02-0.102D+00-0.127D+00 0.123D+01
 Coeff:     -0.652D-04 0.125D-03-0.237D-03-0.755D-03-0.114D-02 0.142D-01
 Coeff:     -0.782D-02-0.102D+00-0.127D+00 0.123D+01
 Gap=     0.511 Goal=   None    Shift=    0.000
 RMSDP=1.74D-06 MaxDP=4.32D-05 DE=-5.09D-07 OVMax= 2.24D-04

 Cycle  11  Pass 1  IDiag  1:
 RMSU=  5.16D-07    CP:  5.70D-02  3.00D+00  9.76D-01  1.07D+00  1.24D+00
                    CP:  1.23D+00  1.31D+00  1.21D+00  1.74D+00  1.55D+00
 FoFJK:  IHMeth= 1 ICntrl=     0 DoSepK=T KAlg= 1 I1Cent= 0 FoldK=F
 E= -2904.61806840101     Delta-E=       -0.000000104798 Rises=F Damp=F
 DIIS: error= 5.62D-06 at cycle  11 NSaved=  11.
 NSaved=11 IEnMin=11 EnMin= -2904.61806840101     IErMin=11 ErrMin= 5.62D-06
 ErrMax= 5.62D-06 EMaxC= 1.00D-01 BMatC= 4.40D-09 BMatP= 2.66D-08
 IDIUse=1 WtCom= 1.00D+00 WtEn= 0.00D+00
 Coeff-Com: -0.215D-04 0.314D-04 0.112D-04 0.680D-04 0.862D-03-0.515D-02
 Coeff-Com:  0.640D-02 0.457D-01-0.104D+00-0.369D+00 0.142D+01
 Coeff:     -0.215D-04 0.314D-04 0.112D-04 0.680D-04 0.862D-03-0.515D-02
 Coeff:      0.640D-02 0.457D-01-0.104D+00-0.369D+00 0.142D+01
 Gap=     0.511 Goal=   None    Shift=    0.000
 RMSDP=9.12D-07 MaxDP=1.97D-05 DE=-1.05D-07 OVMax= 1.36D-04

 Cycle  12  Pass 1  IDiag  1:
 RMSU=  2.19D-07    CP:  5.70D-02  3.00D+00  9.76D-01  1.07D+00  1.24D+00
                    CP:  1.23D+00  1.31D+00  1.22D+00  1.81D+00  1.84D+00
                    CP:  1.68D+00
 FoFJK:  IHMeth= 1 ICntrl=     0 DoSepK=T KAlg= 1 I1Cent= 0 FoldK=F
 E= -2904.61806842432     Delta-E=       -0.000000023311 Rises=F Damp=F
 DIIS: error= 2.40D-06 at cycle  12 NSaved=  12.
 NSaved=12 IEnMin=12 EnMin= -2904.61806842432     IErMin=12 ErrMin= 2.40D-06
 ErrMax= 2.40D-06 EMaxC= 1.00D-01 BMatC= 6.94D-10 BMatP= 4.40D-09
 IDIUse=1 WtCom= 1.00D+00 WtEn= 0.00D+00
 Coeff-Com:  0.383D-05-0.811D-05 0.189D-04 0.768D-04-0.289D-03 0.530D-03
 Coeff-Com: -0.140D-02-0.729D-02 0.643D-01-0.817D-02-0.660D+00 0.161D+01
 Coeff:      0.383D-05-0.811D-05 0.189D-04 0.768D-04-0.289D-03 0.530D-03
 Coeff:     -0.140D-02-0.729D-02 0.643D-01-0.817D-02-0.660D+00 0.161D+01
 Gap=     0.511 Goal=   None    Shift=    0.000
 RMSDP=4.30D-07 MaxDP=9.91D-06 DE=-2.33D-08 OVMax= 6.71D-05

 Cycle  13  Pass 1  IDiag  1:
 RMSU=  7.16D-08    CP:  5.70D-02  3.00D+00  9.76D-01  1.07D+00  1.24D+00
                    CP:  1.23D+00  1.32D+00  1.23D+00  1.84D+00  1.94D+00
                    CP:  2.03D+00  1.77D+00
 FoFJK:  IHMeth= 1 ICntrl=     0 DoSepK=T KAlg= 1 I1Cent= 0 FoldK=F
 E= -2904.61806842824     Delta-E=       -0.000000003912 Rises=F Damp=F
 DIIS: error= 6.10D-07 at cycle  13 NSaved=  13.
 NSaved=13 IEnMin=13 EnMin= -2904.61806842824     IErMin=13 ErrMin= 6.10D-07
 ErrMax= 6.10D-07 EMaxC= 1.00D-01 BMatC= 5.30D-11 BMatP= 6.94D-10
 IDIUse=1 WtCom= 1.00D+00 WtEn= 0.00D+00
 Coeff-Com:  0.124D-05-0.118D-05-0.464D-05-0.159D-04-0.120D-04 0.283D-03
 Coeff-Com:  0.146D-03-0.252D-02-0.842D-02 0.414D-01 0.101D-01-0.368D+00
 Coeff-Com:  0.133D+01
 Coeff:      0.124D-05-0.118D-05-0.464D-05-0.159D-04-0.120D-04 0.283D-03
 Coeff:      0.146D-03-0.252D-02-0.842D-02 0.414D-01 0.101D-01-0.368D+00
 Coeff:      0.133D+01
 Gap=     0.511 Goal=   None    Shift=    0.000
 RMSDP=1.07D-07 MaxDP=2.41D-06 DE=-3.91D-09 OVMax= 1.59D-05

 Cycle  14  Pass 1  IDiag  1:
 RMSU=  1.81D-08    CP:  5.70D-02  3.00D+00  9.76D-01  1.07D+00  1.24D+00
                    CP:  1.23D+00  1.32D+00  1.23D+00  1.84D+00  1.95D+00
                    CP:  2.08D+00  1.95D+00  1.57D+00
 FoFJK:  IHMeth= 1 ICntrl=     0 DoSepK=T KAlg= 1 I1Cent= 0 FoldK=F
 E= -2904.61806842848     Delta-E=       -0.000000000246 Rises=F Damp=F
 DIIS: error= 1.51D-07 at cycle  14 NSaved=  14.
 NSaved=14 IEnMin=14 EnMin= -2904.61806842848     IErMin=14 ErrMin= 1.51D-07
 ErrMax= 1.51D-07 EMaxC= 1.00D-01 BMatC= 6.16D-12 BMatP= 5.30D-11
 IDIUse=1 WtCom= 1.00D+00 WtEn= 0.00D+00
 Coeff-Com:  0.842D-06-0.148D-05-0.240D-06-0.457D-05 0.521D-04-0.248D-03
 Coeff-Com:  0.271D-03 0.175D-02-0.602D-02-0.910D-02 0.770D-01-0.107D+00
 Coeff-Com: -0.276D+00 0.132D+01
 Coeff:      0.842D-06-0.148D-05-0.240D-06-0.457D-05 0.521D-04-0.248D-03
 Coeff:      0.271D-03 0.175D-02-0.602D-02-0.910D-02 0.770D-01-0.107D+00
 Coeff:     -0.276D+00 0.132D+01
 Gap=     0.511 Goal=   None    Shift=    0.000
 RMSDP=3.04D-08 MaxDP=8.81D-07 DE=-2.46D-10 OVMax= 3.58D-06

 Cycle  15  Pass 1  IDiag  1:
 RMSU=  6.75D-09    CP:  5.70D-02  3.00D+00  9.76D-01  1.07D+00  1.24D+00
                    CP:  1.23D+00  1.32D+00  1.23D+00  1.84D+00  1.95D+00
                    CP:  2.09D+00  1.98D+00  1.77D+00  1.53D+00
 FoFJK:  IHMeth= 1 ICntrl=     0 DoSepK=T KAlg= 1 I1Cent= 0 FoldK=F
 E= -2904.61806842847     Delta-E=        0.000000000009 Rises=F Damp=F
 DIIS: error= 6.55D-08 at cycle  15 NSaved=  15.
 NSaved=15 IEnMin=14 EnMin= -2904.61806842848     IErMin=15 ErrMin= 6.55D-08
 ErrMax= 6.55D-08 EMaxC= 1.00D-01 BMatC= 5.60D-13 BMatP= 6.16D-12
 IDIUse=1 WtCom= 1.00D+00 WtEn= 0.00D+00
 Coeff-Com: -0.149D-06 0.216D-06 0.555D-06 0.376D-05-0.283D-04 0.802D-04
 Coeff-Com: -0.113D-04-0.487D-03 0.226D-02 0.146D-02-0.302D-01 0.643D-01
 Coeff-Com:  0.299D-01-0.610D+00 0.154D+01
 Coeff:     -0.149D-06 0.216D-06 0.555D-06 0.376D-05-0.283D-04 0.802D-04
 Coeff:     -0.113D-04-0.487D-03 0.226D-02 0.146D-02-0.302D-01 0.643D-01
 Coeff:      0.299D-01-0.610D+00 0.154D+01
 Gap=     0.511 Goal=   None    Shift=    0.000
 RMSDP=9.81D-09 MaxDP=1.98D-07 DE= 9.09D-12 OVMax= 1.01D-06

 SCF Done:  E(RLC-B+HF-LYP) =  -2904.61806843     A.U. after   15 cycles
             Convg  =    0.9811D-08             -V/T =  2.0016
 KE= 2.899946870878D+03 PE=-7.234090964410D+03 EE= 1.281236655269D+03
 Leave Link  502 at Mon May 11 17:05:48 2020, MaxMem= 1073741824 cpu:     350.7
 (Enter /home/matheus/.gaussian/g09/l601.exe)
 Copying SCF densities to generalized density rwf, IOpCl= 0 IROHF=0.

 **********************************************************************

            Population analysis using the SCF density.

 **********************************************************************

 Orbital symmetries:
       Occupied  (A) (A) (A) (A) (A) (A) (A) (A) (A) (A) (A) (A)
                 (A) (A) (A) (A) (A) (A) (A) (A) (A) (A) (A) (A)
                 (A) (A) (A)
       Virtual   (A) (A) (A) (A) (A) (A) (A) (A) (A) (A) (A) (A)
                 (A) (A) (A) (A) (A) (A) (A) (A) (A) (A) (A) (A)
                 (A) (A) (A) (A) (A) (A) (A) (A) (A) (A) (A) (A)
                 (A) (A) (A) (A) (A) (A) (A) (A) (A) (A) (A) (A)
                 (A) (A) (A) (A) (A) (A) (A) (A) (A) (A) (A) (A)
                 (A) (A) (A) (A) (A) (A) (A) (A) (A) (A) (A) (A)
                 (A) (A) (A) (A) (A) (A) (A) (A) (A) (A) (A) (A)
                 (A) (A) (A) (A) (A) (A) (A) (A) (A) (A) (A) (A)
                 (A) (A) (A) (A) (A) (A) (A) (A) (A) (A) (A) (A)
                 (A) (A) (A) (A) (A) (A) (A) (A) (A) (A) (A) (A)
                 (A) (A) (A) (A) (A) (A) (A) (A) (A) (A) (A) (A)
                 (A) (A) (A) (A) (A) (A) (A) (A) (A) (A) (A) (A)
                 (A) (A) (A) (A) (A) (A) (A) (A) (A) (A) (A) (A)
                 (A) (A) (A) (A) (A) (A) (A) (A) (A) (A) (A) (A)
                 (A) (A)
 The electronic state is 1-A.
 Alpha  occ. eigenvalues -- -511.66378 -67.18873 -60.86080 -60.86063 -60.86054
 Alpha  occ. eigenvalues --  -19.48039 -19.47707 -10.09000  -7.80601  -7.80556
 Alpha  occ. eigenvalues --   -7.80532  -3.63561  -3.63551  -3.63533  -3.63495
 Alpha  occ. eigenvalues --   -3.63493  -1.45885  -1.21393  -1.18399  -0.73972
 Alpha  occ. eigenvalues --   -0.73273  -0.64777  -0.57402  -0.56197  -0.55831
 Alpha  occ. eigenvalues --   -0.54738  -0.48187
 Alpha virt. eigenvalues --    0.02922   0.03787   0.07828   0.09595   0.10483
 Alpha virt. eigenvalues --    0.11267   0.13591   0.14704   0.15990   0.16414
 Alpha virt. eigenvalues --    0.18354   0.19803   0.23169   0.23706   0.23980
 Alpha virt. eigenvalues --    0.24921   0.26966   0.29069   0.31253   0.34067
 Alpha virt. eigenvalues --    0.34630   0.35022   0.36919   0.39373   0.40950
 Alpha virt. eigenvalues --    0.42275   0.43614   0.49814   0.54016   0.56607
 Alpha virt. eigenvalues --    0.58881   0.62234   0.66662   0.67985   0.71104
 Alpha virt. eigenvalues --    0.73438   0.74684   0.75574   0.76858   0.79014
 Alpha virt. eigenvalues --    0.81000   0.81547   0.82136   0.83274   0.84601
 Alpha virt. eigenvalues --    0.86937   0.88339   0.90428   0.90849   0.93937
 Alpha virt. eigenvalues --    0.95547   0.97659   0.98586   1.00354   1.04068
 Alpha virt. eigenvalues --    1.06281   1.08408   1.09879   1.10860   1.13978
 Alpha virt. eigenvalues --    1.16908   1.18325   1.20305   1.21601   1.23977
 Alpha virt. eigenvalues --    1.31874   1.36570   1.42295   1.46609   1.47146
 Alpha virt. eigenvalues --    1.54142   1.57586   1.58667   1.61415   1.65388
 Alpha virt. eigenvalues --    1.68097   1.86417   1.90434   1.94949   2.04087
 Alpha virt. eigenvalues --    2.09228   2.09668   2.15808   2.24125   2.26110
 Alpha virt. eigenvalues --    2.28256   2.28639   2.28959   2.32921   2.38068
 Alpha virt. eigenvalues --    2.40249   2.42167   2.45689   2.46720   2.48210
 Alpha virt. eigenvalues --    2.50782   2.51665   2.56429   2.59139   2.61134
 Alpha virt. eigenvalues --    2.63670   2.64608   2.66648   2.69126   2.69794
 Alpha virt. eigenvalues --    2.73500   2.75951   2.78031   2.81607   2.83281
 Alpha virt. eigenvalues --    2.83795   2.88050   2.89225   2.95289   3.03736
 Alpha virt. eigenvalues --    3.09176   3.21464   3.23366   3.29898   3.68117
 Alpha virt. eigenvalues --    3.90399   4.02332   4.04552   4.23099   4.24226
 Alpha virt. eigenvalues --    4.25695   4.29496   4.33937   4.37557   4.42577
 Alpha virt. eigenvalues --    4.53138   4.59631   4.69972   4.70319   4.92894
 Alpha virt. eigenvalues --    5.07734   5.20693   5.21480   5.25971   5.26310
 Alpha virt. eigenvalues --    5.55918   5.67038   6.05078   6.21810   6.31437
 Alpha virt. eigenvalues --    6.37327   6.54785   6.60849   6.68770   6.72340
 Alpha virt. eigenvalues --    6.97325   6.97789   6.99978   7.07384   7.11221
 Alpha virt. eigenvalues --    7.14399   7.19071   7.19786   7.21585   7.23320
 Alpha virt. eigenvalues --    7.27443   7.48710   7.50295   7.64284   7.88087
 Alpha virt. eigenvalues --    8.09973   8.37612   8.40508  14.36799  14.80566
          Condensed to atoms (all electrons):
              1          2          3          4          5
     1  O    8.211701  -0.144810   0.180536  -0.012158  -0.036314
     2  O   -0.144810   8.192766  -0.002048   0.224568  -0.009588
     3  H    0.180536  -0.002048   0.602574   0.006489   0.003521
     4  H   -0.012158   0.224568   0.006489   0.546251  -0.012854
     5  Kr  -0.036314  -0.009588   0.003521  -0.012854  36.052023
 Mulliken atomic charges:
              1
     1  O   -0.198956
     2  O   -0.260888
     3  H    0.208928
     4  H    0.247704
     5  Kr   0.003211
 Sum of Mulliken atomic charges =   0.00000
 Mulliken charges with hydrogens summed into heavy atoms:
              1
     1  O    0.009972
     2  O   -0.013184
     5  Kr   0.003211
 Sum of Mulliken charges with hydrogens summed into heavy atoms =   0.00000
          Condensed to fragments (all electrons):
     1      -0.003211
     2       0.003211
 Electronic spatial extent (au):  <R**2>=            491.5481
 Charge=              0.0000 electrons
 Dipole moment (field-independent basis, Debye):
    X=             -0.1828    Y=             -0.2784    Z=              0.2972  Tot=              0.4464
 Quadrupole moment (field-independent basis, Debye-Ang):
   XX=            -25.7743   YY=            -28.0711   ZZ=            -30.2614
   XY=             -4.0930   XZ=              0.9366   YZ=             -0.3080
 Traceless Quadrupole moment (field-independent basis, Debye-Ang):
   XX=              2.2613   YY=             -0.0355   ZZ=             -2.2258
   XY=             -4.0930   XZ=              0.9366   YZ=             -0.3080
 Octapole moment (field-independent basis, Debye-Ang**2):
  XXX=              2.7615  YYY=             -0.5775  ZZZ=              0.1185  XYY=             -3.9952
  XXY=            -17.3904  XXZ=              2.8267  XZZ=             -8.0619  YZZ=             -0.3226
  YYZ=              0.3659  XYZ=             -0.9592
 Hexadecapole moment (field-independent basis, Debye-Ang**3):
 XXXX=           -328.3663 YYYY=            -62.4196 ZZZZ=            -28.2372 XXXY=            -55.3032
 XXXZ=              8.6706 YYYX=             -5.8362 YYYZ=             -0.3811 ZZZX=              0.3716
 ZZZY=             -0.1620 XXYY=            -73.5712 XXZZ=            -78.3036 YYZZ=            -16.8815
 XXYZ=             -2.9165 YYXZ=              1.0689 ZZXY=             -0.5113
 N-N= 1.482893698349D+02 E-N=-7.234090969345D+03  KE= 2.899946870878D+03
 No NMR shielding tensors so no spin-rotation constants.
 Leave Link  601 at Mon May 11 17:05:48 2020, MaxMem= 1073741824 cpu:       0.7
 (Enter /home/matheus/.gaussian/g09/l122.exe)
 Counterpoise: doing DCBS calculation for fragment   1 NewBq=T
 Leave Link  122 at Mon May 11 17:05:48 2020, MaxMem= 1073741824 cpu:       0.0
 (Enter /home/matheus/.gaussian/g09/l301.exe)
 Basis read from rwf:  (5D, 7F)
 No pseudopotential information found on rwf file.
 There are   197 symmetry adapted basis functions of A   symmetry.
 Integral buffers will be    131072 words long.
 Raffenetti 2 integral format.
 Two-electron integral symmetry is turned on.
   197 basis functions,   415 primitive gaussians,   229 cartesian basis functions
     9 alpha electrons        9 beta electrons
       nuclear repulsion energy        36.6009457491 Hartrees.
 IExCor=10402 DFT=T Ex=LC-B+HF Corr=LYP ExCW=0 ScaHFX=  1.000000
 ScaDFX=  1.000000  1.000000  1.000000  1.000000 ScalE2=  1.000000  1.000000
 IRadAn=      5 IRanWt=     -1 IRanGd=            0 ICorTp=0
  HFx wShort=  0.000000 wLong=  1.350000 cFull=  0.000000 cShort=  0.000000 cLong=  1.000000
  DFx wShort=  0.000000 wLong=  1.350000 cFull=  0.000000 cShort=  0.000000 cLong=  1.000000
 NAtoms=    5 NActive=    5 NUniq=    5 SFac= 1.00D+00 NAtFMM=   60 NAOKFM=F Big=F
 No density basis found on file   718.
 Leave Link  301 at Mon May 11 17:05:48 2020, MaxMem= 1073741824 cpu:       0.2
 (Enter /home/matheus/.gaussian/g09/l302.exe)
 NPDir=0 NMtPBC=     1 NCelOv=     1 NCel=       1 NClECP=     1 NCelD=      1
         NCelK=      1 NCelE2=     1 NClLst=     1 CellRange=     0.0.
 One-electron integrals computed using PRISM.
 NBasis=   197 RedAO= T  NBF=   197
 NBsUse=   197 1.00D-06 NBFU=   197
 Precomputing XC quadrature grid using
 IXCGrd= 2 IRadAn=           5 IRanWt=          -1 IRanGd=           0 AccXCQ= 0.00D+00.
 NRdTot=     427 NPtTot=      123814 NUsed=      126881 NTot=      126913
 NSgBfM=   229   229   229   229   229 NAtAll=     5     5.
 Leave Link  302 at Mon May 11 17:05:48 2020, MaxMem= 1073741824 cpu:       0.9
 (Enter /home/matheus/.gaussian/g09/l303.exe)
 DipDrv:  MaxL=1.
 Leave Link  303 at Mon May 11 17:05:48 2020, MaxMem= 1073741824 cpu:       0.2
 (Enter /home/matheus/.gaussian/g09/l401.exe)
 Harris functional with IExCor=10402 diagonalized for initial guess.
 ExpMin= 2.53D-02 ExpMax= 1.17D+07 ExpMxC= 1.33D+04 IAcc=3 IRadAn=         5 AccDes= 0.00D+00
 HarFok:  IExCor=10402 AccDes= 0.00D+00 IRadAn=         5 IDoV= 1
 ScaDFX=  1.000000  1.000000  1.000000  1.000000
 FoFCou: FMM=F IPFlag=           0 FMFlag=      100000 FMFlg1=           0
         NFxFlg=           0 DoJE=T BraDBF=F KetDBF=T FulRan=T
         Omega=  0.000000  0.000000  1.000000  0.000000  0.000000 ICntrl=     500 IOpCl=  0
         NMat0=    1 NMatS0=    1 NMatT0=    0 NMatD0=    1 NMtDS0=    0 NMtDT0=    0
         I1Cent=           4 NGrid=           0.
 Petite list used in FoFCou.
 Harris En= -143.238932823401    
 Initial guess orbital symmetries:
       Occupied  (A) (A) (A) (A) (A) (A) (A) (A) (A)
       Virtual   (A) (A) (A) (A) (A) (A) (A) (A) (A) (A) (A) (A)
                 (A) (A) (A) (A) (A) (A) (A) (A) (A) (A) (A) (A)
                 (A) (A) (A) (A) (A) (A) (A) (A) (A) (A) (A) (A)
                 (A) (A) (A) (A) (A) (A) (A) (A) (A) (A) (A) (A)
                 (A) (A) (A) (A) (A) (A) (A) (A) (A) (A) (A) (A)
                 (A) (A) (A) (A) (A) (A) (A) (A) (A) (A) (A) (A)
                 (A) (A) (A) (A) (A) (A) (A) (A) (A) (A) (A) (A)
                 (A) (A) (A) (A) (A) (A) (A) (A) (A) (A) (A) (A)
                 (A) (A) (A) (A) (A) (A) (A) (A) (A) (A) (A) (A)
                 (A) (A) (A) (A) (A) (A) (A) (A) (A) (A) (A) (A)
                 (A) (A) (A) (A) (A) (A) (A) (A) (A) (A) (A) (A)
                 (A) (A) (A) (A) (A) (A) (A) (A) (A) (A) (A) (A)
                 (A) (A) (A) (A) (A) (A) (A) (A) (A) (A) (A) (A)
                 (A) (A) (A) (A) (A) (A) (A) (A) (A) (A) (A) (A)
                 (A) (A) (A) (A) (A) (A) (A) (A) (A) (A) (A) (A)
                 (A) (A) (A) (A) (A) (A) (A) (A)
 The electronic state of the initial guess is 1-A.
 Leave Link  401 at Mon May 11 17:05:48 2020, MaxMem= 1073741824 cpu:       3.6
 (Enter /home/matheus/.gaussian/g09/l502.exe)
 Closed shell SCF:
 Requested convergence on RMS density matrix=1.00D-08 within 128 cycles.
 Requested convergence on MAX density matrix=1.00D-06.
 Requested convergence on             energy=1.00D-06.
 No special actions if energy rises.
 Using DIIS extrapolation, IDIIS=  1040.
 Integral symmetry usage will be decided dynamically.
       126823 words used for storage of precomputed grid.
 IEnd=      305770 IEndB=      305770 NGot=  1073741824 MDV=  1073505365
 LenX=  1073505365 LenY=  1073452483
 Fock matrices will be formed incrementally for  20 cycles.

 Cycle   1  Pass 1  IDiag  1:
 FoFJK:  IHMeth= 1 ICntrl=     0 DoSepK=T KAlg= 1 I1Cent= 0 FoldK=F
 FoFCou: FMM=F IPFlag=           0 FMFlag=      100000 FMFlg1=           0
         NFxFlg=           0 DoJE=T BraDBF=F KetDBF=F FulRan=T
         Omega=  0.000000  0.000000  1.000000  0.000000  0.000000 ICntrl=     500 IOpCl=  0
         NMat0=    1 NMatS0=    1 NMatT0=    0 NMatD0=    1 NMtDS0=    0 NMtDT0=    0
         I1Cent=           0 NGrid=           0.
 Symmetry not used in FoFCou.
 E= -146.073054828900    
 DIIS: error= 1.41D-01 at cycle   1 NSaved=   1.
 NSaved= 1 IEnMin= 1 EnMin= -146.073054828900     IErMin= 1 ErrMin= 1.41D-01
 ErrMax= 1.41D-01 EMaxC= 1.00D-01 BMatC= 2.91D+00 BMatP= 2.91D+00
 IDIUse=3 WtCom= 0.00D+00 WtEn= 1.00D+00
 Coeff-Com:  0.100D+01
 Coeff-En:   0.100D+01
 Coeff:      0.100D+01
 Gap=    -0.909 Goal=   None    Shift=    0.000
 GapD=   -0.909 DampG=0.250 DampE=0.250 DampFc=0.2500 IDamp=-1.
 Damping current iteration by 2.50D-01
 RMSDP=8.32D-02 MaxDP=6.47D+00              OVMax= 1.00D+00

 Cycle   2  Pass 1  IDiag  1:
 RMSU=  1.81D-03    CP:  7.53D-01
 FoFJK:  IHMeth= 1 ICntrl=     0 DoSepK=T KAlg= 1 I1Cent= 0 FoldK=F
 E= -148.026262038106     Delta-E=       -1.953207209205 Rises=F Damp=T
 DIIS: error= 7.38D-02 at cycle   2 NSaved=   2.
 NSaved= 2 IEnMin= 2 EnMin= -148.026262038106     IErMin= 2 ErrMin= 7.38D-02
 ErrMax= 7.38D-02 EMaxC= 1.00D-01 BMatC= 7.93D-01 BMatP= 2.91D+00
 IDIUse=3 WtCom= 2.62D-01 WtEn= 7.38D-01
 Coeff-Com: -0.100D+01 0.200D+01
 Coeff-En:   0.000D+00 0.100D+01
 Coeff:     -0.263D+00 0.126D+01
 Gap=     0.354 Goal=   None    Shift=    0.000
 RMSDP=6.24D-02 MaxDP=4.85D+00 DE=-1.95D+00 OVMax= 1.11D-01

 Cycle   3  Pass 1  IDiag  1:
 RMSU=  2.09D-03    CP:  1.04D-02  3.00D+00
 FoFJK:  IHMeth= 1 ICntrl=     0 DoSepK=T KAlg= 1 I1Cent= 0 FoldK=F
 E= -150.522577443556     Delta-E=       -2.496315405451 Rises=F Damp=F
 DIIS: error= 5.92D-02 at cycle   3 NSaved=   3.
 NSaved= 3 IEnMin= 3 EnMin= -150.522577443556     IErMin= 3 ErrMin= 5.92D-02
 ErrMax= 5.92D-02 EMaxC= 1.00D-01 BMatC= 1.01D+00 BMatP= 7.93D-01
 IDIUse=2 WtCom= 0.00D+00 WtEn= 1.00D+00
 Coeff-En:   0.206D-01 0.000D+00 0.979D+00
 Coeff:      0.206D-01 0.000D+00 0.979D+00
 Gap=     0.768 Goal=   None    Shift=    0.000
 RMSDP=3.96D-03 MaxDP=1.42D-01 DE=-2.50D+00 OVMax= 2.90D-01

 Cycle   4  Pass 1  IDiag  1:
 RMSU=  2.77D-03    CP:  1.14D-02  3.00D+00  1.18D+00
 FoFJK:  IHMeth= 1 ICntrl=     0 DoSepK=T KAlg= 1 I1Cent= 0 FoldK=F
 E= -150.965214270838     Delta-E=       -0.442636827281 Rises=F Damp=F
 DIIS: error= 3.87D-02 at cycle   4 NSaved=   4.
 NSaved= 4 IEnMin= 4 EnMin= -150.965214270838     IErMin= 4 ErrMin= 3.87D-02
 ErrMax= 3.87D-02 EMaxC= 1.00D-01 BMatC= 3.81D-01 BMatP= 7.93D-01
 IDIUse=3 WtCom= 6.13D-01 WtEn= 3.87D-01
 Coeff-Com: -0.430D+00 0.712D+00 0.186D+00 0.532D+00
 Coeff-En:   0.000D+00 0.000D+00 0.143D+00 0.857D+00
 Coeff:     -0.264D+00 0.437D+00 0.169D+00 0.658D+00
 Gap=     0.570 Goal=   None    Shift=    0.000
 RMSDP=1.79D-03 MaxDP=5.17D-02 DE=-4.43D-01 OVMax= 1.43D-01

 Cycle   5  Pass 1  IDiag  1:
 RMSU=  3.82D-04    CP:  1.06D-02  3.00D+00  1.20D+00  5.64D-01
 FoFJK:  IHMeth= 1 ICntrl=     0 DoSepK=T KAlg= 1 I1Cent= 0 FoldK=F
 E= -151.188608927138     Delta-E=       -0.223394656301 Rises=F Damp=F
 DIIS: error= 1.13D-02 at cycle   5 NSaved=   5.
 NSaved= 5 IEnMin= 5 EnMin= -151.188608927138     IErMin= 5 ErrMin= 1.13D-02
 ErrMax= 1.13D-02 EMaxC= 1.00D-01 BMatC= 3.13D-02 BMatP= 3.81D-01
 IDIUse=3 WtCom= 8.87D-01 WtEn= 1.13D-01
 Coeff-Com: -0.904D-01 0.161D+00-0.148D+00 0.830D-01 0.995D+00
 Coeff-En:   0.000D+00 0.000D+00 0.000D+00 0.000D+00 0.100D+01
 Coeff:     -0.802D-01 0.143D+00-0.132D+00 0.736D-01 0.995D+00
 Gap=     0.546 Goal=   None    Shift=    0.000
 RMSDP=4.26D-04 MaxDP=1.52D-02 DE=-2.23D-01 OVMax= 2.88D-02

 Cycle   6  Pass 1  IDiag  1:
 RMSU=  8.78D-05    CP:  1.08D-02  3.00D+00  1.21D+00  6.66D-01  1.13D+00
 FoFJK:  IHMeth= 1 ICntrl=     0 DoSepK=T KAlg= 1 I1Cent= 0 FoldK=F
 E= -151.210074388935     Delta-E=       -0.021465461797 Rises=F Damp=F
 DIIS: error= 1.74D-03 at cycle   6 NSaved=   6.
 NSaved= 6 IEnMin= 6 EnMin= -151.210074388935     IErMin= 6 ErrMin= 1.74D-03
 ErrMax= 1.74D-03 EMaxC= 1.00D-01 BMatC= 5.28D-04 BMatP= 3.13D-02
 IDIUse=3 WtCom= 9.83D-01 WtEn= 1.74D-02
 Coeff-Com: -0.306D-01 0.587D-01 0.128D-01-0.481D-01-0.426D+00 0.143D+01
 Coeff-En:   0.000D+00 0.000D+00 0.000D+00 0.000D+00 0.000D+00 0.100D+01
 Coeff:     -0.301D-01 0.576D-01 0.126D-01-0.473D-01-0.418D+00 0.143D+01
 Gap=     0.513 Goal=   None    Shift=    0.000
 RMSDP=8.57D-05 MaxDP=2.12D-03 DE=-2.15D-02 OVMax= 6.82D-03

 Cycle   7  Pass 1  IDiag  1:
 RMSU=  2.31D-05    CP:  1.08D-02  3.00D+00  1.21D+00  6.75D-01  1.19D+00
                    CP:  1.49D+00
 FoFJK:  IHMeth= 1 ICntrl=     0 DoSepK=T KAlg= 1 I1Cent= 0 FoldK=F
 E= -151.210571852285     Delta-E=       -0.000497463350 Rises=F Damp=F
 DIIS: error= 1.02D-03 at cycle   7 NSaved=   7.
 NSaved= 7 IEnMin= 7 EnMin= -151.210571852285     IErMin= 7 ErrMin= 1.02D-03
 ErrMax= 1.02D-03 EMaxC= 1.00D-01 BMatC= 1.78D-04 BMatP= 5.28D-04
 IDIUse=3 WtCom= 9.90D-01 WtEn= 1.02D-02
 Coeff-Com: -0.711D-02 0.132D-01 0.836D-02 0.534D-02-0.106D+00-0.245D+00
 Coeff-Com:  0.133D+01
 Coeff-En:   0.000D+00 0.000D+00 0.000D+00 0.000D+00 0.000D+00 0.000D+00
 Coeff-En:   0.100D+01
 Coeff:     -0.704D-02 0.130D-01 0.828D-02 0.529D-02-0.105D+00-0.243D+00
 Coeff:      0.133D+01
 Gap=     0.510 Goal=   None    Shift=    0.000
 RMSDP=5.33D-05 MaxDP=1.31D-03 DE=-4.97D-04 OVMax= 4.07D-03

 Cycle   8  Pass 1  IDiag  1:
 RMSU=  8.91D-06    CP:  1.09D-02  3.00D+00  1.21D+00  6.85D-01  1.19D+00
                    CP:  1.69D+00  1.72D+00
 FoFJK:  IHMeth= 1 ICntrl=     0 DoSepK=T KAlg= 1 I1Cent= 0 FoldK=F
 E= -151.210746551418     Delta-E=       -0.000174699133 Rises=F Damp=F
 DIIS: error= 2.35D-04 at cycle   8 NSaved=   8.
 NSaved= 8 IEnMin= 8 EnMin= -151.210746551418     IErMin= 8 ErrMin= 2.35D-04
 ErrMax= 2.35D-04 EMaxC= 1.00D-01 BMatC= 7.18D-06 BMatP= 1.78D-04
 IDIUse=3 WtCom= 9.98D-01 WtEn= 2.35D-03
 Coeff-Com: -0.285D-02 0.498D-02-0.179D-03 0.599D-02 0.676D-02-0.147D+00
 Coeff-Com:  0.200D+00 0.933D+00
 Coeff-En:   0.000D+00 0.000D+00 0.000D+00 0.000D+00 0.000D+00 0.000D+00
 Coeff-En:   0.000D+00 0.100D+01
 Coeff:     -0.285D-02 0.496D-02-0.179D-03 0.597D-02 0.674D-02-0.147D+00
 Coeff:      0.199D+00 0.933D+00
 Gap=     0.510 Goal=   None    Shift=    0.000
 RMSDP=1.15D-05 MaxDP=3.26D-04 DE=-1.75D-04 OVMax= 9.20D-04

 Cycle   9  Pass 1  IDiag  1:
 RMSU=  3.23D-06    CP:  1.09D-02  3.00D+00  1.21D+00  6.86D-01  1.19D+00
                    CP:  1.71D+00  1.91D+00  1.30D+00
 FoFJK:  IHMeth= 1 ICntrl=     0 DoSepK=T KAlg= 1 I1Cent= 0 FoldK=F
 E= -151.210753894459     Delta-E=       -0.000007343041 Rises=F Damp=F
 DIIS: error= 6.09D-05 at cycle   9 NSaved=   9.
 NSaved= 9 IEnMin= 9 EnMin= -151.210753894459     IErMin= 9 ErrMin= 6.09D-05
 ErrMax= 6.09D-05 EMaxC= 1.00D-01 BMatC= 1.19D-06 BMatP= 7.18D-06
 IDIUse=1 WtCom= 1.00D+00 WtEn= 0.00D+00
 Coeff-Com: -0.629D-03 0.974D-03-0.153D-02 0.214D-02 0.198D-01-0.207D-01
 Coeff-Com: -0.160D+00 0.362D+00 0.798D+00
 Coeff:     -0.629D-03 0.974D-03-0.153D-02 0.214D-02 0.198D-01-0.207D-01
 Coeff:     -0.160D+00 0.362D+00 0.798D+00
 Gap=     0.510 Goal=   None    Shift=    0.000
 RMSDP=5.16D-06 MaxDP=1.15D-04 DE=-7.34D-06 OVMax= 5.26D-04

 Cycle  10  Pass 1  IDiag  1:
 RMSU=  1.30D-06    CP:  1.09D-02  3.00D+00  1.21D+00  6.87D-01  1.19D+00
                    CP:  1.72D+00  1.98D+00  1.49D+00  1.11D+00
 FoFJK:  IHMeth= 1 ICntrl=     0 DoSepK=T KAlg= 1 I1Cent= 0 FoldK=F
 E= -151.210755248537     Delta-E=       -0.000001354078 Rises=F Damp=F
 DIIS: error= 1.80D-05 at cycle  10 NSaved=  10.
 NSaved=10 IEnMin=10 EnMin= -151.210755248537     IErMin=10 ErrMin= 1.80D-05
 ErrMax= 1.80D-05 EMaxC= 1.00D-01 BMatC= 5.97D-08 BMatP= 1.19D-06
 IDIUse=1 WtCom= 1.00D+00 WtEn= 0.00D+00
 Coeff-Com:  0.214D-03-0.347D-03 0.765D-03-0.154D-02-0.118D-01 0.304D-01
 Coeff-Com:  0.438D-01-0.272D+00-0.341D+00 0.155D+01
 Coeff:      0.214D-03-0.347D-03 0.765D-03-0.154D-02-0.118D-01 0.304D-01
 Coeff:      0.438D-01-0.272D+00-0.341D+00 0.155D+01
 Gap=     0.510 Goal=   None    Shift=    0.000
 RMSDP=2.59D-06 MaxDP=5.68D-05 DE=-1.35D-06 OVMax= 4.01D-04

 Cycle  11  Pass 1  IDiag  1:
 RMSU=  5.98D-07    CP:  1.09D-02  3.00D+00  1.21D+00  6.87D-01  1.19D+00
                    CP:  1.72D+00  2.00D+00  1.55D+00  1.37D+00  1.94D+00
 FoFJK:  IHMeth= 1 ICntrl=     0 DoSepK=T KAlg= 1 I1Cent= 0 FoldK=F
 E= -151.210755454828     Delta-E=       -0.000000206291 Rises=F Damp=F
 DIIS: error= 7.27D-06 at cycle  11 NSaved=  11.
 NSaved=11 IEnMin=11 EnMin= -151.210755454828     IErMin=11 ErrMin= 7.27D-06
 ErrMax= 7.27D-06 EMaxC= 1.00D-01 BMatC= 9.57D-09 BMatP= 5.97D-08
 IDIUse=1 WtCom= 1.00D+00 WtEn= 0.00D+00
 Coeff-Com:  0.146D-03-0.251D-03-0.165D-03 0.344D-03 0.373D-02-0.109D-01
 Coeff-Com: -0.830D-02 0.102D+00 0.878D-01-0.916D+00 0.174D+01
 Coeff:      0.146D-03-0.251D-03-0.165D-03 0.344D-03 0.373D-02-0.109D-01
 Coeff:     -0.830D-02 0.102D+00 0.878D-01-0.916D+00 0.174D+01
 Gap=     0.510 Goal=   None    Shift=    0.000
 RMSDP=1.37D-06 MaxDP=3.20D-05 DE=-2.06D-07 OVMax= 2.16D-04

 Cycle  12  Pass 1  IDiag  1:
 RMSU=  1.97D-07    CP:  1.09D-02  3.00D+00  1.21D+00  6.87D-01  1.19D+00
                    CP:  1.72D+00  2.01D+00  1.56D+00  1.47D+00  2.48D+00
                    CP:  1.78D+00
 FoFJK:  IHMeth= 1 ICntrl=     0 DoSepK=T KAlg= 1 I1Cent= 0 FoldK=F
 E= -151.210755492191     Delta-E=       -0.000000037363 Rises=F Damp=F
 DIIS: error= 2.81D-06 at cycle  12 NSaved=  12.
 NSaved=12 IEnMin=12 EnMin= -151.210755492191     IErMin=12 ErrMin= 2.81D-06
 ErrMax= 2.81D-06 EMaxC= 1.00D-01 BMatC= 2.04D-09 BMatP= 9.57D-09
 IDIUse=1 WtCom= 1.00D+00 WtEn= 0.00D+00
 Coeff-Com:  0.146D-04-0.249D-04 0.436D-04-0.145D-03-0.887D-03 0.441D-02
 Coeff-Com:  0.916D-03-0.389D-01-0.282D-01 0.382D+00-0.928D+00 0.161D+01
 Coeff:      0.146D-04-0.249D-04 0.436D-04-0.145D-03-0.887D-03 0.441D-02
 Coeff:      0.916D-03-0.389D-01-0.282D-01 0.382D+00-0.928D+00 0.161D+01
 Gap=     0.510 Goal=   None    Shift=    0.000
 RMSDP=3.34D-07 MaxDP=7.19D-06 DE=-3.74D-08 OVMax= 5.05D-05

 Cycle  13  Pass 1  IDiag  1:
 RMSU=  5.66D-08    CP:  1.09D-02  3.00D+00  1.21D+00  6.87D-01  1.19D+00
                    CP:  1.72D+00  2.01D+00  1.56D+00  1.49D+00  2.60D+00
                    CP:  1.92D+00  1.53D+00
 FoFJK:  IHMeth= 1 ICntrl=     0 DoSepK=T KAlg= 1 I1Cent= 0 FoldK=F
 E= -151.210755495076     Delta-E=       -0.000000002885 Rises=F Damp=F
 DIIS: error= 4.24D-07 at cycle  13 NSaved=  13.
 NSaved=13 IEnMin=13 EnMin= -151.210755495076     IErMin=13 ErrMin= 4.24D-07
 ErrMax= 4.24D-07 EMaxC= 1.00D-01 BMatC= 4.11D-11 BMatP= 2.04D-09
 IDIUse=1 WtCom= 1.00D+00 WtEn= 0.00D+00
 Coeff-Com:  0.712D-06-0.178D-05 0.155D-05-0.375D-05-0.279D-04-0.231D-03
 Coeff-Com:  0.354D-03 0.134D-02 0.420D-03-0.231D-01 0.753D-01-0.301D+00
 Coeff-Com:  0.125D+01
 Coeff:      0.712D-06-0.178D-05 0.155D-05-0.375D-05-0.279D-04-0.231D-03
 Coeff:      0.354D-03 0.134D-02 0.420D-03-0.231D-01 0.753D-01-0.301D+00
 Coeff:      0.125D+01
 Gap=     0.510 Goal=   None    Shift=    0.000
 RMSDP=5.29D-08 MaxDP=1.08D-06 DE=-2.89D-09 OVMax= 7.64D-06

 Cycle  14  Pass 1  IDiag  1:
 RMSU=  6.56D-09    CP:  1.09D-02  3.00D+00  1.21D+00  6.87D-01  1.19D+00
                    CP:  1.72D+00  2.01D+00  1.56D+00  1.50D+00  2.61D+00
                    CP:  1.94D+00  1.58D+00  1.30D+00
 FoFJK:  IHMeth= 1 ICntrl=     0 DoSepK=T KAlg= 1 I1Cent= 0 FoldK=F
 E= -151.210755495076     Delta-E=        0.000000000000 Rises=F Damp=F
 DIIS: error= 7.36D-08 at cycle  14 NSaved=  14.
 NSaved=14 IEnMin=13 EnMin= -151.210755495076     IErMin=14 ErrMin= 7.36D-08
 ErrMax= 7.36D-08 EMaxC= 1.00D-01 BMatC= 7.70D-13 BMatP= 4.11D-11
 IDIUse=1 WtCom= 1.00D+00 WtEn= 0.00D+00
 Coeff-Com: -0.350D-06 0.480D-06-0.199D-05 0.532D-05 0.414D-04-0.157D-03
 Coeff-Com: -0.951D-04 0.159D-02 0.128D-02-0.146D-01 0.366D-01-0.467D-01
 Coeff-Com: -0.734D-01 0.110D+01
 Coeff:     -0.350D-06 0.480D-06-0.199D-05 0.532D-05 0.414D-04-0.157D-03
 Coeff:     -0.951D-04 0.159D-02 0.128D-02-0.146D-01 0.366D-01-0.467D-01
 Coeff:     -0.734D-01 0.110D+01
 Gap=     0.510 Goal=   None    Shift=    0.000
 RMSDP=6.14D-09 MaxDP=1.80D-07 DE= 1.71D-13 OVMax= 5.27D-07

 SCF Done:  E(RLC-B+HF-LYP) =  -151.210755495     A.U. after   14 cycles
             Convg  =    0.6137D-08             -V/T =  2.0063
 KE= 1.502617757642D+02 PE=-4.315439123436D+02 EE= 9.347043533530D+01
 Leave Link  502 at Mon May 11 17:06:28 2020, MaxMem= 1073741824 cpu:     320.4
 (Enter /home/matheus/.gaussian/g09/l601.exe)
 Copying SCF densities to generalized density rwf, IOpCl= 0 IROHF=0.

 **********************************************************************

            Population analysis using the SCF density.

 **********************************************************************

 Orbital symmetries:
       Occupied  (A) (A) (A) (A) (A) (A) (A) (A) (A)
       Virtual   (A) (A) (A) (A) (A) (A) (A) (A) (A) (A) (A) (A)
                 (A) (A) (A) (A) (A) (A) (A) (A) (A) (A) (A) (A)
                 (A) (A) (A) (A) (A) (A) (A) (A) (A) (A) (A) (A)
                 (A) (A) (A) (A) (A) (A) (A) (A) (A) (A) (A) (A)
                 (A) (A) (A) (A) (A) (A) (A) (A) (A) (A) (A) (A)
                 (A) (A) (A) (A) (A) (A) (A) (A) (A) (A) (A) (A)
                 (A) (A) (A) (A) (A) (A) (A) (A) (A) (A) (A) (A)
                 (A) (A) (A) (A) (A) (A) (A) (A) (A) (A) (A) (A)
                 (A) (A) (A) (A) (A) (A) (A) (A) (A) (A) (A) (A)
                 (A) (A) (A) (A) (A) (A) (A) (A) (A) (A) (A) (A)
                 (A) (A) (A) (A) (A) (A) (A) (A) (A) (A) (A) (A)
                 (A) (A) (A) (A) (A) (A) (A) (A) (A) (A) (A) (A)
                 (A) (A) (A) (A) (A) (A) (A) (A) (A) (A) (A) (A)
                 (A) (A) (A) (A) (A) (A) (A) (A) (A) (A) (A) (A)
                 (A) (A) (A) (A) (A) (A) (A) (A) (A) (A) (A) (A)
                 (A) (A) (A) (A) (A) (A) (A) (A)
 The electronic state is 1-A.
 Alpha  occ. eigenvalues --  -19.48237 -19.48208  -1.46067  -1.21518  -0.73552
 Alpha  occ. eigenvalues --   -0.73391  -0.64968  -0.55776  -0.48448
 Alpha virt. eigenvalues --    0.02540   0.03351   0.07070   0.08720   0.10043
 Alpha virt. eigenvalues --    0.10689   0.11928   0.13844   0.16308   0.16345
 Alpha virt. eigenvalues --    0.18840   0.19680   0.22952   0.23604   0.26092
 Alpha virt. eigenvalues --    0.27062   0.29296   0.30725   0.30932   0.33297
 Alpha virt. eigenvalues --    0.36553   0.37443   0.38713   0.39946   0.42142
 Alpha virt. eigenvalues --    0.43155   0.43660   0.48130   0.48539   0.49909
 Alpha virt. eigenvalues --    0.54804   0.57874   0.62620   0.67819   0.70079
 Alpha virt. eigenvalues --    0.71504   0.75148   0.76897   0.77371   0.78601
 Alpha virt. eigenvalues --    0.80301   0.84716   0.87390   0.88457   0.91707
 Alpha virt. eigenvalues --    0.93357   0.94192   0.96325   0.98775   1.01390
 Alpha virt. eigenvalues --    1.02498   1.06500   1.07163   1.11807   1.13483
 Alpha virt. eigenvalues --    1.14583   1.16801   1.17610   1.21538   1.26104
 Alpha virt. eigenvalues --    1.27852   1.30119   1.32315   1.33307   1.33822
 Alpha virt. eigenvalues --    1.34448   1.36607   1.36811   1.38390   1.47938
 Alpha virt. eigenvalues --    1.50275   1.52596   1.57029   1.57186   1.60065
 Alpha virt. eigenvalues --    1.62412   1.67793   1.69678   1.75926   1.84423
 Alpha virt. eigenvalues --    1.90339   1.90482   1.96893   2.07128   2.10331
 Alpha virt. eigenvalues --    2.11532   2.17137   2.24985   2.26433   2.29724
 Alpha virt. eigenvalues --    2.35781   2.39647   2.42186   2.47988   2.54056
 Alpha virt. eigenvalues --    2.59582   2.65722   2.67205   2.69085   2.77688
 Alpha virt. eigenvalues --    2.79623   2.81155   2.86052   3.00829   3.05874
 Alpha virt. eigenvalues --    3.20481   3.22828   3.24888   3.25907   3.31513
 Alpha virt. eigenvalues --    3.43767   3.54990   3.65989   3.78381   3.79268
 Alpha virt. eigenvalues --    3.80903   3.82181   3.82718   3.82889   3.86313
 Alpha virt. eigenvalues --    3.91683   3.93452   3.95786   3.98298   4.02825
 Alpha virt. eigenvalues --    4.05152   4.10785   4.17418   4.24144   4.26203
 Alpha virt. eigenvalues --    4.28405   4.33447   4.35408   4.43331   4.44659
 Alpha virt. eigenvalues --    4.55684   4.60839   4.71999   4.93147   5.07752
 Alpha virt. eigenvalues --    5.20741   5.22000   5.25980   5.26397   5.56101
 Alpha virt. eigenvalues --    5.66894   6.04948   6.21640   6.31166   6.37026
 Alpha virt. eigenvalues --    6.54680   6.60749   6.68587   6.72147   6.97154
 Alpha virt. eigenvalues --    6.97556   6.99781   7.07209   7.11081   7.14217
 Alpha virt. eigenvalues --    7.18693   7.19449   7.21206   7.22923   7.27148
 Alpha virt. eigenvalues --    7.48480   7.50208   7.63962   7.87716   8.09754
 Alpha virt. eigenvalues --    8.37366   8.40089  10.89461  14.36752  14.77654
 Alpha virt. eigenvalues --   14.83168  14.88683  15.12059  29.02910  29.03531
 Alpha virt. eigenvalues --   29.07782  29.13796  29.23193  49.10790 148.31178
 Alpha virt. eigenvalues --  148.38859 148.72025 752.51400
          Condensed to atoms (all electrons):
              1          2          3          4          5
     1  O    8.199755  -0.140839   0.177547  -0.016519  -0.006528
     2  O   -0.140839   8.175936  -0.002775   0.219499   0.000269
     3  H    0.177547  -0.002775   0.602556   0.008115   0.001498
     4  H   -0.016519   0.219499   0.008115   0.545898  -0.003242
     5  Kr  -0.006528   0.000269   0.001498  -0.003242   0.001805
 Mulliken atomic charges:
              1
     1  O   -0.213416
     2  O   -0.252090
     3  H    0.213059
     4  H    0.246249
     5  Kr   0.006198
 Sum of Mulliken atomic charges =   0.00000
 Mulliken charges with hydrogens summed into heavy atoms:
              1
     1  O   -0.000357
     2  O   -0.005841
     5  Kr   0.006198
 Sum of Mulliken charges with hydrogens summed into heavy atoms =   0.00000
          Condensed to fragments (all electrons):
     1      -0.006198
     2       0.006198
 Electronic spatial extent (au):  <R**2>=            323.9373
 Charge=              0.0000 electrons
 Dipole moment (field-independent basis, Debye):
    X=             -0.0254    Y=             -0.0043    Z=              0.3040  Tot=              0.3051
 Quadrupole moment (field-independent basis, Debye-Ang):
   XX=             -8.1820   YY=            -10.5307   ZZ=            -12.7793
   XY=             -4.2894   XZ=              0.9301   YZ=             -0.3070
 Traceless Quadrupole moment (field-independent basis, Debye-Ang):
   XX=              2.3154   YY=             -0.0334   ZZ=             -2.2819
   XY=             -4.2894   XZ=              0.9301   YZ=             -0.3070
 Octapole moment (field-independent basis, Debye-Ang**2):
  XXX=            -48.8505  YYY=             -1.2046  ZZZ=              0.1842  XYY=            -21.3956
  XXY=            -17.3831  XXZ=              2.8539  XZZ=            -25.5141  YZZ=             -0.5284
  YYZ=              0.3871  XYZ=             -0.9586
 Hexadecapole moment (field-independent basis, Debye-Ang**3):
 XXXX=           -204.0158 YYYY=            -44.4724 ZZZZ=            -10.4183 XXXY=            -54.6655
 XXXZ=              8.6039 YYYX=             -5.2534 YYYZ=             -0.3801 ZZZX=              0.3056
 ZZZY=             -0.1613 XXYY=            -49.9243 XXZZ=            -54.8045 YYZZ=            -10.9180
 XXYZ=             -2.9174 YYXZ=              1.0456 ZZXY=             -0.2770
 N-N= 3.660094574909D+01 E-N=-4.315439200552D+02  KE= 1.502617757642D+02
 No NMR shielding tensors so no spin-rotation constants.
 Leave Link  601 at Mon May 11 17:06:29 2020, MaxMem= 1073741824 cpu:       0.8
 (Enter /home/matheus/.gaussian/g09/l122.exe)
 Counterpoise: doing DCBS calculation for fragment   2 NewBq=T
 Leave Link  122 at Mon May 11 17:06:29 2020, MaxMem= 1073741824 cpu:       0.0
 (Enter /home/matheus/.gaussian/g09/l301.exe)
 Basis read from rwf:  (5D, 7F)
 No pseudopotential information found on rwf file.
 There are   197 symmetry adapted basis functions of A   symmetry.
 Integral buffers will be    131072 words long.
 Raffenetti 2 integral format.
 Two-electron integral symmetry is turned on.
   197 basis functions,   415 primitive gaussians,   229 cartesian basis functions
    18 alpha electrons       18 beta electrons
       nuclear repulsion energy         0.0000000000 Hartrees.
 IExCor=10402 DFT=T Ex=LC-B+HF Corr=LYP ExCW=0 ScaHFX=  1.000000
 ScaDFX=  1.000000  1.000000  1.000000  1.000000 ScalE2=  1.000000  1.000000
 IRadAn=      5 IRanWt=     -1 IRanGd=            0 ICorTp=0
  HFx wShort=  0.000000 wLong=  1.350000 cFull=  0.000000 cShort=  0.000000 cLong=  1.000000
  DFx wShort=  0.000000 wLong=  1.350000 cFull=  0.000000 cShort=  0.000000 cLong=  1.000000
 NAtoms=    5 NActive=    5 NUniq=    5 SFac= 1.00D+00 NAtFMM=   60 NAOKFM=F Big=F
 No density basis found on file   718.
 Leave Link  301 at Mon May 11 17:06:29 2020, MaxMem= 1073741824 cpu:       0.2
 (Enter /home/matheus/.gaussian/g09/l302.exe)
 NPDir=0 NMtPBC=     1 NCelOv=     1 NCel=       1 NClECP=     1 NCelD=      1
         NCelK=      1 NCelE2=     1 NClLst=     1 CellRange=     0.0.
 One-electron integrals computed using PRISM.
 NBasis=   197 RedAO= T  NBF=   197
 NBsUse=   197 1.00D-06 NBFU=   197
 Precomputing XC quadrature grid using
 IXCGrd= 2 IRadAn=           5 IRanWt=          -1 IRanGd=           0 AccXCQ= 0.00D+00.
 NRdTot=     427 NPtTot=      123814 NUsed=      126881 NTot=      126913
 NSgBfM=   229   229   229   229   229 NAtAll=     5     5.
 Leave Link  302 at Mon May 11 17:06:29 2020, MaxMem= 1073741824 cpu:       1.0
 (Enter /home/matheus/.gaussian/g09/l303.exe)
 DipDrv:  MaxL=1.
 Leave Link  303 at Mon May 11 17:06:29 2020, MaxMem= 1073741824 cpu:       0.2
 (Enter /home/matheus/.gaussian/g09/l401.exe)
 Harris functional with IExCor=10402 diagonalized for initial guess.
 ExpMin= 2.53D-02 ExpMax= 1.17D+07 ExpMxC= 1.33D+04 IAcc=3 IRadAn=         5 AccDes= 0.00D+00
 HarFok:  IExCor=10402 AccDes= 0.00D+00 IRadAn=         5 IDoV= 1
 ScaDFX=  1.000000  1.000000  1.000000  1.000000
 FoFCou: FMM=F IPFlag=           0 FMFlag=      100000 FMFlg1=           0
         NFxFlg=           0 DoJE=T BraDBF=F KetDBF=T FulRan=T
         Omega=  0.000000  0.000000  1.000000  0.000000  0.000000 ICntrl=     500 IOpCl=  0
         NMat0=    1 NMatS0=    1 NMatT0=    0 NMatD0=    1 NMtDS0=    0 NMtDT0=    0
         I1Cent=           4 NGrid=           0.
 Petite list used in FoFCou.
 Harris En= -2731.73456536474    
 Initial guess orbital symmetries:
       Occupied  (A) (A) (A) (A) (A) (A) (A) (A) (A) (A) (A) (A)
                 (A) (A) (A) (A) (A) (A)
       Virtual   (A) (A) (A) (A) (A) (A) (A) (A) (A) (A) (A) (A)
                 (A) (A) (A) (A) (A) (A) (A) (A) (A) (A) (A) (A)
                 (A) (A) (A) (A) (A) (A) (A) (A) (A) (A) (A) (A)
                 (A) (A) (A) (A) (A) (A) (A) (A) (A) (A) (A) (A)
                 (A) (A) (A) (A) (A) (A) (A) (A) (A) (A) (A) (A)
                 (A) (A) (A) (A) (A) (A) (A) (A) (A) (A) (A) (A)
                 (A) (A) (A) (A) (A) (A) (A) (A) (A) (A) (A) (A)
                 (A) (A) (A) (A) (A) (A) (A) (A) (A) (A) (A) (A)
                 (A) (A) (A) (A) (A) (A) (A) (A) (A) (A) (A) (A)
                 (A) (A) (A) (A) (A) (A) (A) (A) (A) (A) (A) (A)
                 (A) (A) (A) (A) (A) (A) (A) (A) (A) (A) (A) (A)
                 (A) (A) (A) (A) (A) (A) (A) (A) (A) (A) (A) (A)
                 (A) (A) (A) (A) (A) (A) (A) (A) (A) (A) (A) (A)
                 (A) (A) (A) (A) (A) (A) (A) (A) (A) (A) (A) (A)
                 (A) (A) (A) (A) (A) (A) (A) (A) (A) (A) (A)
 The electronic state of the initial guess is 1-A.
 Leave Link  401 at Mon May 11 17:06:29 2020, MaxMem= 1073741824 cpu:       3.6
 (Enter /home/matheus/.gaussian/g09/l502.exe)
 Closed shell SCF:
 Requested convergence on RMS density matrix=1.00D-08 within 128 cycles.
 Requested convergence on MAX density matrix=1.00D-06.
 Requested convergence on             energy=1.00D-06.
 No special actions if energy rises.
 Using DIIS extrapolation, IDIIS=  1040.
 Integral symmetry usage will be decided dynamically.
       126823 words used for storage of precomputed grid.
 IEnd=      305770 IEndB=      305770 NGot=  1073741824 MDV=  1073505365
 LenX=  1073505365 LenY=  1073452483
 Fock matrices will be formed incrementally for  20 cycles.

 Cycle   1  Pass 1  IDiag  1:
 FoFJK:  IHMeth= 1 ICntrl=     0 DoSepK=T KAlg= 1 I1Cent= 0 FoldK=F
 FoFCou: FMM=F IPFlag=           0 FMFlag=      100000 FMFlg1=           0
         NFxFlg=           0 DoJE=T BraDBF=F KetDBF=F FulRan=T
         Omega=  0.000000  0.000000  1.000000  0.000000  0.000000 ICntrl=     500 IOpCl=  0
         NMat0=    1 NMatS0=    1 NMatT0=    0 NMatD0=    1 NMtDS0=    0 NMtDT0=    0
         I1Cent=           0 NGrid=           0.
 Symmetry not used in FoFCou.
 E= -2752.71037054643    
 DIIS: error= 4.93D-02 at cycle   1 NSaved=   1.
 NSaved= 1 IEnMin= 1 EnMin= -2752.71037054643     IErMin= 1 ErrMin= 4.93D-02
 ErrMax= 4.93D-02 EMaxC= 1.00D-01 BMatC= 1.18D+00 BMatP= 1.18D+00
 IDIUse=3 WtCom= 5.07D-01 WtEn= 4.93D-01
 Coeff-Com:  0.100D+01
 Coeff-En:   0.100D+01
 Coeff:      0.100D+01
 Gap=     0.767 Goal=   None    Shift=    0.000
 GapD=    0.767 DampG=2.000 DampE=0.500 DampFc=1.0000 IDamp=-1.
 RMSDP=4.98D-03 MaxDP=2.25D-01              OVMax= 3.36D-01

 Cycle   2  Pass 1  IDiag  1:
 RMSU=  3.44D-03    CP:  1.05D+00
 FoFJK:  IHMeth= 1 ICntrl=     0 DoSepK=T KAlg= 1 I1Cent= 0 FoldK=F
 E= -2753.27699387157     Delta-E=       -0.566623325144 Rises=F Damp=F
 DIIS: error= 3.35D-02 at cycle   2 NSaved=   2.
 NSaved= 2 IEnMin= 2 EnMin= -2753.27699387157     IErMin= 2 ErrMin= 3.35D-02
 ErrMax= 3.35D-02 EMaxC= 1.00D-01 BMatC= 3.64D-01 BMatP= 1.18D+00
 IDIUse=3 WtCom= 6.65D-01 WtEn= 3.35D-01
 Coeff-Com:  0.351D+00 0.649D+00
 Coeff-En:   0.000D+00 0.100D+01
 Coeff:      0.234D+00 0.766D+00
 Gap=     0.597 Goal=   None    Shift=    0.000
 RMSDP=2.27D-03 MaxDP=1.36D-01 DE=-5.67D-01 OVMax= 7.55D-02

 Cycle   3  Pass 1  IDiag  1:
 RMSU=  8.79D-04    CP:  1.03D+00  6.19D-01
 FoFJK:  IHMeth= 1 ICntrl=     0 DoSepK=T KAlg= 1 I1Cent= 0 FoldK=F
 E= -2753.40680902414     Delta-E=       -0.129815152566 Rises=F Damp=F
 DIIS: error= 4.60D-03 at cycle   3 NSaved=   3.
 NSaved= 3 IEnMin= 3 EnMin= -2753.40680902414     IErMin= 3 ErrMin= 4.60D-03
 ErrMax= 4.60D-03 EMaxC= 1.00D-01 BMatC= 9.44D-03 BMatP= 3.64D-01
 IDIUse=3 WtCom= 9.54D-01 WtEn= 4.60D-02
 Coeff-Com: -0.102D-01 0.115D+00 0.895D+00
 Coeff-En:   0.000D+00 0.000D+00 0.100D+01
 Coeff:     -0.975D-02 0.110D+00 0.900D+00
 Gap=     0.574 Goal=   None    Shift=    0.000
 RMSDP=3.84D-04 MaxDP=1.93D-02 DE=-1.30D-01 OVMax= 1.12D-02

 Cycle   4  Pass 1  IDiag  1:
 RMSU=  2.29D-04    CP:  1.03D+00  6.58D-01  9.55D-01
 FoFJK:  IHMeth= 1 ICntrl=     0 DoSepK=T KAlg= 1 I1Cent= 0 FoldK=F
 E= -2753.40946328077     Delta-E=       -0.002654256629 Rises=F Damp=F
 DIIS: error= 2.65D-04 at cycle   4 NSaved=   4.
 NSaved= 4 IEnMin= 4 EnMin= -2753.40946328077     IErMin= 4 ErrMin= 2.65D-04
 ErrMax= 2.65D-04 EMaxC= 1.00D-01 BMatC= 3.05D-05 BMatP= 9.44D-03
 IDIUse=3 WtCom= 9.97D-01 WtEn= 2.65D-03
 Coeff-Com: -0.685D-02-0.516D-02 0.351D-02 0.101D+01
 Coeff-En:   0.000D+00 0.000D+00 0.000D+00 0.100D+01
 Coeff:     -0.683D-02-0.515D-02 0.350D-02 0.101D+01
 Gap=     0.580 Goal=   None    Shift=    0.000
 RMSDP=4.97D-05 MaxDP=2.21D-03 DE=-2.65D-03 OVMax= 3.42D-03

 Cycle   5  Pass 1  IDiag  1:
 RMSU=  2.13D-05    CP:  1.03D+00  6.61D-01  9.78D-01  1.07D+00
 FoFJK:  IHMeth= 1 ICntrl=     0 DoSepK=T KAlg= 1 I1Cent= 0 FoldK=F
 E= -2753.40952112766     Delta-E=       -0.000057846891 Rises=F Damp=F
 DIIS: error= 4.00D-05 at cycle   5 NSaved=   5.
 NSaved= 5 IEnMin= 5 EnMin= -2753.40952112766     IErMin= 5 ErrMin= 4.00D-05
 ErrMax= 4.00D-05 EMaxC= 1.00D-01 BMatC= 5.00D-07 BMatP= 3.05D-05
 IDIUse=1 WtCom= 1.00D+00 WtEn= 0.00D+00
 Coeff-Com: -0.909D-04-0.129D-02 0.614D-03-0.166D+00 0.117D+01
 Coeff:     -0.909D-04-0.129D-02 0.614D-03-0.166D+00 0.117D+01
 Gap=     0.580 Goal=   None    Shift=    0.000
 RMSDP=1.06D-05 MaxDP=4.37D-04 DE=-5.78D-05 OVMax= 6.34D-04

 Cycle   6  Pass 1  IDiag  1:
 RMSU=  1.02D-06    CP:  1.03D+00  6.61D-01  9.82D-01  1.09D+00  1.20D+00
 FoFJK:  IHMeth= 1 ICntrl=     0 DoSepK=T KAlg= 1 I1Cent= 0 FoldK=F
 E= -2753.40952254134     Delta-E=       -0.000001413680 Rises=F Damp=F
 DIIS: error= 1.65D-06 at cycle   6 NSaved=   6.
 NSaved= 6 IEnMin= 6 EnMin= -2753.40952254134     IErMin= 6 ErrMin= 1.65D-06
 ErrMax= 1.65D-06 EMaxC= 1.00D-01 BMatC= 1.02D-09 BMatP= 5.00D-07
 IDIUse=1 WtCom= 1.00D+00 WtEn= 0.00D+00
 Coeff-Com:  0.249D-04 0.993D-04-0.308D-03 0.122D-01-0.117D+00 0.110D+01
 Coeff:      0.249D-04 0.993D-04-0.308D-03 0.122D-01-0.117D+00 0.110D+01
 Gap=     0.580 Goal=   None    Shift=    0.000
 RMSDP=5.44D-07 MaxDP=2.37D-05 DE=-1.41D-06 OVMax= 2.40D-05

 Cycle   7  Pass 1  IDiag  1:
 RMSU=  6.26D-08    CP:  1.03D+00  6.61D-01  9.82D-01  1.09D+00  1.21D+00
                    CP:  1.13D+00
 FoFJK:  IHMeth= 1 ICntrl=     0 DoSepK=T KAlg= 1 I1Cent= 0 FoldK=F
 E= -2753.40952254212     Delta-E=       -0.000000000777 Rises=F Damp=F
 DIIS: error= 1.44D-07 at cycle   7 NSaved=   7.
 NSaved= 7 IEnMin= 7 EnMin= -2753.40952254212     IErMin= 7 ErrMin= 1.44D-07
 ErrMax= 1.44D-07 EMaxC= 1.00D-01 BMatC= 1.09D-11 BMatP= 1.02D-09
 IDIUse=1 WtCom= 1.00D+00 WtEn= 0.00D+00
 Coeff-Com:  0.283D-05 0.302D-05-0.307D-04 0.666D-03-0.332D-02-0.147D-01
 Coeff-Com:  0.102D+01
 Coeff:      0.283D-05 0.302D-05-0.307D-04 0.666D-03-0.332D-02-0.147D-01
 Coeff:      0.102D+01
 Gap=     0.580 Goal=   None    Shift=    0.000
 RMSDP=2.36D-08 MaxDP=1.03D-06 DE=-7.77D-10 OVMax= 1.29D-06

 Cycle   8  Pass 1  IDiag  1:
 RMSU=  9.45D-09    CP:  1.03D+00  6.61D-01  9.82D-01  1.09D+00  1.21D+00
                    CP:  1.14D+00  1.14D+00
 FoFJK:  IHMeth= 1 ICntrl=     0 DoSepK=T KAlg= 1 I1Cent= 0 FoldK=F
 E= -2753.40952254219     Delta-E=       -0.000000000075 Rises=F Damp=F
 DIIS: error= 4.82D-08 at cycle   8 NSaved=   8.
 NSaved= 8 IEnMin= 8 EnMin= -2753.40952254219     IErMin= 8 ErrMin= 4.82D-08
 ErrMax= 4.82D-08 EMaxC= 1.00D-01 BMatC= 4.24D-13 BMatP= 1.09D-11
 IDIUse=1 WtCom= 1.00D+00 WtEn= 0.00D+00
 Coeff-Com:  0.870D-07-0.185D-05 0.157D-05-0.206D-03 0.236D-02-0.275D-01
 Coeff-Com:  0.113D+00 0.912D+00
 Coeff:      0.870D-07-0.185D-05 0.157D-05-0.206D-03 0.236D-02-0.275D-01
 Coeff:      0.113D+00 0.912D+00
 Gap=     0.580 Goal=   None    Shift=    0.000
 RMSDP=4.73D-09 MaxDP=1.53D-07 DE=-7.55D-11 OVMax= 3.24D-07

 SCF Done:  E(RLC-B+HF-LYP) =  -2753.40952254     A.U. after    8 cycles
             Convg  =    0.4733D-08             -V/T =  2.0014
 KE= 2.749634933762D+03 PE=-6.579422509422D+03 EE= 1.076378053118D+03
 Leave Link  502 at Mon May 11 17:06:52 2020, MaxMem= 1073741824 cpu:     185.1
 (Enter /home/matheus/.gaussian/g09/l601.exe)
 Copying SCF densities to generalized density rwf, IOpCl= 0 IROHF=0.

 **********************************************************************

            Population analysis using the SCF density.

 **********************************************************************

 Orbital symmetries:
       Occupied  (A) (A) (A) (A) (A) (A) (A) (A) (A) (A) (A) (A)
                 (A) (A) (A) (A) (A) (A)
       Virtual   (A) (A) (A) (A) (A) (A) (A) (A) (A) (A) (A) (A)
                 (A) (A) (A) (A) (A) (A) (A) (A) (A) (A) (A) (A)
                 (A) (A) (A) (A) (A) (A) (A) (A) (A) (A) (A) (A)
                 (A) (A) (A) (A) (A) (A) (A) (A) (A) (A) (A) (A)
                 (A) (A) (A) (A) (A) (A) (A) (A) (A) (A) (A) (A)
                 (A) (A) (A) (A) (A) (A) (A) (A) (A) (A) (A) (A)
                 (A) (A) (A) (A) (A) (A) (A) (A) (A) (A) (A) (A)
                 (A) (A) (A) (A) (A) (A) (A) (A) (A) (A) (A) (A)
                 (A) (A) (A) (A) (A) (A) (A) (A) (A) (A) (A) (A)
                 (A) (A) (A) (A) (A) (A) (A) (A) (A) (A) (A) (A)
                 (A) (A) (A) (A) (A) (A) (A) (A) (A) (A) (A) (A)
                 (A) (A) (A) (A) (A) (A) (A) (A) (A) (A) (A) (A)
                 (A) (A) (A) (A) (A) (A) (A) (A) (A) (A) (A) (A)
                 (A) (A) (A) (A) (A) (A) (A) (A) (A) (A) (A) (A)
                 (A) (A) (A) (A) (A) (A) (A) (A) (A) (A) (A)
 The electronic state is 1-A.
 Alpha  occ. eigenvalues -- -511.65511 -67.17993 -60.85190 -60.85187 -60.85186
 Alpha  occ. eigenvalues --  -10.08107  -7.79670  -7.79669  -7.79669  -3.62633
 Alpha  occ. eigenvalues --   -3.62633  -3.62633  -3.62632  -3.62632  -1.17384
 Alpha  occ. eigenvalues --   -0.55371  -0.55367  -0.55365
 Alpha virt. eigenvalues --    0.02586   0.04664   0.07789   0.09291   0.10220
 Alpha virt. eigenvalues --    0.11705   0.12630   0.14042   0.16120   0.16675
 Alpha virt. eigenvalues --    0.17506   0.19195   0.20604   0.25993   0.26929
 Alpha virt. eigenvalues --    0.27552   0.28263   0.33019   0.33974   0.35651
 Alpha virt. eigenvalues --    0.36004   0.36793   0.37791   0.39375   0.41579
 Alpha virt. eigenvalues --    0.43025   0.43625   0.54731   0.55798   0.58967
 Alpha virt. eigenvalues --    0.61153   0.65168   0.67497   0.68770   0.70543
 Alpha virt. eigenvalues --    0.75606   0.76080   0.77915   0.79478   0.80550
 Alpha virt. eigenvalues --    0.82434   0.82599   0.85457   0.85707   0.86415
 Alpha virt. eigenvalues --    0.87813   0.88932   0.89573   0.93929   0.95382
 Alpha virt. eigenvalues --    0.98800   1.00828   1.02536   1.04392   1.06519
 Alpha virt. eigenvalues --    1.08140   1.11839   1.12338   1.13908   1.15883
 Alpha virt. eigenvalues --    1.16665   1.20446   1.22581   1.27099   1.28418
 Alpha virt. eigenvalues --    1.34592   1.36170   1.43270   1.46540   1.48735
 Alpha virt. eigenvalues --    1.59364   1.63188   1.70384   1.75008   1.76487
 Alpha virt. eigenvalues --    1.82469   1.85924   1.87435   1.89651   2.24170
 Alpha virt. eigenvalues --    2.29458   2.31687   2.34371   2.35094   2.37004
 Alpha virt. eigenvalues --    2.37657   2.42311   2.45024   2.46156   2.47413
 Alpha virt. eigenvalues --    2.48066   2.52338   2.52897   2.54647   2.56102
 Alpha virt. eigenvalues --    2.58790   2.60229   2.62342   2.63761   2.64034
 Alpha virt. eigenvalues --    2.66238   2.66509   2.70315   2.72347   2.73087
 Alpha virt. eigenvalues --    2.76400   2.78208   2.85028   2.87808   2.88951
 Alpha virt. eigenvalues --    2.93579   3.02633   3.07514   3.11201   3.14870
 Alpha virt. eigenvalues --    3.23541   3.27462   3.27870   3.35523   3.52689
 Alpha virt. eigenvalues --    3.59186   3.63961   3.84372   3.86775   4.02770
 Alpha virt. eigenvalues --    4.42751   4.44005   4.55397   4.59875   4.61755
 Alpha virt. eigenvalues --    4.73808   4.89986   4.90445   4.93792   5.04520
 Alpha virt. eigenvalues --    5.11631   5.14164   5.58633   5.66338   5.85386
 Alpha virt. eigenvalues --    5.87281   5.94195   6.20986   6.83421   6.93643
 Alpha virt. eigenvalues --    7.25626   7.41667   7.59788   7.64892   7.73803
 Alpha virt. eigenvalues --    7.78435   8.08473   8.09230   8.16178   8.24775
 Alpha virt. eigenvalues --    8.33160   8.37205   8.68157   8.89280   9.63529
 Alpha virt. eigenvalues --    9.70124   9.76391   9.83237   9.95247  10.05473
 Alpha virt. eigenvalues --   10.17197  10.20182  10.49024  10.92622  11.42019
 Alpha virt. eigenvalues --   11.55808  11.61012  12.02483  12.12927  13.21112
 Alpha virt. eigenvalues --   13.68526  14.52511  62.93358  64.51676
          Condensed to atoms (all electrons):
              1          2          3          4          5
     1  O    0.003693  -0.003349  -0.001693   0.001736  -0.009753
     2  O   -0.003349   0.007550   0.001264  -0.004538  -0.004899
     3  H   -0.001693   0.001264   0.000971  -0.000556   0.001265
     4  H    0.001736  -0.004538  -0.000556   0.004283  -0.021494
     5  Kr  -0.009753  -0.004899   0.001265  -0.021494  36.067539
 Mulliken atomic charges:
              1
     1  O    0.009367
     2  O    0.003972
     3  H   -0.001250
     4  H    0.020569
     5  Kr  -0.032657
 Sum of Mulliken atomic charges =   0.00000
 Mulliken charges with hydrogens summed into heavy atoms:
              1
     1  O    0.008117
     2  O    0.024541
     5  Kr  -0.032657
 Sum of Mulliken charges with hydrogens summed into heavy atoms =   0.00000
          Condensed to fragments (all electrons):
     1       0.032657
     2      -0.032657
 Electronic spatial extent (au):  <R**2>=            167.6879
 Charge=              0.0000 electrons
 Dipole moment (field-independent basis, Debye):
    X=              0.0017    Y=              0.0008    Z=              0.0000  Tot=              0.0018
 Quadrupole moment (field-independent basis, Debye-Ang):
   XX=            -17.5645   YY=            -17.5735   ZZ=            -17.5805
   XY=              0.0048   XZ=              0.0000   YZ=              0.0001
 Traceless Quadrupole moment (field-independent basis, Debye-Ang):
   XX=              0.0083   YY=             -0.0007   ZZ=             -0.0076
   XY=              0.0048   XZ=              0.0000   YZ=              0.0001
 Octapole moment (field-independent basis, Debye-Ang**2):
  XXX=             52.6717  YYY=              0.9971  ZZZ=             -0.0537  XYY=             17.5682
  XXY=              0.3205  XXZ=             -0.0182  XZZ=             17.5724  YZZ=              0.3327
  YYZ=             -0.0177  XYZ=             -0.0001
 Hexadecapole moment (field-independent basis, Debye-Ang**3):
 XXXX=           -123.3595 YYYY=            -18.1130 ZZZZ=            -18.0997 XXXY=             -0.9670
 XXXZ=              0.0543 YYYX=             -0.9780 YYYZ=              0.0008 ZZZX=              0.0538
 ZZZY=              0.0013 XXYY=            -23.5871 XXZZ=            -23.5882 YYZZ=             -6.0321
 XXYZ=              0.0004 YYXZ=              0.0180 ZZXY=             -0.3251
 N-N= 0.000000000000D+00 E-N=-6.579422502189D+03  KE= 2.749634933762D+03
 No NMR shielding tensors so no spin-rotation constants.
 Leave Link  601 at Mon May 11 17:06:53 2020, MaxMem= 1073741824 cpu:       0.7
 (Enter /home/matheus/.gaussian/g09/l122.exe)
 Counterpoise: doing MCBS calculation for fragment   1
 Leave Link  122 at Mon May 11 17:06:53 2020, MaxMem= 1073741824 cpu:       0.0
 (Enter /home/matheus/.gaussian/g09/l301.exe)
 Basis read from rwf:  (5D, 7F)
 No pseudopotential information found on rwf file.
 There are   138 symmetry adapted basis functions of A   symmetry.
 Integral buffers will be    131072 words long.
 Raffenetti 2 integral format.
 Two-electron integral symmetry is turned on.
   138 basis functions,   198 primitive gaussians,   160 cartesian basis functions
     9 alpha electrons        9 beta electrons
       nuclear repulsion energy        36.6009457491 Hartrees.
 IExCor=10402 DFT=T Ex=LC-B+HF Corr=LYP ExCW=0 ScaHFX=  1.000000
[...]
 FoFJK:  IHMeth= 1 ICntrl=     0 DoSepK=T KAlg= 1 I1Cent= 0 FoldK=F
 E= -2753.40937625511     Delta-E=       -0.000000719955 Rises=F Damp=F
 DIIS: error= 4.01D-06 at cycle   2 NSaved=   2.
 NSaved= 2 IEnMin= 2 EnMin= -2753.40937625511     IErMin= 2 ErrMin= 4.01D-06
 ErrMax= 4.01D-06 EMaxC= 1.00D-01 BMatC= 4.69D-09 BMatP= 6.12D-06
 IDIUse=1 WtCom= 1.00D+00 WtEn= 0.00D+00
 Coeff-Com: -0.863D-02 0.101D+01
 Coeff:     -0.863D-02 0.101D+01
 Gap=     0.580 Goal=   None    Shift=    0.000
 RMSDP=1.94D-06 MaxDP=7.42D-05 DE=-7.20D-07 OVMax= 5.21D-05

 Cycle   3  Pass 1  IDiag  1:
 RMSU=  6.23D-07    CP:  1.00D+00  1.08D+00
 FoFJK:  IHMeth= 1 ICntrl=     0 DoSepK=T KAlg= 1 I1Cent= 0 FoldK=F
 E= -2753.40937626372     Delta-E=       -0.000000008611 Rises=F Damp=F
 DIIS: error= 5.71D-07 at cycle   3 NSaved=   3.
 NSaved= 3 IEnMin= 3 EnMin= -2753.40937626372     IErMin= 3 ErrMin= 5.71D-07
 ErrMax= 5.71D-07 EMaxC= 1.00D-01 BMatC= 1.11D-10 BMatP= 4.69D-09
 IDIUse=1 WtCom= 1.00D+00 WtEn= 0.00D+00
 Coeff-Com:  0.493D-03-0.140D+00 0.114D+01
 Coeff:      0.493D-03-0.140D+00 0.114D+01
 Gap=     0.580 Goal=   None    Shift=    0.000
 RMSDP=2.20D-07 MaxDP=7.47D-06 DE=-8.61D-09 OVMax= 1.04D-05

 Cycle   4  Pass 1  IDiag  1:
 RMSU=  6.17D-08    CP:  1.00D+00  1.08D+00  1.18D+00
 FoFJK:  IHMeth= 1 ICntrl=     0 DoSepK=T KAlg= 1 I1Cent= 0 FoldK=F
 E= -2753.40937626404     Delta-E=       -0.000000000323 Rises=F Damp=F
 DIIS: error= 2.23D-07 at cycle   4 NSaved=   4.
 NSaved= 4 IEnMin= 4 EnMin= -2753.40937626404     IErMin= 4 ErrMin= 2.23D-07
 ErrMax= 2.23D-07 EMaxC= 1.00D-01 BMatC= 4.72D-12 BMatP= 1.11D-10
 IDIUse=1 WtCom= 1.00D+00 WtEn= 0.00D+00
 Coeff-Com:  0.164D-03-0.305D-01 0.167D+00 0.863D+00
 Coeff:      0.164D-03-0.305D-01 0.167D+00 0.863D+00
 Gap=     0.580 Goal=   None    Shift=    0.000
 RMSDP=2.01D-08 MaxDP=1.06D-06 DE=-3.23D-10 OVMax= 8.29D-07

 Cycle   5  Pass 1  IDiag  1:
 RMSU=  6.51D-09    CP:  1.00D+00  1.08D+00  1.19D+00  1.15D+00
 FoFJK:  IHMeth= 1 ICntrl=     0 DoSepK=T KAlg= 1 I1Cent= 0 FoldK=F
 E= -2753.40937626406     Delta-E=       -0.000000000019 Rises=F Damp=F
 DIIS: error= 5.47D-08 at cycle   5 NSaved=   5.
 NSaved= 5 IEnMin= 5 EnMin= -2753.40937626406     IErMin= 5 ErrMin= 5.47D-08
 ErrMax= 5.47D-08 EMaxC= 1.00D-01 BMatC= 3.61D-13 BMatP= 4.72D-12
 IDIUse=1 WtCom= 1.00D+00 WtEn= 0.00D+00
 Coeff-Com: -0.341D-04 0.948D-02-0.789D-01 0.281D-01 0.104D+01
 Coeff:     -0.341D-04 0.948D-02-0.789D-01 0.281D-01 0.104D+01
 Gap=     0.580 Goal=   None    Shift=    0.000
 RMSDP=8.06D-09 MaxDP=4.63D-07 DE=-1.86D-11 OVMax= 4.32D-07

 SCF Done:  E(RLC-B+HF-LYP) =  -2753.40937626     A.U. after    5 cycles
             Convg  =    0.8059D-08             -V/T =  2.0014
 KE= 2.749687270490D+03 PE=-6.579480052921D+03 EE= 1.076383406167D+03
 Leave Link  502 at Mon May 11 17:27:20 2020, MaxMem= 1073741824 cpu:      86.3
 (Enter /home/matheus/.gaussian/g09/l122.exe)
 Restoring MOs from calculation   4 to rwf.
 Counterpoise: doing MCBS calculation for fragment   1
 Leave Link  122 at Mon May 11 17:27:20 2020, MaxMem= 1073741824 cpu:       0.0
 (Enter /home/matheus/.gaussian/g09/l301.exe)
 Basis read from rwf:  (5D, 7F)
 No pseudopotential information found on rwf file.
 There are   138 symmetry adapted basis functions of A   symmetry.
 Integral buffers will be    131072 words long.
 Raffenetti 2 integral format.
 Two-electron integral symmetry is turned on.
   138 basis functions,   198 primitive gaussians,   160 cartesian basis functions
     9 alpha electrons        9 beta electrons
       nuclear repulsion energy        36.6009457491 Hartrees.
 IExCor=10402 DFT=T Ex=LC-B+HF Corr=LYP ExCW=0 ScaHFX=  1.000000
 ScaDFX=  1.000000  1.000000  1.000000  1.000000 ScalE2=  1.000000  1.000000
 IRadAn=      5 IRanWt=     -1 IRanGd=            0 ICorTp=0
  HFx wShort=  0.000000 wLong=  1.350000 cFull=  0.000000 cShort=  0.000000 cLong=  1.000000
  DFx wShort=  0.000000 wLong=  1.350000 cFull=  0.000000 cShort=  0.000000 cLong=  1.000000
 NAtoms=    5 NActive=    4 NUniq=    4 SFac= 1.00D+00 NAtFMM=   60 NAOKFM=F Big=F
 No density basis found on file   718.
 Leave Link  301 at Mon May 11 17:27:20 2020, MaxMem= 1073741824 cpu:       0.2
 (Enter /home/matheus/.gaussian/g09/l302.exe)
 NPDir=0 NMtPBC=     1 NCelOv=     1 NCel=       1 NClECP=     1 NCelD=      1
         NCelK=      1 NCelE2=     1 NClLst=     1 CellRange=     0.0.
 One-electron integrals computed using PRISM.
 NBasis=   138 RedAO= T  NBF=   138
 NBsUse=   138 1.00D-06 NBFU=   138
 Precomputing XC quadrature grid using
 IXCGrd= 2 IRadAn=           5 IRanWt=          -1 IRanGd=           0 AccXCQ= 0.00D+00.
 NRdTot=     344 NPtTot=       92556 NUsed=       95038 NTot=       95070
 NSgBfM=   160   160   160   160   160 NAtAll=     4     4.
 Leave Link  302 at Mon May 11 17:27:20 2020, MaxMem= 1073741824 cpu:       0.8
 (Enter /home/matheus/.gaussian/g09/l303.exe)
 DipDrv:  MaxL=1.
 Leave Link  303 at Mon May 11 17:27:20 2020, MaxMem= 1073741824 cpu:       0.1
 (Enter /home/matheus/.gaussian/g09/l401.exe)
 Initial guess read from the read-write file.
 Guess basis will be translated and rotated to current coordinates.
 Initial guess orbital symmetries:
       Occupied  (A) (A) (A) (A) (A) (A) (A) (A) (A)
       Virtual   (A) (A) (A) (A) (A) (A) (A) (A) (A) (A) (A) (A)
                 (A) (A) (A) (A) (A) (A) (A) (A) (A) (A) (A) (A)
                 (A) (A) (A) (A) (A) (A) (A) (A) (A) (A) (A) (A)
                 (A) (A) (A) (A) (A) (A) (A) (A) (A) (A) (A) (A)
                 (A) (A) (A) (A) (A) (A) (A) (A) (A) (A) (A) (A)
                 (A) (A) (A) (A) (A) (A) (A) (A) (A) (A) (A) (A)
                 (A) (A) (A) (A) (A) (A) (A) (A) (A) (A) (A) (A)
                 (A) (A) (A) (A) (A) (A) (A) (A) (A) (A) (A) (A)
                 (A) (A) (A) (A) (A) (A) (A) (A) (A) (A) (A) (A)
                 (A) (A) (A) (A) (A) (A) (A) (A) (A) (A) (A) (A)
                 (A) (A) (A) (A) (A) (A) (A) (A) (A)
 The electronic state of the initial guess is 1-A.
 Generating alternative initial guess.
 Harris functional with IExCor=10402 diagonalized for initial guess.
 ExpMin= 2.53D-02 ExpMax= 1.53D+04 ExpMxC= 5.22D+02 IAcc=3 IRadAn=         5 AccDes= 0.00D+00
 HarFok:  IExCor=10402 AccDes= 0.00D+00 IRadAn=         5 IDoV= 1
 ScaDFX=  1.000000  1.000000  1.000000  1.000000
 FoFCou: FMM=F IPFlag=           0 FMFlag=      100000 FMFlg1=           0
         NFxFlg=           0 DoJE=T BraDBF=F KetDBF=T FulRan=T
         Omega=  0.000000  0.000000  1.000000  0.000000  0.000000 ICntrl=     500 IOpCl=  0
         NMat0=    1 NMatS0=    1 NMatT0=    0 NMatD0=    1 NMtDS0=    0 NMtDT0=    0
         I1Cent=           4 NGrid=           0.
 Petite list used in FoFCou.
 Harris En= -143.231438447688    
 Leave Link  401 at Mon May 11 17:27:20 2020, MaxMem= 1073741824 cpu:       2.2
 (Enter /home/matheus/.gaussian/g09/l502.exe)
 Closed shell SCF:
 Requested convergence on RMS density matrix=1.00D-08 within 128 cycles.
 Requested convergence on MAX density matrix=1.00D-06.
 Requested convergence on             energy=1.00D-06.
 No special actions if energy rises.
 Using DIIS extrapolation, IDIIS=  1040.
 Integral symmetry usage will be decided dynamically.
        94980 words used for storage of precomputed grid.
 IEnd=      192360 IEndB=      192360 NGot=  1073741824 MDV=  1073591865
 LenX=  1073591865 LenY=  1073565824
 Fock matrices will be formed incrementally for  20 cycles.

 Cycle   1  Pass 1  IDiag  1:
 FoFJK:  IHMeth= 1 ICntrl=     0 DoSepK=T KAlg= 1 I1Cent= 0 FoldK=F
 FoFCou: FMM=F IPFlag=           0 FMFlag=      100000 FMFlg1=           0
         NFxFlg=           0 DoJE=T BraDBF=F KetDBF=F FulRan=T
         Omega=  0.000000  0.000000  1.000000  0.000000  0.000000 ICntrl=     500 IOpCl=  0
         NMat0=    1 NMatS0=    1 NMatT0=    0 NMatD0=    1 NMtDS0=    0 NMtDT0=    0
         I1Cent=           0 NGrid=           0.
 Symmetry not used in FoFCou.
 E= -151.210687712390    
 DIIS: error= 2.46D-05 at cycle   1 NSaved=   1.
 NSaved= 1 IEnMin= 1 EnMin= -151.210687712390     IErMin= 1 ErrMin= 2.46D-05
 ErrMax= 2.46D-05 EMaxC= 1.00D-01 BMatC= 4.04D-08 BMatP= 4.04D-08
 IDIUse=1 WtCom= 1.00D+00 WtEn= 0.00D+00
 Coeff-Com:  0.100D+01
 Coeff:      0.100D+01
 Gap=     0.512 Goal=   None    Shift=    0.000
 RMSDP=9.50D-07 MaxDP=1.96D-05              OVMax= 7.72D-05

 Cycle   2  Pass 1  IDiag  1:
 RMSU=  6.72D-07    CP:  1.00D+00
 FoFJK:  IHMeth= 1 ICntrl=     0 DoSepK=T KAlg= 1 I1Cent= 0 FoldK=F
 E= -151.210687754211     Delta-E=       -0.000000041822 Rises=F Damp=F
 DIIS: error= 6.35D-06 at cycle   2 NSaved=   2.
 NSaved= 2 IEnMin= 2 EnMin= -151.210687754211     IErMin= 2 ErrMin= 6.35D-06
 ErrMax= 6.35D-06 EMaxC= 1.00D-01 BMatC= 2.58D-09 BMatP= 4.04D-08
 IDIUse=1 WtCom= 1.00D+00 WtEn= 0.00D+00
 Coeff-Com: -0.221D+00 0.122D+01
 Coeff:     -0.221D+00 0.122D+01
 Gap=     0.512 Goal=   None    Shift=    0.000
 RMSDP=4.10D-07 MaxDP=7.80D-06 DE=-4.18D-08 OVMax= 4.13D-05

 Cycle   3  Pass 1  IDiag  1:
 RMSU=  1.71D-07    CP:  1.00D+00  1.35D+00
 FoFJK:  IHMeth= 1 ICntrl=     0 DoSepK=T KAlg= 1 I1Cent= 0 FoldK=F
 E= -151.210687759792     Delta-E=       -0.000000005581 Rises=F Damp=F
 DIIS: error= 1.68D-06 at cycle   3 NSaved=   3.
 NSaved= 3 IEnMin= 3 EnMin= -151.210687759792     IErMin= 3 ErrMin= 1.68D-06
 ErrMax= 1.68D-06 EMaxC= 1.00D-01 BMatC= 2.03D-10 BMatP= 2.58D-09
 IDIUse=1 WtCom= 1.00D+00 WtEn= 0.00D+00
 Coeff-Com:  0.122D-01-0.261D+00 0.125D+01
 Coeff:      0.122D-01-0.261D+00 0.125D+01
 Gap=     0.512 Goal=   None    Shift=    0.000
 RMSDP=1.54D-07 MaxDP=3.50D-06 DE=-5.58D-09 OVMax= 1.64D-05

 Cycle   4  Pass 1  IDiag  1:
 RMSU=  3.84D-08    CP:  1.00D+00  1.44D+00  1.47D+00
 FoFJK:  IHMeth= 1 ICntrl=     0 DoSepK=T KAlg= 1 I1Cent= 0 FoldK=F
 E= -151.210687760311     Delta-E=       -0.000000000518 Rises=F Damp=F
 DIIS: error= 5.76D-07 at cycle   4 NSaved=   4.
 NSaved= 4 IEnMin= 4 EnMin= -151.210687760311     IErMin= 4 ErrMin= 5.76D-07
 ErrMax= 5.76D-07 EMaxC= 1.00D-01 BMatC= 3.48D-11 BMatP= 2.03D-10
 IDIUse=1 WtCom= 1.00D+00 WtEn= 0.00D+00
 Coeff-Com:  0.235D-01-0.185D+00 0.302D+00 0.860D+00
 Coeff:      0.235D-01-0.185D+00 0.302D+00 0.860D+00
 Gap=     0.512 Goal=   None    Shift=    0.000
 RMSDP=4.53D-08 MaxDP=1.28D-06 DE=-5.18D-10 OVMax= 4.41D-06

 Cycle   5  Pass 1  IDiag  1:
 RMSU=  1.46D-08    CP:  1.00D+00  1.46D+00  1.62D+00  9.99D-01
 FoFJK:  IHMeth= 1 ICntrl=     0 DoSepK=T KAlg= 1 I1Cent= 0 FoldK=F
 E= -151.210687760394     Delta-E=       -0.000000000083 Rises=F Damp=F
 DIIS: error= 1.61D-07 at cycle   5 NSaved=   5.
 NSaved= 5 IEnMin= 5 EnMin= -151.210687760394     IErMin= 5 ErrMin= 1.61D-07
 ErrMax= 1.61D-07 EMaxC= 1.00D-01 BMatC= 2.33D-12 BMatP= 3.48D-11
 IDIUse=1 WtCom= 1.00D+00 WtEn= 0.00D+00
 Coeff-Com: -0.230D-02 0.370D-01-0.156D+00-0.198D-01 0.114D+01
 Coeff:     -0.230D-02 0.370D-01-0.156D+00-0.198D-01 0.114D+01
 Gap=     0.512 Goal=   None    Shift=    0.000
 RMSDP=1.58D-08 MaxDP=2.37D-07 DE=-8.34D-11 OVMax= 1.53D-06

 Cycle   6  Pass 1  IDiag  1:
 RMSU=  4.28D-09    CP:  1.00D+00  1.46D+00  1.66D+00  1.13D+00  1.31D+00
 FoFJK:  IHMeth= 1 ICntrl=     0 DoSepK=T KAlg= 1 I1Cent= 0 FoldK=F
 E= -151.210687760399     Delta-E=       -0.000000000005 Rises=F Damp=F
 DIIS: error= 3.58D-08 at cycle   6 NSaved=   6.
 NSaved= 6 IEnMin= 6 EnMin= -151.210687760399     IErMin= 6 ErrMin= 3.58D-08
 ErrMax= 3.58D-08 EMaxC= 1.00D-01 BMatC= 2.09D-13 BMatP= 2.33D-12
 IDIUse=1 WtCom= 1.00D+00 WtEn= 0.00D+00
 Coeff-Com: -0.141D-02 0.146D-01-0.400D-01-0.434D-01 0.186D+00 0.884D+00
 Coeff:     -0.141D-02 0.146D-01-0.400D-01-0.434D-01 0.186D+00 0.884D+00
 Gap=     0.512 Goal=   None    Shift=    0.000
 RMSDP=3.75D-09 MaxDP=8.76D-08 DE=-4.77D-12 OVMax= 2.62D-07

 SCF Done:  E(RLC-B+HF-LYP) =  -151.210687760     A.U. after    6 cycles
             Convg  =    0.3751D-08             -V/T =  2.0063
 KE= 1.502619479537D+02 PE=-4.315431121185D+02 EE= 9.346953065530D+01
 Leave Link  502 at Mon May 11 17:27:26 2020, MaxMem= 1073741824 cpu:      43.8
 (Enter /home/matheus/.gaussian/g09/l122.exe)
 Restoring MOs from calculation   5 to rwf.
 Counterpoise: doing MCBS calculation for fragment   2
 Leave Link  122 at Mon May 11 17:27:26 2020, MaxMem= 1073741824 cpu:       0.0
 (Enter /home/matheus/.gaussian/g09/l301.exe)
 Basis read from rwf:  (5D, 7F)
 No pseudopotential information found on rwf file.
 There are    59 symmetry adapted basis functions of A   symmetry.
 Integral buffers will be    131072 words long.
 Raffenetti 2 integral format.
 Two-electron integral symmetry is turned on.
    59 basis functions,   217 primitive gaussians,    69 cartesian basis functions
    18 alpha electrons       18 beta electrons
       nuclear repulsion energy         0.0000000000 Hartrees.
 IExCor=10402 DFT=T Ex=LC-B+HF Corr=LYP ExCW=0 ScaHFX=  1.000000
 ScaDFX=  1.000000  1.000000  1.000000  1.000000 ScalE2=  1.000000  1.000000
 IRadAn=      5 IRanWt=     -1 IRanGd=            0 ICorTp=0
  HFx wShort=  0.000000 wLong=  1.350000 cFull=  0.000000 cShort=  0.000000 cLong=  1.000000
  DFx wShort=  0.000000 wLong=  1.350000 cFull=  0.000000 cShort=  0.000000 cLong=  1.000000
 NAtoms=    5 NActive=    1 NUniq=    1 SFac= 1.00D+00 NAtFMM=   60 NAOKFM=F Big=F
 No density basis found on file   718.
 Leave Link  301 at Mon May 11 17:27:26 2020, MaxMem= 1073741824 cpu:       0.2
 (Enter /home/matheus/.gaussian/g09/l302.exe)
 NPDir=0 NMtPBC=     1 NCelOv=     1 NCel=       1 NClECP=     1 NCelD=      1
         NCelK=      1 NCelE2=     1 NClLst=     1 CellRange=     0.0.
 One-electron integrals computed using PRISM.
 NBasis=    59 RedAO= T  NBF=    59
 NBsUse=    59 1.00D-06 NBFU=    59
 Precomputing XC quadrature grid using
 IXCGrd= 2 IRadAn=           5 IRanWt=          -1 IRanGd=           0 AccXCQ= 0.00D+00.
 NRdTot=      81 NPtTot=       30352 NUsed=       30981 NTot=       31013
 NSgBfM=    69    69    69    69    69 NAtAll=     1     1.
 Leave Link  302 at Mon May 11 17:27:26 2020, MaxMem= 1073741824 cpu:       0.7
 (Enter /home/matheus/.gaussian/g09/l303.exe)
 DipDrv:  MaxL=1.
 Leave Link  303 at Mon May 11 17:27:26 2020, MaxMem= 1073741824 cpu:       0.2
 (Enter /home/matheus/.gaussian/g09/l401.exe)
 Initial guess read from the read-write file.
 Guess basis will be translated and rotated to current coordinates.
 Initial guess orbital symmetries:
       Occupied  (A) (A) (A) (A) (A) (A) (A) (A) (A) (A) (A) (A)
                 (A) (A) (A) (A) (A) (A)
       Virtual   (A) (A) (A) (A) (A) (A) (A) (A) (A) (A) (A) (A)
                 (A) (A) (A) (A) (A) (A) (A) (A) (A) (A) (A) (A)
                 (A) (A) (A) (A) (A) (A) (A) (A) (A) (A) (A) (A)
                 (A) (A) (A) (A) (A)
 The electronic state of the initial guess is 1-A.
 Generating alternative initial guess.
 Harris functional with IExCor=10402 diagonalized for initial guess.
 ExpMin= 4.00D-02 ExpMax= 1.17D+07 ExpMxC= 1.33D+04 IAcc=3 IRadAn=         5 AccDes= 0.00D+00
 HarFok:  IExCor=10402 AccDes= 0.00D+00 IRadAn=         5 IDoV= 1
 ScaDFX=  1.000000  1.000000  1.000000  1.000000
 FoFCou: FMM=F IPFlag=           0 FMFlag=      100000 FMFlg1=           0
         NFxFlg=           0 DoJE=T BraDBF=F KetDBF=T FulRan=T
         Omega=  0.000000  0.000000  1.000000  0.000000  0.000000 ICntrl=     500 IOpCl=  0
         NMat0=    1 NMatS0=    1 NMatT0=    0 NMatD0=    1 NMtDS0=    0 NMtDT0=    0
         I1Cent=           4 NGrid=           0.
 Petite list used in FoFCou.
 DSYEVD returned Info=         119 IAlg= 4 N=    59 NDim=    59 NE2=    18198841 trying DSYEV.
 Harris En= -2731.73388500824    
 Leave Link  401 at Mon May 11 17:27:26 2020, MaxMem= 1073741824 cpu:       1.0
 (Enter /home/matheus/.gaussian/g09/l502.exe)
 Closed shell SCF:
 Requested convergence on RMS density matrix=1.00D-08 within 128 cycles.
 Requested convergence on MAX density matrix=1.00D-06.
 Requested convergence on             energy=1.00D-06.
 No special actions if energy rises.
 Using DIIS extrapolation, IDIIS=  1040.
 Integral symmetry usage will be decided dynamically.
        30923 words used for storage of precomputed grid.
 IEnd=       64406 IEndB=       64406 NGot=  1073741824 MDV=  1073698889
 LenX=  1073698889 LenY=  1073693687
 Fock matrices will be formed incrementally for  20 cycles.

 Cycle   1  Pass 1  IDiag  1:
 FoFJK:  IHMeth= 1 ICntrl=     0 DoSepK=T KAlg= 1 I1Cent= 0 FoldK=F
 FoFCou: FMM=F IPFlag=           0 FMFlag=      100000 FMFlg1=           0
         NFxFlg=           0 DoJE=T BraDBF=F KetDBF=F FulRan=T
         Omega=  0.000000  0.000000  1.000000  0.000000  0.000000 ICntrl=     500 IOpCl=  0
         NMat0=    1 NMatS0=    1 NMatT0=    0 NMatD0=    1 NMtDS0=    0 NMtDT0=    0
         I1Cent=           0 NGrid=           0.
 Symmetry not used in FoFCou.
 E= -2753.40934852740    
 DIIS: error= 4.81D-14 at cycle   1 NSaved=   1.
 NSaved= 1 IEnMin= 1 EnMin= -2753.40934852740     IErMin= 1 ErrMin= 4.81D-14
 ErrMax= 4.81D-14 EMaxC= 1.00D-01 BMatC= 1.86D-25 BMatP= 1.86D-25
 IDIUse=1 WtCom= 1.00D+00 WtEn= 0.00D+00
 Coeff-Com:  0.100D+01
 Coeff:      0.100D+01
 Gap=     0.640 Goal=   None    Shift=    0.000
 DSYEVD returned Info=          89 IAlg= 4 N=    59 NDim=    59 NE2=    18198197 trying DSYEV.
 RMSDP=6.89D-15 MaxDP=9.71D-14              OVMax= 1.60D-13

 SCF Done:  E(RLC-B+HF-LYP) =  -2753.40934853     A.U. after    1 cycles
             Convg  =    0.6886D-14             -V/T =  2.0014
 KE= 2.749695852517D+03 PE=-6.579489077514D+03 EE= 1.076383876470D+03
 Leave Link  502 at Mon May 11 17:27:28 2020, MaxMem= 1073741824 cpu:      11.0
 (Enter /home/matheus/.gaussian/g09/l122.exe)
 Restoring MOs from calculation   1 to rwf.
 Counterpoise: corrected energy =   -2904.620094817799
 Counterpoise: BSSE energy =       0.000031641350
 Leave Link  122 at Mon May 11 17:27:28 2020, MaxMem= 1073741824 cpu:       0.0
 (Enter /home/matheus/.gaussian/g09/l108.exe)
 Scan completed.

 Summary of the potential surface scan:
   N      R1          SCF    
 ----  ---------  -----------
    1     3.0000  -2753.40935
    2     3.1000  -2753.40935
    3     3.2000  -2753.40935
    4     3.3000  -2753.40935
    5     3.4000  -2753.40935
    6     3.5000  -2753.40935
    7     3.6000  -2753.40935
    8     3.7000  -2753.40935
    9     3.8000  -2753.40935
   10     3.9000  -2753.40935
   11     4.0000  -2753.40935
   12     4.1000  -2753.40935
   13     4.2000  -2753.40935
   14     4.3000  -2753.40935
   15     4.4000  -2753.40935
   16     4.5000  -2753.40935
   17     4.6000  -2753.40935
   18     4.7000  -2753.40935
   19     4.8000  -2753.40935
   20     4.9000  -2753.40935
   21     5.0000  -2753.40935
 ----  ---------  -----------
  
 Leave Link  108 at Mon May 11 17:27:28 2020, MaxMem= 1073741824 cpu:       0.0
 (Enter /home/matheus/.gaussian/g09/l9999.exe)

 Test job not archived.
 1\1\GINC-REDGIANT\Scan\RLC-BLYP\Aug-CC-pVTZ\H2Kr1O2\MATHEUS\11-May-202
 0\1\\#p lc-blyp/aug-cc-PVTz iop(3/107=1350000000) iop(3/108=1350000000
 ) int=ultrafine counterpoise=2 Scan\\TCC\\0,1\O,0,0.,0.,0.725\O,0,0.,0
 .,-0.725\H,0,0.1595341571,-0.9047631646,1.0235104166\H,0,0.,0.91872059
 47,-1.0235104166\Kr,0,0.,R1,0.\\R1=3.,s,20,0.1\\Version=EM64L-G09RevC.
 01\State=1-A\HF=-2753.4093485,-2753.4093485,-2753.4093485,-2753.409348
 5,-2753.4093485,-2753.4093485,-2753.4093485,-2753.4093485,-2753.409348
 5,-2753.4093485,-2753.4093485,-2753.4093485,-2753.4093485,-2753.409348
 5,-2753.4093485,-2753.4093485,-2753.4093485,-2753.4093485,-2753.409348
 5,-2753.4093485,-2753.4093485\RMSD=5.461e-09,3.089e-10,7.451e-11,2.036
 e-11,7.197e-12,3.146e-12,1.448e-12,6.812e-13,3.279e-13,1.519e-13,6.799
 e-14,3.797e-14,2.127e-14,9.901e-15,9.179e-15,9.453e-15,4.652e-15,4.562
 e-15,7.526e-15,7.825e-15,6.886e-15\PG=C01 [X(H2Kr1O2)]\\@


 FIREWORKS ENDED
 AND SPECTATORS GONE AWAY....
 AH, HOW VAST AND DARK
                     SHIKI
 Job cpu time:  0 days  2 hours 58 minutes 18.3 seconds.
 File lengths (MBytes):  RWF=     33 Int=      0 D2E=      0 Chk=      8 Scr=      1
 Normal termination of Gaussian 09 at Mon May 11 17:27:28 2020.
