 Entering Gaussian System, Link 0=g09
 Input=/home/matheus/.tcc/Inputs/Inputs-lc-blyp/H2O2-Kr_8.com
 Output=/home/matheus/.tcc/Logs/Logs-lc-blyp/H2O2-Kr_8.log
 Initial command:
 /home/matheus/.gaussian/g09/l1.exe /home/matheus/.gaussian/g09/scratch/Gau-29258.inp -scrdir=/home/matheus/.gaussian/g09/scratch/
 Entering Link 1 = /home/matheus/.gaussian/g09/l1.exe PID=     29261.
  
 Copyright (c) 1988,1990,1992,1993,1995,1998,2003,2009,2011,
            Gaussian, Inc.  All Rights Reserved.
  
 This is part of the Gaussian(R) 09 program.  It is based on
 the Gaussian(R) 03 system (copyright 2003, Gaussian, Inc.),
 the Gaussian(R) 98 system (copyright 1998, Gaussian, Inc.),
 the Gaussian(R) 94 system (copyright 1995, Gaussian, Inc.),
 the Gaussian 92(TM) system (copyright 1992, Gaussian, Inc.),
 the Gaussian 90(TM) system (copyright 1990, Gaussian, Inc.),
 the Gaussian 88(TM) system (copyright 1988, Gaussian, Inc.),
 the Gaussian 86(TM) system (copyright 1986, Carnegie Mellon
 University), and the Gaussian 82(TM) system (copyright 1983,
 Carnegie Mellon University). Gaussian is a federally registered
 trademark of Gaussian, Inc.
  
 This software contains proprietary and confidential information,
 including trade secrets, belonging to Gaussian, Inc.
  
 This software is provided under written license and may be
 used, copied, transmitted, or stored only in accord with that
 written license.
  
 The following legend is applicable only to US Government
 contracts under FAR:
  
                    RESTRICTED RIGHTS LEGEND
  
 Use, reproduction and disclosure by the US Government is
 subject to restrictions as set forth in subparagraphs (a)
 and (c) of the Commercial Computer Software - Restricted
 Rights clause in FAR 52.227-19.
  
 Gaussian, Inc.
 340 Quinnipiac St., Bldg. 40, Wallingford CT 06492
  
  
 ---------------------------------------------------------------
 Warning -- This program may not be used in any manner that
 competes with the business of Gaussian, Inc. or will provide
 assistance to any competitor of Gaussian, Inc.  The licensee
 of this program is prohibited from giving any competitor of
 Gaussian, Inc. access to this program.  By using this program,
 the user acknowledges that Gaussian, Inc. is engaged in the
 business of creating and licensing software in the field of
 computational chemistry and represents and warrants to the
 licensee that it is not a competitor of Gaussian, Inc. and that
 it will not use this program in any manner prohibited above.
 ---------------------------------------------------------------
  

 Cite this work as:
 Gaussian 09, Revision C.01,
 M. J. Frisch, G. W. Trucks, H. B. Schlegel, G. E. Scuseria, 
 M. A. Robb, J. R. Cheeseman, G. Scalmani, V. Barone, B. Mennucci, 
 G. A. Petersson, H. Nakatsuji, M. Caricato, X. Li, H. P. Hratchian, 
 A. F. Izmaylov, J. Bloino, G. Zheng, J. L. Sonnenberg, M. Hada, 
 M. Ehara, K. Toyota, R. Fukuda, J. Hasegawa, M. Ishida, T. Nakajima, 
 Y. Honda, O. Kitao, H. Nakai, T. Vreven, J. A. Montgomery, Jr., 
 J. E. Peralta, F. Ogliaro, M. Bearpark, J. J. Heyd, E. Brothers, 
 K. N. Kudin, V. N. Staroverov, T. Keith, R. Kobayashi, J. Normand, 
 K. Raghavachari, A. Rendell, J. C. Burant, S. S. Iyengar, J. Tomasi, 
 M. Cossi, N. Rega, J. M. Millam, M. Klene, J. E. Knox, J. B. Cross, 
 V. Bakken, C. Adamo, J. Jaramillo, R. Gomperts, R. E. Stratmann, 
 O. Yazyev, A. J. Austin, R. Cammi, C. Pomelli, J. W. Ochterski, 
 R. L. Martin, K. Morokuma, V. G. Zakrzewski, G. A. Voth, 
 P. Salvador, J. J. Dannenberg, S. Dapprich, A. D. Daniels, 
 O. Farkas, J. B. Foresman, J. V. Ortiz, J. Cioslowski, 
 and D. J. Fox, Gaussian, Inc., Wallingford CT, 2010.
 
 ******************************************
 Gaussian 09:  EM64L-G09RevC.01 23-Sep-2011
                11-May-2020 
 ******************************************
 %mem=8GB
 %nproc=8
 Will use up to    8 processors via shared memory.
 ----------------------------------------------------------------------
 #p lc-blyp/aug-cc-PVTz iop(3/107=1350000000) iop(3/108=1350000000) int
 =ultrafine counterpoise=2 Scan
 ----------------------------------------------------------------------
 1/38=1,60=1,62=2/1,8;
 2/12=2,17=6,18=5,29=3,40=1/2;
 1/38=1,53=5172,62=2/22;
 3/5=16,6=1,7=10,11=2,16=1,25=1,30=1,74=1000402,75=-5,107=1350000000,108=1350000000/1,2,3;
 4//1;
 5/5=2,38=5/2;
 6/7=2,8=2,9=2,10=2,18=1,28=1/1;
 1/53=4052,62=2,63=1/22;
 3/5=7,6=11,7=10,11=2,16=1,25=1,30=1,74=1000402,75=-5,82=7,107=1350000000,108=1350000000/1,2,3;
 4//1;
 5/5=2,38=5/2;
 6/7=2,8=2,9=2,10=2,18=1,28=1/1;
 1/53=3042,62=2,63=2/22;
 3/5=7,6=11,7=10,11=2,16=1,25=1,30=1,74=1000402,75=-5,82=7,107=1350000000,108=1350000000/1,2,3;
 4//1;
 5/5=2,38=5/2;
 6/7=2,8=2,9=2,10=2,18=1,28=1/1;
 1/53=2032,62=2,63=3/22;
 3/5=7,6=11,7=10,11=2,16=1,25=1,30=1,74=1000402,75=-5,82=7,107=1350000000,108=1350000000/1,2,3;
 4//1;
 5/5=2,38=5/2;
 6/7=2,8=2,9=2,10=2,18=1,28=1/1;
 1/53=1022,62=2,63=4/22;
 3/5=7,6=11,7=10,11=2,16=1,25=1,30=1,74=1000402,75=-5,82=7,107=1350000000,108=1350000000/1,2,3;
 4//1;
 5/5=2,38=5/2;
 6/7=2,8=2,9=2,10=2,18=1,28=1/1;
 1/53=5014,62=2,63=5/22;
 1/60=1,62=2/8(1);
 99/9=1/99;
 2/29=3/2;
 1/53=5173,62=2/22;
 3/5=7,6=11,7=10,11=2,16=1,25=1,30=1,74=1000402,75=-5,82=7,107=1350000000,108=1350000000/1,2,3;
 4/5=5,16=3/1;
 5/5=2,38=5/2;
 1/53=4053,62=2,63=1/22;
 3/5=7,6=11,7=10,11=2,16=1,25=1,30=1,74=1000402,75=-5,82=7,107=1350000000,108=1350000000/1,2,3;
 4/5=5,16=3/1;
 5/5=2,38=5/2;
 1/53=3043,62=2,63=2/22;
 3/5=7,6=11,7=10,11=2,16=1,25=1,30=1,74=1000402,75=-5,82=7,107=1350000000,108=1350000000/1,2,3;
 4/5=5,16=3/1;
 5/5=2,38=5/2;
 1/53=2033,62=2,63=3/22;
 3/5=7,6=11,7=10,11=2,16=1,25=1,30=1,74=1000402,75=-5,82=7,107=1350000000,108=1350000000/1,2,3;
 4/5=5,16=3/1;
 5/5=2,38=5/2;
 1/53=1024,62=2,63=4/22;
 3/5=7,6=11,7=10,11=2,16=1,25=1,30=1,74=1000402,75=-5,82=7,107=1350000000,108=1350000000/1,2,3;
 4/5=5,16=3/1;
 5/5=2,38=5/2;
 1/53=5014,62=2,63=5/22;
 1/60=1,62=2/8(-22);
 99/9=1/99;
 Leave Link    1 at Mon May 11 13:21:08 2020, MaxMem= 1073741824 cpu:       0.1
 (Enter /home/matheus/.gaussian/g09/l101.exe)
 ---
 TCC
 ---
 Charge =  0 Multiplicity = 1 in supermolecule
 Charge =  0 Multiplicity = 1 in fragment  1.
 Charge =  0 Multiplicity = 1 in fragment  2.
 Symbolic Z-Matrix:
 O(Fragment=1)         0.        0.        0.725 
 O(Fragment=1)         0.        0.       -0.725 
 H(Fragment=1)         0.90476   0.15953   1.02351 
 H(Fragment=1)         0.        0.91872  -1.02351 
 Kr(Fragment=2)        0.       R1        0. 
       Variables:
  R1                    3.     Scan 20    0.1    
 
 NAtoms=      5 NQM=        0 NQMF=       0 NMMI=      5 NMMIF=      0
                NMic=       0 NMicF=      0.
                    Isotopes and Nuclear Properties:
 (Nuclear quadrupole moments (NQMom) in fm**2, nuclear magnetic moments (NMagM)
  in nuclear magnetons)

  Atom         1           2           3           4           5
 IAtWgt=          16          16           1           1          84
 AtmWgt=  15.9949146  15.9949146   1.0078250   1.0078250  83.9115064
 NucSpn=           0           0           1           1           0
 AtZEff=   0.0000000   0.0000000   0.0000000   0.0000000   0.0000000
 NQMom=    0.0000000   0.0000000   0.0000000   0.0000000   0.0000000
 NMagM=    0.0000000   0.0000000   2.7928460   2.7928460   0.0000000
 Leave Link  101 at Mon May 11 13:21:08 2020, MaxMem= 1073741824 cpu:       0.3
 (Enter /home/matheus/.gaussian/g09/l108.exe)
 Scan the potential surface.
 Variable   Value     No. Steps Step-Size
 -------- ----------- --------- ---------
     1       3.000000      20      0.1000
 A total of     21 points will be computed.
 Leave Link  108 at Mon May 11 13:21:08 2020, MaxMem= 1073741824 cpu:       0.0
 (Enter /home/matheus/.gaussian/g09/l202.exe)
 ---------------------------------------------------------------------------------------------------
                            Z-MATRIX (ANGSTROMS AND DEGREES)
   CD    Cent   Atom    N1       Length/X        N2       Alpha/Y        N3        Beta/Z          J
 ---------------------------------------------------------------------------------------------------
      1      1  O        0   0.000000          0.000000          0.725000
      2      2  O        0   0.000000          0.000000         -0.725000
      3      3  H        0   0.904763          0.159534          1.023510
      4      4  H        0   0.000000          0.918721         -1.023510
      5      5  Kr       0   0.000000          3.000000          0.000000
 ---------------------------------------------------------------------------------------------------
                         Z-Matrix orientation:                         
 ---------------------------------------------------------------------
 Center     Atomic      Atomic             Coordinates (Angstroms)
 Number     Number       Type             X           Y           Z
 ---------------------------------------------------------------------
      1          8           0        0.000000    0.000000    0.725000
      2          8           0        0.000000    0.000000   -0.725000
      3          1           0        0.904763    0.159534    1.023510
      4          1           0        0.000000    0.918721   -1.023510
      5         36           0        0.000000    3.000000    0.000000
 ---------------------------------------------------------------------
                    Distance matrix (angstroms):
                    1          2          3          4          5
     1  O    0.000000
     2  O    1.450000   0.000000
     3  H    0.966000   1.975180   0.000000
     4  H    1.975180   0.966000   2.363314   0.000000
     5  Kr   3.086361   3.086361   3.151891   2.319331   0.000000
 Stoichiometry    H2KrO2
 Framework group  C1[X(H2KrO2)]
 Deg. of freedom     9
 Full point group                 C1      NOp   1
 Largest Abelian subgroup         C1      NOp   1
 Largest concise Abelian subgroup C1      NOp   1
                         Standard orientation:                         
 ---------------------------------------------------------------------
 Center     Atomic      Atomic             Coordinates (Angstroms)
 Number     Number       Type             X           Y           Z
 ---------------------------------------------------------------------
      1          8           0        2.025459   -0.700316   -0.115097
      2          8           0        2.013251    0.743386    0.019343
      3          1           0        1.883208   -1.082864    0.760447
      4          1           0        1.092171    1.031511    0.061209
      5         36           0       -0.980140   -0.008145   -0.001545
 ---------------------------------------------------------------------
 Rotational constants (GHZ):     25.6204873      2.3529019      2.1689661
 Leave Link  202 at Mon May 11 13:21:08 2020, MaxMem= 1073741824 cpu:       0.0
 (Enter /home/matheus/.gaussian/g09/l122.exe)
 Leave Link  122 at Mon May 11 13:21:08 2020, MaxMem= 1073741824 cpu:       0.0
 (Enter /home/matheus/.gaussian/g09/l301.exe)
 Standard basis: Aug-CC-pVTZ (5D, 7F)
 Ernie: Thresh=  0.10000D-02 Tol=  0.10000D-05 Strict=F.
 Ernie:  38 primitive shells out of 205 were deleted.
 There are   197 symmetry adapted basis functions of A   symmetry.
 Integral buffers will be    131072 words long.
 Raffenetti 2 integral format.
 Two-electron integral symmetry is turned on.
   197 basis functions,   415 primitive gaussians,   229 cartesian basis functions
    27 alpha electrons       27 beta electrons
       nuclear repulsion energy       149.6490473971 Hartrees.
 IExCor=10402 DFT=T Ex=LC-B+HF Corr=LYP ExCW=0 ScaHFX=  1.000000
 ScaDFX=  1.000000  1.000000  1.000000  1.000000 ScalE2=  1.000000  1.000000
 IRadAn=      5 IRanWt=     -1 IRanGd=            0 ICorTp=0
  HFx wShort=  0.000000 wLong=  1.350000 cFull=  0.000000 cShort=  0.000000 cLong=  1.000000
  DFx wShort=  0.000000 wLong=  1.350000 cFull=  0.000000 cShort=  0.000000 cLong=  1.000000
 NAtoms=    5 NActive=    5 NUniq=    5 SFac= 1.00D+00 NAtFMM=   60 NAOKFM=F Big=F
 Leave Link  301 at Mon May 11 13:21:08 2020, MaxMem= 1073741824 cpu:       0.2
 (Enter /home/matheus/.gaussian/g09/l302.exe)
 NPDir=0 NMtPBC=     1 NCelOv=     1 NCel=       1 NClECP=     1 NCelD=      1
         NCelK=      1 NCelE2=     1 NClLst=     1 CellRange=     0.0.
 One-electron integrals computed using PRISM.
 NBasis=   197 RedAO= T  NBF=   197
 NBsUse=   197 1.00D-06 NBFU=   197
 Precomputing XC quadrature grid using
 IXCGrd= 2 IRadAn=           5 IRanWt=          -1 IRanGd=           0 AccXCQ= 0.00D+00.
 NRdTot=     427 NPtTot=      123512 NUsed=      126579 NTot=      126611
 NSgBfM=   229   229   229   229   229 NAtAll=     5     5.
 Leave Link  302 at Mon May 11 13:21:08 2020, MaxMem= 1073741824 cpu:       1.0
 (Enter /home/matheus/.gaussian/g09/l303.exe)
 DipDrv:  MaxL=1.
 Leave Link  303 at Mon May 11 13:21:08 2020, MaxMem= 1073741824 cpu:       0.2
 (Enter /home/matheus/.gaussian/g09/l401.exe)
 Harris functional with IExCor=10402 diagonalized for initial guess.
 ExpMin= 2.53D-02 ExpMax= 1.17D+07 ExpMxC= 1.33D+04 IAcc=3 IRadAn=         5 AccDes= 0.00D+00
 HarFok:  IExCor=10402 AccDes= 0.00D+00 IRadAn=         5 IDoV= 1
 ScaDFX=  1.000000  1.000000  1.000000  1.000000
 FoFCou: FMM=F IPFlag=           0 FMFlag=      100000 FMFlg1=           0
         NFxFlg=           0 DoJE=T BraDBF=F KetDBF=T FulRan=T
         Omega=  0.000000  0.000000  1.000000  0.000000  0.000000 ICntrl=     500 IOpCl=  0
         NMat0=    1 NMatS0=    1 NMatT0=    0 NMatD0=    1 NMtDS0=    0 NMtDT0=    0
         I1Cent=           4 NGrid=           0.
 Petite list used in FoFCou.
 Harris En= -2874.92588545174    
 Initial guess orbital symmetries:
       Occupied  (A) (A) (A) (A) (A) (A) (A) (A) (A) (A) (A) (A)
                 (A) (A) (A) (A) (A) (A) (A) (A) (A) (A) (A) (A)
                 (A) (A) (A)
       Virtual   (A) (A) (A) (A) (A) (A) (A) (A) (A) (A) (A) (A)
                 (A) (A) (A) (A) (A) (A) (A) (A) (A) (A) (A) (A)
                 (A) (A) (A) (A) (A) (A) (A) (A) (A) (A) (A) (A)
                 (A) (A) (A) (A) (A) (A) (A) (A) (A) (A) (A) (A)
                 (A) (A) (A) (A) (A) (A) (A) (A) (A) (A) (A) (A)
                 (A) (A) (A) (A) (A) (A) (A) (A) (A) (A) (A) (A)
                 (A) (A) (A) (A) (A) (A) (A) (A) (A) (A) (A) (A)
                 (A) (A) (A) (A) (A) (A) (A) (A) (A) (A) (A) (A)
                 (A) (A) (A) (A) (A) (A) (A) (A) (A) (A) (A) (A)
                 (A) (A) (A) (A) (A) (A) (A) (A) (A) (A) (A) (A)
                 (A) (A) (A) (A) (A) (A) (A) (A) (A) (A) (A) (A)
                 (A) (A) (A) (A) (A) (A) (A) (A) (A) (A) (A) (A)
                 (A) (A) (A) (A) (A) (A) (A) (A) (A) (A) (A) (A)
                 (A) (A) (A) (A) (A) (A) (A) (A) (A) (A) (A) (A)
                 (A) (A)
 The electronic state of the initial guess is 1-A.
 Leave Link  401 at Mon May 11 13:21:08 2020, MaxMem= 1073741824 cpu:       4.0
 (Enter /home/matheus/.gaussian/g09/l502.exe)
 Closed shell SCF:
 Requested convergence on RMS density matrix=1.00D-08 within 128 cycles.
 Requested convergence on MAX density matrix=1.00D-06.
 Requested convergence on             energy=1.00D-06.
 No special actions if energy rises.
 Using DIIS extrapolation, IDIIS=  1040.
 Integral symmetry usage will be decided dynamically.
       126521 words used for storage of precomputed grid.
 IEnd=      305468 IEndB=      305468 NGot=  1073741824 MDV=  1073505667
 LenX=  1073505667 LenY=  1073452785
 Fock matrices will be formed incrementally for  20 cycles.

 Cycle   1  Pass 1  IDiag  1:
 FoFJK:  IHMeth= 1 ICntrl=     0 DoSepK=T KAlg= 1 I1Cent= 0 FoldK=F
 FoFCou: FMM=F IPFlag=           0 FMFlag=      100000 FMFlg1=           0
         NFxFlg=           0 DoJE=T BraDBF=F KetDBF=F FulRan=T
         Omega=  0.000000  0.000000  1.000000  0.000000  0.000000 ICntrl=     500 IOpCl=  0
         NMat0=    1 NMatS0=    1 NMatT0=    0 NMatD0=    1 NMtDS0=    0 NMtDT0=    0
         I1Cent=           0 NGrid=           0.
 Symmetry not used in FoFCou.
 E= -2898.48070214708    
 DIIS: error= 1.24D-01 at cycle   1 NSaved=   1.
 NSaved= 1 IEnMin= 1 EnMin= -2898.48070214708     IErMin= 1 ErrMin= 1.24D-01
 ErrMax= 1.24D-01 EMaxC= 1.00D-01 BMatC= 3.88D+00 BMatP= 3.88D+00
 IDIUse=3 WtCom= 0.00D+00 WtEn= 1.00D+00
 Coeff-Com:  0.100D+01
 Coeff-En:   0.100D+01
 Coeff:      0.100D+01
 Gap=    -1.050 Goal=   None    Shift=    0.000
 GapD=   -1.050 DampG=0.250 DampE=0.250 DampFc=0.2500 IDamp=-1.
 Damping current iteration by 2.50D-01
 RMSDP=1.14D-01 MaxDP=1.01D+01              OVMax= 9.96D-01

 Cycle   2  Pass 1  IDiag  1:
 RMSU=  4.48D-03    CP:  7.61D-01
 FoFJK:  IHMeth= 1 ICntrl=     0 DoSepK=T KAlg= 1 I1Cent= 0 FoldK=F
 E= -2900.79696440150     Delta-E=       -2.316262254421 Rises=F Damp=T
 DIIS: error= 5.35D-02 at cycle   2 NSaved=   2.
 NSaved= 2 IEnMin= 2 EnMin= -2900.79696440150     IErMin= 2 ErrMin= 5.35D-02
 ErrMax= 5.35D-02 EMaxC= 1.00D-01 BMatC= 1.05D+00 BMatP= 3.88D+00
 IDIUse=3 WtCom= 4.65D-01 WtEn= 5.35D-01
 Coeff-Com: -0.756D+00 0.176D+01
 Coeff-En:   0.000D+00 0.100D+01
 Coeff:     -0.352D+00 0.135D+01
 Gap=     0.121 Goal=   None    Shift=    0.000
 RMSDP=8.55D-02 MaxDP=7.55D+00 DE=-2.32D+00 OVMax= 9.92D-01

 Cycle   3  Pass 1  IDiag  1:
 RMSU=  6.00D-03    CP:  4.40D-02  3.00D+00
 FoFJK:  IHMeth= 1 ICntrl=     0 DoSepK=T KAlg= 1 I1Cent= 0 FoldK=F
 E= -2904.25685279812     Delta-E=       -3.459888396623 Rises=F Damp=F
 DIIS: error= 3.10D-02 at cycle   3 NSaved=   3.
 NSaved= 3 IEnMin= 3 EnMin= -2904.25685279812     IErMin= 3 ErrMin= 3.10D-02
 ErrMax= 3.10D-02 EMaxC= 1.00D-01 BMatC= 5.54D-01 BMatP= 1.05D+00
 IDIUse=3 WtCom= 6.90D-01 WtEn= 3.10D-01
 Coeff-Com: -0.931D-02 0.420D+00 0.590D+00
 Coeff-En:   0.000D+00 0.000D+00 0.100D+01
 Coeff:     -0.642D-02 0.289D+00 0.717D+00
 Gap=     0.629 Goal=   None    Shift=    0.000
 RMSDP=2.42D-03 MaxDP=8.61D-02 DE=-3.46D+00 OVMax= 1.03D-01

 Cycle   4  Pass 1  IDiag  1:
 RMSU=  1.71D-03    CP:  4.36D-02  3.00D+00  9.82D-01
 FoFJK:  IHMeth= 1 ICntrl=     0 DoSepK=T KAlg= 1 I1Cent= 0 FoldK=F
 E= -2904.60983731026     Delta-E=       -0.352984512132 Rises=F Damp=F
 DIIS: error= 4.89D-03 at cycle   4 NSaved=   4.
 NSaved= 4 IEnMin= 4 EnMin= -2904.60983731026     IErMin= 4 ErrMin= 4.89D-03
 ErrMax= 4.89D-03 EMaxC= 1.00D-01 BMatC= 1.03D-02 BMatP= 5.54D-01
 IDIUse=3 WtCom= 9.51D-01 WtEn= 4.89D-02
 Coeff-Com:  0.727D-02 0.181D-01 0.507D-01 0.924D+00
 Coeff-En:   0.000D+00 0.000D+00 0.000D+00 0.100D+01
 Coeff:      0.692D-02 0.173D-01 0.482D-01 0.928D+00
 Gap=     0.523 Goal=   None    Shift=    0.000
 RMSDP=6.44D-04 MaxDP=2.11D-02 DE=-3.53D-01 OVMax= 2.20D-02

 Cycle   5  Pass 1  IDiag  1:
 RMSU=  4.30D-04    CP:  4.37D-02  3.00D+00  9.82D-01  1.09D+00
 FoFJK:  IHMeth= 1 ICntrl=     0 DoSepK=T KAlg= 1 I1Cent= 0 FoldK=F
 E= -2904.61875504014     Delta-E=       -0.008917729887 Rises=F Damp=F
 DIIS: error= 1.13D-03 at cycle   5 NSaved=   5.
 NSaved= 5 IEnMin= 5 EnMin= -2904.61875504014     IErMin= 5 ErrMin= 1.13D-03
 ErrMax= 1.13D-03 EMaxC= 1.00D-01 BMatC= 6.43D-04 BMatP= 1.03D-02
 IDIUse=3 WtCom= 9.89D-01 WtEn= 1.13D-02
 Coeff-Com: -0.142D-01 0.317D-01-0.432D-02-0.158D-01 0.100D+01
 Coeff-En:   0.000D+00 0.000D+00 0.000D+00 0.000D+00 0.100D+01
 Coeff:     -0.140D-01 0.313D-01-0.427D-02-0.156D-01 0.100D+01
 Gap=     0.537 Goal=   None    Shift=    0.000
 RMSDP=1.59D-04 MaxDP=5.50D-03 DE=-8.92D-03 OVMax= 7.02D-03

 Cycle   6  Pass 1  IDiag  1:
 RMSU=  9.22D-05    CP:  4.37D-02  3.00D+00  9.81D-01  1.10D+00  1.14D+00
 FoFJK:  IHMeth= 1 ICntrl=     0 DoSepK=T KAlg= 1 I1Cent= 0 FoldK=F
 E= -2904.61936574447     Delta-E=       -0.000610704331 Rises=F Damp=F
 DIIS: error= 5.98D-04 at cycle   6 NSaved=   6.
 NSaved= 6 IEnMin= 6 EnMin= -2904.61936574447     IErMin= 6 ErrMin= 5.98D-04
 ErrMax= 5.98D-04 EMaxC= 1.00D-01 BMatC= 1.58D-04 BMatP= 6.43D-04
 IDIUse=3 WtCom= 9.94D-01 WtEn= 5.98D-03
 Coeff-Com: -0.465D-02 0.103D-01-0.752D-02-0.501D-01 0.219D+00 0.833D+00
 Coeff-En:   0.000D+00 0.000D+00 0.000D+00 0.000D+00 0.000D+00 0.100D+01
 Coeff:     -0.462D-02 0.102D-01-0.748D-02-0.498D-01 0.218D+00 0.834D+00
 Gap=     0.539 Goal=   None    Shift=    0.000
 RMSDP=6.06D-05 MaxDP=1.69D-03 DE=-6.11D-04 OVMax= 3.60D-03

 Cycle   7  Pass 1  IDiag  1:
 RMSU=  2.82D-05    CP:  4.37D-02  3.00D+00  9.81D-01  1.11D+00  1.20D+00
                    CP:  1.09D+00
 FoFJK:  IHMeth= 1 ICntrl=     0 DoSepK=T KAlg= 1 I1Cent= 0 FoldK=F
 E= -2904.61952250884     Delta-E=       -0.000156764363 Rises=F Damp=F
 DIIS: error= 2.99D-04 at cycle   7 NSaved=   7.
 NSaved= 7 IEnMin= 7 EnMin= -2904.61952250884     IErMin= 7 ErrMin= 2.99D-04
 ErrMax= 2.99D-04 EMaxC= 1.00D-01 BMatC= 3.32D-05 BMatP= 1.58D-04
 IDIUse=3 WtCom= 9.97D-01 WtEn= 2.99D-03
 Coeff-Com:  0.103D-02-0.213D-02-0.430D-02-0.164D-01-0.791D-01 0.282D+00
 Coeff-Com:  0.819D+00
 Coeff-En:   0.000D+00 0.000D+00 0.000D+00 0.000D+00 0.000D+00 0.000D+00
 Coeff-En:   0.100D+01
 Coeff:      0.103D-02-0.212D-02-0.428D-02-0.163D-01-0.789D-01 0.281D+00
 Coeff:      0.819D+00
 Gap=     0.540 Goal=   None    Shift=    0.000
 RMSDP=3.18D-05 MaxDP=8.03D-04 DE=-1.57D-04 OVMax= 2.32D-03

 Cycle   8  Pass 1  IDiag  1:
 RMSU=  1.29D-05    CP:  4.37D-02  3.00D+00  9.81D-01  1.12D+00  1.22D+00
                    CP:  1.18D+00  1.10D+00
 FoFJK:  IHMeth= 1 ICntrl=     0 DoSepK=T KAlg= 1 I1Cent= 0 FoldK=F
 E= -2904.61956187501     Delta-E=       -0.000039366175 Rises=F Damp=F
 DIIS: error= 6.46D-05 at cycle   8 NSaved=   8.
 NSaved= 8 IEnMin= 8 EnMin= -2904.61956187501     IErMin= 8 ErrMin= 6.46D-05
 ErrMax= 6.46D-05 EMaxC= 1.00D-01 BMatC= 2.03D-06 BMatP= 3.32D-05
 IDIUse=1 WtCom= 1.00D+00 WtEn= 0.00D+00
 Coeff-Com:  0.121D-02-0.230D-02 0.149D-02 0.588D-02-0.115D-01-0.100D+00
 Coeff-Com: -0.477D-01 0.115D+01
 Coeff:      0.121D-02-0.230D-02 0.149D-02 0.588D-02-0.115D-01-0.100D+00
 Coeff:     -0.477D-01 0.115D+01
 Gap=     0.540 Goal=   None    Shift=    0.000
 RMSDP=1.22D-05 MaxDP=3.56D-04 DE=-3.94D-05 OVMax= 1.42D-03

 Cycle   9  Pass 1  IDiag  1:
 RMSU=  4.40D-06    CP:  4.37D-02  3.00D+00  9.81D-01  1.12D+00  1.23D+00
                    CP:  1.20D+00  1.27D+00  1.39D+00
 FoFJK:  IHMeth= 1 ICntrl=     0 DoSepK=T KAlg= 1 I1Cent= 0 FoldK=F
 E= -2904.61956757316     Delta-E=       -0.000005698147 Rises=F Damp=F
 DIIS: error= 2.74D-05 at cycle   9 NSaved=   9.
 NSaved= 9 IEnMin= 9 EnMin= -2904.61956757316     IErMin= 9 ErrMin= 2.74D-05
 ErrMax= 2.74D-05 EMaxC= 1.00D-01 BMatC= 3.81D-07 BMatP= 2.03D-06
 IDIUse=1 WtCom= 1.00D+00 WtEn= 0.00D+00
 Coeff-Com: -0.435D-04 0.141D-03 0.590D-03 0.164D-02 0.427D-02-0.149D-02
 Coeff-Com: -0.501D-01-0.291D+00 0.134D+01
 Coeff:     -0.435D-04 0.141D-03 0.590D-03 0.164D-02 0.427D-02-0.149D-02
 Coeff:     -0.501D-01-0.291D+00 0.134D+01
 Gap=     0.540 Goal=   None    Shift=    0.000
 RMSDP=6.18D-06 MaxDP=1.31D-04 DE=-5.70D-06 OVMax= 8.36D-04

 Cycle  10  Pass 1  IDiag  1:
 RMSU=  1.68D-06    CP:  4.37D-02  3.00D+00  9.81D-01  1.12D+00  1.22D+00
                    CP:  1.20D+00  1.32D+00  1.57D+00  1.61D+00
 FoFJK:  IHMeth= 1 ICntrl=     0 DoSepK=T KAlg= 1 I1Cent= 0 FoldK=F
 E= -2904.61956888440     Delta-E=       -0.000001311237 Rises=F Damp=F
 DIIS: error= 9.88D-06 at cycle  10 NSaved=  10.
 NSaved=10 IEnMin=10 EnMin= -2904.61956888440     IErMin=10 ErrMin= 9.88D-06
 ErrMax= 9.88D-06 EMaxC= 1.00D-01 BMatC= 5.01D-08 BMatP= 3.81D-07
 IDIUse=1 WtCom= 1.00D+00 WtEn= 0.00D+00
 Coeff-Com: -0.168D-03 0.315D-03-0.319D-03-0.975D-03-0.966D-03 0.152D-01
 Coeff-Com:  0.145D-01-0.163D+00-0.863D-01 0.122D+01
 Coeff:     -0.168D-03 0.315D-03-0.319D-03-0.975D-03-0.966D-03 0.152D-01
 Coeff:      0.145D-01-0.163D+00-0.863D-01 0.122D+01
 Gap=     0.540 Goal=   None    Shift=    0.000
 RMSDP=2.63D-06 MaxDP=6.27D-05 DE=-1.31D-06 OVMax= 4.00D-04

 Cycle  11  Pass 1  IDiag  1:
 RMSU=  6.09D-07    CP:  4.37D-02  3.00D+00  9.81D-01  1.12D+00  1.22D+00
                    CP:  1.21D+00  1.34D+00  1.64D+00  1.87D+00  1.45D+00
 FoFJK:  IHMeth= 1 ICntrl=     0 DoSepK=T KAlg= 1 I1Cent= 0 FoldK=F
 E= -2904.61956909123     Delta-E=       -0.000000206830 Rises=F Damp=F
 DIIS: error= 3.38D-06 at cycle  11 NSaved=  11.
 NSaved=11 IEnMin=11 EnMin= -2904.61956909123     IErMin=11 ErrMin= 3.38D-06
 ErrMax= 3.38D-06 EMaxC= 1.00D-01 BMatC= 5.36D-09 BMatP= 5.01D-08
 IDIUse=1 WtCom= 1.00D+00 WtEn= 0.00D+00
 Coeff-Com: -0.145D-04 0.197D-04-0.148D-04-0.649D-04 0.973D-03-0.347D-02
 Coeff-Com: -0.381D-02 0.542D-01-0.712D-01-0.340D+00 0.136D+01
 Coeff:     -0.145D-04 0.197D-04-0.148D-04-0.649D-04 0.973D-03-0.347D-02
 Coeff:     -0.381D-02 0.542D-01-0.712D-01-0.340D+00 0.136D+01
 Gap=     0.540 Goal=   None    Shift=    0.000
 RMSDP=8.86D-07 MaxDP=1.94D-05 DE=-2.07D-07 OVMax= 1.32D-04

 Cycle  12  Pass 1  IDiag  1:
 RMSU=  2.04D-07    CP:  4.37D-02  3.00D+00  9.81D-01  1.12D+00  1.22D+00
                    CP:  1.21D+00  1.34D+00  1.66D+00  1.93D+00  1.62D+00
                    CP:  1.47D+00
 FoFJK:  IHMeth= 1 ICntrl=     0 DoSepK=T KAlg= 1 I1Cent= 0 FoldK=F
 E= -2904.61956911214     Delta-E=       -0.000000020917 Rises=F Damp=F
 DIIS: error= 8.89D-07 at cycle  12 NSaved=  12.
 NSaved=12 IEnMin=12 EnMin= -2904.61956911214     IErMin=12 ErrMin= 8.89D-07
 ErrMax= 8.89D-07 EMaxC= 1.00D-01 BMatC= 2.88D-10 BMatP= 5.36D-09
 IDIUse=1 WtCom= 1.00D+00 WtEn= 0.00D+00
 Coeff-Com:  0.426D-05-0.909D-05 0.138D-04 0.729D-04-0.300D-03 0.631D-03
 Coeff-Com:  0.954D-03-0.902D-02 0.288D-01 0.241D-01-0.409D+00 0.136D+01
 Coeff:      0.426D-05-0.909D-05 0.138D-04 0.729D-04-0.300D-03 0.631D-03
 Coeff:      0.954D-03-0.902D-02 0.288D-01 0.241D-01-0.409D+00 0.136D+01
 Gap=     0.540 Goal=   None    Shift=    0.000
 RMSDP=1.95D-07 MaxDP=4.23D-06 DE=-2.09D-08 OVMax= 2.32D-05

 Cycle  13  Pass 1  IDiag  1:
 RMSU=  3.95D-08    CP:  4.37D-02  3.00D+00  9.81D-01  1.12D+00  1.22D+00
                    CP:  1.21D+00  1.34D+00  1.66D+00  1.93D+00  1.63D+00
                    CP:  1.59D+00  1.44D+00
 FoFJK:  IHMeth= 1 ICntrl=     0 DoSepK=T KAlg= 1 I1Cent= 0 FoldK=F
 E= -2904.61956911320     Delta-E=       -0.000000001056 Rises=F Damp=F
 DIIS: error= 2.10D-07 at cycle  13 NSaved=  13.
 NSaved=13 IEnMin=13 EnMin= -2904.61956911320     IErMin=13 ErrMin= 2.10D-07
 ErrMax= 2.10D-07 EMaxC= 1.00D-01 BMatC= 1.51D-11 BMatP= 2.88D-10
 IDIUse=1 WtCom= 1.00D+00 WtEn= 0.00D+00
 Coeff-Com:  0.755D-06-0.112D-05-0.361D-06-0.117D-05-0.243D-04 0.112D-03
 Coeff-Com:  0.107D-03-0.165D-02-0.137D-02 0.137D-01-0.109D-01-0.169D+00
 Coeff-Com:  0.117D+01
 Coeff:      0.755D-06-0.112D-05-0.361D-06-0.117D-05-0.243D-04 0.112D-03
 Coeff:      0.107D-03-0.165D-02-0.137D-02 0.137D-01-0.109D-01-0.169D+00
 Coeff:      0.117D+01
 Gap=     0.540 Goal=   None    Shift=    0.000
 RMSDP=3.83D-08 MaxDP=1.04D-06 DE=-1.06D-09 OVMax= 3.66D-06

 Cycle  14  Pass 1  IDiag  1:
 RMSU=  8.11D-09    CP:  4.37D-02  3.00D+00  9.81D-01  1.12D+00  1.22D+00
                    CP:  1.21D+00  1.34D+00  1.66D+00  1.93D+00  1.63D+00
                    CP:  1.59D+00  1.50D+00  1.36D+00
 FoFJK:  IHMeth= 1 ICntrl=     0 DoSepK=T KAlg= 1 I1Cent= 0 FoldK=F
 E= -2904.61956911325     Delta-E=       -0.000000000048 Rises=F Damp=F
 DIIS: error= 5.32D-08 at cycle  14 NSaved=  14.
 NSaved=14 IEnMin=14 EnMin= -2904.61956911325     IErMin=14 ErrMin= 5.32D-08
 ErrMax= 5.32D-08 EMaxC= 1.00D-01 BMatC= 1.04D-12 BMatP= 1.51D-11
 IDIUse=1 WtCom= 1.00D+00 WtEn= 0.00D+00
 Coeff-Com:  0.194D-06-0.279D-06-0.544D-06-0.458D-05 0.266D-04-0.607D-04
 Coeff-Com: -0.101D-03 0.889D-03-0.149D-02-0.381D-02 0.300D-01-0.729D-01
 Coeff-Com: -0.192D+00 0.124D+01
 Coeff:      0.194D-06-0.279D-06-0.544D-06-0.458D-05 0.266D-04-0.607D-04
 Coeff:     -0.101D-03 0.889D-03-0.149D-02-0.381D-02 0.300D-01-0.729D-01
 Coeff:     -0.192D+00 0.124D+01
 Gap=     0.540 Goal=   None    Shift=    0.000
 RMSDP=1.00D-08 MaxDP=3.16D-07 DE=-4.82D-11 OVMax= 1.21D-06

 Cycle  15  Pass 1  IDiag  1:
 RMSU=  2.84D-09    CP:  4.37D-02  3.00D+00  9.81D-01  1.12D+00  1.22D+00
                    CP:  1.21D+00  1.34D+00  1.66D+00  1.93D+00  1.63D+00
                    CP:  1.60D+00  1.50D+00  1.46D+00  1.46D+00
 FoFJK:  IHMeth= 1 ICntrl=     0 DoSepK=T KAlg= 1 I1Cent= 0 FoldK=F
 E= -2904.61956911325     Delta-E=       -0.000000000005 Rises=F Damp=F
 DIIS: error= 1.13D-08 at cycle  15 NSaved=  15.
 NSaved=15 IEnMin=15 EnMin= -2904.61956911325     IErMin=15 ErrMin= 1.13D-08
 ErrMax= 1.13D-08 EMaxC= 1.00D-01 BMatC= 5.18D-14 BMatP= 1.04D-12
 IDIUse=1 WtCom= 1.00D+00 WtEn= 0.00D+00
 Coeff-Com:  0.359D-07-0.618D-07 0.115D-06 0.105D-05-0.610D-05 0.119D-04
 Coeff-Com:  0.257D-04-0.133D-03 0.374D-03 0.225D-03-0.590D-02 0.240D-01
 Coeff-Com: -0.307D-01-0.193D+00 0.120D+01
 Coeff:      0.359D-07-0.618D-07 0.115D-06 0.105D-05-0.610D-05 0.119D-04
 Coeff:      0.257D-04-0.133D-03 0.374D-03 0.225D-03-0.590D-02 0.240D-01
 Coeff:     -0.307D-01-0.193D+00 0.120D+01
 Gap=     0.540 Goal=   None    Shift=    0.000
 RMSDP=2.40D-09 MaxDP=6.85D-08 DE=-5.46D-12 OVMax= 2.28D-07

 SCF Done:  E(RLC-B+HF-LYP) =  -2904.61956911     A.U. after   15 cycles
             Convg  =    0.2401D-08             -V/T =  2.0016
 KE= 2.899961025318D+03 PE=-7.236411023072D+03 EE= 1.282181381243D+03
 Leave Link  502 at Mon May 11 13:22:00 2020, MaxMem= 1073741824 cpu:     412.6
 (Enter /home/matheus/.gaussian/g09/l601.exe)
 Copying SCF densities to generalized density rwf, IOpCl= 0 IROHF=0.

 **********************************************************************

            Population analysis using the SCF density.

 **********************************************************************

 Orbital symmetries:
       Occupied  (A) (A) (A) (A) (A) (A) (A) (A) (A) (A) (A) (A)
                 (A) (A) (A) (A) (A) (A) (A) (A) (A) (A) (A) (A)
                 (A) (A) (A)
       Virtual   (A) (A) (A) (A) (A) (A) (A) (A) (A) (A) (A) (A)
                 (A) (A) (A) (A) (A) (A) (A) (A) (A) (A) (A) (A)
                 (A) (A) (A) (A) (A) (A) (A) (A) (A) (A) (A) (A)
                 (A) (A) (A) (A) (A) (A) (A) (A) (A) (A) (A) (A)
                 (A) (A) (A) (A) (A) (A) (A) (A) (A) (A) (A) (A)
                 (A) (A) (A) (A) (A) (A) (A) (A) (A) (A) (A) (A)
                 (A) (A) (A) (A) (A) (A) (A) (A) (A) (A) (A) (A)
                 (A) (A) (A) (A) (A) (A) (A) (A) (A) (A) (A) (A)
                 (A) (A) (A) (A) (A) (A) (A) (A) (A) (A) (A) (A)
                 (A) (A) (A) (A) (A) (A) (A) (A) (A) (A) (A) (A)
                 (A) (A) (A) (A) (A) (A) (A) (A) (A) (A) (A) (A)
                 (A) (A) (A) (A) (A) (A) (A) (A) (A) (A) (A) (A)
                 (A) (A) (A) (A) (A) (A) (A) (A) (A) (A) (A) (A)
                 (A) (A) (A) (A) (A) (A) (A) (A) (A) (A) (A) (A)
                 (A) (A)
 The electronic state is 1-A.
 Alpha  occ. eigenvalues -- -511.67387 -67.19884 -60.87089 -60.87076 -60.87065
 Alpha  occ. eigenvalues --  -19.48455 -19.48169 -10.10014  -7.81609  -7.81575
 Alpha  occ. eigenvalues --   -7.81545  -3.64572  -3.64565  -3.64542  -3.64513
 Alpha  occ. eigenvalues --   -3.64509  -1.46318  -1.21489  -1.19439  -0.77691
 Alpha  occ. eigenvalues --   -0.70614  -0.63526  -0.57851  -0.57265  -0.56716
 Alpha  occ. eigenvalues --   -0.53541  -0.51372
 Alpha virt. eigenvalues --    0.02603   0.03864   0.07714   0.08790   0.10674
 Alpha virt. eigenvalues --    0.11316   0.13022   0.13905   0.16612   0.17373
 Alpha virt. eigenvalues --    0.17641   0.19570   0.21164   0.23142   0.24401
 Alpha virt. eigenvalues --    0.24687   0.25774   0.28891   0.31326   0.32391
 Alpha virt. eigenvalues --    0.33571   0.35372   0.37217   0.39197   0.39767
 Alpha virt. eigenvalues --    0.41431   0.44177   0.48654   0.54177   0.56084
 Alpha virt. eigenvalues --    0.57194   0.62679   0.63303   0.66010   0.70462
 Alpha virt. eigenvalues --    0.73933   0.74448   0.75818   0.78380   0.79085
 Alpha virt. eigenvalues --    0.79465   0.80919   0.83128   0.84100   0.85799
 Alpha virt. eigenvalues --    0.86990   0.88607   0.90804   0.91923   0.94231
 Alpha virt. eigenvalues --    0.95099   0.95956   0.98019   0.98324   1.01473
 Alpha virt. eigenvalues --    1.02357   1.07161   1.10957   1.12319   1.13031
 Alpha virt. eigenvalues --    1.14211   1.19257   1.20398   1.27157   1.28855
 Alpha virt. eigenvalues --    1.29703   1.33925   1.41586   1.43290   1.46366
 Alpha virt. eigenvalues --    1.48398   1.53631   1.56287   1.60153   1.65362
 Alpha virt. eigenvalues --    1.75518   1.79330   1.91706   2.02353   2.05380
 Alpha virt. eigenvalues --    2.09771   2.13100   2.15794   2.21280   2.27050
 Alpha virt. eigenvalues --    2.28628   2.29426   2.32653   2.35745   2.37197
 Alpha virt. eigenvalues --    2.38942   2.41355   2.43488   2.44922   2.45506
 Alpha virt. eigenvalues --    2.49588   2.51193   2.58231   2.59906   2.61142
 Alpha virt. eigenvalues --    2.63476   2.63994   2.64492   2.69293   2.72035
 Alpha virt. eigenvalues --    2.73604   2.74838   2.77771   2.81919   2.84638
 Alpha virt. eigenvalues --    2.87093   2.87289   2.89377   2.97235   3.02379
 Alpha virt. eigenvalues --    3.08392   3.17877   3.24322   3.26653   3.77312
 Alpha virt. eigenvalues --    3.81940   4.05783   4.10993   4.17304   4.24519
 Alpha virt. eigenvalues --    4.28259   4.30867   4.36619   4.40206   4.44549
 Alpha virt. eigenvalues --    4.48022   4.67331   4.68395   4.74902   4.87187
 Alpha virt. eigenvalues --    5.10831   5.14419   5.16625   5.33652   5.34340
 Alpha virt. eigenvalues --    5.38939   5.66027   6.07384   6.25736   6.37764
 Alpha virt. eigenvalues --    6.45737   6.49877   6.55414   6.68730   6.73784
 Alpha virt. eigenvalues --    6.86036   7.04028   7.04379   7.08062   7.10724
 Alpha virt. eigenvalues --    7.14421   7.16302   7.19786   7.22962   7.26750
 Alpha virt. eigenvalues --    7.34106   7.39026   7.48796   7.71772   7.83826
 Alpha virt. eigenvalues --    8.05450   8.36241   8.38775  14.32705  14.88699
          Condensed to atoms (all electrons):
              1          2          3          4          5
     1  O    8.239199  -0.178370   0.190128  -0.001705  -0.024970
     2  O   -0.178370   8.241685   0.012095   0.190213  -0.013744
     3  H    0.190128   0.012095   0.570555  -0.000419  -0.003120
     4  H   -0.001705   0.190213  -0.000419   0.581278  -0.011250
     5  Kr  -0.024970  -0.013744  -0.003120  -0.011250  36.049566
 Mulliken atomic charges:
              1
     1  O   -0.224283
     2  O   -0.251880
     3  H    0.230761
     4  H    0.241883
     5  Kr   0.003518
 Sum of Mulliken atomic charges =   0.00000
 Mulliken charges with hydrogens summed into heavy atoms:
              1
     1  O    0.006478
     2  O   -0.009997
     5  Kr   0.003518
 Sum of Mulliken charges with hydrogens summed into heavy atoms =   0.00000
          Condensed to fragments (all electrons):
     1      -0.003518
     2       0.003518
 Electronic spatial extent (au):  <R**2>=            482.1834
 Charge=              0.0000 electrons
 Dipole moment (field-independent basis, Debye):
    X=             -2.2015    Y=             -0.3732    Z=              1.5768  Tot=              2.7335
 Quadrupole moment (field-independent basis, Debye-Ang):
   XX=            -35.9440   YY=            -27.5599   ZZ=            -28.6290
   XY=             -2.0238   XZ=              3.1225   YZ=             -1.9573
 Traceless Quadrupole moment (field-independent basis, Debye-Ang):
   XX=             -5.2330   YY=              3.1511   ZZ=              2.0819
   XY=             -2.0238   XZ=              3.1225   YZ=             -1.9573
 Octapole moment (field-independent basis, Debye-Ang**2):
  XXX=            -37.7191  YYY=             -1.0394  ZZZ=              1.3158  XYY=             -5.3107
  XXY=             -6.0134  XXZ=              5.4708  XZZ=             -5.1045  YZZ=             -1.8755
  YYZ=              2.4561  XYZ=             -3.8196
 Hexadecapole moment (field-independent basis, Debye-Ang**3):
 XXXX=           -453.6900 YYYY=            -61.2788 ZZZZ=            -28.3288 XXXY=            -12.1260
 XXXZ=             11.0593 YYYX=             -3.8120 YYYZ=             -2.9099 ZZZX=              2.9999
 ZZZY=             -2.1335 XXYY=            -80.8378 XXZZ=            -70.6685 YYZZ=            -15.1943
 XXYZ=             -7.6026 YYXZ=              4.6550 ZZXY=             -3.4420
 N-N= 1.496490473971D+02 E-N=-7.236411023386D+03  KE= 2.899961025318D+03
 No NMR shielding tensors so no spin-rotation constants.
 Leave Link  601 at Mon May 11 13:22:00 2020, MaxMem= 1073741824 cpu:       0.9
 (Enter /home/matheus/.gaussian/g09/l122.exe)
 Counterpoise: doing DCBS calculation for fragment   1 NewBq=T
 Leave Link  122 at Mon May 11 13:22:00 2020, MaxMem= 1073741824 cpu:       0.0
 (Enter /home/matheus/.gaussian/g09/l301.exe)
 Basis read from rwf:  (5D, 7F)
 No pseudopotential information found on rwf file.
 There are   197 symmetry adapted basis functions of A   symmetry.
 Integral buffers will be    131072 words long.
 Raffenetti 2 integral format.
 Two-electron integral symmetry is turned on.
   197 basis functions,   415 primitive gaussians,   229 cartesian basis functions
     9 alpha electrons        9 beta electrons
       nuclear repulsion energy        36.6321546607 Hartrees.
 IExCor=10402 DFT=T Ex=LC-B+HF Corr=LYP ExCW=0 ScaHFX=  1.000000
 ScaDFX=  1.000000  1.000000  1.000000  1.000000 ScalE2=  1.000000  1.000000
 IRadAn=      5 IRanWt=     -1 IRanGd=            0 ICorTp=0
  HFx wShort=  0.000000 wLong=  1.350000 cFull=  0.000000 cShort=  0.000000 cLong=  1.000000
  DFx wShort=  0.000000 wLong=  1.350000 cFull=  0.000000 cShort=  0.000000 cLong=  1.000000
 NAtoms=    5 NActive=    5 NUniq=    5 SFac= 1.00D+00 NAtFMM=   60 NAOKFM=F Big=F
 No density basis found on file   718.
 Leave Link  301 at Mon May 11 13:22:00 2020, MaxMem= 1073741824 cpu:       0.2
 (Enter /home/matheus/.gaussian/g09/l302.exe)
 NPDir=0 NMtPBC=     1 NCelOv=     1 NCel=       1 NClECP=     1 NCelD=      1
         NCelK=      1 NCelE2=     1 NClLst=     1 CellRange=     0.0.
 One-electron integrals computed using PRISM.
 NBasis=   197 RedAO= T  NBF=   197
 NBsUse=   197 1.00D-06 NBFU=   197
 Precomputing XC quadrature grid using
 IXCGrd= 2 IRadAn=           5 IRanWt=          -1 IRanGd=           0 AccXCQ= 0.00D+00.
 NRdTot=     427 NPtTot=      123512 NUsed=      126579 NTot=      126611
 NSgBfM=   229   229   229   229   229 NAtAll=     5     5.
 Leave Link  302 at Mon May 11 13:22:01 2020, MaxMem= 1073741824 cpu:       1.0
 (Enter /home/matheus/.gaussian/g09/l303.exe)
 DipDrv:  MaxL=1.
 Leave Link  303 at Mon May 11 13:22:01 2020, MaxMem= 1073741824 cpu:       0.3
 (Enter /home/matheus/.gaussian/g09/l401.exe)
 Harris functional with IExCor=10402 diagonalized for initial guess.
 ExpMin= 2.53D-02 ExpMax= 1.17D+07 ExpMxC= 1.33D+04 IAcc=3 IRadAn=         5 AccDes= 0.00D+00
 HarFok:  IExCor=10402 AccDes= 0.00D+00 IRadAn=         5 IDoV= 1
 ScaDFX=  1.000000  1.000000  1.000000  1.000000
 FoFCou: FMM=F IPFlag=           0 FMFlag=      100000 FMFlg1=           0
         NFxFlg=           0 DoJE=T BraDBF=F KetDBF=T FulRan=T
         Omega=  0.000000  0.000000  1.000000  0.000000  0.000000 ICntrl=     500 IOpCl=  0
         NMat0=    1 NMatS0=    1 NMatT0=    0 NMatD0=    1 NMtDS0=    0 NMtDT0=    0
         I1Cent=           4 NGrid=           0.
 Petite list used in FoFCou.
 Harris En= -143.239869827913    
 Initial guess orbital symmetries:
       Occupied  (A) (A) (A) (A) (A) (A) (A) (A) (A)
       Virtual   (A) (A) (A) (A) (A) (A) (A) (A) (A) (A) (A) (A)
                 (A) (A) (A) (A) (A) (A) (A) (A) (A) (A) (A) (A)
                 (A) (A) (A) (A) (A) (A) (A) (A) (A) (A) (A) (A)
                 (A) (A) (A) (A) (A) (A) (A) (A) (A) (A) (A) (A)
                 (A) (A) (A) (A) (A) (A) (A) (A) (A) (A) (A) (A)
                 (A) (A) (A) (A) (A) (A) (A) (A) (A) (A) (A) (A)
                 (A) (A) (A) (A) (A) (A) (A) (A) (A) (A) (A) (A)
                 (A) (A) (A) (A) (A) (A) (A) (A) (A) (A) (A) (A)
                 (A) (A) (A) (A) (A) (A) (A) (A) (A) (A) (A) (A)
                 (A) (A) (A) (A) (A) (A) (A) (A) (A) (A) (A) (A)
                 (A) (A) (A) (A) (A) (A) (A) (A) (A) (A) (A) (A)
                 (A) (A) (A) (A) (A) (A) (A) (A) (A) (A) (A) (A)
                 (A) (A) (A) (A) (A) (A) (A) (A) (A) (A) (A) (A)
                 (A) (A) (A) (A) (A) (A) (A) (A) (A) (A) (A) (A)
                 (A) (A) (A) (A) (A) (A) (A) (A) (A) (A) (A) (A)
                 (A) (A) (A) (A) (A) (A) (A) (A)
 The electronic state of the initial guess is 1-A.
 Leave Link  401 at Mon May 11 13:22:01 2020, MaxMem= 1073741824 cpu:       4.3
 (Enter /home/matheus/.gaussian/g09/l502.exe)
 Closed shell SCF:
 Requested convergence on RMS density matrix=1.00D-08 within 128 cycles.
 Requested convergence on MAX density matrix=1.00D-06.
 Requested convergence on             energy=1.00D-06.
 No special actions if energy rises.
 Using DIIS extrapolation, IDIIS=  1040.
 Integral symmetry usage will be decided dynamically.
       126521 words used for storage of precomputed grid.
 IEnd=      305468 IEndB=      305468 NGot=  1073741824 MDV=  1073505667
 LenX=  1073505667 LenY=  1073452785
 Fock matrices will be formed incrementally for  20 cycles.

 Cycle   1  Pass 1  IDiag  1:
 FoFJK:  IHMeth= 1 ICntrl=     0 DoSepK=T KAlg= 1 I1Cent= 0 FoldK=F
 FoFCou: FMM=F IPFlag=           0 FMFlag=      100000 FMFlg1=           0
         NFxFlg=           0 DoJE=T BraDBF=F KetDBF=F FulRan=T
         Omega=  0.000000  0.000000  1.000000  0.000000  0.000000 ICntrl=     500 IOpCl=  0
         NMat0=    1 NMatS0=    1 NMatT0=    0 NMatD0=    1 NMtDS0=    0 NMtDT0=    0
         I1Cent=           0 NGrid=           0.
 Symmetry not used in FoFCou.
 E= -145.651210386636    
 DIIS: error= 1.26D-01 at cycle   1 NSaved=   1.
 NSaved= 1 IEnMin= 1 EnMin= -145.651210386636     IErMin= 1 ErrMin= 1.26D-01
 ErrMax= 1.26D-01 EMaxC= 1.00D-01 BMatC= 2.71D+00 BMatP= 2.71D+00
 IDIUse=3 WtCom= 0.00D+00 WtEn= 1.00D+00
 Coeff-Com:  0.100D+01
 Coeff-En:   0.100D+01
 Coeff:      0.100D+01
 Gap=    -0.506 Goal=   None    Shift=    0.000
 GapD=   -0.506 DampG=0.250 DampE=0.250 DampFc=0.2500 IDamp=-1.
 Damping current iteration by 2.50D-01
 RMSDP=9.86D-02 MaxDP=8.27D+00              OVMax= 9.97D-01

 Cycle   2  Pass 1  IDiag  1:
 RMSU=  1.82D-03    CP:  7.52D-01
 FoFJK:  IHMeth= 1 ICntrl=     0 DoSepK=T KAlg= 1 I1Cent= 0 FoldK=F
 E= -147.768562199547     Delta-E=       -2.117351812911 Rises=F Damp=T
 DIIS: error= 6.55D-02 at cycle   2 NSaved=   2.
 NSaved= 2 IEnMin= 2 EnMin= -147.768562199547     IErMin= 2 ErrMin= 6.55D-02
 ErrMax= 6.55D-02 EMaxC= 1.00D-01 BMatC= 7.16D-01 BMatP= 2.71D+00
 IDIUse=3 WtCom= 3.45D-01 WtEn= 6.55D-01
 Coeff-Com: -0.965D+00 0.196D+01
 Coeff-En:   0.000D+00 0.100D+01
 Coeff:     -0.332D+00 0.133D+01
 Gap=     0.364 Goal=   None    Shift=    0.000
 RMSDP=7.39D-02 MaxDP=6.20D+00 DE=-2.12D+00 OVMax= 1.23D-01

 Cycle   3  Pass 1  IDiag  1:
 RMSU=  2.17D-03    CP:  7.58D-03  3.00D+00
 FoFJK:  IHMeth= 1 ICntrl=     0 DoSepK=T KAlg= 1 I1Cent= 0 FoldK=F
 E= -150.527750764522     Delta-E=       -2.759188564975 Rises=F Damp=F
 DIIS: error= 4.64D-02 at cycle   3 NSaved=   3.
 NSaved= 3 IEnMin= 3 EnMin= -150.527750764522     IErMin= 3 ErrMin= 4.64D-02
 ErrMax= 4.64D-02 EMaxC= 1.00D-01 BMatC= 9.79D-01 BMatP= 7.16D-01
 IDIUse=2 WtCom= 0.00D+00 WtEn= 1.00D+00
 Coeff-En:   0.648D-02 0.000D+00 0.994D+00
 Coeff:      0.648D-02 0.000D+00 0.994D+00
 Gap=     0.818 Goal=   None    Shift=    0.000
 RMSDP=4.17D-03 MaxDP=1.47D-01 DE=-2.76D+00 OVMax= 3.02D-01

 Cycle   4  Pass 1  IDiag  1:
 RMSU=  2.92D-03    CP:  8.48D-03  3.00D+00  1.19D+00
 FoFJK:  IHMeth= 1 ICntrl=     0 DoSepK=T KAlg= 1 I1Cent= 0 FoldK=F
 E= -150.920171614710     Delta-E=       -0.392420850188 Rises=F Damp=F
 DIIS: error= 3.58D-02 at cycle   4 NSaved=   4.
 NSaved= 4 IEnMin= 4 EnMin= -150.920171614710     IErMin= 4 ErrMin= 3.58D-02
 ErrMax= 3.58D-02 EMaxC= 1.00D-01 BMatC= 4.45D-01 BMatP= 7.16D-01
 IDIUse=3 WtCom= 6.42D-01 WtEn= 3.58D-01
 Coeff-Com: -0.420D+00 0.705D+00 0.204D+00 0.511D+00
 Coeff-En:   0.000D+00 0.000D+00 0.208D+00 0.792D+00
 Coeff:     -0.270D+00 0.453D+00 0.205D+00 0.612D+00
 Gap=     0.594 Goal=   None    Shift=    0.000
 RMSDP=2.00D-03 MaxDP=5.64D-02 DE=-3.92D-01 OVMax= 1.52D-01

 Cycle   5  Pass 1  IDiag  1:
 RMSU=  4.05D-04    CP:  7.75D-03  3.00D+00  1.22D+00  5.37D-01
 FoFJK:  IHMeth= 1 ICntrl=     0 DoSepK=T KAlg= 1 I1Cent= 0 FoldK=F
 E= -151.191594382442     Delta-E=       -0.271422767732 Rises=F Damp=F
 DIIS: error= 9.40D-03 at cycle   5 NSaved=   5.
 NSaved= 5 IEnMin= 5 EnMin= -151.191594382442     IErMin= 5 ErrMin= 9.40D-03
 ErrMax= 9.40D-03 EMaxC= 1.00D-01 BMatC= 2.93D-02 BMatP= 4.45D-01
 IDIUse=3 WtCom= 9.06D-01 WtEn= 9.40D-02
 Coeff-Com: -0.994D-01 0.180D+00-0.144D+00 0.773D-01 0.987D+00
 Coeff-En:   0.000D+00 0.000D+00 0.000D+00 0.000D+00 0.100D+01
 Coeff:     -0.901D-01 0.163D+00-0.131D+00 0.701D-01 0.988D+00
 Gap=     0.546 Goal=   None    Shift=    0.000
 RMSDP=4.29D-04 MaxDP=1.62D-02 DE=-2.71D-01 OVMax= 2.57D-02

 Cycle   6  Pass 1  IDiag  1:
 RMSU=  8.62D-05    CP:  7.88D-03  3.00D+00  1.24D+00  6.35D-01  1.10D+00
 FoFJK:  IHMeth= 1 ICntrl=     0 DoSepK=T KAlg= 1 I1Cent= 0 FoldK=F
 E= -151.211740547401     Delta-E=       -0.020146164959 Rises=F Damp=F
 DIIS: error= 2.17D-03 at cycle   6 NSaved=   6.
 NSaved= 6 IEnMin= 6 EnMin= -151.211740547401     IErMin= 6 ErrMin= 2.17D-03
 ErrMax= 2.17D-03 EMaxC= 1.00D-01 BMatC= 9.97D-04 BMatP= 2.93D-02
 IDIUse=3 WtCom= 9.78D-01 WtEn= 2.17D-02
 Coeff-Com: -0.362D-01 0.698D-01 0.162D-02-0.226D-01-0.370D+00 0.136D+01
 Coeff-En:   0.000D+00 0.000D+00 0.000D+00 0.000D+00 0.000D+00 0.100D+01
 Coeff:     -0.355D-01 0.683D-01 0.159D-02-0.222D-01-0.362D+00 0.135D+01
 Gap=     0.542 Goal=   None    Shift=    0.000
 RMSDP=8.97D-05 MaxDP=2.19D-03 DE=-2.01D-02 OVMax= 5.08D-03

 Cycle   7  Pass 1  IDiag  1:
 RMSU=  2.56D-05    CP:  7.91D-03  3.00D+00  1.24D+00  6.49D-01  1.12D+00
                    CP:  1.43D+00
 FoFJK:  IHMeth= 1 ICntrl=     0 DoSepK=T KAlg= 1 I1Cent= 0 FoldK=F
 E= -151.212432198434     Delta-E=       -0.000691651033 Rises=F Damp=F
 DIIS: error= 1.14D-03 at cycle   7 NSaved=   7.
 NSaved= 7 IEnMin= 7 EnMin= -151.212432198434     IErMin= 7 ErrMin= 1.14D-03
 ErrMax= 1.14D-03 EMaxC= 1.00D-01 BMatC= 3.10D-04 BMatP= 9.97D-04
 IDIUse=3 WtCom= 9.89D-01 WtEn= 1.14D-02
 Coeff-Com: -0.466D-02 0.918D-02 0.712D-02 0.750D-02-0.998D-01-0.345D+00
 Coeff-Com:  0.143D+01
 Coeff-En:   0.000D+00 0.000D+00 0.000D+00 0.000D+00 0.000D+00 0.000D+00
 Coeff-En:   0.100D+01
 Coeff:     -0.460D-02 0.908D-02 0.704D-02 0.742D-02-0.987D-01-0.341D+00
 Coeff:      0.142D+01
 Gap=     0.537 Goal=   None    Shift=    0.000
 RMSDP=7.33D-05 MaxDP=2.01D-03 DE=-6.92D-04 OVMax= 4.39D-03

 Cycle   8  Pass 1  IDiag  1:
 RMSU=  9.42D-06    CP:  7.95D-03  3.00D+00  1.24D+00  6.64D-01  1.11D+00
                    CP:  1.67D+00  1.72D+00
 FoFJK:  IHMeth= 1 ICntrl=     0 DoSepK=T KAlg= 1 I1Cent= 0 FoldK=F
 E= -151.212708450635     Delta-E=       -0.000276252201 Rises=F Damp=F
 DIIS: error= 1.38D-04 at cycle   8 NSaved=   8.
 NSaved= 8 IEnMin= 8 EnMin= -151.212708450635     IErMin= 8 ErrMin= 1.38D-04
 ErrMax= 1.38D-04 EMaxC= 1.00D-01 BMatC= 4.65D-06 BMatP= 3.10D-04
 IDIUse=3 WtCom= 9.99D-01 WtEn= 1.38D-03
 Coeff-Com: -0.416D-03 0.652D-03-0.179D-02 0.257D-02 0.357D-01-0.392D-01
 Coeff-Com: -0.240D+00 0.124D+01
 Coeff-En:   0.000D+00 0.000D+00 0.000D+00 0.000D+00 0.000D+00 0.000D+00
 Coeff-En:   0.000D+00 0.100D+01
 Coeff:     -0.415D-03 0.651D-03-0.178D-02 0.256D-02 0.356D-01-0.392D-01
 Coeff:     -0.240D+00 0.124D+01
 Gap=     0.537 Goal=   None    Shift=    0.000
 RMSDP=1.35D-05 MaxDP=4.08D-04 DE=-2.76D-04 OVMax= 7.02D-04

 Cycle   9  Pass 1  IDiag  1:
 RMSU=  1.53D-06    CP:  7.95D-03  3.00D+00  1.24D+00  6.66D-01  1.10D+00
                    CP:  1.69D+00  1.88D+00  1.36D+00
 FoFJK:  IHMeth= 1 ICntrl=     0 DoSepK=T KAlg= 1 I1Cent= 0 FoldK=F
 E= -151.212713839172     Delta-E=       -0.000005388536 Rises=F Damp=F
 DIIS: error= 8.91D-06 at cycle   9 NSaved=   9.
 NSaved= 9 IEnMin= 9 EnMin= -151.212713839172     IErMin= 9 ErrMin= 8.91D-06
 ErrMax= 8.91D-06 EMaxC= 1.00D-01 BMatC= 2.05D-08 BMatP= 4.65D-06
 IDIUse=1 WtCom= 1.00D+00 WtEn= 0.00D+00
 Coeff-Com: -0.903D-04 0.145D-03 0.149D-04-0.178D-03-0.183D-02 0.888D-02
 Coeff-Com:  0.781D-03-0.121D+00 0.111D+01
 Coeff:     -0.903D-04 0.145D-03 0.149D-04-0.178D-03-0.183D-02 0.888D-02
 Coeff:      0.781D-03-0.121D+00 0.111D+01
 Gap=     0.537 Goal=   None    Shift=    0.000
 RMSDP=8.44D-07 MaxDP=2.28D-05 DE=-5.39D-06 OVMax= 6.79D-05

 Cycle  10  Pass 1  IDiag  1:
 RMSU=  3.22D-07    CP:  7.95D-03  3.00D+00  1.24D+00  6.66D-01  1.10D+00
                    CP:  1.69D+00  1.88D+00  1.38D+00  1.23D+00
 FoFJK:  IHMeth= 1 ICntrl=     0 DoSepK=T KAlg= 1 I1Cent= 0 FoldK=F
 E= -151.212713869642     Delta-E=       -0.000000030470 Rises=F Damp=F
 DIIS: error= 3.46D-06 at cycle  10 NSaved=  10.
 NSaved=10 IEnMin=10 EnMin= -151.212713869642     IErMin=10 ErrMin= 3.46D-06
 ErrMax= 3.46D-06 EMaxC= 1.00D-01 BMatC= 3.34D-09 BMatP= 2.05D-08
 IDIUse=1 WtCom= 1.00D+00 WtEn= 0.00D+00
 Coeff-Com: -0.213D-04 0.335D-04 0.951D-04-0.182D-03-0.242D-02 0.505D-02
 Coeff-Com:  0.104D-01-0.945D-01 0.350D+00 0.731D+00
 Coeff:     -0.213D-04 0.335D-04 0.951D-04-0.182D-03-0.242D-02 0.505D-02
 Coeff:      0.104D-01-0.945D-01 0.350D+00 0.731D+00
 Gap=     0.537 Goal=   None    Shift=    0.000
 RMSDP=1.88D-07 MaxDP=5.61D-06 DE=-3.05D-08 OVMax= 1.76D-05

 Cycle  11  Pass 1  IDiag  1:
 RMSU=  1.12D-07    CP:  7.95D-03  3.00D+00  1.24D+00  6.66D-01  1.10D+00
                    CP:  1.69D+00  1.88D+00  1.38D+00  1.27D+00  1.07D+00
 FoFJK:  IHMeth= 1 ICntrl=     0 DoSepK=T KAlg= 1 I1Cent= 0 FoldK=F
 E= -151.212713873134     Delta-E=       -0.000000003493 Rises=F Damp=F
 DIIS: error= 1.24D-06 at cycle  11 NSaved=  11.
 NSaved=11 IEnMin=11 EnMin= -151.212713873134     IErMin=11 ErrMin= 1.24D-06
 ErrMax= 1.24D-06 EMaxC= 1.00D-01 BMatC= 4.70D-10 BMatP= 3.34D-09
 IDIUse=1 WtCom= 1.00D+00 WtEn= 0.00D+00
 Coeff-Com:  0.138D-04-0.245D-04 0.119D-04 0.379D-05 0.416D-04-0.523D-03
 Coeff-Com: -0.122D-02 0.175D-01-0.174D+00 0.114D+00 0.104D+01
 Coeff:      0.138D-04-0.245D-04 0.119D-04 0.379D-05 0.416D-04-0.523D-03
 Coeff:     -0.122D-02 0.175D-01-0.174D+00 0.114D+00 0.104D+01
 Gap=     0.537 Goal=   None    Shift=    0.000
 RMSDP=1.43D-07 MaxDP=3.81D-06 DE=-3.49D-09 OVMax= 1.57D-05

 Cycle  12  Pass 1  IDiag  1:
 RMSU=  5.89D-08    CP:  7.95D-03  3.00D+00  1.24D+00  6.66D-01  1.10D+00
                    CP:  1.69D+00  1.88D+00  1.38D+00  1.28D+00  1.28D+00
                    CP:  1.28D+00
 FoFJK:  IHMeth= 1 ICntrl=     0 DoSepK=T KAlg= 1 I1Cent= 0 FoldK=F
 E= -151.212713874218     Delta-E=       -0.000000001083 Rises=F Damp=F
 DIIS: error= 4.24D-07 at cycle  12 NSaved=  12.
 NSaved=12 IEnMin=12 EnMin= -151.212713874218     IErMin=12 ErrMin= 4.24D-07
 ErrMax= 4.24D-07 EMaxC= 1.00D-01 BMatC= 8.93D-11 BMatP= 4.70D-10
 IDIUse=1 WtCom= 1.00D+00 WtEn= 0.00D+00
 Coeff-Com:  0.161D-05-0.173D-05-0.121D-04 0.138D-04 0.294D-03-0.876D-04
 Coeff-Com: -0.178D-02 0.865D-02-0.812D-03-0.159D+00-0.297D+00 0.145D+01
 Coeff:      0.161D-05-0.173D-05-0.121D-04 0.138D-04 0.294D-03-0.876D-04
 Coeff:     -0.178D-02 0.865D-02-0.812D-03-0.159D+00-0.297D+00 0.145D+01
 Gap=     0.537 Goal=   None    Shift=    0.000
 RMSDP=9.48D-08 MaxDP=2.82D-06 DE=-1.08D-09 OVMax= 1.17D-05

 Cycle  13  Pass 1  IDiag  1:
 RMSU=  1.42D-08    CP:  7.95D-03  3.00D+00  1.24D+00  6.66D-01  1.10D+00
                    CP:  1.69D+00  1.88D+00  1.38D+00  1.29D+00  1.36D+00
                    CP:  1.56D+00  1.78D+00
 FoFJK:  IHMeth= 1 ICntrl=     0 DoSepK=T KAlg= 1 I1Cent= 0 FoldK=F
 E= -151.212713874458     Delta-E=       -0.000000000241 Rises=F Damp=F
 DIIS: error= 1.58D-07 at cycle  13 NSaved=  13.
 NSaved=13 IEnMin=13 EnMin= -151.212713874458     IErMin=13 ErrMin= 1.58D-07
 ErrMax= 1.58D-07 EMaxC= 1.00D-01 BMatC= 6.60D-12 BMatP= 8.93D-11
 IDIUse=1 WtCom= 1.00D+00 WtEn= 0.00D+00
 Coeff-Com:  0.992D-06-0.178D-05 0.490D-05-0.919D-05-0.143D-03 0.173D-03
 Coeff-Com:  0.904D-03-0.719D-02 0.319D-01 0.391D-01-0.474D-01-0.509D+00
 Coeff-Com:  0.149D+01
 Coeff:      0.992D-06-0.178D-05 0.490D-05-0.919D-05-0.143D-03 0.173D-03
 Coeff:      0.904D-03-0.719D-02 0.319D-01 0.391D-01-0.474D-01-0.509D+00
 Coeff:      0.149D+01
 Gap=     0.537 Goal=   None    Shift=    0.000
 RMSDP=3.85D-08 MaxDP=1.08D-06 DE=-2.41D-10 OVMax= 4.17D-06

 Cycle  14  Pass 1  IDiag  1:
 RMSU=  5.49D-09    CP:  7.95D-03  3.00D+00  1.24D+00  6.66D-01  1.10D+00
                    CP:  1.69D+00  1.88D+00  1.38D+00  1.29D+00  1.37D+00
                    CP:  1.63D+00  2.13D+00  1.66D+00
 FoFJK:  IHMeth= 1 ICntrl=     0 DoSepK=T KAlg= 1 I1Cent= 0 FoldK=F
 E= -151.212713874506     Delta-E=       -0.000000000048 Rises=F Damp=F
 DIIS: error= 4.23D-08 at cycle  14 NSaved=  14.
 NSaved=14 IEnMin=14 EnMin= -151.212713874506     IErMin=14 ErrMin= 4.23D-08
 ErrMax= 4.23D-08 EMaxC= 1.00D-01 BMatC= 5.89D-13 BMatP= 6.60D-12
 IDIUse=1 WtCom= 1.00D+00 WtEn= 0.00D+00
 Coeff-Com:  0.134D-06-0.259D-06-0.336D-06 0.486D-06 0.188D-04-0.180D-04
 Coeff-Com: -0.177D-03 0.158D-02-0.912D-02-0.134D-02 0.339D-01 0.540D-01
 Coeff-Com: -0.428D+00 0.135D+01
 Coeff:      0.134D-06-0.259D-06-0.336D-06 0.486D-06 0.188D-04-0.180D-04
 Coeff:     -0.177D-03 0.158D-02-0.912D-02-0.134D-02 0.339D-01 0.540D-01
 Coeff:     -0.428D+00 0.135D+01
 Gap=     0.537 Goal=   None    Shift=    0.000
 RMSDP=7.01D-09 MaxDP=1.86D-07 DE=-4.78D-11 OVMax= 7.44D-07

 SCF Done:  E(RLC-B+HF-LYP) =  -151.212713875     A.U. after   14 cycles
             Convg  =    0.7010D-08             -V/T =  2.0063
 KE= 1.502710694354D+02 PE=-4.315606198155D+02 EE= 9.344468184489D+01
 Leave Link  502 at Mon May 11 13:22:47 2020, MaxMem= 1073741824 cpu:     366.7
 (Enter /home/matheus/.gaussian/g09/l601.exe)
 Copying SCF densities to generalized density rwf, IOpCl= 0 IROHF=0.

 **********************************************************************

            Population analysis using the SCF density.

 **********************************************************************

 Orbital symmetries:
       Occupied  (A) (A) (A) (A) (A) (A) (A) (A) (A)
       Virtual   (A) (A) (A) (A) (A) (A) (A) (A) (A) (A) (A) (A)
                 (A) (A) (A) (A) (A) (A) (A) (A) (A) (A) (A) (A)
                 (A) (A) (A) (A) (A) (A) (A) (A) (A) (A) (A) (A)
                 (A) (A) (A) (A) (A) (A) (A) (A) (A) (A) (A) (A)
                 (A) (A) (A) (A) (A) (A) (A) (A) (A) (A) (A) (A)
                 (A) (A) (A) (A) (A) (A) (A) (A) (A) (A) (A) (A)
                 (A) (A) (A) (A) (A) (A) (A) (A) (A) (A) (A) (A)
                 (A) (A) (A) (A) (A) (A) (A) (A) (A) (A) (A) (A)
                 (A) (A) (A) (A) (A) (A) (A) (A) (A) (A) (A) (A)
                 (A) (A) (A) (A) (A) (A) (A) (A) (A) (A) (A) (A)
                 (A) (A) (A) (A) (A) (A) (A) (A) (A) (A) (A) (A)
                 (A) (A) (A) (A) (A) (A) (A) (A) (A) (A) (A) (A)
                 (A) (A) (A) (A) (A) (A) (A) (A) (A) (A) (A) (A)
                 (A) (A) (A) (A) (A) (A) (A) (A) (A) (A) (A) (A)
                 (A) (A) (A) (A) (A) (A) (A) (A) (A) (A) (A) (A)
                 (A) (A) (A) (A) (A) (A) (A) (A)
 The electronic state is 1-A.
 Alpha  occ. eigenvalues --  -19.48730 -19.48700  -1.46538  -1.21666  -0.77686
 Alpha  occ. eigenvalues --   -0.70425  -0.63543  -0.54074  -0.51770
 Alpha virt. eigenvalues --    0.01948   0.03478   0.06861   0.07947   0.10043
 Alpha virt. eigenvalues --    0.10106   0.11919   0.13679   0.16577   0.17057
 Alpha virt. eigenvalues --    0.17988   0.19537   0.21872   0.23630   0.25463
 Alpha virt. eigenvalues --    0.26180   0.29658   0.30330   0.32120   0.33013
 Alpha virt. eigenvalues --    0.33556   0.36554   0.37128   0.39944   0.41197
 Alpha virt. eigenvalues --    0.43161   0.44125   0.47103   0.47881   0.49508
 Alpha virt. eigenvalues --    0.53253   0.57456   0.62722   0.63930   0.67342
 Alpha virt. eigenvalues --    0.72271   0.76609   0.78161   0.78769   0.81239
 Alpha virt. eigenvalues --    0.82251   0.83356   0.89029   0.90176   0.92319
 Alpha virt. eigenvalues --    0.93288   0.94619   0.95503   0.97834   0.98673
 Alpha virt. eigenvalues --    1.00148   1.01586   1.05367   1.11612   1.12795
 Alpha virt. eigenvalues --    1.15027   1.16393   1.21033   1.23486   1.25490
 Alpha virt. eigenvalues --    1.26731   1.29579   1.29926   1.31739   1.33293
 Alpha virt. eigenvalues --    1.34441   1.34687   1.38457   1.40864   1.43259
 Alpha virt. eigenvalues --    1.46882   1.51608   1.52971   1.54285   1.57699
 Alpha virt. eigenvalues --    1.62817   1.67670   1.69504   1.76937   1.83293
 Alpha virt. eigenvalues --    1.87121   1.93298   2.04031   2.06947   2.11848
 Alpha virt. eigenvalues --    2.13769   2.17406   2.26064   2.30617   2.32757
 Alpha virt. eigenvalues --    2.38269   2.39715   2.44340   2.46829   2.48302
 Alpha virt. eigenvalues --    2.59780   2.63284   2.67281   2.71478   2.75176
 Alpha virt. eigenvalues --    2.77058   2.83707   2.90076   3.00642   3.06820
 Alpha virt. eigenvalues --    3.15696   3.23103   3.23418   3.25381   3.30373
 Alpha virt. eigenvalues --    3.42780   3.55999   3.71957   3.75928   3.77944
 Alpha virt. eigenvalues --    3.78763   3.81412   3.81673   3.82790   3.85938
 Alpha virt. eigenvalues --    3.90077   3.90646   3.96539   3.98209   3.99585
 Alpha virt. eigenvalues --    4.07324   4.13917   4.17114   4.22726   4.26224
 Alpha virt. eigenvalues --    4.30475   4.36214   4.40422   4.45616   4.47154
 Alpha virt. eigenvalues --    4.50158   4.67812   4.75486   4.86877   5.10676
 Alpha virt. eigenvalues --    5.14642   5.16802   5.33659   5.34510   5.39102
 Alpha virt. eigenvalues --    5.65739   6.07134   6.25067   6.37654   6.45563
 Alpha virt. eigenvalues --    6.49721   6.55223   6.68547   6.73675   6.85806
 Alpha virt. eigenvalues --    7.03717   7.04160   7.07617   7.10451   7.14213
 Alpha virt. eigenvalues --    7.15995   7.19515   7.22724   7.26413   7.33840
 Alpha virt. eigenvalues --    7.38749   7.48479   7.71474   7.83574   8.05125
 Alpha virt. eigenvalues --    8.35906   8.37734  10.88541  14.32111  14.82509
 Alpha virt. eigenvalues --   14.86185  14.88698  15.09654  29.02206  29.02379
 Alpha virt. eigenvalues --   29.07000  29.12672  29.22161  49.09269 148.30840
 Alpha virt. eigenvalues --  148.38082 148.70149 752.49179
          Condensed to atoms (all electrons):
              1          2          3          4          5
     1  O    8.204161  -0.173593   0.192591  -0.002800   0.000628
     2  O   -0.173593   8.227464   0.011171   0.184994  -0.001626
     3  H    0.192591   0.011171   0.574225   0.000384  -0.001364
     4  H   -0.002800   0.184994   0.000384   0.577763  -0.002812
     5  Kr   0.000628  -0.001626  -0.001364  -0.002812   0.001245
 Mulliken atomic charges:
              1
     1  O   -0.220987
     2  O   -0.248409
     3  H    0.222994
     4  H    0.242472
     5  Kr   0.003930
 Sum of Mulliken atomic charges =   0.00000
 Mulliken charges with hydrogens summed into heavy atoms:
              1
     1  O    0.002007
     2  O   -0.005937
     5  Kr   0.003930
 Sum of Mulliken charges with hydrogens summed into heavy atoms =   0.00000
          Condensed to fragments (all electrons):
     1      -0.003930
     2       0.003930
 Electronic spatial extent (au):  <R**2>=            319.6322
 Charge=              0.0000 electrons
 Dipole moment (field-independent basis, Debye):
    X=             -1.9803    Y=             -0.1755    Z=              1.7076  Tot=              2.6207
 Quadrupole moment (field-independent basis, Debye-Ang):
   XX=            -18.4623   YY=            -10.0174   ZZ=            -11.1437
   XY=             -2.1560   XZ=              3.0261   YZ=             -1.9764
 Traceless Quadrupole moment (field-independent basis, Debye-Ang):
   XX=             -5.2545   YY=              3.1904   ZZ=              2.0641
   XY=             -2.1560   XZ=              3.0261   YZ=             -1.9764
 Octapole moment (field-independent basis, Debye-Ang**2):
  XXX=            -87.9911  YYY=             -1.2326  ZZZ=              1.4572  XYY=            -22.3227
  XXY=             -5.9165  XXZ=              5.5796  XZZ=            -22.1649  YZZ=             -1.9432
  YYZ=              2.5047  XYZ=             -3.8243
 Hexadecapole moment (field-independent basis, Debye-Ang**3):
 XXXX=           -333.9856 YYYY=            -43.3646 ZZZZ=            -10.5033 XXXY=            -11.8998
 XXXZ=             10.8667 YYYX=             -3.6769 YYYZ=             -2.9436 ZZZX=              2.9188
 ZZZY=             -2.1657 XXYY=            -57.9426 XXZZ=            -47.9228 YYZZ=             -9.2303
 XXYZ=             -7.6169 YYXZ=              4.6161 ZZXY=             -3.3666
 N-N= 3.663215466067D+01 E-N=-4.315606244932D+02  KE= 1.502710694354D+02
 No NMR shielding tensors so no spin-rotation constants.
 Leave Link  601 at Mon May 11 13:22:47 2020, MaxMem= 1073741824 cpu:       0.7
 (Enter /home/matheus/.gaussian/g09/l122.exe)
 Counterpoise: doing DCBS calculation for fragment   2 NewBq=T
 Leave Link  122 at Mon May 11 13:22:47 2020, MaxMem= 1073741824 cpu:       0.0
 (Enter /home/matheus/.gaussian/g09/l301.exe)
 Basis read from rwf:  (5D, 7F)
 No pseudopotential information found on rwf file.
 There are   197 symmetry adapted basis functions of A   symmetry.
 Integral buffers will be    131072 words long.
 Raffenetti 2 integral format.
 Two-electron integral symmetry is turned on.
   197 basis functions,   415 primitive gaussians,   229 cartesian basis functions
    18 alpha electrons       18 beta electrons
       nuclear repulsion energy         0.0000000000 Hartrees.
 IExCor=10402 DFT=T Ex=LC-B+HF Corr=LYP ExCW=0 ScaHFX=  1.000000
 ScaDFX=  1.000000  1.000000  1.000000  1.000000 ScalE2=  1.000000  1.000000
 IRadAn=      5 IRanWt=     -1 IRanGd=            0 ICorTp=0
  HFx wShort=  0.000000 wLong=  1.350000 cFull=  0.000000 cShort=  0.000000 cLong=  1.000000
  DFx wShort=  0.000000 wLong=  1.350000 cFull=  0.000000 cShort=  0.000000 cLong=  1.000000
 NAtoms=    5 NActive=    5 NUniq=    5 SFac= 1.00D+00 NAtFMM=   60 NAOKFM=F Big=F
 No density basis found on file   718.
 Leave Link  301 at Mon May 11 13:22:47 2020, MaxMem= 1073741824 cpu:       0.2
 (Enter /home/matheus/.gaussian/g09/l302.exe)
 NPDir=0 NMtPBC=     1 NCelOv=     1 NCel=       1 NClECP=     1 NCelD=      1
         NCelK=      1 NCelE2=     1 NClLst=     1 CellRange=     0.0.
 One-electron integrals computed using PRISM.
 NBasis=   197 RedAO= T  NBF=   197
 NBsUse=   197 1.00D-06 NBFU=   197
 Precomputing XC quadrature grid using
 IXCGrd= 2 IRadAn=           5 IRanWt=          -1 IRanGd=           0 AccXCQ= 0.00D+00.
 NRdTot=     427 NPtTot=      123512 NUsed=      126579 NTot=      126611
 NSgBfM=   229   229   229   229   229 NAtAll=     5     5.
 Leave Link  302 at Mon May 11 13:22:47 2020, MaxMem= 1073741824 cpu:       0.9
 (Enter /home/matheus/.gaussian/g09/l303.exe)
 DipDrv:  MaxL=1.
 Leave Link  303 at Mon May 11 13:22:47 2020, MaxMem= 1073741824 cpu:       0.2
 (Enter /home/matheus/.gaussian/g09/l401.exe)
 Harris functional with IExCor=10402 diagonalized for initial guess.
 ExpMin= 2.53D-02 ExpMax= 1.17D+07 ExpMxC= 1.33D+04 IAcc=3 IRadAn=         5 AccDes= 0.00D+00
 HarFok:  IExCor=10402 AccDes= 0.00D+00 IRadAn=         5 IDoV= 1
 ScaDFX=  1.000000  1.000000  1.000000  1.000000
 FoFCou: FMM=F IPFlag=           0 FMFlag=      100000 FMFlg1=           0
         NFxFlg=           0 DoJE=T BraDBF=F KetDBF=T FulRan=T
         Omega=  0.000000  0.000000  1.000000  0.000000  0.000000 ICntrl=     500 IOpCl=  0
         NMat0=    1 NMatS0=    1 NMatT0=    0 NMatD0=    1 NMtDS0=    0 NMtDT0=    0
         I1Cent=           4 NGrid=           0.
 Petite list used in FoFCou.
 Harris En= -2731.73457680624    
 Initial guess orbital symmetries:
       Occupied  (A) (A) (A) (A) (A) (A) (A) (A) (A) (A) (A) (A)
                 (A) (A) (A) (A) (A) (A)
       Virtual   (A) (A) (A) (A) (A) (A) (A) (A) (A) (A) (A) (A)
                 (A) (A) (A) (A) (A) (A) (A) (A) (A) (A) (A) (A)
                 (A) (A) (A) (A) (A) (A) (A) (A) (A) (A) (A) (A)
                 (A) (A) (A) (A) (A) (A) (A) (A) (A) (A) (A) (A)
                 (A) (A) (A) (A) (A) (A) (A) (A) (A) (A) (A) (A)
                 (A) (A) (A) (A) (A) (A) (A) (A) (A) (A) (A) (A)
                 (A) (A) (A) (A) (A) (A) (A) (A) (A) (A) (A) (A)
                 (A) (A) (A) (A) (A) (A) (A) (A) (A) (A) (A) (A)
                 (A) (A) (A) (A) (A) (A) (A) (A) (A) (A) (A) (A)
                 (A) (A) (A) (A) (A) (A) (A) (A) (A) (A) (A) (A)
                 (A) (A) (A) (A) (A) (A) (A) (A) (A) (A) (A) (A)
                 (A) (A) (A) (A) (A) (A) (A) (A) (A) (A) (A) (A)
                 (A) (A) (A) (A) (A) (A) (A) (A) (A) (A) (A) (A)
                 (A) (A) (A) (A) (A) (A) (A) (A) (A) (A) (A) (A)
                 (A) (A) (A) (A) (A) (A) (A) (A) (A) (A) (A)
 The electronic state of the initial guess is 1-A.
 Leave Link  401 at Mon May 11 13:22:48 2020, MaxMem= 1073741824 cpu:       4.0
 (Enter /home/matheus/.gaussian/g09/l502.exe)
 Closed shell SCF:
 Requested convergence on RMS density matrix=1.00D-08 within 128 cycles.
 Requested convergence on MAX density matrix=1.00D-06.
 Requested convergence on             energy=1.00D-06.
 No special actions if energy rises.
 Using DIIS extrapolation, IDIIS=  1040.
 Integral symmetry usage will be decided dynamically.
       126521 words used for storage of precomputed grid.
 IEnd=      305468 IEndB=      305468 NGot=  1073741824 MDV=  1073505667
 LenX=  1073505667 LenY=  1073452785
 Fock matrices will be formed incrementally for  20 cycles.

 Cycle   1  Pass 1  IDiag  1:
 FoFJK:  IHMeth= 1 ICntrl=     0 DoSepK=T KAlg= 1 I1Cent= 0 FoldK=F
 FoFCou: FMM=F IPFlag=           0 FMFlag=      100000 FMFlg1=           0
         NFxFlg=           0 DoJE=T BraDBF=F KetDBF=F FulRan=T
         Omega=  0.000000  0.000000  1.000000  0.000000  0.000000 ICntrl=     500 IOpCl=  0
         NMat0=    1 NMatS0=    1 NMatT0=    0 NMatD0=    1 NMtDS0=    0 NMtDT0=    0
         I1Cent=           0 NGrid=           0.
 Symmetry not used in FoFCou.
 E= -2752.70986988156    
 DIIS: error= 3.87D-02 at cycle   1 NSaved=   1.
 NSaved= 1 IEnMin= 1 EnMin= -2752.70986988156     IErMin= 1 ErrMin= 3.87D-02
 ErrMax= 3.87D-02 EMaxC= 1.00D-01 BMatC= 1.18D+00 BMatP= 1.18D+00
 IDIUse=3 WtCom= 6.13D-01 WtEn= 3.87D-01
 Coeff-Com:  0.100D+01
 Coeff-En:   0.100D+01
 Coeff:      0.100D+01
 Gap=     0.766 Goal=   None    Shift=    0.000
 GapD=    0.766 DampG=2.000 DampE=0.500 DampFc=1.0000 IDamp=-1.
 RMSDP=4.95D-03 MaxDP=2.25D-01              OVMax= 3.37D-01

 Cycle   2  Pass 1  IDiag  1:
 RMSU=  3.42D-03    CP:  1.05D+00
 FoFJK:  IHMeth= 1 ICntrl=     0 DoSepK=T KAlg= 1 I1Cent= 0 FoldK=F
 E= -2753.27690297421     Delta-E=       -0.567033092650 Rises=F Damp=F
 DIIS: error= 2.30D-02 at cycle   2 NSaved=   2.
 NSaved= 2 IEnMin= 2 EnMin= -2753.27690297421     IErMin= 2 ErrMin= 2.30D-02
 ErrMax= 2.30D-02 EMaxC= 1.00D-01 BMatC= 3.64D-01 BMatP= 1.18D+00
 IDIUse=3 WtCom= 7.70D-01 WtEn= 2.30D-01
 Coeff-Com:  0.351D+00 0.649D+00
 Coeff-En:   0.000D+00 0.100D+01
 Coeff:      0.270D+00 0.730D+00
 Gap=     0.609 Goal=   None    Shift=    0.000
 RMSDP=2.16D-03 MaxDP=1.30D-01 DE=-5.67D-01 OVMax= 7.18D-02

 Cycle   3  Pass 1  IDiag  1:
 RMSU=  8.43D-04    CP:  1.03D+00  6.39D-01
 FoFJK:  IHMeth= 1 ICntrl=     0 DoSepK=T KAlg= 1 I1Cent= 0 FoldK=F
 E= -2753.40795863177     Delta-E=       -0.131055657560 Rises=F Damp=F
 DIIS: error= 2.74D-03 at cycle   3 NSaved=   3.
 NSaved= 3 IEnMin= 3 EnMin= -2753.40795863177     IErMin= 3 ErrMin= 2.74D-03
 ErrMax= 2.74D-03 EMaxC= 1.00D-01 BMatC= 4.25D-03 BMatP= 3.64D-01
 IDIUse=3 WtCom= 9.73D-01 WtEn= 2.74D-02
 Coeff-Com: -0.866D-02 0.693D-01 0.939D+00
 Coeff-En:   0.000D+00 0.000D+00 0.100D+01
 Coeff:     -0.842D-02 0.674D-01 0.941D+00
 Gap=     0.575 Goal=   None    Shift=    0.000
 RMSDP=3.33D-04 MaxDP=1.44D-02 DE=-1.31D-01 OVMax= 1.05D-02

 Cycle   4  Pass 1  IDiag  1:
 RMSU=  2.25D-04    CP:  1.03D+00  6.58D-01  9.99D-01
 FoFJK:  IHMeth= 1 ICntrl=     0 DoSepK=T KAlg= 1 I1Cent= 0 FoldK=F
 E= -2753.40945967346     Delta-E=       -0.001501041691 Rises=F Damp=F
 DIIS: error= 3.18D-04 at cycle   4 NSaved=   4.
 NSaved= 4 IEnMin= 4 EnMin= -2753.40945967346     IErMin= 4 ErrMin= 3.18D-04
 ErrMax= 3.18D-04 EMaxC= 1.00D-01 BMatC= 3.80D-05 BMatP= 4.25D-03
 IDIUse=3 WtCom= 9.97D-01 WtEn= 3.18D-03
 Coeff-Com: -0.662D-02-0.390D-02-0.436D-02 0.101D+01
 Coeff-En:   0.000D+00 0.000D+00 0.000D+00 0.100D+01
 Coeff:     -0.659D-02-0.389D-02-0.435D-02 0.101D+01
 Gap=     0.581 Goal=   None    Shift=    0.000
 RMSDP=5.03D-05 MaxDP=2.26D-03 DE=-1.50D-03 OVMax= 3.47D-03

 Cycle   5  Pass 1  IDiag  1:
 RMSU=  2.01D-05    CP:  1.03D+00  6.62D-01  1.02D+00  1.09D+00
 FoFJK:  IHMeth= 1 ICntrl=     0 DoSepK=T KAlg= 1 I1Cent= 0 FoldK=F
 E= -2753.40952077630     Delta-E=       -0.000061102839 Rises=F Damp=F
 DIIS: error= 5.09D-05 at cycle   5 NSaved=   5.
 NSaved= 5 IEnMin= 5 EnMin= -2753.40952077630     IErMin= 5 ErrMin= 5.09D-05
 ErrMax= 5.09D-05 EMaxC= 1.00D-01 BMatC= 4.92D-07 BMatP= 3.80D-05
 IDIUse=1 WtCom= 1.00D+00 WtEn= 0.00D+00
 Coeff-Com: -0.750D-04-0.153D-02 0.142D-02-0.169D+00 0.117D+01
 Coeff:     -0.750D-04-0.153D-02 0.142D-02-0.169D+00 0.117D+01
 Gap=     0.580 Goal=   None    Shift=    0.000
 RMSDP=1.06D-05 MaxDP=4.44D-04 DE=-6.11D-05 OVMax= 6.34D-04

 Cycle   6  Pass 1  IDiag  1:
 RMSU=  9.63D-07    CP:  1.03D+00  6.62D-01  1.03D+00  1.11D+00  1.20D+00
 FoFJK:  IHMeth= 1 ICntrl=     0 DoSepK=T KAlg= 1 I1Cent= 0 FoldK=F
 E= -2753.40952218493     Delta-E=       -0.000001408630 Rises=F Damp=F
 DIIS: error= 1.98D-06 at cycle   6 NSaved=   6.
 NSaved= 6 IEnMin= 6 EnMin= -2753.40952218493     IErMin= 6 ErrMin= 1.98D-06
 ErrMax= 1.98D-06 EMaxC= 1.00D-01 BMatC= 9.53D-10 BMatP= 4.92D-07
 IDIUse=1 WtCom= 1.00D+00 WtEn= 0.00D+00
 Coeff-Com:  0.230D-04 0.120D-03-0.401D-03 0.119D-01-0.111D+00 0.110D+01
 Coeff:      0.230D-04 0.120D-03-0.401D-03 0.119D-01-0.111D+00 0.110D+01
 Gap=     0.580 Goal=   None    Shift=    0.000
 RMSDP=5.07D-07 MaxDP=2.29D-05 DE=-1.41D-06 OVMax= 2.27D-05

 Cycle   7  Pass 1  IDiag  1:
 RMSU=  5.75D-08    CP:  1.03D+00  6.62D-01  1.03D+00  1.11D+00  1.21D+00
                    CP:  1.13D+00
 FoFJK:  IHMeth= 1 ICntrl=     0 DoSepK=T KAlg= 1 I1Cent= 0 FoldK=F
 E= -2753.40952218561     Delta-E=       -0.000000000680 Rises=F Damp=F
 DIIS: error= 1.35D-07 at cycle   7 NSaved=   7.
 NSaved= 7 IEnMin= 7 EnMin= -2753.40952218561     IErMin= 7 ErrMin= 1.35D-07
 ErrMax= 1.35D-07 EMaxC= 1.00D-01 BMatC= 1.03D-11 BMatP= 9.53D-10
 IDIUse=1 WtCom= 1.00D+00 WtEn= 0.00D+00
 Coeff-Com:  0.249D-05 0.461D-05-0.340D-04 0.592D-03-0.263D-02-0.199D-01
 Coeff-Com:  0.102D+01
 Coeff:      0.249D-05 0.461D-05-0.340D-04 0.592D-03-0.263D-02-0.199D-01
 Coeff:      0.102D+01
 Gap=     0.580 Goal=   None    Shift=    0.000
 RMSDP=2.15D-08 MaxDP=1.01D-06 DE=-6.80D-10 OVMax= 1.30D-06

 Cycle   8  Pass 1  IDiag  1:
 RMSU=  8.80D-09    CP:  1.03D+00  6.62D-01  1.03D+00  1.11D+00  1.21D+00
                    CP:  1.14D+00  1.13D+00
 FoFJK:  IHMeth= 1 ICntrl=     0 DoSepK=T KAlg= 1 I1Cent= 0 FoldK=F
 E= -2753.40952218568     Delta-E=       -0.000000000067 Rises=F Damp=F
 DIIS: error= 3.31D-08 at cycle   8 NSaved=   8.
 NSaved= 8 IEnMin= 8 EnMin= -2753.40952218568     IErMin= 8 ErrMin= 3.31D-08
 ErrMax= 3.31D-08 EMaxC= 1.00D-01 BMatC= 4.17D-13 BMatP= 1.03D-11
 IDIUse=1 WtCom= 1.00D+00 WtEn= 0.00D+00
 Coeff-Com:  0.507D-07-0.208D-05 0.352D-05-0.211D-03 0.232D-02-0.279D-01
 Coeff-Com:  0.109D+00 0.917D+00
 Coeff:      0.507D-07-0.208D-05 0.352D-05-0.211D-03 0.232D-02-0.279D-01
 Coeff:      0.109D+00 0.917D+00
 Gap=     0.580 Goal=   None    Shift=    0.000
 RMSDP=4.43D-09 MaxDP=1.53D-07 DE=-6.73D-11 OVMax= 3.61D-07

 SCF Done:  E(RLC-B+HF-LYP) =  -2753.40952219     A.U. after    8 cycles
             Convg  =    0.4431D-08             -V/T =  2.0014
 KE= 2.749635260621D+03 PE=-6.579422888022D+03 EE= 1.076378105215D+03
 Leave Link  502 at Mon May 11 13:23:12 2020, MaxMem= 1073741824 cpu:     189.0
 (Enter /home/matheus/.gaussian/g09/l601.exe)
 Copying SCF densities to generalized density rwf, IOpCl= 0 IROHF=0.

 **********************************************************************

            Population analysis using the SCF density.

 **********************************************************************

 Orbital symmetries:
       Occupied  (A) (A) (A) (A) (A) (A) (A) (A) (A) (A) (A) (A)
                 (A) (A) (A) (A) (A) (A)
       Virtual   (A) (A) (A) (A) (A) (A) (A) (A) (A) (A) (A) (A)
                 (A) (A) (A) (A) (A) (A) (A) (A) (A) (A) (A) (A)
                 (A) (A) (A) (A) (A) (A) (A) (A) (A) (A) (A) (A)
                 (A) (A) (A) (A) (A) (A) (A) (A) (A) (A) (A) (A)
                 (A) (A) (A) (A) (A) (A) (A) (A) (A) (A) (A) (A)
                 (A) (A) (A) (A) (A) (A) (A) (A) (A) (A) (A) (A)
                 (A) (A) (A) (A) (A) (A) (A) (A) (A) (A) (A) (A)
                 (A) (A) (A) (A) (A) (A) (A) (A) (A) (A) (A) (A)
                 (A) (A) (A) (A) (A) (A) (A) (A) (A) (A) (A) (A)
                 (A) (A) (A) (A) (A) (A) (A) (A) (A) (A) (A) (A)
                 (A) (A) (A) (A) (A) (A) (A) (A) (A) (A) (A) (A)
                 (A) (A) (A) (A) (A) (A) (A) (A) (A) (A) (A) (A)
                 (A) (A) (A) (A) (A) (A) (A) (A) (A) (A) (A) (A)
                 (A) (A) (A) (A) (A) (A) (A) (A) (A) (A) (A) (A)
                 (A) (A) (A) (A) (A) (A) (A) (A) (A) (A) (A)
 The electronic state is 1-A.
 Alpha  occ. eigenvalues -- -511.65510 -67.17993 -60.85190 -60.85186 -60.85186
 Alpha  occ. eigenvalues --  -10.08107  -7.79670  -7.79669  -7.79669  -3.62633
 Alpha  occ. eigenvalues --   -3.62633  -3.62633  -3.62632  -3.62632  -1.17384
 Alpha  occ. eigenvalues --   -0.55371  -0.55367  -0.55365
 Alpha virt. eigenvalues --    0.02676   0.04771   0.07909   0.08670   0.11347
 Alpha virt. eigenvalues --    0.11847   0.12929   0.13175   0.15760   0.16748
 Alpha virt. eigenvalues --    0.17522   0.19223   0.20340   0.25686   0.26877
 Alpha virt. eigenvalues --    0.27573   0.28479   0.30884   0.33405   0.34473
 Alpha virt. eigenvalues --    0.35858   0.37276   0.38514   0.39957   0.41115
 Alpha virt. eigenvalues --    0.41728   0.43601   0.54135   0.55428   0.58861
 Alpha virt. eigenvalues --    0.59967   0.66286   0.68836   0.69235   0.71982
 Alpha virt. eigenvalues --    0.74766   0.76458   0.77977   0.80243   0.81535
 Alpha virt. eigenvalues --    0.82062   0.83537   0.84936   0.86376   0.88166
 Alpha virt. eigenvalues --    0.89031   0.89465   0.91485   0.92366   0.96842
 Alpha virt. eigenvalues --    0.97604   0.98977   1.00646   1.01214   1.03354
 Alpha virt. eigenvalues --    1.06552   1.08830   1.11790   1.14286   1.15767
 Alpha virt. eigenvalues --    1.18536   1.22130   1.26126   1.30116   1.32810
 Alpha virt. eigenvalues --    1.34220   1.38949   1.41797   1.48854   1.49349
 Alpha virt. eigenvalues --    1.55195   1.57109   1.63184   1.73342   1.74791
 Alpha virt. eigenvalues --    1.81445   1.81949   1.87391   1.98239   2.25075
 Alpha virt. eigenvalues --    2.29483   2.32275   2.32750   2.33891   2.36909
 Alpha virt. eigenvalues --    2.38118   2.40563   2.43391   2.45820   2.46759
 Alpha virt. eigenvalues --    2.48006   2.51152   2.51811   2.54586   2.56861
 Alpha virt. eigenvalues --    2.58430   2.60969   2.63518   2.65354   2.66372
 Alpha virt. eigenvalues --    2.67252   2.71354   2.75048   2.76832   2.77861
 Alpha virt. eigenvalues --    2.81156   2.84742   2.87222   2.90424   2.92725
 Alpha virt. eigenvalues --    2.99341   3.02813   3.04339   3.09136   3.18688
 Alpha virt. eigenvalues --    3.20860   3.27716   3.29976   3.38643   3.45848
 Alpha virt. eigenvalues --    3.60523   3.64442   3.81562   3.85749   4.03148
 Alpha virt. eigenvalues --    4.42325   4.43133   4.55904   4.60308   4.63685
 Alpha virt. eigenvalues --    4.72078   4.87082   4.87949   4.96324   5.02783
 Alpha virt. eigenvalues --    5.12235   5.26262   5.59035   5.63193   5.81033
 Alpha virt. eigenvalues --    5.89927   6.00147   6.10182   6.76568   6.82919
 Alpha virt. eigenvalues --    7.37596   7.49540   7.53097   7.61631   7.75159
 Alpha virt. eigenvalues --    7.77910   7.93913   8.15215   8.15956   8.20776
 Alpha virt. eigenvalues --    8.38335   8.50486   8.55291   8.85960   9.63891
 Alpha virt. eigenvalues --    9.76011   9.82809   9.86310   9.92453   9.98638
 Alpha virt. eigenvalues --   10.14763  10.28314  10.41446  10.96329  11.52880
 Alpha virt. eigenvalues --   11.63249  11.81518  12.05410  12.08681  13.19472
 Alpha virt. eigenvalues --   13.68193  14.50838  62.83916  64.68894
          Condensed to atoms (all electrons):
              1          2          3          4          5
     1  O    0.001495  -0.001836  -0.000707   0.001197  -0.006161
     2  O   -0.001836   0.005980   0.000654  -0.004248  -0.002816
     3  H   -0.000707   0.000654   0.000536  -0.000334  -0.001486
     4  H    0.001197  -0.004248  -0.000334   0.004244  -0.020995
     5  Kr  -0.006161  -0.002816  -0.001486  -0.020995  36.061206
 Mulliken atomic charges:
              1
     1  O    0.006012
     2  O    0.002266
     3  H    0.001336
     4  H    0.020135
     5  Kr  -0.029749
 Sum of Mulliken atomic charges =   0.00000
 Mulliken charges with hydrogens summed into heavy atoms:
              1
     1  O    0.007349
     2  O    0.022400
     5  Kr  -0.029749
 Sum of Mulliken charges with hydrogens summed into heavy atoms =   0.00000
          Condensed to fragments (all electrons):
     1       0.029749
     2      -0.029749
 Electronic spatial extent (au):  <R**2>=            162.7062
 Charge=              0.0000 electrons
 Dipole moment (field-independent basis, Debye):
    X=              0.0015    Y=              0.0007    Z=              0.0002  Tot=              0.0016
 Quadrupole moment (field-independent basis, Debye-Ang):
   XX=            -17.5619   YY=            -17.5741   ZZ=            -17.5820
   XY=              0.0033   XZ=              0.0016   YZ=             -0.0006
 Traceless Quadrupole moment (field-independent basis, Debye-Ang):
   XX=              0.0108   YY=             -0.0014   ZZ=             -0.0094
   XY=              0.0033   XZ=              0.0016   YZ=             -0.0006
 Octapole moment (field-independent basis, Debye-Ang**2):
  XXX=             51.6386  YYY=              0.4315  ZZZ=              0.0822  XYY=             17.2269
  XXY=              0.1363  XXZ=              0.0244  XZZ=             17.2318  YZZ=              0.1442
  YYZ=              0.0277  XYZ=              0.0001
 Hexadecapole moment (field-independent basis, Debye-Ang**3):
 XXXX=           -119.2691 YYYY=            -18.0868 ZZZZ=            -18.1100 XXXY=             -0.4070
 XXXZ=             -0.0740 YYYX=             -0.4102 YYYZ=             -0.0009 ZZZX=             -0.0772
 ZZZY=             -0.0007 XXYY=            -22.9051 XXZZ=            -22.9111 YYZZ=             -6.0316
 XXYZ=             -0.0011 YYXZ=             -0.0257 ZZXY=             -0.1362
 N-N= 0.000000000000D+00 E-N=-6.579422881526D+03  KE= 2.749635260621D+03
 No NMR shielding tensors so no spin-rotation constants.
 Leave Link  601 at Mon May 11 13:23:12 2020, MaxMem= 1073741824 cpu:       0.7
 (Enter /home/matheus/.gaussian/g09/l122.exe)
 Counterpoise: doing MCBS calculation for fragment   1
 Leave Link  122 at Mon May 11 13:23:12 2020, MaxMem= 1073741824 cpu:       0.0
 (Enter /home/matheus/.gaussian/g09/l301.exe)
 Basis read from rwf:  (5D, 7F)
 No pseudopotential information found on rwf file.
 There are   138 symmetry adapted basis functions of A   symmetry.
 Integral buffers will be    131072 words long.
 Raffenetti 2 integral format.
 Two-electron integral symmetry is turned on.
   138 basis functions,   198 primitive gaussians,   160 cartesian basis functions
     9 alpha electrons        9 beta electrons
       nuclear repulsion energy        36.6321546607 Hartrees.
 IExCor=10402 DFT=T Ex=LC-B+HF Corr=LYP ExCW=0 ScaHFX=  1.000000
[...]
 RMSDP=1.72D-05 MaxDP=8.90D-04              OVMax= 3.46D-04

 Cycle   2  Pass 1  IDiag  1:
 RMSU=  1.22D-05    CP:  1.00D+00
 FoFJK:  IHMeth= 1 ICntrl=     0 DoSepK=T KAlg= 1 I1Cent= 0 FoldK=F
 E= -2753.40937568284     Delta-E=       -0.000000690457 Rises=F Damp=F
 DIIS: error= 5.01D-06 at cycle   2 NSaved=   2.
 NSaved= 2 IEnMin= 2 EnMin= -2753.40937568284     IErMin= 2 ErrMin= 5.01D-06
 ErrMax= 5.01D-06 EMaxC= 1.00D-01 BMatC= 4.53D-09 BMatP= 5.51D-06
 IDIUse=1 WtCom= 1.00D+00 WtEn= 0.00D+00
 Coeff-Com: -0.908D-02 0.101D+01
 Coeff:     -0.908D-02 0.101D+01
 Gap=     0.580 Goal=   None    Shift=    0.000
 RMSDP=1.85D-06 MaxDP=7.49D-05 DE=-6.90D-07 OVMax= 5.13D-05

 Cycle   3  Pass 1  IDiag  1:
 RMSU=  5.91D-07    CP:  1.00D+00  1.10D+00
 FoFJK:  IHMeth= 1 ICntrl=     0 DoSepK=T KAlg= 1 I1Cent= 0 FoldK=F
 E= -2753.40937569126     Delta-E=       -0.000000008421 Rises=F Damp=F
 DIIS: error= 7.70D-07 at cycle   3 NSaved=   3.
 NSaved= 3 IEnMin= 3 EnMin= -2753.40937569126     IErMin= 3 ErrMin= 7.70D-07
 ErrMax= 7.70D-07 EMaxC= 1.00D-01 BMatC= 1.03D-10 BMatP= 4.53D-09
 IDIUse=1 WtCom= 1.00D+00 WtEn= 0.00D+00
 Coeff-Com:  0.509D-03-0.140D+00 0.114D+01
 Coeff:      0.509D-03-0.140D+00 0.114D+01
 Gap=     0.580 Goal=   None    Shift=    0.000
 RMSDP=2.39D-07 MaxDP=1.13D-05 DE=-8.42D-09 OVMax= 1.01D-05

 Cycle   4  Pass 1  IDiag  1:
 RMSU=  5.22D-08    CP:  1.00D+00  1.11D+00  1.19D+00
 FoFJK:  IHMeth= 1 ICntrl=     0 DoSepK=T KAlg= 1 I1Cent= 0 FoldK=F
 E= -2753.40937569156     Delta-E=       -0.000000000300 Rises=F Damp=F
 DIIS: error= 1.94D-07 at cycle   4 NSaved=   4.
 NSaved= 4 IEnMin= 4 EnMin= -2753.40937569156     IErMin= 4 ErrMin= 1.94D-07
 ErrMax= 1.94D-07 EMaxC= 1.00D-01 BMatC= 3.81D-12 BMatP= 1.03D-10
 IDIUse=1 WtCom= 1.00D+00 WtEn= 0.00D+00
 Coeff-Com:  0.155D-03-0.280D-01 0.154D+00 0.874D+00
 Coeff:      0.155D-03-0.280D-01 0.154D+00 0.874D+00
 Gap=     0.580 Goal=   None    Shift=    0.000
 RMSDP=1.70D-08 MaxDP=7.87D-07 DE=-3.00D-10 OVMax= 8.29D-07

 Cycle   5  Pass 1  IDiag  1:
 RMSU=  5.78D-09    CP:  1.00D+00  1.11D+00  1.20D+00  1.15D+00
 FoFJK:  IHMeth= 1 ICntrl=     0 DoSepK=T KAlg= 1 I1Cent= 0 FoldK=F
 E= -2753.40937569159     Delta-E=       -0.000000000027 Rises=F Damp=F
 DIIS: error= 4.30D-08 at cycle   5 NSaved=   5.
 NSaved= 5 IEnMin= 5 EnMin= -2753.40937569159     IErMin= 5 ErrMin= 4.30D-08
 ErrMax= 4.30D-08 EMaxC= 1.00D-01 BMatC= 3.03D-13 BMatP= 3.81D-12
 IDIUse=1 WtCom= 1.00D+00 WtEn= 0.00D+00
 Coeff-Com: -0.330D-04 0.912D-02-0.765D-01 0.373D-01 0.103D+01
 Coeff:     -0.330D-04 0.912D-02-0.765D-01 0.373D-01 0.103D+01
 Gap=     0.580 Goal=   None    Shift=    0.000
 RMSDP=6.58D-09 MaxDP=3.60D-07 DE=-2.73D-11 OVMax= 4.13D-07

 SCF Done:  E(RLC-B+HF-LYP) =  -2753.40937569     A.U. after    5 cycles
             Convg  =    0.6585D-08             -V/T =  2.0014
 KE= 2.749687860081D+03 PE=-6.579480757988D+03 EE= 1.076383522216D+03
 Leave Link  502 at Mon May 11 13:46:17 2020, MaxMem= 1073741824 cpu:      87.3
 (Enter /home/matheus/.gaussian/g09/l122.exe)
 Restoring MOs from calculation   4 to rwf.
 Counterpoise: doing MCBS calculation for fragment   1
 Leave Link  122 at Mon May 11 13:46:17 2020, MaxMem= 1073741824 cpu:       0.0
 (Enter /home/matheus/.gaussian/g09/l301.exe)
 Basis read from rwf:  (5D, 7F)
 No pseudopotential information found on rwf file.
 There are   138 symmetry adapted basis functions of A   symmetry.
 Integral buffers will be    131072 words long.
 Raffenetti 2 integral format.
 Two-electron integral symmetry is turned on.
   138 basis functions,   198 primitive gaussians,   160 cartesian basis functions
     9 alpha electrons        9 beta electrons
       nuclear repulsion energy        36.6321546607 Hartrees.
 IExCor=10402 DFT=T Ex=LC-B+HF Corr=LYP ExCW=0 ScaHFX=  1.000000
 ScaDFX=  1.000000  1.000000  1.000000  1.000000 ScalE2=  1.000000  1.000000
 IRadAn=      5 IRanWt=     -1 IRanGd=            0 ICorTp=0
  HFx wShort=  0.000000 wLong=  1.350000 cFull=  0.000000 cShort=  0.000000 cLong=  1.000000
  DFx wShort=  0.000000 wLong=  1.350000 cFull=  0.000000 cShort=  0.000000 cLong=  1.000000
 NAtoms=    5 NActive=    4 NUniq=    4 SFac= 1.00D+00 NAtFMM=   60 NAOKFM=F Big=F
 No density basis found on file   718.
 Leave Link  301 at Mon May 11 13:46:17 2020, MaxMem= 1073741824 cpu:       0.2
 (Enter /home/matheus/.gaussian/g09/l302.exe)
 NPDir=0 NMtPBC=     1 NCelOv=     1 NCel=       1 NClECP=     1 NCelD=      1
         NCelK=      1 NCelE2=     1 NClLst=     1 CellRange=     0.0.
 One-electron integrals computed using PRISM.
 NBasis=   138 RedAO= T  NBF=   138
 NBsUse=   138 1.00D-06 NBFU=   138
 Precomputing XC quadrature grid using
 IXCGrd= 2 IRadAn=           5 IRanWt=          -1 IRanGd=           0 AccXCQ= 0.00D+00.
 NRdTot=     344 NPtTot=       92556 NUsed=       95038 NTot=       95070
 NSgBfM=   160   160   160   160   160 NAtAll=     4     4.
 Leave Link  302 at Mon May 11 13:46:17 2020, MaxMem= 1073741824 cpu:       0.8
 (Enter /home/matheus/.gaussian/g09/l303.exe)
 DipDrv:  MaxL=1.
 Leave Link  303 at Mon May 11 13:46:17 2020, MaxMem= 1073741824 cpu:       0.1
 (Enter /home/matheus/.gaussian/g09/l401.exe)
 Initial guess read from the read-write file.
 Guess basis will be translated and rotated to current coordinates.
 Initial guess orbital symmetries:
       Occupied  (A) (A) (A) (A) (A) (A) (A) (A) (A)
       Virtual   (A) (A) (A) (A) (A) (A) (A) (A) (A) (A) (A) (A)
                 (A) (A) (A) (A) (A) (A) (A) (A) (A) (A) (A) (A)
                 (A) (A) (A) (A) (A) (A) (A) (A) (A) (A) (A) (A)
                 (A) (A) (A) (A) (A) (A) (A) (A) (A) (A) (A) (A)
                 (A) (A) (A) (A) (A) (A) (A) (A) (A) (A) (A) (A)
                 (A) (A) (A) (A) (A) (A) (A) (A) (A) (A) (A) (A)
                 (A) (A) (A) (A) (A) (A) (A) (A) (A) (A) (A) (A)
                 (A) (A) (A) (A) (A) (A) (A) (A) (A) (A) (A) (A)
                 (A) (A) (A) (A) (A) (A) (A) (A) (A) (A) (A) (A)
                 (A) (A) (A) (A) (A) (A) (A) (A) (A) (A) (A) (A)
                 (A) (A) (A) (A) (A) (A) (A) (A) (A)
 The electronic state of the initial guess is 1-A.
 Generating alternative initial guess.
 Harris functional with IExCor=10402 diagonalized for initial guess.
 ExpMin= 2.53D-02 ExpMax= 1.53D+04 ExpMxC= 5.22D+02 IAcc=3 IRadAn=         5 AccDes= 0.00D+00
 HarFok:  IExCor=10402 AccDes= 0.00D+00 IRadAn=         5 IDoV= 1
 ScaDFX=  1.000000  1.000000  1.000000  1.000000
 FoFCou: FMM=F IPFlag=           0 FMFlag=      100000 FMFlg1=           0
         NFxFlg=           0 DoJE=T BraDBF=F KetDBF=T FulRan=T
         Omega=  0.000000  0.000000  1.000000  0.000000  0.000000 ICntrl=     500 IOpCl=  0
         NMat0=    1 NMatS0=    1 NMatT0=    0 NMatD0=    1 NMtDS0=    0 NMtDT0=    0
         I1Cent=           4 NGrid=           0.
 Petite list used in FoFCou.
 Harris En= -143.230870458505    
 Leave Link  401 at Mon May 11 13:46:17 2020, MaxMem= 1073741824 cpu:       2.3
 (Enter /home/matheus/.gaussian/g09/l502.exe)
 Closed shell SCF:
 Requested convergence on RMS density matrix=1.00D-08 within 128 cycles.
 Requested convergence on MAX density matrix=1.00D-06.
 Requested convergence on             energy=1.00D-06.
 No special actions if energy rises.
 Using DIIS extrapolation, IDIIS=  1040.
 Integral symmetry usage will be decided dynamically.
        94980 words used for storage of precomputed grid.
 IEnd=      192360 IEndB=      192360 NGot=  1073741824 MDV=  1073591865
 LenX=  1073591865 LenY=  1073565824
 Fock matrices will be formed incrementally for  20 cycles.

 Cycle   1  Pass 1  IDiag  1:
 FoFJK:  IHMeth= 1 ICntrl=     0 DoSepK=T KAlg= 1 I1Cent= 0 FoldK=F
 FoFCou: FMM=F IPFlag=           0 FMFlag=      100000 FMFlg1=           0
         NFxFlg=           0 DoJE=T BraDBF=F KetDBF=F FulRan=T
         Omega=  0.000000  0.000000  1.000000  0.000000  0.000000 ICntrl=     500 IOpCl=  0
         NMat0=    1 NMatS0=    1 NMatT0=    0 NMatD0=    1 NMtDS0=    0 NMtDT0=    0
         I1Cent=           0 NGrid=           0.
 Symmetry not used in FoFCou.
 E= -151.212625700820    
 DIIS: error= 7.56D-06 at cycle   1 NSaved=   1.
 NSaved= 1 IEnMin= 1 EnMin= -151.212625700820     IErMin= 1 ErrMin= 7.56D-06
 ErrMax= 7.56D-06 EMaxC= 1.00D-01 BMatC= 1.97D-08 BMatP= 1.97D-08
 IDIUse=1 WtCom= 1.00D+00 WtEn= 0.00D+00
 Coeff-Com:  0.100D+01
 Coeff:      0.100D+01
 Gap=     0.540 Goal=   None    Shift=    0.000
 RMSDP=9.02D-07 MaxDP=2.13D-05              OVMax= 3.32D-05

 Cycle   2  Pass 1  IDiag  1:
 RMSU=  6.38D-07    CP:  1.00D+00
 FoFJK:  IHMeth= 1 ICntrl=     0 DoSepK=T KAlg= 1 I1Cent= 0 FoldK=F
 E= -151.212625720746     Delta-E=       -0.000000019927 Rises=F Damp=F
 DIIS: error= 2.42D-06 at cycle   2 NSaved=   2.
 NSaved= 2 IEnMin= 2 EnMin= -151.212625720746     IErMin= 2 ErrMin= 2.42D-06
 ErrMax= 2.42D-06 EMaxC= 1.00D-01 BMatC= 1.12D-09 BMatP= 1.97D-08
 IDIUse=1 WtCom= 1.00D+00 WtEn= 0.00D+00
 Coeff-Com: -0.205D+00 0.120D+01
 Coeff:     -0.205D+00 0.120D+01
 Gap=     0.540 Goal=   None    Shift=    0.000
 RMSDP=2.95D-07 MaxDP=8.59D-06 DE=-1.99D-08 OVMax= 1.59D-05

 Cycle   3  Pass 1  IDiag  1:
 RMSU=  1.09D-07    CP:  1.00D+00  1.28D+00
 FoFJK:  IHMeth= 1 ICntrl=     0 DoSepK=T KAlg= 1 I1Cent= 0 FoldK=F
 E= -151.212625723070     Delta-E=       -0.000000002323 Rises=F Damp=F
 DIIS: error= 8.66D-07 at cycle   3 NSaved=   3.
 NSaved= 3 IEnMin= 3 EnMin= -151.212625723070     IErMin= 3 ErrMin= 8.66D-07
 ErrMax= 8.66D-07 EMaxC= 1.00D-01 BMatC= 9.03D-11 BMatP= 1.12D-09
 IDIUse=1 WtCom= 1.00D+00 WtEn= 0.00D+00
 Coeff-Com:  0.192D-01-0.270D+00 0.125D+01
 Coeff:      0.192D-01-0.270D+00 0.125D+01
 Gap=     0.540 Goal=   None    Shift=    0.000
 RMSDP=9.65D-08 MaxDP=1.98D-06 DE=-2.32D-09 OVMax= 6.60D-06

 Cycle   4  Pass 1  IDiag  1:
 RMSU=  3.08D-08    CP:  1.00D+00  1.34D+00  1.43D+00
 FoFJK:  IHMeth= 1 ICntrl=     0 DoSepK=T KAlg= 1 I1Cent= 0 FoldK=F
 E= -151.212625723338     Delta-E=       -0.000000000268 Rises=F Damp=F
 DIIS: error= 3.24D-07 at cycle   4 NSaved=   4.
 NSaved= 4 IEnMin= 4 EnMin= -151.212625723338     IErMin= 4 ErrMin= 3.24D-07
 ErrMax= 3.24D-07 EMaxC= 1.00D-01 BMatC= 2.34D-11 BMatP= 9.03D-11
 IDIUse=1 WtCom= 1.00D+00 WtEn= 0.00D+00
 Coeff-Com:  0.238D-01-0.192D+00 0.353D+00 0.815D+00
 Coeff:      0.238D-01-0.192D+00 0.353D+00 0.815D+00
 Gap=     0.540 Goal=   None    Shift=    0.000
 RMSDP=3.15D-08 MaxDP=6.53D-07 DE=-2.68D-10 OVMax= 2.35D-06

 Cycle   5  Pass 1  IDiag  1:
 RMSU=  1.49D-08    CP:  1.00D+00  1.35D+00  1.57D+00  1.13D+00
 FoFJK:  IHMeth= 1 ICntrl=     0 DoSepK=T KAlg= 1 I1Cent= 0 FoldK=F
 E= -151.212625723380     Delta-E=       -0.000000000042 Rises=F Damp=F
 DIIS: error= 1.63D-07 at cycle   5 NSaved=   5.
 NSaved= 5 IEnMin= 5 EnMin= -151.212625723380     IErMin= 5 ErrMin= 1.63D-07
 ErrMax= 1.63D-07 EMaxC= 1.00D-01 BMatC= 4.23D-12 BMatP= 2.34D-11
 IDIUse=1 WtCom= 1.00D+00 WtEn= 0.00D+00
 Coeff-Com: -0.662D-03 0.302D-01-0.245D+00 0.169D+00 0.105D+01
 Coeff:     -0.662D-03 0.302D-01-0.245D+00 0.169D+00 0.105D+01
 Gap=     0.540 Goal=   None    Shift=    0.000
 RMSDP=2.01D-08 MaxDP=5.04D-07 DE=-4.18D-11 OVMax= 1.60D-06

 Cycle   6  Pass 1  IDiag  1:
 RMSU=  5.08D-09    CP:  1.00D+00  1.35D+00  1.63D+00  1.45D+00  1.27D+00
 FoFJK:  IHMeth= 1 ICntrl=     0 DoSepK=T KAlg= 1 I1Cent= 0 FoldK=F
 E= -151.212625723392     Delta-E=       -0.000000000012 Rises=F Damp=F
 DIIS: error= 4.41D-08 at cycle   6 NSaved=   6.
 NSaved= 6 IEnMin= 6 EnMin= -151.212625723392     IErMin= 6 ErrMin= 4.41D-08
 ErrMax= 4.41D-08 EMaxC= 1.00D-01 BMatC= 3.19D-13 BMatP= 4.23D-12
 IDIUse=1 WtCom= 1.00D+00 WtEn= 0.00D+00
 Coeff-Com: -0.277D-02 0.211D-01-0.153D-01-0.113D+00-0.110D+00 0.122D+01
 Coeff:     -0.277D-02 0.211D-01-0.153D-01-0.113D+00-0.110D+00 0.122D+01
 Gap=     0.540 Goal=   None    Shift=    0.000
 RMSDP=7.73D-09 MaxDP=1.88D-07 DE=-1.18D-11 OVMax= 6.72D-07

 SCF Done:  E(RLC-B+HF-LYP) =  -151.212625723     A.U. after    6 cycles
             Convg  =    0.7729D-08             -V/T =  2.0063
 KE= 1.502712137940D+02 PE=-4.315594957841D+02 EE= 9.344350160602D+01
 Leave Link  502 at Mon May 11 13:46:23 2020, MaxMem= 1073741824 cpu:      43.2
 (Enter /home/matheus/.gaussian/g09/l122.exe)
 Restoring MOs from calculation   5 to rwf.
 Counterpoise: doing MCBS calculation for fragment   2
 Leave Link  122 at Mon May 11 13:46:23 2020, MaxMem= 1073741824 cpu:       0.0
 (Enter /home/matheus/.gaussian/g09/l301.exe)
 Basis read from rwf:  (5D, 7F)
 No pseudopotential information found on rwf file.
 There are    59 symmetry adapted basis functions of A   symmetry.
 Integral buffers will be    131072 words long.
 Raffenetti 2 integral format.
 Two-electron integral symmetry is turned on.
    59 basis functions,   217 primitive gaussians,    69 cartesian basis functions
    18 alpha electrons       18 beta electrons
       nuclear repulsion energy         0.0000000000 Hartrees.
 IExCor=10402 DFT=T Ex=LC-B+HF Corr=LYP ExCW=0 ScaHFX=  1.000000
 ScaDFX=  1.000000  1.000000  1.000000  1.000000 ScalE2=  1.000000  1.000000
 IRadAn=      5 IRanWt=     -1 IRanGd=            0 ICorTp=0
  HFx wShort=  0.000000 wLong=  1.350000 cFull=  0.000000 cShort=  0.000000 cLong=  1.000000
  DFx wShort=  0.000000 wLong=  1.350000 cFull=  0.000000 cShort=  0.000000 cLong=  1.000000
 NAtoms=    5 NActive=    1 NUniq=    1 SFac= 1.00D+00 NAtFMM=   60 NAOKFM=F Big=F
 No density basis found on file   718.
 Leave Link  301 at Mon May 11 13:46:23 2020, MaxMem= 1073741824 cpu:       0.2
 (Enter /home/matheus/.gaussian/g09/l302.exe)
 NPDir=0 NMtPBC=     1 NCelOv=     1 NCel=       1 NClECP=     1 NCelD=      1
         NCelK=      1 NCelE2=     1 NClLst=     1 CellRange=     0.0.
 One-electron integrals computed using PRISM.
 NBasis=    59 RedAO= T  NBF=    59
 NBsUse=    59 1.00D-06 NBFU=    59
 Precomputing XC quadrature grid using
 IXCGrd= 2 IRadAn=           5 IRanWt=          -1 IRanGd=           0 AccXCQ= 0.00D+00.
 NRdTot=      81 NPtTot=       30352 NUsed=       30981 NTot=       31013
 NSgBfM=    69    69    69    69    69 NAtAll=     1     1.
 Leave Link  302 at Mon May 11 13:46:23 2020, MaxMem= 1073741824 cpu:       0.6
 (Enter /home/matheus/.gaussian/g09/l303.exe)
 DipDrv:  MaxL=1.
 Leave Link  303 at Mon May 11 13:46:23 2020, MaxMem= 1073741824 cpu:       0.1
 (Enter /home/matheus/.gaussian/g09/l401.exe)
 Initial guess read from the read-write file.
 Guess basis will be translated and rotated to current coordinates.
 Initial guess orbital symmetries:
       Occupied  (A) (A) (A) (A) (A) (A) (A) (A) (A) (A) (A) (A)
                 (A) (A) (A) (A) (A) (A)
       Virtual   (A) (A) (A) (A) (A) (A) (A) (A) (A) (A) (A) (A)
                 (A) (A) (A) (A) (A) (A) (A) (A) (A) (A) (A) (A)
                 (A) (A) (A) (A) (A) (A) (A) (A) (A) (A) (A) (A)
                 (A) (A) (A) (A) (A)
 The electronic state of the initial guess is 1-A.
 Generating alternative initial guess.
 Harris functional with IExCor=10402 diagonalized for initial guess.
 ExpMin= 4.00D-02 ExpMax= 1.17D+07 ExpMxC= 1.33D+04 IAcc=3 IRadAn=         5 AccDes= 0.00D+00
 HarFok:  IExCor=10402 AccDes= 0.00D+00 IRadAn=         5 IDoV= 1
 ScaDFX=  1.000000  1.000000  1.000000  1.000000
 FoFCou: FMM=F IPFlag=           0 FMFlag=      100000 FMFlg1=           0
         NFxFlg=           0 DoJE=T BraDBF=F KetDBF=T FulRan=T
         Omega=  0.000000  0.000000  1.000000  0.000000  0.000000 ICntrl=     500 IOpCl=  0
         NMat0=    1 NMatS0=    1 NMatT0=    0 NMatD0=    1 NMtDS0=    0 NMtDT0=    0
         I1Cent=           4 NGrid=           0.
 Petite list used in FoFCou.
 Harris En= -2731.73388500824    
 Leave Link  401 at Mon May 11 13:46:23 2020, MaxMem= 1073741824 cpu:       1.0
 (Enter /home/matheus/.gaussian/g09/l502.exe)
 Closed shell SCF:
 Requested convergence on RMS density matrix=1.00D-08 within 128 cycles.
 Requested convergence on MAX density matrix=1.00D-06.
 Requested convergence on             energy=1.00D-06.
 No special actions if energy rises.
 Using DIIS extrapolation, IDIIS=  1040.
 Integral symmetry usage will be decided dynamically.
        30923 words used for storage of precomputed grid.
 IEnd=       64406 IEndB=       64406 NGot=  1073741824 MDV=  1073698889
 LenX=  1073698889 LenY=  1073693687
 Fock matrices will be formed incrementally for  20 cycles.

 Cycle   1  Pass 1  IDiag  1:
 FoFJK:  IHMeth= 1 ICntrl=     0 DoSepK=T KAlg= 1 I1Cent= 0 FoldK=F
 FoFCou: FMM=F IPFlag=           0 FMFlag=      100000 FMFlg1=           0
         NFxFlg=           0 DoJE=T BraDBF=F KetDBF=F FulRan=T
         Omega=  0.000000  0.000000  1.000000  0.000000  0.000000 ICntrl=     500 IOpCl=  0
         NMat0=    1 NMatS0=    1 NMatT0=    0 NMatD0=    1 NMtDS0=    0 NMtDT0=    0
         I1Cent=           0 NGrid=           0.
 Symmetry not used in FoFCou.
 E= -2753.40934852740    
 DIIS: error= 7.14D-14 at cycle   1 NSaved=   1.
 NSaved= 1 IEnMin= 1 EnMin= -2753.40934852740     IErMin= 1 ErrMin= 7.14D-14
 ErrMax= 7.14D-14 EMaxC= 1.00D-01 BMatC= 2.26D-25 BMatP= 2.26D-25
 IDIUse=1 WtCom= 1.00D+00 WtEn= 0.00D+00
 Coeff-Com:  0.100D+01
 Coeff:      0.100D+01
 Gap=     0.640 Goal=   None    Shift=    0.000
 RMSDP=1.26D-14 MaxDP=1.88D-13              OVMax= 2.03D-13

 SCF Done:  E(RLC-B+HF-LYP) =  -2753.40934853     A.U. after    1 cycles
             Convg  =    0.1263D-13             -V/T =  2.0014
 KE= 2.749695852517D+03 PE=-6.579489077514D+03 EE= 1.076383876470D+03
 Leave Link  502 at Mon May 11 13:46:24 2020, MaxMem= 1073741824 cpu:      11.3
 (Enter /home/matheus/.gaussian/g09/l122.exe)
 Restoring MOs from calculation   1 to rwf.
 Counterpoise: corrected energy =   -2904.622055902339
 Counterpoise: BSSE energy =       0.000030954204
 Leave Link  122 at Mon May 11 13:46:24 2020, MaxMem= 1073741824 cpu:       0.0
 (Enter /home/matheus/.gaussian/g09/l108.exe)
 Scan completed.

 Summary of the potential surface scan:
   N      R1          SCF    
 ----  ---------  -----------
    1     3.0000  -2753.40935
    2     3.1000  -2753.40935
    3     3.2000  -2753.40935
    4     3.3000  -2753.40935
    5     3.4000  -2753.40935
    6     3.5000  -2753.40935
    7     3.6000  -2753.40935
    8     3.7000  -2753.40935
    9     3.8000  -2753.40935
   10     3.9000  -2753.40935
   11     4.0000  -2753.40935
   12     4.1000  -2753.40935
   13     4.2000  -2753.40935
   14     4.3000  -2753.40935
   15     4.4000  -2753.40935
   16     4.5000  -2753.40935
   17     4.6000  -2753.40935
   18     4.7000  -2753.40935
   19     4.8000  -2753.40935
   20     4.9000  -2753.40935
   21     5.0000  -2753.40935
 ----  ---------  -----------
  
 Leave Link  108 at Mon May 11 13:46:24 2020, MaxMem= 1073741824 cpu:       0.0
 (Enter /home/matheus/.gaussian/g09/l9999.exe)

 Test job not archived.
 1\1\GINC-REDGIANT\Scan\RLC-BLYP\Aug-CC-pVTZ\H2Kr1O2\MATHEUS\11-May-202
 0\1\\#p lc-blyp/aug-cc-PVTz iop(3/107=1350000000) iop(3/108=1350000000
 ) int=ultrafine counterpoise=2 Scan\\TCC\\0,1\O,0,0.,0.,0.725\O,0,0.,0
 .,-0.725\H,0,0.9047631646,0.1595341571,1.0235104166\H,0,0.,0.918720594
 7,-1.0235104166\Kr,0,0.,R1,0.\\R1=3.,s,20,0.1\\Version=EM64L-G09RevC.0
 1\State=1-A\HF=-2753.4093485,-2753.4093485,-2753.4093485,-2753.4093485
 ,-2753.4093485,-2753.4093485,-2753.4093485,-2753.4093485,-2753.4093485
 ,-2753.4093485,-2753.4093485,-2753.4093485,-2753.4093485,-2753.4093485
 ,-2753.4093485,-2753.4093485,-2753.4093485,-2753.4093485,-2753.4093485
 ,-2753.4093485,-2753.4093485\RMSD=5.461e-09,3.089e-10,7.451e-11,2.036e
 -11,7.195e-12,3.143e-12,1.454e-12,6.892e-13,3.259e-13,1.556e-13,7.168e
 -14,3.279e-14,1.405e-14,1.013e-14,1.030e-14,1.059e-14,8.524e-15,7.304e
 -15,8.973e-15,1.456e-14,1.263e-14\PG=C01 [X(H2Kr1O2)]\\@


 ALTHOUGH J.J. COULD DIAGNOSE THE FAULTS OF AN
 APPARATUS WITH UNCANNY ACCURACY, IT WAS JUST AS
 WELL NOT TO LET HIM HANDLE IT.
   -- GEORGE THOMPSON, ABOUT HIS FATHER
 Job cpu time:  0 days  3 hours 20 minutes 53.3 seconds.
 File lengths (MBytes):  RWF=     33 Int=      0 D2E=      0 Chk=      8 Scr=      1
 Normal termination of Gaussian 09 at Mon May 11 13:46:24 2020.
