 Entering Gaussian System, Link 0=g09
 Input=/home/matheus/.tcc/Inputs/Inputs-lc-blyp/H2O2-Kr_15.com
 Output=/home/matheus/.tcc/Logs/Logs-lc-blyp/H2O2-Kr_15.log
 Initial command:
 /home/matheus/.gaussian/g09/l1.exe /home/matheus/.gaussian/g09/scratch/Gau-5100.inp -scrdir=/home/matheus/.gaussian/g09/scratch/
 Entering Link 1 = /home/matheus/.gaussian/g09/l1.exe PID=      5103.
  
 Copyright (c) 1988,1990,1992,1993,1995,1998,2003,2009,2011,
            Gaussian, Inc.  All Rights Reserved.
  
 This is part of the Gaussian(R) 09 program.  It is based on
 the Gaussian(R) 03 system (copyright 2003, Gaussian, Inc.),
 the Gaussian(R) 98 system (copyright 1998, Gaussian, Inc.),
 the Gaussian(R) 94 system (copyright 1995, Gaussian, Inc.),
 the Gaussian 92(TM) system (copyright 1992, Gaussian, Inc.),
 the Gaussian 90(TM) system (copyright 1990, Gaussian, Inc.),
 the Gaussian 88(TM) system (copyright 1988, Gaussian, Inc.),
 the Gaussian 86(TM) system (copyright 1986, Carnegie Mellon
 University), and the Gaussian 82(TM) system (copyright 1983,
 Carnegie Mellon University). Gaussian is a federally registered
 trademark of Gaussian, Inc.
  
 This software contains proprietary and confidential information,
 including trade secrets, belonging to Gaussian, Inc.
  
 This software is provided under written license and may be
 used, copied, transmitted, or stored only in accord with that
 written license.
  
 The following legend is applicable only to US Government
 contracts under FAR:
  
                    RESTRICTED RIGHTS LEGEND
  
 Use, reproduction and disclosure by the US Government is
 subject to restrictions as set forth in subparagraphs (a)
 and (c) of the Commercial Computer Software - Restricted
 Rights clause in FAR 52.227-19.
  
 Gaussian, Inc.
 340 Quinnipiac St., Bldg. 40, Wallingford CT 06492
  
  
 ---------------------------------------------------------------
 Warning -- This program may not be used in any manner that
 competes with the business of Gaussian, Inc. or will provide
 assistance to any competitor of Gaussian, Inc.  The licensee
 of this program is prohibited from giving any competitor of
 Gaussian, Inc. access to this program.  By using this program,
 the user acknowledges that Gaussian, Inc. is engaged in the
 business of creating and licensing software in the field of
 computational chemistry and represents and warrants to the
 licensee that it is not a competitor of Gaussian, Inc. and that
 it will not use this program in any manner prohibited above.
 ---------------------------------------------------------------
  

 Cite this work as:
 Gaussian 09, Revision C.01,
 M. J. Frisch, G. W. Trucks, H. B. Schlegel, G. E. Scuseria, 
 M. A. Robb, J. R. Cheeseman, G. Scalmani, V. Barone, B. Mennucci, 
 G. A. Petersson, H. Nakatsuji, M. Caricato, X. Li, H. P. Hratchian, 
 A. F. Izmaylov, J. Bloino, G. Zheng, J. L. Sonnenberg, M. Hada, 
 M. Ehara, K. Toyota, R. Fukuda, J. Hasegawa, M. Ishida, T. Nakajima, 
 Y. Honda, O. Kitao, H. Nakai, T. Vreven, J. A. Montgomery, Jr., 
 J. E. Peralta, F. Ogliaro, M. Bearpark, J. J. Heyd, E. Brothers, 
 K. N. Kudin, V. N. Staroverov, T. Keith, R. Kobayashi, J. Normand, 
 K. Raghavachari, A. Rendell, J. C. Burant, S. S. Iyengar, J. Tomasi, 
 M. Cossi, N. Rega, J. M. Millam, M. Klene, J. E. Knox, J. B. Cross, 
 V. Bakken, C. Adamo, J. Jaramillo, R. Gomperts, R. E. Stratmann, 
 O. Yazyev, A. J. Austin, R. Cammi, C. Pomelli, J. W. Ochterski, 
 R. L. Martin, K. Morokuma, V. G. Zakrzewski, G. A. Voth, 
 P. Salvador, J. J. Dannenberg, S. Dapprich, A. D. Daniels, 
 O. Farkas, J. B. Foresman, J. V. Ortiz, J. Cioslowski, 
 and D. J. Fox, Gaussian, Inc., Wallingford CT, 2010.
 
 ******************************************
 Gaussian 09:  EM64L-G09RevC.01 23-Sep-2011
                11-May-2020 
 ******************************************
 %mem=8GB
 %nproc=8
 Will use up to    8 processors via shared memory.
 ----------------------------------------------------------------------
 #p lc-blyp/aug-cc-PVTz iop(3/107=1350000000) iop(3/108=1350000000) int
 =ultrafine counterpoise=2 Scan
 ----------------------------------------------------------------------
 1/38=1,60=1,62=2/1,8;
 2/12=2,17=6,18=5,29=3,40=1/2;
 1/38=1,53=5172,62=2/22;
 3/5=16,6=1,7=10,11=2,16=1,25=1,30=1,74=1000402,75=-5,107=1350000000,108=1350000000/1,2,3;
 4//1;
 5/5=2,38=5/2;
 6/7=2,8=2,9=2,10=2,18=1,28=1/1;
 1/53=4052,62=2,63=1/22;
 3/5=7,6=11,7=10,11=2,16=1,25=1,30=1,74=1000402,75=-5,82=7,107=1350000000,108=1350000000/1,2,3;
 4//1;
 5/5=2,38=5/2;
 6/7=2,8=2,9=2,10=2,18=1,28=1/1;
 1/53=3042,62=2,63=2/22;
 3/5=7,6=11,7=10,11=2,16=1,25=1,30=1,74=1000402,75=-5,82=7,107=1350000000,108=1350000000/1,2,3;
 4//1;
 5/5=2,38=5/2;
 6/7=2,8=2,9=2,10=2,18=1,28=1/1;
 1/53=2032,62=2,63=3/22;
 3/5=7,6=11,7=10,11=2,16=1,25=1,30=1,74=1000402,75=-5,82=7,107=1350000000,108=1350000000/1,2,3;
 4//1;
 5/5=2,38=5/2;
 6/7=2,8=2,9=2,10=2,18=1,28=1/1;
 1/53=1022,62=2,63=4/22;
 3/5=7,6=11,7=10,11=2,16=1,25=1,30=1,74=1000402,75=-5,82=7,107=1350000000,108=1350000000/1,2,3;
 4//1;
 5/5=2,38=5/2;
 6/7=2,8=2,9=2,10=2,18=1,28=1/1;
 1/53=5014,62=2,63=5/22;
 1/60=1,62=2/8(1);
 99/9=1/99;
 2/29=3/2;
 1/53=5173,62=2/22;
 3/5=7,6=11,7=10,11=2,16=1,25=1,30=1,74=1000402,75=-5,82=7,107=1350000000,108=1350000000/1,2,3;
 4/5=5,16=3/1;
 5/5=2,38=5/2;
 1/53=4053,62=2,63=1/22;
 3/5=7,6=11,7=10,11=2,16=1,25=1,30=1,74=1000402,75=-5,82=7,107=1350000000,108=1350000000/1,2,3;
 4/5=5,16=3/1;
 5/5=2,38=5/2;
 1/53=3043,62=2,63=2/22;
 3/5=7,6=11,7=10,11=2,16=1,25=1,30=1,74=1000402,75=-5,82=7,107=1350000000,108=1350000000/1,2,3;
 4/5=5,16=3/1;
 5/5=2,38=5/2;
 1/53=2033,62=2,63=3/22;
 3/5=7,6=11,7=10,11=2,16=1,25=1,30=1,74=1000402,75=-5,82=7,107=1350000000,108=1350000000/1,2,3;
 4/5=5,16=3/1;
 5/5=2,38=5/2;
 1/53=1024,62=2,63=4/22;
 3/5=7,6=11,7=10,11=2,16=1,25=1,30=1,74=1000402,75=-5,82=7,107=1350000000,108=1350000000/1,2,3;
 4/5=5,16=3/1;
 5/5=2,38=5/2;
 1/53=5014,62=2,63=5/22;
 1/60=1,62=2/8(-22);
 99/9=1/99;
 Leave Link    1 at Mon May 11 16:14:28 2020, MaxMem= 1073741824 cpu:       0.1
 (Enter /home/matheus/.gaussian/g09/l101.exe)
 ---
 TCC
 ---
 Charge =  0 Multiplicity = 1 in supermolecule
 Charge =  0 Multiplicity = 1 in fragment  1.
 Charge =  0 Multiplicity = 1 in fragment  2.
 Symbolic Z-Matrix:
 O(Fragment=1)         0.        0.        0.725 
 O(Fragment=1)         0.        0.       -0.725 
 H(Fragment=1)         0.45936  -0.79564   1.02351 
 H(Fragment=1)         0.        0.91872  -1.02351 
 Kr(Fragment=2)        0.       R1        0. 
       Variables:
  R1                    3.     Scan 20    0.1    
 
 NAtoms=      5 NQM=        0 NQMF=       0 NMMI=      5 NMMIF=      0
                NMic=       0 NMicF=      0.
                    Isotopes and Nuclear Properties:
 (Nuclear quadrupole moments (NQMom) in fm**2, nuclear magnetic moments (NMagM)
  in nuclear magnetons)

  Atom         1           2           3           4           5
 IAtWgt=          16          16           1           1          84
 AtmWgt=  15.9949146  15.9949146   1.0078250   1.0078250  83.9115064
 NucSpn=           0           0           1           1           0
 AtZEff=   0.0000000   0.0000000   0.0000000   0.0000000   0.0000000
 NQMom=    0.0000000   0.0000000   0.0000000   0.0000000   0.0000000
 NMagM=    0.0000000   0.0000000   2.7928460   2.7928460   0.0000000
 Leave Link  101 at Mon May 11 16:14:28 2020, MaxMem= 1073741824 cpu:       0.3
 (Enter /home/matheus/.gaussian/g09/l108.exe)
 Scan the potential surface.
 Variable   Value     No. Steps Step-Size
 -------- ----------- --------- ---------
     1       3.000000      20      0.1000
 A total of     21 points will be computed.
 Leave Link  108 at Mon May 11 16:14:28 2020, MaxMem= 1073741824 cpu:       0.0
 (Enter /home/matheus/.gaussian/g09/l202.exe)
 ---------------------------------------------------------------------------------------------------
                            Z-MATRIX (ANGSTROMS AND DEGREES)
   CD    Cent   Atom    N1       Length/X        N2       Alpha/Y        N3        Beta/Z          J
 ---------------------------------------------------------------------------------------------------
      1      1  O        0   0.000000          0.000000          0.725000
      2      2  O        0   0.000000          0.000000         -0.725000
      3      3  H        0   0.459360         -0.795635          1.023510
      4      4  H        0   0.000000          0.918721         -1.023510
      5      5  Kr       0   0.000000          3.000000          0.000000
 ---------------------------------------------------------------------------------------------------
                         Z-Matrix orientation:                         
 ---------------------------------------------------------------------
 Center     Atomic      Atomic             Coordinates (Angstroms)
 Number     Number       Type             X           Y           Z
 ---------------------------------------------------------------------
      1          8           0        0.000000    0.000000    0.725000
      2          8           0        0.000000    0.000000   -0.725000
      3          1           0        0.459360   -0.795635    1.023510
      4          1           0        0.000000    0.918721   -1.023510
      5         36           0        0.000000    3.000000    0.000000
 ---------------------------------------------------------------------
                    Distance matrix (angstroms):
                    1          2          3          4          5
     1  O    0.000000
     2  O    1.450000   0.000000
     3  H    0.966000   1.975180   0.000000
     4  H    1.975180   0.966000   2.709303   0.000000
     5  Kr   3.086361   3.086361   3.957958   2.319331   0.000000
 Stoichiometry    H2KrO2
 Framework group  C1[X(H2KrO2)]
 Deg. of freedom     9
 Full point group                 C1      NOp   1
 Largest Abelian subgroup         C1      NOp   1
 Largest concise Abelian subgroup C1      NOp   1
                         Standard orientation:                         
 ---------------------------------------------------------------------
 Center     Atomic      Atomic             Coordinates (Angstroms)
 Number     Number       Type             X           Y           Z
 ---------------------------------------------------------------------
      1          8           0        2.014667   -0.687062   -0.062307
      2          8           0        1.988768    0.761329    0.000872
      3          1           0        2.820911   -0.990551    0.374753
      4          1           0        1.064927    1.042640    0.024073
      5         36           0       -0.997592   -0.017951    0.002574
 ---------------------------------------------------------------------
 Rotational constants (GHZ):     26.4417565      2.3080537      2.1261727
 Leave Link  202 at Mon May 11 16:14:28 2020, MaxMem= 1073741824 cpu:       0.0
 (Enter /home/matheus/.gaussian/g09/l122.exe)
 Leave Link  122 at Mon May 11 16:14:28 2020, MaxMem= 1073741824 cpu:       0.0
 (Enter /home/matheus/.gaussian/g09/l301.exe)
 Standard basis: Aug-CC-pVTZ (5D, 7F)
 Ernie: Thresh=  0.10000D-02 Tol=  0.10000D-05 Strict=F.
 Ernie:  38 primitive shells out of 205 were deleted.
 There are   197 symmetry adapted basis functions of A   symmetry.
 Integral buffers will be    131072 words long.
 Raffenetti 2 integral format.
 Two-electron integral symmetry is turned on.
   197 basis functions,   415 primitive gaussians,   229 cartesian basis functions
    27 alpha electrons       27 beta electrons
       nuclear repulsion energy       148.3895250152 Hartrees.
 IExCor=10402 DFT=T Ex=LC-B+HF Corr=LYP ExCW=0 ScaHFX=  1.000000
 ScaDFX=  1.000000  1.000000  1.000000  1.000000 ScalE2=  1.000000  1.000000
 IRadAn=      5 IRanWt=     -1 IRanGd=            0 ICorTp=0
  HFx wShort=  0.000000 wLong=  1.350000 cFull=  0.000000 cShort=  0.000000 cLong=  1.000000
  DFx wShort=  0.000000 wLong=  1.350000 cFull=  0.000000 cShort=  0.000000 cLong=  1.000000
 NAtoms=    5 NActive=    5 NUniq=    5 SFac= 1.00D+00 NAtFMM=   60 NAOKFM=F Big=F
 Leave Link  301 at Mon May 11 16:14:28 2020, MaxMem= 1073741824 cpu:       0.2
 (Enter /home/matheus/.gaussian/g09/l302.exe)
 NPDir=0 NMtPBC=     1 NCelOv=     1 NCel=       1 NClECP=     1 NCelD=      1
         NCelK=      1 NCelE2=     1 NClLst=     1 CellRange=     0.0.
 One-electron integrals computed using PRISM.
 NBasis=   197 RedAO= T  NBF=   197
 NBsUse=   197 1.00D-06 NBFU=   197
 Precomputing XC quadrature grid using
 IXCGrd= 2 IRadAn=           5 IRanWt=          -1 IRanGd=           0 AccXCQ= 0.00D+00.
 NRdTot=     427 NPtTot=      123814 NUsed=      126881 NTot=      126913
 NSgBfM=   229   229   229   229   229 NAtAll=     5     5.
 Leave Link  302 at Mon May 11 16:14:28 2020, MaxMem= 1073741824 cpu:       1.0
 (Enter /home/matheus/.gaussian/g09/l303.exe)
 DipDrv:  MaxL=1.
 Leave Link  303 at Mon May 11 16:14:28 2020, MaxMem= 1073741824 cpu:       0.2
 (Enter /home/matheus/.gaussian/g09/l401.exe)
 Harris functional with IExCor=10402 diagonalized for initial guess.
 ExpMin= 2.53D-02 ExpMax= 1.17D+07 ExpMxC= 1.33D+04 IAcc=3 IRadAn=         5 AccDes= 0.00D+00
 HarFok:  IExCor=10402 AccDes= 0.00D+00 IRadAn=         5 IDoV= 1
 ScaDFX=  1.000000  1.000000  1.000000  1.000000
 FoFCou: FMM=F IPFlag=           0 FMFlag=      100000 FMFlg1=           0
         NFxFlg=           0 DoJE=T BraDBF=F KetDBF=T FulRan=T
         Omega=  0.000000  0.000000  1.000000  0.000000  0.000000 ICntrl=     500 IOpCl=  0
         NMat0=    1 NMatS0=    1 NMatT0=    0 NMatD0=    1 NMtDS0=    0 NMtDT0=    0
         I1Cent=           4 NGrid=           0.
 Petite list used in FoFCou.
 Harris En= -2874.93157048481    
 Initial guess orbital symmetries:
       Occupied  (A) (A) (A) (A) (A) (A) (A) (A) (A) (A) (A) (A)
                 (A) (A) (A) (A) (A) (A) (A) (A) (A) (A) (A) (A)
                 (A) (A) (A)
       Virtual   (A) (A) (A) (A) (A) (A) (A) (A) (A) (A) (A) (A)
                 (A) (A) (A) (A) (A) (A) (A) (A) (A) (A) (A) (A)
                 (A) (A) (A) (A) (A) (A) (A) (A) (A) (A) (A) (A)
                 (A) (A) (A) (A) (A) (A) (A) (A) (A) (A) (A) (A)
                 (A) (A) (A) (A) (A) (A) (A) (A) (A) (A) (A) (A)
                 (A) (A) (A) (A) (A) (A) (A) (A) (A) (A) (A) (A)
                 (A) (A) (A) (A) (A) (A) (A) (A) (A) (A) (A) (A)
                 (A) (A) (A) (A) (A) (A) (A) (A) (A) (A) (A) (A)
                 (A) (A) (A) (A) (A) (A) (A) (A) (A) (A) (A) (A)
                 (A) (A) (A) (A) (A) (A) (A) (A) (A) (A) (A) (A)
                 (A) (A) (A) (A) (A) (A) (A) (A) (A) (A) (A) (A)
                 (A) (A) (A) (A) (A) (A) (A) (A) (A) (A) (A) (A)
                 (A) (A) (A) (A) (A) (A) (A) (A) (A) (A) (A) (A)
                 (A) (A) (A) (A) (A) (A) (A) (A) (A) (A) (A) (A)
                 (A) (A)
 The electronic state of the initial guess is 1-A.
 Leave Link  401 at Mon May 11 16:14:29 2020, MaxMem= 1073741824 cpu:       3.7
 (Enter /home/matheus/.gaussian/g09/l502.exe)
 Closed shell SCF:
 Requested convergence on RMS density matrix=1.00D-08 within 128 cycles.
 Requested convergence on MAX density matrix=1.00D-06.
 Requested convergence on             energy=1.00D-06.
 No special actions if energy rises.
 Using DIIS extrapolation, IDIIS=  1040.
 Integral symmetry usage will be decided dynamically.
       126823 words used for storage of precomputed grid.
 IEnd=      305770 IEndB=      305770 NGot=  1073741824 MDV=  1073505365
 LenX=  1073505365 LenY=  1073452483
 Fock matrices will be formed incrementally for  20 cycles.

 Cycle   1  Pass 1  IDiag  1:
 FoFJK:  IHMeth= 1 ICntrl=     0 DoSepK=T KAlg= 1 I1Cent= 0 FoldK=F
 FoFCou: FMM=F IPFlag=           0 FMFlag=      100000 FMFlg1=           0
         NFxFlg=           0 DoJE=T BraDBF=F KetDBF=F FulRan=T
         Omega=  0.000000  0.000000  1.000000  0.000000  0.000000 ICntrl=     500 IOpCl=  0
         NMat0=    1 NMatS0=    1 NMatT0=    0 NMatD0=    1 NMtDS0=    0 NMtDT0=    0
         I1Cent=           0 NGrid=           0.
 Symmetry not used in FoFCou.
 E= -2898.98057195074    
 DIIS: error= 1.38D-01 at cycle   1 NSaved=   1.
 NSaved= 1 IEnMin= 1 EnMin= -2898.98057195074     IErMin= 1 ErrMin= 1.38D-01
 ErrMax= 1.38D-01 EMaxC= 1.00D-01 BMatC= 4.03D+00 BMatP= 4.03D+00
 IDIUse=3 WtCom= 0.00D+00 WtEn= 1.00D+00
 Coeff-Com:  0.100D+01
 Coeff-En:   0.100D+01
 Coeff:      0.100D+01
 Gap=    -0.818 Goal=   None    Shift=    0.000
 GapD=   -0.818 DampG=0.250 DampE=0.250 DampFc=0.2500 IDamp=-1.
 Damping current iteration by 2.50D-01
 RMSDP=1.01D-01 MaxDP=6.61D+00              OVMax= 9.97D-01

 Cycle   2  Pass 1  IDiag  1:
 RMSU=  4.45D-03    CP:  7.64D-01
 FoFJK:  IHMeth= 1 ICntrl=     0 DoSepK=T KAlg= 1 I1Cent= 0 FoldK=F
 E= -2901.06477102426     Delta-E=       -2.084199073525 Rises=F Damp=T
 DIIS: error= 5.60D-02 at cycle   2 NSaved=   2.
 NSaved= 2 IEnMin= 2 EnMin= -2901.06477102426     IErMin= 2 ErrMin= 5.60D-02
 ErrMax= 5.60D-02 EMaxC= 1.00D-01 BMatC= 1.08D+00 BMatP= 4.03D+00
 IDIUse=3 WtCom= 4.40D-01 WtEn= 5.60D-01
 Coeff-Com: -0.775D+00 0.178D+01
 Coeff-En:   0.000D+00 0.100D+01
 Coeff:     -0.341D+00 0.134D+01
 Gap=     0.123 Goal=   None    Shift=    0.000
 RMSDP=7.56D-02 MaxDP=4.95D+00 DE=-2.08D+00 OVMax= 7.78D-01

 Cycle   3  Pass 1  IDiag  1:
 RMSU=  5.87D-03    CP:  5.59D-02  3.00D+00
 FoFJK:  IHMeth= 1 ICntrl=     0 DoSepK=T KAlg= 1 I1Cent= 0 FoldK=F
 E= -2904.28045842346     Delta-E=       -3.215687399201 Rises=F Damp=F
 DIIS: error= 3.44D-02 at cycle   3 NSaved=   3.
 NSaved= 3 IEnMin= 3 EnMin= -2904.28045842346     IErMin= 3 ErrMin= 3.44D-02
 ErrMax= 3.44D-02 EMaxC= 1.00D-01 BMatC= 5.26D-01 BMatP= 1.08D+00
 IDIUse=3 WtCom= 6.56D-01 WtEn= 3.44D-01
 Coeff-Com: -0.490D-01 0.469D+00 0.580D+00
 Coeff-En:   0.000D+00 0.000D+00 0.100D+01
 Coeff:     -0.321D-01 0.308D+00 0.724D+00
 Gap=     0.602 Goal=   None    Shift=    0.000
 RMSDP=2.41D-03 MaxDP=8.67D-02 DE=-3.22D+00 OVMax= 1.04D-01

 Cycle   4  Pass 1  IDiag  1:
 RMSU=  1.70D-03    CP:  5.53D-02  3.00D+00  9.79D-01
 FoFJK:  IHMeth= 1 ICntrl=     0 DoSepK=T KAlg= 1 I1Cent= 0 FoldK=F
 E= -2904.61093464141     Delta-E=       -0.330476217948 Rises=F Damp=F
 DIIS: error= 3.78D-03 at cycle   4 NSaved=   4.
 NSaved= 4 IEnMin= 4 EnMin= -2904.61093464141     IErMin= 4 ErrMin= 3.78D-03
 ErrMax= 3.78D-03 EMaxC= 1.00D-01 BMatC= 1.11D-02 BMatP= 5.26D-01
 IDIUse=3 WtCom= 9.62D-01 WtEn= 3.78D-02
 Coeff-Com: -0.266D-01 0.664D-01 0.707D-01 0.890D+00
 Coeff-En:   0.000D+00 0.000D+00 0.000D+00 0.100D+01
 Coeff:     -0.256D-01 0.639D-01 0.680D-01 0.894D+00
 Gap=     0.496 Goal=   None    Shift=    0.000
 RMSDP=6.06D-04 MaxDP=1.98D-02 DE=-3.30D-01 OVMax= 1.95D-02

 Cycle   5  Pass 1  IDiag  1:
 RMSU=  4.20D-04    CP:  5.53D-02  3.00D+00  9.79D-01  1.05D+00
 FoFJK:  IHMeth= 1 ICntrl=     0 DoSepK=T KAlg= 1 I1Cent= 0 FoldK=F
 E= -2904.61786202190     Delta-E=       -0.006927380486 Rises=F Damp=F
 DIIS: error= 1.31D-03 at cycle   5 NSaved=   5.
 NSaved= 5 IEnMin= 5 EnMin= -2904.61786202190     IErMin= 5 ErrMin= 1.31D-03
 ErrMax= 1.31D-03 EMaxC= 1.00D-01 BMatC= 7.18D-04 BMatP= 1.11D-02
 IDIUse=3 WtCom= 9.87D-01 WtEn= 1.31D-02
 Coeff-Com: -0.253D-01 0.495D-01-0.997D-02-0.493D-01 0.104D+01
 Coeff-En:   0.000D+00 0.000D+00 0.000D+00 0.000D+00 0.100D+01
 Coeff:     -0.249D-01 0.488D-01-0.984D-02-0.486D-01 0.103D+01
 Gap=     0.513 Goal=   None    Shift=    0.000
 RMSDP=1.52D-04 MaxDP=5.01D-03 DE=-6.93D-03 OVMax= 6.86D-03

 Cycle   6  Pass 1  IDiag  1:
 RMSU=  8.47D-05    CP:  5.53D-02  3.00D+00  9.77D-01  1.06D+00  1.15D+00
 FoFJK:  IHMeth= 1 ICntrl=     0 DoSepK=T KAlg= 1 I1Cent= 0 FoldK=F
 E= -2904.61859095183     Delta-E=       -0.000728929928 Rises=F Damp=F
 DIIS: error= 5.02D-04 at cycle   6 NSaved=   6.
 NSaved= 6 IEnMin= 6 EnMin= -2904.61859095183     IErMin= 6 ErrMin= 5.02D-04
 ErrMax= 5.02D-04 EMaxC= 1.00D-01 BMatC= 1.38D-04 BMatP= 7.18D-04
 IDIUse=3 WtCom= 9.95D-01 WtEn= 5.02D-03
 Coeff-Com: -0.551D-02 0.103D-01-0.133D-01-0.571D-01 0.109D+00 0.957D+00
 Coeff-En:   0.000D+00 0.000D+00 0.000D+00 0.000D+00 0.000D+00 0.100D+01
 Coeff:     -0.549D-02 0.103D-01-0.132D-01-0.568D-01 0.108D+00 0.957D+00
 Gap=     0.516 Goal=   None    Shift=    0.000
 RMSDP=6.79D-05 MaxDP=1.75D-03 DE=-7.29D-04 OVMax= 3.65D-03

 Cycle   7  Pass 1  IDiag  1:
 RMSU=  2.65D-05    CP:  5.53D-02  3.00D+00  9.77D-01  1.07D+00  1.22D+00
                    CP:  1.15D+00
 FoFJK:  IHMeth= 1 ICntrl=     0 DoSepK=T KAlg= 1 I1Cent= 0 FoldK=F
 E= -2904.61877080756     Delta-E=       -0.000179855739 Rises=F Damp=F
 DIIS: error= 3.59D-04 at cycle   7 NSaved=   7.
 NSaved= 7 IEnMin= 7 EnMin= -2904.61877080756     IErMin= 7 ErrMin= 3.59D-04
 ErrMax= 3.59D-04 EMaxC= 1.00D-01 BMatC= 2.86D-05 BMatP= 1.38D-04
 IDIUse=3 WtCom= 9.96D-01 WtEn= 3.59D-03
 Coeff-Com:  0.133D-02-0.292D-02-0.545D-02-0.162D-01-0.100D+00 0.347D+00
 Coeff-Com:  0.776D+00
 Coeff-En:   0.000D+00 0.000D+00 0.000D+00 0.000D+00 0.000D+00 0.000D+00
 Coeff-En:   0.100D+01
 Coeff:      0.132D-02-0.291D-02-0.543D-02-0.161D-01-0.998D-01 0.346D+00
 Coeff:      0.777D+00
 Gap=     0.516 Goal=   None    Shift=    0.000
 RMSDP=2.60D-05 MaxDP=6.59D-04 DE=-1.80D-04 OVMax= 2.17D-03

 Cycle   8  Pass 1  IDiag  1:
 RMSU=  1.16D-05    CP:  5.53D-02  3.00D+00  9.76D-01  1.08D+00  1.24D+00
                    CP:  1.23D+00  1.17D+00
 FoFJK:  IHMeth= 1 ICntrl=     0 DoSepK=T KAlg= 1 I1Cent= 0 FoldK=F
 E= -2904.61880590660     Delta-E=       -0.000035099038 Rises=F Damp=F
 DIIS: error= 9.97D-05 at cycle   8 NSaved=   8.
 NSaved= 8 IEnMin= 8 EnMin= -2904.61880590660     IErMin= 8 ErrMin= 9.97D-05
 ErrMax= 9.97D-05 EMaxC= 1.00D-01 BMatC= 2.60D-06 BMatP= 2.86D-05
 IDIUse=1 WtCom= 1.00D+00 WtEn= 0.00D+00
 Coeff-Com:  0.130D-02-0.234D-02 0.231D-02 0.767D-02-0.980D-02-0.119D+00
 Coeff-Com:  0.205D-01 0.110D+01
 Coeff:      0.130D-02-0.234D-02 0.231D-02 0.767D-02-0.980D-02-0.119D+00
 Coeff:      0.205D-01 0.110D+01
 Gap=     0.516 Goal=   None    Shift=    0.000
 RMSDP=1.26D-05 MaxDP=3.11D-04 DE=-3.51D-05 OVMax= 1.63D-03

 Cycle   9  Pass 1  IDiag  1:
 RMSU=  5.24D-06    CP:  5.53D-02  3.00D+00  9.77D-01  1.08D+00  1.24D+00
                    CP:  1.25D+00  1.38D+00  1.32D+00
 FoFJK:  IHMeth= 1 ICntrl=     0 DoSepK=T KAlg= 1 I1Cent= 0 FoldK=F
 E= -2904.61881331501     Delta-E=       -0.000007408408 Rises=F Damp=F
 DIIS: error= 4.65D-05 at cycle   9 NSaved=   9.
 NSaved= 9 IEnMin= 9 EnMin= -2904.61881331501     IErMin= 9 ErrMin= 4.65D-05
 ErrMax= 4.65D-05 EMaxC= 1.00D-01 BMatC= 5.25D-07 BMatP= 2.60D-06
 IDIUse=1 WtCom= 1.00D+00 WtEn= 0.00D+00
 Coeff-Com: -0.874D-04 0.243D-03 0.353D-03 0.512D-03 0.431D-02 0.134D-01
 Coeff-Com: -0.839D-01-0.374D+00 0.144D+01
 Coeff:     -0.874D-04 0.243D-03 0.353D-03 0.512D-03 0.431D-02 0.134D-01
 Coeff:     -0.839D-01-0.374D+00 0.144D+01
 Gap=     0.516 Goal=   None    Shift=    0.000
 RMSDP=8.39D-06 MaxDP=1.72D-04 DE=-7.41D-06 OVMax= 1.24D-03

 Cycle  10  Pass 1  IDiag  1:
 RMSU=  2.05D-06    CP:  5.53D-02  3.00D+00  9.77D-01  1.08D+00  1.24D+00
                    CP:  1.26D+00  1.46D+00  1.57D+00  1.76D+00
 FoFJK:  IHMeth= 1 ICntrl=     0 DoSepK=T KAlg= 1 I1Cent= 0 FoldK=F
 E= -2904.61881560519     Delta-E=       -0.000002290176 Rises=F Damp=F
 DIIS: error= 2.27D-05 at cycle  10 NSaved=  10.
 NSaved=10 IEnMin=10 EnMin= -2904.61881560519     IErMin=10 ErrMin= 2.27D-05
 ErrMax= 2.27D-05 EMaxC= 1.00D-01 BMatC= 8.88D-08 BMatP= 5.25D-07
 IDIUse=1 WtCom= 1.00D+00 WtEn= 0.00D+00
 Coeff-Com: -0.178D-03 0.324D-03-0.487D-03-0.139D-02-0.828D-03 0.185D-01
 Coeff-Com:  0.622D-02-0.139D+00-0.196D+00 0.131D+01
 Coeff:     -0.178D-03 0.324D-03-0.487D-03-0.139D-02-0.828D-03 0.185D-01
 Coeff:      0.622D-02-0.139D+00-0.196D+00 0.131D+01
 Gap=     0.516 Goal=   None    Shift=    0.000
 RMSDP=4.20D-06 MaxDP=9.37D-05 DE=-2.29D-06 OVMax= 6.69D-04

 Cycle  11  Pass 1  IDiag  1:
 RMSU=  8.58D-07    CP:  5.53D-02  3.00D+00  9.77D-01  1.08D+00  1.24D+00
                    CP:  1.27D+00  1.50D+00  1.67D+00  2.12D+00  1.62D+00
 FoFJK:  IHMeth= 1 ICntrl=     0 DoSepK=T KAlg= 1 I1Cent= 0 FoldK=F
 E= -2904.61881606588     Delta-E=       -0.000000460696 Rises=F Damp=F
 DIIS: error= 8.52D-06 at cycle  11 NSaved=  11.
 NSaved=11 IEnMin=11 EnMin= -2904.61881606588     IErMin=11 ErrMin= 8.52D-06
 ErrMax= 8.52D-06 EMaxC= 1.00D-01 BMatC= 1.18D-08 BMatP= 8.88D-08
 IDIUse=1 WtCom= 1.00D+00 WtEn= 0.00D+00
 Coeff-Com: -0.216D-04 0.260D-04 0.311D-04 0.151D-03 0.136D-02-0.820D-02
 Coeff-Com:  0.469D-02 0.789D-01-0.145D+00-0.306D+00 0.137D+01
 Coeff:     -0.216D-04 0.260D-04 0.311D-04 0.151D-03 0.136D-02-0.820D-02
 Coeff:      0.469D-02 0.789D-01-0.145D+00-0.306D+00 0.137D+01
 Gap=     0.516 Goal=   None    Shift=    0.000
 RMSDP=1.67D-06 MaxDP=3.67D-05 DE=-4.61D-07 OVMax= 2.61D-04

 Cycle  12  Pass 1  IDiag  1:
 RMSU=  3.20D-07    CP:  5.53D-02  3.00D+00  9.77D-01  1.08D+00  1.24D+00
                    CP:  1.27D+00  1.51D+00  1.71D+00  2.23D+00  1.90D+00
                    CP:  1.58D+00
 FoFJK:  IHMeth= 1 ICntrl=     0 DoSepK=T KAlg= 1 I1Cent= 0 FoldK=F
 E= -2904.61881612533     Delta-E=       -0.000000059450 Rises=F Damp=F
 DIIS: error= 2.25D-06 at cycle  12 NSaved=  12.
 NSaved=12 IEnMin=12 EnMin= -2904.61881612533     IErMin=12 ErrMin= 2.25D-06
 ErrMax= 2.25D-06 EMaxC= 1.00D-01 BMatC= 8.90D-10 BMatP= 1.18D-08
 IDIUse=1 WtCom= 1.00D+00 WtEn= 0.00D+00
 Coeff-Com:  0.599D-05-0.127D-04 0.258D-04 0.103D-03-0.425D-03 0.668D-03
 Coeff-Com: -0.376D-03-0.948D-02 0.521D-01-0.310D-01-0.385D+00 0.137D+01
 Coeff:      0.599D-05-0.127D-04 0.258D-04 0.103D-03-0.425D-03 0.668D-03
 Coeff:     -0.376D-03-0.948D-02 0.521D-01-0.310D-01-0.385D+00 0.137D+01
 Gap=     0.516 Goal=   None    Shift=    0.000
 RMSDP=4.22D-07 MaxDP=9.72D-06 DE=-5.94D-08 OVMax= 5.60D-05

 Cycle  13  Pass 1  IDiag  1:
 RMSU=  7.45D-08    CP:  5.53D-02  3.00D+00  9.77D-01  1.08D+00  1.24D+00
                    CP:  1.27D+00  1.52D+00  1.72D+00  2.24D+00  1.94D+00
                    CP:  1.77D+00  1.47D+00
 FoFJK:  IHMeth= 1 ICntrl=     0 DoSepK=T KAlg= 1 I1Cent= 0 FoldK=F
 E= -2904.61881612898     Delta-E=       -0.000000003644 Rises=F Damp=F
 DIIS: error= 4.21D-07 at cycle  13 NSaved=  13.
 NSaved=13 IEnMin=13 EnMin= -2904.61881612898     IErMin=13 ErrMin= 4.21D-07
 ErrMax= 4.21D-07 EMaxC= 1.00D-01 BMatC= 4.50D-11 BMatP= 8.90D-10
 IDIUse=1 WtCom= 1.00D+00 WtEn= 0.00D+00
 Coeff-Com:  0.104D-05-0.925D-06-0.410D-05-0.148D-04 0.224D-05 0.194D-03
 Coeff-Com:  0.171D-03-0.200D-02-0.470D-02 0.245D-01-0.620D-02-0.233D+00
 Coeff-Com:  0.122D+01
 Coeff:      0.104D-05-0.925D-06-0.410D-05-0.148D-04 0.224D-05 0.194D-03
 Coeff:      0.171D-03-0.200D-02-0.470D-02 0.245D-01-0.620D-02-0.233D+00
 Coeff:      0.122D+01
 Gap=     0.516 Goal=   None    Shift=    0.000
 RMSDP=7.55D-08 MaxDP=2.38D-06 DE=-3.64D-09 OVMax= 7.24D-06

 Cycle  14  Pass 1  IDiag  1:
 RMSU=  1.67D-08    CP:  5.53D-02  3.00D+00  9.77D-01  1.08D+00  1.24D+00
                    CP:  1.27D+00  1.52D+00  1.72D+00  2.24D+00  1.95D+00
                    CP:  1.78D+00  1.54D+00  1.42D+00
 FoFJK:  IHMeth= 1 ICntrl=     0 DoSepK=T KAlg= 1 I1Cent= 0 FoldK=F
 E= -2904.61881612912     Delta-E=       -0.000000000142 Rises=F Damp=F
 DIIS: error= 1.15D-07 at cycle  14 NSaved=  14.
 NSaved=14 IEnMin=14 EnMin= -2904.61881612912     IErMin=14 ErrMin= 1.15D-07
 ErrMax= 1.15D-07 EMaxC= 1.00D-01 BMatC= 5.05D-12 BMatP= 4.50D-11
 IDIUse=1 WtCom= 1.00D+00 WtEn= 0.00D+00
 Coeff-Com:  0.666D-06-0.111D-05-0.878D-06-0.604D-05 0.525D-04-0.197D-03
 Coeff-Com:  0.668D-04 0.159D-02-0.442D-02-0.159D-02 0.379D-01-0.877D-01
 Coeff-Com: -0.194D+00 0.125D+01
 Coeff:      0.666D-06-0.111D-05-0.878D-06-0.604D-05 0.525D-04-0.197D-03
 Coeff:      0.668D-04 0.159D-02-0.442D-02-0.159D-02 0.379D-01-0.877D-01
 Coeff:     -0.194D+00 0.125D+01
 Gap=     0.516 Goal=   None    Shift=    0.000
 RMSDP=2.22D-08 MaxDP=8.38D-07 DE=-1.42D-10 OVMax= 2.33D-06

 Cycle  15  Pass 1  IDiag  1:
 RMSU=  6.34D-09    CP:  5.53D-02  3.00D+00  9.77D-01  1.08D+00  1.24D+00
                    CP:  1.27D+00  1.52D+00  1.72D+00  2.24D+00  1.95D+00
                    CP:  1.78D+00  1.55D+00  1.56D+00  1.47D+00
 FoFJK:  IHMeth= 1 ICntrl=     0 DoSepK=T KAlg= 1 I1Cent= 0 FoldK=F
 E= -2904.61881612912     Delta-E=        0.000000000000 Rises=F Damp=F
 DIIS: error= 4.56D-08 at cycle  15 NSaved=  15.
 NSaved=15 IEnMin=14 EnMin= -2904.61881612912     IErMin=15 ErrMin= 4.56D-08
 ErrMax= 4.56D-08 EMaxC= 1.00D-01 BMatC= 5.20D-13 BMatP= 5.05D-12
 IDIUse=1 WtCom= 1.00D+00 WtEn= 0.00D+00
 Coeff-Com: -0.134D-06 0.187D-06 0.631D-06 0.379D-05-0.261D-04 0.597D-04
 Coeff-Com:  0.405D-04-0.439D-03 0.148D-02-0.346D-03-0.137D-01 0.462D-01
 Coeff-Com:  0.709D-02-0.577D+00 0.154D+01
 Coeff:     -0.134D-06 0.187D-06 0.631D-06 0.379D-05-0.261D-04 0.597D-04
 Coeff:      0.405D-04-0.439D-03 0.148D-02-0.346D-03-0.137D-01 0.462D-01
 Coeff:      0.709D-02-0.577D+00 0.154D+01
 Gap=     0.516 Goal=   None    Shift=    0.000
 RMSDP=8.79D-09 MaxDP=1.68D-07 DE= 0.00D+00 OVMax= 1.08D-06

 SCF Done:  E(RLC-B+HF-LYP) =  -2904.61881613     A.U. after   15 cycles
             Convg  =    0.8788D-08             -V/T =  2.0016
 KE= 2.899948303866D+03 PE=-7.234272852834D+03 EE= 1.281316207824D+03
 Leave Link  502 at Mon May 11 16:15:14 2020, MaxMem= 1073741824 cpu:     356.1
 (Enter /home/matheus/.gaussian/g09/l601.exe)
 Copying SCF densities to generalized density rwf, IOpCl= 0 IROHF=0.

 **********************************************************************

            Population analysis using the SCF density.

 **********************************************************************

 Orbital symmetries:
       Occupied  (A) (A) (A) (A) (A) (A) (A) (A) (A) (A) (A) (A)
                 (A) (A) (A) (A) (A) (A) (A) (A) (A) (A) (A) (A)
                 (A) (A) (A)
       Virtual   (A) (A) (A) (A) (A) (A) (A) (A) (A) (A) (A) (A)
                 (A) (A) (A) (A) (A) (A) (A) (A) (A) (A) (A) (A)
                 (A) (A) (A) (A) (A) (A) (A) (A) (A) (A) (A) (A)
                 (A) (A) (A) (A) (A) (A) (A) (A) (A) (A) (A) (A)
                 (A) (A) (A) (A) (A) (A) (A) (A) (A) (A) (A) (A)
                 (A) (A) (A) (A) (A) (A) (A) (A) (A) (A) (A) (A)
                 (A) (A) (A) (A) (A) (A) (A) (A) (A) (A) (A) (A)
                 (A) (A) (A) (A) (A) (A) (A) (A) (A) (A) (A) (A)
                 (A) (A) (A) (A) (A) (A) (A) (A) (A) (A) (A) (A)
                 (A) (A) (A) (A) (A) (A) (A) (A) (A) (A) (A) (A)
                 (A) (A) (A) (A) (A) (A) (A) (A) (A) (A) (A) (A)
                 (A) (A) (A) (A) (A) (A) (A) (A) (A) (A) (A) (A)
                 (A) (A) (A) (A) (A) (A) (A) (A) (A) (A) (A) (A)
                 (A) (A) (A) (A) (A) (A) (A) (A) (A) (A) (A) (A)
                 (A) (A)
 The electronic state is 1-A.
 Alpha  occ. eigenvalues -- -511.66410 -67.18906 -60.86113 -60.86096 -60.86086
 Alpha  occ. eigenvalues --  -19.48115 -19.47791 -10.09034  -7.80635  -7.80591
 Alpha  occ. eigenvalues --   -7.80565  -3.63595  -3.63586  -3.63566  -3.63529
 Alpha  occ. eigenvalues --   -3.63526  -1.45945  -1.21417  -1.18437  -0.73998
 Alpha  occ. eigenvalues --   -0.73598  -0.64495  -0.57284  -0.56245  -0.55841
 Alpha  occ. eigenvalues --   -0.54522  -0.48713
 Alpha virt. eigenvalues --    0.02887   0.03792   0.07840   0.09472   0.10520
 Alpha virt. eigenvalues --    0.11262   0.13634   0.14434   0.15929   0.16729
 Alpha virt. eigenvalues --    0.18193   0.19855   0.22518   0.23749   0.24024
 Alpha virt. eigenvalues --    0.24860   0.26608   0.29536   0.31509   0.34121
 Alpha virt. eigenvalues --    0.34452   0.34850   0.36524   0.39486   0.40820
 Alpha virt. eigenvalues --    0.42762   0.43036   0.49479   0.54107   0.57066
 Alpha virt. eigenvalues --    0.58721   0.61587   0.65859   0.68025   0.70820
 Alpha virt. eigenvalues --    0.73811   0.74649   0.75152   0.76028   0.78560
 Alpha virt. eigenvalues --    0.80736   0.82007   0.82451   0.83974   0.85007
 Alpha virt. eigenvalues --    0.87557   0.88565   0.90096   0.91564   0.95405
 Alpha virt. eigenvalues --    0.96100   0.97100   0.99441   0.99805   1.02543
 Alpha virt. eigenvalues --    1.05422   1.07183   1.09696   1.11746   1.14719
 Alpha virt. eigenvalues --    1.15474   1.18032   1.20053   1.22529   1.24867
 Alpha virt. eigenvalues --    1.32020   1.36599   1.40824   1.45024   1.46948
 Alpha virt. eigenvalues --    1.49407   1.56501   1.58514   1.61680   1.67848
 Alpha virt. eigenvalues --    1.68659   1.84955   1.92416   1.93673   2.03600
 Alpha virt. eigenvalues --    2.09826   2.11935   2.14039   2.24513   2.25953
 Alpha virt. eigenvalues --    2.28287   2.31021   2.31977   2.33636   2.35912
 Alpha virt. eigenvalues --    2.39187   2.41904   2.45635   2.46191   2.46994
 Alpha virt. eigenvalues --    2.49892   2.51793   2.56815   2.59841   2.63021
 Alpha virt. eigenvalues --    2.64228   2.64562   2.65436   2.68235   2.69669
 Alpha virt. eigenvalues --    2.73284   2.75227   2.78581   2.80342   2.81682
 Alpha virt. eigenvalues --    2.86210   2.88686   2.92075   2.99021   3.02839
 Alpha virt. eigenvalues --    3.07499   3.20058   3.23191   3.29212   3.73048
 Alpha virt. eigenvalues --    3.84955   4.04143   4.09439   4.18823   4.21003
 Alpha virt. eigenvalues --    4.26367   4.30654   4.32400   4.37705   4.40859
 Alpha virt. eigenvalues --    4.58039   4.65699   4.67124   4.71254   4.92141
 Alpha virt. eigenvalues --    5.10988   5.17016   5.19711   5.25118   5.29728
 Alpha virt. eigenvalues --    5.51199   5.66297   6.05306   6.25808   6.29847
 Alpha virt. eigenvalues --    6.35612   6.58024   6.58357   6.65489   6.75325
 Alpha virt. eigenvalues --    6.93413   6.99367   7.01420   7.08727   7.11163
 Alpha virt. eigenvalues --    7.11950   7.17749   7.18991   7.21543   7.26519
 Alpha virt. eigenvalues --    7.29509   7.49146   7.50582   7.63791   7.93368
 Alpha virt. eigenvalues --    8.09060   8.33205   8.38778  14.26846  14.82930
          Condensed to atoms (all electrons):
              1          2          3          4          5
     1  O    8.201833  -0.153146   0.205086  -0.012157  -0.033747
     2  O   -0.153146   8.203240   0.000631   0.218361  -0.009389
     3  H    0.205086   0.000631   0.565410   0.006019   0.003766
     4  H   -0.012157   0.218361   0.006019   0.553593  -0.013028
     5  Kr  -0.033747  -0.009389   0.003766  -0.013028  36.051136
 Mulliken atomic charges:
              1
     1  O   -0.207868
     2  O   -0.259696
     3  H    0.219089
     4  H    0.247213
     5  Kr   0.001263
 Sum of Mulliken atomic charges =   0.00000
 Mulliken charges with hydrogens summed into heavy atoms:
              1
     1  O    0.011221
     2  O   -0.012484
     5  Kr   0.001263
 Sum of Mulliken charges with hydrogens summed into heavy atoms =   0.00000
          Condensed to fragments (all electrons):
     1      -0.001263
     2       0.001263
 Electronic spatial extent (au):  <R**2>=            490.6142
 Charge=              0.0000 electrons
 Dipole moment (field-independent basis, Debye):
    X=             -0.3767    Y=             -0.3137    Z=              0.8509  Tot=              0.9820
 Quadrupole moment (field-independent basis, Debye-Ang):
   XX=            -27.0859   YY=            -27.9802   ZZ=            -29.8989
   XY=             -3.9621   XZ=              2.5857   YZ=             -0.9052
 Traceless Quadrupole moment (field-independent basis, Debye-Ang):
   XX=              1.2358   YY=              0.3414   ZZ=             -1.5772
   XY=             -3.9621   XZ=              2.5857   YZ=             -0.9052
 Octapole moment (field-independent basis, Debye-Ang**2):
  XXX=             -3.2901  YYY=             -0.7001  ZZZ=              0.4314  XYY=             -3.9453
  XXY=            -16.2711  XXZ=              7.5216  XZZ=             -7.0984  YZZ=             -0.6639
  YYZ=              1.0892  XYZ=             -2.7127
 Hexadecapole moment (field-independent basis, Debye-Ang**3):
 XXXX=           -351.0943 YYYY=            -62.2449 ZZZZ=            -28.4447 XXXY=            -49.9021
 XXXZ=             22.3530 YYYX=             -5.8988 YYYZ=             -1.1587 ZZZX=              1.3495
 ZZZY=             -0.5863 XXYY=            -73.9442 XXZZ=            -75.4785 YYZZ=            -16.5695
 XXYZ=             -7.9714 YYXZ=              3.0699 ZZXY=             -1.4416
 N-N= 1.483895250152D+02 E-N=-7.234272856330D+03  KE= 2.899948303866D+03
 No NMR shielding tensors so no spin-rotation constants.
 Leave Link  601 at Mon May 11 16:15:14 2020, MaxMem= 1073741824 cpu:       0.8
 (Enter /home/matheus/.gaussian/g09/l122.exe)
 Counterpoise: doing DCBS calculation for fragment   1 NewBq=T
 Leave Link  122 at Mon May 11 16:15:14 2020, MaxMem= 1073741824 cpu:       0.0
 (Enter /home/matheus/.gaussian/g09/l301.exe)
 Basis read from rwf:  (5D, 7F)
 No pseudopotential information found on rwf file.
 There are   197 symmetry adapted basis functions of A   symmetry.
 Integral buffers will be    131072 words long.
 Raffenetti 2 integral format.
 Two-electron integral symmetry is turned on.
   197 basis functions,   415 primitive gaussians,   229 cartesian basis functions
     9 alpha electrons        9 beta electrons
       nuclear repulsion energy        36.6035600706 Hartrees.
 IExCor=10402 DFT=T Ex=LC-B+HF Corr=LYP ExCW=0 ScaHFX=  1.000000
 ScaDFX=  1.000000  1.000000  1.000000  1.000000 ScalE2=  1.000000  1.000000
 IRadAn=      5 IRanWt=     -1 IRanGd=            0 ICorTp=0
  HFx wShort=  0.000000 wLong=  1.350000 cFull=  0.000000 cShort=  0.000000 cLong=  1.000000
  DFx wShort=  0.000000 wLong=  1.350000 cFull=  0.000000 cShort=  0.000000 cLong=  1.000000
 NAtoms=    5 NActive=    5 NUniq=    5 SFac= 1.00D+00 NAtFMM=   60 NAOKFM=F Big=F
 No density basis found on file   718.
 Leave Link  301 at Mon May 11 16:15:14 2020, MaxMem= 1073741824 cpu:       0.2
 (Enter /home/matheus/.gaussian/g09/l302.exe)
 NPDir=0 NMtPBC=     1 NCelOv=     1 NCel=       1 NClECP=     1 NCelD=      1
         NCelK=      1 NCelE2=     1 NClLst=     1 CellRange=     0.0.
 One-electron integrals computed using PRISM.
 NBasis=   197 RedAO= T  NBF=   197
 NBsUse=   197 1.00D-06 NBFU=   197
 Precomputing XC quadrature grid using
 IXCGrd= 2 IRadAn=           5 IRanWt=          -1 IRanGd=           0 AccXCQ= 0.00D+00.
 NRdTot=     427 NPtTot=      123814 NUsed=      126881 NTot=      126913
 NSgBfM=   229   229   229   229   229 NAtAll=     5     5.
 Leave Link  302 at Mon May 11 16:15:14 2020, MaxMem= 1073741824 cpu:       1.0
 (Enter /home/matheus/.gaussian/g09/l303.exe)
 DipDrv:  MaxL=1.
 Leave Link  303 at Mon May 11 16:15:14 2020, MaxMem= 1073741824 cpu:       0.2
 (Enter /home/matheus/.gaussian/g09/l401.exe)
 Harris functional with IExCor=10402 diagonalized for initial guess.
 ExpMin= 2.53D-02 ExpMax= 1.17D+07 ExpMxC= 1.33D+04 IAcc=3 IRadAn=         5 AccDes= 0.00D+00
 HarFok:  IExCor=10402 AccDes= 0.00D+00 IRadAn=         5 IDoV= 1
 ScaDFX=  1.000000  1.000000  1.000000  1.000000
 FoFCou: FMM=F IPFlag=           0 FMFlag=      100000 FMFlg1=           0
         NFxFlg=           0 DoJE=T BraDBF=F KetDBF=T FulRan=T
         Omega=  0.000000  0.000000  1.000000  0.000000  0.000000 ICntrl=     500 IOpCl=  0
         NMat0=    1 NMatS0=    1 NMatT0=    0 NMatD0=    1 NMtDS0=    0 NMtDT0=    0
         I1Cent=           4 NGrid=           0.
 Petite list used in FoFCou.
 Harris En= -143.240507477186    
 Initial guess orbital symmetries:
       Occupied  (A) (A) (A) (A) (A) (A) (A) (A) (A)
       Virtual   (A) (A) (A) (A) (A) (A) (A) (A) (A) (A) (A) (A)
                 (A) (A) (A) (A) (A) (A) (A) (A) (A) (A) (A) (A)
                 (A) (A) (A) (A) (A) (A) (A) (A) (A) (A) (A) (A)
                 (A) (A) (A) (A) (A) (A) (A) (A) (A) (A) (A) (A)
                 (A) (A) (A) (A) (A) (A) (A) (A) (A) (A) (A) (A)
                 (A) (A) (A) (A) (A) (A) (A) (A) (A) (A) (A) (A)
                 (A) (A) (A) (A) (A) (A) (A) (A) (A) (A) (A) (A)
                 (A) (A) (A) (A) (A) (A) (A) (A) (A) (A) (A) (A)
                 (A) (A) (A) (A) (A) (A) (A) (A) (A) (A) (A) (A)
                 (A) (A) (A) (A) (A) (A) (A) (A) (A) (A) (A) (A)
                 (A) (A) (A) (A) (A) (A) (A) (A) (A) (A) (A) (A)
                 (A) (A) (A) (A) (A) (A) (A) (A) (A) (A) (A) (A)
                 (A) (A) (A) (A) (A) (A) (A) (A) (A) (A) (A) (A)
                 (A) (A) (A) (A) (A) (A) (A) (A) (A) (A) (A) (A)
                 (A) (A) (A) (A) (A) (A) (A) (A) (A) (A) (A) (A)
                 (A) (A) (A) (A) (A) (A) (A) (A)
 The electronic state of the initial guess is 1-A.
 Leave Link  401 at Mon May 11 16:15:14 2020, MaxMem= 1073741824 cpu:       3.7
 (Enter /home/matheus/.gaussian/g09/l502.exe)
 Closed shell SCF:
 Requested convergence on RMS density matrix=1.00D-08 within 128 cycles.
 Requested convergence on MAX density matrix=1.00D-06.
 Requested convergence on             energy=1.00D-06.
 No special actions if energy rises.
 Using DIIS extrapolation, IDIIS=  1040.
 Integral symmetry usage will be decided dynamically.
       126823 words used for storage of precomputed grid.
 IEnd=      305770 IEndB=      305770 NGot=  1073741824 MDV=  1073505365
 LenX=  1073505365 LenY=  1073452483
 Fock matrices will be formed incrementally for  20 cycles.

 Cycle   1  Pass 1  IDiag  1:
 FoFJK:  IHMeth= 1 ICntrl=     0 DoSepK=T KAlg= 1 I1Cent= 0 FoldK=F
 FoFCou: FMM=F IPFlag=           0 FMFlag=      100000 FMFlg1=           0
         NFxFlg=           0 DoJE=T BraDBF=F KetDBF=F FulRan=T
         Omega=  0.000000  0.000000  1.000000  0.000000  0.000000 ICntrl=     500 IOpCl=  0
         NMat0=    1 NMatS0=    1 NMatT0=    0 NMatD0=    1 NMtDS0=    0 NMtDT0=    0
         I1Cent=           0 NGrid=           0.
 Symmetry not used in FoFCou.
 E= -145.841981349428    
 DIIS: error= 1.32D-01 at cycle   1 NSaved=   1.
 NSaved= 1 IEnMin= 1 EnMin= -145.841981349428     IErMin= 1 ErrMin= 1.32D-01
 ErrMax= 1.32D-01 EMaxC= 1.00D-01 BMatC= 2.82D+00 BMatP= 2.82D+00
 IDIUse=3 WtCom= 0.00D+00 WtEn= 1.00D+00
 Coeff-Com:  0.100D+01
 Coeff-En:   0.100D+01
 Coeff:      0.100D+01
 Gap=    -1.028 Goal=   None    Shift=    0.000
 GapD=   -1.028 DampG=0.250 DampE=0.250 DampFc=0.2500 IDamp=-1.
 Damping current iteration by 2.50D-01
 RMSDP=8.84D-02 MaxDP=6.64D+00              OVMax= 1.00D+00

 Cycle   2  Pass 1  IDiag  1:
 RMSU=  1.81D-03    CP:  7.52D-01
 FoFJK:  IHMeth= 1 ICntrl=     0 DoSepK=T KAlg= 1 I1Cent= 0 FoldK=F
 E= -147.887915521452     Delta-E=       -2.045934172024 Rises=F Damp=T
 DIIS: error= 6.59D-02 at cycle   2 NSaved=   2.
 NSaved= 2 IEnMin= 2 EnMin= -147.887915521452     IErMin= 2 ErrMin= 6.59D-02
 ErrMax= 6.59D-02 EMaxC= 1.00D-01 BMatC= 7.58D-01 BMatP= 2.82D+00
 IDIUse=3 WtCom= 3.41D-01 WtEn= 6.59D-01
 Coeff-Com: -0.986D+00 0.199D+01
 Coeff-En:   0.000D+00 0.100D+01
 Coeff:     -0.336D+00 0.134D+01
 Gap=     0.364 Goal=   None    Shift=    0.000
 RMSDP=6.63D-02 MaxDP=4.98D+00 DE=-2.05D+00 OVMax= 1.21D-01

 Cycle   3  Pass 1  IDiag  1:
 RMSU=  2.15D-03    CP:  9.32D-03  3.00D+00
 FoFJK:  IHMeth= 1 ICntrl=     0 DoSepK=T KAlg= 1 I1Cent= 0 FoldK=F
 E= -150.548498363770     Delta-E=       -2.660582842318 Rises=F Damp=F
 DIIS: error= 5.66D-02 at cycle   3 NSaved=   3.
 NSaved= 3 IEnMin= 3 EnMin= -150.548498363770     IErMin= 3 ErrMin= 5.66D-02
 ErrMax= 5.66D-02 EMaxC= 1.00D-01 BMatC= 9.50D-01 BMatP= 7.58D-01
 IDIUse=2 WtCom= 0.00D+00 WtEn= 1.00D+00
 Coeff-En:   0.800D-02 0.000D+00 0.992D+00
 Coeff:      0.800D-02 0.000D+00 0.992D+00
 Gap=     0.777 Goal=   None    Shift=    0.000
 RMSDP=3.99D-03 MaxDP=1.39D-01 DE=-2.66D+00 OVMax= 2.94D-01

 Cycle   4  Pass 1  IDiag  1:
 RMSU=  2.79D-03    CP:  1.04D-02  3.00D+00  1.18D+00
 FoFJK:  IHMeth= 1 ICntrl=     0 DoSepK=T KAlg= 1 I1Cent= 0 FoldK=F
 E= -150.943040750158     Delta-E=       -0.394542386388 Rises=F Damp=F
 DIIS: error= 4.00D-02 at cycle   4 NSaved=   4.
 NSaved= 4 IEnMin= 4 EnMin= -150.943040750158     IErMin= 4 ErrMin= 4.00D-02
 ErrMax= 4.00D-02 EMaxC= 1.00D-01 BMatC= 4.11D-01 BMatP= 7.58D-01
 IDIUse=3 WtCom= 6.00D-01 WtEn= 4.00D-01
 Coeff-Com: -0.414D+00 0.688D+00 0.203D+00 0.523D+00
 Coeff-En:   0.000D+00 0.000D+00 0.185D+00 0.815D+00
 Coeff:     -0.248D+00 0.413D+00 0.196D+00 0.640D+00
 Gap=     0.570 Goal=   None    Shift=    0.000
 RMSDP=1.87D-03 MaxDP=5.10D-02 DE=-3.95D-01 OVMax= 1.48D-01

 Cycle   5  Pass 1  IDiag  1:
 RMSU=  3.93D-04    CP:  9.51D-03  3.00D+00  1.20D+00  5.49D-01
 FoFJK:  IHMeth= 1 ICntrl=     0 DoSepK=T KAlg= 1 I1Cent= 0 FoldK=F
 E= -151.190582444538     Delta-E=       -0.247541694380 Rises=F Damp=F
 DIIS: error= 1.05D-02 at cycle   5 NSaved=   5.
 NSaved= 5 IEnMin= 5 EnMin= -151.190582444538     IErMin= 5 ErrMin= 1.05D-02
 ErrMax= 1.05D-02 EMaxC= 1.00D-01 BMatC= 2.88D-02 BMatP= 4.11D-01
 IDIUse=3 WtCom= 8.95D-01 WtEn= 1.05D-01
 Coeff-Com: -0.864D-01 0.156D+00-0.151D+00 0.715D-01 0.101D+01
 Coeff-En:   0.000D+00 0.000D+00 0.000D+00 0.000D+00 0.100D+01
 Coeff:     -0.773D-01 0.139D+00-0.135D+00 0.640D-01 0.101D+01
 Gap=     0.522 Goal=   None    Shift=    0.000
 RMSDP=4.15D-04 MaxDP=1.47D-02 DE=-2.48D-01 OVMax= 2.75D-02

 Cycle   6  Pass 1  IDiag  1:
 RMSU=  9.16D-05    CP:  9.70D-03  3.00D+00  1.22D+00  6.46D-01  1.15D+00
 FoFJK:  IHMeth= 1 ICntrl=     0 DoSepK=T KAlg= 1 I1Cent= 0 FoldK=F
 E= -151.210626890158     Delta-E=       -0.020044445620 Rises=F Damp=F
 DIIS: error= 1.82D-03 at cycle   6 NSaved=   6.
 NSaved= 6 IEnMin= 6 EnMin= -151.210626890158     IErMin= 6 ErrMin= 1.82D-03
 ErrMax= 1.82D-03 EMaxC= 1.00D-01 BMatC= 6.57D-04 BMatP= 2.88D-02
 IDIUse=3 WtCom= 9.82D-01 WtEn= 1.82D-02
 Coeff-Com: -0.315D-01 0.609D-01 0.849D-02-0.397D-01-0.417D+00 0.142D+01
 Coeff-En:   0.000D+00 0.000D+00 0.000D+00 0.000D+00 0.000D+00 0.100D+01
 Coeff:     -0.309D-01 0.598D-01 0.833D-02-0.390D-01-0.409D+00 0.141D+01
 Gap=     0.519 Goal=   None    Shift=    0.000
 RMSDP=9.93D-05 MaxDP=1.86D-03 DE=-2.00D-02 OVMax= 9.49D-03

 Cycle   7  Pass 1  IDiag  1:
 RMSU=  2.82D-05    CP:  9.74D-03  3.00D+00  1.22D+00  6.56D-01  1.23D+00
                    CP:  1.53D+00
 FoFJK:  IHMeth= 1 ICntrl=     0 DoSepK=T KAlg= 1 I1Cent= 0 FoldK=F
 E= -151.211283848426     Delta-E=       -0.000656958268 Rises=F Damp=F
 DIIS: error= 1.13D-03 at cycle   7 NSaved=   7.
 NSaved= 7 IEnMin= 7 EnMin= -151.211283848426     IErMin= 7 ErrMin= 1.13D-03
 ErrMax= 1.13D-03 EMaxC= 1.00D-01 BMatC= 2.28D-04 BMatP= 6.57D-04
 IDIUse=3 WtCom= 9.89D-01 WtEn= 1.13D-02
 Coeff-Com: -0.679D-02 0.127D-01 0.910D-02 0.738D-02-0.110D+00-0.323D+00
 Coeff-Com:  0.141D+01
 Coeff-En:   0.000D+00 0.000D+00 0.000D+00 0.000D+00 0.000D+00 0.000D+00
 Coeff-En:   0.100D+01
 Coeff:     -0.672D-02 0.125D-01 0.900D-02 0.730D-02-0.109D+00-0.320D+00
 Coeff:      0.141D+01
 Gap=     0.515 Goal=   None    Shift=    0.000
 RMSDP=6.88D-05 MaxDP=1.49D-03 DE=-6.57D-04 OVMax= 6.74D-03

 Cycle   8  Pass 1  IDiag  1:
 RMSU=  9.36D-06    CP:  9.79D-03  3.00D+00  1.21D+00  6.68D-01  1.24D+00
                    CP:  1.80D+00  1.85D+00
 FoFJK:  IHMeth= 1 ICntrl=     0 DoSepK=T KAlg= 1 I1Cent= 0 FoldK=F
 E= -151.211536455354     Delta-E=       -0.000252606928 Rises=F Damp=F
 DIIS: error= 2.13D-04 at cycle   8 NSaved=   8.
 NSaved= 8 IEnMin= 8 EnMin= -151.211536455354     IErMin= 8 ErrMin= 2.13D-04
 ErrMax= 2.13D-04 EMaxC= 1.00D-01 BMatC= 8.02D-06 BMatP= 2.28D-04
 IDIUse=3 WtCom= 9.98D-01 WtEn= 2.13D-03
 Coeff-Com: -0.433D-03 0.454D-03-0.316D-02 0.396D-02 0.519D-01-0.406D-01
 Coeff-Com: -0.418D+00 0.141D+01
 Coeff-En:   0.000D+00 0.000D+00 0.000D+00 0.000D+00 0.000D+00 0.000D+00
 Coeff-En:   0.000D+00 0.100D+01
 Coeff:     -0.432D-03 0.453D-03-0.315D-02 0.395D-02 0.518D-01-0.406D-01
 Coeff:     -0.417D+00 0.140D+01
 Gap=     0.515 Goal=   None    Shift=    0.000
 RMSDP=2.27D-05 MaxDP=4.69D-04 DE=-2.53D-04 OVMax= 2.91D-03

 Cycle   9  Pass 1  IDiag  1:
 RMSU=  3.89D-06    CP:  9.80D-03  3.00D+00  1.21D+00  6.71D-01  1.24D+00
                    CP:  1.86D+00  2.22D+00  1.64D+00
 FoFJK:  IHMeth= 1 ICntrl=     0 DoSepK=T KAlg= 1 I1Cent= 0 FoldK=F
 E= -151.211551929983     Delta-E=       -0.000015474628 Rises=F Damp=F
 DIIS: error= 4.09D-05 at cycle   9 NSaved=   9.
 NSaved= 9 IEnMin= 9 EnMin= -151.211551929983     IErMin= 9 ErrMin= 4.09D-05
 ErrMax= 4.09D-05 EMaxC= 1.00D-01 BMatC= 2.81D-07 BMatP= 8.02D-06
 IDIUse=1 WtCom= 1.00D+00 WtEn= 0.00D+00
 Coeff-Com:  0.419D-03-0.825D-03 0.378D-04-0.145D-02-0.160D-02 0.489D-01
 Coeff-Com: -0.931D-01-0.148D+00 0.120D+01
 Coeff:      0.419D-03-0.825D-03 0.378D-04-0.145D-02-0.160D-02 0.489D-01
 Coeff:     -0.931D-01-0.148D+00 0.120D+01
 Gap=     0.515 Goal=   None    Shift=    0.000
 RMSDP=5.63D-06 MaxDP=1.23D-04 DE=-1.55D-05 OVMax= 8.76D-04

 Cycle  10  Pass 1  IDiag  1:
 RMSU=  1.38D-06    CP:  9.80D-03  3.00D+00  1.21D+00  6.71D-01  1.24D+00
                    CP:  1.87D+00  2.29D+00  1.81D+00  1.62D+00
 FoFJK:  IHMeth= 1 ICntrl=     0 DoSepK=T KAlg= 1 I1Cent= 0 FoldK=F
 E= -151.211552997490     Delta-E=       -0.000001067508 Rises=F Damp=F
 DIIS: error= 2.45D-05 at cycle  10 NSaved=  10.
 NSaved=10 IEnMin=10 EnMin= -151.211552997490     IErMin=10 ErrMin= 2.45D-05
 ErrMax= 2.45D-05 EMaxC= 1.00D-01 BMatC= 1.50D-07 BMatP= 2.81D-07
 IDIUse=1 WtCom= 1.00D+00 WtEn= 0.00D+00
 Coeff-Com:  0.627D-03-0.107D-02 0.120D-02-0.226D-02-0.181D-01 0.431D-01
 Coeff-Com:  0.749D-01-0.499D+00 0.497D+00 0.904D+00
 Coeff:      0.627D-03-0.107D-02 0.120D-02-0.226D-02-0.181D-01 0.431D-01
 Coeff:      0.749D-01-0.499D+00 0.497D+00 0.904D+00
 Gap=     0.515 Goal=   None    Shift=    0.000
 RMSDP=3.31D-06 MaxDP=7.25D-05 DE=-1.07D-06 OVMax= 5.12D-04

 Cycle  11  Pass 1  IDiag  1:
 RMSU=  6.56D-07    CP:  9.80D-03  3.00D+00  1.21D+00  6.71D-01  1.24D+00
                    CP:  1.88D+00  2.33D+00  1.87D+00  2.05D+00  1.30D+00
 FoFJK:  IHMeth= 1 ICntrl=     0 DoSepK=T KAlg= 1 I1Cent= 0 FoldK=F
 E= -151.211553307275     Delta-E=       -0.000000309785 Rises=F Damp=F
 DIIS: error= 1.45D-05 at cycle  11 NSaved=  11.
 NSaved=11 IEnMin=11 EnMin= -151.211553307275     IErMin=11 ErrMin= 1.45D-05
 ErrMax= 1.45D-05 EMaxC= 1.00D-01 BMatC= 5.12D-08 BMatP= 1.50D-07
 IDIUse=1 WtCom= 1.00D+00 WtEn= 0.00D+00
 Coeff-Com:  0.205D-03-0.357D-03-0.129D-03 0.264D-03 0.401D-02-0.105D-01
 Coeff-Com: -0.106D-01 0.125D+00-0.316D+00-0.164D+00 0.137D+01
 Coeff:      0.205D-03-0.357D-03-0.129D-03 0.264D-03 0.401D-02-0.105D-01
 Coeff:     -0.106D-01 0.125D+00-0.316D+00-0.164D+00 0.137D+01
 Gap=     0.515 Goal=   None    Shift=    0.000
 RMSDP=1.57D-06 MaxDP=3.12D-05 DE=-3.10D-07 OVMax= 2.18D-04

 Cycle  12  Pass 1  IDiag  1:
 RMSU=  2.15D-07    CP:  9.80D-03  3.00D+00  1.21D+00  6.71D-01  1.24D+00
                    CP:  1.88D+00  2.35D+00  1.88D+00  2.23D+00  1.61D+00
                    CP:  1.40D+00
 FoFJK:  IHMeth= 1 ICntrl=     0 DoSepK=T KAlg= 1 I1Cent= 0 FoldK=F
 E= -151.211553374405     Delta-E=       -0.000000067130 Rises=F Damp=F
 DIIS: error= 4.13D-06 at cycle  12 NSaved=  12.
 NSaved=12 IEnMin=12 EnMin= -151.211553374405     IErMin=12 ErrMin= 4.13D-06
 ErrMax= 4.13D-06 EMaxC= 1.00D-01 BMatC= 4.47D-09 BMatP= 5.12D-08
 IDIUse=1 WtCom= 1.00D+00 WtEn= 0.00D+00
 Coeff-Com:  0.212D-04-0.374D-04 0.631D-05-0.646D-04-0.205D-03 0.236D-02
 Coeff-Com: -0.445D-03-0.231D-01 0.889D-01 0.142D-01-0.461D+00 0.138D+01
 Coeff:      0.212D-04-0.374D-04 0.631D-05-0.646D-04-0.205D-03 0.236D-02
 Coeff:     -0.445D-03-0.231D-01 0.889D-01 0.142D-01-0.461D+00 0.138D+01
 Gap=     0.515 Goal=   None    Shift=    0.000
 RMSDP=2.50D-07 MaxDP=6.32D-06 DE=-6.71D-08 OVMax= 2.70D-05

 Cycle  13  Pass 1  IDiag  1:
 RMSU=  5.32D-08    CP:  9.80D-03  3.00D+00  1.21D+00  6.71D-01  1.24D+00
                    CP:  1.88D+00  2.35D+00  1.88D+00  2.24D+00  1.63D+00
                    CP:  1.45D+00  1.38D+00
 FoFJK:  IHMeth= 1 ICntrl=     0 DoSepK=T KAlg= 1 I1Cent= 0 FoldK=F
 E= -151.211553378089     Delta-E=       -0.000000003684 Rises=F Damp=F
 DIIS: error= 5.81D-07 at cycle  13 NSaved=  13.
 NSaved=13 IEnMin=13 EnMin= -151.211553378089     IErMin=13 ErrMin= 5.81D-07
 ErrMax= 5.81D-07 EMaxC= 1.00D-01 BMatC= 8.01D-11 BMatP= 4.47D-09
 IDIUse=1 WtCom= 1.00D+00 WtEn= 0.00D+00
 Coeff-Com:  0.134D-05-0.288D-05 0.110D-04-0.258D-04-0.237D-03 0.460D-03
 Coeff-Com:  0.951D-03-0.762D-02 0.123D-01 0.103D-01-0.500D-01-0.136D+00
 Coeff-Com:  0.117D+01
 Coeff:      0.134D-05-0.288D-05 0.110D-04-0.258D-04-0.237D-03 0.460D-03
 Coeff:      0.951D-03-0.762D-02 0.123D-01 0.103D-01-0.500D-01-0.136D+00
 Coeff:      0.117D+01
 Gap=     0.515 Goal=   None    Shift=    0.000
 RMSDP=6.09D-08 MaxDP=1.29D-06 DE=-3.68D-09 OVMax= 8.71D-06

 Cycle  14  Pass 1  IDiag  1:
 RMSU=  7.42D-09    CP:  9.80D-03  3.00D+00  1.21D+00  6.71D-01  1.24D+00
                    CP:  1.88D+00  2.35D+00  1.88D+00  2.25D+00  1.63D+00
                    CP:  1.46D+00  1.43D+00  1.36D+00
 FoFJK:  IHMeth= 1 ICntrl=     0 DoSepK=T KAlg= 1 I1Cent= 0 FoldK=F
 E= -151.211553378131     Delta-E=       -0.000000000042 Rises=F Damp=F
 DIIS: error= 1.12D-07 at cycle  14 NSaved=  14.
 NSaved=14 IEnMin=14 EnMin= -151.211553378131     IErMin=14 ErrMin= 1.12D-07
 ErrMax= 1.12D-07 EMaxC= 1.00D-01 BMatC= 1.94D-12 BMatP= 8.01D-11
 IDIUse=1 WtCom= 1.00D+00 WtEn= 0.00D+00
 Coeff-Com: -0.348D-06 0.465D-06-0.252D-05 0.582D-05 0.569D-04-0.189D-03
 Coeff-Com: -0.170D-03 0.255D-02-0.629D-02-0.246D-02 0.313D-01-0.432D-01
 Coeff-Com: -0.166D+00 0.118D+01
 Coeff:     -0.348D-06 0.465D-06-0.252D-05 0.582D-05 0.569D-04-0.189D-03
 Coeff:     -0.170D-03 0.255D-02-0.629D-02-0.246D-02 0.313D-01-0.432D-01
 Coeff:     -0.166D+00 0.118D+01
 Gap=     0.515 Goal=   None    Shift=    0.000
 RMSDP=9.76D-09 MaxDP=2.88D-07 DE=-4.22D-11 OVMax= 6.61D-07

 SCF Done:  E(RLC-B+HF-LYP) =  -151.211553378     A.U. after   14 cycles
             Convg  =    0.9756D-08             -V/T =  2.0063
 KE= 1.502617541669D+02 PE=-4.315428256793D+02 EE= 9.346595806369D+01
 Leave Link  502 at Mon May 11 16:15:55 2020, MaxMem= 1073741824 cpu:     321.8
 (Enter /home/matheus/.gaussian/g09/l601.exe)
 Copying SCF densities to generalized density rwf, IOpCl= 0 IROHF=0.

 **********************************************************************

            Population analysis using the SCF density.

 **********************************************************************

 Orbital symmetries:
       Occupied  (A) (A) (A) (A) (A) (A) (A) (A) (A)
       Virtual   (A) (A) (A) (A) (A) (A) (A) (A) (A) (A) (A) (A)
                 (A) (A) (A) (A) (A) (A) (A) (A) (A) (A) (A) (A)
                 (A) (A) (A) (A) (A) (A) (A) (A) (A) (A) (A) (A)
                 (A) (A) (A) (A) (A) (A) (A) (A) (A) (A) (A) (A)
                 (A) (A) (A) (A) (A) (A) (A) (A) (A) (A) (A) (A)
                 (A) (A) (A) (A) (A) (A) (A) (A) (A) (A) (A) (A)
                 (A) (A) (A) (A) (A) (A) (A) (A) (A) (A) (A) (A)
                 (A) (A) (A) (A) (A) (A) (A) (A) (A) (A) (A) (A)
                 (A) (A) (A) (A) (A) (A) (A) (A) (A) (A) (A) (A)
                 (A) (A) (A) (A) (A) (A) (A) (A) (A) (A) (A) (A)
                 (A) (A) (A) (A) (A) (A) (A) (A) (A) (A) (A) (A)
                 (A) (A) (A) (A) (A) (A) (A) (A) (A) (A) (A) (A)
                 (A) (A) (A) (A) (A) (A) (A) (A) (A) (A) (A) (A)
                 (A) (A) (A) (A) (A) (A) (A) (A) (A) (A) (A) (A)
                 (A) (A) (A) (A) (A) (A) (A) (A) (A) (A) (A) (A)
                 (A) (A) (A) (A) (A) (A) (A) (A)
 The electronic state is 1-A.
 Alpha  occ. eigenvalues --  -19.48311 -19.48282  -1.46120  -1.21538  -0.73980
 Alpha  occ. eigenvalues --   -0.73304  -0.64651  -0.55399  -0.48979
 Alpha virt. eigenvalues --    0.02493   0.03363   0.07065   0.08620   0.10050
 Alpha virt. eigenvalues --    0.10671   0.11916   0.13829   0.16203   0.16417
 Alpha virt. eigenvalues --    0.18647   0.19804   0.22903   0.23628   0.25363
 Alpha virt. eigenvalues --    0.26887   0.29768   0.30781   0.31513   0.33101
 Alpha virt. eigenvalues --    0.35362   0.37848   0.38667   0.40384   0.41852
 Alpha virt. eigenvalues --    0.42629   0.43862   0.47973   0.48633   0.49688
 Alpha virt. eigenvalues --    0.55160   0.57673   0.61658   0.66331   0.70111
 Alpha virt. eigenvalues --    0.72193   0.76054   0.76636   0.77175   0.78228
 Alpha virt. eigenvalues --    0.80772   0.84121   0.87756   0.90279   0.92007
 Alpha virt. eigenvalues --    0.92696   0.95669   0.96570   0.99500   1.00885
 Alpha virt. eigenvalues --    1.01815   1.05473   1.07071   1.10718   1.13251
 Alpha virt. eigenvalues --    1.13286   1.16550   1.18244   1.23587   1.25290
 Alpha virt. eigenvalues --    1.27174   1.31431   1.32020   1.33399   1.34082
 Alpha virt. eigenvalues --    1.34786   1.35714   1.36667   1.39209   1.44106
 Alpha virt. eigenvalues --    1.49147   1.52171   1.56811   1.57512   1.58186
 Alpha virt. eigenvalues --    1.61375   1.67348   1.71376   1.74449   1.84810
 Alpha virt. eigenvalues --    1.89418   1.92707   1.95410   2.05810   2.11725
 Alpha virt. eigenvalues --    2.13895   2.17265   2.25840   2.27447   2.32451
 Alpha virt. eigenvalues --    2.36643   2.38059   2.42620   2.45725   2.54110
 Alpha virt. eigenvalues --    2.58848   2.63923   2.65783   2.69986   2.76702
 Alpha virt. eigenvalues --    2.81186   2.83505   2.90813   2.99960   3.04393
 Alpha virt. eigenvalues --    3.19256   3.22408   3.23411   3.25889   3.31275
 Alpha virt. eigenvalues --    3.43437   3.57004   3.69007   3.78553   3.78905
 Alpha virt. eigenvalues --    3.80117   3.82230   3.82613   3.83009   3.87745
 Alpha virt. eigenvalues --    3.90836   3.91260   3.96230   3.98441   4.01137
 Alpha virt. eigenvalues --    4.08507   4.11253   4.16375   4.21505   4.23012
 Alpha virt. eigenvalues --    4.28621   4.32519   4.37624   4.43704   4.45668
 Alpha virt. eigenvalues --    4.58971   4.67665   4.69153   4.92212   5.11189
 Alpha virt. eigenvalues --    5.17292   5.19552   5.25264   5.29923   5.51432
 Alpha virt. eigenvalues --    5.66115   6.05061   6.25658   6.29672   6.35267
 Alpha virt. eigenvalues --    6.57928   6.58256   6.65323   6.75165   6.93250
 Alpha virt. eigenvalues --    6.99140   7.01222   7.08526   7.10987   7.11702
 Alpha virt. eigenvalues --    7.17251   7.18740   7.21397   7.26209   7.29254
 Alpha virt. eigenvalues --    7.48965   7.50385   7.63568   7.93136   8.08802
 Alpha virt. eigenvalues --    8.33025   8.38239  10.88235  14.26785  14.79543
 Alpha virt. eigenvalues --   14.83247  14.89088  15.11714  29.02959  29.03479
 Alpha virt. eigenvalues --   29.07845  29.13439  29.22993  49.09891 148.31327
 Alpha virt. eigenvalues --  148.38766 148.71574 752.48357
          Condensed to atoms (all electrons):
              1          2          3          4          5
     1  O    8.190072  -0.149262   0.199607  -0.015702  -0.001895
     2  O   -0.149262   8.187545   0.000014   0.212757  -0.000628
     3  H    0.199607   0.000014   0.568539   0.007545   0.000564
     4  H   -0.015702   0.212757   0.007545   0.553169  -0.003438
     5  Kr  -0.001895  -0.000628   0.000564  -0.003438   0.001550
 Mulliken atomic charges:
              1
     1  O   -0.222820
     2  O   -0.250427
     3  H    0.223730
     4  H    0.245670
     5  Kr   0.003847
 Sum of Mulliken atomic charges =   0.00000
 Mulliken charges with hydrogens summed into heavy atoms:
              1
     1  O    0.000910
     2  O   -0.004757
     5  Kr   0.003847
 Sum of Mulliken charges with hydrogens summed into heavy atoms =   0.00000
          Condensed to fragments (all electrons):
     1      -0.003847
     2       0.003847
 Electronic spatial extent (au):  <R**2>=            323.5101
 Charge=              0.0000 electrons
 Dipole moment (field-independent basis, Debye):
    X=             -0.2235    Y=             -0.0416    Z=              0.8745  Tot=              0.9035
 Quadrupole moment (field-independent basis, Debye-Ang):
   XX=             -9.4913   YY=            -10.4399   ZZ=            -12.4136
   XY=             -4.1562   XZ=              2.5649   YZ=             -0.9036
 Traceless Quadrupole moment (field-independent basis, Debye-Ang):
   XX=              1.2903   YY=              0.3417   ZZ=             -1.6320
   XY=             -4.1562   XZ=              2.5649   YZ=             -0.9036
 Octapole moment (field-independent basis, Debye-Ang**2):
  XXX=            -54.8113  YYY=             -1.2841  ZZZ=              0.6075  XYY=            -21.3164
  XXY=            -16.2571  XXZ=              7.5972  XZZ=            -24.5193  YZZ=             -0.8559
  YYZ=              1.1462  XYZ=             -2.7117
 Hexadecapole moment (field-independent basis, Debye-Ang**3):
 XXXX=           -227.1616 YYYY=            -44.3033 ZZZZ=            -10.6140 XXXY=            -49.3188
 XXXZ=             22.1746 YYYX=             -5.3587 YYYZ=             -1.1576 ZZZX=              1.1762
 ZZZY=             -0.5861 XXYY=            -50.3684 XXZZ=            -52.0469 YYZZ=            -10.6044
 XXYZ=             -7.9753 YYXZ=              3.0080 ZZXY=             -1.2219
 N-N= 3.660356007063D+01 E-N=-4.315428386261D+02  KE= 1.502617541669D+02
 No NMR shielding tensors so no spin-rotation constants.
 Leave Link  601 at Mon May 11 16:15:55 2020, MaxMem= 1073741824 cpu:       0.8
 (Enter /home/matheus/.gaussian/g09/l122.exe)
 Counterpoise: doing DCBS calculation for fragment   2 NewBq=T
 Leave Link  122 at Mon May 11 16:15:55 2020, MaxMem= 1073741824 cpu:       0.0
 (Enter /home/matheus/.gaussian/g09/l301.exe)
 Basis read from rwf:  (5D, 7F)
 No pseudopotential information found on rwf file.
 There are   197 symmetry adapted basis functions of A   symmetry.
 Integral buffers will be    131072 words long.
 Raffenetti 2 integral format.
 Two-electron integral symmetry is turned on.
   197 basis functions,   415 primitive gaussians,   229 cartesian basis functions
    18 alpha electrons       18 beta electrons
       nuclear repulsion energy         0.0000000000 Hartrees.
 IExCor=10402 DFT=T Ex=LC-B+HF Corr=LYP ExCW=0 ScaHFX=  1.000000
 ScaDFX=  1.000000  1.000000  1.000000  1.000000 ScalE2=  1.000000  1.000000
 IRadAn=      5 IRanWt=     -1 IRanGd=            0 ICorTp=0
  HFx wShort=  0.000000 wLong=  1.350000 cFull=  0.000000 cShort=  0.000000 cLong=  1.000000
  DFx wShort=  0.000000 wLong=  1.350000 cFull=  0.000000 cShort=  0.000000 cLong=  1.000000
 NAtoms=    5 NActive=    5 NUniq=    5 SFac= 1.00D+00 NAtFMM=   60 NAOKFM=F Big=F
 No density basis found on file   718.
 Leave Link  301 at Mon May 11 16:15:55 2020, MaxMem= 1073741824 cpu:       0.2
 (Enter /home/matheus/.gaussian/g09/l302.exe)
 NPDir=0 NMtPBC=     1 NCelOv=     1 NCel=       1 NClECP=     1 NCelD=      1
         NCelK=      1 NCelE2=     1 NClLst=     1 CellRange=     0.0.
 One-electron integrals computed using PRISM.
 NBasis=   197 RedAO= T  NBF=   197
 NBsUse=   197 1.00D-06 NBFU=   197
 Precomputing XC quadrature grid using
 IXCGrd= 2 IRadAn=           5 IRanWt=          -1 IRanGd=           0 AccXCQ= 0.00D+00.
 NRdTot=     427 NPtTot=      123814 NUsed=      126881 NTot=      126913
 NSgBfM=   229   229   229   229   229 NAtAll=     5     5.
 Leave Link  302 at Mon May 11 16:15:55 2020, MaxMem= 1073741824 cpu:       1.0
 (Enter /home/matheus/.gaussian/g09/l303.exe)
 DipDrv:  MaxL=1.
 Leave Link  303 at Mon May 11 16:15:55 2020, MaxMem= 1073741824 cpu:       0.2
 (Enter /home/matheus/.gaussian/g09/l401.exe)
 Harris functional with IExCor=10402 diagonalized for initial guess.
 ExpMin= 2.53D-02 ExpMax= 1.17D+07 ExpMxC= 1.33D+04 IAcc=3 IRadAn=         5 AccDes= 0.00D+00
 HarFok:  IExCor=10402 AccDes= 0.00D+00 IRadAn=         5 IDoV= 1
 ScaDFX=  1.000000  1.000000  1.000000  1.000000
 FoFCou: FMM=F IPFlag=           0 FMFlag=      100000 FMFlg1=           0
         NFxFlg=           0 DoJE=T BraDBF=F KetDBF=T FulRan=T
         Omega=  0.000000  0.000000  1.000000  0.000000  0.000000 ICntrl=     500 IOpCl=  0
         NMat0=    1 NMatS0=    1 NMatT0=    0 NMatD0=    1 NMtDS0=    0 NMtDT0=    0
         I1Cent=           4 NGrid=           0.
 Petite list used in FoFCou.
 Harris En= -2731.73456105127    
 Initial guess orbital symmetries:
       Occupied  (A) (A) (A) (A) (A) (A) (A) (A) (A) (A) (A) (A)
                 (A) (A) (A) (A) (A) (A)
       Virtual   (A) (A) (A) (A) (A) (A) (A) (A) (A) (A) (A) (A)
                 (A) (A) (A) (A) (A) (A) (A) (A) (A) (A) (A) (A)
                 (A) (A) (A) (A) (A) (A) (A) (A) (A) (A) (A) (A)
                 (A) (A) (A) (A) (A) (A) (A) (A) (A) (A) (A) (A)
                 (A) (A) (A) (A) (A) (A) (A) (A) (A) (A) (A) (A)
                 (A) (A) (A) (A) (A) (A) (A) (A) (A) (A) (A) (A)
                 (A) (A) (A) (A) (A) (A) (A) (A) (A) (A) (A) (A)
                 (A) (A) (A) (A) (A) (A) (A) (A) (A) (A) (A) (A)
                 (A) (A) (A) (A) (A) (A) (A) (A) (A) (A) (A) (A)
                 (A) (A) (A) (A) (A) (A) (A) (A) (A) (A) (A) (A)
                 (A) (A) (A) (A) (A) (A) (A) (A) (A) (A) (A) (A)
                 (A) (A) (A) (A) (A) (A) (A) (A) (A) (A) (A) (A)
                 (A) (A) (A) (A) (A) (A) (A) (A) (A) (A) (A) (A)
                 (A) (A) (A) (A) (A) (A) (A) (A) (A) (A) (A) (A)
                 (A) (A) (A) (A) (A) (A) (A) (A) (A) (A) (A)
 The electronic state of the initial guess is 1-A.
 Leave Link  401 at Mon May 11 16:15:56 2020, MaxMem= 1073741824 cpu:       3.8
 (Enter /home/matheus/.gaussian/g09/l502.exe)
 Closed shell SCF:
 Requested convergence on RMS density matrix=1.00D-08 within 128 cycles.
 Requested convergence on MAX density matrix=1.00D-06.
 Requested convergence on             energy=1.00D-06.
 No special actions if energy rises.
 Using DIIS extrapolation, IDIIS=  1040.
 Integral symmetry usage will be decided dynamically.
       126823 words used for storage of precomputed grid.
 IEnd=      305770 IEndB=      305770 NGot=  1073741824 MDV=  1073505365
 LenX=  1073505365 LenY=  1073452483
 Fock matrices will be formed incrementally for  20 cycles.

 Cycle   1  Pass 1  IDiag  1:
 FoFJK:  IHMeth= 1 ICntrl=     0 DoSepK=T KAlg= 1 I1Cent= 0 FoldK=F
 FoFCou: FMM=F IPFlag=           0 FMFlag=      100000 FMFlg1=           0
         NFxFlg=           0 DoJE=T BraDBF=F KetDBF=F FulRan=T
         Omega=  0.000000  0.000000  1.000000  0.000000  0.000000 ICntrl=     500 IOpCl=  0
         NMat0=    1 NMatS0=    1 NMatT0=    0 NMatD0=    1 NMtDS0=    0 NMtDT0=    0
         I1Cent=           0 NGrid=           0.
 Symmetry not used in FoFCou.
 E= -2752.71030867799    
 DIIS: error= 4.89D-02 at cycle   1 NSaved=   1.
 NSaved= 1 IEnMin= 1 EnMin= -2752.71030867799     IErMin= 1 ErrMin= 4.89D-02
 ErrMax= 4.89D-02 EMaxC= 1.00D-01 BMatC= 1.18D+00 BMatP= 1.18D+00
 IDIUse=3 WtCom= 5.11D-01 WtEn= 4.89D-01
 Coeff-Com:  0.100D+01
 Coeff-En:   0.100D+01
 Coeff:      0.100D+01
 Gap=     0.767 Goal=   None    Shift=    0.000
 GapD=    0.767 DampG=2.000 DampE=0.500 DampFc=1.0000 IDamp=-1.
 RMSDP=4.96D-03 MaxDP=2.24D-01              OVMax= 3.36D-01

 Cycle   2  Pass 1  IDiag  1:
 RMSU=  3.43D-03    CP:  1.05D+00
 FoFJK:  IHMeth= 1 ICntrl=     0 DoSepK=T KAlg= 1 I1Cent= 0 FoldK=F
 E= -2753.27698805378     Delta-E=       -0.566679375796 Rises=F Damp=F
 DIIS: error= 2.58D-02 at cycle   2 NSaved=   2.
 NSaved= 2 IEnMin= 2 EnMin= -2753.27698805378     IErMin= 2 ErrMin= 2.58D-02
 ErrMax= 2.58D-02 EMaxC= 1.00D-01 BMatC= 3.64D-01 BMatP= 1.18D+00
 IDIUse=3 WtCom= 7.42D-01 WtEn= 2.58D-01
 Coeff-Com:  0.351D+00 0.649D+00
 Coeff-En:   0.000D+00 0.100D+01
 Coeff:      0.261D+00 0.739D+00
 Gap=     0.606 Goal=   None    Shift=    0.000
 RMSDP=2.19D-03 MaxDP=1.32D-01 DE=-5.67D-01 OVMax= 7.27D-02

 Cycle   3  Pass 1  IDiag  1:
 RMSU=  8.51D-04    CP:  1.03D+00  6.33D-01
 FoFJK:  IHMeth= 1 ICntrl=     0 DoSepK=T KAlg= 1 I1Cent= 0 FoldK=F
 E= -2753.40773513011     Delta-E=       -0.130747076326 Rises=F Damp=F
 DIIS: error= 2.74D-03 at cycle   3 NSaved=   3.
 NSaved= 3 IEnMin= 3 EnMin= -2753.40773513011     IErMin= 3 ErrMin= 2.74D-03
 ErrMax= 2.74D-03 EMaxC= 1.00D-01 BMatC= 5.36D-03 BMatP= 3.64D-01
 IDIUse=3 WtCom= 9.73D-01 WtEn= 2.74D-02
 Coeff-Com: -0.909D-02 0.818D-01 0.927D+00
 Coeff-En:   0.000D+00 0.000D+00 0.100D+01
 Coeff:     -0.884D-02 0.795D-01 0.929D+00
 Gap=     0.574 Goal=   None    Shift=    0.000
 RMSDP=3.46D-04 MaxDP=1.48D-02 DE=-1.31D-01 OVMax= 1.05D-02

 Cycle   4  Pass 1  IDiag  1:
 RMSU=  2.28D-04    CP:  1.03D+00  6.57D-01  9.87D-01
 FoFJK:  IHMeth= 1 ICntrl=     0 DoSepK=T KAlg= 1 I1Cent= 0 FoldK=F
 E= -2753.40945874513     Delta-E=       -0.001723615020 Rises=F Damp=F
 DIIS: error= 2.57D-04 at cycle   4 NSaved=   4.
 NSaved= 4 IEnMin= 4 EnMin= -2753.40945874513     IErMin= 4 ErrMin= 2.57D-04
 ErrMax= 2.57D-04 EMaxC= 1.00D-01 BMatC= 3.77D-05 BMatP= 5.36D-03
 IDIUse=3 WtCom= 9.97D-01 WtEn= 2.57D-03
 Coeff-Com: -0.668D-02-0.405D-02-0.317D-02 0.101D+01
 Coeff-En:   0.000D+00 0.000D+00 0.000D+00 0.100D+01
 Coeff:     -0.667D-02-0.404D-02-0.316D-02 0.101D+01
 Gap=     0.580 Goal=   None    Shift=    0.000
 RMSDP=5.04D-05 MaxDP=2.25D-03 DE=-1.72D-03 OVMax= 3.48D-03

 Cycle   5  Pass 1  IDiag  1:
 RMSU=  2.04D-05    CP:  1.03D+00  6.61D-01  1.01D+00  1.09D+00
 FoFJK:  IHMeth= 1 ICntrl=     0 DoSepK=T KAlg= 1 I1Cent= 0 FoldK=F
 E= -2753.40951975877     Delta-E=       -0.000061013643 Rises=F Damp=F
 DIIS: error= 3.59D-05 at cycle   5 NSaved=   5.
 NSaved= 5 IEnMin= 5 EnMin= -2753.40951975877     IErMin= 5 ErrMin= 3.59D-05
 ErrMax= 3.59D-05 EMaxC= 1.00D-01 BMatC= 4.91D-07 BMatP= 3.77D-05
 IDIUse=1 WtCom= 1.00D+00 WtEn= 0.00D+00
 Coeff-Com: -0.787D-04-0.150D-02 0.137D-02-0.168D+00 0.117D+01
 Coeff:     -0.787D-04-0.150D-02 0.137D-02-0.168D+00 0.117D+01
 Gap=     0.580 Goal=   None    Shift=    0.000
 RMSDP=1.06D-05 MaxDP=4.39D-04 DE=-6.10D-05 OVMax= 6.33D-04

 Cycle   6  Pass 1  IDiag  1:
 RMSU=  9.85D-07    CP:  1.03D+00  6.61D-01  1.01D+00  1.10D+00  1.20D+00
 FoFJK:  IHMeth= 1 ICntrl=     0 DoSepK=T KAlg= 1 I1Cent= 0 FoldK=F
 E= -2753.40952116286     Delta-E=       -0.000001404088 Rises=F Damp=F
 DIIS: error= 1.65D-06 at cycle   6 NSaved=   6.
 NSaved= 6 IEnMin= 6 EnMin= -2753.40952116286     IErMin= 6 ErrMin= 1.65D-06
 ErrMax= 1.65D-06 EMaxC= 1.00D-01 BMatC= 9.69D-10 BMatP= 4.91D-07
 IDIUse=1 WtCom= 1.00D+00 WtEn= 0.00D+00
 Coeff-Com:  0.236D-04 0.116D-03-0.388D-03 0.119D-01-0.112D+00 0.110D+01
 Coeff:      0.236D-04 0.116D-03-0.388D-03 0.119D-01-0.112D+00 0.110D+01
 Gap=     0.580 Goal=   None    Shift=    0.000
 RMSDP=5.25D-07 MaxDP=2.32D-05 DE=-1.40D-06 OVMax= 2.31D-05

 Cycle   7  Pass 1  IDiag  1:
 RMSU=  6.17D-08    CP:  1.03D+00  6.61D-01  1.01D+00  1.11D+00  1.21D+00
                    CP:  1.13D+00
 FoFJK:  IHMeth= 1 ICntrl=     0 DoSepK=T KAlg= 1 I1Cent= 0 FoldK=F
 E= -2753.40952116357     Delta-E=       -0.000000000707 Rises=F Damp=F
 DIIS: error= 1.46D-07 at cycle   7 NSaved=   7.
 NSaved= 7 IEnMin= 7 EnMin= -2753.40952116357     IErMin= 7 ErrMin= 1.46D-07
 ErrMax= 1.46D-07 EMaxC= 1.00D-01 BMatC= 1.05D-11 BMatP= 9.69D-10
 IDIUse=1 WtCom= 1.00D+00 WtEn= 0.00D+00
 Coeff-Com:  0.264D-05 0.473D-05-0.349D-04 0.650D-03-0.317D-02-0.152D-01
 Coeff-Com:  0.102D+01
 Coeff:      0.264D-05 0.473D-05-0.349D-04 0.650D-03-0.317D-02-0.152D-01
 Coeff:      0.102D+01
 Gap=     0.580 Goal=   None    Shift=    0.000
 RMSDP=2.31D-08 MaxDP=1.01D-06 DE=-7.07D-10 OVMax= 1.28D-06

 Cycle   8  Pass 1  IDiag  1:
 RMSU=  9.32D-09    CP:  1.03D+00  6.61D-01  1.01D+00  1.11D+00  1.21D+00
                    CP:  1.14D+00  1.14D+00
 FoFJK:  IHMeth= 1 ICntrl=     0 DoSepK=T KAlg= 1 I1Cent= 0 FoldK=F
 E= -2753.40952116364     Delta-E=       -0.000000000075 Rises=F Damp=F
 DIIS: error= 4.72D-08 at cycle   8 NSaved=   8.
 NSaved= 8 IEnMin= 8 EnMin= -2753.40952116364     IErMin= 8 ErrMin= 4.72D-08
 ErrMax= 4.72D-08 EMaxC= 1.00D-01 BMatC= 4.19D-13 BMatP= 1.05D-11
 IDIUse=1 WtCom= 1.00D+00 WtEn= 0.00D+00
 Coeff-Com:  0.691D-07-0.202D-05 0.306D-05-0.207D-03 0.232D-02-0.278D-01
 Coeff-Com:  0.112D+00 0.914D+00
 Coeff:      0.691D-07-0.202D-05 0.306D-05-0.207D-03 0.232D-02-0.278D-01
 Coeff:      0.112D+00 0.914D+00
 Gap=     0.580 Goal=   None    Shift=    0.000
 RMSDP=4.67D-09 MaxDP=1.41D-07 DE=-7.46D-11 OVMax= 3.32D-07

 SCF Done:  E(RLC-B+HF-LYP) =  -2753.40952116     A.U. after    8 cycles
             Convg  =    0.4668D-08             -V/T =  2.0014
 KE= 2.749635737799D+03 PE=-6.579423405590D+03 EE= 1.076378146628D+03
 Leave Link  502 at Mon May 11 16:16:19 2020, MaxMem= 1073741824 cpu:     187.9
 (Enter /home/matheus/.gaussian/g09/l601.exe)
 Copying SCF densities to generalized density rwf, IOpCl= 0 IROHF=0.

 **********************************************************************

            Population analysis using the SCF density.

 **********************************************************************

 Orbital symmetries:
       Occupied  (A) (A) (A) (A) (A) (A) (A) (A) (A) (A) (A) (A)
                 (A) (A) (A) (A) (A) (A)
       Virtual   (A) (A) (A) (A) (A) (A) (A) (A) (A) (A) (A) (A)
                 (A) (A) (A) (A) (A) (A) (A) (A) (A) (A) (A) (A)
                 (A) (A) (A) (A) (A) (A) (A) (A) (A) (A) (A) (A)
                 (A) (A) (A) (A) (A) (A) (A) (A) (A) (A) (A) (A)
                 (A) (A) (A) (A) (A) (A) (A) (A) (A) (A) (A) (A)
                 (A) (A) (A) (A) (A) (A) (A) (A) (A) (A) (A) (A)
                 (A) (A) (A) (A) (A) (A) (A) (A) (A) (A) (A) (A)
                 (A) (A) (A) (A) (A) (A) (A) (A) (A) (A) (A) (A)
                 (A) (A) (A) (A) (A) (A) (A) (A) (A) (A) (A) (A)
                 (A) (A) (A) (A) (A) (A) (A) (A) (A) (A) (A) (A)
                 (A) (A) (A) (A) (A) (A) (A) (A) (A) (A) (A) (A)
                 (A) (A) (A) (A) (A) (A) (A) (A) (A) (A) (A) (A)
                 (A) (A) (A) (A) (A) (A) (A) (A) (A) (A) (A) (A)
                 (A) (A) (A) (A) (A) (A) (A) (A) (A) (A) (A) (A)
                 (A) (A) (A) (A) (A) (A) (A) (A) (A) (A) (A)
 The electronic state is 1-A.
 Alpha  occ. eigenvalues -- -511.65509 -67.17992 -60.85189 -60.85186 -60.85185
 Alpha  occ. eigenvalues --  -10.08107  -7.79670  -7.79669  -7.79669  -3.62633
 Alpha  occ. eigenvalues --   -3.62633  -3.62633  -3.62632  -3.62632  -1.17384
 Alpha  occ. eigenvalues --   -0.55371  -0.55367  -0.55365
 Alpha virt. eigenvalues --    0.02601   0.04673   0.07813   0.09128   0.10397
 Alpha virt. eigenvalues --    0.11700   0.12684   0.13872   0.16100   0.16756
 Alpha virt. eigenvalues --    0.17410   0.19265   0.20651   0.25696   0.26991
 Alpha virt. eigenvalues --    0.27622   0.28212   0.32600   0.33710   0.35570
 Alpha virt. eigenvalues --    0.36155   0.37279   0.37351   0.39333   0.41556
 Alpha virt. eigenvalues --    0.42300   0.43600   0.54790   0.56214   0.58136
 Alpha virt. eigenvalues --    0.59729   0.66309   0.66839   0.70395   0.71844
 Alpha virt. eigenvalues --    0.75150   0.77130   0.77980   0.78950   0.80175
 Alpha virt. eigenvalues --    0.82324   0.83382   0.84264   0.86169   0.86507
 Alpha virt. eigenvalues --    0.88007   0.89186   0.90073   0.93384   0.95624
 Alpha virt. eigenvalues --    0.99363   0.99810   1.02002   1.04532   1.06262
 Alpha virt. eigenvalues --    1.08392   1.10174   1.11993   1.13939   1.15256
 Alpha virt. eigenvalues --    1.17259   1.21034   1.22708   1.25872   1.28304
 Alpha virt. eigenvalues --    1.35254   1.36321   1.42930   1.47948   1.48689
 Alpha virt. eigenvalues --    1.59409   1.62362   1.63825   1.73426   1.77509
 Alpha virt. eigenvalues --    1.82269   1.86220   1.87343   1.90122   2.25652
 Alpha virt. eigenvalues --    2.29243   2.30993   2.33056   2.33987   2.36764
 Alpha virt. eigenvalues --    2.40156   2.42085   2.45008   2.46275   2.47026
 Alpha virt. eigenvalues --    2.48326   2.52457   2.52818   2.55105   2.56484
 Alpha virt. eigenvalues --    2.57815   2.60307   2.62021   2.64512   2.65354
 Alpha virt. eigenvalues --    2.66361   2.67777   2.67978   2.73755   2.74502
 Alpha virt. eigenvalues --    2.77928   2.81264   2.83989   2.89803   2.90666
 Alpha virt. eigenvalues --    2.93774   2.98713   3.06597   3.13236   3.14138
 Alpha virt. eigenvalues --    3.22306   3.27258   3.31723   3.37258   3.51979
 Alpha virt. eigenvalues --    3.60045   3.65109   3.82878   3.86551   4.02781
 Alpha virt. eigenvalues --    4.46443   4.47563   4.51883   4.56590   4.60502
 Alpha virt. eigenvalues --    4.71967   4.87746   4.88196   4.94644   5.06594
 Alpha virt. eigenvalues --    5.12323   5.15582   5.58335   5.64665   5.86600
 Alpha virt. eigenvalues --    5.94338   6.01926   6.12300   6.82955   6.84587
 Alpha virt. eigenvalues --    7.29512   7.39474   7.62570   7.63461   7.70189
 Alpha virt. eigenvalues --    7.82113   8.03394   8.09680   8.17178   8.22421
 Alpha virt. eigenvalues --    8.36082   8.38574   8.65283   8.88703   9.61609
 Alpha virt. eigenvalues --    9.69883   9.78072   9.86583   9.96475  10.03464
 Alpha virt. eigenvalues --   10.15871  10.24024  10.47287  10.92862  11.47522
 Alpha virt. eigenvalues --   11.56922  11.62254  12.03369  12.07511  13.22961
 Alpha virt. eigenvalues --   13.64257  14.52680  62.79454  64.54642
          Condensed to atoms (all electrons):
              1          2          3          4          5
     1  O    0.003308  -0.002920  -0.001522   0.001665  -0.011490
     2  O   -0.002920   0.007098   0.000949  -0.004319  -0.003694
     3  H   -0.001522   0.000949   0.000908  -0.000500   0.002657
     4  H    0.001665  -0.004319  -0.000500   0.004089  -0.021740
     5  Kr  -0.011490  -0.003694   0.002657  -0.021740  36.066425
 Mulliken atomic charges:
              1
     1  O    0.010959
     2  O    0.002886
     3  H   -0.002492
     4  H    0.020805
     5  Kr  -0.032158
 Sum of Mulliken atomic charges =   0.00000
 Mulliken charges with hydrogens summed into heavy atoms:
              1
     1  O    0.008467
     2  O    0.023691
     5  Kr  -0.032158
 Sum of Mulliken charges with hydrogens summed into heavy atoms =   0.00000
          Condensed to fragments (all electrons):
     1       0.032158
     2      -0.032158
 Electronic spatial extent (au):  <R**2>=            167.1772
 Charge=              0.0000 electrons
 Dipole moment (field-independent basis, Debye):
    X=              0.0016    Y=              0.0008    Z=              0.0001  Tot=              0.0018
 Quadrupole moment (field-independent basis, Debye-Ang):
   XX=            -17.5640   YY=            -17.5736   ZZ=            -17.5809
   XY=              0.0046   XZ=             -0.0001   YZ=              0.0003
 Traceless Quadrupole moment (field-independent basis, Debye-Ang):
   XX=              0.0088   YY=             -0.0008   ZZ=             -0.0080
   XY=              0.0046   XZ=             -0.0001   YZ=              0.0003
 Octapole moment (field-independent basis, Debye-Ang**2):
  XXX=             52.5652  YYY=              0.9495  ZZZ=             -0.1351  XYY=             17.5336
  XXY=              0.3055  XXZ=             -0.0453  XZZ=             17.5378  YZZ=              0.3170
  YYZ=             -0.0446  XYZ=             -0.0003
 Hexadecapole moment (field-independent basis, Debye-Ang**3):
 XXXX=           -122.9357 YYYY=            -18.1095 ZZZZ=            -18.1025 XXXY=             -0.9198
 XXXZ=              0.1356 YYYX=             -0.9299 YYYZ=              0.0019 ZZZX=              0.1349
 ZZZY=              0.0034 XXYY=            -23.5175 XXZZ=            -23.5192 YYZZ=             -6.0327
 XXYZ=              0.0011 YYXZ=              0.0451 ZZXY=             -0.3089
 N-N= 0.000000000000D+00 E-N=-6.579423398779D+03  KE= 2.749635737799D+03
 No NMR shielding tensors so no spin-rotation constants.
 Leave Link  601 at Mon May 11 16:16:19 2020, MaxMem= 1073741824 cpu:       0.7
 (Enter /home/matheus/.gaussian/g09/l122.exe)
 Counterpoise: doing MCBS calculation for fragment   1
 Leave Link  122 at Mon May 11 16:16:19 2020, MaxMem= 1073741824 cpu:       0.0
 (Enter /home/matheus/.gaussian/g09/l301.exe)
 Basis read from rwf:  (5D, 7F)
 No pseudopotential information found on rwf file.
 There are   138 symmetry adapted basis functions of A   symmetry.
 Integral buffers will be    131072 words long.
 Raffenetti 2 integral format.
 Two-electron integral symmetry is turned on.
   138 basis functions,   198 primitive gaussians,   160 cartesian basis functions
     9 alpha electrons        9 beta electrons
       nuclear repulsion energy        36.6035600706 Hartrees.
 IExCor=10402 DFT=T Ex=LC-B+HF Corr=LYP ExCW=0 ScaHFX=  1.000000
[...]

 Cycle   2  Pass 1  IDiag  1:
 RMSU=  1.45D-05    CP:  1.00D+00
 FoFJK:  IHMeth= 1 ICntrl=     0 DoSepK=T KAlg= 1 I1Cent= 0 FoldK=F
 E= -2753.40937612494     Delta-E=       -0.000000702032 Rises=F Damp=F
 DIIS: error= 3.62D-06 at cycle   2 NSaved=   2.
 NSaved= 2 IEnMin= 2 EnMin= -2753.40937612494     IErMin= 2 ErrMin= 3.62D-06
 ErrMax= 3.62D-06 EMaxC= 1.00D-01 BMatC= 4.58D-09 BMatP= 6.00D-06
 IDIUse=1 WtCom= 1.00D+00 WtEn= 0.00D+00
 Coeff-Com: -0.858D-02 0.101D+01
 Coeff:     -0.858D-02 0.101D+01
 Gap=     0.580 Goal=   None    Shift=    0.000
 RMSDP=1.90D-06 MaxDP=7.30D-05 DE=-7.02D-07 OVMax= 5.15D-05

 Cycle   3  Pass 1  IDiag  1:
 RMSU=  5.89D-07    CP:  1.00D+00  1.08D+00
 FoFJK:  IHMeth= 1 ICntrl=     0 DoSepK=T KAlg= 1 I1Cent= 0 FoldK=F
 E= -2753.40937613336     Delta-E=       -0.000000008420 Rises=F Damp=F
 DIIS: error= 5.40D-07 at cycle   3 NSaved=   3.
 NSaved= 3 IEnMin= 3 EnMin= -2753.40937613336     IErMin= 3 ErrMin= 5.40D-07
 ErrMax= 5.40D-07 EMaxC= 1.00D-01 BMatC= 1.07D-10 BMatP= 4.58D-09
 IDIUse=1 WtCom= 1.00D+00 WtEn= 0.00D+00
 Coeff-Com:  0.503D-03-0.142D+00 0.114D+01
 Coeff:      0.503D-03-0.142D+00 0.114D+01
 Gap=     0.580 Goal=   None    Shift=    0.000
 RMSDP=2.20D-07 MaxDP=7.72D-06 DE=-8.42D-09 OVMax= 1.03D-05

 Cycle   4  Pass 1  IDiag  1:
 RMSU=  5.90D-08    CP:  1.00D+00  1.09D+00  1.18D+00
 FoFJK:  IHMeth= 1 ICntrl=     0 DoSepK=T KAlg= 1 I1Cent= 0 FoldK=F
 E= -2753.40937613369     Delta-E=       -0.000000000334 Rises=F Damp=F
 DIIS: error= 1.87D-07 at cycle   4 NSaved=   4.
 NSaved= 4 IEnMin= 4 EnMin= -2753.40937613369     IErMin= 4 ErrMin= 1.87D-07
 ErrMax= 1.87D-07 EMaxC= 1.00D-01 BMatC= 4.15D-12 BMatP= 1.07D-10
 IDIUse=1 WtCom= 1.00D+00 WtEn= 0.00D+00
 Coeff-Com:  0.155D-03-0.286D-01 0.154D+00 0.874D+00
 Coeff:      0.155D-03-0.286D-01 0.154D+00 0.874D+00
 Gap=     0.580 Goal=   None    Shift=    0.000
 RMSDP=1.89D-08 MaxDP=1.01D-06 DE=-3.34D-10 OVMax= 8.27D-07

 Cycle   5  Pass 1  IDiag  1:
 RMSU=  6.06D-09    CP:  1.00D+00  1.09D+00  1.19D+00  1.15D+00
 FoFJK:  IHMeth= 1 ICntrl=     0 DoSepK=T KAlg= 1 I1Cent= 0 FoldK=F
 E= -2753.40937613370     Delta-E=       -0.000000000009 Rises=F Damp=F
 DIIS: error= 4.70D-08 at cycle   5 NSaved=   5.
 NSaved= 5 IEnMin= 5 EnMin= -2753.40937613370     IErMin= 5 ErrMin= 4.70D-08
 ErrMax= 4.70D-08 EMaxC= 1.00D-01 BMatC= 3.38D-13 BMatP= 4.15D-12
 IDIUse=1 WtCom= 1.00D+00 WtEn= 0.00D+00
 Coeff-Com: -0.346D-04 0.959D-02-0.792D-01 0.316D-01 0.104D+01
 Coeff:     -0.346D-04 0.959D-02-0.792D-01 0.316D-01 0.104D+01
 Gap=     0.580 Goal=   None    Shift=    0.000
 RMSDP=7.43D-09 MaxDP=4.25D-07 DE=-9.09D-12 OVMax= 4.31D-07

 SCF Done:  E(RLC-B+HF-LYP) =  -2753.40937613     A.U. after    5 cycles
             Convg  =    0.7433D-08             -V/T =  2.0014
 KE= 2.749687338194D+03 PE=-6.579480137804D+03 EE= 1.076383423476D+03
 Leave Link  502 at Mon May 11 16:39:31 2020, MaxMem= 1073741824 cpu:     106.6
 (Enter /home/matheus/.gaussian/g09/l122.exe)
 Restoring MOs from calculation   4 to rwf.
 Counterpoise: doing MCBS calculation for fragment   1
 Leave Link  122 at Mon May 11 16:39:31 2020, MaxMem= 1073741824 cpu:       0.0
 (Enter /home/matheus/.gaussian/g09/l301.exe)
 Basis read from rwf:  (5D, 7F)
 No pseudopotential information found on rwf file.
 There are   138 symmetry adapted basis functions of A   symmetry.
 Integral buffers will be    131072 words long.
 Raffenetti 2 integral format.
 Two-electron integral symmetry is turned on.
   138 basis functions,   198 primitive gaussians,   160 cartesian basis functions
     9 alpha electrons        9 beta electrons
       nuclear repulsion energy        36.6035600706 Hartrees.
 IExCor=10402 DFT=T Ex=LC-B+HF Corr=LYP ExCW=0 ScaHFX=  1.000000
 ScaDFX=  1.000000  1.000000  1.000000  1.000000 ScalE2=  1.000000  1.000000
 IRadAn=      5 IRanWt=     -1 IRanGd=            0 ICorTp=0
  HFx wShort=  0.000000 wLong=  1.350000 cFull=  0.000000 cShort=  0.000000 cLong=  1.000000
  DFx wShort=  0.000000 wLong=  1.350000 cFull=  0.000000 cShort=  0.000000 cLong=  1.000000
 NAtoms=    5 NActive=    4 NUniq=    4 SFac= 1.00D+00 NAtFMM=   60 NAOKFM=F Big=F
 No density basis found on file   718.
 Leave Link  301 at Mon May 11 16:39:32 2020, MaxMem= 1073741824 cpu:       0.2
 (Enter /home/matheus/.gaussian/g09/l302.exe)
 NPDir=0 NMtPBC=     1 NCelOv=     1 NCel=       1 NClECP=     1 NCelD=      1
         NCelK=      1 NCelE2=     1 NClLst=     1 CellRange=     0.0.
 One-electron integrals computed using PRISM.
 NBasis=   138 RedAO= T  NBF=   138
 NBsUse=   138 1.00D-06 NBFU=   138
 Precomputing XC quadrature grid using
 IXCGrd= 2 IRadAn=           5 IRanWt=          -1 IRanGd=           0 AccXCQ= 0.00D+00.
 NRdTot=     344 NPtTot=       92556 NUsed=       95038 NTot=       95070
 NSgBfM=   160   160   160   160   160 NAtAll=     4     4.
 Leave Link  302 at Mon May 11 16:39:32 2020, MaxMem= 1073741824 cpu:       0.9
 (Enter /home/matheus/.gaussian/g09/l303.exe)
 DipDrv:  MaxL=1.
 Leave Link  303 at Mon May 11 16:39:32 2020, MaxMem= 1073741824 cpu:       0.2
 (Enter /home/matheus/.gaussian/g09/l401.exe)
 Initial guess read from the read-write file.
 Guess basis will be translated and rotated to current coordinates.
 Initial guess orbital symmetries:
       Occupied  (A) (A) (A) (A) (A) (A) (A) (A) (A)
       Virtual   (A) (A) (A) (A) (A) (A) (A) (A) (A) (A) (A) (A)
                 (A) (A) (A) (A) (A) (A) (A) (A) (A) (A) (A) (A)
                 (A) (A) (A) (A) (A) (A) (A) (A) (A) (A) (A) (A)
                 (A) (A) (A) (A) (A) (A) (A) (A) (A) (A) (A) (A)
                 (A) (A) (A) (A) (A) (A) (A) (A) (A) (A) (A) (A)
                 (A) (A) (A) (A) (A) (A) (A) (A) (A) (A) (A) (A)
                 (A) (A) (A) (A) (A) (A) (A) (A) (A) (A) (A) (A)
                 (A) (A) (A) (A) (A) (A) (A) (A) (A) (A) (A) (A)
                 (A) (A) (A) (A) (A) (A) (A) (A) (A) (A) (A) (A)
                 (A) (A) (A) (A) (A) (A) (A) (A) (A) (A) (A) (A)
                 (A) (A) (A) (A) (A) (A) (A) (A) (A)
 The electronic state of the initial guess is 1-A.
 Generating alternative initial guess.
 Harris functional with IExCor=10402 diagonalized for initial guess.
 ExpMin= 2.53D-02 ExpMax= 1.53D+04 ExpMxC= 5.22D+02 IAcc=3 IRadAn=         5 AccDes= 0.00D+00
 HarFok:  IExCor=10402 AccDes= 0.00D+00 IRadAn=         5 IDoV= 1
 ScaDFX=  1.000000  1.000000  1.000000  1.000000
 FoFCou: FMM=F IPFlag=           0 FMFlag=      100000 FMFlg1=           0
         NFxFlg=           0 DoJE=T BraDBF=F KetDBF=T FulRan=T
         Omega=  0.000000  0.000000  1.000000  0.000000  0.000000 ICntrl=     500 IOpCl=  0
         NMat0=    1 NMatS0=    1 NMatT0=    0 NMatD0=    1 NMtDS0=    0 NMtDT0=    0
         I1Cent=           4 NGrid=           0.
 Petite list used in FoFCou.
 Harris En= -143.232405077480    
 Leave Link  401 at Mon May 11 16:39:32 2020, MaxMem= 1073741824 cpu:       2.8
 (Enter /home/matheus/.gaussian/g09/l502.exe)
 Closed shell SCF:
 Requested convergence on RMS density matrix=1.00D-08 within 128 cycles.
 Requested convergence on MAX density matrix=1.00D-06.
 Requested convergence on             energy=1.00D-06.
 No special actions if energy rises.
 Using DIIS extrapolation, IDIIS=  1040.
 Integral symmetry usage will be decided dynamically.
        94980 words used for storage of precomputed grid.
 IEnd=      192360 IEndB=      192360 NGot=  1073741824 MDV=  1073591865
 LenX=  1073591865 LenY=  1073565824
 Fock matrices will be formed incrementally for  20 cycles.

 Cycle   1  Pass 1  IDiag  1:
 FoFJK:  IHMeth= 1 ICntrl=     0 DoSepK=T KAlg= 1 I1Cent= 0 FoldK=F
 FoFCou: FMM=F IPFlag=           0 FMFlag=      100000 FMFlg1=           0
         NFxFlg=           0 DoJE=T BraDBF=F KetDBF=F FulRan=T
         Omega=  0.000000  0.000000  1.000000  0.000000  0.000000 ICntrl=     500 IOpCl=  0
         NMat0=    1 NMatS0=    1 NMatT0=    0 NMatD0=    1 NMtDS0=    0 NMtDT0=    0
         I1Cent=           0 NGrid=           0.
 Symmetry not used in FoFCou.
 E= -151.211485999470    
 DIIS: error= 2.07D-05 at cycle   1 NSaved=   1.
 NSaved= 1 IEnMin= 1 EnMin= -151.211485999470     IErMin= 1 ErrMin= 2.07D-05
 ErrMax= 2.07D-05 EMaxC= 1.00D-01 BMatC= 4.28D-08 BMatP= 4.28D-08
 IDIUse=1 WtCom= 1.00D+00 WtEn= 0.00D+00
 Coeff-Com:  0.100D+01
 Coeff:      0.100D+01
 Gap=     0.517 Goal=   None    Shift=    0.000
 RMSDP=1.07D-06 MaxDP=1.90D-05              OVMax= 7.39D-05

 Cycle   2  Pass 1  IDiag  1:
 RMSU=  7.57D-07    CP:  1.00D+00
 FoFJK:  IHMeth= 1 ICntrl=     0 DoSepK=T KAlg= 1 I1Cent= 0 FoldK=F
 E= -151.211486043651     Delta-E=       -0.000000044181 Rises=F Damp=F
 DIIS: error= 5.30D-06 at cycle   2 NSaved=   2.
 NSaved= 2 IEnMin= 2 EnMin= -151.211486043651     IErMin= 2 ErrMin= 5.30D-06
 ErrMax= 5.30D-06 EMaxC= 1.00D-01 BMatC= 2.64D-09 BMatP= 4.28D-08
 IDIUse=1 WtCom= 1.00D+00 WtEn= 0.00D+00
 Coeff-Com: -0.217D+00 0.122D+01
 Coeff:     -0.217D+00 0.122D+01
 Gap=     0.517 Goal=   None    Shift=    0.000
 RMSDP=4.21D-07 MaxDP=7.62D-06 DE=-4.42D-08 OVMax= 3.92D-05

 Cycle   3  Pass 1  IDiag  1:
 RMSU=  1.72D-07    CP:  1.00D+00  1.32D+00
 FoFJK:  IHMeth= 1 ICntrl=     0 DoSepK=T KAlg= 1 I1Cent= 0 FoldK=F
 E= -151.211486049350     Delta-E=       -0.000000005699 Rises=F Damp=F
 DIIS: error= 1.54D-06 at cycle   3 NSaved=   3.
 NSaved= 3 IEnMin= 3 EnMin= -151.211486049350     IErMin= 3 ErrMin= 1.54D-06
 ErrMax= 1.54D-06 EMaxC= 1.00D-01 BMatC= 2.14D-10 BMatP= 2.64D-09
 IDIUse=1 WtCom= 1.00D+00 WtEn= 0.00D+00
 Coeff-Com:  0.190D-01-0.293D+00 0.127D+01
 Coeff:      0.190D-01-0.293D+00 0.127D+01
 Gap=     0.517 Goal=   None    Shift=    0.000
 RMSDP=1.59D-07 MaxDP=3.24D-06 DE=-5.70D-09 OVMax= 1.58D-05

 Cycle   4  Pass 1  IDiag  1:
 RMSU=  4.22D-08    CP:  1.00D+00  1.40D+00  1.49D+00
 FoFJK:  IHMeth= 1 ICntrl=     0 DoSepK=T KAlg= 1 I1Cent= 0 FoldK=F
 E= -151.211486049940     Delta-E=       -0.000000000589 Rises=F Damp=F
 DIIS: error= 4.67D-07 at cycle   4 NSaved=   4.
 NSaved= 4 IEnMin= 4 EnMin= -151.211486049940     IErMin= 4 ErrMin= 4.67D-07
 ErrMax= 4.67D-07 EMaxC= 1.00D-01 BMatC= 4.73D-11 BMatP= 2.14D-10
 IDIUse=1 WtCom= 1.00D+00 WtEn= 0.00D+00
 Coeff-Com:  0.244D-01-0.199D+00 0.380D+00 0.795D+00
 Coeff:      0.244D-01-0.199D+00 0.380D+00 0.795D+00
 Gap=     0.517 Goal=   None    Shift=    0.000
 RMSDP=4.58D-08 MaxDP=1.30D-06 DE=-5.89D-10 OVMax= 3.93D-06

 Cycle   5  Pass 1  IDiag  1:
 RMSU=  1.88D-08    CP:  1.00D+00  1.42D+00  1.63D+00  1.00D+00
 FoFJK:  IHMeth= 1 ICntrl=     0 DoSepK=T KAlg= 1 I1Cent= 0 FoldK=F
 E= -151.211486050026     Delta-E=       -0.000000000086 Rises=F Damp=F
 DIIS: error= 1.86D-07 at cycle   5 NSaved=   5.
 NSaved= 5 IEnMin= 5 EnMin= -151.211486050026     IErMin= 5 ErrMin= 1.86D-07
 ErrMax= 1.86D-07 EMaxC= 1.00D-01 BMatC= 6.41D-12 BMatP= 4.73D-11
 IDIUse=1 WtCom= 1.00D+00 WtEn= 0.00D+00
 Coeff-Com:  0.418D-03 0.203D-01-0.172D+00 0.139D+00 0.101D+01
 Coeff:      0.418D-03 0.203D-01-0.172D+00 0.139D+00 0.101D+01
 Gap=     0.517 Goal=   None    Shift=    0.000
 RMSDP=2.28D-08 MaxDP=3.75D-07 DE=-8.57D-11 OVMax= 1.77D-06

 Cycle   6  Pass 1  IDiag  1:
 RMSU=  7.33D-09    CP:  1.00D+00  1.42D+00  1.68D+00  1.22D+00  1.25D+00
 FoFJK:  IHMeth= 1 ICntrl=     0 DoSepK=T KAlg= 1 I1Cent= 0 FoldK=F
 E= -151.211486050042     Delta-E=       -0.000000000016 Rises=F Damp=F
 DIIS: error= 7.93D-08 at cycle   6 NSaved=   6.
 NSaved= 6 IEnMin= 6 EnMin= -151.211486050042     IErMin= 6 ErrMin= 7.93D-08
 ErrMax= 7.93D-08 EMaxC= 1.00D-01 BMatC= 7.91D-13 BMatP= 6.41D-12
 IDIUse=1 WtCom= 1.00D+00 WtEn= 0.00D+00
 Coeff-Com: -0.214D-02 0.225D-01-0.640D-01-0.547D-01 0.171D+00 0.927D+00
 Coeff:     -0.214D-02 0.225D-01-0.640D-01-0.547D-01 0.171D+00 0.927D+00
 Gap=     0.517 Goal=   None    Shift=    0.000
 RMSDP=8.05D-09 MaxDP=1.31D-07 DE=-1.63D-11 OVMax= 8.18D-07

 SCF Done:  E(RLC-B+HF-LYP) =  -151.211486050     A.U. after    6 cycles
             Convg  =    0.8050D-08             -V/T =  2.0063
 KE= 1.502620576295D+02 PE=-4.315421509346D+02 EE= 9.346504718450D+01
 Leave Link  502 at Mon May 11 16:39:39 2020, MaxMem= 1073741824 cpu:      53.0
 (Enter /home/matheus/.gaussian/g09/l122.exe)
 Restoring MOs from calculation   5 to rwf.
 Counterpoise: doing MCBS calculation for fragment   2
 Leave Link  122 at Mon May 11 16:39:39 2020, MaxMem= 1073741824 cpu:       0.0
 (Enter /home/matheus/.gaussian/g09/l301.exe)
 Basis read from rwf:  (5D, 7F)
 No pseudopotential information found on rwf file.
 There are    59 symmetry adapted basis functions of A   symmetry.
 Integral buffers will be    131072 words long.
 Raffenetti 2 integral format.
 Two-electron integral symmetry is turned on.
    59 basis functions,   217 primitive gaussians,    69 cartesian basis functions
    18 alpha electrons       18 beta electrons
       nuclear repulsion energy         0.0000000000 Hartrees.
 IExCor=10402 DFT=T Ex=LC-B+HF Corr=LYP ExCW=0 ScaHFX=  1.000000
 ScaDFX=  1.000000  1.000000  1.000000  1.000000 ScalE2=  1.000000  1.000000
 IRadAn=      5 IRanWt=     -1 IRanGd=            0 ICorTp=0
  HFx wShort=  0.000000 wLong=  1.350000 cFull=  0.000000 cShort=  0.000000 cLong=  1.000000
  DFx wShort=  0.000000 wLong=  1.350000 cFull=  0.000000 cShort=  0.000000 cLong=  1.000000
 NAtoms=    5 NActive=    1 NUniq=    1 SFac= 1.00D+00 NAtFMM=   60 NAOKFM=F Big=F
 No density basis found on file   718.
 Leave Link  301 at Mon May 11 16:39:39 2020, MaxMem= 1073741824 cpu:       0.2
 (Enter /home/matheus/.gaussian/g09/l302.exe)
 NPDir=0 NMtPBC=     1 NCelOv=     1 NCel=       1 NClECP=     1 NCelD=      1
         NCelK=      1 NCelE2=     1 NClLst=     1 CellRange=     0.0.
 One-electron integrals computed using PRISM.
 NBasis=    59 RedAO= T  NBF=    59
 NBsUse=    59 1.00D-06 NBFU=    59
 Precomputing XC quadrature grid using
 IXCGrd= 2 IRadAn=           5 IRanWt=          -1 IRanGd=           0 AccXCQ= 0.00D+00.
 NRdTot=      81 NPtTot=       30352 NUsed=       30981 NTot=       31013
 NSgBfM=    69    69    69    69    69 NAtAll=     1     1.
 Leave Link  302 at Mon May 11 16:39:39 2020, MaxMem= 1073741824 cpu:       0.7
 (Enter /home/matheus/.gaussian/g09/l303.exe)
 DipDrv:  MaxL=1.
 Leave Link  303 at Mon May 11 16:39:39 2020, MaxMem= 1073741824 cpu:       0.2
 (Enter /home/matheus/.gaussian/g09/l401.exe)
 Initial guess read from the read-write file.
 Guess basis will be translated and rotated to current coordinates.
 Initial guess orbital symmetries:
       Occupied  (A) (A) (A) (A) (A) (A) (A) (A) (A) (A) (A) (A)
                 (A) (A) (A) (A) (A) (A)
       Virtual   (A) (A) (A) (A) (A) (A) (A) (A) (A) (A) (A) (A)
                 (A) (A) (A) (A) (A) (A) (A) (A) (A) (A) (A) (A)
                 (A) (A) (A) (A) (A) (A) (A) (A) (A) (A) (A) (A)
                 (A) (A) (A) (A) (A)
 The electronic state of the initial guess is 1-A.
 Generating alternative initial guess.
 Harris functional with IExCor=10402 diagonalized for initial guess.
 ExpMin= 4.00D-02 ExpMax= 1.17D+07 ExpMxC= 1.33D+04 IAcc=3 IRadAn=         5 AccDes= 0.00D+00
 HarFok:  IExCor=10402 AccDes= 0.00D+00 IRadAn=         5 IDoV= 1
 ScaDFX=  1.000000  1.000000  1.000000  1.000000
 FoFCou: FMM=F IPFlag=           0 FMFlag=      100000 FMFlg1=           0
         NFxFlg=           0 DoJE=T BraDBF=F KetDBF=T FulRan=T
         Omega=  0.000000  0.000000  1.000000  0.000000  0.000000 ICntrl=     500 IOpCl=  0
         NMat0=    1 NMatS0=    1 NMatT0=    0 NMatD0=    1 NMtDS0=    0 NMtDT0=    0
         I1Cent=           4 NGrid=           0.
 Petite list used in FoFCou.
 Harris En= -2731.73388500824    
 Leave Link  401 at Mon May 11 16:39:39 2020, MaxMem= 1073741824 cpu:       1.1
 (Enter /home/matheus/.gaussian/g09/l502.exe)
 Closed shell SCF:
 Requested convergence on RMS density matrix=1.00D-08 within 128 cycles.
 Requested convergence on MAX density matrix=1.00D-06.
 Requested convergence on             energy=1.00D-06.
 No special actions if energy rises.
 Using DIIS extrapolation, IDIIS=  1040.
 Integral symmetry usage will be decided dynamically.
        30923 words used for storage of precomputed grid.
 IEnd=       64406 IEndB=       64406 NGot=  1073741824 MDV=  1073698889
 LenX=  1073698889 LenY=  1073693687
 Fock matrices will be formed incrementally for  20 cycles.

 Cycle   1  Pass 1  IDiag  1:
 FoFJK:  IHMeth= 1 ICntrl=     0 DoSepK=T KAlg= 1 I1Cent= 0 FoldK=F
 FoFCou: FMM=F IPFlag=           0 FMFlag=      100000 FMFlg1=           0
         NFxFlg=           0 DoJE=T BraDBF=F KetDBF=F FulRan=T
         Omega=  0.000000  0.000000  1.000000  0.000000  0.000000 ICntrl=     500 IOpCl=  0
         NMat0=    1 NMatS0=    1 NMatT0=    0 NMatD0=    1 NMtDS0=    0 NMtDT0=    0
         I1Cent=           0 NGrid=           0.
 Symmetry not used in FoFCou.
 E= -2753.40934852740    
 DIIS: error= 6.20D-14 at cycle   1 NSaved=   1.
 NSaved= 1 IEnMin= 1 EnMin= -2753.40934852740     IErMin= 1 ErrMin= 6.20D-14
 ErrMax= 6.20D-14 EMaxC= 1.00D-01 BMatC= 1.43D-25 BMatP= 1.43D-25
 IDIUse=1 WtCom= 1.00D+00 WtEn= 0.00D+00
 Coeff-Com:  0.100D+01
 Coeff:      0.100D+01
 Gap=     0.640 Goal=   None    Shift=    0.000
 DSYEVD returned Info=          89 IAlg= 4 N=    59 NDim=    59 NE2=    18198197 trying DSYEV.
 RMSDP=5.16D-15 MaxDP=1.12D-13              OVMax= 3.32D-14

 SCF Done:  E(RLC-B+HF-LYP) =  -2753.40934853     A.U. after    1 cycles
             Convg  =    0.5157D-14             -V/T =  2.0014
 KE= 2.749695852517D+03 PE=-6.579489077514D+03 EE= 1.076383876470D+03
 Leave Link  502 at Mon May 11 16:39:41 2020, MaxMem= 1073741824 cpu:      12.0
 (Enter /home/matheus/.gaussian/g09/l122.exe)
 Restoring MOs from calculation   1 to rwf.
 Counterpoise: corrected energy =   -2904.620893957300
 Counterpoise: BSSE energy =       0.000031111080
 Leave Link  122 at Mon May 11 16:39:41 2020, MaxMem= 1073741824 cpu:       0.0
 (Enter /home/matheus/.gaussian/g09/l108.exe)
 Scan completed.

 Summary of the potential surface scan:
   N      R1          SCF    
 ----  ---------  -----------
    1     3.0000  -2753.40935
    2     3.1000  -2753.40935
    3     3.2000  -2753.40935
    4     3.3000  -2753.40935
    5     3.4000  -2753.40935
    6     3.5000  -2753.40935
    7     3.6000  -2753.40935
    8     3.7000  -2753.40935
    9     3.8000  -2753.40935
   10     3.9000  -2753.40935
   11     4.0000  -2753.40935
   12     4.1000  -2753.40935
   13     4.2000  -2753.40935
   14     4.3000  -2753.40935
   15     4.4000  -2753.40935
   16     4.5000  -2753.40935
   17     4.6000  -2753.40935
   18     4.7000  -2753.40935
   19     4.8000  -2753.40935
   20     4.9000  -2753.40935
   21     5.0000  -2753.40935
 ----  ---------  -----------
  
 Leave Link  108 at Mon May 11 16:39:41 2020, MaxMem= 1073741824 cpu:       0.0
 (Enter /home/matheus/.gaussian/g09/l9999.exe)

 Test job not archived.
 1\1\GINC-REDGIANT\Scan\RLC-BLYP\Aug-CC-pVTZ\H2Kr1O2\MATHEUS\11-May-202
 0\1\\#p lc-blyp/aug-cc-PVTz iop(3/107=1350000000) iop(3/108=1350000000
 ) int=ultrafine counterpoise=2 Scan\\TCC\\0,1\O,0,0.,0.,0.725\O,0,0.,0
 .,-0.725\H,0,0.4593602974,-0.795635374,1.0235104166\H,0,0.,0.918720594
 7,-1.0235104166\Kr,0,0.,R1,0.\\R1=3.,s,20,0.1\\Version=EM64L-G09RevC.0
 1\State=1-A\HF=-2753.4093485,-2753.4093485,-2753.4093485,-2753.4093485
 ,-2753.4093485,-2753.4093485,-2753.4093485,-2753.4093485,-2753.4093485
 ,-2753.4093485,-2753.4093485,-2753.4093485,-2753.4093485,-2753.4093485
 ,-2753.4093485,-2753.4093485,-2753.4093485,-2753.4093485,-2753.4093485
 ,-2753.4093485,-2753.4093485\RMSD=5.461e-09,3.089e-10,7.451e-11,2.036e
 -11,7.197e-12,3.145e-12,1.454e-12,6.919e-13,3.270e-13,1.516e-13,7.357e
 -14,3.369e-14,1.630e-14,9.407e-15,7.215e-15,5.878e-15,4.307e-15,1.555e
 -14,1.216e-14,5.664e-15,5.157e-15\PG=C01 [X(H2Kr1O2)]\\@


 I DON'T PRETEND TO UNDERSTAND THE UNIVERSE --
 IT'S A GREAT DEAL BIGGER THAN I AM.
       -- ATTR. TO WILLIAM ALLINGHAM (1828-89)
 Job cpu time:  0 days  3 hours 20 minutes 19.4 seconds.
 File lengths (MBytes):  RWF=     33 Int=      0 D2E=      0 Chk=      8 Scr=      1
 Normal termination of Gaussian 09 at Mon May 11 16:39:41 2020.
