 Entering Gaussian System, Link 0=g09
 Input=/home/matheus/.tcc/Inputs/Inputs-lc-blyp/H2O2-Kr_33.com
 Output=/home/matheus/.tcc/Logs/Logs-lc-blyp/H2O2-Kr_33.log
 Initial command:
 /home/matheus/.gaussian/g09/l1.exe /home/matheus/.gaussian/g09/scratch/Gau-16556.inp -scrdir=/home/matheus/.gaussian/g09/scratch/
 Entering Link 1 = /home/matheus/.gaussian/g09/l1.exe PID=     16559.
  
 Copyright (c) 1988,1990,1992,1993,1995,1998,2003,2009,2011,
            Gaussian, Inc.  All Rights Reserved.
  
 This is part of the Gaussian(R) 09 program.  It is based on
 the Gaussian(R) 03 system (copyright 2003, Gaussian, Inc.),
 the Gaussian(R) 98 system (copyright 1998, Gaussian, Inc.),
 the Gaussian(R) 94 system (copyright 1995, Gaussian, Inc.),
 the Gaussian 92(TM) system (copyright 1992, Gaussian, Inc.),
 the Gaussian 90(TM) system (copyright 1990, Gaussian, Inc.),
 the Gaussian 88(TM) system (copyright 1988, Gaussian, Inc.),
 the Gaussian 86(TM) system (copyright 1986, Carnegie Mellon
 University), and the Gaussian 82(TM) system (copyright 1983,
 Carnegie Mellon University). Gaussian is a federally registered
 trademark of Gaussian, Inc.
  
 This software contains proprietary and confidential information,
 including trade secrets, belonging to Gaussian, Inc.
  
 This software is provided under written license and may be
 used, copied, transmitted, or stored only in accord with that
 written license.
  
 The following legend is applicable only to US Government
 contracts under FAR:
  
                    RESTRICTED RIGHTS LEGEND
  
 Use, reproduction and disclosure by the US Government is
 subject to restrictions as set forth in subparagraphs (a)
 and (c) of the Commercial Computer Software - Restricted
 Rights clause in FAR 52.227-19.
  
 Gaussian, Inc.
 340 Quinnipiac St., Bldg. 40, Wallingford CT 06492
  
  
 ---------------------------------------------------------------
 Warning -- This program may not be used in any manner that
 competes with the business of Gaussian, Inc. or will provide
 assistance to any competitor of Gaussian, Inc.  The licensee
 of this program is prohibited from giving any competitor of
 Gaussian, Inc. access to this program.  By using this program,
 the user acknowledges that Gaussian, Inc. is engaged in the
 business of creating and licensing software in the field of
 computational chemistry and represents and warrants to the
 licensee that it is not a competitor of Gaussian, Inc. and that
 it will not use this program in any manner prohibited above.
 ---------------------------------------------------------------
  

 Cite this work as:
 Gaussian 09, Revision C.01,
 M. J. Frisch, G. W. Trucks, H. B. Schlegel, G. E. Scuseria, 
 M. A. Robb, J. R. Cheeseman, G. Scalmani, V. Barone, B. Mennucci, 
 G. A. Petersson, H. Nakatsuji, M. Caricato, X. Li, H. P. Hratchian, 
 A. F. Izmaylov, J. Bloino, G. Zheng, J. L. Sonnenberg, M. Hada, 
 M. Ehara, K. Toyota, R. Fukuda, J. Hasegawa, M. Ishida, T. Nakajima, 
 Y. Honda, O. Kitao, H. Nakai, T. Vreven, J. A. Montgomery, Jr., 
 J. E. Peralta, F. Ogliaro, M. Bearpark, J. J. Heyd, E. Brothers, 
 K. N. Kudin, V. N. Staroverov, T. Keith, R. Kobayashi, J. Normand, 
 K. Raghavachari, A. Rendell, J. C. Burant, S. S. Iyengar, J. Tomasi, 
 M. Cossi, N. Rega, J. M. Millam, M. Klene, J. E. Knox, J. B. Cross, 
 V. Bakken, C. Adamo, J. Jaramillo, R. Gomperts, R. E. Stratmann, 
 O. Yazyev, A. J. Austin, R. Cammi, C. Pomelli, J. W. Ochterski, 
 R. L. Martin, K. Morokuma, V. G. Zakrzewski, G. A. Voth, 
 P. Salvador, J. J. Dannenberg, S. Dapprich, A. D. Daniels, 
 O. Farkas, J. B. Foresman, J. V. Ortiz, J. Cioslowski, 
 and D. J. Fox, Gaussian, Inc., Wallingford CT, 2010.
 
 ******************************************
 Gaussian 09:  EM64L-G09RevC.01 23-Sep-2011
                11-May-2020 
 ******************************************
 %mem=8GB
 %nproc=8
 Will use up to    8 processors via shared memory.
 ----------------------------------------------------------------------
 #p lc-blyp/aug-cc-PVTz iop(3/107=1350000000) iop(3/108=1350000000) int
 =ultrafine counterpoise=2 Scan
 ----------------------------------------------------------------------
 1/38=1,60=1,62=2/1,8;
 2/12=2,17=6,18=5,29=3,40=1/2;
 1/38=1,53=5172,62=2/22;
 3/5=16,6=1,7=10,11=2,16=1,25=1,30=1,74=1000402,75=-5,107=1350000000,108=1350000000/1,2,3;
 4//1;
 5/5=2,38=5/2;
 6/7=2,8=2,9=2,10=2,18=1,28=1/1;
 1/53=4052,62=2,63=1/22;
 3/5=7,6=11,7=10,11=2,16=1,25=1,30=1,74=1000402,75=-5,82=7,107=1350000000,108=1350000000/1,2,3;
 4//1;
 5/5=2,38=5/2;
 6/7=2,8=2,9=2,10=2,18=1,28=1/1;
 1/53=3042,62=2,63=2/22;
 3/5=7,6=11,7=10,11=2,16=1,25=1,30=1,74=1000402,75=-5,82=7,107=1350000000,108=1350000000/1,2,3;
 4//1;
 5/5=2,38=5/2;
 6/7=2,8=2,9=2,10=2,18=1,28=1/1;
 1/53=2032,62=2,63=3/22;
 3/5=7,6=11,7=10,11=2,16=1,25=1,30=1,74=1000402,75=-5,82=7,107=1350000000,108=1350000000/1,2,3;
 4//1;
 5/5=2,38=5/2;
 6/7=2,8=2,9=2,10=2,18=1,28=1/1;
 1/53=1022,62=2,63=4/22;
 3/5=7,6=11,7=10,11=2,16=1,25=1,30=1,74=1000402,75=-5,82=7,107=1350000000,108=1350000000/1,2,3;
 4//1;
 5/5=2,38=5/2;
 6/7=2,8=2,9=2,10=2,18=1,28=1/1;
 1/53=5014,62=2,63=5/22;
 1/60=1,62=2/8(1);
 99/9=1/99;
 2/29=3/2;
 1/53=5173,62=2/22;
 3/5=7,6=11,7=10,11=2,16=1,25=1,30=1,74=1000402,75=-5,82=7,107=1350000000,108=1350000000/1,2,3;
 4/5=5,16=3/1;
 5/5=2,38=5/2;
 1/53=4053,62=2,63=1/22;
 3/5=7,6=11,7=10,11=2,16=1,25=1,30=1,74=1000402,75=-5,82=7,107=1350000000,108=1350000000/1,2,3;
 4/5=5,16=3/1;
 5/5=2,38=5/2;
 1/53=3043,62=2,63=2/22;
 3/5=7,6=11,7=10,11=2,16=1,25=1,30=1,74=1000402,75=-5,82=7,107=1350000000,108=1350000000/1,2,3;
 4/5=5,16=3/1;
 5/5=2,38=5/2;
 1/53=2033,62=2,63=3/22;
 3/5=7,6=11,7=10,11=2,16=1,25=1,30=1,74=1000402,75=-5,82=7,107=1350000000,108=1350000000/1,2,3;
 4/5=5,16=3/1;
 5/5=2,38=5/2;
 1/53=1024,62=2,63=4/22;
 3/5=7,6=11,7=10,11=2,16=1,25=1,30=1,74=1000402,75=-5,82=7,107=1350000000,108=1350000000/1,2,3;
 4/5=5,16=3/1;
 5/5=2,38=5/2;
 1/53=5014,62=2,63=5/22;
 1/60=1,62=2/8(-22);
 99/9=1/99;
 Leave Link    1 at Mon May 11 23:44:42 2020, MaxMem= 1073741824 cpu:       0.2
 (Enter /home/matheus/.gaussian/g09/l101.exe)
 ---
 TCC
 ---
 Charge =  0 Multiplicity = 1 in supermolecule
 Charge =  0 Multiplicity = 1 in fragment  1.
 Charge =  0 Multiplicity = 1 in fragment  2.
 Symbolic Z-Matrix:
 O(Fragment=1)         0.        0.        0.725 
 O(Fragment=1)         0.        0.       -0.725 
 H(Fragment=1)        -0.45936   0.79564   1.02351 
 H(Fragment=1)         0.        0.91872  -1.02351 
 Kr(Fragment=2)        0.       R1        0. 
       Variables:
  R1                    3.     Scan 20    0.1    
 
 NAtoms=      5 NQM=        0 NQMF=       0 NMMI=      5 NMMIF=      0
                NMic=       0 NMicF=      0.
                    Isotopes and Nuclear Properties:
 (Nuclear quadrupole moments (NQMom) in fm**2, nuclear magnetic moments (NMagM)
  in nuclear magnetons)

  Atom         1           2           3           4           5
 IAtWgt=          16          16           1           1          84
 AtmWgt=  15.9949146  15.9949146   1.0078250   1.0078250  83.9115064
 NucSpn=           0           0           1           1           0
 AtZEff=   0.0000000   0.0000000   0.0000000   0.0000000   0.0000000
 NQMom=    0.0000000   0.0000000   0.0000000   0.0000000   0.0000000
 NMagM=    0.0000000   0.0000000   2.7928460   2.7928460   0.0000000
 Leave Link  101 at Mon May 11 23:44:42 2020, MaxMem= 1073741824 cpu:       0.3
 (Enter /home/matheus/.gaussian/g09/l108.exe)
 Scan the potential surface.
 Variable   Value     No. Steps Step-Size
 -------- ----------- --------- ---------
     1       3.000000      20      0.1000
 A total of     21 points will be computed.
 Leave Link  108 at Mon May 11 23:44:42 2020, MaxMem= 1073741824 cpu:       0.0
 (Enter /home/matheus/.gaussian/g09/l202.exe)
 ---------------------------------------------------------------------------------------------------
                            Z-MATRIX (ANGSTROMS AND DEGREES)
   CD    Cent   Atom    N1       Length/X        N2       Alpha/Y        N3        Beta/Z          J
 ---------------------------------------------------------------------------------------------------
      1      1  O        0   0.000000          0.000000          0.725000
      2      2  O        0   0.000000          0.000000         -0.725000
      3      3  H        0  -0.459360          0.795635          1.023510
      4      4  H        0   0.000000          0.918721         -1.023510
      5      5  Kr       0   0.000000          3.000000          0.000000
 ---------------------------------------------------------------------------------------------------
                         Z-Matrix orientation:                         
 ---------------------------------------------------------------------
 Center     Atomic      Atomic             Coordinates (Angstroms)
 Number     Number       Type             X           Y           Z
 ---------------------------------------------------------------------
      1          8           0        0.000000    0.000000    0.725000
      2          8           0        0.000000    0.000000   -0.725000
      3          1           0       -0.459360    0.795635    1.023510
      4          1           0        0.000000    0.918721   -1.023510
      5         36           0        0.000000    3.000000    0.000000
 ---------------------------------------------------------------------
                    Distance matrix (angstroms):
                    1          2          3          4          5
     1  O    0.000000
     2  O    1.450000   0.000000
     3  H    0.966000   1.975180   0.000000
     4  H    1.975180   0.966000   2.101537   0.000000
     5  Kr   3.086361   3.086361   2.473420   2.319331   0.000000
 Stoichiometry    H2KrO2
 Framework group  C1[X(H2KrO2)]
 Deg. of freedom     9
 Full point group                 C1      NOp   1
 Largest Abelian subgroup         C1      NOp   1
 Largest concise Abelian subgroup C1      NOp   1
                         Standard orientation:                         
 ---------------------------------------------------------------------
 Center     Atomic      Atomic             Coordinates (Angstroms)
 Number     Number       Type             X           Y           Z
 ---------------------------------------------------------------------
      1          8           0       -2.032679   -0.720517   -0.052579
      2          8           0       -2.030654    0.727985    0.013298
      3          1           0       -1.240025   -1.040895    0.397102
      4          1           0       -1.111532    1.024673    0.031898
      5         36           0        0.968284   -0.001209   -0.003188
 ---------------------------------------------------------------------
 Rotational constants (GHZ):     26.4110984      2.3830252      2.1895357
 Leave Link  202 at Mon May 11 23:44:42 2020, MaxMem= 1073741824 cpu:       0.0
 (Enter /home/matheus/.gaussian/g09/l122.exe)
 Leave Link  122 at Mon May 11 23:44:42 2020, MaxMem= 1073741824 cpu:       0.0
 (Enter /home/matheus/.gaussian/g09/l301.exe)
 Standard basis: Aug-CC-pVTZ (5D, 7F)
 Ernie: Thresh=  0.10000D-02 Tol=  0.10000D-05 Strict=F.
 Ernie:  38 primitive shells out of 205 were deleted.
 There are   197 symmetry adapted basis functions of A   symmetry.
 Integral buffers will be    131072 words long.
 Raffenetti 2 integral format.
 Two-electron integral symmetry is turned on.
   197 basis functions,   415 primitive gaussians,   229 cartesian basis functions
    27 alpha electrons       27 beta electrons
       nuclear repulsion energy       151.3348661682 Hartrees.
 IExCor=10402 DFT=T Ex=LC-B+HF Corr=LYP ExCW=0 ScaHFX=  1.000000
 ScaDFX=  1.000000  1.000000  1.000000  1.000000 ScalE2=  1.000000  1.000000
 IRadAn=      5 IRanWt=     -1 IRanGd=            0 ICorTp=0
  HFx wShort=  0.000000 wLong=  1.350000 cFull=  0.000000 cShort=  0.000000 cLong=  1.000000
  DFx wShort=  0.000000 wLong=  1.350000 cFull=  0.000000 cShort=  0.000000 cLong=  1.000000
 NAtoms=    5 NActive=    5 NUniq=    5 SFac= 1.00D+00 NAtFMM=   60 NAOKFM=F Big=F
 Leave Link  301 at Mon May 11 23:44:42 2020, MaxMem= 1073741824 cpu:       0.2
 (Enter /home/matheus/.gaussian/g09/l302.exe)
 NPDir=0 NMtPBC=     1 NCelOv=     1 NCel=       1 NClECP=     1 NCelD=      1
         NCelK=      1 NCelE2=     1 NClLst=     1 CellRange=     0.0.
 One-electron integrals computed using PRISM.
 NBasis=   197 RedAO= T  NBF=   197
 NBsUse=   197 1.00D-06 NBFU=   197
 Precomputing XC quadrature grid using
 IXCGrd= 2 IRadAn=           5 IRanWt=          -1 IRanGd=           0 AccXCQ= 0.00D+00.
 NRdTot=     427 NPtTot=      123512 NUsed=      126579 NTot=      126611
 NSgBfM=   229   229   229   229   229 NAtAll=     5     5.
 Leave Link  302 at Mon May 11 23:44:42 2020, MaxMem= 1073741824 cpu:       1.0
 (Enter /home/matheus/.gaussian/g09/l303.exe)
 DipDrv:  MaxL=1.
 Leave Link  303 at Mon May 11 23:44:42 2020, MaxMem= 1073741824 cpu:       0.2
 (Enter /home/matheus/.gaussian/g09/l401.exe)
 Harris functional with IExCor=10402 diagonalized for initial guess.
 ExpMin= 2.53D-02 ExpMax= 1.17D+07 ExpMxC= 1.33D+04 IAcc=3 IRadAn=         5 AccDes= 0.00D+00
 HarFok:  IExCor=10402 AccDes= 0.00D+00 IRadAn=         5 IDoV= 1
 ScaDFX=  1.000000  1.000000  1.000000  1.000000
 FoFCou: FMM=F IPFlag=           0 FMFlag=      100000 FMFlg1=           0
         NFxFlg=           0 DoJE=T BraDBF=F KetDBF=T FulRan=T
         Omega=  0.000000  0.000000  1.000000  0.000000  0.000000 ICntrl=     500 IOpCl=  0
         NMat0=    1 NMatS0=    1 NMatT0=    0 NMatD0=    1 NMtDS0=    0 NMtDT0=    0
         I1Cent=           4 NGrid=           0.
 Petite list used in FoFCou.
 Harris En= -2874.90510045614    
 Initial guess orbital symmetries:
       Occupied  (A) (A) (A) (A) (A) (A) (A) (A) (A) (A) (A) (A)
                 (A) (A) (A) (A) (A) (A) (A) (A) (A) (A) (A) (A)
                 (A) (A) (A)
       Virtual   (A) (A) (A) (A) (A) (A) (A) (A) (A) (A) (A) (A)
                 (A) (A) (A) (A) (A) (A) (A) (A) (A) (A) (A) (A)
                 (A) (A) (A) (A) (A) (A) (A) (A) (A) (A) (A) (A)
                 (A) (A) (A) (A) (A) (A) (A) (A) (A) (A) (A) (A)
                 (A) (A) (A) (A) (A) (A) (A) (A) (A) (A) (A) (A)
                 (A) (A) (A) (A) (A) (A) (A) (A) (A) (A) (A) (A)
                 (A) (A) (A) (A) (A) (A) (A) (A) (A) (A) (A) (A)
                 (A) (A) (A) (A) (A) (A) (A) (A) (A) (A) (A) (A)
                 (A) (A) (A) (A) (A) (A) (A) (A) (A) (A) (A) (A)
                 (A) (A) (A) (A) (A) (A) (A) (A) (A) (A) (A) (A)
                 (A) (A) (A) (A) (A) (A) (A) (A) (A) (A) (A) (A)
                 (A) (A) (A) (A) (A) (A) (A) (A) (A) (A) (A) (A)
                 (A) (A) (A) (A) (A) (A) (A) (A) (A) (A) (A) (A)
                 (A) (A) (A) (A) (A) (A) (A) (A) (A) (A) (A) (A)
                 (A) (A)
 The electronic state of the initial guess is 1-A.
 Leave Link  401 at Mon May 11 23:44:42 2020, MaxMem= 1073741824 cpu:       4.6
 (Enter /home/matheus/.gaussian/g09/l502.exe)
 Closed shell SCF:
 Requested convergence on RMS density matrix=1.00D-08 within 128 cycles.
 Requested convergence on MAX density matrix=1.00D-06.
 Requested convergence on             energy=1.00D-06.
 No special actions if energy rises.
 Using DIIS extrapolation, IDIIS=  1040.
 Integral symmetry usage will be decided dynamically.
       126521 words used for storage of precomputed grid.
 IEnd=      305468 IEndB=      305468 NGot=  1073741824 MDV=  1073505667
 LenX=  1073505667 LenY=  1073452785
 Fock matrices will be formed incrementally for  20 cycles.

 Cycle   1  Pass 1  IDiag  1:
 FoFJK:  IHMeth= 1 ICntrl=     0 DoSepK=T KAlg= 1 I1Cent= 0 FoldK=F
 FoFCou: FMM=F IPFlag=           0 FMFlag=      100000 FMFlg1=           0
         NFxFlg=           0 DoJE=T BraDBF=F KetDBF=F FulRan=T
         Omega=  0.000000  0.000000  1.000000  0.000000  0.000000 ICntrl=     500 IOpCl=  0
         NMat0=    1 NMatS0=    1 NMatT0=    0 NMatD0=    1 NMtDS0=    0 NMtDT0=    0
         I1Cent=           0 NGrid=           0.
 Symmetry not used in FoFCou.
 E= -2900.37560612720    
 DIIS: error= 9.83D-02 at cycle   1 NSaved=   1.
 NSaved= 1 IEnMin= 1 EnMin= -2900.37560612720     IErMin= 1 ErrMin= 9.83D-02
 ErrMax= 9.83D-02 EMaxC= 1.00D-01 BMatC= 3.70D+00 BMatP= 3.70D+00
 IDIUse=3 WtCom= 1.67D-02 WtEn= 9.83D-01
 Coeff-Com:  0.100D+01
 Coeff-En:   0.100D+01
 Coeff:      0.100D+01
 Gap=    -0.071 Goal=   None    Shift=    0.000
 GapD=   -0.071 DampG=0.250 DampE=0.500 DampFc=0.2500 IDamp=-1.
 Damping current iteration by 2.50D-01
 RMSDP=5.86D-02 MaxDP=3.76D+00              OVMax= 9.99D-01

 Cycle   2  Pass 1  IDiag  1:
 RMSU=  4.25D-03    CP:  7.87D-01
 FoFJK:  IHMeth= 1 ICntrl=     0 DoSepK=T KAlg= 1 I1Cent= 0 FoldK=F
 E= -2901.79182053254     Delta-E=       -1.416214405346 Rises=F Damp=T
 DIIS: error= 4.63D-02 at cycle   2 NSaved=   2.
 NSaved= 2 IEnMin= 2 EnMin= -2901.79182053254     IErMin= 2 ErrMin= 4.63D-02
 ErrMax= 4.63D-02 EMaxC= 1.00D-01 BMatC= 1.03D+00 BMatP= 3.70D+00
 IDIUse=3 WtCom= 5.37D-01 WtEn= 4.63D-01
 Coeff-Com: -0.793D+00 0.179D+01
 Coeff-En:   0.000D+00 0.100D+01
 Coeff:     -0.426D+00 0.143D+01
 Gap=     0.134 Goal=   None    Shift=    0.000
 RMSDP=4.38D-02 MaxDP=2.82D+00 DE=-1.42D+00 OVMax= 9.57D-01

 Cycle   3  Pass 1  IDiag  1:
 RMSU=  5.72D-03    CP:  1.53D-01  3.00D+00
 FoFJK:  IHMeth= 1 ICntrl=     0 DoSepK=T KAlg= 1 I1Cent= 0 FoldK=F
 E= -2904.43680829027     Delta-E=       -2.644987757732 Rises=F Damp=F
 DIIS: error= 2.09D-02 at cycle   3 NSaved=   3.
 NSaved= 3 IEnMin= 3 EnMin= -2904.43680829027     IErMin= 3 ErrMin= 2.09D-02
 ErrMax= 2.09D-02 EMaxC= 1.00D-01 BMatC= 3.08D-01 BMatP= 1.03D+00
 IDIUse=3 WtCom= 7.91D-01 WtEn= 2.09D-01
 Coeff-Com: -0.107D+00 0.496D+00 0.610D+00
 Coeff-En:   0.000D+00 0.000D+00 0.100D+01
 Coeff:     -0.844D-01 0.393D+00 0.692D+00
 Gap=     0.560 Goal=   None    Shift=    0.000
 RMSDP=1.95D-03 MaxDP=8.20D-02 DE=-2.64D+00 OVMax= 7.19D-02

 Cycle   4  Pass 1  IDiag  1:
 RMSU=  1.36D-03    CP:  1.50D-01  3.00D+00  9.72D-01
 FoFJK:  IHMeth= 1 ICntrl=     0 DoSepK=T KAlg= 1 I1Cent= 0 FoldK=F
 E= -2904.60640053998     Delta-E=       -0.169592249711 Rises=F Damp=F
 DIIS: error= 4.14D-03 at cycle   4 NSaved=   4.
 NSaved= 4 IEnMin= 4 EnMin= -2904.60640053998     IErMin= 4 ErrMin= 4.14D-03
 ErrMax= 4.14D-03 EMaxC= 1.00D-01 BMatC= 6.19D-03 BMatP= 3.08D-01
 IDIUse=3 WtCom= 9.59D-01 WtEn= 4.14D-02
 Coeff-Com: -0.435D-02 0.183D-01 0.238D-01 0.962D+00
 Coeff-En:   0.000D+00 0.000D+00 0.000D+00 0.100D+01
 Coeff:     -0.417D-02 0.175D-01 0.228D-01 0.964D+00
 Gap=     0.498 Goal=   None    Shift=    0.000
 RMSDP=6.37D-04 MaxDP=2.25D-02 DE=-1.70D-01 OVMax= 2.04D-02

 Cycle   5  Pass 1  IDiag  1:
 RMSU=  4.06D-04    CP:  1.49D-01  3.00D+00  9.76D-01  1.14D+00
 FoFJK:  IHMeth= 1 ICntrl=     0 DoSepK=T KAlg= 1 I1Cent= 0 FoldK=F
 E= -2904.61220180044     Delta-E=       -0.005801260459 Rises=F Damp=F
 DIIS: error= 1.04D-03 at cycle   5 NSaved=   5.
 NSaved= 5 IEnMin= 5 EnMin= -2904.61220180044     IErMin= 5 ErrMin= 1.04D-03
 ErrMax= 1.04D-03 EMaxC= 1.00D-01 BMatC= 3.48D-04 BMatP= 6.19D-03
 IDIUse=3 WtCom= 9.90D-01 WtEn= 1.04D-02
 Coeff-Com: -0.155D-01 0.259D-01-0.190D-02-0.104D-01 0.100D+01
 Coeff-En:   0.000D+00 0.000D+00 0.000D+00 0.000D+00 0.100D+01
 Coeff:     -0.153D-01 0.256D-01-0.188D-02-0.103D-01 0.100D+01
 Gap=     0.509 Goal=   None    Shift=    0.000
 RMSDP=1.20D-04 MaxDP=2.20D-03 DE=-5.80D-03 OVMax= 6.68D-03

 Cycle   6  Pass 1  IDiag  1:
 RMSU=  7.23D-05    CP:  1.49D-01  3.00D+00  9.76D-01  1.15D+00  1.10D+00
 FoFJK:  IHMeth= 1 ICntrl=     0 DoSepK=T KAlg= 1 I1Cent= 0 FoldK=F
 E= -2904.61259418253     Delta-E=       -0.000392382083 Rises=F Damp=F
 DIIS: error= 3.84D-04 at cycle   6 NSaved=   6.
 NSaved= 6 IEnMin= 6 EnMin= -2904.61259418253     IErMin= 6 ErrMin= 3.84D-04
 ErrMax= 3.84D-04 EMaxC= 1.00D-01 BMatC= 4.25D-05 BMatP= 3.48D-04
 IDIUse=3 WtCom= 9.96D-01 WtEn= 3.84D-03
 Coeff-Com: -0.416D-02 0.665D-02-0.646D-02-0.290D-01-0.654D-01 0.110D+01
 Coeff-En:   0.000D+00 0.000D+00 0.000D+00 0.000D+00 0.000D+00 0.100D+01
 Coeff:     -0.415D-02 0.663D-02-0.644D-02-0.289D-01-0.652D-01 0.110D+01
 Gap=     0.513 Goal=   None    Shift=    0.000
 RMSDP=4.47D-05 MaxDP=1.18D-03 DE=-3.92D-04 OVMax= 2.85D-03

 Cycle   7  Pass 1  IDiag  1:
 RMSU=  1.90D-05    CP:  1.49D-01  3.00D+00  9.76D-01  1.16D+00  1.14D+00
                    CP:  1.16D+00
 FoFJK:  IHMeth= 1 ICntrl=     0 DoSepK=T KAlg= 1 I1Cent= 0 FoldK=F
 E= -2904.61265942805     Delta-E=       -0.000065245520 Rises=F Damp=F
 DIIS: error= 1.23D-04 at cycle   7 NSaved=   7.
 NSaved= 7 IEnMin= 7 EnMin= -2904.61265942805     IErMin= 7 ErrMin= 1.23D-04
 ErrMax= 1.23D-04 EMaxC= 1.00D-01 BMatC= 7.45D-06 BMatP= 4.25D-05
 IDIUse=3 WtCom= 9.99D-01 WtEn= 1.23D-03
 Coeff-Com: -0.417D-03 0.475D-03-0.285D-02-0.986D-02-0.836D-01 0.334D+00
 Coeff-Com:  0.763D+00
 Coeff-En:   0.000D+00 0.000D+00 0.000D+00 0.000D+00 0.000D+00 0.000D+00
 Coeff-En:   0.100D+01
 Coeff:     -0.416D-03 0.475D-03-0.285D-02-0.985D-02-0.835D-01 0.333D+00
 Coeff:      0.763D+00
 Gap=     0.513 Goal=   None    Shift=    0.000
 RMSDP=1.30D-05 MaxDP=5.95D-04 DE=-6.52D-05 OVMax= 8.61D-04

 Cycle   8  Pass 1  IDiag  1:
 RMSU=  6.89D-06    CP:  1.49D-01  3.00D+00  9.76D-01  1.17D+00  1.15D+00
                    CP:  1.19D+00  1.17D+00
 FoFJK:  IHMeth= 1 ICntrl=     0 DoSepK=T KAlg= 1 I1Cent= 0 FoldK=F
 E= -2904.61266723819     Delta-E=       -0.000007810146 Rises=F Damp=F
 DIIS: error= 5.89D-05 at cycle   8 NSaved=   8.
 NSaved= 8 IEnMin= 8 EnMin= -2904.61266723819     IErMin= 8 ErrMin= 5.89D-05
 ErrMax= 5.89D-05 EMaxC= 1.00D-01 BMatC= 9.90D-07 BMatP= 7.45D-06
 IDIUse=1 WtCom= 1.00D+00 WtEn= 0.00D+00
 Coeff-Com:  0.804D-03-0.137D-02 0.422D-03 0.146D-02-0.323D-02-0.103D+00
 Coeff-Com:  0.177D+00 0.928D+00
 Coeff:      0.804D-03-0.137D-02 0.422D-03 0.146D-02-0.323D-02-0.103D+00
 Coeff:      0.177D+00 0.928D+00
 Gap=     0.513 Goal=   None    Shift=    0.000
 RMSDP=6.32D-06 MaxDP=2.97D-04 DE=-7.81D-06 OVMax= 4.86D-04

 Cycle   9  Pass 1  IDiag  1:
 RMSU=  2.73D-06    CP:  1.49D-01  3.00D+00  9.76D-01  1.17D+00  1.15D+00
                    CP:  1.20D+00  1.33D+00  1.22D+00
 FoFJK:  IHMeth= 1 ICntrl=     0 DoSepK=T KAlg= 1 I1Cent= 0 FoldK=F
 E= -2904.61266873253     Delta-E=       -0.000001494341 Rises=F Damp=F
 DIIS: error= 2.35D-05 at cycle   9 NSaved=   9.
 NSaved= 9 IEnMin= 9 EnMin= -2904.61266873253     IErMin= 9 ErrMin= 2.35D-05
 ErrMax= 2.35D-05 EMaxC= 1.00D-01 BMatC= 1.16D-07 BMatP= 9.90D-07
 IDIUse=1 WtCom= 1.00D+00 WtEn= 0.00D+00
 Coeff-Com:  0.244D-03-0.380D-03 0.434D-03 0.101D-02 0.479D-02-0.113D-01
 Coeff-Com: -0.691D-01-0.574D-01 0.113D+01
 Coeff:      0.244D-03-0.380D-03 0.434D-03 0.101D-02 0.479D-02-0.113D-01
 Coeff:     -0.691D-01-0.574D-01 0.113D+01
 Gap=     0.513 Goal=   None    Shift=    0.000
 RMSDP=2.63D-06 MaxDP=6.14D-05 DE=-1.49D-06 OVMax= 2.42D-04

 Cycle  10  Pass 1  IDiag  1:
 RMSU=  9.22D-07    CP:  1.49D-01  3.00D+00  9.76D-01  1.17D+00  1.15D+00
                    CP:  1.20D+00  1.35D+00  1.35D+00  1.39D+00
 FoFJK:  IHMeth= 1 ICntrl=     0 DoSepK=T KAlg= 1 I1Cent= 0 FoldK=F
 E= -2904.61266900440     Delta-E=       -0.000000271863 Rises=F Damp=F
 DIIS: error= 1.14D-05 at cycle  10 NSaved=  10.
 NSaved=10 IEnMin=10 EnMin= -2904.61266900440     IErMin=10 ErrMin= 1.14D-05
 ErrMax= 1.14D-05 EMaxC= 1.00D-01 BMatC= 1.67D-08 BMatP= 1.16D-07
 IDIUse=1 WtCom= 1.00D+00 WtEn= 0.00D+00
 Coeff-Com: -0.528D-04 0.978D-04-0.866D-04-0.133D-03-0.310D-02 0.203D-01
 Coeff-Com: -0.116D-01-0.137D+00-0.165D+00 0.130D+01
 Coeff:     -0.528D-04 0.978D-04-0.866D-04-0.133D-03-0.310D-02 0.203D-01
 Coeff:     -0.116D-01-0.137D+00-0.165D+00 0.130D+01
 Gap=     0.513 Goal=   None    Shift=    0.000
 RMSDP=1.37D-06 MaxDP=2.58D-05 DE=-2.72D-07 OVMax= 1.46D-04

 Cycle  11  Pass 1  IDiag  1:
 RMSU=  3.34D-07    CP:  1.49D-01  3.00D+00  9.76D-01  1.17D+00  1.15D+00
                    CP:  1.20D+00  1.36D+00  1.41D+00  1.62D+00  1.50D+00
 FoFJK:  IHMeth= 1 ICntrl=     0 DoSepK=T KAlg= 1 I1Cent= 0 FoldK=F
 E= -2904.61266906149     Delta-E=       -0.000000057089 Rises=F Damp=F
 DIIS: error= 3.02D-06 at cycle  11 NSaved=  11.
 NSaved=11 IEnMin=11 EnMin= -2904.61266906149     IErMin=11 ErrMin= 3.02D-06
 ErrMax= 3.02D-06 EMaxC= 1.00D-01 BMatC= 1.14D-09 BMatP= 1.67D-08
 IDIUse=1 WtCom= 1.00D+00 WtEn= 0.00D+00
 Coeff-Com: -0.266D-04 0.416D-04-0.124D-04-0.614D-04 0.773D-03-0.477D-02
 Coeff-Com:  0.403D-02 0.314D-01-0.369D-01-0.328D+00 0.133D+01
 Coeff:     -0.266D-04 0.416D-04-0.124D-04-0.614D-04 0.773D-03-0.477D-02
 Coeff:      0.403D-02 0.314D-01-0.369D-01-0.328D+00 0.133D+01
 Gap=     0.513 Goal=   None    Shift=    0.000
 RMSDP=4.18D-07 MaxDP=8.59D-06 DE=-5.71D-08 OVMax= 4.74D-05

 Cycle  12  Pass 1  IDiag  1:
 RMSU=  9.43D-08    CP:  1.49D-01  3.00D+00  9.76D-01  1.17D+00  1.15D+00
                    CP:  1.20D+00  1.37D+00  1.42D+00  1.67D+00  1.65D+00
                    CP:  1.43D+00
 FoFJK:  IHMeth= 1 ICntrl=     0 DoSepK=T KAlg= 1 I1Cent= 0 FoldK=F
 E= -2904.61266906596     Delta-E=       -0.000000004473 Rises=F Damp=F
 DIIS: error= 7.22D-07 at cycle  12 NSaved=  12.
 NSaved=12 IEnMin=12 EnMin= -2904.61266906596     IErMin=12 ErrMin= 7.22D-07
 ErrMax= 7.22D-07 EMaxC= 1.00D-01 BMatC= 8.48D-11 BMatP= 1.14D-09
 IDIUse=1 WtCom= 1.00D+00 WtEn= 0.00D+00
 Coeff-Com: -0.388D-05 0.568D-05 0.944D-07 0.106D-04 0.119D-04 0.463D-03
 Coeff-Com: -0.102D-02-0.269D-02 0.216D-01 0.162D-01-0.310D+00 0.128D+01
 Coeff:     -0.388D-05 0.568D-05 0.944D-07 0.106D-04 0.119D-04 0.463D-03
 Coeff:     -0.102D-02-0.269D-02 0.216D-01 0.162D-01-0.310D+00 0.128D+01
 Gap=     0.513 Goal=   None    Shift=    0.000
 RMSDP=7.84D-08 MaxDP=1.72D-06 DE=-4.47D-09 OVMax= 6.78D-06

 Cycle  13  Pass 1  IDiag  1:
 RMSU=  2.17D-08    CP:  1.49D-01  3.00D+00  9.76D-01  1.17D+00  1.15D+00
                    CP:  1.20D+00  1.37D+00  1.42D+00  1.67D+00  1.65D+00
                    CP:  1.50D+00  1.43D+00
 FoFJK:  IHMeth= 1 ICntrl=     0 DoSepK=T KAlg= 1 I1Cent= 0 FoldK=F
 E= -2904.61266906616     Delta-E=       -0.000000000206 Rises=F Damp=F
 DIIS: error= 1.73D-07 at cycle  13 NSaved=  13.
 NSaved=13 IEnMin=13 EnMin= -2904.61266906616     IErMin=13 ErrMin= 1.73D-07
 ErrMax= 1.73D-07 EMaxC= 1.00D-01 BMatC= 4.49D-12 BMatP= 8.48D-11
 IDIUse=1 WtCom= 1.00D+00 WtEn= 0.00D+00
 Coeff-Com: -0.313D-06 0.677D-06-0.127D-05 0.306D-05-0.648D-04 0.418D-03
 Coeff-Com: -0.350D-03-0.282D-02 0.382D-03 0.234D-01-0.735D-01-0.613D-01
 Coeff-Com:  0.111D+01
 Coeff:     -0.313D-06 0.677D-06-0.127D-05 0.306D-05-0.648D-04 0.418D-03
 Coeff:     -0.350D-03-0.282D-02 0.382D-03 0.234D-01-0.735D-01-0.613D-01
 Coeff:      0.111D+01
 Gap=     0.513 Goal=   None    Shift=    0.000
 RMSDP=2.01D-08 MaxDP=5.04D-07 DE=-2.06D-10 OVMax= 1.76D-06

 Cycle  14  Pass 1  IDiag  1:
 RMSU=  4.48D-09    CP:  1.49D-01  3.00D+00  9.76D-01  1.17D+00  1.15D+00
                    CP:  1.20D+00  1.37D+00  1.42D+00  1.67D+00  1.65D+00
                    CP:  1.50D+00  1.51D+00  1.37D+00
 FoFJK:  IHMeth= 1 ICntrl=     0 DoSepK=T KAlg= 1 I1Cent= 0 FoldK=F
 E= -2904.61266906619     Delta-E=       -0.000000000023 Rises=F Damp=F
 DIIS: error= 3.76D-08 at cycle  14 NSaved=  14.
 NSaved=14 IEnMin=14 EnMin= -2904.61266906619     IErMin=14 ErrMin= 3.76D-08
 ErrMax= 3.76D-08 EMaxC= 1.00D-01 BMatC= 3.24D-13 BMatP= 4.49D-12
 IDIUse=1 WtCom= 1.00D+00 WtEn= 0.00D+00
 Coeff-Com:  0.179D-06-0.301D-06 0.245D-06-0.286D-05 0.195D-04-0.111D-03
 Coeff-Com:  0.103D-03 0.784D-03-0.678D-03-0.697D-02 0.337D-01-0.275D-01
 Coeff-Com: -0.416D+00 0.142D+01
 Coeff:      0.179D-06-0.301D-06 0.245D-06-0.286D-05 0.195D-04-0.111D-03
 Coeff:      0.103D-03 0.784D-03-0.678D-03-0.697D-02 0.337D-01-0.275D-01
 Coeff:     -0.416D+00 0.142D+01
 Gap=     0.513 Goal=   None    Shift=    0.000
 RMSDP=6.36D-09 MaxDP=1.27D-07 DE=-2.27D-11 OVMax= 7.52D-07

 SCF Done:  E(RLC-B+HF-LYP) =  -2904.61266907     A.U. after   14 cycles
             Convg  =    0.6355D-08             -V/T =  2.0016
 KE= 2.899971832333D+03 PE=-7.239142613879D+03 EE= 1.283223246312D+03
 Leave Link  502 at Mon May 11 23:45:31 2020, MaxMem= 1073741824 cpu:     387.3
 (Enter /home/matheus/.gaussian/g09/l601.exe)
 Copying SCF densities to generalized density rwf, IOpCl= 0 IROHF=0.

 **********************************************************************

            Population analysis using the SCF density.

 **********************************************************************

 Orbital symmetries:
       Occupied  (A) (A) (A) (A) (A) (A) (A) (A) (A) (A) (A) (A)
                 (A) (A) (A) (A) (A) (A) (A) (A) (A) (A) (A) (A)
                 (A) (A) (A)
       Virtual   (A) (A) (A) (A) (A) (A) (A) (A) (A) (A) (A) (A)
                 (A) (A) (A) (A) (A) (A) (A) (A) (A) (A) (A) (A)
                 (A) (A) (A) (A) (A) (A) (A) (A) (A) (A) (A) (A)
                 (A) (A) (A) (A) (A) (A) (A) (A) (A) (A) (A) (A)
                 (A) (A) (A) (A) (A) (A) (A) (A) (A) (A) (A) (A)
                 (A) (A) (A) (A) (A) (A) (A) (A) (A) (A) (A) (A)
                 (A) (A) (A) (A) (A) (A) (A) (A) (A) (A) (A) (A)
                 (A) (A) (A) (A) (A) (A) (A) (A) (A) (A) (A) (A)
                 (A) (A) (A) (A) (A) (A) (A) (A) (A) (A) (A) (A)
                 (A) (A) (A) (A) (A) (A) (A) (A) (A) (A) (A) (A)
                 (A) (A) (A) (A) (A) (A) (A) (A) (A) (A) (A) (A)
                 (A) (A) (A) (A) (A) (A) (A) (A) (A) (A) (A) (A)
                 (A) (A) (A) (A) (A) (A) (A) (A) (A) (A) (A) (A)
                 (A) (A) (A) (A) (A) (A) (A) (A) (A) (A) (A) (A)
                 (A) (A)
 The electronic state is 1-A.
 Alpha  occ. eigenvalues -- -511.69266 -67.21749 -60.88951 -60.88944 -60.88932
 Alpha  occ. eigenvalues --  -19.48118 -19.47992 -10.11867  -7.83454  -7.83435
 Alpha  occ. eigenvalues --   -7.83403  -3.66419  -3.66417  -3.66390  -3.66375
 Alpha  occ. eigenvalues --   -3.66370  -1.46290  -1.21447  -1.21140  -0.79622
 Alpha  occ. eigenvalues --   -0.66497  -0.63302  -0.60567  -0.58977  -0.58453
 Alpha  occ. eigenvalues --   -0.57143  -0.48659
 Alpha virt. eigenvalues --    0.02659   0.03990   0.07540   0.08347   0.10369
 Alpha virt. eigenvalues --    0.12027   0.12742   0.14802   0.16754   0.17542
 Alpha virt. eigenvalues --    0.17836   0.19111   0.20888   0.23238   0.23901
 Alpha virt. eigenvalues --    0.24343   0.25007   0.27919   0.31610   0.33693
 Alpha virt. eigenvalues --    0.33858   0.35771   0.38097   0.38642   0.40086
 Alpha virt. eigenvalues --    0.43206   0.45753   0.49010   0.53981   0.55183
 Alpha virt. eigenvalues --    0.60684   0.62115   0.63186   0.66198   0.68420
 Alpha virt. eigenvalues --    0.70483   0.72415   0.75600   0.76841   0.78842
 Alpha virt. eigenvalues --    0.79222   0.79990   0.83595   0.84835   0.87548
 Alpha virt. eigenvalues --    0.88697   0.90094   0.90495   0.93491   0.95329
 Alpha virt. eigenvalues --    0.97076   0.97419   0.99300   1.01810   1.03746
 Alpha virt. eigenvalues --    1.06478   1.07666   1.09249   1.11482   1.14926
 Alpha virt. eigenvalues --    1.17130   1.22488   1.26589   1.27486   1.28594
 Alpha virt. eigenvalues --    1.36119   1.40171   1.43189   1.45547   1.48938
 Alpha virt. eigenvalues --    1.55444   1.56190   1.59353   1.61625   1.66266
 Alpha virt. eigenvalues --    1.67123   1.75401   1.93450   1.98346   2.03537
 Alpha virt. eigenvalues --    2.09661   2.17753   2.18985   2.23932   2.25976
 Alpha virt. eigenvalues --    2.26360   2.31928   2.32367   2.34222   2.41040
 Alpha virt. eigenvalues --    2.41948   2.42691   2.44419   2.44933   2.46199
 Alpha virt. eigenvalues --    2.51376   2.52140   2.54744   2.59603   2.61981
 Alpha virt. eigenvalues --    2.64007   2.64367   2.68569   2.70055   2.72445
 Alpha virt. eigenvalues --    2.73833   2.78481   2.79423   2.81222   2.85742
 Alpha virt. eigenvalues --    2.87349   2.90014   2.93763   3.02355   3.05259
 Alpha virt. eigenvalues --    3.06072   3.19821   3.24282   3.25854   3.74002
 Alpha virt. eigenvalues --    3.84262   4.08677   4.12959   4.16746   4.23065
 Alpha virt. eigenvalues --    4.30959   4.31272   4.33200   4.35406   4.40330
 Alpha virt. eigenvalues --    4.60505   4.66267   4.72159   4.84786   4.87399
 Alpha virt. eigenvalues --    5.16111   5.16747   5.24604   5.26465   5.28574
 Alpha virt. eigenvalues --    5.31947   5.70301   6.05462   6.25639   6.29609
 Alpha virt. eigenvalues --    6.35887   6.59777   6.62540   6.70507   6.81331
 Alpha virt. eigenvalues --    6.92791   6.99641   7.04953   7.08785   7.10779
 Alpha virt. eigenvalues --    7.11905   7.15535   7.16815   7.17262   7.33108
 Alpha virt. eigenvalues --    7.41296   7.42471   7.50298   7.63772   7.81262
 Alpha virt. eigenvalues --    8.23655   8.26035   8.41924  14.10441  14.91378
          Condensed to atoms (all electrons):
              1          2          3          4          5
     1  O    8.262195  -0.220811   0.170267   0.027809  -0.020673
     2  O   -0.220811   8.243623   0.035214   0.186710  -0.012860
     3  H    0.170267   0.035214   0.595757  -0.015933  -0.008064
     4  H    0.027809   0.186710  -0.015933   0.592890  -0.019056
     5  Kr  -0.020673  -0.012860  -0.008064  -0.019056  36.060331
 Mulliken atomic charges:
              1
     1  O   -0.218787
     2  O   -0.231875
     3  H    0.222759
     4  H    0.227580
     5  Kr   0.000323
 Sum of Mulliken atomic charges =   0.00000
 Mulliken charges with hydrogens summed into heavy atoms:
              1
     1  O    0.003973
     2  O   -0.004295
     5  Kr   0.000323
 Sum of Mulliken charges with hydrogens summed into heavy atoms =   0.00000
          Condensed to fragments (all electrons):
     1      -0.000323
     2       0.000323
 Electronic spatial extent (au):  <R**2>=            476.2714
 Charge=              0.0000 electrons
 Dipole moment (field-independent basis, Debye):
    X=              3.6275    Y=             -0.0956    Z=              0.7310  Tot=              3.7017
 Quadrupole moment (field-independent basis, Debye-Ang):
   XX=            -38.9637   YY=            -27.7789   ZZ=            -29.7639
   XY=              0.3176   XZ=             -0.9180   YZ=             -0.9504
 Traceless Quadrupole moment (field-independent basis, Debye-Ang):
   XX=             -6.7949   YY=              4.3899   ZZ=              2.4049
   XY=              0.3176   XZ=             -0.9180   YZ=             -0.9504
 Octapole moment (field-independent basis, Debye-Ang**2):
  XXX=             45.4339  YYY=             -0.2396  ZZZ=              0.1625  XYY=              7.5893
  XXY=             -0.7532  XXZ=              0.3901  XZZ=              7.8741  YZZ=             -0.4756
  YYZ=              1.1154  XYZ=              1.1691
 Hexadecapole moment (field-independent basis, Debye-Ang**3):
 XXXX=           -456.8546 YYYY=            -61.6566 ZZZZ=            -28.1215 XXXY=              0.8859
 XXXZ=              0.3994 YYYX=              0.5952 YYYZ=             -1.3252 ZZZX=             -0.5165
 ZZZY=             -0.6254 XXYY=            -85.4184 XXZZ=            -74.4765 YYZZ=            -16.3951
 XXYZ=             -1.4542 YYXZ=             -1.4060 ZZXY=              0.6296
 N-N= 1.513348661682D+02 E-N=-7.239142610872D+03  KE= 2.899971832333D+03
 No NMR shielding tensors so no spin-rotation constants.
 Leave Link  601 at Mon May 11 23:45:31 2020, MaxMem= 1073741824 cpu:       0.8
 (Enter /home/matheus/.gaussian/g09/l122.exe)
 Counterpoise: doing DCBS calculation for fragment   1 NewBq=T
 Leave Link  122 at Mon May 11 23:45:31 2020, MaxMem= 1073741824 cpu:       0.0
 (Enter /home/matheus/.gaussian/g09/l301.exe)
 Basis read from rwf:  (5D, 7F)
 No pseudopotential information found on rwf file.
 There are   197 symmetry adapted basis functions of A   symmetry.
 Integral buffers will be    131072 words long.
 Raffenetti 2 integral format.
 Two-electron integral symmetry is turned on.
   197 basis functions,   415 primitive gaussians,   229 cartesian basis functions
     9 alpha electrons        9 beta electrons
       nuclear repulsion energy        36.6600463863 Hartrees.
 IExCor=10402 DFT=T Ex=LC-B+HF Corr=LYP ExCW=0 ScaHFX=  1.000000
 ScaDFX=  1.000000  1.000000  1.000000  1.000000 ScalE2=  1.000000  1.000000
 IRadAn=      5 IRanWt=     -1 IRanGd=            0 ICorTp=0
  HFx wShort=  0.000000 wLong=  1.350000 cFull=  0.000000 cShort=  0.000000 cLong=  1.000000
  DFx wShort=  0.000000 wLong=  1.350000 cFull=  0.000000 cShort=  0.000000 cLong=  1.000000
 NAtoms=    5 NActive=    5 NUniq=    5 SFac= 1.00D+00 NAtFMM=   60 NAOKFM=F Big=F
 No density basis found on file   718.
 Leave Link  301 at Mon May 11 23:45:31 2020, MaxMem= 1073741824 cpu:       0.2
 (Enter /home/matheus/.gaussian/g09/l302.exe)
 NPDir=0 NMtPBC=     1 NCelOv=     1 NCel=       1 NClECP=     1 NCelD=      1
         NCelK=      1 NCelE2=     1 NClLst=     1 CellRange=     0.0.
 One-electron integrals computed using PRISM.
 NBasis=   197 RedAO= T  NBF=   197
 NBsUse=   197 1.00D-06 NBFU=   197
 Precomputing XC quadrature grid using
 IXCGrd= 2 IRadAn=           5 IRanWt=          -1 IRanGd=           0 AccXCQ= 0.00D+00.
 NRdTot=     427 NPtTot=      123512 NUsed=      126579 NTot=      126611
 NSgBfM=   229   229   229   229   229 NAtAll=     5     5.
 Leave Link  302 at Mon May 11 23:45:31 2020, MaxMem= 1073741824 cpu:       1.0
 (Enter /home/matheus/.gaussian/g09/l303.exe)
 DipDrv:  MaxL=1.
 Leave Link  303 at Mon May 11 23:45:31 2020, MaxMem= 1073741824 cpu:       0.3
 (Enter /home/matheus/.gaussian/g09/l401.exe)
 Harris functional with IExCor=10402 diagonalized for initial guess.
 ExpMin= 2.53D-02 ExpMax= 1.17D+07 ExpMxC= 1.33D+04 IAcc=3 IRadAn=         5 AccDes= 0.00D+00
 HarFok:  IExCor=10402 AccDes= 0.00D+00 IRadAn=         5 IDoV= 1
 ScaDFX=  1.000000  1.000000  1.000000  1.000000
 FoFCou: FMM=F IPFlag=           0 FMFlag=      100000 FMFlg1=           0
         NFxFlg=           0 DoJE=T BraDBF=F KetDBF=T FulRan=T
         Omega=  0.000000  0.000000  1.000000  0.000000  0.000000 ICntrl=     500 IOpCl=  0
         NMat0=    1 NMatS0=    1 NMatT0=    0 NMatD0=    1 NMtDS0=    0 NMtDT0=    0
         I1Cent=           4 NGrid=           0.
 Petite list used in FoFCou.
 Harris En= -143.220713508713    
 Initial guess orbital symmetries:
       Occupied  (A) (A) (A) (A) (A) (A) (A) (A) (A)
       Virtual   (A) (A) (A) (A) (A) (A) (A) (A) (A) (A) (A) (A)
                 (A) (A) (A) (A) (A) (A) (A) (A) (A) (A) (A) (A)
                 (A) (A) (A) (A) (A) (A) (A) (A) (A) (A) (A) (A)
                 (A) (A) (A) (A) (A) (A) (A) (A) (A) (A) (A) (A)
                 (A) (A) (A) (A) (A) (A) (A) (A) (A) (A) (A) (A)
                 (A) (A) (A) (A) (A) (A) (A) (A) (A) (A) (A) (A)
                 (A) (A) (A) (A) (A) (A) (A) (A) (A) (A) (A) (A)
                 (A) (A) (A) (A) (A) (A) (A) (A) (A) (A) (A) (A)
                 (A) (A) (A) (A) (A) (A) (A) (A) (A) (A) (A) (A)
                 (A) (A) (A) (A) (A) (A) (A) (A) (A) (A) (A) (A)
                 (A) (A) (A) (A) (A) (A) (A) (A) (A) (A) (A) (A)
                 (A) (A) (A) (A) (A) (A) (A) (A) (A) (A) (A) (A)
                 (A) (A) (A) (A) (A) (A) (A) (A) (A) (A) (A) (A)
                 (A) (A) (A) (A) (A) (A) (A) (A) (A) (A) (A) (A)
                 (A) (A) (A) (A) (A) (A) (A) (A) (A) (A) (A) (A)
                 (A) (A) (A) (A) (A) (A) (A) (A)
 The electronic state of the initial guess is 1-A.
 Leave Link  401 at Mon May 11 23:45:32 2020, MaxMem= 1073741824 cpu:       4.1
 (Enter /home/matheus/.gaussian/g09/l502.exe)
 Closed shell SCF:
 Requested convergence on RMS density matrix=1.00D-08 within 128 cycles.
 Requested convergence on MAX density matrix=1.00D-06.
 Requested convergence on             energy=1.00D-06.
 No special actions if energy rises.
 Using DIIS extrapolation, IDIIS=  1040.
 Integral symmetry usage will be decided dynamically.
       126521 words used for storage of precomputed grid.
 IEnd=      305468 IEndB=      305468 NGot=  1073741824 MDV=  1073505667
 LenX=  1073505667 LenY=  1073452785
 Fock matrices will be formed incrementally for  20 cycles.

 Cycle   1  Pass 1  IDiag  1:
 FoFJK:  IHMeth= 1 ICntrl=     0 DoSepK=T KAlg= 1 I1Cent= 0 FoldK=F
 FoFCou: FMM=F IPFlag=           0 FMFlag=      100000 FMFlg1=           0
         NFxFlg=           0 DoJE=T BraDBF=F KetDBF=F FulRan=T
         Omega=  0.000000  0.000000  1.000000  0.000000  0.000000 ICntrl=     500 IOpCl=  0
         NMat0=    1 NMatS0=    1 NMatT0=    0 NMatD0=    1 NMtDS0=    0 NMtDT0=    0
         I1Cent=           0 NGrid=           0.
 Symmetry not used in FoFCou.
 E= -148.047145786686    
 DIIS: error= 1.08D-01 at cycle   1 NSaved=   1.
 NSaved= 1 IEnMin= 1 EnMin= -148.047145786686     IErMin= 1 ErrMin= 1.08D-01
 ErrMax= 1.08D-01 EMaxC= 1.00D-01 BMatC= 2.27D+00 BMatP= 2.27D+00
 IDIUse=3 WtCom= 0.00D+00 WtEn= 1.00D+00
 Coeff-Com:  0.100D+01
 Coeff-En:   0.100D+01
 Coeff:      0.100D+01
 Gap=     1.297 Goal=   None    Shift=    0.000
 GapD=    1.297 DampG=2.000 DampE=0.250 DampFc=0.5000 IDamp=-1.
 Damping current iteration by 5.00D-01
 RMSDP=3.17D-02 MaxDP=1.35D+00              OVMax= 1.00D+00

 Cycle   2  Pass 1  IDiag  1:
 RMSU=  3.46D-03    CP:  5.36D-01
 FoFJK:  IHMeth= 1 ICntrl=     0 DoSepK=T KAlg= 1 I1Cent= 0 FoldK=F
 E= -149.898950360179     Delta-E=       -1.851804573493 Rises=F Damp=T
 DIIS: error= 2.26D-02 at cycle   2 NSaved=   2.
 NSaved= 2 IEnMin= 2 EnMin= -149.898950360179     IErMin= 2 ErrMin= 2.26D-02
 ErrMax= 2.26D-02 EMaxC= 1.00D-01 BMatC= 1.48D-01 BMatP= 2.27D+00
 IDIUse=3 WtCom= 7.74D-01 WtEn= 2.26D-01
 Coeff-Com: -0.438D-01 0.104D+01
 Coeff-En:   0.000D+00 0.100D+01
 Coeff:     -0.340D-01 0.103D+01
 Gap=     0.497 Goal=   None    Shift=    0.000
 RMSDP=1.58D-02 MaxDP=6.77D-01 DE=-1.85D+00 OVMax= 1.67D-01

 Cycle   3  Pass 1  IDiag  1:
 RMSU=  1.97D-03    CP:  7.49D-02  1.87D+00
 FoFJK:  IHMeth= 1 ICntrl=     0 DoSepK=T KAlg= 1 I1Cent= 0 FoldK=F
 E= -151.116609603818     Delta-E=       -1.217659243639 Rises=F Damp=F
 DIIS: error= 1.84D-02 at cycle   3 NSaved=   3.
 NSaved= 3 IEnMin= 3 EnMin= -151.116609603818     IErMin= 3 ErrMin= 1.84D-02
 ErrMax= 1.84D-02 EMaxC= 1.00D-01 BMatC= 1.12D-01 BMatP= 1.48D-01
 IDIUse=3 WtCom= 8.16D-01 WtEn= 1.84D-01
 Coeff-Com:  0.245D+00-0.439D+00 0.119D+01
 Coeff-En:   0.000D+00 0.000D+00 0.100D+01
 Coeff:      0.200D+00-0.358D+00 0.116D+01
 Gap=     0.653 Goal=   None    Shift=    0.000
 RMSDP=1.40D-03 MaxDP=4.60D-02 DE=-1.22D+00 OVMax= 8.02D-02

 Cycle   4  Pass 1  IDiag  1:
 RMSU=  7.00D-04    CP:  7.50D-02  1.80D+00  1.33D+00
 FoFJK:  IHMeth= 1 ICntrl=     0 DoSepK=T KAlg= 1 I1Cent= 0 FoldK=F
 E= -151.203375881805     Delta-E=       -0.086766277987 Rises=F Damp=F
 DIIS: error= 3.92D-03 at cycle   4 NSaved=   4.
 NSaved= 4 IEnMin= 4 EnMin= -151.203375881805     IErMin= 4 ErrMin= 3.92D-03
 ErrMax= 3.92D-03 EMaxC= 1.00D-01 BMatC= 5.38D-03 BMatP= 1.12D-01
 IDIUse=3 WtCom= 9.61D-01 WtEn= 3.92D-02
 Coeff-Com: -0.355D-01 0.114D+00 0.281D-01 0.894D+00
 Coeff-En:   0.000D+00 0.000D+00 0.000D+00 0.100D+01
 Coeff:     -0.341D-01 0.109D+00 0.270D-01 0.898D+00
 Gap=     0.506 Goal=   None    Shift=    0.000
 RMSDP=2.06D-04 MaxDP=9.32D-03 DE=-8.68D-02 OVMax= 1.51D-02

 Cycle   5  Pass 1  IDiag  1:
 RMSU=  8.66D-05    CP:  7.48D-02  1.81D+00  1.28D+00  9.89D-01
 FoFJK:  IHMeth= 1 ICntrl=     0 DoSepK=T KAlg= 1 I1Cent= 0 FoldK=F
 E= -151.206352975482     Delta-E=       -0.002977093677 Rises=F Damp=F
 DIIS: error= 1.13D-03 at cycle   5 NSaved=   5.
 NSaved= 5 IEnMin= 5 EnMin= -151.206352975482     IErMin= 5 ErrMin= 1.13D-03
 ErrMax= 1.13D-03 EMaxC= 1.00D-01 BMatC= 3.77D-04 BMatP= 5.38D-03
 IDIUse=3 WtCom= 9.89D-01 WtEn= 1.13D-02
 Coeff-Com:  0.620D-02-0.206D-01-0.812D-01-0.190D+00 0.129D+01
 Coeff-En:   0.000D+00 0.000D+00 0.000D+00 0.000D+00 0.100D+01
 Coeff:      0.613D-02-0.204D-01-0.803D-01-0.187D+00 0.128D+01
 Gap=     0.506 Goal=   None    Shift=    0.000
 RMSDP=1.38D-04 MaxDP=2.99D-03 DE=-2.98D-03 OVMax= 7.18D-03

 Cycle   6  Pass 1  IDiag  1:
 RMSU=  2.97D-05    CP:  7.48D-02  1.81D+00  1.30D+00  1.10D+00  1.36D+00
 FoFJK:  IHMeth= 1 ICntrl=     0 DoSepK=T KAlg= 1 I1Cent= 0 FoldK=F
 E= -151.206731046236     Delta-E=       -0.000378070754 Rises=F Damp=F
 DIIS: error= 2.06D-04 at cycle   6 NSaved=   6.
 NSaved= 6 IEnMin= 6 EnMin= -151.206731046236     IErMin= 6 ErrMin= 2.06D-04
 ErrMax= 2.06D-04 EMaxC= 1.00D-01 BMatC= 1.36D-05 BMatP= 3.77D-04
 IDIUse=3 WtCom= 9.98D-01 WtEn= 2.06D-03
 Coeff-Com:  0.199D-02-0.670D-02 0.387D-02-0.479D-01 0.853D-01 0.963D+00
 Coeff-En:   0.000D+00 0.000D+00 0.000D+00 0.000D+00 0.000D+00 0.100D+01
 Coeff:      0.199D-02-0.669D-02 0.386D-02-0.478D-01 0.851D-01 0.964D+00
 Gap=     0.507 Goal=   None    Shift=    0.000
 RMSDP=1.16D-05 MaxDP=4.21D-04 DE=-3.78D-04 OVMax= 9.32D-04

 Cycle   7  Pass 1  IDiag  1:
 RMSU=  4.56D-06    CP:  7.48D-02  1.81D+00  1.30D+00  1.09D+00  1.40D+00
                    CP:  1.13D+00
 FoFJK:  IHMeth= 1 ICntrl=     0 DoSepK=T KAlg= 1 I1Cent= 0 FoldK=F
 E= -151.206743428739     Delta-E=       -0.000012382503 Rises=F Damp=F
 DIIS: error= 6.82D-05 at cycle   7 NSaved=   7.
 NSaved= 7 IEnMin= 7 EnMin= -151.206743428739     IErMin= 7 ErrMin= 6.82D-05
 ErrMax= 6.82D-05 EMaxC= 1.00D-01 BMatC= 1.60D-06 BMatP= 1.36D-05
 IDIUse=1 WtCom= 1.00D+00 WtEn= 0.00D+00
 Coeff-Com:  0.396D-03-0.128D-02 0.878D-02-0.423D-02-0.604D-01 0.234D+00
 Coeff-Com:  0.823D+00
 Coeff:      0.396D-03-0.128D-02 0.878D-02-0.423D-02-0.604D-01 0.234D+00
 Coeff:      0.823D+00
 Gap=     0.507 Goal=   None    Shift=    0.000
 RMSDP=4.60D-06 MaxDP=1.46D-04 DE=-1.24D-05 OVMax= 4.01D-04

 Cycle   8  Pass 1  IDiag  1:
 RMSU=  2.07D-06    CP:  7.48D-02  1.81D+00  1.30D+00  1.09D+00  1.41D+00
                    CP:  1.17D+00  1.15D+00
 FoFJK:  IHMeth= 1 ICntrl=     0 DoSepK=T KAlg= 1 I1Cent= 0 FoldK=F
 E= -151.206745011053     Delta-E=       -0.000001582314 Rises=F Damp=F
 DIIS: error= 2.49D-05 at cycle   8 NSaved=   8.
 NSaved= 8 IEnMin= 8 EnMin= -151.206745011053     IErMin= 8 ErrMin= 2.49D-05
 ErrMax= 2.49D-05 EMaxC= 1.00D-01 BMatC= 1.59D-07 BMatP= 1.60D-06
 IDIUse=1 WtCom= 1.00D+00 WtEn= 0.00D+00
 Coeff-Com: -0.149D-03 0.618D-03 0.697D-03 0.549D-02-0.193D-01-0.181D+00
 Coeff-Com:  0.194D+00 0.999D+00
 Coeff:     -0.149D-03 0.618D-03 0.697D-03 0.549D-02-0.193D-01-0.181D+00
 Coeff:      0.194D+00 0.999D+00
 Gap=     0.507 Goal=   None    Shift=    0.000
 RMSDP=2.23D-06 MaxDP=5.75D-05 DE=-1.58D-06 OVMax= 2.52D-04

 Cycle   9  Pass 1  IDiag  1:
 RMSU=  8.15D-07    CP:  7.48D-02  1.81D+00  1.30D+00  1.09D+00  1.41D+00
                    CP:  1.18D+00  1.38D+00  1.21D+00
 FoFJK:  IHMeth= 1 ICntrl=     0 DoSepK=T KAlg= 1 I1Cent= 0 FoldK=F
 E= -151.206745264811     Delta-E=       -0.000000253758 Rises=F Damp=F
 DIIS: error= 9.18D-06 at cycle   9 NSaved=   9.
 NSaved= 9 IEnMin= 9 EnMin= -151.206745264811     IErMin= 9 ErrMin= 9.18D-06
 ErrMax= 9.18D-06 EMaxC= 1.00D-01 BMatC= 1.80D-08 BMatP= 1.59D-07
 IDIUse=1 WtCom= 1.00D+00 WtEn= 0.00D+00
 Coeff-Com: -0.335D-04 0.138D-03-0.131D-02-0.160D-03 0.810D-02-0.262D-02
 Coeff-Com: -0.848D-01-0.937D-01 0.117D+01
 Coeff:     -0.335D-04 0.138D-03-0.131D-02-0.160D-03 0.810D-02-0.262D-02
 Coeff:     -0.848D-01-0.937D-01 0.117D+01
 Gap=     0.507 Goal=   None    Shift=    0.000
 RMSDP=7.95D-07 MaxDP=2.11D-05 DE=-2.54D-07 OVMax= 9.39D-05

 Cycle  10  Pass 1  IDiag  1:
 RMSU=  2.36D-07    CP:  7.48D-02  1.81D+00  1.30D+00  1.09D+00  1.41D+00
                    CP:  1.18D+00  1.41D+00  1.32D+00  1.40D+00
 FoFJK:  IHMeth= 1 ICntrl=     0 DoSepK=T KAlg= 1 I1Cent= 0 FoldK=F
 E= -151.206745295311     Delta-E=       -0.000000030500 Rises=F Damp=F
 DIIS: error= 2.92D-06 at cycle  10 NSaved=  10.
 NSaved=10 IEnMin=10 EnMin= -151.206745295311     IErMin=10 ErrMin= 2.92D-06
 ErrMax= 2.92D-06 EMaxC= 1.00D-01 BMatC= 1.24D-09 BMatP= 1.80D-08
 IDIUse=1 WtCom= 1.00D+00 WtEn= 0.00D+00
 Coeff-Com:  0.157D-05-0.242D-04 0.337D-03 0.156D-03-0.242D-02 0.102D-01
 Coeff-Com:  0.163D-01-0.321D-01-0.434D+00 0.144D+01
 Coeff:      0.157D-05-0.242D-04 0.337D-03 0.156D-03-0.242D-02 0.102D-01
 Coeff:      0.163D-01-0.321D-01-0.434D+00 0.144D+01
 Gap=     0.507 Goal=   None    Shift=    0.000
 RMSDP=3.20D-07 MaxDP=8.01D-06 DE=-3.05D-08 OVMax= 3.62D-05

 Cycle  11  Pass 1  IDiag  1:
 RMSU=  6.48D-08    CP:  7.48D-02  1.81D+00  1.30D+00  1.09D+00  1.41D+00
                    CP:  1.18D+00  1.42D+00  1.34D+00  1.54D+00  1.53D+00
 FoFJK:  IHMeth= 1 ICntrl=     0 DoSepK=T KAlg= 1 I1Cent= 0 FoldK=F
 E= -151.206745298515     Delta-E=       -0.000000003204 Rises=F Damp=F
 DIIS: error= 5.54D-07 at cycle  11 NSaved=  11.
 NSaved=11 IEnMin=11 EnMin= -151.206745298515     IErMin=11 ErrMin= 5.54D-07
 ErrMax= 5.54D-07 EMaxC= 1.00D-01 BMatC= 8.33D-11 BMatP= 1.24D-09
 IDIUse=1 WtCom= 1.00D+00 WtEn= 0.00D+00
 Coeff-Com: -0.204D-06-0.835D-06-0.229D-04-0.789D-04 0.454D-03-0.210D-02
 Coeff-Com: -0.176D-02 0.112D-01 0.812D-01-0.459D+00 0.137D+01
 Coeff:     -0.204D-06-0.835D-06-0.229D-04-0.789D-04 0.454D-03-0.210D-02
 Coeff:     -0.176D-02 0.112D-01 0.812D-01-0.459D+00 0.137D+01
 Gap=     0.507 Goal=   None    Shift=    0.000
 RMSDP=6.81D-08 MaxDP=1.76D-06 DE=-3.20D-09 OVMax= 7.53D-06

 Cycle  12  Pass 1  IDiag  1:
 RMSU=  2.10D-08    CP:  7.48D-02  1.81D+00  1.30D+00  1.09D+00  1.41D+00
                    CP:  1.18D+00  1.42D+00  1.34D+00  1.54D+00  1.61D+00
                    CP:  1.47D+00
 FoFJK:  IHMeth= 1 ICntrl=     0 DoSepK=T KAlg= 1 I1Cent= 0 FoldK=F
 E= -151.206745298637     Delta-E=       -0.000000000122 Rises=F Damp=F
 DIIS: error= 2.14D-07 at cycle  12 NSaved=  12.
 NSaved=12 IEnMin=12 EnMin= -151.206745298637     IErMin=12 ErrMin= 2.14D-07
 ErrMax= 2.14D-07 EMaxC= 1.00D-01 BMatC= 3.44D-12 BMatP= 8.33D-11
 IDIUse=1 WtCom= 1.00D+00 WtEn= 0.00D+00
 Coeff-Com: -0.428D-06 0.232D-05-0.627D-05 0.331D-04-0.933D-04 0.548D-03
 Coeff-Com: -0.496D-03-0.401D-02-0.700D-02 0.117D+00-0.601D+00 0.150D+01
 Coeff:     -0.428D-06 0.232D-05-0.627D-05 0.331D-04-0.933D-04 0.548D-03
 Coeff:     -0.496D-03-0.401D-02-0.700D-02 0.117D+00-0.601D+00 0.150D+01
 Gap=     0.507 Goal=   None    Shift=    0.000
 RMSDP=2.59D-08 MaxDP=5.68D-07 DE=-1.22D-10 OVMax= 3.29D-06

 Cycle  13  Pass 1  IDiag  1:
 RMSU=  6.42D-09    CP:  7.48D-02  1.81D+00  1.30D+00  1.09D+00  1.41D+00
                    CP:  1.18D+00  1.42D+00  1.34D+00  1.54D+00  1.61D+00
                    CP:  1.58D+00  1.60D+00
 FoFJK:  IHMeth= 1 ICntrl=     0 DoSepK=T KAlg= 1 I1Cent= 0 FoldK=F
 E= -151.206745298644     Delta-E=       -0.000000000007 Rises=F Damp=F
 DIIS: error= 9.42D-08 at cycle  13 NSaved=  13.
 NSaved=13 IEnMin=13 EnMin= -151.206745298644     IErMin=13 ErrMin= 9.42D-08
 ErrMax= 9.42D-08 EMaxC= 1.00D-01 BMatC= 8.74D-13 BMatP= 3.44D-12
 IDIUse=1 WtCom= 1.00D+00 WtEn= 0.00D+00
 Coeff-Com:  0.486D-06-0.151D-05 0.582D-05-0.798D-05-0.265D-04 0.165D-03
 Coeff-Com:  0.394D-03 0.880D-04-0.625D-02-0.579D-03 0.121D+00-0.783D+00
 Coeff-Com:  0.167D+01
 Coeff:      0.486D-06-0.151D-05 0.582D-05-0.798D-05-0.265D-04 0.165D-03
 Coeff:      0.394D-03 0.880D-04-0.625D-02-0.579D-03 0.121D+00-0.783D+00
 Coeff:      0.167D+01
 Gap=     0.507 Goal=   None    Shift=    0.000
 RMSDP=1.33D-08 MaxDP=3.19D-07 DE=-7.25D-12 OVMax= 1.96D-06

 Cycle  14  Pass 1  IDiag  1:
 RMSU=  1.88D-09    CP:  7.48D-02  1.81D+00  1.30D+00  1.09D+00  1.41D+00
                    CP:  1.18D+00  1.42D+00  1.34D+00  1.54D+00  1.62D+00
                    CP:  1.62D+00  1.82D+00  2.02D+00
 FoFJK:  IHMeth= 1 ICntrl=     0 DoSepK=T KAlg= 1 I1Cent= 0 FoldK=F
 E= -151.206745298653     Delta-E=       -0.000000000009 Rises=F Damp=F
 DIIS: error= 2.23D-08 at cycle  14 NSaved=  14.
 NSaved=14 IEnMin=14 EnMin= -151.206745298653     IErMin=14 ErrMin= 2.23D-08
 ErrMax= 2.23D-08 EMaxC= 1.00D-01 BMatC= 1.03D-13 BMatP= 8.74D-13
 IDIUse=1 WtCom= 1.00D+00 WtEn= 0.00D+00
 Coeff-Com:  0.121D-07-0.439D-07-0.316D-06-0.425D-05 0.264D-04-0.156D-03
 Coeff-Com: -0.277D-04 0.723D-03 0.251D-02-0.178D-01 0.693D-01-0.103D+00
 Coeff-Com: -0.234D+00 0.128D+01
 Coeff:      0.121D-07-0.439D-07-0.316D-06-0.425D-05 0.264D-04-0.156D-03
 Coeff:     -0.277D-04 0.723D-03 0.251D-02-0.178D-01 0.693D-01-0.103D+00
 Coeff:     -0.234D+00 0.128D+01
 Gap=     0.507 Goal=   None    Shift=    0.000
 RMSDP=3.73D-09 MaxDP=9.06D-08 DE=-9.12D-12 OVMax= 5.73D-07

 SCF Done:  E(RLC-B+HF-LYP) =  -151.206745299     A.U. after   14 cycles
             Convg  =    0.3733D-08             -V/T =  2.0061
 KE= 1.502867377475D+02 PE=-4.316011605005D+02 EE= 9.344763106802D+01
 Leave Link  502 at Mon May 11 23:46:19 2020, MaxMem= 1073741824 cpu:     374.6
 (Enter /home/matheus/.gaussian/g09/l601.exe)
 Copying SCF densities to generalized density rwf, IOpCl= 0 IROHF=0.

 **********************************************************************

            Population analysis using the SCF density.

 **********************************************************************

 Orbital symmetries:
       Occupied  (A) (A) (A) (A) (A) (A) (A) (A) (A)
       Virtual   (A) (A) (A) (A) (A) (A) (A) (A) (A) (A) (A) (A)
                 (A) (A) (A) (A) (A) (A) (A) (A) (A) (A) (A) (A)
                 (A) (A) (A) (A) (A) (A) (A) (A) (A) (A) (A) (A)
                 (A) (A) (A) (A) (A) (A) (A) (A) (A) (A) (A) (A)
                 (A) (A) (A) (A) (A) (A) (A) (A) (A) (A) (A) (A)
                 (A) (A) (A) (A) (A) (A) (A) (A) (A) (A) (A) (A)
                 (A) (A) (A) (A) (A) (A) (A) (A) (A) (A) (A) (A)
                 (A) (A) (A) (A) (A) (A) (A) (A) (A) (A) (A) (A)
                 (A) (A) (A) (A) (A) (A) (A) (A) (A) (A) (A) (A)
                 (A) (A) (A) (A) (A) (A) (A) (A) (A) (A) (A) (A)
                 (A) (A) (A) (A) (A) (A) (A) (A) (A) (A) (A) (A)
                 (A) (A) (A) (A) (A) (A) (A) (A) (A) (A) (A) (A)
                 (A) (A) (A) (A) (A) (A) (A) (A) (A) (A) (A) (A)
                 (A) (A) (A) (A) (A) (A) (A) (A) (A) (A) (A) (A)
                 (A) (A) (A) (A) (A) (A) (A) (A) (A) (A) (A) (A)
                 (A) (A) (A) (A) (A) (A) (A) (A)
 The electronic state is 1-A.
 Alpha  occ. eigenvalues --  -19.48802 -19.48773  -1.46799  -1.21704  -0.79630
 Alpha  occ. eigenvalues --   -0.66815  -0.63349  -0.58914  -0.49280
 Alpha virt. eigenvalues --    0.01422   0.03563   0.06833   0.07419   0.09016
 Alpha virt. eigenvalues --    0.09980   0.12218   0.15200   0.16568   0.17373
 Alpha virt. eigenvalues --    0.18087   0.19907   0.21122   0.23689   0.25475
 Alpha virt. eigenvalues --    0.26524   0.28018   0.28397   0.31682   0.34080
 Alpha virt. eigenvalues --    0.35096   0.35417   0.37794   0.40619   0.42112
 Alpha virt. eigenvalues --    0.43636   0.45494   0.46409   0.49006   0.52060
 Alpha virt. eigenvalues --    0.54373   0.57643   0.60234   0.64071   0.68716
 Alpha virt. eigenvalues --    0.71357   0.73408   0.78308   0.78551   0.81999
 Alpha virt. eigenvalues --    0.84305   0.85527   0.88809   0.89030   0.92136
 Alpha virt. eigenvalues --    0.93826   0.96674   0.97452   0.99537   1.00936
 Alpha virt. eigenvalues --    1.02994   1.05230   1.08741   1.09664   1.11479
 Alpha virt. eigenvalues --    1.11999   1.16687   1.21604   1.24137   1.26040
 Alpha virt. eigenvalues --    1.27860   1.29404   1.30797   1.32091   1.33915
 Alpha virt. eigenvalues --    1.34808   1.37003   1.39412   1.45522   1.48468
 Alpha virt. eigenvalues --    1.50276   1.52779   1.56119   1.59446   1.62410
 Alpha virt. eigenvalues --    1.65392   1.67817   1.71105   1.78376   1.79472
 Alpha virt. eigenvalues --    1.86147   1.94560   2.00654   2.06555   2.12120
 Alpha virt. eigenvalues --    2.18441   2.23374   2.26580   2.31956   2.33209
 Alpha virt. eigenvalues --    2.37588   2.43203   2.43960   2.45256   2.50293
 Alpha virt. eigenvalues --    2.58807   2.63262   2.67908   2.73957   2.75889
 Alpha virt. eigenvalues --    2.79126   2.81961   2.99091   3.03368   3.03877
 Alpha virt. eigenvalues --    3.15831   3.22260   3.22991   3.25031   3.32031
 Alpha virt. eigenvalues --    3.43991   3.60218   3.68650   3.75985   3.78111
 Alpha virt. eigenvalues --    3.78464   3.79955   3.81608   3.81907   3.89057
 Alpha virt. eigenvalues --    3.91153   3.94723   3.95385   3.97343   4.07015
 Alpha virt. eigenvalues --    4.10058   4.13923   4.15539   4.21452   4.26363
 Alpha virt. eigenvalues --    4.32233   4.34844   4.36890   4.40862   4.42373
 Alpha virt. eigenvalues --    4.67577   4.67759   4.72214   4.85921   5.16015
 Alpha virt. eigenvalues --    5.16471   5.24474   5.26389   5.28638   5.31774
 Alpha virt. eigenvalues --    5.69960   6.05010   6.24959   6.29003   6.35099
 Alpha virt. eigenvalues --    6.59290   6.62014   6.70082   6.80808   6.92268
 Alpha virt. eigenvalues --    6.98913   7.04219   7.08271   7.10058   7.11378
 Alpha virt. eigenvalues --    7.14974   7.16175   7.16747   7.32635   7.40717
 Alpha virt. eigenvalues --    7.41982   7.49567   7.63153   7.80729   8.23042
 Alpha virt. eigenvalues --    8.25343   8.41081  11.06341  14.09165  14.80732
 Alpha virt. eigenvalues --   14.88195  14.90916  15.11101  29.00815  29.01524
 Alpha virt. eigenvalues --   29.05509  29.18531  29.21046  49.21224 148.29007
 Alpha virt. eigenvalues --  148.43882 148.70579 752.92076
          Condensed to atoms (all electrons):
              1          2          3          4          5
     1  O    8.241444  -0.219795   0.170523   0.026275   0.005049
     2  O   -0.219795   8.227884   0.033535   0.182273   0.000296
     3  H    0.170523   0.033535   0.585131  -0.011774  -0.002289
     4  H    0.026275   0.182273  -0.011774   0.584138  -0.004595
     5  Kr   0.005049   0.000296  -0.002289  -0.004595   0.002408
 Mulliken atomic charges:
              1
     1  O   -0.223496
     2  O   -0.224193
     3  H    0.224875
     4  H    0.223683
     5  Kr  -0.000869
 Sum of Mulliken atomic charges =   0.00000
 Mulliken charges with hydrogens summed into heavy atoms:
              1
     1  O    0.001379
     2  O   -0.000510
     5  Kr  -0.000869
 Sum of Mulliken charges with hydrogens summed into heavy atoms =   0.00000
          Condensed to fragments (all electrons):
     1       0.000869
     2      -0.000869
 Electronic spatial extent (au):  <R**2>=            316.9468
 Charge=              0.0000 electrons
 Dipole moment (field-independent basis, Debye):
    X=              3.1540    Y=             -0.0440    Z=              0.8626  Tot=              3.2701
 Quadrupole moment (field-independent basis, Debye-Ang):
   XX=            -21.7238   YY=            -10.2522   ZZ=            -12.3563
   XY=              0.3468   XZ=             -0.8200   YZ=             -0.9755
 Traceless Quadrupole moment (field-independent basis, Debye-Ang):
   XX=             -6.9464   YY=              4.5252   ZZ=              2.4212
   XY=              0.3468   XZ=             -0.8200   YZ=             -0.9755
 Octapole moment (field-independent basis, Debye-Ang**2):
  XXX=             93.8595  YYY=             -0.2545  ZZZ=              0.1947  XYY=             24.1740
  XXY=             -0.6912  XXZ=              0.4485  XZZ=             24.5447  YZZ=             -0.4864
  YYZ=              1.1355  XYZ=              1.1662
 Hexadecapole moment (field-independent basis, Debye-Ang**3):
 XXXX=           -340.2977 YYYY=            -43.8232 ZZZZ=            -10.5403 XXXY=              0.8251
 XXXZ=              0.5337 YYYX=              0.6077 YYYZ=             -1.3608 ZZZX=             -0.5206
 ZZZY=             -0.6542 XXYY=            -63.0419 XXZZ=            -52.3458 YYZZ=            -10.4845
 XXYZ=             -1.4465 YYXZ=             -1.3941 ZZXY=              0.6199
 N-N= 3.666004638632D+01 E-N=-4.316011624472D+02  KE= 1.502867377475D+02
 No NMR shielding tensors so no spin-rotation constants.
 Leave Link  601 at Mon May 11 23:46:19 2020, MaxMem= 1073741824 cpu:       0.7
 (Enter /home/matheus/.gaussian/g09/l122.exe)
 Counterpoise: doing DCBS calculation for fragment   2 NewBq=T
 Leave Link  122 at Mon May 11 23:46:19 2020, MaxMem= 1073741824 cpu:       0.0
 (Enter /home/matheus/.gaussian/g09/l301.exe)
 Basis read from rwf:  (5D, 7F)
 No pseudopotential information found on rwf file.
 There are   197 symmetry adapted basis functions of A   symmetry.
 Integral buffers will be    131072 words long.
 Raffenetti 2 integral format.
 Two-electron integral symmetry is turned on.
   197 basis functions,   415 primitive gaussians,   229 cartesian basis functions
    18 alpha electrons       18 beta electrons
       nuclear repulsion energy         0.0000000000 Hartrees.
 IExCor=10402 DFT=T Ex=LC-B+HF Corr=LYP ExCW=0 ScaHFX=  1.000000
 ScaDFX=  1.000000  1.000000  1.000000  1.000000 ScalE2=  1.000000  1.000000
 IRadAn=      5 IRanWt=     -1 IRanGd=            0 ICorTp=0
  HFx wShort=  0.000000 wLong=  1.350000 cFull=  0.000000 cShort=  0.000000 cLong=  1.000000
  DFx wShort=  0.000000 wLong=  1.350000 cFull=  0.000000 cShort=  0.000000 cLong=  1.000000
 NAtoms=    5 NActive=    5 NUniq=    5 SFac= 1.00D+00 NAtFMM=   60 NAOKFM=F Big=F
 No density basis found on file   718.
 Leave Link  301 at Mon May 11 23:46:19 2020, MaxMem= 1073741824 cpu:       0.2
 (Enter /home/matheus/.gaussian/g09/l302.exe)
 NPDir=0 NMtPBC=     1 NCelOv=     1 NCel=       1 NClECP=     1 NCelD=      1
         NCelK=      1 NCelE2=     1 NClLst=     1 CellRange=     0.0.
 One-electron integrals computed using PRISM.
 NBasis=   197 RedAO= T  NBF=   197
 NBsUse=   197 1.00D-06 NBFU=   197
 Precomputing XC quadrature grid using
 IXCGrd= 2 IRadAn=           5 IRanWt=          -1 IRanGd=           0 AccXCQ= 0.00D+00.
 NRdTot=     427 NPtTot=      123512 NUsed=      126579 NTot=      126611
 NSgBfM=   229   229   229   229   229 NAtAll=     5     5.
 Leave Link  302 at Mon May 11 23:46:19 2020, MaxMem= 1073741824 cpu:       1.0
 (Enter /home/matheus/.gaussian/g09/l303.exe)
 DipDrv:  MaxL=1.
 Leave Link  303 at Mon May 11 23:46:19 2020, MaxMem= 1073741824 cpu:       0.2
 (Enter /home/matheus/.gaussian/g09/l401.exe)
 Harris functional with IExCor=10402 diagonalized for initial guess.
 ExpMin= 2.53D-02 ExpMax= 1.17D+07 ExpMxC= 1.33D+04 IAcc=3 IRadAn=         5 AccDes= 0.00D+00
 HarFok:  IExCor=10402 AccDes= 0.00D+00 IRadAn=         5 IDoV= 1
 ScaDFX=  1.000000  1.000000  1.000000  1.000000
 FoFCou: FMM=F IPFlag=           0 FMFlag=      100000 FMFlg1=           0
         NFxFlg=           0 DoJE=T BraDBF=F KetDBF=T FulRan=T
         Omega=  0.000000  0.000000  1.000000  0.000000  0.000000 ICntrl=     500 IOpCl=  0
         NMat0=    1 NMatS0=    1 NMatT0=    0 NMatD0=    1 NMtDS0=    0 NMtDT0=    0
         I1Cent=           4 NGrid=           0.
 Petite list used in FoFCou.
 Harris En= -2731.73470900056    
 Initial guess orbital symmetries:
       Occupied  (A) (A) (A) (A) (A) (A) (A) (A) (A) (A) (A) (A)
                 (A) (A) (A) (A) (A) (A)
       Virtual   (A) (A) (A) (A) (A) (A) (A) (A) (A) (A) (A) (A)
                 (A) (A) (A) (A) (A) (A) (A) (A) (A) (A) (A) (A)
                 (A) (A) (A) (A) (A) (A) (A) (A) (A) (A) (A) (A)
                 (A) (A) (A) (A) (A) (A) (A) (A) (A) (A) (A) (A)
                 (A) (A) (A) (A) (A) (A) (A) (A) (A) (A) (A) (A)
                 (A) (A) (A) (A) (A) (A) (A) (A) (A) (A) (A) (A)
                 (A) (A) (A) (A) (A) (A) (A) (A) (A) (A) (A) (A)
                 (A) (A) (A) (A) (A) (A) (A) (A) (A) (A) (A) (A)
                 (A) (A) (A) (A) (A) (A) (A) (A) (A) (A) (A) (A)
                 (A) (A) (A) (A) (A) (A) (A) (A) (A) (A) (A) (A)
                 (A) (A) (A) (A) (A) (A) (A) (A) (A) (A) (A) (A)
                 (A) (A) (A) (A) (A) (A) (A) (A) (A) (A) (A) (A)
                 (A) (A) (A) (A) (A) (A) (A) (A) (A) (A) (A) (A)
                 (A) (A) (A) (A) (A) (A) (A) (A) (A) (A) (A) (A)
                 (A) (A) (A) (A) (A) (A) (A) (A) (A) (A) (A)
 The electronic state of the initial guess is 1-A.
 Leave Link  401 at Mon May 11 23:46:20 2020, MaxMem= 1073741824 cpu:       4.1
 (Enter /home/matheus/.gaussian/g09/l502.exe)
 Closed shell SCF:
 Requested convergence on RMS density matrix=1.00D-08 within 128 cycles.
 Requested convergence on MAX density matrix=1.00D-06.
 Requested convergence on             energy=1.00D-06.
 No special actions if energy rises.
 Using DIIS extrapolation, IDIIS=  1040.
 Integral symmetry usage will be decided dynamically.
       126521 words used for storage of precomputed grid.
 IEnd=      305468 IEndB=      305468 NGot=  1073741824 MDV=  1073505667
 LenX=  1073505667 LenY=  1073452785
 Fock matrices will be formed incrementally for  20 cycles.

 Cycle   1  Pass 1  IDiag  1:
 FoFJK:  IHMeth= 1 ICntrl=     0 DoSepK=T KAlg= 1 I1Cent= 0 FoldK=F
 FoFCou: FMM=F IPFlag=           0 FMFlag=      100000 FMFlg1=           0
         NFxFlg=           0 DoJE=T BraDBF=F KetDBF=F FulRan=T
         Omega=  0.000000  0.000000  1.000000  0.000000  0.000000 ICntrl=     500 IOpCl=  0
         NMat0=    1 NMatS0=    1 NMatT0=    0 NMatD0=    1 NMtDS0=    0 NMtDT0=    0
         I1Cent=           0 NGrid=           0.
 Symmetry not used in FoFCou.
 E= -2752.70958435014    
 DIIS: error= 4.14D-02 at cycle   1 NSaved=   1.
 NSaved= 1 IEnMin= 1 EnMin= -2752.70958435014     IErMin= 1 ErrMin= 4.14D-02
 ErrMax= 4.14D-02 EMaxC= 1.00D-01 BMatC= 1.18D+00 BMatP= 1.18D+00
 IDIUse=3 WtCom= 5.86D-01 WtEn= 4.14D-01
 Coeff-Com:  0.100D+01
 Coeff-En:   0.100D+01
 Coeff:      0.100D+01
 Gap=     0.765 Goal=   None    Shift=    0.000
 GapD=    0.765 DampG=2.000 DampE=0.500 DampFc=1.0000 IDamp=-1.
 RMSDP=4.99D-03 MaxDP=2.29D-01              OVMax= 3.37D-01

 Cycle   2  Pass 1  IDiag  1:
 RMSU=  3.45D-03    CP:  1.05D+00
 FoFJK:  IHMeth= 1 ICntrl=     0 DoSepK=T KAlg= 1 I1Cent= 0 FoldK=F
 E= -2753.27671438269     Delta-E=       -0.567130032548 Rises=F Damp=F
 DIIS: error= 2.80D-02 at cycle   2 NSaved=   2.
 NSaved= 2 IEnMin= 2 EnMin= -2753.27671438269     IErMin= 2 ErrMin= 2.80D-02
 ErrMax= 2.80D-02 EMaxC= 1.00D-01 BMatC= 3.66D-01 BMatP= 1.18D+00
 IDIUse=3 WtCom= 7.20D-01 WtEn= 2.80D-01
 Coeff-Com:  0.351D+00 0.649D+00
 Coeff-En:   0.000D+00 0.100D+01
 Coeff:      0.253D+00 0.747D+00
 Gap=     0.603 Goal=   None    Shift=    0.000
 RMSDP=2.24D-03 MaxDP=1.36D-01 DE=-5.67D-01 OVMax= 7.36D-02

 Cycle   3  Pass 1  IDiag  1:
 RMSU=  8.65D-04    CP:  1.03D+00  6.27D-01
 FoFJK:  IHMeth= 1 ICntrl=     0 DoSepK=T KAlg= 1 I1Cent= 0 FoldK=F
 E= -2753.40753944419     Delta-E=       -0.130825061501 Rises=F Damp=F
 DIIS: error= 3.76D-03 at cycle   3 NSaved=   3.
 NSaved= 3 IEnMin= 3 EnMin= -2753.40753944419     IErMin= 3 ErrMin= 3.76D-03
 ErrMax= 3.76D-03 EMaxC= 1.00D-01 BMatC= 6.46D-03 BMatP= 3.66D-01
 IDIUse=3 WtCom= 9.62D-01 WtEn= 3.76D-02
 Coeff-Com: -0.917D-02 0.923D-01 0.917D+00
 Coeff-En:   0.000D+00 0.000D+00 0.100D+01
 Coeff:     -0.882D-02 0.889D-01 0.920D+00
 Gap=     0.575 Goal=   None    Shift=    0.000
 RMSDP=3.58D-04 MaxDP=1.66D-02 DE=-1.31D-01 OVMax= 1.07D-02

 Cycle   4  Pass 1  IDiag  1:
 RMSU=  2.29D-04    CP:  1.03D+00  6.56D-01  9.73D-01
 FoFJK:  IHMeth= 1 ICntrl=     0 DoSepK=T KAlg= 1 I1Cent= 0 FoldK=F
 E= -2753.40949556375     Delta-E=       -0.001956119558 Rises=F Damp=F
 DIIS: error= 3.61D-04 at cycle   4 NSaved=   4.
 NSaved= 4 IEnMin= 4 EnMin= -2753.40949556375     IErMin= 4 ErrMin= 3.61D-04
 ErrMax= 3.61D-04 EMaxC= 1.00D-01 BMatC= 3.47D-05 BMatP= 6.46D-03
 IDIUse=3 WtCom= 9.96D-01 WtEn= 3.61D-03
 Coeff-Com: -0.673D-02-0.456D-02-0.660D-03 0.101D+01
 Coeff-En:   0.000D+00 0.000D+00 0.000D+00 0.100D+01
 Coeff:     -0.671D-02-0.454D-02-0.658D-03 0.101D+01
 Gap=     0.581 Goal=   None    Shift=    0.000
 RMSDP=4.97D-05 MaxDP=2.24D-03 DE=-1.96D-03 OVMax= 3.46D-03

 Cycle   5  Pass 1  IDiag  1:
 RMSU=  1.98D-05    CP:  1.03D+00  6.59D-01  9.96D-01  1.08D+00
 FoFJK:  IHMeth= 1 ICntrl=     0 DoSepK=T KAlg= 1 I1Cent= 0 FoldK=F
 E= -2753.40955558702     Delta-E=       -0.000060023272 Rises=F Damp=F
 DIIS: error= 5.77D-05 at cycle   5 NSaved=   5.
 NSaved= 5 IEnMin= 5 EnMin= -2753.40955558702     IErMin= 5 ErrMin= 5.77D-05
 ErrMax= 5.77D-05 EMaxC= 1.00D-01 BMatC= 5.03D-07 BMatP= 3.47D-05
 IDIUse=1 WtCom= 1.00D+00 WtEn= 0.00D+00
 Coeff-Com: -0.846D-04-0.143D-02 0.101D-02-0.167D+00 0.117D+01
 Coeff:     -0.846D-04-0.143D-02 0.101D-02-0.167D+00 0.117D+01
 Gap=     0.581 Goal=   None    Shift=    0.000
 RMSDP=1.05D-05 MaxDP=4.48D-04 DE=-6.00D-05 OVMax= 6.35D-04

 Cycle   6  Pass 1  IDiag  1:
 RMSU=  1.00D-06    CP:  1.03D+00  6.59D-01  1.00D+00  1.10D+00  1.20D+00
 FoFJK:  IHMeth= 1 ICntrl=     0 DoSepK=T KAlg= 1 I1Cent= 0 FoldK=F
 E= -2753.40955701324     Delta-E=       -0.000001426223 Rises=F Damp=F
 DIIS: error= 2.10D-06 at cycle   6 NSaved=   6.
 NSaved= 6 IEnMin= 6 EnMin= -2753.40955701324     IErMin= 6 ErrMin= 2.10D-06
 ErrMax= 2.10D-06 EMaxC= 1.00D-01 BMatC= 1.03D-09 BMatP= 5.03D-07
 IDIUse=1 WtCom= 1.00D+00 WtEn= 0.00D+00
 Coeff-Com:  0.241D-04 0.108D-03-0.358D-03 0.117D-01-0.112D+00 0.110D+01
 Coeff:      0.241D-04 0.108D-03-0.358D-03 0.117D-01-0.112D+00 0.110D+01
 Gap=     0.581 Goal=   None    Shift=    0.000
 RMSDP=5.24D-07 MaxDP=2.30D-05 DE=-1.43D-06 OVMax= 2.36D-05

 Cycle   7  Pass 1  IDiag  1:
 RMSU=  6.75D-08    CP:  1.03D+00  6.59D-01  1.00D+00  1.10D+00  1.21D+00
                    CP:  1.14D+00
 FoFJK:  IHMeth= 1 ICntrl=     0 DoSepK=T KAlg= 1 I1Cent= 0 FoldK=F
 E= -2753.40955701404     Delta-E=       -0.000000000800 Rises=F Damp=F
 DIIS: error= 1.64D-07 at cycle   7 NSaved=   7.
 NSaved= 7 IEnMin= 7 EnMin= -2753.40955701404     IErMin= 7 ErrMin= 1.64D-07
 ErrMax= 1.64D-07 EMaxC= 1.00D-01 BMatC= 1.37D-11 BMatP= 1.03D-09
 IDIUse=1 WtCom= 1.00D+00 WtEn= 0.00D+00
 Coeff-Com:  0.366D-05 0.934D-05-0.483D-04 0.123D-02-0.849D-02 0.312D-01
 Coeff-Com:  0.976D+00
 Coeff:      0.366D-05 0.934D-05-0.483D-04 0.123D-02-0.849D-02 0.312D-01
 Coeff:      0.976D+00
 Gap=     0.581 Goal=   None    Shift=    0.000
 RMSDP=2.36D-08 MaxDP=1.03D-06 DE=-8.00D-10 OVMax= 1.39D-06

 Cycle   8  Pass 1  IDiag  1:
 RMSU=  1.02D-08    CP:  1.03D+00  6.59D-01  1.00D+00  1.10D+00  1.21D+00
                    CP:  1.15D+00  1.10D+00
 FoFJK:  IHMeth= 1 ICntrl=     0 DoSepK=T KAlg= 1 I1Cent= 0 FoldK=F
 E= -2753.40955701410     Delta-E=       -0.000000000056 Rises=F Damp=F
 DIIS: error= 4.60D-08 at cycle   8 NSaved=   8.
 NSaved= 8 IEnMin= 8 EnMin= -2753.40955701410     IErMin= 8 ErrMin= 4.60D-08
 ErrMax= 4.60D-08 EMaxC= 1.00D-01 BMatC= 5.99D-13 BMatP= 1.37D-11
 IDIUse=1 WtCom= 1.00D+00 WtEn= 0.00D+00
 Coeff-Com:  0.464D-07-0.225D-05 0.304D-05-0.234D-03 0.263D-02-0.307D-01
 Coeff-Com:  0.886D-01 0.940D+00
 Coeff:      0.464D-07-0.225D-05 0.304D-05-0.234D-03 0.263D-02-0.307D-01
 Coeff:      0.886D-01 0.940D+00
 Gap=     0.581 Goal=   None    Shift=    0.000
 RMSDP=5.46D-09 MaxDP=1.83D-07 DE=-5.64D-11 OVMax= 4.34D-07

 SCF Done:  E(RLC-B+HF-LYP) =  -2753.40955701     A.U. after    8 cycles
             Convg  =    0.5457D-08             -V/T =  2.0014
 KE= 2.749621353276D+03 PE=-6.579407733025D+03 EE= 1.076376822735D+03
 Leave Link  502 at Mon May 11 23:46:48 2020, MaxMem= 1073741824 cpu:     223.4
 (Enter /home/matheus/.gaussian/g09/l601.exe)
 Copying SCF densities to generalized density rwf, IOpCl= 0 IROHF=0.

 **********************************************************************

            Population analysis using the SCF density.

 **********************************************************************

 Orbital symmetries:
       Occupied  (A) (A) (A) (A) (A) (A) (A) (A) (A) (A) (A) (A)
                 (A) (A) (A) (A) (A) (A)
       Virtual   (A) (A) (A) (A) (A) (A) (A) (A) (A) (A) (A) (A)
                 (A) (A) (A) (A) (A) (A) (A) (A) (A) (A) (A) (A)
                 (A) (A) (A) (A) (A) (A) (A) (A) (A) (A) (A) (A)
                 (A) (A) (A) (A) (A) (A) (A) (A) (A) (A) (A) (A)
                 (A) (A) (A) (A) (A) (A) (A) (A) (A) (A) (A) (A)
                 (A) (A) (A) (A) (A) (A) (A) (A) (A) (A) (A) (A)
                 (A) (A) (A) (A) (A) (A) (A) (A) (A) (A) (A) (A)
                 (A) (A) (A) (A) (A) (A) (A) (A) (A) (A) (A) (A)
                 (A) (A) (A) (A) (A) (A) (A) (A) (A) (A) (A) (A)
                 (A) (A) (A) (A) (A) (A) (A) (A) (A) (A) (A) (A)
                 (A) (A) (A) (A) (A) (A) (A) (A) (A) (A) (A) (A)
                 (A) (A) (A) (A) (A) (A) (A) (A) (A) (A) (A) (A)
                 (A) (A) (A) (A) (A) (A) (A) (A) (A) (A) (A) (A)
                 (A) (A) (A) (A) (A) (A) (A) (A) (A) (A) (A) (A)
                 (A) (A) (A) (A) (A) (A) (A) (A) (A) (A) (A)
 The electronic state is 1-A.
 Alpha  occ. eigenvalues -- -511.65537 -67.18004 -60.85203 -60.85200 -60.85198
 Alpha  occ. eigenvalues --  -10.08107  -7.79671  -7.79669  -7.79669  -3.62634
 Alpha  occ. eigenvalues --   -3.62633  -3.62633  -3.62632  -3.62632  -1.17382
 Alpha  occ. eigenvalues --   -0.55369  -0.55366  -0.55363
 Alpha virt. eigenvalues --    0.02705   0.04778   0.07894   0.08996   0.11526
 Alpha virt. eigenvalues --    0.12611   0.13167   0.13290   0.15569   0.16830
 Alpha virt. eigenvalues --    0.17380   0.18345   0.20683   0.25795   0.26880
 Alpha virt. eigenvalues --    0.27106   0.29383   0.31855   0.33418   0.36981
 Alpha virt. eigenvalues --    0.37305   0.38471   0.39067   0.40170   0.41619
 Alpha virt. eigenvalues --    0.41675   0.45647   0.54613   0.56510   0.60052
 Alpha virt. eigenvalues --    0.62790   0.64599   0.68732   0.70194   0.72731
 Alpha virt. eigenvalues --    0.73110   0.74930   0.77711   0.78468   0.79723
 Alpha virt. eigenvalues --    0.80894   0.84543   0.85835   0.86879   0.89034
 Alpha virt. eigenvalues --    0.89947   0.90801   0.91906   0.94113   0.98558
 Alpha virt. eigenvalues --    1.00046   1.01132   1.02174   1.03338   1.05218
 Alpha virt. eigenvalues --    1.08149   1.09184   1.10842   1.16735   1.18037
 Alpha virt. eigenvalues --    1.21527   1.23846   1.31491   1.35450   1.39236
 Alpha virt. eigenvalues --    1.40728   1.42787   1.48909   1.49153   1.53131
 Alpha virt. eigenvalues --    1.60994   1.61480   1.64013   1.74062   1.76651
 Alpha virt. eigenvalues --    1.83845   1.85433   1.88183   1.89438   2.23252
 Alpha virt. eigenvalues --    2.25457   2.29666   2.35080   2.35543   2.36808
 Alpha virt. eigenvalues --    2.40104   2.42647   2.46079   2.46865   2.47749
 Alpha virt. eigenvalues --    2.48778   2.50481   2.54578   2.57399   2.60250
 Alpha virt. eigenvalues --    2.62454   2.63661   2.63923   2.66584   2.67875
 Alpha virt. eigenvalues --    2.69154   2.69673   2.76481   2.76685   2.79054
 Alpha virt. eigenvalues --    2.79699   2.85212   2.90668   2.92573   2.98300
 Alpha virt. eigenvalues --    2.99004   3.01004   3.05713   3.11047   3.19776
 Alpha virt. eigenvalues --    3.24081   3.26650   3.30768   3.41282   3.48997
 Alpha virt. eigenvalues --    3.60493   3.64679   3.84698   3.87260   4.01627
 Alpha virt. eigenvalues --    4.45196   4.49055   4.52724   4.58486   4.70556
 Alpha virt. eigenvalues --    4.74248   4.86265   4.88362   4.98867   5.04177
 Alpha virt. eigenvalues --    5.17490   5.23016   5.58432   5.59767   5.73146
 Alpha virt. eigenvalues --    5.96722   6.01768   6.12999   6.74492   6.88560
 Alpha virt. eigenvalues --    7.32755   7.36087   7.63680   7.68429   7.76274
 Alpha virt. eigenvalues --    7.85112   8.00657   8.13640   8.18221   8.26059
 Alpha virt. eigenvalues --    8.26489   8.41027   8.67369   8.96485   9.51118
 Alpha virt. eigenvalues --    9.71926   9.80255   9.89589   9.92806   9.93918
 Alpha virt. eigenvalues --   10.18857  10.21587  10.64075  10.89294  11.51801
 Alpha virt. eigenvalues --   11.61920  11.70439  11.96621  12.01058  13.23972
 Alpha virt. eigenvalues --   13.61489  14.53383  62.42158  64.71488
          Condensed to atoms (all electrons):
              1          2          3          4          5
     1  O    0.001529  -0.000364  -0.001176   0.000547  -0.007960
     2  O   -0.000364   0.003593   0.000149  -0.002967  -0.003541
     3  H   -0.001176   0.000149   0.001863  -0.000225  -0.013061
     4  H    0.000547  -0.002967  -0.000225   0.003696  -0.019841
     5  Kr  -0.007960  -0.003541  -0.013061  -0.019841  36.086197
 Mulliken atomic charges:
              1
     1  O    0.007423
     2  O    0.003130
     3  H    0.012450
     4  H    0.018790
     5  Kr  -0.041794
 Sum of Mulliken atomic charges =   0.00000
 Mulliken charges with hydrogens summed into heavy atoms:
              1
     1  O    0.019873
     2  O    0.021921
     5  Kr  -0.041794
 Sum of Mulliken charges with hydrogens summed into heavy atoms =   0.00000
          Condensed to fragments (all electrons):
     1       0.041794
     2      -0.041794
 Electronic spatial extent (au):  <R**2>=            159.7275
 Charge=              0.0000 electrons
 Dipole moment (field-independent basis, Debye):
    X=             -0.0021    Y=              0.0002    Z=              0.0001  Tot=              0.0021
 Quadrupole moment (field-independent basis, Debye-Ang):
   XX=            -17.5623   YY=            -17.5718   ZZ=            -17.5818
   XY=             -0.0010   XZ=             -0.0026   YZ=             -0.0015
 Traceless Quadrupole moment (field-independent basis, Debye-Ang):
   XX=              0.0097   YY=              0.0002   ZZ=             -0.0098
   XY=             -0.0010   XZ=             -0.0026   YZ=             -0.0015
 Octapole moment (field-independent basis, Debye-Ang**2):
  XXX=            -51.0140  YYY=              0.0638  ZZZ=              0.1670  XYY=            -17.0189
  XXY=              0.0188  XXZ=              0.0516  XZZ=            -17.0253  YZZ=              0.0217
  YYZ=              0.0560  XYZ=             -0.0006
 Hexadecapole moment (field-independent basis, Debye-Ang**3):
 XXXX=           -116.8374 YYYY=            -18.0788 ZZZZ=            -18.1142 XXXY=              0.0570
 XXXZ=              0.1534 YYYX=              0.0584 YYYZ=             -0.0012 ZZZX=              0.1548
 ZZZY=             -0.0034 XXYY=            -22.4970 XXZZ=            -22.5079 YYZZ=             -6.0312
 XXYZ=             -0.0012 YYXZ=              0.0520 ZZXY=              0.0187
 N-N= 0.000000000000D+00 E-N=-6.579407723266D+03  KE= 2.749621353276D+03
 No NMR shielding tensors so no spin-rotation constants.
 Leave Link  601 at Mon May 11 23:46:48 2020, MaxMem= 1073741824 cpu:       0.8
 (Enter /home/matheus/.gaussian/g09/l122.exe)
 Counterpoise: doing MCBS calculation for fragment   1
 Leave Link  122 at Mon May 11 23:46:48 2020, MaxMem= 1073741824 cpu:       0.0
 (Enter /home/matheus/.gaussian/g09/l301.exe)
 Basis read from rwf:  (5D, 7F)
 No pseudopotential information found on rwf file.
 There are   138 symmetry adapted basis functions of A   symmetry.
 Integral buffers will be    131072 words long.
 Raffenetti 2 integral format.
 Two-electron integral symmetry is turned on.
   138 basis functions,   198 primitive gaussians,   160 cartesian basis functions
     9 alpha electrons        9 beta electrons
       nuclear repulsion energy        36.6600463863 Hartrees.
 IExCor=10402 DFT=T Ex=LC-B+HF Corr=LYP ExCW=0 ScaHFX=  1.000000
 ScaDFX=  1.000000  1.000000  1.000000  1.000000 ScalE2=  1.000000  1.000000
 IRadAn=      5 IRanWt=     -1 IRanGd=            0 ICorTp=0
  HFx wShort=  0.000000 wLong=  1.350000 cFull=  0.000000 cShort=  0.000000 cLong=  1.000000
  DFx wShort=  0.000000 wLong=  1.350000 cFull=  0.000000 cShort=  0.000000 cLong=  1.000000
 NAtoms=    5 NActive=    4 NUniq=    4 SFac= 1.00D+00 NAtFMM=   60 NAOKFM=F Big=F
 No density basis found on file   718.
 Leave Link  301 at Mon May 11 23:46:48 2020, MaxMem= 1073741824 cpu:       0.2
 (Enter /home/matheus/.gaussian/g09/l302.exe)
 NPDir=0 NMtPBC=     1 NCelOv=     1 NCel=       1 NClECP=     1 NCelD=      1
         NCelK=      1 NCelE2=     1 NClLst=     1 CellRange=     0.0.
 One-electron integrals computed using PRISM.
 NBasis=   138 RedAO= T  NBF=   138
 NBsUse=   138 1.00D-06 NBFU=   138
 Precomputing XC quadrature grid using
 IXCGrd= 2 IRadAn=           5 IRanWt=          -1 IRanGd=           0 AccXCQ= 0.00D+00.
 NRdTot=     344 NPtTot=       92556 NUsed=       95038 NTot=       95070
 NSgBfM=   160   160   160   160   160 NAtAll=     4     4.
 Leave Link  302 at Mon May 11 23:46:48 2020, MaxMem= 1073741824 cpu:       0.8
 (Enter /home/matheus/.gaussian/g09/l303.exe)
 DipDrv:  MaxL=1.
 Leave Link  303 at Mon May 11 23:46:48 2020, MaxMem= 1073741824 cpu:       0.1
[...]
 No special actions if energy rises.
 Using DIIS extrapolation, IDIIS=  1040.
 Integral symmetry usage will be decided dynamically.
       126823 words used for storage of precomputed grid.
 IEnd=      305770 IEndB=      305770 NGot=  1073741824 MDV=  1073505365
 LenX=  1073505365 LenY=  1073452483
 Fock matrices will be formed incrementally for  20 cycles.

 Cycle   1  Pass 1  IDiag  1:
 FoFJK:  IHMeth= 1 ICntrl=     0 DoSepK=T KAlg= 1 I1Cent= 0 FoldK=F
 FoFCou: FMM=F IPFlag=           0 FMFlag=      100000 FMFlg1=           0
         NFxFlg=           0 DoJE=T BraDBF=F KetDBF=F FulRan=T
         Omega=  0.000000  0.000000  1.000000  0.000000  0.000000 ICntrl=     500 IOpCl=  0
         NMat0=    1 NMatS0=    1 NMatT0=    0 NMatD0=    1 NMtDS0=    0 NMtDT0=    0
         I1Cent=           0 NGrid=           0.
 Symmetry not used in FoFCou.
 E= -2753.40937687926    
 DIIS: error= 2.21D-04 at cycle   1 NSaved=   1.
 NSaved= 1 IEnMin= 1 EnMin= -2753.40937687926     IErMin= 1 ErrMin= 2.21D-04
 ErrMax= 2.21D-04 EMaxC= 1.00D-01 BMatC= 5.98D-06 BMatP= 5.98D-06
 IDIUse=3 WtCom= 9.98D-01 WtEn= 2.21D-03
 Coeff-Com:  0.100D+01
 Coeff-En:   0.100D+01
 Coeff:      0.100D+01
 Gap=     0.581 Goal=   None    Shift=    0.000
 DSYEVD returned Info=         395 IAlg= 4 N=   197 NDim=   197 NE2=     5448996 trying DSYEV.
 RMSDP=1.43D-05 MaxDP=6.24D-04              OVMax= 3.86D-04

 Cycle   2  Pass 1  IDiag  1:
 RMSU=  1.01D-05    CP:  1.00D+00
 FoFJK:  IHMeth= 1 ICntrl=     0 DoSepK=T KAlg= 1 I1Cent= 0 FoldK=F
 E= -2753.40937773790     Delta-E=       -0.000000858648 Rises=F Damp=F
 DIIS: error= 6.44D-06 at cycle   2 NSaved=   2.
 NSaved= 2 IEnMin= 2 EnMin= -2753.40937773790     IErMin= 2 ErrMin= 6.44D-06
 ErrMax= 6.44D-06 EMaxC= 1.00D-01 BMatC= 6.11D-09 BMatP= 5.98D-06
 IDIUse=1 WtCom= 1.00D+00 WtEn= 0.00D+00
 Coeff-Com: -0.106D-01 0.101D+01
 Coeff:     -0.106D-01 0.101D+01
 Gap=     0.581 Goal=   None    Shift=    0.000
 RMSDP=1.31D-06 MaxDP=5.49D-05 DE=-8.59D-07 OVMax= 5.79D-05

 Cycle   3  Pass 1  IDiag  1:
 RMSU=  5.23D-07    CP:  1.00D+00  1.08D+00
 FoFJK:  IHMeth= 1 ICntrl=     0 DoSepK=T KAlg= 1 I1Cent= 0 FoldK=F
 E= -2753.40937774891     Delta-E=       -0.000000011003 Rises=F Damp=F
 DIIS: error= 1.02D-06 at cycle   3 NSaved=   3.
 NSaved= 3 IEnMin= 3 EnMin= -2753.40937774891     IErMin= 3 ErrMin= 1.02D-06
 ErrMax= 1.02D-06 EMaxC= 1.00D-01 BMatC= 1.52D-10 BMatP= 6.11D-09
 IDIUse=1 WtCom= 1.00D+00 WtEn= 0.00D+00
 Coeff-Com:  0.335D-03-0.120D+00 0.112D+01
 Coeff:      0.335D-03-0.120D+00 0.112D+01
 Gap=     0.581 Goal=   None    Shift=    0.000
 RMSDP=1.78D-07 MaxDP=6.13D-06 DE=-1.10D-08 OVMax= 1.13D-05

 Cycle   4  Pass 1  IDiag  1:
 RMSU=  5.51D-08    CP:  1.00D+00  1.08D+00  1.20D+00
 FoFJK:  IHMeth= 1 ICntrl=     0 DoSepK=T KAlg= 1 I1Cent= 0 FoldK=F
 E= -2753.40937774929     Delta-E=       -0.000000000383 Rises=F Damp=F
 DIIS: error= 2.56D-07 at cycle   4 NSaved=   4.
 NSaved= 4 IEnMin= 4 EnMin= -2753.40937774929     IErMin= 4 ErrMin= 2.56D-07
 ErrMax= 2.56D-07 EMaxC= 1.00D-01 BMatC= 1.21D-11 BMatP= 1.52D-10
 IDIUse=1 WtCom= 1.00D+00 WtEn= 0.00D+00
 Coeff-Com:  0.238D-03-0.422D-01 0.253D+00 0.789D+00
 Coeff:      0.238D-03-0.422D-01 0.253D+00 0.789D+00
 Gap=     0.581 Goal=   None    Shift=    0.000
 RMSDP=2.11D-08 MaxDP=7.31D-07 DE=-3.83D-10 OVMax= 9.98D-07

 Cycle   5  Pass 1  IDiag  1:
 RMSU=  9.22D-09    CP:  1.00D+00  1.08D+00  1.22D+00  1.10D+00
 FoFJK:  IHMeth= 1 ICntrl=     0 DoSepK=T KAlg= 1 I1Cent= 0 FoldK=F
 E= -2753.40937774932     Delta-E=       -0.000000000032 Rises=F Damp=F
 DIIS: error= 6.85D-08 at cycle   5 NSaved=   5.
 NSaved= 5 IEnMin= 5 EnMin= -2753.40937774932     IErMin= 5 ErrMin= 6.85D-08
 ErrMax= 6.85D-08 EMaxC= 1.00D-01 BMatC= 3.61D-13 BMatP= 1.21D-11
 IDIUse=1 WtCom= 1.00D+00 WtEn= 0.00D+00
 Coeff-Com: -0.231D-04 0.691D-02-0.622D-01-0.131D-01 0.107D+01
 Coeff:     -0.231D-04 0.691D-02-0.622D-01-0.131D-01 0.107D+01
 Gap=     0.581 Goal=   None    Shift=    0.000
 RMSDP=8.65D-09 MaxDP=3.61D-07 DE=-3.23D-11 OVMax= 4.29D-07

 SCF Done:  E(RLC-B+HF-LYP) =  -2753.40937775     A.U. after    5 cycles
             Convg  =    0.8650D-08             -V/T =  2.0014
 KE= 2.749687793496D+03 PE=-6.579480724423D+03 EE= 1.076383553179D+03
 Leave Link  502 at Tue May 12 00:10:56 2020, MaxMem= 1073741824 cpu:     107.3
 (Enter /home/matheus/.gaussian/g09/l122.exe)
 Restoring MOs from calculation   4 to rwf.
 Counterpoise: doing MCBS calculation for fragment   1
 Leave Link  122 at Tue May 12 00:10:56 2020, MaxMem= 1073741824 cpu:       0.0
 (Enter /home/matheus/.gaussian/g09/l301.exe)
 Basis read from rwf:  (5D, 7F)
 No pseudopotential information found on rwf file.
 There are   138 symmetry adapted basis functions of A   symmetry.
 Integral buffers will be    131072 words long.
 Raffenetti 2 integral format.
 Two-electron integral symmetry is turned on.
   138 basis functions,   198 primitive gaussians,   160 cartesian basis functions
     9 alpha electrons        9 beta electrons
       nuclear repulsion energy        36.6600463863 Hartrees.
 IExCor=10402 DFT=T Ex=LC-B+HF Corr=LYP ExCW=0 ScaHFX=  1.000000
 ScaDFX=  1.000000  1.000000  1.000000  1.000000 ScalE2=  1.000000  1.000000
 IRadAn=      5 IRanWt=     -1 IRanGd=            0 ICorTp=0
  HFx wShort=  0.000000 wLong=  1.350000 cFull=  0.000000 cShort=  0.000000 cLong=  1.000000
  DFx wShort=  0.000000 wLong=  1.350000 cFull=  0.000000 cShort=  0.000000 cLong=  1.000000
 NAtoms=    5 NActive=    4 NUniq=    4 SFac= 1.00D+00 NAtFMM=   60 NAOKFM=F Big=F
 No density basis found on file   718.
 Leave Link  301 at Tue May 12 00:10:56 2020, MaxMem= 1073741824 cpu:       0.2
 (Enter /home/matheus/.gaussian/g09/l302.exe)
 NPDir=0 NMtPBC=     1 NCelOv=     1 NCel=       1 NClECP=     1 NCelD=      1
         NCelK=      1 NCelE2=     1 NClLst=     1 CellRange=     0.0.
 One-electron integrals computed using PRISM.
 NBasis=   138 RedAO= T  NBF=   138
 NBsUse=   138 1.00D-06 NBFU=   138
 Precomputing XC quadrature grid using
 IXCGrd= 2 IRadAn=           5 IRanWt=          -1 IRanGd=           0 AccXCQ= 0.00D+00.
 NRdTot=     344 NPtTot=       92556 NUsed=       95038 NTot=       95070
 NSgBfM=   160   160   160   160   160 NAtAll=     4     4.
 Leave Link  302 at Tue May 12 00:10:56 2020, MaxMem= 1073741824 cpu:       0.8
 (Enter /home/matheus/.gaussian/g09/l303.exe)
 DipDrv:  MaxL=1.
 Leave Link  303 at Tue May 12 00:10:56 2020, MaxMem= 1073741824 cpu:       0.1
 (Enter /home/matheus/.gaussian/g09/l401.exe)
 Initial guess read from the read-write file.
 Guess basis will be translated and rotated to current coordinates.
 Initial guess orbital symmetries:
       Occupied  (A) (A) (A) (A) (A) (A) (A) (A) (A)
       Virtual   (A) (A) (A) (A) (A) (A) (A) (A) (A) (A) (A) (A)
                 (A) (A) (A) (A) (A) (A) (A) (A) (A) (A) (A) (A)
                 (A) (A) (A) (A) (A) (A) (A) (A) (A) (A) (A) (A)
                 (A) (A) (A) (A) (A) (A) (A) (A) (A) (A) (A) (A)
                 (A) (A) (A) (A) (A) (A) (A) (A) (A) (A) (A) (A)
                 (A) (A) (A) (A) (A) (A) (A) (A) (A) (A) (A) (A)
                 (A) (A) (A) (A) (A) (A) (A) (A) (A) (A) (A) (A)
                 (A) (A) (A) (A) (A) (A) (A) (A) (A) (A) (A) (A)
                 (A) (A) (A) (A) (A) (A) (A) (A) (A) (A) (A) (A)
                 (A) (A) (A) (A) (A) (A) (A) (A) (A) (A) (A) (A)
                 (A) (A) (A) (A) (A) (A) (A) (A) (A)
 The electronic state of the initial guess is 1-A.
 Generating alternative initial guess.
 Harris functional with IExCor=10402 diagonalized for initial guess.
 ExpMin= 2.53D-02 ExpMax= 1.53D+04 ExpMxC= 5.22D+02 IAcc=3 IRadAn=         5 AccDes= 0.00D+00
 HarFok:  IExCor=10402 AccDes= 0.00D+00 IRadAn=         5 IDoV= 1
 ScaDFX=  1.000000  1.000000  1.000000  1.000000
 FoFCou: FMM=F IPFlag=           0 FMFlag=      100000 FMFlg1=           0
         NFxFlg=           0 DoJE=T BraDBF=F KetDBF=T FulRan=T
         Omega=  0.000000  0.000000  1.000000  0.000000  0.000000 ICntrl=     500 IOpCl=  0
         NMat0=    1 NMatS0=    1 NMatT0=    0 NMatD0=    1 NMtDS0=    0 NMtDT0=    0
         I1Cent=           4 NGrid=           0.
 Petite list used in FoFCou.
 Harris En= -143.211814625049    
 Leave Link  401 at Tue May 12 00:10:57 2020, MaxMem= 1073741824 cpu:       2.7
 (Enter /home/matheus/.gaussian/g09/l502.exe)
 Closed shell SCF:
 Requested convergence on RMS density matrix=1.00D-08 within 128 cycles.
 Requested convergence on MAX density matrix=1.00D-06.
 Requested convergence on             energy=1.00D-06.
 No special actions if energy rises.
 Using DIIS extrapolation, IDIIS=  1040.
 Integral symmetry usage will be decided dynamically.
        94980 words used for storage of precomputed grid.
 IEnd=      192360 IEndB=      192360 NGot=  1073741824 MDV=  1073591865
 LenX=  1073591865 LenY=  1073565824
 Fock matrices will be formed incrementally for  20 cycles.

 Cycle   1  Pass 1  IDiag  1:
 FoFJK:  IHMeth= 1 ICntrl=     0 DoSepK=T KAlg= 1 I1Cent= 0 FoldK=F
 FoFCou: FMM=F IPFlag=           0 FMFlag=      100000 FMFlg1=           0
         NFxFlg=           0 DoJE=T BraDBF=F KetDBF=F FulRan=T
         Omega=  0.000000  0.000000  1.000000  0.000000  0.000000 ICntrl=     500 IOpCl=  0
         NMat0=    1 NMatS0=    1 NMatT0=    0 NMatD0=    1 NMtDS0=    0 NMtDT0=    0
         I1Cent=           0 NGrid=           0.
 Symmetry not used in FoFCou.
 E= -151.206659593418    
 DIIS: error= 2.66D-06 at cycle   1 NSaved=   1.
 NSaved= 1 IEnMin= 1 EnMin= -151.206659593418     IErMin= 1 ErrMin= 2.66D-06
 ErrMax= 2.66D-06 EMaxC= 1.00D-01 BMatC= 1.33D-09 BMatP= 1.33D-09
 IDIUse=1 WtCom= 1.00D+00 WtEn= 0.00D+00
 Coeff-Com:  0.100D+01
 Coeff:      0.100D+01
 Gap=     0.511 Goal=   None    Shift=    0.000
 RMSDP=2.67D-07 MaxDP=6.34D-06              OVMax= 8.72D-06

 Cycle   2  Pass 1  IDiag  1:
 RMSU=  1.89D-07    CP:  1.00D+00
 FoFJK:  IHMeth= 1 ICntrl=     0 DoSepK=T KAlg= 1 I1Cent= 0 FoldK=F
 E= -151.206659594682     Delta-E=       -0.000000001265 Rises=F Damp=F
 DIIS: error= 7.09D-07 at cycle   2 NSaved=   2.
 NSaved= 2 IEnMin= 2 EnMin= -151.206659594682     IErMin= 2 ErrMin= 7.09D-07
 ErrMax= 7.09D-07 EMaxC= 1.00D-01 BMatC= 7.08D-11 BMatP= 1.33D-09
 IDIUse=1 WtCom= 1.00D+00 WtEn= 0.00D+00
 Coeff-Com: -0.197D+00 0.120D+01
 Coeff:     -0.197D+00 0.120D+01
 Gap=     0.511 Goal=   None    Shift=    0.000
 RMSDP=7.48D-08 MaxDP=2.19D-06 DE=-1.26D-09 OVMax= 3.60D-06

 Cycle   3  Pass 1  IDiag  1:
 RMSU=  2.43D-08    CP:  1.00D+00  1.25D+00
 FoFJK:  IHMeth= 1 ICntrl=     0 DoSepK=T KAlg= 1 I1Cent= 0 FoldK=F
 E= -151.206659594805     Delta-E=       -0.000000000122 Rises=F Damp=F
 DIIS: error= 1.77D-07 at cycle   3 NSaved=   3.
 NSaved= 3 IEnMin= 3 EnMin= -151.206659594805     IErMin= 3 ErrMin= 1.77D-07
 ErrMax= 1.77D-07 EMaxC= 1.00D-01 BMatC= 4.51D-12 BMatP= 7.08D-11
 IDIUse=1 WtCom= 1.00D+00 WtEn= 0.00D+00
 Coeff-Com: -0.707D-03-0.128D+00 0.113D+01
 Coeff:     -0.707D-03-0.128D+00 0.113D+01
 Gap=     0.511 Goal=   None    Shift=    0.000
 RMSDP=1.88D-08 MaxDP=4.39D-07 DE=-1.22D-10 OVMax= 1.33D-06

 Cycle   4  Pass 1  IDiag  1:
 RMSU=  7.15D-09    CP:  1.00D+00  1.30D+00  1.26D+00
 FoFJK:  IHMeth= 1 ICntrl=     0 DoSepK=T KAlg= 1 I1Cent= 0 FoldK=F
 E= -151.206659594816     Delta-E=       -0.000000000011 Rises=F Damp=F
 DIIS: error= 9.64D-08 at cycle   4 NSaved=   4.
 NSaved= 4 IEnMin= 4 EnMin= -151.206659594816     IErMin= 4 ErrMin= 9.64D-08
 ErrMax= 9.64D-08 EMaxC= 1.00D-01 BMatC= 1.40D-12 BMatP= 4.51D-12
 IDIUse=1 WtCom= 1.00D+00 WtEn= 0.00D+00
 Coeff-Com:  0.183D-01-0.160D+00 0.361D+00 0.781D+00
 Coeff:      0.183D-01-0.160D+00 0.361D+00 0.781D+00
 Gap=     0.511 Goal=   None    Shift=    0.000
 RMSDP=7.57D-09 MaxDP=1.66D-07 DE=-1.12D-11 OVMax= 5.21D-07

 SCF Done:  E(RLC-B+HF-LYP) =  -151.206659595     A.U. after    4 cycles
             Convg  =    0.7571D-08             -V/T =  2.0061
 KE= 1.502867981430D+02 PE=-4.315997371655D+02 EE= 9.344623304136D+01
 Leave Link  502 at Tue May 12 00:11:01 2020, MaxMem= 1073741824 cpu:      34.3
 (Enter /home/matheus/.gaussian/g09/l122.exe)
 Restoring MOs from calculation   5 to rwf.
 Counterpoise: doing MCBS calculation for fragment   2
 Leave Link  122 at Tue May 12 00:11:01 2020, MaxMem= 1073741824 cpu:       0.0
 (Enter /home/matheus/.gaussian/g09/l301.exe)
 Basis read from rwf:  (5D, 7F)
 No pseudopotential information found on rwf file.
 There are    59 symmetry adapted basis functions of A   symmetry.
 Integral buffers will be    131072 words long.
 Raffenetti 2 integral format.
 Two-electron integral symmetry is turned on.
    59 basis functions,   217 primitive gaussians,    69 cartesian basis functions
    18 alpha electrons       18 beta electrons
       nuclear repulsion energy         0.0000000000 Hartrees.
 IExCor=10402 DFT=T Ex=LC-B+HF Corr=LYP ExCW=0 ScaHFX=  1.000000
 ScaDFX=  1.000000  1.000000  1.000000  1.000000 ScalE2=  1.000000  1.000000
 IRadAn=      5 IRanWt=     -1 IRanGd=            0 ICorTp=0
  HFx wShort=  0.000000 wLong=  1.350000 cFull=  0.000000 cShort=  0.000000 cLong=  1.000000
  DFx wShort=  0.000000 wLong=  1.350000 cFull=  0.000000 cShort=  0.000000 cLong=  1.000000
 NAtoms=    5 NActive=    1 NUniq=    1 SFac= 1.00D+00 NAtFMM=   60 NAOKFM=F Big=F
 No density basis found on file   718.
 Leave Link  301 at Tue May 12 00:11:01 2020, MaxMem= 1073741824 cpu:       0.2
 (Enter /home/matheus/.gaussian/g09/l302.exe)
 NPDir=0 NMtPBC=     1 NCelOv=     1 NCel=       1 NClECP=     1 NCelD=      1
         NCelK=      1 NCelE2=     1 NClLst=     1 CellRange=     0.0.
 One-electron integrals computed using PRISM.
 NBasis=    59 RedAO= T  NBF=    59
 NBsUse=    59 1.00D-06 NBFU=    59
 Precomputing XC quadrature grid using
 IXCGrd= 2 IRadAn=           5 IRanWt=          -1 IRanGd=           0 AccXCQ= 0.00D+00.
 NRdTot=      81 NPtTot=       30352 NUsed=       30981 NTot=       31013
 NSgBfM=    69    69    69    69    69 NAtAll=     1     1.
 Leave Link  302 at Tue May 12 00:11:01 2020, MaxMem= 1073741824 cpu:       0.7
 (Enter /home/matheus/.gaussian/g09/l303.exe)
 DipDrv:  MaxL=1.
 Leave Link  303 at Tue May 12 00:11:01 2020, MaxMem= 1073741824 cpu:       0.1
 (Enter /home/matheus/.gaussian/g09/l401.exe)
 Initial guess read from the read-write file.
 Guess basis will be translated and rotated to current coordinates.
 Initial guess orbital symmetries:
       Occupied  (A) (A) (A) (A) (A) (A) (A) (A) (A) (A) (A) (A)
                 (A) (A) (A) (A) (A) (A)
       Virtual   (A) (A) (A) (A) (A) (A) (A) (A) (A) (A) (A) (A)
                 (A) (A) (A) (A) (A) (A) (A) (A) (A) (A) (A) (A)
                 (A) (A) (A) (A) (A) (A) (A) (A) (A) (A) (A) (A)
                 (A) (A) (A) (A) (A)
 The electronic state of the initial guess is 1-A.
 Generating alternative initial guess.
 Harris functional with IExCor=10402 diagonalized for initial guess.
 ExpMin= 4.00D-02 ExpMax= 1.17D+07 ExpMxC= 1.33D+04 IAcc=3 IRadAn=         5 AccDes= 0.00D+00
 HarFok:  IExCor=10402 AccDes= 0.00D+00 IRadAn=         5 IDoV= 1
 ScaDFX=  1.000000  1.000000  1.000000  1.000000
 FoFCou: FMM=F IPFlag=           0 FMFlag=      100000 FMFlg1=           0
         NFxFlg=           0 DoJE=T BraDBF=F KetDBF=T FulRan=T
         Omega=  0.000000  0.000000  1.000000  0.000000  0.000000 ICntrl=     500 IOpCl=  0
         NMat0=    1 NMatS0=    1 NMatT0=    0 NMatD0=    1 NMtDS0=    0 NMtDT0=    0
         I1Cent=           4 NGrid=           0.
 Petite list used in FoFCou.
 DSYEVD returned Info=          89 IAlg= 4 N=    59 NDim=    59 NE2=    18198841 trying DSYEV.
 Harris En= -2731.73388500824    
 Leave Link  401 at Tue May 12 00:11:01 2020, MaxMem= 1073741824 cpu:       1.1
 (Enter /home/matheus/.gaussian/g09/l502.exe)
 Closed shell SCF:
 Requested convergence on RMS density matrix=1.00D-08 within 128 cycles.
 Requested convergence on MAX density matrix=1.00D-06.
 Requested convergence on             energy=1.00D-06.
 No special actions if energy rises.
 Using DIIS extrapolation, IDIIS=  1040.
 Integral symmetry usage will be decided dynamically.
        30923 words used for storage of precomputed grid.
 IEnd=       64406 IEndB=       64406 NGot=  1073741824 MDV=  1073698889
 LenX=  1073698889 LenY=  1073693687
 Fock matrices will be formed incrementally for  20 cycles.

 Cycle   1  Pass 1  IDiag  1:
 FoFJK:  IHMeth= 1 ICntrl=     0 DoSepK=T KAlg= 1 I1Cent= 0 FoldK=F
 FoFCou: FMM=F IPFlag=           0 FMFlag=      100000 FMFlg1=           0
         NFxFlg=           0 DoJE=T BraDBF=F KetDBF=F FulRan=T
         Omega=  0.000000  0.000000  1.000000  0.000000  0.000000 ICntrl=     500 IOpCl=  0
         NMat0=    1 NMatS0=    1 NMatT0=    0 NMatD0=    1 NMtDS0=    0 NMtDT0=    0
         I1Cent=           0 NGrid=           0.
 Symmetry not used in FoFCou.
 E= -2753.40934852740    
 DIIS: error= 9.72D-14 at cycle   1 NSaved=   1.
 NSaved= 1 IEnMin= 1 EnMin= -2753.40934852740     IErMin= 1 ErrMin= 9.72D-14
 ErrMax= 9.72D-14 EMaxC= 1.00D-01 BMatC= 3.65D-25 BMatP= 3.65D-25
 IDIUse=1 WtCom= 1.00D+00 WtEn= 0.00D+00
 Coeff-Com:  0.100D+01
 Coeff:      0.100D+01
 Gap=     0.640 Goal=   None    Shift=    0.000
 DSYEVD returned Info=          89 IAlg= 4 N=    59 NDim=    59 NE2=    18198197 trying DSYEV.
 RMSDP=5.27D-15 MaxDP=8.98D-14              OVMax= 5.25D-14

 SCF Done:  E(RLC-B+HF-LYP) =  -2753.40934853     A.U. after    1 cycles
             Convg  =    0.5272D-14             -V/T =  2.0014
 KE= 2.749695852517D+03 PE=-6.579489077514D+03 EE= 1.076383876470D+03
 Leave Link  502 at Tue May 12 00:11:03 2020, MaxMem= 1073741824 cpu:      12.6
 (Enter /home/matheus/.gaussian/g09/l122.exe)
 Restoring MOs from calculation   1 to rwf.
 Counterpoise: corrected energy =   -2904.616162406702
 Counterpoise: BSSE energy =       0.000032747364
 Leave Link  122 at Tue May 12 00:11:03 2020, MaxMem= 1073741824 cpu:       0.0
 (Enter /home/matheus/.gaussian/g09/l108.exe)
 Scan completed.

 Summary of the potential surface scan:
   N      R1          SCF    
 ----  ---------  -----------
    1     3.0000  -2753.40935
    2     3.1000  -2753.40935
    3     3.2000  -2753.40935
    4     3.3000  -2753.40935
    5     3.4000  -2753.40935
    6     3.5000  -2753.40935
    7     3.6000  -2753.40935
    8     3.7000  -2753.40935
    9     3.8000  -2753.40935
   10     3.9000  -2753.40935
   11     4.0000  -2753.40935
   12     4.1000  -2753.40935
   13     4.2000  -2753.40935
   14     4.3000  -2753.40935
   15     4.4000  -2753.40935
   16     4.5000  -2753.40935
   17     4.6000  -2753.40935
   18     4.7000  -2753.40935
   19     4.8000  -2753.40935
   20     4.9000  -2753.40935
   21     5.0000  -2753.40935
 ----  ---------  -----------
  
 Leave Link  108 at Tue May 12 00:11:03 2020, MaxMem= 1073741824 cpu:       0.0
 (Enter /home/matheus/.gaussian/g09/l9999.exe)

 Test job not archived.
 1\1\GINC-REDGIANT\Scan\RLC-BLYP\Aug-CC-pVTZ\H2Kr1O2\MATHEUS\12-May-202
 0\1\\#p lc-blyp/aug-cc-PVTz iop(3/107=1350000000) iop(3/108=1350000000
 ) int=ultrafine counterpoise=2 Scan\\TCC\\0,1\O,0,0.,0.,0.725\O,0,0.,0
 .,-0.725\H,0,-0.4593602974,0.795635374,1.0235104166\H,0,0.,0.918720594
 7,-1.0235104166\Kr,0,0.,R1,0.\\R1=3.,s,20,0.1\\Version=EM64L-G09RevC.0
 1\State=1-A\HF=-2753.4093485,-2753.4093485,-2753.4093485,-2753.4093485
 ,-2753.4093485,-2753.4093485,-2753.4093485,-2753.4093485,-2753.4093485
 ,-2753.4093485,-2753.4093485,-2753.4093485,-2753.4093485,-2753.4093485
 ,-2753.4093485,-2753.4093485,-2753.4093485,-2753.4093485,-2753.4093485
 ,-2753.4093485,-2753.4093485\RMSD=5.461e-09,3.089e-10,7.451e-11,2.036e
 -11,7.193e-12,3.144e-12,1.449e-12,6.847e-13,3.274e-13,1.553e-13,7.213e
 -14,3.393e-14,2.130e-14,1.457e-14,5.835e-15,5.549e-15,3.574e-15,5.080e
 -15,5.273e-15,6.473e-15,5.272e-15\PG=C01 [X(H2Kr1O2)]\\@


 WHEN ALL ELSE FAILS, LOOK AT THE SCHRODINGER EQUATION.
     -- RUSSELL T. PACK, APRIL 1978
 Job cpu time:  0 days  3 hours 29 minutes  5.1 seconds.
 File lengths (MBytes):  RWF=     33 Int=      0 D2E=      0 Chk=      8 Scr=      1
 Normal termination of Gaussian 09 at Tue May 12 00:11:03 2020.
