 Entering Gaussian System, Link 0=g09
 Input=/home/matheus/.tcc/Inputs/Inputs-lc-blyp/H2O2-Kr_18.com
 Output=/home/matheus/.tcc/Logs/Logs-lc-blyp/H2O2-Kr_18.log
 Initial command:
 /home/matheus/.gaussian/g09/l1.exe /home/matheus/.gaussian/g09/scratch/Gau-22996.inp -scrdir=/home/matheus/.gaussian/g09/scratch/
 Entering Link 1 = /home/matheus/.gaussian/g09/l1.exe PID=     22999.
  
 Copyright (c) 1988,1990,1992,1993,1995,1998,2003,2009,2011,
            Gaussian, Inc.  All Rights Reserved.
  
 This is part of the Gaussian(R) 09 program.  It is based on
 the Gaussian(R) 03 system (copyright 2003, Gaussian, Inc.),
 the Gaussian(R) 98 system (copyright 1998, Gaussian, Inc.),
 the Gaussian(R) 94 system (copyright 1995, Gaussian, Inc.),
 the Gaussian 92(TM) system (copyright 1992, Gaussian, Inc.),
 the Gaussian 90(TM) system (copyright 1990, Gaussian, Inc.),
 the Gaussian 88(TM) system (copyright 1988, Gaussian, Inc.),
 the Gaussian 86(TM) system (copyright 1986, Carnegie Mellon
 University), and the Gaussian 82(TM) system (copyright 1983,
 Carnegie Mellon University). Gaussian is a federally registered
 trademark of Gaussian, Inc.
  
 This software contains proprietary and confidential information,
 including trade secrets, belonging to Gaussian, Inc.
  
 This software is provided under written license and may be
 used, copied, transmitted, or stored only in accord with that
 written license.
  
 The following legend is applicable only to US Government
 contracts under FAR:
  
                    RESTRICTED RIGHTS LEGEND
  
 Use, reproduction and disclosure by the US Government is
 subject to restrictions as set forth in subparagraphs (a)
 and (c) of the Commercial Computer Software - Restricted
 Rights clause in FAR 52.227-19.
  
 Gaussian, Inc.
 340 Quinnipiac St., Bldg. 40, Wallingford CT 06492
  
  
 ---------------------------------------------------------------
 Warning -- This program may not be used in any manner that
 competes with the business of Gaussian, Inc. or will provide
 assistance to any competitor of Gaussian, Inc.  The licensee
 of this program is prohibited from giving any competitor of
 Gaussian, Inc. access to this program.  By using this program,
 the user acknowledges that Gaussian, Inc. is engaged in the
 business of creating and licensing software in the field of
 computational chemistry and represents and warrants to the
 licensee that it is not a competitor of Gaussian, Inc. and that
 it will not use this program in any manner prohibited above.
 ---------------------------------------------------------------
  

 Cite this work as:
 Gaussian 09, Revision C.01,
 M. J. Frisch, G. W. Trucks, H. B. Schlegel, G. E. Scuseria, 
 M. A. Robb, J. R. Cheeseman, G. Scalmani, V. Barone, B. Mennucci, 
 G. A. Petersson, H. Nakatsuji, M. Caricato, X. Li, H. P. Hratchian, 
 A. F. Izmaylov, J. Bloino, G. Zheng, J. L. Sonnenberg, M. Hada, 
 M. Ehara, K. Toyota, R. Fukuda, J. Hasegawa, M. Ishida, T. Nakajima, 
 Y. Honda, O. Kitao, H. Nakai, T. Vreven, J. A. Montgomery, Jr., 
 J. E. Peralta, F. Ogliaro, M. Bearpark, J. J. Heyd, E. Brothers, 
 K. N. Kudin, V. N. Staroverov, T. Keith, R. Kobayashi, J. Normand, 
 K. Raghavachari, A. Rendell, J. C. Burant, S. S. Iyengar, J. Tomasi, 
 M. Cossi, N. Rega, J. M. Millam, M. Klene, J. E. Knox, J. B. Cross, 
 V. Bakken, C. Adamo, J. Jaramillo, R. Gomperts, R. E. Stratmann, 
 O. Yazyev, A. J. Austin, R. Cammi, C. Pomelli, J. W. Ochterski, 
 R. L. Martin, K. Morokuma, V. G. Zakrzewski, G. A. Voth, 
 P. Salvador, J. J. Dannenberg, S. Dapprich, A. D. Daniels, 
 O. Farkas, J. B. Foresman, J. V. Ortiz, J. Cioslowski, 
 and D. J. Fox, Gaussian, Inc., Wallingford CT, 2010.
 
 ******************************************
 Gaussian 09:  EM64L-G09RevC.01 23-Sep-2011
                11-May-2020 
 ******************************************
 %mem=8GB
 %nproc=8
 Will use up to    8 processors via shared memory.
 ----------------------------------------------------------------------
 #p lc-blyp/aug-cc-PVTz iop(3/107=1350000000) iop(3/108=1350000000) int
 =ultrafine counterpoise=2 Scan
 ----------------------------------------------------------------------
 1/38=1,60=1,62=2/1,8;
 2/12=2,17=6,18=5,29=3,40=1/2;
 1/38=1,53=5172,62=2/22;
 3/5=16,6=1,7=10,11=2,16=1,25=1,30=1,74=1000402,75=-5,107=1350000000,108=1350000000/1,2,3;
 4//1;
 5/5=2,38=5/2;
 6/7=2,8=2,9=2,10=2,18=1,28=1/1;
 1/53=4052,62=2,63=1/22;
 3/5=7,6=11,7=10,11=2,16=1,25=1,30=1,74=1000402,75=-5,82=7,107=1350000000,108=1350000000/1,2,3;
 4//1;
 5/5=2,38=5/2;
 6/7=2,8=2,9=2,10=2,18=1,28=1/1;
 1/53=3042,62=2,63=2/22;
 3/5=7,6=11,7=10,11=2,16=1,25=1,30=1,74=1000402,75=-5,82=7,107=1350000000,108=1350000000/1,2,3;
 4//1;
 5/5=2,38=5/2;
 6/7=2,8=2,9=2,10=2,18=1,28=1/1;
 1/53=2032,62=2,63=3/22;
 3/5=7,6=11,7=10,11=2,16=1,25=1,30=1,74=1000402,75=-5,82=7,107=1350000000,108=1350000000/1,2,3;
 4//1;
 5/5=2,38=5/2;
 6/7=2,8=2,9=2,10=2,18=1,28=1/1;
 1/53=1022,62=2,63=4/22;
 3/5=7,6=11,7=10,11=2,16=1,25=1,30=1,74=1000402,75=-5,82=7,107=1350000000,108=1350000000/1,2,3;
 4//1;
 5/5=2,38=5/2;
 6/7=2,8=2,9=2,10=2,18=1,28=1/1;
 1/53=5014,62=2,63=5/22;
 1/60=1,62=2/8(1);
 99/9=1/99;
 2/29=3/2;
 1/53=5173,62=2/22;
 3/5=7,6=11,7=10,11=2,16=1,25=1,30=1,74=1000402,75=-5,82=7,107=1350000000,108=1350000000/1,2,3;
 4/5=5,16=3/1;
 5/5=2,38=5/2;
 1/53=4053,62=2,63=1/22;
 3/5=7,6=11,7=10,11=2,16=1,25=1,30=1,74=1000402,75=-5,82=7,107=1350000000,108=1350000000/1,2,3;
 4/5=5,16=3/1;
 5/5=2,38=5/2;
 1/53=3043,62=2,63=2/22;
 3/5=7,6=11,7=10,11=2,16=1,25=1,30=1,74=1000402,75=-5,82=7,107=1350000000,108=1350000000/1,2,3;
 4/5=5,16=3/1;
 5/5=2,38=5/2;
 1/53=2033,62=2,63=3/22;
 3/5=7,6=11,7=10,11=2,16=1,25=1,30=1,74=1000402,75=-5,82=7,107=1350000000,108=1350000000/1,2,3;
 4/5=5,16=3/1;
 5/5=2,38=5/2;
 1/53=1024,62=2,63=4/22;
 3/5=7,6=11,7=10,11=2,16=1,25=1,30=1,74=1000402,75=-5,82=7,107=1350000000,108=1350000000/1,2,3;
 4/5=5,16=3/1;
 5/5=2,38=5/2;
 1/53=5014,62=2,63=5/22;
 1/60=1,62=2/8(-22);
 99/9=1/99;
 Leave Link    1 at Mon May 11 17:27:40 2020, MaxMem= 1073741824 cpu:       0.1
 (Enter /home/matheus/.gaussian/g09/l101.exe)
 ---
 TCC
 ---
 Charge =  0 Multiplicity = 1 in supermolecule
 Charge =  0 Multiplicity = 1 in fragment  1.
 Charge =  0 Multiplicity = 1 in fragment  2.
 Symbolic Z-Matrix:
 O(Fragment=1)         0.        0.        0.725 
 O(Fragment=1)         0.        0.       -0.725 
 H(Fragment=1)         0.       -0.91872   1.02351 
 H(Fragment=1)         0.        0.91872  -1.02351 
 Kr(Fragment=2)        0.       R1        0. 
       Variables:
  R1                    3.     Scan 20    0.1    
 
 NAtoms=      5 NQM=        0 NQMF=       0 NMMI=      5 NMMIF=      0
                NMic=       0 NMicF=      0.
                    Isotopes and Nuclear Properties:
 (Nuclear quadrupole moments (NQMom) in fm**2, nuclear magnetic moments (NMagM)
  in nuclear magnetons)

  Atom         1           2           3           4           5
 IAtWgt=          16          16           1           1          84
 AtmWgt=  15.9949146  15.9949146   1.0078250   1.0078250  83.9115064
 NucSpn=           0           0           1           1           0
 AtZEff=   0.0000000   0.0000000   0.0000000   0.0000000   0.0000000
 NQMom=    0.0000000   0.0000000   0.0000000   0.0000000   0.0000000
 NMagM=    0.0000000   0.0000000   2.7928460   2.7928460   0.0000000
 Leave Link  101 at Mon May 11 17:27:40 2020, MaxMem= 1073741824 cpu:       0.3
 (Enter /home/matheus/.gaussian/g09/l108.exe)
 Scan the potential surface.
 Variable   Value     No. Steps Step-Size
 -------- ----------- --------- ---------
     1       3.000000      20      0.1000
 A total of     21 points will be computed.
 Leave Link  108 at Mon May 11 17:27:40 2020, MaxMem= 1073741824 cpu:       0.0
 (Enter /home/matheus/.gaussian/g09/l202.exe)
 ---------------------------------------------------------------------------------------------------
                            Z-MATRIX (ANGSTROMS AND DEGREES)
   CD    Cent   Atom    N1       Length/X        N2       Alpha/Y        N3        Beta/Z          J
 ---------------------------------------------------------------------------------------------------
      1      1  O        0   0.000000          0.000000          0.725000
      2      2  O        0   0.000000          0.000000         -0.725000
      3      3  H        0   0.000000         -0.918721          1.023510
      4      4  H        0   0.000000          0.918721         -1.023510
      5      5  Kr       0   0.000000          3.000000          0.000000
 ---------------------------------------------------------------------------------------------------
                         Z-Matrix orientation:                         
 ---------------------------------------------------------------------
 Center     Atomic      Atomic             Coordinates (Angstroms)
 Number     Number       Type             X           Y           Z
 ---------------------------------------------------------------------
      1          8           0        0.000000    0.000000    0.725000
      2          8           0        0.000000    0.000000   -0.725000
      3          1           0        0.000000   -0.918721    1.023510
      4          1           0        0.000000    0.918721   -1.023510
      5         36           0        0.000000    3.000000    0.000000
 ---------------------------------------------------------------------
                    Distance matrix (angstroms):
                    1          2          3          4          5
     1  O    0.000000
     2  O    1.450000   0.000000
     3  H    0.966000   1.975180   0.000000
     4  H    1.975180   0.966000   2.750724   0.000000
     5  Kr   3.086361   3.086361   4.050178   2.319331   0.000000
 Stoichiometry    H2KrO2
 Framework group  CS[SG(H2KrO2)]
 Deg. of freedom     7
 Full point group                 CS      NOp   2
 Largest Abelian subgroup         CS      NOp   2
 Largest concise Abelian subgroup C1      NOp   1
                         Standard orientation:                         
 ---------------------------------------------------------------------
 Center     Atomic      Atomic             Coordinates (Angstroms)
 Number     Number       Type             X           Y           Z
 ---------------------------------------------------------------------
      1          8           0        0.725000   -2.000000    0.000000
      2          8           0       -0.725000   -2.000000    0.000000
      3          1           0        1.023510   -2.918721    0.000000
      4          1           0       -1.023510   -1.081279    0.000000
      5         36           0        0.000000    1.000000    0.000000
 ---------------------------------------------------------------------
 Rotational constants (GHZ):     26.7279120      2.3023206      2.1197289
 Leave Link  202 at Mon May 11 17:27:40 2020, MaxMem= 1073741824 cpu:       0.0
 (Enter /home/matheus/.gaussian/g09/l122.exe)
 Leave Link  122 at Mon May 11 17:27:40 2020, MaxMem= 1073741824 cpu:       0.0
 (Enter /home/matheus/.gaussian/g09/l301.exe)
 Standard basis: Aug-CC-pVTZ (5D, 7F)
 Ernie: Thresh=  0.10000D-02 Tol=  0.10000D-05 Strict=F.
 Ernie:  38 primitive shells out of 205 were deleted.
 There are   131 symmetry adapted basis functions of A'  symmetry.
 There are    66 symmetry adapted basis functions of A"  symmetry.
 Integral buffers will be    131072 words long.
 Raffenetti 2 integral format.
 Two-electron integral symmetry is turned on.
   197 basis functions,   415 primitive gaussians,   229 cartesian basis functions
    27 alpha electrons       27 beta electrons
       nuclear repulsion energy       148.2769905491 Hartrees.
 IExCor=10402 DFT=T Ex=LC-B+HF Corr=LYP ExCW=0 ScaHFX=  1.000000
 ScaDFX=  1.000000  1.000000  1.000000  1.000000 ScalE2=  1.000000  1.000000
 IRadAn=      5 IRanWt=     -1 IRanGd=            0 ICorTp=0
  HFx wShort=  0.000000 wLong=  1.350000 cFull=  0.000000 cShort=  0.000000 cLong=  1.000000
  DFx wShort=  0.000000 wLong=  1.350000 cFull=  0.000000 cShort=  0.000000 cLong=  1.000000
 NAtoms=    5 NActive=    5 NUniq=    5 SFac= 1.00D+00 NAtFMM=   60 NAOKFM=F Big=F
 Leave Link  301 at Mon May 11 17:27:40 2020, MaxMem= 1073741824 cpu:       0.2
 (Enter /home/matheus/.gaussian/g09/l302.exe)
 NPDir=0 NMtPBC=     1 NCelOv=     1 NCel=       1 NClECP=     1 NCelD=      1
         NCelK=      1 NCelE2=     1 NClLst=     1 CellRange=     0.0.
 One-electron integrals computed using PRISM.
 NBasis=   197 RedAO= T  NBF=   131    66
 NBsUse=   197 1.00D-06 NBFU=   131    66
 Precomputing XC quadrature grid using
 IXCGrd= 2 IRadAn=           5 IRanWt=          -1 IRanGd=           0 AccXCQ= 0.00D+00.
 NRdTot=     427 NPtTot=      123814 NUsed=      126881 NTot=      126913
 NSgBfM=   229   229   229   229   229 NAtAll=     5     5.
 Leave Link  302 at Mon May 11 17:27:40 2020, MaxMem= 1073741824 cpu:       0.9
 (Enter /home/matheus/.gaussian/g09/l303.exe)
 DipDrv:  MaxL=1.
 Leave Link  303 at Mon May 11 17:27:40 2020, MaxMem= 1073741824 cpu:       0.2
 (Enter /home/matheus/.gaussian/g09/l401.exe)
 Harris functional with IExCor=10402 diagonalized for initial guess.
 ExpMin= 2.53D-02 ExpMax= 1.17D+07 ExpMxC= 1.33D+04 IAcc=3 IRadAn=         5 AccDes= 0.00D+00
 HarFok:  IExCor=10402 AccDes= 0.00D+00 IRadAn=         5 IDoV= 1
 ScaDFX=  1.000000  1.000000  1.000000  1.000000
 FoFCou: FMM=F IPFlag=           0 FMFlag=      100000 FMFlg1=           0
         NFxFlg=           0 DoJE=T BraDBF=F KetDBF=T FulRan=T
         Omega=  0.000000  0.000000  1.000000  0.000000  0.000000 ICntrl=     500 IOpCl=  0
         NMat0=    1 NMatS0=    1 NMatT0=    0 NMatD0=    1 NMtDS0=    0 NMtDT0=    0
         I1Cent=           4 NGrid=           0.
 Petite list used in FoFCou.
 Harris En= -2874.93314147282    
 Initial guess orbital symmetries:
       Occupied  (A') (A') (A') (A') (A") (A') (A') (A') (A') (A')
                 (A") (A') (A') (A") (A') (A") (A') (A') (A') (A')
                 (A') (A") (A') (A') (A") (A') (A')
       Virtual   (A') (A') (A") (A') (A") (A') (A') (A') (A") (A')
                 (A') (A") (A') (A") (A') (A") (A') (A') (A') (A')
                 (A") (A') (A') (A") (A') (A') (A') (A') (A") (A')
                 (A') (A') (A") (A') (A") (A') (A") (A') (A") (A')
                 (A") (A') (A') (A') (A") (A') (A') (A") (A") (A')
                 (A') (A') (A") (A') (A") (A') (A") (A') (A') (A')
                 (A") (A') (A") (A") (A') (A') (A') (A') (A") (A')
                 (A') (A") (A") (A') (A') (A') (A') (A") (A') (A')
                 (A") (A') (A') (A") (A") (A') (A') (A") (A") (A')
                 (A') (A') (A') (A") (A') (A') (A") (A") (A') (A')
                 (A") (A') (A") (A') (A") (A') (A") (A') (A") (A')
                 (A') (A") (A') (A') (A') (A') (A') (A") (A') (A')
                 (A') (A") (A") (A') (A") (A") (A') (A") (A') (A")
                 (A') (A') (A') (A') (A') (A') (A') (A') (A") (A")
                 (A') (A') (A') (A") (A') (A') (A") (A') (A") (A')
                 (A") (A") (A') (A") (A") (A") (A") (A') (A') (A')
                 (A') (A") (A') (A') (A') (A') (A') (A') (A') (A')
 The electronic state of the initial guess is 1-A'.
 Leave Link  401 at Mon May 11 17:27:40 2020, MaxMem= 1073741824 cpu:       2.5
 (Enter /home/matheus/.gaussian/g09/l502.exe)
 Closed shell SCF:
 Requested convergence on RMS density matrix=1.00D-08 within 128 cycles.
 Requested convergence on MAX density matrix=1.00D-06.
 Requested convergence on             energy=1.00D-06.
 No special actions if energy rises.
 Using DIIS extrapolation, IDIIS=  1040.
 Integral symmetry usage will be decided dynamically.
       126823 words used for storage of precomputed grid.
 IEnd=      305835 IEndB=      305835 NGot=  1073741824 MDV=  1073505300
 LenX=  1073505300 LenY=  1073452418
 Fock matrices will be formed incrementally for  20 cycles.

 Cycle   1  Pass 1  IDiag  1:
 FoFJK:  IHMeth= 1 ICntrl=     0 DoSepK=T KAlg= 1 I1Cent= 0 FoldK=F
 FoFCou: FMM=F IPFlag=           0 FMFlag=      100000 FMFlg1=           0
         NFxFlg=           0 DoJE=T BraDBF=F KetDBF=F FulRan=T
         Omega=  0.000000  0.000000  1.000000  0.000000  0.000000 ICntrl=     500 IOpCl=  0
         NMat0=    1 NMatS0=    1 NMatT0=    0 NMatD0=    1 NMtDS0=    0 NMtDT0=    0
         I1Cent=           0 NGrid=           0.
 Petite list used in FoFCou.
 E= -2899.46379464053    
 DIIS: error= 1.41D-01 at cycle   1 NSaved=   1.
 NSaved= 1 IEnMin= 1 EnMin= -2899.46379464053     IErMin= 1 ErrMin= 1.41D-01
 ErrMax= 1.41D-01 EMaxC= 1.00D-01 BMatC= 4.04D+00 BMatP= 4.04D+00
 IDIUse=3 WtCom= 0.00D+00 WtEn= 1.00D+00
 Coeff-Com:  0.100D+01
 Coeff-En:   0.100D+01
 Coeff:      0.100D+01
 Gap=    -0.487 Goal=   None    Shift=    0.000
 GapD=   -0.487 DampG=0.250 DampE=0.250 DampFc=0.2500 IDamp=-1.
 Damping current iteration by 2.50D-01
 RMSDP=9.97D-02 MaxDP=6.18D+00              OVMax= 1.00D+00

 Cycle   2  Pass 1  IDiag  1:
 RMSU=  4.45D-03    CP:  7.64D-01
 FoFJK:  IHMeth= 1 ICntrl=     0 DoSepK=T KAlg= 1 I1Cent= 0 FoldK=F
 E= -2901.32122882501     Delta-E=       -1.857434184480 Rises=F Damp=T
 DIIS: error= 6.16D-02 at cycle   2 NSaved=   2.
 NSaved= 2 IEnMin= 2 EnMin= -2901.32122882501     IErMin= 2 ErrMin= 6.16D-02
 ErrMax= 6.16D-02 EMaxC= 1.00D-01 BMatC= 1.09D+00 BMatP= 4.04D+00
 IDIUse=3 WtCom= 3.84D-01 WtEn= 6.16D-01
 Coeff-Com: -0.788D+00 0.179D+01
 Coeff-En:   0.000D+00 0.100D+01
 Coeff:     -0.303D+00 0.130D+01
 Gap=     0.126 Goal=   None    Shift=    0.000
 RMSDP=7.47D-02 MaxDP=4.64D+00 DE=-1.86D+00 OVMax= 9.36D-01

 Cycle   3  Pass 1  IDiag  1:
 RMSU=  5.82D-03    CP:  5.75D-02  3.00D+00
 FoFJK:  IHMeth= 1 ICntrl=     0 DoSepK=T KAlg= 1 I1Cent= 0 FoldK=F
 E= -2904.29500064431     Delta-E=       -2.973771819300 Rises=F Damp=F
 DIIS: error= 3.46D-02 at cycle   3 NSaved=   3.
 NSaved= 3 IEnMin= 3 EnMin= -2904.29500064431     IErMin= 3 ErrMin= 3.46D-02
 ErrMax= 3.46D-02 EMaxC= 1.00D-01 BMatC= 5.15D-01 BMatP= 1.09D+00
 IDIUse=3 WtCom= 6.54D-01 WtEn= 3.46D-01
 Coeff-Com: -0.611D-01 0.484D+00 0.577D+00
 Coeff-En:   0.000D+00 0.000D+00 0.100D+01
 Coeff:     -0.399D-01 0.317D+00 0.723D+00
 Gap=     0.594 Goal=   None    Shift=    0.000
 RMSDP=2.39D-03 MaxDP=8.75D-02 DE=-2.97D+00 OVMax= 1.04D-01

 Cycle   4  Pass 1  IDiag  1:
 RMSU=  1.69D-03    CP:  5.71D-02  3.00D+00  9.77D-01
 FoFJK:  IHMeth= 1 ICntrl=     0 DoSepK=T KAlg= 1 I1Cent= 0 FoldK=F
 E= -2904.61038747364     Delta-E=       -0.315386829332 Rises=F Damp=F
 DIIS: error= 4.89D-03 at cycle   4 NSaved=   4.
 NSaved= 4 IEnMin= 4 EnMin= -2904.61038747364     IErMin= 4 ErrMin= 4.89D-03
 ErrMax= 4.89D-03 EMaxC= 1.00D-01 BMatC= 1.19D-02 BMatP= 5.15D-01
 IDIUse=3 WtCom= 9.51D-01 WtEn= 4.89D-02
 Coeff-Com: -0.425D-01 0.893D-01 0.760D-01 0.877D+00
 Coeff-En:   0.000D+00 0.000D+00 0.000D+00 0.100D+01
 Coeff:     -0.404D-01 0.849D-01 0.723D-01 0.883D+00
 Gap=     0.490 Goal=   None    Shift=    0.000
 RMSDP=5.88D-04 MaxDP=1.91D-02 DE=-3.15D-01 OVMax= 2.12D-02

 Cycle   5  Pass 1  IDiag  1:
 RMSU=  4.12D-04    CP:  5.70D-02  3.00D+00  9.78D-01  1.03D+00
 FoFJK:  IHMeth= 1 ICntrl=     0 DoSepK=T KAlg= 1 I1Cent= 0 FoldK=F
 E= -2904.61707628149     Delta-E=       -0.006688807846 Rises=F Damp=F
 DIIS: error= 1.67D-03 at cycle   5 NSaved=   5.
 NSaved= 5 IEnMin= 5 EnMin= -2904.61707628149     IErMin= 5 ErrMin= 1.67D-03
 ErrMax= 1.67D-03 EMaxC= 1.00D-01 BMatC= 7.17D-04 BMatP= 1.19D-02
 IDIUse=3 WtCom= 9.83D-01 WtEn= 1.67D-02
 Coeff-Com: -0.285D-01 0.536D-01-0.141D-01-0.665D-01 0.106D+01
 Coeff-En:   0.000D+00 0.000D+00 0.000D+00 0.000D+00 0.100D+01
 Coeff:     -0.280D-01 0.527D-01-0.138D-01-0.654D-01 0.105D+01
 Gap=     0.507 Goal=   None    Shift=    0.000
 RMSDP=1.50D-04 MaxDP=3.80D-03 DE=-6.69D-03 OVMax= 7.72D-03

 Cycle   6  Pass 1  IDiag  1:
 RMSU=  7.97D-05    CP:  5.69D-02  3.00D+00  9.76D-01  1.05D+00  1.16D+00
 FoFJK:  IHMeth= 1 ICntrl=     0 DoSepK=T KAlg= 1 I1Cent= 0 FoldK=F
 E= -2904.61779865849     Delta-E=       -0.000722377007 Rises=F Damp=F
 DIIS: error= 4.92D-04 at cycle   6 NSaved=   6.
 NSaved= 6 IEnMin= 6 EnMin= -2904.61779865849     IErMin= 6 ErrMin= 4.92D-04
 ErrMax= 4.92D-04 EMaxC= 1.00D-01 BMatC= 1.10D-04 BMatP= 7.17D-04
 IDIUse=3 WtCom= 9.95D-01 WtEn= 4.92D-03
 Coeff-Com: -0.482D-02 0.827D-02-0.141D-01-0.548D-01 0.301D-01 0.104D+01
 Coeff-En:   0.000D+00 0.000D+00 0.000D+00 0.000D+00 0.000D+00 0.100D+01
 Coeff:     -0.479D-02 0.823D-02-0.141D-01-0.545D-01 0.299D-01 0.104D+01
 Gap=     0.510 Goal=   None    Shift=    0.000
 RMSDP=6.63D-05 MaxDP=1.99D-03 DE=-7.22D-04 OVMax= 3.81D-03

 Cycle   7  Pass 1  IDiag  1:
 RMSU=  2.33D-05    CP:  5.69D-02  3.00D+00  9.75D-01  1.06D+00  1.24D+00
                    CP:  1.17D+00
 FoFJK:  IHMeth= 1 ICntrl=     0 DoSepK=T KAlg= 1 I1Cent= 0 FoldK=F
 E= -2904.61794501548     Delta-E=       -0.000146356989 Rises=F Damp=F
 DIIS: error= 2.95D-04 at cycle   7 NSaved=   7.
 NSaved= 7 IEnMin= 7 EnMin= -2904.61794501548     IErMin= 7 ErrMin= 2.95D-04
 ErrMax= 2.95D-04 EMaxC= 1.00D-01 BMatC= 1.71D-05 BMatP= 1.10D-04
 IDIUse=3 WtCom= 9.97D-01 WtEn= 2.95D-03
 Coeff-Com:  0.927D-03-0.218D-02-0.485D-02-0.140D-01-0.937D-01 0.356D+00
 Coeff-Com:  0.758D+00
 Coeff-En:   0.000D+00 0.000D+00 0.000D+00 0.000D+00 0.000D+00 0.000D+00
 Coeff-En:   0.100D+01
 Coeff:      0.924D-03-0.218D-02-0.484D-02-0.140D-01-0.934D-01 0.355D+00
 Coeff:      0.759D+00
 Gap=     0.511 Goal=   None    Shift=    0.000
 RMSDP=1.70D-05 MaxDP=5.24D-04 DE=-1.46D-04 OVMax= 1.45D-03

 Cycle   8  Pass 1  IDiag  1:
 RMSU=  8.25D-06    CP:  5.69D-02  3.00D+00  9.75D-01  1.06D+00  1.25D+00
                    CP:  1.22D+00  1.13D+00
 FoFJK:  IHMeth= 1 ICntrl=     0 DoSepK=T KAlg= 1 I1Cent= 0 FoldK=F
 E= -2904.61796162160     Delta-E=       -0.000016606120 Rises=F Damp=F
 DIIS: error= 7.86D-05 at cycle   8 NSaved=   8.
 NSaved= 8 IEnMin= 8 EnMin= -2904.61796162160     IErMin= 8 ErrMin= 7.86D-05
 ErrMax= 7.86D-05 EMaxC= 1.00D-01 BMatC= 1.40D-06 BMatP= 1.71D-05
 IDIUse=1 WtCom= 1.00D+00 WtEn= 0.00D+00
 Coeff-Com:  0.103D-02-0.186D-02 0.152D-02 0.529D-02-0.104D-01-0.841D-01
 Coeff-Com:  0.121D+00 0.968D+00
 Coeff:      0.103D-02-0.186D-02 0.152D-02 0.529D-02-0.104D-01-0.841D-01
 Coeff:      0.121D+00 0.968D+00
 Gap=     0.511 Goal=   None    Shift=    0.000
 RMSDP=7.00D-06 MaxDP=2.48D-04 DE=-1.66D-05 OVMax= 4.95D-04

 Cycle   9  Pass 1  IDiag  1:
 RMSU=  3.32D-06    CP:  5.69D-02  3.00D+00  9.75D-01  1.06D+00  1.25D+00
                    CP:  1.23D+00  1.26D+00  1.06D+00
 FoFJK:  IHMeth= 1 ICntrl=     0 DoSepK=T KAlg= 1 I1Cent= 0 FoldK=F
 E= -2904.61796376936     Delta-E=       -0.000002147759 Rises=F Damp=F
 DIIS: error= 1.81D-05 at cycle   9 NSaved=   9.
 NSaved= 9 IEnMin= 9 EnMin= -2904.61796376936     IErMin= 9 ErrMin= 1.81D-05
 ErrMax= 1.81D-05 EMaxC= 1.00D-01 BMatC= 1.44D-07 BMatP= 1.40D-06
 IDIUse=1 WtCom= 1.00D+00 WtEn= 0.00D+00
 Coeff-Com:  0.126D-03-0.176D-03 0.365D-03 0.639D-03 0.196D-02 0.303D-02
 Coeff-Com: -0.714D-01-0.123D+00 0.119D+01
 Coeff:      0.126D-03-0.176D-03 0.365D-03 0.639D-03 0.196D-02 0.303D-02
 Coeff:     -0.714D-01-0.123D+00 0.119D+01
 Gap=     0.510 Goal=   None    Shift=    0.000
 RMSDP=3.05D-06 MaxDP=6.54D-05 DE=-2.15D-06 OVMax= 1.92D-04

 Cycle  10  Pass 1  IDiag  1:
 RMSU=  1.05D-06    CP:  5.69D-02  3.00D+00  9.75D-01  1.06D+00  1.25D+00
                    CP:  1.23D+00  1.28D+00  1.11D+00  1.43D+00
 FoFJK:  IHMeth= 1 ICntrl=     0 DoSepK=T KAlg= 1 I1Cent= 0 FoldK=F
 E= -2904.61796406883     Delta-E=       -0.000000299464 Rises=F Damp=F
 DIIS: error= 6.86D-06 at cycle  10 NSaved=  10.
 NSaved=10 IEnMin=10 EnMin= -2904.61796406883     IErMin=10 ErrMin= 6.86D-06
 ErrMax= 6.86D-06 EMaxC= 1.00D-01 BMatC= 1.39D-08 BMatP= 1.44D-07
 IDIUse=1 WtCom= 1.00D+00 WtEn= 0.00D+00
 Coeff-Com: -0.327D-04 0.677D-04-0.173D-03-0.597D-03-0.105D-02 0.124D-01
 Coeff-Com: -0.115D-01-0.882D-01-0.593D-01 0.115D+01
 Coeff:     -0.327D-04 0.677D-04-0.173D-03-0.597D-03-0.105D-02 0.124D-01
 Coeff:     -0.115D-01-0.882D-01-0.593D-01 0.115D+01
 Gap=     0.510 Goal=   None    Shift=    0.000
 RMSDP=1.06D-06 MaxDP=4.40D-05 DE=-2.99D-07 OVMax= 8.85D-05

 Cycle  11  Pass 1  IDiag  1:
 RMSU=  3.54D-07    CP:  5.69D-02  3.00D+00  9.75D-01  1.06D+00  1.25D+00
                    CP:  1.23D+00  1.28D+00  1.11D+00  1.58D+00  1.39D+00
 FoFJK:  IHMeth= 1 ICntrl=     0 DoSepK=T KAlg= 1 I1Cent= 0 FoldK=F
 E= -2904.61796410567     Delta-E=       -0.000000036848 Rises=F Damp=F
 DIIS: error= 2.84D-06 at cycle  11 NSaved=  11.
 NSaved=11 IEnMin=11 EnMin= -2904.61796410567     IErMin=11 ErrMin= 2.84D-06
 ErrMax= 2.84D-06 EMaxC= 1.00D-01 BMatC= 1.15D-09 BMatP= 1.39D-08
 IDIUse=1 WtCom= 1.00D+00 WtEn= 0.00D+00
 Coeff-Com: -0.147D-04 0.233D-04-0.544D-05-0.920D-05 0.460D-03-0.199D-02
 Coeff-Com:  0.249D-02 0.211D-01-0.657D-01-0.210D+00 0.125D+01
 Coeff:     -0.147D-04 0.233D-04-0.544D-05-0.920D-05 0.460D-03-0.199D-02
 Coeff:      0.249D-02 0.211D-01-0.657D-01-0.210D+00 0.125D+01
 Gap=     0.510 Goal=   None    Shift=    0.000
 RMSDP=3.71D-07 MaxDP=1.63D-05 DE=-3.68D-08 OVMax= 3.75D-05

 Cycle  12  Pass 1  IDiag  1:
 RMSU=  1.09D-07    CP:  5.69D-02  3.00D+00  9.75D-01  1.06D+00  1.25D+00
                    CP:  1.23D+00  1.28D+00  1.11D+00  1.61D+00  1.53D+00
                    CP:  1.40D+00
 FoFJK:  IHMeth= 1 ICntrl=     0 DoSepK=T KAlg= 1 I1Cent= 0 FoldK=F
 E= -2904.61796410975     Delta-E=       -0.000000004080 Rises=F Damp=F
 DIIS: error= 1.06D-06 at cycle  12 NSaved=  12.
 NSaved=12 IEnMin=12 EnMin= -2904.61796410975     IErMin=12 ErrMin= 1.06D-06
 ErrMax= 1.06D-06 EMaxC= 1.00D-01 BMatC= 1.21D-10 BMatP= 1.15D-09
 IDIUse=1 WtCom= 1.00D+00 WtEn= 0.00D+00
 Coeff-Com: -0.948D-06 0.674D-06 0.810D-05 0.338D-04-0.113D-03 0.237D-03
 Coeff-Com: -0.106D-02-0.212D-02 0.326D-01-0.170D-01-0.430D+00 0.142D+01
 Coeff:     -0.948D-06 0.674D-06 0.810D-05 0.338D-04-0.113D-03 0.237D-03
 Coeff:     -0.106D-02-0.212D-02 0.326D-01-0.170D-01-0.430D+00 0.142D+01
 Gap=     0.510 Goal=   None    Shift=    0.000
 RMSDP=1.20D-07 MaxDP=3.02D-06 DE=-4.08D-09 OVMax= 1.37D-05

 Cycle  13  Pass 1  IDiag  1:
 RMSU=  2.58D-08    CP:  5.69D-02  3.00D+00  9.75D-01  1.06D+00  1.25D+00
                    CP:  1.23D+00  1.28D+00  1.11D+00  1.62D+00  1.54D+00
                    CP:  1.54D+00  1.51D+00
 FoFJK:  IHMeth= 1 ICntrl=     0 DoSepK=T KAlg= 1 I1Cent= 0 FoldK=F
 E= -2904.61796411019     Delta-E=       -0.000000000432 Rises=F Damp=F
 DIIS: error= 2.51D-07 at cycle  13 NSaved=  13.
 NSaved=13 IEnMin=13 EnMin= -2904.61796411019     IErMin=13 ErrMin= 2.51D-07
 ErrMax= 2.51D-07 EMaxC= 1.00D-01 BMatC= 7.92D-12 BMatP= 1.21D-10
 IDIUse=1 WtCom= 1.00D+00 WtEn= 0.00D+00
 Coeff-Com: -0.169D-06 0.601D-06-0.149D-05-0.348D-05-0.248D-04 0.232D-03
 Coeff-Com: -0.253D-03-0.175D-02 0.152D-02 0.200D-01-0.511D-01-0.175D+00
 Coeff-Com:  0.121D+01
 Coeff:     -0.169D-06 0.601D-06-0.149D-05-0.348D-05-0.248D-04 0.232D-03
 Coeff:     -0.253D-03-0.175D-02 0.152D-02 0.200D-01-0.511D-01-0.175D+00
 Coeff:      0.121D+01
 Gap=     0.510 Goal=   None    Shift=    0.000
 RMSDP=2.94D-08 MaxDP=8.33D-07 DE=-4.32D-10 OVMax= 3.28D-06

 Cycle  14  Pass 1  IDiag  1:
 RMSU=  6.77D-09    CP:  5.69D-02  3.00D+00  9.75D-01  1.06D+00  1.25D+00
                    CP:  1.23D+00  1.28D+00  1.11D+00  1.62D+00  1.55D+00
                    CP:  1.56D+00  1.60D+00  1.43D+00
 FoFJK:  IHMeth= 1 ICntrl=     0 DoSepK=T KAlg= 1 I1Cent= 0 FoldK=F
 E= -2904.61796411023     Delta-E=       -0.000000000042 Rises=F Damp=F
 DIIS: error= 5.27D-08 at cycle  14 NSaved=  14.
 NSaved=14 IEnMin=14 EnMin= -2904.61796411023     IErMin=14 ErrMin= 5.27D-08
 ErrMax= 5.27D-08 EMaxC= 1.00D-01 BMatC= 4.81D-13 BMatP= 7.92D-12
 IDIUse=1 WtCom= 1.00D+00 WtEn= 0.00D+00
 Coeff-Com:  0.310D-06-0.523D-06-0.240D-06-0.217D-05 0.198D-04-0.689D-04
 Coeff-Com:  0.444D-04 0.469D-03-0.186D-02-0.357D-02 0.380D-01-0.540D-01
 Coeff-Com: -0.278D+00 0.130D+01
 Coeff:      0.310D-06-0.523D-06-0.240D-06-0.217D-05 0.198D-04-0.689D-04
 Coeff:      0.444D-04 0.469D-03-0.186D-02-0.357D-02 0.380D-01-0.540D-01
 Coeff:     -0.278D+00 0.130D+01
 Gap=     0.510 Goal=   None    Shift=    0.000
 RMSDP=7.51D-09 MaxDP=2.77D-07 DE=-4.18D-11 OVMax= 6.99D-07

 SCF Done:  E(RLC-B+HF-LYP) =  -2904.61796411     A.U. after   14 cycles
             Convg  =    0.7514D-08             -V/T =  2.0016
 KE= 2.899946514010D+03 PE=-7.234068083838D+03 EE= 1.281226615169D+03
 Leave Link  502 at Mon May 11 17:28:18 2020, MaxMem= 1073741824 cpu:     302.2
 (Enter /home/matheus/.gaussian/g09/l601.exe)
 Copying SCF densities to generalized density rwf, IOpCl= 0 IROHF=0.

 **********************************************************************

            Population analysis using the SCF density.

 **********************************************************************

 Orbital symmetries:
       Occupied  (A') (A') (A') (A") (A') (A') (A') (A') (A') (A")
                 (A') (A') (A") (A') (A") (A') (A') (A') (A') (A')
                 (A') (A") (A') (A") (A') (A') (A")
       Virtual   (A') (A') (A') (A") (A') (A') (A') (A') (A") (A')
                 (A") (A') (A') (A") (A') (A') (A") (A') (A') (A')
                 (A") (A') (A') (A") (A') (A') (A') (A') (A") (A')
                 (A') (A') (A") (A') (A") (A') (A") (A') (A") (A')
                 (A") (A') (A') (A') (A") (A') (A') (A") (A") (A')
                 (A') (A') (A") (A') (A") (A') (A') (A") (A') (A')
                 (A') (A") (A") (A") (A') (A') (A') (A') (A") (A')
                 (A') (A") (A") (A') (A') (A') (A') (A") (A') (A')
                 (A') (A") (A') (A") (A") (A') (A') (A") (A') (A")
                 (A') (A') (A") (A') (A') (A') (A") (A') (A") (A')
                 (A") (A') (A") (A') (A") (A') (A") (A') (A") (A')
                 (A') (A") (A') (A') (A') (A') (A') (A") (A') (A')
                 (A') (A") (A") (A') (A") (A") (A') (A") (A') (A")
                 (A') (A') (A') (A') (A') (A') (A') (A') (A") (A")
                 (A') (A') (A') (A") (A') (A') (A") (A') (A") (A')
                 (A") (A') (A") (A") (A") (A") (A") (A') (A') (A')
                 (A') (A") (A') (A') (A') (A') (A') (A') (A') (A')
 The electronic state is 1-A'.
 Alpha  occ. eigenvalues -- -511.66375 -67.18870 -60.86077 -60.86060 -60.86051
 Alpha  occ. eigenvalues --  -19.48028 -19.47695 -10.08997  -7.80598  -7.80552
 Alpha  occ. eigenvalues --   -7.80529  -3.63558  -3.63548  -3.63530  -3.63492
 Alpha  occ. eigenvalues --   -3.63489  -1.45877  -1.21389  -1.18395  -0.73997
 Alpha  occ. eigenvalues --   -0.73196  -0.64819  -0.57420  -0.56192  -0.55831
 Alpha  occ. eigenvalues --   -0.54762  -0.48120
 Alpha virt. eigenvalues --    0.02926   0.03786   0.07826   0.09613   0.10478
 Alpha virt. eigenvalues --    0.11267   0.13582   0.14728   0.16058   0.16323
 Alpha virt. eigenvalues --    0.18378   0.19793   0.23262   0.23706   0.23973
 Alpha virt. eigenvalues --    0.24926   0.27055   0.28919   0.31240   0.34054
 Alpha virt. eigenvalues --    0.34661   0.35043   0.36957   0.39362   0.40941
 Alpha virt. eigenvalues --    0.42224   0.43700   0.49867   0.53998   0.56530
 Alpha virt. eigenvalues --    0.58884   0.62353   0.66703   0.68156   0.71095
 Alpha virt. eigenvalues --    0.73232   0.74774   0.75863   0.76743   0.79513
 Alpha virt. eigenvalues --    0.80772   0.81448   0.81977   0.83076   0.84756
 Alpha virt. eigenvalues --    0.86382   0.88642   0.90219   0.91002   0.93513
 Alpha virt. eigenvalues --    0.95408   0.97480   0.98825   1.00423   1.04336
 Alpha virt. eigenvalues --    1.06244   1.08969   1.10032   1.10470   1.13898
 Alpha virt. eigenvalues --    1.17227   1.18135   1.20050   1.21927   1.23745
 Alpha virt. eigenvalues --    1.31686   1.36623   1.42461   1.46873   1.47198
 Alpha virt. eigenvalues --    1.55555   1.57104   1.59375   1.61113   1.64902
 Alpha virt. eigenvalues --    1.67725   1.86642   1.90154   1.95134   2.04204
 Alpha virt. eigenvalues --    2.09124   2.09267   2.16313   2.24081   2.26423
 Alpha virt. eigenvalues --    2.27985   2.28268   2.28345   2.32896   2.38792
 Alpha virt. eigenvalues --    2.39780   2.42311   2.45677   2.46931   2.48574
 Alpha virt. eigenvalues --    2.51110   2.51515   2.56777   2.58533   2.60782
 Alpha virt. eigenvalues --    2.63487   2.64605   2.66266   2.69730   2.70569
 Alpha virt. eigenvalues --    2.73165   2.75953   2.78120   2.81353   2.82885
 Alpha virt. eigenvalues --    2.84761   2.87753   2.89090   2.93815   3.03917
 Alpha virt. eigenvalues --    3.09342   3.21671   3.23459   3.29975   3.67557
 Alpha virt. eigenvalues --    3.91520   4.01937   4.03910   4.24450   4.24549
 Alpha virt. eigenvalues --    4.25250   4.28141   4.35419   4.37571   4.43616
 Alpha virt. eigenvalues --    4.51905   4.58278   4.69908   4.70663   4.92946
 Alpha virt. eigenvalues --    5.07222   5.20948   5.22182   5.25205   5.26757
 Alpha virt. eigenvalues --    5.56258   5.67169   6.05062   6.21266   6.31806
 Alpha virt. eigenvalues --    6.37674   6.54226   6.61375   6.70058   6.71166
 Alpha virt. eigenvalues --    6.97587   6.98201   6.99468   7.07097   7.11114
 Alpha virt. eigenvalues --    7.15069   7.19300   7.19974   7.21288   7.22790
 Alpha virt. eigenvalues --    7.26982   7.48306   7.50338   7.64504   7.87633
 Alpha virt. eigenvalues --    8.09980   8.38399   8.40870  14.38414  14.80348
          Condensed to atoms (all electrons):
              1          2          3          4          5
     1  O    8.214547  -0.143728   0.174750  -0.011884  -0.036973
     2  O   -0.143728   8.191443  -0.002385   0.225455  -0.009588
     3  H    0.174750  -0.002385   0.611170   0.006451   0.003516
     4  H   -0.011884   0.225455   0.006451   0.545000  -0.012802
     5  Kr  -0.036973  -0.009588   0.003516  -0.012802  36.052214
 Mulliken atomic charges:
              1
     1  O   -0.196712
     2  O   -0.261197
     3  H    0.206498
     4  H    0.247779
     5  Kr   0.003633
 Sum of Mulliken atomic charges =   0.00000
 Mulliken charges with hydrogens summed into heavy atoms:
              1
     1  O    0.009785
     2  O   -0.013418
     5  Kr   0.003633
 Sum of Mulliken charges with hydrogens summed into heavy atoms =   0.00000
          Condensed to fragments (all electrons):
     1      -0.003633
     2       0.003633
 Electronic spatial extent (au):  <R**2>=            491.6672
 Charge=              0.0000 electrons
 Dipole moment (field-independent basis, Debye):
    X=              0.2705    Y=              0.1634    Z=              0.0000  Tot=              0.3161
 Quadrupole moment (field-independent basis, Debye-Ang):
   XX=            -27.9265   YY=            -25.7592   ZZ=            -30.3108
   XY=             -4.1523   XZ=              0.0000   YZ=              0.0000
 Traceless Quadrupole moment (field-independent basis, Debye-Ang):
   XX=              0.0723   YY=              2.2396   ZZ=             -2.3120
   XY=             -4.1523   XZ=              0.0000   YZ=              0.0000
 Octapole moment (field-independent basis, Debye-Ang**2):
  XXX=              0.3522  YYY=             -2.5660  ZZZ=              0.0000  XYY=             17.7284
  XXY=              3.3447  XXZ=              0.0000  XZZ=              0.1213  YZZ=              8.2021
  YYZ=              0.0000  XYZ=              0.0000
 Hexadecapole moment (field-independent basis, Debye-Ang**3):
 XXXX=            -62.1131 YYYY=           -329.4329 ZZZZ=            -28.2011 XXXY=             -2.8779
 XXXZ=              0.0000 YYYX=            -53.9246 YYYZ=              0.0000 ZZZX=              0.0000
 ZZZY=              0.0000 XXYY=            -71.6130 XXZZ=            -16.9300 YYZZ=            -78.7091
 XXYZ=              0.0000 YYXZ=              0.0000 ZZXY=              0.7895
 N-N= 1.482769905491D+02 E-N=-7.234068080202D+03  KE= 2.899946514010D+03
 Symmetry A'   KE= 2.484057437215D+03
 Symmetry A"   KE= 4.158890767950D+02
 No NMR shielding tensors so no spin-rotation constants.
 Leave Link  601 at Mon May 11 17:28:18 2020, MaxMem= 1073741824 cpu:       1.1
 (Enter /home/matheus/.gaussian/g09/l122.exe)
 Counterpoise: doing DCBS calculation for fragment   1 NewBq=T
 Leave Link  122 at Mon May 11 17:28:18 2020, MaxMem= 1073741824 cpu:       0.0
 (Enter /home/matheus/.gaussian/g09/l301.exe)
 Basis read from rwf:  (5D, 7F)
 No pseudopotential information found on rwf file.
 There are   131 symmetry adapted basis functions of A'  symmetry.
 There are    66 symmetry adapted basis functions of A"  symmetry.
 Integral buffers will be    131072 words long.
 Raffenetti 2 integral format.
 Two-electron integral symmetry is turned on.
   197 basis functions,   415 primitive gaussians,   229 cartesian basis functions
     9 alpha electrons        9 beta electrons
       nuclear repulsion energy        36.6006188945 Hartrees.
 IExCor=10402 DFT=T Ex=LC-B+HF Corr=LYP ExCW=0 ScaHFX=  1.000000
 ScaDFX=  1.000000  1.000000  1.000000  1.000000 ScalE2=  1.000000  1.000000
 IRadAn=      5 IRanWt=     -1 IRanGd=            0 ICorTp=0
  HFx wShort=  0.000000 wLong=  1.350000 cFull=  0.000000 cShort=  0.000000 cLong=  1.000000
  DFx wShort=  0.000000 wLong=  1.350000 cFull=  0.000000 cShort=  0.000000 cLong=  1.000000
 NAtoms=    5 NActive=    5 NUniq=    5 SFac= 1.00D+00 NAtFMM=   60 NAOKFM=F Big=F
 No density basis found on file   718.
 Leave Link  301 at Mon May 11 17:28:18 2020, MaxMem= 1073741824 cpu:       0.2
 (Enter /home/matheus/.gaussian/g09/l302.exe)
 NPDir=0 NMtPBC=     1 NCelOv=     1 NCel=       1 NClECP=     1 NCelD=      1
         NCelK=      1 NCelE2=     1 NClLst=     1 CellRange=     0.0.
 One-electron integrals computed using PRISM.
 NBasis=   197 RedAO= T  NBF=   131    66
 NBsUse=   197 1.00D-06 NBFU=   131    66
 Precomputing XC quadrature grid using
 IXCGrd= 2 IRadAn=           5 IRanWt=          -1 IRanGd=           0 AccXCQ= 0.00D+00.
 NRdTot=     427 NPtTot=      123814 NUsed=      126881 NTot=      126913
 NSgBfM=   229   229   229   229   229 NAtAll=     5     5.
 Leave Link  302 at Mon May 11 17:28:18 2020, MaxMem= 1073741824 cpu:       0.9
 (Enter /home/matheus/.gaussian/g09/l303.exe)
 DipDrv:  MaxL=1.
 Leave Link  303 at Mon May 11 17:28:19 2020, MaxMem= 1073741824 cpu:       0.2
 (Enter /home/matheus/.gaussian/g09/l401.exe)
 Harris functional with IExCor=10402 diagonalized for initial guess.
 ExpMin= 2.53D-02 ExpMax= 1.17D+07 ExpMxC= 1.33D+04 IAcc=3 IRadAn=         5 AccDes= 0.00D+00
 HarFok:  IExCor=10402 AccDes= 0.00D+00 IRadAn=         5 IDoV= 1
 ScaDFX=  1.000000  1.000000  1.000000  1.000000
 FoFCou: FMM=F IPFlag=           0 FMFlag=      100000 FMFlg1=           0
         NFxFlg=           0 DoJE=T BraDBF=F KetDBF=T FulRan=T
         Omega=  0.000000  0.000000  1.000000  0.000000  0.000000 ICntrl=     500 IOpCl=  0
         NMat0=    1 NMatS0=    1 NMatT0=    0 NMatD0=    1 NMtDS0=    0 NMtDT0=    0
         I1Cent=           4 NGrid=           0.
 Petite list used in FoFCou.
 Harris En= -143.238796629287    
 Initial guess orbital symmetries:
       Occupied  (A') (A') (A') (A') (A') (A') (A") (A') (A')
       Virtual   (A') (A') (A") (A') (A") (A') (A') (A') (A') (A")
                 (A') (A") (A') (A") (A') (A') (A') (A") (A') (A')
                 (A") (A') (A') (A') (A") (A') (A') (A") (A') (A')
                 (A') (A') (A') (A") (A") (A') (A') (A") (A') (A")
                 (A') (A') (A') (A") (A") (A') (A') (A") (A') (A')
                 (A') (A") (A') (A") (A') (A') (A') (A") (A") (A')
                 (A') (A") (A') (A') (A") (A') (A") (A') (A") (A')
                 (A') (A') (A') (A") (A") (A') (A") (A') (A') (A')
                 (A') (A") (A') (A') (A") (A') (A') (A") (A") (A')
                 (A') (A") (A') (A') (A') (A") (A') (A') (A") (A")
                 (A') (A") (A') (A') (A') (A') (A") (A') (A") (A')
                 (A') (A') (A') (A") (A') (A') (A") (A") (A') (A")
                 (A') (A') (A") (A') (A") (A") (A') (A') (A") (A")
                 (A') (A') (A") (A") (A') (A') (A') (A') (A') (A')
                 (A') (A') (A") (A") (A') (A') (A') (A") (A') (A')
                 (A") (A') (A") (A') (A") (A") (A') (A") (A") (A")
                 (A") (A') (A') (A') (A') (A") (A') (A') (A') (A')
                 (A') (A') (A') (A') (A') (A") (A') (A') (A") (A')
                 (A") (A') (A') (A') (A") (A') (A') (A')
 The electronic state of the initial guess is 1-A'.
 Leave Link  401 at Mon May 11 17:28:19 2020, MaxMem= 1073741824 cpu:       2.4
 (Enter /home/matheus/.gaussian/g09/l502.exe)
 Closed shell SCF:
 Requested convergence on RMS density matrix=1.00D-08 within 128 cycles.
 Requested convergence on MAX density matrix=1.00D-06.
 Requested convergence on             energy=1.00D-06.
 No special actions if energy rises.
 Using DIIS extrapolation, IDIIS=  1040.
 Integral symmetry usage will be decided dynamically.
       126823 words used for storage of precomputed grid.
 IEnd=      305835 IEndB=      305835 NGot=  1073741824 MDV=  1073505300
 LenX=  1073505300 LenY=  1073452418
 Fock matrices will be formed incrementally for  20 cycles.

 Cycle   1  Pass 1  IDiag  1:
 FoFJK:  IHMeth= 1 ICntrl=     0 DoSepK=T KAlg= 1 I1Cent= 0 FoldK=F
 FoFCou: FMM=F IPFlag=           0 FMFlag=      100000 FMFlg1=           0
         NFxFlg=           0 DoJE=T BraDBF=F KetDBF=F FulRan=T
         Omega=  0.000000  0.000000  1.000000  0.000000  0.000000 ICntrl=     500 IOpCl=  0
         NMat0=    1 NMatS0=    1 NMatT0=    0 NMatD0=    1 NMtDS0=    0 NMtDT0=    0
         I1Cent=           0 NGrid=           0.
 Petite list used in FoFCou.
 E= -146.125031792741    
 DIIS: error= 1.43D-01 at cycle   1 NSaved=   1.
 NSaved= 1 IEnMin= 1 EnMin= -146.125031792741     IErMin= 1 ErrMin= 1.43D-01
 ErrMax= 1.43D-01 EMaxC= 1.00D-01 BMatC= 2.92D+00 BMatP= 2.92D+00
 IDIUse=3 WtCom= 0.00D+00 WtEn= 1.00D+00
 Coeff-Com:  0.100D+01
 Coeff-En:   0.100D+01
 Coeff:      0.100D+01
 Gap=    -0.876 Goal=   None    Shift=    0.000
 GapD=   -0.876 DampG=0.250 DampE=0.250 DampFc=0.2500 IDamp=-1.
 Damping current iteration by 2.50D-01
 RMSDP=8.19D-02 MaxDP=6.44D+00              OVMax= 9.87D-01

 Cycle   2  Pass 1  IDiag  1:
 RMSU=  1.81D-03    CP:  7.53D-01
 FoFJK:  IHMeth= 1 ICntrl=     0 DoSepK=T KAlg= 1 I1Cent= 0 FoldK=F
 E= -148.057297418561     Delta-E=       -1.932265625821 Rises=F Damp=T
 DIIS: error= 7.74D-02 at cycle   2 NSaved=   2.
 NSaved= 2 IEnMin= 2 EnMin= -148.057297418561     IErMin= 2 ErrMin= 7.74D-02
 ErrMax= 7.74D-02 EMaxC= 1.00D-01 BMatC= 7.98D-01 BMatP= 2.92D+00
 IDIUse=3 WtCom= 2.26D-01 WtEn= 7.74D-01
 Coeff-Com: -0.101D+01 0.201D+01
 Coeff-En:   0.000D+00 0.100D+01
 Coeff:     -0.227D+00 0.123D+01
 Gap=     0.347 Goal=   None    Shift=    0.000
 RMSDP=6.14D-02 MaxDP=4.83D+00 DE=-1.93D+00 OVMax= 1.07D-01

 Cycle   3  Pass 1  IDiag  1:
 RMSU=  2.07D-03    CP:  1.08D-02  3.00D+00
 FoFJK:  IHMeth= 1 ICntrl=     0 DoSepK=T KAlg= 1 I1Cent= 0 FoldK=F
 E= -150.501632766610     Delta-E=       -2.444335348049 Rises=F Damp=F
 DIIS: error= 6.01D-02 at cycle   3 NSaved=   3.
 NSaved= 3 IEnMin= 3 EnMin= -150.501632766610     IErMin= 3 ErrMin= 6.01D-02
 ErrMax= 6.01D-02 EMaxC= 1.00D-01 BMatC= 1.04D+00 BMatP= 7.98D-01
 IDIUse=2 WtCom= 0.00D+00 WtEn= 1.00D+00
 Coeff-En:   0.275D-01 0.000D+00 0.973D+00
 Coeff:      0.275D-01 0.000D+00 0.973D+00
 Gap=     0.370 Goal=   None    Shift=    0.000
 RMSDP=3.96D-03 MaxDP=1.44D-01 DE=-2.44D+00 OVMax= 2.89D-01

 Cycle   4  Pass 1  IDiag  1:
 RMSU=  2.78D-03    CP:  1.16D-02  3.00D+00  1.17D+00
 FoFJK:  IHMeth= 1 ICntrl=     0 DoSepK=T KAlg= 1 I1Cent= 0 FoldK=F
 E= -150.974071884086     Delta-E=       -0.472439117476 Rises=F Damp=F
 DIIS: error= 3.85D-02 at cycle   4 NSaved=   4.
 NSaved= 4 IEnMin= 4 EnMin= -150.974071884086     IErMin= 4 ErrMin= 3.85D-02
 ErrMax= 3.85D-02 EMaxC= 1.00D-01 BMatC= 3.69D-01 BMatP= 7.98D-01
 IDIUse=3 WtCom= 6.15D-01 WtEn= 3.85D-01
 Coeff-Com: -0.439D+00 0.728D+00 0.176D+00 0.535D+00
 Coeff-En:   0.000D+00 0.000D+00 0.120D+00 0.880D+00
 Coeff:     -0.270D+00 0.448D+00 0.155D+00 0.667D+00
 Gap=     0.573 Goal=   None    Shift=    0.000
 RMSDP=1.77D-03 MaxDP=5.27D-02 DE=-4.72D-01 OVMax= 1.41D-01

 Cycle   5  Pass 1  IDiag  1:
 RMSU=  3.81D-04    CP:  1.09D-02  3.00D+00  1.20D+00  5.71D-01
 FoFJK:  IHMeth= 1 ICntrl=     0 DoSepK=T KAlg= 1 I1Cent= 0 FoldK=F
 E= -151.187083302975     Delta-E=       -0.213011418888 Rises=F Damp=F
 DIIS: error= 1.16D-02 at cycle   5 NSaved=   5.
 NSaved= 5 IEnMin= 5 EnMin= -151.187083302975     IErMin= 5 ErrMin= 1.16D-02
 ErrMax= 1.16D-02 EMaxC= 1.00D-01 BMatC= 3.37D-02 BMatP= 3.69D-01
 IDIUse=3 WtCom= 8.84D-01 WtEn= 1.16D-01
 Coeff-Com: -0.926D-01 0.164D+00-0.147D+00 0.905D-01 0.985D+00
 Coeff-En:   0.000D+00 0.000D+00 0.000D+00 0.000D+00 0.100D+01
 Coeff:     -0.818D-01 0.145D+00-0.130D+00 0.799D-01 0.987D+00
 Gap=     0.549 Goal=   None    Shift=    0.000
 RMSDP=4.40D-04 MaxDP=1.58D-02 DE=-2.13D-01 OVMax= 2.98D-02

 Cycle   6  Pass 1  IDiag  1:
 RMSU=  8.82D-05    CP:  1.11D-02  3.00D+00  1.21D+00  6.77D-01  1.11D+00
 FoFJK:  IHMeth= 1 ICntrl=     0 DoSepK=T KAlg= 1 I1Cent= 0 FoldK=F
 E= -151.210001270375     Delta-E=       -0.022917967400 Rises=F Damp=F
 DIIS: error= 1.72D-03 at cycle   6 NSaved=   6.
 NSaved= 6 IEnMin= 6 EnMin= -151.210001270375     IErMin= 6 ErrMin= 1.72D-03
 ErrMax= 1.72D-03 EMaxC= 1.00D-01 BMatC= 5.02D-04 BMatP= 3.37D-02
 IDIUse=3 WtCom= 9.83D-01 WtEn= 1.72D-02
 Coeff-Com: -0.310D-01 0.595D-01 0.151D-01-0.532D-01-0.433D+00 0.144D+01
 Coeff-En:   0.000D+00 0.000D+00 0.000D+00 0.000D+00 0.000D+00 0.100D+01
 Coeff:     -0.305D-01 0.585D-01 0.149D-01-0.523D-01-0.426D+00 0.144D+01
 Gap=     0.513 Goal=   None    Shift=    0.000
 RMSDP=8.40D-05 MaxDP=2.19D-03 DE=-2.29D-02 OVMax= 6.83D-03

 Cycle   7  Pass 1  IDiag  1:
 RMSU=  2.26D-05    CP:  1.12D-02  3.00D+00  1.21D+00  6.85D-01  1.18D+00
                    CP:  1.48D+00
 FoFJK:  IHMeth= 1 ICntrl=     0 DoSepK=T KAlg= 1 I1Cent= 0 FoldK=F
 E= -151.210468827493     Delta-E=       -0.000467557119 Rises=F Damp=F
 DIIS: error= 1.01D-03 at cycle   7 NSaved=   7.
 NSaved= 7 IEnMin= 7 EnMin= -151.210468827493     IErMin= 7 ErrMin= 1.01D-03
 ErrMax= 1.01D-03 EMaxC= 1.00D-01 BMatC= 1.77D-04 BMatP= 5.02D-04
 IDIUse=3 WtCom= 9.90D-01 WtEn= 1.01D-02
 Coeff-Com: -0.764D-02 0.141D-01 0.886D-02 0.378D-02-0.115D+00-0.207D+00
 Coeff-Com:  0.130D+01
 Coeff-En:   0.000D+00 0.000D+00 0.000D+00 0.000D+00 0.000D+00 0.000D+00
 Coeff-En:   0.100D+01
 Coeff:     -0.756D-02 0.140D-01 0.877D-02 0.374D-02-0.113D+00-0.205D+00
 Coeff:      0.130D+01
 Gap=     0.510 Goal=   None    Shift=    0.000
 RMSDP=5.10D-05 MaxDP=1.32D-03 DE=-4.68D-04 OVMax= 3.98D-03

 Cycle   8  Pass 1  IDiag  1:
 RMSU=  9.36D-06    CP:  1.12D-02  3.00D+00  1.20D+00  6.94D-01  1.18D+00
                    CP:  1.68D+00  1.67D+00
 FoFJK:  IHMeth= 1 ICntrl=     0 DoSepK=T KAlg= 1 I1Cent= 0 FoldK=F
 E= -151.210636300671     Delta-E=       -0.000167473178 Rises=F Damp=F
 DIIS: error= 2.59D-04 at cycle   8 NSaved=   8.
 NSaved= 8 IEnMin= 8 EnMin= -151.210636300671     IErMin= 8 ErrMin= 2.59D-04
 ErrMax= 2.59D-04 EMaxC= 1.00D-01 BMatC= 8.56D-06 BMatP= 1.77D-04
 IDIUse=3 WtCom= 9.97D-01 WtEn= 2.59D-03
 Coeff-Com: -0.364D-02 0.643D-02 0.762D-03 0.676D-02-0.609D-02-0.177D+00
 Coeff-Com:  0.376D+00 0.797D+00
 Coeff-En:   0.000D+00 0.000D+00 0.000D+00 0.000D+00 0.000D+00 0.000D+00
 Coeff-En:   0.000D+00 0.100D+01
 Coeff:     -0.363D-02 0.641D-02 0.760D-03 0.675D-02-0.607D-02-0.177D+00
 Coeff:      0.375D+00 0.797D+00
 Gap=     0.510 Goal=   None    Shift=    0.000
 RMSDP=1.02D-05 MaxDP=3.09D-04 DE=-1.67D-04 OVMax= 6.30D-04

 Cycle   9  Pass 1  IDiag  1:
 RMSU=  3.40D-06    CP:  1.12D-02  3.00D+00  1.20D+00  6.96D-01  1.17D+00
                    CP:  1.70D+00  1.83D+00  1.18D+00
 FoFJK:  IHMeth= 1 ICntrl=     0 DoSepK=T KAlg= 1 I1Cent= 0 FoldK=F
 E= -151.210643414072     Delta-E=       -0.000007113401 Rises=F Damp=F
 DIIS: error= 7.73D-05 at cycle   9 NSaved=   9.
 NSaved= 9 IEnMin= 9 EnMin= -151.210643414072     IErMin= 9 ErrMin= 7.73D-05
 ErrMax= 7.73D-05 EMaxC= 1.00D-01 BMatC= 1.57D-06 BMatP= 8.56D-06
 IDIUse=1 WtCom= 1.00D+00 WtEn= 0.00D+00
 Coeff-Com: -0.917D-03 0.149D-02-0.145D-02 0.262D-02 0.177D-01-0.310D-01
 Coeff-Com: -0.120D+00 0.246D+00 0.885D+00
 Coeff:     -0.917D-03 0.149D-02-0.145D-02 0.262D-02 0.177D-01-0.310D-01
 Coeff:     -0.120D+00 0.246D+00 0.885D+00
 Gap=     0.509 Goal=   None    Shift=    0.000
 RMSDP=5.41D-06 MaxDP=1.29D-04 DE=-7.11D-06 OVMax= 3.28D-04

 Cycle  10  Pass 1  IDiag  1:
 RMSU=  6.92D-07    CP:  1.12D-02  3.00D+00  1.20D+00  6.97D-01  1.17D+00
                    CP:  1.70D+00  1.89D+00  1.38D+00  1.09D+00
 FoFJK:  IHMeth= 1 ICntrl=     0 DoSepK=T KAlg= 1 I1Cent= 0 FoldK=F
 E= -151.210644872483     Delta-E=       -0.000001458411 Rises=F Damp=F
 DIIS: error= 2.03D-05 at cycle  10 NSaved=  10.
 NSaved=10 IEnMin=10 EnMin= -151.210644872483     IErMin=10 ErrMin= 2.03D-05
 ErrMax= 2.03D-05 EMaxC= 1.00D-01 BMatC= 6.48D-08 BMatP= 1.57D-06
 IDIUse=1 WtCom= 1.00D+00 WtEn= 0.00D+00
 Coeff-Com: -0.118D-03 0.211D-03 0.332D-03-0.629D-03-0.576D-02 0.145D-01
 Coeff-Com:  0.170D-01-0.948D-01-0.221D+00 0.129D+01
 Coeff:     -0.118D-03 0.211D-03 0.332D-03-0.629D-03-0.576D-02 0.145D-01
 Coeff:      0.170D-01-0.948D-01-0.221D+00 0.129D+01
 Gap=     0.509 Goal=   None    Shift=    0.000
 RMSDP=1.01D-06 MaxDP=2.97D-05 DE=-1.46D-06 OVMax= 9.46D-05

 Cycle  11  Pass 1  IDiag  1:
 RMSU=  2.39D-07    CP:  1.12D-02  3.00D+00  1.20D+00  6.97D-01  1.17D+00
                    CP:  1.70D+00  1.90D+00  1.40D+00  1.16D+00  1.31D+00
 FoFJK:  IHMeth= 1 ICntrl=     0 DoSepK=T KAlg= 1 I1Cent= 0 FoldK=F
 E= -151.210644934271     Delta-E=       -0.000000061788 Rises=F Damp=F
 DIIS: error= 3.04D-06 at cycle  11 NSaved=  11.
 NSaved=11 IEnMin=11 EnMin= -151.210644934271     IErMin=11 ErrMin= 3.04D-06
 ErrMax= 3.04D-06 EMaxC= 1.00D-01 BMatC= 1.53D-09 BMatP= 6.48D-08
 IDIUse=1 WtCom= 1.00D+00 WtEn= 0.00D+00
 Coeff-Com: -0.722D-06 0.156D-05-0.445D-04 0.138D-03 0.870D-03-0.371D-02
 Coeff-Com: -0.965D-03 0.244D-01 0.439D-01-0.447D+00 0.138D+01
 Coeff:     -0.722D-06 0.156D-05-0.445D-04 0.138D-03 0.870D-03-0.371D-02
 Coeff:     -0.965D-03 0.244D-01 0.439D-01-0.447D+00 0.138D+01
 Gap=     0.509 Goal=   None    Shift=    0.000
 RMSDP=1.70D-07 MaxDP=6.38D-06 DE=-6.18D-08 OVMax= 1.55D-05

 Cycle  12  Pass 1  IDiag  1:
 RMSU=  5.25D-08    CP:  1.12D-02  3.00D+00  1.20D+00  6.97D-01  1.17D+00
                    CP:  1.70D+00  1.90D+00  1.40D+00  1.16D+00  1.34D+00
                    CP:  1.36D+00
 FoFJK:  IHMeth= 1 ICntrl=     0 DoSepK=T KAlg= 1 I1Cent= 0 FoldK=F
 E= -151.210644935931     Delta-E=       -0.000000001660 Rises=F Damp=F
 DIIS: error= 2.22D-07 at cycle  12 NSaved=  12.
 NSaved=12 IEnMin=12 EnMin= -151.210644935931     IErMin=12 ErrMin= 2.22D-07
 ErrMax= 2.22D-07 EMaxC= 1.00D-01 BMatC= 7.36D-12 BMatP= 1.53D-09
 IDIUse=1 WtCom= 1.00D+00 WtEn= 0.00D+00
 Coeff-Com:  0.106D-05-0.135D-05 0.599D-05-0.177D-04-0.110D-03 0.682D-03
 Coeff-Com: -0.847D-04-0.411D-02-0.755D-02 0.847D-01-0.329D+00 0.126D+01
 Coeff:      0.106D-05-0.135D-05 0.599D-05-0.177D-04-0.110D-03 0.682D-03
 Coeff:     -0.847D-04-0.411D-02-0.755D-02 0.847D-01-0.329D+00 0.126D+01
 Gap=     0.509 Goal=   None    Shift=    0.000
 RMSDP=2.21D-08 MaxDP=5.32D-07 DE=-1.66D-09 OVMax= 1.78D-06

 Cycle  13  Pass 1  IDiag  1:
 RMSU=  6.17D-09    CP:  1.12D-02  3.00D+00  1.20D+00  6.97D-01  1.17D+00
                    CP:  1.70D+00  1.90D+00  1.40D+00  1.16D+00  1.34D+00
                    CP:  1.37D+00  1.22D+00
 FoFJK:  IHMeth= 1 ICntrl=     0 DoSepK=T KAlg= 1 I1Cent= 0 FoldK=F
 E= -151.210644935990     Delta-E=       -0.000000000059 Rises=F Damp=F
 DIIS: error= 3.33D-08 at cycle  13 NSaved=  13.
 NSaved=13 IEnMin=13 EnMin= -151.210644935990     IErMin=13 ErrMin= 3.33D-08
 ErrMax= 3.33D-08 EMaxC= 1.00D-01 BMatC= 1.77D-13 BMatP= 7.36D-12
 IDIUse=1 WtCom= 1.00D+00 WtEn= 0.00D+00
 Coeff-Com:  0.364D-06-0.690D-06-0.402D-07 0.430D-06 0.152D-05-0.840D-04
 Coeff-Com:  0.757D-04 0.475D-03 0.767D-03-0.987D-02 0.505D-01-0.341D+00
 Coeff-Com:  0.130D+01
 Coeff:      0.364D-06-0.690D-06-0.402D-07 0.430D-06 0.152D-05-0.840D-04
 Coeff:      0.757D-04 0.475D-03 0.767D-03-0.987D-02 0.505D-01-0.341D+00
 Coeff:      0.130D+01
 Gap=     0.509 Goal=   None    Shift=    0.000
 RMSDP=3.92D-09 MaxDP=1.93D-07 DE=-5.93D-11 OVMax= 3.62D-07

 SCF Done:  E(RLC-B+HF-LYP) =  -151.210644936     A.U. after   13 cycles
             Convg  =    0.3920D-08             -V/T =  2.0063
 KE= 1.502618052335D+02 PE=-4.315441290835D+02 EE= 9.347106001954D+01
 Leave Link  502 at Mon May 11 17:28:53 2020, MaxMem= 1073741824 cpu:     274.1
 (Enter /home/matheus/.gaussian/g09/l601.exe)
 Copying SCF densities to generalized density rwf, IOpCl= 0 IROHF=0.

 **********************************************************************

            Population analysis using the SCF density.

 **********************************************************************

 Orbital symmetries:
       Occupied  (A') (A') (A') (A') (A') (A') (A") (A') (A")
       Virtual   (A') (A') (A') (A") (A') (A') (A') (A') (A') (A")
                 (A") (A') (A') (A') (A") (A') (A') (A") (A') (A')
                 (A') (A") (A') (A') (A') (A") (A') (A') (A") (A')
                 (A') (A') (A') (A") (A') (A") (A') (A") (A') (A")
                 (A') (A') (A") (A') (A") (A') (A') (A") (A') (A')
                 (A') (A") (A') (A') (A") (A') (A") (A') (A") (A')
                 (A') (A") (A') (A') (A") (A') (A") (A") (A') (A')
                 (A') (A') (A') (A") (A") (A') (A") (A') (A') (A')
                 (A") (A') (A') (A') (A") (A') (A') (A") (A") (A')
                 (A') (A") (A') (A') (A') (A") (A') (A') (A") (A')
                 (A") (A") (A') (A') (A') (A') (A") (A') (A") (A')
                 (A') (A') (A') (A") (A') (A') (A") (A") (A') (A")
                 (A') (A') (A") (A') (A") (A") (A') (A') (A") (A")
                 (A') (A') (A") (A') (A") (A') (A') (A') (A') (A')
                 (A') (A') (A") (A") (A') (A') (A') (A") (A') (A')
                 (A") (A') (A") (A') (A") (A') (A") (A") (A") (A")
                 (A") (A') (A') (A') (A') (A") (A') (A') (A') (A')
                 (A') (A') (A') (A') (A') (A") (A') (A') (A") (A')
                 (A") (A') (A') (A') (A") (A') (A') (A')
 The electronic state is 1-A'.
 Alpha  occ. eigenvalues --  -19.48227 -19.48198  -1.46060  -1.21516  -0.73582
 Alpha  occ. eigenvalues --   -0.73310  -0.65014  -0.55824  -0.48380
 Alpha virt. eigenvalues --    0.02546   0.03349   0.07070   0.08734   0.10042
 Alpha virt. eigenvalues --    0.10690   0.11929   0.13837   0.16294   0.16371
 Alpha virt. eigenvalues --    0.18872   0.19654   0.22951   0.23596   0.26264
 Alpha virt. eigenvalues --    0.27074   0.29167   0.30778   0.30795   0.33316
 Alpha virt. eigenvalues --    0.36851   0.37277   0.38701   0.39863   0.42159
 Alpha virt. eigenvalues --    0.43267   0.43613   0.48162   0.48495   0.49956
 Alpha virt. eigenvalues --    0.54717   0.57895   0.62873   0.67886   0.70397
 Alpha virt. eigenvalues --    0.71203   0.74907   0.77062   0.77478   0.78458
 Alpha virt. eigenvalues --    0.80315   0.84815   0.87464   0.88118   0.91629
 Alpha virt. eigenvalues --    0.93211   0.94029   0.96277   0.98585   1.01480
 Alpha virt. eigenvalues --    1.02665   1.06606   1.07303   1.11988   1.13485
 Alpha virt. eigenvalues --    1.14998   1.16646   1.17387   1.21073   1.26263
 Alpha virt. eigenvalues --    1.28637   1.29351   1.32371   1.33289   1.33778
 Alpha virt. eigenvalues --    1.34291   1.36827   1.37532   1.37607   1.48332
 Alpha virt. eigenvalues --    1.50419   1.52672   1.57093   1.57352   1.60484
 Alpha virt. eigenvalues --    1.62652   1.67989   1.69206   1.75981   1.84329
 Alpha virt. eigenvalues --    1.90110   1.90547   1.97145   2.07488   2.10249
 Alpha virt. eigenvalues --    2.10814   2.17575   2.24342   2.26700   2.29096
 Alpha virt. eigenvalues --    2.35718   2.40550   2.41412   2.48533   2.54060
 Alpha virt. eigenvalues --    2.59526   2.65531   2.68256   2.68894   2.78136
 Alpha virt. eigenvalues --    2.79075   2.80751   2.85048   3.00940   3.05996
 Alpha virt. eigenvalues --    3.20650   3.23008   3.25130   3.25899   3.31576
 Alpha virt. eigenvalues --    3.43800   3.54524   3.65974   3.78337   3.79272
 Alpha virt. eigenvalues --    3.81120   3.82134   3.82738   3.82846   3.85890
 Alpha virt. eigenvalues --    3.91753   3.93984   3.95480   3.98315   4.02904
 Alpha virt. eigenvalues --    4.04650   4.11433   4.17772   4.25143   4.25731
 Alpha virt. eigenvalues --    4.28267   4.33127   4.36325   4.43447   4.43878
 Alpha virt. eigenvalues --    4.55145   4.59452   4.72539   4.93236   5.07201
 Alpha virt. eigenvalues --    5.21058   5.22719   5.25227   5.26736   5.56434
 Alpha virt. eigenvalues --    5.67029   6.04947   6.21091   6.31503   6.37386
 Alpha virt. eigenvalues --    6.54126   6.61279   6.69886   6.70952   6.97353
 Alpha virt. eigenvalues --    6.98039   6.99258   7.06929   7.10979   7.14891
 Alpha virt. eigenvalues --    7.19049   7.19685   7.20662   7.22413   7.26682
 Alpha virt. eigenvalues --    7.48075   7.50241   7.64166   7.87233   8.09765
 Alpha virt. eigenvalues --    8.38116   8.40487  10.89996  14.38366  14.77481
 Alpha virt. eigenvalues --   14.83139  14.88640  15.12122  29.02897  29.03539
 Alpha virt. eigenvalues --   29.07768  29.13880  29.23239  49.11145 148.31133
 Alpha virt. eigenvalues --  148.38864 148.72088 752.52564
          Condensed to atoms (all electrons):
              1          2          3          4          5
     1  O    8.202101  -0.139655   0.172526  -0.016428  -0.007451
     2  O   -0.139655   8.174415  -0.003182   0.220495   0.000437
     3  H    0.172526  -0.003182   0.610309   0.008117   0.001663
     4  H   -0.016428   0.220495   0.008117   0.544643  -0.003192
     5  Kr  -0.007451   0.000437   0.001663  -0.003192   0.001870
 Mulliken atomic charges:
              1
     1  O   -0.211094
     2  O   -0.252509
     3  H    0.210567
     4  H    0.246364
     5  Kr   0.006672
 Sum of Mulliken atomic charges =   0.00000
 Mulliken charges with hydrogens summed into heavy atoms:
              1
     1  O   -0.000527
     2  O   -0.006145
     5  Kr   0.006672
 Sum of Mulliken charges with hydrogens summed into heavy atoms =   0.00000
          Condensed to fragments (all electrons):
     1      -0.006672
     2       0.006672
 Electronic spatial extent (au):  <R**2>=            323.9917
 Charge=              0.0000 electrons
 Dipole moment (field-independent basis, Debye):
    X=             -0.0007    Y=              0.0001    Z=              0.0000  Tot=              0.0007
 Quadrupole moment (field-independent basis, Debye-Ang):
   XX=            -10.3787   YY=             -8.1747   ZZ=            -12.8292
   XY=             -4.3498   XZ=              0.0000   YZ=              0.0000
 Traceless Quadrupole moment (field-independent basis, Debye-Ang):
   XX=              0.0822   YY=              2.2861   ZZ=             -2.3683
   XY=             -4.3498   XZ=              0.0000   YZ=              0.0000
 Octapole moment (field-independent basis, Debye-Ang**2):
  XXX=             -0.0051  YYY=             49.0476  ZZZ=              0.0000  XYY=             17.4033
  XXY=             20.7576  XXZ=              0.0000  XZZ=             -0.0021  YZZ=             25.6590
  YYZ=              0.0000  XYZ=              0.0000
 Hexadecapole moment (field-independent basis, Debye-Ang**3):
 XXXX=            -44.1715 YYYY=           -205.0189 ZZZZ=            -10.3841 XXXY=             -3.2948
 XXXZ=              0.0000 YYYX=            -54.2928 YYYZ=              0.0000 ZZZX=              0.0000
 ZZZY=              0.0000 XXYY=            -47.9590 XXZZ=            -10.9694 YYZZ=            -55.1987
 XXYZ=              0.0000 YYXZ=              0.0000 ZZXY=              0.6929
 N-N= 3.660061889452D+01 E-N=-4.315441289154D+02  KE= 1.502618052335D+02
 Symmetry A'   KE= 1.403706011683D+02
 Symmetry A"   KE= 9.891204065196D+00
 No NMR shielding tensors so no spin-rotation constants.
 Leave Link  601 at Mon May 11 17:28:53 2020, MaxMem= 1073741824 cpu:       0.9
 (Enter /home/matheus/.gaussian/g09/l122.exe)
 Counterpoise: doing DCBS calculation for fragment   2 NewBq=T
 Leave Link  122 at Mon May 11 17:28:53 2020, MaxMem= 1073741824 cpu:       0.0
 (Enter /home/matheus/.gaussian/g09/l301.exe)
 Basis read from rwf:  (5D, 7F)
 No pseudopotential information found on rwf file.
 There are   131 symmetry adapted basis functions of A'  symmetry.
 There are    66 symmetry adapted basis functions of A"  symmetry.
 Integral buffers will be    131072 words long.
 Raffenetti 2 integral format.
 Two-electron integral symmetry is turned on.
   197 basis functions,   415 primitive gaussians,   229 cartesian basis functions
    18 alpha electrons       18 beta electrons
       nuclear repulsion energy         0.0000000000 Hartrees.
 IExCor=10402 DFT=T Ex=LC-B+HF Corr=LYP ExCW=0 ScaHFX=  1.000000
 ScaDFX=  1.000000  1.000000  1.000000  1.000000 ScalE2=  1.000000  1.000000
 IRadAn=      5 IRanWt=     -1 IRanGd=            0 ICorTp=0
  HFx wShort=  0.000000 wLong=  1.350000 cFull=  0.000000 cShort=  0.000000 cLong=  1.000000
  DFx wShort=  0.000000 wLong=  1.350000 cFull=  0.000000 cShort=  0.000000 cLong=  1.000000
 NAtoms=    5 NActive=    5 NUniq=    5 SFac= 1.00D+00 NAtFMM=   60 NAOKFM=F Big=F
 No density basis found on file   718.
 Leave Link  301 at Mon May 11 17:28:53 2020, MaxMem= 1073741824 cpu:       0.2
 (Enter /home/matheus/.gaussian/g09/l302.exe)
 NPDir=0 NMtPBC=     1 NCelOv=     1 NCel=       1 NClECP=     1 NCelD=      1
         NCelK=      1 NCelE2=     1 NClLst=     1 CellRange=     0.0.
 One-electron integrals computed using PRISM.
 NBasis=   197 RedAO= T  NBF=   131    66
 NBsUse=   197 1.00D-06 NBFU=   131    66
 Precomputing XC quadrature grid using
 IXCGrd= 2 IRadAn=           5 IRanWt=          -1 IRanGd=           0 AccXCQ= 0.00D+00.
 NRdTot=     427 NPtTot=      123814 NUsed=      126881 NTot=      126913
 NSgBfM=   229   229   229   229   229 NAtAll=     5     5.
 Leave Link  302 at Mon May 11 17:28:53 2020, MaxMem= 1073741824 cpu:       0.9
 (Enter /home/matheus/.gaussian/g09/l303.exe)
 DipDrv:  MaxL=1.
 Leave Link  303 at Mon May 11 17:28:54 2020, MaxMem= 1073741824 cpu:       0.2
 (Enter /home/matheus/.gaussian/g09/l401.exe)
 Harris functional with IExCor=10402 diagonalized for initial guess.
 ExpMin= 2.53D-02 ExpMax= 1.17D+07 ExpMxC= 1.33D+04 IAcc=3 IRadAn=         5 AccDes= 0.00D+00
 HarFok:  IExCor=10402 AccDes= 0.00D+00 IRadAn=         5 IDoV= 1
 ScaDFX=  1.000000  1.000000  1.000000  1.000000
 FoFCou: FMM=F IPFlag=           0 FMFlag=      100000 FMFlg1=           0
         NFxFlg=           0 DoJE=T BraDBF=F KetDBF=T FulRan=T
         Omega=  0.000000  0.000000  1.000000  0.000000  0.000000 ICntrl=     500 IOpCl=  0
         NMat0=    1 NMatS0=    1 NMatT0=    0 NMatD0=    1 NMtDS0=    0 NMtDT0=    0
         I1Cent=           4 NGrid=           0.
 Petite list used in FoFCou.
 Harris En= -2731.73456659692    
 Initial guess orbital symmetries:
       Occupied  (A') (A') (A') (A') (A") (A') (A') (A') (A") (A')
                 (A') (A") (A') (A") (A') (A') (A') (A")
       Virtual   (A') (A') (A') (A") (A') (A') (A') (A") (A') (A')
                 (A") (A') (A') (A") (A') (A') (A") (A') (A') (A')
                 (A") (A') (A') (A") (A') (A') (A') (A') (A") (A')
                 (A") (A') (A") (A') (A') (A") (A') (A') (A') (A")
                 (A") (A') (A') (A') (A") (A') (A') (A") (A") (A')
                 (A') (A") (A') (A") (A') (A') (A") (A') (A") (A')
                 (A') (A') (A") (A') (A") (A') (A') (A') (A') (A")
                 (A') (A') (A') (A") (A") (A') (A') (A') (A') (A")
                 (A') (A") (A') (A") (A') (A') (A") (A') (A") (A")
                 (A') (A') (A") (A') (A") (A") (A') (A') (A") (A')
                 (A") (A') (A") (A') (A') (A') (A") (A') (A') (A")
                 (A') (A") (A') (A') (A') (A') (A") (A") (A') (A')
                 (A') (A') (A') (A") (A') (A") (A') (A') (A") (A')
                 (A') (A") (A') (A") (A') (A') (A') (A") (A") (A')
                 (A') (A') (A') (A') (A') (A") (A') (A") (A') (A')
                 (A") (A") (A') (A") (A") (A') (A') (A') (A') (A')
                 (A') (A") (A") (A") (A') (A') (A") (A') (A') (A")
                 (A') (A") (A') (A') (A') (A') (A') (A') (A')
 The electronic state of the initial guess is 1-A'.
 Leave Link  401 at Mon May 11 17:28:54 2020, MaxMem= 1073741824 cpu:       2.4
 (Enter /home/matheus/.gaussian/g09/l502.exe)
 Closed shell SCF:
 Requested convergence on RMS density matrix=1.00D-08 within 128 cycles.
 Requested convergence on MAX density matrix=1.00D-06.
 Requested convergence on             energy=1.00D-06.
 No special actions if energy rises.
 Using DIIS extrapolation, IDIIS=  1040.
 Integral symmetry usage will be decided dynamically.
       126823 words used for storage of precomputed grid.
 IEnd=      305835 IEndB=      305835 NGot=  1073741824 MDV=  1073505300
 LenX=  1073505300 LenY=  1073452418
 Fock matrices will be formed incrementally for  20 cycles.

 Cycle   1  Pass 1  IDiag  1:
 FoFJK:  IHMeth= 1 ICntrl=     0 DoSepK=T KAlg= 1 I1Cent= 0 FoldK=F
 FoFCou: FMM=F IPFlag=           0 FMFlag=      100000 FMFlg1=           0
         NFxFlg=           0 DoJE=T BraDBF=F KetDBF=F FulRan=T
         Omega=  0.000000  0.000000  1.000000  0.000000  0.000000 ICntrl=     500 IOpCl=  0
         NMat0=    1 NMatS0=    1 NMatT0=    0 NMatD0=    1 NMtDS0=    0 NMtDT0=    0
         I1Cent=           0 NGrid=           0.
 Petite list used in FoFCou.
 E= -2752.71037681669    
 DIIS: error= 5.30D-02 at cycle   1 NSaved=   1.
 NSaved= 1 IEnMin= 1 EnMin= -2752.71037681669     IErMin= 1 ErrMin= 5.30D-02
 ErrMax= 5.30D-02 EMaxC= 1.00D-01 BMatC= 1.18D+00 BMatP= 1.18D+00
 IDIUse=3 WtCom= 4.70D-01 WtEn= 5.30D-01
 Coeff-Com:  0.100D+01
 Coeff-En:   0.100D+01
 Coeff:      0.100D+01
 Gap=     0.767 Goal=   None    Shift=    0.000
 GapD=    0.767 DampG=2.000 DampE=0.500 DampFc=1.0000 IDamp=-1.
 RMSDP=4.98D-03 MaxDP=2.25D-01              OVMax= 3.36D-01

 Cycle   2  Pass 1  IDiag  1:
 RMSU=  3.44D-03    CP:  1.05D+00
 FoFJK:  IHMeth= 1 ICntrl=     0 DoSepK=T KAlg= 1 I1Cent= 0 FoldK=F
 E= -2753.27699327558     Delta-E=       -0.566616458895 Rises=F Damp=F
 DIIS: error= 3.31D-02 at cycle   2 NSaved=   2.
 NSaved= 2 IEnMin= 2 EnMin= -2753.27699327558     IErMin= 2 ErrMin= 3.31D-02
 ErrMax= 3.31D-02 EMaxC= 1.00D-01 BMatC= 3.64D-01 BMatP= 1.18D+00
 IDIUse=3 WtCom= 6.69D-01 WtEn= 3.31D-01
 Coeff-Com:  0.351D+00 0.649D+00
 Coeff-En:   0.000D+00 0.100D+01
 Coeff:      0.235D+00 0.765D+00
 Gap=     0.597 Goal=   None    Shift=    0.000
 RMSDP=2.27D-03 MaxDP=1.36D-01 DE=-5.67D-01 OVMax= 7.53D-02

 Cycle   3  Pass 1  IDiag  1:
 RMSU=  8.78D-04    CP:  1.03D+00  6.19D-01
 FoFJK:  IHMeth= 1 ICntrl=     0 DoSepK=T KAlg= 1 I1Cent= 0 FoldK=F
 E= -2753.40686919691     Delta-E=       -0.129875921325 Rises=F Damp=F
 DIIS: error= 5.21D-03 at cycle   3 NSaved=   3.
 NSaved= 3 IEnMin= 3 EnMin= -2753.40686919691     IErMin= 3 ErrMin= 5.21D-03
 ErrMax= 5.21D-03 EMaxC= 1.00D-01 BMatC= 9.18D-03 BMatP= 3.64D-01
 IDIUse=3 WtCom= 9.48D-01 WtEn= 5.21D-02
 Coeff-Com: -0.102D-01 0.114D+00 0.896D+00
 Coeff-En:   0.000D+00 0.000D+00 0.100D+01
 Coeff:     -0.963D-02 0.108D+00 0.902D+00
 Gap=     0.574 Goal=   None    Shift=    0.000
 RMSDP=3.84D-04 MaxDP=1.91D-02 DE=-1.30D-01 OVMax= 1.11D-02

 Cycle   4  Pass 1  IDiag  1:
 RMSU=  2.30D-04    CP:  1.03D+00  6.58D-01  9.56D-01
 FoFJK:  IHMeth= 1 ICntrl=     0 DoSepK=T KAlg= 1 I1Cent= 0 FoldK=F
 E= -2753.40946404021     Delta-E=       -0.002594843304 Rises=F Damp=F
 DIIS: error= 3.30D-04 at cycle   4 NSaved=   4.
 NSaved= 4 IEnMin= 4 EnMin= -2753.40946404021     IErMin= 4 ErrMin= 3.30D-04
 ErrMax= 3.30D-04 EMaxC= 1.00D-01 BMatC= 2.88D-05 BMatP= 9.18D-03
 IDIUse=3 WtCom= 9.97D-01 WtEn= 3.30D-03
 Coeff-Com: -0.683D-02-0.542D-02 0.452D-02 0.101D+01
 Coeff-En:   0.000D+00 0.000D+00 0.000D+00 0.100D+01
 Coeff:     -0.681D-02-0.540D-02 0.451D-02 0.101D+01
 Gap=     0.580 Goal=   None    Shift=    0.000
 RMSDP=4.98D-05 MaxDP=2.21D-03 DE=-2.59D-03 OVMax= 3.41D-03

 Cycle   5  Pass 1  IDiag  1:
 RMSU=  2.16D-05    CP:  1.03D+00  6.61D-01  9.79D-01  1.07D+00
 FoFJK:  IHMeth= 1 ICntrl=     0 DoSepK=T KAlg= 1 I1Cent= 0 FoldK=F
 E= -2753.40952095951     Delta-E=       -0.000056919294 Rises=F Damp=F
 DIIS: error= 4.74D-05 at cycle   5 NSaved=   5.
 NSaved= 5 IEnMin= 5 EnMin= -2753.40952095951     IErMin= 5 ErrMin= 4.74D-05
 ErrMax= 4.74D-05 EMaxC= 1.00D-01 BMatC= 5.02D-07 BMatP= 2.88D-05
 IDIUse=1 WtCom= 1.00D+00 WtEn= 0.00D+00
 Coeff-Com: -0.899D-04-0.126D-02 0.409D-03-0.166D+00 0.117D+01
 Coeff:     -0.899D-04-0.126D-02 0.409D-03-0.166D+00 0.117D+01
 Gap=     0.579 Goal=   None    Shift=    0.000
 RMSDP=1.07D-05 MaxDP=4.38D-04 DE=-5.69D-05 OVMax= 6.35D-04

 Cycle   6  Pass 1  IDiag  1:
 RMSU=  1.03D-06    CP:  1.03D+00  6.61D-01  9.84D-01  1.09D+00  1.20D+00
 FoFJK:  IHMeth= 1 ICntrl=     0 DoSepK=T KAlg= 1 I1Cent= 0 FoldK=F
 E= -2753.40952237817     Delta-E=       -0.000001418662 Rises=F Damp=F
 DIIS: error= 1.67D-06 at cycle   6 NSaved=   6.
 NSaved= 6 IEnMin= 6 EnMin= -2753.40952237817     IErMin= 6 ErrMin= 1.67D-06
 ErrMax= 1.67D-06 EMaxC= 1.00D-01 BMatC= 1.01D-09 BMatP= 5.02D-07
 IDIUse=1 WtCom= 1.00D+00 WtEn= 0.00D+00
 Coeff-Com:  0.248D-04 0.976D-04-0.294D-03 0.122D-01-0.116D+00 0.110D+01
 Coeff:      0.248D-04 0.976D-04-0.294D-03 0.122D-01-0.116D+00 0.110D+01
 Gap=     0.579 Goal=   None    Shift=    0.000
 RMSDP=5.41D-07 MaxDP=2.36D-05 DE=-1.42D-06 OVMax= 2.39D-05

 Cycle   7  Pass 1  IDiag  1:
 RMSU=  6.23D-08    CP:  1.03D+00  6.61D-01  9.84D-01  1.09D+00  1.21D+00
                    CP:  1.13D+00
 FoFJK:  IHMeth= 1 ICntrl=     0 DoSepK=T KAlg= 1 I1Cent= 0 FoldK=F
 E= -2753.40952237894     Delta-E=       -0.000000000772 Rises=F Damp=F
 DIIS: error= 1.62D-07 at cycle   7 NSaved=   7.
 NSaved= 7 IEnMin= 7 EnMin= -2753.40952237894     IErMin= 7 ErrMin= 1.62D-07
 ErrMax= 1.62D-07 EMaxC= 1.00D-01 BMatC= 1.09D-11 BMatP= 1.01D-09
 IDIUse=1 WtCom= 1.00D+00 WtEn= 0.00D+00
 Coeff-Com:  0.283D-05 0.295D-05-0.302D-04 0.674D-03-0.339D-02-0.141D-01
 Coeff-Com:  0.102D+01
 Coeff:      0.283D-05 0.295D-05-0.302D-04 0.674D-03-0.339D-02-0.141D-01
 Coeff:      0.102D+01
 Gap=     0.579 Goal=   None    Shift=    0.000
 RMSDP=2.36D-08 MaxDP=1.02D-06 DE=-7.72D-10 OVMax= 1.29D-06

 Cycle   8  Pass 1  IDiag  1:
 RMSU=  9.43D-09    CP:  1.03D+00  6.61D-01  9.84D-01  1.09D+00  1.21D+00
                    CP:  1.14D+00  1.14D+00
 FoFJK:  IHMeth= 1 ICntrl=     0 DoSepK=T KAlg= 1 I1Cent= 0 FoldK=F
 E= -2753.40952237900     Delta-E=       -0.000000000064 Rises=F Damp=F
 DIIS: error= 4.84D-08 at cycle   8 NSaved=   8.
 NSaved= 8 IEnMin= 8 EnMin= -2753.40952237900     IErMin= 8 ErrMin= 4.84D-08
 ErrMax= 4.84D-08 EMaxC= 1.00D-01 BMatC= 4.26D-13 BMatP= 1.09D-11
 IDIUse=1 WtCom= 1.00D+00 WtEn= 0.00D+00
 Coeff-Com:  0.847D-07-0.183D-05 0.133D-05-0.207D-03 0.236D-02-0.276D-01
 Coeff-Com:  0.113D+00 0.912D+00
 Coeff:      0.847D-07-0.183D-05 0.133D-05-0.207D-03 0.236D-02-0.276D-01
 Coeff:      0.113D+00 0.912D+00
 Gap=     0.579 Goal=   None    Shift=    0.000
 RMSDP=4.75D-09 MaxDP=1.55D-07 DE=-6.41D-11 OVMax= 3.27D-07

 SCF Done:  E(RLC-B+HF-LYP) =  -2753.40952238     A.U. after    8 cycles
             Convg  =    0.4750D-08             -V/T =  2.0014
 KE= 2.749634633370D+03 PE=-6.579422170006D+03 EE= 1.076378014257D+03
 Leave Link  502 at Mon May 11 17:29:15 2020, MaxMem= 1073741824 cpu:     172.0
 (Enter /home/matheus/.gaussian/g09/l601.exe)
 Copying SCF densities to generalized density rwf, IOpCl= 0 IROHF=0.

 **********************************************************************

            Population analysis using the SCF density.

 **********************************************************************

 Orbital symmetries:
       Occupied  (A') (A') (A') (A') (A") (A') (A') (A') (A") (A')
                 (A') (A") (A") (A') (A') (A') (A') (A")
       Virtual   (A') (A') (A') (A") (A') (A') (A') (A") (A') (A')
                 (A") (A') (A') (A") (A') (A') (A") (A') (A') (A")
                 (A') (A') (A') (A") (A') (A') (A') (A") (A') (A')
                 (A") (A') (A') (A") (A') (A") (A') (A') (A') (A")
                 (A") (A') (A') (A") (A') (A') (A") (A') (A') (A")
                 (A') (A") (A') (A") (A') (A') (A') (A") (A") (A')
                 (A') (A') (A") (A') (A") (A') (A') (A') (A') (A")
                 (A') (A') (A') (A") (A") (A') (A') (A') (A') (A")
                 (A") (A') (A') (A') (A") (A') (A") (A') (A") (A")
                 (A') (A') (A") (A') (A") (A") (A') (A") (A') (A')
                 (A') (A") (A") (A') (A') (A') (A") (A') (A') (A")
                 (A') (A") (A') (A') (A') (A') (A") (A") (A') (A')
                 (A') (A') (A') (A") (A') (A") (A') (A') (A') (A")
                 (A') (A") (A') (A") (A') (A') (A') (A") (A") (A')
                 (A') (A') (A') (A') (A') (A") (A') (A") (A') (A')
                 (A") (A") (A') (A") (A") (A') (A') (A') (A') (A')
                 (A') (A") (A") (A") (A') (A') (A") (A') (A') (A")
                 (A') (A") (A') (A') (A') (A') (A') (A') (A')
 The electronic state is 1-A'.
 Alpha  occ. eigenvalues -- -511.65511 -67.17993 -60.85190 -60.85187 -60.85186
 Alpha  occ. eigenvalues --  -10.08107  -7.79670  -7.79669  -7.79669  -3.62633
 Alpha  occ. eigenvalues --   -3.62633  -3.62633  -3.62632  -3.62632  -1.17384
 Alpha  occ. eigenvalues --   -0.55371  -0.55367  -0.55365
 Alpha virt. eigenvalues --    0.02583   0.04663   0.07785   0.09317   0.10193
 Alpha virt. eigenvalues --    0.11705   0.12623   0.14066   0.16122   0.16659
 Alpha virt. eigenvalues --    0.17524   0.19183   0.20588   0.26042   0.26917
 Alpha virt. eigenvalues --    0.27534   0.28273   0.33050   0.34023   0.35843
 Alpha virt. eigenvalues --    0.35888   0.36606   0.37885   0.39369   0.41584
 Alpha virt. eigenvalues --    0.43148   0.43623   0.54721   0.55683   0.58967
 Alpha virt. eigenvalues --    0.62036   0.64434   0.67692   0.68422   0.70376
 Alpha virt. eigenvalues --    0.75655   0.75888   0.77944   0.79579   0.80585
 Alpha virt. eigenvalues --    0.82351   0.82604   0.85638   0.85921   0.86196
 Alpha virt. eigenvalues --    0.87742   0.89164   0.89195   0.93993   0.95252
 Alpha virt. eigenvalues --    0.98918   1.01294   1.01928   1.04757   1.06320
 Alpha virt. eigenvalues --    1.08140   1.12343   1.12355   1.13380   1.16134
 Alpha virt. eigenvalues --    1.16703   1.20504   1.22620   1.27016   1.28678
 Alpha virt. eigenvalues --    1.34488   1.36102   1.43268   1.46268   1.48736
 Alpha virt. eigenvalues --    1.59337   1.63307   1.72056   1.74018   1.76943
 Alpha virt. eigenvalues --    1.82379   1.85826   1.87643   1.89654   2.23831
 Alpha virt. eigenvalues --    2.29506   2.31543   2.34978   2.35548   2.36597
 Alpha virt. eigenvalues --    2.37544   2.42305   2.45015   2.46148   2.47667
 Alpha virt. eigenvalues --    2.47789   2.52255   2.52874   2.54504   2.56198
 Alpha virt. eigenvalues --    2.59397   2.59639   2.62704   2.63403   2.63683
 Alpha virt. eigenvalues --    2.66331   2.66385   2.71054   2.71777   2.72883
 Alpha virt. eigenvalues --    2.76187   2.77662   2.85478   2.87461   2.88651
 Alpha virt. eigenvalues --    2.93800   3.02737   3.07710   3.11282   3.15182
 Alpha virt. eigenvalues --    3.24861   3.25171   3.27935   3.35186   3.52681
 Alpha virt. eigenvalues --    3.59059   3.63884   3.84658   3.86789   4.02793
 Alpha virt. eigenvalues --    4.42070   4.43581   4.56006   4.60585   4.61828
 Alpha virt. eigenvalues --    4.74401   4.90506   4.92083   4.92657   5.03487
 Alpha virt. eigenvalues --    5.11659   5.14199   5.58871   5.65695   5.83717
 Alpha virt. eigenvalues --    5.86303   5.94757   6.22068   6.83598   6.95240
 Alpha virt. eigenvalues --    7.25054   7.42115   7.59372   7.65156   7.75027
 Alpha virt. eigenvalues --    7.77289   8.09092   8.09248   8.15885   8.25324
 Alpha virt. eigenvalues --    8.32485   8.37084   8.68598   8.89351   9.64032
 Alpha virt. eigenvalues --    9.70379   9.76166   9.82358   9.94929  10.05833
 Alpha virt. eigenvalues --   10.17846  10.19083  10.49228  10.92659  11.41158
 Alpha virt. eigenvalues --   11.55796  11.60870  12.02576  12.13891  13.20961
 Alpha virt. eigenvalues --   13.69331  14.52531  62.95669  64.51402
          Condensed to atoms (all electrons):
              1          2          3          4          5
     1  O    0.003854  -0.003439  -0.001813   0.001758  -0.009489
     2  O   -0.003439   0.007633   0.001334  -0.004586  -0.005068
     3  H   -0.001813   0.001334   0.001064  -0.000575   0.001059
     4  H    0.001758  -0.004586  -0.000575   0.004329  -0.021463
     5  Kr  -0.009489  -0.005068   0.001059  -0.021463  36.067686
 Mulliken atomic charges:
              1
     1  O    0.009130
     2  O    0.004126
     3  H   -0.001069
     4  H    0.020537
     5  Kr  -0.032725
 Sum of Mulliken atomic charges =   0.00000
 Mulliken charges with hydrogens summed into heavy atoms:
              1
     1  O    0.008061
     2  O    0.024664
     5  Kr  -0.032725
 Sum of Mulliken charges with hydrogens summed into heavy atoms =   0.00000
          Condensed to fragments (all electrons):
     1       0.032725
     2      -0.032725
 Electronic spatial extent (au):  <R**2>=            167.7533
 Charge=              0.0000 electrons
 Dipole moment (field-independent basis, Debye):
    X=             -0.0008    Y=             -0.0017    Z=              0.0000  Tot=              0.0018
 Quadrupole moment (field-independent basis, Debye-Ang):
   XX=            -17.5737   YY=            -17.5644   ZZ=            -17.5804
   XY=              0.0046   XZ=              0.0000   YZ=              0.0000
 Traceless Quadrupole moment (field-independent basis, Debye-Ang):
   XX=             -0.0008   YY=              0.0084   ZZ=             -0.0076
   XY=              0.0046   XZ=              0.0000   YZ=              0.0000
 Octapole moment (field-independent basis, Debye-Ang**2):
  XXX=             -0.0037  YYY=            -52.6943  ZZZ=              0.0000  XYY=              0.0101
  XXY=            -17.5762  XXZ=              0.0000  XZZ=             -0.0014  YZZ=            -17.5799
  YYZ=              0.0000  XYZ=              0.0000
 Hexadecapole moment (field-independent basis, Debye-Ang**3):
 XXXX=            -18.0766 YYYY=           -123.4501 ZZZZ=            -18.0992 XXXY=              0.0148
 XXXZ=              0.0000 YYYX=              0.0251 YYYZ=              0.0000 ZZZX=              0.0000
 ZZZY=              0.0000 XXYY=            -23.5965 XXZZ=             -6.0259 YYZZ=            -23.6032
 XXYZ=              0.0000 YYXZ=              0.0000 ZZXY=              0.0060
 N-N= 0.000000000000D+00 E-N=-6.579422162740D+03  KE= 2.749634633370D+03
 Symmetry A'   KE= 2.343629465501D+03
 Symmetry A"   KE= 4.060051678689D+02
 No NMR shielding tensors so no spin-rotation constants.
 Leave Link  601 at Mon May 11 17:29:15 2020, MaxMem= 1073741824 cpu:       0.8
 (Enter /home/matheus/.gaussian/g09/l122.exe)
 Counterpoise: doing MCBS calculation for fragment   1
 Leave Link  122 at Mon May 11 17:29:16 2020, MaxMem= 1073741824 cpu:       0.0
 (Enter /home/matheus/.gaussian/g09/l301.exe)
 Basis read from rwf:  (5D, 7F)
 No pseudopotential information found on rwf file.
 There are    92 symmetry adapted basis functions of A'  symmetry.
 There are    46 symmetry adapted basis functions of A"  symmetry.
 Integral buffers will be    131072 words long.
 Raffenetti 2 integral format.
 Two-electron integral symmetry is turned on.
   138 basis functions,   198 primitive gaussians,   160 cartesian basis functions
     9 alpha electrons        9 beta electrons
       nuclear repulsion energy        36.6006188945 Hartrees.
 IExCor=10402 DFT=T Ex=LC-B+HF Corr=LYP ExCW=0 ScaHFX=  1.000000
 ScaDFX=  1.000000  1.000000  1.000000  1.000000 ScalE2=  1.000000  1.000000
 IRadAn=      5 IRanWt=     -1 IRanGd=            0 ICorTp=0
  HFx wShort=  0.000000 wLong=  1.350000 cFull=  0.000000 cShort=  0.000000 cLong=  1.000000
[...]
                 (A") (A') (A") (A') (A') (A') (A') (A") (A") (A')
                 (A') (A') (A') (A") (A') (A') (A") (A') (A') (A")
                 (A') (A') (A") (A") (A') (A') (A') (A") (A") (A')
                 (A') (A') (A') (A') (A') (A") (A') (A") (A') (A")
                 (A') (A') (A") (A") (A") (A') (A') (A') (A') (A')
                 (A') (A") (A") (A") (A') (A') (A") (A') (A') (A")
                 (A') (A") (A') (A') (A') (A') (A') (A') (A')
 The electronic state of the initial guess is 1-A'.
 Generating alternative initial guess.
 Harris functional with IExCor=10402 diagonalized for initial guess.
 ExpMin= 2.53D-02 ExpMax= 1.17D+07 ExpMxC= 1.33D+04 IAcc=3 IRadAn=         5 AccDes= 0.00D+00
 HarFok:  IExCor=10402 AccDes= 0.00D+00 IRadAn=         5 IDoV= 1
 ScaDFX=  1.000000  1.000000  1.000000  1.000000
 FoFCou: FMM=F IPFlag=           0 FMFlag=      100000 FMFlg1=           0
         NFxFlg=           0 DoJE=T BraDBF=F KetDBF=T FulRan=T
         Omega=  0.000000  0.000000  1.000000  0.000000  0.000000 ICntrl=     500 IOpCl=  0
         NMat0=    1 NMatS0=    1 NMatT0=    0 NMatD0=    1 NMtDS0=    0 NMtDT0=    0
         I1Cent=           4 NGrid=           0.
 Petite list used in FoFCou.
 Harris En= -2731.73402088600    
 Leave Link  401 at Mon May 11 17:45:39 2020, MaxMem= 1073741824 cpu:       2.6
 (Enter /home/matheus/.gaussian/g09/l502.exe)
 Closed shell SCF:
 Requested convergence on RMS density matrix=1.00D-08 within 128 cycles.
 Requested convergence on MAX density matrix=1.00D-06.
 Requested convergence on             energy=1.00D-06.
 No special actions if energy rises.
 Using DIIS extrapolation, IDIIS=  1040.
 Integral symmetry usage will be decided dynamically.
       127132 words used for storage of precomputed grid.
 IEnd=      306144 IEndB=      306144 NGot=  1073741824 MDV=  1073504991
 LenX=  1073504991 LenY=  1073452109
 Fock matrices will be formed incrementally for  20 cycles.

 Cycle   1  Pass 1  IDiag  1:
 FoFJK:  IHMeth= 1 ICntrl=     0 DoSepK=T KAlg= 1 I1Cent= 0 FoldK=F
 FoFCou: FMM=F IPFlag=           0 FMFlag=      100000 FMFlg1=           0
         NFxFlg=           0 DoJE=T BraDBF=F KetDBF=F FulRan=T
         Omega=  0.000000  0.000000  1.000000  0.000000  0.000000 ICntrl=     500 IOpCl=  0
         NMat0=    1 NMatS0=    1 NMatT0=    0 NMatD0=    1 NMtDS0=    0 NMtDT0=    0
         I1Cent=           0 NGrid=           0.
 Petite list used in FoFCou.
 E= -2753.40937556173    
 DIIS: error= 2.25D-04 at cycle   1 NSaved=   1.
 NSaved= 1 IEnMin= 1 EnMin= -2753.40937556173     IErMin= 1 ErrMin= 2.25D-04
 ErrMax= 2.25D-04 EMaxC= 1.00D-01 BMatC= 6.22D-06 BMatP= 6.22D-06
 IDIUse=3 WtCom= 9.98D-01 WtEn= 2.25D-03
 Coeff-Com:  0.100D+01
 Coeff-En:   0.100D+01
 Coeff:      0.100D+01
 Gap=     0.580 Goal=   None    Shift=    0.000
 RMSDP=2.27D-05 MaxDP=9.60D-04              OVMax= 3.47D-04

 Cycle   2  Pass 1  IDiag  1:
 RMSU=  1.61D-05    CP:  1.00D+00
 FoFJK:  IHMeth= 1 ICntrl=     0 DoSepK=T KAlg= 1 I1Cent= 0 FoldK=F
 E= -2753.40937628910     Delta-E=       -0.000000727370 Rises=F Damp=F
 DIIS: error= 3.92D-06 at cycle   2 NSaved=   2.
 NSaved= 2 IEnMin= 2 EnMin= -2753.40937628910     IErMin= 2 ErrMin= 3.92D-06
 ErrMax= 3.92D-06 EMaxC= 1.00D-01 BMatC= 4.71D-09 BMatP= 6.22D-06
 IDIUse=1 WtCom= 1.00D+00 WtEn= 0.00D+00
 Coeff-Com: -0.857D-02 0.101D+01
 Coeff:     -0.857D-02 0.101D+01
 Gap=     0.580 Goal=   None    Shift=    0.000
 RMSDP=1.94D-06 MaxDP=7.41D-05 DE=-7.27D-07 OVMax= 5.20D-05

 Cycle   3  Pass 1  IDiag  1:
 RMSU=  6.29D-07    CP:  1.00D+00  1.08D+00
 FoFJK:  IHMeth= 1 ICntrl=     0 DoSepK=T KAlg= 1 I1Cent= 0 FoldK=F
 E= -2753.40937629773     Delta-E=       -0.000000008631 Rises=F Damp=F
 DIIS: error= 5.63D-07 at cycle   3 NSaved=   3.
 NSaved= 3 IEnMin= 3 EnMin= -2753.40937629773     IErMin= 3 ErrMin= 5.63D-07
 ErrMax= 5.63D-07 EMaxC= 1.00D-01 BMatC= 1.11D-10 BMatP= 4.71D-09
 IDIUse=1 WtCom= 1.00D+00 WtEn= 0.00D+00
 Coeff-Com:  0.485D-03-0.139D+00 0.114D+01
 Coeff:      0.485D-03-0.139D+00 0.114D+01
 Gap=     0.580 Goal=   None    Shift=    0.000
 RMSDP=2.20D-07 MaxDP=7.43D-06 DE=-8.63D-09 OVMax= 1.04D-05

 Cycle   4  Pass 1  IDiag  1:
 RMSU=  6.21D-08    CP:  1.00D+00  1.08D+00  1.18D+00
 FoFJK:  IHMeth= 1 ICntrl=     0 DoSepK=T KAlg= 1 I1Cent= 0 FoldK=F
 E= -2753.40937629806     Delta-E=       -0.000000000329 Rises=F Damp=F
 DIIS: error= 2.28D-07 at cycle   4 NSaved=   4.
 NSaved= 4 IEnMin= 4 EnMin= -2753.40937629806     IErMin= 4 ErrMin= 2.28D-07
 ErrMax= 2.28D-07 EMaxC= 1.00D-01 BMatC= 4.87D-12 BMatP= 1.11D-10
 IDIUse=1 WtCom= 1.00D+00 WtEn= 0.00D+00
 Coeff-Com:  0.165D-03-0.310D-01 0.171D+00 0.860D+00
 Coeff:      0.165D-03-0.310D-01 0.171D+00 0.860D+00
 Gap=     0.580 Goal=   None    Shift=    0.000
 RMSDP=2.02D-08 MaxDP=1.07D-06 DE=-3.29D-10 OVMax= 8.22D-07

 Cycle   5  Pass 1  IDiag  1:
 RMSU=  6.60D-09    CP:  1.00D+00  1.08D+00  1.19D+00  1.15D+00
 FoFJK:  IHMeth= 1 ICntrl=     0 DoSepK=T KAlg= 1 I1Cent= 0 FoldK=F
 E= -2753.40937629809     Delta-E=       -0.000000000033 Rises=F Damp=F
 DIIS: error= 5.60D-08 at cycle   5 NSaved=   5.
 NSaved= 5 IEnMin= 5 EnMin= -2753.40937629809     IErMin= 5 ErrMin= 5.60D-08
 ErrMax= 5.60D-08 EMaxC= 1.00D-01 BMatC= 3.65D-13 BMatP= 4.87D-12
 IDIUse=1 WtCom= 1.00D+00 WtEn= 0.00D+00
 Coeff-Com: -0.338D-04 0.946D-02-0.791D-01 0.264D-01 0.104D+01
 Coeff:     -0.338D-04 0.946D-02-0.791D-01 0.264D-01 0.104D+01
 Gap=     0.580 Goal=   None    Shift=    0.000
 RMSDP=8.19D-09 MaxDP=4.71D-07 DE=-3.27D-11 OVMax= 4.32D-07

 SCF Done:  E(RLC-B+HF-LYP) =  -2753.40937630     A.U. after    5 cycles
             Convg  =    0.8187D-08             -V/T =  2.0014
 KE= 2.749687257656D+03 PE=-6.579480039320D+03 EE= 1.076383405366D+03
 Leave Link  502 at Mon May 11 17:45:49 2020, MaxMem= 1073741824 cpu:      78.1
 (Enter /home/matheus/.gaussian/g09/l122.exe)
 Restoring MOs from calculation   4 to rwf.
 Counterpoise: doing MCBS calculation for fragment   1
 Leave Link  122 at Mon May 11 17:45:49 2020, MaxMem= 1073741824 cpu:       0.0
 (Enter /home/matheus/.gaussian/g09/l301.exe)
 Basis read from rwf:  (5D, 7F)
 No pseudopotential information found on rwf file.
 There are    92 symmetry adapted basis functions of A'  symmetry.
 There are    46 symmetry adapted basis functions of A"  symmetry.
 Integral buffers will be    131072 words long.
 Raffenetti 2 integral format.
 Two-electron integral symmetry is turned on.
   138 basis functions,   198 primitive gaussians,   160 cartesian basis functions
     9 alpha electrons        9 beta electrons
       nuclear repulsion energy        36.6006188945 Hartrees.
 IExCor=10402 DFT=T Ex=LC-B+HF Corr=LYP ExCW=0 ScaHFX=  1.000000
 ScaDFX=  1.000000  1.000000  1.000000  1.000000 ScalE2=  1.000000  1.000000
 IRadAn=      5 IRanWt=     -1 IRanGd=            0 ICorTp=0
  HFx wShort=  0.000000 wLong=  1.350000 cFull=  0.000000 cShort=  0.000000 cLong=  1.000000
  DFx wShort=  0.000000 wLong=  1.350000 cFull=  0.000000 cShort=  0.000000 cLong=  1.000000
 NAtoms=    5 NActive=    4 NUniq=    4 SFac= 1.00D+00 NAtFMM=   60 NAOKFM=F Big=F
 No density basis found on file   718.
 Leave Link  301 at Mon May 11 17:45:49 2020, MaxMem= 1073741824 cpu:       0.2
 (Enter /home/matheus/.gaussian/g09/l302.exe)
 NPDir=0 NMtPBC=     1 NCelOv=     1 NCel=       1 NClECP=     1 NCelD=      1
         NCelK=      1 NCelE2=     1 NClLst=     1 CellRange=     0.0.
 One-electron integrals computed using PRISM.
 NBasis=   138 RedAO= T  NBF=    92    46
 NBsUse=   138 1.00D-06 NBFU=    92    46
 Precomputing XC quadrature grid using
 IXCGrd= 2 IRadAn=           5 IRanWt=          -1 IRanGd=           0 AccXCQ= 0.00D+00.
 NRdTot=     344 NPtTot=       92556 NUsed=       95038 NTot=       95070
 NSgBfM=   160   160   160   160   160 NAtAll=     4     4.
 Leave Link  302 at Mon May 11 17:45:49 2020, MaxMem= 1073741824 cpu:       0.8
 (Enter /home/matheus/.gaussian/g09/l303.exe)
 DipDrv:  MaxL=1.
 Leave Link  303 at Mon May 11 17:45:49 2020, MaxMem= 1073741824 cpu:       0.2
 (Enter /home/matheus/.gaussian/g09/l401.exe)
 Initial guess read from the read-write file.
 Guess basis will be translated and rotated to current coordinates.
 Initial guess orbital symmetries:
       Occupied  (A') (A') (A') (A') (A') (A') (A") (A') (A")
       Virtual   (A') (A') (A') (A') (A') (A") (A') (A') (A") (A')
                 (A") (A') (A') (A') (A") (A') (A') (A') (A') (A')
                 (A') (A") (A") (A') (A') (A") (A") (A') (A') (A')
                 (A') (A") (A") (A') (A') (A') (A") (A") (A') (A')
                 (A') (A') (A") (A") (A') (A') (A') (A") (A") (A')
                 (A') (A') (A") (A') (A') (A") (A') (A') (A") (A")
                 (A') (A') (A') (A") (A') (A') (A") (A') (A') (A")
                 (A") (A') (A') (A") (A') (A') (A') (A') (A") (A')
                 (A') (A") (A") (A') (A") (A") (A') (A") (A') (A")
                 (A') (A') (A') (A') (A') (A') (A') (A") (A") (A')
                 (A') (A') (A") (A') (A') (A") (A') (A") (A') (A')
                 (A") (A") (A") (A") (A") (A') (A") (A') (A') (A')
                 (A') (A") (A') (A') (A') (A') (A') (A') (A')
 The electronic state of the initial guess is 1-A'.
 Generating alternative initial guess.
 Harris functional with IExCor=10402 diagonalized for initial guess.
 ExpMin= 2.53D-02 ExpMax= 1.53D+04 ExpMxC= 5.22D+02 IAcc=3 IRadAn=         5 AccDes= 0.00D+00
 HarFok:  IExCor=10402 AccDes= 0.00D+00 IRadAn=         5 IDoV= 1
 ScaDFX=  1.000000  1.000000  1.000000  1.000000
 FoFCou: FMM=F IPFlag=           0 FMFlag=      100000 FMFlg1=           0
         NFxFlg=           0 DoJE=T BraDBF=F KetDBF=T FulRan=T
         Omega=  0.000000  0.000000  1.000000  0.000000  0.000000 ICntrl=     500 IOpCl=  0
         NMat0=    1 NMatS0=    1 NMatT0=    0 NMatD0=    1 NMtDS0=    0 NMtDT0=    0
         I1Cent=           4 NGrid=           0.
 Petite list used in FoFCou.
 Harris En= -143.231382763671    
 Leave Link  401 at Mon May 11 17:45:49 2020, MaxMem= 1073741824 cpu:       1.7
 (Enter /home/matheus/.gaussian/g09/l502.exe)
 Closed shell SCF:
 Requested convergence on RMS density matrix=1.00D-08 within 128 cycles.
 Requested convergence on MAX density matrix=1.00D-06.
 Requested convergence on             energy=1.00D-06.
 No special actions if energy rises.
 Using DIIS extrapolation, IDIIS=  1040.
 Integral symmetry usage will be decided dynamically.
        94980 words used for storage of precomputed grid.
 IEnd=      192406 IEndB=      192406 NGot=  1073741824 MDV=  1073591819
 LenX=  1073591819 LenY=  1073565778
 Fock matrices will be formed incrementally for  20 cycles.

 Cycle   1  Pass 1  IDiag  1:
 FoFJK:  IHMeth= 1 ICntrl=     0 DoSepK=T KAlg= 1 I1Cent= 0 FoldK=F
 FoFCou: FMM=F IPFlag=           0 FMFlag=      100000 FMFlg1=           0
         NFxFlg=           0 DoJE=T BraDBF=F KetDBF=F FulRan=T
         Omega=  0.000000  0.000000  1.000000  0.000000  0.000000 ICntrl=     500 IOpCl=  0
         NMat0=    1 NMatS0=    1 NMatT0=    0 NMatD0=    1 NMtDS0=    0 NMtDT0=    0
         I1Cent=           0 NGrid=           0.
 Petite list used in FoFCou.
 E= -151.210576320252    
 DIIS: error= 2.88D-13 at cycle   1 NSaved=   1.
 NSaved= 1 IEnMin= 1 EnMin= -151.210576320252     IErMin= 1 ErrMin= 2.88D-13
 ErrMax= 2.88D-13 EMaxC= 1.00D-01 BMatC= 5.94D-24 BMatP= 5.94D-24
 IDIUse=1 WtCom= 1.00D+00 WtEn= 0.00D+00
 Coeff-Com:  0.100D+01
 Coeff:      0.100D+01
 Gap=     0.512 Goal=   None    Shift=    0.000
 RMSDP=1.19D-13 MaxDP=5.31D-12              OVMax= 4.57D-13

 SCF Done:  E(RLC-B+HF-LYP) =  -151.210576320     A.U. after    1 cycles
             Convg  =    0.1187D-12             -V/T =  2.0063
 KE= 1.502619480415D+02 PE=-4.315432813928D+02 EE= 9.347013813647D+01
 Leave Link  502 at Mon May 11 17:45:50 2020, MaxMem= 1073741824 cpu:       7.0
 (Enter /home/matheus/.gaussian/g09/l122.exe)
 Restoring MOs from calculation   5 to rwf.
 Counterpoise: doing MCBS calculation for fragment   2
 Leave Link  122 at Mon May 11 17:45:50 2020, MaxMem= 1073741824 cpu:       0.0
 (Enter /home/matheus/.gaussian/g09/l301.exe)
 Basis read from rwf:  (5D, 7F)
 No pseudopotential information found on rwf file.
 There are    39 symmetry adapted basis functions of A'  symmetry.
 There are    20 symmetry adapted basis functions of A"  symmetry.
 Integral buffers will be    131072 words long.
 Raffenetti 2 integral format.
 Two-electron integral symmetry is turned on.
    59 basis functions,   217 primitive gaussians,    69 cartesian basis functions
    18 alpha electrons       18 beta electrons
       nuclear repulsion energy         0.0000000000 Hartrees.
 IExCor=10402 DFT=T Ex=LC-B+HF Corr=LYP ExCW=0 ScaHFX=  1.000000
 ScaDFX=  1.000000  1.000000  1.000000  1.000000 ScalE2=  1.000000  1.000000
 IRadAn=      5 IRanWt=     -1 IRanGd=            0 ICorTp=0
  HFx wShort=  0.000000 wLong=  1.350000 cFull=  0.000000 cShort=  0.000000 cLong=  1.000000
  DFx wShort=  0.000000 wLong=  1.350000 cFull=  0.000000 cShort=  0.000000 cLong=  1.000000
 NAtoms=    5 NActive=    1 NUniq=    1 SFac= 1.00D+00 NAtFMM=   60 NAOKFM=F Big=F
 No density basis found on file   718.
 Leave Link  301 at Mon May 11 17:45:50 2020, MaxMem= 1073741824 cpu:       0.2
 (Enter /home/matheus/.gaussian/g09/l302.exe)
 NPDir=0 NMtPBC=     1 NCelOv=     1 NCel=       1 NClECP=     1 NCelD=      1
         NCelK=      1 NCelE2=     1 NClLst=     1 CellRange=     0.0.
 One-electron integrals computed using PRISM.
 NBasis=    59 RedAO= T  NBF=    39    20
 NBsUse=    59 1.00D-06 NBFU=    39    20
 Precomputing XC quadrature grid using
 IXCGrd= 2 IRadAn=           5 IRanWt=          -1 IRanGd=           0 AccXCQ= 0.00D+00.
 NRdTot=      81 NPtTot=       30352 NUsed=       30981 NTot=       31013
 NSgBfM=    69    69    69    69    69 NAtAll=     1     1.
 Leave Link  302 at Mon May 11 17:45:50 2020, MaxMem= 1073741824 cpu:       0.6
 (Enter /home/matheus/.gaussian/g09/l303.exe)
 DipDrv:  MaxL=1.
 Leave Link  303 at Mon May 11 17:45:50 2020, MaxMem= 1073741824 cpu:       0.1
 (Enter /home/matheus/.gaussian/g09/l401.exe)
 Initial guess read from the read-write file.
 Guess basis will be translated and rotated to current coordinates.
 Initial guess orbital symmetries:
       Occupied  (A') (A') (A') (A') (A") (A') (A') (A') (A") (A')
                 (A") (A") (A') (A') (A') (A') (A') (A")
       Virtual   (A') (A") (A') (A') (A") (A') (A") (A') (A') (A")
                 (A') (A') (A') (A") (A') (A") (A') (A') (A') (A')
                 (A") (A") (A") (A') (A') (A") (A') (A') (A") (A")
                 (A') (A') (A') (A') (A") (A') (A") (A") (A') (A')
                 (A')
 The electronic state of the initial guess is 1-A'.
 Generating alternative initial guess.
 Harris functional with IExCor=10402 diagonalized for initial guess.
 ExpMin= 4.00D-02 ExpMax= 1.17D+07 ExpMxC= 1.33D+04 IAcc=3 IRadAn=         5 AccDes= 0.00D+00
 HarFok:  IExCor=10402 AccDes= 0.00D+00 IRadAn=         5 IDoV= 1
 ScaDFX=  1.000000  1.000000  1.000000  1.000000
 FoFCou: FMM=F IPFlag=           0 FMFlag=      100000 FMFlg1=           0
         NFxFlg=           0 DoJE=T BraDBF=F KetDBF=T FulRan=T
         Omega=  0.000000  0.000000  1.000000  0.000000  0.000000 ICntrl=     500 IOpCl=  0
         NMat0=    1 NMatS0=    1 NMatT0=    0 NMatD0=    1 NMtDS0=    0 NMtDT0=    0
         I1Cent=           4 NGrid=           0.
 Petite list used in FoFCou.
 Harris En= -2731.73388500824    
 Leave Link  401 at Mon May 11 17:45:50 2020, MaxMem= 1073741824 cpu:       1.0
 (Enter /home/matheus/.gaussian/g09/l502.exe)
 Closed shell SCF:
 Requested convergence on RMS density matrix=1.00D-08 within 128 cycles.
 Requested convergence on MAX density matrix=1.00D-06.
 Requested convergence on             energy=1.00D-06.
 No special actions if energy rises.
 Using DIIS extrapolation, IDIIS=  1040.
 Integral symmetry usage will be decided dynamically.
        30923 words used for storage of precomputed grid.
 IEnd=       64425 IEndB=       64425 NGot=  1073741824 MDV=  1073698870
 LenX=  1073698870 LenY=  1073693668
 Fock matrices will be formed incrementally for  20 cycles.

 Cycle   1  Pass 1  IDiag  1:
 FoFJK:  IHMeth= 1 ICntrl=     0 DoSepK=T KAlg= 1 I1Cent= 0 FoldK=F
 FoFCou: FMM=F IPFlag=           0 FMFlag=      100000 FMFlg1=           0
         NFxFlg=           0 DoJE=T BraDBF=F KetDBF=F FulRan=T
         Omega=  0.000000  0.000000  1.000000  0.000000  0.000000 ICntrl=     500 IOpCl=  0
         NMat0=    1 NMatS0=    1 NMatT0=    0 NMatD0=    1 NMtDS0=    0 NMtDT0=    0
         I1Cent=           0 NGrid=           0.
 Petite list used in FoFCou.
 E= -2753.40934852740    
 DIIS: error= 1.27D-13 at cycle   1 NSaved=   1.
 NSaved= 1 IEnMin= 1 EnMin= -2753.40934852740     IErMin= 1 ErrMin= 1.27D-13
 ErrMax= 1.27D-13 EMaxC= 1.00D-01 BMatC= 5.53D-25 BMatP= 5.53D-25
 IDIUse=1 WtCom= 1.00D+00 WtEn= 0.00D+00
 Coeff-Com:  0.100D+01
 Coeff:      0.100D+01
 Gap=     0.640 Goal=   None    Shift=    0.000
 RMSDP=7.75D-15 MaxDP=1.89D-13              OVMax= 1.00D-13

 SCF Done:  E(RLC-B+HF-LYP) =  -2753.40934853     A.U. after    1 cycles
             Convg  =    0.7751D-14             -V/T =  2.0014
 KE= 2.749695852517D+03 PE=-6.579489077514D+03 EE= 1.076383876470D+03
 Leave Link  502 at Mon May 11 17:45:52 2020, MaxMem= 1073741824 cpu:      10.7
 (Enter /home/matheus/.gaussian/g09/l122.exe)
 Restoring MOs from calculation   1 to rwf.
 Counterpoise: corrected energy =   -2904.619983281611
 Counterpoise: BSSE energy =       0.000031770497
 Leave Link  122 at Mon May 11 17:45:52 2020, MaxMem= 1073741824 cpu:       0.0
 (Enter /home/matheus/.gaussian/g09/l108.exe)
 Scan completed.

 Summary of the potential surface scan:
   N      R1          SCF    
 ----  ---------  -----------
    1     3.0000  -2753.40935
    2     3.1000  -2753.40935
    3     3.2000  -2753.40935
    4     3.3000  -2753.40935
    5     3.4000  -2753.40935
    6     3.5000  -2753.40935
    7     3.6000  -2753.40935
    8     3.7000  -2753.40935
    9     3.8000  -2753.40935
   10     3.9000  -2753.40935
   11     4.0000  -2753.40935
   12     4.1000  -2753.40935
   13     4.2000  -2753.40935
   14     4.3000  -2753.40935
   15     4.4000  -2753.40935
   16     4.5000  -2753.40935
   17     4.6000  -2753.40935
   18     4.7000  -2753.40935
   19     4.8000  -2753.40935
   20     4.9000  -2753.40935
   21     5.0000  -2753.40935
 ----  ---------  -----------
  
 Leave Link  108 at Mon May 11 17:45:52 2020, MaxMem= 1073741824 cpu:       0.0
 (Enter /home/matheus/.gaussian/g09/l9999.exe)

 Test job not archived.
 1\1\GINC-REDGIANT\Scan\RLC-BLYP\Aug-CC-pVTZ\H2Kr1O2\MATHEUS\11-May-202
 0\1\\#p lc-blyp/aug-cc-PVTz iop(3/107=1350000000) iop(3/108=1350000000
 ) int=ultrafine counterpoise=2 Scan\\TCC\\0,1\O,0,0.,0.,0.725\O,0,0.,0
 .,-0.725\H,0,0.,-0.9187205947,1.0235104166\H,0,0.,0.9187205947,-1.0235
 104166\Kr,0,0.,R1,0.\\R1=3.,s,20,0.1\\Version=EM64L-G09RevC.01\State=1
 -A'\HF=-2753.4093485,-2753.4093485,-2753.4093485,-2753.4093485,-2753.4
 093485,-2753.4093485,-2753.4093485,-2753.4093485,-2753.4093485,-2753.4
 093485,-2753.4093485,-2753.4093485,-2753.4093485,-2753.4093485,-2753.4
 093485,-2753.4093485,-2753.4093485,-2753.4093485,-2753.4093485,-2753.4
 093485,-2753.4093485\RMSD=5.473e-09,3.078e-10,7.422e-11,2.033e-11,7.19
 4e-12,3.156e-12,1.459e-12,6.840e-13,3.256e-13,1.557e-13,6.797e-14,3.86
 5e-14,2.118e-14,8.018e-15,1.034e-14,6.425e-15,8.870e-15,8.392e-15,6.25
 2e-15,1.121e-14,7.751e-15\PG=CS [SG(H2Kr1O2)]\\@


 CHARLIE BROWN -- WHICH DO YOU THINK LASTS LONGER IN LIFE, THE GOOD THINGS 
                  OR THE BAD THINGS?
 LINUS --         GOOD THINGS LAST EIGHT SECONDS ..
                  BAD THINGS LAST THREE WEEKS
 CHARLIE BROWN -- WHAT ABOUT IN BETWEEN?
 SNOOPY --        IN BETWEEN YOU SHOULD TAKE A NAP ...
 Job cpu time:  0 days  2 hours 24 minutes 41.0 seconds.
 File lengths (MBytes):  RWF=     33 Int=      0 D2E=      0 Chk=      8 Scr=      1
 Normal termination of Gaussian 09 at Mon May 11 17:45:52 2020.
