 Entering Gaussian System, Link 0=g09
 Input=/home/matheus/.tcc/Inputs/Inputs-lc-blyp/H2O2-Kr_4.com
 Output=/home/matheus/.tcc/Logs/Logs-lc-blyp/H2O2-Kr_4.log
 Initial command:
 /home/matheus/.gaussian/g09/l1.exe /home/matheus/.gaussian/g09/scratch/Gau-4379.inp -scrdir=/home/matheus/.gaussian/g09/scratch/
 Entering Link 1 = /home/matheus/.gaussian/g09/l1.exe PID=      4382.
  
 Copyright (c) 1988,1990,1992,1993,1995,1998,2003,2009,2011,
            Gaussian, Inc.  All Rights Reserved.
  
 This is part of the Gaussian(R) 09 program.  It is based on
 the Gaussian(R) 03 system (copyright 2003, Gaussian, Inc.),
 the Gaussian(R) 98 system (copyright 1998, Gaussian, Inc.),
 the Gaussian(R) 94 system (copyright 1995, Gaussian, Inc.),
 the Gaussian 92(TM) system (copyright 1992, Gaussian, Inc.),
 the Gaussian 90(TM) system (copyright 1990, Gaussian, Inc.),
 the Gaussian 88(TM) system (copyright 1988, Gaussian, Inc.),
 the Gaussian 86(TM) system (copyright 1986, Carnegie Mellon
 University), and the Gaussian 82(TM) system (copyright 1983,
 Carnegie Mellon University). Gaussian is a federally registered
 trademark of Gaussian, Inc.
  
 This software contains proprietary and confidential information,
 including trade secrets, belonging to Gaussian, Inc.
  
 This software is provided under written license and may be
 used, copied, transmitted, or stored only in accord with that
 written license.
  
 The following legend is applicable only to US Government
 contracts under FAR:
  
                    RESTRICTED RIGHTS LEGEND
  
 Use, reproduction and disclosure by the US Government is
 subject to restrictions as set forth in subparagraphs (a)
 and (c) of the Commercial Computer Software - Restricted
 Rights clause in FAR 52.227-19.
  
 Gaussian, Inc.
 340 Quinnipiac St., Bldg. 40, Wallingford CT 06492
  
  
 ---------------------------------------------------------------
 Warning -- This program may not be used in any manner that
 competes with the business of Gaussian, Inc. or will provide
 assistance to any competitor of Gaussian, Inc.  The licensee
 of this program is prohibited from giving any competitor of
 Gaussian, Inc. access to this program.  By using this program,
 the user acknowledges that Gaussian, Inc. is engaged in the
 business of creating and licensing software in the field of
 computational chemistry and represents and warrants to the
 licensee that it is not a competitor of Gaussian, Inc. and that
 it will not use this program in any manner prohibited above.
 ---------------------------------------------------------------
  

 Cite this work as:
 Gaussian 09, Revision C.01,
 M. J. Frisch, G. W. Trucks, H. B. Schlegel, G. E. Scuseria, 
 M. A. Robb, J. R. Cheeseman, G. Scalmani, V. Barone, B. Mennucci, 
 G. A. Petersson, H. Nakatsuji, M. Caricato, X. Li, H. P. Hratchian, 
 A. F. Izmaylov, J. Bloino, G. Zheng, J. L. Sonnenberg, M. Hada, 
 M. Ehara, K. Toyota, R. Fukuda, J. Hasegawa, M. Ishida, T. Nakajima, 
 Y. Honda, O. Kitao, H. Nakai, T. Vreven, J. A. Montgomery, Jr., 
 J. E. Peralta, F. Ogliaro, M. Bearpark, J. J. Heyd, E. Brothers, 
 K. N. Kudin, V. N. Staroverov, T. Keith, R. Kobayashi, J. Normand, 
 K. Raghavachari, A. Rendell, J. C. Burant, S. S. Iyengar, J. Tomasi, 
 M. Cossi, N. Rega, J. M. Millam, M. Klene, J. E. Knox, J. B. Cross, 
 V. Bakken, C. Adamo, J. Jaramillo, R. Gomperts, R. E. Stratmann, 
 O. Yazyev, A. J. Austin, R. Cammi, C. Pomelli, J. W. Ochterski, 
 R. L. Martin, K. Morokuma, V. G. Zakrzewski, G. A. Voth, 
 P. Salvador, J. J. Dannenberg, S. Dapprich, A. D. Daniels, 
 O. Farkas, J. B. Foresman, J. V. Ortiz, J. Cioslowski, 
 and D. J. Fox, Gaussian, Inc., Wallingford CT, 2010.
 
 ******************************************
 Gaussian 09:  EM64L-G09RevC.01 23-Sep-2011
                11-May-2020 
 ******************************************
 %mem=8GB
 %nproc=8
 Will use up to    8 processors via shared memory.
 ----------------------------------------------------------------------
 #p lc-blyp/aug-cc-PVTz iop(3/107=1350000000) iop(3/108=1350000000) int
 =ultrafine counterpoise=2 Scan
 ----------------------------------------------------------------------
 1/38=1,60=1,62=2/1,8;
 2/12=2,17=6,18=5,29=3,40=1/2;
 1/38=1,53=5172,62=2/22;
 3/5=16,6=1,7=10,11=2,16=1,25=1,30=1,74=1000402,75=-5,107=1350000000,108=1350000000/1,2,3;
 4//1;
 5/5=2,38=5/2;
 6/7=2,8=2,9=2,10=2,18=1,28=1/1;
 1/53=4052,62=2,63=1/22;
 3/5=7,6=11,7=10,11=2,16=1,25=1,30=1,74=1000402,75=-5,82=7,107=1350000000,108=1350000000/1,2,3;
 4//1;
 5/5=2,38=5/2;
 6/7=2,8=2,9=2,10=2,18=1,28=1/1;
 1/53=3042,62=2,63=2/22;
 3/5=7,6=11,7=10,11=2,16=1,25=1,30=1,74=1000402,75=-5,82=7,107=1350000000,108=1350000000/1,2,3;
 4//1;
 5/5=2,38=5/2;
 6/7=2,8=2,9=2,10=2,18=1,28=1/1;
 1/53=2032,62=2,63=3/22;
 3/5=7,6=11,7=10,11=2,16=1,25=1,30=1,74=1000402,75=-5,82=7,107=1350000000,108=1350000000/1,2,3;
 4//1;
 5/5=2,38=5/2;
 6/7=2,8=2,9=2,10=2,18=1,28=1/1;
 1/53=1022,62=2,63=4/22;
 3/5=7,6=11,7=10,11=2,16=1,25=1,30=1,74=1000402,75=-5,82=7,107=1350000000,108=1350000000/1,2,3;
 4//1;
 5/5=2,38=5/2;
 6/7=2,8=2,9=2,10=2,18=1,28=1/1;
 1/53=5014,62=2,63=5/22;
 1/60=1,62=2/8(1);
 99/9=1/99;
 2/29=3/2;
 1/53=5173,62=2/22;
 3/5=7,6=11,7=10,11=2,16=1,25=1,30=1,74=1000402,75=-5,82=7,107=1350000000,108=1350000000/1,2,3;
 4/5=5,16=3/1;
 5/5=2,38=5/2;
 1/53=4053,62=2,63=1/22;
 3/5=7,6=11,7=10,11=2,16=1,25=1,30=1,74=1000402,75=-5,82=7,107=1350000000,108=1350000000/1,2,3;
 4/5=5,16=3/1;
 5/5=2,38=5/2;
 1/53=3043,62=2,63=2/22;
 3/5=7,6=11,7=10,11=2,16=1,25=1,30=1,74=1000402,75=-5,82=7,107=1350000000,108=1350000000/1,2,3;
 4/5=5,16=3/1;
 5/5=2,38=5/2;
 1/53=2033,62=2,63=3/22;
 3/5=7,6=11,7=10,11=2,16=1,25=1,30=1,74=1000402,75=-5,82=7,107=1350000000,108=1350000000/1,2,3;
 4/5=5,16=3/1;
 5/5=2,38=5/2;
 1/53=1024,62=2,63=4/22;
 3/5=7,6=11,7=10,11=2,16=1,25=1,30=1,74=1000402,75=-5,82=7,107=1350000000,108=1350000000/1,2,3;
 4/5=5,16=3/1;
 5/5=2,38=5/2;
 1/53=5014,62=2,63=5/22;
 1/60=1,62=2/8(-22);
 99/9=1/99;
 Leave Link    1 at Mon May 11 11:41:32 2020, MaxMem= 1073741824 cpu:       0.2
 (Enter /home/matheus/.gaussian/g09/l101.exe)
 ---
 TCC
 ---
 Charge =  0 Multiplicity = 1 in supermolecule
 Charge =  0 Multiplicity = 1 in fragment  1.
 Charge =  0 Multiplicity = 1 in fragment  2.
 Symbolic Z-Matrix:
 O(Fragment=1)         0.        0.        0.725 
 O(Fragment=1)         0.        0.       -0.725 
 H(Fragment=1)         0.59054   0.70378   1.02351 
 H(Fragment=1)         0.        0.91872  -1.02351 
 Kr(Fragment=2)        0.       R1        0. 
       Variables:
  R1                    3.     Scan 20    0.1    
 
 NAtoms=      5 NQM=        0 NQMF=       0 NMMI=      5 NMMIF=      0
                NMic=       0 NMicF=      0.
                    Isotopes and Nuclear Properties:
 (Nuclear quadrupole moments (NQMom) in fm**2, nuclear magnetic moments (NMagM)
  in nuclear magnetons)

  Atom         1           2           3           4           5
 IAtWgt=          16          16           1           1          84
 AtmWgt=  15.9949146  15.9949146   1.0078250   1.0078250  83.9115064
 NucSpn=           0           0           1           1           0
 AtZEff=   0.0000000   0.0000000   0.0000000   0.0000000   0.0000000
 NQMom=    0.0000000   0.0000000   0.0000000   0.0000000   0.0000000
 NMagM=    0.0000000   0.0000000   2.7928460   2.7928460   0.0000000
 Leave Link  101 at Mon May 11 11:41:32 2020, MaxMem= 1073741824 cpu:       0.4
 (Enter /home/matheus/.gaussian/g09/l108.exe)
 Scan the potential surface.
 Variable   Value     No. Steps Step-Size
 -------- ----------- --------- ---------
     1       3.000000      20      0.1000
 A total of     21 points will be computed.
 Leave Link  108 at Mon May 11 11:41:32 2020, MaxMem= 1073741824 cpu:       0.0
 (Enter /home/matheus/.gaussian/g09/l202.exe)
 ---------------------------------------------------------------------------------------------------
                            Z-MATRIX (ANGSTROMS AND DEGREES)
   CD    Cent   Atom    N1       Length/X        N2       Alpha/Y        N3        Beta/Z          J
 ---------------------------------------------------------------------------------------------------
      1      1  O        0   0.000000          0.000000          0.725000
      2      2  O        0   0.000000          0.000000         -0.725000
      3      3  H        0   0.590542          0.703781          1.023510
      4      4  H        0   0.000000          0.918721         -1.023510
      5      5  Kr       0   0.000000          3.000000          0.000000
 ---------------------------------------------------------------------------------------------------
                         Z-Matrix orientation:                         
 ---------------------------------------------------------------------
 Center     Atomic      Atomic             Coordinates (Angstroms)
 Number     Number       Type             X           Y           Z
 ---------------------------------------------------------------------
      1          8           0        0.000000    0.000000    0.725000
      2          8           0        0.000000    0.000000   -0.725000
      3          1           0        0.590542    0.703781    1.023510
      4          1           0        0.000000    0.918721   -1.023510
      5         36           0        0.000000    3.000000    0.000000
 ---------------------------------------------------------------------
                    Distance matrix (angstroms):
                    1          2          3          4          5
     1  O    0.000000
     2  O    1.450000   0.000000
     3  H    0.966000   1.975180   0.000000
     4  H    1.975180   0.966000   2.141316   0.000000
     5  Kr   3.086361   3.086361   2.582428   2.319331   0.000000
 Stoichiometry    H2KrO2
 Framework group  C1[X(H2KrO2)]
 Deg. of freedom     9
 Full point group                 C1      NOp   1
 Largest Abelian subgroup         C1      NOp   1
 Largest concise Abelian subgroup C1      NOp   1
                         Standard orientation:                         
 ---------------------------------------------------------------------
 Center     Atomic      Atomic             Coordinates (Angstroms)
 Number     Number       Type             X           Y           Z
 ---------------------------------------------------------------------
      1          8           0        2.031661   -0.717244   -0.068894
      2          8           0        2.028133    0.730229    0.016606
      3          1           0        1.333152   -1.052071    0.508282
      4          1           0        1.108715    1.025573    0.041099
      5         36           0       -0.970006   -0.002150   -0.003641
 ---------------------------------------------------------------------
 Rotational constants (GHZ):     26.2249700      2.3786625      2.1869902
 Leave Link  202 at Mon May 11 11:41:32 2020, MaxMem= 1073741824 cpu:       0.1
 (Enter /home/matheus/.gaussian/g09/l122.exe)
 Leave Link  122 at Mon May 11 11:41:32 2020, MaxMem= 1073741824 cpu:       0.0
 (Enter /home/matheus/.gaussian/g09/l301.exe)
 Standard basis: Aug-CC-pVTZ (5D, 7F)
 Ernie: Thresh=  0.10000D-02 Tol=  0.10000D-05 Strict=F.
 Ernie:  38 primitive shells out of 205 were deleted.
 There are   197 symmetry adapted basis functions of A   symmetry.
 Integral buffers will be    131072 words long.
 Raffenetti 2 integral format.
 Two-electron integral symmetry is turned on.
   197 basis functions,   415 primitive gaussians,   229 cartesian basis functions
    27 alpha electrons       27 beta electrons
       nuclear repulsion energy       151.0050746500 Hartrees.
 IExCor=10402 DFT=T Ex=LC-B+HF Corr=LYP ExCW=0 ScaHFX=  1.000000
 ScaDFX=  1.000000  1.000000  1.000000  1.000000 ScalE2=  1.000000  1.000000
 IRadAn=      5 IRanWt=     -1 IRanGd=            0 ICorTp=0
  HFx wShort=  0.000000 wLong=  1.350000 cFull=  0.000000 cShort=  0.000000 cLong=  1.000000
  DFx wShort=  0.000000 wLong=  1.350000 cFull=  0.000000 cShort=  0.000000 cLong=  1.000000
 NAtoms=    5 NActive=    5 NUniq=    5 SFac= 1.00D+00 NAtFMM=   60 NAOKFM=F Big=F
 Leave Link  301 at Mon May 11 11:41:32 2020, MaxMem= 1073741824 cpu:       0.4
 (Enter /home/matheus/.gaussian/g09/l302.exe)
 NPDir=0 NMtPBC=     1 NCelOv=     1 NCel=       1 NClECP=     1 NCelD=      1
         NCelK=      1 NCelE2=     1 NClLst=     1 CellRange=     0.0.
 One-electron integrals computed using PRISM.
 NBasis=   197 RedAO= T  NBF=   197
 NBsUse=   197 1.00D-06 NBFU=   197
 Precomputing XC quadrature grid using
 IXCGrd= 2 IRadAn=           5 IRanWt=          -1 IRanGd=           0 AccXCQ= 0.00D+00.
 NRdTot=     427 NPtTot=      123512 NUsed=      126579 NTot=      126611
 NSgBfM=   229   229   229   229   229 NAtAll=     5     5.
 Leave Link  302 at Mon May 11 11:41:32 2020, MaxMem= 1073741824 cpu:       1.3
 (Enter /home/matheus/.gaussian/g09/l303.exe)
 DipDrv:  MaxL=1.
 Leave Link  303 at Mon May 11 11:41:32 2020, MaxMem= 1073741824 cpu:       0.6
 (Enter /home/matheus/.gaussian/g09/l401.exe)
 Harris functional with IExCor=10402 diagonalized for initial guess.
 ExpMin= 2.53D-02 ExpMax= 1.17D+07 ExpMxC= 1.33D+04 IAcc=3 IRadAn=         5 AccDes= 0.00D+00
 HarFok:  IExCor=10402 AccDes= 0.00D+00 IRadAn=         5 IDoV= 1
 ScaDFX=  1.000000  1.000000  1.000000  1.000000
 FoFCou: FMM=F IPFlag=           0 FMFlag=      100000 FMFlg1=           0
         NFxFlg=           0 DoJE=T BraDBF=F KetDBF=T FulRan=T
         Omega=  0.000000  0.000000  1.000000  0.000000  0.000000 ICntrl=     500 IOpCl=  0
         NMat0=    1 NMatS0=    1 NMatT0=    0 NMatD0=    1 NMtDS0=    0 NMtDT0=    0
         I1Cent=           4 NGrid=           0.
 Petite list used in FoFCou.
 Harris En= -2874.90590567139    
 Initial guess orbital symmetries:
       Occupied  (A) (A) (A) (A) (A) (A) (A) (A) (A) (A) (A) (A)
                 (A) (A) (A) (A) (A) (A) (A) (A) (A) (A) (A) (A)
                 (A) (A) (A)
       Virtual   (A) (A) (A) (A) (A) (A) (A) (A) (A) (A) (A) (A)
                 (A) (A) (A) (A) (A) (A) (A) (A) (A) (A) (A) (A)
                 (A) (A) (A) (A) (A) (A) (A) (A) (A) (A) (A) (A)
                 (A) (A) (A) (A) (A) (A) (A) (A) (A) (A) (A) (A)
                 (A) (A) (A) (A) (A) (A) (A) (A) (A) (A) (A) (A)
                 (A) (A) (A) (A) (A) (A) (A) (A) (A) (A) (A) (A)
                 (A) (A) (A) (A) (A) (A) (A) (A) (A) (A) (A) (A)
                 (A) (A) (A) (A) (A) (A) (A) (A) (A) (A) (A) (A)
                 (A) (A) (A) (A) (A) (A) (A) (A) (A) (A) (A) (A)
                 (A) (A) (A) (A) (A) (A) (A) (A) (A) (A) (A) (A)
                 (A) (A) (A) (A) (A) (A) (A) (A) (A) (A) (A) (A)
                 (A) (A) (A) (A) (A) (A) (A) (A) (A) (A) (A) (A)
                 (A) (A) (A) (A) (A) (A) (A) (A) (A) (A) (A) (A)
                 (A) (A) (A) (A) (A) (A) (A) (A) (A) (A) (A) (A)
                 (A) (A)
 The electronic state of the initial guess is 1-A.
 Leave Link  401 at Mon May 11 11:41:33 2020, MaxMem= 1073741824 cpu:       5.1
 (Enter /home/matheus/.gaussian/g09/l502.exe)
 Closed shell SCF:
 Requested convergence on RMS density matrix=1.00D-08 within 128 cycles.
 Requested convergence on MAX density matrix=1.00D-06.
 Requested convergence on             energy=1.00D-06.
 No special actions if energy rises.
 Using DIIS extrapolation, IDIIS=  1040.
 Integral symmetry usage will be decided dynamically.
       126521 words used for storage of precomputed grid.
 IEnd=      305468 IEndB=      305468 NGot=  1073741824 MDV=  1073505667
 LenX=  1073505667 LenY=  1073452785
 Fock matrices will be formed incrementally for  20 cycles.

 Cycle   1  Pass 1  IDiag  1:
 FoFJK:  IHMeth= 1 ICntrl=     0 DoSepK=T KAlg= 1 I1Cent= 0 FoldK=F
 FoFCou: FMM=F IPFlag=           0 FMFlag=      100000 FMFlg1=           0
         NFxFlg=           0 DoJE=T BraDBF=F KetDBF=F FulRan=T
         Omega=  0.000000  0.000000  1.000000  0.000000  0.000000 ICntrl=     500 IOpCl=  0
         NMat0=    1 NMatS0=    1 NMatT0=    0 NMatD0=    1 NMtDS0=    0 NMtDT0=    0
         I1Cent=           0 NGrid=           0.
 Symmetry not used in FoFCou.
 E= -2899.73361267408    
 DIIS: error= 1.12D-01 at cycle   1 NSaved=   1.
 NSaved= 1 IEnMin= 1 EnMin= -2899.73361267408     IErMin= 1 ErrMin= 1.12D-01
 ErrMax= 1.12D-01 EMaxC= 1.00D-01 BMatC= 3.99D+00 BMatP= 3.99D+00
 IDIUse=3 WtCom= 0.00D+00 WtEn= 1.00D+00
 Coeff-Com:  0.100D+01
 Coeff-En:   0.100D+01
 Coeff:      0.100D+01
 Gap=     0.138 Goal=   None    Shift=    0.000
 GapD=    0.138 DampG=1.000 DampE=0.250 DampFc=0.2500 IDamp=-1.
 Damping current iteration by 2.50D-01
 RMSDP=7.66D-02 MaxDP=6.19D+00              OVMax= 9.98D-01

 Cycle   2  Pass 1  IDiag  1:
 RMSU=  4.37D-03    CP:  7.73D-01
 FoFJK:  IHMeth= 1 ICntrl=     0 DoSepK=T KAlg= 1 I1Cent= 0 FoldK=F
 E= -2901.44702601969     Delta-E=       -1.713413345612 Rises=F Damp=T
 DIIS: error= 5.38D-02 at cycle   2 NSaved=   2.
 NSaved= 2 IEnMin= 2 EnMin= -2901.44702601969     IErMin= 2 ErrMin= 5.38D-02
 ErrMax= 5.38D-02 EMaxC= 1.00D-01 BMatC= 1.09D+00 BMatP= 3.99D+00
 IDIUse=3 WtCom= 4.62D-01 WtEn= 5.38D-01
 Coeff-Com: -0.789D+00 0.179D+01
 Coeff-En:   0.000D+00 0.100D+01
 Coeff:     -0.364D+00 0.136D+01
 Gap=     0.131 Goal=   None    Shift=    0.000
 RMSDP=5.73D-02 MaxDP=4.64D+00 DE=-1.71D+00 OVMax= 9.13D-01

 Cycle   3  Pass 1  IDiag  1:
 RMSU=  5.82D-03    CP:  9.49D-02  3.00D+00
 FoFJK:  IHMeth= 1 ICntrl=     0 DoSepK=T KAlg= 1 I1Cent= 0 FoldK=F
 E= -2904.37203691487     Delta-E=       -2.925010895175 Rises=F Damp=F
 DIIS: error= 2.27D-02 at cycle   3 NSaved=   3.
 NSaved= 3 IEnMin= 3 EnMin= -2904.37203691487     IErMin= 3 ErrMin= 2.27D-02
 ErrMax= 2.27D-02 EMaxC= 1.00D-01 BMatC= 4.01D-01 BMatP= 1.09D+00
 IDIUse=3 WtCom= 7.73D-01 WtEn= 2.27D-01
 Coeff-Com: -0.738D-01 0.471D+00 0.603D+00
 Coeff-En:   0.000D+00 0.000D+00 0.100D+01
 Coeff:     -0.570D-01 0.364D+00 0.693D+00
 Gap=     0.576 Goal=   None    Shift=    0.000
 RMSDP=2.15D-03 MaxDP=8.39D-02 DE=-2.93D+00 OVMax= 7.60D-02

 Cycle   4  Pass 1  IDiag  1:
 RMSU=  1.51D-03    CP:  9.29D-02  3.00D+00  9.78D-01
 FoFJK:  IHMeth= 1 ICntrl=     0 DoSepK=T KAlg= 1 I1Cent= 0 FoldK=F
 E= -2904.60662528663     Delta-E=       -0.234588371763 Rises=F Damp=F
 DIIS: error= 3.90D-03 at cycle   4 NSaved=   4.
 NSaved= 4 IEnMin= 4 EnMin= -2904.60662528663     IErMin= 4 ErrMin= 3.90D-03
 ErrMax= 3.90D-03 EMaxC= 1.00D-01 BMatC= 7.25D-03 BMatP= 4.01D-01
 IDIUse=3 WtCom= 9.61D-01 WtEn= 3.90D-02
 Coeff-Com: -0.155D-01 0.409D-01 0.235D-01 0.951D+00
 Coeff-En:   0.000D+00 0.000D+00 0.000D+00 0.100D+01
 Coeff:     -0.149D-01 0.393D-01 0.226D-01 0.953D+00
 Gap=     0.498 Goal=   None    Shift=    0.000
 RMSDP=6.95D-04 MaxDP=2.17D-02 DE=-2.35D-01 OVMax= 2.46D-02

 Cycle   5  Pass 1  IDiag  1:
 RMSU=  4.46D-04    CP:  9.21D-02  3.00D+00  9.79D-01  1.13D+00
 FoFJK:  IHMeth= 1 ICntrl=     0 DoSepK=T KAlg= 1 I1Cent= 0 FoldK=F
 E= -2904.61357480318     Delta-E=       -0.006949516551 Rises=F Damp=F
 DIIS: error= 1.11D-03 at cycle   5 NSaved=   5.
 NSaved= 5 IEnMin= 5 EnMin= -2904.61357480318     IErMin= 5 ErrMin= 1.11D-03
 ErrMax= 1.11D-03 EMaxC= 1.00D-01 BMatC= 5.09D-04 BMatP= 7.25D-03
 IDIUse=3 WtCom= 9.89D-01 WtEn= 1.11D-02
 Coeff-Com: -0.206D-01 0.376D-01-0.338D-02-0.239D-01 0.101D+01
 Coeff-En:   0.000D+00 0.000D+00 0.000D+00 0.000D+00 0.100D+01
 Coeff:     -0.204D-01 0.371D-01-0.334D-02-0.236D-01 0.101D+01
 Gap=     0.512 Goal=   None    Shift=    0.000
 RMSDP=1.41D-04 MaxDP=2.97D-03 DE=-6.95D-03 OVMax= 8.13D-03

 Cycle   6  Pass 1  IDiag  1:
 RMSU=  7.81D-05    CP:  9.20D-02  3.00D+00  9.79D-01  1.15D+00  1.13D+00
 FoFJK:  IHMeth= 1 ICntrl=     0 DoSepK=T KAlg= 1 I1Cent= 0 FoldK=F
 E= -2904.61410771114     Delta-E=       -0.000532907955 Rises=F Damp=F
 DIIS: error= 4.11D-04 at cycle   6 NSaved=   6.
 NSaved= 6 IEnMin= 6 EnMin= -2904.61410771114     IErMin= 6 ErrMin= 4.11D-04
 ErrMax= 4.11D-04 EMaxC= 1.00D-01 BMatC= 6.68D-05 BMatP= 5.09D-04
 IDIUse=3 WtCom= 9.96D-01 WtEn= 4.11D-03
 Coeff-Com: -0.457D-02 0.774D-02-0.741D-02-0.414D-01-0.167D-01 0.106D+01
 Coeff-En:   0.000D+00 0.000D+00 0.000D+00 0.000D+00 0.000D+00 0.100D+01
 Coeff:     -0.455D-02 0.770D-02-0.738D-02-0.413D-01-0.167D-01 0.106D+01
 Gap=     0.517 Goal=   None    Shift=    0.000
 RMSDP=5.92D-05 MaxDP=1.57D-03 DE=-5.33D-04 OVMax= 3.83D-03

 Cycle   7  Pass 1  IDiag  1:
 RMSU=  2.30D-05    CP:  9.20D-02  3.00D+00  9.79D-01  1.16D+00  1.19D+00
                    CP:  1.17D+00
 FoFJK:  IHMeth= 1 ICntrl=     0 DoSepK=T KAlg= 1 I1Cent= 0 FoldK=F
 E= -2904.61420949486     Delta-E=       -0.000101783725 Rises=F Damp=F
 DIIS: error= 1.86D-04 at cycle   7 NSaved=   7.
 NSaved= 7 IEnMin= 7 EnMin= -2904.61420949486     IErMin= 7 ErrMin= 1.86D-04
 ErrMax= 1.86D-04 EMaxC= 1.00D-01 BMatC= 1.19D-05 BMatP= 6.68D-05
 IDIUse=3 WtCom= 9.98D-01 WtEn= 1.86D-03
 Coeff-Com:  0.139D-03-0.592D-03-0.321D-02-0.126D-01-0.814D-01 0.327D+00
 Coeff-Com:  0.770D+00
 Coeff-En:   0.000D+00 0.000D+00 0.000D+00 0.000D+00 0.000D+00 0.000D+00
 Coeff-En:   0.100D+01
 Coeff:      0.138D-03-0.591D-03-0.320D-02-0.126D-01-0.812D-01 0.327D+00
 Coeff:      0.771D+00
 Gap=     0.518 Goal=   None    Shift=    0.000
 RMSDP=1.77D-05 MaxDP=7.61D-04 DE=-1.02D-04 OVMax= 1.29D-03

 Cycle   8  Pass 1  IDiag  1:
 RMSU=  8.70D-06    CP:  9.20D-02  3.00D+00  9.79D-01  1.17D+00  1.20D+00
                    CP:  1.21D+00  1.18D+00
 FoFJK:  IHMeth= 1 ICntrl=     0 DoSepK=T KAlg= 1 I1Cent= 0 FoldK=F
 E= -2904.61422269377     Delta-E=       -0.000013198909 Rises=F Damp=F
 DIIS: error= 6.60D-05 at cycle   8 NSaved=   8.
 NSaved= 8 IEnMin= 8 EnMin= -2904.61422269377     IErMin= 8 ErrMin= 6.60D-05
 ErrMax= 6.60D-05 EMaxC= 1.00D-01 BMatC= 1.59D-06 BMatP= 1.19D-05
 IDIUse=1 WtCom= 1.00D+00 WtEn= 0.00D+00
 Coeff-Com:  0.112D-02-0.202D-02 0.631D-03 0.350D-02-0.899D-02-0.100D+00
 Coeff-Com:  0.169D+00 0.937D+00
 Coeff:      0.112D-02-0.202D-02 0.631D-03 0.350D-02-0.899D-02-0.100D+00
 Coeff:      0.169D+00 0.937D+00
 Gap=     0.517 Goal=   None    Shift=    0.000
 RMSDP=8.25D-06 MaxDP=3.67D-04 DE=-1.32D-05 OVMax= 7.32D-04

 Cycle   9  Pass 1  IDiag  1:
 RMSU=  3.42D-06    CP:  9.20D-02  3.00D+00  9.79D-01  1.17D+00  1.20D+00
                    CP:  1.22D+00  1.35D+00  1.23D+00
 FoFJK:  IHMeth= 1 ICntrl=     0 DoSepK=T KAlg= 1 I1Cent= 0 FoldK=F
 E= -2904.61422531734     Delta-E=       -0.000002623566 Rises=F Damp=F
 DIIS: error= 2.62D-05 at cycle   9 NSaved=   9.
 NSaved= 9 IEnMin= 9 EnMin= -2904.61422531734     IErMin= 9 ErrMin= 2.62D-05
 ErrMax= 2.62D-05 EMaxC= 1.00D-01 BMatC= 2.10D-07 BMatP= 1.59D-06
 IDIUse=1 WtCom= 1.00D+00 WtEn= 0.00D+00
 Coeff-Com:  0.200D-03-0.297D-03 0.551D-03 0.151D-02 0.484D-02-0.933D-02
 Coeff-Com: -0.801D-01-0.976D-01 0.118D+01
 Coeff:      0.200D-03-0.297D-03 0.551D-03 0.151D-02 0.484D-02-0.933D-02
 Coeff:     -0.801D-01-0.976D-01 0.118D+01
 Gap=     0.517 Goal=   None    Shift=    0.000
 RMSDP=3.95D-06 MaxDP=7.81D-05 DE=-2.62D-06 OVMax= 3.94D-04

 Cycle  10  Pass 1  IDiag  1:
 RMSU=  1.25D-06    CP:  9.20D-02  3.00D+00  9.79D-01  1.17D+00  1.19D+00
                    CP:  1.22D+00  1.39D+00  1.39D+00  1.45D+00
 FoFJK:  IHMeth= 1 ICntrl=     0 DoSepK=T KAlg= 1 I1Cent= 0 FoldK=F
 E= -2904.61422586478     Delta-E=       -0.000000547446 Rises=F Damp=F
 DIIS: error= 1.12D-05 at cycle  10 NSaved=  10.
 NSaved=10 IEnMin=10 EnMin= -2904.61422586478     IErMin=10 ErrMin= 1.12D-05
 ErrMax= 1.12D-05 EMaxC= 1.00D-01 BMatC= 2.85D-08 BMatP= 2.10D-07
 IDIUse=1 WtCom= 1.00D+00 WtEn= 0.00D+00
 Coeff-Com: -0.933D-04 0.176D-03-0.155D-03-0.523D-03-0.259D-02 0.191D-01
 Coeff-Com: -0.100D-01-0.137D+00-0.161D+00 0.129D+01
 Coeff:     -0.933D-04 0.176D-03-0.155D-03-0.523D-03-0.259D-02 0.191D-01
 Coeff:     -0.100D-01-0.137D+00-0.161D+00 0.129D+01
 Gap=     0.517 Goal=   None    Shift=    0.000
 RMSDP=1.92D-06 MaxDP=3.79D-05 DE=-5.47D-07 OVMax= 2.31D-04

 Cycle  11  Pass 1  IDiag  1:
 RMSU=  4.56D-07    CP:  9.20D-02  3.00D+00  9.79D-01  1.17D+00  1.19D+00
                    CP:  1.22D+00  1.41D+00  1.45D+00  1.69D+00  1.48D+00
 FoFJK:  IHMeth= 1 ICntrl=     0 DoSepK=T KAlg= 1 I1Cent= 0 FoldK=F
 E= -2904.61422597221     Delta-E=       -0.000000107431 Rises=F Damp=F
 DIIS: error= 3.42D-06 at cycle  11 NSaved=  11.
 NSaved=11 IEnMin=11 EnMin= -2904.61422597221     IErMin=11 ErrMin= 3.42D-06
 ErrMax= 3.42D-06 EMaxC= 1.00D-01 BMatC= 2.07D-09 BMatP= 2.85D-08
 IDIUse=1 WtCom= 1.00D+00 WtEn= 0.00D+00
 Coeff-Com: -0.259D-04 0.406D-04-0.121D-04-0.578D-04 0.894D-03-0.443D-02
 Coeff-Com:  0.326D-02 0.321D-01-0.340D-01-0.324D+00 0.133D+01
 Coeff:     -0.259D-04 0.406D-04-0.121D-04-0.578D-04 0.894D-03-0.443D-02
 Coeff:      0.326D-02 0.321D-01-0.340D-01-0.324D+00 0.133D+01
 Gap=     0.517 Goal=   None    Shift=    0.000
 RMSDP=5.60D-07 MaxDP=1.24D-05 DE=-1.07D-07 OVMax= 6.91D-05

 Cycle  12  Pass 1  IDiag  1:
 RMSU=  1.27D-07    CP:  9.20D-02  3.00D+00  9.79D-01  1.17D+00  1.19D+00
                    CP:  1.22D+00  1.42D+00  1.47D+00  1.74D+00  1.62D+00
                    CP:  1.41D+00
 FoFJK:  IHMeth= 1 ICntrl=     0 DoSepK=T KAlg= 1 I1Cent= 0 FoldK=F
 E= -2904.61422598032     Delta-E=       -0.000000008105 Rises=F Damp=F
 DIIS: error= 8.02D-07 at cycle  12 NSaved=  12.
 NSaved=12 IEnMin=12 EnMin= -2904.61422598032     IErMin=12 ErrMin= 8.02D-07
 ErrMax= 8.02D-07 EMaxC= 1.00D-01 BMatC= 1.24D-10 BMatP= 2.07D-09
 IDIUse=1 WtCom= 1.00D+00 WtEn= 0.00D+00
 Coeff-Com: -0.248D-05 0.349D-05 0.310D-05 0.310D-04-0.944D-04 0.658D-03
 Coeff-Com: -0.833D-03-0.376D-02 0.210D-01 0.261D-01-0.360D+00 0.132D+01
 Coeff:     -0.248D-05 0.349D-05 0.310D-05 0.310D-04-0.944D-04 0.658D-03
 Coeff:     -0.833D-03-0.376D-02 0.210D-01 0.261D-01-0.360D+00 0.132D+01
 Gap=     0.517 Goal=   None    Shift=    0.000
 RMSDP=1.04D-07 MaxDP=2.28D-06 DE=-8.10D-09 OVMax= 9.84D-06

 Cycle  13  Pass 1  IDiag  1:
 RMSU=  2.80D-08    CP:  9.20D-02  3.00D+00  9.79D-01  1.17D+00  1.19D+00
                    CP:  1.22D+00  1.42D+00  1.47D+00  1.74D+00  1.63D+00
                    CP:  1.49D+00  1.43D+00
 FoFJK:  IHMeth= 1 ICntrl=     0 DoSepK=T KAlg= 1 I1Cent= 0 FoldK=F
 E= -2904.61422598066     Delta-E=       -0.000000000344 Rises=F Damp=F
 DIIS: error= 1.73D-07 at cycle  13 NSaved=  13.
 NSaved=13 IEnMin=13 EnMin= -2904.61422598066     IErMin=13 ErrMin= 1.73D-07
 ErrMax= 1.73D-07 EMaxC= 1.00D-01 BMatC= 5.53D-12 BMatP= 1.24D-10
 IDIUse=1 WtCom= 1.00D+00 WtEn= 0.00D+00
 Coeff-Com: -0.194D-06 0.493D-06-0.109D-05 0.147D-05-0.502D-04 0.286D-03
 Coeff-Com: -0.264D-03-0.222D-02 0.538D-03 0.180D-01-0.599D-01-0.381D-01
 Coeff-Com:  0.108D+01
 Coeff:     -0.194D-06 0.493D-06-0.109D-05 0.147D-05-0.502D-04 0.286D-03
 Coeff:     -0.264D-03-0.222D-02 0.538D-03 0.180D-01-0.599D-01-0.381D-01
 Coeff:      0.108D+01
 Gap=     0.517 Goal=   None    Shift=    0.000
 RMSDP=2.22D-08 MaxDP=5.44D-07 DE=-3.44D-10 OVMax= 2.09D-06

 Cycle  14  Pass 1  IDiag  1:
 RMSU=  5.06D-09    CP:  9.20D-02  3.00D+00  9.79D-01  1.17D+00  1.19D+00
                    CP:  1.22D+00  1.42D+00  1.47D+00  1.74D+00  1.63D+00
                    CP:  1.49D+00  1.49D+00  1.32D+00
 FoFJK:  IHMeth= 1 ICntrl=     0 DoSepK=T KAlg= 1 I1Cent= 0 FoldK=F
 E= -2904.61422598067     Delta-E=       -0.000000000013 Rises=F Damp=F
 DIIS: error= 4.67D-08 at cycle  14 NSaved=  14.
 NSaved=14 IEnMin=14 EnMin= -2904.61422598067     IErMin=14 ErrMin= 4.67D-08
 ErrMax= 4.67D-08 EMaxC= 1.00D-01 BMatC= 4.68D-13 BMatP= 5.53D-12
 IDIUse=1 WtCom= 1.00D+00 WtEn= 0.00D+00
 Coeff-Com:  0.190D-06-0.318D-06 0.993D-07-0.300D-05 0.201D-04-0.749D-04
 Coeff-Com:  0.516D-04 0.563D-03-0.592D-03-0.510D-02 0.293D-01-0.432D-01
 Coeff-Com: -0.362D+00 0.138D+01
 Coeff:      0.190D-06-0.318D-06 0.993D-07-0.300D-05 0.201D-04-0.749D-04
 Coeff:      0.516D-04 0.563D-03-0.592D-03-0.510D-02 0.293D-01-0.432D-01
 Coeff:     -0.362D+00 0.138D+01
 Gap=     0.517 Goal=   None    Shift=    0.000
 RMSDP=7.18D-09 MaxDP=1.40D-07 DE=-1.27D-11 OVMax= 7.38D-07

 SCF Done:  E(RLC-B+HF-LYP) =  -2904.61422598     A.U. after   14 cycles
             Convg  =    0.7176D-08             -V/T =  2.0016
 KE= 2.899968658259D+03 PE=-7.238611050107D+03 EE= 1.283023091217D+03
 Leave Link  502 at Mon May 11 11:42:23 2020, MaxMem= 1073741824 cpu:     396.7
 (Enter /home/matheus/.gaussian/g09/l601.exe)
 Copying SCF densities to generalized density rwf, IOpCl= 0 IROHF=0.

 **********************************************************************

            Population analysis using the SCF density.

 **********************************************************************

 Orbital symmetries:
       Occupied  (A) (A) (A) (A) (A) (A) (A) (A) (A) (A) (A) (A)
                 (A) (A) (A) (A) (A) (A) (A) (A) (A) (A) (A) (A)
                 (A) (A) (A)
       Virtual   (A) (A) (A) (A) (A) (A) (A) (A) (A) (A) (A) (A)
                 (A) (A) (A) (A) (A) (A) (A) (A) (A) (A) (A) (A)
                 (A) (A) (A) (A) (A) (A) (A) (A) (A) (A) (A) (A)
                 (A) (A) (A) (A) (A) (A) (A) (A) (A) (A) (A) (A)
                 (A) (A) (A) (A) (A) (A) (A) (A) (A) (A) (A) (A)
                 (A) (A) (A) (A) (A) (A) (A) (A) (A) (A) (A) (A)
                 (A) (A) (A) (A) (A) (A) (A) (A) (A) (A) (A) (A)
                 (A) (A) (A) (A) (A) (A) (A) (A) (A) (A) (A) (A)
                 (A) (A) (A) (A) (A) (A) (A) (A) (A) (A) (A) (A)
                 (A) (A) (A) (A) (A) (A) (A) (A) (A) (A) (A) (A)
                 (A) (A) (A) (A) (A) (A) (A) (A) (A) (A) (A) (A)
                 (A) (A) (A) (A) (A) (A) (A) (A) (A) (A) (A) (A)
                 (A) (A) (A) (A) (A) (A) (A) (A) (A) (A) (A) (A)
                 (A) (A) (A) (A) (A) (A) (A) (A) (A) (A) (A) (A)
                 (A) (A)
 The electronic state is 1-A.
 Alpha  occ. eigenvalues -- -511.68872 -67.21357 -60.88560 -60.88552 -60.88540
 Alpha  occ. eigenvalues --  -19.48243 -19.48059 -10.11478  -7.83066  -7.83045
 Alpha  occ. eigenvalues --   -7.83014  -3.66031  -3.66028  -3.66002  -3.65985
 Alpha  occ. eigenvalues --   -3.65980  -1.46334  -1.21341  -1.20918  -0.79358
 Alpha  occ. eigenvalues --   -0.67379  -0.63333  -0.59887  -0.58642  -0.58094
 Alpha  occ. eigenvalues --   -0.56595  -0.49100
 Alpha virt. eigenvalues --    0.02636   0.03962   0.07548   0.08431   0.10442
 Alpha virt. eigenvalues --    0.11846   0.12799   0.14389   0.16789   0.17529
 Alpha virt. eigenvalues --    0.17675   0.19337   0.20783   0.23342   0.24057
 Alpha virt. eigenvalues --    0.24433   0.25082   0.28503   0.31720   0.33190
 Alpha virt. eigenvalues --    0.33542   0.35214   0.37843   0.38707   0.40131
 Alpha virt. eigenvalues --    0.42923   0.44942   0.48704   0.54135   0.55506
 Alpha virt. eigenvalues --    0.60600   0.61078   0.63039   0.66267   0.69502
 Alpha virt. eigenvalues --    0.70021   0.72879   0.75993   0.77868   0.79210
 Alpha virt. eigenvalues --    0.79542   0.80275   0.82587   0.84626   0.86897
 Alpha virt. eigenvalues --    0.88660   0.89645   0.90671   0.93232   0.95053
 Alpha virt. eigenvalues --    0.95652   0.97703   0.99428   1.01454   1.03917
 Alpha virt. eigenvalues --    1.05152   1.06980   1.09700   1.10538   1.15012
 Alpha virt. eigenvalues --    1.16804   1.22610   1.22806   1.26819   1.27887
 Alpha virt. eigenvalues --    1.35603   1.41285   1.41912   1.46065   1.48079
 Alpha virt. eigenvalues --    1.53879   1.54191   1.57244   1.60988   1.65642
 Alpha virt. eigenvalues --    1.70361   1.76274   1.92915   1.99439   2.03315
 Alpha virt. eigenvalues --    2.10537   2.17847   2.19807   2.22580   2.25589
 Alpha virt. eigenvalues --    2.26495   2.31656   2.31718   2.34079   2.39269
 Alpha virt. eigenvalues --    2.41929   2.42298   2.43635   2.44512   2.45471
 Alpha virt. eigenvalues --    2.51081   2.52101   2.56200   2.60044   2.62202
 Alpha virt. eigenvalues --    2.63982   2.64547   2.67741   2.69223   2.70750
 Alpha virt. eigenvalues --    2.72440   2.76603   2.78235   2.83233   2.84817
 Alpha virt. eigenvalues --    2.87119   2.90885   2.93114   3.02545   3.04162
 Alpha virt. eigenvalues --    3.06461   3.16361   3.23704   3.25636   3.77234
 Alpha virt. eigenvalues --    3.81062   4.10755   4.13715   4.15368   4.20578
 Alpha virt. eigenvalues --    4.29235   4.29349   4.35732   4.37899   4.40408
 Alpha virt. eigenvalues --    4.60551   4.64138   4.78330   4.81793   4.84347
 Alpha virt. eigenvalues --    5.15264   5.18452   5.22552   5.25038   5.29739
 Alpha virt. eigenvalues --    5.33723   5.68076   6.06430   6.24577   6.32950
 Alpha virt. eigenvalues --    6.36179   6.57716   6.63863   6.67399   6.79914
 Alpha virt. eigenvalues --    6.91811   7.00694   7.05335   7.09844   7.10940
 Alpha virt. eigenvalues --    7.13786   7.15438   7.16884   7.17946   7.31377
 Alpha virt. eigenvalues --    7.39498   7.42795   7.48922   7.67664   7.78111
 Alpha virt. eigenvalues --    8.18433   8.28243   8.41315  14.18363  14.89413
          Condensed to atoms (all electrons):
              1          2          3          4          5
     1  O    8.259377  -0.212201   0.173952   0.021380  -0.022554
     2  O   -0.212201   8.244824   0.030653   0.187149  -0.013459
     3  H    0.173952   0.030653   0.587256  -0.011736  -0.005462
     4  H    0.021380   0.187149  -0.011736   0.589632  -0.017562
     5  Kr  -0.022554  -0.013459  -0.005462  -0.017562  36.058592
 Mulliken atomic charges:
              1
     1  O   -0.219954
     2  O   -0.236966
     3  H    0.225337
     4  H    0.231138
     5  Kr   0.000445
 Sum of Mulliken atomic charges =   0.00000
 Mulliken charges with hydrogens summed into heavy atoms:
              1
     1  O    0.005383
     2  O   -0.005828
     5  Kr   0.000445
 Sum of Mulliken charges with hydrogens summed into heavy atoms =   0.00000
          Condensed to fragments (all electrons):
     1      -0.000445
     2       0.000445
 Electronic spatial extent (au):  <R**2>=            477.1443
 Charge=              0.0000 electrons
 Dipole moment (field-independent basis, Debye):
    X=             -3.3947    Y=             -0.1557    Z=              0.9589  Tot=              3.5310
 Quadrupole moment (field-independent basis, Debye-Ang):
   XX=            -38.6752   YY=            -27.7244   ZZ=            -29.5011
   XY=             -0.5603   XZ=              1.3003   YZ=             -1.2376
 Traceless Quadrupole moment (field-independent basis, Debye-Ang):
   XX=             -6.7083   YY=              4.2424   ZZ=              2.4658
   XY=             -0.5603   XZ=              1.3003   YZ=             -1.2376
 Octapole moment (field-independent basis, Debye-Ang**2):
  XXX=            -44.8340  YYY=             -0.4018  ZZZ=              0.3539  XYY=             -7.2201
  XXY=             -1.3668  XXZ=              0.8932  XZZ=             -7.3724  YZZ=             -0.7905
  YYZ=              1.4761  XYZ=             -1.6537
 Hexadecapole moment (field-independent basis, Debye-Ang**3):
 XXXX=           -458.3633 YYYY=            -61.5591 ZZZZ=            -28.2739 XXXY=             -1.7872
 XXXZ=              0.3441 YYYX=             -1.0605 YYYZ=             -1.7572 ZZZX=              0.8488
 ZZZY=             -0.9415 XXYY=            -84.9059 XXZZ=            -73.9393 YYZZ=            -16.1268
 XXYZ=             -2.2583 YYXZ=              1.9943 ZZXY=             -1.1012
 N-N= 1.510050746500D+02 E-N=-7.238611047795D+03  KE= 2.899968658259D+03
 No NMR shielding tensors so no spin-rotation constants.
 Leave Link  601 at Mon May 11 11:42:23 2020, MaxMem= 1073741824 cpu:       1.2
 (Enter /home/matheus/.gaussian/g09/l122.exe)
 Counterpoise: doing DCBS calculation for fragment   1 NewBq=T
 Leave Link  122 at Mon May 11 11:42:23 2020, MaxMem= 1073741824 cpu:       0.0
 (Enter /home/matheus/.gaussian/g09/l301.exe)
 Basis read from rwf:  (5D, 7F)
 No pseudopotential information found on rwf file.
 There are   197 symmetry adapted basis functions of A   symmetry.
 Integral buffers will be    131072 words long.
 Raffenetti 2 integral format.
 Two-electron integral symmetry is turned on.
   197 basis functions,   415 primitive gaussians,   229 cartesian basis functions
     9 alpha electrons        9 beta electrons
       nuclear repulsion energy        36.6553686071 Hartrees.
 IExCor=10402 DFT=T Ex=LC-B+HF Corr=LYP ExCW=0 ScaHFX=  1.000000
 ScaDFX=  1.000000  1.000000  1.000000  1.000000 ScalE2=  1.000000  1.000000
 IRadAn=      5 IRanWt=     -1 IRanGd=            0 ICorTp=0
  HFx wShort=  0.000000 wLong=  1.350000 cFull=  0.000000 cShort=  0.000000 cLong=  1.000000
  DFx wShort=  0.000000 wLong=  1.350000 cFull=  0.000000 cShort=  0.000000 cLong=  1.000000
 NAtoms=    5 NActive=    5 NUniq=    5 SFac= 1.00D+00 NAtFMM=   60 NAOKFM=F Big=F
 No density basis found on file   718.
 Leave Link  301 at Mon May 11 11:42:23 2020, MaxMem= 1073741824 cpu:       0.2
 (Enter /home/matheus/.gaussian/g09/l302.exe)
 NPDir=0 NMtPBC=     1 NCelOv=     1 NCel=       1 NClECP=     1 NCelD=      1
         NCelK=      1 NCelE2=     1 NClLst=     1 CellRange=     0.0.
 One-electron integrals computed using PRISM.
 NBasis=   197 RedAO= T  NBF=   197
 NBsUse=   197 1.00D-06 NBFU=   197
 Precomputing XC quadrature grid using
 IXCGrd= 2 IRadAn=           5 IRanWt=          -1 IRanGd=           0 AccXCQ= 0.00D+00.
 NRdTot=     427 NPtTot=      123512 NUsed=      126579 NTot=      126611
 NSgBfM=   229   229   229   229   229 NAtAll=     5     5.
 Leave Link  302 at Mon May 11 11:42:24 2020, MaxMem= 1073741824 cpu:       1.0
 (Enter /home/matheus/.gaussian/g09/l303.exe)
 DipDrv:  MaxL=1.
 Leave Link  303 at Mon May 11 11:42:24 2020, MaxMem= 1073741824 cpu:       0.2
 (Enter /home/matheus/.gaussian/g09/l401.exe)
 Harris functional with IExCor=10402 diagonalized for initial guess.
 ExpMin= 2.53D-02 ExpMax= 1.17D+07 ExpMxC= 1.33D+04 IAcc=3 IRadAn=         5 AccDes= 0.00D+00
 HarFok:  IExCor=10402 AccDes= 0.00D+00 IRadAn=         5 IDoV= 1
 ScaDFX=  1.000000  1.000000  1.000000  1.000000
 FoFCou: FMM=F IPFlag=           0 FMFlag=      100000 FMFlg1=           0
         NFxFlg=           0 DoJE=T BraDBF=F KetDBF=T FulRan=T
         Omega=  0.000000  0.000000  1.000000  0.000000  0.000000 ICntrl=     500 IOpCl=  0
         NMat0=    1 NMatS0=    1 NMatT0=    0 NMatD0=    1 NMtDS0=    0 NMtDT0=    0
         I1Cent=           4 NGrid=           0.
 Petite list used in FoFCou.
 Harris En= -143.216184295268    
 Initial guess orbital symmetries:
       Occupied  (A) (A) (A) (A) (A) (A) (A) (A) (A)
       Virtual   (A) (A) (A) (A) (A) (A) (A) (A) (A) (A) (A) (A)
                 (A) (A) (A) (A) (A) (A) (A) (A) (A) (A) (A) (A)
                 (A) (A) (A) (A) (A) (A) (A) (A) (A) (A) (A) (A)
                 (A) (A) (A) (A) (A) (A) (A) (A) (A) (A) (A) (A)
                 (A) (A) (A) (A) (A) (A) (A) (A) (A) (A) (A) (A)
                 (A) (A) (A) (A) (A) (A) (A) (A) (A) (A) (A) (A)
                 (A) (A) (A) (A) (A) (A) (A) (A) (A) (A) (A) (A)
                 (A) (A) (A) (A) (A) (A) (A) (A) (A) (A) (A) (A)
                 (A) (A) (A) (A) (A) (A) (A) (A) (A) (A) (A) (A)
                 (A) (A) (A) (A) (A) (A) (A) (A) (A) (A) (A) (A)
                 (A) (A) (A) (A) (A) (A) (A) (A) (A) (A) (A) (A)
                 (A) (A) (A) (A) (A) (A) (A) (A) (A) (A) (A) (A)
                 (A) (A) (A) (A) (A) (A) (A) (A) (A) (A) (A) (A)
                 (A) (A) (A) (A) (A) (A) (A) (A) (A) (A) (A) (A)
                 (A) (A) (A) (A) (A) (A) (A) (A) (A) (A) (A) (A)
                 (A) (A) (A) (A) (A) (A) (A) (A)
 The electronic state of the initial guess is 1-A.
 Leave Link  401 at Mon May 11 11:42:24 2020, MaxMem= 1073741824 cpu:       4.0
 (Enter /home/matheus/.gaussian/g09/l502.exe)
 Closed shell SCF:
 Requested convergence on RMS density matrix=1.00D-08 within 128 cycles.
 Requested convergence on MAX density matrix=1.00D-06.
 Requested convergence on             energy=1.00D-06.
 No special actions if energy rises.
 Using DIIS extrapolation, IDIIS=  1040.
 Integral symmetry usage will be decided dynamically.
       126521 words used for storage of precomputed grid.
 IEnd=      305468 IEndB=      305468 NGot=  1073741824 MDV=  1073505667
 LenX=  1073505667 LenY=  1073452785
 Fock matrices will be formed incrementally for  20 cycles.

 Cycle   1  Pass 1  IDiag  1:
 FoFJK:  IHMeth= 1 ICntrl=     0 DoSepK=T KAlg= 1 I1Cent= 0 FoldK=F
 FoFCou: FMM=F IPFlag=           0 FMFlag=      100000 FMFlg1=           0
         NFxFlg=           0 DoJE=T BraDBF=F KetDBF=F FulRan=T
         Omega=  0.000000  0.000000  1.000000  0.000000  0.000000 ICntrl=     500 IOpCl=  0
         NMat0=    1 NMatS0=    1 NMatT0=    0 NMatD0=    1 NMtDS0=    0 NMtDT0=    0
         I1Cent=           0 NGrid=           0.
 Symmetry not used in FoFCou.
 E= -147.600049488140    
 DIIS: error= 1.04D-01 at cycle   1 NSaved=   1.
 NSaved= 1 IEnMin= 1 EnMin= -147.600049488140     IErMin= 1 ErrMin= 1.04D-01
 ErrMax= 1.04D-01 EMaxC= 1.00D-01 BMatC= 2.58D+00 BMatP= 2.58D+00
 IDIUse=3 WtCom= 0.00D+00 WtEn= 1.00D+00
 Coeff-Com:  0.100D+01
 Coeff-En:   0.100D+01
 Coeff:      0.100D+01
 Gap=     0.892 Goal=   None    Shift=    0.000
 GapD=    0.892 DampG=2.000 DampE=0.250 DampFc=0.5000 IDamp=-1.
 Damping current iteration by 5.00D-01
 RMSDP=4.17D-02 MaxDP=3.18D+00              OVMax= 1.00D+00

 Cycle   2  Pass 1  IDiag  1:
 RMSU=  3.51D-03    CP:  5.22D-01
 FoFJK:  IHMeth= 1 ICntrl=     0 DoSepK=T KAlg= 1 I1Cent= 0 FoldK=F
 E= -149.733008910681     Delta-E=       -2.132959422541 Rises=F Damp=T
 DIIS: error= 2.64D-02 at cycle   2 NSaved=   2.
 NSaved= 2 IEnMin= 2 EnMin= -149.733008910681     IErMin= 2 ErrMin= 2.64D-02
 ErrMax= 2.64D-02 EMaxC= 1.00D-01 BMatC= 1.75D-01 BMatP= 2.58D+00
 IDIUse=3 WtCom= 7.36D-01 WtEn= 2.64D-01
 Coeff-Com: -0.498D-01 0.105D+01
 Coeff-En:   0.000D+00 0.100D+01
 Coeff:     -0.366D-01 0.104D+01
 Gap=     0.499 Goal=   None    Shift=    0.000
 RMSDP=2.09D-02 MaxDP=1.59D+00 DE=-2.13D+00 OVMax= 1.74D-01

 Cycle   3  Pass 1  IDiag  1:
 RMSU=  2.09D-03    CP:  4.59D-02  1.86D+00
 FoFJK:  IHMeth= 1 ICntrl=     0 DoSepK=T KAlg= 1 I1Cent= 0 FoldK=F
 E= -151.103225965562     Delta-E=       -1.370217054880 Rises=F Damp=F
 DIIS: error= 1.90D-02 at cycle   3 NSaved=   3.
 NSaved= 3 IEnMin= 3 EnMin= -151.103225965562     IErMin= 3 ErrMin= 1.90D-02
 ErrMax= 1.90D-02 EMaxC= 1.00D-01 BMatC= 1.28D-01 BMatP= 1.75D-01
 IDIUse=3 WtCom= 8.10D-01 WtEn= 1.90D-01
 Coeff-Com:  0.241D+00-0.439D+00 0.120D+01
 Coeff-En:   0.000D+00 0.000D+00 0.100D+01
 Coeff:      0.195D+00-0.356D+00 0.116D+01
 Gap=     0.663 Goal=   None    Shift=    0.000
 RMSDP=1.55D-03 MaxDP=4.95D-02 DE=-1.37D+00 OVMax= 8.81D-02

 Cycle   4  Pass 1  IDiag  1:
 RMSU=  8.25D-04    CP:  4.34D-02  1.78D+00  1.32D+00
 FoFJK:  IHMeth= 1 ICntrl=     0 DoSepK=T KAlg= 1 I1Cent= 0 FoldK=F
 E= -151.203043568563     Delta-E=       -0.099817603001 Rises=F Damp=F
 DIIS: error= 4.88D-03 at cycle   4 NSaved=   4.
 NSaved= 4 IEnMin= 4 EnMin= -151.203043568563     IErMin= 4 ErrMin= 4.88D-03
 ErrMax= 4.88D-03 EMaxC= 1.00D-01 BMatC= 7.92D-03 BMatP= 1.28D-01
 IDIUse=3 WtCom= 9.51D-01 WtEn= 4.88D-02
 Coeff-Com: -0.372D-01 0.121D+00 0.448D-01 0.871D+00
 Coeff-En:   0.000D+00 0.000D+00 0.000D+00 0.100D+01
 Coeff:     -0.354D-01 0.115D+00 0.427D-01 0.877D+00
 Gap=     0.512 Goal=   None    Shift=    0.000
 RMSDP=2.52D-04 MaxDP=1.15D-02 DE=-9.98D-02 OVMax= 1.86D-02

 Cycle   5  Pass 1  IDiag  1:
 RMSU=  1.02D-04    CP:  4.30D-02  1.80D+00  1.25D+00  9.72D-01
 FoFJK:  IHMeth= 1 ICntrl=     0 DoSepK=T KAlg= 1 I1Cent= 0 FoldK=F
 E= -151.207434772313     Delta-E=       -0.004391203750 Rises=F Damp=F
 DIIS: error= 1.31D-03 at cycle   5 NSaved=   5.
 NSaved= 5 IEnMin= 5 EnMin= -151.207434772313     IErMin= 5 ErrMin= 1.31D-03
 ErrMax= 1.31D-03 EMaxC= 1.00D-01 BMatC= 5.27D-04 BMatP= 7.92D-03
 IDIUse=3 WtCom= 9.87D-01 WtEn= 1.31D-02
 Coeff-Com:  0.591D-02-0.207D-01-0.922D-01-0.174D+00 0.128D+01
 Coeff-En:   0.000D+00 0.000D+00 0.000D+00 0.000D+00 0.100D+01
 Coeff:      0.583D-02-0.204D-01-0.910D-01-0.172D+00 0.128D+01
 Gap=     0.510 Goal=   None    Shift=    0.000
 RMSDP=1.63D-04 MaxDP=3.51D-03 DE=-4.39D-03 OVMax= 9.40D-03

 Cycle   6  Pass 1  IDiag  1:
 RMSU=  3.55D-05    CP:  4.27D-02  1.79D+00  1.27D+00  1.09D+00  1.32D+00
 FoFJK:  IHMeth= 1 ICntrl=     0 DoSepK=T KAlg= 1 I1Cent= 0 FoldK=F
 E= -151.207986756381     Delta-E=       -0.000551984068 Rises=F Damp=F
 DIIS: error= 3.09D-04 at cycle   6 NSaved=   6.
 NSaved= 6 IEnMin= 6 EnMin= -151.207986756381     IErMin= 6 ErrMin= 3.09D-04
 ErrMax= 3.09D-04 EMaxC= 1.00D-01 BMatC= 1.95D-05 BMatP= 5.27D-04
 IDIUse=3 WtCom= 9.97D-01 WtEn= 3.09D-03
 Coeff-Com:  0.184D-02-0.638D-02 0.124D-01-0.380D-01-0.238D-01 0.105D+01
 Coeff-En:   0.000D+00 0.000D+00 0.000D+00 0.000D+00 0.000D+00 0.100D+01
 Coeff:      0.183D-02-0.636D-02 0.124D-01-0.379D-01-0.238D-01 0.105D+01
 Gap=     0.511 Goal=   None    Shift=    0.000
 RMSDP=1.67D-05 MaxDP=4.81D-04 DE=-5.52D-04 OVMax= 1.48D-03

 Cycle   7  Pass 1  IDiag  1:
 RMSU=  6.53D-06    CP:  4.27D-02  1.79D+00  1.27D+00  1.08D+00  1.36D+00
                    CP:  1.19D+00
 FoFJK:  IHMeth= 1 ICntrl=     0 DoSepK=T KAlg= 1 I1Cent= 0 FoldK=F
 E= -151.208007204955     Delta-E=       -0.000020448574 Rises=F Damp=F
 DIIS: error= 9.09D-05 at cycle   7 NSaved=   7.
 NSaved= 7 IEnMin= 7 EnMin= -151.208007204955     IErMin= 7 ErrMin= 9.09D-05
 ErrMax= 9.09D-05 EMaxC= 1.00D-01 BMatC= 1.47D-06 BMatP= 1.95D-05
 IDIUse=1 WtCom= 1.00D+00 WtEn= 0.00D+00
 Coeff-Com: -0.102D-03 0.555D-03 0.514D-02 0.813D-02-0.503D-01-0.258D+00
 Coeff-Com:  0.129D+01
 Coeff:     -0.102D-03 0.555D-03 0.514D-02 0.813D-02-0.503D-01-0.258D+00
 Coeff:      0.129D+01
 Gap=     0.511 Goal=   None    Shift=    0.000
 RMSDP=8.30D-06 MaxDP=2.03D-04 DE=-2.04D-05 OVMax= 6.68D-04

 Cycle   8  Pass 1  IDiag  1:
 RMSU=  1.87D-06    CP:  4.28D-02  1.79D+00  1.27D+00  1.07D+00  1.36D+00
                    CP:  1.25D+00  1.54D+00
 FoFJK:  IHMeth= 1 ICntrl=     0 DoSepK=T KAlg= 1 I1Cent= 0 FoldK=F
 E= -151.208009451411     Delta-E=       -0.000002246456 Rises=F Damp=F
 DIIS: error= 1.80D-05 at cycle   8 NSaved=   8.
 NSaved= 8 IEnMin= 8 EnMin= -151.208009451411     IErMin= 8 ErrMin= 1.80D-05
 ErrMax= 1.80D-05 EMaxC= 1.00D-01 BMatC= 7.98D-08 BMatP= 1.47D-06
 IDIUse=1 WtCom= 1.00D+00 WtEn= 0.00D+00
 Coeff-Com: -0.124D-03 0.529D-03-0.106D-02 0.294D-02-0.543D-03-0.957D-01
 Coeff-Com:  0.888D-01 0.101D+01
 Coeff:     -0.124D-03 0.529D-03-0.106D-02 0.294D-02-0.543D-03-0.957D-01
 Coeff:      0.888D-01 0.101D+01
 Gap=     0.512 Goal=   None    Shift=    0.000
 RMSDP=1.79D-06 MaxDP=5.10D-05 DE=-2.25D-06 OVMax= 2.13D-04

 Cycle   9  Pass 1  IDiag  1:
 RMSU=  7.31D-07    CP:  4.28D-02  1.79D+00  1.27D+00  1.07D+00  1.36D+00
                    CP:  1.26D+00  1.66D+00  1.30D+00
 FoFJK:  IHMeth= 1 ICntrl=     0 DoSepK=T KAlg= 1 I1Cent= 0 FoldK=F
 E= -151.208009613918     Delta-E=       -0.000000162506 Rises=F Damp=F
 DIIS: error= 1.11D-05 at cycle   9 NSaved=   9.
 NSaved= 9 IEnMin= 9 EnMin= -151.208009613918     IErMin= 9 ErrMin= 1.11D-05
 ErrMax= 1.11D-05 EMaxC= 1.00D-01 BMatC= 3.32D-08 BMatP= 7.98D-08
 IDIUse=1 WtCom= 1.00D+00 WtEn= 0.00D+00
 Coeff-Com: -0.407D-04 0.156D-03-0.139D-02-0.564D-04 0.722D-02 0.205D-01
 Coeff-Com: -0.216D+00 0.356D+00 0.834D+00
 Coeff:     -0.407D-04 0.156D-03-0.139D-02-0.564D-04 0.722D-02 0.205D-01
 Coeff:     -0.216D+00 0.356D+00 0.834D+00
 Gap=     0.512 Goal=   None    Shift=    0.000
 RMSDP=8.49D-07 MaxDP=2.11D-05 DE=-1.63D-07 OVMax= 1.04D-04

 Cycle  10  Pass 1  IDiag  1:
 RMSU=  3.21D-07    CP:  4.28D-02  1.79D+00  1.27D+00  1.08D+00  1.36D+00
                    CP:  1.26D+00  1.70D+00  1.47D+00  1.20D+00
 FoFJK:  IHMeth= 1 ICntrl=     0 DoSepK=T KAlg= 1 I1Cent= 0 FoldK=F
 E= -151.208009662093     Delta-E=       -0.000000048176 Rises=F Damp=F
 DIIS: error= 3.68D-06 at cycle  10 NSaved=  10.
 NSaved=10 IEnMin=10 EnMin= -151.208009662093     IErMin=10 ErrMin= 3.68D-06
 ErrMax= 3.68D-06 EMaxC= 1.00D-01 BMatC= 3.10D-09 BMatP= 3.32D-08
 IDIUse=1 WtCom= 1.00D+00 WtEn= 0.00D+00
 Coeff-Com:  0.102D-04-0.621D-04 0.486D-03-0.182D-04-0.318D-02 0.199D-01
 Coeff-Com:  0.324D-02-0.253D+00-0.933D-01 0.133D+01
 Coeff:      0.102D-04-0.621D-04 0.486D-03-0.182D-04-0.318D-02 0.199D-01
 Coeff:      0.324D-02-0.253D+00-0.933D-01 0.133D+01
 Gap=     0.512 Goal=   None    Shift=    0.000
 RMSDP=5.42D-07 MaxDP=1.45D-05 DE=-4.82D-08 OVMax= 6.97D-05

 Cycle  11  Pass 1  IDiag  1:
 RMSU=  1.16D-07    CP:  4.28D-02  1.79D+00  1.27D+00  1.08D+00  1.36D+00
                    CP:  1.26D+00  1.71D+00  1.53D+00  1.50D+00  1.50D+00
 FoFJK:  IHMeth= 1 ICntrl=     0 DoSepK=T KAlg= 1 I1Cent= 0 FoldK=F
 E= -151.208009670814     Delta-E=       -0.000000008721 Rises=F Damp=F
 DIIS: error= 1.15D-06 at cycle  11 NSaved=  11.
 NSaved=11 IEnMin=11 EnMin= -151.208009670814     IErMin=11 ErrMin= 1.15D-06
 ErrMax= 1.15D-06 EMaxC= 1.00D-01 BMatC= 3.44D-10 BMatP= 3.10D-09
 IDIUse=1 WtCom= 1.00D+00 WtEn= 0.00D+00
 Coeff-Com:  0.429D-06-0.266D-05-0.279D-04-0.974D-04 0.684D-03-0.368D-02
 Coeff-Com:  0.594D-03 0.635D-01-0.398D-02-0.420D+00 0.136D+01
 Coeff:      0.429D-06-0.266D-05-0.279D-04-0.974D-04 0.684D-03-0.368D-02
 Coeff:      0.594D-03 0.635D-01-0.398D-02-0.420D+00 0.136D+01
 Gap=     0.512 Goal=   None    Shift=    0.000
 RMSDP=1.38D-07 MaxDP=2.41D-06 DE=-8.72D-09 OVMax= 1.40D-05

 Cycle  12  Pass 1  IDiag  1:
 RMSU=  3.28D-08    CP:  4.28D-02  1.79D+00  1.27D+00  1.08D+00  1.36D+00
                    CP:  1.26D+00  1.71D+00  1.53D+00  1.53D+00  1.61D+00
                    CP:  1.47D+00
 FoFJK:  IHMeth= 1 ICntrl=     0 DoSepK=T KAlg= 1 I1Cent= 0 FoldK=F
 E= -151.208009671274     Delta-E=       -0.000000000460 Rises=F Damp=F
 DIIS: error= 3.03D-07 at cycle  12 NSaved=  12.
 NSaved=12 IEnMin=12 EnMin= -151.208009671274     IErMin=12 ErrMin= 3.03D-07
 ErrMax= 3.03D-07 EMaxC= 1.00D-01 BMatC= 8.81D-12 BMatP= 3.44D-10
 IDIUse=1 WtCom= 1.00D+00 WtEn= 0.00D+00
 Coeff-Com: -0.775D-06 0.379D-05-0.951D-05 0.441D-04-0.165D-03 0.110D-02
 Coeff-Com: -0.252D-02-0.107D-01 0.987D-02 0.985D-01-0.592D+00 0.150D+01
 Coeff:     -0.775D-06 0.379D-05-0.951D-05 0.441D-04-0.165D-03 0.110D-02
 Coeff:     -0.252D-02-0.107D-01 0.987D-02 0.985D-01-0.592D+00 0.150D+01
 Gap=     0.512 Goal=   None    Shift=    0.000
 RMSDP=4.38D-08 MaxDP=1.24D-06 DE=-4.60D-10 OVMax= 4.27D-06

 Cycle  13  Pass 1  IDiag  1:
 RMSU=  9.39D-09    CP:  4.28D-02  1.79D+00  1.27D+00  1.08D+00  1.36D+00
                    CP:  1.26D+00  1.72D+00  1.53D+00  1.53D+00  1.62D+00
                    CP:  1.58D+00  1.56D+00
 FoFJK:  IHMeth= 1 ICntrl=     0 DoSepK=T KAlg= 1 I1Cent= 0 FoldK=F
 E= -151.208009671296     Delta-E=       -0.000000000021 Rises=F Damp=F
 DIIS: error= 9.25D-08 at cycle  13 NSaved=  13.
 NSaved=13 IEnMin=13 EnMin= -151.208009671296     IErMin=13 ErrMin= 9.25D-08
 ErrMax= 9.25D-08 EMaxC= 1.00D-01 BMatC= 1.75D-12 BMatP= 8.81D-12
 IDIUse=1 WtCom= 1.00D+00 WtEn= 0.00D+00
 Coeff-Com:  0.490D-06-0.166D-05 0.606D-05-0.102D-04-0.156D-04 0.568D-04
 Coeff-Com:  0.731D-03-0.113D-02-0.394D-02-0.377D-02 0.121D+00-0.611D+00
 Coeff-Com:  0.150D+01
 Coeff:      0.490D-06-0.166D-05 0.606D-05-0.102D-04-0.156D-04 0.568D-04
 Coeff:      0.731D-03-0.113D-02-0.394D-02-0.377D-02 0.121D+00-0.611D+00
 Coeff:      0.150D+01
 Gap=     0.512 Goal=   None    Shift=    0.000
 RMSDP=1.59D-08 MaxDP=3.67D-07 DE=-2.11D-11 OVMax= 1.97D-06

 Cycle  14  Pass 1  IDiag  1:
 RMSU=  2.19D-09    CP:  4.28D-02  1.79D+00  1.27D+00  1.08D+00  1.36D+00
                    CP:  1.26D+00  1.72D+00  1.53D+00  1.54D+00  1.62D+00
                    CP:  1.60D+00  1.68D+00  1.80D+00
 FoFJK:  IHMeth= 1 ICntrl=     0 DoSepK=T KAlg= 1 I1Cent= 0 FoldK=F
 E= -151.208009671309     Delta-E=       -0.000000000014 Rises=F Damp=F
 DIIS: error= 2.57D-08 at cycle  14 NSaved=  14.
 NSaved=14 IEnMin=14 EnMin= -151.208009671309     IErMin=14 ErrMin= 2.57D-08
 ErrMax= 2.57D-08 EMaxC= 1.00D-01 BMatC= 2.21D-13 BMatP= 1.75D-12
 IDIUse=1 WtCom= 1.00D+00 WtEn= 0.00D+00
 Coeff-Com: -0.278D-07 0.700D-07-0.395D-06-0.320D-05 0.346D-04-0.238D-03
 Coeff-Com:  0.261D-03 0.184D-02-0.510D-03-0.119D-01 0.477D-01-0.587D-01
 Coeff-Com: -0.338D+00 0.136D+01
 Coeff:     -0.278D-07 0.700D-07-0.395D-06-0.320D-05 0.346D-04-0.238D-03
 Coeff:      0.261D-03 0.184D-02-0.510D-03-0.119D-01 0.477D-01-0.587D-01
 Coeff:     -0.338D+00 0.136D+01
 Gap=     0.512 Goal=   None    Shift=    0.000
 RMSDP=5.13D-09 MaxDP=1.22D-07 DE=-1.39D-11 OVMax= 8.05D-07

 SCF Done:  E(RLC-B+HF-LYP) =  -151.208009671     A.U. after   14 cycles
             Convg  =    0.5132D-08             -V/T =  2.0061
 KE= 1.502838847969D+02 PE=-4.315934278858D+02 EE= 9.344616481051D+01
 Leave Link  502 at Mon May 11 11:43:09 2020, MaxMem= 1073741824 cpu:     359.7
 (Enter /home/matheus/.gaussian/g09/l601.exe)
 Copying SCF densities to generalized density rwf, IOpCl= 0 IROHF=0.

 **********************************************************************

            Population analysis using the SCF density.

 **********************************************************************

 Orbital symmetries:
       Occupied  (A) (A) (A) (A) (A) (A) (A) (A) (A)
       Virtual   (A) (A) (A) (A) (A) (A) (A) (A) (A) (A) (A) (A)
                 (A) (A) (A) (A) (A) (A) (A) (A) (A) (A) (A) (A)
                 (A) (A) (A) (A) (A) (A) (A) (A) (A) (A) (A) (A)
                 (A) (A) (A) (A) (A) (A) (A) (A) (A) (A) (A) (A)
                 (A) (A) (A) (A) (A) (A) (A) (A) (A) (A) (A) (A)
                 (A) (A) (A) (A) (A) (A) (A) (A) (A) (A) (A) (A)
                 (A) (A) (A) (A) (A) (A) (A) (A) (A) (A) (A) (A)
                 (A) (A) (A) (A) (A) (A) (A) (A) (A) (A) (A) (A)
                 (A) (A) (A) (A) (A) (A) (A) (A) (A) (A) (A) (A)
                 (A) (A) (A) (A) (A) (A) (A) (A) (A) (A) (A) (A)
                 (A) (A) (A) (A) (A) (A) (A) (A) (A) (A) (A) (A)
                 (A) (A) (A) (A) (A) (A) (A) (A) (A) (A) (A) (A)
                 (A) (A) (A) (A) (A) (A) (A) (A) (A) (A) (A) (A)
                 (A) (A) (A) (A) (A) (A) (A) (A) (A) (A) (A) (A)
                 (A) (A) (A) (A) (A) (A) (A) (A) (A) (A) (A) (A)
                 (A) (A) (A) (A) (A) (A) (A) (A)
 The electronic state is 1-A.
 Alpha  occ. eigenvalues --  -19.48803 -19.48773  -1.46761  -1.21702  -0.79357
 Alpha  occ. eigenvalues --   -0.67564  -0.63369  -0.58000  -0.49640
 Alpha virt. eigenvalues --    0.01511   0.03557   0.06795   0.07519   0.09221
 Alpha virt. eigenvalues --    0.09997   0.12146   0.14731   0.16598   0.17353
 Alpha virt. eigenvalues --    0.18054   0.20049   0.21055   0.23651   0.25495
 Alpha virt. eigenvalues --    0.26544   0.28186   0.28720   0.32169   0.33831
 Alpha virt. eigenvalues --    0.34728   0.35664   0.37680   0.40103   0.41707
 Alpha virt. eigenvalues --    0.43097   0.45626   0.46108   0.48598   0.51421
 Alpha virt. eigenvalues --    0.53930   0.57411   0.60623   0.63760   0.69014
 Alpha virt. eigenvalues --    0.71507   0.73898   0.78469   0.78907   0.81846
 Alpha virt. eigenvalues --    0.83933   0.85258   0.88418   0.89983   0.92536
 Alpha virt. eigenvalues --    0.93601   0.95336   0.97217   0.99098   1.00011
 Alpha virt. eigenvalues --    1.04089   1.06350   1.07294   1.09237   1.11693
 Alpha virt. eigenvalues --    1.12150   1.16289   1.21210   1.22570   1.25075
 Alpha virt. eigenvalues --    1.28661   1.29439   1.30442   1.32049   1.33393
 Alpha virt. eigenvalues --    1.34586   1.35665   1.39475   1.44152   1.47551
 Alpha virt. eigenvalues --    1.50195   1.52159   1.55689   1.57829   1.62737
 Alpha virt. eigenvalues --    1.63960   1.68036   1.69751   1.77521   1.80183
 Alpha virt. eigenvalues --    1.86163   1.94262   2.00768   2.07024   2.12618
 Alpha virt. eigenvalues --    2.19938   2.20680   2.25761   2.30772   2.32952
 Alpha virt. eigenvalues --    2.37832   2.42144   2.43761   2.45964   2.48870
 Alpha virt. eigenvalues --    2.60818   2.63509   2.69459   2.71944   2.74072
 Alpha virt. eigenvalues --    2.76506   2.85283   2.98719   3.02092   3.05345
 Alpha virt. eigenvalues --    3.12511   3.21581   3.22806   3.24972   3.30524
 Alpha virt. eigenvalues --    3.44290   3.60468   3.71564   3.74972   3.77589
 Alpha virt. eigenvalues --    3.78615   3.80418   3.81456   3.82258   3.88409
 Alpha virt. eigenvalues --    3.90496   3.92731   3.94644   3.97256   4.06690
 Alpha virt. eigenvalues --    4.11220   4.13155   4.15354   4.22486   4.24945
 Alpha virt. eigenvalues --    4.30835   4.32462   4.37643   4.42471   4.44770
 Alpha virt. eigenvalues --    4.63258   4.66802   4.78618   4.83871   5.14979
 Alpha virt. eigenvalues --    5.18387   5.22461   5.25123   5.29759   5.33598
 Alpha virt. eigenvalues --    5.67701   6.06030   6.23789   6.32387   6.35645
 Alpha virt. eigenvalues --    6.57323   6.63441   6.67068   6.79492   6.91361
 Alpha virt. eigenvalues --    7.00056   7.04797   7.09289   7.10300   7.13339
 Alpha virt. eigenvalues --    7.14869   7.16366   7.17520   7.30939   7.39027
 Alpha virt. eigenvalues --    7.42393   7.48180   7.67188   7.77620   8.17875
 Alpha virt. eigenvalues --    8.27715   8.40135  11.04045  14.17594  14.81113
 Alpha virt. eigenvalues --   14.84142  14.90244  15.11687  29.00858  29.01547
 Alpha virt. eigenvalues --   29.05725  29.16523  29.20777  49.19626 148.29378
 Alpha virt. eigenvalues --  148.41187 148.70288 752.85132
          Condensed to atoms (all electrons):
              1          2          3          4          5
     1  O    8.234664  -0.210604   0.176002   0.020327   0.004830
     2  O   -0.210604   8.229703   0.029459   0.182157  -0.000668
     3  H    0.176002   0.029459   0.578547  -0.008604  -0.001974
     4  H    0.020327   0.182157  -0.008604   0.582429  -0.004404
     5  Kr   0.004830  -0.000668  -0.001974  -0.004404   0.001615
 Mulliken atomic charges:
              1
     1  O   -0.225220
     2  O   -0.230047
     3  H    0.226571
     4  H    0.228095
     5  Kr   0.000601
 Sum of Mulliken atomic charges =   0.00000
 Mulliken charges with hydrogens summed into heavy atoms:
              1
     1  O    0.001351
     2  O   -0.001952
     5  Kr   0.000601
 Sum of Mulliken charges with hydrogens summed into heavy atoms =   0.00000
          Condensed to fragments (all electrons):
     1      -0.000601
     2       0.000601
 Electronic spatial extent (au):  <R**2>=            317.3385
 Charge=              0.0000 electrons
 Dipole moment (field-independent basis, Debye):
    X=             -2.9853    Y=             -0.0729    Z=              1.1099  Tot=              3.1858
 Quadrupole moment (field-independent basis, Debye-Ang):
   XX=            -21.3943   YY=            -10.1935   ZZ=            -12.0698
   XY=             -0.6090   XZ=              1.1894   YZ=             -1.2659
 Traceless Quadrupole moment (field-independent basis, Debye-Ang):
   XX=             -6.8418   YY=              4.3590   ZZ=              2.4828
   XY=             -0.6090   XZ=              1.1894   YZ=             -1.2659
 Octapole moment (field-independent basis, Debye-Ang**2):
  XXX=            -93.6642  YYY=             -0.4329  ZZZ=              0.4004  XYY=            -23.8926
  XXY=             -1.2791  XXZ=              0.9642  XZZ=            -24.1178  YZZ=             -0.8076
  YYZ=              1.4995  XYZ=             -1.6520
 Hexadecapole moment (field-independent basis, Debye-Ang**3):
 XXXX=           -341.3968 YYYY=            -43.7037 ZZZZ=            -10.6222 XXXY=             -1.6937
 XXXZ=              0.1980 YYYX=             -1.0691 YYYZ=             -1.7994 ZZZX=              0.8533
 ZZZY=             -0.9786 XXYY=            -62.4607 XXZZ=            -51.7124 YYZZ=            -10.1999
 XXYZ=             -2.2558 YYXZ=              1.9814 ZZXY=             -1.0841
 N-N= 3.665536860714D+01 E-N=-4.315934306979D+02  KE= 1.502838847969D+02
 No NMR shielding tensors so no spin-rotation constants.
 Leave Link  601 at Mon May 11 11:43:09 2020, MaxMem= 1073741824 cpu:       0.9
 (Enter /home/matheus/.gaussian/g09/l122.exe)
 Counterpoise: doing DCBS calculation for fragment   2 NewBq=T
 Leave Link  122 at Mon May 11 11:43:09 2020, MaxMem= 1073741824 cpu:       0.0
 (Enter /home/matheus/.gaussian/g09/l301.exe)
 Basis read from rwf:  (5D, 7F)
 No pseudopotential information found on rwf file.
 There are   197 symmetry adapted basis functions of A   symmetry.
 Integral buffers will be    131072 words long.
 Raffenetti 2 integral format.
 Two-electron integral symmetry is turned on.
   197 basis functions,   415 primitive gaussians,   229 cartesian basis functions
    18 alpha electrons       18 beta electrons
       nuclear repulsion energy         0.0000000000 Hartrees.
 IExCor=10402 DFT=T Ex=LC-B+HF Corr=LYP ExCW=0 ScaHFX=  1.000000
 ScaDFX=  1.000000  1.000000  1.000000  1.000000 ScalE2=  1.000000  1.000000
 IRadAn=      5 IRanWt=     -1 IRanGd=            0 ICorTp=0
  HFx wShort=  0.000000 wLong=  1.350000 cFull=  0.000000 cShort=  0.000000 cLong=  1.000000
  DFx wShort=  0.000000 wLong=  1.350000 cFull=  0.000000 cShort=  0.000000 cLong=  1.000000
 NAtoms=    5 NActive=    5 NUniq=    5 SFac= 1.00D+00 NAtFMM=   60 NAOKFM=F Big=F
 No density basis found on file   718.
 Leave Link  301 at Mon May 11 11:43:09 2020, MaxMem= 1073741824 cpu:       0.2
 (Enter /home/matheus/.gaussian/g09/l302.exe)
 NPDir=0 NMtPBC=     1 NCelOv=     1 NCel=       1 NClECP=     1 NCelD=      1
         NCelK=      1 NCelE2=     1 NClLst=     1 CellRange=     0.0.
 One-electron integrals computed using PRISM.
 NBasis=   197 RedAO= T  NBF=   197
 NBsUse=   197 1.00D-06 NBFU=   197
 Precomputing XC quadrature grid using
 IXCGrd= 2 IRadAn=           5 IRanWt=          -1 IRanGd=           0 AccXCQ= 0.00D+00.
 NRdTot=     427 NPtTot=      123512 NUsed=      126579 NTot=      126611
 NSgBfM=   229   229   229   229   229 NAtAll=     5     5.
 Leave Link  302 at Mon May 11 11:43:09 2020, MaxMem= 1073741824 cpu:       1.0
 (Enter /home/matheus/.gaussian/g09/l303.exe)
 DipDrv:  MaxL=1.
 Leave Link  303 at Mon May 11 11:43:10 2020, MaxMem= 1073741824 cpu:       0.2
 (Enter /home/matheus/.gaussian/g09/l401.exe)
 Harris functional with IExCor=10402 diagonalized for initial guess.
 ExpMin= 2.53D-02 ExpMax= 1.17D+07 ExpMxC= 1.33D+04 IAcc=3 IRadAn=         5 AccDes= 0.00D+00
 HarFok:  IExCor=10402 AccDes= 0.00D+00 IRadAn=         5 IDoV= 1
 ScaDFX=  1.000000  1.000000  1.000000  1.000000
 FoFCou: FMM=F IPFlag=           0 FMFlag=      100000 FMFlg1=           0
         NFxFlg=           0 DoJE=T BraDBF=F KetDBF=T FulRan=T
         Omega=  0.000000  0.000000  1.000000  0.000000  0.000000 ICntrl=     500 IOpCl=  0
         NMat0=    1 NMatS0=    1 NMatT0=    0 NMatD0=    1 NMtDS0=    0 NMtDT0=    0
         I1Cent=           4 NGrid=           0.
 Petite list used in FoFCou.
 Harris En= -2731.73467509564    
 Initial guess orbital symmetries:
       Occupied  (A) (A) (A) (A) (A) (A) (A) (A) (A) (A) (A) (A)
                 (A) (A) (A) (A) (A) (A)
       Virtual   (A) (A) (A) (A) (A) (A) (A) (A) (A) (A) (A) (A)
                 (A) (A) (A) (A) (A) (A) (A) (A) (A) (A) (A) (A)
                 (A) (A) (A) (A) (A) (A) (A) (A) (A) (A) (A) (A)
                 (A) (A) (A) (A) (A) (A) (A) (A) (A) (A) (A) (A)
                 (A) (A) (A) (A) (A) (A) (A) (A) (A) (A) (A) (A)
                 (A) (A) (A) (A) (A) (A) (A) (A) (A) (A) (A) (A)
                 (A) (A) (A) (A) (A) (A) (A) (A) (A) (A) (A) (A)
                 (A) (A) (A) (A) (A) (A) (A) (A) (A) (A) (A) (A)
                 (A) (A) (A) (A) (A) (A) (A) (A) (A) (A) (A) (A)
                 (A) (A) (A) (A) (A) (A) (A) (A) (A) (A) (A) (A)
                 (A) (A) (A) (A) (A) (A) (A) (A) (A) (A) (A) (A)
                 (A) (A) (A) (A) (A) (A) (A) (A) (A) (A) (A) (A)
                 (A) (A) (A) (A) (A) (A) (A) (A) (A) (A) (A) (A)
                 (A) (A) (A) (A) (A) (A) (A) (A) (A) (A) (A) (A)
                 (A) (A) (A) (A) (A) (A) (A) (A) (A) (A) (A)
 The electronic state of the initial guess is 1-A.
 Leave Link  401 at Mon May 11 11:43:10 2020, MaxMem= 1073741824 cpu:       4.0
 (Enter /home/matheus/.gaussian/g09/l502.exe)
 Closed shell SCF:
 Requested convergence on RMS density matrix=1.00D-08 within 128 cycles.
 Requested convergence on MAX density matrix=1.00D-06.
 Requested convergence on             energy=1.00D-06.
 No special actions if energy rises.
 Using DIIS extrapolation, IDIIS=  1040.
 Integral symmetry usage will be decided dynamically.
       126521 words used for storage of precomputed grid.
 IEnd=      305468 IEndB=      305468 NGot=  1073741824 MDV=  1073505667
 LenX=  1073505667 LenY=  1073452785
 Fock matrices will be formed incrementally for  20 cycles.

 Cycle   1  Pass 1  IDiag  1:
 FoFJK:  IHMeth= 1 ICntrl=     0 DoSepK=T KAlg= 1 I1Cent= 0 FoldK=F
 FoFCou: FMM=F IPFlag=           0 FMFlag=      100000 FMFlg1=           0
         NFxFlg=           0 DoJE=T BraDBF=F KetDBF=F FulRan=T
         Omega=  0.000000  0.000000  1.000000  0.000000  0.000000 ICntrl=     500 IOpCl=  0
         NMat0=    1 NMatS0=    1 NMatT0=    0 NMatD0=    1 NMtDS0=    0 NMtDT0=    0
         I1Cent=           0 NGrid=           0.
 Symmetry not used in FoFCou.
 E= -2752.70964376611    
 DIIS: error= 4.06D-02 at cycle   1 NSaved=   1.
 NSaved= 1 IEnMin= 1 EnMin= -2752.70964376611     IErMin= 1 ErrMin= 4.06D-02
 ErrMax= 4.06D-02 EMaxC= 1.00D-01 BMatC= 1.18D+00 BMatP= 1.18D+00
 IDIUse=3 WtCom= 5.94D-01 WtEn= 4.06D-01
 Coeff-Com:  0.100D+01
 Coeff-En:   0.100D+01
 Coeff:      0.100D+01
 Gap=     0.765 Goal=   None    Shift=    0.000
 GapD=    0.765 DampG=2.000 DampE=0.500 DampFc=1.0000 IDamp=-1.
 RMSDP=4.98D-03 MaxDP=2.28D-01              OVMax= 3.37D-01

 Cycle   2  Pass 1  IDiag  1:
 RMSU=  3.44D-03    CP:  1.05D+00
 FoFJK:  IHMeth= 1 ICntrl=     0 DoSepK=T KAlg= 1 I1Cent= 0 FoldK=F
 E= -2753.27677293209     Delta-E=       -0.567129165978 Rises=F Damp=F
 DIIS: error= 2.65D-02 at cycle   2 NSaved=   2.
 NSaved= 2 IEnMin= 2 EnMin= -2753.27677293209     IErMin= 2 ErrMin= 2.65D-02
 ErrMax= 2.65D-02 EMaxC= 1.00D-01 BMatC= 3.65D-01 BMatP= 1.18D+00
 IDIUse=3 WtCom= 7.35D-01 WtEn= 2.65D-01
 Coeff-Com:  0.351D+00 0.649D+00
 Coeff-En:   0.000D+00 0.100D+01
 Coeff:      0.258D+00 0.742D+00
 Gap=     0.605 Goal=   None    Shift=    0.000
 RMSDP=2.21D-03 MaxDP=1.34D-01 DE=-5.67D-01 OVMax= 7.30D-02

 Cycle   3  Pass 1  IDiag  1:
 RMSU=  8.59D-04    CP:  1.03D+00  6.31D-01
 FoFJK:  IHMeth= 1 ICntrl=     0 DoSepK=T KAlg= 1 I1Cent= 0 FoldK=F
 E= -2753.40768749093     Delta-E=       -0.130914558847 Rises=F Damp=F
 DIIS: error= 3.10D-03 at cycle   3 NSaved=   3.
 NSaved= 3 IEnMin= 3 EnMin= -2753.40768749093     IErMin= 3 ErrMin= 3.10D-03
 ErrMax= 3.10D-03 EMaxC= 1.00D-01 BMatC= 5.73D-03 BMatP= 3.65D-01
 IDIUse=3 WtCom= 9.69D-01 WtEn= 3.10D-02
 Coeff-Com: -0.901D-02 0.855D-01 0.923D+00
 Coeff-En:   0.000D+00 0.000D+00 0.100D+01
 Coeff:     -0.873D-02 0.829D-01 0.926D+00
 Gap=     0.575 Goal=   None    Shift=    0.000
 RMSDP=3.49D-04 MaxDP=1.55D-02 DE=-1.31D-01 OVMax= 1.06D-02

 Cycle   4  Pass 1  IDiag  1:
 RMSU=  2.27D-04    CP:  1.03D+00  6.57D-01  9.81D-01
 FoFJK:  IHMeth= 1 ICntrl=     0 DoSepK=T KAlg= 1 I1Cent= 0 FoldK=F
 E= -2753.40948719837     Delta-E=       -0.001799707440 Rises=F Damp=F
 DIIS: error= 3.60D-04 at cycle   4 NSaved=   4.
 NSaved= 4 IEnMin= 4 EnMin= -2753.40948719837     IErMin= 4 ErrMin= 3.60D-04
 ErrMax= 3.60D-04 EMaxC= 1.00D-01 BMatC= 3.69D-05 BMatP= 5.73D-03
 IDIUse=3 WtCom= 9.96D-01 WtEn= 3.60D-03
 Coeff-Com: -0.670D-02-0.422D-02-0.236D-02 0.101D+01
 Coeff-En:   0.000D+00 0.000D+00 0.000D+00 0.100D+01
 Coeff:     -0.668D-02-0.421D-02-0.236D-02 0.101D+01
 Gap=     0.581 Goal=   None    Shift=    0.000
 RMSDP=4.99D-05 MaxDP=2.24D-03 DE=-1.80D-03 OVMax= 3.47D-03

 Cycle   5  Pass 1  IDiag  1:
 RMSU=  2.00D-05    CP:  1.03D+00  6.60D-01  1.00D+00  1.08D+00
 FoFJK:  IHMeth= 1 ICntrl=     0 DoSepK=T KAlg= 1 I1Cent= 0 FoldK=F
 E= -2753.40954809634     Delta-E=       -0.000060897964 Rises=F Damp=F
 DIIS: error= 5.73D-05 at cycle   5 NSaved=   5.
 NSaved= 5 IEnMin= 5 EnMin= -2753.40954809634     IErMin= 5 ErrMin= 5.73D-05
 ErrMax= 5.73D-05 EMaxC= 1.00D-01 BMatC= 4.99D-07 BMatP= 3.69D-05
 IDIUse=1 WtCom= 1.00D+00 WtEn= 0.00D+00
 Coeff-Com: -0.820D-04-0.148D-02 0.124D-02-0.167D+00 0.117D+01
 Coeff:     -0.820D-04-0.148D-02 0.124D-02-0.167D+00 0.117D+01
 Gap=     0.581 Goal=   None    Shift=    0.000
 RMSDP=1.05D-05 MaxDP=4.47D-04 DE=-6.09D-05 OVMax= 6.34D-04

 Cycle   6  Pass 1  IDiag  1:
 RMSU=  9.93D-07    CP:  1.03D+00  6.60D-01  1.01D+00  1.10D+00  1.20D+00
 FoFJK:  IHMeth= 1 ICntrl=     0 DoSepK=T KAlg= 1 I1Cent= 0 FoldK=F
 E= -2753.40954951586     Delta-E=       -0.000001419526 Rises=F Damp=F
 DIIS: error= 2.09D-06 at cycle   6 NSaved=   6.
 NSaved= 6 IEnMin= 6 EnMin= -2753.40954951586     IErMin= 6 ErrMin= 2.09D-06
 ErrMax= 2.09D-06 EMaxC= 1.00D-01 BMatC= 1.01D-09 BMatP= 4.99D-07
 IDIUse=1 WtCom= 1.00D+00 WtEn= 0.00D+00
 Coeff-Com:  0.238D-04 0.113D-03-0.380D-03 0.118D-01-0.112D+00 0.110D+01
 Coeff:      0.238D-04 0.113D-03-0.380D-03 0.118D-01-0.112D+00 0.110D+01
 Gap=     0.581 Goal=   None    Shift=    0.000
 RMSDP=5.20D-07 MaxDP=2.30D-05 DE=-1.42D-06 OVMax= 2.35D-05

 Cycle   7  Pass 1  IDiag  1:
 RMSU=  6.41D-08    CP:  1.03D+00  6.60D-01  1.01D+00  1.10D+00  1.21D+00
                    CP:  1.14D+00
 FoFJK:  IHMeth= 1 ICntrl=     0 DoSepK=T KAlg= 1 I1Cent= 0 FoldK=F
 E= -2753.40954951663     Delta-E=       -0.000000000766 Rises=F Damp=F
 DIIS: error= 1.46D-07 at cycle   7 NSaved=   7.
 NSaved= 7 IEnMin= 7 EnMin= -2753.40954951663     IErMin= 7 ErrMin= 1.46D-07
 ErrMax= 1.46D-07 EMaxC= 1.00D-01 BMatC= 1.24D-11 BMatP= 1.01D-09
 IDIUse=1 WtCom= 1.00D+00 WtEn= 0.00D+00
 Coeff-Com:  0.325D-05 0.782D-05-0.442D-04 0.999D-03-0.637D-02 0.130D-01
 Coeff-Com:  0.992D+00
 Coeff:      0.325D-05 0.782D-05-0.442D-04 0.999D-03-0.637D-02 0.130D-01
 Coeff:      0.992D+00
 Gap=     0.581 Goal=   None    Shift=    0.000
 RMSDP=2.30D-08 MaxDP=1.03D-06 DE=-7.66D-10 OVMax= 1.35D-06

 Cycle   8  Pass 1  IDiag  1:
 RMSU=  9.75D-09    CP:  1.03D+00  6.60D-01  1.01D+00  1.10D+00  1.21D+00
                    CP:  1.14D+00  1.11D+00
 FoFJK:  IHMeth= 1 ICntrl=     0 DoSepK=T KAlg= 1 I1Cent= 0 FoldK=F
 E= -2753.40954951671     Delta-E=       -0.000000000075 Rises=F Damp=F
 DIIS: error= 4.35D-08 at cycle   8 NSaved=   8.
 NSaved= 8 IEnMin= 8 EnMin= -2753.40954951671     IErMin= 8 ErrMin= 4.35D-08
 ErrMax= 4.35D-08 EMaxC= 1.00D-01 BMatC= 5.43D-13 BMatP= 1.24D-11
 IDIUse=1 WtCom= 1.00D+00 WtEn= 0.00D+00
 Coeff-Com:  0.447D-07-0.224D-05 0.342D-05-0.228D-03 0.256D-02-0.301D-01
 Coeff-Com:  0.976D-01 0.930D+00
 Coeff:      0.447D-07-0.224D-05 0.342D-05-0.228D-03 0.256D-02-0.301D-01
 Coeff:      0.976D-01 0.930D+00
 Gap=     0.581 Goal=   None    Shift=    0.000
 RMSDP=5.09D-09 MaxDP=1.69D-07 DE=-7.46D-11 OVMax= 4.15D-07

 SCF Done:  E(RLC-B+HF-LYP) =  -2753.40954952     A.U. after    8 cycles
             Convg  =    0.5085D-08             -V/T =  2.0014
 KE= 2.749624062317D+03 PE=-6.579410776596D+03 EE= 1.076377164762D+03
 Leave Link  502 at Mon May 11 11:43:36 2020, MaxMem= 1073741824 cpu:     205.9
 (Enter /home/matheus/.gaussian/g09/l601.exe)
 Copying SCF densities to generalized density rwf, IOpCl= 0 IROHF=0.

 **********************************************************************

            Population analysis using the SCF density.

 **********************************************************************

 Orbital symmetries:
       Occupied  (A) (A) (A) (A) (A) (A) (A) (A) (A) (A) (A) (A)
                 (A) (A) (A) (A) (A) (A)
       Virtual   (A) (A) (A) (A) (A) (A) (A) (A) (A) (A) (A) (A)
                 (A) (A) (A) (A) (A) (A) (A) (A) (A) (A) (A) (A)
                 (A) (A) (A) (A) (A) (A) (A) (A) (A) (A) (A) (A)
                 (A) (A) (A) (A) (A) (A) (A) (A) (A) (A) (A) (A)
                 (A) (A) (A) (A) (A) (A) (A) (A) (A) (A) (A) (A)
                 (A) (A) (A) (A) (A) (A) (A) (A) (A) (A) (A) (A)
                 (A) (A) (A) (A) (A) (A) (A) (A) (A) (A) (A) (A)
                 (A) (A) (A) (A) (A) (A) (A) (A) (A) (A) (A) (A)
                 (A) (A) (A) (A) (A) (A) (A) (A) (A) (A) (A) (A)
                 (A) (A) (A) (A) (A) (A) (A) (A) (A) (A) (A) (A)
                 (A) (A) (A) (A) (A) (A) (A) (A) (A) (A) (A) (A)
                 (A) (A) (A) (A) (A) (A) (A) (A) (A) (A) (A) (A)
                 (A) (A) (A) (A) (A) (A) (A) (A) (A) (A) (A) (A)
                 (A) (A) (A) (A) (A) (A) (A) (A) (A) (A) (A) (A)
                 (A) (A) (A) (A) (A) (A) (A) (A) (A) (A) (A)
 The electronic state is 1-A.
 Alpha  occ. eigenvalues -- -511.65531 -67.18001 -60.85199 -60.85196 -60.85195
 Alpha  occ. eigenvalues --  -10.08107  -7.79670  -7.79669  -7.79669  -3.62633
 Alpha  occ. eigenvalues --   -3.62633  -3.62633  -3.62632  -3.62632  -1.17383
 Alpha  occ. eigenvalues --   -0.55370  -0.55366  -0.55363
 Alpha virt. eigenvalues --    0.02703   0.04790   0.07896   0.08903   0.11529
 Alpha virt. eigenvalues --    0.12452   0.13103   0.13164   0.15625   0.16825
 Alpha virt. eigenvalues --    0.17425   0.18619   0.20611   0.25671   0.26869
 Alpha virt. eigenvalues --    0.27204   0.29224   0.31821   0.33411   0.36239
 Alpha virt. eigenvalues --    0.36627   0.38142   0.38830   0.40100   0.41484
 Alpha virt. eigenvalues --    0.41618   0.45396   0.54452   0.56563   0.59979
 Alpha virt. eigenvalues --    0.62638   0.65057   0.67998   0.69826   0.72336
 Alpha virt. eigenvalues --    0.72811   0.75330   0.78133   0.78528   0.80288
 Alpha virt. eigenvalues --    0.81245   0.83986   0.86012   0.86407   0.89116
 Alpha virt. eigenvalues --    0.89403   0.90987   0.91553   0.93594   0.97787
 Alpha virt. eigenvalues --    0.99985   1.00141   1.02521   1.03224   1.04641
 Alpha virt. eigenvalues --    1.08326   1.09004   1.10082   1.16005   1.18433
 Alpha virt. eigenvalues --    1.20879   1.23861   1.29774   1.35276   1.37277
 Alpha virt. eigenvalues --    1.38021   1.40839   1.48660   1.50086   1.53479
 Alpha virt. eigenvalues --    1.59062   1.60929   1.63030   1.72026   1.78307
 Alpha virt. eigenvalues --    1.83702   1.85422   1.86637   1.90002   2.23525
 Alpha virt. eigenvalues --    2.27110   2.29793   2.33963   2.35072   2.37324
 Alpha virt. eigenvalues --    2.39558   2.42868   2.45243   2.46165   2.47455
 Alpha virt. eigenvalues --    2.48578   2.50146   2.53936   2.56954   2.57560
 Alpha virt. eigenvalues --    2.61595   2.63987   2.64761   2.66422   2.67313
 Alpha virt. eigenvalues --    2.68962   2.69604   2.76439   2.76797   2.78727
 Alpha virt. eigenvalues --    2.79976   2.86123   2.89907   2.91375   2.97064
 Alpha virt. eigenvalues --    2.99660   3.00325   3.05956   3.09423   3.18456
 Alpha virt. eigenvalues --    3.22500   3.26111   3.31659   3.40536   3.46953
 Alpha virt. eigenvalues --    3.60439   3.65282   3.82988   3.86763   4.01739
 Alpha virt. eigenvalues --    4.45573   4.49117   4.54145   4.56824   4.69649
 Alpha virt. eigenvalues --    4.74654   4.85979   4.87356   4.97400   5.08522
 Alpha virt. eigenvalues --    5.18123   5.20104   5.55851   5.63744   5.77110
 Alpha virt. eigenvalues --    5.93141   6.05063   6.07523   6.77028   6.85138
 Alpha virt. eigenvalues --    7.35707   7.36801   7.61525   7.69375   7.73378
 Alpha virt. eigenvalues --    7.83497   7.99630   8.14531   8.17035   8.26034
 Alpha virt. eigenvalues --    8.28616   8.43967   8.64758   8.93838   9.53811
 Alpha virt. eigenvalues --    9.72164   9.81377   9.88513   9.94022   9.94795
 Alpha virt. eigenvalues --   10.17860  10.21675  10.59286  10.90941  11.54758
 Alpha virt. eigenvalues --   11.60315  11.73351  11.98575  12.00593  13.21592
 Alpha virt. eigenvalues --   13.64592  14.52396  62.54418  64.68676
          Condensed to atoms (all electrons):
              1          2          3          4          5
     1  O    0.001280  -0.000729  -0.000759   0.000687  -0.008216
     2  O   -0.000729   0.004292   0.000219  -0.003340  -0.003210
     3  H   -0.000759   0.000219   0.001208  -0.000227  -0.009796
     4  H    0.000687  -0.003340  -0.000227   0.003901  -0.020191
     5  Kr  -0.008216  -0.003210  -0.009796  -0.020191  36.080439
 Mulliken atomic charges:
              1
     1  O    0.007736
     2  O    0.002767
     3  H    0.009354
     4  H    0.019169
     5  Kr  -0.039026
 Sum of Mulliken atomic charges =   0.00000
 Mulliken charges with hydrogens summed into heavy atoms:
              1
     1  O    0.017091
     2  O    0.021936
     5  Kr  -0.039026
 Sum of Mulliken charges with hydrogens summed into heavy atoms =   0.00000
          Condensed to fragments (all electrons):
     1       0.039026
     2      -0.039026
 Electronic spatial extent (au):  <R**2>=            160.1578
 Charge=              0.0000 electrons
 Dipole moment (field-independent basis, Debye):
    X=              0.0019    Y=              0.0003    Z=              0.0001  Tot=              0.0019
 Quadrupole moment (field-independent basis, Debye-Ang):
   XX=            -17.5618   YY=            -17.5727   ZZ=            -17.5820
   XY=              0.0014   XZ=              0.0028   YZ=             -0.0016
 Traceless Quadrupole moment (field-independent basis, Debye-Ang):
   XX=              0.0104   YY=             -0.0006   ZZ=             -0.0098
   XY=              0.0014   XZ=              0.0028   YZ=             -0.0016
 Octapole moment (field-independent basis, Debye-Ang**2):
  XXX=             51.1034  YYY=              0.1141  ZZZ=              0.1909  XYY=             17.0493
  XXY=              0.0343  XXZ=              0.0594  XZZ=             17.0550  YZZ=              0.0383
  YYZ=              0.0643  XYZ=              0.0004
 Hexadecapole moment (field-independent basis, Debye-Ang**3):
 XXXX=           -117.1845 YYYY=            -18.0807 ZZZZ=            -18.1142 XXXY=             -0.1034
 XXXZ=             -0.1765 YYYX=             -0.1052 YYYZ=             -0.0014 ZZZX=             -0.1785
 ZZZY=             -0.0028 XXYY=            -22.5555 XXZZ=            -22.5655 YYZZ=             -6.0319
 XXYZ=             -0.0015 YYXZ=             -0.0596 ZZXY=             -0.0342
 N-N= 0.000000000000D+00 E-N=-6.579410768006D+03  KE= 2.749624062317D+03
 No NMR shielding tensors so no spin-rotation constants.
 Leave Link  601 at Mon May 11 11:43:36 2020, MaxMem= 1073741824 cpu:       0.8
 (Enter /home/matheus/.gaussian/g09/l122.exe)
 Counterpoise: doing MCBS calculation for fragment   1
 Leave Link  122 at Mon May 11 11:43:36 2020, MaxMem= 1073741824 cpu:       0.0
 (Enter /home/matheus/.gaussian/g09/l301.exe)
 Basis read from rwf:  (5D, 7F)
 No pseudopotential information found on rwf file.
 There are   138 symmetry adapted basis functions of A   symmetry.
 Integral buffers will be    131072 words long.
 Raffenetti 2 integral format.
 Two-electron integral symmetry is turned on.
   138 basis functions,   198 primitive gaussians,   160 cartesian basis functions
     9 alpha electrons        9 beta electrons
       nuclear repulsion energy        36.6553686071 Hartrees.
 IExCor=10402 DFT=T Ex=LC-B+HF Corr=LYP ExCW=0 ScaHFX=  1.000000
 ScaDFX=  1.000000  1.000000  1.000000  1.000000 ScalE2=  1.000000  1.000000
 IRadAn=      5 IRanWt=     -1 IRanGd=            0 ICorTp=0
  HFx wShort=  0.000000 wLong=  1.350000 cFull=  0.000000 cShort=  0.000000 cLong=  1.000000
  DFx wShort=  0.000000 wLong=  1.350000 cFull=  0.000000 cShort=  0.000000 cLong=  1.000000
 NAtoms=    5 NActive=    4 NUniq=    4 SFac= 1.00D+00 NAtFMM=   60 NAOKFM=F Big=F
 No density basis found on file   718.
 Leave Link  301 at Mon May 11 11:43:36 2020, MaxMem= 1073741824 cpu:       0.2
 (Enter /home/matheus/.gaussian/g09/l302.exe)
 NPDir=0 NMtPBC=     1 NCelOv=     1 NCel=       1 NClECP=     1 NCelD=      1
         NCelK=      1 NCelE2=     1 NClLst=     1 CellRange=     0.0.
 One-electron integrals computed using PRISM.
 NBasis=   138 RedAO= T  NBF=   138
 NBsUse=   138 1.00D-06 NBFU=   138
 Precomputing XC quadrature grid using
 IXCGrd= 2 IRadAn=           5 IRanWt=          -1 IRanGd=           0 AccXCQ= 0.00D+00.
 NRdTot=     344 NPtTot=       92556 NUsed=       95038 NTot=       95070
 NSgBfM=   160   160   160   160   160 NAtAll=     4     4.
 Leave Link  302 at Mon May 11 11:43:36 2020, MaxMem= 1073741824 cpu:       0.8
 (Enter /home/matheus/.gaussian/g09/l303.exe)
 DipDrv:  MaxL=1.
 Leave Link  303 at Mon May 11 11:43:36 2020, MaxMem= 1073741824 cpu:       0.1
[...]
         NFxFlg=           0 DoJE=T BraDBF=F KetDBF=F FulRan=T
         Omega=  0.000000  0.000000  1.000000  0.000000  0.000000 ICntrl=     500 IOpCl=  0
         NMat0=    1 NMatS0=    1 NMatT0=    0 NMatD0=    1 NMtDS0=    0 NMtDT0=    0
         I1Cent=           0 NGrid=           0.
 Symmetry not used in FoFCou.
 E= -2753.40937630517    
 DIIS: error= 2.27D-04 at cycle   1 NSaved=   1.
 NSaved= 1 IEnMin= 1 EnMin= -2753.40937630517     IErMin= 1 ErrMin= 2.27D-04
 ErrMax= 2.27D-04 EMaxC= 1.00D-01 BMatC= 5.95D-06 BMatP= 5.95D-06
 IDIUse=3 WtCom= 9.98D-01 WtEn= 2.27D-03
 Coeff-Com:  0.100D+01
 Coeff-En:   0.100D+01
 Coeff:      0.100D+01
 Gap=     0.581 Goal=   None    Shift=    0.000
 RMSDP=1.36D-05 MaxDP=6.60D-04              OVMax= 3.79D-04

 Cycle   2  Pass 1  IDiag  1:
 RMSU=  9.59D-06    CP:  1.00D+00
 FoFJK:  IHMeth= 1 ICntrl=     0 DoSepK=T KAlg= 1 I1Cent= 0 FoldK=F
 E= -2753.40937713116     Delta-E=       -0.000000825984 Rises=F Damp=F
 DIIS: error= 5.38D-06 at cycle   2 NSaved=   2.
 NSaved= 2 IEnMin= 2 EnMin= -2753.40937713116     IErMin= 2 ErrMin= 5.38D-06
 ErrMax= 5.38D-06 EMaxC= 1.00D-01 BMatC= 5.73D-09 BMatP= 5.95D-06
 IDIUse=1 WtCom= 1.00D+00 WtEn= 0.00D+00
 Coeff-Com: -0.102D-01 0.101D+01
 Coeff:     -0.102D-01 0.101D+01
 Gap=     0.581 Goal=   None    Shift=    0.000
 RMSDP=1.29D-06 MaxDP=6.29D-05 DE=-8.26D-07 OVMax= 5.67D-05

 Cycle   3  Pass 1  IDiag  1:
 RMSU=  5.48D-07    CP:  1.00D+00  1.08D+00
 FoFJK:  IHMeth= 1 ICntrl=     0 DoSepK=T KAlg= 1 I1Cent= 0 FoldK=F
 E= -2753.40937714160     Delta-E=       -0.000000010444 Rises=F Damp=F
 DIIS: error= 9.11D-07 at cycle   3 NSaved=   3.
 NSaved= 3 IEnMin= 3 EnMin= -2753.40937714160     IErMin= 3 ErrMin= 9.11D-07
 ErrMax= 9.11D-07 EMaxC= 1.00D-01 BMatC= 1.41D-10 BMatP= 5.73D-09
 IDIUse=1 WtCom= 1.00D+00 WtEn= 0.00D+00
 Coeff-Com:  0.372D-03-0.124D+00 0.112D+01
 Coeff:      0.372D-03-0.124D+00 0.112D+01
 Gap=     0.581 Goal=   None    Shift=    0.000
 RMSDP=1.89D-07 MaxDP=6.52D-06 DE=-1.04D-08 OVMax= 1.11D-05

 Cycle   4  Pass 1  IDiag  1:
 RMSU=  5.47D-08    CP:  1.00D+00  1.08D+00  1.21D+00
 FoFJK:  IHMeth= 1 ICntrl=     0 DoSepK=T KAlg= 1 I1Cent= 0 FoldK=F
 E= -2753.40937714197     Delta-E=       -0.000000000364 Rises=F Damp=F
 DIIS: error= 2.20D-07 at cycle   4 NSaved=   4.
 NSaved= 4 IEnMin= 4 EnMin= -2753.40937714197     IErMin= 4 ErrMin= 2.20D-07
 ErrMax= 2.20D-07 EMaxC= 1.00D-01 BMatC= 1.02D-11 BMatP= 1.41D-10
 IDIUse=1 WtCom= 1.00D+00 WtEn= 0.00D+00
 Coeff-Com:  0.227D-03-0.408D-01 0.243D+00 0.798D+00
 Coeff:      0.227D-03-0.408D-01 0.243D+00 0.798D+00
 Gap=     0.581 Goal=   None    Shift=    0.000
 RMSDP=2.07D-08 MaxDP=7.44D-07 DE=-3.64D-10 OVMax= 9.55D-07

 Cycle   5  Pass 1  IDiag  1:
 RMSU=  8.59D-09    CP:  1.00D+00  1.08D+00  1.22D+00  1.11D+00
 FoFJK:  IHMeth= 1 ICntrl=     0 DoSepK=T KAlg= 1 I1Cent= 0 FoldK=F
 E= -2753.40937714199     Delta-E=       -0.000000000022 Rises=F Damp=F
 DIIS: error= 5.82D-08 at cycle   5 NSaved=   5.
 NSaved= 5 IEnMin= 5 EnMin= -2753.40937714199     IErMin= 5 ErrMin= 5.82D-08
 ErrMax= 5.82D-08 EMaxC= 1.00D-01 BMatC= 3.61D-13 BMatP= 1.02D-11
 IDIUse=1 WtCom= 1.00D+00 WtEn= 0.00D+00
 Coeff-Com: -0.249D-04 0.732D-02-0.651D-01-0.670D-02 0.106D+01
 Coeff:     -0.249D-04 0.732D-02-0.651D-01-0.670D-02 0.106D+01
 Gap=     0.581 Goal=   None    Shift=    0.000
 RMSDP=8.22D-09 MaxDP=3.63D-07 DE=-2.18D-11 OVMax= 4.28D-07

 SCF Done:  E(RLC-B+HF-LYP) =  -2753.40937714     A.U. after    5 cycles
             Convg  =    0.8219D-08             -V/T =  2.0014
 KE= 2.749687836493D+03 PE=-6.579480751480D+03 EE= 1.076383537844D+03
 Leave Link  502 at Mon May 11 12:07:48 2020, MaxMem= 1073741824 cpu:      88.8
 (Enter /home/matheus/.gaussian/g09/l122.exe)
 Restoring MOs from calculation   4 to rwf.
 Counterpoise: doing MCBS calculation for fragment   1
 Leave Link  122 at Mon May 11 12:07:49 2020, MaxMem= 1073741824 cpu:       0.0
 (Enter /home/matheus/.gaussian/g09/l301.exe)
 Basis read from rwf:  (5D, 7F)
 No pseudopotential information found on rwf file.
 There are   138 symmetry adapted basis functions of A   symmetry.
 Integral buffers will be    131072 words long.
 Raffenetti 2 integral format.
 Two-electron integral symmetry is turned on.
   138 basis functions,   198 primitive gaussians,   160 cartesian basis functions
     9 alpha electrons        9 beta electrons
       nuclear repulsion energy        36.6553686071 Hartrees.
 IExCor=10402 DFT=T Ex=LC-B+HF Corr=LYP ExCW=0 ScaHFX=  1.000000
 ScaDFX=  1.000000  1.000000  1.000000  1.000000 ScalE2=  1.000000  1.000000
 IRadAn=      5 IRanWt=     -1 IRanGd=            0 ICorTp=0
  HFx wShort=  0.000000 wLong=  1.350000 cFull=  0.000000 cShort=  0.000000 cLong=  1.000000
  DFx wShort=  0.000000 wLong=  1.350000 cFull=  0.000000 cShort=  0.000000 cLong=  1.000000
 NAtoms=    5 NActive=    4 NUniq=    4 SFac= 1.00D+00 NAtFMM=   60 NAOKFM=F Big=F
 No density basis found on file   718.
 Leave Link  301 at Mon May 11 12:07:49 2020, MaxMem= 1073741824 cpu:       0.2
 (Enter /home/matheus/.gaussian/g09/l302.exe)
 NPDir=0 NMtPBC=     1 NCelOv=     1 NCel=       1 NClECP=     1 NCelD=      1
         NCelK=      1 NCelE2=     1 NClLst=     1 CellRange=     0.0.
 One-electron integrals computed using PRISM.
 NBasis=   138 RedAO= T  NBF=   138
 NBsUse=   138 1.00D-06 NBFU=   138
 Precomputing XC quadrature grid using
 IXCGrd= 2 IRadAn=           5 IRanWt=          -1 IRanGd=           0 AccXCQ= 0.00D+00.
 NRdTot=     344 NPtTot=       92556 NUsed=       95038 NTot=       95070
 NSgBfM=   160   160   160   160   160 NAtAll=     4     4.
 Leave Link  302 at Mon May 11 12:07:49 2020, MaxMem= 1073741824 cpu:       0.8
 (Enter /home/matheus/.gaussian/g09/l303.exe)
 DipDrv:  MaxL=1.
 Leave Link  303 at Mon May 11 12:07:49 2020, MaxMem= 1073741824 cpu:       0.1
 (Enter /home/matheus/.gaussian/g09/l401.exe)
 Initial guess read from the read-write file.
 Guess basis will be translated and rotated to current coordinates.
 Initial guess orbital symmetries:
       Occupied  (A) (A) (A) (A) (A) (A) (A) (A) (A)
       Virtual   (A) (A) (A) (A) (A) (A) (A) (A) (A) (A) (A) (A)
                 (A) (A) (A) (A) (A) (A) (A) (A) (A) (A) (A) (A)
                 (A) (A) (A) (A) (A) (A) (A) (A) (A) (A) (A) (A)
                 (A) (A) (A) (A) (A) (A) (A) (A) (A) (A) (A) (A)
                 (A) (A) (A) (A) (A) (A) (A) (A) (A) (A) (A) (A)
                 (A) (A) (A) (A) (A) (A) (A) (A) (A) (A) (A) (A)
                 (A) (A) (A) (A) (A) (A) (A) (A) (A) (A) (A) (A)
                 (A) (A) (A) (A) (A) (A) (A) (A) (A) (A) (A) (A)
                 (A) (A) (A) (A) (A) (A) (A) (A) (A) (A) (A) (A)
                 (A) (A) (A) (A) (A) (A) (A) (A) (A) (A) (A) (A)
                 (A) (A) (A) (A) (A) (A) (A) (A) (A)
 The electronic state of the initial guess is 1-A.
 Generating alternative initial guess.
 Harris functional with IExCor=10402 diagonalized for initial guess.
 ExpMin= 2.53D-02 ExpMax= 1.53D+04 ExpMxC= 5.22D+02 IAcc=3 IRadAn=         5 AccDes= 0.00D+00
 HarFok:  IExCor=10402 AccDes= 0.00D+00 IRadAn=         5 IDoV= 1
 ScaDFX=  1.000000  1.000000  1.000000  1.000000
 FoFCou: FMM=F IPFlag=           0 FMFlag=      100000 FMFlg1=           0
         NFxFlg=           0 DoJE=T BraDBF=F KetDBF=T FulRan=T
         Omega=  0.000000  0.000000  1.000000  0.000000  0.000000 ICntrl=     500 IOpCl=  0
         NMat0=    1 NMatS0=    1 NMatT0=    0 NMatD0=    1 NMtDS0=    0 NMtDT0=    0
         I1Cent=           4 NGrid=           0.
 Petite list used in FoFCou.
 Harris En= -143.206345849982    
 Leave Link  401 at Mon May 11 12:07:49 2020, MaxMem= 1073741824 cpu:       2.4
 (Enter /home/matheus/.gaussian/g09/l502.exe)
 Closed shell SCF:
 Requested convergence on RMS density matrix=1.00D-08 within 128 cycles.
 Requested convergence on MAX density matrix=1.00D-06.
 Requested convergence on             energy=1.00D-06.
 No special actions if energy rises.
 Using DIIS extrapolation, IDIIS=  1040.
 Integral symmetry usage will be decided dynamically.
        94980 words used for storage of precomputed grid.
 IEnd=      192360 IEndB=      192360 NGot=  1073741824 MDV=  1073591865
 LenX=  1073591865 LenY=  1073565824
 Fock matrices will be formed incrementally for  20 cycles.

 Cycle   1  Pass 1  IDiag  1:
 FoFJK:  IHMeth= 1 ICntrl=     0 DoSepK=T KAlg= 1 I1Cent= 0 FoldK=F
 FoFCou: FMM=F IPFlag=           0 FMFlag=      100000 FMFlg1=           0
         NFxFlg=           0 DoJE=T BraDBF=F KetDBF=F FulRan=T
         Omega=  0.000000  0.000000  1.000000  0.000000  0.000000 ICntrl=     500 IOpCl=  0
         NMat0=    1 NMatS0=    1 NMatT0=    0 NMatD0=    1 NMtDS0=    0 NMtDT0=    0
         I1Cent=           0 NGrid=           0.
 Symmetry not used in FoFCou.
 E= -151.207929833128    
 DIIS: error= 3.58D-06 at cycle   1 NSaved=   1.
 NSaved= 1 IEnMin= 1 EnMin= -151.207929833128     IErMin= 1 ErrMin= 3.58D-06
 ErrMax= 3.58D-06 EMaxC= 1.00D-01 BMatC= 2.88D-09 BMatP= 2.88D-09
 IDIUse=1 WtCom= 1.00D+00 WtEn= 0.00D+00
 Coeff-Com:  0.100D+01
 Coeff:      0.100D+01
 Gap=     0.515 Goal=   None    Shift=    0.000
 RMSDP=3.80D-07 MaxDP=8.83D-06              OVMax= 1.26D-05

 Cycle   2  Pass 1  IDiag  1:
 RMSU=  2.68D-07    CP:  1.00D+00
 FoFJK:  IHMeth= 1 ICntrl=     0 DoSepK=T KAlg= 1 I1Cent= 0 FoldK=F
 E= -151.207929835900     Delta-E=       -0.000000002772 Rises=F Damp=F
 DIIS: error= 9.48D-07 at cycle   2 NSaved=   2.
 NSaved= 2 IEnMin= 2 EnMin= -151.207929835900     IErMin= 2 ErrMin= 9.48D-07
 ErrMax= 9.48D-07 EMaxC= 1.00D-01 BMatC= 1.53D-10 BMatP= 2.88D-09
 IDIUse=1 WtCom= 1.00D+00 WtEn= 0.00D+00
 Coeff-Com: -0.199D+00 0.120D+01
 Coeff:     -0.199D+00 0.120D+01
 Gap=     0.515 Goal=   None    Shift=    0.000
 RMSDP=1.09D-07 MaxDP=3.10D-06 DE=-2.77D-09 OVMax= 4.95D-06

 Cycle   3  Pass 1  IDiag  1:
 RMSU=  3.71D-08    CP:  1.00D+00  1.25D+00
 FoFJK:  IHMeth= 1 ICntrl=     0 DoSepK=T KAlg= 1 I1Cent= 0 FoldK=F
 E= -151.207929836176     Delta-E=       -0.000000000276 Rises=F Damp=F
 DIIS: error= 2.39D-07 at cycle   3 NSaved=   3.
 NSaved= 3 IEnMin= 3 EnMin= -151.207929836176     IErMin= 3 ErrMin= 2.39D-07
 ErrMax= 2.39D-07 EMaxC= 1.00D-01 BMatC= 9.21D-12 BMatP= 1.53D-10
 IDIUse=1 WtCom= 1.00D+00 WtEn= 0.00D+00
 Coeff-Com:  0.138D-01-0.219D+00 0.121D+01
 Coeff:      0.138D-01-0.219D+00 0.121D+01
 Gap=     0.515 Goal=   None    Shift=    0.000
 RMSDP=2.93D-08 MaxDP=6.49D-07 DE=-2.76D-10 OVMax= 1.90D-06

 Cycle   4  Pass 1  IDiag  1:
 RMSU=  9.59D-09    CP:  1.00D+00  1.30D+00  1.33D+00
 FoFJK:  IHMeth= 1 ICntrl=     0 DoSepK=T KAlg= 1 I1Cent= 0 FoldK=F
 E= -151.207929836202     Delta-E=       -0.000000000025 Rises=F Damp=F
 DIIS: error= 9.98D-08 at cycle   4 NSaved=   4.
 NSaved= 4 IEnMin= 4 EnMin= -151.207929836202     IErMin= 4 ErrMin= 9.98D-08
 ErrMax= 9.98D-08 EMaxC= 1.00D-01 BMatC= 1.75D-12 BMatP= 9.21D-12
 IDIUse=1 WtCom= 1.00D+00 WtEn= 0.00D+00
 Coeff-Com:  0.166D-01-0.132D+00 0.207D+00 0.909D+00
 Coeff:      0.166D-01-0.132D+00 0.207D+00 0.909D+00
 Gap=     0.515 Goal=   None    Shift=    0.000
 RMSDP=1.05D-08 MaxDP=2.19D-07 DE=-2.55D-11 OVMax= 7.39D-07

 Cycle   5  Pass 1  IDiag  1:
 RMSU=  4.98D-09    CP:  1.00D+00  1.31D+00  1.43D+00  1.29D+00
 FoFJK:  IHMeth= 1 ICntrl=     0 DoSepK=T KAlg= 1 I1Cent= 0 FoldK=F
 E= -151.207929836206     Delta-E=       -0.000000000005 Rises=F Damp=F
 DIIS: error= 6.18D-08 at cycle   5 NSaved=   5.
 NSaved= 5 IEnMin= 5 EnMin= -151.207929836206     IErMin= 5 ErrMin= 6.18D-08
 ErrMax= 6.18D-08 EMaxC= 1.00D-01 BMatC= 4.81D-13 BMatP= 1.75D-12
 IDIUse=1 WtCom= 1.00D+00 WtEn= 0.00D+00
 Coeff-Com:  0.255D-02-0.176D-04-0.187D+00 0.315D+00 0.870D+00
 Coeff:      0.255D-02-0.176D-04-0.187D+00 0.315D+00 0.870D+00
 Gap=     0.515 Goal=   None    Shift=    0.000
 RMSDP=4.96D-09 MaxDP=1.08D-07 DE=-4.52D-12 OVMax= 3.53D-07

 SCF Done:  E(RLC-B+HF-LYP) =  -151.207929836     A.U. after    5 cycles
             Convg  =    0.4957D-08             -V/T =  2.0061
 KE= 1.502839440210D+02 PE=-4.315921810260D+02 EE= 9.344493856156D+01
 Leave Link  502 at Mon May 11 12:07:54 2020, MaxMem= 1073741824 cpu:      36.2
 (Enter /home/matheus/.gaussian/g09/l122.exe)
 Restoring MOs from calculation   5 to rwf.
 Counterpoise: doing MCBS calculation for fragment   2
 Leave Link  122 at Mon May 11 12:07:54 2020, MaxMem= 1073741824 cpu:       0.0
 (Enter /home/matheus/.gaussian/g09/l301.exe)
 Basis read from rwf:  (5D, 7F)
 No pseudopotential information found on rwf file.
 There are    59 symmetry adapted basis functions of A   symmetry.
 Integral buffers will be    131072 words long.
 Raffenetti 2 integral format.
 Two-electron integral symmetry is turned on.
    59 basis functions,   217 primitive gaussians,    69 cartesian basis functions
    18 alpha electrons       18 beta electrons
       nuclear repulsion energy         0.0000000000 Hartrees.
 IExCor=10402 DFT=T Ex=LC-B+HF Corr=LYP ExCW=0 ScaHFX=  1.000000
 ScaDFX=  1.000000  1.000000  1.000000  1.000000 ScalE2=  1.000000  1.000000
 IRadAn=      5 IRanWt=     -1 IRanGd=            0 ICorTp=0
  HFx wShort=  0.000000 wLong=  1.350000 cFull=  0.000000 cShort=  0.000000 cLong=  1.000000
  DFx wShort=  0.000000 wLong=  1.350000 cFull=  0.000000 cShort=  0.000000 cLong=  1.000000
 NAtoms=    5 NActive=    1 NUniq=    1 SFac= 1.00D+00 NAtFMM=   60 NAOKFM=F Big=F
 No density basis found on file   718.
 Leave Link  301 at Mon May 11 12:07:54 2020, MaxMem= 1073741824 cpu:       0.2
 (Enter /home/matheus/.gaussian/g09/l302.exe)
 NPDir=0 NMtPBC=     1 NCelOv=     1 NCel=       1 NClECP=     1 NCelD=      1
         NCelK=      1 NCelE2=     1 NClLst=     1 CellRange=     0.0.
 One-electron integrals computed using PRISM.
 NBasis=    59 RedAO= T  NBF=    59
 NBsUse=    59 1.00D-06 NBFU=    59
 Precomputing XC quadrature grid using
 IXCGrd= 2 IRadAn=           5 IRanWt=          -1 IRanGd=           0 AccXCQ= 0.00D+00.
 NRdTot=      81 NPtTot=       30352 NUsed=       30981 NTot=       31013
 NSgBfM=    69    69    69    69    69 NAtAll=     1     1.
 Leave Link  302 at Mon May 11 12:07:54 2020, MaxMem= 1073741824 cpu:       0.7
 (Enter /home/matheus/.gaussian/g09/l303.exe)
 DipDrv:  MaxL=1.
 Leave Link  303 at Mon May 11 12:07:54 2020, MaxMem= 1073741824 cpu:       0.1
 (Enter /home/matheus/.gaussian/g09/l401.exe)
 Initial guess read from the read-write file.
 Guess basis will be translated and rotated to current coordinates.
 Initial guess orbital symmetries:
       Occupied  (A) (A) (A) (A) (A) (A) (A) (A) (A) (A) (A) (A)
                 (A) (A) (A) (A) (A) (A)
       Virtual   (A) (A) (A) (A) (A) (A) (A) (A) (A) (A) (A) (A)
                 (A) (A) (A) (A) (A) (A) (A) (A) (A) (A) (A) (A)
                 (A) (A) (A) (A) (A) (A) (A) (A) (A) (A) (A) (A)
                 (A) (A) (A) (A) (A)
 The electronic state of the initial guess is 1-A.
 Generating alternative initial guess.
 Harris functional with IExCor=10402 diagonalized for initial guess.
 ExpMin= 4.00D-02 ExpMax= 1.17D+07 ExpMxC= 1.33D+04 IAcc=3 IRadAn=         5 AccDes= 0.00D+00
 HarFok:  IExCor=10402 AccDes= 0.00D+00 IRadAn=         5 IDoV= 1
 ScaDFX=  1.000000  1.000000  1.000000  1.000000
 FoFCou: FMM=F IPFlag=           0 FMFlag=      100000 FMFlg1=           0
         NFxFlg=           0 DoJE=T BraDBF=F KetDBF=T FulRan=T
         Omega=  0.000000  0.000000  1.000000  0.000000  0.000000 ICntrl=     500 IOpCl=  0
         NMat0=    1 NMatS0=    1 NMatT0=    0 NMatD0=    1 NMtDS0=    0 NMtDT0=    0
         I1Cent=           4 NGrid=           0.
 Petite list used in FoFCou.
 DSYEVD returned Info=         119 IAlg= 4 N=    59 NDim=    59 NE2=    18198841 trying DSYEV.
 Harris En= -2731.73388500824    
 Leave Link  401 at Mon May 11 12:07:54 2020, MaxMem= 1073741824 cpu:       1.0
 (Enter /home/matheus/.gaussian/g09/l502.exe)
 Closed shell SCF:
 Requested convergence on RMS density matrix=1.00D-08 within 128 cycles.
 Requested convergence on MAX density matrix=1.00D-06.
 Requested convergence on             energy=1.00D-06.
 No special actions if energy rises.
 Using DIIS extrapolation, IDIIS=  1040.
 Integral symmetry usage will be decided dynamically.
        30923 words used for storage of precomputed grid.
 IEnd=       64406 IEndB=       64406 NGot=  1073741824 MDV=  1073698889
 LenX=  1073698889 LenY=  1073693687
 Fock matrices will be formed incrementally for  20 cycles.

 Cycle   1  Pass 1  IDiag  1:
 FoFJK:  IHMeth= 1 ICntrl=     0 DoSepK=T KAlg= 1 I1Cent= 0 FoldK=F
 FoFCou: FMM=F IPFlag=           0 FMFlag=      100000 FMFlg1=           0
         NFxFlg=           0 DoJE=T BraDBF=F KetDBF=F FulRan=T
         Omega=  0.000000  0.000000  1.000000  0.000000  0.000000 ICntrl=     500 IOpCl=  0
         NMat0=    1 NMatS0=    1 NMatT0=    0 NMatD0=    1 NMtDS0=    0 NMtDT0=    0
         I1Cent=           0 NGrid=           0.
 Symmetry not used in FoFCou.
 E= -2753.40934852740    
 DIIS: error= 8.43D-14 at cycle   1 NSaved=   1.
 NSaved= 1 IEnMin= 1 EnMin= -2753.40934852740     IErMin= 1 ErrMin= 8.43D-14
 ErrMax= 8.43D-14 EMaxC= 1.00D-01 BMatC= 3.63D-25 BMatP= 3.63D-25
 IDIUse=1 WtCom= 1.00D+00 WtEn= 0.00D+00
 Coeff-Com:  0.100D+01
 Coeff:      0.100D+01
 Gap=     0.640 Goal=   None    Shift=    0.000
 RMSDP=9.29D-15 MaxDP=2.16D-13              OVMax= 6.13D-14

 SCF Done:  E(RLC-B+HF-LYP) =  -2753.40934853     A.U. after    1 cycles
             Convg  =    0.9289D-14             -V/T =  2.0014
 KE= 2.749695852517D+03 PE=-6.579489077514D+03 EE= 1.076383876470D+03
 Leave Link  502 at Mon May 11 12:07:55 2020, MaxMem= 1073741824 cpu:      10.9
 (Enter /home/matheus/.gaussian/g09/l122.exe)
 Restoring MOs from calculation   1 to rwf.
 Counterpoise: corrected energy =   -2904.617414112874
 Counterpoise: BSSE energy =       0.000032077733
 Leave Link  122 at Mon May 11 12:07:55 2020, MaxMem= 1073741824 cpu:       0.0
 (Enter /home/matheus/.gaussian/g09/l108.exe)
 Scan completed.

 Summary of the potential surface scan:
   N      R1          SCF    
 ----  ---------  -----------
    1     3.0000  -2753.40935
    2     3.1000  -2753.40935
    3     3.2000  -2753.40935
    4     3.3000  -2753.40935
    5     3.4000  -2753.40935
    6     3.5000  -2753.40935
    7     3.6000  -2753.40935
    8     3.7000  -2753.40935
    9     3.8000  -2753.40935
   10     3.9000  -2753.40935
   11     4.0000  -2753.40935
   12     4.1000  -2753.40935
   13     4.2000  -2753.40935
   14     4.3000  -2753.40935
   15     4.4000  -2753.40935
   16     4.5000  -2753.40935
   17     4.6000  -2753.40935
   18     4.7000  -2753.40935
   19     4.8000  -2753.40935
   20     4.9000  -2753.40935
   21     5.0000  -2753.40935
 ----  ---------  -----------
  
 Leave Link  108 at Mon May 11 12:07:55 2020, MaxMem= 1073741824 cpu:       0.0
 (Enter /home/matheus/.gaussian/g09/l9999.exe)

 Test job not archived.
 1\1\GINC-REDGIANT\Scan\RLC-BLYP\Aug-CC-pVTZ\H2Kr1O2\MATHEUS\11-May-202
 0\1\\#p lc-blyp/aug-cc-PVTz iop(3/107=1350000000) iop(3/108=1350000000
 ) int=ultrafine counterpoise=2 Scan\\TCC\\0,1\O,0,0.,0.,0.725\O,0,0.,0
 .,-0.725\H,0,0.5905422151,0.7037808064,1.0235104166\H,0,0.,0.918720594
 7,-1.0235104166\Kr,0,0.,R1,0.\\R1=3.,s,20,0.1\\Version=EM64L-G09RevC.0
 1\State=1-A\HF=-2753.4093485,-2753.4093485,-2753.4093485,-2753.4093485
 ,-2753.4093485,-2753.4093485,-2753.4093485,-2753.4093485,-2753.4093485
 ,-2753.4093485,-2753.4093485,-2753.4093485,-2753.4093485,-2753.4093485
 ,-2753.4093485,-2753.4093485,-2753.4093485,-2753.4093485,-2753.4093485
 ,-2753.4093485,-2753.4093485\RMSD=5.461e-09,3.089e-10,7.451e-11,2.036e
 -11,7.199e-12,3.151e-12,1.456e-12,6.937e-13,3.293e-13,1.551e-13,7.271e
 -14,3.889e-14,2.022e-14,8.790e-15,1.009e-14,6.608e-15,1.054e-14,1.219e
 -14,9.873e-15,1.205e-14,9.289e-15\PG=C01 [X(H2Kr1O2)]\\@


 TO DRY ONE'S EYES AND LAUGH AT A FALL,
 AND BAFFLED, GET UP AND BEGIN AGAIN.
           R. BROWNING
 Job cpu time:  0 days  3 hours 29 minutes 36.7 seconds.
 File lengths (MBytes):  RWF=     33 Int=      0 D2E=      0 Chk=      8 Scr=      1
 Normal termination of Gaussian 09 at Mon May 11 12:07:55 2020.
