 Entering Gaussian System, Link 0=g09
 Input=/home/matheus/.tcc/Inputs/Inputs-lc-blyp/H2O2-Kr_31.com
 Output=/home/matheus/.tcc/Logs/Logs-lc-blyp/H2O2-Kr_31.log
 Initial command:
 /home/matheus/.gaussian/g09/l1.exe /home/matheus/.gaussian/g09/scratch/Gau-5674.inp -scrdir=/home/matheus/.gaussian/g09/scratch/
 Entering Link 1 = /home/matheus/.gaussian/g09/l1.exe PID=      5677.
  
 Copyright (c) 1988,1990,1992,1993,1995,1998,2003,2009,2011,
            Gaussian, Inc.  All Rights Reserved.
  
 This is part of the Gaussian(R) 09 program.  It is based on
 the Gaussian(R) 03 system (copyright 2003, Gaussian, Inc.),
 the Gaussian(R) 98 system (copyright 1998, Gaussian, Inc.),
 the Gaussian(R) 94 system (copyright 1995, Gaussian, Inc.),
 the Gaussian 92(TM) system (copyright 1992, Gaussian, Inc.),
 the Gaussian 90(TM) system (copyright 1990, Gaussian, Inc.),
 the Gaussian 88(TM) system (copyright 1988, Gaussian, Inc.),
 the Gaussian 86(TM) system (copyright 1986, Carnegie Mellon
 University), and the Gaussian 82(TM) system (copyright 1983,
 Carnegie Mellon University). Gaussian is a federally registered
 trademark of Gaussian, Inc.
  
 This software contains proprietary and confidential information,
 including trade secrets, belonging to Gaussian, Inc.
  
 This software is provided under written license and may be
 used, copied, transmitted, or stored only in accord with that
 written license.
  
 The following legend is applicable only to US Government
 contracts under FAR:
  
                    RESTRICTED RIGHTS LEGEND
  
 Use, reproduction and disclosure by the US Government is
 subject to restrictions as set forth in subparagraphs (a)
 and (c) of the Commercial Computer Software - Restricted
 Rights clause in FAR 52.227-19.
  
 Gaussian, Inc.
 340 Quinnipiac St., Bldg. 40, Wallingford CT 06492
  
  
 ---------------------------------------------------------------
 Warning -- This program may not be used in any manner that
 competes with the business of Gaussian, Inc. or will provide
 assistance to any competitor of Gaussian, Inc.  The licensee
 of this program is prohibited from giving any competitor of
 Gaussian, Inc. access to this program.  By using this program,
 the user acknowledges that Gaussian, Inc. is engaged in the
 business of creating and licensing software in the field of
 computational chemistry and represents and warrants to the
 licensee that it is not a competitor of Gaussian, Inc. and that
 it will not use this program in any manner prohibited above.
 ---------------------------------------------------------------
  

 Cite this work as:
 Gaussian 09, Revision C.01,
 M. J. Frisch, G. W. Trucks, H. B. Schlegel, G. E. Scuseria, 
 M. A. Robb, J. R. Cheeseman, G. Scalmani, V. Barone, B. Mennucci, 
 G. A. Petersson, H. Nakatsuji, M. Caricato, X. Li, H. P. Hratchian, 
 A. F. Izmaylov, J. Bloino, G. Zheng, J. L. Sonnenberg, M. Hada, 
 M. Ehara, K. Toyota, R. Fukuda, J. Hasegawa, M. Ishida, T. Nakajima, 
 Y. Honda, O. Kitao, H. Nakai, T. Vreven, J. A. Montgomery, Jr., 
 J. E. Peralta, F. Ogliaro, M. Bearpark, J. J. Heyd, E. Brothers, 
 K. N. Kudin, V. N. Staroverov, T. Keith, R. Kobayashi, J. Normand, 
 K. Raghavachari, A. Rendell, J. C. Burant, S. S. Iyengar, J. Tomasi, 
 M. Cossi, N. Rega, J. M. Millam, M. Klene, J. E. Knox, J. B. Cross, 
 V. Bakken, C. Adamo, J. Jaramillo, R. Gomperts, R. E. Stratmann, 
 O. Yazyev, A. J. Austin, R. Cammi, C. Pomelli, J. W. Ochterski, 
 R. L. Martin, K. Morokuma, V. G. Zakrzewski, G. A. Voth, 
 P. Salvador, J. J. Dannenberg, S. Dapprich, A. D. Daniels, 
 O. Farkas, J. B. Foresman, J. V. Ortiz, J. Cioslowski, 
 and D. J. Fox, Gaussian, Inc., Wallingford CT, 2010.
 
 ******************************************
 Gaussian 09:  EM64L-G09RevC.01 23-Sep-2011
                11-May-2020 
 ******************************************
 %mem=8GB
 %nproc=8
 Will use up to    8 processors via shared memory.
 ----------------------------------------------------------------------
 #p lc-blyp/aug-cc-PVTz iop(3/107=1350000000) iop(3/108=1350000000) int
 =ultrafine counterpoise=2 Scan
 ----------------------------------------------------------------------
 1/38=1,60=1,62=2/1,8;
 2/12=2,17=6,18=5,29=3,40=1/2;
 1/38=1,53=5172,62=2/22;
 3/5=16,6=1,7=10,11=2,16=1,25=1,30=1,74=1000402,75=-5,107=1350000000,108=1350000000/1,2,3;
 4//1;
 5/5=2,38=5/2;
 6/7=2,8=2,9=2,10=2,18=1,28=1/1;
 1/53=4052,62=2,63=1/22;
 3/5=7,6=11,7=10,11=2,16=1,25=1,30=1,74=1000402,75=-5,82=7,107=1350000000,108=1350000000/1,2,3;
 4//1;
 5/5=2,38=5/2;
 6/7=2,8=2,9=2,10=2,18=1,28=1/1;
 1/53=3042,62=2,63=2/22;
 3/5=7,6=11,7=10,11=2,16=1,25=1,30=1,74=1000402,75=-5,82=7,107=1350000000,108=1350000000/1,2,3;
 4//1;
 5/5=2,38=5/2;
 6/7=2,8=2,9=2,10=2,18=1,28=1/1;
 1/53=2032,62=2,63=3/22;
 3/5=7,6=11,7=10,11=2,16=1,25=1,30=1,74=1000402,75=-5,82=7,107=1350000000,108=1350000000/1,2,3;
 4//1;
 5/5=2,38=5/2;
 6/7=2,8=2,9=2,10=2,18=1,28=1/1;
 1/53=1022,62=2,63=4/22;
 3/5=7,6=11,7=10,11=2,16=1,25=1,30=1,74=1000402,75=-5,82=7,107=1350000000,108=1350000000/1,2,3;
 4//1;
 5/5=2,38=5/2;
 6/7=2,8=2,9=2,10=2,18=1,28=1/1;
 1/53=5014,62=2,63=5/22;
 1/60=1,62=2/8(1);
 99/9=1/99;
 2/29=3/2;
 1/53=5173,62=2/22;
 3/5=7,6=11,7=10,11=2,16=1,25=1,30=1,74=1000402,75=-5,82=7,107=1350000000,108=1350000000/1,2,3;
 4/5=5,16=3/1;
 5/5=2,38=5/2;
 1/53=4053,62=2,63=1/22;
 3/5=7,6=11,7=10,11=2,16=1,25=1,30=1,74=1000402,75=-5,82=7,107=1350000000,108=1350000000/1,2,3;
 4/5=5,16=3/1;
 5/5=2,38=5/2;
 1/53=3043,62=2,63=2/22;
 3/5=7,6=11,7=10,11=2,16=1,25=1,30=1,74=1000402,75=-5,82=7,107=1350000000,108=1350000000/1,2,3;
 4/5=5,16=3/1;
 5/5=2,38=5/2;
 1/53=2033,62=2,63=3/22;
 3/5=7,6=11,7=10,11=2,16=1,25=1,30=1,74=1000402,75=-5,82=7,107=1350000000,108=1350000000/1,2,3;
 4/5=5,16=3/1;
 5/5=2,38=5/2;
 1/53=1024,62=2,63=4/22;
 3/5=7,6=11,7=10,11=2,16=1,25=1,30=1,74=1000402,75=-5,82=7,107=1350000000,108=1350000000/1,2,3;
 4/5=5,16=3/1;
 5/5=2,38=5/2;
 1/53=5014,62=2,63=5/22;
 1/60=1,62=2/8(-22);
 99/9=1/99;
 Leave Link    1 at Mon May 11 22:51:57 2020, MaxMem= 1073741824 cpu:       0.2
 (Enter /home/matheus/.gaussian/g09/l101.exe)
 ---
 TCC
 ---
 Charge =  0 Multiplicity = 1 in supermolecule
 Charge =  0 Multiplicity = 1 in fragment  1.
 Charge =  0 Multiplicity = 1 in fragment  2.
 Symbolic Z-Matrix:
 O(Fragment=1)         0.        0.        0.725 
 O(Fragment=1)         0.        0.       -0.725 
 H(Fragment=1)        -0.70378   0.59054   1.02351 
 H(Fragment=1)         0.        0.91872  -1.02351 
 Kr(Fragment=2)        0.       R1        0. 
       Variables:
  R1                    3.     Scan 20    0.1    
 
 NAtoms=      5 NQM=        0 NQMF=       0 NMMI=      5 NMMIF=      0
                NMic=       0 NMicF=      0.
                    Isotopes and Nuclear Properties:
 (Nuclear quadrupole moments (NQMom) in fm**2, nuclear magnetic moments (NMagM)
  in nuclear magnetons)

  Atom         1           2           3           4           5
 IAtWgt=          16          16           1           1          84
 AtmWgt=  15.9949146  15.9949146   1.0078250   1.0078250  83.9115064
 NucSpn=           0           0           1           1           0
 AtZEff=   0.0000000   0.0000000   0.0000000   0.0000000   0.0000000
 NQMom=    0.0000000   0.0000000   0.0000000   0.0000000   0.0000000
 NMagM=    0.0000000   0.0000000   2.7928460   2.7928460   0.0000000
 Leave Link  101 at Mon May 11 22:51:57 2020, MaxMem= 1073741824 cpu:       0.4
 (Enter /home/matheus/.gaussian/g09/l108.exe)
 Scan the potential surface.
 Variable   Value     No. Steps Step-Size
 -------- ----------- --------- ---------
     1       3.000000      20      0.1000
 A total of     21 points will be computed.
 Leave Link  108 at Mon May 11 22:51:57 2020, MaxMem= 1073741824 cpu:       0.0
 (Enter /home/matheus/.gaussian/g09/l202.exe)
 ---------------------------------------------------------------------------------------------------
                            Z-MATRIX (ANGSTROMS AND DEGREES)
   CD    Cent   Atom    N1       Length/X        N2       Alpha/Y        N3        Beta/Z          J
 ---------------------------------------------------------------------------------------------------
      1      1  O        0   0.000000          0.000000          0.725000
      2      2  O        0   0.000000          0.000000         -0.725000
      3      3  H        0  -0.703781          0.590542          1.023510
      4      4  H        0   0.000000          0.918721         -1.023510
      5      5  Kr       0   0.000000          3.000000          0.000000
 ---------------------------------------------------------------------------------------------------
                         Z-Matrix orientation:                         
 ---------------------------------------------------------------------
 Center     Atomic      Atomic             Coordinates (Angstroms)
 Number     Number       Type             X           Y           Z
 ---------------------------------------------------------------------
      1          8           0        0.000000    0.000000    0.725000
      2          8           0        0.000000    0.000000   -0.725000
      3          1           0       -0.703781    0.590542    1.023510
      4          1           0        0.000000    0.918721   -1.023510
      5         36           0        0.000000    3.000000    0.000000
 ---------------------------------------------------------------------
                    Distance matrix (angstroms):
                    1          2          3          4          5
     1  O    0.000000
     2  O    1.450000   0.000000
     3  H    0.966000   1.975180   0.000000
     4  H    1.975180   0.966000   2.189361   0.000000
     5  Kr   3.086361   3.086361   2.710787   2.319331   0.000000
 Stoichiometry    H2KrO2
 Framework group  C1[X(H2KrO2)]
 Deg. of freedom     9
 Full point group                 C1      NOp   1
 Largest Abelian subgroup         C1      NOp   1
 Largest concise Abelian subgroup C1      NOp   1
                         Standard orientation:                         
 ---------------------------------------------------------------------
 Center     Atomic      Atomic             Coordinates (Angstroms)
 Number     Number       Type             X           Y           Z
 ---------------------------------------------------------------------
      1          8           0       -2.030392   -0.713331   -0.083900
      2          8           0       -2.025023    0.733004    0.018989
      3          1           0       -1.447943   -1.063593    0.602558
      4          1           0       -1.105248    1.026723    0.048985
      5         36           0        0.972125   -0.003348   -0.003674
 ---------------------------------------------------------------------
 Rotational constants (GHZ):     26.0306695      2.3732907      2.1836508
 Leave Link  202 at Mon May 11 22:51:57 2020, MaxMem= 1073741824 cpu:       0.0
 (Enter /home/matheus/.gaussian/g09/l122.exe)
 Leave Link  122 at Mon May 11 22:51:57 2020, MaxMem= 1073741824 cpu:       0.0
 (Enter /home/matheus/.gaussian/g09/l301.exe)
 Standard basis: Aug-CC-pVTZ (5D, 7F)
 Ernie: Thresh=  0.10000D-02 Tol=  0.10000D-05 Strict=F.
 Ernie:  38 primitive shells out of 205 were deleted.
 There are   197 symmetry adapted basis functions of A   symmetry.
 Integral buffers will be    131072 words long.
 Raffenetti 2 integral format.
 Two-electron integral symmetry is turned on.
   197 basis functions,   415 primitive gaussians,   229 cartesian basis functions
    27 alpha electrons       27 beta electrons
       nuclear repulsion energy       150.6503454741 Hartrees.
 IExCor=10402 DFT=T Ex=LC-B+HF Corr=LYP ExCW=0 ScaHFX=  1.000000
 ScaDFX=  1.000000  1.000000  1.000000  1.000000 ScalE2=  1.000000  1.000000
 IRadAn=      5 IRanWt=     -1 IRanGd=            0 ICorTp=0
  HFx wShort=  0.000000 wLong=  1.350000 cFull=  0.000000 cShort=  0.000000 cLong=  1.000000
  DFx wShort=  0.000000 wLong=  1.350000 cFull=  0.000000 cShort=  0.000000 cLong=  1.000000
 NAtoms=    5 NActive=    5 NUniq=    5 SFac= 1.00D+00 NAtFMM=   60 NAOKFM=F Big=F
 Leave Link  301 at Mon May 11 22:51:57 2020, MaxMem= 1073741824 cpu:       0.2
 (Enter /home/matheus/.gaussian/g09/l302.exe)
 NPDir=0 NMtPBC=     1 NCelOv=     1 NCel=       1 NClECP=     1 NCelD=      1
         NCelK=      1 NCelE2=     1 NClLst=     1 CellRange=     0.0.
 One-electron integrals computed using PRISM.
 NBasis=   197 RedAO= T  NBF=   197
 NBsUse=   197 1.00D-06 NBFU=   197
 Precomputing XC quadrature grid using
 IXCGrd= 2 IRadAn=           5 IRanWt=          -1 IRanGd=           0 AccXCQ= 0.00D+00.
 NRdTot=     427 NPtTot=      123512 NUsed=      126579 NTot=      126611
 NSgBfM=   229   229   229   229   229 NAtAll=     5     5.
 Leave Link  302 at Mon May 11 22:51:57 2020, MaxMem= 1073741824 cpu:       1.0
 (Enter /home/matheus/.gaussian/g09/l303.exe)
 DipDrv:  MaxL=1.
 Leave Link  303 at Mon May 11 22:51:57 2020, MaxMem= 1073741824 cpu:       0.3
 (Enter /home/matheus/.gaussian/g09/l401.exe)
 Harris functional with IExCor=10402 diagonalized for initial guess.
 ExpMin= 2.53D-02 ExpMax= 1.17D+07 ExpMxC= 1.33D+04 IAcc=3 IRadAn=         5 AccDes= 0.00D+00
 HarFok:  IExCor=10402 AccDes= 0.00D+00 IRadAn=         5 IDoV= 1
 ScaDFX=  1.000000  1.000000  1.000000  1.000000
 FoFCou: FMM=F IPFlag=           0 FMFlag=      100000 FMFlg1=           0
         NFxFlg=           0 DoJE=T BraDBF=F KetDBF=T FulRan=T
         Omega=  0.000000  0.000000  1.000000  0.000000  0.000000 ICntrl=     500 IOpCl=  0
         NMat0=    1 NMatS0=    1 NMatT0=    0 NMatD0=    1 NMtDS0=    0 NMtDT0=    0
         I1Cent=           4 NGrid=           0.
 Petite list used in FoFCou.
 Harris En= -2874.90962111004    
 Initial guess orbital symmetries:
       Occupied  (A) (A) (A) (A) (A) (A) (A) (A) (A) (A) (A) (A)
                 (A) (A) (A) (A) (A) (A) (A) (A) (A) (A) (A) (A)
                 (A) (A) (A)
       Virtual   (A) (A) (A) (A) (A) (A) (A) (A) (A) (A) (A) (A)
                 (A) (A) (A) (A) (A) (A) (A) (A) (A) (A) (A) (A)
                 (A) (A) (A) (A) (A) (A) (A) (A) (A) (A) (A) (A)
                 (A) (A) (A) (A) (A) (A) (A) (A) (A) (A) (A) (A)
                 (A) (A) (A) (A) (A) (A) (A) (A) (A) (A) (A) (A)
                 (A) (A) (A) (A) (A) (A) (A) (A) (A) (A) (A) (A)
                 (A) (A) (A) (A) (A) (A) (A) (A) (A) (A) (A) (A)
                 (A) (A) (A) (A) (A) (A) (A) (A) (A) (A) (A) (A)
                 (A) (A) (A) (A) (A) (A) (A) (A) (A) (A) (A) (A)
                 (A) (A) (A) (A) (A) (A) (A) (A) (A) (A) (A) (A)
                 (A) (A) (A) (A) (A) (A) (A) (A) (A) (A) (A) (A)
                 (A) (A) (A) (A) (A) (A) (A) (A) (A) (A) (A) (A)
                 (A) (A) (A) (A) (A) (A) (A) (A) (A) (A) (A) (A)
                 (A) (A) (A) (A) (A) (A) (A) (A) (A) (A) (A) (A)
                 (A) (A)
 The electronic state of the initial guess is 1-A.
 Leave Link  401 at Mon May 11 22:51:57 2020, MaxMem= 1073741824 cpu:       4.7
 (Enter /home/matheus/.gaussian/g09/l502.exe)
 Closed shell SCF:
 Requested convergence on RMS density matrix=1.00D-08 within 128 cycles.
 Requested convergence on MAX density matrix=1.00D-06.
 Requested convergence on             energy=1.00D-06.
 No special actions if energy rises.
 Using DIIS extrapolation, IDIIS=  1040.
 Integral symmetry usage will be decided dynamically.
       126521 words used for storage of precomputed grid.
 IEnd=      305468 IEndB=      305468 NGot=  1073741824 MDV=  1073505667
 LenX=  1073505667 LenY=  1073452785
 Fock matrices will be formed incrementally for  20 cycles.

 Cycle   1  Pass 1  IDiag  1:
 FoFJK:  IHMeth= 1 ICntrl=     0 DoSepK=T KAlg= 1 I1Cent= 0 FoldK=F
 FoFCou: FMM=F IPFlag=           0 FMFlag=      100000 FMFlg1=           0
         NFxFlg=           0 DoJE=T BraDBF=F KetDBF=F FulRan=T
         Omega=  0.000000  0.000000  1.000000  0.000000  0.000000 ICntrl=     500 IOpCl=  0
         NMat0=    1 NMatS0=    1 NMatT0=    0 NMatD0=    1 NMtDS0=    0 NMtDT0=    0
         I1Cent=           0 NGrid=           0.
 Symmetry not used in FoFCou.
 E= -2898.97869146221    
 DIIS: error= 1.08D-01 at cycle   1 NSaved=   1.
 NSaved= 1 IEnMin= 1 EnMin= -2898.97869146221     IErMin= 1 ErrMin= 1.08D-01
 ErrMax= 1.08D-01 EMaxC= 1.00D-01 BMatC= 4.05D+00 BMatP= 4.05D+00
 IDIUse=3 WtCom= 0.00D+00 WtEn= 1.00D+00
 Coeff-Com:  0.100D+01
 Coeff-En:   0.100D+01
 Coeff:      0.100D+01
 Gap=    -0.616 Goal=   None    Shift=    0.000
 GapD=   -0.616 DampG=0.250 DampE=0.250 DampFc=0.2500 IDamp=-1.
 Damping current iteration by 2.50D-01
 RMSDP=1.03D-01 MaxDP=8.96D+00              OVMax= 9.90D-01

 Cycle   2  Pass 1  IDiag  1:
 RMSU=  4.46D-03    CP:  7.63D-01
 FoFJK:  IHMeth= 1 ICntrl=     0 DoSepK=T KAlg= 1 I1Cent= 0 FoldK=F
 E= -2901.04628031906     Delta-E=       -2.067588856849 Rises=F Damp=T
 DIIS: error= 5.22D-02 at cycle   2 NSaved=   2.
 NSaved= 2 IEnMin= 2 EnMin= -2901.04628031906     IErMin= 2 ErrMin= 5.22D-02
 ErrMax= 5.22D-02 EMaxC= 1.00D-01 BMatC= 1.09D+00 BMatP= 4.05D+00
 IDIUse=3 WtCom= 4.78D-01 WtEn= 5.22D-01
 Coeff-Com: -0.772D+00 0.177D+01
 Coeff-En:   0.000D+00 0.100D+01
 Coeff:     -0.369D+00 0.137D+01
 Gap=     0.126 Goal=   None    Shift=    0.000
 RMSDP=7.72D-02 MaxDP=6.71D+00 DE=-2.07D+00 OVMax= 9.51D-01

 Cycle   3  Pass 1  IDiag  1:
 RMSU=  5.95D-03    CP:  5.41D-02  3.00D+00
 FoFJK:  IHMeth= 1 ICntrl=     0 DoSepK=T KAlg= 1 I1Cent= 0 FoldK=F
 E= -2904.31790727572     Delta-E=       -3.271626956654 Rises=F Damp=F
 DIIS: error= 2.70D-02 at cycle   3 NSaved=   3.
 NSaved= 3 IEnMin= 3 EnMin= -2904.31790727572     IErMin= 3 ErrMin= 2.70D-02
 ErrMax= 2.70D-02 EMaxC= 1.00D-01 BMatC= 4.71D-01 BMatP= 1.09D+00
 IDIUse=3 WtCom= 7.30D-01 WtEn= 2.70D-01
 Coeff-Com: -0.504D-01 0.455D+00 0.596D+00
 Coeff-En:   0.000D+00 0.000D+00 0.100D+01
 Coeff:     -0.368D-01 0.332D+00 0.705D+00
 Gap=     0.593 Goal=   None    Shift=    0.000
 RMSDP=2.29D-03 MaxDP=8.52D-02 DE=-3.27D+00 OVMax= 8.74D-02

 Cycle   4  Pass 1  IDiag  1:
 RMSU=  1.62D-03    CP:  5.30D-02  3.00D+00  9.80D-01
 FoFJK:  IHMeth= 1 ICntrl=     0 DoSepK=T KAlg= 1 I1Cent= 0 FoldK=F
 E= -2904.60709582214     Delta-E=       -0.289188546422 Rises=F Damp=F
 DIIS: error= 3.61D-03 at cycle   4 NSaved=   4.
 NSaved= 4 IEnMin= 4 EnMin= -2904.60709582214     IErMin= 4 ErrMin= 3.61D-03
 ErrMax= 3.61D-03 EMaxC= 1.00D-01 BMatC= 8.74D-03 BMatP= 4.71D-01
 IDIUse=3 WtCom= 9.64D-01 WtEn= 3.61D-02
 Coeff-Com: -0.726D-02 0.340D-01 0.365D-01 0.937D+00
 Coeff-En:   0.000D+00 0.000D+00 0.000D+00 0.100D+01
 Coeff:     -0.700D-02 0.328D-01 0.352D-01 0.939D+00
 Gap=     0.503 Goal=   None    Shift=    0.000
 RMSDP=6.94D-04 MaxDP=2.18D-02 DE=-2.89D-01 OVMax= 2.37D-02

 Cycle   5  Pass 1  IDiag  1:
 RMSU=  4.53D-04    CP:  5.28D-02  3.00D+00  9.81D-01  1.12D+00
 FoFJK:  IHMeth= 1 ICntrl=     0 DoSepK=T KAlg= 1 I1Cent= 0 FoldK=F
 E= -2904.61510364302     Delta-E=       -0.008007820878 Rises=F Damp=F
 DIIS: error= 1.22D-03 at cycle   5 NSaved=   5.
 NSaved= 5 IEnMin= 5 EnMin= -2904.61510364302     IErMin= 5 ErrMin= 1.22D-03
 ErrMax= 1.22D-03 EMaxC= 1.00D-01 BMatC= 5.66D-04 BMatP= 8.74D-03
 IDIUse=3 WtCom= 9.88D-01 WtEn= 1.22D-02
 Coeff-Com: -0.188D-01 0.371D-01-0.394D-02-0.259D-01 0.101D+01
 Coeff-En:   0.000D+00 0.000D+00 0.000D+00 0.000D+00 0.100D+01
 Coeff:     -0.186D-01 0.366D-01-0.389D-02-0.256D-01 0.101D+01
 Gap=     0.518 Goal=   None    Shift=    0.000
 RMSDP=1.53D-04 MaxDP=3.91D-03 DE=-8.01D-03 OVMax= 7.84D-03

 Cycle   6  Pass 1  IDiag  1:
 RMSU=  8.53D-05    CP:  5.27D-02  3.00D+00  9.80D-01  1.13D+00  1.13D+00
 FoFJK:  IHMeth= 1 ICntrl=     0 DoSepK=T KAlg= 1 I1Cent= 0 FoldK=F
 E= -2904.61567726423     Delta-E=       -0.000573621217 Rises=F Damp=F
 DIIS: error= 4.13D-04 at cycle   6 NSaved=   6.
 NSaved= 6 IEnMin= 6 EnMin= -2904.61567726423     IErMin= 6 ErrMin= 4.13D-04
 ErrMax= 4.13D-04 EMaxC= 1.00D-01 BMatC= 8.66D-05 BMatP= 5.66D-04
 IDIUse=3 WtCom= 9.96D-01 WtEn= 4.13D-03
 Coeff-Com: -0.408D-02 0.750D-02-0.803D-02-0.443D-01 0.439D-01 0.100D+01
 Coeff-En:   0.000D+00 0.000D+00 0.000D+00 0.000D+00 0.000D+00 0.100D+01
 Coeff:     -0.407D-02 0.747D-02-0.800D-02-0.441D-01 0.437D-01 0.100D+01
 Gap=     0.522 Goal=   None    Shift=    0.000
 RMSDP=6.43D-05 MaxDP=1.61D-03 DE=-5.74D-04 OVMax= 3.93D-03

 Cycle   7  Pass 1  IDiag  1:
 RMSU=  2.49D-05    CP:  5.27D-02  3.00D+00  9.79D-01  1.14D+00  1.20D+00
                    CP:  1.15D+00
 FoFJK:  IHMeth= 1 ICntrl=     0 DoSepK=T KAlg= 1 I1Cent= 0 FoldK=F
 E= -2904.61579718421     Delta-E=       -0.000119919979 Rises=F Damp=F
 DIIS: error= 2.00D-04 at cycle   7 NSaved=   7.
 NSaved= 7 IEnMin= 7 EnMin= -2904.61579718421     IErMin= 7 ErrMin= 2.00D-04
 ErrMax= 2.00D-04 EMaxC= 1.00D-01 BMatC= 1.86D-05 BMatP= 8.66D-05
 IDIUse=3 WtCom= 9.98D-01 WtEn= 2.00D-03
 Coeff-Com:  0.538D-03-0.133D-02-0.372D-02-0.145D-01-0.787D-01 0.351D+00
 Coeff-Com:  0.747D+00
 Coeff-En:   0.000D+00 0.000D+00 0.000D+00 0.000D+00 0.000D+00 0.000D+00
 Coeff-En:   0.100D+01
 Coeff:      0.537D-03-0.133D-02-0.371D-02-0.144D-01-0.785D-01 0.350D+00
 Coeff:      0.747D+00
 Gap=     0.522 Goal=   None    Shift=    0.000
 RMSDP=2.13D-05 MaxDP=8.05D-04 DE=-1.20D-04 OVMax= 1.56D-03

 Cycle   8  Pass 1  IDiag  1:
 RMSU=  1.01D-05    CP:  5.27D-02  3.00D+00  9.79D-01  1.15D+00  1.21D+00
                    CP:  1.21D+00  1.15D+00
 FoFJK:  IHMeth= 1 ICntrl=     0 DoSepK=T KAlg= 1 I1Cent= 0 FoldK=F
 E= -2904.61581691061     Delta-E=       -0.000019726398 Rises=F Damp=F
 DIIS: error= 6.51D-05 at cycle   8 NSaved=   8.
 NSaved= 8 IEnMin= 8 EnMin= -2904.61581691061     IErMin= 8 ErrMin= 6.51D-05
 ErrMax= 6.51D-05 EMaxC= 1.00D-01 BMatC= 1.82D-06 BMatP= 1.86D-05
 IDIUse=1 WtCom= 1.00D+00 WtEn= 0.00D+00
 Coeff-Com:  0.119D-02-0.222D-02 0.993D-03 0.458D-02-0.109D-01-0.106D+00
 Coeff-Com:  0.980D-01 0.101D+01
 Coeff:      0.119D-02-0.222D-02 0.993D-03 0.458D-02-0.109D-01-0.106D+00
 Coeff:      0.980D-01 0.101D+01
 Gap=     0.522 Goal=   None    Shift=    0.000
 RMSDP=9.97D-06 MaxDP=3.95D-04 DE=-1.97D-05 OVMax= 9.62D-04

 Cycle   9  Pass 1  IDiag  1:
 RMSU=  3.85D-06    CP:  5.27D-02  3.00D+00  9.80D-01  1.15D+00  1.21D+00
                    CP:  1.22D+00  1.34D+00  1.29D+00
 FoFJK:  IHMeth= 1 ICntrl=     0 DoSepK=T KAlg= 1 I1Cent= 0 FoldK=F
 E= -2904.61582054256     Delta-E=       -0.000003631952 Rises=F Damp=F
 DIIS: error= 2.65D-05 at cycle   9 NSaved=   9.
 NSaved= 9 IEnMin= 9 EnMin= -2904.61582054256     IErMin= 9 ErrMin= 2.65D-05
 ErrMax= 2.65D-05 EMaxC= 1.00D-01 BMatC= 2.70D-07 BMatP= 1.82D-06
 IDIUse=1 WtCom= 1.00D+00 WtEn= 0.00D+00
 Coeff-Com:  0.100D-03-0.119D-03 0.609D-03 0.167D-02 0.419D-02-0.790D-02
 Coeff-Com: -0.712D-01-0.157D+00 0.123D+01
 Coeff:      0.100D-03-0.119D-03 0.609D-03 0.167D-02 0.419D-02-0.790D-02
 Coeff:     -0.712D-01-0.157D+00 0.123D+01
 Gap=     0.522 Goal=   None    Shift=    0.000
 RMSDP=4.77D-06 MaxDP=8.74D-05 DE=-3.63D-06 OVMax= 5.20D-04

 Cycle  10  Pass 1  IDiag  1:
 RMSU=  1.40D-06    CP:  5.27D-02  3.00D+00  9.80D-01  1.15D+00  1.21D+00
                    CP:  1.22D+00  1.38D+00  1.45D+00  1.49D+00
 FoFJK:  IHMeth= 1 ICntrl=     0 DoSepK=T KAlg= 1 I1Cent= 0 FoldK=F
 E= -2904.61582130762     Delta-E=       -0.000000765060 Rises=F Damp=F
 DIIS: error= 1.15D-05 at cycle  10 NSaved=  10.
 NSaved=10 IEnMin=10 EnMin= -2904.61582130762     IErMin=10 ErrMin= 1.15D-05
 ErrMax= 1.15D-05 EMaxC= 1.00D-01 BMatC= 3.48D-08 BMatP= 2.70D-07
 IDIUse=1 WtCom= 1.00D+00 WtEn= 0.00D+00
 Coeff-Com: -0.120D-03 0.229D-03-0.224D-03-0.727D-03-0.166D-02 0.181D-01
 Coeff-Com: -0.363D-02-0.145D+00-0.122D+00 0.126D+01
 Coeff:     -0.120D-03 0.229D-03-0.224D-03-0.727D-03-0.166D-02 0.181D-01
 Coeff:     -0.363D-02-0.145D+00-0.122D+00 0.126D+01
 Gap=     0.522 Goal=   None    Shift=    0.000
 RMSDP=2.14D-06 MaxDP=4.64D-05 DE=-7.65D-07 OVMax= 2.80D-04

 Cycle  11  Pass 1  IDiag  1:
 RMSU=  5.11D-07    CP:  5.27D-02  3.00D+00  9.80D-01  1.15D+00  1.21D+00
                    CP:  1.22D+00  1.40D+00  1.51D+00  1.73D+00  1.46D+00
 FoFJK:  IHMeth= 1 ICntrl=     0 DoSepK=T KAlg= 1 I1Cent= 0 FoldK=F
 E= -2904.61582144325     Delta-E=       -0.000000135628 Rises=F Damp=F
 DIIS: error= 3.23D-06 at cycle  11 NSaved=  11.
 NSaved=11 IEnMin=11 EnMin= -2904.61582144325     IErMin=11 ErrMin= 3.23D-06
 ErrMax= 3.23D-06 EMaxC= 1.00D-01 BMatC= 2.99D-09 BMatP= 3.48D-08
 IDIUse=1 WtCom= 1.00D+00 WtEn= 0.00D+00
 Coeff-Com: -0.211D-04 0.323D-04-0.155D-04-0.720D-04 0.910D-03-0.405D-02
 Coeff-Com:  0.156D-02 0.373D-01-0.446D-01-0.330D+00 0.134D+01
 Coeff:     -0.211D-04 0.323D-04-0.155D-04-0.720D-04 0.910D-03-0.405D-02
 Coeff:      0.156D-02 0.373D-01-0.446D-01-0.330D+00 0.134D+01
 Gap=     0.522 Goal=   None    Shift=    0.000
 RMSDP=6.48D-07 MaxDP=1.55D-05 DE=-1.36D-07 OVMax= 8.60D-05

 Cycle  12  Pass 1  IDiag  1:
 RMSU=  1.53D-07    CP:  5.27D-02  3.00D+00  9.80D-01  1.15D+00  1.21D+00
                    CP:  1.22D+00  1.41D+00  1.53D+00  1.78D+00  1.60D+00
                    CP:  1.42D+00
 FoFJK:  IHMeth= 1 ICntrl=     0 DoSepK=T KAlg= 1 I1Cent= 0 FoldK=F
 E= -2904.61582145475     Delta-E=       -0.000000011502 Rises=F Damp=F
 DIIS: error= 7.38D-07 at cycle  12 NSaved=  12.
 NSaved=12 IEnMin=12 EnMin= -2904.61582145475     IErMin=12 ErrMin= 7.38D-07
 ErrMax= 7.38D-07 EMaxC= 1.00D-01 BMatC= 1.61D-10 BMatP= 2.99D-09
 IDIUse=1 WtCom= 1.00D+00 WtEn= 0.00D+00
 Coeff-Com: -0.659D-07-0.813D-06 0.738D-05 0.489D-04-0.191D-03 0.750D-03
 Coeff-Com: -0.347D-03-0.540D-02 0.228D-01 0.299D-01-0.395D+00 0.135D+01
 Coeff:     -0.659D-07-0.813D-06 0.738D-05 0.489D-04-0.191D-03 0.750D-03
 Coeff:     -0.347D-03-0.540D-02 0.228D-01 0.299D-01-0.395D+00 0.135D+01
 Gap=     0.522 Goal=   None    Shift=    0.000
 RMSDP=1.29D-07 MaxDP=2.69D-06 DE=-1.15D-08 OVMax= 1.36D-05

 Cycle  13  Pass 1  IDiag  1:
 RMSU=  3.19D-08    CP:  5.27D-02  3.00D+00  9.80D-01  1.15D+00  1.21D+00
                    CP:  1.22D+00  1.41D+00  1.53D+00  1.78D+00  1.61D+00
                    CP:  1.51D+00  1.44D+00
 FoFJK:  IHMeth= 1 ICntrl=     0 DoSepK=T KAlg= 1 I1Cent= 0 FoldK=F
 E= -2904.61582145529     Delta-E=       -0.000000000535 Rises=F Damp=F
 DIIS: error= 1.54D-07 at cycle  13 NSaved=  13.
 NSaved=13 IEnMin=13 EnMin= -2904.61582145529     IErMin=13 ErrMin= 1.54D-07
 ErrMax= 1.54D-07 EMaxC= 1.00D-01 BMatC= 6.90D-12 BMatP= 1.61D-10
 IDIUse=1 WtCom= 1.00D+00 WtEn= 0.00D+00
 Coeff-Com:  0.225D-06-0.255D-06-0.579D-06 0.125D-05-0.371D-04 0.202D-03
 Coeff-Com: -0.125D-03-0.198D-02 0.423D-03 0.146D-01-0.414D-01-0.623D-01
 Coeff-Com:  0.109D+01
 Coeff:      0.225D-06-0.255D-06-0.579D-06 0.125D-05-0.371D-04 0.202D-03
 Coeff:     -0.125D-03-0.198D-02 0.423D-03 0.146D-01-0.414D-01-0.623D-01
 Coeff:      0.109D+01
 Gap=     0.522 Goal=   None    Shift=    0.000
 RMSDP=2.53D-08 MaxDP=6.40D-07 DE=-5.35D-10 OVMax= 2.36D-06

 Cycle  14  Pass 1  IDiag  1:
 RMSU=  5.73D-09    CP:  5.27D-02  3.00D+00  9.80D-01  1.15D+00  1.21D+00
                    CP:  1.22D+00  1.41D+00  1.53D+00  1.78D+00  1.61D+00
                    CP:  1.51D+00  1.49D+00  1.31D+00
 FoFJK:  IHMeth= 1 ICntrl=     0 DoSepK=T KAlg= 1 I1Cent= 0 FoldK=F
 E= -2904.61582145528     Delta-E=        0.000000000003 Rises=F Damp=F
 DIIS: error= 5.51D-08 at cycle  14 NSaved=  14.
 NSaved=14 IEnMin=13 EnMin= -2904.61582145529     IErMin=14 ErrMin= 5.51D-08
 ErrMax= 5.51D-08 EMaxC= 1.00D-01 BMatC= 7.06D-13 BMatP= 6.90D-12
 IDIUse=1 WtCom= 1.00D+00 WtEn= 0.00D+00
 Coeff-Com:  0.189D-06-0.302D-06-0.192D-06-0.362D-05 0.209D-04-0.627D-04
 Coeff-Com:  0.136D-04 0.591D-03-0.805D-03-0.447D-02 0.288D-01-0.555D-01
 Coeff-Com: -0.328D+00 0.136D+01
 Coeff:      0.189D-06-0.302D-06-0.192D-06-0.362D-05 0.209D-04-0.627D-04
 Coeff:      0.136D-04 0.591D-03-0.805D-03-0.447D-02 0.288D-01-0.555D-01
 Coeff:     -0.328D+00 0.136D+01
 Gap=     0.522 Goal=   None    Shift=    0.000
 RMSDP=8.68D-09 MaxDP=1.71D-07 DE= 2.73D-12 OVMax= 8.74D-07

 SCF Done:  E(RLC-B+HF-LYP) =  -2904.61582146     A.U. after   14 cycles
             Convg  =    0.8676D-08             -V/T =  2.0016
 KE= 2.899966356006D+03 PE=-7.238038732362D+03 EE= 1.282806209426D+03
 Leave Link  502 at Mon May 11 22:52:47 2020, MaxMem= 1073741824 cpu:     395.0
 (Enter /home/matheus/.gaussian/g09/l601.exe)
 Copying SCF densities to generalized density rwf, IOpCl= 0 IROHF=0.

 **********************************************************************

            Population analysis using the SCF density.

 **********************************************************************

 Orbital symmetries:
       Occupied  (A) (A) (A) (A) (A) (A) (A) (A) (A) (A) (A) (A)
                 (A) (A) (A) (A) (A) (A) (A) (A) (A) (A) (A) (A)
                 (A) (A) (A)
       Virtual   (A) (A) (A) (A) (A) (A) (A) (A) (A) (A) (A) (A)
                 (A) (A) (A) (A) (A) (A) (A) (A) (A) (A) (A) (A)
                 (A) (A) (A) (A) (A) (A) (A) (A) (A) (A) (A) (A)
                 (A) (A) (A) (A) (A) (A) (A) (A) (A) (A) (A) (A)
                 (A) (A) (A) (A) (A) (A) (A) (A) (A) (A) (A) (A)
                 (A) (A) (A) (A) (A) (A) (A) (A) (A) (A) (A) (A)
                 (A) (A) (A) (A) (A) (A) (A) (A) (A) (A) (A) (A)
                 (A) (A) (A) (A) (A) (A) (A) (A) (A) (A) (A) (A)
                 (A) (A) (A) (A) (A) (A) (A) (A) (A) (A) (A) (A)
                 (A) (A) (A) (A) (A) (A) (A) (A) (A) (A) (A) (A)
                 (A) (A) (A) (A) (A) (A) (A) (A) (A) (A) (A) (A)
                 (A) (A) (A) (A) (A) (A) (A) (A) (A) (A) (A) (A)
                 (A) (A) (A) (A) (A) (A) (A) (A) (A) (A) (A) (A)
                 (A) (A) (A) (A) (A) (A) (A) (A) (A) (A) (A) (A)
                 (A) (A)
 The electronic state is 1-A.
 Alpha  occ. eigenvalues -- -511.68461 -67.20950 -60.88153 -60.88144 -60.88132
 Alpha  occ. eigenvalues --  -19.48344 -19.48115 -10.11074  -7.82663  -7.82639
 Alpha  occ. eigenvalues --   -7.82608  -3.65628  -3.65623  -3.65598  -3.65579
 Alpha  occ. eigenvalues --   -3.65574  -1.46360  -1.21388  -1.20519  -0.79025
 Alpha  occ. eigenvalues --   -0.68258  -0.63371  -0.59249  -0.58276  -0.57716
 Alpha  occ. eigenvalues --   -0.55938  -0.49609
 Alpha virt. eigenvalues --    0.02612   0.03931   0.07574   0.08519   0.10517
 Alpha virt. eigenvalues --    0.11656   0.12860   0.14131   0.16793   0.17494
 Alpha virt. eigenvalues --    0.17587   0.19464   0.20803   0.23368   0.24221
 Alpha virt. eigenvalues --    0.24529   0.25192   0.28908   0.31644   0.32600
 Alpha virt. eigenvalues --    0.33370   0.35102   0.37678   0.38811   0.40148
 Alpha virt. eigenvalues --    0.42491   0.44325   0.48576   0.54189   0.55855
 Alpha virt. eigenvalues --    0.59330   0.61172   0.63090   0.66129   0.69877
 Alpha virt. eigenvalues --    0.70908   0.73440   0.76128   0.78265   0.79363
 Alpha virt. eigenvalues --    0.80202   0.80625   0.82000   0.83934   0.86630
 Alpha virt. eigenvalues --    0.88407   0.89523   0.90852   0.92323   0.94247
 Alpha virt. eigenvalues --    0.95553   0.97861   0.99578   1.01343   1.02470
 Alpha virt. eigenvalues --    1.03965   1.06823   1.10231   1.10738   1.15126
 Alpha virt. eigenvalues --    1.16440   1.19304   1.22047   1.26185   1.28516
 Alpha virt. eigenvalues --    1.33720   1.40620   1.42890   1.46156   1.46876
 Alpha virt. eigenvalues --    1.50749   1.53293   1.56164   1.60358   1.65381
 Alpha virt. eigenvalues --    1.73269   1.77033   1.92569   2.00643   2.03188
 Alpha virt. eigenvalues --    2.11177   2.16778   2.19862   2.21679   2.26105
 Alpha virt. eigenvalues --    2.26815   2.30593   2.31459   2.33878   2.38093
 Alpha virt. eigenvalues --    2.41188   2.41813   2.43654   2.44176   2.45525
 Alpha virt. eigenvalues --    2.49807   2.52023   2.57362   2.60724   2.62265
 Alpha virt. eigenvalues --    2.62957   2.64728   2.67328   2.68506   2.70700
 Alpha virt. eigenvalues --    2.72345   2.74411   2.78632   2.82741   2.84663
 Alpha virt. eigenvalues --    2.87099   2.90734   2.93928   3.01037   3.03195
 Alpha virt. eigenvalues --    3.07510   3.14565   3.23513   3.25869   3.77061
 Alpha virt. eigenvalues --    3.82427   4.11338   4.13952   4.14828   4.18664
 Alpha virt. eigenvalues --    4.27275   4.28122   4.37768   4.40307   4.40648
 Alpha virt. eigenvalues --    4.57003   4.64525   4.77272   4.80374   4.85196
 Alpha virt. eigenvalues --    5.14109   5.18208   5.20748   5.24903   5.33437
 Alpha virt. eigenvalues --    5.35290   5.66605   6.07157   6.24170   6.36140
 Alpha virt. eigenvalues --    6.37118   6.55243   6.63660   6.65012   6.78230
 Alpha virt. eigenvalues --    6.90736   7.01562   7.05181   7.09661   7.11154
 Alpha virt. eigenvalues --    7.15286   7.15419   7.17875   7.18850   7.30020
 Alpha virt. eigenvalues --    7.37263   7.42226   7.49104   7.71912   7.75656
 Alpha virt. eigenvalues --    8.13389   8.30767   8.40966  14.26177  14.88325
          Condensed to atoms (all electrons):
              1          2          3          4          5
     1  O    8.254617  -0.202483   0.179146   0.014444  -0.023754
     2  O   -0.202483   8.245398   0.025351   0.187451  -0.014290
     3  H    0.179146   0.025351   0.579317  -0.007916  -0.003964
     4  H    0.014444   0.187451  -0.007916   0.587345  -0.015459
     5  Kr  -0.023754  -0.014290  -0.003964  -0.015459  36.056271
 Mulliken atomic charges:
              1
     1  O   -0.221969
     2  O   -0.241427
     3  H    0.228066
     4  H    0.234135
     5  Kr   0.001196
 Sum of Mulliken atomic charges =   0.00000
 Mulliken charges with hydrogens summed into heavy atoms:
              1
     1  O    0.006097
     2  O   -0.007293
     5  Kr   0.001196
 Sum of Mulliken charges with hydrogens summed into heavy atoms =   0.00000
          Condensed to fragments (all electrons):
     1      -0.001196
     2       0.001196
 Electronic spatial extent (au):  <R**2>=            478.2107
 Charge=              0.0000 electrons
 Dipole moment (field-independent basis, Debye):
    X=              3.1262    Y=             -0.2193    Z=              1.1661  Tot=              3.3438
 Quadrupole moment (field-independent basis, Debye-Ang):
   XX=            -38.2522   YY=            -27.6670   ZZ=            -29.2216
   XY=              0.8649   XZ=             -1.7299   YZ=             -1.4936
 Traceless Quadrupole moment (field-independent basis, Debye-Ang):
   XX=             -6.5386   YY=              4.0466   ZZ=              2.4920
   XY=              0.8649   XZ=             -1.7299   YZ=             -1.4936
 Octapole moment (field-independent basis, Debye-Ang**2):
  XXX=             43.9103  YYY=             -0.5822  ZZZ=              0.6047  XYY=              6.7828
  XXY=             -2.1931  XXZ=              1.6691  XZZ=              6.7885  YZZ=             -1.1284
  YYZ=              1.8111  XYZ=              2.1898
 Hexadecapole moment (field-independent basis, Debye-Ang**3):
 XXXX=           -459.4686 YYYY=            -61.4555 ZZZZ=            -28.3604 XXXY=              3.2155
 XXXZ=             -1.8073 YYYX=              1.6497 YYYZ=             -2.1596 ZZZX=             -1.2970
 ZZZY=             -1.2968 XXYY=            -84.1944 XXZZ=            -73.2491 YYZZ=            -15.8322
 XXYZ=             -3.3006 YYXZ=             -2.6522 ZZXY=              1.6733
 N-N= 1.506503454741D+02 E-N=-7.238038733217D+03  KE= 2.899966356006D+03
 No NMR shielding tensors so no spin-rotation constants.
 Leave Link  601 at Mon May 11 22:52:47 2020, MaxMem= 1073741824 cpu:       0.8
 (Enter /home/matheus/.gaussian/g09/l122.exe)
 Counterpoise: doing DCBS calculation for fragment   1 NewBq=T
 Leave Link  122 at Mon May 11 22:52:47 2020, MaxMem= 1073741824 cpu:       0.0
 (Enter /home/matheus/.gaussian/g09/l301.exe)
 Basis read from rwf:  (5D, 7F)
 No pseudopotential information found on rwf file.
 There are   197 symmetry adapted basis functions of A   symmetry.
 Integral buffers will be    131072 words long.
 Raffenetti 2 integral format.
 Two-electron integral symmetry is turned on.
   197 basis functions,   415 primitive gaussians,   229 cartesian basis functions
     9 alpha electrons        9 beta electrons
       nuclear repulsion energy        36.6499454140 Hartrees.
 IExCor=10402 DFT=T Ex=LC-B+HF Corr=LYP ExCW=0 ScaHFX=  1.000000
 ScaDFX=  1.000000  1.000000  1.000000  1.000000 ScalE2=  1.000000  1.000000
 IRadAn=      5 IRanWt=     -1 IRanGd=            0 ICorTp=0
  HFx wShort=  0.000000 wLong=  1.350000 cFull=  0.000000 cShort=  0.000000 cLong=  1.000000
  DFx wShort=  0.000000 wLong=  1.350000 cFull=  0.000000 cShort=  0.000000 cLong=  1.000000
 NAtoms=    5 NActive=    5 NUniq=    5 SFac= 1.00D+00 NAtFMM=   60 NAOKFM=F Big=F
 No density basis found on file   718.
 Leave Link  301 at Mon May 11 22:52:47 2020, MaxMem= 1073741824 cpu:       0.2
 (Enter /home/matheus/.gaussian/g09/l302.exe)
 NPDir=0 NMtPBC=     1 NCelOv=     1 NCel=       1 NClECP=     1 NCelD=      1
         NCelK=      1 NCelE2=     1 NClLst=     1 CellRange=     0.0.
 One-electron integrals computed using PRISM.
 NBasis=   197 RedAO= T  NBF=   197
 NBsUse=   197 1.00D-06 NBFU=   197
 Precomputing XC quadrature grid using
 IXCGrd= 2 IRadAn=           5 IRanWt=          -1 IRanGd=           0 AccXCQ= 0.00D+00.
 NRdTot=     427 NPtTot=      123512 NUsed=      126579 NTot=      126611
 NSgBfM=   229   229   229   229   229 NAtAll=     5     5.
 Leave Link  302 at Mon May 11 22:52:47 2020, MaxMem= 1073741824 cpu:       1.2
 (Enter /home/matheus/.gaussian/g09/l303.exe)
 DipDrv:  MaxL=1.
 Leave Link  303 at Mon May 11 22:52:47 2020, MaxMem= 1073741824 cpu:       0.2
 (Enter /home/matheus/.gaussian/g09/l401.exe)
 Harris functional with IExCor=10402 diagonalized for initial guess.
 ExpMin= 2.53D-02 ExpMax= 1.17D+07 ExpMxC= 1.33D+04 IAcc=3 IRadAn=         5 AccDes= 0.00D+00
 HarFok:  IExCor=10402 AccDes= 0.00D+00 IRadAn=         5 IDoV= 1
 ScaDFX=  1.000000  1.000000  1.000000  1.000000
 FoFCou: FMM=F IPFlag=           0 FMFlag=      100000 FMFlg1=           0
         NFxFlg=           0 DoJE=T BraDBF=F KetDBF=T FulRan=T
         Omega=  0.000000  0.000000  1.000000  0.000000  0.000000 ICntrl=     500 IOpCl=  0
         NMat0=    1 NMatS0=    1 NMatT0=    0 NMatD0=    1 NMtDS0=    0 NMtDT0=    0
         I1Cent=           4 NGrid=           0.
 Petite list used in FoFCou.
 Harris En= -143.222010056393    
 Initial guess orbital symmetries:
       Occupied  (A) (A) (A) (A) (A) (A) (A) (A) (A)
       Virtual   (A) (A) (A) (A) (A) (A) (A) (A) (A) (A) (A) (A)
                 (A) (A) (A) (A) (A) (A) (A) (A) (A) (A) (A) (A)
                 (A) (A) (A) (A) (A) (A) (A) (A) (A) (A) (A) (A)
                 (A) (A) (A) (A) (A) (A) (A) (A) (A) (A) (A) (A)
                 (A) (A) (A) (A) (A) (A) (A) (A) (A) (A) (A) (A)
                 (A) (A) (A) (A) (A) (A) (A) (A) (A) (A) (A) (A)
                 (A) (A) (A) (A) (A) (A) (A) (A) (A) (A) (A) (A)
                 (A) (A) (A) (A) (A) (A) (A) (A) (A) (A) (A) (A)
                 (A) (A) (A) (A) (A) (A) (A) (A) (A) (A) (A) (A)
                 (A) (A) (A) (A) (A) (A) (A) (A) (A) (A) (A) (A)
                 (A) (A) (A) (A) (A) (A) (A) (A) (A) (A) (A) (A)
                 (A) (A) (A) (A) (A) (A) (A) (A) (A) (A) (A) (A)
                 (A) (A) (A) (A) (A) (A) (A) (A) (A) (A) (A) (A)
                 (A) (A) (A) (A) (A) (A) (A) (A) (A) (A) (A) (A)
                 (A) (A) (A) (A) (A) (A) (A) (A) (A) (A) (A) (A)
                 (A) (A) (A) (A) (A) (A) (A) (A)
 The electronic state of the initial guess is 1-A.
 Leave Link  401 at Mon May 11 22:52:48 2020, MaxMem= 1073741824 cpu:       4.4
 (Enter /home/matheus/.gaussian/g09/l502.exe)
 Closed shell SCF:
 Requested convergence on RMS density matrix=1.00D-08 within 128 cycles.
 Requested convergence on MAX density matrix=1.00D-06.
 Requested convergence on             energy=1.00D-06.
 No special actions if energy rises.
 Using DIIS extrapolation, IDIIS=  1040.
 Integral symmetry usage will be decided dynamically.
       126521 words used for storage of precomputed grid.
 IEnd=      305468 IEndB=      305468 NGot=  1073741824 MDV=  1073505667
 LenX=  1073505667 LenY=  1073452785
 Fock matrices will be formed incrementally for  20 cycles.

 Cycle   1  Pass 1  IDiag  1:
 FoFJK:  IHMeth= 1 ICntrl=     0 DoSepK=T KAlg= 1 I1Cent= 0 FoldK=F
 FoFCou: FMM=F IPFlag=           0 FMFlag=      100000 FMFlg1=           0
         NFxFlg=           0 DoJE=T BraDBF=F KetDBF=F FulRan=T
         Omega=  0.000000  0.000000  1.000000  0.000000  0.000000 ICntrl=     500 IOpCl=  0
         NMat0=    1 NMatS0=    1 NMatT0=    0 NMatD0=    1 NMtDS0=    0 NMtDT0=    0
         I1Cent=           0 NGrid=           0.
 Symmetry not used in FoFCou.
 E= -145.618824273080    
 DIIS: error= 1.10D-01 at cycle   1 NSaved=   1.
 NSaved= 1 IEnMin= 1 EnMin= -145.618824273080     IErMin= 1 ErrMin= 1.10D-01
 ErrMax= 1.10D-01 EMaxC= 1.00D-01 BMatC= 2.76D+00 BMatP= 2.76D+00
 IDIUse=3 WtCom= 0.00D+00 WtEn= 1.00D+00
 Coeff-Com:  0.100D+01
 Coeff-En:   0.100D+01
 Coeff:      0.100D+01
 Gap=    -1.082 Goal=   None    Shift=    0.000
 GapD=   -1.082 DampG=0.250 DampE=0.250 DampFc=0.2500 IDamp=-1.
 Damping current iteration by 2.50D-01
 RMSDP=1.11D-01 MaxDP=9.41D+00              OVMax= 9.98D-01

 Cycle   2  Pass 1  IDiag  1:
 RMSU=  1.82D-03    CP:  7.52D-01
 FoFJK:  IHMeth= 1 ICntrl=     0 DoSepK=T KAlg= 1 I1Cent= 0 FoldK=F
 E= -147.742846598284     Delta-E=       -2.124022325204 Rises=F Damp=T
 DIIS: error= 5.86D-02 at cycle   2 NSaved=   2.
 NSaved= 2 IEnMin= 2 EnMin= -147.742846598284     IErMin= 2 ErrMin= 5.86D-02
 ErrMax= 5.86D-02 EMaxC= 1.00D-01 BMatC= 7.34D-01 BMatP= 2.76D+00
 IDIUse=3 WtCom= 4.14D-01 WtEn= 5.86D-01
 Coeff-Com: -0.968D+00 0.197D+01
 Coeff-En:   0.000D+00 0.100D+01
 Coeff:     -0.401D+00 0.140D+01
 Gap=     0.361 Goal=   None    Shift=    0.000
 RMSDP=8.29D-02 MaxDP=7.06D+00 DE=-2.12D+00 OVMax= 1.40D-01

 Cycle   3  Pass 1  IDiag  1:
 RMSU=  2.22D-03    CP:  6.07D-03  3.00D+00
 FoFJK:  IHMeth= 1 ICntrl=     0 DoSepK=T KAlg= 1 I1Cent= 0 FoldK=F
 E= -150.581064499019     Delta-E=       -2.838217900735 Rises=F Damp=F
 DIIS: error= 5.01D-02 at cycle   3 NSaved=   3.
 NSaved= 3 IEnMin= 3 EnMin= -150.581064499019     IErMin= 3 ErrMin= 5.01D-02
 ErrMax= 5.01D-02 EMaxC= 1.00D-01 BMatC= 8.87D-01 BMatP= 7.34D-01
 IDIUse=2 WtCom= 0.00D+00 WtEn= 1.00D+00
 Coeff-En:   0.000D+00 0.000D+00 0.100D+01
 Coeff:      0.000D+00 0.000D+00 0.100D+01
 Gap=     0.796 Goal=   None    Shift=    0.000
 RMSDP=4.17D-03 MaxDP=1.44D-01 DE=-2.84D+00 OVMax= 2.93D-01

 Cycle   4  Pass 1  IDiag  1:
 RMSU=  2.91D-03    CP:  6.32D-03  3.00D+00  1.21D+00
 FoFJK:  IHMeth= 1 ICntrl=     0 DoSepK=T KAlg= 1 I1Cent= 0 FoldK=F
 E= -150.922258215902     Delta-E=       -0.341193716883 Rises=F Damp=F
 DIIS: error= 3.58D-02 at cycle   4 NSaved=   4.
 NSaved= 4 IEnMin= 4 EnMin= -150.922258215902     IErMin= 4 ErrMin= 3.58D-02
 ErrMax= 3.58D-02 EMaxC= 1.00D-01 BMatC= 4.34D-01 BMatP= 7.34D-01
 IDIUse=3 WtCom= 6.42D-01 WtEn= 3.58D-01
 Coeff-Com: -0.382D+00 0.640D+00 0.226D+00 0.516D+00
 Coeff-En:   0.000D+00 0.000D+00 0.232D+00 0.768D+00
 Coeff:     -0.245D+00 0.411D+00 0.228D+00 0.606D+00
 Gap=     0.565 Goal=   None    Shift=    0.000
 RMSDP=2.00D-03 MaxDP=5.51D-02 DE=-3.41D-01 OVMax= 1.48D-01

 Cycle   5  Pass 1  IDiag  1:
 RMSU=  3.92D-04    CP:  6.00D-03  3.00D+00  1.22D+00  5.34D-01
 FoFJK:  IHMeth= 1 ICntrl=     0 DoSepK=T KAlg= 1 I1Cent= 0 FoldK=F
 E= -151.191882746717     Delta-E=       -0.269624530815 Rises=F Damp=F
 DIIS: error= 8.30D-03 at cycle   5 NSaved=   5.
 NSaved= 5 IEnMin= 5 EnMin= -151.191882746717     IErMin= 5 ErrMin= 8.30D-03
 ErrMax= 8.30D-03 EMaxC= 1.00D-01 BMatC= 2.39D-02 BMatP= 4.34D-01
 IDIUse=3 WtCom= 9.17D-01 WtEn= 8.30D-02
 Coeff-Com: -0.860D-01 0.154D+00-0.140D+00 0.690D-01 0.100D+01
 Coeff-En:   0.000D+00 0.000D+00 0.000D+00 0.000D+00 0.100D+01
 Coeff:     -0.789D-01 0.141D+00-0.129D+00 0.632D-01 0.100D+01
 Gap=     0.525 Goal=   None    Shift=    0.000
 RMSDP=4.14D-04 MaxDP=1.45D-02 DE=-2.70D-01 OVMax= 2.61D-02

 Cycle   6  Pass 1  IDiag  1:
 RMSU=  8.82D-05    CP:  6.06D-03  3.00D+00  1.24D+00  6.27D-01  1.09D+00
 FoFJK:  IHMeth= 1 ICntrl=     0 DoSepK=T KAlg= 1 I1Cent= 0 FoldK=F
 E= -151.208612228988     Delta-E=       -0.016729482271 Rises=F Damp=F
 DIIS: error= 1.63D-03 at cycle   6 NSaved=   6.
 NSaved= 6 IEnMin= 6 EnMin= -151.208612228988     IErMin= 6 ErrMin= 1.63D-03
 ErrMax= 1.63D-03 EMaxC= 1.00D-01 BMatC= 7.45D-04 BMatP= 2.39D-02
 IDIUse=3 WtCom= 9.84D-01 WtEn= 1.63D-02
 Coeff-Com: -0.312D-01 0.596D-01-0.440D-02-0.211D-01-0.316D+00 0.131D+01
 Coeff-En:   0.000D+00 0.000D+00 0.000D+00 0.000D+00 0.000D+00 0.100D+01
 Coeff:     -0.306D-01 0.587D-01-0.433D-02-0.207D-01-0.311D+00 0.131D+01
 Gap=     0.522 Goal=   None    Shift=    0.000
 RMSDP=8.51D-05 MaxDP=1.96D-03 DE=-1.67D-02 OVMax= 5.18D-03

 Cycle   7  Pass 1  IDiag  1:
 RMSU=  2.43D-05    CP:  6.08D-03  3.00D+00  1.24D+00  6.41D-01  1.12D+00
                    CP:  1.42D+00
 FoFJK:  IHMeth= 1 ICntrl=     0 DoSepK=T KAlg= 1 I1Cent= 0 FoldK=F
 E= -151.209153922001     Delta-E=       -0.000541693013 Rises=F Damp=F
 DIIS: error= 7.83D-04 at cycle   7 NSaved=   7.
 NSaved= 7 IEnMin= 7 EnMin= -151.209153922001     IErMin= 7 ErrMin= 7.83D-04
 ErrMax= 7.83D-04 EMaxC= 1.00D-01 BMatC= 2.29D-04 BMatP= 7.45D-04
 IDIUse=3 WtCom= 9.92D-01 WtEn= 7.83D-03
 Coeff-Com: -0.371D-02 0.730D-02 0.548D-02 0.702D-02-0.863D-01-0.344D+00
 Coeff-Com:  0.141D+01
 Coeff-En:   0.000D+00 0.000D+00 0.000D+00 0.000D+00 0.000D+00 0.000D+00
 Coeff-En:   0.100D+01
 Coeff:     -0.368D-02 0.724D-02 0.544D-02 0.696D-02-0.857D-01-0.341D+00
 Coeff:      0.141D+01
 Gap=     0.517 Goal=   None    Shift=    0.000
 RMSDP=6.71D-05 MaxDP=1.66D-03 DE=-5.42D-04 OVMax= 4.28D-03

 Cycle   8  Pass 1  IDiag  1:
 RMSU=  8.85D-06    CP:  6.10D-03  3.00D+00  1.24D+00  6.54D-01  1.11D+00
                    CP:  1.65D+00  1.68D+00
 FoFJK:  IHMeth= 1 ICntrl=     0 DoSepK=T KAlg= 1 I1Cent= 0 FoldK=F
 E= -151.209361935308     Delta-E=       -0.000208013307 Rises=F Damp=F
 DIIS: error= 1.11D-04 at cycle   8 NSaved=   8.
 NSaved= 8 IEnMin= 8 EnMin= -151.209361935308     IErMin= 8 ErrMin= 1.11D-04
 ErrMax= 1.11D-04 EMaxC= 1.00D-01 BMatC= 3.18D-06 BMatP= 2.29D-04
 IDIUse=3 WtCom= 9.99D-01 WtEn= 1.11D-03
 Coeff-Com: -0.371D-03 0.584D-03-0.160D-02 0.234D-02 0.354D-01-0.422D-01
 Coeff-Com: -0.238D+00 0.124D+01
 Coeff-En:   0.000D+00 0.000D+00 0.000D+00 0.000D+00 0.000D+00 0.000D+00
 Coeff-En:   0.000D+00 0.100D+01
 Coeff:     -0.371D-03 0.584D-03-0.160D-02 0.233D-02 0.353D-01-0.422D-01
 Coeff:     -0.238D+00 0.124D+01
 Gap=     0.517 Goal=   None    Shift=    0.000
 RMSDP=1.17D-05 MaxDP=2.74D-04 DE=-2.08D-04 OVMax= 8.25D-04

 Cycle   9  Pass 1  IDiag  1:
 RMSU=  1.60D-06    CP:  6.10D-03  3.00D+00  1.24D+00  6.56D-01  1.10D+00
                    CP:  1.67D+00  1.85D+00  1.33D+00
 FoFJK:  IHMeth= 1 ICntrl=     0 DoSepK=T KAlg= 1 I1Cent= 0 FoldK=F
 E= -151.209365978606     Delta-E=       -0.000004043297 Rises=F Damp=F
 DIIS: error= 1.12D-05 at cycle   9 NSaved=   9.
 NSaved= 9 IEnMin= 9 EnMin= -151.209365978606     IErMin= 9 ErrMin= 1.12D-05
 ErrMax= 1.12D-05 EMaxC= 1.00D-01 BMatC= 2.95D-08 BMatP= 3.18D-06
 IDIUse=1 WtCom= 1.00D+00 WtEn= 0.00D+00
 Coeff-Com: -0.401D-04 0.522D-04 0.595D-04-0.286D-03-0.393D-02 0.503D-02
 Coeff-Com:  0.388D-01-0.292D+00 0.125D+01
 Coeff:     -0.401D-04 0.522D-04 0.595D-04-0.286D-03-0.393D-02 0.503D-02
 Coeff:      0.388D-01-0.292D+00 0.125D+01
 Gap=     0.517 Goal=   None    Shift=    0.000
 RMSDP=1.54D-06 MaxDP=4.55D-05 DE=-4.04D-06 OVMax= 1.84D-04

 Cycle  10  Pass 1  IDiag  1:
 RMSU=  5.47D-07    CP:  6.10D-03  3.00D+00  1.24D+00  6.56D-01  1.10D+00
                    CP:  1.67D+00  1.86D+00  1.35D+00  1.45D+00
 FoFJK:  IHMeth= 1 ICntrl=     0 DoSepK=T KAlg= 1 I1Cent= 0 FoldK=F
 E= -151.209366058079     Delta-E=       -0.000000079473 Rises=F Damp=F
 DIIS: error= 4.09D-06 at cycle  10 NSaved=  10.
 NSaved=10 IEnMin=10 EnMin= -151.209366058079     IErMin=10 ErrMin= 4.09D-06
 ErrMax= 4.09D-06 EMaxC= 1.00D-01 BMatC= 4.46D-09 BMatP= 2.95D-08
 IDIUse=1 WtCom= 1.00D+00 WtEn= 0.00D+00
 Coeff-Com:  0.302D-04-0.593D-04 0.104D-03-0.182D-03-0.284D-02 0.132D-02
 Coeff-Com:  0.267D-01-0.135D+00 0.155D+00 0.955D+00
 Coeff:      0.302D-04-0.593D-04 0.104D-03-0.182D-03-0.284D-02 0.132D-02
 Coeff:      0.267D-01-0.135D+00 0.155D+00 0.955D+00
 Gap=     0.517 Goal=   None    Shift=    0.000
 RMSDP=5.29D-07 MaxDP=1.57D-05 DE=-7.95D-08 OVMax= 7.04D-05

 Cycle  11  Pass 1  IDiag  1:
 RMSU=  1.65D-07    CP:  6.10D-03  3.00D+00  1.24D+00  6.56D-01  1.10D+00
                    CP:  1.67D+00  1.87D+00  1.35D+00  1.58D+00  1.40D+00
 FoFJK:  IHMeth= 1 ICntrl=     0 DoSepK=T KAlg= 1 I1Cent= 0 FoldK=F
 E= -151.209366069016     Delta-E=       -0.000000010936 Rises=F Damp=F
 DIIS: error= 2.07D-06 at cycle  11 NSaved=  11.
 NSaved=11 IEnMin=11 EnMin= -151.209366069016     IErMin=11 ErrMin= 2.07D-06
 ErrMax= 2.07D-06 EMaxC= 1.00D-01 BMatC= 1.68D-09 BMatP= 4.46D-09
 IDIUse=1 WtCom= 1.00D+00 WtEn= 0.00D+00
 Coeff-Com:  0.322D-04-0.572D-04 0.621D-05 0.275D-04 0.451D-03-0.194D-02
 Coeff-Com: -0.158D-02 0.421D-01-0.329D+00 0.312D+00 0.978D+00
 Coeff:      0.322D-04-0.572D-04 0.621D-05 0.275D-04 0.451D-03-0.194D-02
 Coeff:     -0.158D-02 0.421D-01-0.329D+00 0.312D+00 0.978D+00
 Gap=     0.517 Goal=   None    Shift=    0.000
 RMSDP=3.62D-07 MaxDP=9.72D-06 DE=-1.09D-08 OVMax= 4.93D-05

 Cycle  12  Pass 1  IDiag  1:
 RMSU=  6.93D-08    CP:  6.10D-03  3.00D+00  1.24D+00  6.56D-01  1.10D+00
                    CP:  1.67D+00  1.87D+00  1.35D+00  1.64D+00  1.74D+00
                    CP:  1.20D+00
 FoFJK:  IHMeth= 1 ICntrl=     0 DoSepK=T KAlg= 1 I1Cent= 0 FoldK=F
 E= -151.209366072443     Delta-E=       -0.000000003427 Rises=F Damp=F
 DIIS: error= 8.49D-07 at cycle  12 NSaved=  12.
 NSaved=12 IEnMin=12 EnMin= -151.209366072443     IErMin=12 ErrMin= 8.49D-07
 ErrMax= 8.49D-07 EMaxC= 1.00D-01 BMatC= 2.22D-10 BMatP= 1.68D-09
 IDIUse=1 WtCom= 1.00D+00 WtEn= 0.00D+00
 Coeff-Com:  0.111D-05-0.149D-05-0.111D-04 0.146D-04 0.330D-03-0.176D-03
 Coeff-Com: -0.188D-02 0.942D-02 0.458D-02-0.148D+00-0.610D-01 0.120D+01
 Coeff:      0.111D-05-0.149D-05-0.111D-04 0.146D-04 0.330D-03-0.176D-03
 Coeff:     -0.188D-02 0.942D-02 0.458D-02-0.148D+00-0.610D-01 0.120D+01
 Gap=     0.517 Goal=   None    Shift=    0.000
 RMSDP=1.24D-07 MaxDP=3.62D-06 DE=-3.43D-09 OVMax= 1.57D-05

 Cycle  13  Pass 1  IDiag  1:
 RMSU=  1.51D-08    CP:  6.10D-03  3.00D+00  1.24D+00  6.56D-01  1.10D+00
                    CP:  1.67D+00  1.87D+00  1.35D+00  1.66D+00  1.83D+00
                    CP:  1.40D+00  1.38D+00
 FoFJK:  IHMeth= 1 ICntrl=     0 DoSepK=T KAlg= 1 I1Cent= 0 FoldK=F
 E= -151.209366072710     Delta-E=       -0.000000000268 Rises=F Damp=F
 DIIS: error= 1.60D-07 at cycle  13 NSaved=  13.
 NSaved=13 IEnMin=13 EnMin= -151.209366072710     IErMin=13 ErrMin= 1.60D-07
 ErrMax= 1.60D-07 EMaxC= 1.00D-01 BMatC= 4.90D-12 BMatP= 2.22D-10
 IDIUse=1 WtCom= 1.00D+00 WtEn= 0.00D+00
 Coeff-Com: -0.325D-07-0.191D-06 0.290D-05-0.569D-05-0.117D-03 0.552D-04
 Coeff-Com:  0.101D-02-0.716D-02 0.273D-01 0.132D-01-0.592D-01-0.262D+00
 Coeff-Com:  0.129D+01
 Coeff:     -0.325D-07-0.191D-06 0.290D-05-0.569D-05-0.117D-03 0.552D-04
 Coeff:      0.101D-02-0.716D-02 0.273D-01 0.132D-01-0.592D-01-0.262D+00
 Coeff:      0.129D+01
 Gap=     0.517 Goal=   None    Shift=    0.000
 RMSDP=2.15D-08 MaxDP=5.55D-07 DE=-2.68D-10 OVMax= 2.33D-06

 Cycle  14  Pass 1  IDiag  1:
 RMSU=  5.77D-09    CP:  6.10D-03  3.00D+00  1.24D+00  6.56D-01  1.10D+00
                    CP:  1.67D+00  1.87D+00  1.35D+00  1.66D+00  1.84D+00
                    CP:  1.43D+00  1.48D+00  1.51D+00
 FoFJK:  IHMeth= 1 ICntrl=     0 DoSepK=T KAlg= 1 I1Cent= 0 FoldK=F
 E= -151.209366072737     Delta-E=       -0.000000000026 Rises=F Damp=F
 DIIS: error= 5.05D-08 at cycle  14 NSaved=  14.
 NSaved=14 IEnMin=14 EnMin= -151.209366072737     IErMin=14 ErrMin= 5.05D-08
 ErrMax= 5.05D-08 EMaxC= 1.00D-01 BMatC= 4.96D-13 BMatP= 4.90D-12
 IDIUse=1 WtCom= 1.00D+00 WtEn= 0.00D+00
 Coeff-Com: -0.220D-06 0.373D-06-0.421D-06 0.802D-06 0.218D-04-0.827D-06
 Coeff-Com: -0.276D-03 0.220D-02-0.109D-01 0.533D-02 0.251D-01 0.102D-01
 Coeff-Com: -0.452D+00 0.142D+01
 Coeff:     -0.220D-06 0.373D-06-0.421D-06 0.802D-06 0.218D-04-0.827D-06
 Coeff:     -0.276D-03 0.220D-02-0.109D-01 0.533D-02 0.251D-01 0.102D-01
 Coeff:     -0.452D+00 0.142D+01
 Gap=     0.517 Goal=   None    Shift=    0.000
 RMSDP=7.64D-09 MaxDP=2.16D-07 DE=-2.65D-11 OVMax= 9.54D-07

 SCF Done:  E(RLC-B+HF-LYP) =  -151.209366073     A.U. after   14 cycles
             Convg  =    0.7642D-08             -V/T =  2.0062
 KE= 1.502806252837D+02 PE=-4.315848179254D+02 EE= 9.344488115503D+01
 Leave Link  502 at Mon May 11 22:53:36 2020, MaxMem= 1073741824 cpu:     382.6
 (Enter /home/matheus/.gaussian/g09/l601.exe)
 Copying SCF densities to generalized density rwf, IOpCl= 0 IROHF=0.

 **********************************************************************

            Population analysis using the SCF density.

 **********************************************************************

 Orbital symmetries:
       Occupied  (A) (A) (A) (A) (A) (A) (A) (A) (A)
       Virtual   (A) (A) (A) (A) (A) (A) (A) (A) (A) (A) (A) (A)
                 (A) (A) (A) (A) (A) (A) (A) (A) (A) (A) (A) (A)
                 (A) (A) (A) (A) (A) (A) (A) (A) (A) (A) (A) (A)
                 (A) (A) (A) (A) (A) (A) (A) (A) (A) (A) (A) (A)
                 (A) (A) (A) (A) (A) (A) (A) (A) (A) (A) (A) (A)
                 (A) (A) (A) (A) (A) (A) (A) (A) (A) (A) (A) (A)
                 (A) (A) (A) (A) (A) (A) (A) (A) (A) (A) (A) (A)
                 (A) (A) (A) (A) (A) (A) (A) (A) (A) (A) (A) (A)
                 (A) (A) (A) (A) (A) (A) (A) (A) (A) (A) (A) (A)
                 (A) (A) (A) (A) (A) (A) (A) (A) (A) (A) (A) (A)
                 (A) (A) (A) (A) (A) (A) (A) (A) (A) (A) (A) (A)
                 (A) (A) (A) (A) (A) (A) (A) (A) (A) (A) (A) (A)
                 (A) (A) (A) (A) (A) (A) (A) (A) (A) (A) (A) (A)
                 (A) (A) (A) (A) (A) (A) (A) (A) (A) (A) (A) (A)
                 (A) (A) (A) (A) (A) (A) (A) (A) (A) (A) (A) (A)
                 (A) (A) (A) (A) (A) (A) (A) (A)
 The electronic state is 1-A.
 Alpha  occ. eigenvalues --  -19.48798 -19.48769  -1.46715  -1.21698  -0.79019
 Alpha  occ. eigenvalues --   -0.68325  -0.63396  -0.57031  -0.50084
 Alpha virt. eigenvalues --    0.01614   0.03543   0.06783   0.07623   0.09444
 Alpha virt. eigenvalues --    0.10017   0.12070   0.14366   0.16613   0.17307
 Alpha virt. eigenvalues --    0.18028   0.19912   0.21231   0.23634   0.25497
 Alpha virt. eigenvalues --    0.26524   0.28454   0.29119   0.32556   0.33471
 Alpha virt. eigenvalues --    0.34345   0.35854   0.37481   0.39944   0.41282
 Alpha virt. eigenvalues --    0.42915   0.45262   0.46255   0.48212   0.50895
 Alpha virt. eigenvalues --    0.53478   0.57356   0.61165   0.63695   0.68822
 Alpha virt. eigenvalues --    0.71692   0.74525   0.78518   0.79167   0.81575
 Alpha virt. eigenvalues --    0.83372   0.84961   0.88140   0.90881   0.92335
 Alpha virt. eigenvalues --    0.93592   0.94554   0.97141   0.98300   0.99864
 Alpha virt. eigenvalues --    1.04490   1.04800   1.06560   1.09608   1.12343
 Alpha virt. eigenvalues --    1.12401   1.16379   1.20512   1.21796   1.24901
 Alpha virt. eigenvalues --    1.29416   1.29681   1.30699   1.31486   1.32448
 Alpha virt. eigenvalues --    1.34627   1.34977   1.39846   1.42553   1.44283
 Alpha virt. eigenvalues --    1.50771   1.52110   1.55450   1.56883   1.60845
 Alpha virt. eigenvalues --    1.63021   1.67864   1.68868   1.77976   1.80808
 Alpha virt. eigenvalues --    1.86508   1.93884   2.01421   2.07091   2.12832
 Alpha virt. eigenvalues --    2.17950   2.21277   2.24706   2.29920   2.32746
 Alpha virt. eigenvalues --    2.38186   2.41050   2.43476   2.46559   2.47709
 Alpha virt. eigenvalues --    2.61555   2.64749   2.69063   2.71227   2.74289
 Alpha virt. eigenvalues --    2.74904   2.86935   2.97300   3.01097   3.06144
 Alpha virt. eigenvalues --    3.11093   3.21513   3.23016   3.24965   3.29911
 Alpha virt. eigenvalues --    3.43926   3.59435   3.73756   3.75395   3.77598
 Alpha virt. eigenvalues --    3.79241   3.80807   3.81445   3.82451   3.88455
 Alpha virt. eigenvalues --    3.89216   3.91422   3.94124   3.97481   4.04115
 Alpha virt. eigenvalues --    4.12245   4.12799   4.15606   4.20749   4.25942
 Alpha virt. eigenvalues --    4.28913   4.32826   4.38665   4.43272   4.45878
 Alpha virt. eigenvalues --    4.58649   4.66475   4.80618   4.85165   5.13904
 Alpha virt. eigenvalues --    5.18107   5.20726   5.25067   5.33490   5.35202
 Alpha virt. eigenvalues --    5.66196   6.06785   6.23342   6.35675   6.36811
 Alpha virt. eigenvalues --    6.54957   6.63402   6.64671   6.77916   6.90364
 Alpha virt. eigenvalues --    7.01040   7.04774   7.09044   7.10730   7.14874
 Alpha virt. eigenvalues --    7.14913   7.17513   7.18452   7.29610   7.36872
 Alpha virt. eigenvalues --    7.41823   7.48513   7.71531   7.75209   8.12903
 Alpha virt. eigenvalues --    8.30354   8.39565  10.99916  14.25753  14.81504
 Alpha virt. eigenvalues --   14.82645  14.89907  15.11459  29.01119  29.01661
 Alpha virt. eigenvalues --   29.06023  29.14434  29.21169  49.16816 148.29782
 Alpha virt. eigenvalues --  148.39694 148.70314 752.74699
          Condensed to atoms (all electrons):
              1          2          3          4          5
     1  O    8.224804  -0.199883   0.182756   0.013625   0.003733
     2  O   -0.199883   8.230566   0.024458   0.182068  -0.001359
     3  H    0.182756   0.024458   0.573716  -0.005810  -0.001752
     4  H    0.013625   0.182068  -0.005810   0.581737  -0.003880
     5  Kr   0.003733  -0.001359  -0.001752  -0.003880   0.001264
 Mulliken atomic charges:
              1
     1  O   -0.225035
     2  O   -0.235850
     3  H    0.226632
     4  H    0.232260
     5  Kr   0.001993
 Sum of Mulliken atomic charges =   0.00000
 Mulliken charges with hydrogens summed into heavy atoms:
              1
     1  O    0.001597
     2  O   -0.003590
     5  Kr   0.001993
 Sum of Mulliken charges with hydrogens summed into heavy atoms =   0.00000
          Condensed to fragments (all electrons):
     1      -0.001993
     2       0.001993
 Electronic spatial extent (au):  <R**2>=            317.8197
 Charge=              0.0000 electrons
 Dipole moment (field-independent basis, Debye):
    X=              2.7768    Y=             -0.1043    Z=              1.3239  Tot=              3.0781
 Quadrupole moment (field-independent basis, Debye-Ang):
   XX=            -20.9219   YY=            -10.1318   ZZ=            -11.7699
   XY=              0.9351   XZ=             -1.6149   YZ=             -1.5224
 Traceless Quadrupole moment (field-independent basis, Debye-Ang):
   XX=             -6.6474   YY=              4.1427   ZZ=              2.5047
   XY=              0.9351   XZ=             -1.6149   YZ=             -1.5224
 Octapole moment (field-independent basis, Debye-Ang**2):
  XXX=             93.1440  YYY=             -0.6386  ZZZ=              0.6681  XYY=             23.5452
  XXY=             -2.0889  XXZ=              1.7505  XZZ=             23.6138  YZZ=             -1.1538
  YYZ=              1.8383  XYZ=              2.1900
 Hexadecapole moment (field-independent basis, Debye-Ang**3):
 XXXX=           -341.9516 YYYY=            -43.5790 ZZZZ=            -10.6446 XXXY=              3.0902
 XXXZ=             -1.6547 YYYX=              1.6424 YYYZ=             -2.2045 ZZZX=             -1.2956
 ZZZY=             -1.3382 XXYY=            -61.6573 XXZZ=            -50.9060 YYZZ=             -9.8913
 XXYZ=             -3.3039 YYXZ=             -2.6372 ZZXY=              1.6463
 N-N= 3.664994541398D+01 E-N=-4.315848217204D+02  KE= 1.502806252837D+02
 No NMR shielding tensors so no spin-rotation constants.
 Leave Link  601 at Mon May 11 22:53:36 2020, MaxMem= 1073741824 cpu:       0.8
 (Enter /home/matheus/.gaussian/g09/l122.exe)
 Counterpoise: doing DCBS calculation for fragment   2 NewBq=T
 Leave Link  122 at Mon May 11 22:53:36 2020, MaxMem= 1073741824 cpu:       0.0
 (Enter /home/matheus/.gaussian/g09/l301.exe)
 Basis read from rwf:  (5D, 7F)
 No pseudopotential information found on rwf file.
 There are   197 symmetry adapted basis functions of A   symmetry.
 Integral buffers will be    131072 words long.
 Raffenetti 2 integral format.
 Two-electron integral symmetry is turned on.
   197 basis functions,   415 primitive gaussians,   229 cartesian basis functions
    18 alpha electrons       18 beta electrons
       nuclear repulsion energy         0.0000000000 Hartrees.
 IExCor=10402 DFT=T Ex=LC-B+HF Corr=LYP ExCW=0 ScaHFX=  1.000000
 ScaDFX=  1.000000  1.000000  1.000000  1.000000 ScalE2=  1.000000  1.000000
 IRadAn=      5 IRanWt=     -1 IRanGd=            0 ICorTp=0
  HFx wShort=  0.000000 wLong=  1.350000 cFull=  0.000000 cShort=  0.000000 cLong=  1.000000
  DFx wShort=  0.000000 wLong=  1.350000 cFull=  0.000000 cShort=  0.000000 cLong=  1.000000
 NAtoms=    5 NActive=    5 NUniq=    5 SFac= 1.00D+00 NAtFMM=   60 NAOKFM=F Big=F
 No density basis found on file   718.
 Leave Link  301 at Mon May 11 22:53:36 2020, MaxMem= 1073741824 cpu:       0.2
 (Enter /home/matheus/.gaussian/g09/l302.exe)
 NPDir=0 NMtPBC=     1 NCelOv=     1 NCel=       1 NClECP=     1 NCelD=      1
         NCelK=      1 NCelE2=     1 NClLst=     1 CellRange=     0.0.
 One-electron integrals computed using PRISM.
 NBasis=   197 RedAO= T  NBF=   197
 NBsUse=   197 1.00D-06 NBFU=   197
 Precomputing XC quadrature grid using
 IXCGrd= 2 IRadAn=           5 IRanWt=          -1 IRanGd=           0 AccXCQ= 0.00D+00.
 NRdTot=     427 NPtTot=      123512 NUsed=      126579 NTot=      126611
 NSgBfM=   229   229   229   229   229 NAtAll=     5     5.
 Leave Link  302 at Mon May 11 22:53:36 2020, MaxMem= 1073741824 cpu:       1.0
 (Enter /home/matheus/.gaussian/g09/l303.exe)
 DipDrv:  MaxL=1.
 Leave Link  303 at Mon May 11 22:53:36 2020, MaxMem= 1073741824 cpu:       0.2
 (Enter /home/matheus/.gaussian/g09/l401.exe)
 Harris functional with IExCor=10402 diagonalized for initial guess.
 ExpMin= 2.53D-02 ExpMax= 1.17D+07 ExpMxC= 1.33D+04 IAcc=3 IRadAn=         5 AccDes= 0.00D+00
 HarFok:  IExCor=10402 AccDes= 0.00D+00 IRadAn=         5 IDoV= 1
 ScaDFX=  1.000000  1.000000  1.000000  1.000000
 FoFCou: FMM=F IPFlag=           0 FMFlag=      100000 FMFlg1=           0
         NFxFlg=           0 DoJE=T BraDBF=F KetDBF=T FulRan=T
         Omega=  0.000000  0.000000  1.000000  0.000000  0.000000 ICntrl=     500 IOpCl=  0
         NMat0=    1 NMatS0=    1 NMatT0=    0 NMatD0=    1 NMtDS0=    0 NMtDT0=    0
         I1Cent=           4 NGrid=           0.
 Petite list used in FoFCou.
 Harris En= -2731.73464209642    
 Initial guess orbital symmetries:
       Occupied  (A) (A) (A) (A) (A) (A) (A) (A) (A) (A) (A) (A)
                 (A) (A) (A) (A) (A) (A)
       Virtual   (A) (A) (A) (A) (A) (A) (A) (A) (A) (A) (A) (A)
                 (A) (A) (A) (A) (A) (A) (A) (A) (A) (A) (A) (A)
                 (A) (A) (A) (A) (A) (A) (A) (A) (A) (A) (A) (A)
                 (A) (A) (A) (A) (A) (A) (A) (A) (A) (A) (A) (A)
                 (A) (A) (A) (A) (A) (A) (A) (A) (A) (A) (A) (A)
                 (A) (A) (A) (A) (A) (A) (A) (A) (A) (A) (A) (A)
                 (A) (A) (A) (A) (A) (A) (A) (A) (A) (A) (A) (A)
                 (A) (A) (A) (A) (A) (A) (A) (A) (A) (A) (A) (A)
                 (A) (A) (A) (A) (A) (A) (A) (A) (A) (A) (A) (A)
                 (A) (A) (A) (A) (A) (A) (A) (A) (A) (A) (A) (A)
                 (A) (A) (A) (A) (A) (A) (A) (A) (A) (A) (A) (A)
                 (A) (A) (A) (A) (A) (A) (A) (A) (A) (A) (A) (A)
                 (A) (A) (A) (A) (A) (A) (A) (A) (A) (A) (A) (A)
                 (A) (A) (A) (A) (A) (A) (A) (A) (A) (A) (A) (A)
                 (A) (A) (A) (A) (A) (A) (A) (A) (A) (A) (A)
 The electronic state of the initial guess is 1-A.
 Leave Link  401 at Mon May 11 22:53:37 2020, MaxMem= 1073741824 cpu:       4.1
 (Enter /home/matheus/.gaussian/g09/l502.exe)
 Closed shell SCF:
 Requested convergence on RMS density matrix=1.00D-08 within 128 cycles.
 Requested convergence on MAX density matrix=1.00D-06.
 Requested convergence on             energy=1.00D-06.
 No special actions if energy rises.
 Using DIIS extrapolation, IDIIS=  1040.
 Integral symmetry usage will be decided dynamically.
       126521 words used for storage of precomputed grid.
 IEnd=      305468 IEndB=      305468 NGot=  1073741824 MDV=  1073505667
 LenX=  1073505667 LenY=  1073452785
 Fock matrices will be formed incrementally for  20 cycles.

 Cycle   1  Pass 1  IDiag  1:
 FoFJK:  IHMeth= 1 ICntrl=     0 DoSepK=T KAlg= 1 I1Cent= 0 FoldK=F
 FoFCou: FMM=F IPFlag=           0 FMFlag=      100000 FMFlg1=           0
         NFxFlg=           0 DoJE=T BraDBF=F KetDBF=F FulRan=T
         Omega=  0.000000  0.000000  1.000000  0.000000  0.000000 ICntrl=     500 IOpCl=  0
         NMat0=    1 NMatS0=    1 NMatT0=    0 NMatD0=    1 NMtDS0=    0 NMtDT0=    0
         I1Cent=           0 NGrid=           0.
 Symmetry not used in FoFCou.
 E= -2752.70969544398    
 DIIS: error= 4.04D-02 at cycle   1 NSaved=   1.
 NSaved= 1 IEnMin= 1 EnMin= -2752.70969544398     IErMin= 1 ErrMin= 4.04D-02
 ErrMax= 4.04D-02 EMaxC= 1.00D-01 BMatC= 1.18D+00 BMatP= 1.18D+00
 IDIUse=3 WtCom= 5.96D-01 WtEn= 4.04D-01
 Coeff-Com:  0.100D+01
 Coeff-En:   0.100D+01
 Coeff:      0.100D+01
 Gap=     0.765 Goal=   None    Shift=    0.000
 GapD=    0.765 DampG=2.000 DampE=0.500 DampFc=1.0000 IDamp=-1.
 RMSDP=4.97D-03 MaxDP=2.27D-01              OVMax= 3.37D-01

 Cycle   2  Pass 1  IDiag  1:
 RMSU=  3.43D-03    CP:  1.05D+00
 FoFJK:  IHMeth= 1 ICntrl=     0 DoSepK=T KAlg= 1 I1Cent= 0 FoldK=F
 E= -2753.27681769510     Delta-E=       -0.567122251123 Rises=F Damp=F
 DIIS: error= 2.69D-02 at cycle   2 NSaved=   2.
 NSaved= 2 IEnMin= 2 EnMin= -2753.27681769510     IErMin= 2 ErrMin= 2.69D-02
 ErrMax= 2.69D-02 EMaxC= 1.00D-01 BMatC= 3.65D-01 BMatP= 1.18D+00
 IDIUse=3 WtCom= 7.31D-01 WtEn= 2.69D-01
 Coeff-Com:  0.351D+00 0.649D+00
 Coeff-En:   0.000D+00 0.100D+01
 Coeff:      0.257D+00 0.743D+00
 Gap=     0.604 Goal=   None    Shift=    0.000
 RMSDP=2.21D-03 MaxDP=1.34D-01 DE=-5.67D-01 OVMax= 7.31D-02

 Cycle   3  Pass 1  IDiag  1:
 RMSU=  8.59D-04    CP:  1.03D+00  6.31D-01
 FoFJK:  IHMeth= 1 ICntrl=     0 DoSepK=T KAlg= 1 I1Cent= 0 FoldK=F
 E= -2753.40764731639     Delta-E=       -0.130829621288 Rises=F Damp=F
 DIIS: error= 3.21D-03 at cycle   3 NSaved=   3.
 NSaved= 3 IEnMin= 3 EnMin= -2753.40764731639     IErMin= 3 ErrMin= 3.21D-03
 ErrMax= 3.21D-03 EMaxC= 1.00D-01 BMatC= 5.87D-03 BMatP= 3.65D-01
 IDIUse=3 WtCom= 9.68D-01 WtEn= 3.21D-02
 Coeff-Com: -0.912D-02 0.869D-01 0.922D+00
 Coeff-En:   0.000D+00 0.000D+00 0.100D+01
 Coeff:     -0.883D-02 0.841D-01 0.925D+00
 Gap=     0.575 Goal=   None    Shift=    0.000
 RMSDP=3.48D-04 MaxDP=1.56D-02 DE=-1.31D-01 OVMax= 1.06D-02

 Cycle   4  Pass 1  IDiag  1:
 RMSU=  2.26D-04    CP:  1.03D+00  6.57D-01  9.81D-01
 FoFJK:  IHMeth= 1 ICntrl=     0 DoSepK=T KAlg= 1 I1Cent= 0 FoldK=F
 E= -2753.40947857107     Delta-E=       -0.001831254686 Rises=F Damp=F
 DIIS: error= 3.55D-04 at cycle   4 NSaved=   4.
 NSaved= 4 IEnMin= 4 EnMin= -2753.40947857107     IErMin= 4 ErrMin= 3.55D-04
 ErrMax= 3.55D-04 EMaxC= 1.00D-01 BMatC= 3.65D-05 BMatP= 5.87D-03
 IDIUse=3 WtCom= 9.96D-01 WtEn= 3.55D-03
 Coeff-Com: -0.671D-02-0.427D-02-0.201D-02 0.101D+01
 Coeff-En:   0.000D+00 0.000D+00 0.000D+00 0.100D+01
 Coeff:     -0.668D-02-0.425D-02-0.200D-02 0.101D+01
 Gap=     0.581 Goal=   None    Shift=    0.000
 RMSDP=4.99D-05 MaxDP=2.24D-03 DE=-1.83D-03 OVMax= 3.47D-03

 Cycle   5  Pass 1  IDiag  1:
 RMSU=  2.02D-05    CP:  1.03D+00  6.61D-01  1.00D+00  1.08D+00
 FoFJK:  IHMeth= 1 ICntrl=     0 DoSepK=T KAlg= 1 I1Cent= 0 FoldK=F
 E= -2753.40953923698     Delta-E=       -0.000060665910 Rises=F Damp=F
 DIIS: error= 5.65D-05 at cycle   5 NSaved=   5.
 NSaved= 5 IEnMin= 5 EnMin= -2753.40953923698     IErMin= 5 ErrMin= 5.65D-05
 ErrMax= 5.65D-05 EMaxC= 1.00D-01 BMatC= 4.98D-07 BMatP= 3.65D-05
 IDIUse=1 WtCom= 1.00D+00 WtEn= 0.00D+00
 Coeff-Com: -0.821D-04-0.147D-02 0.121D-02-0.167D+00 0.117D+01
 Coeff:     -0.821D-04-0.147D-02 0.121D-02-0.167D+00 0.117D+01
 Gap=     0.581 Goal=   None    Shift=    0.000
 RMSDP=1.05D-05 MaxDP=4.46D-04 DE=-6.07D-05 OVMax= 6.34D-04

 Cycle   6  Pass 1  IDiag  1:
 RMSU=  9.88D-07    CP:  1.03D+00  6.61D-01  1.01D+00  1.10D+00  1.20D+00
 FoFJK:  IHMeth= 1 ICntrl=     0 DoSepK=T KAlg= 1 I1Cent= 0 FoldK=F
 E= -2753.40954065422     Delta-E=       -0.000001417236 Rises=F Damp=F
 DIIS: error= 2.07D-06 at cycle   6 NSaved=   6.
 NSaved= 6 IEnMin= 6 EnMin= -2753.40954065422     IErMin= 6 ErrMin= 2.07D-06
 ErrMax= 2.07D-06 EMaxC= 1.00D-01 BMatC= 1.00D-09 BMatP= 4.98D-07
 IDIUse=1 WtCom= 1.00D+00 WtEn= 0.00D+00
 Coeff-Com:  0.239D-04 0.113D-03-0.376D-03 0.119D-01-0.113D+00 0.110D+01
 Coeff:      0.239D-04 0.113D-03-0.376D-03 0.119D-01-0.113D+00 0.110D+01
 Gap=     0.581 Goal=   None    Shift=    0.000
 RMSDP=5.19D-07 MaxDP=2.32D-05 DE=-1.42D-06 OVMax= 2.34D-05

 Cycle   7  Pass 1  IDiag  1:
 RMSU=  6.26D-08    CP:  1.03D+00  6.61D-01  1.01D+00  1.10D+00  1.21D+00
                    CP:  1.14D+00
 FoFJK:  IHMeth= 1 ICntrl=     0 DoSepK=T KAlg= 1 I1Cent= 0 FoldK=F
 E= -2753.40954065495     Delta-E=       -0.000000000729 Rises=F Damp=F
 DIIS: error= 1.39D-07 at cycle   7 NSaved=   7.
 NSaved= 7 IEnMin= 7 EnMin= -2753.40954065495     IErMin= 7 ErrMin= 1.39D-07
 ErrMax= 1.39D-07 EMaxC= 1.00D-01 BMatC= 1.16D-11 BMatP= 1.00D-09
 IDIUse=1 WtCom= 1.00D+00 WtEn= 0.00D+00
 Coeff-Com:  0.294D-05 0.594D-05-0.387D-04 0.812D-03-0.465D-02-0.235D-02
 Coeff-Com:  0.101D+01
 Coeff:      0.294D-05 0.594D-05-0.387D-04 0.812D-03-0.465D-02-0.235D-02
 Coeff:      0.101D+01
 Gap=     0.581 Goal=   None    Shift=    0.000
 RMSDP=2.26D-08 MaxDP=1.03D-06 DE=-7.29D-10 OVMax= 1.33D-06

 Cycle   8  Pass 1  IDiag  1:
 RMSU=  9.27D-09    CP:  1.03D+00  6.61D-01  1.01D+00  1.10D+00  1.21D+00
                    CP:  1.14D+00  1.12D+00
 FoFJK:  IHMeth= 1 ICntrl=     0 DoSepK=T KAlg= 1 I1Cent= 0 FoldK=F
 E= -2753.40954065502     Delta-E=       -0.000000000070 Rises=F Damp=F
 DIIS: error= 3.82D-08 at cycle   8 NSaved=   8.
 NSaved= 8 IEnMin= 8 EnMin= -2753.40954065502     IErMin= 8 ErrMin= 3.82D-08
 ErrMax= 3.82D-08 EMaxC= 1.00D-01 BMatC= 4.92D-13 BMatP= 1.16D-11
 IDIUse=1 WtCom= 1.00D+00 WtEn= 0.00D+00
 Coeff-Com:  0.474D-07-0.215D-05 0.326D-05-0.222D-03 0.248D-02-0.292D-01
 Coeff-Com:  0.104D+00 0.923D+00
 Coeff:      0.474D-07-0.215D-05 0.326D-05-0.222D-03 0.248D-02-0.292D-01
 Coeff:      0.104D+00 0.923D+00
 Gap=     0.581 Goal=   None    Shift=    0.000
 DSYEVD returned Info=       19799 IAlg= 4 N=   197 NDim=   197 NE2=     5448997 trying DSYEV.
 RMSDP=4.79D-09 MaxDP=1.57D-07 DE=-7.05D-11 OVMax= 3.95D-07

 SCF Done:  E(RLC-B+HF-LYP) =  -2753.40954066     A.U. after    8 cycles
             Convg  =    0.4787D-08             -V/T =  2.0014
 KE= 2.749627408779D+03 PE=-6.579414462728D+03 EE= 1.076377513293D+03
 Leave Link  502 at Mon May 11 22:54:05 2020, MaxMem= 1073741824 cpu:     221.0
 (Enter /home/matheus/.gaussian/g09/l601.exe)
 Copying SCF densities to generalized density rwf, IOpCl= 0 IROHF=0.

 **********************************************************************

            Population analysis using the SCF density.

 **********************************************************************

 Orbital symmetries:
       Occupied  (A) (A) (A) (A) (A) (A) (A) (A) (A) (A) (A) (A)
                 (A) (A) (A) (A) (A) (A)
       Virtual   (A) (A) (A) (A) (A) (A) (A) (A) (A) (A) (A) (A)
                 (A) (A) (A) (A) (A) (A) (A) (A) (A) (A) (A) (A)
                 (A) (A) (A) (A) (A) (A) (A) (A) (A) (A) (A) (A)
                 (A) (A) (A) (A) (A) (A) (A) (A) (A) (A) (A) (A)
                 (A) (A) (A) (A) (A) (A) (A) (A) (A) (A) (A) (A)
                 (A) (A) (A) (A) (A) (A) (A) (A) (A) (A) (A) (A)
                 (A) (A) (A) (A) (A) (A) (A) (A) (A) (A) (A) (A)
                 (A) (A) (A) (A) (A) (A) (A) (A) (A) (A) (A) (A)
                 (A) (A) (A) (A) (A) (A) (A) (A) (A) (A) (A) (A)
                 (A) (A) (A) (A) (A) (A) (A) (A) (A) (A) (A) (A)
                 (A) (A) (A) (A) (A) (A) (A) (A) (A) (A) (A) (A)
                 (A) (A) (A) (A) (A) (A) (A) (A) (A) (A) (A) (A)
                 (A) (A) (A) (A) (A) (A) (A) (A) (A) (A) (A) (A)
                 (A) (A) (A) (A) (A) (A) (A) (A) (A) (A) (A) (A)
                 (A) (A) (A) (A) (A) (A) (A) (A) (A) (A) (A)
 The electronic state is 1-A.
 Alpha  occ. eigenvalues -- -511.65524 -67.17998 -60.85196 -60.85193 -60.85192
 Alpha  occ. eigenvalues --  -10.08107  -7.79670  -7.79669  -7.79669  -3.62633
 Alpha  occ. eigenvalues --   -3.62633  -3.62633  -3.62631  -3.62631  -1.17383
 Alpha  occ. eigenvalues --   -0.55370  -0.55366  -0.55364
 Alpha virt. eigenvalues --    0.02699   0.04795   0.07898   0.08818   0.11519
 Alpha virt. eigenvalues --    0.12254   0.13065   0.13115   0.15655   0.16826
 Alpha virt. eigenvalues --    0.17467   0.18843   0.20528   0.25607   0.26862
 Alpha virt. eigenvalues --    0.27332   0.29038   0.31672   0.33348   0.35759
 Alpha virt. eigenvalues --    0.35946   0.37881   0.38657   0.40072   0.41379
 Alpha virt. eigenvalues --    0.41595   0.45028   0.54343   0.56423   0.59934
 Alpha virt. eigenvalues --    0.61666   0.65694   0.67765   0.69529   0.72162
 Alpha virt. eigenvalues --    0.72718   0.75810   0.78177   0.78980   0.80857
 Alpha virt. eigenvalues --    0.81582   0.83740   0.85746   0.86339   0.88927
 Alpha virt. eigenvalues --    0.89269   0.90830   0.91165   0.93133   0.97100
 Alpha virt. eigenvalues --    0.98973   1.00185   1.02185   1.03137   1.04701
 Alpha virt. eigenvalues --    1.06904   1.08941   1.10679   1.15360   1.19088
 Alpha virt. eigenvalues --    1.20006   1.23807   1.27431   1.34211   1.34662
 Alpha virt. eigenvalues --    1.36446   1.39883   1.48600   1.50243   1.54754
 Alpha virt. eigenvalues --    1.57240   1.59011   1.62818   1.70131   1.79465
 Alpha virt. eigenvalues --    1.81687   1.83305   1.86936   1.92711   2.24085
 Alpha virt. eigenvalues --    2.28499   2.30180   2.33277   2.35044   2.37341
 Alpha virt. eigenvalues --    2.38962   2.42727   2.43542   2.46347   2.47259
 Alpha virt. eigenvalues --    2.48510   2.49487   2.53734   2.55043   2.57224
 Alpha virt. eigenvalues --    2.60340   2.63787   2.65159   2.66288   2.66667
 Alpha virt. eigenvalues --    2.68611   2.70074   2.76176   2.76829   2.79008
 Alpha virt. eigenvalues --    2.80167   2.86312   2.89593   2.89786   2.94995
 Alpha virt. eigenvalues --    2.99734   3.01390   3.06497   3.08842   3.17639
 Alpha virt. eigenvalues --    3.20702   3.26424   3.31667   3.40040   3.45699
 Alpha virt. eigenvalues --    3.60647   3.65966   3.81698   3.86326   4.02040
 Alpha virt. eigenvalues --    4.45371   4.49607   4.52525   4.57316   4.69151
 Alpha virt. eigenvalues --    4.75036   4.84739   4.86169   4.96883   5.10055
 Alpha virt. eigenvalues --    5.13518   5.23897   5.54140   5.67541   5.80834
 Alpha virt. eigenvalues --    5.89939   5.98418   6.12827   6.78751   6.82497
 Alpha virt. eigenvalues --    7.36607   7.40178   7.58924   7.69645   7.70648
 Alpha virt. eigenvalues --    7.81824   7.98335   8.15317   8.16239   8.25279
 Alpha virt. eigenvalues --    8.31120   8.46846   8.61692   8.91401   9.56761
 Alpha virt. eigenvalues --    9.73026   9.82352   9.87037   9.94146   9.96320
 Alpha virt. eigenvalues --   10.17019  10.22301  10.54555  10.92533  11.56622
 Alpha virt. eigenvalues --   11.58751  11.76517  11.98713  12.03966  13.19942
 Alpha virt. eigenvalues --   13.68078  14.51635  62.67025  64.67292
          Condensed to atoms (all electrons):
              1          2          3          4          5
     1  O    0.001198  -0.001083  -0.000575   0.000855  -0.008052
     2  O   -0.001083   0.004900   0.000349  -0.003685  -0.003095
     3  H   -0.000575   0.000349   0.000787  -0.000257  -0.006449
     4  H    0.000855  -0.003685  -0.000257   0.004072  -0.020577
     5  Kr  -0.008052  -0.003095  -0.006449  -0.020577  36.074181
 Mulliken atomic charges:
              1
     1  O    0.007656
     2  O    0.002614
     3  H    0.006145
     4  H    0.019592
     5  Kr  -0.036008
 Sum of Mulliken atomic charges =   0.00000
 Mulliken charges with hydrogens summed into heavy atoms:
              1
     1  O    0.013801
     2  O    0.022206
     5  Kr  -0.036008
 Sum of Mulliken charges with hydrogens summed into heavy atoms =   0.00000
          Condensed to fragments (all electrons):
     1       0.036008
     2      -0.036008
 Electronic spatial extent (au):  <R**2>=            160.6882
 Charge=              0.0000 electrons
 Dipole moment (field-independent basis, Debye):
    X=             -0.0017    Y=              0.0004    Z=              0.0001  Tot=              0.0018
 Quadrupole moment (field-independent basis, Debye-Ang):
   XX=            -17.5614   YY=            -17.5734   ZZ=            -17.5822
   XY=             -0.0018   XZ=             -0.0027   YZ=             -0.0014
 Traceless Quadrupole moment (field-independent basis, Debye-Ang):
   XX=              0.0110   YY=             -0.0011   ZZ=             -0.0099
   XY=             -0.0018   XZ=             -0.0027   YZ=             -0.0014
 Octapole moment (field-independent basis, Debye-Ang**2):
  XXX=            -51.2141  YYY=              0.1781  ZZZ=              0.1927  XYY=            -17.0865
  XXY=              0.0544  XXZ=              0.0602  XZZ=            -17.0918  YZZ=              0.0595
  YYZ=              0.0651  XYZ=             -0.0003
 Hexadecapole moment (field-independent basis, Debye-Ang**3):
 XXXX=           -117.6146 YYYY=            -18.0826 ZZZZ=            -18.1142 XXXY=              0.1633
 XXXZ=              0.1789 YYYX=              0.1654 YYYZ=             -0.0016 ZZZX=              0.1818
 ZZZY=             -0.0022 XXYY=            -22.6278 XXZZ=            -22.6369 YYZZ=             -6.0322
 XXYZ=             -0.0018 YYXZ=              0.0603 ZZXY=              0.0543
 N-N= 0.000000000000D+00 E-N=-6.579414454996D+03  KE= 2.749627408779D+03
 No NMR shielding tensors so no spin-rotation constants.
 Leave Link  601 at Mon May 11 22:54:05 2020, MaxMem= 1073741824 cpu:       0.7
 (Enter /home/matheus/.gaussian/g09/l122.exe)
 Counterpoise: doing MCBS calculation for fragment   1
 Leave Link  122 at Mon May 11 22:54:05 2020, MaxMem= 1073741824 cpu:       0.0
 (Enter /home/matheus/.gaussian/g09/l301.exe)
 Basis read from rwf:  (5D, 7F)
 No pseudopotential information found on rwf file.
 There are   138 symmetry adapted basis functions of A   symmetry.
 Integral buffers will be    131072 words long.
 Raffenetti 2 integral format.
 Two-electron integral symmetry is turned on.
   138 basis functions,   198 primitive gaussians,   160 cartesian basis functions
     9 alpha electrons        9 beta electrons
       nuclear repulsion energy        36.6499454140 Hartrees.
 IExCor=10402 DFT=T Ex=LC-B+HF Corr=LYP ExCW=0 ScaHFX=  1.000000
 ScaDFX=  1.000000  1.000000  1.000000  1.000000 ScalE2=  1.000000  1.000000
 IRadAn=      5 IRanWt=     -1 IRanGd=            0 ICorTp=0
  HFx wShort=  0.000000 wLong=  1.350000 cFull=  0.000000 cShort=  0.000000 cLong=  1.000000
  DFx wShort=  0.000000 wLong=  1.350000 cFull=  0.000000 cShort=  0.000000 cLong=  1.000000
 NAtoms=    5 NActive=    4 NUniq=    4 SFac= 1.00D+00 NAtFMM=   60 NAOKFM=F Big=F
 No density basis found on file   718.
 Leave Link  301 at Mon May 11 22:54:05 2020, MaxMem= 1073741824 cpu:       0.2
 (Enter /home/matheus/.gaussian/g09/l302.exe)
 NPDir=0 NMtPBC=     1 NCelOv=     1 NCel=       1 NClECP=     1 NCelD=      1
         NCelK=      1 NCelE2=     1 NClLst=     1 CellRange=     0.0.
 One-electron integrals computed using PRISM.
 NBasis=   138 RedAO= T  NBF=   138
 NBsUse=   138 1.00D-06 NBFU=   138
 Precomputing XC quadrature grid using
 IXCGrd= 2 IRadAn=           5 IRanWt=          -1 IRanGd=           0 AccXCQ= 0.00D+00.
 NRdTot=     344 NPtTot=       92556 NUsed=       95038 NTot=       95070
[...]
         Omega=  0.000000  0.000000  1.000000  0.000000  0.000000 ICntrl=     500 IOpCl=  0
         NMat0=    1 NMatS0=    1 NMatT0=    0 NMatD0=    1 NMtDS0=    0 NMtDT0=    0
         I1Cent=           0 NGrid=           0.
 Symmetry not used in FoFCou.
 E= -2753.40937603552    
 DIIS: error= 2.31D-04 at cycle   1 NSaved=   1.
 NSaved= 1 IEnMin= 1 EnMin= -2753.40937603552     IErMin= 1 ErrMin= 2.31D-04
 ErrMax= 2.31D-04 EMaxC= 1.00D-01 BMatC= 5.89D-06 BMatP= 5.89D-06
 IDIUse=3 WtCom= 9.98D-01 WtEn= 2.31D-03
 Coeff-Com:  0.100D+01
 Coeff-En:   0.100D+01
 Coeff:      0.100D+01
 Gap=     0.581 Goal=   None    Shift=    0.000
 RMSDP=1.35D-05 MaxDP=7.31D-04              OVMax= 3.70D-04

 Cycle   2  Pass 1  IDiag  1:
 RMSU=  9.57D-06    CP:  1.00D+00
 FoFJK:  IHMeth= 1 ICntrl=     0 DoSepK=T KAlg= 1 I1Cent= 0 FoldK=F
 E= -2753.40937682335     Delta-E=       -0.000000787829 Rises=F Damp=F
 DIIS: error= 4.65D-06 at cycle   2 NSaved=   2.
 NSaved= 2 IEnMin= 2 EnMin= -2753.40937682335     IErMin= 2 ErrMin= 4.65D-06
 ErrMax= 4.65D-06 EMaxC= 1.00D-01 BMatC= 5.35D-09 BMatP= 5.89D-06
 IDIUse=1 WtCom= 1.00D+00 WtEn= 0.00D+00
 Coeff-Com: -0.975D-02 0.101D+01
 Coeff:     -0.975D-02 0.101D+01
 Gap=     0.580 Goal=   None    Shift=    0.000
 RMSDP=1.39D-06 MaxDP=6.73D-05 DE=-7.88D-07 OVMax= 5.53D-05

 Cycle   3  Pass 1  IDiag  1:
 RMSU=  5.76D-07    CP:  1.00D+00  1.08D+00
 FoFJK:  IHMeth= 1 ICntrl=     0 DoSepK=T KAlg= 1 I1Cent= 0 FoldK=F
 E= -2753.40937683317     Delta-E=       -0.000000009818 Rises=F Damp=F
 DIIS: error= 7.71D-07 at cycle   3 NSaved=   3.
 NSaved= 3 IEnMin= 3 EnMin= -2753.40937683317     IErMin= 3 ErrMin= 7.71D-07
 ErrMax= 7.71D-07 EMaxC= 1.00D-01 BMatC= 1.29D-10 BMatP= 5.35D-09
 IDIUse=1 WtCom= 1.00D+00 WtEn= 0.00D+00
 Coeff-Com:  0.414D-03-0.129D+00 0.113D+01
 Coeff:      0.414D-03-0.129D+00 0.113D+01
 Gap=     0.580 Goal=   None    Shift=    0.000
 RMSDP=2.08D-07 MaxDP=8.73D-06 DE=-9.82D-09 OVMax= 1.08D-05

 Cycle   4  Pass 1  IDiag  1:
 RMSU=  5.42D-08    CP:  1.00D+00  1.09D+00  1.21D+00
 FoFJK:  IHMeth= 1 ICntrl=     0 DoSepK=T KAlg= 1 I1Cent= 0 FoldK=F
 E= -2753.40937683354     Delta-E=       -0.000000000368 Rises=F Damp=F
 DIIS: error= 2.17D-07 at cycle   4 NSaved=   4.
 NSaved= 4 IEnMin= 4 EnMin= -2753.40937683354     IErMin= 4 ErrMin= 2.17D-07
 ErrMax= 2.17D-07 EMaxC= 1.00D-01 BMatC= 8.21D-12 BMatP= 1.29D-10
 IDIUse=1 WtCom= 1.00D+00 WtEn= 0.00D+00
 Coeff-Com:  0.212D-03-0.387D-01 0.228D+00 0.810D+00
 Coeff:      0.212D-03-0.387D-01 0.228D+00 0.810D+00
 Gap=     0.580 Goal=   None    Shift=    0.000
 RMSDP=1.99D-08 MaxDP=7.42D-07 DE=-3.68D-10 OVMax= 9.05D-07

 Cycle   5  Pass 1  IDiag  1:
 RMSU=  7.89D-09    CP:  1.00D+00  1.09D+00  1.23D+00  1.12D+00
 FoFJK:  IHMeth= 1 ICntrl=     0 DoSepK=T KAlg= 1 I1Cent= 0 FoldK=F
 E= -2753.40937683356     Delta-E=       -0.000000000029 Rises=F Damp=F
 DIIS: error= 4.41D-08 at cycle   5 NSaved=   5.
 NSaved= 5 IEnMin= 5 EnMin= -2753.40937683356     IErMin= 5 ErrMin= 4.41D-08
 ErrMax= 4.41D-08 EMaxC= 1.00D-01 BMatC= 3.60D-13 BMatP= 8.21D-12
 IDIUse=1 WtCom= 1.00D+00 WtEn= 0.00D+00
 Coeff-Com: -0.276D-04 0.793D-02-0.691D-01 0.129D-02 0.106D+01
 Coeff:     -0.276D-04 0.793D-02-0.691D-01 0.129D-02 0.106D+01
 Gap=     0.580 Goal=   None    Shift=    0.000
 RMSDP=7.75D-09 MaxDP=3.68D-07 DE=-2.91D-11 OVMax= 4.29D-07

 SCF Done:  E(RLC-B+HF-LYP) =  -2753.40937683     A.U. after    5 cycles
             Convg  =    0.7746D-08             -V/T =  2.0014
 KE= 2.749687853273D+03 PE=-6.579480758461D+03 EE= 1.076383528355D+03
 Leave Link  502 at Mon May 11 23:18:01 2020, MaxMem= 1073741824 cpu:     102.3
 (Enter /home/matheus/.gaussian/g09/l122.exe)
 Restoring MOs from calculation   4 to rwf.
 Counterpoise: doing MCBS calculation for fragment   1
 Leave Link  122 at Mon May 11 23:18:01 2020, MaxMem= 1073741824 cpu:       0.0
 (Enter /home/matheus/.gaussian/g09/l301.exe)
 Basis read from rwf:  (5D, 7F)
 No pseudopotential information found on rwf file.
 There are   138 symmetry adapted basis functions of A   symmetry.
 Integral buffers will be    131072 words long.
 Raffenetti 2 integral format.
 Two-electron integral symmetry is turned on.
   138 basis functions,   198 primitive gaussians,   160 cartesian basis functions
     9 alpha electrons        9 beta electrons
       nuclear repulsion energy        36.6499454140 Hartrees.
 IExCor=10402 DFT=T Ex=LC-B+HF Corr=LYP ExCW=0 ScaHFX=  1.000000
 ScaDFX=  1.000000  1.000000  1.000000  1.000000 ScalE2=  1.000000  1.000000
 IRadAn=      5 IRanWt=     -1 IRanGd=            0 ICorTp=0
  HFx wShort=  0.000000 wLong=  1.350000 cFull=  0.000000 cShort=  0.000000 cLong=  1.000000
  DFx wShort=  0.000000 wLong=  1.350000 cFull=  0.000000 cShort=  0.000000 cLong=  1.000000
 NAtoms=    5 NActive=    4 NUniq=    4 SFac= 1.00D+00 NAtFMM=   60 NAOKFM=F Big=F
 No density basis found on file   718.
 Leave Link  301 at Mon May 11 23:18:01 2020, MaxMem= 1073741824 cpu:       0.2
 (Enter /home/matheus/.gaussian/g09/l302.exe)
 NPDir=0 NMtPBC=     1 NCelOv=     1 NCel=       1 NClECP=     1 NCelD=      1
         NCelK=      1 NCelE2=     1 NClLst=     1 CellRange=     0.0.
 One-electron integrals computed using PRISM.
 NBasis=   138 RedAO= T  NBF=   138
 NBsUse=   138 1.00D-06 NBFU=   138
 Precomputing XC quadrature grid using
 IXCGrd= 2 IRadAn=           5 IRanWt=          -1 IRanGd=           0 AccXCQ= 0.00D+00.
 NRdTot=     344 NPtTot=       92556 NUsed=       95038 NTot=       95070
 NSgBfM=   160   160   160   160   160 NAtAll=     4     4.
 Leave Link  302 at Mon May 11 23:18:01 2020, MaxMem= 1073741824 cpu:       0.8
 (Enter /home/matheus/.gaussian/g09/l303.exe)
 DipDrv:  MaxL=1.
 Leave Link  303 at Mon May 11 23:18:01 2020, MaxMem= 1073741824 cpu:       0.2
 (Enter /home/matheus/.gaussian/g09/l401.exe)
 Initial guess read from the read-write file.
 Guess basis will be translated and rotated to current coordinates.
 Initial guess orbital symmetries:
       Occupied  (A) (A) (A) (A) (A) (A) (A) (A) (A)
       Virtual   (A) (A) (A) (A) (A) (A) (A) (A) (A) (A) (A) (A)
                 (A) (A) (A) (A) (A) (A) (A) (A) (A) (A) (A) (A)
                 (A) (A) (A) (A) (A) (A) (A) (A) (A) (A) (A) (A)
                 (A) (A) (A) (A) (A) (A) (A) (A) (A) (A) (A) (A)
                 (A) (A) (A) (A) (A) (A) (A) (A) (A) (A) (A) (A)
                 (A) (A) (A) (A) (A) (A) (A) (A) (A) (A) (A) (A)
                 (A) (A) (A) (A) (A) (A) (A) (A) (A) (A) (A) (A)
                 (A) (A) (A) (A) (A) (A) (A) (A) (A) (A) (A) (A)
                 (A) (A) (A) (A) (A) (A) (A) (A) (A) (A) (A) (A)
                 (A) (A) (A) (A) (A) (A) (A) (A) (A) (A) (A) (A)
                 (A) (A) (A) (A) (A) (A) (A) (A) (A)
 The electronic state of the initial guess is 1-A.
 Generating alternative initial guess.
 Harris functional with IExCor=10402 diagonalized for initial guess.
 ExpMin= 2.53D-02 ExpMax= 1.53D+04 ExpMxC= 5.22D+02 IAcc=3 IRadAn=         5 AccDes= 0.00D+00
 HarFok:  IExCor=10402 AccDes= 0.00D+00 IRadAn=         5 IDoV= 1
 ScaDFX=  1.000000  1.000000  1.000000  1.000000
 FoFCou: FMM=F IPFlag=           0 FMFlag=      100000 FMFlg1=           0
         NFxFlg=           0 DoJE=T BraDBF=F KetDBF=T FulRan=T
         Omega=  0.000000  0.000000  1.000000  0.000000  0.000000 ICntrl=     500 IOpCl=  0
         NMat0=    1 NMatS0=    1 NMatT0=    0 NMatD0=    1 NMtDS0=    0 NMtDT0=    0
         I1Cent=           4 NGrid=           0.
 Petite list used in FoFCou.
 Harris En= -143.212855675902    
 Leave Link  401 at Mon May 11 23:18:02 2020, MaxMem= 1073741824 cpu:       2.4
 (Enter /home/matheus/.gaussian/g09/l502.exe)
 Closed shell SCF:
 Requested convergence on RMS density matrix=1.00D-08 within 128 cycles.
 Requested convergence on MAX density matrix=1.00D-06.
 Requested convergence on             energy=1.00D-06.
 No special actions if energy rises.
 Using DIIS extrapolation, IDIIS=  1040.
 Integral symmetry usage will be decided dynamically.
        94980 words used for storage of precomputed grid.
 IEnd=      192360 IEndB=      192360 NGot=  1073741824 MDV=  1073591865
 LenX=  1073591865 LenY=  1073565824
 Fock matrices will be formed incrementally for  20 cycles.

 Cycle   1  Pass 1  IDiag  1:
 FoFJK:  IHMeth= 1 ICntrl=     0 DoSepK=T KAlg= 1 I1Cent= 0 FoldK=F
 FoFCou: FMM=F IPFlag=           0 FMFlag=      100000 FMFlg1=           0
         NFxFlg=           0 DoJE=T BraDBF=F KetDBF=F FulRan=T
         Omega=  0.000000  0.000000  1.000000  0.000000  0.000000 ICntrl=     500 IOpCl=  0
         NMat0=    1 NMatS0=    1 NMatT0=    0 NMatD0=    1 NMtDS0=    0 NMtDT0=    0
         I1Cent=           0 NGrid=           0.
 Symmetry not used in FoFCou.
 E= -151.209288860254    
 DIIS: error= 4.57D-06 at cycle   1 NSaved=   1.
 NSaved= 1 IEnMin= 1 EnMin= -151.209288860254     IErMin= 1 ErrMin= 4.57D-06
 ErrMax= 4.57D-06 EMaxC= 1.00D-01 BMatC= 5.43D-09 BMatP= 5.43D-09
 IDIUse=1 WtCom= 1.00D+00 WtEn= 0.00D+00
 Coeff-Com:  0.100D+01
 Coeff:      0.100D+01
 Gap=     0.520 Goal=   None    Shift=    0.000
 RMSDP=5.05D-07 MaxDP=1.16D-05              OVMax= 1.76D-05

 Cycle   2  Pass 1  IDiag  1:
 RMSU=  3.57D-07    CP:  1.00D+00
 FoFJK:  IHMeth= 1 ICntrl=     0 DoSepK=T KAlg= 1 I1Cent= 0 FoldK=F
 E= -151.209288865545     Delta-E=       -0.000000005291 Rises=F Damp=F
 DIIS: error= 1.21D-06 at cycle   2 NSaved=   2.
 NSaved= 2 IEnMin= 2 EnMin= -151.209288865545     IErMin= 2 ErrMin= 1.21D-06
 ErrMax= 1.21D-06 EMaxC= 1.00D-01 BMatC= 2.93D-10 BMatP= 5.43D-09
 IDIUse=1 WtCom= 1.00D+00 WtEn= 0.00D+00
 Coeff-Com: -0.201D+00 0.120D+01
 Coeff:     -0.201D+00 0.120D+01
 Gap=     0.520 Goal=   None    Shift=    0.000
 RMSDP=1.51D-07 MaxDP=4.12D-06 DE=-5.29D-09 OVMax= 6.92D-06

 Cycle   3  Pass 1  IDiag  1:
 RMSU=  5.30D-08    CP:  1.00D+00  1.26D+00
 FoFJK:  IHMeth= 1 ICntrl=     0 DoSepK=T KAlg= 1 I1Cent= 0 FoldK=F
 E= -151.209288866099     Delta-E=       -0.000000000554 Rises=F Damp=F
 DIIS: error= 3.28D-07 at cycle   3 NSaved=   3.
 NSaved= 3 IEnMin= 3 EnMin= -151.209288866099     IErMin= 3 ErrMin= 3.28D-07
 ErrMax= 3.28D-07 EMaxC= 1.00D-01 BMatC= 1.86D-11 BMatP= 2.93D-10
 IDIUse=1 WtCom= 1.00D+00 WtEn= 0.00D+00
 Coeff-Com:  0.213D-01-0.269D+00 0.125D+01
 Coeff:      0.213D-01-0.269D+00 0.125D+01
 Gap=     0.520 Goal=   None    Shift=    0.000
 RMSDP=4.32D-08 MaxDP=8.82D-07 DE=-5.54D-10 OVMax= 2.72D-06

 Cycle   4  Pass 1  IDiag  1:
 RMSU=  1.31D-08    CP:  1.00D+00  1.31D+00  1.38D+00
 FoFJK:  IHMeth= 1 ICntrl=     0 DoSepK=T KAlg= 1 I1Cent= 0 FoldK=F
 E= -151.209288866155     Delta-E=       -0.000000000056 Rises=F Damp=F
 DIIS: error= 1.09D-07 at cycle   4 NSaved=   4.
 NSaved= 4 IEnMin= 4 EnMin= -151.209288866155     IErMin= 4 ErrMin= 1.09D-07
 ErrMax= 1.09D-07 EMaxC= 1.00D-01 BMatC= 2.75D-12 BMatP= 1.86D-11
 IDIUse=1 WtCom= 1.00D+00 WtEn= 0.00D+00
 Coeff-Com:  0.148D-01-0.107D+00 0.716D-01 0.102D+01
 Coeff:      0.148D-01-0.107D+00 0.716D-01 0.102D+01
 Gap=     0.520 Goal=   None    Shift=    0.000
 RMSDP=1.52D-08 MaxDP=2.88D-07 DE=-5.60D-11 OVMax= 1.06D-06

 Cycle   5  Pass 1  IDiag  1:
 RMSU=  6.16D-09    CP:  1.00D+00  1.32D+00  1.49D+00  1.40D+00
 FoFJK:  IHMeth= 1 ICntrl=     0 DoSepK=T KAlg= 1 I1Cent= 0 FoldK=F
 E= -151.209288866162     Delta-E=       -0.000000000008 Rises=F Damp=F
 DIIS: error= 7.50D-08 at cycle   5 NSaved=   5.
 NSaved= 5 IEnMin= 5 EnMin= -151.209288866162     IErMin= 5 ErrMin= 7.50D-08
 ErrMax= 7.50D-08 EMaxC= 1.00D-01 BMatC= 9.03D-13 BMatP= 2.75D-12
 IDIUse=1 WtCom= 1.00D+00 WtEn= 0.00D+00
 Coeff-Com:  0.117D-02 0.117D-01-0.210D+00 0.384D+00 0.813D+00
 Coeff:      0.117D-02 0.117D-01-0.210D+00 0.384D+00 0.813D+00
 Gap=     0.520 Goal=   None    Shift=    0.000
 RMSDP=6.33D-09 MaxDP=1.34D-07 DE=-7.56D-12 OVMax= 4.70D-07

 SCF Done:  E(RLC-B+HF-LYP) =  -151.209288866     A.U. after    5 cycles
             Convg  =    0.6332D-08             -V/T =  2.0062
 KE= 1.502807449340D+02 PE=-4.315837589740D+02 EE= 9.344377975989D+01
 Leave Link  502 at Mon May 11 23:18:07 2020, MaxMem= 1073741824 cpu:      42.2
 (Enter /home/matheus/.gaussian/g09/l122.exe)
 Restoring MOs from calculation   5 to rwf.
 Counterpoise: doing MCBS calculation for fragment   2
 Leave Link  122 at Mon May 11 23:18:07 2020, MaxMem= 1073741824 cpu:       0.0
 (Enter /home/matheus/.gaussian/g09/l301.exe)
 Basis read from rwf:  (5D, 7F)
 No pseudopotential information found on rwf file.
 There are    59 symmetry adapted basis functions of A   symmetry.
 Integral buffers will be    131072 words long.
 Raffenetti 2 integral format.
 Two-electron integral symmetry is turned on.
    59 basis functions,   217 primitive gaussians,    69 cartesian basis functions
    18 alpha electrons       18 beta electrons
       nuclear repulsion energy         0.0000000000 Hartrees.
 IExCor=10402 DFT=T Ex=LC-B+HF Corr=LYP ExCW=0 ScaHFX=  1.000000
 ScaDFX=  1.000000  1.000000  1.000000  1.000000 ScalE2=  1.000000  1.000000
 IRadAn=      5 IRanWt=     -1 IRanGd=            0 ICorTp=0
  HFx wShort=  0.000000 wLong=  1.350000 cFull=  0.000000 cShort=  0.000000 cLong=  1.000000
  DFx wShort=  0.000000 wLong=  1.350000 cFull=  0.000000 cShort=  0.000000 cLong=  1.000000
 NAtoms=    5 NActive=    1 NUniq=    1 SFac= 1.00D+00 NAtFMM=   60 NAOKFM=F Big=F
 No density basis found on file   718.
 Leave Link  301 at Mon May 11 23:18:07 2020, MaxMem= 1073741824 cpu:       0.2
 (Enter /home/matheus/.gaussian/g09/l302.exe)
 NPDir=0 NMtPBC=     1 NCelOv=     1 NCel=       1 NClECP=     1 NCelD=      1
         NCelK=      1 NCelE2=     1 NClLst=     1 CellRange=     0.0.
 One-electron integrals computed using PRISM.
 NBasis=    59 RedAO= T  NBF=    59
 NBsUse=    59 1.00D-06 NBFU=    59
 Precomputing XC quadrature grid using
 IXCGrd= 2 IRadAn=           5 IRanWt=          -1 IRanGd=           0 AccXCQ= 0.00D+00.
 NRdTot=      81 NPtTot=       30352 NUsed=       30981 NTot=       31013
 NSgBfM=    69    69    69    69    69 NAtAll=     1     1.
 Leave Link  302 at Mon May 11 23:18:07 2020, MaxMem= 1073741824 cpu:       0.7
 (Enter /home/matheus/.gaussian/g09/l303.exe)
 DipDrv:  MaxL=1.
 Leave Link  303 at Mon May 11 23:18:07 2020, MaxMem= 1073741824 cpu:       0.1
 (Enter /home/matheus/.gaussian/g09/l401.exe)
 Initial guess read from the read-write file.
 Guess basis will be translated and rotated to current coordinates.
 Initial guess orbital symmetries:
       Occupied  (A) (A) (A) (A) (A) (A) (A) (A) (A) (A) (A) (A)
                 (A) (A) (A) (A) (A) (A)
       Virtual   (A) (A) (A) (A) (A) (A) (A) (A) (A) (A) (A) (A)
                 (A) (A) (A) (A) (A) (A) (A) (A) (A) (A) (A) (A)
                 (A) (A) (A) (A) (A) (A) (A) (A) (A) (A) (A) (A)
                 (A) (A) (A) (A) (A)
 The electronic state of the initial guess is 1-A.
 Generating alternative initial guess.
 Harris functional with IExCor=10402 diagonalized for initial guess.
 ExpMin= 4.00D-02 ExpMax= 1.17D+07 ExpMxC= 1.33D+04 IAcc=3 IRadAn=         5 AccDes= 0.00D+00
 HarFok:  IExCor=10402 AccDes= 0.00D+00 IRadAn=         5 IDoV= 1
 ScaDFX=  1.000000  1.000000  1.000000  1.000000
 FoFCou: FMM=F IPFlag=           0 FMFlag=      100000 FMFlg1=           0
         NFxFlg=           0 DoJE=T BraDBF=F KetDBF=T FulRan=T
         Omega=  0.000000  0.000000  1.000000  0.000000  0.000000 ICntrl=     500 IOpCl=  0
         NMat0=    1 NMatS0=    1 NMatT0=    0 NMatD0=    1 NMtDS0=    0 NMtDT0=    0
         I1Cent=           4 NGrid=           0.
 Petite list used in FoFCou.
 DSYEVD returned Info=         119 IAlg= 4 N=    59 NDim=    59 NE2=    18198841 trying DSYEV.
 Harris En= -2731.73388500824    
 Leave Link  401 at Mon May 11 23:18:07 2020, MaxMem= 1073741824 cpu:       1.1
 (Enter /home/matheus/.gaussian/g09/l502.exe)
 Closed shell SCF:
 Requested convergence on RMS density matrix=1.00D-08 within 128 cycles.
 Requested convergence on MAX density matrix=1.00D-06.
 Requested convergence on             energy=1.00D-06.
 No special actions if energy rises.
 Using DIIS extrapolation, IDIIS=  1040.
 Integral symmetry usage will be decided dynamically.
        30923 words used for storage of precomputed grid.
 IEnd=       64406 IEndB=       64406 NGot=  1073741824 MDV=  1073698889
 LenX=  1073698889 LenY=  1073693687
 Fock matrices will be formed incrementally for  20 cycles.

 Cycle   1  Pass 1  IDiag  1:
 FoFJK:  IHMeth= 1 ICntrl=     0 DoSepK=T KAlg= 1 I1Cent= 0 FoldK=F
 FoFCou: FMM=F IPFlag=           0 FMFlag=      100000 FMFlg1=           0
         NFxFlg=           0 DoJE=T BraDBF=F KetDBF=F FulRan=T
         Omega=  0.000000  0.000000  1.000000  0.000000  0.000000 ICntrl=     500 IOpCl=  0
         NMat0=    1 NMatS0=    1 NMatT0=    0 NMatD0=    1 NMtDS0=    0 NMtDT0=    0
         I1Cent=           0 NGrid=           0.
 Symmetry not used in FoFCou.
 E= -2753.40934852740    
 DIIS: error= 8.01D-14 at cycle   1 NSaved=   1.
 NSaved= 1 IEnMin= 1 EnMin= -2753.40934852740     IErMin= 1 ErrMin= 8.01D-14
 ErrMax= 8.01D-14 EMaxC= 1.00D-01 BMatC= 1.89D-25 BMatP= 1.89D-25
 IDIUse=1 WtCom= 1.00D+00 WtEn= 0.00D+00
 Coeff-Com:  0.100D+01
 Coeff:      0.100D+01
 Gap=     0.640 Goal=   None    Shift=    0.000
 DSYEVD returned Info=          89 IAlg= 4 N=    59 NDim=    59 NE2=    18198197 trying DSYEV.
 RMSDP=7.24D-15 MaxDP=1.36D-13              OVMax= 9.34D-15

 SCF Done:  E(RLC-B+HF-LYP) =  -2753.40934853     A.U. after    1 cycles
             Convg  =    0.7240D-14             -V/T =  2.0014
 KE= 2.749695852517D+03 PE=-6.579489077514D+03 EE= 1.076383876470D+03
 Leave Link  502 at Mon May 11 23:18:09 2020, MaxMem= 1073741824 cpu:      11.8
 (Enter /home/matheus/.gaussian/g09/l122.exe)
 Restoring MOs from calculation   1 to rwf.
 Counterpoise: corrected energy =   -2904.618755566944
 Counterpoise: BSSE energy =       0.000031764376
 Leave Link  122 at Mon May 11 23:18:09 2020, MaxMem= 1073741824 cpu:       0.0
 (Enter /home/matheus/.gaussian/g09/l108.exe)
 Scan completed.

 Summary of the potential surface scan:
   N      R1          SCF    
 ----  ---------  -----------
    1     3.0000  -2753.40935
    2     3.1000  -2753.40935
    3     3.2000  -2753.40935
    4     3.3000  -2753.40935
    5     3.4000  -2753.40935
    6     3.5000  -2753.40935
    7     3.6000  -2753.40935
    8     3.7000  -2753.40935
    9     3.8000  -2753.40935
   10     3.9000  -2753.40935
   11     4.0000  -2753.40935
   12     4.1000  -2753.40935
   13     4.2000  -2753.40935
   14     4.3000  -2753.40935
   15     4.4000  -2753.40935
   16     4.5000  -2753.40935
   17     4.6000  -2753.40935
   18     4.7000  -2753.40935
   19     4.8000  -2753.40935
   20     4.9000  -2753.40935
   21     5.0000  -2753.40935
 ----  ---------  -----------
  
 Leave Link  108 at Mon May 11 23:18:09 2020, MaxMem= 1073741824 cpu:       0.0
 (Enter /home/matheus/.gaussian/g09/l9999.exe)

 Test job not archived.
 1\1\GINC-REDGIANT\Scan\RLC-BLYP\Aug-CC-pVTZ\H2Kr1O2\MATHEUS\11-May-202
 0\1\\#p lc-blyp/aug-cc-PVTz iop(3/107=1350000000) iop(3/108=1350000000
 ) int=ultrafine counterpoise=2 Scan\\TCC\\0,1\O,0,0.,0.,0.725\O,0,0.,0
 .,-0.725\H,0,-0.7037808064,0.5905422151,1.0235104166\H,0,0.,0.91872059
 47,-1.0235104166\Kr,0,0.,R1,0.\\R1=3.,s,20,0.1\\Version=EM64L-G09RevC.
 01\State=1-A\HF=-2753.4093485,-2753.4093485,-2753.4093485,-2753.409348
 5,-2753.4093485,-2753.4093485,-2753.4093485,-2753.4093485,-2753.409348
 5,-2753.4093485,-2753.4093485,-2753.4093485,-2753.4093485,-2753.409348
 5,-2753.4093485,-2753.4093485,-2753.4093485,-2753.4093485,-2753.409348
 5,-2753.4093485,-2753.4093485\RMSD=5.461e-09,3.089e-10,7.451e-11,2.036
 e-11,7.193e-12,3.140e-12,1.451e-12,6.845e-13,3.241e-13,1.569e-13,7.748
 e-14,3.585e-14,1.610e-14,8.116e-15,2.368e-14,1.860e-14,5.885e-15,6.257
 e-15,3.795e-15,4.855e-15,7.240e-15\PG=C01 [X(H2Kr1O2)]\\@


 PATIENCE IS THE ABILITY TO IDLE YOUR MOTOR WHEN
 YOU FEEL LIKE STRIPPING YOUR GEARS.
 Job cpu time:  0 days  3 hours 27 minutes 57.9 seconds.
 File lengths (MBytes):  RWF=     33 Int=      0 D2E=      0 Chk=      8 Scr=      1
 Normal termination of Gaussian 09 at Mon May 11 23:18:09 2020.
