 Entering Gaussian System, Link 0=g09
 Input=/home/matheus/.tcc/Inputs/Inputs-lc-blyp/H2O2-Kr_10.com
 Output=/home/matheus/.tcc/Logs/Logs-lc-blyp/H2O2-Kr_10.log
 Initial command:
 /home/matheus/.gaussian/g09/l1.exe /home/matheus/.gaussian/g09/scratch/Gau-8443.inp -scrdir=/home/matheus/.gaussian/g09/scratch/
 Entering Link 1 = /home/matheus/.gaussian/g09/l1.exe PID=      8446.
  
 Copyright (c) 1988,1990,1992,1993,1995,1998,2003,2009,2011,
            Gaussian, Inc.  All Rights Reserved.
  
 This is part of the Gaussian(R) 09 program.  It is based on
 the Gaussian(R) 03 system (copyright 2003, Gaussian, Inc.),
 the Gaussian(R) 98 system (copyright 1998, Gaussian, Inc.),
 the Gaussian(R) 94 system (copyright 1995, Gaussian, Inc.),
 the Gaussian 92(TM) system (copyright 1992, Gaussian, Inc.),
 the Gaussian 90(TM) system (copyright 1990, Gaussian, Inc.),
 the Gaussian 88(TM) system (copyright 1988, Gaussian, Inc.),
 the Gaussian 86(TM) system (copyright 1986, Carnegie Mellon
 University), and the Gaussian 82(TM) system (copyright 1983,
 Carnegie Mellon University). Gaussian is a federally registered
 trademark of Gaussian, Inc.
  
 This software contains proprietary and confidential information,
 including trade secrets, belonging to Gaussian, Inc.
  
 This software is provided under written license and may be
 used, copied, transmitted, or stored only in accord with that
 written license.
  
 The following legend is applicable only to US Government
 contracts under FAR:
  
                    RESTRICTED RIGHTS LEGEND
  
 Use, reproduction and disclosure by the US Government is
 subject to restrictions as set forth in subparagraphs (a)
 and (c) of the Commercial Computer Software - Restricted
 Rights clause in FAR 52.227-19.
  
 Gaussian, Inc.
 340 Quinnipiac St., Bldg. 40, Wallingford CT 06492
  
  
 ---------------------------------------------------------------
 Warning -- This program may not be used in any manner that
 competes with the business of Gaussian, Inc. or will provide
 assistance to any competitor of Gaussian, Inc.  The licensee
 of this program is prohibited from giving any competitor of
 Gaussian, Inc. access to this program.  By using this program,
 the user acknowledges that Gaussian, Inc. is engaged in the
 business of creating and licensing software in the field of
 computational chemistry and represents and warrants to the
 licensee that it is not a competitor of Gaussian, Inc. and that
 it will not use this program in any manner prohibited above.
 ---------------------------------------------------------------
  

 Cite this work as:
 Gaussian 09, Revision C.01,
 M. J. Frisch, G. W. Trucks, H. B. Schlegel, G. E. Scuseria, 
 M. A. Robb, J. R. Cheeseman, G. Scalmani, V. Barone, B. Mennucci, 
 G. A. Petersson, H. Nakatsuji, M. Caricato, X. Li, H. P. Hratchian, 
 A. F. Izmaylov, J. Bloino, G. Zheng, J. L. Sonnenberg, M. Hada, 
 M. Ehara, K. Toyota, R. Fukuda, J. Hasegawa, M. Ishida, T. Nakajima, 
 Y. Honda, O. Kitao, H. Nakai, T. Vreven, J. A. Montgomery, Jr., 
 J. E. Peralta, F. Ogliaro, M. Bearpark, J. J. Heyd, E. Brothers, 
 K. N. Kudin, V. N. Staroverov, T. Keith, R. Kobayashi, J. Normand, 
 K. Raghavachari, A. Rendell, J. C. Burant, S. S. Iyengar, J. Tomasi, 
 M. Cossi, N. Rega, J. M. Millam, M. Klene, J. E. Knox, J. B. Cross, 
 V. Bakken, C. Adamo, J. Jaramillo, R. Gomperts, R. E. Stratmann, 
 O. Yazyev, A. J. Austin, R. Cammi, C. Pomelli, J. W. Ochterski, 
 R. L. Martin, K. Morokuma, V. G. Zakrzewski, G. A. Voth, 
 P. Salvador, J. J. Dannenberg, S. Dapprich, A. D. Daniels, 
 O. Farkas, J. B. Foresman, J. V. Ortiz, J. Cioslowski, 
 and D. J. Fox, Gaussian, Inc., Wallingford CT, 2010.
 
 ******************************************
 Gaussian 09:  EM64L-G09RevC.01 23-Sep-2011
                11-May-2020 
 ******************************************
 %mem=8GB
 %nproc=8
 Will use up to    8 processors via shared memory.
 ----------------------------------------------------------------------
 #p lc-blyp/aug-cc-PVTz iop(3/107=1350000000) iop(3/108=1350000000) int
 =ultrafine counterpoise=2 Scan
 ----------------------------------------------------------------------
 1/38=1,60=1,62=2/1,8;
 2/12=2,17=6,18=5,29=3,40=1/2;
 1/38=1,53=5172,62=2/22;
 3/5=16,6=1,7=10,11=2,16=1,25=1,30=1,74=1000402,75=-5,107=1350000000,108=1350000000/1,2,3;
 4//1;
 5/5=2,38=5/2;
 6/7=2,8=2,9=2,10=2,18=1,28=1/1;
 1/53=4052,62=2,63=1/22;
 3/5=7,6=11,7=10,11=2,16=1,25=1,30=1,74=1000402,75=-5,82=7,107=1350000000,108=1350000000/1,2,3;
 4//1;
 5/5=2,38=5/2;
 6/7=2,8=2,9=2,10=2,18=1,28=1/1;
 1/53=3042,62=2,63=2/22;
 3/5=7,6=11,7=10,11=2,16=1,25=1,30=1,74=1000402,75=-5,82=7,107=1350000000,108=1350000000/1,2,3;
 4//1;
 5/5=2,38=5/2;
 6/7=2,8=2,9=2,10=2,18=1,28=1/1;
 1/53=2032,62=2,63=3/22;
 3/5=7,6=11,7=10,11=2,16=1,25=1,30=1,74=1000402,75=-5,82=7,107=1350000000,108=1350000000/1,2,3;
 4//1;
 5/5=2,38=5/2;
 6/7=2,8=2,9=2,10=2,18=1,28=1/1;
 1/53=1022,62=2,63=4/22;
 3/5=7,6=11,7=10,11=2,16=1,25=1,30=1,74=1000402,75=-5,82=7,107=1350000000,108=1350000000/1,2,3;
 4//1;
 5/5=2,38=5/2;
 6/7=2,8=2,9=2,10=2,18=1,28=1/1;
 1/53=5014,62=2,63=5/22;
 1/60=1,62=2/8(1);
 99/9=1/99;
 2/29=3/2;
 1/53=5173,62=2/22;
 3/5=7,6=11,7=10,11=2,16=1,25=1,30=1,74=1000402,75=-5,82=7,107=1350000000,108=1350000000/1,2,3;
 4/5=5,16=3/1;
 5/5=2,38=5/2;
 1/53=4053,62=2,63=1/22;
 3/5=7,6=11,7=10,11=2,16=1,25=1,30=1,74=1000402,75=-5,82=7,107=1350000000,108=1350000000/1,2,3;
 4/5=5,16=3/1;
 5/5=2,38=5/2;
 1/53=3043,62=2,63=2/22;
 3/5=7,6=11,7=10,11=2,16=1,25=1,30=1,74=1000402,75=-5,82=7,107=1350000000,108=1350000000/1,2,3;
 4/5=5,16=3/1;
 5/5=2,38=5/2;
 1/53=2033,62=2,63=3/22;
 3/5=7,6=11,7=10,11=2,16=1,25=1,30=1,74=1000402,75=-5,82=7,107=1350000000,108=1350000000/1,2,3;
 4/5=5,16=3/1;
 5/5=2,38=5/2;
 1/53=1024,62=2,63=4/22;
 3/5=7,6=11,7=10,11=2,16=1,25=1,30=1,74=1000402,75=-5,82=7,107=1350000000,108=1350000000/1,2,3;
 4/5=5,16=3/1;
 5/5=2,38=5/2;
 1/53=5014,62=2,63=5/22;
 1/60=1,62=2/8(-22);
 99/9=1/99;
 Leave Link    1 at Mon May 11 14:10:15 2020, MaxMem= 1073741824 cpu:       0.2
 (Enter /home/matheus/.gaussian/g09/l101.exe)
 ---
 TCC
 ---
 Charge =  0 Multiplicity = 1 in supermolecule
 Charge =  0 Multiplicity = 1 in fragment  1.
 Charge =  0 Multiplicity = 1 in fragment  2.
 Symbolic Z-Matrix:
 O(Fragment=1)         0.        0.        0.725 
 O(Fragment=1)         0.        0.       -0.725 
 H(Fragment=1)         0.90476  -0.15953   1.02351 
 H(Fragment=1)         0.        0.91872  -1.02351 
 Kr(Fragment=2)        0.       R1        0. 
       Variables:
  R1                    3.     Scan 20    0.1    
 
 NAtoms=      5 NQM=        0 NQMF=       0 NMMI=      5 NMMIF=      0
                NMic=       0 NMicF=      0.
                    Isotopes and Nuclear Properties:
 (Nuclear quadrupole moments (NQMom) in fm**2, nuclear magnetic moments (NMagM)
  in nuclear magnetons)

  Atom         1           2           3           4           5
 IAtWgt=          16          16           1           1          84
 AtmWgt=  15.9949146  15.9949146   1.0078250   1.0078250  83.9115064
 NucSpn=           0           0           1           1           0
 AtZEff=   0.0000000   0.0000000   0.0000000   0.0000000   0.0000000
 NQMom=    0.0000000   0.0000000   0.0000000   0.0000000   0.0000000
 NMagM=    0.0000000   0.0000000   2.7928460   2.7928460   0.0000000
 Leave Link  101 at Mon May 11 14:10:15 2020, MaxMem= 1073741824 cpu:       0.3
 (Enter /home/matheus/.gaussian/g09/l108.exe)
 Scan the potential surface.
 Variable   Value     No. Steps Step-Size
 -------- ----------- --------- ---------
     1       3.000000      20      0.1000
 A total of     21 points will be computed.
 Leave Link  108 at Mon May 11 14:10:15 2020, MaxMem= 1073741824 cpu:       0.0
 (Enter /home/matheus/.gaussian/g09/l202.exe)
 ---------------------------------------------------------------------------------------------------
                            Z-MATRIX (ANGSTROMS AND DEGREES)
   CD    Cent   Atom    N1       Length/X        N2       Alpha/Y        N3        Beta/Z          J
 ---------------------------------------------------------------------------------------------------
      1      1  O        0   0.000000          0.000000          0.725000
      2      2  O        0   0.000000          0.000000         -0.725000
      3      3  H        0   0.904763         -0.159534          1.023510
      4      4  H        0   0.000000          0.918721         -1.023510
      5      5  Kr       0   0.000000          3.000000          0.000000
 ---------------------------------------------------------------------------------------------------
                         Z-Matrix orientation:                         
 ---------------------------------------------------------------------
 Center     Atomic      Atomic             Coordinates (Angstroms)
 Number     Number       Type             X           Y           Z
 ---------------------------------------------------------------------
      1          8           0        0.000000    0.000000    0.725000
      2          8           0        0.000000    0.000000   -0.725000
      3          1           0        0.904763   -0.159534    1.023510
      4          1           0        0.000000    0.918721   -1.023510
      5         36           0        0.000000    3.000000    0.000000
 ---------------------------------------------------------------------
                    Distance matrix (angstroms):
                    1          2          3          4          5
     1  O    0.000000
     2  O    1.450000   0.000000
     3  H    0.966000   1.975180   0.000000
     4  H    1.975180   0.966000   2.484255   0.000000
     5  Kr   3.086361   3.086361   3.442212   2.319331   0.000000
 Stoichiometry    H2KrO2
 Framework group  C1[X(H2KrO2)]
 Deg. of freedom     9
 Full point group                 C1      NOp   1
 Largest Abelian subgroup         C1      NOp   1
 Largest concise Abelian subgroup C1      NOp   1
                         Standard orientation:                         
 ---------------------------------------------------------------------
 Center     Atomic      Atomic             Coordinates (Angstroms)
 Number     Number       Type             X           Y           Z
 ---------------------------------------------------------------------
      1          8           0        2.021768   -0.693300   -0.118861
      2          8           0        2.004728    0.750466    0.014370
      3          1           0        2.201795   -1.071309    0.751687
      4          1           0        1.082725    1.035355    0.058021
      5         36           0       -0.986014   -0.011705    0.000728
 ---------------------------------------------------------------------
 Rotational constants (GHZ):     25.6313314      2.3378634      2.1561704
 Leave Link  202 at Mon May 11 14:10:15 2020, MaxMem= 1073741824 cpu:       0.0
 (Enter /home/matheus/.gaussian/g09/l122.exe)
 Leave Link  122 at Mon May 11 14:10:15 2020, MaxMem= 1073741824 cpu:       0.0
 (Enter /home/matheus/.gaussian/g09/l301.exe)
 Standard basis: Aug-CC-pVTZ (5D, 7F)
 Ernie: Thresh=  0.10000D-02 Tol=  0.10000D-05 Strict=F.
 Ernie:  38 primitive shells out of 205 were deleted.
 There are   197 symmetry adapted basis functions of A   symmetry.
 Integral buffers will be    131072 words long.
 Raffenetti 2 integral format.
 Two-electron integral symmetry is turned on.
   197 basis functions,   415 primitive gaussians,   229 cartesian basis functions
    27 alpha electrons       27 beta electrons
       nuclear repulsion energy       149.1283769891 Hartrees.
 IExCor=10402 DFT=T Ex=LC-B+HF Corr=LYP ExCW=0 ScaHFX=  1.000000
 ScaDFX=  1.000000  1.000000  1.000000  1.000000 ScalE2=  1.000000  1.000000
 IRadAn=      5 IRanWt=     -1 IRanGd=            0 ICorTp=0
  HFx wShort=  0.000000 wLong=  1.350000 cFull=  0.000000 cShort=  0.000000 cLong=  1.000000
  DFx wShort=  0.000000 wLong=  1.350000 cFull=  0.000000 cShort=  0.000000 cLong=  1.000000
 NAtoms=    5 NActive=    5 NUniq=    5 SFac= 1.00D+00 NAtFMM=   60 NAOKFM=F Big=F
 Leave Link  301 at Mon May 11 14:10:15 2020, MaxMem= 1073741824 cpu:       0.2
 (Enter /home/matheus/.gaussian/g09/l302.exe)
 NPDir=0 NMtPBC=     1 NCelOv=     1 NCel=       1 NClECP=     1 NCelD=      1
         NCelK=      1 NCelE2=     1 NClLst=     1 CellRange=     0.0.
 One-electron integrals computed using PRISM.
 NBasis=   197 RedAO= T  NBF=   197
 NBsUse=   197 1.00D-06 NBFU=   197
 Precomputing XC quadrature grid using
 IXCGrd= 2 IRadAn=           5 IRanWt=          -1 IRanGd=           0 AccXCQ= 0.00D+00.
 NRdTot=     427 NPtTot=      123512 NUsed=      126579 NTot=      126611
 NSgBfM=   229   229   229   229   229 NAtAll=     5     5.
 Leave Link  302 at Mon May 11 14:10:15 2020, MaxMem= 1073741824 cpu:       1.0
 (Enter /home/matheus/.gaussian/g09/l303.exe)
 DipDrv:  MaxL=1.
 Leave Link  303 at Mon May 11 14:10:15 2020, MaxMem= 1073741824 cpu:       0.2
 (Enter /home/matheus/.gaussian/g09/l401.exe)
 Harris functional with IExCor=10402 diagonalized for initial guess.
 ExpMin= 2.53D-02 ExpMax= 1.17D+07 ExpMxC= 1.33D+04 IAcc=3 IRadAn=         5 AccDes= 0.00D+00
 HarFok:  IExCor=10402 AccDes= 0.00D+00 IRadAn=         5 IDoV= 1
 ScaDFX=  1.000000  1.000000  1.000000  1.000000
 FoFCou: FMM=F IPFlag=           0 FMFlag=      100000 FMFlg1=           0
         NFxFlg=           0 DoJE=T BraDBF=F KetDBF=T FulRan=T
         Omega=  0.000000  0.000000  1.000000  0.000000  0.000000 ICntrl=     500 IOpCl=  0
         NMat0=    1 NMatS0=    1 NMatT0=    0 NMatD0=    1 NMtDS0=    0 NMtDT0=    0
         I1Cent=           4 NGrid=           0.
 Petite list used in FoFCou.
 Harris En= -2874.93139590626    
 Initial guess orbital symmetries:
       Occupied  (A) (A) (A) (A) (A) (A) (A) (A) (A) (A) (A) (A)
                 (A) (A) (A) (A) (A) (A) (A) (A) (A) (A) (A) (A)
                 (A) (A) (A)
       Virtual   (A) (A) (A) (A) (A) (A) (A) (A) (A) (A) (A) (A)
                 (A) (A) (A) (A) (A) (A) (A) (A) (A) (A) (A) (A)
                 (A) (A) (A) (A) (A) (A) (A) (A) (A) (A) (A) (A)
                 (A) (A) (A) (A) (A) (A) (A) (A) (A) (A) (A) (A)
                 (A) (A) (A) (A) (A) (A) (A) (A) (A) (A) (A) (A)
                 (A) (A) (A) (A) (A) (A) (A) (A) (A) (A) (A) (A)
                 (A) (A) (A) (A) (A) (A) (A) (A) (A) (A) (A) (A)
                 (A) (A) (A) (A) (A) (A) (A) (A) (A) (A) (A) (A)
                 (A) (A) (A) (A) (A) (A) (A) (A) (A) (A) (A) (A)
                 (A) (A) (A) (A) (A) (A) (A) (A) (A) (A) (A) (A)
                 (A) (A) (A) (A) (A) (A) (A) (A) (A) (A) (A) (A)
                 (A) (A) (A) (A) (A) (A) (A) (A) (A) (A) (A) (A)
                 (A) (A) (A) (A) (A) (A) (A) (A) (A) (A) (A) (A)
                 (A) (A) (A) (A) (A) (A) (A) (A) (A) (A) (A) (A)
                 (A) (A)
 The electronic state of the initial guess is 1-A.
 Leave Link  401 at Mon May 11 14:10:16 2020, MaxMem= 1073741824 cpu:       3.9
 (Enter /home/matheus/.gaussian/g09/l502.exe)
 Closed shell SCF:
 Requested convergence on RMS density matrix=1.00D-08 within 128 cycles.
 Requested convergence on MAX density matrix=1.00D-06.
 Requested convergence on             energy=1.00D-06.
 No special actions if energy rises.
 Using DIIS extrapolation, IDIIS=  1040.
 Integral symmetry usage will be decided dynamically.
       126521 words used for storage of precomputed grid.
 IEnd=      305468 IEndB=      305468 NGot=  1073741824 MDV=  1073505667
 LenX=  1073505667 LenY=  1073452785
 Fock matrices will be formed incrementally for  20 cycles.

 Cycle   1  Pass 1  IDiag  1:
 FoFJK:  IHMeth= 1 ICntrl=     0 DoSepK=T KAlg= 1 I1Cent= 0 FoldK=F
 FoFCou: FMM=F IPFlag=           0 FMFlag=      100000 FMFlg1=           0
         NFxFlg=           0 DoJE=T BraDBF=F KetDBF=F FulRan=T
         Omega=  0.000000  0.000000  1.000000  0.000000  0.000000 ICntrl=     500 IOpCl=  0
         NMat0=    1 NMatS0=    1 NMatT0=    0 NMatD0=    1 NMtDS0=    0 NMtDT0=    0
         I1Cent=           0 NGrid=           0.
 Symmetry not used in FoFCou.
 E= -2898.48185047306    
 DIIS: error= 1.36D-01 at cycle   1 NSaved=   1.
 NSaved= 1 IEnMin= 1 EnMin= -2898.48185047306     IErMin= 1 ErrMin= 1.36D-01
 ErrMax= 1.36D-01 EMaxC= 1.00D-01 BMatC= 3.87D+00 BMatP= 3.87D+00
 IDIUse=3 WtCom= 0.00D+00 WtEn= 1.00D+00
 Coeff-Com:  0.100D+01
 Coeff-En:   0.100D+01
 Coeff:      0.100D+01
 Gap=    -1.022 Goal=   None    Shift=    0.000
 GapD=   -1.022 DampG=0.250 DampE=0.250 DampFc=0.2500 IDamp=-1.
 Damping current iteration by 2.50D-01
 RMSDP=1.10D-01 MaxDP=9.51D+00              OVMax= 9.96D-01

 Cycle   2  Pass 1  IDiag  1:
 RMSU=  4.47D-03    CP:  7.62D-01
 FoFJK:  IHMeth= 1 ICntrl=     0 DoSepK=T KAlg= 1 I1Cent= 0 FoldK=F
 E= -2900.80187750232     Delta-E=       -2.320027029260 Rises=F Damp=T
 DIIS: error= 5.87D-02 at cycle   2 NSaved=   2.
 NSaved= 2 IEnMin= 2 EnMin= -2900.80187750232     IErMin= 2 ErrMin= 5.87D-02
 ErrMax= 5.87D-02 EMaxC= 1.00D-01 BMatC= 1.04D+00 BMatP= 3.87D+00
 IDIUse=3 WtCom= 4.13D-01 WtEn= 5.87D-01
 Coeff-Com: -0.757D+00 0.176D+01
 Coeff-En:   0.000D+00 0.100D+01
 Coeff:     -0.313D+00 0.131D+01
 Gap=     0.117 Goal=   None    Shift=    0.000
 RMSDP=8.25D-02 MaxDP=7.13D+00 DE=-2.32D+00 OVMax= 9.94D-01

 Cycle   3  Pass 1  IDiag  1:
 RMSU=  5.96D-03    CP:  4.72D-02  3.00D+00
 FoFJK:  IHMeth= 1 ICntrl=     0 DoSepK=T KAlg= 1 I1Cent= 0 FoldK=F
 E= -2904.22032002684     Delta-E=       -3.418442524524 Rises=F Damp=F
 DIIS: error= 3.30D-02 at cycle   3 NSaved=   3.
 NSaved= 3 IEnMin= 3 EnMin= -2904.22032002684     IErMin= 3 ErrMin= 3.30D-02
 ErrMax= 3.30D-02 EMaxC= 1.00D-01 BMatC= 6.09D-01 BMatP= 1.04D+00
 IDIUse=3 WtCom= 6.70D-01 WtEn= 3.30D-01
 Coeff-Com: -0.473D-02 0.426D+00 0.579D+00
 Coeff-En:   0.000D+00 0.000D+00 0.100D+01
 Coeff:     -0.317D-02 0.286D+00 0.717D+00
 Gap=     0.637 Goal=   None    Shift=    0.000
 RMSDP=2.52D-03 MaxDP=8.72D-02 DE=-3.42D+00 OVMax= 1.13D-01

 Cycle   4  Pass 1  IDiag  1:
 RMSU=  1.78D-03    CP:  4.68D-02  3.00D+00  9.84D-01
 FoFJK:  IHMeth= 1 ICntrl=     0 DoSepK=T KAlg= 1 I1Cent= 0 FoldK=F
 E= -2904.61107143738     Delta-E=       -0.390751410538 Rises=F Damp=F
 DIIS: error= 4.39D-03 at cycle   4 NSaved=   4.
 NSaved= 4 IEnMin= 4 EnMin= -2904.61107143738     IErMin= 4 ErrMin= 4.39D-03
 ErrMax= 4.39D-03 EMaxC= 1.00D-01 BMatC= 1.08D-02 BMatP= 6.09D-01
 IDIUse=3 WtCom= 9.56D-01 WtEn= 4.39D-02
 Coeff-Com: -0.400D-02 0.388D-01 0.585D-01 0.907D+00
 Coeff-En:   0.000D+00 0.000D+00 0.000D+00 0.100D+01
 Coeff:     -0.383D-02 0.371D-01 0.560D-01 0.911D+00
 Gap=     0.531 Goal=   None    Shift=    0.000
 RMSDP=6.23D-04 MaxDP=2.04D-02 DE=-3.91D-01 OVMax= 2.09D-02

 Cycle   5  Pass 1  IDiag  1:
 RMSU=  4.24D-04    CP:  4.69D-02  3.00D+00  9.83D-01  1.07D+00
 FoFJK:  IHMeth= 1 ICntrl=     0 DoSepK=T KAlg= 1 I1Cent= 0 FoldK=F
 E= -2904.61957816984     Delta-E=       -0.008506732462 Rises=F Damp=F
 DIIS: error= 1.28D-03 at cycle   5 NSaved=   5.
 NSaved= 5 IEnMin= 5 EnMin= -2904.61957816984     IErMin= 5 ErrMin= 1.28D-03
 ErrMax= 1.28D-03 EMaxC= 1.00D-01 BMatC= 7.31D-04 BMatP= 1.08D-02
 IDIUse=3 WtCom= 9.87D-01 WtEn= 1.28D-02
 Coeff-Com: -0.162D-01 0.358D-01-0.755D-02-0.290D-01 0.102D+01
 Coeff-En:   0.000D+00 0.000D+00 0.000D+00 0.000D+00 0.100D+01
 Coeff:     -0.160D-01 0.354D-01-0.745D-02-0.287D-01 0.102D+01
 Gap=     0.544 Goal=   None    Shift=    0.000
 RMSDP=1.66D-04 MaxDP=5.73D-03 DE=-8.51D-03 OVMax= 6.81D-03

 Cycle   6  Pass 1  IDiag  1:
 RMSU=  9.23D-05    CP:  4.69D-02  3.00D+00  9.81D-01  1.08D+00  1.16D+00
 FoFJK:  IHMeth= 1 ICntrl=     0 DoSepK=T KAlg= 1 I1Cent= 0 FoldK=F
 E= -2904.62029705586     Delta-E=       -0.000718886019 Rises=F Damp=F
 DIIS: error= 6.32D-04 at cycle   6 NSaved=   6.
 NSaved= 6 IEnMin= 6 EnMin= -2904.62029705586     IErMin= 6 ErrMin= 6.32D-04
 ErrMax= 6.32D-04 EMaxC= 1.00D-01 BMatC= 1.91D-04 BMatP= 7.31D-04
 IDIUse=3 WtCom= 9.94D-01 WtEn= 6.32D-03
 Coeff-Com: -0.496D-02 0.110D-01-0.930D-02-0.583D-01 0.250D+00 0.811D+00
 Coeff-En:   0.000D+00 0.000D+00 0.000D+00 0.000D+00 0.000D+00 0.100D+01
 Coeff:     -0.492D-02 0.110D-01-0.924D-02-0.579D-01 0.248D+00 0.813D+00
 Gap=     0.546 Goal=   None    Shift=    0.000
 RMSDP=6.40D-05 MaxDP=1.71D-03 DE=-7.19D-04 OVMax= 4.24D-03

 Cycle   7  Pass 1  IDiag  1:
 RMSU=  2.98D-05    CP:  4.69D-02  3.00D+00  9.81D-01  1.09D+00  1.22D+00
                    CP:  1.08D+00
 FoFJK:  IHMeth= 1 ICntrl=     0 DoSepK=T KAlg= 1 I1Cent= 0 FoldK=F
 E= -2904.62049048375     Delta-E=       -0.000193427888 Rises=F Damp=F
 DIIS: error= 3.15D-04 at cycle   7 NSaved=   7.
 NSaved= 7 IEnMin= 7 EnMin= -2904.62049048375     IErMin= 7 ErrMin= 3.15D-04
 ErrMax= 3.15D-04 EMaxC= 1.00D-01 BMatC= 3.72D-05 BMatP= 1.91D-04
 IDIUse=3 WtCom= 9.97D-01 WtEn= 3.15D-03
 Coeff-Com:  0.159D-02-0.321D-02-0.437D-02-0.157D-01-0.872D-01 0.255D+00
 Coeff-Com:  0.854D+00
 Coeff-En:   0.000D+00 0.000D+00 0.000D+00 0.000D+00 0.000D+00 0.000D+00
 Coeff-En:   0.100D+01
 Coeff:      0.159D-02-0.320D-02-0.436D-02-0.157D-01-0.869D-01 0.254D+00
 Coeff:      0.855D+00
 Gap=     0.546 Goal=   None    Shift=    0.000
 RMSDP=3.60D-05 MaxDP=8.51D-04 DE=-1.93D-04 OVMax= 2.90D-03

 Cycle   8  Pass 1  IDiag  1:
 RMSU=  1.44D-05    CP:  4.69D-02  3.00D+00  9.81D-01  1.10D+00  1.25D+00
                    CP:  1.19D+00  1.15D+00
 FoFJK:  IHMeth= 1 ICntrl=     0 DoSepK=T KAlg= 1 I1Cent= 0 FoldK=F
 E= -2904.62054092334     Delta-E=       -0.000050439592 Rises=F Damp=F
 DIIS: error= 8.38D-05 at cycle   8 NSaved=   8.
 NSaved= 8 IEnMin= 8 EnMin= -2904.62054092334     IErMin= 8 ErrMin= 8.38D-05
 ErrMax= 8.38D-05 EMaxC= 1.00D-01 BMatC= 2.90D-06 BMatP= 3.72D-05
 IDIUse=1 WtCom= 1.00D+00 WtEn= 0.00D+00
 Coeff-Com:  0.134D-02-0.252D-02 0.209D-02 0.828D-02-0.144D-01-0.109D+00
 Coeff-Com: -0.700D-01 0.118D+01
 Coeff:      0.134D-02-0.252D-02 0.209D-02 0.828D-02-0.144D-01-0.109D+00
 Coeff:     -0.700D-01 0.118D+01
 Gap=     0.545 Goal=   None    Shift=    0.000
 RMSDP=1.49D-05 MaxDP=3.70D-04 DE=-5.04D-05 OVMax= 1.97D-03

 Cycle   9  Pass 1  IDiag  1:
 RMSU=  5.27D-06    CP:  4.69D-02  3.00D+00  9.81D-01  1.10D+00  1.25D+00
                    CP:  1.22D+00  1.35D+00  1.43D+00
 FoFJK:  IHMeth= 1 ICntrl=     0 DoSepK=T KAlg= 1 I1Cent= 0 FoldK=F
 E= -2904.62055006061     Delta-E=       -0.000009137269 Rises=F Damp=F
 DIIS: error= 3.91D-05 at cycle   9 NSaved=   9.
 NSaved= 9 IEnMin= 9 EnMin= -2904.62055006061     IErMin= 9 ErrMin= 3.91D-05
 ErrMax= 3.91D-05 EMaxC= 1.00D-01 BMatC= 5.84D-07 BMatP= 2.90D-06
 IDIUse=1 WtCom= 1.00D+00 WtEn= 0.00D+00
 Coeff-Com: -0.196D-03 0.434D-03 0.533D-03 0.127D-02 0.591D-02 0.415D-02
 Coeff-Com: -0.585D-01-0.382D+00 0.143D+01
 Coeff:     -0.196D-03 0.434D-03 0.533D-03 0.127D-02 0.591D-02 0.415D-02
 Coeff:     -0.585D-01-0.382D+00 0.143D+01
 Gap=     0.545 Goal=   None    Shift=    0.000
 RMSDP=8.72D-06 MaxDP=1.86D-04 DE=-9.14D-06 OVMax= 1.28D-03

 Cycle  10  Pass 1  IDiag  1:
 RMSU=  2.05D-06    CP:  4.69D-02  3.00D+00  9.81D-01  1.10D+00  1.25D+00
                    CP:  1.23D+00  1.42D+00  1.68D+00  1.72D+00
 FoFJK:  IHMeth= 1 ICntrl=     0 DoSepK=T KAlg= 1 I1Cent= 0 FoldK=F
 E= -2904.62055241906     Delta-E=       -0.000002358453 Rises=F Damp=F
 DIIS: error= 1.38D-05 at cycle  10 NSaved=  10.
 NSaved=10 IEnMin=10 EnMin= -2904.62055241906     IErMin=10 ErrMin= 1.38D-05
 ErrMax= 1.38D-05 EMaxC= 1.00D-01 BMatC= 7.67D-08 BMatP= 5.84D-07
 IDIUse=1 WtCom= 1.00D+00 WtEn= 0.00D+00
 Coeff-Com: -0.204D-03 0.378D-03-0.427D-03-0.134D-02-0.612D-03 0.152D-01
 Coeff-Com:  0.156D-01-0.160D+00-0.741D-01 0.121D+01
 Coeff:     -0.204D-03 0.378D-03-0.427D-03-0.134D-02-0.612D-03 0.152D-01
 Coeff:      0.156D-01-0.160D+00-0.741D-01 0.121D+01
 Gap=     0.545 Goal=   None    Shift=    0.000
 RMSDP=3.45D-06 MaxDP=7.53D-05 DE=-2.36D-06 OVMax= 5.41D-04

 Cycle  11  Pass 1  IDiag  1:
 RMSU=  7.52D-07    CP:  4.69D-02  3.00D+00  9.81D-01  1.10D+00  1.25D+00
                    CP:  1.23D+00  1.45D+00  1.77D+00  1.99D+00  1.44D+00
 FoFJK:  IHMeth= 1 ICntrl=     0 DoSepK=T KAlg= 1 I1Cent= 0 FoldK=F
 E= -2904.62055274465     Delta-E=       -0.000000325592 Rises=F Damp=F
 DIIS: error= 4.79D-06 at cycle  11 NSaved=  11.
 NSaved=11 IEnMin=11 EnMin= -2904.62055274465     IErMin=11 ErrMin= 4.79D-06
 ErrMax= 4.79D-06 EMaxC= 1.00D-01 BMatC= 7.93D-09 BMatP= 7.67D-08
 IDIUse=1 WtCom= 1.00D+00 WtEn= 0.00D+00
 Coeff-Com: -0.107D-04 0.111D-04 0.230D-06 0.165D-04 0.105D-02-0.399D-02
 Coeff-Com: -0.419D-02 0.624D-01-0.917D-01-0.309D+00 0.135D+01
 Coeff:     -0.107D-04 0.111D-04 0.230D-06 0.165D-04 0.105D-02-0.399D-02
 Coeff:     -0.419D-02 0.624D-01-0.917D-01-0.309D+00 0.135D+01
 Gap=     0.545 Goal=   None    Shift=    0.000
 RMSDP=1.13D-06 MaxDP=2.20D-05 DE=-3.26D-07 OVMax= 1.68D-04

 Cycle  12  Pass 1  IDiag  1:
 RMSU=  2.53D-07    CP:  4.69D-02  3.00D+00  9.81D-01  1.10D+00  1.25D+00
                    CP:  1.23D+00  1.45D+00  1.79D+00  2.05D+00  1.60D+00
                    CP:  1.47D+00
 FoFJK:  IHMeth= 1 ICntrl=     0 DoSepK=T KAlg= 1 I1Cent= 0 FoldK=F
 E= -2904.62055277615     Delta-E=       -0.000000031504 Rises=F Damp=F
 DIIS: error= 1.10D-06 at cycle  12 NSaved=  12.
 NSaved=12 IEnMin=12 EnMin= -2904.62055277615     IErMin=12 ErrMin= 1.10D-06
 ErrMax= 1.10D-06 EMaxC= 1.00D-01 BMatC= 4.40D-10 BMatP= 7.93D-09
 IDIUse=1 WtCom= 1.00D+00 WtEn= 0.00D+00
 Coeff-Com:  0.571D-05-0.120D-04 0.178D-04 0.858D-04-0.382D-03 0.589D-03
 Coeff-Com:  0.120D-02-0.933D-02 0.302D-01 0.930D-02-0.381D+00 0.135D+01
 Coeff:      0.571D-05-0.120D-04 0.178D-04 0.858D-04-0.382D-03 0.589D-03
 Coeff:      0.120D-02-0.933D-02 0.302D-01 0.930D-02-0.381D+00 0.135D+01
 Gap=     0.545 Goal=   None    Shift=    0.000
 RMSDP=2.45D-07 MaxDP=6.00D-06 DE=-3.15D-08 OVMax= 2.71D-05

 Cycle  13  Pass 1  IDiag  1:
 RMSU=  4.87D-08    CP:  4.69D-02  3.00D+00  9.81D-01  1.10D+00  1.25D+00
                    CP:  1.23D+00  1.45D+00  1.80D+00  2.05D+00  1.61D+00
                    CP:  1.59D+00  1.42D+00
 FoFJK:  IHMeth= 1 ICntrl=     0 DoSepK=T KAlg= 1 I1Cent= 0 FoldK=F
 E= -2904.62055277772     Delta-E=       -0.000000001566 Rises=F Damp=F
 DIIS: error= 2.82D-07 at cycle  13 NSaved=  13.
 NSaved=13 IEnMin=13 EnMin= -2904.62055277772     IErMin=13 ErrMin= 2.82D-07
 ErrMax= 2.82D-07 EMaxC= 1.00D-01 BMatC= 2.23D-11 BMatP= 4.40D-10
 IDIUse=1 WtCom= 1.00D+00 WtEn= 0.00D+00
 Coeff-Com:  0.849D-06-0.114D-05-0.111D-05-0.577D-05-0.684D-05 0.874D-04
 Coeff-Com:  0.673D-04-0.136D-02-0.187D-02 0.134D-01-0.168D-02-0.203D+00
 Coeff-Com:  0.119D+01
 Coeff:      0.849D-06-0.114D-05-0.111D-05-0.577D-05-0.684D-05 0.874D-04
 Coeff:      0.673D-04-0.136D-02-0.187D-02 0.134D-01-0.168D-02-0.203D+00
 Coeff:      0.119D+01
 Gap=     0.545 Goal=   None    Shift=    0.000
 RMSDP=4.74D-08 MaxDP=1.35D-06 DE=-1.57D-09 OVMax= 4.06D-06

 Cycle  14  Pass 1  IDiag  1:
 RMSU=  1.00D-08    CP:  4.69D-02  3.00D+00  9.81D-01  1.10D+00  1.25D+00
                    CP:  1.23D+00  1.45D+00  1.80D+00  2.05D+00  1.62D+00
                    CP:  1.60D+00  1.47D+00  1.37D+00
 FoFJK:  IHMeth= 1 ICntrl=     0 DoSepK=T KAlg= 1 I1Cent= 0 FoldK=F
 E= -2904.62055277777     Delta-E=       -0.000000000044 Rises=F Damp=F
 DIIS: error= 6.57D-08 at cycle  14 NSaved=  14.
 NSaved=14 IEnMin=14 EnMin= -2904.62055277777     IErMin=14 ErrMin= 6.57D-08
 ErrMax= 6.57D-08 EMaxC= 1.00D-01 BMatC= 1.40D-12 BMatP= 2.23D-11
 IDIUse=1 WtCom= 1.00D+00 WtEn= 0.00D+00
 Coeff-Com:  0.296D-06-0.442D-06-0.705D-06-0.485D-05 0.315D-04-0.630D-04
 Coeff-Com: -0.118D-03 0.906D-03-0.175D-02-0.238D-02 0.274D-01-0.751D-01
 Coeff-Com: -0.134D+00 0.118D+01
 Coeff:      0.296D-06-0.442D-06-0.705D-06-0.485D-05 0.315D-04-0.630D-04
 Coeff:     -0.118D-03 0.906D-03-0.175D-02-0.238D-02 0.274D-01-0.751D-01
 Coeff:     -0.134D+00 0.118D+01
 Gap=     0.545 Goal=   None    Shift=    0.000
 RMSDP=1.10D-08 MaxDP=3.33D-07 DE=-4.41D-11 OVMax= 1.27D-06

 Cycle  15  Pass 1  IDiag  1:
 RMSU=  3.43D-09    CP:  4.69D-02  3.00D+00  9.81D-01  1.10D+00  1.25D+00
                    CP:  1.23D+00  1.45D+00  1.80D+00  2.05D+00  1.62D+00
                    CP:  1.60D+00  1.47D+00  1.46D+00  1.40D+00
 FoFJK:  IHMeth= 1 ICntrl=     0 DoSepK=T KAlg= 1 I1Cent= 0 FoldK=F
 E= -2904.62055277777     Delta-E=       -0.000000000004 Rises=F Damp=F
 DIIS: error= 1.62D-08 at cycle  15 NSaved=  15.
 NSaved=15 IEnMin=15 EnMin= -2904.62055277777     IErMin=15 ErrMin= 1.62D-08
 ErrMax= 1.62D-08 EMaxC= 1.00D-01 BMatC= 8.54D-14 BMatP= 1.40D-12
 IDIUse=1 WtCom= 1.00D+00 WtEn= 0.00D+00
 Coeff-Com:  0.487D-07-0.878D-07 0.157D-06 0.126D-05-0.781D-05 0.109D-04
 Coeff-Com:  0.359D-04-0.131D-03 0.345D-03 0.360D-04-0.534D-02 0.236D-01
 Coeff-Com: -0.313D-01-0.214D+00 0.123D+01
 Coeff:      0.487D-07-0.878D-07 0.157D-06 0.126D-05-0.781D-05 0.109D-04
 Coeff:      0.359D-04-0.131D-03 0.345D-03 0.360D-04-0.534D-02 0.236D-01
 Coeff:     -0.313D-01-0.214D+00 0.123D+01
 Gap=     0.545 Goal=   None    Shift=    0.000
 RMSDP=3.07D-09 MaxDP=8.54D-08 DE=-3.64D-12 OVMax= 2.44D-07

 SCF Done:  E(RLC-B+HF-LYP) =  -2904.62055278     A.U. after   15 cycles
             Convg  =    0.3066D-08             -V/T =  2.0016
 KE= 2.899956032637D+03 PE=-7.235547637893D+03 EE= 1.281842675489D+03
 Leave Link  502 at Mon May 11 14:11:00 2020, MaxMem= 1073741824 cpu:     356.0
 (Enter /home/matheus/.gaussian/g09/l601.exe)
 Copying SCF densities to generalized density rwf, IOpCl= 0 IROHF=0.

 **********************************************************************

            Population analysis using the SCF density.

 **********************************************************************

 Orbital symmetries:
       Occupied  (A) (A) (A) (A) (A) (A) (A) (A) (A) (A) (A) (A)
                 (A) (A) (A) (A) (A) (A) (A) (A) (A) (A) (A) (A)
                 (A) (A) (A)
       Virtual   (A) (A) (A) (A) (A) (A) (A) (A) (A) (A) (A) (A)
                 (A) (A) (A) (A) (A) (A) (A) (A) (A) (A) (A) (A)
                 (A) (A) (A) (A) (A) (A) (A) (A) (A) (A) (A) (A)
                 (A) (A) (A) (A) (A) (A) (A) (A) (A) (A) (A) (A)
                 (A) (A) (A) (A) (A) (A) (A) (A) (A) (A) (A) (A)
                 (A) (A) (A) (A) (A) (A) (A) (A) (A) (A) (A) (A)
                 (A) (A) (A) (A) (A) (A) (A) (A) (A) (A) (A) (A)
                 (A) (A) (A) (A) (A) (A) (A) (A) (A) (A) (A) (A)
                 (A) (A) (A) (A) (A) (A) (A) (A) (A) (A) (A) (A)
                 (A) (A) (A) (A) (A) (A) (A) (A) (A) (A) (A) (A)
                 (A) (A) (A) (A) (A) (A) (A) (A) (A) (A) (A) (A)
                 (A) (A) (A) (A) (A) (A) (A) (A) (A) (A) (A) (A)
                 (A) (A) (A) (A) (A) (A) (A) (A) (A) (A) (A) (A)
                 (A) (A) (A) (A) (A) (A) (A) (A) (A) (A) (A) (A)
                 (A) (A)
 The electronic state is 1-A.
 Alpha  occ. eigenvalues -- -511.66902 -67.19400 -60.86606 -60.86591 -60.86580
 Alpha  occ. eigenvalues --  -19.48404 -19.48109 -10.09530  -7.81129  -7.81090
 Alpha  occ. eigenvalues --   -7.81060  -3.64090  -3.64083  -3.64059  -3.64027
 Alpha  occ. eigenvalues --   -3.64024  -1.46222  -1.21494  -1.18948  -0.76608
 Alpha  occ. eigenvalues --   -0.71849  -0.63694  -0.57359  -0.56783  -0.56262
 Alpha  occ. eigenvalues --   -0.52586  -0.51854
 Alpha virt. eigenvalues --    0.02667   0.03837   0.07797   0.08978   0.10687
 Alpha virt. eigenvalues --    0.11256   0.13209   0.13875   0.16408   0.17289
 Alpha virt. eigenvalues --    0.17714   0.19666   0.21389   0.23087   0.24242
 Alpha virt. eigenvalues --    0.24814   0.25925   0.28880   0.31516   0.33126
 Alpha virt. eigenvalues --    0.33827   0.35477   0.36369   0.39465   0.39796
 Alpha virt. eigenvalues --    0.41534   0.44255   0.48821   0.54064   0.56653
 Alpha virt. eigenvalues --    0.57496   0.61876   0.63516   0.66875   0.71048
 Alpha virt. eigenvalues --    0.72818   0.74711   0.75857   0.78465   0.79250
 Alpha virt. eigenvalues --    0.79437   0.80212   0.82382   0.83806   0.86172
 Alpha virt. eigenvalues --    0.87500   0.88386   0.90489   0.91273   0.93296
 Alpha virt. eigenvalues --    0.95800   0.96358   0.97231   0.99040   1.01630
 Alpha virt. eigenvalues --    1.03746   1.06777   1.10597   1.10998   1.13212
 Alpha virt. eigenvalues --    1.13880   1.19751   1.21804   1.23876   1.26848
 Alpha virt. eigenvalues --    1.29320   1.32890   1.40587   1.43504   1.47210
 Alpha virt. eigenvalues --    1.50049   1.54871   1.56664   1.58530   1.65114
 Alpha virt. eigenvalues --    1.74826   1.80450   1.91307   2.00792   2.04913
 Alpha virt. eigenvalues --    2.09081   2.13414   2.17460   2.23009   2.26967
 Alpha virt. eigenvalues --    2.28467   2.29239   2.30559   2.34540   2.38116
 Alpha virt. eigenvalues --    2.39901   2.41036   2.44988   2.45575   2.46272
 Alpha virt. eigenvalues --    2.49798   2.52866   2.55952   2.57554   2.60543
 Alpha virt. eigenvalues --    2.64074   2.64293   2.65386   2.68422   2.71555
 Alpha virt. eigenvalues --    2.72710   2.74777   2.76456   2.81353   2.83605
 Alpha virt. eigenvalues --    2.87342   2.89204   2.90799   2.98010   3.01761
 Alpha virt. eigenvalues --    3.06402   3.19005   3.25080   3.27896   3.76355
 Alpha virt. eigenvalues --    3.80919   4.03385   4.09419   4.18342   4.27046
 Alpha virt. eigenvalues --    4.28471   4.33028   4.36812   4.41103   4.42033
 Alpha virt. eigenvalues --    4.49049   4.66481   4.69178   4.73157   4.84738
 Alpha virt. eigenvalues --    5.07491   5.13656   5.17147   5.33516   5.34458
 Alpha virt. eigenvalues --    5.40445   5.66378   6.06412   6.27793   6.36439
 Alpha virt. eigenvalues --    6.41244   6.53861   6.55949   6.70738   6.75835
 Alpha virt. eigenvalues --    6.82718   7.04766   7.06263   7.06751   7.10010
 Alpha virt. eigenvalues --    7.13169   7.14378   7.16567   7.23463   7.26574
 Alpha virt. eigenvalues --    7.33996   7.40287   7.49085   7.70609   7.90521
 Alpha virt. eigenvalues --    8.06288   8.35388   8.38522  14.24362  14.88779
          Condensed to atoms (all electrons):
              1          2          3          4          5
     1  O    8.229819  -0.170589   0.196607  -0.006185  -0.029212
     2  O   -0.170589   8.236171   0.007202   0.195651  -0.010795
     3  H    0.196607   0.007202   0.566789   0.001730  -0.000016
     4  H   -0.006185   0.195651   0.001730   0.574391  -0.011646
     5  Kr  -0.029212  -0.010795  -0.000016  -0.011646  36.047334
 Mulliken atomic charges:
              1
     1  O   -0.220441
     2  O   -0.257640
     3  H    0.227687
     4  H    0.246059
     5  Kr   0.004335
 Sum of Mulliken atomic charges =   0.00000
 Mulliken charges with hydrogens summed into heavy atoms:
              1
     1  O    0.007246
     2  O   -0.011581
     5  Kr   0.004335
 Sum of Mulliken charges with hydrogens summed into heavy atoms =   0.00000
          Condensed to fragments (all electrons):
     1      -0.004335
     2       0.004335
 Electronic spatial extent (au):  <R**2>=            485.0522
 Charge=              0.0000 electrons
 Dipole moment (field-independent basis, Debye):
    X=             -1.5662    Y=             -0.4094    Z=              1.6152  Tot=              2.2868
 Quadrupole moment (field-independent basis, Debye-Ang):
   XX=            -33.5363   YY=            -27.6067   ZZ=            -28.6662
   XY=             -2.8079   XZ=              3.7870   YZ=             -1.9338
 Traceless Quadrupole moment (field-independent basis, Debye-Ang):
   XX=             -3.5999   YY=              2.3297   ZZ=              1.2702
   XY=             -2.8079   XZ=              3.7870   YZ=             -1.9338
 Octapole moment (field-independent basis, Debye-Ang**2):
  XXX=            -29.7114  YYY=             -1.1161  ZZZ=              1.3907  XYY=             -4.5079
  XXY=             -9.3516  XXZ=              8.2984  XZZ=             -4.6846  YZZ=             -1.8782
  YYZ=              2.4305  XYZ=             -4.4551
 Hexadecapole moment (field-independent basis, Debye-Ang**3):
 XXXX=           -435.8892 YYYY=            -61.4241 ZZZZ=            -28.3945 XXXY=            -22.2885
 XXXZ=             19.7689 YYYX=             -5.0373 YYYZ=             -2.8204 ZZZX=              3.5962
 ZZZY=             -2.0802 XXYY=            -78.0988 XXZZ=            -69.6431 YYZZ=            -15.2763
 XXYZ=            -10.3302 YYXZ=              5.3686 ZZXY=             -3.9086
 N-N= 1.491283769891D+02 E-N=-7.235547638526D+03  KE= 2.899956032637D+03
 No NMR shielding tensors so no spin-rotation constants.
 Leave Link  601 at Mon May 11 14:11:00 2020, MaxMem= 1073741824 cpu:       0.7
 (Enter /home/matheus/.gaussian/g09/l122.exe)
 Counterpoise: doing DCBS calculation for fragment   1 NewBq=T
 Leave Link  122 at Mon May 11 14:11:00 2020, MaxMem= 1073741824 cpu:       0.0
 (Enter /home/matheus/.gaussian/g09/l301.exe)
 Basis read from rwf:  (5D, 7F)
 No pseudopotential information found on rwf file.
 There are   197 symmetry adapted basis functions of A   symmetry.
 Integral buffers will be    131072 words long.
 Raffenetti 2 integral format.
 Two-electron integral symmetry is turned on.
   197 basis functions,   415 primitive gaussians,   229 cartesian basis functions
     9 alpha electrons        9 beta electrons
       nuclear repulsion energy        36.6212539076 Hartrees.
 IExCor=10402 DFT=T Ex=LC-B+HF Corr=LYP ExCW=0 ScaHFX=  1.000000
 ScaDFX=  1.000000  1.000000  1.000000  1.000000 ScalE2=  1.000000  1.000000
 IRadAn=      5 IRanWt=     -1 IRanGd=            0 ICorTp=0
  HFx wShort=  0.000000 wLong=  1.350000 cFull=  0.000000 cShort=  0.000000 cLong=  1.000000
  DFx wShort=  0.000000 wLong=  1.350000 cFull=  0.000000 cShort=  0.000000 cLong=  1.000000
 NAtoms=    5 NActive=    5 NUniq=    5 SFac= 1.00D+00 NAtFMM=   60 NAOKFM=F Big=F
 No density basis found on file   718.
 Leave Link  301 at Mon May 11 14:11:00 2020, MaxMem= 1073741824 cpu:       0.2
 (Enter /home/matheus/.gaussian/g09/l302.exe)
 NPDir=0 NMtPBC=     1 NCelOv=     1 NCel=       1 NClECP=     1 NCelD=      1
         NCelK=      1 NCelE2=     1 NClLst=     1 CellRange=     0.0.
 One-electron integrals computed using PRISM.
 NBasis=   197 RedAO= T  NBF=   197
 NBsUse=   197 1.00D-06 NBFU=   197
 Precomputing XC quadrature grid using
 IXCGrd= 2 IRadAn=           5 IRanWt=          -1 IRanGd=           0 AccXCQ= 0.00D+00.
 NRdTot=     427 NPtTot=      123512 NUsed=      126579 NTot=      126611
 NSgBfM=   229   229   229   229   229 NAtAll=     5     5.
 Leave Link  302 at Mon May 11 14:11:00 2020, MaxMem= 1073741824 cpu:       0.9
 (Enter /home/matheus/.gaussian/g09/l303.exe)
 DipDrv:  MaxL=1.
 Leave Link  303 at Mon May 11 14:11:01 2020, MaxMem= 1073741824 cpu:       0.2
 (Enter /home/matheus/.gaussian/g09/l401.exe)
 Harris functional with IExCor=10402 diagonalized for initial guess.
 ExpMin= 2.53D-02 ExpMax= 1.17D+07 ExpMxC= 1.33D+04 IAcc=3 IRadAn=         5 AccDes= 0.00D+00
 HarFok:  IExCor=10402 AccDes= 0.00D+00 IRadAn=         5 IDoV= 1
 ScaDFX=  1.000000  1.000000  1.000000  1.000000
 FoFCou: FMM=F IPFlag=           0 FMFlag=      100000 FMFlg1=           0
         NFxFlg=           0 DoJE=T BraDBF=F KetDBF=T FulRan=T
         Omega=  0.000000  0.000000  1.000000  0.000000  0.000000 ICntrl=     500 IOpCl=  0
         NMat0=    1 NMatS0=    1 NMatT0=    0 NMatD0=    1 NMtDS0=    0 NMtDT0=    0
         I1Cent=           4 NGrid=           0.
 Petite list used in FoFCou.
 Harris En= -143.244854620781    
 Initial guess orbital symmetries:
       Occupied  (A) (A) (A) (A) (A) (A) (A) (A) (A)
       Virtual   (A) (A) (A) (A) (A) (A) (A) (A) (A) (A) (A) (A)
                 (A) (A) (A) (A) (A) (A) (A) (A) (A) (A) (A) (A)
                 (A) (A) (A) (A) (A) (A) (A) (A) (A) (A) (A) (A)
                 (A) (A) (A) (A) (A) (A) (A) (A) (A) (A) (A) (A)
                 (A) (A) (A) (A) (A) (A) (A) (A) (A) (A) (A) (A)
                 (A) (A) (A) (A) (A) (A) (A) (A) (A) (A) (A) (A)
                 (A) (A) (A) (A) (A) (A) (A) (A) (A) (A) (A) (A)
                 (A) (A) (A) (A) (A) (A) (A) (A) (A) (A) (A) (A)
                 (A) (A) (A) (A) (A) (A) (A) (A) (A) (A) (A) (A)
                 (A) (A) (A) (A) (A) (A) (A) (A) (A) (A) (A) (A)
                 (A) (A) (A) (A) (A) (A) (A) (A) (A) (A) (A) (A)
                 (A) (A) (A) (A) (A) (A) (A) (A) (A) (A) (A) (A)
                 (A) (A) (A) (A) (A) (A) (A) (A) (A) (A) (A) (A)
                 (A) (A) (A) (A) (A) (A) (A) (A) (A) (A) (A) (A)
                 (A) (A) (A) (A) (A) (A) (A) (A) (A) (A) (A) (A)
                 (A) (A) (A) (A) (A) (A) (A) (A)
 The electronic state of the initial guess is 1-A.
 Leave Link  401 at Mon May 11 14:11:01 2020, MaxMem= 1073741824 cpu:       3.6
 (Enter /home/matheus/.gaussian/g09/l502.exe)
 Closed shell SCF:
 Requested convergence on RMS density matrix=1.00D-08 within 128 cycles.
 Requested convergence on MAX density matrix=1.00D-06.
 Requested convergence on             energy=1.00D-06.
 No special actions if energy rises.
 Using DIIS extrapolation, IDIIS=  1040.
 Integral symmetry usage will be decided dynamically.
       126521 words used for storage of precomputed grid.
 IEnd=      305468 IEndB=      305468 NGot=  1073741824 MDV=  1073505667
 LenX=  1073505667 LenY=  1073452785
 Fock matrices will be formed incrementally for  20 cycles.

 Cycle   1  Pass 1  IDiag  1:
 FoFJK:  IHMeth= 1 ICntrl=     0 DoSepK=T KAlg= 1 I1Cent= 0 FoldK=F
 FoFCou: FMM=F IPFlag=           0 FMFlag=      100000 FMFlg1=           0
         NFxFlg=           0 DoJE=T BraDBF=F KetDBF=F FulRan=T
         Omega=  0.000000  0.000000  1.000000  0.000000  0.000000 ICntrl=     500 IOpCl=  0
         NMat0=    1 NMatS0=    1 NMatT0=    0 NMatD0=    1 NMtDS0=    0 NMtDT0=    0
         I1Cent=           0 NGrid=           0.
 Symmetry not used in FoFCou.
 E= -145.672460332722    
 DIIS: error= 1.34D-01 at cycle   1 NSaved=   1.
 NSaved= 1 IEnMin= 1 EnMin= -145.672460332722     IErMin= 1 ErrMin= 1.34D-01
 ErrMax= 1.34D-01 EMaxC= 1.00D-01 BMatC= 2.70D+00 BMatP= 2.70D+00
 IDIUse=3 WtCom= 0.00D+00 WtEn= 1.00D+00
 Coeff-Com:  0.100D+01
 Coeff-En:   0.100D+01
 Coeff:      0.100D+01
 Gap=    -0.084 Goal=   None    Shift=    0.000
 GapD=   -0.084 DampG=0.250 DampE=0.250 DampFc=0.2500 IDamp=-1.
 Damping current iteration by 2.50D-01
 RMSDP=9.37D-02 MaxDP=7.66D+00              OVMax= 9.98D-01

 Cycle   2  Pass 1  IDiag  1:
 RMSU=  1.82D-03    CP:  7.52D-01
 FoFJK:  IHMeth= 1 ICntrl=     0 DoSepK=T KAlg= 1 I1Cent= 0 FoldK=F
 E= -147.783550095379     Delta-E=       -2.111089762657 Rises=F Damp=T
 DIIS: error= 7.03D-02 at cycle   2 NSaved=   2.
 NSaved= 2 IEnMin= 2 EnMin= -147.783550095379     IErMin= 2 ErrMin= 7.03D-02
 ErrMax= 7.03D-02 EMaxC= 1.00D-01 BMatC= 7.14D-01 BMatP= 2.70D+00
 IDIUse=3 WtCom= 2.97D-01 WtEn= 7.03D-01
 Coeff-Com: -0.966D+00 0.197D+01
 Coeff-En:   0.000D+00 0.100D+01
 Coeff:     -0.287D+00 0.129D+01
 Gap=     0.361 Goal=   None    Shift=    0.000
 RMSDP=7.02D-02 MaxDP=5.74D+00 DE=-2.11D+00 OVMax= 1.15D-01

 Cycle   3  Pass 1  IDiag  1:
 RMSU=  2.14D-03    CP:  8.40D-03  3.00D+00
 FoFJK:  IHMeth= 1 ICntrl=     0 DoSepK=T KAlg= 1 I1Cent= 0 FoldK=F
 E= -150.490990962948     Delta-E=       -2.707440867569 Rises=F Damp=F
 DIIS: error= 5.13D-02 at cycle   3 NSaved=   3.
 NSaved= 3 IEnMin= 3 EnMin= -150.490990962948     IErMin= 3 ErrMin= 5.13D-02
 ErrMax= 5.13D-02 EMaxC= 1.00D-01 BMatC= 1.04D+00 BMatP= 7.14D-01
 IDIUse=2 WtCom= 0.00D+00 WtEn= 1.00D+00
 Coeff-En:   0.176D-01 0.000D+00 0.982D+00
 Coeff:      0.176D-01 0.000D+00 0.982D+00
 Gap=     0.819 Goal=   None    Shift=    0.000
 RMSDP=4.14D-03 MaxDP=1.50D-01 DE=-2.71D+00 OVMax= 3.01D-01

 Cycle   4  Pass 1  IDiag  1:
 RMSU=  2.90D-03    CP:  9.55D-03  3.00D+00  1.18D+00
 FoFJK:  IHMeth= 1 ICntrl=     0 DoSepK=T KAlg= 1 I1Cent= 0 FoldK=F
 E= -150.940878690411     Delta-E=       -0.449887727463 Rises=F Damp=F
 DIIS: error= 3.75D-02 at cycle   4 NSaved=   4.
 NSaved= 4 IEnMin= 4 EnMin= -150.940878690411     IErMin= 4 ErrMin= 3.75D-02
 ErrMax= 3.75D-02 EMaxC= 1.00D-01 BMatC= 4.19D-01 BMatP= 7.14D-01
 IDIUse=3 WtCom= 6.25D-01 WtEn= 3.75D-01
 Coeff-Com: -0.432D+00 0.727D+00 0.189D+00 0.517D+00
 Coeff-En:   0.000D+00 0.000D+00 0.164D+00 0.836D+00
 Coeff:     -0.270D+00 0.454D+00 0.179D+00 0.637D+00
 Gap=     0.608 Goal=   None    Shift=    0.000
 RMSDP=1.94D-03 MaxDP=5.45D-02 DE=-4.50D-01 OVMax= 1.49D-01

 Cycle   5  Pass 1  IDiag  1:
 RMSU=  4.07D-04    CP:  8.66D-03  3.00D+00  1.22D+00  5.50D-01
 FoFJK:  IHMeth= 1 ICntrl=     0 DoSepK=T KAlg= 1 I1Cent= 0 FoldK=F
 E= -151.189134889677     Delta-E=       -0.248256199266 Rises=F Damp=F
 DIIS: error= 9.40D-03 at cycle   5 NSaved=   5.
 NSaved= 5 IEnMin= 5 EnMin= -151.189134889677     IErMin= 5 ErrMin= 9.40D-03
 ErrMax= 9.40D-03 EMaxC= 1.00D-01 BMatC= 3.43D-02 BMatP= 4.19D-01
 IDIUse=3 WtCom= 9.06D-01 WtEn= 9.40D-02
 Coeff-Com: -0.977D-01 0.177D+00-0.146D+00 0.886D-01 0.978D+00
 Coeff-En:   0.000D+00 0.000D+00 0.000D+00 0.000D+00 0.100D+01
 Coeff:     -0.886D-01 0.161D+00-0.132D+00 0.803D-01 0.980D+00
 Gap=     0.554 Goal=   None    Shift=    0.000
 RMSDP=4.55D-04 MaxDP=1.77D-02 DE=-2.48D-01 OVMax= 2.73D-02

 Cycle   6  Pass 1  IDiag  1:
 RMSU=  8.94D-05    CP:  8.84D-03  3.00D+00  1.24D+00  6.55D-01  1.10D+00
 FoFJK:  IHMeth= 1 ICntrl=     0 DoSepK=T KAlg= 1 I1Cent= 0 FoldK=F
 E= -151.212515209094     Delta-E=       -0.023380319417 Rises=F Damp=F
 DIIS: error= 1.99D-03 at cycle   6 NSaved=   6.
 NSaved= 6 IEnMin= 6 EnMin= -151.212515209094     IErMin= 6 ErrMin= 1.99D-03
 ErrMax= 1.99D-03 EMaxC= 1.00D-01 BMatC= 9.81D-04 BMatP= 3.43D-02
 IDIUse=3 WtCom= 9.80D-01 WtEn= 1.99D-02
 Coeff-Com: -0.372D-01 0.720D-01 0.658D-02-0.312D-01-0.397D+00 0.139D+01
 Coeff-En:   0.000D+00 0.000D+00 0.000D+00 0.000D+00 0.000D+00 0.100D+01
 Coeff:     -0.365D-01 0.706D-01 0.645D-02-0.306D-01-0.389D+00 0.138D+01
 Gap=     0.549 Goal=   None    Shift=    0.000
 RMSDP=9.41D-05 MaxDP=2.14D-03 DE=-2.34D-02 OVMax= 6.16D-03

 Cycle   7  Pass 1  IDiag  1:
 RMSU=  2.73D-05    CP:  8.87D-03  3.00D+00  1.24D+00  6.69D-01  1.14D+00
                    CP:  1.47D+00
 FoFJK:  IHMeth= 1 ICntrl=     0 DoSepK=T KAlg= 1 I1Cent= 0 FoldK=F
 E= -151.213232892970     Delta-E=       -0.000717683876 Rises=F Damp=F
 DIIS: error= 1.10D-03 at cycle   7 NSaved=   7.
 NSaved= 7 IEnMin= 7 EnMin= -151.213232892970     IErMin= 7 ErrMin= 1.10D-03
 ErrMax= 1.10D-03 EMaxC= 1.00D-01 BMatC= 3.35D-04 BMatP= 9.81D-04
 IDIUse=3 WtCom= 9.89D-01 WtEn= 1.10D-02
 Coeff-Com: -0.617D-02 0.119D-01 0.854D-02 0.775D-02-0.107D+00-0.376D+00
 Coeff-Com:  0.146D+01
 Coeff-En:   0.000D+00 0.000D+00 0.000D+00 0.000D+00 0.000D+00 0.000D+00
 Coeff-En:   0.100D+01
 Coeff:     -0.611D-02 0.118D-01 0.845D-02 0.767D-02-0.106D+00-0.372D+00
 Coeff:      0.146D+01
 Gap=     0.544 Goal=   None    Shift=    0.000
 RMSDP=7.69D-05 MaxDP=2.10D-03 DE=-7.18D-04 OVMax= 4.97D-03

 Cycle   8  Pass 1  IDiag  1:
 RMSU=  9.92D-06    CP:  8.92D-03  3.00D+00  1.23D+00  6.83D-01  1.13D+00
                    CP:  1.73D+00  1.80D+00
 FoFJK:  IHMeth= 1 ICntrl=     0 DoSepK=T KAlg= 1 I1Cent= 0 FoldK=F
 E= -151.213545853730     Delta-E=       -0.000312960761 Rises=F Damp=F
 DIIS: error= 1.69D-04 at cycle   8 NSaved=   8.
 NSaved= 8 IEnMin= 8 EnMin= -151.213545853730     IErMin= 8 ErrMin= 1.69D-04
 ErrMax= 1.69D-04 EMaxC= 1.00D-01 BMatC= 7.55D-06 BMatP= 3.35D-04
 IDIUse=3 WtCom= 9.98D-01 WtEn= 1.69D-03
 Coeff-Com: -0.505D-03 0.718D-03-0.236D-02 0.339D-02 0.409D-01-0.304D-01
 Coeff-Com: -0.318D+00 0.131D+01
 Coeff-En:   0.000D+00 0.000D+00 0.000D+00 0.000D+00 0.000D+00 0.000D+00
 Coeff-En:   0.000D+00 0.100D+01
 Coeff:     -0.504D-03 0.717D-03-0.236D-02 0.338D-02 0.408D-01-0.303D-01
 Coeff:     -0.318D+00 0.131D+01
 Gap=     0.544 Goal=   None    Shift=    0.000
 RMSDP=1.76D-05 MaxDP=5.43D-04 DE=-3.13D-04 OVMax= 1.50D-03

 Cycle   9  Pass 1  IDiag  1:
 RMSU=  2.57D-06    CP:  8.92D-03  3.00D+00  1.23D+00  6.86D-01  1.12D+00
                    CP:  1.77D+00  2.03D+00  1.47D+00
 FoFJK:  IHMeth= 1 ICntrl=     0 DoSepK=T KAlg= 1 I1Cent= 0 FoldK=F
 E= -151.213555662397     Delta-E=       -0.000009808667 Rises=F Damp=F
 DIIS: error= 1.51D-05 at cycle   9 NSaved=   9.
 NSaved= 9 IEnMin= 9 EnMin= -151.213555662397     IErMin= 9 ErrMin= 1.51D-05
 ErrMax= 1.51D-05 EMaxC= 1.00D-01 BMatC= 7.60D-08 BMatP= 7.55D-06
 IDIUse=1 WtCom= 1.00D+00 WtEn= 0.00D+00
 Coeff-Com:  0.108D-03-0.219D-03 0.432D-03-0.111D-02-0.792D-02 0.321D-01
 Coeff-Com: -0.113D-02-0.270D+00 0.125D+01
 Coeff:      0.108D-03-0.219D-03 0.432D-03-0.111D-02-0.792D-02 0.321D-01
 Coeff:     -0.113D-02-0.270D+00 0.125D+01
 Gap=     0.544 Goal=   None    Shift=    0.000
 RMSDP=2.51D-06 MaxDP=4.72D-05 DE=-9.81D-06 OVMax= 3.70D-04

 Cycle  10  Pass 1  IDiag  1:
 RMSU=  7.86D-07    CP:  8.92D-03  3.00D+00  1.23D+00  6.86D-01  1.12D+00
                    CP:  1.77D+00  2.05D+00  1.53D+00  1.51D+00
 FoFJK:  IHMeth= 1 ICntrl=     0 DoSepK=T KAlg= 1 I1Cent= 0 FoldK=F
 E= -151.213555915878     Delta-E=       -0.000000253481 Rises=F Damp=F
 DIIS: error= 7.60D-06 at cycle  10 NSaved=  10.
 NSaved=10 IEnMin=10 EnMin= -151.213555915878     IErMin=10 ErrMin= 7.60D-06
 ErrMax= 7.60D-06 EMaxC= 1.00D-01 BMatC= 2.66D-08 BMatP= 7.60D-08
 IDIUse=1 WtCom= 1.00D+00 WtEn= 0.00D+00
 Coeff-Com:  0.183D-03-0.319D-03 0.511D-03-0.936D-03-0.812D-02 0.177D-01
 Coeff-Com:  0.304D-01-0.232D+00 0.305D+00 0.887D+00
 Coeff:      0.183D-03-0.319D-03 0.511D-03-0.936D-03-0.812D-02 0.177D-01
 Coeff:      0.304D-01-0.232D+00 0.305D+00 0.887D+00
 Gap=     0.544 Goal=   None    Shift=    0.000
 RMSDP=1.10D-06 MaxDP=2.95D-05 DE=-2.53D-07 OVMax= 1.66D-04

 Cycle  11  Pass 1  IDiag  1:
 RMSU=  3.43D-07    CP:  8.92D-03  3.00D+00  1.23D+00  6.86D-01  1.12D+00
                    CP:  1.77D+00  2.05D+00  1.55D+00  1.72D+00  1.37D+00
 FoFJK:  IHMeth= 1 ICntrl=     0 DoSepK=T KAlg= 1 I1Cent= 0 FoldK=F
 E= -151.213555973133     Delta-E=       -0.000000057255 Rises=F Damp=F
 DIIS: error= 6.33D-06 at cycle  11 NSaved=  11.
 NSaved=11 IEnMin=11 EnMin= -151.213555973133     IErMin=11 ErrMin= 6.33D-06
 ErrMax= 6.33D-06 EMaxC= 1.00D-01 BMatC= 1.07D-08 BMatP= 2.66D-08
 IDIUse=1 WtCom= 1.00D+00 WtEn= 0.00D+00
 Coeff-Com:  0.121D-03-0.209D-03-0.231D-04 0.101D-03 0.162D-02-0.512D-02
 Coeff-Com: -0.575D-02 0.813D-01-0.448D+00 0.147D+00 0.123D+01
 Coeff:      0.121D-03-0.209D-03-0.231D-04 0.101D-03 0.162D-02-0.512D-02
 Coeff:     -0.575D-02 0.813D-01-0.448D+00 0.147D+00 0.123D+01
 Gap=     0.544 Goal=   None    Shift=    0.000
 RMSDP=9.80D-07 MaxDP=2.19D-05 DE=-5.73D-08 OVMax= 1.48D-04

 Cycle  12  Pass 1  IDiag  1:
 RMSU=  1.58D-07    CP:  8.92D-03  3.00D+00  1.23D+00  6.86D-01  1.12D+00
                    CP:  1.77D+00  2.06D+00  1.56D+00  1.89D+00  1.88D+00
                    CP:  1.46D+00
 FoFJK:  IHMeth= 1 ICntrl=     0 DoSepK=T KAlg= 1 I1Cent= 0 FoldK=F
 E= -151.213555996644     Delta-E=       -0.000000023511 Rises=F Damp=F
 DIIS: error= 2.18D-06 at cycle  12 NSaved=  12.
 NSaved=12 IEnMin=12 EnMin= -151.213555996644     IErMin=12 ErrMin= 2.18D-06
 ErrMax= 2.18D-06 EMaxC= 1.00D-01 BMatC= 1.78D-09 BMatP= 1.07D-08
 IDIUse=1 WtCom= 1.00D+00 WtEn= 0.00D+00
 Coeff-Com:  0.184D-04-0.304D-04-0.256D-04 0.164D-04 0.500D-03 0.805D-04
 Coeff-Com: -0.232D-02 0.629D-02 0.338D-01-0.108D+00-0.158D+00 0.123D+01
 Coeff:      0.184D-04-0.304D-04-0.256D-04 0.164D-04 0.500D-03 0.805D-04
 Coeff:     -0.232D-02 0.629D-02 0.338D-01-0.108D+00-0.158D+00 0.123D+01
 Gap=     0.544 Goal=   None    Shift=    0.000
 RMSDP=2.25D-07 MaxDP=4.02D-06 DE=-2.35D-08 OVMax= 3.14D-05

 Cycle  13  Pass 1  IDiag  1:
 RMSU=  2.96D-08    CP:  8.92D-03  3.00D+00  1.23D+00  6.86D-01  1.12D+00
                    CP:  1.77D+00  2.06D+00  1.56D+00  1.92D+00  1.96D+00
                    CP:  1.63D+00  1.35D+00
 FoFJK:  IHMeth= 1 ICntrl=     0 DoSepK=T KAlg= 1 I1Cent= 0 FoldK=F
 E= -151.213555998469     Delta-E=       -0.000000001825 Rises=F Damp=F
 DIIS: error= 3.10D-07 at cycle  13 NSaved=  13.
 NSaved=13 IEnMin=13 EnMin= -151.213555998469     IErMin=13 ErrMin= 3.10D-07
 ErrMax= 3.10D-07 EMaxC= 1.00D-01 BMatC= 3.60D-11 BMatP= 1.78D-09
 IDIUse=1 WtCom= 1.00D+00 WtEn= 0.00D+00
 Coeff-Com:  0.364D-05-0.659D-05 0.111D-04-0.234D-04-0.244D-03 0.358D-03
 Coeff-Com:  0.134D-02-0.100D-01 0.313D-01 0.126D-01-0.681D-01-0.258D+00
 Coeff-Com:  0.129D+01
 Coeff:      0.364D-05-0.659D-05 0.111D-04-0.234D-04-0.244D-03 0.358D-03
 Coeff:      0.134D-02-0.100D-01 0.313D-01 0.126D-01-0.681D-01-0.258D+00
 Coeff:      0.129D+01
 Gap=     0.544 Goal=   None    Shift=    0.000
 RMSDP=4.78D-08 MaxDP=1.13D-06 DE=-1.82D-09 OVMax= 6.30D-06

 Cycle  14  Pass 1  IDiag  1:
 RMSU=  8.63D-09    CP:  8.92D-03  3.00D+00  1.23D+00  6.86D-01  1.12D+00
                    CP:  1.77D+00  2.06D+00  1.56D+00  1.93D+00  1.97D+00
                    CP:  1.64D+00  1.43D+00  1.45D+00
 FoFJK:  IHMeth= 1 ICntrl=     0 DoSepK=T KAlg= 1 I1Cent= 0 FoldK=F
 E= -151.213555998518     Delta-E=       -0.000000000049 Rises=F Damp=F
 DIIS: error= 1.25D-07 at cycle  14 NSaved=  14.
 NSaved=14 IEnMin=14 EnMin= -151.213555998518     IErMin=14 ErrMin= 1.25D-07
 ErrMax= 1.25D-07 EMaxC= 1.00D-01 BMatC= 3.61D-12 BMatP= 3.60D-11
 IDIUse=1 WtCom= 1.00D+00 WtEn= 0.00D+00
 Coeff-Com:  0.316D-06-0.640D-06-0.143D-05 0.261D-05 0.400D-04-0.966D-04
 Coeff-Com: -0.187D-03 0.221D-02-0.980D-02 0.326D-02 0.258D-01-0.351D-02
 Coeff-Com: -0.280D+00 0.126D+01
 Coeff:      0.316D-06-0.640D-06-0.143D-05 0.261D-05 0.400D-04-0.966D-04
 Coeff:     -0.187D-03 0.221D-02-0.980D-02 0.326D-02 0.258D-01-0.351D-02
 Coeff:     -0.280D+00 0.126D+01
 Gap=     0.544 Goal=   None    Shift=    0.000
 RMSDP=9.16D-09 MaxDP=2.92D-07 DE=-4.88D-11 OVMax= 8.11D-07

 SCF Done:  E(RLC-B+HF-LYP) =  -151.213555999     A.U. after   14 cycles
             Convg  =    0.9161D-08             -V/T =  2.0063
 KE= 1.502662949464D+02 PE=-4.315497562168D+02 EE= 9.344865136428D+01
 Leave Link  502 at Mon May 11 14:11:41 2020, MaxMem= 1073741824 cpu:     322.0
 (Enter /home/matheus/.gaussian/g09/l601.exe)
 Copying SCF densities to generalized density rwf, IOpCl= 0 IROHF=0.

 **********************************************************************

            Population analysis using the SCF density.

 **********************************************************************

 Orbital symmetries:
       Occupied  (A) (A) (A) (A) (A) (A) (A) (A) (A)
       Virtual   (A) (A) (A) (A) (A) (A) (A) (A) (A) (A) (A) (A)
                 (A) (A) (A) (A) (A) (A) (A) (A) (A) (A) (A) (A)
                 (A) (A) (A) (A) (A) (A) (A) (A) (A) (A) (A) (A)
                 (A) (A) (A) (A) (A) (A) (A) (A) (A) (A) (A) (A)
                 (A) (A) (A) (A) (A) (A) (A) (A) (A) (A) (A) (A)
                 (A) (A) (A) (A) (A) (A) (A) (A) (A) (A) (A) (A)
                 (A) (A) (A) (A) (A) (A) (A) (A) (A) (A) (A) (A)
                 (A) (A) (A) (A) (A) (A) (A) (A) (A) (A) (A) (A)
                 (A) (A) (A) (A) (A) (A) (A) (A) (A) (A) (A) (A)
                 (A) (A) (A) (A) (A) (A) (A) (A) (A) (A) (A) (A)
                 (A) (A) (A) (A) (A) (A) (A) (A) (A) (A) (A) (A)
                 (A) (A) (A) (A) (A) (A) (A) (A) (A) (A) (A) (A)
                 (A) (A) (A) (A) (A) (A) (A) (A) (A) (A) (A) (A)
                 (A) (A) (A) (A) (A) (A) (A) (A) (A) (A) (A) (A)
                 (A) (A) (A) (A) (A) (A) (A) (A) (A) (A) (A) (A)
                 (A) (A) (A) (A) (A) (A) (A) (A)
 The electronic state is 1-A.
 Alpha  occ. eigenvalues --  -19.48631 -19.48601  -1.46403  -1.21631  -0.76614
 Alpha  occ. eigenvalues --   -0.71565  -0.63731  -0.53011  -0.52243
 Alpha virt. eigenvalues --    0.02153   0.03437   0.06947   0.08159   0.10082
 Alpha virt. eigenvalues --    0.10381   0.11887   0.13482   0.16444   0.16851
 Alpha virt. eigenvalues --    0.18045   0.19629   0.22168   0.23637   0.25299
 Alpha virt. eigenvalues --    0.26018   0.30340   0.30541   0.32181   0.32566
 Alpha virt. eigenvalues --    0.33457   0.37082   0.37330   0.40160   0.41647
 Alpha virt. eigenvalues --    0.43051   0.43865   0.47529   0.48062   0.49315
 Alpha virt. eigenvalues --    0.53771   0.57323   0.62281   0.63758   0.68030
 Alpha virt. eigenvalues --    0.73167   0.75271   0.77527   0.79435   0.80646
 Alpha virt. eigenvalues --    0.82179   0.82741   0.88678   0.90961   0.91113
 Alpha virt. eigenvalues --    0.92090   0.93455   0.95974   0.98087   0.98761
 Alpha virt. eigenvalues --    1.00074   1.02021   1.06273   1.11109   1.13212
 Alpha virt. eigenvalues --    1.14339   1.15927   1.20126   1.24428   1.25856
 Alpha virt. eigenvalues --    1.27472   1.28705   1.30806   1.31761   1.33134
 Alpha virt. eigenvalues --    1.34116   1.35573   1.38047   1.40958   1.43297
 Alpha virt. eigenvalues --    1.45348   1.52000   1.52261   1.54381   1.58351
 Alpha virt. eigenvalues --    1.62710   1.67820   1.69437   1.74988   1.83738
 Alpha virt. eigenvalues --    1.87231   1.92992   2.02233   2.05759   2.13572
 Alpha virt. eigenvalues --    2.14564   2.18444   2.26704   2.28539   2.34093
 Alpha virt. eigenvalues --    2.36262   2.41301   2.45749   2.47338   2.49945
 Alpha virt. eigenvalues --    2.56989   2.61125   2.65469   2.70415   2.74928
 Alpha virt. eigenvalues --    2.79056   2.80728   2.93898   2.99977   3.05113
 Alpha virt. eigenvalues --    3.17691   3.22723   3.24352   3.25628   3.31324
 Alpha virt. eigenvalues --    3.43081   3.55605   3.72410   3.75654   3.78326
 Alpha virt. eigenvalues --    3.79146   3.81821   3.82082   3.83255   3.85306
 Alpha virt. eigenvalues --    3.89420   3.91019   3.97484   3.97864   3.99606
 Alpha virt. eigenvalues --    4.04666   4.11908   4.17425   4.24055   4.28974
 Alpha virt. eigenvalues --    4.32585   4.34139   4.41470   4.43256   4.45441
 Alpha virt. eigenvalues --    4.53271   4.68405   4.73720   4.84379   5.07747
 Alpha virt. eigenvalues --    5.13845   5.17180   5.33508   5.34729   5.40637
 Alpha virt. eigenvalues --    5.66156   6.06254   6.27347   6.36290   6.41042
 Alpha virt. eigenvalues --    6.53767   6.55846   6.70632   6.75688   6.82560
 Alpha virt. eigenvalues --    7.04603   7.06060   7.06217   7.09722   7.13037
 Alpha virt. eigenvalues --    7.14128   7.16255   7.23202   7.26398   7.33818
 Alpha virt. eigenvalues --    7.40066   7.48728   7.70432   7.90307   8.06044
 Alpha virt. eigenvalues --    8.35009   8.37821  10.87617  14.23861  14.82850
 Alpha virt. eigenvalues --   14.85472  14.89205  15.09897  29.02684  29.02854
 Alpha virt. eigenvalues --   29.07559  29.12789  29.22498  49.08985 148.31094
 Alpha virt. eigenvalues --  148.37586 148.69883 752.47712
          Condensed to atoms (all electrons):
              1          2          3          4          5
     1  O    8.200743  -0.165343   0.195739  -0.008054  -0.000051
     2  O   -0.165343   8.222381   0.006020   0.190443  -0.001418
     3  H    0.195739   0.006020   0.571960   0.002924  -0.001365
     4  H   -0.008054   0.190443   0.002924   0.571396  -0.002841
     5  Kr  -0.000051  -0.001418  -0.001365  -0.002841   0.001413
 Mulliken atomic charges:
              1
     1  O   -0.223033
     2  O   -0.252083
     3  H    0.224722
     4  H    0.246132
     5  Kr   0.004262
 Sum of Mulliken atomic charges =   0.00000
 Mulliken charges with hydrogens summed into heavy atoms:
              1
     1  O    0.001689
     2  O   -0.005951
     5  Kr   0.004262
 Sum of Mulliken charges with hydrogens summed into heavy atoms =   0.00000
          Condensed to fragments (all electrons):
     1      -0.004262
     2       0.004262
 Electronic spatial extent (au):  <R**2>=            320.9521
 Charge=              0.0000 electrons
 Dipole moment (field-independent basis, Debye):
    X=             -1.3905    Y=             -0.1743    Z=              1.7119  Tot=              2.2124
 Quadrupole moment (field-independent basis, Debye-Ang):
   XX=            -15.9862   YY=            -10.0641   ZZ=            -11.1748
   XY=             -2.9706   XZ=              3.7134   YZ=             -1.9442
 Traceless Quadrupole moment (field-independent basis, Debye-Ang):
   XX=             -3.5778   YY=              2.3442   ZZ=              1.2336
   XY=             -2.9706   XZ=              3.7134   YZ=             -1.9442
 Octapole moment (field-independent basis, Debye-Ang**2):
  XXX=            -80.5079  YYY=             -1.4362  ZZZ=              1.5948  XYY=            -21.6609
  XXY=             -9.2830  XXZ=              8.4195  XZZ=            -21.8830  YZZ=             -1.9863
  YYZ=              2.4980  XYZ=             -4.4592
 Hexadecapole moment (field-independent basis, Debye-Ang**3):
 XXXX=           -314.6545 YYYY=            -43.5010 ZZZZ=            -10.5472 XXXY=            -21.9699
 XXXZ=             19.5400 YYYX=             -4.7713 YYYZ=             -2.8403 ZZZX=              3.4333
 ZZZY=             -2.0996 XXYY=            -54.9586 XXZZ=            -46.6412 YYZZ=             -9.3081
 XXYZ=            -10.3459 YYXZ=              5.3048 ZZXY=             -3.7870
 N-N= 3.662125390757D+01 E-N=-4.315497723909D+02  KE= 1.502662949464D+02
 No NMR shielding tensors so no spin-rotation constants.
 Leave Link  601 at Mon May 11 14:11:41 2020, MaxMem= 1073741824 cpu:       0.7
 (Enter /home/matheus/.gaussian/g09/l122.exe)
 Counterpoise: doing DCBS calculation for fragment   2 NewBq=T
 Leave Link  122 at Mon May 11 14:11:41 2020, MaxMem= 1073741824 cpu:       0.0
 (Enter /home/matheus/.gaussian/g09/l301.exe)
 Basis read from rwf:  (5D, 7F)
 No pseudopotential information found on rwf file.
 There are   197 symmetry adapted basis functions of A   symmetry.
 Integral buffers will be    131072 words long.
 Raffenetti 2 integral format.
 Two-electron integral symmetry is turned on.
   197 basis functions,   415 primitive gaussians,   229 cartesian basis functions
    18 alpha electrons       18 beta electrons
       nuclear repulsion energy         0.0000000000 Hartrees.
 IExCor=10402 DFT=T Ex=LC-B+HF Corr=LYP ExCW=0 ScaHFX=  1.000000
 ScaDFX=  1.000000  1.000000  1.000000  1.000000 ScalE2=  1.000000  1.000000
 IRadAn=      5 IRanWt=     -1 IRanGd=            0 ICorTp=0
  HFx wShort=  0.000000 wLong=  1.350000 cFull=  0.000000 cShort=  0.000000 cLong=  1.000000
  DFx wShort=  0.000000 wLong=  1.350000 cFull=  0.000000 cShort=  0.000000 cLong=  1.000000
 NAtoms=    5 NActive=    5 NUniq=    5 SFac= 1.00D+00 NAtFMM=   60 NAOKFM=F Big=F
 No density basis found on file   718.
 Leave Link  301 at Mon May 11 14:11:41 2020, MaxMem= 1073741824 cpu:       0.2
 (Enter /home/matheus/.gaussian/g09/l302.exe)
 NPDir=0 NMtPBC=     1 NCelOv=     1 NCel=       1 NClECP=     1 NCelD=      1
         NCelK=      1 NCelE2=     1 NClLst=     1 CellRange=     0.0.
 One-electron integrals computed using PRISM.
 NBasis=   197 RedAO= T  NBF=   197
 NBsUse=   197 1.00D-06 NBFU=   197
 Precomputing XC quadrature grid using
 IXCGrd= 2 IRadAn=           5 IRanWt=          -1 IRanGd=           0 AccXCQ= 0.00D+00.
 NRdTot=     427 NPtTot=      123512 NUsed=      126579 NTot=      126611
 NSgBfM=   229   229   229   229   229 NAtAll=     5     5.
 Leave Link  302 at Mon May 11 14:11:42 2020, MaxMem= 1073741824 cpu:       1.0
 (Enter /home/matheus/.gaussian/g09/l303.exe)
 DipDrv:  MaxL=1.
 Leave Link  303 at Mon May 11 14:11:42 2020, MaxMem= 1073741824 cpu:       0.2
 (Enter /home/matheus/.gaussian/g09/l401.exe)
 Harris functional with IExCor=10402 diagonalized for initial guess.
 ExpMin= 2.53D-02 ExpMax= 1.17D+07 ExpMxC= 1.33D+04 IAcc=3 IRadAn=         5 AccDes= 0.00D+00
 HarFok:  IExCor=10402 AccDes= 0.00D+00 IRadAn=         5 IDoV= 1
 ScaDFX=  1.000000  1.000000  1.000000  1.000000
 FoFCou: FMM=F IPFlag=           0 FMFlag=      100000 FMFlg1=           0
         NFxFlg=           0 DoJE=T BraDBF=F KetDBF=T FulRan=T
         Omega=  0.000000  0.000000  1.000000  0.000000  0.000000 ICntrl=     500 IOpCl=  0
         NMat0=    1 NMatS0=    1 NMatT0=    0 NMatD0=    1 NMtDS0=    0 NMtDT0=    0
         I1Cent=           4 NGrid=           0.
 Petite list used in FoFCou.
 Harris En= -2731.73456166719    
 Initial guess orbital symmetries:
       Occupied  (A) (A) (A) (A) (A) (A) (A) (A) (A) (A) (A) (A)
                 (A) (A) (A) (A) (A) (A)
       Virtual   (A) (A) (A) (A) (A) (A) (A) (A) (A) (A) (A) (A)
                 (A) (A) (A) (A) (A) (A) (A) (A) (A) (A) (A) (A)
                 (A) (A) (A) (A) (A) (A) (A) (A) (A) (A) (A) (A)
                 (A) (A) (A) (A) (A) (A) (A) (A) (A) (A) (A) (A)
                 (A) (A) (A) (A) (A) (A) (A) (A) (A) (A) (A) (A)
                 (A) (A) (A) (A) (A) (A) (A) (A) (A) (A) (A) (A)
                 (A) (A) (A) (A) (A) (A) (A) (A) (A) (A) (A) (A)
                 (A) (A) (A) (A) (A) (A) (A) (A) (A) (A) (A) (A)
                 (A) (A) (A) (A) (A) (A) (A) (A) (A) (A) (A) (A)
                 (A) (A) (A) (A) (A) (A) (A) (A) (A) (A) (A) (A)
                 (A) (A) (A) (A) (A) (A) (A) (A) (A) (A) (A) (A)
                 (A) (A) (A) (A) (A) (A) (A) (A) (A) (A) (A) (A)
                 (A) (A) (A) (A) (A) (A) (A) (A) (A) (A) (A) (A)
                 (A) (A) (A) (A) (A) (A) (A) (A) (A) (A) (A) (A)
                 (A) (A) (A) (A) (A) (A) (A) (A) (A) (A) (A)
 The electronic state of the initial guess is 1-A.
 Leave Link  401 at Mon May 11 14:11:42 2020, MaxMem= 1073741824 cpu:       3.9
 (Enter /home/matheus/.gaussian/g09/l502.exe)
 Closed shell SCF:
 Requested convergence on RMS density matrix=1.00D-08 within 128 cycles.
 Requested convergence on MAX density matrix=1.00D-06.
 Requested convergence on             energy=1.00D-06.
 No special actions if energy rises.
 Using DIIS extrapolation, IDIIS=  1040.
 Integral symmetry usage will be decided dynamically.
       126521 words used for storage of precomputed grid.
 IEnd=      305468 IEndB=      305468 NGot=  1073741824 MDV=  1073505667
 LenX=  1073505667 LenY=  1073452785
 Fock matrices will be formed incrementally for  20 cycles.

 Cycle   1  Pass 1  IDiag  1:
 FoFJK:  IHMeth= 1 ICntrl=     0 DoSepK=T KAlg= 1 I1Cent= 0 FoldK=F
 FoFCou: FMM=F IPFlag=           0 FMFlag=      100000 FMFlg1=           0
         NFxFlg=           0 DoJE=T BraDBF=F KetDBF=F FulRan=T
         Omega=  0.000000  0.000000  1.000000  0.000000  0.000000 ICntrl=     500 IOpCl=  0
         NMat0=    1 NMatS0=    1 NMatT0=    0 NMatD0=    1 NMtDS0=    0 NMtDT0=    0
         I1Cent=           0 NGrid=           0.
 Symmetry not used in FoFCou.
 E= -2752.71000749520    
 DIIS: error= 3.68D-02 at cycle   1 NSaved=   1.
 NSaved= 1 IEnMin= 1 EnMin= -2752.71000749520     IErMin= 1 ErrMin= 3.68D-02
 ErrMax= 3.68D-02 EMaxC= 1.00D-01 BMatC= 1.18D+00 BMatP= 1.18D+00
 IDIUse=3 WtCom= 6.32D-01 WtEn= 3.68D-01
 Coeff-Com:  0.100D+01
 Coeff-En:   0.100D+01
 Coeff:      0.100D+01
 Gap=     0.766 Goal=   None    Shift=    0.000
 GapD=    0.766 DampG=2.000 DampE=0.500 DampFc=1.0000 IDamp=-1.
 RMSDP=4.96D-03 MaxDP=2.24D-01              OVMax= 3.37D-01

 Cycle   2  Pass 1  IDiag  1:
 RMSU=  3.43D-03    CP:  1.05D+00
 FoFJK:  IHMeth= 1 ICntrl=     0 DoSepK=T KAlg= 1 I1Cent= 0 FoldK=F
 E= -2753.27694008206     Delta-E=       -0.566932586854 Rises=F Damp=F
 DIIS: error= 2.61D-02 at cycle   2 NSaved=   2.
 NSaved= 2 IEnMin= 2 EnMin= -2753.27694008206     IErMin= 2 ErrMin= 2.61D-02
 ErrMax= 2.61D-02 EMaxC= 1.00D-01 BMatC= 3.64D-01 BMatP= 1.18D+00
 IDIUse=3 WtCom= 7.39D-01 WtEn= 2.61D-01
 Coeff-Com:  0.351D+00 0.649D+00
 Coeff-En:   0.000D+00 0.100D+01
 Coeff:      0.259D+00 0.741D+00
 Gap=     0.606 Goal=   None    Shift=    0.000
 RMSDP=2.19D-03 MaxDP=1.32D-01 DE=-5.67D-01 OVMax= 7.29D-02

 Cycle   3  Pass 1  IDiag  1:
 RMSU=  8.53D-04    CP:  1.03D+00  6.33D-01
 FoFJK:  IHMeth= 1 ICntrl=     0 DoSepK=T KAlg= 1 I1Cent= 0 FoldK=F
 E= -2753.40770083135     Delta-E=       -0.130760749298 Rises=F Damp=F
 DIIS: error= 2.70D-03 at cycle   3 NSaved=   3.
 NSaved= 3 IEnMin= 3 EnMin= -2753.40770083135     IErMin= 3 ErrMin= 2.70D-03
 ErrMax= 2.70D-03 EMaxC= 1.00D-01 BMatC= 5.51D-03 BMatP= 3.64D-01
 IDIUse=3 WtCom= 9.73D-01 WtEn= 2.70D-02
 Coeff-Com: -0.915D-02 0.832D-01 0.926D+00
 Coeff-En:   0.000D+00 0.000D+00 0.100D+01
 Coeff:     -0.890D-02 0.810D-01 0.928D+00
 Gap=     0.575 Goal=   None    Shift=    0.000
 RMSDP=3.44D-04 MaxDP=1.48D-02 DE=-1.31D-01 OVMax= 1.06D-02

 Cycle   4  Pass 1  IDiag  1:
 RMSU=  2.26D-04    CP:  1.03D+00  6.58D-01  9.87D-01
 FoFJK:  IHMeth= 1 ICntrl=     0 DoSepK=T KAlg= 1 I1Cent= 0 FoldK=F
 E= -2753.40945575265     Delta-E=       -0.001754921293 Rises=F Damp=F
 DIIS: error= 2.67D-04 at cycle   4 NSaved=   4.
 NSaved= 4 IEnMin= 4 EnMin= -2753.40945575265     IErMin= 4 ErrMin= 2.67D-04
 ErrMax= 2.67D-04 EMaxC= 1.00D-01 BMatC= 3.79D-05 BMatP= 5.51D-03
 IDIUse=3 WtCom= 9.97D-01 WtEn= 2.67D-03
 Coeff-Com: -0.669D-02-0.404D-02-0.304D-02 0.101D+01
 Coeff-En:   0.000D+00 0.000D+00 0.000D+00 0.100D+01
 Coeff:     -0.668D-02-0.402D-02-0.303D-02 0.101D+01
 Gap=     0.580 Goal=   None    Shift=    0.000
 RMSDP=5.02D-05 MaxDP=2.25D-03 DE=-1.75D-03 OVMax= 3.47D-03

 Cycle   5  Pass 1  IDiag  1:
 RMSU=  2.02D-05    CP:  1.03D+00  6.62D-01  1.01D+00  1.09D+00
 FoFJK:  IHMeth= 1 ICntrl=     0 DoSepK=T KAlg= 1 I1Cent= 0 FoldK=F
 E= -2753.40951687716     Delta-E=       -0.000061124515 Rises=F Damp=F
 DIIS: error= 4.28D-05 at cycle   5 NSaved=   5.
 NSaved= 5 IEnMin= 5 EnMin= -2753.40951687716     IErMin= 5 ErrMin= 4.28D-05
 ErrMax= 4.28D-05 EMaxC= 1.00D-01 BMatC= 4.92D-07 BMatP= 3.79D-05
 IDIUse=1 WtCom= 1.00D+00 WtEn= 0.00D+00
 Coeff-Com: -0.796D-04-0.150D-02 0.138D-02-0.168D+00 0.117D+01
 Coeff:     -0.796D-04-0.150D-02 0.138D-02-0.168D+00 0.117D+01
 Gap=     0.580 Goal=   None    Shift=    0.000
 RMSDP=1.06D-05 MaxDP=4.40D-04 DE=-6.11D-05 OVMax= 6.33D-04

 Cycle   6  Pass 1  IDiag  1:
 RMSU=  9.69D-07    CP:  1.03D+00  6.62D-01  1.01D+00  1.10D+00  1.20D+00
 FoFJK:  IHMeth= 1 ICntrl=     0 DoSepK=T KAlg= 1 I1Cent= 0 FoldK=F
 E= -2753.40951828255     Delta-E=       -0.000001405390 Rises=F Damp=F
 DIIS: error= 2.44D-06 at cycle   6 NSaved=   6.
 NSaved= 6 IEnMin= 6 EnMin= -2753.40951828255     IErMin= 6 ErrMin= 2.44D-06
 ErrMax= 2.44D-06 EMaxC= 1.00D-01 BMatC= 9.72D-10 BMatP= 4.92D-07
 IDIUse=1 WtCom= 1.00D+00 WtEn= 0.00D+00
 Coeff-Com:  0.236D-04 0.116D-03-0.389D-03 0.120D-01-0.113D+00 0.110D+01
 Coeff:      0.236D-04 0.116D-03-0.389D-03 0.120D-01-0.113D+00 0.110D+01
 Gap=     0.580 Goal=   None    Shift=    0.000
 RMSDP=5.18D-07 MaxDP=2.32D-05 DE=-1.41D-06 OVMax= 2.31D-05

 Cycle   7  Pass 1  IDiag  1:
 RMSU=  5.80D-08    CP:  1.03D+00  6.62D-01  1.01D+00  1.11D+00  1.21D+00
                    CP:  1.13D+00
 FoFJK:  IHMeth= 1 ICntrl=     0 DoSepK=T KAlg= 1 I1Cent= 0 FoldK=F
 E= -2753.40951828326     Delta-E=       -0.000000000711 Rises=F Damp=F
 DIIS: error= 1.38D-07 at cycle   7 NSaved=   7.
 NSaved= 7 IEnMin= 7 EnMin= -2753.40951828326     IErMin= 7 ErrMin= 1.38D-07
 ErrMax= 1.38D-07 EMaxC= 1.00D-01 BMatC= 1.03D-11 BMatP= 9.72D-10
 IDIUse=1 WtCom= 1.00D+00 WtEn= 0.00D+00
 Coeff-Com:  0.253D-05 0.396D-05-0.328D-04 0.577D-03-0.248D-02-0.214D-01
 Coeff-Com:  0.102D+01
 Coeff:      0.253D-05 0.396D-05-0.328D-04 0.577D-03-0.248D-02-0.214D-01
 Coeff:      0.102D+01
 Gap=     0.580 Goal=   None    Shift=    0.000
 RMSDP=2.17D-08 MaxDP=1.01D-06 DE=-7.11D-10 OVMax= 1.29D-06

 Cycle   8  Pass 1  IDiag  1:
 RMSU=  8.86D-09    CP:  1.03D+00  6.62D-01  1.01D+00  1.11D+00  1.21D+00
                    CP:  1.14D+00  1.13D+00
 FoFJK:  IHMeth= 1 ICntrl=     0 DoSepK=T KAlg= 1 I1Cent= 0 FoldK=F
 E= -2753.40951828334     Delta-E=       -0.000000000079 Rises=F Damp=F
 DIIS: error= 3.90D-08 at cycle   8 NSaved=   8.
 NSaved= 8 IEnMin= 8 EnMin= -2753.40951828334     IErMin= 8 ErrMin= 3.90D-08
 ErrMax= 3.90D-08 EMaxC= 1.00D-01 BMatC= 4.04D-13 BMatP= 1.03D-11
 IDIUse=1 WtCom= 1.00D+00 WtEn= 0.00D+00
 Coeff-Com:  0.656D-07-0.200D-05 0.310D-05-0.206D-03 0.230D-02-0.274D-01
 Coeff-Com:  0.112D+00 0.914D+00
 Coeff:      0.656D-07-0.200D-05 0.310D-05-0.206D-03 0.230D-02-0.274D-01
 Coeff:      0.112D+00 0.914D+00
 Gap=     0.580 Goal=   None    Shift=    0.000
 RMSDP=4.43D-09 MaxDP=1.48D-07 DE=-7.91D-11 OVMax= 3.45D-07

 SCF Done:  E(RLC-B+HF-LYP) =  -2753.40951828     A.U. after    8 cycles
             Convg  =    0.4430D-08             -V/T =  2.0014
 KE= 2.749636197100D+03 PE=-6.579423827645D+03 EE= 1.076378112262D+03
 Leave Link  502 at Mon May 11 14:12:06 2020, MaxMem= 1073741824 cpu:     187.1
 (Enter /home/matheus/.gaussian/g09/l601.exe)
 Copying SCF densities to generalized density rwf, IOpCl= 0 IROHF=0.

 **********************************************************************

            Population analysis using the SCF density.

 **********************************************************************

 Orbital symmetries:
       Occupied  (A) (A) (A) (A) (A) (A) (A) (A) (A) (A) (A) (A)
                 (A) (A) (A) (A) (A) (A)
       Virtual   (A) (A) (A) (A) (A) (A) (A) (A) (A) (A) (A) (A)
                 (A) (A) (A) (A) (A) (A) (A) (A) (A) (A) (A) (A)
                 (A) (A) (A) (A) (A) (A) (A) (A) (A) (A) (A) (A)
                 (A) (A) (A) (A) (A) (A) (A) (A) (A) (A) (A) (A)
                 (A) (A) (A) (A) (A) (A) (A) (A) (A) (A) (A) (A)
                 (A) (A) (A) (A) (A) (A) (A) (A) (A) (A) (A) (A)
                 (A) (A) (A) (A) (A) (A) (A) (A) (A) (A) (A) (A)
                 (A) (A) (A) (A) (A) (A) (A) (A) (A) (A) (A) (A)
                 (A) (A) (A) (A) (A) (A) (A) (A) (A) (A) (A) (A)
                 (A) (A) (A) (A) (A) (A) (A) (A) (A) (A) (A) (A)
                 (A) (A) (A) (A) (A) (A) (A) (A) (A) (A) (A) (A)
                 (A) (A) (A) (A) (A) (A) (A) (A) (A) (A) (A) (A)
                 (A) (A) (A) (A) (A) (A) (A) (A) (A) (A) (A) (A)
                 (A) (A) (A) (A) (A) (A) (A) (A) (A) (A) (A) (A)
                 (A) (A) (A) (A) (A) (A) (A) (A) (A) (A) (A)
 The electronic state is 1-A.
 Alpha  occ. eigenvalues -- -511.65508 -67.17992 -60.85189 -60.85186 -60.85185
 Alpha  occ. eigenvalues --  -10.08108  -7.79670  -7.79669  -7.79669  -3.62634
 Alpha  occ. eigenvalues --   -3.62633  -3.62633  -3.62632  -3.62632  -1.17384
 Alpha  occ. eigenvalues --   -0.55371  -0.55367  -0.55365
 Alpha virt. eigenvalues --    0.02655   0.04740   0.07899   0.08688   0.11091
 Alpha virt. eigenvalues --    0.11741   0.12872   0.13286   0.15884   0.16692
 Alpha virt. eigenvalues --    0.17477   0.19317   0.20293   0.25610   0.26946
 Alpha virt. eigenvalues --    0.27527   0.28291   0.30764   0.33520   0.34312
 Alpha virt. eigenvalues --    0.36193   0.37227   0.38519   0.39532   0.41200
 Alpha virt. eigenvalues --    0.41764   0.42935   0.53955   0.55047   0.58517
 Alpha virt. eigenvalues --    0.59807   0.66245   0.68189   0.69775   0.72238
 Alpha virt. eigenvalues --    0.75326   0.76538   0.77925   0.80290   0.81467
 Alpha virt. eigenvalues --    0.82365   0.83109   0.85123   0.85972   0.87504
 Alpha virt. eigenvalues --    0.89189   0.89465   0.91407   0.92241   0.96080
 Alpha virt. eigenvalues --    0.98041   0.98756   1.00431   1.01014   1.03530
 Alpha virt. eigenvalues --    1.06241   1.09666   1.11106   1.14113   1.14289
 Alpha virt. eigenvalues --    1.17506   1.22608   1.26769   1.28783   1.29347
 Alpha virt. eigenvalues --    1.34475   1.37233   1.39181   1.46921   1.49082
 Alpha virt. eigenvalues --    1.54797   1.56891   1.63196   1.74203   1.76440
 Alpha virt. eigenvalues --    1.79219   1.82611   1.87719   1.98576   2.24811
 Alpha virt. eigenvalues --    2.29382   2.31185   2.32491   2.33428   2.37570
 Alpha virt. eigenvalues --    2.40541   2.42108   2.43510   2.45362   2.46711
 Alpha virt. eigenvalues --    2.48122   2.49499   2.52533   2.54436   2.57536
 Alpha virt. eigenvalues --    2.58838   2.59438   2.62522   2.64626   2.66172
 Alpha virt. eigenvalues --    2.66510   2.70837   2.72878   2.75853   2.77566
 Alpha virt. eigenvalues --    2.81411   2.84673   2.85801   2.89786   2.92685
 Alpha virt. eigenvalues --    2.99235   3.02366   3.04337   3.11407   3.20132
 Alpha virt. eigenvalues --    3.23499   3.24484   3.30099   3.37084   3.48144
 Alpha virt. eigenvalues --    3.60559   3.63391   3.82321   3.85906   4.03418
 Alpha virt. eigenvalues --    4.40159   4.46043   4.50502   4.59500   4.66540
 Alpha virt. eigenvalues --    4.72298   4.87012   4.90128   4.93698   5.00446
 Alpha virt. eigenvalues --    5.14069   5.21573   5.58453   5.64384   5.75117
 Alpha virt. eigenvalues --    5.91146   6.01726   6.11171   6.73442   6.87549
 Alpha virt. eigenvalues --    7.37209   7.44922   7.57929   7.61475   7.74972
 Alpha virt. eigenvalues --    7.82121   7.91131   8.12167   8.16130   8.21342
 Alpha virt. eigenvalues --    8.39873   8.47110   8.56574   8.85383   9.65184
 Alpha virt. eigenvalues --    9.75350   9.83858   9.88750   9.89912   9.99033
 Alpha virt. eigenvalues --   10.14151  10.33408  10.35350  10.97134  11.51227
 Alpha virt. eigenvalues --   11.65493  11.78584  12.06102  12.09548  13.22613
 Alpha virt. eigenvalues --   13.62279  14.51504  62.78058  64.68597
          Condensed to atoms (all electrons):
              1          2          3          4          5
     1  O    0.002571  -0.002301  -0.001545   0.001464  -0.008341
     2  O   -0.002301   0.006399   0.000827  -0.004389  -0.001521
     3  H   -0.001545   0.000827   0.001191  -0.000484   0.001635
     4  H    0.001464  -0.004389  -0.000484   0.004291  -0.021959
     5  Kr  -0.008341  -0.001521   0.001635  -0.021959  36.058773
 Mulliken atomic charges:
              1
     1  O    0.008152
     2  O    0.000984
     3  H   -0.001624
     4  H    0.021076
     5  Kr  -0.028588
 Sum of Mulliken atomic charges =   0.00000
 Mulliken charges with hydrogens summed into heavy atoms:
              1
     1  O    0.006528
     2  O    0.022060
     5  Kr  -0.028588
 Sum of Mulliken charges with hydrogens summed into heavy atoms =   0.00000
          Condensed to fragments (all electrons):
     1       0.028588
     2      -0.028588
 Electronic spatial extent (au):  <R**2>=            164.1999
 Charge=              0.0000 electrons
 Dipole moment (field-independent basis, Debye):
    X=              0.0014    Y=              0.0007    Z=              0.0002  Tot=              0.0016
 Quadrupole moment (field-independent basis, Debye-Ang):
   XX=            -17.5629   YY=            -17.5739   ZZ=            -17.5817
   XY=              0.0042   XZ=              0.0007   YZ=              0.0001
 Traceless Quadrupole moment (field-independent basis, Debye-Ang):
   XX=              0.0099   YY=             -0.0011   ZZ=             -0.0089
   XY=              0.0042   XZ=              0.0007   YZ=              0.0001
 Octapole moment (field-independent basis, Debye-Ang**2):
  XXX=             51.9507  YYY=              0.6186  ZZZ=             -0.0371  XYY=             17.3300
  XXY=              0.1974  XXZ=             -0.0141  XZZ=             17.3347  YZZ=              0.2071
  YYZ=             -0.0123  XYZ=              0.0000
 Hexadecapole moment (field-independent basis, Debye-Ang**3):
 XXXX=           -120.4955 YYYY=            -18.0913 ZZZZ=            -18.1071 XXXY=             -0.5900
 XXXZ=              0.0402 YYYX=             -0.5957 YYYZ=              0.0005 ZZZX=              0.0389
 ZZZY=              0.0012 XXYY=            -23.1105 XXZZ=            -23.1148 YYZZ=             -6.0322
 XXYZ=              0.0004 YYXZ=              0.0126 ZZXY=             -0.1976
 N-N= 0.000000000000D+00 E-N=-6.579423821125D+03  KE= 2.749636197100D+03
 No NMR shielding tensors so no spin-rotation constants.
 Leave Link  601 at Mon May 11 14:12:06 2020, MaxMem= 1073741824 cpu:       0.7
 (Enter /home/matheus/.gaussian/g09/l122.exe)
 Counterpoise: doing MCBS calculation for fragment   1
 Leave Link  122 at Mon May 11 14:12:06 2020, MaxMem= 1073741824 cpu:       0.0
 (Enter /home/matheus/.gaussian/g09/l301.exe)
 Basis read from rwf:  (5D, 7F)
 No pseudopotential information found on rwf file.
 There are   138 symmetry adapted basis functions of A   symmetry.
 Integral buffers will be    131072 words long.
 Raffenetti 2 integral format.
 Two-electron integral symmetry is turned on.
   138 basis functions,   198 primitive gaussians,   160 cartesian basis functions
     9 alpha electrons        9 beta electrons
       nuclear repulsion energy        36.6212539076 Hartrees.
 IExCor=10402 DFT=T Ex=LC-B+HF Corr=LYP ExCW=0 ScaHFX=  1.000000
[...]
 DIIS: error= 6.51D-07 at cycle   3 NSaved=   3.
 NSaved= 3 IEnMin= 3 EnMin= -2753.40937568982     IErMin= 3 ErrMin= 6.51D-07
 ErrMax= 6.51D-07 EMaxC= 1.00D-01 BMatC= 1.01D-10 BMatP= 4.47D-09
 IDIUse=1 WtCom= 1.00D+00 WtEn= 0.00D+00
 Coeff-Com:  0.505D-03-0.141D+00 0.114D+01
 Coeff:      0.505D-03-0.141D+00 0.114D+01
 Gap=     0.580 Goal=   None    Shift=    0.000
 RMSDP=2.45D-07 MaxDP=1.08D-05 DE=-8.25D-09 OVMax= 1.00D-05

 Cycle   4  Pass 1  IDiag  1:
 RMSU=  5.27D-08    CP:  1.00D+00  1.10D+00  1.18D+00
 FoFJK:  IHMeth= 1 ICntrl=     0 DoSepK=T KAlg= 1 I1Cent= 0 FoldK=F
 E= -2753.40937569015     Delta-E=       -0.000000000331 Rises=F Damp=F
 DIIS: error= 2.10D-07 at cycle   4 NSaved=   4.
 NSaved= 4 IEnMin= 4 EnMin= -2753.40937569015     IErMin= 4 ErrMin= 2.10D-07
 ErrMax= 2.10D-07 EMaxC= 1.00D-01 BMatC= 3.75D-12 BMatP= 1.01D-10
 IDIUse=1 WtCom= 1.00D+00 WtEn= 0.00D+00
 Coeff-Com:  0.153D-03-0.279D-01 0.153D+00 0.875D+00
 Coeff:      0.153D-03-0.279D-01 0.153D+00 0.875D+00
 Gap=     0.580 Goal=   None    Shift=    0.000
 RMSDP=1.67D-08 MaxDP=8.01D-07 DE=-3.31D-10 OVMax= 8.18D-07

 Cycle   5  Pass 1  IDiag  1:
 RMSU=  5.73D-09    CP:  1.00D+00  1.10D+00  1.19D+00  1.15D+00
 FoFJK:  IHMeth= 1 ICntrl=     0 DoSepK=T KAlg= 1 I1Cent= 0 FoldK=F
 E= -2753.40937569017     Delta-E=       -0.000000000019 Rises=F Damp=F
 DIIS: error= 4.32D-08 at cycle   5 NSaved=   5.
 NSaved= 5 IEnMin= 5 EnMin= -2753.40937569017     IErMin= 5 ErrMin= 4.32D-08
 ErrMax= 4.32D-08 EMaxC= 1.00D-01 BMatC= 3.01D-13 BMatP= 3.75D-12
 IDIUse=1 WtCom= 1.00D+00 WtEn= 0.00D+00
 Coeff-Com: -0.333D-04 0.926D-02-0.772D-01 0.347D-01 0.103D+01
 Coeff:     -0.333D-04 0.926D-02-0.772D-01 0.347D-01 0.103D+01
 Gap=     0.580 Goal=   None    Shift=    0.000
 RMSDP=6.64D-09 MaxDP=3.68D-07 DE=-1.91D-11 OVMax= 4.16D-07

 SCF Done:  E(RLC-B+HF-LYP) =  -2753.40937569     A.U. after    5 cycles
             Convg  =    0.6639D-08             -V/T =  2.0014
 KE= 2.749687702411D+03 PE=-6.579480576172D+03 EE= 1.076383498071D+03
 Leave Link  502 at Mon May 11 14:34:27 2020, MaxMem= 1073741824 cpu:      88.1
 (Enter /home/matheus/.gaussian/g09/l122.exe)
 Restoring MOs from calculation   4 to rwf.
 Counterpoise: doing MCBS calculation for fragment   1
 Leave Link  122 at Mon May 11 14:34:27 2020, MaxMem= 1073741824 cpu:       0.0
 (Enter /home/matheus/.gaussian/g09/l301.exe)
 Basis read from rwf:  (5D, 7F)
 No pseudopotential information found on rwf file.
 There are   138 symmetry adapted basis functions of A   symmetry.
 Integral buffers will be    131072 words long.
 Raffenetti 2 integral format.
 Two-electron integral symmetry is turned on.
   138 basis functions,   198 primitive gaussians,   160 cartesian basis functions
     9 alpha electrons        9 beta electrons
       nuclear repulsion energy        36.6212539076 Hartrees.
 IExCor=10402 DFT=T Ex=LC-B+HF Corr=LYP ExCW=0 ScaHFX=  1.000000
 ScaDFX=  1.000000  1.000000  1.000000  1.000000 ScalE2=  1.000000  1.000000
 IRadAn=      5 IRanWt=     -1 IRanGd=            0 ICorTp=0
  HFx wShort=  0.000000 wLong=  1.350000 cFull=  0.000000 cShort=  0.000000 cLong=  1.000000
  DFx wShort=  0.000000 wLong=  1.350000 cFull=  0.000000 cShort=  0.000000 cLong=  1.000000
 NAtoms=    5 NActive=    4 NUniq=    4 SFac= 1.00D+00 NAtFMM=   60 NAOKFM=F Big=F
 No density basis found on file   718.
 Leave Link  301 at Mon May 11 14:34:27 2020, MaxMem= 1073741824 cpu:       0.2
 (Enter /home/matheus/.gaussian/g09/l302.exe)
 NPDir=0 NMtPBC=     1 NCelOv=     1 NCel=       1 NClECP=     1 NCelD=      1
         NCelK=      1 NCelE2=     1 NClLst=     1 CellRange=     0.0.
 One-electron integrals computed using PRISM.
 NBasis=   138 RedAO= T  NBF=   138
 NBsUse=   138 1.00D-06 NBFU=   138
 Precomputing XC quadrature grid using
 IXCGrd= 2 IRadAn=           5 IRanWt=          -1 IRanGd=           0 AccXCQ= 0.00D+00.
 NRdTot=     344 NPtTot=       92556 NUsed=       95038 NTot=       95070
 NSgBfM=   160   160   160   160   160 NAtAll=     4     4.
 Leave Link  302 at Mon May 11 14:34:27 2020, MaxMem= 1073741824 cpu:       0.7
 (Enter /home/matheus/.gaussian/g09/l303.exe)
 DipDrv:  MaxL=1.
 Leave Link  303 at Mon May 11 14:34:27 2020, MaxMem= 1073741824 cpu:       0.1
 (Enter /home/matheus/.gaussian/g09/l401.exe)
 Initial guess read from the read-write file.
 Guess basis will be translated and rotated to current coordinates.
 Initial guess orbital symmetries:
       Occupied  (A) (A) (A) (A) (A) (A) (A) (A) (A)
       Virtual   (A) (A) (A) (A) (A) (A) (A) (A) (A) (A) (A) (A)
                 (A) (A) (A) (A) (A) (A) (A) (A) (A) (A) (A) (A)
                 (A) (A) (A) (A) (A) (A) (A) (A) (A) (A) (A) (A)
                 (A) (A) (A) (A) (A) (A) (A) (A) (A) (A) (A) (A)
                 (A) (A) (A) (A) (A) (A) (A) (A) (A) (A) (A) (A)
                 (A) (A) (A) (A) (A) (A) (A) (A) (A) (A) (A) (A)
                 (A) (A) (A) (A) (A) (A) (A) (A) (A) (A) (A) (A)
                 (A) (A) (A) (A) (A) (A) (A) (A) (A) (A) (A) (A)
                 (A) (A) (A) (A) (A) (A) (A) (A) (A) (A) (A) (A)
                 (A) (A) (A) (A) (A) (A) (A) (A) (A) (A) (A) (A)
                 (A) (A) (A) (A) (A) (A) (A) (A) (A)
 The electronic state of the initial guess is 1-A.
 Generating alternative initial guess.
 Harris functional with IExCor=10402 diagonalized for initial guess.
 ExpMin= 2.53D-02 ExpMax= 1.53D+04 ExpMxC= 5.22D+02 IAcc=3 IRadAn=         5 AccDes= 0.00D+00
 HarFok:  IExCor=10402 AccDes= 0.00D+00 IRadAn=         5 IDoV= 1
 ScaDFX=  1.000000  1.000000  1.000000  1.000000
 FoFCou: FMM=F IPFlag=           0 FMFlag=      100000 FMFlg1=           0
         NFxFlg=           0 DoJE=T BraDBF=F KetDBF=T FulRan=T
         Omega=  0.000000  0.000000  1.000000  0.000000  0.000000 ICntrl=     500 IOpCl=  0
         NMat0=    1 NMatS0=    1 NMatT0=    0 NMatD0=    1 NMtDS0=    0 NMtDT0=    0
         I1Cent=           4 NGrid=           0.
 Petite list used in FoFCou.
 Harris En= -143.235785135530    
 Leave Link  401 at Mon May 11 14:34:28 2020, MaxMem= 1073741824 cpu:       2.4
 (Enter /home/matheus/.gaussian/g09/l502.exe)
 Closed shell SCF:
 Requested convergence on RMS density matrix=1.00D-08 within 128 cycles.
 Requested convergence on MAX density matrix=1.00D-06.
 Requested convergence on             energy=1.00D-06.
 No special actions if energy rises.
 Using DIIS extrapolation, IDIIS=  1040.
 Integral symmetry usage will be decided dynamically.
        94980 words used for storage of precomputed grid.
 IEnd=      192360 IEndB=      192360 NGot=  1073741824 MDV=  1073591865
 LenX=  1073591865 LenY=  1073565824
 Fock matrices will be formed incrementally for  20 cycles.

 Cycle   1  Pass 1  IDiag  1:
 FoFJK:  IHMeth= 1 ICntrl=     0 DoSepK=T KAlg= 1 I1Cent= 0 FoldK=F
 FoFCou: FMM=F IPFlag=           0 FMFlag=      100000 FMFlg1=           0
         NFxFlg=           0 DoJE=T BraDBF=F KetDBF=F FulRan=T
         Omega=  0.000000  0.000000  1.000000  0.000000  0.000000 ICntrl=     500 IOpCl=  0
         NMat0=    1 NMatS0=    1 NMatT0=    0 NMatD0=    1 NMtDS0=    0 NMtDT0=    0
         I1Cent=           0 NGrid=           0.
 Symmetry not used in FoFCou.
 E= -151.213459834442    
 DIIS: error= 1.04D-05 at cycle   1 NSaved=   1.
 NSaved= 1 IEnMin= 1 EnMin= -151.213459834442     IErMin= 1 ErrMin= 1.04D-05
 ErrMax= 1.04D-05 EMaxC= 1.00D-01 BMatC= 3.18D-08 BMatP= 3.18D-08
 IDIUse=1 WtCom= 1.00D+00 WtEn= 0.00D+00
 Coeff-Com:  0.100D+01
 Coeff:      0.100D+01
 Gap=     0.547 Goal=   None    Shift=    0.000
 RMSDP=1.10D-06 MaxDP=2.53D-05              OVMax= 4.73D-05

 Cycle   2  Pass 1  IDiag  1:
 RMSU=  7.80D-07    CP:  1.00D+00
 FoFJK:  IHMeth= 1 ICntrl=     0 DoSepK=T KAlg= 1 I1Cent= 0 FoldK=F
 E= -151.213459867150     Delta-E=       -0.000000032708 Rises=F Damp=F
 DIIS: error= 3.12D-06 at cycle   2 NSaved=   2.
 NSaved= 2 IEnMin= 2 EnMin= -151.213459867150     IErMin= 2 ErrMin= 3.12D-06
 ErrMax= 3.12D-06 EMaxC= 1.00D-01 BMatC= 1.89D-09 BMatP= 3.18D-08
 IDIUse=1 WtCom= 1.00D+00 WtEn= 0.00D+00
 Coeff-Com: -0.204D+00 0.120D+01
 Coeff:     -0.204D+00 0.120D+01
 Gap=     0.547 Goal=   None    Shift=    0.000
 RMSDP=3.76D-07 MaxDP=1.02D-05 DE=-3.27D-08 OVMax= 2.43D-05

 Cycle   3  Pass 1  IDiag  1:
 RMSU=  1.44D-07    CP:  1.00D+00  1.29D+00
 FoFJK:  IHMeth= 1 ICntrl=     0 DoSepK=T KAlg= 1 I1Cent= 0 FoldK=F
 E= -151.213459871119     Delta-E=       -0.000000003969 Rises=F Damp=F
 DIIS: error= 1.18D-06 at cycle   3 NSaved=   3.
 NSaved= 3 IEnMin= 3 EnMin= -151.213459871119     IErMin= 3 ErrMin= 1.18D-06
 ErrMax= 1.18D-06 EMaxC= 1.00D-01 BMatC= 1.95D-10 BMatP= 1.89D-09
 IDIUse=1 WtCom= 1.00D+00 WtEn= 0.00D+00
 Coeff-Com: -0.118D-01-0.947D-01 0.111D+01
 Coeff:     -0.118D-01-0.947D-01 0.111D+01
 Gap=     0.547 Goal=   None    Shift=    0.000
 RMSDP=1.21D-07 MaxDP=2.70D-06 DE=-3.97D-09 OVMax= 9.06D-06

 Cycle   4  Pass 1  IDiag  1:
 RMSU=  4.96D-08    CP:  1.00D+00  1.35D+00  1.36D+00
 FoFJK:  IHMeth= 1 ICntrl=     0 DoSepK=T KAlg= 1 I1Cent= 0 FoldK=F
 E= -151.213459871570     Delta-E=       -0.000000000450 Rises=F Damp=F
 DIIS: error= 5.61D-07 at cycle   4 NSaved=   4.
 NSaved= 4 IEnMin= 4 EnMin= -151.213459871570     IErMin= 4 ErrMin= 5.61D-07
 ErrMax= 5.61D-07 EMaxC= 1.00D-01 BMatC= 7.99D-11 BMatP= 1.95D-10
 IDIUse=1 WtCom= 1.00D+00 WtEn= 0.00D+00
 Coeff-Com:  0.289D-01-0.242D+00 0.439D+00 0.775D+00
 Coeff:      0.289D-01-0.242D+00 0.439D+00 0.775D+00
 Gap=     0.547 Goal=   None    Shift=    0.000
 RMSDP=5.48D-08 MaxDP=1.05D-06 DE=-4.50D-10 OVMax= 3.91D-06

 Cycle   5  Pass 1  IDiag  1:
 RMSU=  2.15D-08    CP:  1.00D+00  1.36D+00  1.56D+00  9.80D-01
 FoFJK:  IHMeth= 1 ICntrl=     0 DoSepK=T KAlg= 1 I1Cent= 0 FoldK=F
 E= -151.213459871690     Delta-E=       -0.000000000120 Rises=F Damp=F
 DIIS: error= 1.92D-07 at cycle   5 NSaved=   5.
 NSaved= 5 IEnMin= 5 EnMin= -151.213459871690     IErMin= 5 ErrMin= 1.92D-07
 ErrMax= 1.92D-07 EMaxC= 1.00D-01 BMatC= 6.18D-12 BMatP= 7.99D-11
 IDIUse=1 WtCom= 1.00D+00 WtEn= 0.00D+00
 Coeff-Com: -0.536D-03 0.312D-01-0.215D+00-0.466D-01 0.123D+01
 Coeff:     -0.536D-03 0.312D-01-0.215D+00-0.466D-01 0.123D+01
 Gap=     0.547 Goal=   None    Shift=    0.000
 RMSDP=2.98D-08 MaxDP=7.47D-07 DE=-1.20D-10 OVMax= 2.62D-06

 Cycle   6  Pass 1  IDiag  1:
 RMSU=  7.10D-09    CP:  1.00D+00  1.37D+00  1.64D+00  1.21D+00  1.49D+00
 FoFJK:  IHMeth= 1 ICntrl=     0 DoSepK=T KAlg= 1 I1Cent= 0 FoldK=F
 E= -151.213459871715     Delta-E=       -0.000000000025 Rises=F Damp=F
 DIIS: error= 6.83D-08 at cycle   6 NSaved=   6.
 NSaved= 6 IEnMin= 6 EnMin= -151.213459871715     IErMin= 6 ErrMin= 6.83D-08
 ErrMax= 6.83D-08 EMaxC= 1.00D-01 BMatC= 5.75D-13 BMatP= 6.18D-12
 IDIUse=1 WtCom= 1.00D+00 WtEn= 0.00D+00
 Coeff-Com: -0.253D-02 0.187D-01-0.543D-02-0.675D-01-0.203D+00 0.126D+01
 Coeff:     -0.253D-02 0.187D-01-0.543D-02-0.675D-01-0.203D+00 0.126D+01
 Gap=     0.547 Goal=   None    Shift=    0.000
 RMSDP=1.09D-08 MaxDP=2.53D-07 DE=-2.52D-11 OVMax= 1.07D-06

 Cycle   7  Pass 1  IDiag  1:
 RMSU=  2.48D-09    CP:  1.00D+00  1.37D+00  1.65D+00  1.26D+00  1.69D+00
                    CP:  1.67D+00
 FoFJK:  IHMeth= 1 ICntrl=     0 DoSepK=T KAlg= 1 I1Cent= 0 FoldK=F
 E= -151.213459871715     Delta-E=        0.000000000000 Rises=F Damp=F
 DIIS: error= 2.99D-08 at cycle   7 NSaved=   7.
 NSaved= 7 IEnMin= 7 EnMin= -151.213459871715     IErMin= 7 ErrMin= 2.99D-08
 ErrMax= 2.99D-08 EMaxC= 1.00D-01 BMatC= 1.00D-13 BMatP= 5.75D-13
 IDIUse=1 WtCom= 1.00D+00 WtEn= 0.00D+00
 Coeff-Com:  0.210D-03-0.432D-02 0.228D-01 0.965D-02-0.126D+00-0.862D-01
 Coeff-Com:  0.118D+01
 Coeff:      0.210D-03-0.432D-02 0.228D-01 0.965D-02-0.126D+00-0.862D-01
 Coeff:      0.118D+01
 Gap=     0.547 Goal=   None    Shift=    0.000
 RMSDP=4.70D-09 MaxDP=8.75D-08 DE=-2.27D-13 OVMax= 4.63D-07

 SCF Done:  E(RLC-B+HF-LYP) =  -151.213459872     A.U. after    7 cycles
             Convg  =    0.4703D-08             -V/T =  2.0063
 KE= 1.502664325137D+02 PE=-4.315484556259D+02 EE= 9.344730933285D+01
 Leave Link  502 at Mon May 11 14:34:34 2020, MaxMem= 1073741824 cpu:      51.1
 (Enter /home/matheus/.gaussian/g09/l122.exe)
 Restoring MOs from calculation   5 to rwf.
 Counterpoise: doing MCBS calculation for fragment   2
 Leave Link  122 at Mon May 11 14:34:34 2020, MaxMem= 1073741824 cpu:       0.0
 (Enter /home/matheus/.gaussian/g09/l301.exe)
 Basis read from rwf:  (5D, 7F)
 No pseudopotential information found on rwf file.
 There are    59 symmetry adapted basis functions of A   symmetry.
 Integral buffers will be    131072 words long.
 Raffenetti 2 integral format.
 Two-electron integral symmetry is turned on.
    59 basis functions,   217 primitive gaussians,    69 cartesian basis functions
    18 alpha electrons       18 beta electrons
       nuclear repulsion energy         0.0000000000 Hartrees.
 IExCor=10402 DFT=T Ex=LC-B+HF Corr=LYP ExCW=0 ScaHFX=  1.000000
 ScaDFX=  1.000000  1.000000  1.000000  1.000000 ScalE2=  1.000000  1.000000
 IRadAn=      5 IRanWt=     -1 IRanGd=            0 ICorTp=0
  HFx wShort=  0.000000 wLong=  1.350000 cFull=  0.000000 cShort=  0.000000 cLong=  1.000000
  DFx wShort=  0.000000 wLong=  1.350000 cFull=  0.000000 cShort=  0.000000 cLong=  1.000000
 NAtoms=    5 NActive=    1 NUniq=    1 SFac= 1.00D+00 NAtFMM=   60 NAOKFM=F Big=F
 No density basis found on file   718.
 Leave Link  301 at Mon May 11 14:34:34 2020, MaxMem= 1073741824 cpu:       0.2
 (Enter /home/matheus/.gaussian/g09/l302.exe)
 NPDir=0 NMtPBC=     1 NCelOv=     1 NCel=       1 NClECP=     1 NCelD=      1
         NCelK=      1 NCelE2=     1 NClLst=     1 CellRange=     0.0.
 One-electron integrals computed using PRISM.
 NBasis=    59 RedAO= T  NBF=    59
 NBsUse=    59 1.00D-06 NBFU=    59
 Precomputing XC quadrature grid using
 IXCGrd= 2 IRadAn=           5 IRanWt=          -1 IRanGd=           0 AccXCQ= 0.00D+00.
 NRdTot=      81 NPtTot=       30352 NUsed=       30981 NTot=       31013
 NSgBfM=    69    69    69    69    69 NAtAll=     1     1.
 Leave Link  302 at Mon May 11 14:34:34 2020, MaxMem= 1073741824 cpu:       0.6
 (Enter /home/matheus/.gaussian/g09/l303.exe)
 DipDrv:  MaxL=1.
 Leave Link  303 at Mon May 11 14:34:34 2020, MaxMem= 1073741824 cpu:       0.1
 (Enter /home/matheus/.gaussian/g09/l401.exe)
 Initial guess read from the read-write file.
 Guess basis will be translated and rotated to current coordinates.
 Initial guess orbital symmetries:
       Occupied  (A) (A) (A) (A) (A) (A) (A) (A) (A) (A) (A) (A)
                 (A) (A) (A) (A) (A) (A)
       Virtual   (A) (A) (A) (A) (A) (A) (A) (A) (A) (A) (A) (A)
                 (A) (A) (A) (A) (A) (A) (A) (A) (A) (A) (A) (A)
                 (A) (A) (A) (A) (A) (A) (A) (A) (A) (A) (A) (A)
                 (A) (A) (A) (A) (A)
 The electronic state of the initial guess is 1-A.
 Generating alternative initial guess.
 Harris functional with IExCor=10402 diagonalized for initial guess.
 ExpMin= 4.00D-02 ExpMax= 1.17D+07 ExpMxC= 1.33D+04 IAcc=3 IRadAn=         5 AccDes= 0.00D+00
 HarFok:  IExCor=10402 AccDes= 0.00D+00 IRadAn=         5 IDoV= 1
 ScaDFX=  1.000000  1.000000  1.000000  1.000000
 FoFCou: FMM=F IPFlag=           0 FMFlag=      100000 FMFlg1=           0
         NFxFlg=           0 DoJE=T BraDBF=F KetDBF=T FulRan=T
         Omega=  0.000000  0.000000  1.000000  0.000000  0.000000 ICntrl=     500 IOpCl=  0
         NMat0=    1 NMatS0=    1 NMatT0=    0 NMatD0=    1 NMtDS0=    0 NMtDT0=    0
         I1Cent=           4 NGrid=           0.
 Petite list used in FoFCou.
 DSYEVD returned Info=         119 IAlg= 4 N=    59 NDim=    59 NE2=    18198841 trying DSYEV.
 Harris En= -2731.73388500824    
 Leave Link  401 at Mon May 11 14:34:34 2020, MaxMem= 1073741824 cpu:       1.0
 (Enter /home/matheus/.gaussian/g09/l502.exe)
 Closed shell SCF:
 Requested convergence on RMS density matrix=1.00D-08 within 128 cycles.
 Requested convergence on MAX density matrix=1.00D-06.
 Requested convergence on             energy=1.00D-06.
 No special actions if energy rises.
 Using DIIS extrapolation, IDIIS=  1040.
 Integral symmetry usage will be decided dynamically.
        30923 words used for storage of precomputed grid.
 IEnd=       64406 IEndB=       64406 NGot=  1073741824 MDV=  1073698889
 LenX=  1073698889 LenY=  1073693687
 Fock matrices will be formed incrementally for  20 cycles.

 Cycle   1  Pass 1  IDiag  1:
 FoFJK:  IHMeth= 1 ICntrl=     0 DoSepK=T KAlg= 1 I1Cent= 0 FoldK=F
 FoFCou: FMM=F IPFlag=           0 FMFlag=      100000 FMFlg1=           0
         NFxFlg=           0 DoJE=T BraDBF=F KetDBF=F FulRan=T
         Omega=  0.000000  0.000000  1.000000  0.000000  0.000000 ICntrl=     500 IOpCl=  0
         NMat0=    1 NMatS0=    1 NMatT0=    0 NMatD0=    1 NMtDS0=    0 NMtDT0=    0
         I1Cent=           0 NGrid=           0.
 Symmetry not used in FoFCou.
 E= -2753.40934852740    
 DIIS: error= 9.17D-14 at cycle   1 NSaved=   1.
 NSaved= 1 IEnMin= 1 EnMin= -2753.40934852740     IErMin= 1 ErrMin= 9.17D-14
 ErrMax= 9.17D-14 EMaxC= 1.00D-01 BMatC= 1.91D-25 BMatP= 1.91D-25
 IDIUse=1 WtCom= 1.00D+00 WtEn= 0.00D+00
 Coeff-Com:  0.100D+01
 Coeff:      0.100D+01
 Gap=     0.640 Goal=   None    Shift=    0.000
 RMSDP=6.22D-15 MaxDP=9.94D-14              OVMax= 9.50D-14

 SCF Done:  E(RLC-B+HF-LYP) =  -2753.40934853     A.U. after    1 cycles
             Convg  =    0.6218D-14             -V/T =  2.0014
 KE= 2.749695852517D+03 PE=-6.579489077514D+03 EE= 1.076383876470D+03
 Leave Link  502 at Mon May 11 14:34:36 2020, MaxMem= 1073741824 cpu:      11.5
 (Enter /home/matheus/.gaussian/g09/l122.exe)
 Restoring MOs from calculation   1 to rwf.
 Counterpoise: corrected energy =   -2904.622878004340
 Counterpoise: BSSE energy =       0.000031300877
 Leave Link  122 at Mon May 11 14:34:36 2020, MaxMem= 1073741824 cpu:       0.0
 (Enter /home/matheus/.gaussian/g09/l108.exe)
 Scan completed.

 Summary of the potential surface scan:
   N      R1          SCF    
 ----  ---------  -----------
    1     3.0000  -2753.40935
    2     3.1000  -2753.40935
    3     3.2000  -2753.40935
    4     3.3000  -2753.40935
    5     3.4000  -2753.40935
    6     3.5000  -2753.40935
    7     3.6000  -2753.40935
    8     3.7000  -2753.40935
    9     3.8000  -2753.40935
   10     3.9000  -2753.40935
   11     4.0000  -2753.40935
   12     4.1000  -2753.40935
   13     4.2000  -2753.40935
   14     4.3000  -2753.40935
   15     4.4000  -2753.40935
   16     4.5000  -2753.40935
   17     4.6000  -2753.40935
   18     4.7000  -2753.40935
   19     4.8000  -2753.40935
   20     4.9000  -2753.40935
   21     5.0000  -2753.40935
 ----  ---------  -----------
  
 Leave Link  108 at Mon May 11 14:34:36 2020, MaxMem= 1073741824 cpu:       0.0
 (Enter /home/matheus/.gaussian/g09/l9999.exe)

 Test job not archived.
 1\1\GINC-REDGIANT\Scan\RLC-BLYP\Aug-CC-pVTZ\H2Kr1O2\MATHEUS\11-May-202
 0\1\\#p lc-blyp/aug-cc-PVTz iop(3/107=1350000000) iop(3/108=1350000000
 ) int=ultrafine counterpoise=2 Scan\\TCC\\0,1\O,0,0.,0.,0.725\O,0,0.,0
 .,-0.725\H,0,0.9047631646,-0.1595341571,1.0235104166\H,0,0.,0.91872059
 47,-1.0235104166\Kr,0,0.,R1,0.\\R1=3.,s,20,0.1\\Version=EM64L-G09RevC.
 01\State=1-A\HF=-2753.4093485,-2753.4093485,-2753.4093485,-2753.409348
 5,-2753.4093485,-2753.4093485,-2753.4093485,-2753.4093485,-2753.409348
 5,-2753.4093485,-2753.4093485,-2753.4093485,-2753.4093485,-2753.409348
 5,-2753.4093485,-2753.4093485,-2753.4093485,-2753.4093485,-2753.409348
 5,-2753.4093485,-2753.4093485\RMSD=5.461e-09,3.089e-10,7.451e-11,2.036
 e-11,7.197e-12,3.151e-12,1.459e-12,6.856e-13,3.264e-13,1.583e-13,6.985
 e-14,3.373e-14,1.776e-14,1.143e-14,1.366e-14,3.535e-15,4.249e-15,3.740
 e-15,5.997e-15,3.805e-15,6.218e-15\PG=C01 [X(H2Kr1O2)]\\@


 DEFINE YOUR TERMS, YOU WILL PERMIT ME AGAIN TO SAY, 
 OR WE SHALL NEVER UNDERSTAND ONE ANOTHER.

                                    -- VOLTAIRE
 Job cpu time:  0 days  3 hours 13 minutes 37.7 seconds.
 File lengths (MBytes):  RWF=     33 Int=      0 D2E=      0 Chk=      8 Scr=      1
 Normal termination of Gaussian 09 at Mon May 11 14:34:36 2020.
