 Entering Gaussian System, Link 0=g09
 Input=/home/matheus/.tcc/Inputs-lc-blyp/H2O2-Kr_2.com
 Output=/home/matheus/.tcc/Logs-lc-blyp/H2O2-Kr_2.log
 Initial command:
 /home/matheus/.gaussian/g09/l1.exe /home/matheus/.gaussian/g09/scratch/Gau-24117.inp -scrdir=/home/matheus/.gaussian/g09/scratch/
 Entering Link 1 = /home/matheus/.gaussian/g09/l1.exe PID=     24120.
  
 Copyright (c) 1988,1990,1992,1993,1995,1998,2003,2009,2011,
            Gaussian, Inc.  All Rights Reserved.
  
 This is part of the Gaussian(R) 09 program.  It is based on
 the Gaussian(R) 03 system (copyright 2003, Gaussian, Inc.),
 the Gaussian(R) 98 system (copyright 1998, Gaussian, Inc.),
 the Gaussian(R) 94 system (copyright 1995, Gaussian, Inc.),
 the Gaussian 92(TM) system (copyright 1992, Gaussian, Inc.),
 the Gaussian 90(TM) system (copyright 1990, Gaussian, Inc.),
 the Gaussian 88(TM) system (copyright 1988, Gaussian, Inc.),
 the Gaussian 86(TM) system (copyright 1986, Carnegie Mellon
 University), and the Gaussian 82(TM) system (copyright 1983,
 Carnegie Mellon University). Gaussian is a federally registered
 trademark of Gaussian, Inc.
  
 This software contains proprietary and confidential information,
 including trade secrets, belonging to Gaussian, Inc.
  
 This software is provided under written license and may be
 used, copied, transmitted, or stored only in accord with that
 written license.
  
 The following legend is applicable only to US Government
 contracts under FAR:
  
                    RESTRICTED RIGHTS LEGEND
  
 Use, reproduction and disclosure by the US Government is
 subject to restrictions as set forth in subparagraphs (a)
 and (c) of the Commercial Computer Software - Restricted
 Rights clause in FAR 52.227-19.
  
 Gaussian, Inc.
 340 Quinnipiac St., Bldg. 40, Wallingford CT 06492
  
  
 ---------------------------------------------------------------
 Warning -- This program may not be used in any manner that
 competes with the business of Gaussian, Inc. or will provide
 assistance to any competitor of Gaussian, Inc.  The licensee
 of this program is prohibited from giving any competitor of
 Gaussian, Inc. access to this program.  By using this program,
 the user acknowledges that Gaussian, Inc. is engaged in the
 business of creating and licensing software in the field of
 computational chemistry and represents and warrants to the
 licensee that it is not a competitor of Gaussian, Inc. and that
 it will not use this program in any manner prohibited above.
 ---------------------------------------------------------------
  

 Cite this work as:
 Gaussian 09, Revision C.01,
 M. J. Frisch, G. W. Trucks, H. B. Schlegel, G. E. Scuseria, 
 M. A. Robb, J. R. Cheeseman, G. Scalmani, V. Barone, B. Mennucci, 
 G. A. Petersson, H. Nakatsuji, M. Caricato, X. Li, H. P. Hratchian, 
 A. F. Izmaylov, J. Bloino, G. Zheng, J. L. Sonnenberg, M. Hada, 
 M. Ehara, K. Toyota, R. Fukuda, J. Hasegawa, M. Ishida, T. Nakajima, 
 Y. Honda, O. Kitao, H. Nakai, T. Vreven, J. A. Montgomery, Jr., 
 J. E. Peralta, F. Ogliaro, M. Bearpark, J. J. Heyd, E. Brothers, 
 K. N. Kudin, V. N. Staroverov, T. Keith, R. Kobayashi, J. Normand, 
 K. Raghavachari, A. Rendell, J. C. Burant, S. S. Iyengar, J. Tomasi, 
 M. Cossi, N. Rega, J. M. Millam, M. Klene, J. E. Knox, J. B. Cross, 
 V. Bakken, C. Adamo, J. Jaramillo, R. Gomperts, R. E. Stratmann, 
 O. Yazyev, A. J. Austin, R. Cammi, C. Pomelli, J. W. Ochterski, 
 R. L. Martin, K. Morokuma, V. G. Zakrzewski, G. A. Voth, 
 P. Salvador, J. J. Dannenberg, S. Dapprich, A. D. Daniels, 
 O. Farkas, J. B. Foresman, J. V. Ortiz, J. Cioslowski, 
 and D. J. Fox, Gaussian, Inc., Wallingford CT, 2010.
 
 ******************************************
 Gaussian 09:  EM64L-G09RevC.01 23-Sep-2011
                 6-May-2020 
 ******************************************
 %mem=8GB
 %nproc=8
 Will use up to    8 processors via shared memory.
 ----------------------------------------------------------------------
 #p lc-blyp/aug-cc-PVTz iop(3/107=1350000000) iop(3/108=1350000000) int
 =ultrafine counterpoise=2 Scan
 ----------------------------------------------------------------------
 1/38=1,60=1,62=2/1,8;
 2/12=2,17=6,18=5,29=3,40=1/2;
 1/38=1,53=5172,62=2/22;
 3/5=16,6=1,7=10,11=2,16=1,25=1,30=1,74=1000402,75=-5,107=1350000000,108=1350000000/1,2,3;
 4//1;
 5/5=2,38=5/2;
 6/7=2,8=2,9=2,10=2,18=1,28=1/1;
 1/53=4052,62=2,63=1/22;
 3/5=7,6=11,7=10,11=2,16=1,25=1,30=1,74=1000402,75=-5,82=7,107=1350000000,108=1350000000/1,2,3;
 4//1;
 5/5=2,38=5/2;
 6/7=2,8=2,9=2,10=2,18=1,28=1/1;
 1/53=3042,62=2,63=2/22;
 3/5=7,6=11,7=10,11=2,16=1,25=1,30=1,74=1000402,75=-5,82=7,107=1350000000,108=1350000000/1,2,3;
 4//1;
 5/5=2,38=5/2;
 6/7=2,8=2,9=2,10=2,18=1,28=1/1;
 1/53=2032,62=2,63=3/22;
 3/5=7,6=11,7=10,11=2,16=1,25=1,30=1,74=1000402,75=-5,82=7,107=1350000000,108=1350000000/1,2,3;
 4//1;
 5/5=2,38=5/2;
 6/7=2,8=2,9=2,10=2,18=1,28=1/1;
 1/53=1022,62=2,63=4/22;
 3/5=7,6=11,7=10,11=2,16=1,25=1,30=1,74=1000402,75=-5,82=7,107=1350000000,108=1350000000/1,2,3;
 4//1;
 5/5=2,38=5/2;
 6/7=2,8=2,9=2,10=2,18=1,28=1/1;
 1/53=5014,62=2,63=5/22;
 1/60=1,62=2/8(1);
 99/9=1/99;
 2/29=3/2;
 1/53=5173,62=2/22;
 3/5=7,6=11,7=10,11=2,16=1,25=1,30=1,74=1000402,75=-5,82=7,107=1350000000,108=1350000000/1,2,3;
 4/5=5,16=3/1;
 5/5=2,38=5/2;
 1/53=4053,62=2,63=1/22;
 3/5=7,6=11,7=10,11=2,16=1,25=1,30=1,74=1000402,75=-5,82=7,107=1350000000,108=1350000000/1,2,3;
 4/5=5,16=3/1;
 5/5=2,38=5/2;
 1/53=3043,62=2,63=2/22;
 3/5=7,6=11,7=10,11=2,16=1,25=1,30=1,74=1000402,75=-5,82=7,107=1350000000,108=1350000000/1,2,3;
 4/5=5,16=3/1;
 5/5=2,38=5/2;
 1/53=2033,62=2,63=3/22;
 3/5=7,6=11,7=10,11=2,16=1,25=1,30=1,74=1000402,75=-5,82=7,107=1350000000,108=1350000000/1,2,3;
 4/5=5,16=3/1;
 5/5=2,38=5/2;
 1/53=1024,62=2,63=4/22;
 3/5=7,6=11,7=10,11=2,16=1,25=1,30=1,74=1000402,75=-5,82=7,107=1350000000,108=1350000000/1,2,3;
 4/5=5,16=3/1;
 5/5=2,38=5/2;
 1/53=5014,62=2,63=5/22;
 1/60=1,62=2/8(-22);
 99/9=1/99;
 Leave Link    1 at Wed May  6 13:55:04 2020, MaxMem= 1073741824 cpu:       0.1
 (Enter /home/matheus/.gaussian/g09/l101.exe)
 ---
 TCC
 ---
 Charge =  0 Multiplicity = 1 in supermolecule
 Charge =  0 Multiplicity = 1 in fragment  1.
 Charge =  0 Multiplicity = 1 in fragment  2.
 Symbolic Z-Matrix:
 O(Fragment=1)         0.        0.        0.725 
 O(Fragment=1)         0.        0.       -0.725 
 H(Fragment=1)         0.31422   0.86331   1.02351 
 H(Fragment=1)         0.        0.91872  -1.02351 
 Kr(Fragment=2)        0.       R1        0. 
       Variables:
  R1                    3.     Scan 20    0.1    
 
 NAtoms=      5 NQM=        0 NQMF=       0 NMMI=      5 NMMIF=      0
                NMic=       0 NMicF=      0.
                    Isotopes and Nuclear Properties:
 (Nuclear quadrupole moments (NQMom) in fm**2, nuclear magnetic moments (NMagM)
  in nuclear magnetons)

  Atom         1           2           3           4           5
 IAtWgt=          16          16           1           1          84
 AtmWgt=  15.9949146  15.9949146   1.0078250   1.0078250  83.9115064
 NucSpn=           0           0           1           1           0
 AtZEff=   0.0000000   0.0000000   0.0000000   0.0000000   0.0000000
 NQMom=    0.0000000   0.0000000   0.0000000   0.0000000   0.0000000
 NMagM=    0.0000000   0.0000000   2.7928460   2.7928460   0.0000000
 Leave Link  101 at Wed May  6 13:55:04 2020, MaxMem= 1073741824 cpu:       0.4
 (Enter /home/matheus/.gaussian/g09/l108.exe)
 Scan the potential surface.
 Variable   Value     No. Steps Step-Size
 -------- ----------- --------- ---------
     1       3.000000      20      0.1000
 A total of     21 points will be computed.
 Leave Link  108 at Wed May  6 13:55:04 2020, MaxMem= 1073741824 cpu:       0.0
 (Enter /home/matheus/.gaussian/g09/l202.exe)
 ---------------------------------------------------------------------------------------------------
                            Z-MATRIX (ANGSTROMS AND DEGREES)
   CD    Cent   Atom    N1       Length/X        N2       Alpha/Y        N3        Beta/Z          J
 ---------------------------------------------------------------------------------------------------
      1      1  O        0   0.000000          0.000000          0.725000
      2      2  O        0   0.000000          0.000000         -0.725000
      3      3  H        0   0.314221          0.863315          1.023510
      4      4  H        0   0.000000          0.918721         -1.023510
      5      5  Kr       0   0.000000          3.000000          0.000000
 ---------------------------------------------------------------------------------------------------
                         Z-Matrix orientation:                         
 ---------------------------------------------------------------------
 Center     Atomic      Atomic             Coordinates (Angstroms)
 Number     Number       Type             X           Y           Z
 ---------------------------------------------------------------------
      1          8           0        0.000000    0.000000    0.725000
      2          8           0        0.000000    0.000000   -0.725000
      3          1           0        0.314221    0.863315    1.023510
      4          1           0        0.000000    0.918721   -1.023510
      5         36           0        0.000000    3.000000    0.000000
 ---------------------------------------------------------------------
                    Distance matrix (angstroms):
                    1          2          3          4          5
     1  O    0.000000
     2  O    1.450000   0.000000
     3  H    0.966000   1.975180   0.000000
     4  H    1.975180   0.966000   2.071738   0.000000
     5  Kr   3.086361   3.086361   2.389923   2.319331   0.000000
 Stoichiometry    H2KrO2
 Framework group  C1[X(H2KrO2)]
 Deg. of freedom     9
 Full point group                 C1      NOp   1
 Largest Abelian subgroup         C1      NOp   1
 Largest concise Abelian subgroup C1      NOp   1
                         Standard orientation:                         
 ---------------------------------------------------------------------
 Center     Atomic      Atomic             Coordinates (Angstroms)
 Number     Number       Type             X           Y           Z
 ---------------------------------------------------------------------
      1          8           0        2.033423   -0.722971   -0.035434
      2          8           0        2.032510    0.726339    0.009272
      3          1           0        1.171431   -1.031666    0.272517
      4          1           0        1.113607    1.024028    0.021759
      5         36           0       -0.967014   -0.000536   -0.002361
 ---------------------------------------------------------------------
 Rotational constants (GHZ):     26.5652681      2.3862430      2.1913165
 Leave Link  202 at Wed May  6 13:55:04 2020, MaxMem= 1073741824 cpu:       0.0
 (Enter /home/matheus/.gaussian/g09/l122.exe)
 Leave Link  122 at Wed May  6 13:55:04 2020, MaxMem= 1073741824 cpu:       0.0
 (Enter /home/matheus/.gaussian/g09/l301.exe)
 Standard basis: Aug-CC-pVTZ (5D, 7F)
 Ernie: Thresh=  0.10000D-02 Tol=  0.10000D-05 Strict=F.
 Ernie:  38 primitive shells out of 205 were deleted.
 There are   197 symmetry adapted basis functions of A   symmetry.
 Integral buffers will be    131072 words long.
 Raffenetti 2 integral format.
 Two-electron integral symmetry is turned on.
   197 basis functions,   415 primitive gaussians,   229 cartesian basis functions
    27 alpha electrons       27 beta electrons
       nuclear repulsion energy       151.6075768884 Hartrees.
 IExCor=10402 DFT=T Ex=LC-B+HF Corr=LYP ExCW=0 ScaHFX=  1.000000
 ScaDFX=  1.000000  1.000000  1.000000  1.000000 ScalE2=  1.000000  1.000000
 IRadAn=      5 IRanWt=     -1 IRanGd=            0 ICorTp=0
  HFx wShort=  0.000000 wLong=  1.350000 cFull=  0.000000 cShort=  0.000000 cLong=  1.000000
  DFx wShort=  0.000000 wLong=  1.350000 cFull=  0.000000 cShort=  0.000000 cLong=  1.000000
 NAtoms=    5 NActive=    5 NUniq=    5 SFac= 1.00D+00 NAtFMM=   60 NAOKFM=F Big=F
 Leave Link  301 at Wed May  6 13:55:04 2020, MaxMem= 1073741824 cpu:       0.2
 (Enter /home/matheus/.gaussian/g09/l302.exe)
 NPDir=0 NMtPBC=     1 NCelOv=     1 NCel=       1 NClECP=     1 NCelD=      1
         NCelK=      1 NCelE2=     1 NClLst=     1 CellRange=     0.0.
 One-electron integrals computed using PRISM.
 NBasis=   197 RedAO= T  NBF=   197
 NBsUse=   197 1.00D-06 NBFU=   197
 Precomputing XC quadrature grid using
 IXCGrd= 2 IRadAn=           5 IRanWt=          -1 IRanGd=           0 AccXCQ= 0.00D+00.
 NRdTot=     427 NPtTot=      123512 NUsed=      126579 NTot=      126611
 NSgBfM=   229   229   229   229   229 NAtAll=     5     5.
 Leave Link  302 at Wed May  6 13:55:04 2020, MaxMem= 1073741824 cpu:       1.1
 (Enter /home/matheus/.gaussian/g09/l303.exe)
 DipDrv:  MaxL=1.
 Leave Link  303 at Wed May  6 13:55:04 2020, MaxMem= 1073741824 cpu:       0.2
 (Enter /home/matheus/.gaussian/g09/l401.exe)
 Harris functional with IExCor=10402 diagonalized for initial guess.
 ExpMin= 2.53D-02 ExpMax= 1.17D+07 ExpMxC= 1.33D+04 IAcc=3 IRadAn=         5 AccDes= 0.00D+00
 HarFok:  IExCor=10402 AccDes= 0.00D+00 IRadAn=         5 IDoV= 1
 ScaDFX=  1.000000  1.000000  1.000000  1.000000
 FoFCou: FMM=F IPFlag=           0 FMFlag=      100000 FMFlg1=           0
         NFxFlg=           0 DoJE=T BraDBF=F KetDBF=T FulRan=T
         Omega=  0.000000  0.000000  1.000000  0.000000  0.000000 ICntrl=     500 IOpCl=  0
         NMat0=    1 NMatS0=    1 NMatT0=    0 NMatD0=    1 NMtDS0=    0 NMtDT0=    0
         I1Cent=           4 NGrid=           0.
 Petite list used in FoFCou.
 Harris En= -2874.90540594033    
 Initial guess orbital symmetries:
       Occupied  (A) (A) (A) (A) (A) (A) (A) (A) (A) (A) (A) (A)
                 (A) (A) (A) (A) (A) (A) (A) (A) (A) (A) (A) (A)
                 (A) (A) (A)
       Virtual   (A) (A) (A) (A) (A) (A) (A) (A) (A) (A) (A) (A)
                 (A) (A) (A) (A) (A) (A) (A) (A) (A) (A) (A) (A)
                 (A) (A) (A) (A) (A) (A) (A) (A) (A) (A) (A) (A)
                 (A) (A) (A) (A) (A) (A) (A) (A) (A) (A) (A) (A)
                 (A) (A) (A) (A) (A) (A) (A) (A) (A) (A) (A) (A)
                 (A) (A) (A) (A) (A) (A) (A) (A) (A) (A) (A) (A)
                 (A) (A) (A) (A) (A) (A) (A) (A) (A) (A) (A) (A)
                 (A) (A) (A) (A) (A) (A) (A) (A) (A) (A) (A) (A)
                 (A) (A) (A) (A) (A) (A) (A) (A) (A) (A) (A) (A)
                 (A) (A) (A) (A) (A) (A) (A) (A) (A) (A) (A) (A)
                 (A) (A) (A) (A) (A) (A) (A) (A) (A) (A) (A) (A)
                 (A) (A) (A) (A) (A) (A) (A) (A) (A) (A) (A) (A)
                 (A) (A) (A) (A) (A) (A) (A) (A) (A) (A) (A) (A)
                 (A) (A) (A) (A) (A) (A) (A) (A) (A) (A) (A) (A)
                 (A) (A)
 The electronic state of the initial guess is 1-A.
 Leave Link  401 at Wed May  6 13:55:04 2020, MaxMem= 1073741824 cpu:       4.7
 (Enter /home/matheus/.gaussian/g09/l502.exe)
 Closed shell SCF:
 Requested convergence on RMS density matrix=1.00D-08 within 128 cycles.
 Requested convergence on MAX density matrix=1.00D-06.
 Requested convergence on             energy=1.00D-06.
 No special actions if energy rises.
 Using DIIS extrapolation, IDIIS=  1040.
 Integral symmetry usage will be decided dynamically.
       126521 words used for storage of precomputed grid.
 IEnd=      305468 IEndB=      305468 NGot=  1073741824 MDV=  1073505667
 LenX=  1073505667 LenY=  1073452785
 Fock matrices will be formed incrementally for  20 cycles.

 Cycle   1  Pass 1  IDiag  1:
 FoFJK:  IHMeth= 1 ICntrl=     0 DoSepK=T KAlg= 1 I1Cent= 0 FoldK=F
 FoFCou: FMM=F IPFlag=           0 FMFlag=      100000 FMFlg1=           0
         NFxFlg=           0 DoJE=T BraDBF=F KetDBF=F FulRan=T
         Omega=  0.000000  0.000000  1.000000  0.000000  0.000000 ICntrl=     500 IOpCl=  0
         NMat0=    1 NMatS0=    1 NMatT0=    0 NMatD0=    1 NMtDS0=    0 NMtDT0=    0
         I1Cent=           0 NGrid=           0.
 Symmetry not used in FoFCou.
 E= -2900.66510234639    
 DIIS: error= 1.11D-01 at cycle   1 NSaved=   1.
 NSaved= 1 IEnMin= 1 EnMin= -2900.66510234639     IErMin= 1 ErrMin= 1.11D-01
 ErrMax= 1.11D-01 EMaxC= 1.00D-01 BMatC= 3.51D+00 BMatP= 3.51D+00
 IDIUse=3 WtCom= 0.00D+00 WtEn= 1.00D+00
 Coeff-Com:  0.100D+01
 Coeff-En:   0.100D+01
 Coeff:      0.100D+01
 Gap=     0.048 Goal=   None    Shift=    0.000
 GapD=    0.048 DampG=0.250 DampE=0.250 DampFc=0.2500 IDamp=-1.
 Damping current iteration by 2.50D-01
 RMSDP=5.42D-02 MaxDP=2.68D+00              OVMax= 1.00D+00

 Cycle   2  Pass 1  IDiag  1:
 RMSU=  4.20D-03    CP:  7.93D-01
 FoFJK:  IHMeth= 1 ICntrl=     0 DoSepK=T KAlg= 1 I1Cent= 0 FoldK=F
 E= -2901.94776396458     Delta-E=       -1.282661618187 Rises=F Damp=T
 DIIS: error= 5.08D-02 at cycle   2 NSaved=   2.
 NSaved= 2 IEnMin= 2 EnMin= -2901.94776396458     IErMin= 2 ErrMin= 5.08D-02
 ErrMax= 5.08D-02 EMaxC= 1.00D-01 BMatC= 9.85D-01 BMatP= 3.51D+00
 IDIUse=3 WtCom= 4.92D-01 WtEn= 5.08D-01
 Coeff-Com: -0.790D+00 0.179D+01
 Coeff-En:   0.000D+00 0.100D+01
 Coeff:     -0.389D+00 0.139D+01
 Gap=     0.126 Goal=   None    Shift=    0.000
 RMSDP=4.05D-02 MaxDP=2.01D+00 DE=-1.28D+00 OVMax= 9.67D-01

 Cycle   3  Pass 1  IDiag  1:
 RMSU=  5.66D-03    CP:  1.74D-01  3.00D+00
 FoFJK:  IHMeth= 1 ICntrl=     0 DoSepK=T KAlg= 1 I1Cent= 0 FoldK=F
 E= -2904.43797921631     Delta-E=       -2.490215251728 Rises=F Damp=F
 DIIS: error= 2.24D-02 at cycle   3 NSaved=   3.
 NSaved= 3 IEnMin= 3 EnMin= -2904.43797921631     IErMin= 3 ErrMin= 2.24D-02
 ErrMax= 2.24D-02 EMaxC= 1.00D-01 BMatC= 3.11D-01 BMatP= 9.85D-01
 IDIUse=3 WtCom= 7.76D-01 WtEn= 2.24D-01
 Coeff-Com: -0.917D-01 0.480D+00 0.612D+00
 Coeff-En:   0.000D+00 0.000D+00 0.100D+01
 Coeff:     -0.712D-01 0.372D+00 0.699D+00
 Gap=     0.560 Goal=   None    Shift=    0.000
 RMSDP=1.97D-03 MaxDP=8.39D-02 DE=-2.49D+00 OVMax= 6.51D-02

 Cycle   4  Pass 1  IDiag  1:
 RMSU=  1.38D-03    CP:  1.71D-01  3.00D+00  9.71D-01
 FoFJK:  IHMeth= 1 ICntrl=     0 DoSepK=T KAlg= 1 I1Cent= 0 FoldK=F
 E= -2904.60588205375     Delta-E=       -0.167902837438 Rises=F Damp=F
 DIIS: error= 3.98D-03 at cycle   4 NSaved=   4.
 NSaved= 4 IEnMin= 4 EnMin= -2904.60588205375     IErMin= 4 ErrMin= 3.98D-03
 ErrMax= 3.98D-03 EMaxC= 1.00D-01 BMatC= 5.94D-03 BMatP= 3.11D-01
 IDIUse=3 WtCom= 9.60D-01 WtEn= 3.98D-02
 Coeff-Com: -0.369D-02 0.169D-01 0.350D-01 0.952D+00
 Coeff-En:   0.000D+00 0.000D+00 0.000D+00 0.100D+01
 Coeff:     -0.354D-02 0.162D-01 0.336D-01 0.954D+00
 Gap=     0.496 Goal=   None    Shift=    0.000
 RMSDP=5.87D-04 MaxDP=2.21D-02 DE=-1.68D-01 OVMax= 1.72D-02

 Cycle   5  Pass 1  IDiag  1:
 RMSU=  3.82D-04    CP:  1.71D-01  3.00D+00  9.75D-01  1.12D+00
 FoFJK:  IHMeth= 1 ICntrl=     0 DoSepK=T KAlg= 1 I1Cent= 0 FoldK=F
 E= -2904.61094062129     Delta-E=       -0.005058567545 Rises=F Damp=F
 DIIS: error= 1.27D-03 at cycle   5 NSaved=   5.
 NSaved= 5 IEnMin= 5 EnMin= -2904.61094062129     IErMin= 5 ErrMin= 1.27D-03
 ErrMax= 1.27D-03 EMaxC= 1.00D-01 BMatC= 2.98D-04 BMatP= 5.94D-03
 IDIUse=3 WtCom= 9.87D-01 WtEn= 1.27D-02
 Coeff-Com: -0.137D-01 0.221D-01-0.274D-02-0.114D-01 0.101D+01
 Coeff-En:   0.000D+00 0.000D+00 0.000D+00 0.000D+00 0.100D+01
 Coeff:     -0.135D-01 0.218D-01-0.270D-02-0.112D-01 0.101D+01
 Gap=     0.506 Goal=   None    Shift=    0.000
 RMSDP=1.14D-04 MaxDP=1.85D-03 DE=-5.06D-03 OVMax= 5.42D-03

 Cycle   6  Pass 1  IDiag  1:
 RMSU=  6.91D-05    CP:  1.71D-01  3.00D+00  9.76D-01  1.13D+00  1.09D+00
 FoFJK:  IHMeth= 1 ICntrl=     0 DoSepK=T KAlg= 1 I1Cent= 0 FoldK=F
 E= -2904.61128017978     Delta-E=       -0.000339558484 Rises=F Damp=F
 DIIS: error= 4.69D-04 at cycle   6 NSaved=   6.
 NSaved= 6 IEnMin= 6 EnMin= -2904.61128017978     IErMin= 6 ErrMin= 4.69D-04
 ErrMax= 4.69D-04 EMaxC= 1.00D-01 BMatC= 3.21D-05 BMatP= 2.98D-04
 IDIUse=3 WtCom= 9.95D-01 WtEn= 4.69D-03
 Coeff-Com: -0.381D-02 0.592D-02-0.602D-02-0.257D-01-0.947D-01 0.112D+01
 Coeff-En:   0.000D+00 0.000D+00 0.000D+00 0.000D+00 0.000D+00 0.100D+01
 Coeff:     -0.379D-02 0.589D-02-0.599D-02-0.256D-01-0.942D-01 0.112D+01
 Gap=     0.509 Goal=   None    Shift=    0.000
 RMSDP=3.89D-05 MaxDP=1.07D-03 DE=-3.40D-04 OVMax= 2.26D-03

 Cycle   7  Pass 1  IDiag  1:
 RMSU=  1.59D-05    CP:  1.71D-01  3.00D+00  9.76D-01  1.14D+00  1.14D+00
                    CP:  1.15D+00
 FoFJK:  IHMeth= 1 ICntrl=     0 DoSepK=T KAlg= 1 I1Cent= 0 FoldK=F
 E= -2904.61133102968     Delta-E=       -0.000050849904 Rises=F Damp=F
 DIIS: error= 8.65D-05 at cycle   7 NSaved=   7.
 NSaved= 7 IEnMin= 7 EnMin= -2904.61133102968     IErMin= 7 ErrMin= 8.65D-05
 ErrMax= 8.65D-05 EMaxC= 1.00D-01 BMatC= 3.30D-06 BMatP= 3.21D-05
 IDIUse=1 WtCom= 1.00D+00 WtEn= 0.00D+00
 Coeff-Com: -0.222D-03 0.197D-03-0.190D-02-0.613D-02-0.629D-01 0.198D+00
 Coeff-Com:  0.873D+00
 Coeff:     -0.222D-03 0.197D-03-0.190D-02-0.613D-02-0.629D-01 0.198D+00
 Coeff:      0.873D+00
 Gap=     0.510 Goal=   None    Shift=    0.000
 RMSDP=1.05D-05 MaxDP=5.01D-04 DE=-5.08D-05 OVMax= 5.93D-04

 Cycle   8  Pass 1  IDiag  1:
 RMSU=  5.32D-06    CP:  1.71D-01  3.00D+00  9.76D-01  1.14D+00  1.14D+00
                    CP:  1.18D+00  1.20D+00
 FoFJK:  IHMeth= 1 ICntrl=     0 DoSepK=T KAlg= 1 I1Cent= 0 FoldK=F
 E= -2904.61133503814     Delta-E=       -0.000004008457 Rises=F Damp=F
 DIIS: error= 5.28D-05 at cycle   8 NSaved=   8.
 NSaved= 8 IEnMin= 8 EnMin= -2904.61133503814     IErMin= 8 ErrMin= 5.28D-05
 ErrMax= 5.28D-05 EMaxC= 1.00D-01 BMatC= 7.28D-07 BMatP= 3.30D-06
 IDIUse=1 WtCom= 1.00D+00 WtEn= 0.00D+00
 Coeff-Com:  0.598D-03-0.101D-02 0.230D-03 0.882D-03-0.422D-02-0.874D-01
 Coeff-Com:  0.288D+00 0.803D+00
 Coeff:      0.598D-03-0.101D-02 0.230D-03 0.882D-03-0.422D-02-0.874D-01
 Coeff:      0.288D+00 0.803D+00
 Gap=     0.510 Goal=   None    Shift=    0.000
 RMSDP=4.04D-06 MaxDP=2.16D-04 DE=-4.01D-06 OVMax= 2.54D-04

 Cycle   9  Pass 1  IDiag  1:
 RMSU=  2.05D-06    CP:  1.71D-01  3.00D+00  9.76D-01  1.14D+00  1.14D+00
                    CP:  1.18D+00  1.31D+00  1.14D+00
 FoFJK:  IHMeth= 1 ICntrl=     0 DoSepK=T KAlg= 1 I1Cent= 0 FoldK=F
 E= -2904.61133581396     Delta-E=       -0.000000775821 Rises=F Damp=F
 DIIS: error= 1.80D-05 at cycle   9 NSaved=   9.
 NSaved= 9 IEnMin= 9 EnMin= -2904.61133581396     IErMin= 9 ErrMin= 1.80D-05
 ErrMax= 1.80D-05 EMaxC= 1.00D-01 BMatC= 7.72D-08 BMatP= 7.28D-07
 IDIUse=1 WtCom= 1.00D+00 WtEn= 0.00D+00
 Coeff-Com:  0.262D-03-0.411D-03 0.356D-03 0.772D-03 0.478D-02-0.176D-01
 Coeff-Com: -0.642D-01 0.672D-01 0.101D+01
 Coeff:      0.262D-03-0.411D-03 0.356D-03 0.772D-03 0.478D-02-0.176D-01
 Coeff:     -0.642D-01 0.672D-01 0.101D+01
 Gap=     0.510 Goal=   None    Shift=    0.000
 RMSDP=1.77D-06 MaxDP=5.18D-05 DE=-7.76D-07 OVMax= 1.39D-04

 Cycle  10  Pass 1  IDiag  1:
 RMSU=  7.14D-07    CP:  1.71D-01  3.00D+00  9.76D-01  1.14D+00  1.14D+00
                    CP:  1.18D+00  1.33D+00  1.27D+00  1.28D+00
 FoFJK:  IHMeth= 1 ICntrl=     0 DoSepK=T KAlg= 1 I1Cent= 0 FoldK=F
 E= -2904.61133595238     Delta-E=       -0.000000138417 Rises=F Damp=F
 DIIS: error= 9.04D-06 at cycle  10 NSaved=  10.
 NSaved=10 IEnMin=10 EnMin= -2904.61133595238     IErMin=10 ErrMin= 9.04D-06
 ErrMax= 9.04D-06 EMaxC= 1.00D-01 BMatC= 1.12D-08 BMatP= 7.72D-08
 IDIUse=1 WtCom= 1.00D+00 WtEn= 0.00D+00
 Coeff-Com: -0.109D-04 0.247D-04-0.463D-04-0.613D-04-0.281D-02 0.184D-01
 Coeff-Com: -0.202D-01-0.123D+00-0.186D+00 0.131D+01
 Coeff:     -0.109D-04 0.247D-04-0.463D-04-0.613D-04-0.281D-02 0.184D-01
 Coeff:     -0.202D-01-0.123D+00-0.186D+00 0.131D+01
 Gap=     0.510 Goal=   None    Shift=    0.000
 RMSDP=9.99D-07 MaxDP=2.01D-05 DE=-1.38D-07 OVMax= 9.26D-05

 Cycle  11  Pass 1  IDiag  1:
 RMSU=  2.67D-07    CP:  1.71D-01  3.00D+00  9.76D-01  1.14D+00  1.14D+00
                    CP:  1.18D+00  1.33D+00  1.33D+00  1.49D+00  1.51D+00
 FoFJK:  IHMeth= 1 ICntrl=     0 DoSepK=T KAlg= 1 I1Cent= 0 FoldK=F
 E= -2904.61133598489     Delta-E=       -0.000000032512 Rises=F Damp=F
 DIIS: error= 2.77D-06 at cycle  11 NSaved=  11.
 NSaved=11 IEnMin=11 EnMin= -2904.61133598489     IErMin=11 ErrMin= 2.77D-06
 ErrMax= 2.77D-06 EMaxC= 1.00D-01 BMatC= 7.23D-10 BMatP= 1.12D-08
 IDIUse=1 WtCom= 1.00D+00 WtEn= 0.00D+00
 Coeff-Com: -0.221D-04 0.340D-04-0.829D-05-0.369D-04 0.576D-03-0.420D-02
 Coeff-Com:  0.678D-02 0.253D-01-0.236D-01-0.387D+00 0.138D+01
 Coeff:     -0.221D-04 0.340D-04-0.829D-05-0.369D-04 0.576D-03-0.420D-02
 Coeff:      0.678D-02 0.253D-01-0.236D-01-0.387D+00 0.138D+01
 Gap=     0.510 Goal=   None    Shift=    0.000
 RMSDP=3.51D-07 MaxDP=7.02D-06 DE=-3.25D-08 OVMax= 3.52D-05

 Cycle  12  Pass 1  IDiag  1:
 RMSU=  7.58D-08    CP:  1.71D-01  3.00D+00  9.76D-01  1.14D+00  1.14D+00
                    CP:  1.18D+00  1.34D+00  1.35D+00  1.54D+00  1.67D+00
                    CP:  1.49D+00
 FoFJK:  IHMeth= 1 ICntrl=     0 DoSepK=T KAlg= 1 I1Cent= 0 FoldK=F
 E= -2904.61133598787     Delta-E=       -0.000000002983 Rises=F Damp=F
 DIIS: error= 5.93D-07 at cycle  12 NSaved=  12.
 NSaved=12 IEnMin=12 EnMin= -2904.61133598787     IErMin=12 ErrMin= 5.93D-07
 ErrMax= 5.93D-07 EMaxC= 1.00D-01 BMatC= 6.22D-11 BMatP= 7.23D-10
 IDIUse=1 WtCom= 1.00D+00 WtEn= 0.00D+00
 Coeff-Com: -0.516D-05 0.783D-05-0.449D-06 0.457D-05 0.612D-04 0.150D-03
 Coeff-Com: -0.126D-02 0.643D-04 0.193D-01 0.163D-01-0.293D+00 0.126D+01
 Coeff:     -0.516D-05 0.783D-05-0.449D-06 0.457D-05 0.612D-04 0.150D-03
 Coeff:     -0.126D-02 0.643D-04 0.193D-01 0.163D-01-0.293D+00 0.126D+01
 Gap=     0.510 Goal=   None    Shift=    0.000
 RMSDP=6.58D-08 MaxDP=1.53D-06 DE=-2.98D-09 OVMax= 5.49D-06

 Cycle  13  Pass 1  IDiag  1:
 RMSU=  1.91D-08    CP:  1.71D-01  3.00D+00  9.76D-01  1.14D+00  1.14D+00
                    CP:  1.18D+00  1.34D+00  1.35D+00  1.55D+00  1.67D+00
                    CP:  1.55D+00  1.42D+00
 FoFJK:  IHMeth= 1 ICntrl=     0 DoSepK=T KAlg= 1 I1Cent= 0 FoldK=F
 E= -2904.61133598803     Delta-E=       -0.000000000162 Rises=F Damp=F
 DIIS: error= 1.69D-07 at cycle  13 NSaved=  13.
 NSaved=13 IEnMin=13 EnMin= -2904.61133598803     IErMin=13 ErrMin= 1.69D-07
 ErrMax= 1.69D-07 EMaxC= 1.00D-01 BMatC= 4.70D-12 BMatP= 6.22D-11
 IDIUse=1 WtCom= 1.00D+00 WtEn= 0.00D+00
 Coeff-Com: -0.574D-06 0.113D-05-0.148D-05 0.183D-05-0.610D-04 0.425D-03
 Coeff-Com: -0.653D-03-0.280D-02-0.135D-02 0.309D-01-0.799D-01-0.126D+00
 Coeff-Com:  0.118D+01
 Coeff:     -0.574D-06 0.113D-05-0.148D-05 0.183D-05-0.610D-04 0.425D-03
 Coeff:     -0.653D-03-0.280D-02-0.135D-02 0.309D-01-0.799D-01-0.126D+00
 Coeff:      0.118D+01
 Gap=     0.510 Goal=   None    Shift=    0.000
 RMSDP=2.06D-08 MaxDP=5.22D-07 DE=-1.62D-10 OVMax= 1.66D-06

 Cycle  14  Pass 1  IDiag  1:
 RMSU=  4.67D-09    CP:  1.71D-01  3.00D+00  9.76D-01  1.14D+00  1.14D+00
                    CP:  1.18D+00  1.34D+00  1.35D+00  1.55D+00  1.67D+00
                    CP:  1.56D+00  1.53D+00  1.45D+00
 FoFJK:  IHMeth= 1 ICntrl=     0 DoSepK=T KAlg= 1 I1Cent= 0 FoldK=F
 E= -2904.61133598803     Delta-E=       -0.000000000002 Rises=F Damp=F
 DIIS: error= 6.32D-08 at cycle  14 NSaved=  14.
 NSaved=14 IEnMin=14 EnMin= -2904.61133598803     IErMin=14 ErrMin= 6.32D-08
 ErrMax= 6.32D-08 EMaxC= 1.00D-01 BMatC= 3.41D-13 BMatP= 4.70D-12
 IDIUse=1 WtCom= 1.00D+00 WtEn= 0.00D+00
 Coeff-Com:  0.236D-06-0.401D-06 0.297D-06-0.261D-05 0.204D-04-0.129D-03
 Coeff-Com:  0.229D-03 0.870D-03-0.361D-03-0.110D-01 0.433D-01-0.116D-01
 Coeff-Com: -0.484D+00 0.146D+01
 Coeff:      0.236D-06-0.401D-06 0.297D-06-0.261D-05 0.204D-04-0.129D-03
 Coeff:      0.229D-03 0.870D-03-0.361D-03-0.110D-01 0.433D-01-0.116D-01
 Coeff:     -0.484D+00 0.146D+01
 Gap=     0.510 Goal=   None    Shift=    0.000
 RMSDP=6.95D-09 MaxDP=1.40D-07 DE=-1.82D-12 OVMax= 9.39D-07

 SCF Done:  E(RLC-B+HF-LYP) =  -2904.61133599     A.U. after   14 cycles
             Convg  =    0.6954D-08             -V/T =  2.0016
 KE= 2.899975117632D+03 PE=-7.239581760899D+03 EE= 1.283387730391D+03
 Leave Link  502 at Wed May  6 13:55:55 2020, MaxMem= 1073741824 cpu:     405.6
 (Enter /home/matheus/.gaussian/g09/l601.exe)
 Copying SCF densities to generalized density rwf, IOpCl= 0 IROHF=0.

 **********************************************************************

            Population analysis using the SCF density.

 **********************************************************************

 Orbital symmetries:
       Occupied  (A) (A) (A) (A) (A) (A) (A) (A) (A) (A) (A) (A)
                 (A) (A) (A) (A) (A) (A) (A) (A) (A) (A) (A) (A)
                 (A) (A) (A)
       Virtual   (A) (A) (A) (A) (A) (A) (A) (A) (A) (A) (A) (A)
                 (A) (A) (A) (A) (A) (A) (A) (A) (A) (A) (A) (A)
                 (A) (A) (A) (A) (A) (A) (A) (A) (A) (A) (A) (A)
                 (A) (A) (A) (A) (A) (A) (A) (A) (A) (A) (A) (A)
                 (A) (A) (A) (A) (A) (A) (A) (A) (A) (A) (A) (A)
                 (A) (A) (A) (A) (A) (A) (A) (A) (A) (A) (A) (A)
                 (A) (A) (A) (A) (A) (A) (A) (A) (A) (A) (A) (A)
                 (A) (A) (A) (A) (A) (A) (A) (A) (A) (A) (A) (A)
                 (A) (A) (A) (A) (A) (A) (A) (A) (A) (A) (A) (A)
                 (A) (A) (A) (A) (A) (A) (A) (A) (A) (A) (A) (A)
                 (A) (A) (A) (A) (A) (A) (A) (A) (A) (A) (A) (A)
                 (A) (A) (A) (A) (A) (A) (A) (A) (A) (A) (A) (A)
                 (A) (A) (A) (A) (A) (A) (A) (A) (A) (A) (A) (A)
                 (A) (A) (A) (A) (A) (A) (A) (A) (A) (A) (A) (A)
                 (A) (A)
 The electronic state is 1-A.
 Alpha  occ. eigenvalues -- -511.69600 -67.22081 -60.89283 -60.89277 -60.89265
 Alpha  occ. eigenvalues --  -19.47994 -19.47925 -10.12198  -7.83784  -7.83765
 Alpha  occ. eigenvalues --   -7.83734  -3.66749  -3.66748  -3.66721  -3.66706
 Alpha  occ. eigenvalues --   -3.66702  -1.46239  -1.21755  -1.21104  -0.79814
 Alpha  occ. eigenvalues --   -0.65673  -0.63283  -0.61229  -0.59247  -0.58755
 Alpha  occ. eigenvalues --   -0.57564  -0.48312
 Alpha virt. eigenvalues --    0.02675   0.04010   0.07549   0.08275   0.10307
 Alpha virt. eigenvalues --    0.12122   0.12739   0.15372   0.16701   0.17545
 Alpha virt. eigenvalues --    0.18006   0.18787   0.21147   0.23060   0.23768
 Alpha virt. eigenvalues --    0.24303   0.24917   0.27299   0.31403   0.33905
 Alpha virt. eigenvalues --    0.34111   0.36759   0.38319   0.38727   0.40057
 Alpha virt. eigenvalues --    0.43594   0.46396   0.49503   0.53609   0.54910
 Alpha virt. eigenvalues --    0.61038   0.62700   0.63617   0.66002   0.67394
 Alpha virt. eigenvalues --    0.71270   0.72071   0.74797   0.75893   0.78491
 Alpha virt. eigenvalues --    0.79218   0.79884   0.83843   0.85204   0.88116
 Alpha virt. eigenvalues --    0.88608   0.90013   0.91059   0.93641   0.95134
 Alpha virt. eigenvalues --    0.96685   0.98988   1.00075   1.01999   1.03277
 Alpha virt. eigenvalues --    1.07831   1.08144   1.09698   1.12724   1.14786
 Alpha virt. eigenvalues --    1.17283   1.22122   1.26557   1.30144   1.31508
 Alpha virt. eigenvalues --    1.35721   1.39370   1.43998   1.45396   1.49962
 Alpha virt. eigenvalues --    1.54533   1.58015   1.59910   1.62177   1.64873
 Alpha virt. eigenvalues --    1.68490   1.74882   1.92220   1.99360   2.03764
 Alpha virt. eigenvalues --    2.08893   2.14734   2.20157   2.24344   2.25520
 Alpha virt. eigenvalues --    2.28200   2.32444   2.33343   2.34115   2.41317
 Alpha virt. eigenvalues --    2.42659   2.43266   2.44595   2.45830   2.47389
 Alpha virt. eigenvalues --    2.51332   2.51491   2.54798   2.59556   2.61364
 Alpha virt. eigenvalues --    2.63343   2.64281   2.70178   2.71951   2.72913
 Alpha virt. eigenvalues --    2.76068   2.78297   2.80501   2.81936   2.85117
 Alpha virt. eigenvalues --    2.87374   2.90938   2.94081   3.00853   3.05079
 Alpha virt. eigenvalues --    3.07683   3.23429   3.25729   3.26698   3.71291
 Alpha virt. eigenvalues --    3.88371   4.05510   4.11799   4.18592   4.24889
 Alpha virt. eigenvalues --    4.28975   4.31569   4.32851   4.34489   4.40848
 Alpha virt. eigenvalues --    4.56293   4.68077   4.69524   4.87570   4.89987
 Alpha virt. eigenvalues --    5.14514   5.17997   5.22558   5.26932   5.29226
 Alpha virt. eigenvalues --    5.34914   5.73054   6.04450   6.25785   6.27939
 Alpha virt. eigenvalues --    6.36036   6.59945   6.61835   6.72755   6.82369
 Alpha virt. eigenvalues --    6.93872   6.98543   7.04114   7.06963   7.08658
 Alpha virt. eigenvalues --    7.12485   7.15024   7.16203   7.17628   7.35351
 Alpha virt. eigenvalues --    7.41409   7.43701   7.52888   7.59978   7.84586
 Alpha virt. eigenvalues --    8.24250   8.28319   8.43739  14.05452  14.94430
          Condensed to atoms (all electrons):
              1          2          3          4          5
     1  O    8.259091  -0.226847   0.171721   0.033416  -0.018284
     2  O   -0.226847   8.243642   0.038083   0.184934  -0.013096
     3  H    0.171721   0.038083   0.601483  -0.020307  -0.012063
     4  H    0.033416   0.184934  -0.020307   0.597441  -0.019441
     5  Kr  -0.018284  -0.013096  -0.012063  -0.019441  36.062111
 Mulliken atomic charges:
              1
     1  O   -0.219097
     2  O   -0.226716
     3  H    0.221083
     4  H    0.223957
     5  Kr   0.000773
 Sum of Mulliken atomic charges =   0.00000
 Mulliken charges with hydrogens summed into heavy atoms:
              1
     1  O    0.001986
     2  O   -0.002759
     5  Kr   0.000773
 Sum of Mulliken charges with hydrogens summed into heavy atoms =   0.00000
          Condensed to fragments (all electrons):
     1      -0.000773
     2       0.000773
 Electronic spatial extent (au):  <R**2>=            475.6237
 Charge=              0.0000 electrons
 Dipole moment (field-independent basis, Debye):
    X=             -3.8112    Y=             -0.0454    Z=              0.4912  Tot=              3.8430
 Quadrupole moment (field-independent basis, Debye-Ang):
   XX=            -39.1463   YY=            -27.8234   ZZ=            -29.9770
   XY=             -0.1419   XZ=              0.5819   YZ=             -0.6431
 Traceless Quadrupole moment (field-independent basis, Debye-Ang):
   XX=             -6.8307   YY=              4.4921   ZZ=              2.3386
   XY=             -0.1419   XZ=              0.5819   YZ=             -0.6431
 Octapole moment (field-independent basis, Debye-Ang**2):
  XXX=            -45.8156  YYY=             -0.1111  ZZZ=              0.0477  XYY=             -7.8719
  XXY=             -0.3307  XXZ=              0.1193  XZZ=             -8.2561  YZZ=             -0.2215
  YYZ=              0.7445  XYZ=             -0.7404
 Hexadecapole moment (field-independent basis, Debye-Ang**3):
 XXXX=           -455.4413 YYYY=            -61.7364 ZZZZ=            -27.9421 XXXY=             -0.3571
 XXXZ=             -0.5809 YYYX=             -0.2634 YYYZ=             -0.8831 ZZZX=              0.2851
 ZZZY=             -0.3688 XXYY=            -85.7603 XXZZ=            -74.8576 YYZZ=            -16.6058
 XXYZ=             -0.8513 YYXZ=              0.8903 ZZXY=             -0.2827
 N-N= 1.516075768884D+02 E-N=-7.239581756139D+03  KE= 2.899975117632D+03
 No NMR shielding tensors so no spin-rotation constants.
 Leave Link  601 at Wed May  6 13:55:56 2020, MaxMem= 1073741824 cpu:       0.7
 (Enter /home/matheus/.gaussian/g09/l122.exe)
 Counterpoise: doing DCBS calculation for fragment   1 NewBq=T
 Leave Link  122 at Wed May  6 13:55:56 2020, MaxMem= 1073741824 cpu:       0.0
 (Enter /home/matheus/.gaussian/g09/l301.exe)
 Basis read from rwf:  (5D, 7F)
 No pseudopotential information found on rwf file.
 There are   197 symmetry adapted basis functions of A   symmetry.
 Integral buffers will be    131072 words long.
 Raffenetti 2 integral format.
 Two-electron integral symmetry is turned on.
   197 basis functions,   415 primitive gaussians,   229 cartesian basis functions
     9 alpha electrons        9 beta electrons
       nuclear repulsion energy        36.6636681782 Hartrees.
 IExCor=10402 DFT=T Ex=LC-B+HF Corr=LYP ExCW=0 ScaHFX=  1.000000
 ScaDFX=  1.000000  1.000000  1.000000  1.000000 ScalE2=  1.000000  1.000000
 IRadAn=      5 IRanWt=     -1 IRanGd=            0 ICorTp=0
  HFx wShort=  0.000000 wLong=  1.350000 cFull=  0.000000 cShort=  0.000000 cLong=  1.000000
  DFx wShort=  0.000000 wLong=  1.350000 cFull=  0.000000 cShort=  0.000000 cLong=  1.000000
 NAtoms=    5 NActive=    5 NUniq=    5 SFac= 1.00D+00 NAtFMM=   60 NAOKFM=F Big=F
 No density basis found on file   718.
 Leave Link  301 at Wed May  6 13:55:56 2020, MaxMem= 1073741824 cpu:       0.2
 (Enter /home/matheus/.gaussian/g09/l302.exe)
 NPDir=0 NMtPBC=     1 NCelOv=     1 NCel=       1 NClECP=     1 NCelD=      1
         NCelK=      1 NCelE2=     1 NClLst=     1 CellRange=     0.0.
 One-electron integrals computed using PRISM.
 NBasis=   197 RedAO= T  NBF=   197
 NBsUse=   197 1.00D-06 NBFU=   197
 Precomputing XC quadrature grid using
 IXCGrd= 2 IRadAn=           5 IRanWt=          -1 IRanGd=           0 AccXCQ= 0.00D+00.
 NRdTot=     427 NPtTot=      123512 NUsed=      126579 NTot=      126611
 NSgBfM=   229   229   229   229   229 NAtAll=     5     5.
 Leave Link  302 at Wed May  6 13:55:56 2020, MaxMem= 1073741824 cpu:       0.9
 (Enter /home/matheus/.gaussian/g09/l303.exe)
 DipDrv:  MaxL=1.
 Leave Link  303 at Wed May  6 13:55:56 2020, MaxMem= 1073741824 cpu:       0.2
 (Enter /home/matheus/.gaussian/g09/l401.exe)
 Harris functional with IExCor=10402 diagonalized for initial guess.
 ExpMin= 2.53D-02 ExpMax= 1.17D+07 ExpMxC= 1.33D+04 IAcc=3 IRadAn=         5 AccDes= 0.00D+00
 HarFok:  IExCor=10402 AccDes= 0.00D+00 IRadAn=         5 IDoV= 1
 ScaDFX=  1.000000  1.000000  1.000000  1.000000
 FoFCou: FMM=F IPFlag=           0 FMFlag=      100000 FMFlg1=           0
         NFxFlg=           0 DoJE=T BraDBF=F KetDBF=T FulRan=T
         Omega=  0.000000  0.000000  1.000000  0.000000  0.000000 ICntrl=     500 IOpCl=  0
         NMat0=    1 NMatS0=    1 NMatT0=    0 NMatD0=    1 NMtDS0=    0 NMtDT0=    0
         I1Cent=           4 NGrid=           0.
 Petite list used in FoFCou.
 Harris En= -143.224406167055    
 Initial guess orbital symmetries:
       Occupied  (A) (A) (A) (A) (A) (A) (A) (A) (A)
       Virtual   (A) (A) (A) (A) (A) (A) (A) (A) (A) (A) (A) (A)
                 (A) (A) (A) (A) (A) (A) (A) (A) (A) (A) (A) (A)
                 (A) (A) (A) (A) (A) (A) (A) (A) (A) (A) (A) (A)
                 (A) (A) (A) (A) (A) (A) (A) (A) (A) (A) (A) (A)
                 (A) (A) (A) (A) (A) (A) (A) (A) (A) (A) (A) (A)
                 (A) (A) (A) (A) (A) (A) (A) (A) (A) (A) (A) (A)
                 (A) (A) (A) (A) (A) (A) (A) (A) (A) (A) (A) (A)
                 (A) (A) (A) (A) (A) (A) (A) (A) (A) (A) (A) (A)
                 (A) (A) (A) (A) (A) (A) (A) (A) (A) (A) (A) (A)
                 (A) (A) (A) (A) (A) (A) (A) (A) (A) (A) (A) (A)
                 (A) (A) (A) (A) (A) (A) (A) (A) (A) (A) (A) (A)
                 (A) (A) (A) (A) (A) (A) (A) (A) (A) (A) (A) (A)
                 (A) (A) (A) (A) (A) (A) (A) (A) (A) (A) (A) (A)
                 (A) (A) (A) (A) (A) (A) (A) (A) (A) (A) (A) (A)
                 (A) (A) (A) (A) (A) (A) (A) (A) (A) (A) (A) (A)
                 (A) (A) (A) (A) (A) (A) (A) (A)
 The electronic state of the initial guess is 1-A.
 Leave Link  401 at Wed May  6 13:55:56 2020, MaxMem= 1073741824 cpu:       3.8
 (Enter /home/matheus/.gaussian/g09/l502.exe)
 Closed shell SCF:
 Requested convergence on RMS density matrix=1.00D-08 within 128 cycles.
 Requested convergence on MAX density matrix=1.00D-06.
 Requested convergence on             energy=1.00D-06.
 No special actions if energy rises.
 Using DIIS extrapolation, IDIIS=  1040.
 Integral symmetry usage will be decided dynamically.
       126521 words used for storage of precomputed grid.
 IEnd=      305468 IEndB=      305468 NGot=  1073741824 MDV=  1073505667
 LenX=  1073505667 LenY=  1073452785
 Fock matrices will be formed incrementally for  20 cycles.

 Cycle   1  Pass 1  IDiag  1:
 FoFJK:  IHMeth= 1 ICntrl=     0 DoSepK=T KAlg= 1 I1Cent= 0 FoldK=F
 FoFCou: FMM=F IPFlag=           0 FMFlag=      100000 FMFlg1=           0
         NFxFlg=           0 DoJE=T BraDBF=F KetDBF=F FulRan=T
         Omega=  0.000000  0.000000  1.000000  0.000000  0.000000 ICntrl=     500 IOpCl=  0
         NMat0=    1 NMatS0=    1 NMatT0=    0 NMatD0=    1 NMtDS0=    0 NMtDT0=    0
         I1Cent=           0 NGrid=           0.
 Symmetry not used in FoFCou.
 E= -148.089130399644    
 DIIS: error= 1.20D-01 at cycle   1 NSaved=   1.
 NSaved= 1 IEnMin= 1 EnMin= -148.089130399644     IErMin= 1 ErrMin= 1.20D-01
 ErrMax= 1.20D-01 EMaxC= 1.00D-01 BMatC= 2.25D+00 BMatP= 2.25D+00
 IDIUse=3 WtCom= 0.00D+00 WtEn= 1.00D+00
 Coeff-Com:  0.100D+01
 Coeff-En:   0.100D+01
 Coeff:      0.100D+01
 Gap=     0.192 Goal=   None    Shift=    0.000
 GapD=    0.192 DampG=1.000 DampE=0.250 DampFc=0.2500 IDamp=-1.
 Damping current iteration by 2.50D-01
 RMSDP=3.18D-02 MaxDP=1.21D+00              OVMax= 1.00D+00

 Cycle   2  Pass 1  IDiag  1:
 RMSU=  1.73D-03    CP:  7.68D-01
 FoFJK:  IHMeth= 1 ICntrl=     0 DoSepK=T KAlg= 1 I1Cent= 0 FoldK=F
 E= -149.226398911151     Delta-E=       -1.137268511507 Rises=F Damp=T
 DIIS: error= 6.51D-02 at cycle   2 NSaved=   2.
 NSaved= 2 IEnMin= 2 EnMin= -149.226398911151     IErMin= 2 ErrMin= 6.51D-02
 ErrMax= 6.51D-02 EMaxC= 1.00D-01 BMatC= 6.40D-01 BMatP= 2.25D+00
 IDIUse=3 WtCom= 3.49D-01 WtEn= 6.51D-01
 Coeff-Com: -0.105D+01 0.205D+01
 Coeff-En:   0.000D+00 0.100D+01
 Coeff:     -0.367D+00 0.137D+01
 Gap=     0.367 Goal=   None    Shift=    0.000
 RMSDP=2.38D-02 MaxDP=9.11D-01 DE=-1.14D+00 OVMax= 1.03D-01

 Cycle   3  Pass 1  IDiag  1:
 RMSU=  1.95D-03    CP:  7.31D-02  3.00D+00
 FoFJK:  IHMeth= 1 ICntrl=     0 DoSepK=T KAlg= 1 I1Cent= 0 FoldK=F
 E= -150.847961586795     Delta-E=       -1.621562675644 Rises=F Damp=F
 DIIS: error= 4.20D-02 at cycle   3 NSaved=   3.
 NSaved= 3 IEnMin= 3 EnMin= -150.847961586795     IErMin= 3 ErrMin= 4.20D-02
 ErrMax= 4.20D-02 EMaxC= 1.00D-01 BMatC= 5.29D-01 BMatP= 6.40D-01
 IDIUse=3 WtCom= 5.80D-01 WtEn= 4.20D-01
 Coeff-Com: -0.180D+01 0.320D+01-0.406D+00
 Coeff-En:   0.000D+00 0.000D+00 0.100D+01
 Coeff:     -0.104D+01 0.186D+01 0.185D+00
 Gap=     0.558 Goal=   None    Shift=    0.000
 RMSDP=1.65D-03 MaxDP=7.91D-02 DE=-1.62D+00 OVMax= 1.05D-01

 Cycle   4  Pass 1  IDiag  1:
 RMSU=  1.09D-03    CP:  7.38D-02  3.00D+00  1.21D+00
 FoFJK:  IHMeth= 1 ICntrl=     0 DoSepK=T KAlg= 1 I1Cent= 0 FoldK=F
 E= -151.190286111535     Delta-E=       -0.342324524740 Rises=F Damp=F
 DIIS: error= 1.01D-02 at cycle   4 NSaved=   4.
 NSaved= 4 IEnMin= 4 EnMin= -151.190286111535     IErMin= 4 ErrMin= 1.01D-02
 ErrMax= 1.01D-02 EMaxC= 1.00D-01 BMatC= 1.55D-02 BMatP= 5.29D-01
 IDIUse=3 WtCom= 8.99D-01 WtEn= 1.01D-01
 Coeff-Com: -0.551D+00 0.964D+00-0.254D+00 0.841D+00
 Coeff-En:   0.000D+00 0.000D+00 0.000D+00 0.100D+01
 Coeff:     -0.496D+00 0.867D+00-0.228D+00 0.857D+00
 Gap=     0.509 Goal=   None    Shift=    0.000
 RMSDP=3.33D-04 MaxDP=6.39D-03 DE=-3.42D-01 OVMax= 1.19D-02

 Cycle   5  Pass 1  IDiag  1:
 RMSU=  2.17D-04    CP:  7.35D-02  3.00D+00  1.22D+00  1.08D+00
 FoFJK:  IHMeth= 1 ICntrl=     0 DoSepK=T KAlg= 1 I1Cent= 0 FoldK=F
 E= -151.194850405077     Delta-E=       -0.004564293542 Rises=F Damp=F
 DIIS: error= 6.96D-03 at cycle   5 NSaved=   5.
 NSaved= 5 IEnMin= 5 EnMin= -151.194850405077     IErMin= 5 ErrMin= 6.96D-03
 ErrMax= 6.96D-03 EMaxC= 1.00D-01 BMatC= 1.29D-02 BMatP= 1.55D-02
 IDIUse=3 WtCom= 9.30D-01 WtEn= 6.96D-02
 Coeff-Com: -0.179D-02 0.152D-01-0.183D+00-0.443D+00 0.161D+01
 Coeff-En:   0.000D+00 0.000D+00 0.000D+00 0.000D+00 0.100D+01
 Coeff:     -0.167D-02 0.142D-01-0.170D+00-0.412D+00 0.157D+01
 Gap=     0.502 Goal=   None    Shift=    0.000
 RMSDP=5.45D-04 MaxDP=1.18D-02 DE=-4.56D-03 OVMax= 2.71D-02

 Cycle   6  Pass 1  IDiag  1:
 RMSU=  1.19D-04    CP:  7.33D-02  3.00D+00  1.24D+00  1.35D+00  2.02D+00
 FoFJK:  IHMeth= 1 ICntrl=     0 DoSepK=T KAlg= 1 I1Cent= 0 FoldK=F
 E= -151.205655159549     Delta-E=       -0.010804754472 Rises=F Damp=F
 DIIS: error= 4.53D-04 at cycle   6 NSaved=   6.
 NSaved= 6 IEnMin= 6 EnMin= -151.205655159549     IErMin= 6 ErrMin= 4.53D-04
 ErrMax= 4.53D-04 EMaxC= 1.00D-01 BMatC= 2.77D-05 BMatP= 1.29D-02
 IDIUse=3 WtCom= 9.95D-01 WtEn= 4.53D-03
 Coeff-Com:  0.106D-01-0.178D-01 0.975D-02-0.362D-01-0.144D-01 0.105D+01
 Coeff-En:   0.000D+00 0.000D+00 0.000D+00 0.000D+00 0.000D+00 0.100D+01
 Coeff:      0.105D-01-0.177D-01 0.971D-02-0.360D-01-0.143D-01 0.105D+01
 Gap=     0.503 Goal=   None    Shift=    0.000
 RMSDP=6.86D-05 MaxDP=1.59D-03 DE=-1.08D-02 OVMax= 2.76D-03

 Cycle   7  Pass 1  IDiag  1:
 RMSU=  1.59D-05    CP:  7.33D-02  3.00D+00  1.24D+00  1.36D+00  2.18D+00
                    CP:  1.22D+00
 FoFJK:  IHMeth= 1 ICntrl=     0 DoSepK=T KAlg= 1 I1Cent= 0 FoldK=F
 E= -151.205705510224     Delta-E=       -0.000050350675 Rises=F Damp=F
 DIIS: error= 1.64D-04 at cycle   7 NSaved=   7.
 NSaved= 7 IEnMin= 7 EnMin= -151.205705510224     IErMin= 7 ErrMin= 1.64D-04
 ErrMax= 1.64D-04 EMaxC= 1.00D-01 BMatC= 5.58D-06 BMatP= 2.77D-05
 IDIUse=3 WtCom= 9.98D-01 WtEn= 1.64D-03
 Coeff-Com:  0.357D-02-0.639D-02 0.588D-02 0.136D-01-0.228D-01-0.158D+00
 Coeff-Com:  0.116D+01
 Coeff-En:   0.000D+00 0.000D+00 0.000D+00 0.000D+00 0.000D+00 0.000D+00
 Coeff-En:   0.100D+01
 Coeff:      0.356D-02-0.638D-02 0.588D-02 0.135D-01-0.228D-01-0.158D+00
 Coeff:      0.116D+01
 Gap=     0.503 Goal=   None    Shift=    0.000
 RMSDP=1.24D-05 MaxDP=3.38D-04 DE=-5.04D-05 OVMax= 7.98D-04

 Cycle   8  Pass 1  IDiag  1:
 RMSU=  4.35D-06    CP:  7.33D-02  3.00D+00  1.24D+00  1.36D+00  2.19D+00
                    CP:  1.26D+00  1.30D+00
 FoFJK:  IHMeth= 1 ICntrl=     0 DoSepK=T KAlg= 1 I1Cent= 0 FoldK=F
 E= -151.205711484313     Delta-E=       -0.000005974089 Rises=F Damp=F
 DIIS: error= 6.95D-05 at cycle   8 NSaved=   8.
 NSaved= 8 IEnMin= 8 EnMin= -151.205711484313     IErMin= 8 ErrMin= 6.95D-05
 ErrMax= 6.95D-05 EMaxC= 1.00D-01 BMatC= 1.18D-06 BMatP= 5.58D-06
 IDIUse=1 WtCom= 1.00D+00 WtEn= 0.00D+00
 Coeff-Com:  0.564D-03-0.994D-03-0.145D-03 0.552D-03 0.116D-01-0.938D-01
 Coeff-Com:  0.752D-01 0.101D+01
 Coeff:      0.564D-03-0.994D-03-0.145D-03 0.552D-03 0.116D-01-0.938D-01
 Coeff:      0.752D-01 0.101D+01
 Gap=     0.504 Goal=   None    Shift=    0.000
 RMSDP=3.97D-06 MaxDP=1.24D-04 DE=-5.97D-06 OVMax= 3.34D-04

 Cycle   9  Pass 1  IDiag  1:
 RMSU=  1.49D-06    CP:  7.33D-02  3.00D+00  1.24D+00  1.36D+00  2.19D+00
                    CP:  1.26D+00  1.36D+00  1.23D+00
 FoFJK:  IHMeth= 1 ICntrl=     0 DoSepK=T KAlg= 1 I1Cent= 0 FoldK=F
 E= -151.205712569832     Delta-E=       -0.000001085520 Rises=F Damp=F
 DIIS: error= 1.63D-05 at cycle   9 NSaved=   9.
 NSaved= 9 IEnMin= 9 EnMin= -151.205712569832     IErMin= 9 ErrMin= 1.63D-05
 ErrMax= 1.63D-05 EMaxC= 1.00D-01 BMatC= 1.09D-07 BMatP= 1.18D-06
 IDIUse=1 WtCom= 1.00D+00 WtEn= 0.00D+00
 Coeff-Com: -0.200D-03 0.380D-03-0.102D-02-0.227D-02 0.102D-01-0.182D-01
 Coeff-Com: -0.140D+00 0.411D+00 0.740D+00
 Coeff:     -0.200D-03 0.380D-03-0.102D-02-0.227D-02 0.102D-01-0.182D-01
 Coeff:     -0.140D+00 0.411D+00 0.740D+00
 Gap=     0.504 Goal=   None    Shift=    0.000
 RMSDP=1.51D-06 MaxDP=4.64D-05 DE=-1.09D-06 OVMax= 1.15D-04

 Cycle  10  Pass 1  IDiag  1:
 RMSU=  6.37D-07    CP:  7.33D-02  3.00D+00  1.24D+00  1.36D+00  2.19D+00
                    CP:  1.26D+00  1.36D+00  1.34D+00  1.08D+00
 FoFJK:  IHMeth= 1 ICntrl=     0 DoSepK=T KAlg= 1 I1Cent= 0 FoldK=F
 E= -151.205712675959     Delta-E=       -0.000000106127 Rises=F Damp=F
 DIIS: error= 6.52D-06 at cycle  10 NSaved=  10.
 NSaved=10 IEnMin=10 EnMin= -151.205712675959     IErMin=10 ErrMin= 6.52D-06
 ErrMax= 6.52D-06 EMaxC= 1.00D-01 BMatC= 9.41D-09 BMatP= 1.09D-07
 IDIUse=1 WtCom= 1.00D+00 WtEn= 0.00D+00
 Coeff-Com: -0.812D-04 0.143D-03 0.108D-03 0.492D-03-0.349D-02 0.977D-02
 Coeff-Com:  0.341D-01-0.202D+00-0.173D+00 0.133D+01
 Coeff:     -0.812D-04 0.143D-03 0.108D-03 0.492D-03-0.349D-02 0.977D-02
 Coeff:      0.341D-01-0.202D+00-0.173D+00 0.133D+01
 Gap=     0.504 Goal=   None    Shift=    0.000
 RMSDP=7.10D-07 MaxDP=1.39D-05 DE=-1.06D-07 OVMax= 6.98D-05

 Cycle  11  Pass 1  IDiag  1:
 RMSU=  1.83D-07    CP:  7.33D-02  3.00D+00  1.24D+00  1.36D+00  2.19D+00
                    CP:  1.26D+00  1.35D+00  1.35D+00  1.27D+00  1.48D+00
 FoFJK:  IHMeth= 1 ICntrl=     0 DoSepK=T KAlg= 1 I1Cent= 0 FoldK=F
 E= -151.205712693216     Delta-E=       -0.000000017257 Rises=F Damp=F
 DIIS: error= 1.80D-06 at cycle  11 NSaved=  11.
 NSaved=11 IEnMin=11 EnMin= -151.205712693216     IErMin=11 ErrMin= 1.80D-06
 ErrMax= 1.80D-06 EMaxC= 1.00D-01 BMatC= 5.88D-10 BMatP= 9.41D-09
 IDIUse=1 WtCom= 1.00D+00 WtEn= 0.00D+00
 Coeff-Com:  0.128D-04-0.251D-04 0.198D-04-0.441D-05 0.469D-03-0.316D-02
 Coeff-Com:  0.558D-03 0.479D-01 0.671D-02-0.557D+00 0.150D+01
 Coeff:      0.128D-04-0.251D-04 0.198D-04-0.441D-05 0.469D-03-0.316D-02
 Coeff:      0.558D-03 0.479D-01 0.671D-02-0.557D+00 0.150D+01
 Gap=     0.504 Goal=   None    Shift=    0.000
 RMSDP=2.69D-07 MaxDP=7.86D-06 DE=-1.73D-08 OVMax= 2.39D-05

 Cycle  12  Pass 1  IDiag  1:
 RMSU=  3.93D-08    CP:  7.33D-02  3.00D+00  1.24D+00  1.36D+00  2.19D+00
                    CP:  1.26D+00  1.35D+00  1.35D+00  1.31D+00  1.63D+00
                    CP:  1.55D+00
 FoFJK:  IHMeth= 1 ICntrl=     0 DoSepK=T KAlg= 1 I1Cent= 0 FoldK=F
 E= -151.205712694806     Delta-E=       -0.000000001590 Rises=F Damp=F
 DIIS: error= 4.36D-07 at cycle  12 NSaved=  12.
 NSaved=12 IEnMin=12 EnMin= -151.205712694806     IErMin=12 ErrMin= 4.36D-07
 ErrMax= 4.36D-07 EMaxC= 1.00D-01 BMatC= 3.19D-11 BMatP= 5.88D-10
 IDIUse=1 WtCom= 1.00D+00 WtEn= 0.00D+00
 Coeff-Com:  0.307D-06-0.144D-05-0.398D-05-0.139D-04 0.123D-03-0.279D-03
 Coeff-Com: -0.102D-02 0.342D-02 0.573D-02 0.490D-03-0.141D+00 0.113D+01
 Coeff:      0.307D-06-0.144D-05-0.398D-05-0.139D-04 0.123D-03-0.279D-03
 Coeff:     -0.102D-02 0.342D-02 0.573D-02 0.490D-03-0.141D+00 0.113D+01
 Gap=     0.504 Goal=   None    Shift=    0.000
 RMSDP=3.67D-08 MaxDP=1.07D-06 DE=-1.59D-09 OVMax= 2.99D-06

 Cycle  13  Pass 1  IDiag  1:
 RMSU=  9.06D-09    CP:  7.33D-02  3.00D+00  1.24D+00  1.36D+00  2.19D+00
                    CP:  1.26D+00  1.35D+00  1.35D+00  1.31D+00  1.64D+00
                    CP:  1.58D+00  1.41D+00
 FoFJK:  IHMeth= 1 ICntrl=     0 DoSepK=T KAlg= 1 I1Cent= 0 FoldK=F
 E= -151.205712694843     Delta-E=       -0.000000000037 Rises=F Damp=F
 DIIS: error= 9.98D-08 at cycle  13 NSaved=  13.
 NSaved=13 IEnMin=13 EnMin= -151.205712694843     IErMin=13 ErrMin= 9.98D-08
 ErrMax= 9.98D-08 EMaxC= 1.00D-01 BMatC= 1.26D-12 BMatP= 3.19D-11
 IDIUse=1 WtCom= 1.00D+00 WtEn= 0.00D+00
 Coeff-Com: -0.209D-06 0.297D-06 0.986D-06 0.519D-05-0.588D-04 0.248D-03
 Coeff-Com:  0.320D-03-0.369D-02-0.197D-02 0.315D-01-0.584D-01-0.260D+00
 Coeff-Com:  0.129D+01
 Coeff:     -0.209D-06 0.297D-06 0.986D-06 0.519D-05-0.588D-04 0.248D-03
 Coeff:      0.320D-03-0.369D-02-0.197D-02 0.315D-01-0.584D-01-0.260D+00
 Coeff:      0.129D+01
 Gap=     0.504 Goal=   None    Shift=    0.000
 RMSDP=1.47D-08 MaxDP=3.11D-07 DE=-3.71D-11 OVMax= 1.46D-06

 Cycle  14  Pass 1  IDiag  1:
 RMSU=  3.02D-09    CP:  7.33D-02  3.00D+00  1.24D+00  1.36D+00  2.19D+00
                    CP:  1.26D+00  1.35D+00  1.35D+00  1.31D+00  1.64D+00
                    CP:  1.59D+00  1.55D+00  1.59D+00
 FoFJK:  IHMeth= 1 ICntrl=     0 DoSepK=T KAlg= 1 I1Cent= 0 FoldK=F
 E= -151.205712694845     Delta-E=       -0.000000000002 Rises=F Damp=F
 DIIS: error= 5.90D-08 at cycle  14 NSaved=  14.
 NSaved=14 IEnMin=14 EnMin= -151.205712694845     IErMin=14 ErrMin= 5.90D-08
 ErrMax= 5.90D-08 EMaxC= 1.00D-01 BMatC= 2.00D-13 BMatP= 1.26D-12
 IDIUse=1 WtCom= 1.00D+00 WtEn= 0.00D+00
 Coeff-Com: -0.141D-06 0.361D-06-0.438D-06-0.221D-05 0.255D-04-0.125D-03
 Coeff-Com: -0.139D-03 0.222D-02 0.791D-03-0.229D-01 0.619D-01-0.625D-03
 Coeff-Com: -0.715D+00 0.167D+01
 Coeff:     -0.141D-06 0.361D-06-0.438D-06-0.221D-05 0.255D-04-0.125D-03
 Coeff:     -0.139D-03 0.222D-02 0.791D-03-0.229D-01 0.619D-01-0.625D-03
 Coeff:     -0.715D+00 0.167D+01
 Gap=     0.504 Goal=   None    Shift=    0.000
 RMSDP=7.35D-09 MaxDP=1.62D-07 DE=-1.59D-12 OVMax= 1.00D-06

 SCF Done:  E(RLC-B+HF-LYP) =  -151.205712695     A.U. after   14 cycles
             Convg  =    0.7346D-08             -V/T =  2.0061
 KE= 1.502888792671D+02 PE=-4.316071820787D+02 EE= 9.344892193855D+01
 Leave Link  502 at Wed May  6 13:56:39 2020, MaxMem= 1073741824 cpu:     342.4
 (Enter /home/matheus/.gaussian/g09/l601.exe)
 Copying SCF densities to generalized density rwf, IOpCl= 0 IROHF=0.

 **********************************************************************

            Population analysis using the SCF density.

 **********************************************************************

 Orbital symmetries:
       Occupied  (A) (A) (A) (A) (A) (A) (A) (A) (A)
       Virtual   (A) (A) (A) (A) (A) (A) (A) (A) (A) (A) (A) (A)
                 (A) (A) (A) (A) (A) (A) (A) (A) (A) (A) (A) (A)
                 (A) (A) (A) (A) (A) (A) (A) (A) (A) (A) (A) (A)
                 (A) (A) (A) (A) (A) (A) (A) (A) (A) (A) (A) (A)
                 (A) (A) (A) (A) (A) (A) (A) (A) (A) (A) (A) (A)
                 (A) (A) (A) (A) (A) (A) (A) (A) (A) (A) (A) (A)
                 (A) (A) (A) (A) (A) (A) (A) (A) (A) (A) (A) (A)
                 (A) (A) (A) (A) (A) (A) (A) (A) (A) (A) (A) (A)
                 (A) (A) (A) (A) (A) (A) (A) (A) (A) (A) (A) (A)
                 (A) (A) (A) (A) (A) (A) (A) (A) (A) (A) (A) (A)
                 (A) (A) (A) (A) (A) (A) (A) (A) (A) (A) (A) (A)
                 (A) (A) (A) (A) (A) (A) (A) (A) (A) (A) (A) (A)
                 (A) (A) (A) (A) (A) (A) (A) (A) (A) (A) (A) (A)
                 (A) (A) (A) (A) (A) (A) (A) (A) (A) (A) (A) (A)
                 (A) (A) (A) (A) (A) (A) (A) (A) (A) (A) (A) (A)
                 (A) (A) (A) (A) (A) (A) (A) (A)
 The electronic state is 1-A.
 Alpha  occ. eigenvalues --  -19.48799 -19.48770  -1.46826  -1.21705  -0.79830
 Alpha  occ. eigenvalues --   -0.66131  -0.63335  -0.59716  -0.49014
 Alpha virt. eigenvalues --    0.01352   0.03562   0.06892   0.07326   0.08849
 Alpha virt. eigenvalues --    0.09967   0.12273   0.15779   0.16527   0.17375
 Alpha virt. eigenvalues --    0.18132   0.19518   0.21341   0.23749   0.25429
 Alpha virt. eigenvalues --    0.26480   0.27953   0.28175   0.31169   0.34237
 Alpha virt. eigenvalues --    0.35071   0.35461   0.37765   0.41079   0.42923
 Alpha virt. eigenvalues --    0.44401   0.45276   0.46734   0.49260   0.52789
 Alpha virt. eigenvalues --    0.54656   0.57867   0.60222   0.64664   0.68127
 Alpha virt. eigenvalues --    0.71053   0.72990   0.78055   0.78347   0.82025
 Alpha virt. eigenvalues --    0.84375   0.85676   0.87978   0.89271   0.91586
 Alpha virt. eigenvalues --    0.94276   0.97678   0.98090   0.99449   1.01628
 Alpha virt. eigenvalues --    1.02607   1.04074   1.08731   1.10967   1.11661
 Alpha virt. eigenvalues --    1.11786   1.17888   1.22384   1.24612   1.26820
 Alpha virt. eigenvalues --    1.28410   1.29634   1.31553   1.32438   1.33567
 Alpha virt. eigenvalues --    1.34880   1.38384   1.39323   1.45774   1.48189
 Alpha virt. eigenvalues --    1.51616   1.53441   1.56654   1.60264   1.61591
 Alpha virt. eigenvalues --    1.65265   1.67681   1.73071   1.77736   1.81776
 Alpha virt. eigenvalues --    1.86620   1.93016   2.02212   2.05992   2.11864
 Alpha virt. eigenvalues --    2.16146   2.24914   2.28009   2.32962   2.34742
 Alpha virt. eigenvalues --    2.37488   2.43932   2.44089   2.44465   2.51745
 Alpha virt. eigenvalues --    2.56951   2.63557   2.65982   2.75838   2.77707
 Alpha virt. eigenvalues --    2.79807   2.81930   2.97874   3.02749   3.04777
 Alpha virt. eigenvalues --    3.19561   3.22908   3.24214   3.25384   3.34151
 Alpha virt. eigenvalues --    3.42215   3.59109   3.68296   3.76771   3.78597
 Alpha virt. eigenvalues --    3.79191   3.80226   3.81764   3.81926   3.89639
 Alpha virt. eigenvalues --    3.91077   3.95166   3.96531   3.98702   4.05369
 Alpha virt. eigenvalues --    4.09179   4.14288   4.15581   4.21410   4.26718
 Alpha virt. eigenvalues --    4.31883   4.34728   4.37160   4.38660   4.41155
 Alpha virt. eigenvalues --    4.64495   4.71162   4.71643   4.88300   5.14144
 Alpha virt. eigenvalues --    5.17761   5.22547   5.26900   5.29043   5.34750
 Alpha virt. eigenvalues --    5.72757   6.03927   6.25104   6.27449   6.35001
 Alpha virt. eigenvalues --    6.59385   6.61256   6.72207   6.81774   6.93314
 Alpha virt. eigenvalues --    6.97775   7.03216   7.06358   7.08060   7.11842
 Alpha virt. eigenvalues --    7.14384   7.15616   7.16940   7.34826   7.40740
 Alpha virt. eigenvalues --    7.43080   7.52196   7.59226   7.84019   8.23449
 Alpha virt. eigenvalues --    8.27632   8.43080  11.07177  14.04273  14.80354
 Alpha virt. eigenvalues --   14.91484  14.94298  15.09936  29.00924  29.01610
 Alpha virt. eigenvalues --   29.05408  29.19276  29.22509  49.21978 148.28622
 Alpha virt. eigenvalues --  148.47475 148.71085 752.95833
          Condensed to atoms (all electrons):
              1          2          3          4          5
     1  O    8.240461  -0.225827   0.170124   0.031309   0.004076
     2  O   -0.225827   8.226976   0.035898   0.180997   0.001187
     3  H    0.170124   0.035898   0.590465  -0.015358  -0.002705
     4  H    0.031309   0.180997  -0.015358   0.587596  -0.004192
     5  Kr   0.004076   0.001187  -0.002705  -0.004192   0.003481
 Mulliken atomic charges:
              1
     1  O   -0.220144
     2  O   -0.219232
     3  H    0.221575
     4  H    0.219647
     5  Kr  -0.001846
 Sum of Mulliken atomic charges =   0.00000
 Mulliken charges with hydrogens summed into heavy atoms:
              1
     1  O    0.001431
     2  O    0.000415
     5  Kr  -0.001846
 Sum of Mulliken charges with hydrogens summed into heavy atoms =   0.00000
          Condensed to fragments (all electrons):
     1       0.001846
     2      -0.001846
 Electronic spatial extent (au):  <R**2>=            316.6576
 Charge=              0.0000 electrons
 Dipole moment (field-independent basis, Debye):
    X=             -3.2780    Y=             -0.0206    Z=              0.5895  Tot=              3.3307
 Quadrupole moment (field-independent basis, Debye-Ang):
   XX=            -21.9359   YY=            -10.3002   ZZ=            -12.5926
   XY=             -0.1556   XZ=              0.5077   YZ=             -0.6620
 Traceless Quadrupole moment (field-independent basis, Debye-Ang):
   XX=             -6.9930   YY=              4.6427   ZZ=              2.3503
   XY=             -0.1556   XZ=              0.5077   YZ=             -0.6620
 Octapole moment (field-independent basis, Debye-Ang**2):
  XXX=            -93.8809  YYY=             -0.1168  ZZZ=              0.0676  XYY=            -24.3796
  XXY=             -0.2979  XXZ=              0.1615  XZZ=            -24.8643  YZZ=             -0.2270
  YYZ=              0.7599  XYZ=             -0.7376
 Hexadecapole moment (field-independent basis, Debye-Ang**3):
 XXXX=           -339.1496 YYYY=            -43.9218 ZZZZ=            -10.4260 XXXY=             -0.3268
 XXXZ=             -0.6886 YYYX=             -0.2721 YYYZ=             -0.9087 ZZZX=              0.2866
 ZZZY=             -0.3874 XXYY=            -63.4281 XXZZ=            -52.7973 YYZZ=            -10.7109
 XXYZ=             -0.8415 YYXZ=              0.8803 ZZXY=             -0.2783
 N-N= 3.666366817825D+01 E-N=-4.316071828287D+02  KE= 1.502888792671D+02
 No NMR shielding tensors so no spin-rotation constants.
 Leave Link  601 at Wed May  6 13:56:39 2020, MaxMem= 1073741824 cpu:       0.8
 (Enter /home/matheus/.gaussian/g09/l122.exe)
 Counterpoise: doing DCBS calculation for fragment   2 NewBq=T
 Leave Link  122 at Wed May  6 13:56:39 2020, MaxMem= 1073741824 cpu:       0.0
 (Enter /home/matheus/.gaussian/g09/l301.exe)
 Basis read from rwf:  (5D, 7F)
 No pseudopotential information found on rwf file.
 There are   197 symmetry adapted basis functions of A   symmetry.
 Integral buffers will be    131072 words long.
 Raffenetti 2 integral format.
 Two-electron integral symmetry is turned on.
   197 basis functions,   415 primitive gaussians,   229 cartesian basis functions
    18 alpha electrons       18 beta electrons
       nuclear repulsion energy         0.0000000000 Hartrees.
 IExCor=10402 DFT=T Ex=LC-B+HF Corr=LYP ExCW=0 ScaHFX=  1.000000
 ScaDFX=  1.000000  1.000000  1.000000  1.000000 ScalE2=  1.000000  1.000000
 IRadAn=      5 IRanWt=     -1 IRanGd=            0 ICorTp=0
  HFx wShort=  0.000000 wLong=  1.350000 cFull=  0.000000 cShort=  0.000000 cLong=  1.000000
  DFx wShort=  0.000000 wLong=  1.350000 cFull=  0.000000 cShort=  0.000000 cLong=  1.000000
 NAtoms=    5 NActive=    5 NUniq=    5 SFac= 1.00D+00 NAtFMM=   60 NAOKFM=F Big=F
 No density basis found on file   718.
 Leave Link  301 at Wed May  6 13:56:39 2020, MaxMem= 1073741824 cpu:       0.2
 (Enter /home/matheus/.gaussian/g09/l302.exe)
 NPDir=0 NMtPBC=     1 NCelOv=     1 NCel=       1 NClECP=     1 NCelD=      1
         NCelK=      1 NCelE2=     1 NClLst=     1 CellRange=     0.0.
 One-electron integrals computed using PRISM.
 NBasis=   197 RedAO= T  NBF=   197
 NBsUse=   197 1.00D-06 NBFU=   197
 Precomputing XC quadrature grid using
 IXCGrd= 2 IRadAn=           5 IRanWt=          -1 IRanGd=           0 AccXCQ= 0.00D+00.
 NRdTot=     427 NPtTot=      123512 NUsed=      126579 NTot=      126611
 NSgBfM=   229   229   229   229   229 NAtAll=     5     5.
 Leave Link  302 at Wed May  6 13:56:39 2020, MaxMem= 1073741824 cpu:       1.0
 (Enter /home/matheus/.gaussian/g09/l303.exe)
 DipDrv:  MaxL=1.
 Leave Link  303 at Wed May  6 13:56:39 2020, MaxMem= 1073741824 cpu:       0.2
 (Enter /home/matheus/.gaussian/g09/l401.exe)
 Harris functional with IExCor=10402 diagonalized for initial guess.
 ExpMin= 2.53D-02 ExpMax= 1.17D+07 ExpMxC= 1.33D+04 IAcc=3 IRadAn=         5 AccDes= 0.00D+00
 HarFok:  IExCor=10402 AccDes= 0.00D+00 IRadAn=         5 IDoV= 1
 ScaDFX=  1.000000  1.000000  1.000000  1.000000
 FoFCou: FMM=F IPFlag=           0 FMFlag=      100000 FMFlg1=           0
         NFxFlg=           0 DoJE=T BraDBF=F KetDBF=T FulRan=T
         Omega=  0.000000  0.000000  1.000000  0.000000  0.000000 ICntrl=     500 IOpCl=  0
         NMat0=    1 NMatS0=    1 NMatT0=    0 NMatD0=    1 NMtDS0=    0 NMtDT0=    0
         I1Cent=           4 NGrid=           0.
 Petite list used in FoFCou.
 Harris En= -2731.73474491093    
 Initial guess orbital symmetries:
       Occupied  (A) (A) (A) (A) (A) (A) (A) (A) (A) (A) (A) (A)
                 (A) (A) (A) (A) (A) (A)
       Virtual   (A) (A) (A) (A) (A) (A) (A) (A) (A) (A) (A) (A)
                 (A) (A) (A) (A) (A) (A) (A) (A) (A) (A) (A) (A)
                 (A) (A) (A) (A) (A) (A) (A) (A) (A) (A) (A) (A)
                 (A) (A) (A) (A) (A) (A) (A) (A) (A) (A) (A) (A)
                 (A) (A) (A) (A) (A) (A) (A) (A) (A) (A) (A) (A)
                 (A) (A) (A) (A) (A) (A) (A) (A) (A) (A) (A) (A)
                 (A) (A) (A) (A) (A) (A) (A) (A) (A) (A) (A) (A)
                 (A) (A) (A) (A) (A) (A) (A) (A) (A) (A) (A) (A)
                 (A) (A) (A) (A) (A) (A) (A) (A) (A) (A) (A) (A)
                 (A) (A) (A) (A) (A) (A) (A) (A) (A) (A) (A) (A)
                 (A) (A) (A) (A) (A) (A) (A) (A) (A) (A) (A) (A)
                 (A) (A) (A) (A) (A) (A) (A) (A) (A) (A) (A) (A)
                 (A) (A) (A) (A) (A) (A) (A) (A) (A) (A) (A) (A)
                 (A) (A) (A) (A) (A) (A) (A) (A) (A) (A) (A) (A)
                 (A) (A) (A) (A) (A) (A) (A) (A) (A) (A) (A)
 The electronic state of the initial guess is 1-A.
 Leave Link  401 at Wed May  6 13:56:40 2020, MaxMem= 1073741824 cpu:       3.7
 (Enter /home/matheus/.gaussian/g09/l502.exe)
 Closed shell SCF:
 Requested convergence on RMS density matrix=1.00D-08 within 128 cycles.
 Requested convergence on MAX density matrix=1.00D-06.
 Requested convergence on             energy=1.00D-06.
 No special actions if energy rises.
 Using DIIS extrapolation, IDIIS=  1040.
 Integral symmetry usage will be decided dynamically.
       126521 words used for storage of precomputed grid.
 IEnd=      305468 IEndB=      305468 NGot=  1073741824 MDV=  1073505667
 LenX=  1073505667 LenY=  1073452785
 Fock matrices will be formed incrementally for  20 cycles.

 Cycle   1  Pass 1  IDiag  1:
 FoFJK:  IHMeth= 1 ICntrl=     0 DoSepK=T KAlg= 1 I1Cent= 0 FoldK=F
 FoFCou: FMM=F IPFlag=           0 FMFlag=      100000 FMFlg1=           0
         NFxFlg=           0 DoJE=T BraDBF=F KetDBF=F FulRan=T
         Omega=  0.000000  0.000000  1.000000  0.000000  0.000000 ICntrl=     500 IOpCl=  0
         NMat0=    1 NMatS0=    1 NMatT0=    0 NMatD0=    1 NMtDS0=    0 NMtDT0=    0
         I1Cent=           0 NGrid=           0.
 Symmetry not used in FoFCou.
 E= -2752.70952755208    
 DIIS: error= 4.45D-02 at cycle   1 NSaved=   1.
 NSaved= 1 IEnMin= 1 EnMin= -2752.70952755208     IErMin= 1 ErrMin= 4.45D-02
 ErrMax= 4.45D-02 EMaxC= 1.00D-01 BMatC= 1.18D+00 BMatP= 1.18D+00
 IDIUse=3 WtCom= 5.55D-01 WtEn= 4.45D-01
 Coeff-Com:  0.100D+01
 Coeff-En:   0.100D+01
 Coeff:      0.100D+01
 Gap=     0.765 Goal=   None    Shift=    0.000
 GapD=    0.765 DampG=2.000 DampE=0.500 DampFc=1.0000 IDamp=-1.
 RMSDP=5.02D-03 MaxDP=2.30D-01              OVMax= 3.37D-01

 Cycle   2  Pass 1  IDiag  1:
 RMSU=  3.47D-03    CP:  1.05D+00
 FoFJK:  IHMeth= 1 ICntrl=     0 DoSepK=T KAlg= 1 I1Cent= 0 FoldK=F
 E= -2753.27665417439     Delta-E=       -0.567126622313 Rises=F Damp=F
 DIIS: error= 2.98D-02 at cycle   2 NSaved=   2.
 NSaved= 2 IEnMin= 2 EnMin= -2753.27665417439     IErMin= 2 ErrMin= 2.98D-02
 ErrMax= 2.98D-02 EMaxC= 1.00D-01 BMatC= 3.67D-01 BMatP= 1.18D+00
 IDIUse=3 WtCom= 7.02D-01 WtEn= 2.98D-01
 Coeff-Com:  0.352D+00 0.648D+00
 Coeff-En:   0.000D+00 0.100D+01
 Coeff:      0.247D+00 0.753D+00
 Gap=     0.600 Goal=   None    Shift=    0.000
 RMSDP=2.27D-03 MaxDP=1.37D-01 DE=-5.67D-01 OVMax= 7.42D-02

 Cycle   3  Pass 1  IDiag  1:
 RMSU=  8.74D-04    CP:  1.03D+00  6.21D-01
 FoFJK:  IHMeth= 1 ICntrl=     0 DoSepK=T KAlg= 1 I1Cent= 0 FoldK=F
 E= -2753.40734097608     Delta-E=       -0.130686801682 Rises=F Damp=F
 DIIS: error= 4.01D-03 at cycle   3 NSaved=   3.
 NSaved= 3 IEnMin= 3 EnMin= -2753.40734097608     IErMin= 3 ErrMin= 4.01D-03
 ErrMax= 4.01D-03 EMaxC= 1.00D-01 BMatC= 7.39D-03 BMatP= 3.67D-01
 IDIUse=3 WtCom= 9.60D-01 WtEn= 4.01D-02
 Coeff-Com: -0.937D-02 0.100D+00 0.909D+00
 Coeff-En:   0.000D+00 0.000D+00 0.100D+01
 Coeff:     -0.899D-02 0.962D-01 0.913D+00
 Gap=     0.575 Goal=   None    Shift=    0.000
 RMSDP=3.72D-04 MaxDP=1.77D-02 DE=-1.31D-01 OVMax= 1.08D-02

 Cycle   4  Pass 1  IDiag  1:
 RMSU=  2.31D-04    CP:  1.03D+00  6.55D-01  9.64D-01
 FoFJK:  IHMeth= 1 ICntrl=     0 DoSepK=T KAlg= 1 I1Cent= 0 FoldK=F
 E= -2753.40950434068     Delta-E=       -0.002163364606 Rises=F Damp=F
 DIIS: error= 3.63D-04 at cycle   4 NSaved=   4.
 NSaved= 4 IEnMin= 4 EnMin= -2753.40950434068     IErMin= 4 ErrMin= 3.63D-04
 ErrMax= 3.63D-04 EMaxC= 1.00D-01 BMatC= 3.36D-05 BMatP= 7.39D-03
 IDIUse=3 WtCom= 9.96D-01 WtEn= 3.63D-03
 Coeff-Com: -0.677D-02-0.476D-02 0.607D-03 0.101D+01
 Coeff-En:   0.000D+00 0.000D+00 0.000D+00 0.100D+01
 Coeff:     -0.675D-02-0.474D-02 0.605D-03 0.101D+01
 Gap=     0.581 Goal=   None    Shift=    0.000
 RMSDP=4.96D-05 MaxDP=2.23D-03 DE=-2.16D-03 OVMax= 3.46D-03

 Cycle   5  Pass 1  IDiag  1:
 RMSU=  1.98D-05    CP:  1.03D+00  6.58D-01  9.87D-01  1.08D+00
 FoFJK:  IHMeth= 1 ICntrl=     0 DoSepK=T KAlg= 1 I1Cent= 0 FoldK=F
 E= -2753.40956395958     Delta-E=       -0.000059618896 Rises=F Damp=F
 DIIS: error= 5.80D-05 at cycle   5 NSaved=   5.
 NSaved= 5 IEnMin= 5 EnMin= -2753.40956395958     IErMin= 5 ErrMin= 5.80D-05
 ErrMax= 5.80D-05 EMaxC= 1.00D-01 BMatC= 5.06D-07 BMatP= 3.36D-05
 IDIUse=1 WtCom= 1.00D+00 WtEn= 0.00D+00
 Coeff-Com: -0.877D-04-0.139D-02 0.876D-03-0.166D+00 0.117D+01
 Coeff:     -0.877D-04-0.139D-02 0.876D-03-0.166D+00 0.117D+01
 Gap=     0.581 Goal=   None    Shift=    0.000
 RMSDP=1.05D-05 MaxDP=4.48D-04 DE=-5.96D-05 OVMax= 6.35D-04

 Cycle   6  Pass 1  IDiag  1:
 RMSU=  1.02D-06    CP:  1.03D+00  6.58D-01  9.92D-01  1.10D+00  1.20D+00
 FoFJK:  IHMeth= 1 ICntrl=     0 DoSepK=T KAlg= 1 I1Cent= 0 FoldK=F
 E= -2753.40956539009     Delta-E=       -0.000001430513 Rises=F Damp=F
 DIIS: error= 2.11D-06 at cycle   6 NSaved=   6.
 NSaved= 6 IEnMin= 6 EnMin= -2753.40956539009     IErMin= 6 ErrMin= 2.11D-06
 ErrMax= 2.11D-06 EMaxC= 1.00D-01 BMatC= 1.06D-09 BMatP= 5.06D-07
 IDIUse=1 WtCom= 1.00D+00 WtEn= 0.00D+00
 Coeff-Com:  0.245D-04 0.104D-03-0.342D-03 0.116D-01-0.112D+00 0.110D+01
 Coeff:      0.245D-04 0.104D-03-0.342D-03 0.116D-01-0.112D+00 0.110D+01
 Gap=     0.581 Goal=   None    Shift=    0.000
 RMSDP=5.29D-07 MaxDP=2.30D-05 DE=-1.43D-06 OVMax= 2.39D-05

 Cycle   7  Pass 1  IDiag  1:
 RMSU=  6.96D-08    CP:  1.03D+00  6.58D-01  9.92D-01  1.10D+00  1.21D+00
                    CP:  1.15D+00
 FoFJK:  IHMeth= 1 ICntrl=     0 DoSepK=T KAlg= 1 I1Cent= 0 FoldK=F
 E= -2753.40956539094     Delta-E=       -0.000000000853 Rises=F Damp=F
 DIIS: error= 1.83D-07 at cycle   7 NSaved=   7.
 NSaved= 7 IEnMin= 7 EnMin= -2753.40956539094     IErMin= 7 ErrMin= 1.83D-07
 ErrMax= 1.83D-07 EMaxC= 1.00D-01 BMatC= 1.51D-11 BMatP= 1.06D-09
 IDIUse=1 WtCom= 1.00D+00 WtEn= 0.00D+00
 Coeff-Com:  0.407D-05 0.107D-04-0.520D-04 0.144D-02-0.105D-01 0.482D-01
 Coeff-Com:  0.961D+00
 Coeff:      0.407D-05 0.107D-04-0.520D-04 0.144D-02-0.105D-01 0.482D-01
 Coeff:      0.961D+00
 Gap=     0.581 Goal=   None    Shift=    0.000
 RMSDP=2.50D-08 MaxDP=1.04D-06 DE=-8.53D-10 OVMax= 1.43D-06

 Cycle   8  Pass 1  IDiag  1:
 RMSU=  1.11D-08    CP:  1.03D+00  6.58D-01  9.92D-01  1.10D+00  1.21D+00
                    CP:  1.15D+00  1.10D+00
 FoFJK:  IHMeth= 1 ICntrl=     0 DoSepK=T KAlg= 1 I1Cent= 0 FoldK=F
 E= -2753.40956539101     Delta-E=       -0.000000000064 Rises=F Damp=F
 DIIS: error= 5.21D-08 at cycle   8 NSaved=   8.
 NSaved= 8 IEnMin= 8 EnMin= -2753.40956539101     IErMin= 8 ErrMin= 5.21D-08
 ErrMax= 5.21D-08 EMaxC= 1.00D-01 BMatC= 6.50D-13 BMatP= 1.51D-11
 IDIUse=1 WtCom= 1.00D+00 WtEn= 0.00D+00
 Coeff-Com:  0.461D-07-0.226D-05 0.276D-05-0.238D-03 0.269D-02-0.312D-01
 Coeff-Com:  0.788D-01 0.950D+00
 Coeff:      0.461D-07-0.226D-05 0.276D-05-0.238D-03 0.269D-02-0.312D-01
 Coeff:      0.788D-01 0.950D+00
 Gap=     0.581 Goal=   None    Shift=    0.000
 RMSDP=5.96D-09 MaxDP=1.97D-07 DE=-6.37D-11 OVMax= 4.51D-07

 SCF Done:  E(RLC-B+HF-LYP) =  -2753.40956539     A.U. after    8 cycles
             Convg  =    0.5956D-08             -V/T =  2.0014
 KE= 2.749619275297D+03 PE=-6.579405335316D+03 EE= 1.076376494628D+03
 Leave Link  502 at Wed May  6 13:57:05 2020, MaxMem= 1073741824 cpu:     199.1
 (Enter /home/matheus/.gaussian/g09/l601.exe)
 Copying SCF densities to generalized density rwf, IOpCl= 0 IROHF=0.

 **********************************************************************

            Population analysis using the SCF density.

 **********************************************************************

 Orbital symmetries:
       Occupied  (A) (A) (A) (A) (A) (A) (A) (A) (A) (A) (A) (A)
                 (A) (A) (A) (A) (A) (A)
       Virtual   (A) (A) (A) (A) (A) (A) (A) (A) (A) (A) (A) (A)
                 (A) (A) (A) (A) (A) (A) (A) (A) (A) (A) (A) (A)
                 (A) (A) (A) (A) (A) (A) (A) (A) (A) (A) (A) (A)
                 (A) (A) (A) (A) (A) (A) (A) (A) (A) (A) (A) (A)
                 (A) (A) (A) (A) (A) (A) (A) (A) (A) (A) (A) (A)
                 (A) (A) (A) (A) (A) (A) (A) (A) (A) (A) (A) (A)
                 (A) (A) (A) (A) (A) (A) (A) (A) (A) (A) (A) (A)
                 (A) (A) (A) (A) (A) (A) (A) (A) (A) (A) (A) (A)
                 (A) (A) (A) (A) (A) (A) (A) (A) (A) (A) (A) (A)
                 (A) (A) (A) (A) (A) (A) (A) (A) (A) (A) (A) (A)
                 (A) (A) (A) (A) (A) (A) (A) (A) (A) (A) (A) (A)
                 (A) (A) (A) (A) (A) (A) (A) (A) (A) (A) (A) (A)
                 (A) (A) (A) (A) (A) (A) (A) (A) (A) (A) (A) (A)
                 (A) (A) (A) (A) (A) (A) (A) (A) (A) (A) (A) (A)
                 (A) (A) (A) (A) (A) (A) (A) (A) (A) (A) (A)
 The electronic state is 1-A.
 Alpha  occ. eigenvalues -- -511.65542 -67.18007 -60.85206 -60.85203 -60.85201
 Alpha  occ. eigenvalues --  -10.08108  -7.79671  -7.79669  -7.79669  -3.62634
 Alpha  occ. eigenvalues --   -3.62634  -3.62633  -3.62632  -3.62632  -1.17382
 Alpha  occ. eigenvalues --   -0.55369  -0.55366  -0.55363
 Alpha virt. eigenvalues --    0.02705   0.04759   0.07890   0.09086   0.11515
 Alpha virt. eigenvalues --    0.12655   0.13233   0.13580   0.15465   0.16873
 Alpha virt. eigenvalues --    0.17344   0.18038   0.20725   0.25950   0.26857
 Alpha virt. eigenvalues --    0.27085   0.29502   0.31825   0.33361   0.37517
 Alpha virt. eigenvalues --    0.37943   0.39053   0.39306   0.40295   0.41690
 Alpha virt. eigenvalues --    0.41923   0.45809   0.54854   0.56296   0.60140
 Alpha virt. eigenvalues --    0.62465   0.64269   0.69472   0.70567   0.72526
 Alpha virt. eigenvalues --    0.73431   0.75194   0.77568   0.78553   0.79268
 Alpha virt. eigenvalues --    0.80543   0.84764   0.86114   0.87209   0.89089
 Alpha virt. eigenvalues --    0.90109   0.90926   0.91463   0.95345   0.99159
 Alpha virt. eigenvalues --    1.00183   1.01322   1.02120   1.03381   1.06189
 Alpha virt. eigenvalues --    1.07322   1.09445   1.11979   1.17349   1.18264
 Alpha virt. eigenvalues --    1.21481   1.24272   1.32491   1.35063   1.40934
 Alpha virt. eigenvalues --    1.43063   1.44962   1.48313   1.49393   1.53663
 Alpha virt. eigenvalues --    1.60918   1.63083   1.65530   1.74569   1.75414
 Alpha virt. eigenvalues --    1.80590   1.86327   1.88403   1.92523   2.23375
 Alpha virt. eigenvalues --    2.23933   2.29478   2.35173   2.36160   2.37470
 Alpha virt. eigenvalues --    2.40368   2.42461   2.46440   2.47425   2.48205
 Alpha virt. eigenvalues --    2.49186   2.50395   2.55624   2.57869   2.61411
 Alpha virt. eigenvalues --    2.61779   2.63686   2.64353   2.66669   2.68812
 Alpha virt. eigenvalues --    2.69511   2.70223   2.76227   2.76870   2.79270
 Alpha virt. eigenvalues --    2.80102   2.84254   2.91492   2.93069   2.97619
 Alpha virt. eigenvalues --    2.99943   3.01944   3.06510   3.13265   3.20327
 Alpha virt. eigenvalues --    3.25784   3.27085   3.29115   3.41411   3.51951
 Alpha virt. eigenvalues --    3.61289   3.64770   3.86344   3.87634   4.01734
 Alpha virt. eigenvalues --    4.44651   4.48804   4.51481   4.59628   4.71620
 Alpha virt. eigenvalues --    4.73700   4.85126   4.88463   4.97455   5.02570
 Alpha virt. eigenvalues --    5.16710   5.27482   5.54347   5.63866   5.69616
 Alpha virt. eigenvalues --    5.96410   6.00399   6.20940   6.71942   6.92029
 Alpha virt. eigenvalues --    7.29379   7.36587   7.65286   7.66781   7.78318
 Alpha virt. eigenvalues --    7.86420   8.01589   8.12618   8.17070   8.26633
 Alpha virt. eigenvalues --    8.27223   8.38627   8.69374   8.99231   9.49816
 Alpha virt. eigenvalues --    9.72560   9.78920   9.89556   9.91128   9.93900
 Alpha virt. eigenvalues --   10.19912  10.21732  10.68827  10.87848  11.48069
 Alpha virt. eigenvalues --   11.62540  11.68592  11.94110  12.03785  13.26804
 Alpha virt. eigenvalues --   13.59780  14.54487  62.35932  64.76338
          Condensed to atoms (all electrons):
              1          2          3          4          5
     1  O    0.001987  -0.000176  -0.001782   0.000498  -0.007085
     2  O   -0.000176   0.003022   0.000242  -0.002694  -0.004086
     3  H   -0.001782   0.000242   0.002621  -0.000267  -0.015996
     4  H    0.000498  -0.002694  -0.000267   0.003544  -0.019698
     5  Kr  -0.007085  -0.004086  -0.015996  -0.019698  36.090915
 Mulliken atomic charges:
              1
     1  O    0.006559
     2  O    0.003692
     3  H    0.015182
     4  H    0.018617
     5  Kr  -0.044050
 Sum of Mulliken atomic charges =   0.00000
 Mulliken charges with hydrogens summed into heavy atoms:
              1
     1  O    0.021741
     2  O    0.022309
     5  Kr  -0.044050
 Sum of Mulliken charges with hydrogens summed into heavy atoms =   0.00000
          Condensed to fragments (all electrons):
     1       0.044050
     2      -0.044050
 Electronic spatial extent (au):  <R**2>=            159.4104
 Charge=              0.0000 electrons
 Dipole moment (field-independent basis, Debye):
    X=              0.0022    Y=              0.0001    Z=              0.0000  Tot=              0.0022
 Quadrupole moment (field-independent basis, Debye-Ang):
   XX=            -17.5628   YY=            -17.5710   ZZ=            -17.5818
   XY=              0.0005   XZ=              0.0021   YZ=             -0.0013
 Traceless Quadrupole moment (field-independent basis, Debye-Ang):
   XX=              0.0090   YY=              0.0009   ZZ=             -0.0099
   XY=              0.0005   XZ=              0.0021   YZ=             -0.0013
 Octapole moment (field-independent basis, Debye-Ang**2):
  XXX=             50.9483  YYY=              0.0281  ZZZ=              0.1237  XYY=             16.9965
  XXY=              0.0081  XXZ=              0.0379  XZZ=             17.0036  YZZ=              0.0097
  YYZ=              0.0412  XYZ=              0.0006
 Hexadecapole moment (field-independent basis, Debye-Ang**3):
 XXXX=           -116.5821 YYYY=            -18.0771 ZZZZ=            -18.1148 XXXY=             -0.0246
 XXXZ=             -0.1127 YYYX=             -0.0255 YYYZ=             -0.0009 ZZZX=             -0.1136
 ZZZY=             -0.0033 XXYY=            -22.4541 XXZZ=            -22.4658 YYZZ=             -6.0301
 XXYZ=             -0.0010 YYXZ=             -0.0384 ZZXY=             -0.0081
 N-N= 0.000000000000D+00 E-N=-6.579405324440D+03  KE= 2.749619275297D+03
 No NMR shielding tensors so no spin-rotation constants.
 Leave Link  601 at Wed May  6 13:57:05 2020, MaxMem= 1073741824 cpu:       0.8
 (Enter /home/matheus/.gaussian/g09/l122.exe)
 Counterpoise: doing MCBS calculation for fragment   1
 Leave Link  122 at Wed May  6 13:57:05 2020, MaxMem= 1073741824 cpu:       0.0
 (Enter /home/matheus/.gaussian/g09/l301.exe)
 Basis read from rwf:  (5D, 7F)
 No pseudopotential information found on rwf file.
 There are   138 symmetry adapted basis functions of A   symmetry.
 Integral buffers will be    131072 words long.
 Raffenetti 2 integral format.
 Two-electron integral symmetry is turned on.
   138 basis functions,   198 primitive gaussians,   160 cartesian basis functions
     9 alpha electrons        9 beta electrons
       nuclear repulsion energy        36.6636681782 Hartrees.
 IExCor=10402 DFT=T Ex=LC-B+HF Corr=LYP ExCW=0 ScaHFX=  1.000000
 ScaDFX=  1.000000  1.000000  1.000000  1.000000 ScalE2=  1.000000  1.000000
 IRadAn=      5 IRanWt=     -1 IRanGd=            0 ICorTp=0
  HFx wShort=  0.000000 wLong=  1.350000 cFull=  0.000000 cShort=  0.000000 cLong=  1.000000
  DFx wShort=  0.000000 wLong=  1.350000 cFull=  0.000000 cShort=  0.000000 cLong=  1.000000
 NAtoms=    5 NActive=    4 NUniq=    4 SFac= 1.00D+00 NAtFMM=   60 NAOKFM=F Big=F
 No density basis found on file   718.
 Leave Link  301 at Wed May  6 13:57:05 2020, MaxMem= 1073741824 cpu:       0.2
 (Enter /home/matheus/.gaussian/g09/l302.exe)
 NPDir=0 NMtPBC=     1 NCelOv=     1 NCel=       1 NClECP=     1 NCelD=      1
         NCelK=      1 NCelE2=     1 NClLst=     1 CellRange=     0.0.
 One-electron integrals computed using PRISM.
 NBasis=   138 RedAO= T  NBF=   138
 NBsUse=   138 1.00D-06 NBFU=   138
 Precomputing XC quadrature grid using
 IXCGrd= 2 IRadAn=           5 IRanWt=          -1 IRanGd=           0 AccXCQ= 0.00D+00.
 NRdTot=     344 NPtTot=       92556 NUsed=       95038 NTot=       95070
 NSgBfM=   160   160   160   160   160 NAtAll=     4     4.
 Leave Link  302 at Wed May  6 13:57:05 2020, MaxMem= 1073741824 cpu:       0.8
 (Enter /home/matheus/.gaussian/g09/l303.exe)
 DipDrv:  MaxL=1.
 Leave Link  303 at Wed May  6 13:57:05 2020, MaxMem= 1073741824 cpu:       0.1
[...]
 Requested convergence on RMS density matrix=1.00D-08 within 128 cycles.
 Requested convergence on MAX density matrix=1.00D-06.
 Requested convergence on             energy=1.00D-06.
 No special actions if energy rises.
 Using DIIS extrapolation, IDIIS=  1040.
 Integral symmetry usage will be decided dynamically.
       126823 words used for storage of precomputed grid.
 IEnd=      305770 IEndB=      305770 NGot=  1073741824 MDV=  1073505365
 LenX=  1073505365 LenY=  1073452483
 Fock matrices will be formed incrementally for  20 cycles.

 Cycle   1  Pass 1  IDiag  1:
 FoFJK:  IHMeth= 1 ICntrl=     0 DoSepK=T KAlg= 1 I1Cent= 0 FoldK=F
 FoFCou: FMM=F IPFlag=           0 FMFlag=      100000 FMFlg1=           0
         NFxFlg=           0 DoJE=T BraDBF=F KetDBF=F FulRan=T
         Omega=  0.000000  0.000000  1.000000  0.000000  0.000000 ICntrl=     500 IOpCl=  0
         NMat0=    1 NMatS0=    1 NMatT0=    0 NMatD0=    1 NMtDS0=    0 NMtDT0=    0
         I1Cent=           0 NGrid=           0.
 Symmetry not used in FoFCou.
 E= -2753.40937737554    
 DIIS: error= 2.11D-04 at cycle   1 NSaved=   1.
 NSaved= 1 IEnMin= 1 EnMin= -2753.40937737554     IErMin= 1 ErrMin= 2.11D-04
 ErrMax= 2.11D-04 EMaxC= 1.00D-01 BMatC= 6.06D-06 BMatP= 6.06D-06
 IDIUse=3 WtCom= 9.98D-01 WtEn= 2.11D-03
 Coeff-Com:  0.100D+01
 Coeff-En:   0.100D+01
 Coeff:      0.100D+01
 Gap=     0.581 Goal=   None    Shift=    0.000
 RMSDP=1.51D-05 MaxDP=7.03D-04              OVMax= 3.92D-04

 Cycle   2  Pass 1  IDiag  1:
 RMSU=  1.06D-05    CP:  1.00D+00
 FoFJK:  IHMeth= 1 ICntrl=     0 DoSepK=T KAlg= 1 I1Cent= 0 FoldK=F
 E= -2753.40937826054     Delta-E=       -0.000000884999 Rises=F Damp=F
 DIIS: error= 7.11D-06 at cycle   2 NSaved=   2.
 NSaved= 2 IEnMin= 2 EnMin= -2753.40937826054     IErMin= 2 ErrMin= 7.11D-06
 ErrMax= 7.11D-06 EMaxC= 1.00D-01 BMatC= 6.46D-09 BMatP= 6.06D-06
 IDIUse=1 WtCom= 1.00D+00 WtEn= 0.00D+00
 Coeff-Com: -0.109D-01 0.101D+01
 Coeff:     -0.109D-01 0.101D+01
 Gap=     0.581 Goal=   None    Shift=    0.000
 RMSDP=1.39D-06 MaxDP=5.53D-05 DE=-8.85D-07 OVMax= 5.90D-05

 Cycle   3  Pass 1  IDiag  1:
 RMSU=  5.20D-07    CP:  1.00D+00  1.08D+00
 FoFJK:  IHMeth= 1 ICntrl=     0 DoSepK=T KAlg= 1 I1Cent= 0 FoldK=F
 E= -2753.40937827207     Delta-E=       -0.000000011530 Rises=F Damp=F
 DIIS: error= 1.10D-06 at cycle   3 NSaved=   3.
 NSaved= 3 IEnMin= 3 EnMin= -2753.40937827207     IErMin= 3 ErrMin= 1.10D-06
 ErrMax= 1.10D-06 EMaxC= 1.00D-01 BMatC= 1.65D-10 BMatP= 6.46D-09
 IDIUse=1 WtCom= 1.00D+00 WtEn= 0.00D+00
 Coeff-Com:  0.292D-03-0.116D+00 0.112D+01
 Coeff:      0.292D-03-0.116D+00 0.112D+01
 Gap=     0.581 Goal=   None    Shift=    0.000
 RMSDP=1.76D-07 MaxDP=5.77D-06 DE=-1.15D-08 OVMax= 1.15D-05

 Cycle   4  Pass 1  IDiag  1:
 RMSU=  5.62D-08    CP:  1.00D+00  1.08D+00  1.20D+00
 FoFJK:  IHMeth= 1 ICntrl=     0 DoSepK=T KAlg= 1 I1Cent= 0 FoldK=F
 E= -2753.40937827246     Delta-E=       -0.000000000388 Rises=F Damp=F
 DIIS: error= 2.98D-07 at cycle   4 NSaved=   4.
 NSaved= 4 IEnMin= 4 EnMin= -2753.40937827246     IErMin= 4 ErrMin= 2.98D-07
 ErrMax= 2.98D-07 EMaxC= 1.00D-01 BMatC= 1.44D-11 BMatP= 1.65D-10
 IDIUse=1 WtCom= 1.00D+00 WtEn= 0.00D+00
 Coeff-Com:  0.249D-03-0.437D-01 0.262D+00 0.782D+00
 Coeff:      0.249D-03-0.437D-01 0.262D+00 0.782D+00
 Gap=     0.581 Goal=   None    Shift=    0.000
 RMSDP=2.16D-08 MaxDP=7.19D-07 DE=-3.88D-10 OVMax= 1.04D-06

 Cycle   5  Pass 1  IDiag  1:
 RMSU=  9.96D-09    CP:  1.00D+00  1.08D+00  1.21D+00  1.10D+00
 FoFJK:  IHMeth= 1 ICntrl=     0 DoSepK=T KAlg= 1 I1Cent= 0 FoldK=F
 E= -2753.40937827249     Delta-E=       -0.000000000037 Rises=F Damp=F
 DIIS: error= 7.89D-08 at cycle   5 NSaved=   5.
 NSaved= 5 IEnMin= 5 EnMin= -2753.40937827249     IErMin= 5 ErrMin= 7.89D-08
 ErrMax= 7.89D-08 EMaxC= 1.00D-01 BMatC= 3.70D-13 BMatP= 1.44D-11
 IDIUse=1 WtCom= 1.00D+00 WtEn= 0.00D+00
 Coeff-Com: -0.221D-04 0.671D-02-0.605D-01-0.209D-01 0.107D+01
 Coeff:     -0.221D-04 0.671D-02-0.605D-01-0.209D-01 0.107D+01
 Gap=     0.581 Goal=   None    Shift=    0.000
 RMSDP=9.02D-09 MaxDP=3.66D-07 DE=-3.73D-11 OVMax= 4.34D-07

 SCF Done:  E(RLC-B+HF-LYP) =  -2753.40937827     A.U. after    5 cycles
             Convg  =    0.9021D-08             -V/T =  2.0014
 KE= 2.749687706139D+03 PE=-6.579480648772D+03 EE= 1.076383564360D+03
 Leave Link  502 at Wed May  6 14:19:27 2020, MaxMem= 1073741824 cpu:      97.6
 (Enter /home/matheus/.gaussian/g09/l122.exe)
 Restoring MOs from calculation   4 to rwf.
 Counterpoise: doing MCBS calculation for fragment   1
 Leave Link  122 at Wed May  6 14:19:27 2020, MaxMem= 1073741824 cpu:       0.0
 (Enter /home/matheus/.gaussian/g09/l301.exe)
 Basis read from rwf:  (5D, 7F)
 No pseudopotential information found on rwf file.
 There are   138 symmetry adapted basis functions of A   symmetry.
 Integral buffers will be    131072 words long.
 Raffenetti 2 integral format.
 Two-electron integral symmetry is turned on.
   138 basis functions,   198 primitive gaussians,   160 cartesian basis functions
     9 alpha electrons        9 beta electrons
       nuclear repulsion energy        36.6636681782 Hartrees.
 IExCor=10402 DFT=T Ex=LC-B+HF Corr=LYP ExCW=0 ScaHFX=  1.000000
 ScaDFX=  1.000000  1.000000  1.000000  1.000000 ScalE2=  1.000000  1.000000
 IRadAn=      5 IRanWt=     -1 IRanGd=            0 ICorTp=0
  HFx wShort=  0.000000 wLong=  1.350000 cFull=  0.000000 cShort=  0.000000 cLong=  1.000000
  DFx wShort=  0.000000 wLong=  1.350000 cFull=  0.000000 cShort=  0.000000 cLong=  1.000000
 NAtoms=    5 NActive=    4 NUniq=    4 SFac= 1.00D+00 NAtFMM=   60 NAOKFM=F Big=F
 No density basis found on file   718.
 Leave Link  301 at Wed May  6 14:19:27 2020, MaxMem= 1073741824 cpu:       0.2
 (Enter /home/matheus/.gaussian/g09/l302.exe)
 NPDir=0 NMtPBC=     1 NCelOv=     1 NCel=       1 NClECP=     1 NCelD=      1
         NCelK=      1 NCelE2=     1 NClLst=     1 CellRange=     0.0.
 One-electron integrals computed using PRISM.
 NBasis=   138 RedAO= T  NBF=   138
 NBsUse=   138 1.00D-06 NBFU=   138
 Precomputing XC quadrature grid using
 IXCGrd= 2 IRadAn=           5 IRanWt=          -1 IRanGd=           0 AccXCQ= 0.00D+00.
 NRdTot=     344 NPtTot=       92556 NUsed=       95038 NTot=       95070
 NSgBfM=   160   160   160   160   160 NAtAll=     4     4.
 Leave Link  302 at Wed May  6 14:19:27 2020, MaxMem= 1073741824 cpu:       0.8
 (Enter /home/matheus/.gaussian/g09/l303.exe)
 DipDrv:  MaxL=1.
 Leave Link  303 at Wed May  6 14:19:27 2020, MaxMem= 1073741824 cpu:       0.1
 (Enter /home/matheus/.gaussian/g09/l401.exe)
 Initial guess read from the read-write file.
 Guess basis will be translated and rotated to current coordinates.
 Initial guess orbital symmetries:
       Occupied  (A) (A) (A) (A) (A) (A) (A) (A) (A)
       Virtual   (A) (A) (A) (A) (A) (A) (A) (A) (A) (A) (A) (A)
                 (A) (A) (A) (A) (A) (A) (A) (A) (A) (A) (A) (A)
                 (A) (A) (A) (A) (A) (A) (A) (A) (A) (A) (A) (A)
                 (A) (A) (A) (A) (A) (A) (A) (A) (A) (A) (A) (A)
                 (A) (A) (A) (A) (A) (A) (A) (A) (A) (A) (A) (A)
                 (A) (A) (A) (A) (A) (A) (A) (A) (A) (A) (A) (A)
                 (A) (A) (A) (A) (A) (A) (A) (A) (A) (A) (A) (A)
                 (A) (A) (A) (A) (A) (A) (A) (A) (A) (A) (A) (A)
                 (A) (A) (A) (A) (A) (A) (A) (A) (A) (A) (A) (A)
                 (A) (A) (A) (A) (A) (A) (A) (A) (A) (A) (A) (A)
                 (A) (A) (A) (A) (A) (A) (A) (A) (A)
 The electronic state of the initial guess is 1-A.
 Generating alternative initial guess.
 Harris functional with IExCor=10402 diagonalized for initial guess.
 ExpMin= 2.53D-02 ExpMax= 1.53D+04 ExpMxC= 5.22D+02 IAcc=3 IRadAn=         5 AccDes= 0.00D+00
 HarFok:  IExCor=10402 AccDes= 0.00D+00 IRadAn=         5 IDoV= 1
 ScaDFX=  1.000000  1.000000  1.000000  1.000000
 FoFCou: FMM=F IPFlag=           0 FMFlag=      100000 FMFlg1=           0
         NFxFlg=           0 DoJE=T BraDBF=F KetDBF=T FulRan=T
         Omega=  0.000000  0.000000  1.000000  0.000000  0.000000 ICntrl=     500 IOpCl=  0
         NMat0=    1 NMatS0=    1 NMatT0=    0 NMatD0=    1 NMtDS0=    0 NMtDT0=    0
         I1Cent=           4 NGrid=           0.
 Petite list used in FoFCou.
 Harris En= -143.215822781765    
 Leave Link  401 at Wed May  6 14:19:27 2020, MaxMem= 1073741824 cpu:       2.5
 (Enter /home/matheus/.gaussian/g09/l502.exe)
 Closed shell SCF:
 Requested convergence on RMS density matrix=1.00D-08 within 128 cycles.
 Requested convergence on MAX density matrix=1.00D-06.
 Requested convergence on             energy=1.00D-06.
 No special actions if energy rises.
 Using DIIS extrapolation, IDIIS=  1040.
 Integral symmetry usage will be decided dynamically.
        94980 words used for storage of precomputed grid.
 IEnd=      192360 IEndB=      192360 NGot=  1073741824 MDV=  1073591865
 LenX=  1073591865 LenY=  1073565824
 Fock matrices will be formed incrementally for  20 cycles.

 Cycle   1  Pass 1  IDiag  1:
 FoFJK:  IHMeth= 1 ICntrl=     0 DoSepK=T KAlg= 1 I1Cent= 0 FoldK=F
 FoFCou: FMM=F IPFlag=           0 FMFlag=      100000 FMFlg1=           0
         NFxFlg=           0 DoJE=T BraDBF=F KetDBF=F FulRan=T
         Omega=  0.000000  0.000000  1.000000  0.000000  0.000000 ICntrl=     500 IOpCl=  0
         NMat0=    1 NMatS0=    1 NMatT0=    0 NMatD0=    1 NMtDS0=    0 NMtDT0=    0
         I1Cent=           0 NGrid=           0.
 Symmetry not used in FoFCou.
 E= -151.205620574320    
 DIIS: error= 1.78D-06 at cycle   1 NSaved=   1.
 NSaved= 1 IEnMin= 1 EnMin= -151.205620574320     IErMin= 1 ErrMin= 1.78D-06
 ErrMax= 1.78D-06 EMaxC= 1.00D-01 BMatC= 4.84D-10 BMatP= 4.84D-10
 IDIUse=1 WtCom= 1.00D+00 WtEn= 0.00D+00
 Coeff-Com:  0.100D+01
 Coeff:      0.100D+01
 Gap=     0.507 Goal=   None    Shift=    0.000
 RMSDP=1.68D-07 MaxDP=4.07D-06              OVMax= 5.64D-06

 Cycle   2  Pass 1  IDiag  1:
 RMSU=  1.19D-07    CP:  1.00D+00
 FoFJK:  IHMeth= 1 ICntrl=     0 DoSepK=T KAlg= 1 I1Cent= 0 FoldK=F
 E= -151.205620574778     Delta-E=       -0.000000000458 Rises=F Damp=F
 DIIS: error= 4.73D-07 at cycle   2 NSaved=   2.
 NSaved= 2 IEnMin= 2 EnMin= -151.205620574778     IErMin= 2 ErrMin= 4.73D-07
 ErrMax= 4.73D-07 EMaxC= 1.00D-01 BMatC= 2.56D-11 BMatP= 4.84D-10
 IDIUse=1 WtCom= 1.00D+00 WtEn= 0.00D+00
 Coeff-Com: -0.194D+00 0.119D+01
 Coeff:     -0.194D+00 0.119D+01
 Gap=     0.507 Goal=   None    Shift=    0.000
 RMSDP=4.56D-08 MaxDP=1.39D-06 DE=-4.58D-10 OVMax= 2.32D-06

 Cycle   3  Pass 1  IDiag  1:
 RMSU=  1.37D-08    CP:  1.00D+00  1.25D+00
 FoFJK:  IHMeth= 1 ICntrl=     0 DoSepK=T KAlg= 1 I1Cent= 0 FoldK=F
 E= -151.205620574819     Delta-E=       -0.000000000042 Rises=F Damp=F
 DIIS: error= 1.18D-07 at cycle   3 NSaved=   3.
 NSaved= 3 IEnMin= 3 EnMin= -151.205620574819     IErMin= 3 ErrMin= 1.18D-07
 ErrMax= 1.18D-07 EMaxC= 1.00D-01 BMatC= 1.42D-12 BMatP= 2.56D-11
 IDIUse=1 WtCom= 1.00D+00 WtEn= 0.00D+00
 Coeff-Com: -0.553D-04-0.127D+00 0.113D+01
 Coeff:     -0.553D-04-0.127D+00 0.113D+01
 Gap=     0.507 Goal=   None    Shift=    0.000
 RMSDP=1.12D-08 MaxDP=2.81D-07 DE=-4.19D-11 OVMax= 8.51D-07

 Cycle   4  Pass 1  IDiag  1:
 RMSU=  4.06D-09    CP:  1.00D+00  1.30D+00  1.22D+00
 FoFJK:  IHMeth= 1 ICntrl=     0 DoSepK=T KAlg= 1 I1Cent= 0 FoldK=F
 E= -151.205620574823     Delta-E=       -0.000000000004 Rises=F Damp=F
 DIIS: error= 5.87D-08 at cycle   4 NSaved=   4.
 NSaved= 4 IEnMin= 4 EnMin= -151.205620574823     IErMin= 4 ErrMin= 5.87D-08
 ErrMax= 5.87D-08 EMaxC= 1.00D-01 BMatC= 4.05D-13 BMatP= 1.42D-12
 IDIUse=1 WtCom= 1.00D+00 WtEn= 0.00D+00
 Coeff-Com:  0.161D-01-0.143D+00 0.324D+00 0.803D+00
 Coeff:      0.161D-01-0.143D+00 0.324D+00 0.803D+00
 Gap=     0.507 Goal=   None    Shift=    0.000
 RMSDP=4.39D-09 MaxDP=9.25D-08 DE=-3.69D-12 OVMax= 3.04D-07

 SCF Done:  E(RLC-B+HF-LYP) =  -151.205620575     A.U. after    4 cycles
             Convg  =    0.4390D-08             -V/T =  2.0061
 KE= 1.502890624735D+02 PE=-4.316057463529D+02 EE= 9.344739512637D+01
 Leave Link  502 at Wed May  6 14:19:32 2020, MaxMem= 1073741824 cpu:      33.0
 (Enter /home/matheus/.gaussian/g09/l122.exe)
 Restoring MOs from calculation   5 to rwf.
 Counterpoise: doing MCBS calculation for fragment   2
 Leave Link  122 at Wed May  6 14:19:32 2020, MaxMem= 1073741824 cpu:       0.0
 (Enter /home/matheus/.gaussian/g09/l301.exe)
 Basis read from rwf:  (5D, 7F)
 No pseudopotential information found on rwf file.
 There are    59 symmetry adapted basis functions of A   symmetry.
 Integral buffers will be    131072 words long.
 Raffenetti 2 integral format.
 Two-electron integral symmetry is turned on.
    59 basis functions,   217 primitive gaussians,    69 cartesian basis functions
    18 alpha electrons       18 beta electrons
       nuclear repulsion energy         0.0000000000 Hartrees.
 IExCor=10402 DFT=T Ex=LC-B+HF Corr=LYP ExCW=0 ScaHFX=  1.000000
 ScaDFX=  1.000000  1.000000  1.000000  1.000000 ScalE2=  1.000000  1.000000
 IRadAn=      5 IRanWt=     -1 IRanGd=            0 ICorTp=0
  HFx wShort=  0.000000 wLong=  1.350000 cFull=  0.000000 cShort=  0.000000 cLong=  1.000000
  DFx wShort=  0.000000 wLong=  1.350000 cFull=  0.000000 cShort=  0.000000 cLong=  1.000000
 NAtoms=    5 NActive=    1 NUniq=    1 SFac= 1.00D+00 NAtFMM=   60 NAOKFM=F Big=F
 No density basis found on file   718.
 Leave Link  301 at Wed May  6 14:19:32 2020, MaxMem= 1073741824 cpu:       0.2
 (Enter /home/matheus/.gaussian/g09/l302.exe)
 NPDir=0 NMtPBC=     1 NCelOv=     1 NCel=       1 NClECP=     1 NCelD=      1
         NCelK=      1 NCelE2=     1 NClLst=     1 CellRange=     0.0.
 One-electron integrals computed using PRISM.
 NBasis=    59 RedAO= T  NBF=    59
 NBsUse=    59 1.00D-06 NBFU=    59
 Precomputing XC quadrature grid using
 IXCGrd= 2 IRadAn=           5 IRanWt=          -1 IRanGd=           0 AccXCQ= 0.00D+00.
 NRdTot=      81 NPtTot=       30352 NUsed=       30981 NTot=       31013
 NSgBfM=    69    69    69    69    69 NAtAll=     1     1.
 Leave Link  302 at Wed May  6 14:19:32 2020, MaxMem= 1073741824 cpu:       0.7
 (Enter /home/matheus/.gaussian/g09/l303.exe)
 DipDrv:  MaxL=1.
 Leave Link  303 at Wed May  6 14:19:32 2020, MaxMem= 1073741824 cpu:       0.1
 (Enter /home/matheus/.gaussian/g09/l401.exe)
 Initial guess read from the read-write file.
 Guess basis will be translated and rotated to current coordinates.
 Initial guess orbital symmetries:
       Occupied  (A) (A) (A) (A) (A) (A) (A) (A) (A) (A) (A) (A)
                 (A) (A) (A) (A) (A) (A)
       Virtual   (A) (A) (A) (A) (A) (A) (A) (A) (A) (A) (A) (A)
                 (A) (A) (A) (A) (A) (A) (A) (A) (A) (A) (A) (A)
                 (A) (A) (A) (A) (A) (A) (A) (A) (A) (A) (A) (A)
                 (A) (A) (A) (A) (A)
 The electronic state of the initial guess is 1-A.
 Generating alternative initial guess.
 Harris functional with IExCor=10402 diagonalized for initial guess.
 ExpMin= 4.00D-02 ExpMax= 1.17D+07 ExpMxC= 1.33D+04 IAcc=3 IRadAn=         5 AccDes= 0.00D+00
 HarFok:  IExCor=10402 AccDes= 0.00D+00 IRadAn=         5 IDoV= 1
 ScaDFX=  1.000000  1.000000  1.000000  1.000000
 FoFCou: FMM=F IPFlag=           0 FMFlag=      100000 FMFlg1=           0
         NFxFlg=           0 DoJE=T BraDBF=F KetDBF=T FulRan=T
         Omega=  0.000000  0.000000  1.000000  0.000000  0.000000 ICntrl=     500 IOpCl=  0
         NMat0=    1 NMatS0=    1 NMatT0=    0 NMatD0=    1 NMtDS0=    0 NMtDT0=    0
         I1Cent=           4 NGrid=           0.
 Petite list used in FoFCou.
 Harris En= -2731.73388500824    
 Leave Link  401 at Wed May  6 14:19:32 2020, MaxMem= 1073741824 cpu:       1.0
 (Enter /home/matheus/.gaussian/g09/l502.exe)
 Closed shell SCF:
 Requested convergence on RMS density matrix=1.00D-08 within 128 cycles.
 Requested convergence on MAX density matrix=1.00D-06.
 Requested convergence on             energy=1.00D-06.
 No special actions if energy rises.
 Using DIIS extrapolation, IDIIS=  1040.
 Integral symmetry usage will be decided dynamically.
        30923 words used for storage of precomputed grid.
 IEnd=       64406 IEndB=       64406 NGot=  1073741824 MDV=  1073698889
 LenX=  1073698889 LenY=  1073693687
 Fock matrices will be formed incrementally for  20 cycles.

 Cycle   1  Pass 1  IDiag  1:
 FoFJK:  IHMeth= 1 ICntrl=     0 DoSepK=T KAlg= 1 I1Cent= 0 FoldK=F
 FoFCou: FMM=F IPFlag=           0 FMFlag=      100000 FMFlg1=           0
         NFxFlg=           0 DoJE=T BraDBF=F KetDBF=F FulRan=T
         Omega=  0.000000  0.000000  1.000000  0.000000  0.000000 ICntrl=     500 IOpCl=  0
         NMat0=    1 NMatS0=    1 NMatT0=    0 NMatD0=    1 NMtDS0=    0 NMtDT0=    0
         I1Cent=           0 NGrid=           0.
 Symmetry not used in FoFCou.
 E= -2753.40934852740    
 DIIS: error= 1.04D-13 at cycle   1 NSaved=   1.
 NSaved= 1 IEnMin= 1 EnMin= -2753.40934852740     IErMin= 1 ErrMin= 1.04D-13
 ErrMax= 1.04D-13 EMaxC= 1.00D-01 BMatC= 1.95D-25 BMatP= 1.95D-25
 IDIUse=1 WtCom= 1.00D+00 WtEn= 0.00D+00
 Coeff-Com:  0.100D+01
 Coeff:      0.100D+01
 Gap=     0.640 Goal=   None    Shift=    0.000
 DSYEVD returned Info=        1859 IAlg= 4 N=    59 NDim=    59 NE2=    18198197 trying DSYEV.
 RMSDP=4.87D-15 MaxDP=1.70D-13              OVMax= 1.17D-14

 SCF Done:  E(RLC-B+HF-LYP) =  -2753.40934853     A.U. after    1 cycles
             Convg  =    0.4867D-14             -V/T =  2.0014
 KE= 2.749695852517D+03 PE=-6.579489077514D+03 EE= 1.076383876470D+03
 Leave Link  502 at Wed May  6 14:19:33 2020, MaxMem= 1073741824 cpu:      11.2
 (Enter /home/matheus/.gaussian/g09/l122.exe)
 Restoring MOs from calculation   1 to rwf.
 Counterpoise: corrected energy =   -2904.615140237558
 Counterpoise: BSSE energy =       0.000033394672
 Leave Link  122 at Wed May  6 14:19:33 2020, MaxMem= 1073741824 cpu:       0.0
 (Enter /home/matheus/.gaussian/g09/l108.exe)
 Scan completed.

 Summary of the potential surface scan:
   N      R1          SCF    
 ----  ---------  -----------
    1     3.0000  -2753.40935
    2     3.1000  -2753.40935
    3     3.2000  -2753.40935
    4     3.3000  -2753.40935
    5     3.4000  -2753.40935
    6     3.5000  -2753.40935
    7     3.6000  -2753.40935
    8     3.7000  -2753.40935
    9     3.8000  -2753.40935
   10     3.9000  -2753.40935
   11     4.0000  -2753.40935
   12     4.1000  -2753.40935
   13     4.2000  -2753.40935
   14     4.3000  -2753.40935
   15     4.4000  -2753.40935
   16     4.5000  -2753.40935
   17     4.6000  -2753.40935
   18     4.7000  -2753.40935
   19     4.8000  -2753.40935
   20     4.9000  -2753.40935
   21     5.0000  -2753.40935
 ----  ---------  -----------
  
 Leave Link  108 at Wed May  6 14:19:33 2020, MaxMem= 1073741824 cpu:       0.0
 (Enter /home/matheus/.gaussian/g09/l9999.exe)

 Test job not archived.
 1\1\GINC-REDGIANT\Scan\RLC-BLYP\Aug-CC-pVTZ\H2Kr1O2\MATHEUS\06-May-202
 0\1\\#p lc-blyp/aug-cc-PVTz iop(3/107=1350000000) iop(3/108=1350000000
 ) int=ultrafine counterpoise=2 Scan\\TCC\\0,1\O,0,0.,0.,0.725\O,0,0.,0
 .,-0.725\H,0,0.3142209495,0.8633149634,1.0235104166\H,0,0.,0.918720594
 7,-1.0235104166\Kr,0,0.,R1,0.\\R1=3.,s,20,0.1\\Version=EM64L-G09RevC.0
 1\State=1-A\HF=-2753.4093485,-2753.4093485,-2753.4093485,-2753.4093485
 ,-2753.4093485,-2753.4093485,-2753.4093485,-2753.4093485,-2753.4093485
 ,-2753.4093485,-2753.4093485,-2753.4093485,-2753.4093485,-2753.4093485
 ,-2753.4093485,-2753.4093485,-2753.4093485,-2753.4093485,-2753.4093485
 ,-2753.4093485,-2753.4093485\RMSD=5.461e-09,3.089e-10,7.451e-11,2.036e
 -11,7.198e-12,3.150e-12,1.454e-12,6.881e-13,3.253e-13,1.558e-13,7.258e
 -14,3.415e-14,1.720e-14,7.611e-15,1.032e-14,1.104e-14,9.483e-15,8.916e
 -15,6.980e-15,3.859e-15,4.867e-15\PG=C01 [X(H2Kr1O2)]\\@


 TO DRY ONE'S EYES AND LAUGH AT A FALL,
 AND BAFFLED, GET UP AND BEGIN AGAIN.
           R. BROWNING
 Job cpu time:  0 days  3 hours 14 minutes 44.5 seconds.
 File lengths (MBytes):  RWF=     33 Int=      0 D2E=      0 Chk=      8 Scr=      1
 Normal termination of Gaussian 09 at Wed May  6 14:19:33 2020.
