 Entering Gaussian System, Link 0=g09
 Input=/home/matheus/.tcc/Inputs/Inputs-lc-blyp/H2O2-Kr_11.com
 Output=/home/matheus/.tcc/Logs/Logs-lc-blyp/H2O2-Kr_11.log
 Initial command:
 /home/matheus/.gaussian/g09/l1.exe /home/matheus/.gaussian/g09/scratch/Gau-14001.inp -scrdir=/home/matheus/.gaussian/g09/scratch/
 Entering Link 1 = /home/matheus/.gaussian/g09/l1.exe PID=     14004.
  
 Copyright (c) 1988,1990,1992,1993,1995,1998,2003,2009,2011,
            Gaussian, Inc.  All Rights Reserved.
  
 This is part of the Gaussian(R) 09 program.  It is based on
 the Gaussian(R) 03 system (copyright 2003, Gaussian, Inc.),
 the Gaussian(R) 98 system (copyright 1998, Gaussian, Inc.),
 the Gaussian(R) 94 system (copyright 1995, Gaussian, Inc.),
 the Gaussian 92(TM) system (copyright 1992, Gaussian, Inc.),
 the Gaussian 90(TM) system (copyright 1990, Gaussian, Inc.),
 the Gaussian 88(TM) system (copyright 1988, Gaussian, Inc.),
 the Gaussian 86(TM) system (copyright 1986, Carnegie Mellon
 University), and the Gaussian 82(TM) system (copyright 1983,
 Carnegie Mellon University). Gaussian is a federally registered
 trademark of Gaussian, Inc.
  
 This software contains proprietary and confidential information,
 including trade secrets, belonging to Gaussian, Inc.
  
 This software is provided under written license and may be
 used, copied, transmitted, or stored only in accord with that
 written license.
  
 The following legend is applicable only to US Government
 contracts under FAR:
  
                    RESTRICTED RIGHTS LEGEND
  
 Use, reproduction and disclosure by the US Government is
 subject to restrictions as set forth in subparagraphs (a)
 and (c) of the Commercial Computer Software - Restricted
 Rights clause in FAR 52.227-19.
  
 Gaussian, Inc.
 340 Quinnipiac St., Bldg. 40, Wallingford CT 06492
  
  
 ---------------------------------------------------------------
 Warning -- This program may not be used in any manner that
 competes with the business of Gaussian, Inc. or will provide
 assistance to any competitor of Gaussian, Inc.  The licensee
 of this program is prohibited from giving any competitor of
 Gaussian, Inc. access to this program.  By using this program,
 the user acknowledges that Gaussian, Inc. is engaged in the
 business of creating and licensing software in the field of
 computational chemistry and represents and warrants to the
 licensee that it is not a competitor of Gaussian, Inc. and that
 it will not use this program in any manner prohibited above.
 ---------------------------------------------------------------
  

 Cite this work as:
 Gaussian 09, Revision C.01,
 M. J. Frisch, G. W. Trucks, H. B. Schlegel, G. E. Scuseria, 
 M. A. Robb, J. R. Cheeseman, G. Scalmani, V. Barone, B. Mennucci, 
 G. A. Petersson, H. Nakatsuji, M. Caricato, X. Li, H. P. Hratchian, 
 A. F. Izmaylov, J. Bloino, G. Zheng, J. L. Sonnenberg, M. Hada, 
 M. Ehara, K. Toyota, R. Fukuda, J. Hasegawa, M. Ishida, T. Nakajima, 
 Y. Honda, O. Kitao, H. Nakai, T. Vreven, J. A. Montgomery, Jr., 
 J. E. Peralta, F. Ogliaro, M. Bearpark, J. J. Heyd, E. Brothers, 
 K. N. Kudin, V. N. Staroverov, T. Keith, R. Kobayashi, J. Normand, 
 K. Raghavachari, A. Rendell, J. C. Burant, S. S. Iyengar, J. Tomasi, 
 M. Cossi, N. Rega, J. M. Millam, M. Klene, J. E. Knox, J. B. Cross, 
 V. Bakken, C. Adamo, J. Jaramillo, R. Gomperts, R. E. Stratmann, 
 O. Yazyev, A. J. Austin, R. Cammi, C. Pomelli, J. W. Ochterski, 
 R. L. Martin, K. Morokuma, V. G. Zakrzewski, G. A. Voth, 
 P. Salvador, J. J. Dannenberg, S. Dapprich, A. D. Daniels, 
 O. Farkas, J. B. Foresman, J. V. Ortiz, J. Cioslowski, 
 and D. J. Fox, Gaussian, Inc., Wallingford CT, 2010.
 
 ******************************************
 Gaussian 09:  EM64L-G09RevC.01 23-Sep-2011
                11-May-2020 
 ******************************************
 %mem=8GB
 %nproc=8
 Will use up to    8 processors via shared memory.
 ----------------------------------------------------------------------
 #p lc-blyp/aug-cc-PVTz iop(3/107=1350000000) iop(3/108=1350000000) int
 =ultrafine counterpoise=2 Scan
 ----------------------------------------------------------------------
 1/38=1,60=1,62=2/1,8;
 2/12=2,17=6,18=5,29=3,40=1/2;
 1/38=1,53=5172,62=2/22;
 3/5=16,6=1,7=10,11=2,16=1,25=1,30=1,74=1000402,75=-5,107=1350000000,108=1350000000/1,2,3;
 4//1;
 5/5=2,38=5/2;
 6/7=2,8=2,9=2,10=2,18=1,28=1/1;
 1/53=4052,62=2,63=1/22;
 3/5=7,6=11,7=10,11=2,16=1,25=1,30=1,74=1000402,75=-5,82=7,107=1350000000,108=1350000000/1,2,3;
 4//1;
 5/5=2,38=5/2;
 6/7=2,8=2,9=2,10=2,18=1,28=1/1;
 1/53=3042,62=2,63=2/22;
 3/5=7,6=11,7=10,11=2,16=1,25=1,30=1,74=1000402,75=-5,82=7,107=1350000000,108=1350000000/1,2,3;
 4//1;
 5/5=2,38=5/2;
 6/7=2,8=2,9=2,10=2,18=1,28=1/1;
 1/53=2032,62=2,63=3/22;
 3/5=7,6=11,7=10,11=2,16=1,25=1,30=1,74=1000402,75=-5,82=7,107=1350000000,108=1350000000/1,2,3;
 4//1;
 5/5=2,38=5/2;
 6/7=2,8=2,9=2,10=2,18=1,28=1/1;
 1/53=1022,62=2,63=4/22;
 3/5=7,6=11,7=10,11=2,16=1,25=1,30=1,74=1000402,75=-5,82=7,107=1350000000,108=1350000000/1,2,3;
 4//1;
 5/5=2,38=5/2;
 6/7=2,8=2,9=2,10=2,18=1,28=1/1;
 1/53=5014,62=2,63=5/22;
 1/60=1,62=2/8(1);
 99/9=1/99;
 2/29=3/2;
 1/53=5173,62=2/22;
 3/5=7,6=11,7=10,11=2,16=1,25=1,30=1,74=1000402,75=-5,82=7,107=1350000000,108=1350000000/1,2,3;
 4/5=5,16=3/1;
 5/5=2,38=5/2;
 1/53=4053,62=2,63=1/22;
 3/5=7,6=11,7=10,11=2,16=1,25=1,30=1,74=1000402,75=-5,82=7,107=1350000000,108=1350000000/1,2,3;
 4/5=5,16=3/1;
 5/5=2,38=5/2;
 1/53=3043,62=2,63=2/22;
 3/5=7,6=11,7=10,11=2,16=1,25=1,30=1,74=1000402,75=-5,82=7,107=1350000000,108=1350000000/1,2,3;
 4/5=5,16=3/1;
 5/5=2,38=5/2;
 1/53=2033,62=2,63=3/22;
 3/5=7,6=11,7=10,11=2,16=1,25=1,30=1,74=1000402,75=-5,82=7,107=1350000000,108=1350000000/1,2,3;
 4/5=5,16=3/1;
 5/5=2,38=5/2;
 1/53=1024,62=2,63=4/22;
 3/5=7,6=11,7=10,11=2,16=1,25=1,30=1,74=1000402,75=-5,82=7,107=1350000000,108=1350000000/1,2,3;
 4/5=5,16=3/1;
 5/5=2,38=5/2;
 1/53=5014,62=2,63=5/22;
 1/60=1,62=2/8(-22);
 99/9=1/99;
 Leave Link    1 at Mon May 11 14:34:48 2020, MaxMem= 1073741824 cpu:       0.1
 (Enter /home/matheus/.gaussian/g09/l101.exe)
 ---
 TCC
 ---
 Charge =  0 Multiplicity = 1 in supermolecule
 Charge =  0 Multiplicity = 1 in fragment  1.
 Charge =  0 Multiplicity = 1 in fragment  2.
 Symbolic Z-Matrix:
 O(Fragment=1)         0.        0.        0.725 
 O(Fragment=1)         0.        0.       -0.725 
 H(Fragment=1)         0.86331  -0.31422   1.02351 
 H(Fragment=1)         0.        0.91872  -1.02351 
 Kr(Fragment=2)        0.       R1        0. 
       Variables:
  R1                    3.     Scan 20    0.1    
 
 NAtoms=      5 NQM=        0 NQMF=       0 NMMI=      5 NMMIF=      0
                NMic=       0 NMicF=      0.
                    Isotopes and Nuclear Properties:
 (Nuclear quadrupole moments (NQMom) in fm**2, nuclear magnetic moments (NMagM)
  in nuclear magnetons)

  Atom         1           2           3           4           5
 IAtWgt=          16          16           1           1          84
 AtmWgt=  15.9949146  15.9949146   1.0078250   1.0078250  83.9115064
 NucSpn=           0           0           1           1           0
 AtZEff=   0.0000000   0.0000000   0.0000000   0.0000000   0.0000000
 NQMom=    0.0000000   0.0000000   0.0000000   0.0000000   0.0000000
 NMagM=    0.0000000   0.0000000   2.7928460   2.7928460   0.0000000
 Leave Link  101 at Mon May 11 14:34:48 2020, MaxMem= 1073741824 cpu:       0.4
 (Enter /home/matheus/.gaussian/g09/l108.exe)
 Scan the potential surface.
 Variable   Value     No. Steps Step-Size
 -------- ----------- --------- ---------
     1       3.000000      20      0.1000
 A total of     21 points will be computed.
 Leave Link  108 at Mon May 11 14:34:48 2020, MaxMem= 1073741824 cpu:       0.0
 (Enter /home/matheus/.gaussian/g09/l202.exe)
 ---------------------------------------------------------------------------------------------------
                            Z-MATRIX (ANGSTROMS AND DEGREES)
   CD    Cent   Atom    N1       Length/X        N2       Alpha/Y        N3        Beta/Z          J
 ---------------------------------------------------------------------------------------------------
      1      1  O        0   0.000000          0.000000          0.725000
      2      2  O        0   0.000000          0.000000         -0.725000
      3      3  H        0   0.863315         -0.314221          1.023510
      4      4  H        0   0.000000          0.918721         -1.023510
      5      5  Kr       0   0.000000          3.000000          0.000000
 ---------------------------------------------------------------------------------------------------
                         Z-Matrix orientation:                         
 ---------------------------------------------------------------------
 Center     Atomic      Atomic             Coordinates (Angstroms)
 Number     Number       Type             X           Y           Z
 ---------------------------------------------------------------------
      1          8           0        0.000000    0.000000    0.725000
      2          8           0        0.000000    0.000000   -0.725000
      3          1           0        0.863315   -0.314221    1.023510
      4          1           0        0.000000    0.918721   -1.023510
      5         36           0        0.000000    3.000000    0.000000
 ---------------------------------------------------------------------
                    Distance matrix (angstroms):
                    1          2          3          4          5
     1  O    0.000000
     2  O    1.450000   0.000000
     3  H    0.966000   1.975180   0.000000
     4  H    1.975180   0.966000   2.540817   0.000000
     5  Kr   3.086361   3.086361   3.574486   2.319331   0.000000
 Stoichiometry    H2KrO2
 Framework group  C1[X(H2KrO2)]
 Deg. of freedom     9
 Full point group                 C1      NOp   1
 Largest Abelian subgroup         C1      NOp   1
 Largest concise Abelian subgroup C1      NOp   1
                         Standard orientation:                         
 ---------------------------------------------------------------------
 Center     Atomic      Atomic             Coordinates (Angstroms)
 Number     Number       Type             X           Y           Z
 ---------------------------------------------------------------------
      1          8           0        2.019994   -0.690833   -0.114713
      2          8           0        2.000697    0.753572    0.011068
      3          1           0        2.354569   -1.058170    0.713707
      4          1           0        1.078253    1.037233    0.053361
      5         36           0       -0.988843   -0.013360    0.001725
 ---------------------------------------------------------------------
 Rotational constants (GHZ):     25.7302436      2.3305908      2.1494082
 Leave Link  202 at Mon May 11 14:34:48 2020, MaxMem= 1073741824 cpu:       0.0
 (Enter /home/matheus/.gaussian/g09/l122.exe)
 Leave Link  122 at Mon May 11 14:34:48 2020, MaxMem= 1073741824 cpu:       0.0
 (Enter /home/matheus/.gaussian/g09/l301.exe)
 Standard basis: Aug-CC-pVTZ (5D, 7F)
 Ernie: Thresh=  0.10000D-02 Tol=  0.10000D-05 Strict=F.
 Ernie:  38 primitive shells out of 205 were deleted.
 There are   197 symmetry adapted basis functions of A   symmetry.
 Integral buffers will be    131072 words long.
 Raffenetti 2 integral format.
 Two-electron integral symmetry is turned on.
   197 basis functions,   415 primitive gaussians,   229 cartesian basis functions
    27 alpha electrons       27 beta electrons
       nuclear repulsion energy       148.9188377957 Hartrees.
 IExCor=10402 DFT=T Ex=LC-B+HF Corr=LYP ExCW=0 ScaHFX=  1.000000
 ScaDFX=  1.000000  1.000000  1.000000  1.000000 ScalE2=  1.000000  1.000000
 IRadAn=      5 IRanWt=     -1 IRanGd=            0 ICorTp=0
  HFx wShort=  0.000000 wLong=  1.350000 cFull=  0.000000 cShort=  0.000000 cLong=  1.000000
  DFx wShort=  0.000000 wLong=  1.350000 cFull=  0.000000 cShort=  0.000000 cLong=  1.000000
 NAtoms=    5 NActive=    5 NUniq=    5 SFac= 1.00D+00 NAtFMM=   60 NAOKFM=F Big=F
 Leave Link  301 at Mon May 11 14:34:48 2020, MaxMem= 1073741824 cpu:       0.2
 (Enter /home/matheus/.gaussian/g09/l302.exe)
 NPDir=0 NMtPBC=     1 NCelOv=     1 NCel=       1 NClECP=     1 NCelD=      1
         NCelK=      1 NCelE2=     1 NClLst=     1 CellRange=     0.0.
 One-electron integrals computed using PRISM.
 NBasis=   197 RedAO= T  NBF=   197
 NBsUse=   197 1.00D-06 NBFU=   197
 Precomputing XC quadrature grid using
 IXCGrd= 2 IRadAn=           5 IRanWt=          -1 IRanGd=           0 AccXCQ= 0.00D+00.
 NRdTot=     427 NPtTot=      123512 NUsed=      126579 NTot=      126611
 NSgBfM=   229   229   229   229   229 NAtAll=     5     5.
 Leave Link  302 at Mon May 11 14:34:48 2020, MaxMem= 1073741824 cpu:       1.0
 (Enter /home/matheus/.gaussian/g09/l303.exe)
 DipDrv:  MaxL=1.
 Leave Link  303 at Mon May 11 14:34:48 2020, MaxMem= 1073741824 cpu:       0.2
 (Enter /home/matheus/.gaussian/g09/l401.exe)
 Harris functional with IExCor=10402 diagonalized for initial guess.
 ExpMin= 2.53D-02 ExpMax= 1.17D+07 ExpMxC= 1.33D+04 IAcc=3 IRadAn=         5 AccDes= 0.00D+00
 HarFok:  IExCor=10402 AccDes= 0.00D+00 IRadAn=         5 IDoV= 1
 ScaDFX=  1.000000  1.000000  1.000000  1.000000
 FoFCou: FMM=F IPFlag=           0 FMFlag=      100000 FMFlg1=           0
         NFxFlg=           0 DoJE=T BraDBF=F KetDBF=T FulRan=T
         Omega=  0.000000  0.000000  1.000000  0.000000  0.000000 ICntrl=     500 IOpCl=  0
         NMat0=    1 NMatS0=    1 NMatT0=    0 NMatD0=    1 NMtDS0=    0 NMtDT0=    0
         I1Cent=           4 NGrid=           0.
 Petite list used in FoFCou.
 Harris En= -2874.93231314474    
 Initial guess orbital symmetries:
       Occupied  (A) (A) (A) (A) (A) (A) (A) (A) (A) (A) (A) (A)
                 (A) (A) (A) (A) (A) (A) (A) (A) (A) (A) (A) (A)
                 (A) (A) (A)
       Virtual   (A) (A) (A) (A) (A) (A) (A) (A) (A) (A) (A) (A)
                 (A) (A) (A) (A) (A) (A) (A) (A) (A) (A) (A) (A)
                 (A) (A) (A) (A) (A) (A) (A) (A) (A) (A) (A) (A)
                 (A) (A) (A) (A) (A) (A) (A) (A) (A) (A) (A) (A)
                 (A) (A) (A) (A) (A) (A) (A) (A) (A) (A) (A) (A)
                 (A) (A) (A) (A) (A) (A) (A) (A) (A) (A) (A) (A)
                 (A) (A) (A) (A) (A) (A) (A) (A) (A) (A) (A) (A)
                 (A) (A) (A) (A) (A) (A) (A) (A) (A) (A) (A) (A)
                 (A) (A) (A) (A) (A) (A) (A) (A) (A) (A) (A) (A)
                 (A) (A) (A) (A) (A) (A) (A) (A) (A) (A) (A) (A)
                 (A) (A) (A) (A) (A) (A) (A) (A) (A) (A) (A) (A)
                 (A) (A) (A) (A) (A) (A) (A) (A) (A) (A) (A) (A)
                 (A) (A) (A) (A) (A) (A) (A) (A) (A) (A) (A) (A)
                 (A) (A) (A) (A) (A) (A) (A) (A) (A) (A) (A) (A)
                 (A) (A)
 The electronic state of the initial guess is 1-A.
 Leave Link  401 at Mon May 11 14:34:49 2020, MaxMem= 1073741824 cpu:       4.0
 (Enter /home/matheus/.gaussian/g09/l502.exe)
 Closed shell SCF:
 Requested convergence on RMS density matrix=1.00D-08 within 128 cycles.
 Requested convergence on MAX density matrix=1.00D-06.
 Requested convergence on             energy=1.00D-06.
 No special actions if energy rises.
 Using DIIS extrapolation, IDIIS=  1040.
 Integral symmetry usage will be decided dynamically.
       126521 words used for storage of precomputed grid.
 IEnd=      305468 IEndB=      305468 NGot=  1073741824 MDV=  1073505667
 LenX=  1073505667 LenY=  1073452785
 Fock matrices will be formed incrementally for  20 cycles.

 Cycle   1  Pass 1  IDiag  1:
 FoFJK:  IHMeth= 1 ICntrl=     0 DoSepK=T KAlg= 1 I1Cent= 0 FoldK=F
 FoFCou: FMM=F IPFlag=           0 FMFlag=      100000 FMFlg1=           0
         NFxFlg=           0 DoJE=T BraDBF=F KetDBF=F FulRan=T
         Omega=  0.000000  0.000000  1.000000  0.000000  0.000000 ICntrl=     500 IOpCl=  0
         NMat0=    1 NMatS0=    1 NMatT0=    0 NMatD0=    1 NMtDS0=    0 NMtDT0=    0
         I1Cent=           0 NGrid=           0.
 Symmetry not used in FoFCou.
 E= -2898.50092722057    
 DIIS: error= 1.39D-01 at cycle   1 NSaved=   1.
 NSaved= 1 IEnMin= 1 EnMin= -2898.50092722057     IErMin= 1 ErrMin= 1.39D-01
 ErrMax= 1.39D-01 EMaxC= 1.00D-01 BMatC= 3.87D+00 BMatP= 3.87D+00
 IDIUse=3 WtCom= 0.00D+00 WtEn= 1.00D+00
 Coeff-Com:  0.100D+01
 Coeff-En:   0.100D+01
 Coeff:      0.100D+01
 Gap=    -1.075 Goal=   None    Shift=    0.000
 GapD=   -1.075 DampG=0.250 DampE=0.250 DampFc=0.2500 IDamp=-1.
 Damping current iteration by 2.50D-01
 RMSDP=1.08D-01 MaxDP=9.17D+00              OVMax= 9.97D-01

 Cycle   2  Pass 1  IDiag  1:
 RMSU=  4.47D-03    CP:  7.62D-01
 FoFJK:  IHMeth= 1 ICntrl=     0 DoSepK=T KAlg= 1 I1Cent= 0 FoldK=F
 E= -2900.81265644239     Delta-E=       -2.311729221816 Rises=F Damp=T
 DIIS: error= 6.07D-02 at cycle   2 NSaved=   2.
 NSaved= 2 IEnMin= 2 EnMin= -2900.81265644239     IErMin= 2 ErrMin= 6.07D-02
 ErrMax= 6.07D-02 EMaxC= 1.00D-01 BMatC= 1.05D+00 BMatP= 3.87D+00
 IDIUse=3 WtCom= 3.93D-01 WtEn= 6.07D-01
 Coeff-Com: -0.758D+00 0.176D+01
 Coeff-En:   0.000D+00 0.100D+01
 Coeff:     -0.298D+00 0.130D+01
 Gap=     0.116 Goal=   None    Shift=    0.000
 RMSDP=8.12D-02 MaxDP=6.88D+00 DE=-2.31D+00 OVMax= 8.97D-01

 Cycle   3  Pass 1  IDiag  1:
 RMSU=  5.95D-03    CP:  4.86D-02  3.00D+00
 FoFJK:  IHMeth= 1 ICntrl=     0 DoSepK=T KAlg= 1 I1Cent= 0 FoldK=F
 E= -2904.20744059859     Delta-E=       -3.394784156199 Rises=F Damp=F
 DIIS: error= 3.27D-02 at cycle   3 NSaved=   3.
 NSaved= 3 IEnMin= 3 EnMin= -2904.20744059859     IErMin= 3 ErrMin= 3.27D-02
 ErrMax= 3.27D-02 EMaxC= 1.00D-01 BMatC= 6.28D-01 BMatP= 1.05D+00
 IDIUse=3 WtCom= 6.73D-01 WtEn= 3.27D-01
 Coeff-Com: -0.676D-02 0.434D+00 0.573D+00
 Coeff-En:   0.000D+00 0.000D+00 0.100D+01
 Coeff:     -0.455D-02 0.292D+00 0.713D+00
 Gap=     0.626 Goal=   None    Shift=    0.000
 RMSDP=2.53D-03 MaxDP=8.82D-02 DE=-3.39D+00 OVMax= 1.16D-01

 Cycle   4  Pass 1  IDiag  1:
 RMSU=  1.79D-03    CP:  4.82D-02  3.00D+00  9.84D-01
 FoFJK:  IHMeth= 1 ICntrl=     0 DoSepK=T KAlg= 1 I1Cent= 0 FoldK=F
 E= -2904.61089226186     Delta-E=       -0.403451663271 Rises=F Damp=F
 DIIS: error= 4.32D-03 at cycle   4 NSaved=   4.
 NSaved= 4 IEnMin= 4 EnMin= -2904.61089226186     IErMin= 4 ErrMin= 4.32D-03
 ErrMax= 4.32D-03 EMaxC= 1.00D-01 BMatC= 1.08D-02 BMatP= 6.28D-01
 IDIUse=3 WtCom= 9.57D-01 WtEn= 4.32D-02
 Coeff-Com: -0.869D-02 0.472D-01 0.545D-01 0.907D+00
 Coeff-En:   0.000D+00 0.000D+00 0.000D+00 0.100D+01
 Coeff:     -0.832D-02 0.451D-01 0.522D-01 0.911D+00
 Gap=     0.522 Goal=   None    Shift=    0.000
 RMSDP=6.27D-04 MaxDP=2.02D-02 DE=-4.03D-01 OVMax= 2.06D-02

 Cycle   5  Pass 1  IDiag  1:
 RMSU=  4.28D-04    CP:  4.83D-02  3.00D+00  9.83D-01  1.07D+00
 FoFJK:  IHMeth= 1 ICntrl=     0 DoSepK=T KAlg= 1 I1Cent= 0 FoldK=F
 E= -2904.61951511208     Delta-E=       -0.008622850225 Rises=F Damp=F
 DIIS: error= 1.39D-03 at cycle   5 NSaved=   5.
 NSaved= 5 IEnMin= 5 EnMin= -2904.61951511208     IErMin= 5 ErrMin= 1.39D-03
 ErrMax= 1.39D-03 EMaxC= 1.00D-01 BMatC= 7.64D-04 BMatP= 1.08D-02
 IDIUse=3 WtCom= 9.86D-01 WtEn= 1.39D-02
 Coeff-Com: -0.175D-01 0.383D-01-0.842D-02-0.369D-01 0.102D+01
 Coeff-En:   0.000D+00 0.000D+00 0.000D+00 0.000D+00 0.100D+01
 Coeff:     -0.172D-01 0.377D-01-0.830D-02-0.364D-01 0.102D+01
 Gap=     0.536 Goal=   None    Shift=    0.000
 RMSDP=1.70D-04 MaxDP=5.85D-03 DE=-8.62D-03 OVMax= 7.99D-03

 Cycle   6  Pass 1  IDiag  1:
 RMSU=  9.25D-05    CP:  4.83D-02  3.00D+00  9.81D-01  1.08D+00  1.16D+00
 FoFJK:  IHMeth= 1 ICntrl=     0 DoSepK=T KAlg= 1 I1Cent= 0 FoldK=F
 E= -2904.62028826994     Delta-E=       -0.000773157856 Rises=F Damp=F
 DIIS: error= 6.47D-04 at cycle   6 NSaved=   6.
 NSaved= 6 IEnMin= 6 EnMin= -2904.62028826994     IErMin= 6 ErrMin= 6.47D-04
 ErrMax= 6.47D-04 EMaxC= 1.00D-01 BMatC= 1.99D-04 BMatP= 7.64D-04
 IDIUse=3 WtCom= 9.94D-01 WtEn= 6.47D-03
 Coeff-Com: -0.513D-02 0.113D-01-0.969D-02-0.616D-01 0.250D+00 0.815D+00
 Coeff-En:   0.000D+00 0.000D+00 0.000D+00 0.000D+00 0.000D+00 0.100D+01
 Coeff:     -0.510D-02 0.112D-01-0.963D-02-0.612D-01 0.248D+00 0.817D+00
 Gap=     0.538 Goal=   None    Shift=    0.000
 RMSDP=6.60D-05 MaxDP=1.72D-03 DE=-7.73D-04 OVMax= 4.57D-03

 Cycle   7  Pass 1  IDiag  1:
 RMSU=  3.03D-05    CP:  4.83D-02  3.00D+00  9.81D-01  1.09D+00  1.23D+00
                    CP:  1.09D+00
 FoFJK:  IHMeth= 1 ICntrl=     0 DoSepK=T KAlg= 1 I1Cent= 0 FoldK=F
 E= -2904.62049720522     Delta-E=       -0.000208935279 Rises=F Damp=F
 DIIS: error= 3.36D-04 at cycle   7 NSaved=   7.
 NSaved= 7 IEnMin= 7 EnMin= -2904.62049720522     IErMin= 7 ErrMin= 3.36D-04
 ErrMax= 3.36D-04 EMaxC= 1.00D-01 BMatC= 3.90D-05 BMatP= 1.99D-04
 IDIUse=3 WtCom= 9.97D-01 WtEn= 3.36D-03
 Coeff-Com:  0.179D-02-0.363D-02-0.431D-02-0.153D-01-0.929D-01 0.254D+00
 Coeff-Com:  0.860D+00
 Coeff-En:   0.000D+00 0.000D+00 0.000D+00 0.000D+00 0.000D+00 0.000D+00
 Coeff-En:   0.100D+01
 Coeff:      0.178D-02-0.361D-02-0.430D-02-0.153D-01-0.926D-01 0.253D+00
 Coeff:      0.861D+00
 Gap=     0.538 Goal=   None    Shift=    0.000
 RMSDP=3.74D-05 MaxDP=8.64D-04 DE=-2.09D-04 OVMax= 3.28D-03

 Cycle   8  Pass 1  IDiag  1:
 RMSU=  1.50D-05    CP:  4.83D-02  3.00D+00  9.81D-01  1.10D+00  1.26D+00
                    CP:  1.20D+00  1.18D+00
 FoFJK:  IHMeth= 1 ICntrl=     0 DoSepK=T KAlg= 1 I1Cent= 0 FoldK=F
 E= -2904.62055295723     Delta-E=       -0.000055752016 Rises=F Damp=F
 DIIS: error= 1.03D-04 at cycle   8 NSaved=   8.
 NSaved= 8 IEnMin= 8 EnMin= -2904.62055295723     IErMin= 8 ErrMin= 1.03D-04
 ErrMax= 1.03D-04 EMaxC= 1.00D-01 BMatC= 3.41D-06 BMatP= 3.90D-05
 IDIUse=3 WtCom= 9.99D-01 WtEn= 1.03D-03
 Coeff-Com:  0.138D-02-0.260D-02 0.232D-02 0.945D-02-0.154D-01-0.117D+00
 Coeff-Com: -0.738D-01 0.120D+01
 Coeff-En:   0.000D+00 0.000D+00 0.000D+00 0.000D+00 0.000D+00 0.000D+00
 Coeff-En:   0.000D+00 0.100D+01
 Coeff:      0.138D-02-0.260D-02 0.231D-02 0.944D-02-0.153D-01-0.117D+00
 Coeff:     -0.737D-01 0.120D+01
 Gap=     0.538 Goal=   None    Shift=    0.000
 RMSDP=1.64D-05 MaxDP=3.79D-04 DE=-5.58D-05 OVMax= 2.26D-03

 Cycle   9  Pass 1  IDiag  1:
 RMSU=  5.74D-06    CP:  4.83D-02  3.00D+00  9.81D-01  1.10D+00  1.26D+00
                    CP:  1.23D+00  1.40D+00  1.45D+00
 FoFJK:  IHMeth= 1 ICntrl=     0 DoSepK=T KAlg= 1 I1Cent= 0 FoldK=F
 E= -2904.62056417275     Delta-E=       -0.000011215514 Rises=F Damp=F
 DIIS: error= 5.06D-05 at cycle   9 NSaved=   9.
 NSaved= 9 IEnMin= 9 EnMin= -2904.62056417275     IErMin= 9 ErrMin= 5.06D-05
 ErrMax= 5.06D-05 EMaxC= 1.00D-01 BMatC= 6.99D-07 BMatP= 3.41D-06
 IDIUse=1 WtCom= 1.00D+00 WtEn= 0.00D+00
 Coeff-Com: -0.255D-03 0.551D-03 0.470D-03 0.101D-02 0.670D-02 0.714D-02
 Coeff-Com: -0.638D-01-0.416D+00 0.146D+01
 Coeff:     -0.255D-03 0.551D-03 0.470D-03 0.101D-02 0.670D-02 0.714D-02
 Coeff:     -0.638D-01-0.416D+00 0.146D+01
 Gap=     0.538 Goal=   None    Shift=    0.000
 RMSDP=1.01D-05 MaxDP=2.12D-04 DE=-1.12D-05 OVMax= 1.52D-03

 Cycle  10  Pass 1  IDiag  1:
 RMSU=  2.22D-06    CP:  4.83D-02  3.00D+00  9.81D-01  1.10D+00  1.26D+00
                    CP:  1.24D+00  1.48D+00  1.73D+00  1.75D+00
 FoFJK:  IHMeth= 1 ICntrl=     0 DoSepK=T KAlg= 1 I1Cent= 0 FoldK=F
 E= -2904.62056719280     Delta-E=       -0.000003020054 Rises=F Damp=F
 DIIS: error= 1.65D-05 at cycle  10 NSaved=  10.
 NSaved=10 IEnMin=10 EnMin= -2904.62056719280     IErMin=10 ErrMin= 1.65D-05
 ErrMax= 1.65D-05 EMaxC= 1.00D-01 BMatC= 9.18D-08 BMatP= 6.99D-07
 IDIUse=1 WtCom= 1.00D+00 WtEn= 0.00D+00
 Coeff-Com: -0.214D-03 0.395D-03-0.464D-03-0.150D-02-0.441D-03 0.156D-01
 Coeff-Com:  0.151D-01-0.156D+00-0.759D-01 0.120D+01
 Coeff:     -0.214D-03 0.395D-03-0.464D-03-0.150D-02-0.441D-03 0.156D-01
 Coeff:      0.151D-01-0.156D+00-0.759D-01 0.120D+01
 Gap=     0.538 Goal=   None    Shift=    0.000
 RMSDP=3.88D-06 MaxDP=8.60D-05 DE=-3.02D-06 OVMax= 6.17D-04

 Cycle  11  Pass 1  IDiag  1:
 RMSU=  8.26D-07    CP:  4.83D-02  3.00D+00  9.81D-01  1.10D+00  1.26D+00
                    CP:  1.25D+00  1.51D+00  1.82D+00  2.03D+00  1.44D+00
 FoFJK:  IHMeth= 1 ICntrl=     0 DoSepK=T KAlg= 1 I1Cent= 0 FoldK=F
 E= -2904.62056758965     Delta-E=       -0.000000396845 Rises=F Damp=F
 DIIS: error= 5.33D-06 at cycle  11 NSaved=  11.
 NSaved=11 IEnMin=11 EnMin= -2904.62056758965     IErMin=11 ErrMin= 5.33D-06
 ErrMax= 5.33D-06 EMaxC= 1.00D-01 BMatC= 9.36D-09 BMatP= 9.18D-08
 IDIUse=1 WtCom= 1.00D+00 WtEn= 0.00D+00
 Coeff-Com: -0.966D-05 0.817D-05 0.920D-05 0.601D-04 0.108D-02-0.446D-02
 Coeff-Com: -0.365D-02 0.663D-01-0.103D+00-0.292D+00 0.134D+01
 Coeff:     -0.966D-05 0.817D-05 0.920D-05 0.601D-04 0.108D-02-0.446D-02
 Coeff:     -0.365D-02 0.663D-01-0.103D+00-0.292D+00 0.134D+01
 Gap=     0.538 Goal=   None    Shift=    0.000
 RMSDP=1.26D-06 MaxDP=2.48D-05 DE=-3.97D-07 OVMax= 1.87D-04

 Cycle  12  Pass 1  IDiag  1:
 RMSU=  2.79D-07    CP:  4.83D-02  3.00D+00  9.81D-01  1.10D+00  1.26D+00
                    CP:  1.25D+00  1.52D+00  1.85D+00  2.08D+00  1.60D+00
                    CP:  1.47D+00
 FoFJK:  IHMeth= 1 ICntrl=     0 DoSepK=T KAlg= 1 I1Cent= 0 FoldK=F
 E= -2904.62056762743     Delta-E=       -0.000000037780 Rises=F Damp=F
 DIIS: error= 1.31D-06 at cycle  12 NSaved=  12.
 NSaved=12 IEnMin=12 EnMin= -2904.62056762743     IErMin=12 ErrMin= 1.31D-06
 ErrMax= 1.31D-06 EMaxC= 1.00D-01 BMatC= 5.29D-10 BMatP= 9.36D-09
 IDIUse=1 WtCom= 1.00D+00 WtEn= 0.00D+00
 Coeff-Com:  0.609D-05-0.128D-04 0.189D-04 0.925D-04-0.418D-03 0.591D-03
 Coeff-Com:  0.115D-02-0.942D-02 0.315D-01 0.146D-02-0.367D+00 0.134D+01
 Coeff:      0.609D-05-0.128D-04 0.189D-04 0.925D-04-0.418D-03 0.591D-03
 Coeff:      0.115D-02-0.942D-02 0.315D-01 0.146D-02-0.367D+00 0.134D+01
 Gap=     0.538 Goal=   None    Shift=    0.000
 RMSDP=2.72D-07 MaxDP=6.91D-06 DE=-3.78D-08 OVMax= 2.95D-05

 Cycle  13  Pass 1  IDiag  1:
 RMSU=  5.35D-08    CP:  4.83D-02  3.00D+00  9.81D-01  1.10D+00  1.26D+00
                    CP:  1.25D+00  1.53D+00  1.85D+00  2.09D+00  1.62D+00
                    CP:  1.59D+00  1.41D+00
 FoFJK:  IHMeth= 1 ICntrl=     0 DoSepK=T KAlg= 1 I1Cent= 0 FoldK=F
 E= -2904.62056762930     Delta-E=       -0.000000001876 Rises=F Damp=F
 DIIS: error= 3.30D-07 at cycle  13 NSaved=  13.
 NSaved=13 IEnMin=13 EnMin= -2904.62056762930     IErMin=13 ErrMin= 3.30D-07
 ErrMax= 3.30D-07 EMaxC= 1.00D-01 BMatC= 2.58D-11 BMatP= 5.29D-10
 IDIUse=1 WtCom= 1.00D+00 WtEn= 0.00D+00
 Coeff-Com:  0.881D-06-0.111D-05-0.146D-05-0.783D-05 0.167D-05 0.859D-04
 Coeff-Com:  0.503D-04-0.131D-02-0.194D-02 0.137D-01-0.682D-03-0.208D+00
 Coeff-Com:  0.120D+01
 Coeff:      0.881D-06-0.111D-05-0.146D-05-0.783D-05 0.167D-05 0.859D-04
 Coeff:      0.503D-04-0.131D-02-0.194D-02 0.137D-01-0.682D-03-0.208D+00
 Coeff:      0.120D+01
 Gap=     0.538 Goal=   None    Shift=    0.000
 RMSDP=5.15D-08 MaxDP=1.45D-06 DE=-1.88D-09 OVMax= 4.35D-06

 Cycle  14  Pass 1  IDiag  1:
 RMSU=  1.09D-08    CP:  4.83D-02  3.00D+00  9.81D-01  1.10D+00  1.26D+00
                    CP:  1.25D+00  1.53D+00  1.85D+00  2.09D+00  1.62D+00
                    CP:  1.60D+00  1.46D+00  1.37D+00
 FoFJK:  IHMeth= 1 ICntrl=     0 DoSepK=T KAlg= 1 I1Cent= 0 FoldK=F
 E= -2904.62056762934     Delta-E=       -0.000000000036 Rises=F Damp=F
 DIIS: error= 7.13D-08 at cycle  14 NSaved=  14.
 NSaved=14 IEnMin=14 EnMin= -2904.62056762934     IErMin=14 ErrMin= 7.13D-08
 ErrMax= 7.13D-08 EMaxC= 1.00D-01 BMatC= 1.64D-12 BMatP= 2.58D-11
 IDIUse=1 WtCom= 1.00D+00 WtEn= 0.00D+00
 Coeff-Com:  0.363D-06-0.554D-06-0.731D-06-0.504D-05 0.338D-04-0.688D-04
 Coeff-Com: -0.113D-03 0.924D-03-0.191D-02-0.177D-02 0.263D-01-0.746D-01
 Coeff-Com: -0.119D+00 0.117D+01
 Coeff:      0.363D-06-0.554D-06-0.731D-06-0.504D-05 0.338D-04-0.688D-04
 Coeff:     -0.113D-03 0.924D-03-0.191D-02-0.177D-02 0.263D-01-0.746D-01
 Coeff:     -0.119D+00 0.117D+01
 Gap=     0.538 Goal=   None    Shift=    0.000
 RMSDP=1.16D-08 MaxDP=3.81D-07 DE=-3.64D-11 OVMax= 1.26D-06

 Cycle  15  Pass 1  IDiag  1:
 RMSU=  3.77D-09    CP:  4.83D-02  3.00D+00  9.81D-01  1.10D+00  1.26D+00
                    CP:  1.25D+00  1.53D+00  1.85D+00  2.09D+00  1.62D+00
                    CP:  1.60D+00  1.46D+00  1.46D+00  1.38D+00
 FoFJK:  IHMeth= 1 ICntrl=     0 DoSepK=T KAlg= 1 I1Cent= 0 FoldK=F
 E= -2904.62056762935     Delta-E=       -0.000000000010 Rises=F Damp=F
 DIIS: error= 1.89D-08 at cycle  15 NSaved=  15.
 NSaved=15 IEnMin=15 EnMin= -2904.62056762935     IErMin=15 ErrMin= 1.89D-08
 ErrMax= 1.89D-08 EMaxC= 1.00D-01 BMatC= 1.17D-13 BMatP= 1.64D-12
 IDIUse=1 WtCom= 1.00D+00 WtEn= 0.00D+00
 Coeff-Com:  0.452D-07-0.863D-07 0.186D-06 0.150D-05-0.950D-05 0.126D-04
 Coeff-Com:  0.422D-04-0.149D-03 0.380D-03-0.268D-04-0.562D-02 0.250D-01
 Coeff-Com: -0.298D-01-0.252D+00 0.126D+01
 Coeff:      0.452D-07-0.863D-07 0.186D-06 0.150D-05-0.950D-05 0.126D-04
 Coeff:      0.422D-04-0.149D-03 0.380D-03-0.268D-04-0.562D-02 0.250D-01
 Coeff:     -0.298D-01-0.252D+00 0.126D+01
 Gap=     0.538 Goal=   None    Shift=    0.000
 RMSDP=3.56D-09 MaxDP=9.30D-08 DE=-1.00D-11 OVMax= 3.40D-07

 SCF Done:  E(RLC-B+HF-LYP) =  -2904.62056763     A.U. after   15 cycles
             Convg  =    0.3564D-08             -V/T =  2.0016
 KE= 2.899953288847D+03 PE=-7.235193644950D+03 EE= 1.281700950678D+03
 Leave Link  502 at Mon May 11 14:35:33 2020, MaxMem= 1073741824 cpu:     355.2
 (Enter /home/matheus/.gaussian/g09/l601.exe)
 Copying SCF densities to generalized density rwf, IOpCl= 0 IROHF=0.

 **********************************************************************

            Population analysis using the SCF density.

 **********************************************************************

 Orbital symmetries:
       Occupied  (A) (A) (A) (A) (A) (A) (A) (A) (A) (A) (A) (A)
                 (A) (A) (A) (A) (A) (A) (A) (A) (A) (A) (A) (A)
                 (A) (A) (A)
       Virtual   (A) (A) (A) (A) (A) (A) (A) (A) (A) (A) (A) (A)
                 (A) (A) (A) (A) (A) (A) (A) (A) (A) (A) (A) (A)
                 (A) (A) (A) (A) (A) (A) (A) (A) (A) (A) (A) (A)
                 (A) (A) (A) (A) (A) (A) (A) (A) (A) (A) (A) (A)
                 (A) (A) (A) (A) (A) (A) (A) (A) (A) (A) (A) (A)
                 (A) (A) (A) (A) (A) (A) (A) (A) (A) (A) (A) (A)
                 (A) (A) (A) (A) (A) (A) (A) (A) (A) (A) (A) (A)
                 (A) (A) (A) (A) (A) (A) (A) (A) (A) (A) (A) (A)
                 (A) (A) (A) (A) (A) (A) (A) (A) (A) (A) (A) (A)
                 (A) (A) (A) (A) (A) (A) (A) (A) (A) (A) (A) (A)
                 (A) (A) (A) (A) (A) (A) (A) (A) (A) (A) (A) (A)
                 (A) (A) (A) (A) (A) (A) (A) (A) (A) (A) (A) (A)
                 (A) (A) (A) (A) (A) (A) (A) (A) (A) (A) (A) (A)
                 (A) (A) (A) (A) (A) (A) (A) (A) (A) (A) (A) (A)
                 (A) (A)
 The electronic state is 1-A.
 Alpha  occ. eigenvalues -- -511.66732 -67.19229 -60.86436 -60.86420 -60.86409
 Alpha  occ. eigenvalues --  -19.48355 -19.48056 -10.09359  -7.80958  -7.80918
 Alpha  occ. eigenvalues --   -7.80889  -3.63919  -3.63911  -3.63888  -3.63855
 Alpha  occ. eigenvalues --   -3.63852  -1.46165  -1.21485  -1.18773  -0.76038
 Alpha  occ. eigenvalues --   -0.72357  -0.63811  -0.57230  -0.56607  -0.56105
 Alpha  occ. eigenvalues --   -0.53126  -0.51076
 Alpha virt. eigenvalues --    0.02714   0.03825   0.07825   0.09076   0.10666
 Alpha virt. eigenvalues --    0.11249   0.13337   0.13870   0.16300   0.17226
 Alpha virt. eigenvalues --    0.17765   0.19733   0.21472   0.23227   0.24177
 Alpha virt. eigenvalues --    0.24815   0.26001   0.28952   0.31763   0.33520
 Alpha virt. eigenvalues --    0.33945   0.35316   0.36025   0.39548   0.39935
 Alpha virt. eigenvalues --    0.41695   0.44158   0.48910   0.54110   0.57021
 Alpha virt. eigenvalues --    0.57701   0.61376   0.63768   0.67537   0.70758
 Alpha virt. eigenvalues --    0.72674   0.74674   0.75612   0.78052   0.78865
 Alpha virt. eigenvalues --    0.79634   0.80294   0.82216   0.84097   0.86104
 Alpha virt. eigenvalues --    0.87831   0.88224   0.90179   0.91459   0.93633
 Alpha virt. eigenvalues --    0.96407   0.96606   0.97376   0.99306   1.02347
 Alpha virt. eigenvalues --    1.04166   1.06508   1.10313   1.10908   1.13379
 Alpha virt. eigenvalues --    1.14101   1.19559   1.21393   1.22181   1.27085
 Alpha virt. eigenvalues --    1.28983   1.33882   1.39731   1.43620   1.47512
 Alpha virt. eigenvalues --    1.50996   1.55398   1.56317   1.58551   1.65103
 Alpha virt. eigenvalues --    1.74070   1.81133   1.91426   1.99235   2.04118
 Alpha virt. eigenvalues --    2.09084   2.12727   2.19627   2.24514   2.25618
 Alpha virt. eigenvalues --    2.28027   2.29321   2.30581   2.34008   2.37547
 Alpha virt. eigenvalues --    2.39604   2.41375   2.45598   2.45794   2.47572
 Alpha virt. eigenvalues --    2.49373   2.52780   2.55709   2.56819   2.60939
 Alpha virt. eigenvalues --    2.64115   2.64432   2.66771   2.68659   2.71440
 Alpha virt. eigenvalues --    2.72160   2.74747   2.75838   2.81157   2.84542
 Alpha virt. eigenvalues --    2.86690   2.89946   2.91647   2.99023   3.01437
 Alpha virt. eigenvalues --    3.04567   3.18954   3.24909   3.28302   3.76026
 Alpha virt. eigenvalues --    3.82174   4.03609   4.09393   4.18550   4.24166
 Alpha virt. eigenvalues --    4.28384   4.32197   4.37393   4.41169   4.42761
 Alpha virt. eigenvalues --    4.52679   4.66355   4.68429   4.72735   4.85291
 Alpha virt. eigenvalues --    5.06585   5.13624   5.19808   5.32247   5.33053
 Alpha virt. eigenvalues --    5.40669   5.66377   6.05990   6.28504   6.35477
 Alpha virt. eigenvalues --    6.38779   6.54600   6.57588   6.69347   6.79916
 Alpha virt. eigenvalues --    6.81433   7.04799   7.05639   7.07360   7.09375
 Alpha virt. eigenvalues --    7.13113   7.13916   7.14974   7.23169   7.26915
 Alpha virt. eigenvalues --    7.33140   7.41874   7.49846   7.69835   7.94366
 Alpha virt. eigenvalues --    8.06900   8.34584   8.38126  14.20244  14.88369
          Condensed to atoms (all electrons):
              1          2          3          4          5
     1  O    8.224020  -0.168714   0.200360  -0.007466  -0.031207
     2  O   -0.168714   8.231970   0.006031   0.199733  -0.009694
     3  H    0.200360   0.006031   0.563957   0.002590   0.001730
     4  H   -0.007466   0.199733   0.002590   0.570224  -0.012051
     5  Kr  -0.031207  -0.009694   0.001730  -0.012051  36.047203
 Mulliken atomic charges:
              1
     1  O   -0.216993
     2  O   -0.259326
     3  H    0.225332
     4  H    0.246970
     5  Kr   0.004018
 Sum of Mulliken atomic charges =   0.00000
 Mulliken charges with hydrogens summed into heavy atoms:
              1
     1  O    0.008338
     2  O   -0.012356
     5  Kr   0.004018
 Sum of Mulliken charges with hydrogens summed into heavy atoms =   0.00000
          Condensed to fragments (all electrons):
     1      -0.004018
     2       0.004018
 Electronic spatial extent (au):  <R**2>=            486.4238
 Charge=              0.0000 electrons
 Dipole moment (field-independent basis, Debye):
    X=             -1.2679    Y=             -0.4054    Z=              1.5564  Tot=              2.0480
 Quadrupole moment (field-independent basis, Debye-Ang):
   XX=            -32.1644   YY=            -27.6670   ZZ=            -28.8254
   XY=             -3.1455   XZ=              3.9191   YZ=             -1.8213
 Traceless Quadrupole moment (field-independent basis, Debye-Ang):
   XX=             -2.6122   YY=              1.8853   ZZ=              0.7269
   XY=             -3.1455   XZ=              3.9191   YZ=             -1.8213
 Octapole moment (field-independent basis, Debye-Ang**2):
  XXX=            -24.6266  YYY=             -1.0761  ZZZ=              1.2781  XYY=             -4.2366
  XXY=            -11.0467  XXZ=              9.3312  XZZ=             -4.8251  YZZ=             -1.7218
  YYZ=              2.2768  XYZ=             -4.5041
 Hexadecapole moment (field-independent basis, Debye-Ang**3):
 XXXX=           -421.9704 YYYY=            -61.5739 ZZZZ=            -28.4750 XXXY=            -28.2139
 XXXZ=             23.6486 YYYX=             -5.4497 YYYZ=             -2.6014 ZZZX=              3.5036
 ZZZY=             -1.8545 XXYY=            -76.8512 XXZZ=            -69.8094 YYZZ=            -15.4743
 XXYZ=            -11.1399 YYXZ=              5.3706 ZZXY=             -3.7601
 N-N= 1.489188377957D+02 E-N=-7.235193645891D+03  KE= 2.899953288847D+03
 No NMR shielding tensors so no spin-rotation constants.
 Leave Link  601 at Mon May 11 14:35:33 2020, MaxMem= 1073741824 cpu:       0.9
 (Enter /home/matheus/.gaussian/g09/l122.exe)
 Counterpoise: doing DCBS calculation for fragment   1 NewBq=T
 Leave Link  122 at Mon May 11 14:35:33 2020, MaxMem= 1073741824 cpu:       0.0
 (Enter /home/matheus/.gaussian/g09/l301.exe)
 Basis read from rwf:  (5D, 7F)
 No pseudopotential information found on rwf file.
 There are   197 symmetry adapted basis functions of A   symmetry.
 Integral buffers will be    131072 words long.
 Raffenetti 2 integral format.
 Two-electron integral symmetry is turned on.
   197 basis functions,   415 primitive gaussians,   229 cartesian basis functions
     9 alpha electrons        9 beta electrons
       nuclear repulsion energy        36.6165119696 Hartrees.
 IExCor=10402 DFT=T Ex=LC-B+HF Corr=LYP ExCW=0 ScaHFX=  1.000000
 ScaDFX=  1.000000  1.000000  1.000000  1.000000 ScalE2=  1.000000  1.000000
 IRadAn=      5 IRanWt=     -1 IRanGd=            0 ICorTp=0
  HFx wShort=  0.000000 wLong=  1.350000 cFull=  0.000000 cShort=  0.000000 cLong=  1.000000
  DFx wShort=  0.000000 wLong=  1.350000 cFull=  0.000000 cShort=  0.000000 cLong=  1.000000
 NAtoms=    5 NActive=    5 NUniq=    5 SFac= 1.00D+00 NAtFMM=   60 NAOKFM=F Big=F
 No density basis found on file   718.
 Leave Link  301 at Mon May 11 14:35:33 2020, MaxMem= 1073741824 cpu:       0.2
 (Enter /home/matheus/.gaussian/g09/l302.exe)
 NPDir=0 NMtPBC=     1 NCelOv=     1 NCel=       1 NClECP=     1 NCelD=      1
         NCelK=      1 NCelE2=     1 NClLst=     1 CellRange=     0.0.
 One-electron integrals computed using PRISM.
 NBasis=   197 RedAO= T  NBF=   197
 NBsUse=   197 1.00D-06 NBFU=   197
 Precomputing XC quadrature grid using
 IXCGrd= 2 IRadAn=           5 IRanWt=          -1 IRanGd=           0 AccXCQ= 0.00D+00.
 NRdTot=     427 NPtTot=      123512 NUsed=      126579 NTot=      126611
 NSgBfM=   229   229   229   229   229 NAtAll=     5     5.
 Leave Link  302 at Mon May 11 14:35:34 2020, MaxMem= 1073741824 cpu:       1.0
 (Enter /home/matheus/.gaussian/g09/l303.exe)
 DipDrv:  MaxL=1.
 Leave Link  303 at Mon May 11 14:35:34 2020, MaxMem= 1073741824 cpu:       0.2
 (Enter /home/matheus/.gaussian/g09/l401.exe)
 Harris functional with IExCor=10402 diagonalized for initial guess.
 ExpMin= 2.53D-02 ExpMax= 1.17D+07 ExpMxC= 1.33D+04 IAcc=3 IRadAn=         5 AccDes= 0.00D+00
 HarFok:  IExCor=10402 AccDes= 0.00D+00 IRadAn=         5 IDoV= 1
 ScaDFX=  1.000000  1.000000  1.000000  1.000000
 FoFCou: FMM=F IPFlag=           0 FMFlag=      100000 FMFlg1=           0
         NFxFlg=           0 DoJE=T BraDBF=F KetDBF=T FulRan=T
         Omega=  0.000000  0.000000  1.000000  0.000000  0.000000 ICntrl=     500 IOpCl=  0
         NMat0=    1 NMatS0=    1 NMatT0=    0 NMatD0=    1 NMtDS0=    0 NMtDT0=    0
         I1Cent=           4 NGrid=           0.
 Petite list used in FoFCou.
 Harris En= -143.245390419248    
 Initial guess orbital symmetries:
       Occupied  (A) (A) (A) (A) (A) (A) (A) (A) (A)
       Virtual   (A) (A) (A) (A) (A) (A) (A) (A) (A) (A) (A) (A)
                 (A) (A) (A) (A) (A) (A) (A) (A) (A) (A) (A) (A)
                 (A) (A) (A) (A) (A) (A) (A) (A) (A) (A) (A) (A)
                 (A) (A) (A) (A) (A) (A) (A) (A) (A) (A) (A) (A)
                 (A) (A) (A) (A) (A) (A) (A) (A) (A) (A) (A) (A)
                 (A) (A) (A) (A) (A) (A) (A) (A) (A) (A) (A) (A)
                 (A) (A) (A) (A) (A) (A) (A) (A) (A) (A) (A) (A)
                 (A) (A) (A) (A) (A) (A) (A) (A) (A) (A) (A) (A)
                 (A) (A) (A) (A) (A) (A) (A) (A) (A) (A) (A) (A)
                 (A) (A) (A) (A) (A) (A) (A) (A) (A) (A) (A) (A)
                 (A) (A) (A) (A) (A) (A) (A) (A) (A) (A) (A) (A)
                 (A) (A) (A) (A) (A) (A) (A) (A) (A) (A) (A) (A)
                 (A) (A) (A) (A) (A) (A) (A) (A) (A) (A) (A) (A)
                 (A) (A) (A) (A) (A) (A) (A) (A) (A) (A) (A) (A)
                 (A) (A) (A) (A) (A) (A) (A) (A) (A) (A) (A) (A)
                 (A) (A) (A) (A) (A) (A) (A) (A)
 The electronic state of the initial guess is 1-A.
 Leave Link  401 at Mon May 11 14:35:34 2020, MaxMem= 1073741824 cpu:       3.7
 (Enter /home/matheus/.gaussian/g09/l502.exe)
 Closed shell SCF:
 Requested convergence on RMS density matrix=1.00D-08 within 128 cycles.
 Requested convergence on MAX density matrix=1.00D-06.
 Requested convergence on             energy=1.00D-06.
 No special actions if energy rises.
 Using DIIS extrapolation, IDIIS=  1040.
 Integral symmetry usage will be decided dynamically.
       126521 words used for storage of precomputed grid.
 IEnd=      305468 IEndB=      305468 NGot=  1073741824 MDV=  1073505667
 LenX=  1073505667 LenY=  1073452785
 Fock matrices will be formed incrementally for  20 cycles.

 Cycle   1  Pass 1  IDiag  1:
 FoFJK:  IHMeth= 1 ICntrl=     0 DoSepK=T KAlg= 1 I1Cent= 0 FoldK=F
 FoFCou: FMM=F IPFlag=           0 FMFlag=      100000 FMFlg1=           0
         NFxFlg=           0 DoJE=T BraDBF=F KetDBF=F FulRan=T
         Omega=  0.000000  0.000000  1.000000  0.000000  0.000000 ICntrl=     500 IOpCl=  0
         NMat0=    1 NMatS0=    1 NMatT0=    0 NMatD0=    1 NMtDS0=    0 NMtDT0=    0
         I1Cent=           0 NGrid=           0.
 Symmetry not used in FoFCou.
 E= -145.680173935228    
 DIIS: error= 1.37D-01 at cycle   1 NSaved=   1.
 NSaved= 1 IEnMin= 1 EnMin= -145.680173935228     IErMin= 1 ErrMin= 1.37D-01
 ErrMax= 1.37D-01 EMaxC= 1.00D-01 BMatC= 2.70D+00 BMatP= 2.70D+00
 IDIUse=3 WtCom= 0.00D+00 WtEn= 1.00D+00
 Coeff-Com:  0.100D+01
 Coeff-En:   0.100D+01
 Coeff:      0.100D+01
 Gap=    -0.670 Goal=   None    Shift=    0.000
 GapD=   -0.670 DampG=0.250 DampE=0.250 DampFc=0.2500 IDamp=-1.
 Damping current iteration by 2.50D-01
 RMSDP=9.22D-02 MaxDP=7.40D+00              OVMax= 9.98D-01

 Cycle   2  Pass 1  IDiag  1:
 RMSU=  1.82D-03    CP:  7.52D-01
 FoFJK:  IHMeth= 1 ICntrl=     0 DoSepK=T KAlg= 1 I1Cent= 0 FoldK=F
 E= -147.788946254767     Delta-E=       -2.108772319539 Rises=F Damp=T
 DIIS: error= 7.20D-02 at cycle   2 NSaved=   2.
 NSaved= 2 IEnMin= 2 EnMin= -147.788946254767     IErMin= 2 ErrMin= 7.20D-02
 ErrMax= 7.20D-02 EMaxC= 1.00D-01 BMatC= 7.16D-01 BMatP= 2.70D+00
 IDIUse=3 WtCom= 2.80D-01 WtEn= 7.20D-01
 Coeff-Com: -0.967D+00 0.197D+01
 Coeff-En:   0.000D+00 0.100D+01
 Coeff:     -0.271D+00 0.127D+01
 Gap=     0.353 Goal=   None    Shift=    0.000
 RMSDP=6.91D-02 MaxDP=5.55D+00 DE=-2.11D+00 OVMax= 1.14D-01

 Cycle   3  Pass 1  IDiag  1:
 RMSU=  2.13D-03    CP:  8.67D-03  3.00D+00
 FoFJK:  IHMeth= 1 ICntrl=     0 DoSepK=T KAlg= 1 I1Cent= 0 FoldK=F
 E= -150.477306480906     Delta-E=       -2.688360226139 Rises=F Damp=F
 DIIS: error= 5.52D-02 at cycle   3 NSaved=   3.
 NSaved= 3 IEnMin= 3 EnMin= -150.477306480906     IErMin= 3 ErrMin= 5.52D-02
 ErrMax= 5.52D-02 EMaxC= 1.00D-01 BMatC= 1.06D+00 BMatP= 7.16D-01
 IDIUse=2 WtCom= 0.00D+00 WtEn= 1.00D+00
 Coeff-En:   0.216D-01 0.000D+00 0.978D+00
 Coeff:      0.216D-01 0.000D+00 0.978D+00
 Gap=     0.807 Goal=   None    Shift=    0.000
 RMSDP=4.12D-03 MaxDP=1.51D-01 DE=-2.69D+00 OVMax= 3.02D-01

 Cycle   4  Pass 1  IDiag  1:
 RMSU=  2.89D-03    CP:  9.85D-03  3.00D+00  1.18D+00
 FoFJK:  IHMeth= 1 ICntrl=     0 DoSepK=T KAlg= 1 I1Cent= 0 FoldK=F
 E= -150.948144032059     Delta-E=       -0.470837551153 Rises=F Damp=F
 DIIS: error= 3.74D-02 at cycle   4 NSaved=   4.
 NSaved= 4 IEnMin= 4 EnMin= -150.948144032059     IErMin= 4 ErrMin= 3.74D-02
 ErrMax= 3.74D-02 EMaxC= 1.00D-01 BMatC= 4.09D-01 BMatP= 7.16D-01
 IDIUse=3 WtCom= 6.26D-01 WtEn= 3.74D-01
 Coeff-Com: -0.438D+00 0.735D+00 0.183D+00 0.519D+00
 Coeff-En:   0.000D+00 0.000D+00 0.147D+00 0.853D+00
 Coeff:     -0.274D+00 0.460D+00 0.169D+00 0.644D+00
 Gap=     0.601 Goal=   None    Shift=    0.000
 RMSDP=1.91D-03 MaxDP=5.33D-02 DE=-4.71D-01 OVMax= 1.49D-01

 Cycle   5  Pass 1  IDiag  1:
 RMSU=  4.10D-04    CP:  8.93D-03  3.00D+00  1.21D+00  5.55D-01
 FoFJK:  IHMeth= 1 ICntrl=     0 DoSepK=T KAlg= 1 I1Cent= 0 FoldK=F
 E= -151.187750370100     Delta-E=       -0.239606338041 Rises=F Damp=F
 DIIS: error= 9.80D-03 at cycle   5 NSaved=   5.
 NSaved= 5 IEnMin= 5 EnMin= -151.187750370100     IErMin= 5 ErrMin= 9.80D-03
 ErrMax= 9.80D-03 EMaxC= 1.00D-01 BMatC= 3.61D-02 BMatP= 4.09D-01
 IDIUse=3 WtCom= 9.02D-01 WtEn= 9.80D-02
 Coeff-Com: -0.100D+00 0.182D+00-0.147D+00 0.916D-01 0.974D+00
 Coeff-En:   0.000D+00 0.000D+00 0.000D+00 0.000D+00 0.100D+01
 Coeff:     -0.903D-01 0.164D+00-0.133D+00 0.827D-01 0.976D+00
 Gap=     0.588 Goal=   None    Shift=    0.000
 RMSDP=4.62D-04 MaxDP=1.80D-02 DE=-2.40D-01 OVMax= 2.79D-02

 Cycle   6  Pass 1  IDiag  1:
 RMSU=  9.22D-05    CP:  9.12D-03  3.00D+00  1.23D+00  6.61D-01  1.10D+00
 FoFJK:  IHMeth= 1 ICntrl=     0 DoSepK=T KAlg= 1 I1Cent= 0 FoldK=F
 E= -151.212346085681     Delta-E=       -0.024595715581 Rises=F Damp=F
 DIIS: error= 1.86D-03 at cycle   6 NSaved=   6.
 NSaved= 6 IEnMin= 6 EnMin= -151.212346085681     IErMin= 6 ErrMin= 1.86D-03
 ErrMax= 1.86D-03 EMaxC= 1.00D-01 BMatC= 1.02D-03 BMatP= 3.61D-02
 IDIUse=3 WtCom= 9.81D-01 WtEn= 1.86D-02
 Coeff-Com: -0.383D-01 0.743D-01 0.964D-02-0.363D-01-0.427D+00 0.142D+01
 Coeff-En:   0.000D+00 0.000D+00 0.000D+00 0.000D+00 0.000D+00 0.100D+01
 Coeff:     -0.376D-01 0.730D-01 0.946D-02-0.357D-01-0.419D+00 0.141D+01
 Gap=     0.542 Goal=   None    Shift=    0.000
 RMSDP=1.02D-04 MaxDP=2.27D-03 DE=-2.46D-02 OVMax= 8.37D-03

 Cycle   7  Pass 1  IDiag  1:
 RMSU=  2.98D-05    CP:  9.16D-03  3.00D+00  1.23D+00  6.76D-01  1.15D+00
                    CP:  1.51D+00
 FoFJK:  IHMeth= 1 ICntrl=     0 DoSepK=T KAlg= 1 I1Cent= 0 FoldK=F
 E= -151.213142275279     Delta-E=       -0.000796189598 Rises=F Damp=F
 DIIS: error= 1.17D-03 at cycle   7 NSaved=   7.
 NSaved= 7 IEnMin= 7 EnMin= -151.213142275279     IErMin= 7 ErrMin= 1.17D-03
 ErrMax= 1.17D-03 EMaxC= 1.00D-01 BMatC= 3.59D-04 BMatP= 1.02D-03
 IDIUse=3 WtCom= 9.88D-01 WtEn= 1.17D-02
 Coeff-Com: -0.679D-02 0.130D-01 0.938D-02 0.830D-02-0.112D+00-0.390D+00
 Coeff-Com:  0.148D+01
 Coeff-En:   0.000D+00 0.000D+00 0.000D+00 0.000D+00 0.000D+00 0.000D+00
 Coeff-En:   0.100D+01
 Coeff:     -0.671D-02 0.128D-01 0.927D-02 0.820D-02-0.111D+00-0.385D+00
 Coeff:      0.147D+01
 Gap=     0.537 Goal=   None    Shift=    0.000
 RMSDP=8.23D-05 MaxDP=2.18D-03 DE=-7.96D-04 OVMax= 6.47D-03

 Cycle   8  Pass 1  IDiag  1:
 RMSU=  1.04D-05    CP:  9.21D-03  3.00D+00  1.23D+00  6.90D-01  1.15D+00
                    CP:  1.81D+00  1.84D+00
 FoFJK:  IHMeth= 1 ICntrl=     0 DoSepK=T KAlg= 1 I1Cent= 0 FoldK=F
 E= -151.213493611492     Delta-E=       -0.000351336213 Rises=F Damp=F
 DIIS: error= 2.03D-04 at cycle   8 NSaved=   8.
 NSaved= 8 IEnMin= 8 EnMin= -151.213493611492     IErMin= 8 ErrMin= 2.03D-04
 ErrMax= 2.03D-04 EMaxC= 1.00D-01 BMatC= 8.79D-06 BMatP= 3.59D-04
 IDIUse=3 WtCom= 9.98D-01 WtEn= 2.03D-03
 Coeff-Com: -0.451D-03 0.551D-03-0.274D-02 0.373D-02 0.458D-01-0.264D-01
 Coeff-Com: -0.361D+00 0.134D+01
 Coeff-En:   0.000D+00 0.000D+00 0.000D+00 0.000D+00 0.000D+00 0.000D+00
 Coeff-En:   0.000D+00 0.100D+01
 Coeff:     -0.450D-03 0.550D-03-0.273D-02 0.372D-02 0.457D-01-0.263D-01
 Coeff:     -0.360D+00 0.134D+01
 Gap=     0.537 Goal=   None    Shift=    0.000
 RMSDP=2.06D-05 MaxDP=5.96D-04 DE=-3.51D-04 OVMax= 2.12D-03

 Cycle   9  Pass 1  IDiag  1:
 RMSU=  3.18D-06    CP:  9.22D-03  3.00D+00  1.23D+00  6.93D-01  1.14D+00
                    CP:  1.85D+00  2.11D+00  1.52D+00
 FoFJK:  IHMeth= 1 ICntrl=     0 DoSepK=T KAlg= 1 I1Cent= 0 FoldK=F
 E= -151.213506496469     Delta-E=       -0.000012884976 Rises=F Damp=F
 DIIS: error= 2.30D-05 at cycle   9 NSaved=   9.
 NSaved= 9 IEnMin= 9 EnMin= -151.213506496469     IErMin= 9 ErrMin= 2.30D-05
 ErrMax= 2.30D-05 EMaxC= 1.00D-01 BMatC= 1.15D-07 BMatP= 8.79D-06
 IDIUse=1 WtCom= 1.00D+00 WtEn= 0.00D+00
 Coeff-Com:  0.330D-03-0.598D-03 0.104D-02-0.226D-02-0.172D-01 0.495D-01
 Coeff-Com:  0.407D-01-0.513D+00 0.144D+01
 Coeff:      0.330D-03-0.598D-03 0.104D-02-0.226D-02-0.172D-01 0.495D-01
 Coeff:      0.407D-01-0.513D+00 0.144D+01
 Gap=     0.537 Goal=   None    Shift=    0.000
 RMSDP=3.95D-06 MaxDP=7.78D-05 DE=-1.29D-05 OVMax= 5.98D-04

 Cycle  10  Pass 1  IDiag  1:
 RMSU=  9.46D-07    CP:  9.22D-03  3.00D+00  1.23D+00  6.94D-01  1.14D+00
                    CP:  1.86D+00  2.14D+00  1.62D+00  1.66D+00
 FoFJK:  IHMeth= 1 ICntrl=     0 DoSepK=T KAlg= 1 I1Cent= 0 FoldK=F
 E= -151.213506984951     Delta-E=       -0.000000488482 Rises=F Damp=F
 DIIS: error= 1.16D-05 at cycle  10 NSaved=  10.
 NSaved=10 IEnMin=10 EnMin= -151.213506984951     IErMin=10 ErrMin= 1.16D-05
 ErrMax= 1.16D-05 EMaxC= 1.00D-01 BMatC= 3.80D-08 BMatP= 1.15D-07
 IDIUse=1 WtCom= 1.00D+00 WtEn= 0.00D+00
 Coeff-Com:  0.273D-03-0.474D-03 0.634D-04 0.125D-04 0.123D-02-0.752D-02
 Coeff-Com:  0.362D-03 0.894D-01-0.688D+00 0.160D+01
 Coeff:      0.273D-03-0.474D-03 0.634D-04 0.125D-04 0.123D-02-0.752D-02
 Coeff:      0.362D-03 0.894D-01-0.688D+00 0.160D+01
 Gap=     0.537 Goal=   None    Shift=    0.000
 RMSDP=2.10D-06 MaxDP=4.07D-05 DE=-4.88D-07 OVMax= 3.15D-04

 Cycle  11  Pass 1  IDiag  1:
 RMSU=  3.09D-07    CP:  9.22D-03  3.00D+00  1.23D+00  6.94D-01  1.15D+00
                    CP:  1.86D+00  2.16D+00  1.64D+00  1.97D+00  1.76D+00
 FoFJK:  IHMeth= 1 ICntrl=     0 DoSepK=T KAlg= 1 I1Cent= 0 FoldK=F
 E= -151.213507084086     Delta-E=       -0.000000099135 Rises=F Damp=F
 DIIS: error= 5.23D-06 at cycle  11 NSaved=  11.
 NSaved=11 IEnMin=11 EnMin= -151.213507084086     IErMin=11 ErrMin= 5.23D-06
 ErrMax= 5.23D-06 EMaxC= 1.00D-01 BMatC= 9.76D-09 BMatP= 3.80D-08
 IDIUse=1 WtCom= 1.00D+00 WtEn= 0.00D+00
 Coeff-Com:  0.630D-04-0.107D-03-0.656D-04 0.803D-04 0.152D-02-0.167D-02
 Coeff-Com: -0.592D-02 0.365D-01-0.783D-01-0.125D+00 0.117D+01
 Coeff:      0.630D-04-0.107D-03-0.656D-04 0.803D-04 0.152D-02-0.167D-02
 Coeff:     -0.592D-02 0.365D-01-0.783D-01-0.125D+00 0.117D+01
 Gap=     0.537 Goal=   None    Shift=    0.000
 RMSDP=4.71D-07 MaxDP=8.17D-06 DE=-9.91D-08 OVMax= 6.16D-05

 Cycle  12  Pass 1  IDiag  1:
 RMSU=  7.45D-08    CP:  9.22D-03  3.00D+00  1.23D+00  6.94D-01  1.15D+00
                    CP:  1.86D+00  2.16D+00  1.65D+00  2.03D+00  1.91D+00
                    CP:  1.38D+00
 FoFJK:  IHMeth= 1 ICntrl=     0 DoSepK=T KAlg= 1 I1Cent= 0 FoldK=F
 E= -151.213507093871     Delta-E=       -0.000000009785 Rises=F Damp=F
 DIIS: error= 1.35D-06 at cycle  12 NSaved=  12.
 NSaved=12 IEnMin=12 EnMin= -151.213507093871     IErMin=12 ErrMin= 1.35D-06
 ErrMax= 1.35D-06 EMaxC= 1.00D-01 BMatC= 6.09D-10 BMatP= 9.76D-09
 IDIUse=1 WtCom= 1.00D+00 WtEn= 0.00D+00
 Coeff-Com:  0.209D-04-0.356D-04-0.174D-04-0.337D-05 0.294D-03 0.519D-03
 Coeff-Com: -0.144D-02-0.224D-02 0.552D-01-0.210D+00 0.364D+00 0.794D+00
 Coeff:      0.209D-04-0.356D-04-0.174D-04-0.337D-05 0.294D-03 0.519D-03
 Coeff:     -0.144D-02-0.224D-02 0.552D-01-0.210D+00 0.364D+00 0.794D+00
 Gap=     0.537 Goal=   None    Shift=    0.000
 RMSDP=9.47D-08 MaxDP=2.59D-06 DE=-9.78D-09 OVMax= 1.27D-05

 Cycle  13  Pass 1  IDiag  1:
 RMSU=  3.52D-08    CP:  9.22D-03  3.00D+00  1.23D+00  6.94D-01  1.15D+00
                    CP:  1.86D+00  2.16D+00  1.65D+00  2.03D+00  1.93D+00
                    CP:  1.47D+00  1.00D+00
 FoFJK:  IHMeth= 1 ICntrl=     0 DoSepK=T KAlg= 1 I1Cent= 0 FoldK=F
 E= -151.213507094372     Delta-E=       -0.000000000500 Rises=F Damp=F
 DIIS: error= 4.06D-07 at cycle  13 NSaved=  13.
 NSaved=13 IEnMin=13 EnMin= -151.213507094372     IErMin=13 ErrMin= 4.06D-07
 ErrMax= 4.06D-07 EMaxC= 1.00D-01 BMatC= 7.42D-11 BMatP= 6.09D-10
 IDIUse=1 WtCom= 1.00D+00 WtEn= 0.00D+00
 Coeff-Com:  0.350D-05-0.653D-05 0.134D-04-0.292D-04-0.283D-03 0.442D-03
 Coeff-Com:  0.133D-02-0.103D-01 0.310D-01-0.143D-01-0.201D+00 0.154D+00
 Coeff-Com:  0.104D+01
 Coeff:      0.350D-05-0.653D-05 0.134D-04-0.292D-04-0.283D-03 0.442D-03
 Coeff:      0.133D-02-0.103D-01 0.310D-01-0.143D-01-0.201D+00 0.154D+00
 Coeff:      0.104D+01
 Gap=     0.537 Goal=   None    Shift=    0.000
 RMSDP=4.80D-08 MaxDP=1.52D-06 DE=-5.00D-10 OVMax= 6.49D-06

 Cycle  14  Pass 1  IDiag  1:
 RMSU=  1.01D-08    CP:  9.22D-03  3.00D+00  1.23D+00  6.94D-01  1.15D+00
                    CP:  1.86D+00  2.16D+00  1.65D+00  2.04D+00  1.94D+00
                    CP:  1.50D+00  1.21D+00  1.22D+00
 FoFJK:  IHMeth= 1 ICntrl=     0 DoSepK=T KAlg= 1 I1Cent= 0 FoldK=F
 E= -151.213507094432     Delta-E=       -0.000000000060 Rises=F Damp=F
 DIIS: error= 1.41D-07 at cycle  14 NSaved=  14.
 NSaved=14 IEnMin=14 EnMin= -151.213507094432     IErMin=14 ErrMin= 1.41D-07
 ErrMax= 1.41D-07 EMaxC= 1.00D-01 BMatC= 4.43D-12 BMatP= 7.42D-11
 IDIUse=1 WtCom= 1.00D+00 WtEn= 0.00D+00
 Coeff-Com:  0.532D-07-0.224D-06-0.229D-05 0.467D-05 0.554D-04-0.148D-03
 Coeff-Com: -0.195D-03 0.261D-02-0.110D-01 0.182D-01 0.183D-01-0.756D-01
 Coeff-Com: -0.201D+00 0.125D+01
 Coeff:      0.532D-07-0.224D-06-0.229D-05 0.467D-05 0.554D-04-0.148D-03
 Coeff:     -0.195D-03 0.261D-02-0.110D-01 0.182D-01 0.183D-01-0.756D-01
 Coeff:     -0.201D+00 0.125D+01
 Gap=     0.537 Goal=   None    Shift=    0.000
 RMSDP=1.17D-08 MaxDP=3.94D-07 DE=-5.99D-11 OVMax= 8.98D-07

 Cycle  15  Pass 1  IDiag  1:
 RMSU=  2.10D-09    CP:  9.22D-03  3.00D+00  1.23D+00  6.94D-01  1.15D+00
                    CP:  1.86D+00  2.16D+00  1.65D+00  2.04D+00  1.94D+00
                    CP:  1.49D+00  1.23D+00  1.30D+00  1.31D+00
 FoFJK:  IHMeth= 1 ICntrl=     0 DoSepK=T KAlg= 1 I1Cent= 0 FoldK=F
 E= -151.213507094411     Delta-E=        0.000000000020 Rises=F Damp=F
 DIIS: error= 1.46D-08 at cycle  15 NSaved=  15.
 NSaved=15 IEnMin=14 EnMin= -151.213507094432     IErMin=15 ErrMin= 1.46D-08
 ErrMax= 1.46D-08 EMaxC= 1.00D-01 BMatC= 3.26D-14 BMatP= 4.43D-12
 IDIUse=1 WtCom= 1.00D+00 WtEn= 0.00D+00
 Coeff-Com: -0.132D-06 0.235D-06-0.413D-07 0.217D-06-0.179D-06 0.114D-04
 Coeff-Com: -0.268D-05-0.187D-03 0.101D-02-0.287D-02 0.309D-02 0.903D-02
 Coeff-Com:  0.678D-02-0.276D+00 0.126D+01
 Coeff:     -0.132D-06 0.235D-06-0.413D-07 0.217D-06-0.179D-06 0.114D-04
 Coeff:     -0.268D-05-0.187D-03 0.101D-02-0.287D-02 0.309D-02 0.903D-02
 Coeff:      0.678D-02-0.276D+00 0.126D+01
 Gap=     0.537 Goal=   None    Shift=    0.000
 RMSDP=1.59D-09 MaxDP=4.61D-08 DE= 2.03D-11 OVMax= 1.68D-07

 SCF Done:  E(RLC-B+HF-LYP) =  -151.213507094     A.U. after   15 cycles
             Convg  =    0.1594D-08             -V/T =  2.0063
 KE= 1.502645977265D+02 PE=-4.315463573549D+02 EE= 9.345174056431D+01
 Leave Link  502 at Mon May 11 14:36:17 2020, MaxMem= 1073741824 cpu:     343.4
 (Enter /home/matheus/.gaussian/g09/l601.exe)
 Copying SCF densities to generalized density rwf, IOpCl= 0 IROHF=0.

 **********************************************************************

            Population analysis using the SCF density.

 **********************************************************************

 Orbital symmetries:
       Occupied  (A) (A) (A) (A) (A) (A) (A) (A) (A)
       Virtual   (A) (A) (A) (A) (A) (A) (A) (A) (A) (A) (A) (A)
                 (A) (A) (A) (A) (A) (A) (A) (A) (A) (A) (A) (A)
                 (A) (A) (A) (A) (A) (A) (A) (A) (A) (A) (A) (A)
                 (A) (A) (A) (A) (A) (A) (A) (A) (A) (A) (A) (A)
                 (A) (A) (A) (A) (A) (A) (A) (A) (A) (A) (A) (A)
                 (A) (A) (A) (A) (A) (A) (A) (A) (A) (A) (A) (A)
                 (A) (A) (A) (A) (A) (A) (A) (A) (A) (A) (A) (A)
                 (A) (A) (A) (A) (A) (A) (A) (A) (A) (A) (A) (A)
                 (A) (A) (A) (A) (A) (A) (A) (A) (A) (A) (A) (A)
                 (A) (A) (A) (A) (A) (A) (A) (A) (A) (A) (A) (A)
                 (A) (A) (A) (A) (A) (A) (A) (A) (A) (A) (A) (A)
                 (A) (A) (A) (A) (A) (A) (A) (A) (A) (A) (A) (A)
                 (A) (A) (A) (A) (A) (A) (A) (A) (A) (A) (A) (A)
                 (A) (A) (A) (A) (A) (A) (A) (A) (A) (A) (A) (A)
                 (A) (A) (A) (A) (A) (A) (A) (A) (A) (A) (A) (A)
                 (A) (A) (A) (A) (A) (A) (A) (A)
 The electronic state is 1-A.
 Alpha  occ. eigenvalues --  -19.48568 -19.48538  -1.46336  -1.21611  -0.76052
 Alpha  occ. eigenvalues --   -0.72042  -0.63865  -0.53608  -0.51413
 Alpha virt. eigenvalues --    0.02243   0.03419   0.06986   0.08261   0.10082
 Alpha virt. eigenvalues --    0.10482   0.11886   0.13470   0.16355   0.16746
 Alpha virt. eigenvalues --    0.18126   0.19718   0.22309   0.23641   0.25175
 Alpha virt. eigenvalues --    0.26086   0.30230   0.30784   0.32244   0.32585
 Alpha virt. eigenvalues --    0.33491   0.37228   0.37689   0.40326   0.41704
 Alpha virt. eigenvalues --    0.42795   0.43919   0.47645   0.48161   0.49421
 Alpha virt. eigenvalues --    0.54171   0.57273   0.61733   0.63951   0.68671
 Alpha virt. eigenvalues --    0.73550   0.74730   0.76886   0.79633   0.79804
 Alpha virt. eigenvalues --    0.81975   0.82943   0.88770   0.90609   0.91353
 Alpha virt. eigenvalues --    0.92118   0.93374   0.96750   0.98343   0.99055
 Alpha virt. eigenvalues --    1.00426   1.02658   1.06531   1.10639   1.12987
 Alpha virt. eigenvalues --    1.14170   1.15766   1.18939   1.24572   1.26431
 Alpha virt. eigenvalues --    1.28309   1.28469   1.31117   1.32172   1.33225
 Alpha virt. eigenvalues --    1.34028   1.35945   1.37852   1.40442   1.41918
 Alpha virt. eigenvalues --    1.45474   1.51968   1.53174   1.55826   1.59065
 Alpha virt. eigenvalues --    1.62370   1.67594   1.68932   1.74233   1.83907
 Alpha virt. eigenvalues --    1.87482   1.93132   2.00347   2.05341   2.12279
 Alpha virt. eigenvalues --    2.16289   2.20711   2.26745   2.27523   2.32978
 Alpha virt. eigenvalues --    2.36734   2.41513   2.44410   2.47419   2.52232
 Alpha virt. eigenvalues --    2.55532   2.60907   2.64838   2.71096   2.75542
 Alpha virt. eigenvalues --    2.77446   2.83004   2.95939   2.99071   3.03425
 Alpha virt. eigenvalues --    3.18005   3.22104   3.24457   3.25724   3.31702
 Alpha virt. eigenvalues --    3.43360   3.55819   3.74148   3.76424   3.78355
 Alpha virt. eigenvalues --    3.79306   3.81926   3.82252   3.82981   3.85592
 Alpha virt. eigenvalues --    3.88928   3.91434   3.96271   3.98227   3.99694
 Alpha virt. eigenvalues --    4.05398   4.11583   4.17278   4.24236   4.26651
 Alpha virt. eigenvalues --    4.33196   4.35289   4.40304   4.43033   4.44978
 Alpha virt. eigenvalues --    4.56105   4.67911   4.73026   4.85067   5.06946
 Alpha virt. eigenvalues --    5.13769   5.19780   5.32254   5.33296   5.40882
 Alpha virt. eigenvalues --    5.66132   6.05808   6.28211   6.35277   6.38554
 Alpha virt. eigenvalues --    6.54542   6.57503   6.69232   6.79764   6.81300
 Alpha virt. eigenvalues --    7.04571   7.05332   7.07108   7.08973   7.12991
 Alpha virt. eigenvalues --    7.13674   7.14662   7.22914   7.26779   7.32966
 Alpha virt. eigenvalues --    7.41674   7.49401   7.69679   7.94159   8.06689
 Alpha virt. eigenvalues --    8.34339   8.37354  10.88655  14.19866  14.82986
 Alpha virt. eigenvalues --   14.84213  14.89694  15.10470  29.02788  29.03073
 Alpha virt. eigenvalues --   29.07677  29.13141  29.22678  49.09806 148.31127
 Alpha virt. eigenvalues --  148.37722 148.70053 752.49787
          Condensed to atoms (all electrons):
              1          2          3          4          5
     1  O    8.198340  -0.163342   0.198609  -0.009806   0.000123
     2  O   -0.163342   8.218148   0.004738   0.194294  -0.001371
     3  H    0.198609   0.004738   0.568170   0.004018  -0.001259
     4  H   -0.009806   0.194294   0.004018   0.567844  -0.003004
     5  Kr   0.000123  -0.001371  -0.001259  -0.003004   0.001502
 Mulliken atomic charges:
              1
     1  O   -0.223923
     2  O   -0.252466
     3  H    0.225725
     4  H    0.246655
     5  Kr   0.004009
 Sum of Mulliken atomic charges =   0.00000
 Mulliken charges with hydrogens summed into heavy atoms:
              1
     1  O    0.001802
     2  O   -0.005811
     5  Kr   0.004009
 Sum of Mulliken charges with hydrogens summed into heavy atoms =   0.00000
          Condensed to fragments (all electrons):
     1      -0.004009
     2       0.004009
 Electronic spatial extent (au):  <R**2>=            321.5841
 Charge=              0.0000 electrons
 Dipole moment (field-independent basis, Debye):
    X=             -1.1054    Y=             -0.1571    Z=              1.6358  Tot=              1.9805
 Quadrupole moment (field-independent basis, Debye-Ang):
   XX=            -14.5931   YY=            -10.1249   ZZ=            -11.3337
   XY=             -3.3191   XZ=              3.8575   YZ=             -1.8278
 Traceless Quadrupole moment (field-independent basis, Debye-Ang):
   XX=             -2.5759   YY=              1.8923   ZZ=              0.6836
   XY=             -3.3191   XZ=              3.8575   YZ=             -1.8278
 Octapole moment (field-independent basis, Debye-Ang**2):
  XXX=            -75.6339  YYY=             -1.4609  ZZZ=              1.5047  XYY=            -21.4499
  XXY=            -10.9929  XXZ=              9.4534  XZZ=            -22.0836  YZZ=             -1.8503
  YYZ=              2.3511  XYZ=             -4.5071
 Hexadecapole moment (field-independent basis, Debye-Ang**3):
 XXXX=           -300.0352 YYYY=            -43.6473 ZZZZ=            -10.6252 XXXY=            -27.8409
 XXXZ=             23.4078 YYYX=             -5.1162 YYYZ=             -2.6148 ZZZX=              3.3078
 ZZZY=             -1.8681 XXYY=            -53.5995 XXZZ=            -46.6949 YYZZ=             -9.5058
 XXYZ=            -11.1546 YYXZ=              5.2968 ZZXY=             -3.6144
 N-N= 3.661651196964D+01 E-N=-4.315463584827D+02  KE= 1.502645977265D+02
 No NMR shielding tensors so no spin-rotation constants.
 Leave Link  601 at Mon May 11 14:36:17 2020, MaxMem= 1073741824 cpu:       0.7
 (Enter /home/matheus/.gaussian/g09/l122.exe)
 Counterpoise: doing DCBS calculation for fragment   2 NewBq=T
 Leave Link  122 at Mon May 11 14:36:17 2020, MaxMem= 1073741824 cpu:       0.0
 (Enter /home/matheus/.gaussian/g09/l301.exe)
 Basis read from rwf:  (5D, 7F)
 No pseudopotential information found on rwf file.
 There are   197 symmetry adapted basis functions of A   symmetry.
 Integral buffers will be    131072 words long.
 Raffenetti 2 integral format.
 Two-electron integral symmetry is turned on.
   197 basis functions,   415 primitive gaussians,   229 cartesian basis functions
    18 alpha electrons       18 beta electrons
       nuclear repulsion energy         0.0000000000 Hartrees.
 IExCor=10402 DFT=T Ex=LC-B+HF Corr=LYP ExCW=0 ScaHFX=  1.000000
 ScaDFX=  1.000000  1.000000  1.000000  1.000000 ScalE2=  1.000000  1.000000
 IRadAn=      5 IRanWt=     -1 IRanGd=            0 ICorTp=0
  HFx wShort=  0.000000 wLong=  1.350000 cFull=  0.000000 cShort=  0.000000 cLong=  1.000000
  DFx wShort=  0.000000 wLong=  1.350000 cFull=  0.000000 cShort=  0.000000 cLong=  1.000000
 NAtoms=    5 NActive=    5 NUniq=    5 SFac= 1.00D+00 NAtFMM=   60 NAOKFM=F Big=F
 No density basis found on file   718.
 Leave Link  301 at Mon May 11 14:36:17 2020, MaxMem= 1073741824 cpu:       0.2
 (Enter /home/matheus/.gaussian/g09/l302.exe)
 NPDir=0 NMtPBC=     1 NCelOv=     1 NCel=       1 NClECP=     1 NCelD=      1
         NCelK=      1 NCelE2=     1 NClLst=     1 CellRange=     0.0.
 One-electron integrals computed using PRISM.
 NBasis=   197 RedAO= T  NBF=   197
 NBsUse=   197 1.00D-06 NBFU=   197
 Precomputing XC quadrature grid using
 IXCGrd= 2 IRadAn=           5 IRanWt=          -1 IRanGd=           0 AccXCQ= 0.00D+00.
 NRdTot=     427 NPtTot=      123512 NUsed=      126579 NTot=      126611
 NSgBfM=   229   229   229   229   229 NAtAll=     5     5.
 Leave Link  302 at Mon May 11 14:36:17 2020, MaxMem= 1073741824 cpu:       1.0
 (Enter /home/matheus/.gaussian/g09/l303.exe)
 DipDrv:  MaxL=1.
 Leave Link  303 at Mon May 11 14:36:17 2020, MaxMem= 1073741824 cpu:       0.3
 (Enter /home/matheus/.gaussian/g09/l401.exe)
 Harris functional with IExCor=10402 diagonalized for initial guess.
 ExpMin= 2.53D-02 ExpMax= 1.17D+07 ExpMxC= 1.33D+04 IAcc=3 IRadAn=         5 AccDes= 0.00D+00
 HarFok:  IExCor=10402 AccDes= 0.00D+00 IRadAn=         5 IDoV= 1
 ScaDFX=  1.000000  1.000000  1.000000  1.000000
 FoFCou: FMM=F IPFlag=           0 FMFlag=      100000 FMFlg1=           0
         NFxFlg=           0 DoJE=T BraDBF=F KetDBF=T FulRan=T
         Omega=  0.000000  0.000000  1.000000  0.000000  0.000000 ICntrl=     500 IOpCl=  0
         NMat0=    1 NMatS0=    1 NMatT0=    0 NMatD0=    1 NMtDS0=    0 NMtDT0=    0
         I1Cent=           4 NGrid=           0.
 Petite list used in FoFCou.
 Harris En= -2731.73456223100    
 Initial guess orbital symmetries:
       Occupied  (A) (A) (A) (A) (A) (A) (A) (A) (A) (A) (A) (A)
                 (A) (A) (A) (A) (A) (A)
       Virtual   (A) (A) (A) (A) (A) (A) (A) (A) (A) (A) (A) (A)
                 (A) (A) (A) (A) (A) (A) (A) (A) (A) (A) (A) (A)
                 (A) (A) (A) (A) (A) (A) (A) (A) (A) (A) (A) (A)
                 (A) (A) (A) (A) (A) (A) (A) (A) (A) (A) (A) (A)
                 (A) (A) (A) (A) (A) (A) (A) (A) (A) (A) (A) (A)
                 (A) (A) (A) (A) (A) (A) (A) (A) (A) (A) (A) (A)
                 (A) (A) (A) (A) (A) (A) (A) (A) (A) (A) (A) (A)
                 (A) (A) (A) (A) (A) (A) (A) (A) (A) (A) (A) (A)
                 (A) (A) (A) (A) (A) (A) (A) (A) (A) (A) (A) (A)
                 (A) (A) (A) (A) (A) (A) (A) (A) (A) (A) (A) (A)
                 (A) (A) (A) (A) (A) (A) (A) (A) (A) (A) (A) (A)
                 (A) (A) (A) (A) (A) (A) (A) (A) (A) (A) (A) (A)
                 (A) (A) (A) (A) (A) (A) (A) (A) (A) (A) (A) (A)
                 (A) (A) (A) (A) (A) (A) (A) (A) (A) (A) (A) (A)
                 (A) (A) (A) (A) (A) (A) (A) (A) (A) (A) (A)
 The electronic state of the initial guess is 1-A.
 Leave Link  401 at Mon May 11 14:36:18 2020, MaxMem= 1073741824 cpu:       3.7
 (Enter /home/matheus/.gaussian/g09/l502.exe)
 Closed shell SCF:
 Requested convergence on RMS density matrix=1.00D-08 within 128 cycles.
 Requested convergence on MAX density matrix=1.00D-06.
 Requested convergence on             energy=1.00D-06.
 No special actions if energy rises.
 Using DIIS extrapolation, IDIIS=  1040.
 Integral symmetry usage will be decided dynamically.
       126521 words used for storage of precomputed grid.
 IEnd=      305468 IEndB=      305468 NGot=  1073741824 MDV=  1073505667
 LenX=  1073505667 LenY=  1073452785
 Fock matrices will be formed incrementally for  20 cycles.

 Cycle   1  Pass 1  IDiag  1:
 FoFJK:  IHMeth= 1 ICntrl=     0 DoSepK=T KAlg= 1 I1Cent= 0 FoldK=F
 FoFCou: FMM=F IPFlag=           0 FMFlag=      100000 FMFlg1=           0
         NFxFlg=           0 DoJE=T BraDBF=F KetDBF=F FulRan=T
         Omega=  0.000000  0.000000  1.000000  0.000000  0.000000 ICntrl=     500 IOpCl=  0
         NMat0=    1 NMatS0=    1 NMatT0=    0 NMatD0=    1 NMtDS0=    0 NMtDT0=    0
         I1Cent=           0 NGrid=           0.
 Symmetry not used in FoFCou.
 E= -2752.71007182038    
 DIIS: error= 4.17D-02 at cycle   1 NSaved=   1.
 NSaved= 1 IEnMin= 1 EnMin= -2752.71007182038     IErMin= 1 ErrMin= 4.17D-02
 ErrMax= 4.17D-02 EMaxC= 1.00D-01 BMatC= 1.18D+00 BMatP= 1.18D+00
 IDIUse=3 WtCom= 5.83D-01 WtEn= 4.17D-01
 Coeff-Com:  0.100D+01
 Coeff-En:   0.100D+01
 Coeff:      0.100D+01
 Gap=     0.767 Goal=   None    Shift=    0.000
 GapD=    0.767 DampG=2.000 DampE=0.500 DampFc=1.0000 IDamp=-1.
 RMSDP=4.97D-03 MaxDP=2.25D-01              OVMax= 3.37D-01

 Cycle   2  Pass 1  IDiag  1:
 RMSU=  3.43D-03    CP:  1.05D+00
 FoFJK:  IHMeth= 1 ICntrl=     0 DoSepK=T KAlg= 1 I1Cent= 0 FoldK=F
 E= -2753.27695128220     Delta-E=       -0.566879461817 Rises=F Damp=F
 DIIS: error= 2.60D-02 at cycle   2 NSaved=   2.
 NSaved= 2 IEnMin= 2 EnMin= -2753.27695128220     IErMin= 2 ErrMin= 2.60D-02
 ErrMax= 2.60D-02 EMaxC= 1.00D-01 BMatC= 3.64D-01 BMatP= 1.18D+00
 IDIUse=3 WtCom= 7.40D-01 WtEn= 2.60D-01
 Coeff-Com:  0.351D+00 0.649D+00
 Coeff-En:   0.000D+00 0.100D+01
 Coeff:      0.260D+00 0.740D+00
 Gap=     0.606 Goal=   None    Shift=    0.000
 RMSDP=2.19D-03 MaxDP=1.32D-01 DE=-5.67D-01 OVMax= 7.28D-02

 Cycle   3  Pass 1  IDiag  1:
 RMSU=  8.53D-04    CP:  1.03D+00  6.33D-01
 FoFJK:  IHMeth= 1 ICntrl=     0 DoSepK=T KAlg= 1 I1Cent= 0 FoldK=F
 E= -2753.40771382535     Delta-E=       -0.130762543152 Rises=F Damp=F
 DIIS: error= 3.24D-03 at cycle   3 NSaved=   3.
 NSaved= 3 IEnMin= 3 EnMin= -2753.40771382535     IErMin= 3 ErrMin= 3.24D-03
 ErrMax= 3.24D-03 EMaxC= 1.00D-01 BMatC= 5.45D-03 BMatP= 3.64D-01
 IDIUse=3 WtCom= 9.68D-01 WtEn= 3.24D-02
 Coeff-Com: -0.913D-02 0.827D-01 0.926D+00
 Coeff-En:   0.000D+00 0.000D+00 0.100D+01
 Coeff:     -0.883D-02 0.800D-01 0.929D+00
 Gap=     0.575 Goal=   None    Shift=    0.000
 RMSDP=3.46D-04 MaxDP=1.49D-02 DE=-1.31D-01 OVMax= 1.05D-02

 Cycle   4  Pass 1  IDiag  1:
 RMSU=  2.27D-04    CP:  1.03D+00  6.58D-01  9.87D-01
 FoFJK:  IHMeth= 1 ICntrl=     0 DoSepK=T KAlg= 1 I1Cent= 0 FoldK=F
 E= -2753.40945696662     Delta-E=       -0.001743141268 Rises=F Damp=F
 DIIS: error= 2.79D-04 at cycle   4 NSaved=   4.
 NSaved= 4 IEnMin= 4 EnMin= -2753.40945696662     IErMin= 4 ErrMin= 2.79D-04
 ErrMax= 2.79D-04 EMaxC= 1.00D-01 BMatC= 3.63D-05 BMatP= 5.45D-03
 IDIUse=3 WtCom= 9.97D-01 WtEn= 2.79D-03
 Coeff-Com: -0.668D-02-0.424D-02-0.230D-02 0.101D+01
 Coeff-En:   0.000D+00 0.000D+00 0.000D+00 0.100D+01
 Coeff:     -0.666D-02-0.423D-02-0.229D-02 0.101D+01
 Gap=     0.580 Goal=   None    Shift=    0.000
 RMSDP=5.03D-05 MaxDP=2.25D-03 DE=-1.74D-03 OVMax= 3.46D-03

 Cycle   5  Pass 1  IDiag  1:
 RMSU=  2.04D-05    CP:  1.03D+00  6.61D-01  1.01D+00  1.08D+00
 FoFJK:  IHMeth= 1 ICntrl=     0 DoSepK=T KAlg= 1 I1Cent= 0 FoldK=F
 E= -2753.40951735392     Delta-E=       -0.000060387302 Rises=F Damp=F
 DIIS: error= 3.98D-05 at cycle   5 NSaved=   5.
 NSaved= 5 IEnMin= 5 EnMin= -2753.40951735392     IErMin= 5 ErrMin= 3.98D-05
 ErrMax= 3.98D-05 EMaxC= 1.00D-01 BMatC= 4.93D-07 BMatP= 3.63D-05
 IDIUse=1 WtCom= 1.00D+00 WtEn= 0.00D+00
 Coeff-Com: -0.793D-04-0.147D-02 0.124D-02-0.168D+00 0.117D+01
 Coeff:     -0.793D-04-0.147D-02 0.124D-02-0.168D+00 0.117D+01
 Gap=     0.580 Goal=   None    Shift=    0.000
 RMSDP=1.06D-05 MaxDP=4.41D-04 DE=-6.04D-05 OVMax= 6.34D-04

 Cycle   6  Pass 1  IDiag  1:
 RMSU=  9.74D-07    CP:  1.03D+00  6.62D-01  1.01D+00  1.10D+00  1.20D+00
 FoFJK:  IHMeth= 1 ICntrl=     0 DoSepK=T KAlg= 1 I1Cent= 0 FoldK=F
 E= -2753.40951876217     Delta-E=       -0.000001408256 Rises=F Damp=F
 DIIS: error= 2.24D-06 at cycle   6 NSaved=   6.
 NSaved= 6 IEnMin= 6 EnMin= -2753.40951876217     IErMin= 6 ErrMin= 2.24D-06
 ErrMax= 2.24D-06 EMaxC= 1.00D-01 BMatC= 9.68D-10 BMatP= 4.93D-07
 IDIUse=1 WtCom= 1.00D+00 WtEn= 0.00D+00
 Coeff-Com:  0.236D-04 0.114D-03-0.378D-03 0.120D-01-0.113D+00 0.110D+01
 Coeff:      0.236D-04 0.114D-03-0.378D-03 0.120D-01-0.113D+00 0.110D+01
 Gap=     0.580 Goal=   None    Shift=    0.000
 RMSDP=5.20D-07 MaxDP=2.31D-05 DE=-1.41D-06 OVMax= 2.31D-05

 Cycle   7  Pass 1  IDiag  1:
 RMSU=  5.86D-08    CP:  1.03D+00  6.62D-01  1.01D+00  1.10D+00  1.21D+00
                    CP:  1.13D+00
 FoFJK:  IHMeth= 1 ICntrl=     0 DoSepK=T KAlg= 1 I1Cent= 0 FoldK=F
 E= -2753.40951876287     Delta-E=       -0.000000000701 Rises=F Damp=F
 DIIS: error= 1.52D-07 at cycle   7 NSaved=   7.
 NSaved= 7 IEnMin= 7 EnMin= -2753.40951876287     IErMin= 7 ErrMin= 1.52D-07
 ErrMax= 1.52D-07 EMaxC= 1.00D-01 BMatC= 1.03D-11 BMatP= 9.68D-10
 IDIUse=1 WtCom= 1.00D+00 WtEn= 0.00D+00
 Coeff-Com:  0.255D-05 0.401D-05-0.328D-04 0.593D-03-0.265D-02-0.199D-01
 Coeff-Com:  0.102D+01
 Coeff:      0.255D-05 0.401D-05-0.328D-04 0.593D-03-0.265D-02-0.199D-01
 Coeff:      0.102D+01
 Gap=     0.580 Goal=   None    Shift=    0.000
 RMSDP=2.19D-08 MaxDP=1.01D-06 DE=-7.01D-10 OVMax= 1.28D-06

 Cycle   8  Pass 1  IDiag  1:
 RMSU=  8.95D-09    CP:  1.03D+00  6.62D-01  1.01D+00  1.10D+00  1.21D+00
                    CP:  1.13D+00  1.13D+00
 FoFJK:  IHMeth= 1 ICntrl=     0 DoSepK=T KAlg= 1 I1Cent= 0 FoldK=F
 E= -2753.40951876294     Delta-E=       -0.000000000069 Rises=F Damp=F
 DIIS: error= 4.50D-08 at cycle   8 NSaved=   8.
 NSaved= 8 IEnMin= 8 EnMin= -2753.40951876294     IErMin= 8 ErrMin= 4.50D-08
 ErrMax= 4.50D-08 EMaxC= 1.00D-01 BMatC= 4.05D-13 BMatP= 1.03D-11
 IDIUse=1 WtCom= 1.00D+00 WtEn= 0.00D+00
 Coeff-Com:  0.681D-07-0.197D-05 0.288D-05-0.206D-03 0.230D-02-0.275D-01
 Coeff-Com:  0.112D+00 0.914D+00
 Coeff:      0.681D-07-0.197D-05 0.288D-05-0.206D-03 0.230D-02-0.275D-01
 Coeff:      0.112D+00 0.914D+00
 Gap=     0.580 Goal=   None    Shift=    0.000
 RMSDP=4.47D-09 MaxDP=1.45D-07 DE=-6.91D-11 OVMax= 3.41D-07

 SCF Done:  E(RLC-B+HF-LYP) =  -2753.40951876     A.U. after    8 cycles
             Convg  =    0.4468D-08             -V/T =  2.0014
 KE= 2.749635691927D+03 PE=-6.579423250630D+03 EE= 1.076378039940D+03
 Leave Link  502 at Mon May 11 14:36:41 2020, MaxMem= 1073741824 cpu:     187.5
 (Enter /home/matheus/.gaussian/g09/l601.exe)
 Copying SCF densities to generalized density rwf, IOpCl= 0 IROHF=0.

 **********************************************************************

            Population analysis using the SCF density.

 **********************************************************************

 Orbital symmetries:
       Occupied  (A) (A) (A) (A) (A) (A) (A) (A) (A) (A) (A) (A)
                 (A) (A) (A) (A) (A) (A)
       Virtual   (A) (A) (A) (A) (A) (A) (A) (A) (A) (A) (A) (A)
                 (A) (A) (A) (A) (A) (A) (A) (A) (A) (A) (A) (A)
                 (A) (A) (A) (A) (A) (A) (A) (A) (A) (A) (A) (A)
                 (A) (A) (A) (A) (A) (A) (A) (A) (A) (A) (A) (A)
                 (A) (A) (A) (A) (A) (A) (A) (A) (A) (A) (A) (A)
                 (A) (A) (A) (A) (A) (A) (A) (A) (A) (A) (A) (A)
                 (A) (A) (A) (A) (A) (A) (A) (A) (A) (A) (A) (A)
                 (A) (A) (A) (A) (A) (A) (A) (A) (A) (A) (A) (A)
                 (A) (A) (A) (A) (A) (A) (A) (A) (A) (A) (A) (A)
                 (A) (A) (A) (A) (A) (A) (A) (A) (A) (A) (A) (A)
                 (A) (A) (A) (A) (A) (A) (A) (A) (A) (A) (A) (A)
                 (A) (A) (A) (A) (A) (A) (A) (A) (A) (A) (A) (A)
                 (A) (A) (A) (A) (A) (A) (A) (A) (A) (A) (A) (A)
                 (A) (A) (A) (A) (A) (A) (A) (A) (A) (A) (A) (A)
                 (A) (A) (A) (A) (A) (A) (A) (A) (A) (A) (A)
 The electronic state is 1-A.
 Alpha  occ. eigenvalues -- -511.65509 -67.17992 -60.85189 -60.85186 -60.85185
 Alpha  occ. eigenvalues --  -10.08108  -7.79671  -7.79670  -7.79669  -3.62634
 Alpha  occ. eigenvalues --   -3.62633  -3.62633  -3.62632  -3.62632  -1.17384
 Alpha  occ. eigenvalues --   -0.55371  -0.55367  -0.55365
 Alpha virt. eigenvalues --    0.02644   0.04723   0.07885   0.08736   0.10944
 Alpha virt. eigenvalues --    0.11717   0.12843   0.13372   0.15950   0.16696
 Alpha virt. eigenvalues --    0.17438   0.19337   0.20314   0.25508   0.26992
 Alpha virt. eigenvalues --    0.27527   0.28243   0.30914   0.33541   0.34481
 Alpha virt. eigenvalues --    0.36297   0.37270   0.38452   0.39230   0.41297
 Alpha virt. eigenvalues --    0.41707   0.42921   0.54081   0.54965   0.58430
 Alpha virt. eigenvalues --    0.59746   0.66130   0.67739   0.70040   0.72501
 Alpha virt. eigenvalues --    0.75275   0.76664   0.78027   0.79882   0.81355
 Alpha virt. eigenvalues --    0.82540   0.82892   0.85145   0.86351   0.87058
 Alpha virt. eigenvalues --    0.89049   0.89558   0.90843   0.92206   0.96440
 Alpha virt. eigenvalues --    0.97434   0.99309   1.00439   1.02397   1.03839
 Alpha virt. eigenvalues --    1.06145   1.10101   1.10495   1.13993   1.14329
 Alpha virt. eigenvalues --    1.17605   1.22732   1.25945   1.26921   1.28998
 Alpha virt. eigenvalues --    1.35157   1.36799   1.39629   1.46587   1.48937
 Alpha virt. eigenvalues --    1.54439   1.57442   1.63026   1.74288   1.77051
 Alpha virt. eigenvalues --    1.78471   1.83039   1.87935   1.97598   2.24800
 Alpha virt. eigenvalues --    2.29312   2.30237   2.33015   2.33523   2.37376
 Alpha virt. eigenvalues --    2.41358   2.42709   2.44327   2.45508   2.46874
 Alpha virt. eigenvalues --    2.48057   2.48868   2.52706   2.54942   2.56952
 Alpha virt. eigenvalues --    2.58295   2.60371   2.62317   2.64169   2.66002
 Alpha virt. eigenvalues --    2.66455   2.70287   2.71591   2.75532   2.77269
 Alpha virt. eigenvalues --    2.80733   2.84755   2.86336   2.89169   2.92522
 Alpha virt. eigenvalues --    2.98046   3.01762   3.04609   3.12827   3.20543
 Alpha virt. eigenvalues --    3.22720   3.25374   3.30156   3.35749   3.49146
 Alpha virt. eigenvalues --    3.60760   3.64144   3.82173   3.86279   4.03377
 Alpha virt. eigenvalues --    4.40969   4.45513   4.51125   4.59296   4.67654
 Alpha virt. eigenvalues --    4.72117   4.86626   4.89894   4.93550   5.00215
 Alpha virt. eigenvalues --    5.15231   5.19559   5.57919   5.65319   5.73663
 Alpha virt. eigenvalues --    5.90278   6.00894   6.15683   6.72953   6.88995
 Alpha virt. eigenvalues --    7.36825   7.42389   7.59591   7.62597   7.73460
 Alpha virt. eigenvalues --    7.86312   7.89757   8.11026   8.16376   8.21153
 Alpha virt. eigenvalues --    8.39544   8.45306   8.57993   8.85849   9.64529
 Alpha virt. eigenvalues --    9.74107   9.83705   9.88738   9.91020   9.99546
 Alpha virt. eigenvalues --   10.14269  10.31813  10.37344  10.96705  11.50913
 Alpha virt. eigenvalues --   11.65381  11.75224  12.04811  12.10036  13.24753
 Alpha virt. eigenvalues --   13.60629  14.52217  62.73413  64.66559
          Condensed to atoms (all electrons):
              1          2          3          4          5
     1  O    0.003395  -0.002518  -0.002195   0.001595  -0.010115
     2  O   -0.002518   0.006546   0.000884  -0.004372  -0.001198
     3  H   -0.002195   0.000884   0.001759  -0.000556   0.003089
     4  H    0.001595  -0.004372  -0.000556   0.004241  -0.022257
     5  Kr  -0.010115  -0.001198   0.003089  -0.022257  36.059343
 Mulliken atomic charges:
              1
     1  O    0.009838
     2  O    0.000657
     3  H   -0.002982
     4  H    0.021349
     5  Kr  -0.028862
 Sum of Mulliken atomic charges =   0.00000
 Mulliken charges with hydrogens summed into heavy atoms:
              1
     1  O    0.006856
     2  O    0.022006
     5  Kr  -0.028862
 Sum of Mulliken charges with hydrogens summed into heavy atoms =   0.00000
          Condensed to fragments (all electrons):
     1       0.028862
     2      -0.028862
 Electronic spatial extent (au):  <R**2>=            164.9240
 Charge=              0.0000 electrons
 Dipole moment (field-independent basis, Debye):
    X=              0.0014    Y=              0.0007    Z=              0.0001  Tot=              0.0016
 Quadrupole moment (field-independent basis, Debye-Ang):
   XX=            -17.5633   YY=            -17.5738   ZZ=            -17.5815
   XY=              0.0045   XZ=              0.0002   YZ=              0.0003
 Traceless Quadrupole moment (field-independent basis, Debye-Ang):
   XX=              0.0096   YY=             -0.0009   ZZ=             -0.0086
   XY=              0.0045   XZ=              0.0002   YZ=              0.0003
 Octapole moment (field-independent basis, Debye-Ang**2):
  XXX=             52.1008  YYY=              0.7057  ZZZ=             -0.0897  XYY=             17.3797
  XXY=              0.2260  XXZ=             -0.0310  XZZ=             17.3843  YZZ=              0.2363
  YYZ=             -0.0297  XYZ=             -0.0001
 Hexadecapole moment (field-independent basis, Debye-Ang**3):
 XXXX=           -121.0884 YYYY=            -18.0946 ZZZZ=            -18.1060 XXXY=             -0.6763
 XXXZ=              0.0909 YYYX=             -0.6830 YYYZ=              0.0012 ZZZX=              0.0900
[...]
 NSaved= 3 IEnMin= 3 EnMin= -2753.40937582844     IErMin= 3 ErrMin= 6.55D-07
 ErrMax= 6.55D-07 EMaxC= 1.00D-01 BMatC= 1.02D-10 BMatP= 4.49D-09
 IDIUse=1 WtCom= 1.00D+00 WtEn= 0.00D+00
 Coeff-Com:  0.503D-03-0.141D+00 0.114D+01
 Coeff:      0.503D-03-0.141D+00 0.114D+01
 Gap=     0.580 Goal=   None    Shift=    0.000
 RMSDP=2.42D-07 MaxDP=1.01D-05 DE=-8.33D-09 OVMax= 1.01D-05

 Cycle   4  Pass 1  IDiag  1:
 RMSU=  5.37D-08    CP:  1.00D+00  1.10D+00  1.18D+00
 FoFJK:  IHMeth= 1 ICntrl=     0 DoSepK=T KAlg= 1 I1Cent= 0 FoldK=F
 E= -2753.40937582874     Delta-E=       -0.000000000300 Rises=F Damp=F
 DIIS: error= 1.96D-07 at cycle   4 NSaved=   4.
 NSaved= 4 IEnMin= 4 EnMin= -2753.40937582874     IErMin= 4 ErrMin= 1.96D-07
 ErrMax= 1.96D-07 EMaxC= 1.00D-01 BMatC= 3.83D-12 BMatP= 1.02D-10
 IDIUse=1 WtCom= 1.00D+00 WtEn= 0.00D+00
 Coeff-Com:  0.153D-03-0.280D-01 0.153D+00 0.875D+00
 Coeff:      0.153D-03-0.280D-01 0.153D+00 0.875D+00
 Gap=     0.580 Goal=   None    Shift=    0.000
 RMSDP=1.68D-08 MaxDP=8.16D-07 DE=-3.00D-10 OVMax= 8.22D-07

 Cycle   5  Pass 1  IDiag  1:
 RMSU=  5.78D-09    CP:  1.00D+00  1.10D+00  1.18D+00  1.15D+00
 FoFJK:  IHMeth= 1 ICntrl=     0 DoSepK=T KAlg= 1 I1Cent= 0 FoldK=F
 E= -2753.40937582877     Delta-E=       -0.000000000030 Rises=F Damp=F
 DIIS: error= 4.40D-08 at cycle   5 NSaved=   5.
 NSaved= 5 IEnMin= 5 EnMin= -2753.40937582877     IErMin= 5 ErrMin= 4.40D-08
 ErrMax= 4.40D-08 EMaxC= 1.00D-01 BMatC= 3.09D-13 BMatP= 3.83D-12
 IDIUse=1 WtCom= 1.00D+00 WtEn= 0.00D+00
 Coeff-Com: -0.337D-04 0.936D-02-0.778D-01 0.333D-01 0.104D+01
 Coeff:     -0.337D-04 0.936D-02-0.778D-01 0.333D-01 0.104D+01
 Gap=     0.580 Goal=   None    Shift=    0.000
 RMSDP=6.71D-09 MaxDP=3.72D-07 DE=-3.00D-11 OVMax= 4.23D-07

 SCF Done:  E(RLC-B+HF-LYP) =  -2753.40937583     A.U. after    5 cycles
             Convg  =    0.6706D-08             -V/T =  2.0014
 KE= 2.749687585045D+03 PE=-6.579480437165D+03 EE= 1.076383476291D+03
 Leave Link  502 at Mon May 11 14:59:24 2020, MaxMem= 1073741824 cpu:      95.2
 (Enter /home/matheus/.gaussian/g09/l122.exe)
 Restoring MOs from calculation   4 to rwf.
 Counterpoise: doing MCBS calculation for fragment   1
 Leave Link  122 at Mon May 11 14:59:24 2020, MaxMem= 1073741824 cpu:       0.0
 (Enter /home/matheus/.gaussian/g09/l301.exe)
 Basis read from rwf:  (5D, 7F)
 No pseudopotential information found on rwf file.
 There are   138 symmetry adapted basis functions of A   symmetry.
 Integral buffers will be    131072 words long.
 Raffenetti 2 integral format.
 Two-electron integral symmetry is turned on.
   138 basis functions,   198 primitive gaussians,   160 cartesian basis functions
     9 alpha electrons        9 beta electrons
       nuclear repulsion energy        36.6165119696 Hartrees.
 IExCor=10402 DFT=T Ex=LC-B+HF Corr=LYP ExCW=0 ScaHFX=  1.000000
 ScaDFX=  1.000000  1.000000  1.000000  1.000000 ScalE2=  1.000000  1.000000
 IRadAn=      5 IRanWt=     -1 IRanGd=            0 ICorTp=0
  HFx wShort=  0.000000 wLong=  1.350000 cFull=  0.000000 cShort=  0.000000 cLong=  1.000000
  DFx wShort=  0.000000 wLong=  1.350000 cFull=  0.000000 cShort=  0.000000 cLong=  1.000000
 NAtoms=    5 NActive=    4 NUniq=    4 SFac= 1.00D+00 NAtFMM=   60 NAOKFM=F Big=F
 No density basis found on file   718.
 Leave Link  301 at Mon May 11 14:59:24 2020, MaxMem= 1073741824 cpu:       0.2
 (Enter /home/matheus/.gaussian/g09/l302.exe)
 NPDir=0 NMtPBC=     1 NCelOv=     1 NCel=       1 NClECP=     1 NCelD=      1
         NCelK=      1 NCelE2=     1 NClLst=     1 CellRange=     0.0.
 One-electron integrals computed using PRISM.
 NBasis=   138 RedAO= T  NBF=   138
 NBsUse=   138 1.00D-06 NBFU=   138
 Precomputing XC quadrature grid using
 IXCGrd= 2 IRadAn=           5 IRanWt=          -1 IRanGd=           0 AccXCQ= 0.00D+00.
 NRdTot=     344 NPtTot=       92556 NUsed=       95038 NTot=       95070
 NSgBfM=   160   160   160   160   160 NAtAll=     4     4.
 Leave Link  302 at Mon May 11 14:59:24 2020, MaxMem= 1073741824 cpu:       0.9
 (Enter /home/matheus/.gaussian/g09/l303.exe)
 DipDrv:  MaxL=1.
 Leave Link  303 at Mon May 11 14:59:24 2020, MaxMem= 1073741824 cpu:       0.2
 (Enter /home/matheus/.gaussian/g09/l401.exe)
 Initial guess read from the read-write file.
 Guess basis will be translated and rotated to current coordinates.
 Initial guess orbital symmetries:
       Occupied  (A) (A) (A) (A) (A) (A) (A) (A) (A)
       Virtual   (A) (A) (A) (A) (A) (A) (A) (A) (A) (A) (A) (A)
                 (A) (A) (A) (A) (A) (A) (A) (A) (A) (A) (A) (A)
                 (A) (A) (A) (A) (A) (A) (A) (A) (A) (A) (A) (A)
                 (A) (A) (A) (A) (A) (A) (A) (A) (A) (A) (A) (A)
                 (A) (A) (A) (A) (A) (A) (A) (A) (A) (A) (A) (A)
                 (A) (A) (A) (A) (A) (A) (A) (A) (A) (A) (A) (A)
                 (A) (A) (A) (A) (A) (A) (A) (A) (A) (A) (A) (A)
                 (A) (A) (A) (A) (A) (A) (A) (A) (A) (A) (A) (A)
                 (A) (A) (A) (A) (A) (A) (A) (A) (A) (A) (A) (A)
                 (A) (A) (A) (A) (A) (A) (A) (A) (A) (A) (A) (A)
                 (A) (A) (A) (A) (A) (A) (A) (A) (A)
 The electronic state of the initial guess is 1-A.
 Generating alternative initial guess.
 Harris functional with IExCor=10402 diagonalized for initial guess.
 ExpMin= 2.53D-02 ExpMax= 1.53D+04 ExpMxC= 5.22D+02 IAcc=3 IRadAn=         5 AccDes= 0.00D+00
 HarFok:  IExCor=10402 AccDes= 0.00D+00 IRadAn=         5 IDoV= 1
 ScaDFX=  1.000000  1.000000  1.000000  1.000000
 FoFCou: FMM=F IPFlag=           0 FMFlag=      100000 FMFlg1=           0
         NFxFlg=           0 DoJE=T BraDBF=F KetDBF=T FulRan=T
         Omega=  0.000000  0.000000  1.000000  0.000000  0.000000 ICntrl=     500 IOpCl=  0
         NMat0=    1 NMatS0=    1 NMatT0=    0 NMatD0=    1 NMtDS0=    0 NMtDT0=    0
         I1Cent=           4 NGrid=           0.
 Petite list used in FoFCou.
 Harris En= -143.236342994118    
 Leave Link  401 at Mon May 11 14:59:25 2020, MaxMem= 1073741824 cpu:       2.5
 (Enter /home/matheus/.gaussian/g09/l502.exe)
 Closed shell SCF:
 Requested convergence on RMS density matrix=1.00D-08 within 128 cycles.
 Requested convergence on MAX density matrix=1.00D-06.
 Requested convergence on             energy=1.00D-06.
 No special actions if energy rises.
 Using DIIS extrapolation, IDIIS=  1040.
 Integral symmetry usage will be decided dynamically.
        94980 words used for storage of precomputed grid.
 IEnd=      192360 IEndB=      192360 NGot=  1073741824 MDV=  1073591865
 LenX=  1073591865 LenY=  1073565824
 Fock matrices will be formed incrementally for  20 cycles.

 Cycle   1  Pass 1  IDiag  1:
 FoFJK:  IHMeth= 1 ICntrl=     0 DoSepK=T KAlg= 1 I1Cent= 0 FoldK=F
 FoFCou: FMM=F IPFlag=           0 FMFlag=      100000 FMFlg1=           0
         NFxFlg=           0 DoJE=T BraDBF=F KetDBF=F FulRan=T
         Omega=  0.000000  0.000000  1.000000  0.000000  0.000000 ICntrl=     500 IOpCl=  0
         NMat0=    1 NMatS0=    1 NMatT0=    0 NMatD0=    1 NMtDS0=    0 NMtDT0=    0
         I1Cent=           0 NGrid=           0.
 Symmetry not used in FoFCou.
 E= -151.213412093580    
 DIIS: error= 1.28D-05 at cycle   1 NSaved=   1.
 NSaved= 1 IEnMin= 1 EnMin= -151.213412093580     IErMin= 1 ErrMin= 1.28D-05
 ErrMax= 1.28D-05 EMaxC= 1.00D-01 BMatC= 3.70D-08 BMatP= 3.70D-08
 IDIUse=1 WtCom= 1.00D+00 WtEn= 0.00D+00
 Coeff-Com:  0.100D+01
 Coeff:      0.100D+01
 Gap=     0.539 Goal=   None    Shift=    0.000
 RMSDP=1.16D-06 MaxDP=2.52D-05              OVMax= 5.47D-05

 Cycle   2  Pass 1  IDiag  1:
 RMSU=  8.22D-07    CP:  1.00D+00
 FoFJK:  IHMeth= 1 ICntrl=     0 DoSepK=T KAlg= 1 I1Cent= 0 FoldK=F
 E= -151.213412131752     Delta-E=       -0.000000038172 Rises=F Damp=F
 DIIS: error= 3.29D-06 at cycle   2 NSaved=   2.
 NSaved= 2 IEnMin= 2 EnMin= -151.213412131752     IErMin= 2 ErrMin= 3.29D-06
 ErrMax= 3.29D-06 EMaxC= 1.00D-01 BMatC= 2.22D-09 BMatP= 3.70D-08
 IDIUse=1 WtCom= 1.00D+00 WtEn= 0.00D+00
 Coeff-Com: -0.204D+00 0.120D+01
 Coeff:     -0.204D+00 0.120D+01
 Gap=     0.539 Goal=   None    Shift=    0.000
 RMSDP=4.03D-07 MaxDP=1.01D-05 DE=-3.82D-08 OVMax= 2.83D-05

 Cycle   3  Pass 1  IDiag  1:
 RMSU=  1.58D-07    CP:  1.00D+00  1.29D+00
 FoFJK:  IHMeth= 1 ICntrl=     0 DoSepK=T KAlg= 1 I1Cent= 0 FoldK=F
 E= -151.213412136435     Delta-E=       -0.000000004683 Rises=F Damp=F
 DIIS: error= 1.22D-06 at cycle   3 NSaved=   3.
 NSaved= 3 IEnMin= 3 EnMin= -151.213412136435     IErMin= 3 ErrMin= 1.22D-06
 ErrMax= 1.22D-06 EMaxC= 1.00D-01 BMatC= 2.40D-10 BMatP= 2.22D-09
 IDIUse=1 WtCom= 1.00D+00 WtEn= 0.00D+00
 Coeff-Com: -0.179D-01-0.623D-01 0.108D+01
 Coeff:     -0.179D-01-0.623D-01 0.108D+01
 Gap=     0.539 Goal=   None    Shift=    0.000
 RMSDP=1.31D-07 MaxDP=3.05D-06 DE=-4.68D-09 OVMax= 1.03D-05

 Cycle   4  Pass 1  IDiag  1:
 RMSU=  5.54D-08    CP:  1.00D+00  1.35D+00  1.34D+00
 FoFJK:  IHMeth= 1 ICntrl=     0 DoSepK=T KAlg= 1 I1Cent= 0 FoldK=F
 E= -151.213412136964     Delta-E=       -0.000000000529 Rises=F Damp=F
 DIIS: error= 6.10D-07 at cycle   4 NSaved=   4.
 NSaved= 4 IEnMin= 4 EnMin= -151.213412136964     IErMin= 4 ErrMin= 6.10D-07
 ErrMax= 6.10D-07 EMaxC= 1.00D-01 BMatC= 9.99D-11 BMatP= 2.40D-10
 IDIUse=1 WtCom= 1.00D+00 WtEn= 0.00D+00
 Coeff-Com:  0.292D-01-0.246D+00 0.433D+00 0.784D+00
 Coeff:      0.292D-01-0.246D+00 0.433D+00 0.784D+00
 Gap=     0.539 Goal=   None    Shift=    0.000
 RMSDP=6.26D-08 MaxDP=1.14D-06 DE=-5.29D-10 OVMax= 4.58D-06

 Cycle   5  Pass 1  IDiag  1:
 RMSU=  2.31D-08    CP:  1.00D+00  1.37D+00  1.56D+00  9.74D-01
 FoFJK:  IHMeth= 1 ICntrl=     0 DoSepK=T KAlg= 1 I1Cent= 0 FoldK=F
 E= -151.213412137113     Delta-E=       -0.000000000149 Rises=F Damp=F
 DIIS: error= 2.08D-07 at cycle   5 NSaved=   5.
 NSaved= 5 IEnMin= 5 EnMin= -151.213412137113     IErMin= 5 ErrMin= 2.08D-07
 ErrMax= 2.08D-07 EMaxC= 1.00D-01 BMatC= 7.01D-12 BMatP= 9.99D-11
 IDIUse=1 WtCom= 1.00D+00 WtEn= 0.00D+00
 Coeff-Com: -0.376D-03 0.304D-01-0.204D+00-0.644D-01 0.124D+01
 Coeff:     -0.376D-03 0.304D-01-0.204D+00-0.644D-01 0.124D+01
 Gap=     0.539 Goal=   None    Shift=    0.000
 RMSDP=3.20D-08 MaxDP=7.66D-07 DE=-1.49D-10 OVMax= 2.88D-06

 Cycle   6  Pass 1  IDiag  1:
 RMSU=  7.84D-09    CP:  1.00D+00  1.38D+00  1.64D+00  1.19D+00  1.50D+00
 FoFJK:  IHMeth= 1 ICntrl=     0 DoSepK=T KAlg= 1 I1Cent= 0 FoldK=F
 E= -151.213412137140     Delta-E=       -0.000000000027 Rises=F Damp=F
 DIIS: error= 7.68D-08 at cycle   6 NSaved=   6.
 NSaved= 6 IEnMin= 6 EnMin= -151.213412137140     IErMin= 6 ErrMin= 7.68D-08
 ErrMax= 7.68D-08 EMaxC= 1.00D-01 BMatC= 6.84D-13 BMatP= 7.01D-12
 IDIUse=1 WtCom= 1.00D+00 WtEn= 0.00D+00
 Coeff-Com: -0.238D-02 0.173D-01-0.144D-02-0.610D-01-0.227D+00 0.127D+01
 Coeff:     -0.238D-02 0.173D-01-0.144D-02-0.610D-01-0.227D+00 0.127D+01
 Gap=     0.539 Goal=   None    Shift=    0.000
 RMSDP=1.21D-08 MaxDP=2.62D-07 DE=-2.71D-11 OVMax= 1.23D-06

 Cycle   7  Pass 1  IDiag  1:
 RMSU=  2.78D-09    CP:  1.00D+00  1.38D+00  1.65D+00  1.23D+00  1.71D+00
                    CP:  1.69D+00
 FoFJK:  IHMeth= 1 ICntrl=     0 DoSepK=T KAlg= 1 I1Cent= 0 FoldK=F
 E= -151.213412137143     Delta-E=       -0.000000000003 Rises=F Damp=F
 DIIS: error= 3.61D-08 at cycle   7 NSaved=   7.
 NSaved= 7 IEnMin= 7 EnMin= -151.213412137143     IErMin= 7 ErrMin= 3.61D-08
 ErrMax= 3.61D-08 EMaxC= 1.00D-01 BMatC= 1.28D-13 BMatP= 6.84D-13
 IDIUse=1 WtCom= 1.00D+00 WtEn= 0.00D+00
 Coeff-Com:  0.260D-03-0.497D-02 0.244D-01 0.126D-01-0.140D+00-0.804D-01
 Coeff-Com:  0.119D+01
 Coeff:      0.260D-03-0.497D-02 0.244D-01 0.126D-01-0.140D+00-0.804D-01
 Coeff:      0.119D+01
 Gap=     0.539 Goal=   None    Shift=    0.000
 RMSDP=5.44D-09 MaxDP=9.29D-08 DE=-3.07D-12 OVMax= 5.61D-07

 SCF Done:  E(RLC-B+HF-LYP) =  -151.213412137     A.U. after    7 cycles
             Convg  =    0.5436D-08             -V/T =  2.0063
 KE= 1.502647567484D+02 PE=-4.315450453892D+02 EE= 9.345036453410D+01
 Leave Link  502 at Mon May 11 14:59:32 2020, MaxMem= 1073741824 cpu:      55.7
 (Enter /home/matheus/.gaussian/g09/l122.exe)
 Restoring MOs from calculation   5 to rwf.
 Counterpoise: doing MCBS calculation for fragment   2
 Leave Link  122 at Mon May 11 14:59:32 2020, MaxMem= 1073741824 cpu:       0.0
 (Enter /home/matheus/.gaussian/g09/l301.exe)
 Basis read from rwf:  (5D, 7F)
 No pseudopotential information found on rwf file.
 There are    59 symmetry adapted basis functions of A   symmetry.
 Integral buffers will be    131072 words long.
 Raffenetti 2 integral format.
 Two-electron integral symmetry is turned on.
    59 basis functions,   217 primitive gaussians,    69 cartesian basis functions
    18 alpha electrons       18 beta electrons
       nuclear repulsion energy         0.0000000000 Hartrees.
 IExCor=10402 DFT=T Ex=LC-B+HF Corr=LYP ExCW=0 ScaHFX=  1.000000
 ScaDFX=  1.000000  1.000000  1.000000  1.000000 ScalE2=  1.000000  1.000000
 IRadAn=      5 IRanWt=     -1 IRanGd=            0 ICorTp=0
  HFx wShort=  0.000000 wLong=  1.350000 cFull=  0.000000 cShort=  0.000000 cLong=  1.000000
  DFx wShort=  0.000000 wLong=  1.350000 cFull=  0.000000 cShort=  0.000000 cLong=  1.000000
 NAtoms=    5 NActive=    1 NUniq=    1 SFac= 1.00D+00 NAtFMM=   60 NAOKFM=F Big=F
 No density basis found on file   718.
 Leave Link  301 at Mon May 11 14:59:32 2020, MaxMem= 1073741824 cpu:       0.2
 (Enter /home/matheus/.gaussian/g09/l302.exe)
 NPDir=0 NMtPBC=     1 NCelOv=     1 NCel=       1 NClECP=     1 NCelD=      1
         NCelK=      1 NCelE2=     1 NClLst=     1 CellRange=     0.0.
 One-electron integrals computed using PRISM.
 NBasis=    59 RedAO= T  NBF=    59
 NBsUse=    59 1.00D-06 NBFU=    59
 Precomputing XC quadrature grid using
 IXCGrd= 2 IRadAn=           5 IRanWt=          -1 IRanGd=           0 AccXCQ= 0.00D+00.
 NRdTot=      81 NPtTot=       30352 NUsed=       30981 NTot=       31013
 NSgBfM=    69    69    69    69    69 NAtAll=     1     1.
 Leave Link  302 at Mon May 11 14:59:32 2020, MaxMem= 1073741824 cpu:       0.7
 (Enter /home/matheus/.gaussian/g09/l303.exe)
 DipDrv:  MaxL=1.
 Leave Link  303 at Mon May 11 14:59:32 2020, MaxMem= 1073741824 cpu:       0.1
 (Enter /home/matheus/.gaussian/g09/l401.exe)
 Initial guess read from the read-write file.
 Guess basis will be translated and rotated to current coordinates.
 Initial guess orbital symmetries:
       Occupied  (A) (A) (A) (A) (A) (A) (A) (A) (A) (A) (A) (A)
                 (A) (A) (A) (A) (A) (A)
       Virtual   (A) (A) (A) (A) (A) (A) (A) (A) (A) (A) (A) (A)
                 (A) (A) (A) (A) (A) (A) (A) (A) (A) (A) (A) (A)
                 (A) (A) (A) (A) (A) (A) (A) (A) (A) (A) (A) (A)
                 (A) (A) (A) (A) (A)
 The electronic state of the initial guess is 1-A.
 Generating alternative initial guess.
 Harris functional with IExCor=10402 diagonalized for initial guess.
 ExpMin= 4.00D-02 ExpMax= 1.17D+07 ExpMxC= 1.33D+04 IAcc=3 IRadAn=         5 AccDes= 0.00D+00
 HarFok:  IExCor=10402 AccDes= 0.00D+00 IRadAn=         5 IDoV= 1
 ScaDFX=  1.000000  1.000000  1.000000  1.000000
 FoFCou: FMM=F IPFlag=           0 FMFlag=      100000 FMFlg1=           0
         NFxFlg=           0 DoJE=T BraDBF=F KetDBF=T FulRan=T
         Omega=  0.000000  0.000000  1.000000  0.000000  0.000000 ICntrl=     500 IOpCl=  0
         NMat0=    1 NMatS0=    1 NMatT0=    0 NMatD0=    1 NMtDS0=    0 NMtDT0=    0
         I1Cent=           4 NGrid=           0.
 Petite list used in FoFCou.
 DSYEVD returned Info=          89 IAlg= 4 N=    59 NDim=    59 NE2=    18198841 trying DSYEV.
 Harris En= -2731.73388500824    
 Leave Link  401 at Mon May 11 14:59:32 2020, MaxMem= 1073741824 cpu:       1.0
 (Enter /home/matheus/.gaussian/g09/l502.exe)
 Closed shell SCF:
 Requested convergence on RMS density matrix=1.00D-08 within 128 cycles.
 Requested convergence on MAX density matrix=1.00D-06.
 Requested convergence on             energy=1.00D-06.
 No special actions if energy rises.
 Using DIIS extrapolation, IDIIS=  1040.
 Integral symmetry usage will be decided dynamically.
        30923 words used for storage of precomputed grid.
 IEnd=       64406 IEndB=       64406 NGot=  1073741824 MDV=  1073698889
 LenX=  1073698889 LenY=  1073693687
 Fock matrices will be formed incrementally for  20 cycles.

 Cycle   1  Pass 1  IDiag  1:
 FoFJK:  IHMeth= 1 ICntrl=     0 DoSepK=T KAlg= 1 I1Cent= 0 FoldK=F
 FoFCou: FMM=F IPFlag=           0 FMFlag=      100000 FMFlg1=           0
         NFxFlg=           0 DoJE=T BraDBF=F KetDBF=F FulRan=T
         Omega=  0.000000  0.000000  1.000000  0.000000  0.000000 ICntrl=     500 IOpCl=  0
         NMat0=    1 NMatS0=    1 NMatT0=    0 NMatD0=    1 NMtDS0=    0 NMtDT0=    0
         I1Cent=           0 NGrid=           0.
 Symmetry not used in FoFCou.
 E= -2753.40934852740    
 DIIS: error= 1.06D-13 at cycle   1 NSaved=   1.
 NSaved= 1 IEnMin= 1 EnMin= -2753.40934852740     IErMin= 1 ErrMin= 1.06D-13
 ErrMax= 1.06D-13 EMaxC= 1.00D-01 BMatC= 3.12D-25 BMatP= 3.12D-25
 IDIUse=1 WtCom= 1.00D+00 WtEn= 0.00D+00
 Coeff-Com:  0.100D+01
 Coeff:      0.100D+01
 Gap=     0.640 Goal=   None    Shift=    0.000
 DSYEVD returned Info=          89 IAlg= 4 N=    59 NDim=    59 NE2=    18198197 trying DSYEV.
 RMSDP=4.35D-15 MaxDP=5.57D-14              OVMax= 1.81D-14

 SCF Done:  E(RLC-B+HF-LYP) =  -2753.40934853     A.U. after    1 cycles
             Convg  =    0.4346D-14             -V/T =  2.0014
 KE= 2.749695852517D+03 PE=-6.579489077514D+03 EE= 1.076383876470D+03
 Leave Link  502 at Mon May 11 14:59:33 2020, MaxMem= 1073741824 cpu:      11.3
 (Enter /home/matheus/.gaussian/g09/l122.exe)
 Restoring MOs from calculation   1 to rwf.
 Counterpoise: corrected energy =   -2904.622826617533
 Counterpoise: BSSE energy =       0.000031395265
 Leave Link  122 at Mon May 11 14:59:33 2020, MaxMem= 1073741824 cpu:       0.0
 (Enter /home/matheus/.gaussian/g09/l108.exe)
 Scan completed.

 Summary of the potential surface scan:
   N      R1          SCF    
 ----  ---------  -----------
    1     3.0000  -2753.40935
    2     3.1000  -2753.40935
    3     3.2000  -2753.40935
    4     3.3000  -2753.40935
    5     3.4000  -2753.40935
    6     3.5000  -2753.40935
    7     3.6000  -2753.40935
    8     3.7000  -2753.40935
    9     3.8000  -2753.40935
   10     3.9000  -2753.40935
   11     4.0000  -2753.40935
   12     4.1000  -2753.40935
   13     4.2000  -2753.40935
   14     4.3000  -2753.40935
   15     4.4000  -2753.40935
   16     4.5000  -2753.40935
   17     4.6000  -2753.40935
   18     4.7000  -2753.40935
   19     4.8000  -2753.40935
   20     4.9000  -2753.40935
   21     5.0000  -2753.40935
 ----  ---------  -----------
  
 Leave Link  108 at Mon May 11 14:59:33 2020, MaxMem= 1073741824 cpu:       0.0
 (Enter /home/matheus/.gaussian/g09/l9999.exe)

 Test job not archived.
 1\1\GINC-REDGIANT\Scan\RLC-BLYP\Aug-CC-pVTZ\H2Kr1O2\MATHEUS\11-May-202
 0\1\\#p lc-blyp/aug-cc-PVTz iop(3/107=1350000000) iop(3/108=1350000000
 ) int=ultrafine counterpoise=2 Scan\\TCC\\0,1\O,0,0.,0.,0.725\O,0,0.,0
 .,-0.725\H,0,0.8633149634,-0.3142209495,1.0235104166\H,0,0.,0.91872059
 47,-1.0235104166\Kr,0,0.,R1,0.\\R1=3.,s,20,0.1\\Version=EM64L-G09RevC.
 01\State=1-A\HF=-2753.4093485,-2753.4093485,-2753.4093485,-2753.409348
 5,-2753.4093485,-2753.4093485,-2753.4093485,-2753.4093485,-2753.409348
 5,-2753.4093485,-2753.4093485,-2753.4093485,-2753.4093485,-2753.409348
 5,-2753.4093485,-2753.4093485,-2753.4093485,-2753.4093485,-2753.409348
 5,-2753.4093485,-2753.4093485\RMSD=5.461e-09,3.089e-10,7.451e-11,2.035
 e-11,7.195e-12,3.149e-12,1.457e-12,6.886e-13,3.226e-13,1.519e-13,6.813
 e-14,3.125e-14,1.730e-14,7.960e-15,6.533e-15,8.460e-15,6.151e-15,3.244
 e-15,5.926e-15,7.788e-15,4.346e-15\PG=C01 [X(H2Kr1O2)]\\@


 DO YOU KNOW THAT THE LETTERS IN "EPISCOPAL", WHEN
 REARRANGED, SPELL "PEPSI COLA"?
 Job cpu time:  0 days  3 hours 16 minutes 51.7 seconds.
 File lengths (MBytes):  RWF=     33 Int=      0 D2E=      0 Chk=      8 Scr=      1
 Normal termination of Gaussian 09 at Mon May 11 14:59:33 2020.
