 Entering Gaussian System, Link 0=g09
 Input=/home/matheus/.tcc/Inputs/Inputs-lc-blyp/H2O2-Kr_35.com
 Output=/home/matheus/.tcc/Logs/Logs-lc-blyp/H2O2-Kr_35.log
 Initial command:
 /home/matheus/.gaussian/g09/l1.exe /home/matheus/.gaussian/g09/scratch/Gau-27559.inp -scrdir=/home/matheus/.gaussian/g09/scratch/
 Entering Link 1 = /home/matheus/.gaussian/g09/l1.exe PID=     27562.
  
 Copyright (c) 1988,1990,1992,1993,1995,1998,2003,2009,2011,
            Gaussian, Inc.  All Rights Reserved.
  
 This is part of the Gaussian(R) 09 program.  It is based on
 the Gaussian(R) 03 system (copyright 2003, Gaussian, Inc.),
 the Gaussian(R) 98 system (copyright 1998, Gaussian, Inc.),
 the Gaussian(R) 94 system (copyright 1995, Gaussian, Inc.),
 the Gaussian 92(TM) system (copyright 1992, Gaussian, Inc.),
 the Gaussian 90(TM) system (copyright 1990, Gaussian, Inc.),
 the Gaussian 88(TM) system (copyright 1988, Gaussian, Inc.),
 the Gaussian 86(TM) system (copyright 1986, Carnegie Mellon
 University), and the Gaussian 82(TM) system (copyright 1983,
 Carnegie Mellon University). Gaussian is a federally registered
 trademark of Gaussian, Inc.
  
 This software contains proprietary and confidential information,
 including trade secrets, belonging to Gaussian, Inc.
  
 This software is provided under written license and may be
 used, copied, transmitted, or stored only in accord with that
 written license.
  
 The following legend is applicable only to US Government
 contracts under FAR:
  
                    RESTRICTED RIGHTS LEGEND
  
 Use, reproduction and disclosure by the US Government is
 subject to restrictions as set forth in subparagraphs (a)
 and (c) of the Commercial Computer Software - Restricted
 Rights clause in FAR 52.227-19.
  
 Gaussian, Inc.
 340 Quinnipiac St., Bldg. 40, Wallingford CT 06492
  
  
 ---------------------------------------------------------------
 Warning -- This program may not be used in any manner that
 competes with the business of Gaussian, Inc. or will provide
 assistance to any competitor of Gaussian, Inc.  The licensee
 of this program is prohibited from giving any competitor of
 Gaussian, Inc. access to this program.  By using this program,
 the user acknowledges that Gaussian, Inc. is engaged in the
 business of creating and licensing software in the field of
 computational chemistry and represents and warrants to the
 licensee that it is not a competitor of Gaussian, Inc. and that
 it will not use this program in any manner prohibited above.
 ---------------------------------------------------------------
  

 Cite this work as:
 Gaussian 09, Revision C.01,
 M. J. Frisch, G. W. Trucks, H. B. Schlegel, G. E. Scuseria, 
 M. A. Robb, J. R. Cheeseman, G. Scalmani, V. Barone, B. Mennucci, 
 G. A. Petersson, H. Nakatsuji, M. Caricato, X. Li, H. P. Hratchian, 
 A. F. Izmaylov, J. Bloino, G. Zheng, J. L. Sonnenberg, M. Hada, 
 M. Ehara, K. Toyota, R. Fukuda, J. Hasegawa, M. Ishida, T. Nakajima, 
 Y. Honda, O. Kitao, H. Nakai, T. Vreven, J. A. Montgomery, Jr., 
 J. E. Peralta, F. Ogliaro, M. Bearpark, J. J. Heyd, E. Brothers, 
 K. N. Kudin, V. N. Staroverov, T. Keith, R. Kobayashi, J. Normand, 
 K. Raghavachari, A. Rendell, J. C. Burant, S. S. Iyengar, J. Tomasi, 
 M. Cossi, N. Rega, J. M. Millam, M. Klene, J. E. Knox, J. B. Cross, 
 V. Bakken, C. Adamo, J. Jaramillo, R. Gomperts, R. E. Stratmann, 
 O. Yazyev, A. J. Austin, R. Cammi, C. Pomelli, J. W. Ochterski, 
 R. L. Martin, K. Morokuma, V. G. Zakrzewski, G. A. Voth, 
 P. Salvador, J. J. Dannenberg, S. Dapprich, A. D. Daniels, 
 O. Farkas, J. B. Foresman, J. V. Ortiz, J. Cioslowski, 
 and D. J. Fox, Gaussian, Inc., Wallingford CT, 2010.
 
 ******************************************
 Gaussian 09:  EM64L-G09RevC.01 23-Sep-2011
                12-May-2020 
 ******************************************
 %mem=8GB
 %nproc=8
 Will use up to    8 processors via shared memory.
 ----------------------------------------------------------------------
 #p lc-blyp/aug-cc-PVTz iop(3/107=1350000000) iop(3/108=1350000000) int
 =ultrafine counterpoise=2 Scan
 ----------------------------------------------------------------------
 1/38=1,60=1,62=2/1,8;
 2/12=2,17=6,18=5,29=3,40=1/2;
 1/38=1,53=5172,62=2/22;
 3/5=16,6=1,7=10,11=2,16=1,25=1,30=1,74=1000402,75=-5,107=1350000000,108=1350000000/1,2,3;
 4//1;
 5/5=2,38=5/2;
 6/7=2,8=2,9=2,10=2,18=1,28=1/1;
 1/53=4052,62=2,63=1/22;
 3/5=7,6=11,7=10,11=2,16=1,25=1,30=1,74=1000402,75=-5,82=7,107=1350000000,108=1350000000/1,2,3;
 4//1;
 5/5=2,38=5/2;
 6/7=2,8=2,9=2,10=2,18=1,28=1/1;
 1/53=3042,62=2,63=2/22;
 3/5=7,6=11,7=10,11=2,16=1,25=1,30=1,74=1000402,75=-5,82=7,107=1350000000,108=1350000000/1,2,3;
 4//1;
 5/5=2,38=5/2;
 6/7=2,8=2,9=2,10=2,18=1,28=1/1;
 1/53=2032,62=2,63=3/22;
 3/5=7,6=11,7=10,11=2,16=1,25=1,30=1,74=1000402,75=-5,82=7,107=1350000000,108=1350000000/1,2,3;
 4//1;
 5/5=2,38=5/2;
 6/7=2,8=2,9=2,10=2,18=1,28=1/1;
 1/53=1022,62=2,63=4/22;
 3/5=7,6=11,7=10,11=2,16=1,25=1,30=1,74=1000402,75=-5,82=7,107=1350000000,108=1350000000/1,2,3;
 4//1;
 5/5=2,38=5/2;
 6/7=2,8=2,9=2,10=2,18=1,28=1/1;
 1/53=5014,62=2,63=5/22;
 1/60=1,62=2/8(1);
 99/9=1/99;
 2/29=3/2;
 1/53=5173,62=2/22;
 3/5=7,6=11,7=10,11=2,16=1,25=1,30=1,74=1000402,75=-5,82=7,107=1350000000,108=1350000000/1,2,3;
 4/5=5,16=3/1;
 5/5=2,38=5/2;
 1/53=4053,62=2,63=1/22;
 3/5=7,6=11,7=10,11=2,16=1,25=1,30=1,74=1000402,75=-5,82=7,107=1350000000,108=1350000000/1,2,3;
 4/5=5,16=3/1;
 5/5=2,38=5/2;
 1/53=3043,62=2,63=2/22;
 3/5=7,6=11,7=10,11=2,16=1,25=1,30=1,74=1000402,75=-5,82=7,107=1350000000,108=1350000000/1,2,3;
 4/5=5,16=3/1;
 5/5=2,38=5/2;
 1/53=2033,62=2,63=3/22;
 3/5=7,6=11,7=10,11=2,16=1,25=1,30=1,74=1000402,75=-5,82=7,107=1350000000,108=1350000000/1,2,3;
 4/5=5,16=3/1;
 5/5=2,38=5/2;
 1/53=1024,62=2,63=4/22;
 3/5=7,6=11,7=10,11=2,16=1,25=1,30=1,74=1000402,75=-5,82=7,107=1350000000,108=1350000000/1,2,3;
 4/5=5,16=3/1;
 5/5=2,38=5/2;
 1/53=5014,62=2,63=5/22;
 1/60=1,62=2/8(-22);
 99/9=1/99;
 Leave Link    1 at Tue May 12 00:38:09 2020, MaxMem= 1073741824 cpu:       0.1
 (Enter /home/matheus/.gaussian/g09/l101.exe)
 ---
 TCC
 ---
 Charge =  0 Multiplicity = 1 in supermolecule
 Charge =  0 Multiplicity = 1 in fragment  1.
 Charge =  0 Multiplicity = 1 in fragment  2.
 Symbolic Z-Matrix:
 O(Fragment=1)         0.        0.        0.725 
 O(Fragment=1)         0.        0.       -0.725 
 H(Fragment=1)        -0.15953   0.90476   1.02351 
 H(Fragment=1)         0.        0.91872  -1.02351 
 Kr(Fragment=2)        0.       R1        0. 
       Variables:
  R1                    3.     Scan 20    0.1    
 
 NAtoms=      5 NQM=        0 NQMF=       0 NMMI=      5 NMMIF=      0
                NMic=       0 NMicF=      0.
                    Isotopes and Nuclear Properties:
 (Nuclear quadrupole moments (NQMom) in fm**2, nuclear magnetic moments (NMagM)
  in nuclear magnetons)

  Atom         1           2           3           4           5
 IAtWgt=          16          16           1           1          84
 AtmWgt=  15.9949146  15.9949146   1.0078250   1.0078250  83.9115064
 NucSpn=           0           0           1           1           0
 AtZEff=   0.0000000   0.0000000   0.0000000   0.0000000   0.0000000
 NQMom=    0.0000000   0.0000000   0.0000000   0.0000000   0.0000000
 NMagM=    0.0000000   0.0000000   2.7928460   2.7928460   0.0000000
 Leave Link  101 at Tue May 12 00:38:09 2020, MaxMem= 1073741824 cpu:       0.3
 (Enter /home/matheus/.gaussian/g09/l108.exe)
 Scan the potential surface.
 Variable   Value     No. Steps Step-Size
 -------- ----------- --------- ---------
     1       3.000000      20      0.1000
 A total of     21 points will be computed.
 Leave Link  108 at Tue May 12 00:38:09 2020, MaxMem= 1073741824 cpu:       0.0
 (Enter /home/matheus/.gaussian/g09/l202.exe)
 ---------------------------------------------------------------------------------------------------
                            Z-MATRIX (ANGSTROMS AND DEGREES)
   CD    Cent   Atom    N1       Length/X        N2       Alpha/Y        N3        Beta/Z          J
 ---------------------------------------------------------------------------------------------------
      1      1  O        0   0.000000          0.000000          0.725000
      2      2  O        0   0.000000          0.000000         -0.725000
      3      3  H        0  -0.159534          0.904763          1.023510
      4      4  H        0   0.000000          0.918721         -1.023510
      5      5  Kr       0   0.000000          3.000000          0.000000
 ---------------------------------------------------------------------------------------------------
                         Z-Matrix orientation:                         
 ---------------------------------------------------------------------
 Center     Atomic      Atomic             Coordinates (Angstroms)
 Number     Number       Type             X           Y           Z
 ---------------------------------------------------------------------
      1          8           0        0.000000    0.000000    0.725000
      2          8           0        0.000000    0.000000   -0.725000
      3          1           0       -0.159534    0.904763    1.023510
      4          1           0        0.000000    0.918721   -1.023510
      5         36           0        0.000000    3.000000    0.000000
 ---------------------------------------------------------------------
                    Distance matrix (angstroms):
                    1          2          3          4          5
     1  O    0.000000
     2  O    1.450000   0.000000
     3  H    0.966000   1.975180   0.000000
     4  H    1.975180   0.966000   2.053275   0.000000
     5  Kr   3.086361   3.086361   2.337315   2.319331   0.000000
 Stoichiometry    H2KrO2
 Framework group  C1[X(H2KrO2)]
 Deg. of freedom     9
 Full point group                 C1      NOp   1
 Largest Abelian subgroup         C1      NOp   1
 Largest concise Abelian subgroup C1      NOp   1
                         Standard orientation:                         
 ---------------------------------------------------------------------
 Center     Atomic      Atomic             Coordinates (Angstroms)
 Number     Number       Type             X           Y           Z
 ---------------------------------------------------------------------
      1          8           0       -2.033875   -0.724487   -0.017820
      2          8           0       -2.033645    0.725337    0.004759
      3          1           0       -1.129442   -1.025614    0.138637
      4          1           0       -1.114878    1.023640    0.011023
      5         36           0        0.966235   -0.000134   -0.001255
 ---------------------------------------------------------------------
 Rotational constants (GHZ):     26.6670558      2.3882151      2.1923671
 Leave Link  202 at Tue May 12 00:38:09 2020, MaxMem= 1073741824 cpu:       0.0
 (Enter /home/matheus/.gaussian/g09/l122.exe)
 Leave Link  122 at Tue May 12 00:38:09 2020, MaxMem= 1073741824 cpu:       0.0
 (Enter /home/matheus/.gaussian/g09/l301.exe)
 Standard basis: Aug-CC-pVTZ (5D, 7F)
 Ernie: Thresh=  0.10000D-02 Tol=  0.10000D-05 Strict=F.
 Ernie:  38 primitive shells out of 205 were deleted.
 There are   197 symmetry adapted basis functions of A   symmetry.
 Integral buffers will be    131072 words long.
 Raffenetti 2 integral format.
 Two-electron integral symmetry is turned on.
   197 basis functions,   415 primitive gaussians,   229 cartesian basis functions
    27 alpha electrons       27 beta electrons
       nuclear repulsion energy       151.7892858201 Hartrees.
 IExCor=10402 DFT=T Ex=LC-B+HF Corr=LYP ExCW=0 ScaHFX=  1.000000
 ScaDFX=  1.000000  1.000000  1.000000  1.000000 ScalE2=  1.000000  1.000000
 IRadAn=      5 IRanWt=     -1 IRanGd=            0 ICorTp=0
  HFx wShort=  0.000000 wLong=  1.350000 cFull=  0.000000 cShort=  0.000000 cLong=  1.000000
  DFx wShort=  0.000000 wLong=  1.350000 cFull=  0.000000 cShort=  0.000000 cLong=  1.000000
 NAtoms=    5 NActive=    5 NUniq=    5 SFac= 1.00D+00 NAtFMM=   60 NAOKFM=F Big=F
 Leave Link  301 at Tue May 12 00:38:09 2020, MaxMem= 1073741824 cpu:       0.2
 (Enter /home/matheus/.gaussian/g09/l302.exe)
 NPDir=0 NMtPBC=     1 NCelOv=     1 NCel=       1 NClECP=     1 NCelD=      1
         NCelK=      1 NCelE2=     1 NClLst=     1 CellRange=     0.0.
 One-electron integrals computed using PRISM.
 NBasis=   197 RedAO= T  NBF=   197
 NBsUse=   197 1.00D-06 NBFU=   197
 Precomputing XC quadrature grid using
 IXCGrd= 2 IRadAn=           5 IRanWt=          -1 IRanGd=           0 AccXCQ= 0.00D+00.
 NRdTot=     427 NPtTot=      123512 NUsed=      126579 NTot=      126611
 NSgBfM=   229   229   229   229   229 NAtAll=     5     5.
 Leave Link  302 at Tue May 12 00:38:09 2020, MaxMem= 1073741824 cpu:       1.0
 (Enter /home/matheus/.gaussian/g09/l303.exe)
 DipDrv:  MaxL=1.
 Leave Link  303 at Tue May 12 00:38:09 2020, MaxMem= 1073741824 cpu:       0.2
 (Enter /home/matheus/.gaussian/g09/l401.exe)
 Harris functional with IExCor=10402 diagonalized for initial guess.
 ExpMin= 2.53D-02 ExpMax= 1.17D+07 ExpMxC= 1.33D+04 IAcc=3 IRadAn=         5 AccDes= 0.00D+00
 HarFok:  IExCor=10402 AccDes= 0.00D+00 IRadAn=         5 IDoV= 1
 ScaDFX=  1.000000  1.000000  1.000000  1.000000
 FoFCou: FMM=F IPFlag=           0 FMFlag=      100000 FMFlg1=           0
         NFxFlg=           0 DoJE=T BraDBF=F KetDBF=T FulRan=T
         Omega=  0.000000  0.000000  1.000000  0.000000  0.000000 ICntrl=     500 IOpCl=  0
         NMat0=    1 NMatS0=    1 NMatT0=    0 NMatD0=    1 NMtDS0=    0 NMtDT0=    0
         I1Cent=           4 NGrid=           0.
 Petite list used in FoFCou.
 Harris En= -2874.90569302759    
 Initial guess orbital symmetries:
       Occupied  (A) (A) (A) (A) (A) (A) (A) (A) (A) (A) (A) (A)
                 (A) (A) (A) (A) (A) (A) (A) (A) (A) (A) (A) (A)
                 (A) (A) (A)
       Virtual   (A) (A) (A) (A) (A) (A) (A) (A) (A) (A) (A) (A)
                 (A) (A) (A) (A) (A) (A) (A) (A) (A) (A) (A) (A)
                 (A) (A) (A) (A) (A) (A) (A) (A) (A) (A) (A) (A)
                 (A) (A) (A) (A) (A) (A) (A) (A) (A) (A) (A) (A)
                 (A) (A) (A) (A) (A) (A) (A) (A) (A) (A) (A) (A)
                 (A) (A) (A) (A) (A) (A) (A) (A) (A) (A) (A) (A)
                 (A) (A) (A) (A) (A) (A) (A) (A) (A) (A) (A) (A)
                 (A) (A) (A) (A) (A) (A) (A) (A) (A) (A) (A) (A)
                 (A) (A) (A) (A) (A) (A) (A) (A) (A) (A) (A) (A)
                 (A) (A) (A) (A) (A) (A) (A) (A) (A) (A) (A) (A)
                 (A) (A) (A) (A) (A) (A) (A) (A) (A) (A) (A) (A)
                 (A) (A) (A) (A) (A) (A) (A) (A) (A) (A) (A) (A)
                 (A) (A) (A) (A) (A) (A) (A) (A) (A) (A) (A) (A)
                 (A) (A) (A) (A) (A) (A) (A) (A) (A) (A) (A) (A)
                 (A) (A)
 The electronic state of the initial guess is 1-A.
 Leave Link  401 at Tue May 12 00:38:10 2020, MaxMem= 1073741824 cpu:       4.5
 (Enter /home/matheus/.gaussian/g09/l502.exe)
 Closed shell SCF:
 Requested convergence on RMS density matrix=1.00D-08 within 128 cycles.
 Requested convergence on MAX density matrix=1.00D-06.
 Requested convergence on             energy=1.00D-06.
 No special actions if energy rises.
 Using DIIS extrapolation, IDIIS=  1040.
 Integral symmetry usage will be decided dynamically.
       126521 words used for storage of precomputed grid.
 IEnd=      305468 IEndB=      305468 NGot=  1073741824 MDV=  1073505667
 LenX=  1073505667 LenY=  1073452785
 Fock matrices will be formed incrementally for  20 cycles.

 Cycle   1  Pass 1  IDiag  1:
 FoFJK:  IHMeth= 1 ICntrl=     0 DoSepK=T KAlg= 1 I1Cent= 0 FoldK=F
 FoFCou: FMM=F IPFlag=           0 FMFlag=      100000 FMFlg1=           0
         NFxFlg=           0 DoJE=T BraDBF=F KetDBF=F FulRan=T
         Omega=  0.000000  0.000000  1.000000  0.000000  0.000000 ICntrl=     500 IOpCl=  0
         NMat0=    1 NMatS0=    1 NMatT0=    0 NMatD0=    1 NMtDS0=    0 NMtDT0=    0
         I1Cent=           0 NGrid=           0.
 Symmetry not used in FoFCou.
 E= -2900.78170914688    
 DIIS: error= 1.24D-01 at cycle   1 NSaved=   1.
 NSaved= 1 IEnMin= 1 EnMin= -2900.78170914688     IErMin= 1 ErrMin= 1.24D-01
 ErrMax= 1.24D-01 EMaxC= 1.00D-01 BMatC= 3.42D+00 BMatP= 3.42D+00
 IDIUse=3 WtCom= 0.00D+00 WtEn= 1.00D+00
 Coeff-Com:  0.100D+01
 Coeff-En:   0.100D+01
 Coeff:      0.100D+01
 Gap=     0.097 Goal=   None    Shift=    0.000
 GapD=    0.097 DampG=0.500 DampE=0.250 DampFc=0.2500 IDamp=-1.
 Damping current iteration by 2.50D-01
 RMSDP=5.37D-02 MaxDP=2.24D+00              OVMax= 1.00D+00

 Cycle   2  Pass 1  IDiag  1:
 RMSU=  4.19D-03    CP:  7.93D-01
 FoFJK:  IHMeth= 1 ICntrl=     0 DoSepK=T KAlg= 1 I1Cent= 0 FoldK=F
 E= -2902.01075011831     Delta-E=       -1.229040971433 Rises=F Damp=T
 DIIS: error= 5.63D-02 at cycle   2 NSaved=   2.
 NSaved= 2 IEnMin= 2 EnMin= -2902.01075011831     IErMin= 2 ErrMin= 5.63D-02
 ErrMax= 5.63D-02 EMaxC= 1.00D-01 BMatC= 9.66D-01 BMatP= 3.42D+00
 IDIUse=3 WtCom= 4.37D-01 WtEn= 5.63D-01
 Coeff-Com: -0.789D+00 0.179D+01
 Coeff-En:   0.000D+00 0.100D+01
 Coeff:     -0.345D+00 0.134D+01
 Gap=     0.121 Goal=   None    Shift=    0.000
 RMSDP=4.01D-02 MaxDP=1.68D+00 DE=-1.23D+00 OVMax= 8.96D-01

 Cycle   3  Pass 1  IDiag  1:
 RMSU=  5.63D-03    CP:  1.77D-01  3.00D+00
 FoFJK:  IHMeth= 1 ICntrl=     0 DoSepK=T KAlg= 1 I1Cent= 0 FoldK=F
 E= -2904.42850724946     Delta-E=       -2.417757131142 Rises=F Damp=F
 DIIS: error= 2.38D-02 at cycle   3 NSaved=   3.
 NSaved= 3 IEnMin= 3 EnMin= -2904.42850724946     IErMin= 3 ErrMin= 2.38D-02
 ErrMax= 2.38D-02 EMaxC= 1.00D-01 BMatC= 3.29D-01 BMatP= 9.66D-01
 IDIUse=3 WtCom= 7.62D-01 WtEn= 2.38D-01
 Coeff-Com: -0.704D-01 0.457D+00 0.614D+00
 Coeff-En:   0.000D+00 0.000D+00 0.100D+01
 Coeff:     -0.536D-01 0.348D+00 0.706D+00
 Gap=     0.565 Goal=   None    Shift=    0.000
 RMSDP=2.02D-03 MaxDP=8.59D-02 DE=-2.42D+00 OVMax= 6.78D-02

 Cycle   4  Pass 1  IDiag  1:
 RMSU=  1.42D-03    CP:  1.74D-01  3.00D+00  9.71D-01
 FoFJK:  IHMeth= 1 ICntrl=     0 DoSepK=T KAlg= 1 I1Cent= 0 FoldK=F
 E= -2904.60536146822     Delta-E=       -0.176854218765 Rises=F Damp=F
 DIIS: error= 3.82D-03 at cycle   4 NSaved=   4.
 NSaved= 4 IEnMin= 4 EnMin= -2904.60536146822     IErMin= 4 ErrMin= 3.82D-03
 ErrMax= 3.82D-03 EMaxC= 1.00D-01 BMatC= 5.98D-03 BMatP= 3.29D-01
 IDIUse=3 WtCom= 9.62D-01 WtEn= 3.82D-02
 Coeff-Com: -0.447D-02 0.182D-01 0.439D-01 0.942D+00
 Coeff-En:   0.000D+00 0.000D+00 0.000D+00 0.100D+01
 Coeff:     -0.430D-02 0.175D-01 0.422D-01 0.945D+00
 Gap=     0.493 Goal=   None    Shift=    0.000
 RMSDP=5.64D-04 MaxDP=2.17D-02 DE=-1.77D-01 OVMax= 1.56D-02

 Cycle   5  Pass 1  IDiag  1:
 RMSU=  3.73D-04    CP:  1.74D-01  3.00D+00  9.76D-01  1.10D+00
 FoFJK:  IHMeth= 1 ICntrl=     0 DoSepK=T KAlg= 1 I1Cent= 0 FoldK=F
 E= -2904.61005409648     Delta-E=       -0.004692628257 Rises=F Damp=F
 DIIS: error= 1.68D-03 at cycle   5 NSaved=   5.
 NSaved= 5 IEnMin= 5 EnMin= -2904.61005409648     IErMin= 5 ErrMin= 1.68D-03
 ErrMax= 1.68D-03 EMaxC= 1.00D-01 BMatC= 2.87D-04 BMatP= 5.98D-03
 IDIUse=3 WtCom= 9.83D-01 WtEn= 1.68D-02
 Coeff-Com: -0.134D-01 0.216D-01-0.330D-02-0.118D-01 0.101D+01
 Coeff-En:   0.000D+00 0.000D+00 0.000D+00 0.000D+00 0.100D+01
 Coeff:     -0.132D-01 0.212D-01-0.325D-02-0.116D-01 0.101D+01
 Gap=     0.504 Goal=   None    Shift=    0.000
 RMSDP=1.11D-04 MaxDP=1.83D-03 DE=-4.69D-03 OVMax= 5.89D-03

 Cycle   6  Pass 1  IDiag  1:
 RMSU=  6.71D-05    CP:  1.74D-01  3.00D+00  9.78D-01  1.11D+00  1.09D+00
 FoFJK:  IHMeth= 1 ICntrl=     0 DoSepK=T KAlg= 1 I1Cent= 0 FoldK=F
 E= -2904.61037419267     Delta-E=       -0.000320096192 Rises=F Damp=F
 DIIS: error= 5.30D-04 at cycle   6 NSaved=   6.
 NSaved= 6 IEnMin= 6 EnMin= -2904.61037419267     IErMin= 6 ErrMin= 5.30D-04
 ErrMax= 5.30D-04 EMaxC= 1.00D-01 BMatC= 2.88D-05 BMatP= 2.87D-04
 IDIUse=3 WtCom= 9.95D-01 WtEn= 5.30D-03
 Coeff-Com: -0.385D-02 0.596D-02-0.582D-02-0.260D-01-0.953D-01 0.113D+01
 Coeff-En:   0.000D+00 0.000D+00 0.000D+00 0.000D+00 0.000D+00 0.100D+01
 Coeff:     -0.383D-02 0.593D-02-0.579D-02-0.259D-01-0.948D-01 0.112D+01
 Gap=     0.507 Goal=   None    Shift=    0.000
 RMSDP=3.56D-05 MaxDP=1.07D-03 DE=-3.20D-04 OVMax= 2.45D-03

 Cycle   7  Pass 1  IDiag  1:
 RMSU=  1.37D-05    CP:  1.74D-01  3.00D+00  9.77D-01  1.12D+00  1.13D+00
                    CP:  1.13D+00
 FoFJK:  IHMeth= 1 ICntrl=     0 DoSepK=T KAlg= 1 I1Cent= 0 FoldK=F
 E= -2904.61041980364     Delta-E=       -0.000045610973 Rises=F Damp=F
 DIIS: error= 1.00D-04 at cycle   7 NSaved=   7.
 NSaved= 7 IEnMin= 7 EnMin= -2904.61041980364     IErMin= 7 ErrMin= 1.00D-04
 ErrMax= 1.00D-04 EMaxC= 1.00D-01 BMatC= 1.69D-06 BMatP= 2.88D-05
 IDIUse=3 WtCom= 9.99D-01 WtEn= 1.00D-03
 Coeff-Com:  0.216D-03-0.487D-03-0.109D-02-0.253D-02-0.428D-01 0.181D-01
 Coeff-Com:  0.103D+01
 Coeff-En:   0.000D+00 0.000D+00 0.000D+00 0.000D+00 0.000D+00 0.000D+00
 Coeff-En:   0.100D+01
 Coeff:      0.215D-03-0.487D-03-0.109D-02-0.252D-02-0.428D-01 0.181D-01
 Coeff:      0.103D+01
 Gap=     0.508 Goal=   None    Shift=    0.000
 RMSDP=9.91D-06 MaxDP=4.35D-04 DE=-4.56D-05 OVMax= 5.54D-04

 Cycle   8  Pass 1  IDiag  1:
 RMSU=  4.48D-06    CP:  1.74D-01  3.00D+00  9.77D-01  1.12D+00  1.14D+00
                    CP:  1.15D+00  1.24D+00
 FoFJK:  IHMeth= 1 ICntrl=     0 DoSepK=T KAlg= 1 I1Cent= 0 FoldK=F
 E= -2904.61042265065     Delta-E=       -0.000002847006 Rises=F Damp=F
 DIIS: error= 2.97D-05 at cycle   8 NSaved=   8.
 NSaved= 8 IEnMin= 8 EnMin= -2904.61042265065     IErMin= 8 ErrMin= 2.97D-05
 ErrMax= 2.97D-05 EMaxC= 1.00D-01 BMatC= 2.17D-07 BMatP= 1.69D-06
 IDIUse=1 WtCom= 1.00D+00 WtEn= 0.00D+00
 Coeff-Com:  0.460D-03-0.762D-03 0.316D-03 0.933D-03 0.190D-02-0.657D-01
 Coeff-Com:  0.173D+00 0.889D+00
 Coeff:      0.460D-03-0.762D-03 0.316D-03 0.933D-03 0.190D-02-0.657D-01
 Coeff:      0.173D+00 0.889D+00
 Gap=     0.508 Goal=   None    Shift=    0.000
 RMSDP=2.50D-06 MaxDP=1.28D-04 DE=-2.85D-06 OVMax= 1.43D-04

 Cycle   9  Pass 1  IDiag  1:
 RMSU=  1.28D-06    CP:  1.74D-01  3.00D+00  9.77D-01  1.12D+00  1.14D+00
                    CP:  1.15D+00  1.30D+00  1.18D+00
 FoFJK:  IHMeth= 1 ICntrl=     0 DoSepK=T KAlg= 1 I1Cent= 0 FoldK=F
 E= -2904.61042289644     Delta-E=       -0.000000245788 Rises=F Damp=F
 DIIS: error= 1.30D-05 at cycle   9 NSaved=   9.
 NSaved= 9 IEnMin= 9 EnMin= -2904.61042289644     IErMin= 9 ErrMin= 1.30D-05
 ErrMax= 1.30D-05 EMaxC= 1.00D-01 BMatC= 5.74D-08 BMatP= 2.17D-07
 IDIUse=1 WtCom= 1.00D+00 WtEn= 0.00D+00
 Coeff-Com:  0.246D-03-0.389D-03 0.280D-03 0.625D-03 0.379D-02-0.169D-01
 Coeff-Com: -0.483D-01 0.283D+00 0.777D+00
 Coeff:      0.246D-03-0.389D-03 0.280D-03 0.625D-03 0.379D-02-0.169D-01
 Coeff:     -0.483D-01 0.283D+00 0.777D+00
 Gap=     0.508 Goal=   None    Shift=    0.000
 RMSDP=1.02D-06 MaxDP=4.02D-05 DE=-2.46D-07 OVMax= 6.80D-05

 Cycle  10  Pass 1  IDiag  1:
 RMSU=  5.05D-07    CP:  1.74D-01  3.00D+00  9.77D-01  1.12D+00  1.14D+00
                    CP:  1.15D+00  1.31D+00  1.28D+00  1.14D+00
 FoFJK:  IHMeth= 1 ICntrl=     0 DoSepK=T KAlg= 1 I1Cent= 0 FoldK=F
 E= -2904.61042295756     Delta-E=       -0.000000061129 Rises=F Damp=F
 DIIS: error= 6.29D-06 at cycle  10 NSaved=  10.
 NSaved=10 IEnMin=10 EnMin= -2904.61042295756     IErMin=10 ErrMin= 6.29D-06
 ErrMax= 6.29D-06 EMaxC= 1.00D-01 BMatC= 8.19D-09 BMatP= 5.74D-08
 IDIUse=1 WtCom= 1.00D+00 WtEn= 0.00D+00
 Coeff-Com:  0.215D-04-0.297D-04-0.200D-04-0.427D-04-0.231D-02 0.148D-01
 Coeff-Com: -0.201D-01-0.169D+00-0.114D-02 0.118D+01
 Coeff:      0.215D-04-0.297D-04-0.200D-04-0.427D-04-0.231D-02 0.148D-01
 Coeff:     -0.201D-01-0.169D+00-0.114D-02 0.118D+01
 Gap=     0.508 Goal=   None    Shift=    0.000
 RMSDP=6.93D-07 MaxDP=1.66D-05 DE=-6.11D-08 OVMax= 5.69D-05

 Cycle  11  Pass 1  IDiag  1:
 RMSU=  2.15D-07    CP:  1.74D-01  3.00D+00  9.77D-01  1.12D+00  1.14D+00
                    CP:  1.15D+00  1.31D+00  1.33D+00  1.37D+00  1.40D+00
 FoFJK:  IHMeth= 1 ICntrl=     0 DoSepK=T KAlg= 1 I1Cent= 0 FoldK=F
 E= -2904.61042297441     Delta-E=       -0.000000016847 Rises=F Damp=F
 DIIS: error= 2.56D-06 at cycle  11 NSaved=  11.
 NSaved=11 IEnMin=11 EnMin= -2904.61042297441     IErMin=11 ErrMin= 2.56D-06
 ErrMax= 2.56D-06 EMaxC= 1.00D-01 BMatC= 5.19D-10 BMatP= 8.19D-09
 IDIUse=1 WtCom= 1.00D+00 WtEn= 0.00D+00
 Coeff-Com: -0.145D-04 0.218D-04-0.422D-05-0.194D-04 0.385D-03-0.325D-02
 Coeff-Com:  0.733D-02 0.282D-01-0.683D-01-0.380D+00 0.142D+01
 Coeff:     -0.145D-04 0.218D-04-0.422D-05-0.194D-04 0.385D-03-0.325D-02
 Coeff:      0.733D-02 0.282D-01-0.683D-01-0.380D+00 0.142D+01
 Gap=     0.508 Goal=   None    Shift=    0.000
 RMSDP=3.01D-07 MaxDP=7.02D-06 DE=-1.68D-08 OVMax= 2.71D-05

 Cycle  12  Pass 1  IDiag  1:
 RMSU=  6.31D-08    CP:  1.74D-01  3.00D+00  9.77D-01  1.12D+00  1.14D+00
                    CP:  1.15D+00  1.31D+00  1.35D+00  1.44D+00  1.59D+00
                    CP:  1.55D+00
 FoFJK:  IHMeth= 1 ICntrl=     0 DoSepK=T KAlg= 1 I1Cent= 0 FoldK=F
 E= -2904.61042297635     Delta-E=       -0.000000001942 Rises=F Damp=F
 DIIS: error= 5.82D-07 at cycle  12 NSaved=  12.
 NSaved=12 IEnMin=12 EnMin= -2904.61042297635     IErMin=12 ErrMin= 5.82D-07
 ErrMax= 5.82D-07 EMaxC= 1.00D-01 BMatC= 3.90D-11 BMatP= 5.19D-10
 IDIUse=1 WtCom= 1.00D+00 WtEn= 0.00D+00
 Coeff-Com: -0.506D-05 0.770D-05 0.212D-07 0.434D-05 0.743D-04-0.474D-04
 Coeff-Com: -0.112D-02 0.483D-02 0.176D-01 0.110D-01-0.287D+00 0.125D+01
 Coeff:     -0.506D-05 0.770D-05 0.212D-07 0.434D-05 0.743D-04-0.474D-04
 Coeff:     -0.112D-02 0.483D-02 0.176D-01 0.110D-01-0.287D+00 0.125D+01
 Gap=     0.508 Goal=   None    Shift=    0.000
 RMSDP=5.80D-08 MaxDP=1.54D-06 DE=-1.94D-09 OVMax= 4.93D-06

 Cycle  13  Pass 1  IDiag  1:
 RMSU=  1.61D-08    CP:  1.74D-01  3.00D+00  9.77D-01  1.12D+00  1.14D+00
                    CP:  1.15D+00  1.31D+00  1.36D+00  1.44D+00  1.59D+00
                    CP:  1.63D+00  1.42D+00
 FoFJK:  IHMeth= 1 ICntrl=     0 DoSepK=T KAlg= 1 I1Cent= 0 FoldK=F
 E= -2904.61042297644     Delta-E=       -0.000000000090 Rises=F Damp=F
 DIIS: error= 1.80D-07 at cycle  13 NSaved=  13.
 NSaved=13 IEnMin=13 EnMin= -2904.61042297644     IErMin=13 ErrMin= 1.80D-07
 ErrMax= 1.80D-07 EMaxC= 1.00D-01 BMatC= 4.08D-12 BMatP= 3.90D-11
 IDIUse=1 WtCom= 1.00D+00 WtEn= 0.00D+00
 Coeff-Com: -0.866D-06 0.162D-05-0.154D-05 0.805D-06-0.515D-04 0.372D-03
 Coeff-Com: -0.776D-03-0.417D-02 0.259D-02 0.328D-01-0.854D-01-0.187D+00
 Coeff-Com:  0.124D+01
 Coeff:     -0.866D-06 0.162D-05-0.154D-05 0.805D-06-0.515D-04 0.372D-03
 Coeff:     -0.776D-03-0.417D-02 0.259D-02 0.328D-01-0.854D-01-0.187D+00
 Coeff:      0.124D+01
 Gap=     0.508 Goal=   None    Shift=    0.000
 RMSDP=2.01D-08 MaxDP=5.97D-07 DE=-9.00D-11 OVMax= 1.69D-06

 Cycle  14  Pass 1  IDiag  1:
 RMSU=  4.20D-09    CP:  1.74D-01  3.00D+00  9.77D-01  1.12D+00  1.14D+00
                    CP:  1.15D+00  1.31D+00  1.36D+00  1.44D+00  1.60D+00
                    CP:  1.64D+00  1.54D+00  1.49D+00
 FoFJK:  IHMeth= 1 ICntrl=     0 DoSepK=T KAlg= 1 I1Cent= 0 FoldK=F
 E= -2904.61042297643     Delta-E=        0.000000000015 Rises=F Damp=F
 DIIS: error= 5.67D-08 at cycle  14 NSaved=  14.
 NSaved=14 IEnMin=13 EnMin= -2904.61042297644     IErMin=14 ErrMin= 5.67D-08
 ErrMax= 5.67D-08 EMaxC= 1.00D-01 BMatC= 2.43D-13 BMatP= 4.08D-12
 IDIUse=1 WtCom= 1.00D+00 WtEn= 0.00D+00
 Coeff-Com:  0.163D-06-0.278D-06 0.172D-06-0.218D-05 0.168D-04-0.101D-03
 Coeff-Com:  0.238D-03 0.102D-02-0.175D-02-0.109D-01 0.456D-01-0.418D-03
 Coeff-Com: -0.450D+00 0.142D+01
 Coeff:      0.163D-06-0.278D-06 0.172D-06-0.218D-05 0.168D-04-0.101D-03
 Coeff:      0.238D-03 0.102D-02-0.175D-02-0.109D-01 0.456D-01-0.418D-03
 Coeff:     -0.450D+00 0.142D+01
 Gap=     0.508 Goal=   None    Shift=    0.000
 RMSDP=5.41D-09 MaxDP=1.01D-07 DE= 1.55D-11 OVMax= 6.84D-07

 SCF Done:  E(RLC-B+HF-LYP) =  -2904.61042298     A.U. after   14 cycles
             Convg  =    0.5411D-08             -V/T =  2.0016
 KE= 2.899977165084D+03 PE=-7.239873634224D+03 EE= 1.283496760344D+03
 Leave Link  502 at Tue May 12 00:39:01 2020, MaxMem= 1073741824 cpu:     404.6
 (Enter /home/matheus/.gaussian/g09/l601.exe)
 Copying SCF densities to generalized density rwf, IOpCl= 0 IROHF=0.

 **********************************************************************

            Population analysis using the SCF density.

 **********************************************************************

 Orbital symmetries:
       Occupied  (A) (A) (A) (A) (A) (A) (A) (A) (A) (A) (A) (A)
                 (A) (A) (A) (A) (A) (A) (A) (A) (A) (A) (A) (A)
                 (A) (A) (A)
       Virtual   (A) (A) (A) (A) (A) (A) (A) (A) (A) (A) (A) (A)
                 (A) (A) (A) (A) (A) (A) (A) (A) (A) (A) (A) (A)
                 (A) (A) (A) (A) (A) (A) (A) (A) (A) (A) (A) (A)
                 (A) (A) (A) (A) (A) (A) (A) (A) (A) (A) (A) (A)
                 (A) (A) (A) (A) (A) (A) (A) (A) (A) (A) (A) (A)
                 (A) (A) (A) (A) (A) (A) (A) (A) (A) (A) (A) (A)
                 (A) (A) (A) (A) (A) (A) (A) (A) (A) (A) (A) (A)
                 (A) (A) (A) (A) (A) (A) (A) (A) (A) (A) (A) (A)
                 (A) (A) (A) (A) (A) (A) (A) (A) (A) (A) (A) (A)
                 (A) (A) (A) (A) (A) (A) (A) (A) (A) (A) (A) (A)
                 (A) (A) (A) (A) (A) (A) (A) (A) (A) (A) (A) (A)
                 (A) (A) (A) (A) (A) (A) (A) (A) (A) (A) (A) (A)
                 (A) (A) (A) (A) (A) (A) (A) (A) (A) (A) (A) (A)
                 (A) (A) (A) (A) (A) (A) (A) (A) (A) (A) (A) (A)
                 (A) (A)
 The electronic state is 1-A.
 Alpha  occ. eigenvalues -- -511.69828 -67.22307 -60.89509 -60.89503 -60.89491
 Alpha  occ. eigenvalues --  -19.47905 -19.47871 -10.12423  -7.84009  -7.83990
 Alpha  occ. eigenvalues --   -7.83959  -3.66974  -3.66973  -3.66946  -3.66931
 Alpha  occ. eigenvalues --   -3.66927  -1.46198  -1.21989  -1.21052  -0.79931
 Alpha  occ. eigenvalues --   -0.65017  -0.63277  -0.61774  -0.59421  -0.58958
 Alpha  occ. eigenvalues --   -0.57834  -0.48087
 Alpha virt. eigenvalues --    0.02683   0.04019   0.07563   0.08225   0.10264
 Alpha virt. eigenvalues --    0.12118   0.12790   0.16030   0.16646   0.17507
 Alpha virt. eigenvalues --    0.18130   0.18414   0.21504   0.22836   0.23677
 Alpha virt. eigenvalues --    0.24317   0.24800   0.26812   0.31217   0.33944
 Alpha virt. eigenvalues --    0.34261   0.37536   0.38467   0.38922   0.40076
 Alpha virt. eigenvalues --    0.44157   0.46824   0.49996   0.53171   0.54615
 Alpha virt. eigenvalues --    0.61485   0.63075   0.64154   0.65838   0.66555
 Alpha virt. eigenvalues --    0.71453   0.72089   0.73922   0.75342   0.78611
 Alpha virt. eigenvalues --    0.79139   0.79902   0.83106   0.86298   0.88179
 Alpha virt. eigenvalues --    0.88384   0.89579   0.91538   0.93845   0.94812
 Alpha virt. eigenvalues --    0.96858   1.00057   1.00721   1.01889   1.04325
 Alpha virt. eigenvalues --    1.07384   1.09534   1.10942   1.13111   1.14419
 Alpha virt. eigenvalues --    1.16946   1.22384   1.26414   1.32048   1.33728
 Alpha virt. eigenvalues --    1.35468   1.39113   1.43952   1.45866   1.50635
 Alpha virt. eigenvalues --    1.53028   1.56255   1.60125   1.63095   1.65306
 Alpha virt. eigenvalues --    1.70302   1.74975   1.89828   2.02181   2.03956
 Alpha virt. eigenvalues --    2.08413   2.11110   2.21083   2.24276   2.25057
 Alpha virt. eigenvalues --    2.30334   2.33250   2.33953   2.34259   2.40350
 Alpha virt. eigenvalues --    2.43604   2.43861   2.44790   2.46027   2.49185
 Alpha virt. eigenvalues --    2.50793   2.51763   2.55039   2.59429   2.60939
 Alpha virt. eigenvalues --    2.62426   2.64312   2.71399   2.72566   2.75996
 Alpha virt. eigenvalues --    2.76150   2.78515   2.82256   2.83771   2.84325
 Alpha virt. eigenvalues --    2.87242   2.89387   2.93497   3.00962   3.05282
 Alpha virt. eigenvalues --    3.08504   3.25487   3.26275   3.29837   3.69986
 Alpha virt. eigenvalues --    3.91753   4.02069   4.10283   4.21080   4.24847
 Alpha virt. eigenvalues --    4.25828   4.29789   4.33442   4.34515   4.42354
 Alpha virt. eigenvalues --    4.52201   4.66366   4.71762   4.90392   4.91374
 Alpha virt. eigenvalues --    5.14012   5.18314   5.20724   5.25480   5.32173
 Alpha virt. eigenvalues --    5.37929   5.75597   6.03672   6.23167   6.29647
 Alpha virt. eigenvalues --    6.36596   6.57428   6.63076   6.73731   6.83193
 Alpha virt. eigenvalues --    6.95068   6.97668   7.02344   7.05518   7.07408
 Alpha virt. eigenvalues --    7.13364   7.13669   7.16297   7.18092   7.37259
 Alpha virt. eigenvalues --    7.41012   7.46786   7.55080   7.55965   7.87189
 Alpha virt. eigenvalues --    8.23144   8.31638   8.46381  14.04630  14.97747
          Condensed to atoms (all electrons):
              1          2          3          4          5
     1  O    8.251408  -0.230098   0.177036   0.037818  -0.015849
     2  O   -0.230098   8.245741   0.039319   0.181760  -0.014116
     3  H    0.177036   0.039319   0.603830  -0.024081  -0.016500
     4  H    0.037818   0.181760  -0.024081   0.602193  -0.018931
     5  Kr  -0.015849  -0.014116  -0.016500  -0.018931  36.064115
 Mulliken atomic charges:
              1
     1  O   -0.220314
     2  O   -0.222605
     3  H    0.220397
     4  H    0.221241
     5  Kr   0.001282
 Sum of Mulliken atomic charges =   0.00000
 Mulliken charges with hydrogens summed into heavy atoms:
              1
     1  O    0.000083
     2  O   -0.001365
     5  Kr   0.001282
 Sum of Mulliken charges with hydrogens summed into heavy atoms =   0.00000
          Condensed to fragments (all electrons):
     1      -0.001282
     2       0.001282
 Electronic spatial extent (au):  <R**2>=            475.2253
 Charge=              0.0000 electrons
 Dipole moment (field-independent basis, Debye):
    X=              3.9302    Y=             -0.0118    Z=              0.2463  Tot=              3.9380
 Quadrupole moment (field-independent basis, Debye-Ang):
   XX=            -39.2462   YY=            -27.8526   ZZ=            -30.1152
   XY=              0.0356   XZ=             -0.2814   YZ=             -0.3242
 Traceless Quadrupole moment (field-independent basis, Debye-Ang):
   XX=             -6.8415   YY=              4.5521   ZZ=              2.2895
   XY=              0.0356   XZ=             -0.2814   YZ=             -0.3242
 Octapole moment (field-independent basis, Debye-Ang**2):
  XXX=             46.0340  YYY=             -0.0285  ZZZ=              0.0031  XYY=              8.0506
  XXY=             -0.0822  XXZ=              0.0159  XZZ=              8.4942  YZZ=             -0.0569
  YYZ=              0.3719  XYZ=              0.3575
 Hexadecapole moment (field-independent basis, Debye-Ang**3):
 XXXX=           -454.4643 YYYY=            -61.7889 ZZZZ=            -27.7964 XXXY=              0.0841
 XXXZ=              0.3845 YYYX=              0.0656 YYYZ=             -0.4407 ZZZX=             -0.1245
 ZZZY=             -0.1680 XXYY=            -85.9564 XXZZ=            -75.0852 YYZZ=            -16.7385
 XXYZ=             -0.3898 YYXZ=             -0.4305 ZZXY=              0.0711
 N-N= 1.517892858201D+02 E-N=-7.239873628460D+03  KE= 2.899977165084D+03
 No NMR shielding tensors so no spin-rotation constants.
 Leave Link  601 at Tue May 12 00:39:01 2020, MaxMem= 1073741824 cpu:       0.8
 (Enter /home/matheus/.gaussian/g09/l122.exe)
 Counterpoise: doing DCBS calculation for fragment   1 NewBq=T
 Leave Link  122 at Tue May 12 00:39:01 2020, MaxMem= 1073741824 cpu:       0.0
 (Enter /home/matheus/.gaussian/g09/l301.exe)
 Basis read from rwf:  (5D, 7F)
 No pseudopotential information found on rwf file.
 There are   197 symmetry adapted basis functions of A   symmetry.
 Integral buffers will be    131072 words long.
 Raffenetti 2 integral format.
 Two-electron integral symmetry is turned on.
   197 basis functions,   415 primitive gaussians,   229 cartesian basis functions
     9 alpha electrons        9 beta electrons
       nuclear repulsion energy        36.6659649233 Hartrees.
 IExCor=10402 DFT=T Ex=LC-B+HF Corr=LYP ExCW=0 ScaHFX=  1.000000
 ScaDFX=  1.000000  1.000000  1.000000  1.000000 ScalE2=  1.000000  1.000000
 IRadAn=      5 IRanWt=     -1 IRanGd=            0 ICorTp=0
  HFx wShort=  0.000000 wLong=  1.350000 cFull=  0.000000 cShort=  0.000000 cLong=  1.000000
  DFx wShort=  0.000000 wLong=  1.350000 cFull=  0.000000 cShort=  0.000000 cLong=  1.000000
 NAtoms=    5 NActive=    5 NUniq=    5 SFac= 1.00D+00 NAtFMM=   60 NAOKFM=F Big=F
 No density basis found on file   718.
 Leave Link  301 at Tue May 12 00:39:01 2020, MaxMem= 1073741824 cpu:       0.2
 (Enter /home/matheus/.gaussian/g09/l302.exe)
 NPDir=0 NMtPBC=     1 NCelOv=     1 NCel=       1 NClECP=     1 NCelD=      1
         NCelK=      1 NCelE2=     1 NClLst=     1 CellRange=     0.0.
 One-electron integrals computed using PRISM.
 NBasis=   197 RedAO= T  NBF=   197
 NBsUse=   197 1.00D-06 NBFU=   197
 Precomputing XC quadrature grid using
 IXCGrd= 2 IRadAn=           5 IRanWt=          -1 IRanGd=           0 AccXCQ= 0.00D+00.
 NRdTot=     427 NPtTot=      123512 NUsed=      126579 NTot=      126611
 NSgBfM=   229   229   229   229   229 NAtAll=     5     5.
 Leave Link  302 at Tue May 12 00:39:01 2020, MaxMem= 1073741824 cpu:       1.0
 (Enter /home/matheus/.gaussian/g09/l303.exe)
 DipDrv:  MaxL=1.
 Leave Link  303 at Tue May 12 00:39:01 2020, MaxMem= 1073741824 cpu:       0.3
 (Enter /home/matheus/.gaussian/g09/l401.exe)
 Harris functional with IExCor=10402 diagonalized for initial guess.
 ExpMin= 2.53D-02 ExpMax= 1.17D+07 ExpMxC= 1.33D+04 IAcc=3 IRadAn=         5 AccDes= 0.00D+00
 HarFok:  IExCor=10402 AccDes= 0.00D+00 IRadAn=         5 IDoV= 1
 ScaDFX=  1.000000  1.000000  1.000000  1.000000
 FoFCou: FMM=F IPFlag=           0 FMFlag=      100000 FMFlg1=           0
         NFxFlg=           0 DoJE=T BraDBF=F KetDBF=T FulRan=T
         Omega=  0.000000  0.000000  1.000000  0.000000  0.000000 ICntrl=     500 IOpCl=  0
         NMat0=    1 NMatS0=    1 NMatT0=    0 NMatD0=    1 NMtDS0=    0 NMtDT0=    0
         I1Cent=           4 NGrid=           0.
 Petite list used in FoFCou.
 Harris En= -143.226674940804    
 Initial guess orbital symmetries:
       Occupied  (A) (A) (A) (A) (A) (A) (A) (A) (A)
       Virtual   (A) (A) (A) (A) (A) (A) (A) (A) (A) (A) (A) (A)
                 (A) (A) (A) (A) (A) (A) (A) (A) (A) (A) (A) (A)
                 (A) (A) (A) (A) (A) (A) (A) (A) (A) (A) (A) (A)
                 (A) (A) (A) (A) (A) (A) (A) (A) (A) (A) (A) (A)
                 (A) (A) (A) (A) (A) (A) (A) (A) (A) (A) (A) (A)
                 (A) (A) (A) (A) (A) (A) (A) (A) (A) (A) (A) (A)
                 (A) (A) (A) (A) (A) (A) (A) (A) (A) (A) (A) (A)
                 (A) (A) (A) (A) (A) (A) (A) (A) (A) (A) (A) (A)
                 (A) (A) (A) (A) (A) (A) (A) (A) (A) (A) (A) (A)
                 (A) (A) (A) (A) (A) (A) (A) (A) (A) (A) (A) (A)
                 (A) (A) (A) (A) (A) (A) (A) (A) (A) (A) (A) (A)
                 (A) (A) (A) (A) (A) (A) (A) (A) (A) (A) (A) (A)
                 (A) (A) (A) (A) (A) (A) (A) (A) (A) (A) (A) (A)
                 (A) (A) (A) (A) (A) (A) (A) (A) (A) (A) (A) (A)
                 (A) (A) (A) (A) (A) (A) (A) (A) (A) (A) (A) (A)
                 (A) (A) (A) (A) (A) (A) (A) (A)
 The electronic state of the initial guess is 1-A.
 Leave Link  401 at Tue May 12 00:39:02 2020, MaxMem= 1073741824 cpu:       4.7
 (Enter /home/matheus/.gaussian/g09/l502.exe)
 Closed shell SCF:
 Requested convergence on RMS density matrix=1.00D-08 within 128 cycles.
 Requested convergence on MAX density matrix=1.00D-06.
 Requested convergence on             energy=1.00D-06.
 No special actions if energy rises.
 Using DIIS extrapolation, IDIIS=  1040.
 Integral symmetry usage will be decided dynamically.
       126521 words used for storage of precomputed grid.
 IEnd=      305468 IEndB=      305468 NGot=  1073741824 MDV=  1073505667
 LenX=  1073505667 LenY=  1073452785
 Fock matrices will be formed incrementally for  20 cycles.

 Cycle   1  Pass 1  IDiag  1:
 FoFJK:  IHMeth= 1 ICntrl=     0 DoSepK=T KAlg= 1 I1Cent= 0 FoldK=F
 FoFCou: FMM=F IPFlag=           0 FMFlag=      100000 FMFlg1=           0
         NFxFlg=           0 DoJE=T BraDBF=F KetDBF=F FulRan=T
         Omega=  0.000000  0.000000  1.000000  0.000000  0.000000 ICntrl=     500 IOpCl=  0
         NMat0=    1 NMatS0=    1 NMatT0=    0 NMatD0=    1 NMtDS0=    0 NMtDT0=    0
         I1Cent=           0 NGrid=           0.
 Symmetry not used in FoFCou.
 E= -148.110845312272    
 DIIS: error= 1.27D-01 at cycle   1 NSaved=   1.
 NSaved= 1 IEnMin= 1 EnMin= -148.110845312272     IErMin= 1 ErrMin= 1.27D-01
 ErrMax= 1.27D-01 EMaxC= 1.00D-01 BMatC= 2.23D+00 BMatP= 2.23D+00
 IDIUse=3 WtCom= 0.00D+00 WtEn= 1.00D+00
 Coeff-Com:  0.100D+01
 Coeff-En:   0.100D+01
 Coeff:      0.100D+01
 Gap=     0.192 Goal=   None    Shift=    0.000
 GapD=    0.192 DampG=1.000 DampE=0.250 DampFc=0.2500 IDamp=-1.
 Damping current iteration by 2.50D-01
 RMSDP=3.21D-02 MaxDP=1.13D+00              OVMax= 1.00D+00

 Cycle   2  Pass 1  IDiag  1:
 RMSU=  1.73D-03    CP:  7.68D-01
 FoFJK:  IHMeth= 1 ICntrl=     0 DoSepK=T KAlg= 1 I1Cent= 0 FoldK=F
 E= -149.240027426948     Delta-E=       -1.129182114677 Rises=F Damp=T
 DIIS: error= 6.92D-02 at cycle   2 NSaved=   2.
 NSaved= 2 IEnMin= 2 EnMin= -149.240027426948     IErMin= 2 ErrMin= 6.92D-02
 ErrMax= 6.92D-02 EMaxC= 1.00D-01 BMatC= 6.36D-01 BMatP= 2.23D+00
 IDIUse=3 WtCom= 3.08D-01 WtEn= 6.92D-01
 Coeff-Com: -0.105D+01 0.205D+01
 Coeff-En:   0.000D+00 0.100D+01
 Coeff:     -0.324D+00 0.132D+01
 Gap=     0.358 Goal=   None    Shift=    0.000
 RMSDP=2.40D-02 MaxDP=8.47D-01 DE=-1.13D+00 OVMax= 9.89D-02

 Cycle   3  Pass 1  IDiag  1:
 RMSU=  1.93D-03    CP:  7.16D-02  3.00D+00
 FoFJK:  IHMeth= 1 ICntrl=     0 DoSepK=T KAlg= 1 I1Cent= 0 FoldK=F
 E= -150.827807116735     Delta-E=       -1.587779689787 Rises=F Damp=F
 DIIS: error= 5.91D-02 at cycle   3 NSaved=   3.
 NSaved= 3 IEnMin= 3 EnMin= -150.827807116735     IErMin= 3 ErrMin= 5.91D-02
 ErrMax= 5.91D-02 EMaxC= 1.00D-01 BMatC= 5.62D-01 BMatP= 6.36D-01
 IDIUse=3 WtCom= 4.09D-01 WtEn= 5.91D-01
 Coeff-Com: -0.183D+01 0.325D+01-0.417D+00
 Coeff-En:   0.000D+00 0.000D+00 0.100D+01
 Coeff:     -0.749D+00 0.133D+01 0.420D+00
 Gap=     0.617 Goal=   None    Shift=    0.000
 RMSDP=2.17D-03 MaxDP=9.77D-02 DE=-1.59D+00 OVMax= 1.40D-01

 Cycle   4  Pass 1  IDiag  1:
 RMSU=  1.46D-03    CP:  7.19D-02  3.00D+00  1.24D+00
 FoFJK:  IHMeth= 1 ICntrl=     0 DoSepK=T KAlg= 1 I1Cent= 0 FoldK=F
 E= -151.197502196740     Delta-E=       -0.369695080005 Rises=F Damp=F
 DIIS: error= 8.78D-03 at cycle   4 NSaved=   4.
 NSaved= 4 IEnMin= 4 EnMin= -151.197502196740     IErMin= 4 ErrMin= 8.78D-03
 ErrMax= 8.78D-03 EMaxC= 1.00D-01 BMatC= 1.54D-02 BMatP= 5.62D-01
 IDIUse=3 WtCom= 9.12D-01 WtEn= 8.78D-02
 Coeff-Com: -0.448D+00 0.771D+00-0.504D-01 0.727D+00
 Coeff-En:   0.000D+00 0.000D+00 0.000D+00 0.100D+01
 Coeff:     -0.409D+00 0.704D+00-0.460D-01 0.751D+00
 Gap=     0.507 Goal=   None    Shift=    0.000
 RMSDP=3.70D-04 MaxDP=1.49D-02 DE=-3.70D-01 OVMax= 3.11D-02

 Cycle   5  Pass 1  IDiag  1:
 RMSU=  1.92D-04    CP:  7.15D-02  3.00D+00  1.22D+00  8.82D-01
 FoFJK:  IHMeth= 1 ICntrl=     0 DoSepK=T KAlg= 1 I1Cent= 0 FoldK=F
 E= -151.197271769135     Delta-E=        0.000230427606 Rises=F Damp=F
 DIIS: error= 6.96D-03 at cycle   5 NSaved=   5.
 NSaved= 5 IEnMin= 4 EnMin= -151.197502196740     IErMin= 5 ErrMin= 6.96D-03
 ErrMax= 6.96D-03 EMaxC= 1.00D-01 BMatC= 9.41D-03 BMatP= 1.54D-02
 IDIUse=3 WtCom= 9.30D-01 WtEn= 6.96D-02
 Coeff-Com: -0.370D-01 0.772D-01-0.199D+00-0.221D+00 0.138D+01
 Coeff-En:   0.000D+00 0.000D+00 0.000D+00 0.518D+00 0.482D+00
 Coeff:     -0.345D-01 0.718D-01-0.185D+00-0.170D+00 0.132D+01
 Gap=     0.502 Goal=   None    Shift=    0.000
 RMSDP=4.20D-04 MaxDP=9.89D-03 DE= 2.30D-04 OVMax= 2.05D-02

 Cycle   6  Pass 1  IDiag  1:
 RMSU=  1.14D-04    CP:  7.13D-02  3.00D+00  1.24D+00  1.04D+00  1.70D+00
 FoFJK:  IHMeth= 1 ICntrl=     0 DoSepK=T KAlg= 1 I1Cent= 0 FoldK=F
 E= -151.204839385785     Delta-E=       -0.007567616651 Rises=F Damp=F
 DIIS: error= 1.11D-03 at cycle   6 NSaved=   6.
 NSaved= 6 IEnMin= 6 EnMin= -151.204839385785     IErMin= 6 ErrMin= 1.11D-03
 ErrMax= 1.11D-03 EMaxC= 1.00D-01 BMatC= 1.87D-04 BMatP= 9.41D-03
 IDIUse=3 WtCom= 9.89D-01 WtEn= 1.11D-02
 Coeff-Com:  0.947D-02-0.147D-01-0.358D-02-0.297D-01-0.118D+00 0.116D+01
 Coeff-En:   0.000D+00 0.000D+00 0.000D+00 0.000D+00 0.000D+00 0.100D+01
 Coeff:      0.937D-02-0.145D-01-0.354D-02-0.294D-01-0.117D+00 0.116D+01
 Gap=     0.501 Goal=   None    Shift=    0.000
 RMSDP=1.08D-04 MaxDP=2.33D-03 DE=-7.57D-03 OVMax= 4.94D-03

 Cycle   7  Pass 1  IDiag  1:
 RMSU=  1.42D-05    CP:  7.12D-02  3.00D+00  1.24D+00  1.08D+00  1.91D+00
                    CP:  1.37D+00
 FoFJK:  IHMeth= 1 ICntrl=     0 DoSepK=T KAlg= 1 I1Cent= 0 FoldK=F
 E= -151.205030525075     Delta-E=       -0.000191139290 Rises=F Damp=F
 DIIS: error= 1.66D-04 at cycle   7 NSaved=   7.
 NSaved= 7 IEnMin= 7 EnMin= -151.205030525075     IErMin= 7 ErrMin= 1.66D-04
 ErrMax= 1.66D-04 EMaxC= 1.00D-01 BMatC= 2.65D-06 BMatP= 1.87D-04
 IDIUse=3 WtCom= 9.98D-01 WtEn= 1.66D-03
 Coeff-Com:  0.432D-02-0.751D-02 0.555D-02 0.463D-02-0.390D-02-0.100D+00
 Coeff-Com:  0.110D+01
 Coeff-En:   0.000D+00 0.000D+00 0.000D+00 0.000D+00 0.000D+00 0.000D+00
 Coeff-En:   0.100D+01
 Coeff:      0.431D-02-0.750D-02 0.554D-02 0.462D-02-0.390D-02-0.999D-01
 Coeff:      0.110D+01
 Gap=     0.501 Goal=   None    Shift=    0.000
 RMSDP=1.20D-05 MaxDP=2.92D-04 DE=-1.91D-04 OVMax= 6.37D-04

 Cycle   8  Pass 1  IDiag  1:
 RMSU=  3.73D-06    CP:  7.12D-02  3.00D+00  1.24D+00  1.08D+00  1.92D+00
                    CP:  1.42D+00  1.21D+00
 FoFJK:  IHMeth= 1 ICntrl=     0 DoSepK=T KAlg= 1 I1Cent= 0 FoldK=F
 E= -151.205033574587     Delta-E=       -0.000003049512 Rises=F Damp=F
 DIIS: error= 1.00D-04 at cycle   8 NSaved=   8.
 NSaved= 8 IEnMin= 8 EnMin= -151.205033574587     IErMin= 8 ErrMin= 1.00D-04
 ErrMax= 1.00D-04 EMaxC= 1.00D-01 BMatC= 1.22D-06 BMatP= 2.65D-06
 IDIUse=1 WtCom= 1.00D+00 WtEn= 0.00D+00
 Coeff-Com:  0.144D-03-0.238D-03-0.115D-02-0.262D-02 0.249D-01-0.513D-01
 Coeff-Com: -0.301D+00 0.133D+01
 Coeff:      0.144D-03-0.238D-03-0.115D-02-0.262D-02 0.249D-01-0.513D-01
 Coeff:     -0.301D+00 0.133D+01
 Gap=     0.502 Goal=   None    Shift=    0.000
 RMSDP=4.31D-06 MaxDP=1.49D-04 DE=-3.05D-06 OVMax= 3.70D-04

 Cycle   9  Pass 1  IDiag  1:
 RMSU=  1.20D-06    CP:  7.12D-02  3.00D+00  1.24D+00  1.08D+00  1.92D+00
                    CP:  1.42D+00  1.25D+00  1.38D+00
 FoFJK:  IHMeth= 1 ICntrl=     0 DoSepK=T KAlg= 1 I1Cent= 0 FoldK=F
 E= -151.205034739508     Delta-E=       -0.000001164921 Rises=F Damp=F
 DIIS: error= 9.61D-06 at cycle   9 NSaved=   9.
 NSaved= 9 IEnMin= 9 EnMin= -151.205034739508     IErMin= 9 ErrMin= 9.61D-06
 ErrMax= 9.61D-06 EMaxC= 1.00D-01 BMatC= 1.38D-08 BMatP= 1.22D-06
 IDIUse=1 WtCom= 1.00D+00 WtEn= 0.00D+00
 Coeff-Com: -0.119D-03 0.213D-03-0.446D-03-0.623D-03 0.420D-02-0.623D-02
 Coeff-Com: -0.638D-01 0.122D+00 0.945D+00
 Coeff:     -0.119D-03 0.213D-03-0.446D-03-0.623D-03 0.420D-02-0.623D-02
 Coeff:     -0.638D-01 0.122D+00 0.945D+00
 Gap=     0.502 Goal=   None    Shift=    0.000
 RMSDP=9.40D-07 MaxDP=3.01D-05 DE=-1.16D-06 OVMax= 7.26D-05

 Cycle  10  Pass 1  IDiag  1:
 RMSU=  3.42D-07    CP:  7.12D-02  3.00D+00  1.24D+00  1.08D+00  1.92D+00
                    CP:  1.42D+00  1.25D+00  1.41D+00  1.32D+00
 FoFJK:  IHMeth= 1 ICntrl=     0 DoSepK=T KAlg= 1 I1Cent= 0 FoldK=F
 E= -151.205034761718     Delta-E=       -0.000000022210 Rises=F Damp=F
 DIIS: error= 5.43D-06 at cycle  10 NSaved=  10.
 NSaved=10 IEnMin=10 EnMin= -151.205034761718     IErMin=10 ErrMin= 5.43D-06
 ErrMax= 5.43D-06 EMaxC= 1.00D-01 BMatC= 6.39D-09 BMatP= 1.38D-08
 IDIUse=1 WtCom= 1.00D+00 WtEn= 0.00D+00
 Coeff-Com: -0.992D-04 0.173D-03 0.490D-04 0.342D-03-0.371D-02 0.690D-02
 Coeff-Com:  0.504D-01-0.258D+00 0.368D+00 0.836D+00
 Coeff:     -0.992D-04 0.173D-03 0.490D-04 0.342D-03-0.371D-02 0.690D-02
 Coeff:      0.504D-01-0.258D+00 0.368D+00 0.836D+00
 Gap=     0.502 Goal=   None    Shift=    0.000
 RMSDP=4.58D-07 MaxDP=1.26D-05 DE=-2.22D-08 OVMax= 4.51D-05

 Cycle  11  Pass 1  IDiag  1:
 RMSU=  1.53D-07    CP:  7.12D-02  3.00D+00  1.24D+00  1.08D+00  1.92D+00
                    CP:  1.42D+00  1.24D+00  1.41D+00  1.52D+00  1.18D+00
 FoFJK:  IHMeth= 1 ICntrl=     0 DoSepK=T KAlg= 1 I1Cent= 0 FoldK=F
 E= -151.205034769572     Delta-E=       -0.000000007854 Rises=F Damp=F
 DIIS: error= 2.40D-06 at cycle  11 NSaved=  11.
 NSaved=11 IEnMin=11 EnMin= -151.205034769572     IErMin=11 ErrMin= 2.40D-06
 ErrMax= 2.40D-06 EMaxC= 1.00D-01 BMatC= 7.61D-10 BMatP= 6.39D-09
 IDIUse=1 WtCom= 1.00D+00 WtEn= 0.00D+00
 Coeff-Com:  0.766D-05-0.144D-04 0.271D-04-0.933D-05 0.584D-03-0.255D-02
 Coeff-Com: -0.369D-02 0.679D-01-0.249D+00-0.311D+00 0.150D+01
 Coeff:      0.766D-05-0.144D-04 0.271D-04-0.933D-05 0.584D-03-0.255D-02
 Coeff:     -0.369D-02 0.679D-01-0.249D+00-0.311D+00 0.150D+01
 Gap=     0.502 Goal=   None    Shift=    0.000
 RMSDP=2.60D-07 MaxDP=8.42D-06 DE=-7.85D-09 OVMax= 2.81D-05

 Cycle  12  Pass 1  IDiag  1:
 RMSU=  3.63D-08    CP:  7.12D-02  3.00D+00  1.24D+00  1.08D+00  1.92D+00
                    CP:  1.42D+00  1.24D+00  1.40D+00  1.59D+00  1.44D+00
                    CP:  1.58D+00
 FoFJK:  IHMeth= 1 ICntrl=     0 DoSepK=T KAlg= 1 I1Cent= 0 FoldK=F
 E= -151.205034771197     Delta-E=       -0.000000001626 Rises=F Damp=F
 DIIS: error= 4.33D-07 at cycle  12 NSaved=  12.
 NSaved=12 IEnMin=12 EnMin= -151.205034771197     IErMin=12 ErrMin= 4.33D-07
 ErrMax= 4.33D-07 EMaxC= 1.00D-01 BMatC= 2.01D-11 BMatP= 7.61D-10
 IDIUse=1 WtCom= 1.00D+00 WtEn= 0.00D+00
 Coeff-Com:  0.499D-06-0.154D-05-0.271D-05-0.147D-04 0.235D-03-0.525D-03
 Coeff-Com: -0.226D-02 0.106D-01-0.639D-02-0.313D-01-0.949D-01 0.112D+01
 Coeff:      0.499D-06-0.154D-05-0.271D-05-0.147D-04 0.235D-03-0.525D-03
 Coeff:     -0.226D-02 0.106D-01-0.639D-02-0.313D-01-0.949D-01 0.112D+01
 Gap=     0.502 Goal=   None    Shift=    0.000
 RMSDP=4.15D-08 MaxDP=1.71D-06 DE=-1.63D-09 OVMax= 4.55D-06

 Cycle  13  Pass 1  IDiag  1:
 RMSU=  7.91D-09    CP:  7.12D-02  3.00D+00  1.24D+00  1.08D+00  1.92D+00
                    CP:  1.42D+00  1.24D+00  1.40D+00  1.60D+00  1.47D+00
                    CP:  1.67D+00  1.38D+00
 FoFJK:  IHMeth= 1 ICntrl=     0 DoSepK=T KAlg= 1 I1Cent= 0 FoldK=F
 E= -151.205034771249     Delta-E=       -0.000000000052 Rises=F Damp=F
 DIIS: error= 6.48D-08 at cycle  13 NSaved=  13.
 NSaved=13 IEnMin=13 EnMin= -151.205034771249     IErMin=13 ErrMin= 6.48D-08
 ErrMax= 6.48D-08 EMaxC= 1.00D-01 BMatC= 7.18D-13 BMatP= 2.01D-11
 IDIUse=1 WtCom= 1.00D+00 WtEn= 0.00D+00
 Coeff-Com:  0.215D-06-0.573D-06 0.673D-06 0.421D-05-0.602D-04 0.156D-03
 Coeff-Com:  0.695D-03-0.472D-02 0.112D-01 0.177D-01-0.514D-01-0.168D+00
 Coeff-Com:  0.119D+01
 Coeff:      0.215D-06-0.573D-06 0.673D-06 0.421D-05-0.602D-04 0.156D-03
 Coeff:      0.695D-03-0.472D-02 0.112D-01 0.177D-01-0.514D-01-0.168D+00
 Coeff:      0.119D+01
 Gap=     0.502 Goal=   None    Shift=    0.000
 RMSDP=9.17D-09 MaxDP=1.74D-07 DE=-5.17D-11 OVMax= 7.77D-07

 SCF Done:  E(RLC-B+HF-LYP) =  -151.205034771     A.U. after   13 cycles
             Convg  =    0.9172D-08             -V/T =  2.0061
 KE= 1.502901577578D+02 PE=-4.316109082516D+02 EE= 9.344975079924D+01
 Leave Link  502 at Tue May 12 00:39:47 2020, MaxMem= 1073741824 cpu:     363.9
 (Enter /home/matheus/.gaussian/g09/l601.exe)
 Copying SCF densities to generalized density rwf, IOpCl= 0 IROHF=0.

 **********************************************************************

            Population analysis using the SCF density.

 **********************************************************************

 Orbital symmetries:
       Occupied  (A) (A) (A) (A) (A) (A) (A) (A) (A)
       Virtual   (A) (A) (A) (A) (A) (A) (A) (A) (A) (A) (A) (A)
                 (A) (A) (A) (A) (A) (A) (A) (A) (A) (A) (A) (A)
                 (A) (A) (A) (A) (A) (A) (A) (A) (A) (A) (A) (A)
                 (A) (A) (A) (A) (A) (A) (A) (A) (A) (A) (A) (A)
                 (A) (A) (A) (A) (A) (A) (A) (A) (A) (A) (A) (A)
                 (A) (A) (A) (A) (A) (A) (A) (A) (A) (A) (A) (A)
                 (A) (A) (A) (A) (A) (A) (A) (A) (A) (A) (A) (A)
                 (A) (A) (A) (A) (A) (A) (A) (A) (A) (A) (A) (A)
                 (A) (A) (A) (A) (A) (A) (A) (A) (A) (A) (A) (A)
                 (A) (A) (A) (A) (A) (A) (A) (A) (A) (A) (A) (A)
                 (A) (A) (A) (A) (A) (A) (A) (A) (A) (A) (A) (A)
                 (A) (A) (A) (A) (A) (A) (A) (A) (A) (A) (A) (A)
                 (A) (A) (A) (A) (A) (A) (A) (A) (A) (A) (A) (A)
                 (A) (A) (A) (A) (A) (A) (A) (A) (A) (A) (A) (A)
                 (A) (A) (A) (A) (A) (A) (A) (A) (A) (A) (A) (A)
                 (A) (A) (A) (A) (A) (A) (A) (A)
 The electronic state is 1-A.
 Alpha  occ. eigenvalues --  -19.48797 -19.48768  -1.46843  -1.21706  -0.79953
 Alpha  occ. eigenvalues --   -0.65613  -0.63327  -0.60305  -0.48851
 Alpha virt. eigenvalues --    0.01308   0.03557   0.06959   0.07246   0.08738
 Alpha virt. eigenvalues --    0.09959   0.12302   0.16278   0.16599   0.17360
 Alpha virt. eigenvalues --    0.18217   0.19033   0.21512   0.23812   0.25370
 Alpha virt. eigenvalues --    0.26434   0.27973   0.28057   0.30749   0.34312
 Alpha virt. eigenvalues --    0.34840   0.35683   0.37671   0.41178   0.44046
 Alpha virt. eigenvalues --    0.45020   0.45199   0.47043   0.49285   0.53345
 Alpha virt. eigenvalues --    0.54797   0.57958   0.60543   0.65458   0.67430
 Alpha virt. eigenvalues --    0.70620   0.72541   0.78033   0.78312   0.81936
 Alpha virt. eigenvalues --    0.84212   0.85680   0.87176   0.89422   0.91199
 Alpha virt. eigenvalues --    0.94721   0.98149   0.98567   0.99254   1.01462
 Alpha virt. eigenvalues --    1.02805   1.04544   1.08336   1.11005   1.11753
 Alpha virt. eigenvalues --    1.12568   1.19240   1.23621   1.24728   1.26384
 Alpha virt. eigenvalues --    1.29808   1.30349   1.31847   1.32838   1.33054
 Alpha virt. eigenvalues --    1.34689   1.38200   1.39604   1.45662   1.49472
 Alpha virt. eigenvalues --    1.52109   1.53687   1.56140   1.57929   1.63741
 Alpha virt. eigenvalues --    1.65356   1.67318   1.74845   1.76784   1.83999
 Alpha virt. eigenvalues --    1.87671   1.90364   2.04652   2.06161   2.11265
 Alpha virt. eigenvalues --    2.13492   2.24260   2.31659   2.34025   2.36258
 Alpha virt. eigenvalues --    2.37443   2.42578   2.44582   2.44750   2.53238
 Alpha virt. eigenvalues --    2.55931   2.63734   2.64188   2.73866   2.80065
 Alpha virt. eigenvalues --    2.81368   2.84474   2.95323   3.02423   3.05832
 Alpha virt. eigenvalues --    3.22234   3.23207   3.24943   3.27379   3.36157
 Alpha virt. eigenvalues --    3.39928   3.59085   3.68886   3.77105   3.78942
 Alpha virt. eigenvalues --    3.79220   3.81583   3.81745   3.82763   3.89898
 Alpha virt. eigenvalues --    3.90793   3.94821   3.96505   4.01095   4.03277
 Alpha virt. eigenvalues --    4.09045   4.13267   4.15832   4.22912   4.25714
 Alpha virt. eigenvalues --    4.28542   4.30275   4.37524   4.39232   4.42499
 Alpha virt. eigenvalues --    4.60017   4.73778   4.74022   4.90423   5.13140
 Alpha virt. eigenvalues --    5.18042   5.20806   5.25562   5.31896   5.37715
 Alpha virt. eigenvalues --    5.75364   6.03085   6.22526   6.29155   6.35346
 Alpha virt. eigenvalues --    6.56859   6.62436   6.73096   6.82543   6.94534
 Alpha virt. eigenvalues --    6.96901   7.01570   7.04635   7.06761   7.12706
 Alpha virt. eigenvalues --    7.12984   7.15611   7.17396   7.36689   7.40270
 Alpha virt. eigenvalues --    7.46053   7.54371   7.55134   7.86603   8.22279
 Alpha virt. eigenvalues --    8.30911   8.45712  11.08054  14.03975  14.80032
 Alpha virt. eigenvalues --   14.92931  14.98940  15.09161  29.01039  29.01744
 Alpha virt. eigenvalues --   29.05324  29.19535  29.23878  49.22812 148.28243
 Alpha virt. eigenvalues --  148.50739 148.71684 752.98822
          Condensed to atoms (all electrons):
              1          2          3          4          5
     1  O    8.233391  -0.228709   0.174027   0.035256   0.002574
     2  O   -0.228709   8.228137   0.036741   0.178151   0.001701
     3  H    0.174027   0.036741   0.593116  -0.018647  -0.003001
     4  H    0.035256   0.178151  -0.018647   0.591788  -0.003454
     5  Kr   0.002574   0.001701  -0.003001  -0.003454   0.004290
 Mulliken atomic charges:
              1
     1  O   -0.216539
     2  O   -0.216021
     3  H    0.217764
     4  H    0.216906
     5  Kr  -0.002111
 Sum of Mulliken atomic charges =   0.00000
 Mulliken charges with hydrogens summed into heavy atoms:
              1
     1  O    0.001225
     2  O    0.000885
     5  Kr  -0.002111
 Sum of Mulliken charges with hydrogens summed into heavy atoms =   0.00000
          Condensed to fragments (all electrons):
     1       0.002111
     2      -0.002111
 Electronic spatial extent (au):  <R**2>=            316.4803
 Charge=              0.0000 electrons
 Dipole moment (field-independent basis, Debye):
    X=              3.3539    Y=             -0.0053    Z=              0.2991  Tot=              3.3672
 Quadrupole moment (field-independent basis, Debye-Ang):
   XX=            -22.0528   YY=            -10.3316   ZZ=            -12.7480
   XY=              0.0391   XZ=             -0.2411   YZ=             -0.3343
 Traceless Quadrupole moment (field-independent basis, Debye-Ang):
   XX=             -7.0087   YY=              4.7126   ZZ=              2.2961
   XY=              0.0391   XZ=             -0.2411   YZ=             -0.3343
 Octapole moment (field-independent basis, Debye-Ang**2):
  XXX=             93.8448  YYY=             -0.0298  ZZZ=              0.0123  XYY=             24.5046
  XXY=             -0.0731  XXZ=              0.0382  XZZ=             25.0607  YZZ=             -0.0585
  YYZ=              0.3804  XYZ=              0.3558
 Hexadecapole moment (field-independent basis, Debye-Ang**3):
 XXXX=           -338.3127 YYYY=            -43.9868 ZZZZ=            -10.3267 XXXY=              0.0760
 XXXZ=              0.4458 YYYX=              0.0684 YYYZ=             -0.4541 ZZZX=             -0.1245
 ZZZY=             -0.1767 XXYY=            -63.6474 XXZZ=            -53.0671 YYZZ=            -10.8556
 XXYZ=             -0.3829 YYXZ=             -0.4246 ZZXY=              0.0700
 N-N= 3.666596492333D+01 E-N=-4.316109112348D+02  KE= 1.502901577578D+02
 No NMR shielding tensors so no spin-rotation constants.
 Leave Link  601 at Tue May 12 00:39:47 2020, MaxMem= 1073741824 cpu:       0.8
 (Enter /home/matheus/.gaussian/g09/l122.exe)
 Counterpoise: doing DCBS calculation for fragment   2 NewBq=T
 Leave Link  122 at Tue May 12 00:39:47 2020, MaxMem= 1073741824 cpu:       0.0
 (Enter /home/matheus/.gaussian/g09/l301.exe)
 Basis read from rwf:  (5D, 7F)
 No pseudopotential information found on rwf file.
 There are   197 symmetry adapted basis functions of A   symmetry.
 Integral buffers will be    131072 words long.
 Raffenetti 2 integral format.
 Two-electron integral symmetry is turned on.
   197 basis functions,   415 primitive gaussians,   229 cartesian basis functions
    18 alpha electrons       18 beta electrons
       nuclear repulsion energy         0.0000000000 Hartrees.
 IExCor=10402 DFT=T Ex=LC-B+HF Corr=LYP ExCW=0 ScaHFX=  1.000000
 ScaDFX=  1.000000  1.000000  1.000000  1.000000 ScalE2=  1.000000  1.000000
 IRadAn=      5 IRanWt=     -1 IRanGd=            0 ICorTp=0
  HFx wShort=  0.000000 wLong=  1.350000 cFull=  0.000000 cShort=  0.000000 cLong=  1.000000
  DFx wShort=  0.000000 wLong=  1.350000 cFull=  0.000000 cShort=  0.000000 cLong=  1.000000
 NAtoms=    5 NActive=    5 NUniq=    5 SFac= 1.00D+00 NAtFMM=   60 NAOKFM=F Big=F
 No density basis found on file   718.
 Leave Link  301 at Tue May 12 00:39:47 2020, MaxMem= 1073741824 cpu:       0.2
 (Enter /home/matheus/.gaussian/g09/l302.exe)
 NPDir=0 NMtPBC=     1 NCelOv=     1 NCel=       1 NClECP=     1 NCelD=      1
         NCelK=      1 NCelE2=     1 NClLst=     1 CellRange=     0.0.
 One-electron integrals computed using PRISM.
 NBasis=   197 RedAO= T  NBF=   197
 NBsUse=   197 1.00D-06 NBFU=   197
 Precomputing XC quadrature grid using
 IXCGrd= 2 IRadAn=           5 IRanWt=          -1 IRanGd=           0 AccXCQ= 0.00D+00.
 NRdTot=     427 NPtTot=      123512 NUsed=      126579 NTot=      126611
 NSgBfM=   229   229   229   229   229 NAtAll=     5     5.
 Leave Link  302 at Tue May 12 00:39:48 2020, MaxMem= 1073741824 cpu:       1.0
 (Enter /home/matheus/.gaussian/g09/l303.exe)
 DipDrv:  MaxL=1.
 Leave Link  303 at Tue May 12 00:39:48 2020, MaxMem= 1073741824 cpu:       0.2
 (Enter /home/matheus/.gaussian/g09/l401.exe)
 Harris functional with IExCor=10402 diagonalized for initial guess.
 ExpMin= 2.53D-02 ExpMax= 1.17D+07 ExpMxC= 1.33D+04 IAcc=3 IRadAn=         5 AccDes= 0.00D+00
 HarFok:  IExCor=10402 AccDes= 0.00D+00 IRadAn=         5 IDoV= 1
 ScaDFX=  1.000000  1.000000  1.000000  1.000000
 FoFCou: FMM=F IPFlag=           0 FMFlag=      100000 FMFlg1=           0
         NFxFlg=           0 DoJE=T BraDBF=F KetDBF=T FulRan=T
         Omega=  0.000000  0.000000  1.000000  0.000000  0.000000 ICntrl=     500 IOpCl=  0
         NMat0=    1 NMatS0=    1 NMatT0=    0 NMatD0=    1 NMtDS0=    0 NMtDT0=    0
         I1Cent=           4 NGrid=           0.
 Petite list used in FoFCou.
 Harris En= -2731.73477266193    
 Initial guess orbital symmetries:
       Occupied  (A) (A) (A) (A) (A) (A) (A) (A) (A) (A) (A) (A)
                 (A) (A) (A) (A) (A) (A)
       Virtual   (A) (A) (A) (A) (A) (A) (A) (A) (A) (A) (A) (A)
                 (A) (A) (A) (A) (A) (A) (A) (A) (A) (A) (A) (A)
                 (A) (A) (A) (A) (A) (A) (A) (A) (A) (A) (A) (A)
                 (A) (A) (A) (A) (A) (A) (A) (A) (A) (A) (A) (A)
                 (A) (A) (A) (A) (A) (A) (A) (A) (A) (A) (A) (A)
                 (A) (A) (A) (A) (A) (A) (A) (A) (A) (A) (A) (A)
                 (A) (A) (A) (A) (A) (A) (A) (A) (A) (A) (A) (A)
                 (A) (A) (A) (A) (A) (A) (A) (A) (A) (A) (A) (A)
                 (A) (A) (A) (A) (A) (A) (A) (A) (A) (A) (A) (A)
                 (A) (A) (A) (A) (A) (A) (A) (A) (A) (A) (A) (A)
                 (A) (A) (A) (A) (A) (A) (A) (A) (A) (A) (A) (A)
                 (A) (A) (A) (A) (A) (A) (A) (A) (A) (A) (A) (A)
                 (A) (A) (A) (A) (A) (A) (A) (A) (A) (A) (A) (A)
                 (A) (A) (A) (A) (A) (A) (A) (A) (A) (A) (A) (A)
                 (A) (A) (A) (A) (A) (A) (A) (A) (A) (A) (A)
 The electronic state of the initial guess is 1-A.
 Leave Link  401 at Tue May 12 00:39:48 2020, MaxMem= 1073741824 cpu:       4.1
 (Enter /home/matheus/.gaussian/g09/l502.exe)
 Closed shell SCF:
 Requested convergence on RMS density matrix=1.00D-08 within 128 cycles.
 Requested convergence on MAX density matrix=1.00D-06.
 Requested convergence on             energy=1.00D-06.
 No special actions if energy rises.
 Using DIIS extrapolation, IDIIS=  1040.
 Integral symmetry usage will be decided dynamically.
       126521 words used for storage of precomputed grid.
 IEnd=      305468 IEndB=      305468 NGot=  1073741824 MDV=  1073505667
 LenX=  1073505667 LenY=  1073452785
 Fock matrices will be formed incrementally for  20 cycles.

 Cycle   1  Pass 1  IDiag  1:
 FoFJK:  IHMeth= 1 ICntrl=     0 DoSepK=T KAlg= 1 I1Cent= 0 FoldK=F
 FoFCou: FMM=F IPFlag=           0 FMFlag=      100000 FMFlg1=           0
         NFxFlg=           0 DoJE=T BraDBF=F KetDBF=F FulRan=T
         Omega=  0.000000  0.000000  1.000000  0.000000  0.000000 ICntrl=     500 IOpCl=  0
         NMat0=    1 NMatS0=    1 NMatT0=    0 NMatD0=    1 NMtDS0=    0 NMtDT0=    0
         I1Cent=           0 NGrid=           0.
 Symmetry not used in FoFCou.
 E= -2752.70948106784    
 DIIS: error= 4.86D-02 at cycle   1 NSaved=   1.
 NSaved= 1 IEnMin= 1 EnMin= -2752.70948106784     IErMin= 1 ErrMin= 4.86D-02
 ErrMax= 4.86D-02 EMaxC= 1.00D-01 BMatC= 1.18D+00 BMatP= 1.18D+00
 IDIUse=3 WtCom= 5.14D-01 WtEn= 4.86D-01
 Coeff-Com:  0.100D+01
 Coeff-En:   0.100D+01
 Coeff:      0.100D+01
 Gap=     0.765 Goal=   None    Shift=    0.000
 GapD=    0.765 DampG=2.000 DampE=0.500 DampFc=1.0000 IDamp=-1.
 RMSDP=5.06D-03 MaxDP=2.30D-01              OVMax= 3.37D-01

 Cycle   2  Pass 1  IDiag  1:
 RMSU=  3.50D-03    CP:  1.05D+00
 FoFJK:  IHMeth= 1 ICntrl=     0 DoSepK=T KAlg= 1 I1Cent= 0 FoldK=F
 E= -2753.27660430127     Delta-E=       -0.567123233430 Rises=F Damp=F
 DIIS: error= 3.16D-02 at cycle   2 NSaved=   2.
 NSaved= 2 IEnMin= 2 EnMin= -2753.27660430127     IErMin= 2 ErrMin= 3.16D-02
 ErrMax= 3.16D-02 EMaxC= 1.00D-01 BMatC= 3.67D-01 BMatP= 1.18D+00
 IDIUse=3 WtCom= 6.84D-01 WtEn= 3.16D-01
 Coeff-Com:  0.352D+00 0.648D+00
 Coeff-En:   0.000D+00 0.100D+01
 Coeff:      0.241D+00 0.759D+00
 Gap=     0.598 Goal=   None    Shift=    0.000
 RMSDP=2.31D-03 MaxDP=1.38D-01 DE=-5.67D-01 OVMax= 7.48D-02

 Cycle   3  Pass 1  IDiag  1:
 RMSU=  8.83D-04    CP:  1.03D+00  6.16D-01
 FoFJK:  IHMeth= 1 ICntrl=     0 DoSepK=T KAlg= 1 I1Cent= 0 FoldK=F
 E= -2753.40711152187     Delta-E=       -0.130507220598 Rises=F Damp=F
 DIIS: error= 4.56D-03 at cycle   3 NSaved=   3.
 NSaved= 3 IEnMin= 3 EnMin= -2753.40711152187     IErMin= 3 ErrMin= 4.56D-03
 ErrMax= 4.56D-03 EMaxC= 1.00D-01 BMatC= 8.42D-03 BMatP= 3.67D-01
 IDIUse=3 WtCom= 9.54D-01 WtEn= 4.56D-02
 Coeff-Com: -0.958D-02 0.108D+00 0.901D+00
 Coeff-En:   0.000D+00 0.000D+00 0.100D+01
 Coeff:     -0.914D-02 0.103D+00 0.906D+00
 Gap=     0.575 Goal=   None    Shift=    0.000
 RMSDP=3.90D-04 MaxDP=1.89D-02 DE=-1.31D-01 OVMax= 1.10D-02

 Cycle   4  Pass 1  IDiag  1:
 RMSU=  2.35D-04    CP:  1.03D+00  6.54D-01  9.55D-01
 FoFJK:  IHMeth= 1 ICntrl=     0 DoSepK=T KAlg= 1 I1Cent= 0 FoldK=F
 E= -2753.40951081941     Delta-E=       -0.002399297540 Rises=F Damp=F
 DIIS: error= 3.66D-04 at cycle   4 NSaved=   4.
 NSaved= 4 IEnMin= 4 EnMin= -2753.40951081941     IErMin= 4 ErrMin= 3.66D-04
 ErrMax= 3.66D-04 EMaxC= 1.00D-01 BMatC= 3.15D-05 BMatP= 8.42D-03
 IDIUse=3 WtCom= 9.96D-01 WtEn= 3.66D-03
 Coeff-Com: -0.681D-02-0.508D-02 0.248D-02 0.101D+01
 Coeff-En:   0.000D+00 0.000D+00 0.000D+00 0.100D+01
 Coeff:     -0.679D-02-0.507D-02 0.247D-02 0.101D+01
 Gap=     0.581 Goal=   None    Shift=    0.000
 RMSDP=4.95D-05 MaxDP=2.22D-03 DE=-2.40D-03 OVMax= 3.44D-03

 Cycle   5  Pass 1  IDiag  1:
 RMSU=  2.00D-05    CP:  1.03D+00  6.57D-01  9.78D-01  1.07D+00
 FoFJK:  IHMeth= 1 ICntrl=     0 DoSepK=T KAlg= 1 I1Cent= 0 FoldK=F
 E= -2753.40956950572     Delta-E=       -0.000058686305 Rises=F Damp=F
 DIIS: error= 5.87D-05 at cycle   5 NSaved=   5.
 NSaved= 5 IEnMin= 5 EnMin= -2753.40956950572     IErMin= 5 ErrMin= 5.87D-05
 ErrMax= 5.87D-05 EMaxC= 1.00D-01 BMatC= 5.09D-07 BMatP= 3.15D-05
 IDIUse=1 WtCom= 1.00D+00 WtEn= 0.00D+00
 Coeff-Com: -0.909D-04-0.133D-02 0.637D-03-0.166D+00 0.117D+01
 Coeff:     -0.909D-04-0.133D-02 0.637D-03-0.166D+00 0.117D+01
 Gap=     0.581 Goal=   None    Shift=    0.000
 RMSDP=1.05D-05 MaxDP=4.47D-04 DE=-5.87D-05 OVMax= 6.36D-04

 Cycle   6  Pass 1  IDiag  1:
 RMSU=  1.04D-06    CP:  1.03D+00  6.57D-01  9.83D-01  1.09D+00  1.20D+00
 FoFJK:  IHMeth= 1 ICntrl=     0 DoSepK=T KAlg= 1 I1Cent= 0 FoldK=F
 E= -2753.40957094208     Delta-E=       -0.000001436363 Rises=F Damp=F
 DIIS: error= 2.14D-06 at cycle   6 NSaved=   6.
 NSaved= 6 IEnMin= 6 EnMin= -2753.40957094208     IErMin= 6 ErrMin= 2.14D-06
 ErrMax= 2.14D-06 EMaxC= 1.00D-01 BMatC= 1.08D-09 BMatP= 5.09D-07
 IDIUse=1 WtCom= 1.00D+00 WtEn= 0.00D+00
 Coeff-Com:  0.248D-04 0.983D-04-0.319D-03 0.115D-01-0.112D+00 0.110D+01
 Coeff:      0.248D-04 0.983D-04-0.319D-03 0.115D-01-0.112D+00 0.110D+01
 Gap=     0.581 Goal=   None    Shift=    0.000
 RMSDP=5.36D-07 MaxDP=2.31D-05 DE=-1.44D-06 OVMax= 2.41D-05

 Cycle   7  Pass 1  IDiag  1:
 RMSU=  7.14D-08    CP:  1.03D+00  6.57D-01  9.83D-01  1.09D+00  1.21D+00
                    CP:  1.15D+00
 FoFJK:  IHMeth= 1 ICntrl=     0 DoSepK=T KAlg= 1 I1Cent= 0 FoldK=F
 E= -2753.40957094295     Delta-E=       -0.000000000874 Rises=F Damp=F
 DIIS: error= 2.16D-07 at cycle   7 NSaved=   7.
 NSaved= 7 IEnMin= 7 EnMin= -2753.40957094295     IErMin= 7 ErrMin= 2.16D-07
 ErrMax= 2.16D-07 EMaxC= 1.00D-01 BMatC= 1.63D-11 BMatP= 1.08D-09
 IDIUse=1 WtCom= 1.00D+00 WtEn= 0.00D+00
 Coeff-Com:  0.440D-05 0.113D-04-0.528D-04 0.160D-02-0.120D-01 0.602D-01
 Coeff-Com:  0.950D+00
 Coeff:      0.440D-05 0.113D-04-0.528D-04 0.160D-02-0.120D-01 0.602D-01
 Coeff:      0.950D+00
 Gap=     0.581 Goal=   None    Shift=    0.000
 RMSDP=2.51D-08 MaxDP=1.05D-06 DE=-8.74D-10 OVMax= 1.46D-06

 Cycle   8  Pass 1  IDiag  1:
 RMSU=  1.10D-08    CP:  1.03D+00  6.57D-01  9.83D-01  1.09D+00  1.21D+00
                    CP:  1.16D+00  1.08D+00
 FoFJK:  IHMeth= 1 ICntrl=     0 DoSepK=T KAlg= 1 I1Cent= 0 FoldK=F
 E= -2753.40957094299     Delta-E=       -0.000000000038 Rises=F Damp=F
 DIIS: error= 5.75D-08 at cycle   8 NSaved=   8.
 NSaved= 8 IEnMin= 8 EnMin= -2753.40957094299     IErMin= 8 ErrMin= 5.75D-08
 ErrMax= 5.75D-08 EMaxC= 1.00D-01 BMatC= 6.85D-13 BMatP= 1.63D-11
 IDIUse=1 WtCom= 1.00D+00 WtEn= 0.00D+00
 Coeff-Com:  0.526D-07-0.223D-05 0.228D-05-0.240D-03 0.274D-02-0.314D-01
 Coeff-Com:  0.710D-01 0.958D+00
 Coeff:      0.526D-07-0.223D-05 0.228D-05-0.240D-03 0.274D-02-0.314D-01
 Coeff:      0.710D-01 0.958D+00
 Gap=     0.581 Goal=   None    Shift=    0.000
 RMSDP=6.13D-09 MaxDP=2.07D-07 DE=-3.77D-11 OVMax= 4.69D-07

 SCF Done:  E(RLC-B+HF-LYP) =  -2753.40957094     A.U. after    8 cycles
             Convg  =    0.6129D-08             -V/T =  2.0014
 KE= 2.749617469522D+03 PE=-6.579403236002D+03 EE= 1.076376195537D+03
 Leave Link  502 at Tue May 12 00:40:17 2020, MaxMem= 1073741824 cpu:     228.1
 (Enter /home/matheus/.gaussian/g09/l601.exe)
 Copying SCF densities to generalized density rwf, IOpCl= 0 IROHF=0.

 **********************************************************************

            Population analysis using the SCF density.

 **********************************************************************

 Orbital symmetries:
       Occupied  (A) (A) (A) (A) (A) (A) (A) (A) (A) (A) (A) (A)
                 (A) (A) (A) (A) (A) (A)
       Virtual   (A) (A) (A) (A) (A) (A) (A) (A) (A) (A) (A) (A)
                 (A) (A) (A) (A) (A) (A) (A) (A) (A) (A) (A) (A)
                 (A) (A) (A) (A) (A) (A) (A) (A) (A) (A) (A) (A)
                 (A) (A) (A) (A) (A) (A) (A) (A) (A) (A) (A) (A)
                 (A) (A) (A) (A) (A) (A) (A) (A) (A) (A) (A) (A)
                 (A) (A) (A) (A) (A) (A) (A) (A) (A) (A) (A) (A)
                 (A) (A) (A) (A) (A) (A) (A) (A) (A) (A) (A) (A)
                 (A) (A) (A) (A) (A) (A) (A) (A) (A) (A) (A) (A)
                 (A) (A) (A) (A) (A) (A) (A) (A) (A) (A) (A) (A)
                 (A) (A) (A) (A) (A) (A) (A) (A) (A) (A) (A) (A)
                 (A) (A) (A) (A) (A) (A) (A) (A) (A) (A) (A) (A)
                 (A) (A) (A) (A) (A) (A) (A) (A) (A) (A) (A) (A)
                 (A) (A) (A) (A) (A) (A) (A) (A) (A) (A) (A) (A)
                 (A) (A) (A) (A) (A) (A) (A) (A) (A) (A) (A) (A)
                 (A) (A) (A) (A) (A) (A) (A) (A) (A) (A) (A)
 The electronic state is 1-A.
 Alpha  occ. eigenvalues -- -511.65547 -67.18009 -60.85208 -60.85205 -60.85204
 Alpha  occ. eigenvalues --  -10.08108  -7.79671  -7.79670  -7.79670  -3.62634
 Alpha  occ. eigenvalues --   -3.62634  -3.62634  -3.62633  -3.62632  -1.17382
 Alpha  occ. eigenvalues --   -0.55369  -0.55366  -0.55363
 Alpha virt. eigenvalues --    0.02705   0.04741   0.07886   0.09153   0.11502
 Alpha virt. eigenvalues --    0.12634   0.13272   0.13950   0.15311   0.16971
 Alpha virt. eigenvalues --    0.17344   0.17723   0.20735   0.26091   0.26801
 Alpha virt. eigenvalues --    0.27129   0.29571   0.31775   0.33286   0.37638
 Alpha virt. eigenvalues --    0.38496   0.39480   0.39600   0.40481   0.41628
 Alpha virt. eigenvalues --    0.42428   0.45947   0.55197   0.55989   0.60224
 Alpha virt. eigenvalues --    0.62348   0.63667   0.69991   0.70813   0.71823
 Alpha virt. eigenvalues --    0.73737   0.75596   0.77945   0.78452   0.79256
 Alpha virt. eigenvalues --    0.80250   0.84505   0.86462   0.87833   0.89234
 Alpha virt. eigenvalues --    0.89915   0.90282   0.91354   0.97177   0.99763
 Alpha virt. eigenvalues --    1.00110   1.00842   1.02564   1.02798   1.06737
 Alpha virt. eigenvalues --    1.07322   1.09887   1.12572   1.17928   1.18721
 Alpha virt. eigenvalues --    1.20533   1.25259   1.32970   1.34687   1.41598
 Alpha virt. eigenvalues --    1.43716   1.47145   1.49015   1.50105   1.54018
 Alpha virt. eigenvalues --    1.60391   1.64330   1.67356   1.72104   1.75264
 Alpha virt. eigenvalues --    1.78862   1.86430   1.89085   1.94980   2.22643
 Alpha virt. eigenvalues --    2.23980   2.29066   2.35200   2.35853   2.37644
 Alpha virt. eigenvalues --    2.41076   2.43366   2.46541   2.47176   2.48804
 Alpha virt. eigenvalues --    2.49608   2.50680   2.55993   2.57934   2.59728
 Alpha virt. eigenvalues --    2.60878   2.64677   2.66405   2.66713   2.69195
 Alpha virt. eigenvalues --    2.69750   2.70679   2.76864   2.77134   2.79263
 Alpha virt. eigenvalues --    2.80913   2.83970   2.92280   2.93244   2.96894
 Alpha virt. eigenvalues --    3.00445   3.02500   3.08820   3.15409   3.17817
 Alpha virt. eigenvalues --    3.26806   3.27563   3.28276   3.40770   3.54896
 Alpha virt. eigenvalues --    3.62429   3.65507   3.87570   3.87778   4.01949
 Alpha virt. eigenvalues --    4.43351   4.48443   4.51311   4.60362   4.72365
 Alpha virt. eigenvalues --    4.73924   4.82270   4.87986   4.95122   5.04278
 Alpha virt. eigenvalues --    5.16910   5.30738   5.51211   5.66494   5.69072
 Alpha virt. eigenvalues --    5.92555   6.02708   6.27097   6.70137   6.94675
 Alpha virt. eigenvalues --    7.26536   7.37504   7.64595   7.66318   7.79356
 Alpha virt. eigenvalues --    7.87262   8.02612   8.11701   8.13986   8.27965
 Alpha virt. eigenvalues --    8.30303   8.37130   8.70879   9.01440   9.50095
 Alpha virt. eigenvalues --    9.73898   9.77451   9.88183   9.90536   9.94117
 Alpha virt. eigenvalues --   10.20632  10.22092  10.72766  10.86897  11.44397
 Alpha virt. eigenvalues --   11.62809  11.67351  11.92568  12.06145  13.29264
 Alpha virt. eigenvalues --   13.59347  14.55457  62.37418  64.82016
          Condensed to atoms (all electrons):
              1          2          3          4          5
     1  O    0.002488  -0.000230  -0.002337   0.000534  -0.005749
     2  O   -0.000230   0.002761   0.000452  -0.002583  -0.004733
     3  H   -0.002337   0.000452   0.003226  -0.000320  -0.018546
     4  H    0.000534  -0.002583  -0.000320   0.003476  -0.019672
     5  Kr  -0.005749  -0.004733  -0.018546  -0.019672  36.094417
 Mulliken atomic charges:
              1
     1  O    0.005295
     2  O    0.004333
     3  H    0.017525
     4  H    0.018565
     5  Kr  -0.045718
 Sum of Mulliken atomic charges =   0.00000
 Mulliken charges with hydrogens summed into heavy atoms:
              1
     1  O    0.022819
     2  O    0.022898
     5  Kr  -0.045718
 Sum of Mulliken charges with hydrogens summed into heavy atoms =   0.00000
          Condensed to fragments (all electrons):
     1       0.045718
     2      -0.045718
 Electronic spatial extent (au):  <R**2>=            159.2163
 Charge=              0.0000 electrons
 Dipole moment (field-independent basis, Debye):
    X=             -0.0023    Y=              0.0000    Z=              0.0000  Tot=              0.0023
 Quadrupole moment (field-independent basis, Debye-Ang):
   XX=            -17.5632   YY=            -17.5704   ZZ=            -17.5818
   XY=             -0.0002   XZ=             -0.0012   YZ=             -0.0008
 Traceless Quadrupole moment (field-independent basis, Debye-Ang):
   XX=              0.0086   YY=              0.0014   ZZ=             -0.0100
   XY=             -0.0002   XZ=             -0.0012   YZ=             -0.0008
 Octapole moment (field-independent basis, Debye-Ang**2):
  XXX=            -50.9081  YYY=              0.0070  ZZZ=              0.0657  XYY=            -16.9828
  XXY=              0.0020  XXZ=              0.0200  XZZ=            -16.9906  YZZ=              0.0025
  YYZ=              0.0218  XYZ=             -0.0004
 Hexadecapole moment (field-independent basis, Debye-Ang**3):
 XXXX=           -116.4257 YYYY=            -18.0762 ZZZZ=            -18.1157 XXXY=              0.0060
 XXXZ=              0.0595 YYYX=              0.0063 YYYZ=             -0.0005 ZZZX=              0.0600
 ZZZY=             -0.0021 XXYY=            -22.4280 XXZZ=            -22.4404 YYZZ=             -6.0290
 XXYZ=             -0.0006 YYXZ=              0.0204 ZZXY=              0.0020
 N-N= 0.000000000000D+00 E-N=-6.579403224213D+03  KE= 2.749617469522D+03
 No NMR shielding tensors so no spin-rotation constants.
 Leave Link  601 at Tue May 12 00:40:17 2020, MaxMem= 1073741824 cpu:       0.8
 (Enter /home/matheus/.gaussian/g09/l122.exe)
 Counterpoise: doing MCBS calculation for fragment   1
 Leave Link  122 at Tue May 12 00:40:17 2020, MaxMem= 1073741824 cpu:       0.0
 (Enter /home/matheus/.gaussian/g09/l301.exe)
 Basis read from rwf:  (5D, 7F)
 No pseudopotential information found on rwf file.
 There are   138 symmetry adapted basis functions of A   symmetry.
 Integral buffers will be    131072 words long.
 Raffenetti 2 integral format.
 Two-electron integral symmetry is turned on.
   138 basis functions,   198 primitive gaussians,   160 cartesian basis functions
     9 alpha electrons        9 beta electrons
       nuclear repulsion energy        36.6659649233 Hartrees.
 IExCor=10402 DFT=T Ex=LC-B+HF Corr=LYP ExCW=0 ScaHFX=  1.000000
 ScaDFX=  1.000000  1.000000  1.000000  1.000000 ScalE2=  1.000000  1.000000
 IRadAn=      5 IRanWt=     -1 IRanGd=            0 ICorTp=0
  HFx wShort=  0.000000 wLong=  1.350000 cFull=  0.000000 cShort=  0.000000 cLong=  1.000000
  DFx wShort=  0.000000 wLong=  1.350000 cFull=  0.000000 cShort=  0.000000 cLong=  1.000000
 NAtoms=    5 NActive=    4 NUniq=    4 SFac= 1.00D+00 NAtFMM=   60 NAOKFM=F Big=F
 No density basis found on file   718.
 Leave Link  301 at Tue May 12 00:40:17 2020, MaxMem= 1073741824 cpu:       0.2
 (Enter /home/matheus/.gaussian/g09/l302.exe)
 NPDir=0 NMtPBC=     1 NCelOv=     1 NCel=       1 NClECP=     1 NCelD=      1
         NCelK=      1 NCelE2=     1 NClLst=     1 CellRange=     0.0.
 One-electron integrals computed using PRISM.
 NBasis=   138 RedAO= T  NBF=   138
 NBsUse=   138 1.00D-06 NBFU=   138
 Precomputing XC quadrature grid using
 IXCGrd= 2 IRadAn=           5 IRanWt=          -1 IRanGd=           0 AccXCQ= 0.00D+00.
 NRdTot=     344 NPtTot=       92556 NUsed=       95038 NTot=       95070
 NSgBfM=   160   160   160   160   160 NAtAll=     4     4.
 Leave Link  302 at Tue May 12 00:40:17 2020, MaxMem= 1073741824 cpu:       0.8
 (Enter /home/matheus/.gaussian/g09/l303.exe)
 DipDrv:  MaxL=1.
 Leave Link  303 at Tue May 12 00:40:17 2020, MaxMem= 1073741824 cpu:       0.1
 (Enter /home/matheus/.gaussian/g09/l401.exe)
 Harris functional with IExCor=10402 diagonalized for initial guess.
 ExpMin= 2.53D-02 ExpMax= 1.53D+04 ExpMxC= 5.22D+02 IAcc=3 IRadAn=         5 AccDes= 0.00D+00
 HarFok:  IExCor=10402 AccDes= 0.00D+00 IRadAn=         5 IDoV= 1
 ScaDFX=  1.000000  1.000000  1.000000  1.000000
 FoFCou: FMM=F IPFlag=           0 FMFlag=      100000 FMFlg1=           0
         NFxFlg=           0 DoJE=T BraDBF=F KetDBF=T FulRan=T
         Omega=  0.000000  0.000000  1.000000  0.000000  0.000000 ICntrl=     500 IOpCl=  0
         NMat0=    1 NMatS0=    1 NMatT0=    0 NMatD0=    1 NMtDS0=    0 NMtDT0=    0
         I1Cent=           4 NGrid=           0.
 Petite list used in FoFCou.
 Harris En= -143.218247326774    
 Initial guess orbital symmetries:
       Occupied  (A) (A) (A) (A) (A) (A) (A) (A) (A)
       Virtual   (A) (A) (A) (A) (A) (A) (A) (A) (A) (A) (A) (A)
                 (A) (A) (A) (A) (A) (A) (A) (A) (A) (A) (A) (A)
[...]
 HarFok:  IExCor=10402 AccDes= 0.00D+00 IRadAn=         5 IDoV= 1
 ScaDFX=  1.000000  1.000000  1.000000  1.000000
 FoFCou: FMM=F IPFlag=           0 FMFlag=      100000 FMFlg1=           0
         NFxFlg=           0 DoJE=T BraDBF=F KetDBF=T FulRan=T
         Omega=  0.000000  0.000000  1.000000  0.000000  0.000000 ICntrl=     500 IOpCl=  0
         NMat0=    1 NMatS0=    1 NMatT0=    0 NMatD0=    1 NMtDS0=    0 NMtDT0=    0
         I1Cent=           4 NGrid=           0.
 Petite list used in FoFCou.
 Harris En= -2731.73403981318    
 Leave Link  401 at Tue May 12 01:01:41 2020, MaxMem= 1073741824 cpu:       3.8
 (Enter /home/matheus/.gaussian/g09/l502.exe)
 Closed shell SCF:
 Requested convergence on RMS density matrix=1.00D-08 within 128 cycles.
 Requested convergence on MAX density matrix=1.00D-06.
 Requested convergence on             energy=1.00D-06.
 No special actions if energy rises.
 Using DIIS extrapolation, IDIIS=  1040.
 Integral symmetry usage will be decided dynamically.
       126823 words used for storage of precomputed grid.
 IEnd=      305770 IEndB=      305770 NGot=  1073741824 MDV=  1073505365
 LenX=  1073505365 LenY=  1073452483
 Fock matrices will be formed incrementally for  20 cycles.

 Cycle   1  Pass 1  IDiag  1:
 FoFJK:  IHMeth= 1 ICntrl=     0 DoSepK=T KAlg= 1 I1Cent= 0 FoldK=F
 FoFCou: FMM=F IPFlag=           0 FMFlag=      100000 FMFlg1=           0
         NFxFlg=           0 DoJE=T BraDBF=F KetDBF=F FulRan=T
         Omega=  0.000000  0.000000  1.000000  0.000000  0.000000 ICntrl=     500 IOpCl=  0
         NMat0=    1 NMatS0=    1 NMatT0=    0 NMatD0=    1 NMtDS0=    0 NMtDT0=    0
         I1Cent=           0 NGrid=           0.
 Symmetry not used in FoFCou.
 E= -2753.40937771664    
 DIIS: error= 2.20D-04 at cycle   1 NSaved=   1.
 NSaved= 1 IEnMin= 1 EnMin= -2753.40937771664     IErMin= 1 ErrMin= 2.20D-04
 ErrMax= 2.20D-04 EMaxC= 1.00D-01 BMatC= 6.16D-06 BMatP= 6.16D-06
 IDIUse=3 WtCom= 9.98D-01 WtEn= 2.20D-03
 Coeff-Com:  0.100D+01
 Coeff-En:   0.100D+01
 Coeff:      0.100D+01
 Gap=     0.581 Goal=   None    Shift=    0.000
 RMSDP=1.53D-05 MaxDP=7.27D-04              OVMax= 3.96D-04

 Cycle   2  Pass 1  IDiag  1:
 RMSU=  1.08D-05    CP:  1.00D+00
 FoFJK:  IHMeth= 1 ICntrl=     0 DoSepK=T KAlg= 1 I1Cent= 0 FoldK=F
 E= -2753.40937862104     Delta-E=       -0.000000904398 Rises=F Damp=F
 DIIS: error= 7.46D-06 at cycle   2 NSaved=   2.
 NSaved= 2 IEnMin= 2 EnMin= -2753.40937862104     IErMin= 2 ErrMin= 7.46D-06
 ErrMax= 7.46D-06 EMaxC= 1.00D-01 BMatC= 6.71D-09 BMatP= 6.16D-06
 IDIUse=1 WtCom= 1.00D+00 WtEn= 0.00D+00
 Coeff-Com: -0.110D-01 0.101D+01
 Coeff:     -0.110D-01 0.101D+01
 Gap=     0.581 Goal=   None    Shift=    0.000
 RMSDP=1.44D-06 MaxDP=5.91D-05 DE=-9.04D-07 OVMax= 6.00D-05

 Cycle   3  Pass 1  IDiag  1:
 RMSU=  5.31D-07    CP:  1.00D+00  1.08D+00
 FoFJK:  IHMeth= 1 ICntrl=     0 DoSepK=T KAlg= 1 I1Cent= 0 FoldK=F
 E= -2753.40937863298     Delta-E=       -0.000000011938 Rises=F Damp=F
 DIIS: error= 1.14D-06 at cycle   3 NSaved=   3.
 NSaved= 3 IEnMin= 3 EnMin= -2753.40937863298     IErMin= 3 ErrMin= 1.14D-06
 ErrMax= 1.14D-06 EMaxC= 1.00D-01 BMatC= 1.76D-10 BMatP= 6.71D-09
 IDIUse=1 WtCom= 1.00D+00 WtEn= 0.00D+00
 Coeff-Com:  0.256D-03-0.114D+00 0.111D+01
 Coeff:      0.256D-03-0.114D+00 0.111D+01
 Gap=     0.581 Goal=   None    Shift=    0.000
 RMSDP=1.80D-07 MaxDP=5.55D-06 DE=-1.19D-08 OVMax= 1.17D-05

 Cycle   4  Pass 1  IDiag  1:
 RMSU=  5.77D-08    CP:  1.00D+00  1.08D+00  1.19D+00
 FoFJK:  IHMeth= 1 ICntrl=     0 DoSepK=T KAlg= 1 I1Cent= 0 FoldK=F
 E= -2753.40937863339     Delta-E=       -0.000000000414 Rises=F Damp=F
 DIIS: error= 3.47D-07 at cycle   4 NSaved=   4.
 NSaved= 4 IEnMin= 4 EnMin= -2753.40937863339     IErMin= 4 ErrMin= 3.47D-07
 ErrMax= 3.47D-07 EMaxC= 1.00D-01 BMatC= 1.64D-11 BMatP= 1.76D-10
 IDIUse=1 WtCom= 1.00D+00 WtEn= 0.00D+00
 Coeff-Com:  0.257D-03-0.448D-01 0.266D+00 0.778D+00
 Coeff:      0.257D-03-0.448D-01 0.266D+00 0.778D+00
 Gap=     0.581 Goal=   None    Shift=    0.000
 RMSDP=2.22D-08 MaxDP=7.57D-07 DE=-4.14D-10 OVMax= 1.07D-06

 Cycle   5  Pass 1  IDiag  1:
 RMSU=  1.06D-08    CP:  1.00D+00  1.08D+00  1.21D+00  1.09D+00
 FoFJK:  IHMeth= 1 ICntrl=     0 DoSepK=T KAlg= 1 I1Cent= 0 FoldK=F
 E= -2753.40937863343     Delta-E=       -0.000000000036 Rises=F Damp=F
 DIIS: error= 9.00D-08 at cycle   5 NSaved=   5.
 NSaved= 5 IEnMin= 5 EnMin= -2753.40937863343     IErMin= 5 ErrMin= 9.00D-08
 ErrMax= 9.00D-08 EMaxC= 1.00D-01 BMatC= 3.87D-13 BMatP= 1.64D-11
 IDIUse=1 WtCom= 1.00D+00 WtEn= 0.00D+00
 Coeff-Com: -0.216D-04 0.664D-02-0.597D-01-0.266D-01 0.108D+01
 Coeff:     -0.216D-04 0.664D-02-0.597D-01-0.266D-01 0.108D+01
 Gap=     0.581 Goal=   None    Shift=    0.000
 RMSDP=9.27D-09 MaxDP=3.72D-07 DE=-3.64D-11 OVMax= 4.41D-07

 SCF Done:  E(RLC-B+HF-LYP) =  -2753.40937863     A.U. after    5 cycles
             Convg  =    0.9271D-08             -V/T =  2.0014
 KE= 2.749687602250D+03 PE=-6.579480545789D+03 EE= 1.076383564906D+03
 Leave Link  502 at Tue May 12 01:01:52 2020, MaxMem= 1073741824 cpu:      94.0
 (Enter /home/matheus/.gaussian/g09/l122.exe)
 Restoring MOs from calculation   4 to rwf.
 Counterpoise: doing MCBS calculation for fragment   1
 Leave Link  122 at Tue May 12 01:01:52 2020, MaxMem= 1073741824 cpu:       0.0
 (Enter /home/matheus/.gaussian/g09/l301.exe)
 Basis read from rwf:  (5D, 7F)
 No pseudopotential information found on rwf file.
 There are   138 symmetry adapted basis functions of A   symmetry.
 Integral buffers will be    131072 words long.
 Raffenetti 2 integral format.
 Two-electron integral symmetry is turned on.
   138 basis functions,   198 primitive gaussians,   160 cartesian basis functions
     9 alpha electrons        9 beta electrons
       nuclear repulsion energy        36.6659649233 Hartrees.
 IExCor=10402 DFT=T Ex=LC-B+HF Corr=LYP ExCW=0 ScaHFX=  1.000000
 ScaDFX=  1.000000  1.000000  1.000000  1.000000 ScalE2=  1.000000  1.000000
 IRadAn=      5 IRanWt=     -1 IRanGd=            0 ICorTp=0
  HFx wShort=  0.000000 wLong=  1.350000 cFull=  0.000000 cShort=  0.000000 cLong=  1.000000
  DFx wShort=  0.000000 wLong=  1.350000 cFull=  0.000000 cShort=  0.000000 cLong=  1.000000
 NAtoms=    5 NActive=    4 NUniq=    4 SFac= 1.00D+00 NAtFMM=   60 NAOKFM=F Big=F
 No density basis found on file   718.
 Leave Link  301 at Tue May 12 01:01:52 2020, MaxMem= 1073741824 cpu:       0.2
 (Enter /home/matheus/.gaussian/g09/l302.exe)
 NPDir=0 NMtPBC=     1 NCelOv=     1 NCel=       1 NClECP=     1 NCelD=      1
         NCelK=      1 NCelE2=     1 NClLst=     1 CellRange=     0.0.
 One-electron integrals computed using PRISM.
 NBasis=   138 RedAO= T  NBF=   138
 NBsUse=   138 1.00D-06 NBFU=   138
 Precomputing XC quadrature grid using
 IXCGrd= 2 IRadAn=           5 IRanWt=          -1 IRanGd=           0 AccXCQ= 0.00D+00.
 NRdTot=     344 NPtTot=       92556 NUsed=       95038 NTot=       95070
 NSgBfM=   160   160   160   160   160 NAtAll=     4     4.
 Leave Link  302 at Tue May 12 01:01:53 2020, MaxMem= 1073741824 cpu:       0.9
 (Enter /home/matheus/.gaussian/g09/l303.exe)
 DipDrv:  MaxL=1.
 Leave Link  303 at Tue May 12 01:01:53 2020, MaxMem= 1073741824 cpu:       0.2
 (Enter /home/matheus/.gaussian/g09/l401.exe)
 Initial guess read from the read-write file.
 Guess basis will be translated and rotated to current coordinates.
 Initial guess orbital symmetries:
       Occupied  (A) (A) (A) (A) (A) (A) (A) (A) (A)
       Virtual   (A) (A) (A) (A) (A) (A) (A) (A) (A) (A) (A) (A)
                 (A) (A) (A) (A) (A) (A) (A) (A) (A) (A) (A) (A)
                 (A) (A) (A) (A) (A) (A) (A) (A) (A) (A) (A) (A)
                 (A) (A) (A) (A) (A) (A) (A) (A) (A) (A) (A) (A)
                 (A) (A) (A) (A) (A) (A) (A) (A) (A) (A) (A) (A)
                 (A) (A) (A) (A) (A) (A) (A) (A) (A) (A) (A) (A)
                 (A) (A) (A) (A) (A) (A) (A) (A) (A) (A) (A) (A)
                 (A) (A) (A) (A) (A) (A) (A) (A) (A) (A) (A) (A)
                 (A) (A) (A) (A) (A) (A) (A) (A) (A) (A) (A) (A)
                 (A) (A) (A) (A) (A) (A) (A) (A) (A) (A) (A) (A)
                 (A) (A) (A) (A) (A) (A) (A) (A) (A)
 The electronic state of the initial guess is 1-A.
 Generating alternative initial guess.
 Harris functional with IExCor=10402 diagonalized for initial guess.
 ExpMin= 2.53D-02 ExpMax= 1.53D+04 ExpMxC= 5.22D+02 IAcc=3 IRadAn=         5 AccDes= 0.00D+00
 HarFok:  IExCor=10402 AccDes= 0.00D+00 IRadAn=         5 IDoV= 1
 ScaDFX=  1.000000  1.000000  1.000000  1.000000
 FoFCou: FMM=F IPFlag=           0 FMFlag=      100000 FMFlg1=           0
         NFxFlg=           0 DoJE=T BraDBF=F KetDBF=T FulRan=T
         Omega=  0.000000  0.000000  1.000000  0.000000  0.000000 ICntrl=     500 IOpCl=  0
         NMat0=    1 NMatS0=    1 NMatT0=    0 NMatD0=    1 NMtDS0=    0 NMtDT0=    0
         I1Cent=           4 NGrid=           0.
 Petite list used in FoFCou.
 Harris En= -143.218247327019    
 Leave Link  401 at Tue May 12 01:01:53 2020, MaxMem= 1073741824 cpu:       2.7
 (Enter /home/matheus/.gaussian/g09/l502.exe)
 Closed shell SCF:
 Requested convergence on RMS density matrix=1.00D-08 within 128 cycles.
 Requested convergence on MAX density matrix=1.00D-06.
 Requested convergence on             energy=1.00D-06.
 No special actions if energy rises.
 Using DIIS extrapolation, IDIIS=  1040.
 Integral symmetry usage will be decided dynamically.
        94980 words used for storage of precomputed grid.
 IEnd=      192360 IEndB=      192360 NGot=  1073741824 MDV=  1073591865
 LenX=  1073591865 LenY=  1073565824
 Fock matrices will be formed incrementally for  20 cycles.

 Cycle   1  Pass 1  IDiag  1:
 FoFJK:  IHMeth= 1 ICntrl=     0 DoSepK=T KAlg= 1 I1Cent= 0 FoldK=F
 FoFCou: FMM=F IPFlag=           0 FMFlag=      100000 FMFlg1=           0
         NFxFlg=           0 DoJE=T BraDBF=F KetDBF=F FulRan=T
         Omega=  0.000000  0.000000  1.000000  0.000000  0.000000 ICntrl=     500 IOpCl=  0
         NMat0=    1 NMatS0=    1 NMatT0=    0 NMatD0=    1 NMtDS0=    0 NMtDT0=    0
         I1Cent=           0 NGrid=           0.
 Symmetry not used in FoFCou.
 E= -151.204938464732    
 DIIS: error= 9.24D-07 at cycle   1 NSaved=   1.
 NSaved= 1 IEnMin= 1 EnMin= -151.204938464732     IErMin= 1 ErrMin= 9.24D-07
 ErrMax= 9.24D-07 EMaxC= 1.00D-01 BMatC= 1.06D-10 BMatP= 1.06D-10
 IDIUse=1 WtCom= 1.00D+00 WtEn= 0.00D+00
 Coeff-Com:  0.100D+01
 Coeff:      0.100D+01
 Gap=     0.505 Goal=   None    Shift=    0.000
 RMSDP=8.15D-08 MaxDP=2.01D-06              OVMax= 2.85D-06

 Cycle   2  Pass 1  IDiag  1:
 RMSU=  5.76D-08    CP:  1.00D+00
 FoFJK:  IHMeth= 1 ICntrl=     0 DoSepK=T KAlg= 1 I1Cent= 0 FoldK=F
 E= -151.204938464832     Delta-E=       -0.000000000099 Rises=F Damp=F
 DIIS: error= 2.47D-07 at cycle   2 NSaved=   2.
 NSaved= 2 IEnMin= 2 EnMin= -151.204938464832     IErMin= 2 ErrMin= 2.47D-07
 ErrMax= 2.47D-07 EMaxC= 1.00D-01 BMatC= 5.82D-12 BMatP= 1.06D-10
 IDIUse=1 WtCom= 1.00D+00 WtEn= 0.00D+00
 Coeff-Com: -0.189D+00 0.119D+01
 Coeff:     -0.189D+00 0.119D+01
 Gap=     0.505 Goal=   None    Shift=    0.000
 RMSDP=2.21D-08 MaxDP=6.80D-07 DE=-9.94D-11 OVMax= 1.19D-06

 Cycle   3  Pass 1  IDiag  1:
 RMSU=  6.34D-09    CP:  1.00D+00  1.25D+00
 FoFJK:  IHMeth= 1 ICntrl=     0 DoSepK=T KAlg= 1 I1Cent= 0 FoldK=F
 E= -151.204938464842     Delta-E=       -0.000000000010 Rises=F Damp=F
 DIIS: error= 6.10D-08 at cycle   3 NSaved=   3.
 NSaved= 3 IEnMin= 3 EnMin= -151.204938464842     IErMin= 3 ErrMin= 6.10D-08
 ErrMax= 6.10D-08 EMaxC= 1.00D-01 BMatC= 5.08D-13 BMatP= 5.82D-12
 IDIUse=1 WtCom= 1.00D+00 WtEn= 0.00D+00
 Coeff-Com: -0.333D-01 0.722D-01 0.961D+00
 Coeff:     -0.333D-01 0.722D-01 0.961D+00
 Gap=     0.505 Goal=   None    Shift=    0.000
 RMSDP=5.27D-09 MaxDP=1.24D-07 DE=-1.00D-11 OVMax= 4.02D-07

 SCF Done:  E(RLC-B+HF-LYP) =  -151.204938465     A.U. after    3 cycles
             Convg  =    0.5267D-08             -V/T =  2.0061
 KE= 1.502905198263D+02 PE=-4.316096181095D+02 EE= 9.344819489498D+01
 Leave Link  502 at Tue May 12 01:01:56 2020, MaxMem= 1073741824 cpu:      23.9
 (Enter /home/matheus/.gaussian/g09/l122.exe)
 Restoring MOs from calculation   5 to rwf.
 Counterpoise: doing MCBS calculation for fragment   2
 Leave Link  122 at Tue May 12 01:01:56 2020, MaxMem= 1073741824 cpu:       0.0
 (Enter /home/matheus/.gaussian/g09/l301.exe)
 Basis read from rwf:  (5D, 7F)
 No pseudopotential information found on rwf file.
 There are    59 symmetry adapted basis functions of A   symmetry.
 Integral buffers will be    131072 words long.
 Raffenetti 2 integral format.
 Two-electron integral symmetry is turned on.
    59 basis functions,   217 primitive gaussians,    69 cartesian basis functions
    18 alpha electrons       18 beta electrons
       nuclear repulsion energy         0.0000000000 Hartrees.
 IExCor=10402 DFT=T Ex=LC-B+HF Corr=LYP ExCW=0 ScaHFX=  1.000000
 ScaDFX=  1.000000  1.000000  1.000000  1.000000 ScalE2=  1.000000  1.000000
 IRadAn=      5 IRanWt=     -1 IRanGd=            0 ICorTp=0
  HFx wShort=  0.000000 wLong=  1.350000 cFull=  0.000000 cShort=  0.000000 cLong=  1.000000
  DFx wShort=  0.000000 wLong=  1.350000 cFull=  0.000000 cShort=  0.000000 cLong=  1.000000
 NAtoms=    5 NActive=    1 NUniq=    1 SFac= 1.00D+00 NAtFMM=   60 NAOKFM=F Big=F
 No density basis found on file   718.
 Leave Link  301 at Tue May 12 01:01:56 2020, MaxMem= 1073741824 cpu:       0.2
 (Enter /home/matheus/.gaussian/g09/l302.exe)
 NPDir=0 NMtPBC=     1 NCelOv=     1 NCel=       1 NClECP=     1 NCelD=      1
         NCelK=      1 NCelE2=     1 NClLst=     1 CellRange=     0.0.
 One-electron integrals computed using PRISM.
 NBasis=    59 RedAO= T  NBF=    59
 NBsUse=    59 1.00D-06 NBFU=    59
 Precomputing XC quadrature grid using
 IXCGrd= 2 IRadAn=           5 IRanWt=          -1 IRanGd=           0 AccXCQ= 0.00D+00.
 NRdTot=      81 NPtTot=       30352 NUsed=       30981 NTot=       31013
 NSgBfM=    69    69    69    69    69 NAtAll=     1     1.
 Leave Link  302 at Tue May 12 01:01:56 2020, MaxMem= 1073741824 cpu:       0.7
 (Enter /home/matheus/.gaussian/g09/l303.exe)
 DipDrv:  MaxL=1.
 Leave Link  303 at Tue May 12 01:01:56 2020, MaxMem= 1073741824 cpu:       0.1
 (Enter /home/matheus/.gaussian/g09/l401.exe)
 Initial guess read from the read-write file.
 Guess basis will be translated and rotated to current coordinates.
 Initial guess orbital symmetries:
       Occupied  (A) (A) (A) (A) (A) (A) (A) (A) (A) (A) (A) (A)
                 (A) (A) (A) (A) (A) (A)
       Virtual   (A) (A) (A) (A) (A) (A) (A) (A) (A) (A) (A) (A)
                 (A) (A) (A) (A) (A) (A) (A) (A) (A) (A) (A) (A)
                 (A) (A) (A) (A) (A) (A) (A) (A) (A) (A) (A) (A)
                 (A) (A) (A) (A) (A)
 The electronic state of the initial guess is 1-A.
 Generating alternative initial guess.
 Harris functional with IExCor=10402 diagonalized for initial guess.
 ExpMin= 4.00D-02 ExpMax= 1.17D+07 ExpMxC= 1.33D+04 IAcc=3 IRadAn=         5 AccDes= 0.00D+00
 HarFok:  IExCor=10402 AccDes= 0.00D+00 IRadAn=         5 IDoV= 1
 ScaDFX=  1.000000  1.000000  1.000000  1.000000
 FoFCou: FMM=F IPFlag=           0 FMFlag=      100000 FMFlg1=           0
         NFxFlg=           0 DoJE=T BraDBF=F KetDBF=T FulRan=T
         Omega=  0.000000  0.000000  1.000000  0.000000  0.000000 ICntrl=     500 IOpCl=  0
         NMat0=    1 NMatS0=    1 NMatT0=    0 NMatD0=    1 NMtDS0=    0 NMtDT0=    0
         I1Cent=           4 NGrid=           0.
 Petite list used in FoFCou.
 Harris En= -2731.73388500824    
 Leave Link  401 at Tue May 12 01:01:56 2020, MaxMem= 1073741824 cpu:       1.0
 (Enter /home/matheus/.gaussian/g09/l502.exe)
 Closed shell SCF:
 Requested convergence on RMS density matrix=1.00D-08 within 128 cycles.
 Requested convergence on MAX density matrix=1.00D-06.
 Requested convergence on             energy=1.00D-06.
 No special actions if energy rises.
 Using DIIS extrapolation, IDIIS=  1040.
 Integral symmetry usage will be decided dynamically.
        30923 words used for storage of precomputed grid.
 IEnd=       64406 IEndB=       64406 NGot=  1073741824 MDV=  1073698889
 LenX=  1073698889 LenY=  1073693687
 Fock matrices will be formed incrementally for  20 cycles.

 Cycle   1  Pass 1  IDiag  1:
 FoFJK:  IHMeth= 1 ICntrl=     0 DoSepK=T KAlg= 1 I1Cent= 0 FoldK=F
 FoFCou: FMM=F IPFlag=           0 FMFlag=      100000 FMFlg1=           0
         NFxFlg=           0 DoJE=T BraDBF=F KetDBF=F FulRan=T
         Omega=  0.000000  0.000000  1.000000  0.000000  0.000000 ICntrl=     500 IOpCl=  0
         NMat0=    1 NMatS0=    1 NMatT0=    0 NMatD0=    1 NMtDS0=    0 NMtDT0=    0
         I1Cent=           0 NGrid=           0.
 Symmetry not used in FoFCou.
 E= -2753.40934852740    
 DIIS: error= 1.49D-13 at cycle   1 NSaved=   1.
 NSaved= 1 IEnMin= 1 EnMin= -2753.40934852740     IErMin= 1 ErrMin= 1.49D-13
 ErrMax= 1.49D-13 EMaxC= 1.00D-01 BMatC= 3.40D-25 BMatP= 3.40D-25
 IDIUse=1 WtCom= 1.00D+00 WtEn= 0.00D+00
 Coeff-Com:  0.100D+01
 Coeff:      0.100D+01
 Gap=     0.640 Goal=   None    Shift=    0.000
 DSYEVD returned Info=          89 IAlg= 4 N=    59 NDim=    59 NE2=    18198197 trying DSYEV.
 RMSDP=8.26D-15 MaxDP=2.22D-13              OVMax= 2.65D-14

 SCF Done:  E(RLC-B+HF-LYP) =  -2753.40934853     A.U. after    1 cycles
             Convg  =    0.8260D-14             -V/T =  2.0014
 KE= 2.749695852517D+03 PE=-6.579489077514D+03 EE= 1.076383876470D+03
 Leave Link  502 at Tue May 12 01:01:58 2020, MaxMem= 1073741824 cpu:      12.3
 (Enter /home/matheus/.gaussian/g09/l122.exe)
 Restoring MOs from calculation   1 to rwf.
 Counterpoise: corrected energy =   -2904.614470081181
 Counterpoise: BSSE energy =       0.000033874159
 Leave Link  122 at Tue May 12 01:01:58 2020, MaxMem= 1073741824 cpu:       0.0
 (Enter /home/matheus/.gaussian/g09/l108.exe)
 Scan completed.

 Summary of the potential surface scan:
   N      R1          SCF    
 ----  ---------  -----------
    1     3.0000  -2753.40935
    2     3.1000  -2753.40935
    3     3.2000  -2753.40935
    4     3.3000  -2753.40935
    5     3.4000  -2753.40935
    6     3.5000  -2753.40935
    7     3.6000  -2753.40935
    8     3.7000  -2753.40935
    9     3.8000  -2753.40935
   10     3.9000  -2753.40935
   11     4.0000  -2753.40935
   12     4.1000  -2753.40935
   13     4.2000  -2753.40935
   14     4.3000  -2753.40935
   15     4.4000  -2753.40935
   16     4.5000  -2753.40935
   17     4.6000  -2753.40935
   18     4.7000  -2753.40935
   19     4.8000  -2753.40935
   20     4.9000  -2753.40935
   21     5.0000  -2753.40935
 ----  ---------  -----------
  
 Leave Link  108 at Tue May 12 01:01:58 2020, MaxMem= 1073741824 cpu:       0.0
 (Enter /home/matheus/.gaussian/g09/l9999.exe)

 Test job not archived.
 1\1\GINC-REDGIANT\Scan\RLC-BLYP\Aug-CC-pVTZ\H2Kr1O2\MATHEUS\12-May-202
 0\1\\#p lc-blyp/aug-cc-PVTz iop(3/107=1350000000) iop(3/108=1350000000
 ) int=ultrafine counterpoise=2 Scan\\TCC\\0,1\O,0,0.,0.,0.725\O,0,0.,0
 .,-0.725\H,0,-0.1595341571,0.9047631646,1.0235104166\H,0,0.,0.91872059
 47,-1.0235104166\Kr,0,0.,R1,0.\\R1=3.,s,20,0.1\\Version=EM64L-G09RevC.
 01\State=1-A\HF=-2753.4093485,-2753.4093485,-2753.4093485,-2753.409348
 5,-2753.4093485,-2753.4093485,-2753.4093485,-2753.4093485,-2753.409348
 5,-2753.4093485,-2753.4093485,-2753.4093485,-2753.4093485,-2753.409348
 5,-2753.4093485,-2753.4093485,-2753.4093485,-2753.4093485,-2753.409348
 5,-2753.4093485,-2753.4093485\RMSD=5.461e-09,3.089e-10,7.451e-11,2.036
 e-11,7.194e-12,3.141e-12,1.452e-12,6.874e-13,3.262e-13,1.572e-13,7.920
 e-14,4.262e-14,1.722e-14,7.181e-15,4.754e-15,9.351e-15,9.055e-15,6.329
 e-15,1.523e-14,1.215e-14,8.260e-15\PG=C01 [X(H2Kr1O2)]\\@


 QED = W**5 (WHICH WAS WHAT WE WANTED)
 Job cpu time:  0 days  3 hours  9 minutes 20.6 seconds.
 File lengths (MBytes):  RWF=     33 Int=      0 D2E=      0 Chk=      8 Scr=      1
 Normal termination of Gaussian 09 at Tue May 12 01:01:58 2020.
