 Entering Gaussian System, Link 0=g09
 Input=/home/matheus/.tcc/Inputs/Inputs-lc-blyp/H2O2-Kr_7.com
 Output=/home/matheus/.tcc/Logs/Logs-lc-blyp/H2O2-Kr_7.log
 Initial command:
 /home/matheus/.gaussian/g09/l1.exe /home/matheus/.gaussian/g09/scratch/Gau-21886.inp -scrdir=/home/matheus/.gaussian/g09/scratch/
 Entering Link 1 = /home/matheus/.gaussian/g09/l1.exe PID=     21889.
  
 Copyright (c) 1988,1990,1992,1993,1995,1998,2003,2009,2011,
            Gaussian, Inc.  All Rights Reserved.
  
 This is part of the Gaussian(R) 09 program.  It is based on
 the Gaussian(R) 03 system (copyright 2003, Gaussian, Inc.),
 the Gaussian(R) 98 system (copyright 1998, Gaussian, Inc.),
 the Gaussian(R) 94 system (copyright 1995, Gaussian, Inc.),
 the Gaussian 92(TM) system (copyright 1992, Gaussian, Inc.),
 the Gaussian 90(TM) system (copyright 1990, Gaussian, Inc.),
 the Gaussian 88(TM) system (copyright 1988, Gaussian, Inc.),
 the Gaussian 86(TM) system (copyright 1986, Carnegie Mellon
 University), and the Gaussian 82(TM) system (copyright 1983,
 Carnegie Mellon University). Gaussian is a federally registered
 trademark of Gaussian, Inc.
  
 This software contains proprietary and confidential information,
 including trade secrets, belonging to Gaussian, Inc.
  
 This software is provided under written license and may be
 used, copied, transmitted, or stored only in accord with that
 written license.
  
 The following legend is applicable only to US Government
 contracts under FAR:
  
                    RESTRICTED RIGHTS LEGEND
  
 Use, reproduction and disclosure by the US Government is
 subject to restrictions as set forth in subparagraphs (a)
 and (c) of the Commercial Computer Software - Restricted
 Rights clause in FAR 52.227-19.
  
 Gaussian, Inc.
 340 Quinnipiac St., Bldg. 40, Wallingford CT 06492
  
  
 ---------------------------------------------------------------
 Warning -- This program may not be used in any manner that
 competes with the business of Gaussian, Inc. or will provide
 assistance to any competitor of Gaussian, Inc.  The licensee
 of this program is prohibited from giving any competitor of
 Gaussian, Inc. access to this program.  By using this program,
 the user acknowledges that Gaussian, Inc. is engaged in the
 business of creating and licensing software in the field of
 computational chemistry and represents and warrants to the
 licensee that it is not a competitor of Gaussian, Inc. and that
 it will not use this program in any manner prohibited above.
 ---------------------------------------------------------------
  

 Cite this work as:
 Gaussian 09, Revision C.01,
 M. J. Frisch, G. W. Trucks, H. B. Schlegel, G. E. Scuseria, 
 M. A. Robb, J. R. Cheeseman, G. Scalmani, V. Barone, B. Mennucci, 
 G. A. Petersson, H. Nakatsuji, M. Caricato, X. Li, H. P. Hratchian, 
 A. F. Izmaylov, J. Bloino, G. Zheng, J. L. Sonnenberg, M. Hada, 
 M. Ehara, K. Toyota, R. Fukuda, J. Hasegawa, M. Ishida, T. Nakajima, 
 Y. Honda, O. Kitao, H. Nakai, T. Vreven, J. A. Montgomery, Jr., 
 J. E. Peralta, F. Ogliaro, M. Bearpark, J. J. Heyd, E. Brothers, 
 K. N. Kudin, V. N. Staroverov, T. Keith, R. Kobayashi, J. Normand, 
 K. Raghavachari, A. Rendell, J. C. Burant, S. S. Iyengar, J. Tomasi, 
 M. Cossi, N. Rega, J. M. Millam, M. Klene, J. E. Knox, J. B. Cross, 
 V. Bakken, C. Adamo, J. Jaramillo, R. Gomperts, R. E. Stratmann, 
 O. Yazyev, A. J. Austin, R. Cammi, C. Pomelli, J. W. Ochterski, 
 R. L. Martin, K. Morokuma, V. G. Zakrzewski, G. A. Voth, 
 P. Salvador, J. J. Dannenberg, S. Dapprich, A. D. Daniels, 
 O. Farkas, J. B. Foresman, J. V. Ortiz, J. Cioslowski, 
 and D. J. Fox, Gaussian, Inc., Wallingford CT, 2010.
 
 ******************************************
 Gaussian 09:  EM64L-G09RevC.01 23-Sep-2011
                11-May-2020 
 ******************************************
 %mem=8GB
 %nproc=8
 Will use up to    8 processors via shared memory.
 ----------------------------------------------------------------------
 #p lc-blyp/aug-cc-PVTz iop(3/107=1350000000) iop(3/108=1350000000) int
 =ultrafine counterpoise=2 Scan
 ----------------------------------------------------------------------
 1/38=1,60=1,62=2/1,8;
 2/12=2,17=6,18=5,29=3,40=1/2;
 1/38=1,53=5172,62=2/22;
 3/5=16,6=1,7=10,11=2,16=1,25=1,30=1,74=1000402,75=-5,107=1350000000,108=1350000000/1,2,3;
 4//1;
 5/5=2,38=5/2;
 6/7=2,8=2,9=2,10=2,18=1,28=1/1;
 1/53=4052,62=2,63=1/22;
 3/5=7,6=11,7=10,11=2,16=1,25=1,30=1,74=1000402,75=-5,82=7,107=1350000000,108=1350000000/1,2,3;
 4//1;
 5/5=2,38=5/2;
 6/7=2,8=2,9=2,10=2,18=1,28=1/1;
 1/53=3042,62=2,63=2/22;
 3/5=7,6=11,7=10,11=2,16=1,25=1,30=1,74=1000402,75=-5,82=7,107=1350000000,108=1350000000/1,2,3;
 4//1;
 5/5=2,38=5/2;
 6/7=2,8=2,9=2,10=2,18=1,28=1/1;
 1/53=2032,62=2,63=3/22;
 3/5=7,6=11,7=10,11=2,16=1,25=1,30=1,74=1000402,75=-5,82=7,107=1350000000,108=1350000000/1,2,3;
 4//1;
 5/5=2,38=5/2;
 6/7=2,8=2,9=2,10=2,18=1,28=1/1;
 1/53=1022,62=2,63=4/22;
 3/5=7,6=11,7=10,11=2,16=1,25=1,30=1,74=1000402,75=-5,82=7,107=1350000000,108=1350000000/1,2,3;
 4//1;
 5/5=2,38=5/2;
 6/7=2,8=2,9=2,10=2,18=1,28=1/1;
 1/53=5014,62=2,63=5/22;
 1/60=1,62=2/8(1);
 99/9=1/99;
 2/29=3/2;
 1/53=5173,62=2/22;
 3/5=7,6=11,7=10,11=2,16=1,25=1,30=1,74=1000402,75=-5,82=7,107=1350000000,108=1350000000/1,2,3;
 4/5=5,16=3/1;
 5/5=2,38=5/2;
 1/53=4053,62=2,63=1/22;
 3/5=7,6=11,7=10,11=2,16=1,25=1,30=1,74=1000402,75=-5,82=7,107=1350000000,108=1350000000/1,2,3;
 4/5=5,16=3/1;
 5/5=2,38=5/2;
 1/53=3043,62=2,63=2/22;
 3/5=7,6=11,7=10,11=2,16=1,25=1,30=1,74=1000402,75=-5,82=7,107=1350000000,108=1350000000/1,2,3;
 4/5=5,16=3/1;
 5/5=2,38=5/2;
 1/53=2033,62=2,63=3/22;
 3/5=7,6=11,7=10,11=2,16=1,25=1,30=1,74=1000402,75=-5,82=7,107=1350000000,108=1350000000/1,2,3;
 4/5=5,16=3/1;
 5/5=2,38=5/2;
 1/53=1024,62=2,63=4/22;
 3/5=7,6=11,7=10,11=2,16=1,25=1,30=1,74=1000402,75=-5,82=7,107=1350000000,108=1350000000/1,2,3;
 4/5=5,16=3/1;
 5/5=2,38=5/2;
 1/53=5014,62=2,63=5/22;
 1/60=1,62=2/8(-22);
 99/9=1/99;
 Leave Link    1 at Mon May 11 12:55:32 2020, MaxMem= 1073741824 cpu:       0.4
 (Enter /home/matheus/.gaussian/g09/l101.exe)
 ---
 TCC
 ---
 Charge =  0 Multiplicity = 1 in supermolecule
 Charge =  0 Multiplicity = 1 in fragment  1.
 Charge =  0 Multiplicity = 1 in fragment  2.
 Symbolic Z-Matrix:
 O(Fragment=1)         0.        0.        0.725 
 O(Fragment=1)         0.        0.       -0.725 
 H(Fragment=1)         0.86331   0.31422   1.02351 
 H(Fragment=1)         0.        0.91872  -1.02351 
 Kr(Fragment=2)        0.       R1        0. 
       Variables:
  R1                    3.     Scan 20    0.1    
 
 NAtoms=      5 NQM=        0 NQMF=       0 NMMI=      5 NMMIF=      0
                NMic=       0 NMicF=      0.
                    Isotopes and Nuclear Properties:
 (Nuclear quadrupole moments (NQMom) in fm**2, nuclear magnetic moments (NMagM)
  in nuclear magnetons)

  Atom         1           2           3           4           5
 IAtWgt=          16          16           1           1          84
 AtmWgt=  15.9949146  15.9949146   1.0078250   1.0078250  83.9115064
 NucSpn=           0           0           1           1           0
 AtZEff=   0.0000000   0.0000000   0.0000000   0.0000000   0.0000000
 NQMom=    0.0000000   0.0000000   0.0000000   0.0000000   0.0000000
 NMagM=    0.0000000   0.0000000   2.7928460   2.7928460   0.0000000
 Leave Link  101 at Mon May 11 12:55:32 2020, MaxMem= 1073741824 cpu:       0.3
 (Enter /home/matheus/.gaussian/g09/l108.exe)
 Scan the potential surface.
 Variable   Value     No. Steps Step-Size
 -------- ----------- --------- ---------
     1       3.000000      20      0.1000
 A total of     21 points will be computed.
 Leave Link  108 at Mon May 11 12:55:32 2020, MaxMem= 1073741824 cpu:       0.0
 (Enter /home/matheus/.gaussian/g09/l202.exe)
 ---------------------------------------------------------------------------------------------------
                            Z-MATRIX (ANGSTROMS AND DEGREES)
   CD    Cent   Atom    N1       Length/X        N2       Alpha/Y        N3        Beta/Z          J
 ---------------------------------------------------------------------------------------------------
      1      1  O        0   0.000000          0.000000          0.725000
      2      2  O        0   0.000000          0.000000         -0.725000
      3      3  H        0   0.863315          0.314221          1.023510
      4      4  H        0   0.000000          0.918721         -1.023510
      5      5  Kr       0   0.000000          3.000000          0.000000
 ---------------------------------------------------------------------------------------------------
                         Z-Matrix orientation:                         
 ---------------------------------------------------------------------
 Center     Atomic      Atomic             Coordinates (Angstroms)
 Number     Number       Type             X           Y           Z
 ---------------------------------------------------------------------
      1          8           0        0.000000    0.000000    0.725000
      2          8           0        0.000000    0.000000   -0.725000
      3          1           0        0.863315    0.314221    1.023510
      4          1           0        0.000000    0.918721   -1.023510
      5         36           0        0.000000    3.000000    0.000000
 ---------------------------------------------------------------------
                    Distance matrix (angstroms):
                    1          2          3          4          5
     1  O    0.000000
     2  O    1.450000   0.000000
     3  H    0.966000   1.975180   0.000000
     4  H    1.975180   0.966000   2.302396   0.000000
     5  Kr   3.086361   3.086361   3.001049   2.319331   0.000000
 Stoichiometry    H2KrO2
 Framework group  C1[X(H2KrO2)]
 Deg. of freedom     9
 Full point group                 C1      NOp   1
 Largest Abelian subgroup         C1      NOp   1
 Largest concise Abelian subgroup C1      NOp   1
                         Standard orientation:                         
 ---------------------------------------------------------------------
 Center     Atomic      Atomic             Coordinates (Angstroms)
 Number     Number       Type             X           Y           Z
 ---------------------------------------------------------------------
      1          8           0        2.027244   -0.704579   -0.107619
      2          8           0        2.017454    0.739726    0.020400
      3          1           0        1.727457   -1.080559    0.730189
      4          1           0        1.096833    1.029722    0.059329
      5         36           0       -0.977274   -0.006398   -0.002549
 ---------------------------------------------------------------------
 Rotational constants (GHZ):     25.7099481      2.3602095      2.1745891
 Leave Link  202 at Mon May 11 12:55:32 2020, MaxMem= 1073741824 cpu:       0.0
 (Enter /home/matheus/.gaussian/g09/l122.exe)
 Leave Link  122 at Mon May 11 12:55:32 2020, MaxMem= 1073741824 cpu:       0.0
 (Enter /home/matheus/.gaussian/g09/l301.exe)
 Standard basis: Aug-CC-pVTZ (5D, 7F)
 Ernie: Thresh=  0.10000D-02 Tol=  0.10000D-05 Strict=F.
 Ernie:  38 primitive shells out of 205 were deleted.
 There are   197 symmetry adapted basis functions of A   symmetry.
 Integral buffers will be    131072 words long.
 Raffenetti 2 integral format.
 Two-electron integral symmetry is turned on.
   197 basis functions,   415 primitive gaussians,   229 cartesian basis functions
    27 alpha electrons       27 beta electrons
       nuclear repulsion energy       149.9587672391 Hartrees.
 IExCor=10402 DFT=T Ex=LC-B+HF Corr=LYP ExCW=0 ScaHFX=  1.000000
 ScaDFX=  1.000000  1.000000  1.000000  1.000000 ScalE2=  1.000000  1.000000
 IRadAn=      5 IRanWt=     -1 IRanGd=            0 ICorTp=0
  HFx wShort=  0.000000 wLong=  1.350000 cFull=  0.000000 cShort=  0.000000 cLong=  1.000000
  DFx wShort=  0.000000 wLong=  1.350000 cFull=  0.000000 cShort=  0.000000 cLong=  1.000000
 NAtoms=    5 NActive=    5 NUniq=    5 SFac= 1.00D+00 NAtFMM=   60 NAOKFM=F Big=F
 Leave Link  301 at Mon May 11 12:55:32 2020, MaxMem= 1073741824 cpu:       0.2
 (Enter /home/matheus/.gaussian/g09/l302.exe)
 NPDir=0 NMtPBC=     1 NCelOv=     1 NCel=       1 NClECP=     1 NCelD=      1
         NCelK=      1 NCelE2=     1 NClLst=     1 CellRange=     0.0.
 One-electron integrals computed using PRISM.
 NBasis=   197 RedAO= T  NBF=   197
 NBsUse=   197 1.00D-06 NBFU=   197
 Precomputing XC quadrature grid using
 IXCGrd= 2 IRadAn=           5 IRanWt=          -1 IRanGd=           0 AccXCQ= 0.00D+00.
 NRdTot=     427 NPtTot=      123512 NUsed=      126579 NTot=      126611
 NSgBfM=   229   229   229   229   229 NAtAll=     5     5.
 Leave Link  302 at Mon May 11 12:55:32 2020, MaxMem= 1073741824 cpu:       1.1
 (Enter /home/matheus/.gaussian/g09/l303.exe)
 DipDrv:  MaxL=1.
 Leave Link  303 at Mon May 11 12:55:32 2020, MaxMem= 1073741824 cpu:       0.2
 (Enter /home/matheus/.gaussian/g09/l401.exe)
 Harris functional with IExCor=10402 diagonalized for initial guess.
 ExpMin= 2.53D-02 ExpMax= 1.17D+07 ExpMxC= 1.33D+04 IAcc=3 IRadAn=         5 AccDes= 0.00D+00
 HarFok:  IExCor=10402 AccDes= 0.00D+00 IRadAn=         5 IDoV= 1
 ScaDFX=  1.000000  1.000000  1.000000  1.000000
 FoFCou: FMM=F IPFlag=           0 FMFlag=      100000 FMFlg1=           0
         NFxFlg=           0 DoJE=T BraDBF=F KetDBF=T FulRan=T
         Omega=  0.000000  0.000000  1.000000  0.000000  0.000000 ICntrl=     500 IOpCl=  0
         NMat0=    1 NMatS0=    1 NMatT0=    0 NMatD0=    1 NMtDS0=    0 NMtDT0=    0
         I1Cent=           4 NGrid=           0.
 Petite list used in FoFCou.
 Harris En= -2874.92114660297    
 Initial guess orbital symmetries:
       Occupied  (A) (A) (A) (A) (A) (A) (A) (A) (A) (A) (A) (A)
                 (A) (A) (A) (A) (A) (A) (A) (A) (A) (A) (A) (A)
                 (A) (A) (A)
       Virtual   (A) (A) (A) (A) (A) (A) (A) (A) (A) (A) (A) (A)
                 (A) (A) (A) (A) (A) (A) (A) (A) (A) (A) (A) (A)
                 (A) (A) (A) (A) (A) (A) (A) (A) (A) (A) (A) (A)
                 (A) (A) (A) (A) (A) (A) (A) (A) (A) (A) (A) (A)
                 (A) (A) (A) (A) (A) (A) (A) (A) (A) (A) (A) (A)
                 (A) (A) (A) (A) (A) (A) (A) (A) (A) (A) (A) (A)
                 (A) (A) (A) (A) (A) (A) (A) (A) (A) (A) (A) (A)
                 (A) (A) (A) (A) (A) (A) (A) (A) (A) (A) (A) (A)
                 (A) (A) (A) (A) (A) (A) (A) (A) (A) (A) (A) (A)
                 (A) (A) (A) (A) (A) (A) (A) (A) (A) (A) (A) (A)
                 (A) (A) (A) (A) (A) (A) (A) (A) (A) (A) (A) (A)
                 (A) (A) (A) (A) (A) (A) (A) (A) (A) (A) (A) (A)
                 (A) (A) (A) (A) (A) (A) (A) (A) (A) (A) (A) (A)
                 (A) (A) (A) (A) (A) (A) (A) (A) (A) (A) (A) (A)
                 (A) (A)
 The electronic state of the initial guess is 1-A.
 Leave Link  401 at Mon May 11 12:55:33 2020, MaxMem= 1073741824 cpu:       4.5
 (Enter /home/matheus/.gaussian/g09/l502.exe)
 Closed shell SCF:
 Requested convergence on RMS density matrix=1.00D-08 within 128 cycles.
 Requested convergence on MAX density matrix=1.00D-06.
 Requested convergence on             energy=1.00D-06.
 No special actions if energy rises.
 Using DIIS extrapolation, IDIIS=  1040.
 Integral symmetry usage will be decided dynamically.
       126521 words used for storage of precomputed grid.
 IEnd=      305468 IEndB=      305468 NGot=  1073741824 MDV=  1073505667
 LenX=  1073505667 LenY=  1073452785
 Fock matrices will be formed incrementally for  20 cycles.

 Cycle   1  Pass 1  IDiag  1:
 FoFJK:  IHMeth= 1 ICntrl=     0 DoSepK=T KAlg= 1 I1Cent= 0 FoldK=F
 FoFCou: FMM=F IPFlag=           0 FMFlag=      100000 FMFlg1=           0
         NFxFlg=           0 DoJE=T BraDBF=F KetDBF=F FulRan=T
         Omega=  0.000000  0.000000  1.000000  0.000000  0.000000 ICntrl=     500 IOpCl=  0
         NMat0=    1 NMatS0=    1 NMatT0=    0 NMatD0=    1 NMtDS0=    0 NMtDT0=    0
         I1Cent=           0 NGrid=           0.
 Symmetry not used in FoFCou.
 E= -2898.51326008140    
 DIIS: error= 1.16D-01 at cycle   1 NSaved=   1.
 NSaved= 1 IEnMin= 1 EnMin= -2898.51326008140     IErMin= 1 ErrMin= 1.16D-01
 ErrMax= 1.16D-01 EMaxC= 1.00D-01 BMatC= 3.90D+00 BMatP= 3.90D+00
 IDIUse=3 WtCom= 0.00D+00 WtEn= 1.00D+00
 Coeff-Com:  0.100D+01
 Coeff-En:   0.100D+01
 Coeff:      0.100D+01
 Gap=    -1.060 Goal=   None    Shift=    0.000
 GapD=   -1.060 DampG=0.250 DampE=0.250 DampFc=0.2500 IDamp=-1.
 Damping current iteration by 2.50D-01
 RMSDP=1.16D-01 MaxDP=1.02D+01              OVMax= 9.96D-01

 Cycle   2  Pass 1  IDiag  1:
 RMSU=  4.48D-03    CP:  7.61D-01
 FoFJK:  IHMeth= 1 ICntrl=     0 DoSepK=T KAlg= 1 I1Cent= 0 FoldK=F
 E= -2900.81004726478     Delta-E=       -2.296787183388 Rises=F Damp=T
 DIIS: error= 4.99D-02 at cycle   2 NSaved=   2.
 NSaved= 2 IEnMin= 2 EnMin= -2900.81004726478     IErMin= 2 ErrMin= 4.99D-02
 ErrMax= 4.99D-02 EMaxC= 1.00D-01 BMatC= 1.05D+00 BMatP= 3.90D+00
 IDIUse=3 WtCom= 5.01D-01 WtEn= 4.99D-01
 Coeff-Com: -0.757D+00 0.176D+01
 Coeff-En:   0.000D+00 0.100D+01
 Coeff:     -0.379D+00 0.138D+01
 Gap=     0.124 Goal=   None    Shift=    0.000
 RMSDP=8.66D-02 MaxDP=7.66D+00 DE=-2.30D+00 OVMax= 9.89D-01

 Cycle   3  Pass 1  IDiag  1:
 RMSU=  6.01D-03    CP:  4.29D-02  3.00D+00
 FoFJK:  IHMeth= 1 ICntrl=     0 DoSepK=T KAlg= 1 I1Cent= 0 FoldK=F
 E= -2904.28284368744     Delta-E=       -3.472796422658 Rises=F Damp=F
 DIIS: error= 2.92D-02 at cycle   3 NSaved=   3.
 NSaved= 3 IEnMin= 3 EnMin= -2904.28284368744     IErMin= 3 ErrMin= 2.92D-02
 ErrMax= 2.92D-02 EMaxC= 1.00D-01 BMatC= 5.15D-01 BMatP= 1.05D+00
 IDIUse=3 WtCom= 7.08D-01 WtEn= 2.92D-01
 Coeff-Com: -0.184D-01 0.423D+00 0.595D+00
 Coeff-En:   0.000D+00 0.000D+00 0.100D+01
 Coeff:     -0.130D-01 0.299D+00 0.714D+00
 Gap=     0.614 Goal=   None    Shift=    0.000
 RMSDP=2.35D-03 MaxDP=8.52D-02 DE=-3.47D+00 OVMax= 9.45D-02

 Cycle   4  Pass 1  IDiag  1:
 RMSU=  1.66D-03    CP:  4.24D-02  3.00D+00  9.81D-01
 FoFJK:  IHMeth= 1 ICntrl=     0 DoSepK=T KAlg= 1 I1Cent= 0 FoldK=F
 E= -2904.60853365575     Delta-E=       -0.325689968306 Rises=F Damp=F
 DIIS: error= 4.93D-03 at cycle   4 NSaved=   4.
 NSaved= 4 IEnMin= 4 EnMin= -2904.60853365575     IErMin= 4 ErrMin= 4.93D-03
 ErrMax= 4.93D-03 EMaxC= 1.00D-01 BMatC= 1.00D-02 BMatP= 5.15D-01
 IDIUse=3 WtCom= 9.51D-01 WtEn= 4.93D-02
 Coeff-Com:  0.129D-01 0.696D-02 0.422D-01 0.938D+00
 Coeff-En:   0.000D+00 0.000D+00 0.000D+00 0.100D+01
 Coeff:      0.122D-01 0.661D-02 0.401D-01 0.941D+00
 Gap=     0.517 Goal=   None    Shift=    0.000
 RMSDP=6.67D-04 MaxDP=2.17D-02 DE=-3.26D-01 OVMax= 2.24D-02

 Cycle   5  Pass 1  IDiag  1:
 RMSU=  4.39D-04    CP:  4.25D-02  3.00D+00  9.82D-01  1.10D+00
 FoFJK:  IHMeth= 1 ICntrl=     0 DoSepK=T KAlg= 1 I1Cent= 0 FoldK=F
 E= -2904.61784232202     Delta-E=       -0.009308666272 Rises=F Damp=F
 DIIS: error= 1.07D-03 at cycle   5 NSaved=   5.
 NSaved= 5 IEnMin= 5 EnMin= -2904.61784232202     IErMin= 5 ErrMin= 1.07D-03
 ErrMax= 1.07D-03 EMaxC= 1.00D-01 BMatC= 5.92D-04 BMatP= 1.00D-02
 IDIUse=3 WtCom= 9.89D-01 WtEn= 1.07D-02
 Coeff-Com: -0.136D-01 0.301D-01-0.226D-02-0.102D-01 0.996D+00
 Coeff-En:   0.000D+00 0.000D+00 0.000D+00 0.000D+00 0.100D+01
 Coeff:     -0.134D-01 0.298D-01-0.223D-02-0.101D-01 0.996D+00
 Gap=     0.530 Goal=   None    Shift=    0.000
 RMSDP=1.55D-04 MaxDP=5.30D-03 DE=-9.31D-03 OVMax= 6.69D-03

 Cycle   6  Pass 1  IDiag  1:
 RMSU=  9.24D-05    CP:  4.25D-02  3.00D+00  9.81D-01  1.12D+00  1.13D+00
 FoFJK:  IHMeth= 1 ICntrl=     0 DoSepK=T KAlg= 1 I1Cent= 0 FoldK=F
 E= -2904.61840599624     Delta-E=       -0.000563674224 Rises=F Damp=F
 DIIS: error= 5.08D-04 at cycle   6 NSaved=   6.
 NSaved= 6 IEnMin= 6 EnMin= -2904.61840599624     IErMin= 6 ErrMin= 5.08D-04
 ErrMax= 5.08D-04 EMaxC= 1.00D-01 BMatC= 1.34D-04 BMatP= 5.92D-04
 IDIUse=3 WtCom= 9.95D-01 WtEn= 5.08D-03
 Coeff-Com: -0.449D-02 0.963D-02-0.665D-02-0.454D-01 0.183D+00 0.864D+00
 Coeff-En:   0.000D+00 0.000D+00 0.000D+00 0.000D+00 0.000D+00 0.100D+01
 Coeff:     -0.447D-02 0.958D-02-0.662D-02-0.452D-01 0.182D+00 0.864D+00
 Gap=     0.533 Goal=   None    Shift=    0.000
 RMSDP=5.95D-05 MaxDP=1.65D-03 DE=-5.64D-04 OVMax= 3.45D-03

 Cycle   7  Pass 1  IDiag  1:
 RMSU=  2.72D-05    CP:  4.25D-02  3.00D+00  9.80D-01  1.13D+00  1.18D+00
                    CP:  1.10D+00
 FoFJK:  IHMeth= 1 ICntrl=     0 DoSepK=T KAlg= 1 I1Cent= 0 FoldK=F
 E= -2904.61854378895     Delta-E=       -0.000137792711 Rises=F Damp=F
 DIIS: error= 2.73D-04 at cycle   7 NSaved=   7.
 NSaved= 7 IEnMin= 7 EnMin= -2904.61854378895     IErMin= 7 ErrMin= 2.73D-04
 ErrMax= 2.73D-04 EMaxC= 1.00D-01 BMatC= 3.08D-05 BMatP= 1.34D-04
 IDIUse=3 WtCom= 9.97D-01 WtEn= 2.73D-03
 Coeff-Com:  0.709D-03-0.154D-02-0.421D-02-0.163D-01-0.782D-01 0.309D+00
 Coeff-Com:  0.790D+00
 Coeff-En:   0.000D+00 0.000D+00 0.000D+00 0.000D+00 0.000D+00 0.000D+00
 Coeff-En:   0.100D+01
 Coeff:      0.707D-03-0.153D-02-0.420D-02-0.163D-01-0.780D-01 0.308D+00
 Coeff:      0.791D+00
 Gap=     0.533 Goal=   None    Shift=    0.000
 RMSDP=2.92D-05 MaxDP=7.88D-04 DE=-1.38D-04 OVMax= 2.04D-03

 Cycle   8  Pass 1  IDiag  1:
 RMSU=  1.22D-05    CP:  4.25D-02  3.00D+00  9.80D-01  1.13D+00  1.21D+00
                    CP:  1.18D+00  1.09D+00
 FoFJK:  IHMeth= 1 ICntrl=     0 DoSepK=T KAlg= 1 I1Cent= 0 FoldK=F
 E= -2904.61857802435     Delta-E=       -0.000034235397 Rises=F Damp=F
 DIIS: error= 6.88D-05 at cycle   8 NSaved=   8.
 NSaved= 8 IEnMin= 8 EnMin= -2904.61857802435     IErMin= 8 ErrMin= 6.88D-05
 ErrMax= 6.88D-05 EMaxC= 1.00D-01 BMatC= 1.76D-06 BMatP= 3.08D-05
 IDIUse=1 WtCom= 1.00D+00 WtEn= 0.00D+00
 Coeff-Com:  0.115D-02-0.218D-02 0.124D-02 0.488D-02-0.960D-02-0.101D+00
 Coeff-Com: -0.322D-01 0.114D+01
 Coeff:      0.115D-02-0.218D-02 0.124D-02 0.488D-02-0.960D-02-0.101D+00
 Coeff:     -0.322D-01 0.114D+01
 Gap=     0.533 Goal=   None    Shift=    0.000
 RMSDP=1.14D-05 MaxDP=3.62D-04 DE=-3.42D-05 OVMax= 1.23D-03

 Cycle   9  Pass 1  IDiag  1:
 RMSU=  4.12D-06    CP:  4.25D-02  3.00D+00  9.81D-01  1.13D+00  1.21D+00
                    CP:  1.20D+00  1.26D+00  1.37D+00
 FoFJK:  IHMeth= 1 ICntrl=     0 DoSepK=T KAlg= 1 I1Cent= 0 FoldK=F
 E= -2904.61858271271     Delta-E=       -0.000004688358 Rises=F Damp=F
 DIIS: error= 2.92D-05 at cycle   9 NSaved=   9.
 NSaved= 9 IEnMin= 9 EnMin= -2904.61858271271     IErMin= 9 ErrMin= 2.92D-05
 ErrMax= 2.92D-05 EMaxC= 1.00D-01 BMatC= 3.13D-07 BMatP= 1.76D-06
 IDIUse=1 WtCom= 1.00D+00 WtEn= 0.00D+00
 Coeff-Com:  0.212D-04 0.173D-04 0.587D-03 0.170D-02 0.368D-02-0.371D-02
 Coeff-Com: -0.480D-01-0.247D+00 0.129D+01
 Coeff:      0.212D-04 0.173D-04 0.587D-03 0.170D-02 0.368D-02-0.371D-02
 Coeff:     -0.480D-01-0.247D+00 0.129D+01
 Gap=     0.533 Goal=   None    Shift=    0.000
 RMSDP=5.35D-06 MaxDP=1.08D-04 DE=-4.69D-06 OVMax= 6.82D-04

 Cycle  10  Pass 1  IDiag  1:
 RMSU=  1.53D-06    CP:  4.25D-02  3.00D+00  9.81D-01  1.13D+00  1.21D+00
                    CP:  1.20D+00  1.30D+00  1.53D+00  1.56D+00
 FoFJK:  IHMeth= 1 ICntrl=     0 DoSepK=T KAlg= 1 I1Cent= 0 FoldK=F
 E= -2904.61858371679     Delta-E=       -0.000001004081 Rises=F Damp=F
 DIIS: error= 1.04D-05 at cycle  10 NSaved=  10.
 NSaved=10 IEnMin=10 EnMin= -2904.61858371679     IErMin=10 ErrMin= 1.04D-05
 ErrMax= 1.04D-05 EMaxC= 1.00D-01 BMatC= 4.10D-08 BMatP= 3.13D-07
 IDIUse=1 WtCom= 1.00D+00 WtEn= 0.00D+00
 Coeff-Com: -0.147D-03 0.279D-03-0.269D-03-0.800D-03-0.118D-02 0.159D-01
 Coeff-Com:  0.125D-01-0.162D+00-0.927D-01 0.123D+01
 Coeff:     -0.147D-03 0.279D-03-0.269D-03-0.800D-03-0.118D-02 0.159D-01
 Coeff:      0.125D-01-0.162D+00-0.927D-01 0.123D+01
 Gap=     0.534 Goal=   None    Shift=    0.000
 RMSDP=2.32D-06 MaxDP=5.59D-05 DE=-1.00D-06 OVMax= 3.41D-04

 Cycle  11  Pass 1  IDiag  1:
 RMSU=  5.51D-07    CP:  4.25D-02  3.00D+00  9.81D-01  1.13D+00  1.21D+00
                    CP:  1.20D+00  1.32D+00  1.59D+00  1.80D+00  1.46D+00
 FoFJK:  IHMeth= 1 ICntrl=     0 DoSepK=T KAlg= 1 I1Cent= 0 FoldK=F
 E= -2904.61858388247     Delta-E=       -0.000000165678 Rises=F Damp=F
 DIIS: error= 3.27D-06 at cycle  11 NSaved=  11.
 NSaved=11 IEnMin=11 EnMin= -2904.61858388247     IErMin=11 ErrMin= 3.27D-06
 ErrMax= 3.27D-06 EMaxC= 1.00D-01 BMatC= 4.33D-09 BMatP= 4.10D-08
 IDIUse=1 WtCom= 1.00D+00 WtEn= 0.00D+00
 Coeff-Com: -0.165D-04 0.242D-04-0.193D-04-0.964D-04 0.936D-03-0.348D-02
 Coeff-Com: -0.300D-02 0.503D-01-0.647D-01-0.344D+00 0.136D+01
 Coeff:     -0.165D-04 0.242D-04-0.193D-04-0.964D-04 0.936D-03-0.348D-02
 Coeff:     -0.300D-02 0.503D-01-0.647D-01-0.344D+00 0.136D+01
 Gap=     0.534 Goal=   None    Shift=    0.000
 RMSDP=7.78D-07 MaxDP=1.85D-05 DE=-1.66D-07 OVMax= 1.14D-04

 Cycle  12  Pass 1  IDiag  1:
 RMSU=  1.83D-07    CP:  4.25D-02  3.00D+00  9.81D-01  1.13D+00  1.21D+00
                    CP:  1.20D+00  1.32D+00  1.61D+00  1.85D+00  1.62D+00
                    CP:  1.47D+00
 FoFJK:  IHMeth= 1 ICntrl=     0 DoSepK=T KAlg= 1 I1Cent= 0 FoldK=F
 E= -2904.61858389915     Delta-E=       -0.000000016681 Rises=F Damp=F
 DIIS: error= 8.04D-07 at cycle  12 NSaved=  12.
 NSaved=12 IEnMin=12 EnMin= -2904.61858389915     IErMin=12 ErrMin= 8.04D-07
 ErrMax= 8.04D-07 EMaxC= 1.00D-01 BMatC= 2.27D-10 BMatP= 4.33D-09
 IDIUse=1 WtCom= 1.00D+00 WtEn= 0.00D+00
 Coeff-Com:  0.330D-05-0.724D-05 0.114D-04 0.660D-04-0.258D-03 0.681D-03
 Coeff-Com:  0.685D-03-0.870D-02 0.284D-01 0.286D-01-0.415D+00 0.137D+01
 Coeff:      0.330D-05-0.724D-05 0.114D-04 0.660D-04-0.258D-03 0.681D-03
 Coeff:      0.685D-03-0.870D-02 0.284D-01 0.286D-01-0.415D+00 0.137D+01
 Gap=     0.534 Goal=   None    Shift=    0.000
 RMSDP=1.69D-07 MaxDP=3.38D-06 DE=-1.67D-08 OVMax= 2.01D-05

 Cycle  13  Pass 1  IDiag  1:
 RMSU=  3.56D-08    CP:  4.25D-02  3.00D+00  9.81D-01  1.13D+00  1.21D+00
                    CP:  1.20D+00  1.33D+00  1.61D+00  1.86D+00  1.63D+00
                    CP:  1.57D+00  1.45D+00
 FoFJK:  IHMeth= 1 ICntrl=     0 DoSepK=T KAlg= 1 I1Cent= 0 FoldK=F
 E= -2904.61858389999     Delta-E=       -0.000000000839 Rises=F Damp=F
 DIIS: error= 1.88D-07 at cycle  13 NSaved=  13.
 NSaved=13 IEnMin=13 EnMin= -2904.61858389999     IErMin=13 ErrMin= 1.88D-07
 ErrMax= 1.88D-07 EMaxC= 1.00D-01 BMatC= 1.17D-11 BMatP= 2.27D-10
 IDIUse=1 WtCom= 1.00D+00 WtEn= 0.00D+00
 Coeff-Com:  0.682D-06-0.105D-05-0.885D-07 0.119D-05-0.329D-04 0.143D-03
 Coeff-Com:  0.111D-03-0.190D-02-0.725D-03 0.142D-01-0.207D-01-0.136D+00
 Coeff-Com:  0.114D+01
 Coeff:      0.682D-06-0.105D-05-0.885D-07 0.119D-05-0.329D-04 0.143D-03
 Coeff:      0.111D-03-0.190D-02-0.725D-03 0.142D-01-0.207D-01-0.136D+00
 Coeff:      0.114D+01
 Gap=     0.534 Goal=   None    Shift=    0.000
 RMSDP=3.34D-08 MaxDP=8.78D-07 DE=-8.39D-10 OVMax= 3.20D-06

 Cycle  14  Pass 1  IDiag  1:
 RMSU=  7.09D-09    CP:  4.25D-02  3.00D+00  9.81D-01  1.13D+00  1.21D+00
                    CP:  1.20D+00  1.33D+00  1.61D+00  1.86D+00  1.63D+00
                    CP:  1.58D+00  1.50D+00  1.34D+00
 FoFJK:  IHMeth= 1 ICntrl=     0 DoSepK=T KAlg= 1 I1Cent= 0 FoldK=F
 E= -2904.61858390000     Delta-E=       -0.000000000008 Rises=F Damp=F
 DIIS: error= 5.75D-08 at cycle  14 NSaved=  14.
 NSaved=14 IEnMin=14 EnMin= -2904.61858390000     IErMin=14 ErrMin= 5.75D-08
 ErrMax= 5.75D-08 EMaxC= 1.00D-01 BMatC= 9.09D-13 BMatP= 1.17D-11
 IDIUse=1 WtCom= 1.00D+00 WtEn= 0.00D+00
 Coeff-Com:  0.160D-06-0.227D-06-0.443D-06-0.449D-05 0.242D-04-0.631D-04
 Coeff-Com: -0.798D-04 0.870D-03-0.136D-02-0.437D-02 0.306D-01-0.688D-01
 Coeff-Com: -0.239D+00 0.128D+01
 Coeff:      0.160D-06-0.227D-06-0.443D-06-0.449D-05 0.242D-04-0.631D-04
 Coeff:     -0.798D-04 0.870D-03-0.136D-02-0.437D-02 0.306D-01-0.688D-01
 Coeff:     -0.239D+00 0.128D+01
 Gap=     0.534 Goal=   None    Shift=    0.000
 RMSDP=9.54D-09 MaxDP=2.87D-07 DE=-7.73D-12 OVMax= 1.12D-06

 SCF Done:  E(RLC-B+HF-LYP) =  -2904.61858390     A.U. after   14 cycles
             Convg  =    0.9542D-08             -V/T =  2.0016
 KE= 2.899962944838D+03 PE=-7.236917536643D+03 EE= 1.282377240666D+03
 Leave Link  502 at Mon May 11 12:56:25 2020, MaxMem= 1073741824 cpu:     419.1
 (Enter /home/matheus/.gaussian/g09/l601.exe)
 Copying SCF densities to generalized density rwf, IOpCl= 0 IROHF=0.

 **********************************************************************

            Population analysis using the SCF density.

 **********************************************************************

 Orbital symmetries:
       Occupied  (A) (A) (A) (A) (A) (A) (A) (A) (A) (A) (A) (A)
                 (A) (A) (A) (A) (A) (A) (A) (A) (A) (A) (A) (A)
                 (A) (A) (A)
       Virtual   (A) (A) (A) (A) (A) (A) (A) (A) (A) (A) (A) (A)
                 (A) (A) (A) (A) (A) (A) (A) (A) (A) (A) (A) (A)
                 (A) (A) (A) (A) (A) (A) (A) (A) (A) (A) (A) (A)
                 (A) (A) (A) (A) (A) (A) (A) (A) (A) (A) (A) (A)
                 (A) (A) (A) (A) (A) (A) (A) (A) (A) (A) (A) (A)
                 (A) (A) (A) (A) (A) (A) (A) (A) (A) (A) (A) (A)
                 (A) (A) (A) (A) (A) (A) (A) (A) (A) (A) (A) (A)
                 (A) (A) (A) (A) (A) (A) (A) (A) (A) (A) (A) (A)
                 (A) (A) (A) (A) (A) (A) (A) (A) (A) (A) (A) (A)
                 (A) (A) (A) (A) (A) (A) (A) (A) (A) (A) (A) (A)
                 (A) (A) (A) (A) (A) (A) (A) (A) (A) (A) (A) (A)
                 (A) (A) (A) (A) (A) (A) (A) (A) (A) (A) (A) (A)
                 (A) (A) (A) (A) (A) (A) (A) (A) (A) (A) (A) (A)
                 (A) (A) (A) (A) (A) (A) (A) (A) (A) (A) (A) (A)
                 (A) (A)
 The electronic state is 1-A.
 Alpha  occ. eigenvalues -- -511.67704 -67.20199 -60.87404 -60.87391 -60.87380
 Alpha  occ. eigenvalues --  -19.48448 -19.48171 -10.10327  -7.81921  -7.81889
 Alpha  occ. eigenvalues --   -7.81860  -3.64884  -3.64878  -3.64854  -3.64828
 Alpha  occ. eigenvalues --   -3.64824  -1.46350  -1.21469  -1.19758  -0.78184
 Alpha  occ. eigenvalues --   -0.69890  -0.63465  -0.58224  -0.57570  -0.57012
 Alpha  occ. eigenvalues --   -0.54383  -0.50762
 Alpha virt. eigenvalues --    0.02591   0.03881   0.07663   0.08699   0.10638
 Alpha virt. eigenvalues --    0.11387   0.12959   0.13931   0.16697   0.17405
 Alpha virt. eigenvalues --    0.17605   0.19547   0.21026   0.23244   0.24453
 Alpha virt. eigenvalues --    0.24591   0.25602   0.28981   0.31410   0.32164
 Alpha virt. eigenvalues --    0.33458   0.35260   0.37456   0.39057   0.39924
 Alpha virt. eigenvalues --    0.41551   0.44108   0.48588   0.54293   0.56077
 Alpha virt. eigenvalues --    0.57240   0.62287   0.63445   0.65842   0.70213
 Alpha virt. eigenvalues --    0.73310   0.74425   0.75877   0.78255   0.79294
 Alpha virt. eigenvalues --    0.79827   0.80832   0.83105   0.83526   0.86165
 Alpha virt. eigenvalues --    0.87320   0.88969   0.90626   0.92128   0.94440
 Alpha virt. eigenvalues --    0.95563   0.96763   0.98121   0.99271   1.01650
 Alpha virt. eigenvalues --    1.01829   1.07186   1.10711   1.11905   1.14298
 Alpha virt. eigenvalues --    1.14919   1.18405   1.20226   1.26812   1.29109
 Alpha virt. eigenvalues --    1.30283   1.37465   1.41767   1.43689   1.46684
 Alpha virt. eigenvalues --    1.48060   1.53388   1.55827   1.60235   1.65427
 Alpha virt. eigenvalues --    1.75586   1.78537   1.92145   2.02394   2.03998
 Alpha virt. eigenvalues --    2.11551   2.12787   2.16858   2.21500   2.26642
 Alpha virt. eigenvalues --    2.28376   2.29180   2.32353   2.35074   2.38034
 Alpha virt. eigenvalues --    2.38436   2.41300   2.43764   2.44896   2.45366
 Alpha virt. eigenvalues --    2.48728   2.51468   2.58028   2.60423   2.62066
 Alpha virt. eigenvalues --    2.63053   2.64140   2.65010   2.70296   2.71744
 Alpha virt. eigenvalues --    2.73135   2.73974   2.77734   2.83877   2.84542
 Alpha virt. eigenvalues --    2.86559   2.87388   2.91165   2.98083   3.02513
 Alpha virt. eigenvalues --    3.08319   3.16518   3.23787   3.26406   3.76557
 Alpha virt. eigenvalues --    3.83986   4.08121   4.12176   4.16254   4.21323
 Alpha virt. eigenvalues --    4.26862   4.29002   4.39057   4.40153   4.43796
 Alpha virt. eigenvalues --    4.50292   4.66389   4.69897   4.76410   4.88178
 Alpha virt. eigenvalues --    5.11996   5.15630   5.17422   5.31771   5.34581
 Alpha virt. eigenvalues --    5.37840   5.65855   6.07601   6.24815   6.37714
 Alpha virt. eigenvalues --    6.44465   6.49985   6.57395   6.66977   6.75050
 Alpha virt. eigenvalues --    6.87799   7.03174   7.04370   7.08646   7.10731
 Alpha virt. eigenvalues --    7.14978   7.16495   7.20386   7.21779   7.27506
 Alpha virt. eigenvalues --    7.34184   7.39810   7.49167   7.72628   7.80328
 Alpha virt. eigenvalues --    8.06633   8.35183   8.39472  14.33960  14.88173
          Condensed to atoms (all electrons):
              1          2          3          4          5
     1  O    8.244578  -0.184947   0.186724   0.002307  -0.024147
     2  O   -0.184947   8.243504   0.015846   0.188862  -0.014678
     3  H    0.186724   0.015846   0.572176  -0.002174  -0.003520
     4  H    0.002307   0.188862  -0.002174   0.583653  -0.011897
     5  Kr  -0.024147  -0.014678  -0.003520  -0.011897  36.051337
 Mulliken atomic charges:
              1
     1  O   -0.224515
     2  O   -0.248586
     3  H    0.230947
     4  H    0.239249
     5  Kr   0.002906
 Sum of Mulliken atomic charges =   0.00000
 Mulliken charges with hydrogens summed into heavy atoms:
              1
     1  O    0.006432
     2  O   -0.009338
     5  Kr   0.002906
 Sum of Mulliken charges with hydrogens summed into heavy atoms =   0.00000
          Condensed to fragments (all electrons):
     1      -0.002906
     2       0.002906
 Electronic spatial extent (au):  <R**2>=            480.7718
 Charge=              0.0000 electrons
 Dipole moment (field-independent basis, Debye):
    X=             -2.5216    Y=             -0.3326    Z=              1.4825  Tot=              2.9439
 Quadrupole moment (field-independent basis, Debye-Ang):
   XX=            -36.8995   YY=            -27.5766   ZZ=            -28.7556
   XY=             -1.6142   XZ=              2.6708   YZ=             -1.8641
 Traceless Quadrupole moment (field-independent basis, Debye-Ang):
   XX=             -5.8223   YY=              3.5006   ZZ=              2.3216
   XY=             -1.6142   XZ=              2.6708   YZ=             -1.8641
 Octapole moment (field-independent basis, Debye-Ang**2):
  XXX=            -40.4961  YYY=             -0.9206  ZZZ=              1.1299  XYY=             -5.7979
  XXY=             -4.5300  XXZ=              4.0186  XZZ=             -5.5888  YZZ=             -1.7071
  YYZ=              2.3214  XYZ=             -3.3156
 Hexadecapole moment (field-independent basis, Debye-Ang**3):
 XXXX=           -457.8446 YYYY=            -61.2961 ZZZZ=            -28.3528 XXXY=             -8.2810
 XXXZ=              7.2103 YYYX=             -3.0766 YYYZ=             -2.7637 ZZZX=              2.4434
 ZZZY=             -1.9451 XXYY=            -82.1332 XXZZ=            -71.5336 YYZZ=            -15.3264
 XXYZ=             -6.0491 YYXZ=              4.0424 ZZXY=             -2.9173
 N-N= 1.499587672391D+02 E-N=-7.236917541616D+03  KE= 2.899962944838D+03
 No NMR shielding tensors so no spin-rotation constants.
 Leave Link  601 at Mon May 11 12:56:25 2020, MaxMem= 1073741824 cpu:       0.8
 (Enter /home/matheus/.gaussian/g09/l122.exe)
 Counterpoise: doing DCBS calculation for fragment   1 NewBq=T
 Leave Link  122 at Mon May 11 12:56:25 2020, MaxMem= 1073741824 cpu:       0.0
 (Enter /home/matheus/.gaussian/g09/l301.exe)
 Basis read from rwf:  (5D, 7F)
 No pseudopotential information found on rwf file.
 There are   197 symmetry adapted basis functions of A   symmetry.
 Integral buffers will be    131072 words long.
 Raffenetti 2 integral format.
 Two-electron integral symmetry is turned on.
   197 basis functions,   415 primitive gaussians,   229 cartesian basis functions
     9 alpha electrons        9 beta electrons
       nuclear repulsion energy        36.6380791177 Hartrees.
 IExCor=10402 DFT=T Ex=LC-B+HF Corr=LYP ExCW=0 ScaHFX=  1.000000
 ScaDFX=  1.000000  1.000000  1.000000  1.000000 ScalE2=  1.000000  1.000000
 IRadAn=      5 IRanWt=     -1 IRanGd=            0 ICorTp=0
  HFx wShort=  0.000000 wLong=  1.350000 cFull=  0.000000 cShort=  0.000000 cLong=  1.000000
  DFx wShort=  0.000000 wLong=  1.350000 cFull=  0.000000 cShort=  0.000000 cLong=  1.000000
 NAtoms=    5 NActive=    5 NUniq=    5 SFac= 1.00D+00 NAtFMM=   60 NAOKFM=F Big=F
 No density basis found on file   718.
 Leave Link  301 at Mon May 11 12:56:25 2020, MaxMem= 1073741824 cpu:       0.2
 (Enter /home/matheus/.gaussian/g09/l302.exe)
 NPDir=0 NMtPBC=     1 NCelOv=     1 NCel=       1 NClECP=     1 NCelD=      1
         NCelK=      1 NCelE2=     1 NClLst=     1 CellRange=     0.0.
 One-electron integrals computed using PRISM.
 NBasis=   197 RedAO= T  NBF=   197
 NBsUse=   197 1.00D-06 NBFU=   197
 Precomputing XC quadrature grid using
 IXCGrd= 2 IRadAn=           5 IRanWt=          -1 IRanGd=           0 AccXCQ= 0.00D+00.
 NRdTot=     427 NPtTot=      123512 NUsed=      126579 NTot=      126611
 NSgBfM=   229   229   229   229   229 NAtAll=     5     5.
 Leave Link  302 at Mon May 11 12:56:25 2020, MaxMem= 1073741824 cpu:       1.1
 (Enter /home/matheus/.gaussian/g09/l303.exe)
 DipDrv:  MaxL=1.
 Leave Link  303 at Mon May 11 12:56:26 2020, MaxMem= 1073741824 cpu:       0.2
 (Enter /home/matheus/.gaussian/g09/l401.exe)
 Harris functional with IExCor=10402 diagonalized for initial guess.
 ExpMin= 2.53D-02 ExpMax= 1.17D+07 ExpMxC= 1.33D+04 IAcc=3 IRadAn=         5 AccDes= 0.00D+00
 HarFok:  IExCor=10402 AccDes= 0.00D+00 IRadAn=         5 IDoV= 1
 ScaDFX=  1.000000  1.000000  1.000000  1.000000
 FoFCou: FMM=F IPFlag=           0 FMFlag=      100000 FMFlg1=           0
         NFxFlg=           0 DoJE=T BraDBF=F KetDBF=T FulRan=T
         Omega=  0.000000  0.000000  1.000000  0.000000  0.000000 ICntrl=     500 IOpCl=  0
         NMat0=    1 NMatS0=    1 NMatT0=    0 NMatD0=    1 NMtDS0=    0 NMtDT0=    0
         I1Cent=           4 NGrid=           0.
 Petite list used in FoFCou.
 Harris En= -143.235247032939    
 Initial guess orbital symmetries:
       Occupied  (A) (A) (A) (A) (A) (A) (A) (A) (A)
       Virtual   (A) (A) (A) (A) (A) (A) (A) (A) (A) (A) (A) (A)
                 (A) (A) (A) (A) (A) (A) (A) (A) (A) (A) (A) (A)
                 (A) (A) (A) (A) (A) (A) (A) (A) (A) (A) (A) (A)
                 (A) (A) (A) (A) (A) (A) (A) (A) (A) (A) (A) (A)
                 (A) (A) (A) (A) (A) (A) (A) (A) (A) (A) (A) (A)
                 (A) (A) (A) (A) (A) (A) (A) (A) (A) (A) (A) (A)
                 (A) (A) (A) (A) (A) (A) (A) (A) (A) (A) (A) (A)
                 (A) (A) (A) (A) (A) (A) (A) (A) (A) (A) (A) (A)
                 (A) (A) (A) (A) (A) (A) (A) (A) (A) (A) (A) (A)
                 (A) (A) (A) (A) (A) (A) (A) (A) (A) (A) (A) (A)
                 (A) (A) (A) (A) (A) (A) (A) (A) (A) (A) (A) (A)
                 (A) (A) (A) (A) (A) (A) (A) (A) (A) (A) (A) (A)
                 (A) (A) (A) (A) (A) (A) (A) (A) (A) (A) (A) (A)
                 (A) (A) (A) (A) (A) (A) (A) (A) (A) (A) (A) (A)
                 (A) (A) (A) (A) (A) (A) (A) (A) (A) (A) (A) (A)
                 (A) (A) (A) (A) (A) (A) (A) (A)
 The electronic state of the initial guess is 1-A.
 Leave Link  401 at Mon May 11 12:56:26 2020, MaxMem= 1073741824 cpu:       4.5
 (Enter /home/matheus/.gaussian/g09/l502.exe)
 Closed shell SCF:
 Requested convergence on RMS density matrix=1.00D-08 within 128 cycles.
 Requested convergence on MAX density matrix=1.00D-06.
 Requested convergence on             energy=1.00D-06.
 No special actions if energy rises.
 Using DIIS extrapolation, IDIIS=  1040.
 Integral symmetry usage will be decided dynamically.
       126521 words used for storage of precomputed grid.
 IEnd=      305468 IEndB=      305468 NGot=  1073741824 MDV=  1073505667
 LenX=  1073505667 LenY=  1073452785
 Fock matrices will be formed incrementally for  20 cycles.

 Cycle   1  Pass 1  IDiag  1:
 FoFJK:  IHMeth= 1 ICntrl=     0 DoSepK=T KAlg= 1 I1Cent= 0 FoldK=F
 FoFCou: FMM=F IPFlag=           0 FMFlag=      100000 FMFlg1=           0
         NFxFlg=           0 DoJE=T BraDBF=F KetDBF=F FulRan=T
         Omega=  0.000000  0.000000  1.000000  0.000000  0.000000 ICntrl=     500 IOpCl=  0
         NMat0=    1 NMatS0=    1 NMatT0=    0 NMatD0=    1 NMtDS0=    0 NMtDT0=    0
         I1Cent=           0 NGrid=           0.
 Symmetry not used in FoFCou.
 E= -145.634849287077    
 DIIS: error= 1.20D-01 at cycle   1 NSaved=   1.
 NSaved= 1 IEnMin= 1 EnMin= -145.634849287077     IErMin= 1 ErrMin= 1.20D-01
 ErrMax= 1.20D-01 EMaxC= 1.00D-01 BMatC= 2.72D+00 BMatP= 2.72D+00
 IDIUse=3 WtCom= 0.00D+00 WtEn= 1.00D+00
 Coeff-Com:  0.100D+01
 Coeff-En:   0.100D+01
 Coeff:      0.100D+01
 Gap=    -0.855 Goal=   None    Shift=    0.000
 GapD=   -0.855 DampG=0.250 DampE=0.250 DampFc=0.2500 IDamp=-1.
 Damping current iteration by 2.50D-01
 RMSDP=1.02D-01 MaxDP=8.63D+00              OVMax= 9.97D-01

 Cycle   2  Pass 1  IDiag  1:
 RMSU=  1.82D-03    CP:  7.52D-01
 FoFJK:  IHMeth= 1 ICntrl=     0 DoSepK=T KAlg= 1 I1Cent= 0 FoldK=F
 E= -147.757149552170     Delta-E=       -2.122300265093 Rises=F Damp=T
 DIIS: error= 6.27D-02 at cycle   2 NSaved=   2.
 NSaved= 2 IEnMin= 2 EnMin= -147.757149552170     IErMin= 2 ErrMin= 6.27D-02
 ErrMax= 6.27D-02 EMaxC= 1.00D-01 BMatC= 7.18D-01 BMatP= 2.72D+00
 IDIUse=3 WtCom= 3.73D-01 WtEn= 6.27D-01
 Coeff-Com: -0.965D+00 0.196D+01
 Coeff-En:   0.000D+00 0.100D+01
 Coeff:     -0.360D+00 0.136D+01
 Gap=     0.363 Goal=   None    Shift=    0.000
 RMSDP=7.66D-02 MaxDP=6.47D+00 DE=-2.12D+00 OVMax= 1.29D-01

 Cycle   3  Pass 1  IDiag  1:
 RMSU=  2.19D-03    CP:  7.06D-03  3.00D+00
 FoFJK:  IHMeth= 1 ICntrl=     0 DoSepK=T KAlg= 1 I1Cent= 0 FoldK=F
 E= -150.548418305050     Delta-E=       -2.791268752880 Rises=F Damp=F
 DIIS: error= 4.64D-02 at cycle   3 NSaved=   3.
 NSaved= 3 IEnMin= 3 EnMin= -150.548418305050     IErMin= 3 ErrMin= 4.64D-02
 ErrMax= 4.64D-02 EMaxC= 1.00D-01 BMatC= 9.43D-01 BMatP= 7.18D-01
 IDIUse=2 WtCom= 0.00D+00 WtEn= 1.00D+00
 Coeff-En:   0.000D+00 0.000D+00 0.100D+01
 Coeff:      0.000D+00 0.000D+00 0.100D+01
 Gap=     0.814 Goal=   None    Shift=    0.000
 RMSDP=4.20D-03 MaxDP=1.45D-01 DE=-2.79D+00 OVMax= 3.01D-01

 Cycle   4  Pass 1  IDiag  1:
 RMSU=  2.93D-03    CP:  7.79D-03  3.00D+00  1.20D+00
 FoFJK:  IHMeth= 1 ICntrl=     0 DoSepK=T KAlg= 1 I1Cent= 0 FoldK=F
 E= -150.907735685272     Delta-E=       -0.359317380222 Rises=F Damp=F
 DIIS: error= 3.37D-02 at cycle   4 NSaved=   4.
 NSaved= 4 IEnMin= 4 EnMin= -150.907735685272     IErMin= 4 ErrMin= 3.37D-02
 ErrMax= 3.37D-02 EMaxC= 1.00D-01 BMatC= 4.59D-01 BMatP= 7.18D-01
 IDIUse=3 WtCom= 6.63D-01 WtEn= 3.37D-01
 Coeff-Com: -0.413D+00 0.693D+00 0.213D+00 0.507D+00
 Coeff-En:   0.000D+00 0.000D+00 0.232D+00 0.768D+00
 Coeff:     -0.274D+00 0.459D+00 0.220D+00 0.595D+00
 Gap=     0.581 Goal=   None    Shift=    0.000
 RMSDP=2.04D-03 MaxDP=5.72D-02 DE=-3.59D-01 OVMax= 1.54D-01

 Cycle   5  Pass 1  IDiag  1:
 RMSU=  4.06D-04    CP:  7.17D-03  3.00D+00  1.22D+00  5.30D-01
 FoFJK:  IHMeth= 1 ICntrl=     0 DoSepK=T KAlg= 1 I1Cent= 0 FoldK=F
 E= -151.192377709920     Delta-E=       -0.284642024648 Rises=F Damp=F
 DIIS: error= 8.83D-03 at cycle   5 NSaved=   5.
 NSaved= 5 IEnMin= 5 EnMin= -151.192377709920     IErMin= 5 ErrMin= 8.83D-03
 ErrMax= 8.83D-03 EMaxC= 1.00D-01 BMatC= 2.65D-02 BMatP= 4.59D-01
 IDIUse=3 WtCom= 9.12D-01 WtEn= 8.83D-02
 Coeff-Com: -0.104D+00 0.188D+00-0.145D+00 0.702D-01 0.991D+00
 Coeff-En:   0.000D+00 0.000D+00 0.000D+00 0.000D+00 0.100D+01
 Coeff:     -0.948D-01 0.171D+00-0.132D+00 0.640D-01 0.991D+00
 Gap=     0.540 Goal=   None    Shift=    0.000
 RMSDP=4.09D-04 MaxDP=1.50D-02 DE=-2.85D-01 OVMax= 2.44D-02

 Cycle   6  Pass 1  IDiag  1:
 RMSU=  8.65D-05    CP:  7.27D-03  3.00D+00  1.24D+00  6.22D-01  1.10D+00
 FoFJK:  IHMeth= 1 ICntrl=     0 DoSepK=T KAlg= 1 I1Cent= 0 FoldK=F
 E= -151.210721633043     Delta-E=       -0.018343923123 Rises=F Damp=F
 DIIS: error= 2.21D-03 at cycle   6 NSaved=   6.
 NSaved= 6 IEnMin= 6 EnMin= -151.210721633043     IErMin= 6 ErrMin= 2.21D-03
 ErrMax= 2.21D-03 EMaxC= 1.00D-01 BMatC= 1.16D-03 BMatP= 2.65D-02
 IDIUse=3 WtCom= 9.78D-01 WtEn= 2.21D-02
 Coeff-Com: -0.360D-01 0.692D-01-0.949D-03-0.180D-01-0.380D+00 0.137D+01
 Coeff-En:   0.000D+00 0.000D+00 0.000D+00 0.000D+00 0.000D+00 0.100D+01
 Coeff:     -0.352D-01 0.677D-01-0.928D-03-0.176D-01-0.372D+00 0.136D+01
 Gap=     0.535 Goal=   None    Shift=    0.000
 RMSDP=9.78D-05 MaxDP=2.37D-03 DE=-1.83D-02 OVMax= 5.61D-03

 Cycle   7  Pass 1  IDiag  1:
 RMSU=  2.67D-05    CP:  7.30D-03  3.00D+00  1.24D+00  6.38D-01  1.12D+00
                    CP:  1.46D+00
 FoFJK:  IHMeth= 1 ICntrl=     0 DoSepK=T KAlg= 1 I1Cent= 0 FoldK=F
 E= -151.211546448734     Delta-E=       -0.000824815691 Rises=F Damp=F
 DIIS: error= 1.09D-03 at cycle   7 NSaved=   7.
 NSaved= 7 IEnMin= 7 EnMin= -151.211546448734     IErMin= 7 ErrMin= 1.09D-03
 ErrMax= 1.09D-03 EMaxC= 1.00D-01 BMatC= 3.03D-04 BMatP= 1.16D-03
 IDIUse=3 WtCom= 9.89D-01 WtEn= 1.09D-02
 Coeff-Com: -0.359D-02 0.723D-02 0.699D-02 0.713D-02-0.981D-01-0.322D+00
 Coeff-Com:  0.140D+01
 Coeff-En:   0.000D+00 0.000D+00 0.000D+00 0.000D+00 0.000D+00 0.000D+00
 Coeff-En:   0.100D+01
 Coeff:     -0.355D-02 0.715D-02 0.691D-02 0.705D-02-0.970D-01-0.319D+00
 Coeff:      0.140D+01
 Gap=     0.530 Goal=   None    Shift=    0.000
 RMSDP=7.49D-05 MaxDP=2.01D-03 DE=-8.25D-04 OVMax= 4.49D-03

 Cycle   8  Pass 1  IDiag  1:
 RMSU=  9.36D-06    CP:  7.33D-03  3.00D+00  1.24D+00  6.53D-01  1.11D+00
                    CP:  1.70D+00  1.69D+00
 FoFJK:  IHMeth= 1 ICntrl=     0 DoSepK=T KAlg= 1 I1Cent= 0 FoldK=F
 E= -151.211818424784     Delta-E=       -0.000271976050 Rises=F Damp=F
 DIIS: error= 1.15D-04 at cycle   8 NSaved=   8.
 NSaved= 8 IEnMin= 8 EnMin= -151.211818424784     IErMin= 8 ErrMin= 1.15D-04
 ErrMax= 1.15D-04 EMaxC= 1.00D-01 BMatC= 3.12D-06 BMatP= 3.03D-04
 IDIUse=3 WtCom= 9.99D-01 WtEn= 1.15D-03
 Coeff-Com: -0.214D-03 0.306D-03-0.154D-02 0.203D-02 0.362D-01-0.428D-01
 Coeff-Com: -0.216D+00 0.122D+01
 Coeff-En:   0.000D+00 0.000D+00 0.000D+00 0.000D+00 0.000D+00 0.000D+00
 Coeff-En:   0.000D+00 0.100D+01
 Coeff:     -0.214D-03 0.305D-03-0.154D-02 0.203D-02 0.361D-01-0.428D-01
 Coeff:     -0.216D+00 0.122D+01
 Gap=     0.530 Goal=   None    Shift=    0.000
 RMSDP=1.23D-05 MaxDP=3.38D-04 DE=-2.72D-04 OVMax= 6.40D-04

 Cycle   9  Pass 1  IDiag  1:
 RMSU=  1.54D-06    CP:  7.33D-03  3.00D+00  1.24D+00  6.55D-01  1.10D+00
                    CP:  1.71D+00  1.83D+00  1.33D+00
 FoFJK:  IHMeth= 1 ICntrl=     0 DoSepK=T KAlg= 1 I1Cent= 0 FoldK=F
 E= -151.211822382690     Delta-E=       -0.000003957906 Rises=F Damp=F
 DIIS: error= 7.12D-06 at cycle   9 NSaved=   9.
 NSaved= 9 IEnMin= 9 EnMin= -151.211822382690     IErMin= 9 ErrMin= 7.12D-06
 ErrMax= 7.12D-06 EMaxC= 1.00D-01 BMatC= 1.25D-08 BMatP= 3.12D-06
 IDIUse=1 WtCom= 1.00D+00 WtEn= 0.00D+00
 Coeff-Com: -0.404D-04 0.579D-04 0.437D-04-0.225D-03-0.315D-02 0.596D-02
 Coeff-Com:  0.242D-01-0.212D+00 0.119D+01
 Coeff:     -0.404D-04 0.579D-04 0.437D-04-0.225D-03-0.315D-02 0.596D-02
 Coeff:      0.242D-01-0.212D+00 0.119D+01
 Gap=     0.530 Goal=   None    Shift=    0.000
 RMSDP=1.03D-06 MaxDP=2.42D-05 DE=-3.96D-06 OVMax= 9.23D-05

 Cycle  10  Pass 1  IDiag  1:
 RMSU=  4.28D-07    CP:  7.33D-03  3.00D+00  1.24D+00  6.55D-01  1.10D+00
                    CP:  1.71D+00  1.84D+00  1.35D+00  1.31D+00
 FoFJK:  IHMeth= 1 ICntrl=     0 DoSepK=T KAlg= 1 I1Cent= 0 FoldK=F
 E= -151.211822416418     Delta-E=       -0.000000033728 Rises=F Damp=F
 DIIS: error= 2.44D-06 at cycle  10 NSaved=  10.
 NSaved=10 IEnMin=10 EnMin= -151.211822416418     IErMin=10 ErrMin= 2.44D-06
 ErrMax= 2.44D-06 EMaxC= 1.00D-01 BMatC= 1.89D-09 BMatP= 1.25D-08
 IDIUse=1 WtCom= 1.00D+00 WtEn= 0.00D+00
 Coeff-Com:  0.177D-04-0.348D-04 0.492D-04-0.644D-04-0.128D-02-0.107D-03
 Coeff-Com:  0.116D-01-0.501D-01-0.264D-01 0.107D+01
 Coeff:      0.177D-04-0.348D-04 0.492D-04-0.644D-04-0.128D-02-0.107D-03
 Coeff:      0.116D-01-0.501D-01-0.264D-01 0.107D+01
 Gap=     0.530 Goal=   None    Shift=    0.000
 RMSDP=3.60D-07 MaxDP=9.04D-06 DE=-3.37D-08 OVMax= 4.38D-05

 Cycle  11  Pass 1  IDiag  1:
 RMSU=  1.17D-07    CP:  7.33D-03  3.00D+00  1.24D+00  6.55D-01  1.10D+00
                    CP:  1.71D+00  1.84D+00  1.34D+00  1.37D+00  1.45D+00
 FoFJK:  IHMeth= 1 ICntrl=     0 DoSepK=T KAlg= 1 I1Cent= 0 FoldK=F
 E= -151.211822421701     Delta-E=       -0.000000005283 Rises=F Damp=F
 DIIS: error= 1.31D-06 at cycle  11 NSaved=  11.
 NSaved=11 IEnMin=11 EnMin= -151.211822421701     IErMin=11 ErrMin= 1.31D-06
 ErrMax= 1.31D-06 EMaxC= 1.00D-01 BMatC= 8.51D-10 BMatP= 1.89D-09
 IDIUse=1 WtCom= 1.00D+00 WtEn= 0.00D+00
 Coeff-Com:  0.146D-04-0.259D-04-0.189D-05 0.303D-04 0.366D-03-0.188D-02
 Coeff-Com: -0.550D-04 0.264D-01-0.256D+00 0.358D+00 0.873D+00
 Coeff:      0.146D-04-0.259D-04-0.189D-05 0.303D-04 0.366D-03-0.188D-02
 Coeff:     -0.550D-04 0.264D-01-0.256D+00 0.358D+00 0.873D+00
 Gap=     0.530 Goal=   None    Shift=    0.000
 RMSDP=2.09D-07 MaxDP=5.46D-06 DE=-5.28D-09 OVMax= 2.66D-05

 Cycle  12  Pass 1  IDiag  1:
 RMSU=  5.71D-08    CP:  7.33D-03  3.00D+00  1.24D+00  6.55D-01  1.10D+00
                    CP:  1.71D+00  1.84D+00  1.34D+00  1.39D+00  1.72D+00
                    CP:  1.24D+00
 FoFJK:  IHMeth= 1 ICntrl=     0 DoSepK=T KAlg= 1 I1Cent= 0 FoldK=F
 E= -151.211822423352     Delta-E=       -0.000000001651 Rises=F Damp=F
 DIIS: error= 6.34D-07 at cycle  12 NSaved=  12.
 NSaved=12 IEnMin=12 EnMin= -151.211822423352     IErMin=12 ErrMin= 6.34D-07
 ErrMax= 6.34D-07 EMaxC= 1.00D-01 BMatC= 1.37D-10 BMatP= 8.51D-10
 IDIUse=1 WtCom= 1.00D+00 WtEn= 0.00D+00
 Coeff-Com: -0.499D-05 0.970D-05-0.159D-04 0.201D-04 0.364D-03-0.340D-03
 Coeff-Com: -0.158D-02 0.935D-02 0.426D-02-0.285D+00 0.153D-02 0.127D+01
 Coeff:     -0.499D-05 0.970D-05-0.159D-04 0.201D-04 0.364D-03-0.340D-03
 Coeff:     -0.158D-02 0.935D-02 0.426D-02-0.285D+00 0.153D-02 0.127D+01
 Gap=     0.530 Goal=   None    Shift=    0.000
 RMSDP=1.52D-07 MaxDP=4.67D-06 DE=-1.65D-09 OVMax= 1.93D-05

 Cycle  13  Pass 1  IDiag  1:
 RMSU=  1.67D-08    CP:  7.33D-03  3.00D+00  1.24D+00  6.55D-01  1.10D+00
                    CP:  1.71D+00  1.84D+00  1.34D+00  1.40D+00  1.89D+00
                    CP:  1.67D+00  1.51D+00
 FoFJK:  IHMeth= 1 ICntrl=     0 DoSepK=T KAlg= 1 I1Cent= 0 FoldK=F
 E= -151.211822423706     Delta-E=       -0.000000000354 Rises=F Damp=F
 DIIS: error= 2.75D-07 at cycle  13 NSaved=  13.
 NSaved=13 IEnMin=13 EnMin= -151.211822423706     IErMin=13 ErrMin= 2.75D-07
 ErrMax= 2.75D-07 EMaxC= 1.00D-01 BMatC= 1.47D-11 BMatP= 1.37D-10
 IDIUse=1 WtCom= 1.00D+00 WtEn= 0.00D+00
 Coeff-Com: -0.692D-06 0.989D-06 0.340D-05-0.527D-05-0.139D-03 0.107D-03
 Coeff-Com:  0.957D-03-0.732D-02 0.331D-01 0.338D-01-0.937D-01-0.289D+00
 Coeff-Com:  0.132D+01
 Coeff:     -0.692D-06 0.989D-06 0.340D-05-0.527D-05-0.139D-03 0.107D-03
 Coeff:      0.957D-03-0.732D-02 0.331D-01 0.338D-01-0.937D-01-0.289D+00
 Coeff:      0.132D+01
 Gap=     0.530 Goal=   None    Shift=    0.000
 RMSDP=3.29D-08 MaxDP=7.79D-07 DE=-3.54D-10 OVMax= 3.69D-06

 Cycle  14  Pass 1  IDiag  1:
 RMSU=  6.08D-09    CP:  7.33D-03  3.00D+00  1.24D+00  6.55D-01  1.10D+00
                    CP:  1.71D+00  1.84D+00  1.34D+00  1.40D+00  1.91D+00
                    CP:  1.75D+00  1.67D+00  1.50D+00
 FoFJK:  IHMeth= 1 ICntrl=     0 DoSepK=T KAlg= 1 I1Cent= 0 FoldK=F
 E= -151.211822423773     Delta-E=       -0.000000000067 Rises=F Damp=F
 DIIS: error= 4.98D-08 at cycle  14 NSaved=  14.
 NSaved=14 IEnMin=14 EnMin= -151.211822423773     IErMin=14 ErrMin= 4.98D-08
 ErrMax= 4.98D-08 EMaxC= 1.00D-01 BMatC= 4.93D-13 BMatP= 1.47D-11
 IDIUse=1 WtCom= 1.00D+00 WtEn= 0.00D+00
 Coeff-Com: -0.838D-08-0.163D-07-0.307D-06 0.562D-06 0.263D-04-0.314D-05
 Coeff-Com: -0.289D-03 0.230D-02-0.130D-01 0.620D-02 0.328D-01 0.198D-01
 Coeff-Com: -0.489D+00 0.144D+01
 Coeff:     -0.838D-08-0.163D-07-0.307D-06 0.562D-06 0.263D-04-0.314D-05
 Coeff:     -0.289D-03 0.230D-02-0.130D-01 0.620D-02 0.328D-01 0.198D-01
 Coeff:     -0.489D+00 0.144D+01
 Gap=     0.530 Goal=   None    Shift=    0.000
 RMSDP=8.15D-09 MaxDP=2.53D-07 DE=-6.68D-11 OVMax= 9.50D-07

 SCF Done:  E(RLC-B+HF-LYP) =  -151.211822424     A.U. after   14 cycles
             Convg  =    0.8148D-08             -V/T =  2.0062
 KE= 1.502740411213D+02 PE=-4.315679179665D+02 EE= 9.344397530370D+01
 Leave Link  502 at Mon May 11 12:57:14 2020, MaxMem= 1073741824 cpu:     385.6
 (Enter /home/matheus/.gaussian/g09/l601.exe)
 Copying SCF densities to generalized density rwf, IOpCl= 0 IROHF=0.

 **********************************************************************

            Population analysis using the SCF density.

 **********************************************************************

 Orbital symmetries:
       Occupied  (A) (A) (A) (A) (A) (A) (A) (A) (A)
       Virtual   (A) (A) (A) (A) (A) (A) (A) (A) (A) (A) (A) (A)
                 (A) (A) (A) (A) (A) (A) (A) (A) (A) (A) (A) (A)
                 (A) (A) (A) (A) (A) (A) (A) (A) (A) (A) (A) (A)
                 (A) (A) (A) (A) (A) (A) (A) (A) (A) (A) (A) (A)
                 (A) (A) (A) (A) (A) (A) (A) (A) (A) (A) (A) (A)
                 (A) (A) (A) (A) (A) (A) (A) (A) (A) (A) (A) (A)
                 (A) (A) (A) (A) (A) (A) (A) (A) (A) (A) (A) (A)
                 (A) (A) (A) (A) (A) (A) (A) (A) (A) (A) (A) (A)
                 (A) (A) (A) (A) (A) (A) (A) (A) (A) (A) (A) (A)
                 (A) (A) (A) (A) (A) (A) (A) (A) (A) (A) (A) (A)
                 (A) (A) (A) (A) (A) (A) (A) (A) (A) (A) (A) (A)
                 (A) (A) (A) (A) (A) (A) (A) (A) (A) (A) (A) (A)
                 (A) (A) (A) (A) (A) (A) (A) (A) (A) (A) (A) (A)
                 (A) (A) (A) (A) (A) (A) (A) (A) (A) (A) (A) (A)
                 (A) (A) (A) (A) (A) (A) (A) (A) (A) (A) (A) (A)
                 (A) (A) (A) (A) (A) (A) (A) (A)
 The electronic state is 1-A.
 Alpha  occ. eigenvalues --  -19.48763 -19.48734  -1.46602  -1.21680  -0.78176
 Alpha  occ. eigenvalues --   -0.69769  -0.63480  -0.55048  -0.51165
 Alpha virt. eigenvalues --    0.01837   0.03501   0.06822   0.07839   0.09880
 Alpha virt. eigenvalues --    0.10060   0.11954   0.13854   0.16607   0.17152
 Alpha virt. eigenvalues --    0.17993   0.19587   0.21687   0.23629   0.25486
 Alpha virt. eigenvalues --    0.26328   0.29223   0.29976   0.32451   0.33069
 Alpha virt. eigenvalues --    0.33740   0.36248   0.37213   0.39941   0.40991
 Alpha virt. eigenvalues --    0.43045   0.44423   0.46828   0.47866   0.49881
 Alpha virt. eigenvalues --    0.53152   0.57458   0.62316   0.63987   0.67622
 Alpha virt. eigenvalues --    0.72015   0.76285   0.78115   0.79123   0.81239
 Alpha virt. eigenvalues --    0.82398   0.83974   0.88534   0.90801   0.92231
 Alpha virt. eigenvalues --    0.93430   0.94659   0.96378   0.98153   0.99634
 Alpha virt. eigenvalues --    1.00574   1.02217   1.05117   1.11349   1.12588
 Alpha virt. eigenvalues --    1.14553   1.16696   1.20382   1.22677   1.25303
 Alpha virt. eigenvalues --    1.27562   1.29571   1.30562   1.31539   1.33158
 Alpha virt. eigenvalues --    1.34344   1.34884   1.38990   1.41041   1.41984
 Alpha virt. eigenvalues --    1.48263   1.51943   1.54052   1.55411   1.57957
 Alpha virt. eigenvalues --    1.62677   1.67500   1.68965   1.77688   1.82612
 Alpha virt. eigenvalues --    1.87094   1.93660   2.03360   2.06938   2.12558
 Alpha virt. eigenvalues --    2.13653   2.18826   2.25824   2.30280   2.32368
 Alpha virt. eigenvalues --    2.38654   2.39597   2.43250   2.46700   2.48037
 Alpha virt. eigenvalues --    2.60782   2.64465   2.67891   2.71566   2.73745
 Alpha virt. eigenvalues --    2.78087   2.85083   2.91202   3.00593   3.06667
 Alpha virt. eigenvalues --    3.13965   3.22415   3.23407   3.25203   3.30187
 Alpha virt. eigenvalues --    3.43012   3.56860   3.73159   3.76774   3.77584
 Alpha virt. eigenvalues --    3.78507   3.81251   3.81442   3.82122   3.86604
 Alpha virt. eigenvalues --    3.90362   3.90943   3.95268   3.98037   4.00033
 Alpha virt. eigenvalues --    4.09924   4.14363   4.16407   4.21204   4.25050
 Alpha virt. eigenvalues --    4.28731   4.39837   4.39994   4.42295   4.48050
 Alpha virt. eigenvalues --    4.50754   4.67206   4.76944   4.88007   5.11752
 Alpha virt. eigenvalues --    5.15879   5.17524   5.31890   5.34547   5.37994
 Alpha virt. eigenvalues --    5.65499   6.07286   6.24087   6.37546   6.44265
 Alpha virt. eigenvalues --    6.49823   6.57164   6.66763   6.74898   6.87532
 Alpha virt. eigenvalues --    7.02803   7.04126   7.08167   7.10448   7.14704
 Alpha virt. eigenvalues --    7.16152   7.20095   7.21522   7.27129   7.33862
 Alpha virt. eigenvalues --    7.39505   7.48799   7.72268   7.80047   8.06265
 Alpha virt. eigenvalues --    8.34891   8.38188  10.91149  14.33436  14.82251
 Alpha virt. eigenvalues --   14.84952  14.88997  15.10122  29.01859  29.02103
 Alpha virt. eigenvalues --   29.06622  29.12829  29.21949  49.10922 148.30559
 Alpha virt. eigenvalues --  148.38564 148.70439 752.54666
          Condensed to atoms (all electrons):
              1          2          3          4          5
     1  O    8.208663  -0.180587   0.190711   0.001412   0.001398
     2  O   -0.180587   8.229008   0.014999   0.183466  -0.001719
     3  H    0.190711   0.014999   0.573293  -0.001278  -0.001426
     4  H    0.001412   0.183466  -0.001278   0.579898  -0.003006
     5  Kr   0.001398  -0.001719  -0.001426  -0.003006   0.001198
 Mulliken atomic charges:
              1
     1  O   -0.221597
     2  O   -0.245167
     3  H    0.223701
     4  H    0.239508
     5  Kr   0.003555
 Sum of Mulliken atomic charges =   0.00000
 Mulliken charges with hydrogens summed into heavy atoms:
              1
     1  O    0.002104
     2  O   -0.005659
     5  Kr   0.003555
 Sum of Mulliken charges with hydrogens summed into heavy atoms =   0.00000
          Condensed to fragments (all electrons):
     1      -0.003555
     2       0.003555
 Electronic spatial extent (au):  <R**2>=            318.9853
 Charge=              0.0000 electrons
 Dipole moment (field-independent basis, Debye):
    X=             -2.2665    Y=             -0.1592    Z=              1.6274  Tot=              2.7948
 Quadrupole moment (field-independent basis, Debye-Ang):
   XX=            -19.4643   YY=            -10.0353   ZZ=            -11.2772
   XY=             -1.7272   XZ=              2.5650   YZ=             -1.8874
 Traceless Quadrupole moment (field-independent basis, Debye-Ang):
   XX=             -5.8720   YY=              3.5570   ZZ=              2.3150
   XY=             -1.7272   XZ=              2.5650   YZ=             -1.8874
 Octapole moment (field-independent basis, Debye-Ang**2):
  XXX=            -90.4553  YYY=             -1.0587  ZZZ=              1.2407  XYY=            -22.7311
  XXY=             -4.4232  XXZ=              4.1187  XZZ=            -22.5735  YZZ=             -1.7576
  YYZ=              2.3609  XYZ=             -3.3195
 Hexadecapole moment (field-independent basis, Debye-Ang**3):
 XXXX=           -338.9193 YYYY=            -43.3898 ZZZZ=            -10.5505 XXXY=             -8.0918
 XXXZ=              7.0355 YYYX=             -2.9965 YYYZ=             -2.8034 ZZZX=              2.3988
 ZZZY=             -1.9831 XXYY=            -59.3641 XXZZ=            -48.9248 YYZZ=             -9.3672
 XXYZ=             -6.0609 YYXZ=              4.0145 ZZXY=             -2.8615
 N-N= 3.663807911772D+01 E-N=-4.315679184318D+02  KE= 1.502740411213D+02
 No NMR shielding tensors so no spin-rotation constants.
 Leave Link  601 at Mon May 11 12:57:15 2020, MaxMem= 1073741824 cpu:       0.8
 (Enter /home/matheus/.gaussian/g09/l122.exe)
 Counterpoise: doing DCBS calculation for fragment   2 NewBq=T
 Leave Link  122 at Mon May 11 12:57:15 2020, MaxMem= 1073741824 cpu:       0.0
 (Enter /home/matheus/.gaussian/g09/l301.exe)
 Basis read from rwf:  (5D, 7F)
 No pseudopotential information found on rwf file.
 There are   197 symmetry adapted basis functions of A   symmetry.
 Integral buffers will be    131072 words long.
 Raffenetti 2 integral format.
 Two-electron integral symmetry is turned on.
   197 basis functions,   415 primitive gaussians,   229 cartesian basis functions
    18 alpha electrons       18 beta electrons
       nuclear repulsion energy         0.0000000000 Hartrees.
 IExCor=10402 DFT=T Ex=LC-B+HF Corr=LYP ExCW=0 ScaHFX=  1.000000
 ScaDFX=  1.000000  1.000000  1.000000  1.000000 ScalE2=  1.000000  1.000000
 IRadAn=      5 IRanWt=     -1 IRanGd=            0 ICorTp=0
  HFx wShort=  0.000000 wLong=  1.350000 cFull=  0.000000 cShort=  0.000000 cLong=  1.000000
  DFx wShort=  0.000000 wLong=  1.350000 cFull=  0.000000 cShort=  0.000000 cLong=  1.000000
 NAtoms=    5 NActive=    5 NUniq=    5 SFac= 1.00D+00 NAtFMM=   60 NAOKFM=F Big=F
 No density basis found on file   718.
 Leave Link  301 at Mon May 11 12:57:15 2020, MaxMem= 1073741824 cpu:       0.2
 (Enter /home/matheus/.gaussian/g09/l302.exe)
 NPDir=0 NMtPBC=     1 NCelOv=     1 NCel=       1 NClECP=     1 NCelD=      1
         NCelK=      1 NCelE2=     1 NClLst=     1 CellRange=     0.0.
 One-electron integrals computed using PRISM.
 NBasis=   197 RedAO= T  NBF=   197
 NBsUse=   197 1.00D-06 NBFU=   197
 Precomputing XC quadrature grid using
 IXCGrd= 2 IRadAn=           5 IRanWt=          -1 IRanGd=           0 AccXCQ= 0.00D+00.
 NRdTot=     427 NPtTot=      123512 NUsed=      126579 NTot=      126611
 NSgBfM=   229   229   229   229   229 NAtAll=     5     5.
 Leave Link  302 at Mon May 11 12:57:15 2020, MaxMem= 1073741824 cpu:       1.0
 (Enter /home/matheus/.gaussian/g09/l303.exe)
 DipDrv:  MaxL=1.
 Leave Link  303 at Mon May 11 12:57:15 2020, MaxMem= 1073741824 cpu:       0.2
 (Enter /home/matheus/.gaussian/g09/l401.exe)
 Harris functional with IExCor=10402 diagonalized for initial guess.
 ExpMin= 2.53D-02 ExpMax= 1.17D+07 ExpMxC= 1.33D+04 IAcc=3 IRadAn=         5 AccDes= 0.00D+00
 HarFok:  IExCor=10402 AccDes= 0.00D+00 IRadAn=         5 IDoV= 1
 ScaDFX=  1.000000  1.000000  1.000000  1.000000
 FoFCou: FMM=F IPFlag=           0 FMFlag=      100000 FMFlg1=           0
         NFxFlg=           0 DoJE=T BraDBF=F KetDBF=T FulRan=T
         Omega=  0.000000  0.000000  1.000000  0.000000  0.000000 ICntrl=     500 IOpCl=  0
         NMat0=    1 NMatS0=    1 NMatT0=    0 NMatD0=    1 NMtDS0=    0 NMtDT0=    0
         I1Cent=           4 NGrid=           0.
 Petite list used in FoFCou.
 Harris En= -2731.73459374548    
 Initial guess orbital symmetries:
       Occupied  (A) (A) (A) (A) (A) (A) (A) (A) (A) (A) (A) (A)
                 (A) (A) (A) (A) (A) (A)
       Virtual   (A) (A) (A) (A) (A) (A) (A) (A) (A) (A) (A) (A)
                 (A) (A) (A) (A) (A) (A) (A) (A) (A) (A) (A) (A)
                 (A) (A) (A) (A) (A) (A) (A) (A) (A) (A) (A) (A)
                 (A) (A) (A) (A) (A) (A) (A) (A) (A) (A) (A) (A)
                 (A) (A) (A) (A) (A) (A) (A) (A) (A) (A) (A) (A)
                 (A) (A) (A) (A) (A) (A) (A) (A) (A) (A) (A) (A)
                 (A) (A) (A) (A) (A) (A) (A) (A) (A) (A) (A) (A)
                 (A) (A) (A) (A) (A) (A) (A) (A) (A) (A) (A) (A)
                 (A) (A) (A) (A) (A) (A) (A) (A) (A) (A) (A) (A)
                 (A) (A) (A) (A) (A) (A) (A) (A) (A) (A) (A) (A)
                 (A) (A) (A) (A) (A) (A) (A) (A) (A) (A) (A) (A)
                 (A) (A) (A) (A) (A) (A) (A) (A) (A) (A) (A) (A)
                 (A) (A) (A) (A) (A) (A) (A) (A) (A) (A) (A) (A)
                 (A) (A) (A) (A) (A) (A) (A) (A) (A) (A) (A) (A)
                 (A) (A) (A) (A) (A) (A) (A) (A) (A) (A) (A)
 The electronic state of the initial guess is 1-A.
 Leave Link  401 at Mon May 11 12:57:15 2020, MaxMem= 1073741824 cpu:       3.7
 (Enter /home/matheus/.gaussian/g09/l502.exe)
 Closed shell SCF:
 Requested convergence on RMS density matrix=1.00D-08 within 128 cycles.
 Requested convergence on MAX density matrix=1.00D-06.
 Requested convergence on             energy=1.00D-06.
 No special actions if energy rises.
 Using DIIS extrapolation, IDIIS=  1040.
 Integral symmetry usage will be decided dynamically.
       126521 words used for storage of precomputed grid.
 IEnd=      305468 IEndB=      305468 NGot=  1073741824 MDV=  1073505667
 LenX=  1073505667 LenY=  1073452785
 Fock matrices will be formed incrementally for  20 cycles.

 Cycle   1  Pass 1  IDiag  1:
 FoFJK:  IHMeth= 1 ICntrl=     0 DoSepK=T KAlg= 1 I1Cent= 0 FoldK=F
 FoFCou: FMM=F IPFlag=           0 FMFlag=      100000 FMFlg1=           0
         NFxFlg=           0 DoJE=T BraDBF=F KetDBF=F FulRan=T
         Omega=  0.000000  0.000000  1.000000  0.000000  0.000000 ICntrl=     500 IOpCl=  0
         NMat0=    1 NMatS0=    1 NMatT0=    0 NMatD0=    1 NMtDS0=    0 NMtDT0=    0
         I1Cent=           0 NGrid=           0.
 Symmetry not used in FoFCou.
 E= -2752.70980412940    
 DIIS: error= 3.89D-02 at cycle   1 NSaved=   1.
 NSaved= 1 IEnMin= 1 EnMin= -2752.70980412940     IErMin= 1 ErrMin= 3.89D-02
 ErrMax= 3.89D-02 EMaxC= 1.00D-01 BMatC= 1.18D+00 BMatP= 1.18D+00
 IDIUse=3 WtCom= 6.11D-01 WtEn= 3.89D-01
 Coeff-Com:  0.100D+01
 Coeff-En:   0.100D+01
 Coeff:      0.100D+01
 Gap=     0.766 Goal=   None    Shift=    0.000
 GapD=    0.766 DampG=2.000 DampE=0.500 DampFc=1.0000 IDamp=-1.
 RMSDP=4.96D-03 MaxDP=2.25D-01              OVMax= 3.37D-01

 Cycle   2  Pass 1  IDiag  1:
 RMSU=  3.42D-03    CP:  1.05D+00
 FoFJK:  IHMeth= 1 ICntrl=     0 DoSepK=T KAlg= 1 I1Cent= 0 FoldK=F
 E= -2753.27687770318     Delta-E=       -0.567073573779 Rises=F Damp=F
 DIIS: error= 2.74D-02 at cycle   2 NSaved=   2.
 NSaved= 2 IEnMin= 2 EnMin= -2753.27687770318     IErMin= 2 ErrMin= 2.74D-02
 ErrMax= 2.74D-02 EMaxC= 1.00D-01 BMatC= 3.64D-01 BMatP= 1.18D+00
 IDIUse=3 WtCom= 7.26D-01 WtEn= 2.74D-01
 Coeff-Com:  0.351D+00 0.649D+00
 Coeff-En:   0.000D+00 0.100D+01
 Coeff:      0.255D+00 0.745D+00
 Gap=     0.604 Goal=   None    Shift=    0.000
 RMSDP=2.20D-03 MaxDP=1.33D-01 DE=-5.67D-01 OVMax= 7.33D-02

 Cycle   3  Pass 1  IDiag  1:
 RMSU=  8.60D-04    CP:  1.03D+00  6.31D-01
 FoFJK:  IHMeth= 1 ICntrl=     0 DoSepK=T KAlg= 1 I1Cent= 0 FoldK=F
 E= -2753.40757834059     Delta-E=       -0.130700637415 Rises=F Damp=F
 DIIS: error= 3.33D-03 at cycle   3 NSaved=   3.
 NSaved= 3 IEnMin= 3 EnMin= -2753.40757834059     IErMin= 3 ErrMin= 3.33D-03
 ErrMax= 3.33D-03 EMaxC= 1.00D-01 BMatC= 6.12D-03 BMatP= 3.64D-01
 IDIUse=3 WtCom= 9.67D-01 WtEn= 3.33D-02
 Coeff-Com: -0.930D-02 0.892D-01 0.920D+00
 Coeff-En:   0.000D+00 0.000D+00 0.100D+01
 Coeff:     -0.899D-02 0.862D-01 0.923D+00
 Gap=     0.575 Goal=   None    Shift=    0.000
 RMSDP=3.46D-04 MaxDP=1.57D-02 DE=-1.31D-01 OVMax= 1.06D-02

 Cycle   4  Pass 1  IDiag  1:
 RMSU=  2.24D-04    CP:  1.03D+00  6.58D-01  9.81D-01
 FoFJK:  IHMeth= 1 ICntrl=     0 DoSepK=T KAlg= 1 I1Cent= 0 FoldK=F
 E= -2753.40946478783     Delta-E=       -0.001886447242 Rises=F Damp=F
 DIIS: error= 3.35D-04 at cycle   4 NSaved=   4.
 NSaved= 4 IEnMin= 4 EnMin= -2753.40946478783     IErMin= 4 ErrMin= 3.35D-04
 ErrMax= 3.35D-04 EMaxC= 1.00D-01 BMatC= 3.59D-05 BMatP= 6.12D-03
 IDIUse=3 WtCom= 9.97D-01 WtEn= 3.35D-03
 Coeff-Com: -0.672D-02-0.434D-02-0.150D-02 0.101D+01
 Coeff-En:   0.000D+00 0.000D+00 0.000D+00 0.100D+01
 Coeff:     -0.669D-02-0.432D-02-0.149D-02 0.101D+01
 Gap=     0.581 Goal=   None    Shift=    0.000
 RMSDP=4.98D-05 MaxDP=2.24D-03 DE=-1.89D-03 OVMax= 3.46D-03

 Cycle   5  Pass 1  IDiag  1:
 RMSU=  2.01D-05    CP:  1.03D+00  6.62D-01  1.00D+00  1.08D+00
 FoFJK:  IHMeth= 1 ICntrl=     0 DoSepK=T KAlg= 1 I1Cent= 0 FoldK=F
 E= -2753.40952513754     Delta-E=       -0.000060349705 Rises=F Damp=F
 DIIS: error= 5.37D-05 at cycle   5 NSaved=   5.
 NSaved= 5 IEnMin= 5 EnMin= -2753.40952513754     IErMin= 5 ErrMin= 5.37D-05
 ErrMax= 5.37D-05 EMaxC= 1.00D-01 BMatC= 4.97D-07 BMatP= 3.59D-05
 IDIUse=1 WtCom= 1.00D+00 WtEn= 0.00D+00
 Coeff-Com: -0.820D-04-0.145D-02 0.117D-02-0.167D+00 0.117D+01
 Coeff:     -0.820D-04-0.145D-02 0.117D-02-0.167D+00 0.117D+01
 Gap=     0.581 Goal=   None    Shift=    0.000
 RMSDP=1.05D-05 MaxDP=4.43D-04 DE=-6.03D-05 OVMax= 6.34D-04

 Cycle   6  Pass 1  IDiag  1:
 RMSU=  9.74D-07    CP:  1.03D+00  6.62D-01  1.01D+00  1.10D+00  1.20D+00
 FoFJK:  IHMeth= 1 ICntrl=     0 DoSepK=T KAlg= 1 I1Cent= 0 FoldK=F
 E= -2753.40952655122     Delta-E=       -0.000001413679 Rises=F Damp=F
 DIIS: error= 2.08D-06 at cycle   6 NSaved=   6.
 NSaved= 6 IEnMin= 6 EnMin= -2753.40952655122     IErMin= 6 ErrMin= 2.08D-06
 ErrMax= 2.08D-06 EMaxC= 1.00D-01 BMatC= 9.88D-10 BMatP= 4.97D-07
 IDIUse=1 WtCom= 1.00D+00 WtEn= 0.00D+00
 Coeff-Com:  0.239D-04 0.112D-03-0.371D-03 0.120D-01-0.113D+00 0.110D+01
 Coeff:      0.239D-04 0.112D-03-0.371D-03 0.120D-01-0.113D+00 0.110D+01
 Gap=     0.580 Goal=   None    Shift=    0.000
 RMSDP=5.17D-07 MaxDP=2.34D-05 DE=-1.41D-06 OVMax= 2.33D-05

 Cycle   7  Pass 1  IDiag  1:
 RMSU=  5.90D-08    CP:  1.03D+00  6.62D-01  1.01D+00  1.10D+00  1.21D+00
                    CP:  1.13D+00
 FoFJK:  IHMeth= 1 ICntrl=     0 DoSepK=T KAlg= 1 I1Cent= 0 FoldK=F
 E= -2753.40952655195     Delta-E=       -0.000000000736 Rises=F Damp=F
 DIIS: error= 1.23D-07 at cycle   7 NSaved=   7.
 NSaved= 7 IEnMin= 7 EnMin= -2753.40952655195     IErMin= 7 ErrMin= 1.23D-07
 ErrMax= 1.23D-07 EMaxC= 1.00D-01 BMatC= 1.07D-11 BMatP= 9.88D-10
 IDIUse=1 WtCom= 1.00D+00 WtEn= 0.00D+00
 Coeff-Com:  0.263D-05 0.401D-05-0.331D-04 0.623D-03-0.290D-02-0.180D-01
 Coeff-Com:  0.102D+01
 Coeff:      0.263D-05 0.401D-05-0.331D-04 0.623D-03-0.290D-02-0.180D-01
 Coeff:      0.102D+01
 Gap=     0.580 Goal=   None    Shift=    0.000
 RMSDP=2.19D-08 MaxDP=1.03D-06 DE=-7.36D-10 OVMax= 1.31D-06

 Cycle   8  Pass 1  IDiag  1:
 RMSU=  8.88D-09    CP:  1.03D+00  6.62D-01  1.01D+00  1.10D+00  1.21D+00
                    CP:  1.14D+00  1.12D+00
 FoFJK:  IHMeth= 1 ICntrl=     0 DoSepK=T KAlg= 1 I1Cent= 0 FoldK=F
 E= -2753.40952655203     Delta-E=       -0.000000000077 Rises=F Damp=F
 DIIS: error= 3.03D-08 at cycle   8 NSaved=   8.
 NSaved= 8 IEnMin= 8 EnMin= -2753.40952655203     IErMin= 8 ErrMin= 3.03D-08
 ErrMax= 3.03D-08 EMaxC= 1.00D-01 BMatC= 4.31D-13 BMatP= 1.07D-11
 IDIUse=1 WtCom= 1.00D+00 WtEn= 0.00D+00
 Coeff-Com:  0.554D-07-0.203D-05 0.296D-05-0.213D-03 0.237D-02-0.280D-01
 Coeff-Com:  0.109D+00 0.917D+00
 Coeff:      0.554D-07-0.203D-05 0.296D-05-0.213D-03 0.237D-02-0.280D-01
 Coeff:      0.109D+00 0.917D+00
 Gap=     0.580 Goal=   None    Shift=    0.000
 RMSDP=4.48D-09 MaxDP=1.51D-07 DE=-7.69D-11 OVMax= 3.66D-07

 SCF Done:  E(RLC-B+HF-LYP) =  -2753.40952655     A.U. after    8 cycles
             Convg  =    0.4477D-08             -V/T =  2.0014
 KE= 2.749633409650D+03 PE=-6.579420908275D+03 EE= 1.076377972073D+03
 Leave Link  502 at Mon May 11 12:57:39 2020, MaxMem= 1073741824 cpu:     189.8
 (Enter /home/matheus/.gaussian/g09/l601.exe)
 Copying SCF densities to generalized density rwf, IOpCl= 0 IROHF=0.

 **********************************************************************

            Population analysis using the SCF density.

 **********************************************************************

 Orbital symmetries:
       Occupied  (A) (A) (A) (A) (A) (A) (A) (A) (A) (A) (A) (A)
                 (A) (A) (A) (A) (A) (A)
       Virtual   (A) (A) (A) (A) (A) (A) (A) (A) (A) (A) (A) (A)
                 (A) (A) (A) (A) (A) (A) (A) (A) (A) (A) (A) (A)
                 (A) (A) (A) (A) (A) (A) (A) (A) (A) (A) (A) (A)
                 (A) (A) (A) (A) (A) (A) (A) (A) (A) (A) (A) (A)
                 (A) (A) (A) (A) (A) (A) (A) (A) (A) (A) (A) (A)
                 (A) (A) (A) (A) (A) (A) (A) (A) (A) (A) (A) (A)
                 (A) (A) (A) (A) (A) (A) (A) (A) (A) (A) (A) (A)
                 (A) (A) (A) (A) (A) (A) (A) (A) (A) (A) (A) (A)
                 (A) (A) (A) (A) (A) (A) (A) (A) (A) (A) (A) (A)
                 (A) (A) (A) (A) (A) (A) (A) (A) (A) (A) (A) (A)
                 (A) (A) (A) (A) (A) (A) (A) (A) (A) (A) (A) (A)
                 (A) (A) (A) (A) (A) (A) (A) (A) (A) (A) (A) (A)
                 (A) (A) (A) (A) (A) (A) (A) (A) (A) (A) (A) (A)
                 (A) (A) (A) (A) (A) (A) (A) (A) (A) (A) (A) (A)
                 (A) (A) (A) (A) (A) (A) (A) (A) (A) (A) (A)
 The electronic state is 1-A.
 Alpha  occ. eigenvalues -- -511.65513 -67.17994 -60.85191 -60.85188 -60.85187
 Alpha  occ. eigenvalues --  -10.08107  -7.79670  -7.79669  -7.79669  -3.62633
 Alpha  occ. eigenvalues --   -3.62633  -3.62633  -3.62632  -3.62632  -1.17384
 Alpha  occ. eigenvalues --   -0.55371  -0.55367  -0.55364
 Alpha virt. eigenvalues --    0.02685   0.04783   0.07907   0.08698   0.11435
 Alpha virt. eigenvalues --    0.11945   0.12967   0.13141   0.15714   0.16785
 Alpha virt. eigenvalues --    0.17519   0.19137   0.20387   0.25646   0.26866
 Alpha virt. eigenvalues --    0.27543   0.28643   0.31111   0.33334   0.34809
 Alpha virt. eigenvalues --    0.35713   0.37410   0.38520   0.40038   0.41165
 Alpha virt. eigenvalues --    0.41671   0.44079   0.54217   0.55779   0.59323
 Alpha virt. eigenvalues --    0.60072   0.66225   0.68746   0.69075   0.71984
 Alpha virt. eigenvalues --    0.74017   0.76363   0.78087   0.79736   0.81694
 Alpha virt. eigenvalues --    0.81879   0.83650   0.84955   0.86795   0.88372
 Alpha virt. eigenvalues --    0.89166   0.89621   0.91146   0.92476   0.97001
 Alpha virt. eigenvalues --    0.97723   0.99420   1.01257   1.01855   1.03840
 Alpha virt. eigenvalues --    1.06479   1.08652   1.11565   1.14484   1.17291
 Alpha virt. eigenvalues --    1.19418   1.22374   1.25339   1.31103   1.32578
 Alpha virt. eigenvalues --    1.34978   1.39413   1.46478   1.48948   1.50728
 Alpha virt. eigenvalues --    1.55117   1.57498   1.63045   1.71466   1.76139
 Alpha virt. eigenvalues --    1.81535   1.81928   1.87268   1.97010   2.25012
 Alpha virt. eigenvalues --    2.29390   2.32120   2.33135   2.34175   2.36189
 Alpha virt. eigenvalues --    2.38347   2.40921   2.43029   2.46284   2.46929
 Alpha virt. eigenvalues --    2.48083   2.50370   2.52095   2.54629   2.56801
 Alpha virt. eigenvalues --    2.58640   2.62069   2.64318   2.65664   2.66436
 Alpha virt. eigenvalues --    2.67708   2.71184   2.75610   2.76952   2.78474
 Alpha virt. eigenvalues --    2.80679   2.85287   2.87691   2.90341   2.92859
 Alpha virt. eigenvalues --    2.99369   3.02534   3.05535   3.08934   3.18074
 Alpha virt. eigenvalues --    3.19419   3.29083   3.29674   3.39065   3.45305
 Alpha virt. eigenvalues --    3.60690   3.65419   3.81135   3.85852   4.02824
 Alpha virt. eigenvalues --    4.42297   4.46067   4.54809   4.58646   4.67223
 Alpha virt. eigenvalues --    4.72741   4.86118   4.86647   4.96657   5.05505
 Alpha virt. eigenvalues --    5.11361   5.27362   5.56231   5.66487   5.84157
 Alpha virt. eigenvalues --    5.87616   5.95858   6.14282   6.78292   6.81330
 Alpha virt. eigenvalues --    7.37519   7.47925   7.53661   7.63511   7.73248
 Alpha virt. eigenvalues --    7.78931   7.95358   8.15442   8.16855   8.21188
 Alpha virt. eigenvalues --    8.36335   8.50688   8.56338   8.87248   9.61953
 Alpha virt. eigenvalues --    9.75170   9.83195   9.85496   9.93437   9.98215
 Alpha virt. eigenvalues --   10.15452  10.25822  10.45474  10.95278  11.54222
 Alpha virt. eigenvalues --   11.61458  11.80924  12.02786  12.08524  13.18899
 Alpha virt. eigenvalues --   13.70328  14.50882  62.82341  64.67734
          Condensed to atoms (all electrons):
              1          2          3          4          5
     1  O    0.001287  -0.001608  -0.000568   0.001096  -0.006508
     2  O   -0.001608   0.005701   0.000564  -0.004114  -0.003145
     3  H   -0.000568   0.000564   0.000490  -0.000300  -0.002564
     4  H    0.001096  -0.004114  -0.000300   0.004201  -0.020775
     5  Kr  -0.006508  -0.003145  -0.002564  -0.020775  36.064164
 Mulliken atomic charges:
              1
     1  O    0.006301
     2  O    0.002602
     3  H    0.002378
     4  H    0.019891
     5  Kr  -0.031172
 Sum of Mulliken atomic charges =   0.00000
 Mulliken charges with hydrogens summed into heavy atoms:
              1
     1  O    0.008678
     2  O    0.022493
     5  Kr  -0.031172
 Sum of Mulliken charges with hydrogens summed into heavy atoms =   0.00000
          Condensed to fragments (all electrons):
     1       0.031172
     2      -0.031172
 Electronic spatial extent (au):  <R**2>=            161.9820
 Charge=              0.0000 electrons
 Dipole moment (field-independent basis, Debye):
    X=              0.0015    Y=              0.0006    Z=              0.0002  Tot=              0.0017
 Quadrupole moment (field-independent basis, Debye-Ang):
   XX=            -17.5614   YY=            -17.5741   ZZ=            -17.5822
   XY=              0.0028   XZ=              0.0021   YZ=             -0.0009
 Traceless Quadrupole moment (field-independent basis, Debye-Ang):
   XX=              0.0111   YY=             -0.0015   ZZ=             -0.0096
   XY=              0.0028   XZ=              0.0021   YZ=             -0.0009
 Octapole moment (field-independent basis, Debye-Ang**2):
  XXX=             51.4861  YYY=              0.3397  ZZZ=              0.1345  XYY=             17.1767
  XXY=              0.1064  XXZ=              0.0414  XZZ=             17.1815  YZZ=              0.1133
  YYZ=              0.0453  XYZ=              0.0002
 Hexadecapole moment (field-independent basis, Debye-Ang**3):
 XXXX=           -118.6737 YYYY=            -18.0856 ZZZZ=            -18.1118 XXXY=             -0.3178
 XXXZ=             -0.1240 YYYX=             -0.3203 YYYZ=             -0.0013 ZZZX=             -0.1276
 ZZZY=             -0.0013 XXYY=            -22.8054 XXZZ=            -22.8123 YYZZ=             -6.0317
 XXYZ=             -0.0017 YYXZ=             -0.0422 ZZXY=             -0.1063
 N-N= 0.000000000000D+00 E-N=-6.579420901432D+03  KE= 2.749633409650D+03
 No NMR shielding tensors so no spin-rotation constants.
 Leave Link  601 at Mon May 11 12:57:39 2020, MaxMem= 1073741824 cpu:       0.7
 (Enter /home/matheus/.gaussian/g09/l122.exe)
 Counterpoise: doing MCBS calculation for fragment   1
 Leave Link  122 at Mon May 11 12:57:39 2020, MaxMem= 1073741824 cpu:       0.0
 (Enter /home/matheus/.gaussian/g09/l301.exe)
 Basis read from rwf:  (5D, 7F)
 No pseudopotential information found on rwf file.
 There are   138 symmetry adapted basis functions of A   symmetry.
 Integral buffers will be    131072 words long.
 Raffenetti 2 integral format.
 Two-electron integral symmetry is turned on.
   138 basis functions,   198 primitive gaussians,   160 cartesian basis functions
     9 alpha electrons        9 beta electrons
       nuclear repulsion energy        36.6380791177 Hartrees.
 IExCor=10402 DFT=T Ex=LC-B+HF Corr=LYP ExCW=0 ScaHFX=  1.000000
 ScaDFX=  1.000000  1.000000  1.000000  1.000000 ScalE2=  1.000000  1.000000
 IRadAn=      5 IRanWt=     -1 IRanGd=            0 ICorTp=0
  HFx wShort=  0.000000 wLong=  1.350000 cFull=  0.000000 cShort=  0.000000 cLong=  1.000000
  DFx wShort=  0.000000 wLong=  1.350000 cFull=  0.000000 cShort=  0.000000 cLong=  1.000000
 NAtoms=    5 NActive=    4 NUniq=    4 SFac= 1.00D+00 NAtFMM=   60 NAOKFM=F Big=F
 No density basis found on file   718.
 Leave Link  301 at Mon May 11 12:57:39 2020, MaxMem= 1073741824 cpu:       0.2
 (Enter /home/matheus/.gaussian/g09/l302.exe)
 NPDir=0 NMtPBC=     1 NCelOv=     1 NCel=       1 NClECP=     1 NCelD=      1
         NCelK=      1 NCelE2=     1 NClLst=     1 CellRange=     0.0.
 One-electron integrals computed using PRISM.
 NBasis=   138 RedAO= T  NBF=   138
 NBsUse=   138 1.00D-06 NBFU=   138
 Precomputing XC quadrature grid using
 IXCGrd= 2 IRadAn=           5 IRanWt=          -1 IRanGd=           0 AccXCQ= 0.00D+00.
 NRdTot=     344 NPtTot=       92556 NUsed=       95038 NTot=       95070
 NSgBfM=   160   160   160   160   160 NAtAll=     4     4.
[...]
 Coeff-Com: -0.921D-02 0.101D+01
 Coeff:     -0.921D-02 0.101D+01
 Gap=     0.580 Goal=   None    Shift=    0.000
 RMSDP=1.72D-06 MaxDP=6.81D-05 DE=-7.14D-07 OVMax= 5.23D-05

 Cycle   3  Pass 1  IDiag  1:
 RMSU=  5.83D-07    CP:  1.00D+00  1.10D+00
 FoFJK:  IHMeth= 1 ICntrl=     0 DoSepK=T KAlg= 1 I1Cent= 0 FoldK=F
 E= -2753.40937597912     Delta-E=       -0.000000008708 Rises=F Damp=F
 DIIS: error= 7.68D-07 at cycle   3 NSaved=   3.
 NSaved= 3 IEnMin= 3 EnMin= -2753.40937597912     IErMin= 3 ErrMin= 7.68D-07
 ErrMax= 7.68D-07 EMaxC= 1.00D-01 BMatC= 1.08D-10 BMatP= 4.71D-09
 IDIUse=1 WtCom= 1.00D+00 WtEn= 0.00D+00
 Coeff-Com:  0.496D-03-0.138D+00 0.114D+01
 Coeff:      0.496D-03-0.138D+00 0.114D+01
 Gap=     0.580 Goal=   None    Shift=    0.000
 RMSDP=2.33D-07 MaxDP=1.11D-05 DE=-8.71D-09 OVMax= 1.03D-05

 Cycle   4  Pass 1  IDiag  1:
 RMSU=  5.26D-08    CP:  1.00D+00  1.10D+00  1.20D+00
 FoFJK:  IHMeth= 1 ICntrl=     0 DoSepK=T KAlg= 1 I1Cent= 0 FoldK=F
 E= -2753.40937597946     Delta-E=       -0.000000000334 Rises=F Damp=F
 DIIS: error= 1.76D-07 at cycle   4 NSaved=   4.
 NSaved= 4 IEnMin= 4 EnMin= -2753.40937597946     IErMin= 4 ErrMin= 1.76D-07
 ErrMax= 1.76D-07 EMaxC= 1.00D-01 BMatC= 4.51D-12 BMatP= 1.08D-10
 IDIUse=1 WtCom= 1.00D+00 WtEn= 0.00D+00
 Coeff-Com:  0.169D-03-0.306D-01 0.172D+00 0.858D+00
 Coeff:      0.169D-03-0.306D-01 0.172D+00 0.858D+00
 Gap=     0.580 Goal=   None    Shift=    0.000
 RMSDP=1.76D-08 MaxDP=7.54D-07 DE=-3.34D-10 OVMax= 8.39D-07

 Cycle   5  Pass 1  IDiag  1:
 RMSU=  6.19D-09    CP:  1.00D+00  1.10D+00  1.21D+00  1.15D+00
 FoFJK:  IHMeth= 1 ICntrl=     0 DoSepK=T KAlg= 1 I1Cent= 0 FoldK=F
 E= -2753.40937597949     Delta-E=       -0.000000000034 Rises=F Damp=F
 DIIS: error= 4.16D-08 at cycle   5 NSaved=   5.
 NSaved= 5 IEnMin= 5 EnMin= -2753.40937597949     IErMin= 5 ErrMin= 4.16D-08
 ErrMax= 4.16D-08 EMaxC= 1.00D-01 BMatC= 3.23D-13 BMatP= 4.51D-12
 IDIUse=1 WtCom= 1.00D+00 WtEn= 0.00D+00
 Coeff-Com: -0.321D-04 0.890D-02-0.754D-01 0.310D-01 0.104D+01
 Coeff:     -0.321D-04 0.890D-02-0.754D-01 0.310D-01 0.104D+01
 Gap=     0.580 Goal=   None    Shift=    0.000
 RMSDP=6.79D-09 MaxDP=3.61D-07 DE=-3.37D-11 OVMax= 4.18D-07

 SCF Done:  E(RLC-B+HF-LYP) =  -2753.40937598     A.U. after    5 cycles
             Convg  =    0.6793D-08             -V/T =  2.0014
 KE= 2.749687873105D+03 PE=-6.579480771560D+03 EE= 1.076383522476D+03
 Leave Link  502 at Mon May 11 13:20:47 2020, MaxMem= 1073741824 cpu:      99.9
 (Enter /home/matheus/.gaussian/g09/l122.exe)
 Restoring MOs from calculation   4 to rwf.
 Counterpoise: doing MCBS calculation for fragment   1
 Leave Link  122 at Mon May 11 13:20:47 2020, MaxMem= 1073741824 cpu:       0.0
 (Enter /home/matheus/.gaussian/g09/l301.exe)
 Basis read from rwf:  (5D, 7F)
 No pseudopotential information found on rwf file.
 There are   138 symmetry adapted basis functions of A   symmetry.
 Integral buffers will be    131072 words long.
 Raffenetti 2 integral format.
 Two-electron integral symmetry is turned on.
   138 basis functions,   198 primitive gaussians,   160 cartesian basis functions
     9 alpha electrons        9 beta electrons
       nuclear repulsion energy        36.6380791177 Hartrees.
 IExCor=10402 DFT=T Ex=LC-B+HF Corr=LYP ExCW=0 ScaHFX=  1.000000
 ScaDFX=  1.000000  1.000000  1.000000  1.000000 ScalE2=  1.000000  1.000000
 IRadAn=      5 IRanWt=     -1 IRanGd=            0 ICorTp=0
  HFx wShort=  0.000000 wLong=  1.350000 cFull=  0.000000 cShort=  0.000000 cLong=  1.000000
  DFx wShort=  0.000000 wLong=  1.350000 cFull=  0.000000 cShort=  0.000000 cLong=  1.000000
 NAtoms=    5 NActive=    4 NUniq=    4 SFac= 1.00D+00 NAtFMM=   60 NAOKFM=F Big=F
 No density basis found on file   718.
 Leave Link  301 at Mon May 11 13:20:47 2020, MaxMem= 1073741824 cpu:       0.2
 (Enter /home/matheus/.gaussian/g09/l302.exe)
 NPDir=0 NMtPBC=     1 NCelOv=     1 NCel=       1 NClECP=     1 NCelD=      1
         NCelK=      1 NCelE2=     1 NClLst=     1 CellRange=     0.0.
 One-electron integrals computed using PRISM.
 NBasis=   138 RedAO= T  NBF=   138
 NBsUse=   138 1.00D-06 NBFU=   138
 Precomputing XC quadrature grid using
 IXCGrd= 2 IRadAn=           5 IRanWt=          -1 IRanGd=           0 AccXCQ= 0.00D+00.
 NRdTot=     344 NPtTot=       92556 NUsed=       95038 NTot=       95070
 NSgBfM=   160   160   160   160   160 NAtAll=     4     4.
 Leave Link  302 at Mon May 11 13:20:47 2020, MaxMem= 1073741824 cpu:       0.8
 (Enter /home/matheus/.gaussian/g09/l303.exe)
 DipDrv:  MaxL=1.
 Leave Link  303 at Mon May 11 13:20:47 2020, MaxMem= 1073741824 cpu:       0.2
 (Enter /home/matheus/.gaussian/g09/l401.exe)
 Initial guess read from the read-write file.
 Guess basis will be translated and rotated to current coordinates.
 Initial guess orbital symmetries:
       Occupied  (A) (A) (A) (A) (A) (A) (A) (A) (A)
       Virtual   (A) (A) (A) (A) (A) (A) (A) (A) (A) (A) (A) (A)
                 (A) (A) (A) (A) (A) (A) (A) (A) (A) (A) (A) (A)
                 (A) (A) (A) (A) (A) (A) (A) (A) (A) (A) (A) (A)
                 (A) (A) (A) (A) (A) (A) (A) (A) (A) (A) (A) (A)
                 (A) (A) (A) (A) (A) (A) (A) (A) (A) (A) (A) (A)
                 (A) (A) (A) (A) (A) (A) (A) (A) (A) (A) (A) (A)
                 (A) (A) (A) (A) (A) (A) (A) (A) (A) (A) (A) (A)
                 (A) (A) (A) (A) (A) (A) (A) (A) (A) (A) (A) (A)
                 (A) (A) (A) (A) (A) (A) (A) (A) (A) (A) (A) (A)
                 (A) (A) (A) (A) (A) (A) (A) (A) (A) (A) (A) (A)
                 (A) (A) (A) (A) (A) (A) (A) (A) (A)
 The electronic state of the initial guess is 1-A.
 Generating alternative initial guess.
 Harris functional with IExCor=10402 diagonalized for initial guess.
 ExpMin= 2.53D-02 ExpMax= 1.53D+04 ExpMxC= 5.22D+02 IAcc=3 IRadAn=         5 AccDes= 0.00D+00
 HarFok:  IExCor=10402 AccDes= 0.00D+00 IRadAn=         5 IDoV= 1
 ScaDFX=  1.000000  1.000000  1.000000  1.000000
 FoFCou: FMM=F IPFlag=           0 FMFlag=      100000 FMFlg1=           0
         NFxFlg=           0 DoJE=T BraDBF=F KetDBF=T FulRan=T
         Omega=  0.000000  0.000000  1.000000  0.000000  0.000000 ICntrl=     500 IOpCl=  0
         NMat0=    1 NMatS0=    1 NMatT0=    0 NMatD0=    1 NMtDS0=    0 NMtDT0=    0
         I1Cent=           4 NGrid=           0.
 Petite list used in FoFCou.
 Harris En= -143.226282249543    
 Leave Link  401 at Mon May 11 13:20:48 2020, MaxMem= 1073741824 cpu:       2.6
 (Enter /home/matheus/.gaussian/g09/l502.exe)
 Closed shell SCF:
 Requested convergence on RMS density matrix=1.00D-08 within 128 cycles.
 Requested convergence on MAX density matrix=1.00D-06.
 Requested convergence on             energy=1.00D-06.
 No special actions if energy rises.
 Using DIIS extrapolation, IDIIS=  1040.
 Integral symmetry usage will be decided dynamically.
        94980 words used for storage of precomputed grid.
 IEnd=      192360 IEndB=      192360 NGot=  1073741824 MDV=  1073591865
 LenX=  1073591865 LenY=  1073565824
 Fock matrices will be formed incrementally for  20 cycles.

 Cycle   1  Pass 1  IDiag  1:
 FoFJK:  IHMeth= 1 ICntrl=     0 DoSepK=T KAlg= 1 I1Cent= 0 FoldK=F
 FoFCou: FMM=F IPFlag=           0 FMFlag=      100000 FMFlg1=           0
         NFxFlg=           0 DoJE=T BraDBF=F KetDBF=F FulRan=T
         Omega=  0.000000  0.000000  1.000000  0.000000  0.000000 ICntrl=     500 IOpCl=  0
         NMat0=    1 NMatS0=    1 NMatT0=    0 NMatD0=    1 NMtDS0=    0 NMtDT0=    0
         I1Cent=           0 NGrid=           0.
 Symmetry not used in FoFCou.
 E= -151.211739752710    
 DIIS: error= 7.06D-06 at cycle   1 NSaved=   1.
 NSaved= 1 IEnMin= 1 EnMin= -151.211739752710     IErMin= 1 ErrMin= 7.06D-06
 ErrMax= 7.06D-06 EMaxC= 1.00D-01 BMatC= 1.40D-08 BMatP= 1.40D-08
 IDIUse=1 WtCom= 1.00D+00 WtEn= 0.00D+00
 Coeff-Com:  0.100D+01
 Coeff:      0.100D+01
 Gap=     0.533 Goal=   None    Shift=    0.000
 RMSDP=7.74D-07 MaxDP=1.78D-05              OVMax= 2.75D-05

 Cycle   2  Pass 1  IDiag  1:
 RMSU=  5.47D-07    CP:  1.00D+00
 FoFJK:  IHMeth= 1 ICntrl=     0 DoSepK=T KAlg= 1 I1Cent= 0 FoldK=F
 E= -151.211739766687     Delta-E=       -0.000000013977 Rises=F Damp=F
 DIIS: error= 1.98D-06 at cycle   2 NSaved=   2.
 NSaved= 2 IEnMin= 2 EnMin= -151.211739766687     IErMin= 2 ErrMin= 1.98D-06
 ErrMax= 1.98D-06 EMaxC= 1.00D-01 BMatC= 7.78D-10 BMatP= 1.40D-08
 IDIUse=1 WtCom= 1.00D+00 WtEn= 0.00D+00
 Coeff-Com: -0.205D+00 0.120D+01
 Coeff:     -0.205D+00 0.120D+01
 Gap=     0.533 Goal=   None    Shift=    0.000
 RMSDP=2.46D-07 MaxDP=7.07D-06 DE=-1.40D-08 OVMax= 1.23D-05

 Cycle   3  Pass 1  IDiag  1:
 RMSU=  8.96D-08    CP:  1.00D+00  1.27D+00
 FoFJK:  IHMeth= 1 ICntrl=     0 DoSepK=T KAlg= 1 I1Cent= 0 FoldK=F
 E= -151.211739768268     Delta-E=       -0.000000001581 Rises=F Damp=F
 DIIS: error= 6.49D-07 at cycle   3 NSaved=   3.
 NSaved= 3 IEnMin= 3 EnMin= -151.211739768268     IErMin= 3 ErrMin= 6.49D-07
 ErrMax= 6.49D-07 EMaxC= 1.00D-01 BMatC= 5.57D-11 BMatP= 7.78D-10
 IDIUse=1 WtCom= 1.00D+00 WtEn= 0.00D+00
 Coeff-Com:  0.297D-01-0.328D+00 0.130D+01
 Coeff:      0.297D-01-0.328D+00 0.130D+01
 Gap=     0.533 Goal=   None    Shift=    0.000
 RMSDP=7.92D-08 MaxDP=1.66D-06 DE=-1.58D-09 OVMax= 5.28D-06

 Cycle   4  Pass 1  IDiag  1:
 RMSU=  2.23D-08    CP:  1.00D+00  1.33D+00  1.45D+00
 FoFJK:  IHMeth= 1 ICntrl=     0 DoSepK=T KAlg= 1 I1Cent= 0 FoldK=F
 E= -151.211739768449     Delta-E=       -0.000000000181 Rises=F Damp=F
 DIIS: error= 2.25D-07 at cycle   4 NSaved=   4.
 NSaved= 4 IEnMin= 4 EnMin= -151.211739768449     IErMin= 4 ErrMin= 2.25D-07
 ErrMax= 2.25D-07 EMaxC= 1.00D-01 BMatC= 7.29D-12 BMatP= 5.57D-11
 IDIUse=1 WtCom= 1.00D+00 WtEn= 0.00D+00
 Coeff-Com:  0.130D-01-0.823D-01-0.408D-01 0.111D+01
 Coeff:      0.130D-01-0.823D-01-0.408D-01 0.111D+01
 Gap=     0.533 Goal=   None    Shift=    0.000
 RMSDP=2.64D-08 MaxDP=5.94D-07 DE=-1.81D-10 OVMax= 2.04D-06

 Cycle   5  Pass 1  IDiag  1:
 RMSU=  9.15D-09    CP:  1.00D+00  1.34D+00  1.57D+00  1.45D+00
 FoFJK:  IHMeth= 1 ICntrl=     0 DoSepK=T KAlg= 1 I1Cent= 0 FoldK=F
 E= -151.211739768471     Delta-E=       -0.000000000022 Rises=F Damp=F
 DIIS: error= 1.42D-07 at cycle   5 NSaved=   5.
 NSaved= 5 IEnMin= 5 EnMin= -151.211739768471     IErMin= 5 ErrMin= 1.42D-07
 ErrMax= 1.42D-07 EMaxC= 1.00D-01 BMatC= 2.16D-12 BMatP= 7.29D-12
 IDIUse=1 WtCom= 1.00D+00 WtEn= 0.00D+00
 Coeff-Com: -0.758D-03 0.278D-01-0.230D+00 0.393D+00 0.810D+00
 Coeff:     -0.758D-03 0.278D-01-0.230D+00 0.393D+00 0.810D+00
 Gap=     0.533 Goal=   None    Shift=    0.000
 RMSDP=1.07D-08 MaxDP=2.46D-07 DE=-2.22D-11 OVMax= 7.56D-07

 Cycle   6  Pass 1  IDiag  1:
 RMSU=  3.86D-09    CP:  1.00D+00  1.34D+00  1.61D+00  1.70D+00  1.05D+00
 FoFJK:  IHMeth= 1 ICntrl=     0 DoSepK=T KAlg= 1 I1Cent= 0 FoldK=F
 E= -151.211739768475     Delta-E=       -0.000000000004 Rises=F Damp=F
 DIIS: error= 3.41D-08 at cycle   6 NSaved=   6.
 NSaved= 6 IEnMin= 6 EnMin= -151.211739768475     IErMin= 6 ErrMin= 3.41D-08
 ErrMax= 3.41D-08 EMaxC= 1.00D-01 BMatC= 2.39D-13 BMatP= 2.16D-12
 IDIUse=1 WtCom= 1.00D+00 WtEn= 0.00D+00
 Coeff-Com: -0.283D-02 0.220D-01-0.218D-01-0.168D+00 0.778D-01 0.109D+01
 Coeff:     -0.283D-02 0.220D-01-0.218D-01-0.168D+00 0.778D-01 0.109D+01
 Gap=     0.533 Goal=   None    Shift=    0.000
 RMSDP=5.67D-09 MaxDP=1.33D-07 DE=-4.21D-12 OVMax= 4.59D-07

 SCF Done:  E(RLC-B+HF-LYP) =  -151.211739768     A.U. after    6 cycles
             Convg  =    0.5670D-08             -V/T =  2.0062
 KE= 1.502742006454D+02 PE=-4.315668920272D+02 EE= 9.344287249561D+01
 Leave Link  502 at Mon May 11 13:20:54 2020, MaxMem= 1073741824 cpu:      48.8
 (Enter /home/matheus/.gaussian/g09/l122.exe)
 Restoring MOs from calculation   5 to rwf.
 Counterpoise: doing MCBS calculation for fragment   2
 Leave Link  122 at Mon May 11 13:20:54 2020, MaxMem= 1073741824 cpu:       0.0
 (Enter /home/matheus/.gaussian/g09/l301.exe)
 Basis read from rwf:  (5D, 7F)
 No pseudopotential information found on rwf file.
 There are    59 symmetry adapted basis functions of A   symmetry.
 Integral buffers will be    131072 words long.
 Raffenetti 2 integral format.
 Two-electron integral symmetry is turned on.
    59 basis functions,   217 primitive gaussians,    69 cartesian basis functions
    18 alpha electrons       18 beta electrons
       nuclear repulsion energy         0.0000000000 Hartrees.
 IExCor=10402 DFT=T Ex=LC-B+HF Corr=LYP ExCW=0 ScaHFX=  1.000000
 ScaDFX=  1.000000  1.000000  1.000000  1.000000 ScalE2=  1.000000  1.000000
 IRadAn=      5 IRanWt=     -1 IRanGd=            0 ICorTp=0
  HFx wShort=  0.000000 wLong=  1.350000 cFull=  0.000000 cShort=  0.000000 cLong=  1.000000
  DFx wShort=  0.000000 wLong=  1.350000 cFull=  0.000000 cShort=  0.000000 cLong=  1.000000
 NAtoms=    5 NActive=    1 NUniq=    1 SFac= 1.00D+00 NAtFMM=   60 NAOKFM=F Big=F
 No density basis found on file   718.
 Leave Link  301 at Mon May 11 13:20:54 2020, MaxMem= 1073741824 cpu:       0.2
 (Enter /home/matheus/.gaussian/g09/l302.exe)
 NPDir=0 NMtPBC=     1 NCelOv=     1 NCel=       1 NClECP=     1 NCelD=      1
         NCelK=      1 NCelE2=     1 NClLst=     1 CellRange=     0.0.
 One-electron integrals computed using PRISM.
 NBasis=    59 RedAO= T  NBF=    59
 NBsUse=    59 1.00D-06 NBFU=    59
 Precomputing XC quadrature grid using
 IXCGrd= 2 IRadAn=           5 IRanWt=          -1 IRanGd=           0 AccXCQ= 0.00D+00.
 NRdTot=      81 NPtTot=       30352 NUsed=       30981 NTot=       31013
 NSgBfM=    69    69    69    69    69 NAtAll=     1     1.
 Leave Link  302 at Mon May 11 13:20:54 2020, MaxMem= 1073741824 cpu:       0.7
 (Enter /home/matheus/.gaussian/g09/l303.exe)
 DipDrv:  MaxL=1.
 Leave Link  303 at Mon May 11 13:20:54 2020, MaxMem= 1073741824 cpu:       0.1
 (Enter /home/matheus/.gaussian/g09/l401.exe)
 Initial guess read from the read-write file.
 Guess basis will be translated and rotated to current coordinates.
 Initial guess orbital symmetries:
       Occupied  (A) (A) (A) (A) (A) (A) (A) (A) (A) (A) (A) (A)
                 (A) (A) (A) (A) (A) (A)
       Virtual   (A) (A) (A) (A) (A) (A) (A) (A) (A) (A) (A) (A)
                 (A) (A) (A) (A) (A) (A) (A) (A) (A) (A) (A) (A)
                 (A) (A) (A) (A) (A) (A) (A) (A) (A) (A) (A) (A)
                 (A) (A) (A) (A) (A)
 The electronic state of the initial guess is 1-A.
 Generating alternative initial guess.
 Harris functional with IExCor=10402 diagonalized for initial guess.
 ExpMin= 4.00D-02 ExpMax= 1.17D+07 ExpMxC= 1.33D+04 IAcc=3 IRadAn=         5 AccDes= 0.00D+00
 HarFok:  IExCor=10402 AccDes= 0.00D+00 IRadAn=         5 IDoV= 1
 ScaDFX=  1.000000  1.000000  1.000000  1.000000
 FoFCou: FMM=F IPFlag=           0 FMFlag=      100000 FMFlg1=           0
         NFxFlg=           0 DoJE=T BraDBF=F KetDBF=T FulRan=T
         Omega=  0.000000  0.000000  1.000000  0.000000  0.000000 ICntrl=     500 IOpCl=  0
         NMat0=    1 NMatS0=    1 NMatT0=    0 NMatD0=    1 NMtDS0=    0 NMtDT0=    0
         I1Cent=           4 NGrid=           0.
 Petite list used in FoFCou.
 Harris En= -2731.73388500824    
 Leave Link  401 at Mon May 11 13:20:54 2020, MaxMem= 1073741824 cpu:       1.0
 (Enter /home/matheus/.gaussian/g09/l502.exe)
 Closed shell SCF:
 Requested convergence on RMS density matrix=1.00D-08 within 128 cycles.
 Requested convergence on MAX density matrix=1.00D-06.
 Requested convergence on             energy=1.00D-06.
 No special actions if energy rises.
 Using DIIS extrapolation, IDIIS=  1040.
 Integral symmetry usage will be decided dynamically.
        30923 words used for storage of precomputed grid.
 IEnd=       64406 IEndB=       64406 NGot=  1073741824 MDV=  1073698889
 LenX=  1073698889 LenY=  1073693687
 Fock matrices will be formed incrementally for  20 cycles.

 Cycle   1  Pass 1  IDiag  1:
 FoFJK:  IHMeth= 1 ICntrl=     0 DoSepK=T KAlg= 1 I1Cent= 0 FoldK=F
 FoFCou: FMM=F IPFlag=           0 FMFlag=      100000 FMFlg1=           0
         NFxFlg=           0 DoJE=T BraDBF=F KetDBF=F FulRan=T
         Omega=  0.000000  0.000000  1.000000  0.000000  0.000000 ICntrl=     500 IOpCl=  0
         NMat0=    1 NMatS0=    1 NMatT0=    0 NMatD0=    1 NMtDS0=    0 NMtDT0=    0
         I1Cent=           0 NGrid=           0.
 Symmetry not used in FoFCou.
 E= -2753.40934852740    
 DIIS: error= 4.70D-14 at cycle   1 NSaved=   1.
 NSaved= 1 IEnMin= 1 EnMin= -2753.40934852740     IErMin= 1 ErrMin= 4.70D-14
 ErrMax= 4.70D-14 EMaxC= 1.00D-01 BMatC= 1.10D-25 BMatP= 1.10D-25
 IDIUse=1 WtCom= 1.00D+00 WtEn= 0.00D+00
 Coeff-Com:  0.100D+01
 Coeff:      0.100D+01
 Gap=     0.640 Goal=   None    Shift=    0.000
 DSYEVD returned Info=          89 IAlg= 4 N=    59 NDim=    59 NE2=    18198197 trying DSYEV.
 RMSDP=3.74D-15 MaxDP=5.66D-14              OVMax= 1.83D-14

 SCF Done:  E(RLC-B+HF-LYP) =  -2753.40934853     A.U. after    1 cycles
             Convg  =    0.3738D-14             -V/T =  2.0014
 KE= 2.749695852517D+03 PE=-6.579489077514D+03 EE= 1.076383876470D+03
 Leave Link  502 at Mon May 11 13:20:56 2020, MaxMem= 1073741824 cpu:      11.8
 (Enter /home/matheus/.gaussian/g09/l122.exe)
 Restoring MOs from calculation   1 to rwf.
 Counterpoise: corrected energy =   -2904.621179273796
 Counterpoise: BSSE energy =       0.000031053510
 Leave Link  122 at Mon May 11 13:20:56 2020, MaxMem= 1073741824 cpu:       0.0
 (Enter /home/matheus/.gaussian/g09/l108.exe)
 Scan completed.

 Summary of the potential surface scan:
   N      R1          SCF    
 ----  ---------  -----------
    1     3.0000  -2753.40935
    2     3.1000  -2753.40935
    3     3.2000  -2753.40935
    4     3.3000  -2753.40935
    5     3.4000  -2753.40935
    6     3.5000  -2753.40935
    7     3.6000  -2753.40935
    8     3.7000  -2753.40935
    9     3.8000  -2753.40935
   10     3.9000  -2753.40935
   11     4.0000  -2753.40935
   12     4.1000  -2753.40935
   13     4.2000  -2753.40935
   14     4.3000  -2753.40935
   15     4.4000  -2753.40935
   16     4.5000  -2753.40935
   17     4.6000  -2753.40935
   18     4.7000  -2753.40935
   19     4.8000  -2753.40935
   20     4.9000  -2753.40935
   21     5.0000  -2753.40935
 ----  ---------  -----------
  
 Leave Link  108 at Mon May 11 13:20:56 2020, MaxMem= 1073741824 cpu:       0.0
 (Enter /home/matheus/.gaussian/g09/l9999.exe)

 Test job not archived.
 1\1\GINC-REDGIANT\Scan\RLC-BLYP\Aug-CC-pVTZ\H2Kr1O2\MATHEUS\11-May-202
 0\1\\#p lc-blyp/aug-cc-PVTz iop(3/107=1350000000) iop(3/108=1350000000
 ) int=ultrafine counterpoise=2 Scan\\TCC\\0,1\O,0,0.,0.,0.725\O,0,0.,0
 .,-0.725\H,0,0.8633149634,0.3142209495,1.0235104166\H,0,0.,0.918720594
 7,-1.0235104166\Kr,0,0.,R1,0.\\R1=3.,s,20,0.1\\Version=EM64L-G09RevC.0
 1\State=1-A\HF=-2753.4093485,-2753.4093485,-2753.4093485,-2753.4093485
 ,-2753.4093485,-2753.4093485,-2753.4093485,-2753.4093485,-2753.4093485
 ,-2753.4093485,-2753.4093485,-2753.4093485,-2753.4093485,-2753.4093485
 ,-2753.4093485,-2753.4093485,-2753.4093485,-2753.4093485,-2753.4093485
 ,-2753.4093485,-2753.4093485\RMSD=5.461e-09,3.089e-10,7.451e-11,2.035e
 -11,7.199e-12,3.155e-12,1.454e-12,6.831e-13,3.230e-13,1.519e-13,7.413e
 -14,3.728e-14,1.848e-14,1.462e-14,1.126e-14,1.521e-14,1.342e-14,8.481e
 -15,9.582e-15,8.043e-15,3.738e-15\PG=C01 [X(H2Kr1O2)]\\@


 FROM WHENCE IT HAPPENS, THAT THEY WHICH TRUST TO BOOKS, DO AS THEY THAT CAST UP MANY LITTLE SUMMS INTO GREATER,
 WITHOUT CONSIDERING WETHER THOSE LITTLE SUMMES WERE RIGHTLY CAST UP OR NOT...
 AND AT LAST FINDING THE ERROUR VISIBLE, AND NOT MISTRUSTING THEIR FIRST GROUNDS,
 KNOW NOT WHICH WAY TO CLEERE THEMSELVES...
 BUT SPEND TIME IN FLUTTERING OVER THEIR BOOKES....
 AS BIRDS THAT ENTERING BY THE CHIMNEY, AND FINDING THEMSELVES INCLOSED IN A CHAMBER,
 FLUTTER AT THE FALSE LIGHT OF A GLASSE WINDOW,
 FOR WANT OF WIT TO CONSIDER WHICH WAY THEY CAME IN....
           LEVIATHAN
 Job cpu time:  0 days  3 hours 21 minutes 48.1 seconds.
 File lengths (MBytes):  RWF=     33 Int=      0 D2E=      0 Chk=      8 Scr=      1
 Normal termination of Gaussian 09 at Mon May 11 13:20:56 2020.
