 Entering Gaussian System, Link 0=g09
 Input=/home/matheus/.tcc/Inputs-lc-blyp/H2O2-Kr_0.com
 Output=/home/matheus/.tcc/Logs-lc-blyp/H2O2-Kr_0.log
 Initial command:
 /home/matheus/.gaussian/g09/l1.exe /home/matheus/.gaussian/g09/scratch/Gau-12610.inp -scrdir=/home/matheus/.gaussian/g09/scratch/
 Entering Link 1 = /home/matheus/.gaussian/g09/l1.exe PID=     12613.
  
 Copyright (c) 1988,1990,1992,1993,1995,1998,2003,2009,2011,
            Gaussian, Inc.  All Rights Reserved.
  
 This is part of the Gaussian(R) 09 program.  It is based on
 the Gaussian(R) 03 system (copyright 2003, Gaussian, Inc.),
 the Gaussian(R) 98 system (copyright 1998, Gaussian, Inc.),
 the Gaussian(R) 94 system (copyright 1995, Gaussian, Inc.),
 the Gaussian 92(TM) system (copyright 1992, Gaussian, Inc.),
 the Gaussian 90(TM) system (copyright 1990, Gaussian, Inc.),
 the Gaussian 88(TM) system (copyright 1988, Gaussian, Inc.),
 the Gaussian 86(TM) system (copyright 1986, Carnegie Mellon
 University), and the Gaussian 82(TM) system (copyright 1983,
 Carnegie Mellon University). Gaussian is a federally registered
 trademark of Gaussian, Inc.
  
 This software contains proprietary and confidential information,
 including trade secrets, belonging to Gaussian, Inc.
  
 This software is provided under written license and may be
 used, copied, transmitted, or stored only in accord with that
 written license.
  
 The following legend is applicable only to US Government
 contracts under FAR:
  
                    RESTRICTED RIGHTS LEGEND
  
 Use, reproduction and disclosure by the US Government is
 subject to restrictions as set forth in subparagraphs (a)
 and (c) of the Commercial Computer Software - Restricted
 Rights clause in FAR 52.227-19.
  
 Gaussian, Inc.
 340 Quinnipiac St., Bldg. 40, Wallingford CT 06492
  
  
 ---------------------------------------------------------------
 Warning -- This program may not be used in any manner that
 competes with the business of Gaussian, Inc. or will provide
 assistance to any competitor of Gaussian, Inc.  The licensee
 of this program is prohibited from giving any competitor of
 Gaussian, Inc. access to this program.  By using this program,
 the user acknowledges that Gaussian, Inc. is engaged in the
 business of creating and licensing software in the field of
 computational chemistry and represents and warrants to the
 licensee that it is not a competitor of Gaussian, Inc. and that
 it will not use this program in any manner prohibited above.
 ---------------------------------------------------------------
  

 Cite this work as:
 Gaussian 09, Revision C.01,
 M. J. Frisch, G. W. Trucks, H. B. Schlegel, G. E. Scuseria, 
 M. A. Robb, J. R. Cheeseman, G. Scalmani, V. Barone, B. Mennucci, 
 G. A. Petersson, H. Nakatsuji, M. Caricato, X. Li, H. P. Hratchian, 
 A. F. Izmaylov, J. Bloino, G. Zheng, J. L. Sonnenberg, M. Hada, 
 M. Ehara, K. Toyota, R. Fukuda, J. Hasegawa, M. Ishida, T. Nakajima, 
 Y. Honda, O. Kitao, H. Nakai, T. Vreven, J. A. Montgomery, Jr., 
 J. E. Peralta, F. Ogliaro, M. Bearpark, J. J. Heyd, E. Brothers, 
 K. N. Kudin, V. N. Staroverov, T. Keith, R. Kobayashi, J. Normand, 
 K. Raghavachari, A. Rendell, J. C. Burant, S. S. Iyengar, J. Tomasi, 
 M. Cossi, N. Rega, J. M. Millam, M. Klene, J. E. Knox, J. B. Cross, 
 V. Bakken, C. Adamo, J. Jaramillo, R. Gomperts, R. E. Stratmann, 
 O. Yazyev, A. J. Austin, R. Cammi, C. Pomelli, J. W. Ochterski, 
 R. L. Martin, K. Morokuma, V. G. Zakrzewski, G. A. Voth, 
 P. Salvador, J. J. Dannenberg, S. Dapprich, A. D. Daniels, 
 O. Farkas, J. B. Foresman, J. V. Ortiz, J. Cioslowski, 
 and D. J. Fox, Gaussian, Inc., Wallingford CT, 2010.
 
 ******************************************
 Gaussian 09:  EM64L-G09RevC.01 23-Sep-2011
                 6-May-2020 
 ******************************************
 %mem=8GB
 %nproc=8
 Will use up to    8 processors via shared memory.
 ----------------------------------------------------------------------
 #p lc-blyp/aug-cc-PVTz iop(3/107=1350000000) iop(3/108=1350000000) int
 =ultrafine counterpoise=2 Scan
 ----------------------------------------------------------------------
 1/38=1,60=1,62=2/1,8;
 2/12=2,17=6,18=5,29=3,40=1/2;
 1/38=1,53=5172,62=2/22;
 3/5=16,6=1,7=10,11=2,16=1,25=1,30=1,74=1000402,75=-5,107=1350000000,108=1350000000/1,2,3;
 4//1;
 5/5=2,38=5/2;
 6/7=2,8=2,9=2,10=2,18=1,28=1/1;
 1/53=4052,62=2,63=1/22;
 3/5=7,6=11,7=10,11=2,16=1,25=1,30=1,74=1000402,75=-5,82=7,107=1350000000,108=1350000000/1,2,3;
 4//1;
 5/5=2,38=5/2;
 6/7=2,8=2,9=2,10=2,18=1,28=1/1;
 1/53=3042,62=2,63=2/22;
 3/5=7,6=11,7=10,11=2,16=1,25=1,30=1,74=1000402,75=-5,82=7,107=1350000000,108=1350000000/1,2,3;
 4//1;
 5/5=2,38=5/2;
 6/7=2,8=2,9=2,10=2,18=1,28=1/1;
 1/53=2032,62=2,63=3/22;
 3/5=7,6=11,7=10,11=2,16=1,25=1,30=1,74=1000402,75=-5,82=7,107=1350000000,108=1350000000/1,2,3;
 4//1;
 5/5=2,38=5/2;
 6/7=2,8=2,9=2,10=2,18=1,28=1/1;
 1/53=1022,62=2,63=4/22;
 3/5=7,6=11,7=10,11=2,16=1,25=1,30=1,74=1000402,75=-5,82=7,107=1350000000,108=1350000000/1,2,3;
 4//1;
 5/5=2,38=5/2;
 6/7=2,8=2,9=2,10=2,18=1,28=1/1;
 1/53=5014,62=2,63=5/22;
 1/60=1,62=2/8(1);
 99/9=1/99;
 2/29=3/2;
 1/53=5173,62=2/22;
 3/5=7,6=11,7=10,11=2,16=1,25=1,30=1,74=1000402,75=-5,82=7,107=1350000000,108=1350000000/1,2,3;
 4/5=5,16=3/1;
 5/5=2,38=5/2;
 1/53=4053,62=2,63=1/22;
 3/5=7,6=11,7=10,11=2,16=1,25=1,30=1,74=1000402,75=-5,82=7,107=1350000000,108=1350000000/1,2,3;
 4/5=5,16=3/1;
 5/5=2,38=5/2;
 1/53=3043,62=2,63=2/22;
 3/5=7,6=11,7=10,11=2,16=1,25=1,30=1,74=1000402,75=-5,82=7,107=1350000000,108=1350000000/1,2,3;
 4/5=5,16=3/1;
 5/5=2,38=5/2;
 1/53=2033,62=2,63=3/22;
 3/5=7,6=11,7=10,11=2,16=1,25=1,30=1,74=1000402,75=-5,82=7,107=1350000000,108=1350000000/1,2,3;
 4/5=5,16=3/1;
 5/5=2,38=5/2;
 1/53=1024,62=2,63=4/22;
 3/5=7,6=11,7=10,11=2,16=1,25=1,30=1,74=1000402,75=-5,82=7,107=1350000000,108=1350000000/1,2,3;
 4/5=5,16=3/1;
 5/5=2,38=5/2;
 1/53=5014,62=2,63=5/22;
 1/60=1,62=2/8(-22);
 99/9=1/99;
 Leave Link    1 at Wed May  6 13:11:46 2020, MaxMem= 1073741824 cpu:       0.2
 (Enter /home/matheus/.gaussian/g09/l101.exe)
 ---
 TCC
 ---
 Charge =  0 Multiplicity = 1 in supermolecule
 Charge =  0 Multiplicity = 1 in fragment  1.
 Charge =  0 Multiplicity = 1 in fragment  2.
 Symbolic Z-Matrix:
 O(Fragment=1)         0.        0.        0.725 
 O(Fragment=1)         0.        0.       -0.725 
 H(Fragment=1)         0.        0.91872   1.02351 
 H(Fragment=1)         0.        0.91872  -1.02351 
 Kr(Fragment=2)        0.       R1        0. 
       Variables:
  R1                    3.     Scan 20    0.1    
 
 NAtoms=      5 NQM=        0 NQMF=       0 NMMI=      5 NMMIF=      0
                NMic=       0 NMicF=      0.
                    Isotopes and Nuclear Properties:
 (Nuclear quadrupole moments (NQMom) in fm**2, nuclear magnetic moments (NMagM)
  in nuclear magnetons)

  Atom         1           2           3           4           5
 IAtWgt=          16          16           1           1          84
 AtmWgt=  15.9949146  15.9949146   1.0078250   1.0078250  83.9115064
 NucSpn=           0           0           1           1           0
 AtZEff=   0.0000000   0.0000000   0.0000000   0.0000000   0.0000000
 NQMom=    0.0000000   0.0000000   0.0000000   0.0000000   0.0000000
 NMagM=    0.0000000   0.0000000   2.7928460   2.7928460   0.0000000
 Leave Link  101 at Wed May  6 13:11:46 2020, MaxMem= 1073741824 cpu:       0.5
 (Enter /home/matheus/.gaussian/g09/l108.exe)
 Scan the potential surface.
 Variable   Value     No. Steps Step-Size
 -------- ----------- --------- ---------
     1       3.000000      20      0.1000
 A total of     21 points will be computed.
 Leave Link  108 at Wed May  6 13:11:46 2020, MaxMem= 1073741824 cpu:       0.0
 (Enter /home/matheus/.gaussian/g09/l202.exe)
 ---------------------------------------------------------------------------------------------------
                            Z-MATRIX (ANGSTROMS AND DEGREES)
   CD    Cent   Atom    N1       Length/X        N2       Alpha/Y        N3        Beta/Z          J
 ---------------------------------------------------------------------------------------------------
      1      1  O        0   0.000000          0.000000          0.725000
      2      2  O        0   0.000000          0.000000         -0.725000
      3      3  H        0   0.000000          0.918721          1.023510
      4      4  H        0   0.000000          0.918721         -1.023510
      5      5  Kr       0   0.000000          3.000000          0.000000
 ---------------------------------------------------------------------------------------------------
                         Z-Matrix orientation:                         
 ---------------------------------------------------------------------
 Center     Atomic      Atomic             Coordinates (Angstroms)
 Number     Number       Type             X           Y           Z
 ---------------------------------------------------------------------
      1          8           0        0.000000    0.000000    0.725000
      2          8           0        0.000000    0.000000   -0.725000
      3          1           0        0.000000    0.918721    1.023510
      4          1           0        0.000000    0.918721   -1.023510
      5         36           0        0.000000    3.000000    0.000000
 ---------------------------------------------------------------------
                    Distance matrix (angstroms):
                    1          2          3          4          5
     1  O    0.000000
     2  O    1.450000   0.000000
     3  H    0.966000   1.975180   0.000000
     4  H    1.975180   0.966000   2.047021   0.000000
     5  Kr   3.086361   3.086361   2.319331   2.319331   0.000000
 Stoichiometry    H2KrO2
 Framework group  C2V[C2(Kr),SGV(H2O2)]
 Deg. of freedom     4
 Full point group                 C2V     NOp   4
 Largest Abelian subgroup         C2V     NOp   4
 Largest concise Abelian subgroup C2      NOp   2
                         Standard orientation:                         
 ---------------------------------------------------------------------
 Center     Atomic      Atomic             Coordinates (Angstroms)
 Number     Number       Type             X           Y           Z
 ---------------------------------------------------------------------
      1          8           0        0.000000    0.725000   -2.034027
      2          8           0        0.000000   -0.725000   -2.034027
      3          1           0        0.000000    1.023510   -1.115306
      4          1           0        0.000000   -1.023510   -1.115306
      5         36           0        0.000000    0.000000    0.965973
 ---------------------------------------------------------------------
 Rotational constants (GHZ):     26.7026195      2.3888795      2.1927141
 Leave Link  202 at Wed May  6 13:11:46 2020, MaxMem= 1073741824 cpu:       0.1
 (Enter /home/matheus/.gaussian/g09/l122.exe)
 Leave Link  122 at Wed May  6 13:11:46 2020, MaxMem= 1073741824 cpu:       0.0
 (Enter /home/matheus/.gaussian/g09/l301.exe)
 Standard basis: Aug-CC-pVTZ (5D, 7F)
 Ernie: Thresh=  0.10000D-02 Tol=  0.10000D-05 Strict=F.
 Ernie:  38 primitive shells out of 205 were deleted.
 There are    71 symmetry adapted basis functions of A1  symmetry.
 There are    29 symmetry adapted basis functions of A2  symmetry.
 There are    37 symmetry adapted basis functions of B1  symmetry.
 There are    60 symmetry adapted basis functions of B2  symmetry.
 Integral buffers will be    131072 words long.
 Raffenetti 2 integral format.
 Two-electron integral symmetry is turned on.
   197 basis functions,   415 primitive gaussians,   229 cartesian basis functions
    27 alpha electrons       27 beta electrons
       nuclear repulsion energy       151.8532718296 Hartrees.
 IExCor=10402 DFT=T Ex=LC-B+HF Corr=LYP ExCW=0 ScaHFX=  1.000000
 ScaDFX=  1.000000  1.000000  1.000000  1.000000 ScalE2=  1.000000  1.000000
 IRadAn=      5 IRanWt=     -1 IRanGd=            0 ICorTp=0
  HFx wShort=  0.000000 wLong=  1.350000 cFull=  0.000000 cShort=  0.000000 cLong=  1.000000
  DFx wShort=  0.000000 wLong=  1.350000 cFull=  0.000000 cShort=  0.000000 cLong=  1.000000
 NAtoms=    5 NActive=    5 NUniq=    3 SFac= 2.78D+00 NAtFMM=   60 NAOKFM=F Big=F
 Leave Link  301 at Wed May  6 13:11:46 2020, MaxMem= 1073741824 cpu:       0.3
 (Enter /home/matheus/.gaussian/g09/l302.exe)
 NPDir=0 NMtPBC=     1 NCelOv=     1 NCel=       1 NClECP=     1 NCelD=      1
         NCelK=      1 NCelE2=     1 NClLst=     1 CellRange=     0.0.
 One-electron integrals computed using PRISM.
 One-electron integral symmetry used in STVInt
 NBasis=   197 RedAO= T  NBF=    71    29    37    60
 NBsUse=   197 1.00D-06 NBFU=    71    29    37    60
 Precomputing XC quadrature grid using
 IXCGrd= 2 IRadAn=           5 IRanWt=          -1 IRanGd=           0 AccXCQ= 0.00D+00.
 NRdTot=     427 NPtTot=      123512 NUsed=      126579 NTot=      126611
 NSgBfM=   229   229   229   229   229 NAtAll=     5     5.
 Leave Link  302 at Wed May  6 13:11:47 2020, MaxMem= 1073741824 cpu:       1.2
 (Enter /home/matheus/.gaussian/g09/l303.exe)
 DipDrv:  MaxL=1.
 Leave Link  303 at Wed May  6 13:11:47 2020, MaxMem= 1073741824 cpu:       0.6
 (Enter /home/matheus/.gaussian/g09/l401.exe)
 Harris functional with IExCor=10402 diagonalized for initial guess.
 ExpMin= 2.53D-02 ExpMax= 1.17D+07 ExpMxC= 1.33D+04 IAcc=3 IRadAn=         5 AccDes= 0.00D+00
 HarFok:  IExCor=10402 AccDes= 0.00D+00 IRadAn=         5 IDoV= 1
 ScaDFX=  1.000000  1.000000  1.000000  1.000000
 FoFCou: FMM=F IPFlag=           0 FMFlag=      100000 FMFlg1=           0
         NFxFlg=           0 DoJE=T BraDBF=F KetDBF=T FulRan=T
         Omega=  0.000000  0.000000  1.000000  0.000000  0.000000 ICntrl=     500 IOpCl=  0
         NMat0=    1 NMatS0=    1 NMatT0=    0 NMatD0=    1 NMtDS0=    0 NMtDT0=    0
         I1Cent=           4 NGrid=           0.
 Petite list used in FoFCou.
 Harris En= -2874.90578200191    
 Initial guess orbital symmetries:
       Occupied  (A1) (A1) (A1) (B2) (B1) (B2) (A1) (A1) (A1) (B2)
                 (B1) (A1) (B2) (B1) (A1) (A2) (A1) (A1) (B2) (A1)
                 (B2) (B1) (A1) (A1) (B1) (B2) (A1)
       Virtual   (B2) (A1) (B1) (A2) (B2) (A1) (B2) (A1) (B1) (B2)
                 (A1) (A2) (A1) (A1) (B1) (A2) (B2) (B2) (B2) (A1)
                 (A1) (B1) (A2) (A1) (B2) (B2) (B2) (A1) (A1) (B1)
                 (A1) (B1) (B2) (B2) (A1) (B1) (A1) (A2) (B1) (A2)
                 (A1) (B2) (A1) (B2) (A1) (B2) (A2) (B1) (A1) (B1)
                 (A2) (B2) (B2) (A1) (B1) (A1) (B2) (A1) (A2) (B1)
                 (B2) (A2) (A1) (B2) (A1) (B2) (A1) (B1) (A2) (B2)
                 (B1) (A1) (A2) (A1) (B2) (B2) (A1) (B1) (A1) (B2)
                 (B1) (A1) (A2) (A1) (B1) (A1) (B2) (B1) (B2) (A2)
                 (B2) (A1) (A1) (A1) (A2) (B1) (B2) (A1) (B2) (B1)
                 (B1) (B2) (A1) (A2) (B1) (B2) (A2) (B1) (A2) (A1)
                 (B2) (A1) (B2) (A1) (A1) (B2) (A2) (B2) (B2) (A1)
                 (B2) (B1) (B1) (A1) (A2) (B1) (A2) (A1) (B2) (A2)
                 (A1) (A1) (B2) (B2) (A1) (A1) (B1) (A1) (B2) (A2)
                 (B2) (B2) (A1) (B1) (B2) (A1) (B1) (A1) (A2) (B2)
                 (A1) (B1) (A2) (A1) (B1) (B1) (B2) (A2) (A2) (B2)
                 (A1) (A2) (A1) (B2) (B2) (A1) (B2) (B2) (A1) (B2)
 The electronic state of the initial guess is 1-A1.
 Leave Link  401 at Wed May  6 13:11:47 2020, MaxMem= 1073741824 cpu:       2.3
 (Enter /home/matheus/.gaussian/g09/l502.exe)
 Closed shell SCF:
 Requested convergence on RMS density matrix=1.00D-08 within 128 cycles.
 Requested convergence on MAX density matrix=1.00D-06.
 Requested convergence on             energy=1.00D-06.
 No special actions if energy rises.
 Using DIIS extrapolation, IDIIS=  1040.
 Integral symmetry usage will be decided dynamically.
       126521 words used for storage of precomputed grid.
 IEnd=      305860 IEndB=      305860 NGot=  1073741824 MDV=  1073505275
 LenX=  1073505275 LenY=  1073452393
 Fock matrices will be formed incrementally for  20 cycles.

 Cycle   1  Pass 1  IDiag  1:
 FoFJK:  IHMeth= 1 ICntrl=     0 DoSepK=T KAlg= 1 I1Cent= 0 FoldK=F
 FoFCou: FMM=F IPFlag=           0 FMFlag=      100000 FMFlg1=           0
         NFxFlg=           0 DoJE=T BraDBF=F KetDBF=F FulRan=T
         Omega=  0.000000  0.000000  1.000000  0.000000  0.000000 ICntrl=     500 IOpCl=  0
         NMat0=    1 NMatS0=    1 NMatT0=    0 NMatD0=    1 NMtDS0=    0 NMtDT0=    0
         I1Cent=           0 NGrid=           0.
 Petite list used in FoFCou.
 E= -2900.81387410736    
 DIIS: error= 1.14D-01 at cycle   1 NSaved=   1.
 NSaved= 1 IEnMin= 1 EnMin= -2900.81387410736     IErMin= 1 ErrMin= 1.14D-01
 ErrMax= 1.14D-01 EMaxC= 1.00D-01 BMatC= 3.40D+00 BMatP= 3.40D+00
 IDIUse=3 WtCom= 0.00D+00 WtEn= 1.00D+00
 Coeff-Com:  0.100D+01
 Coeff-En:   0.100D+01
 Coeff:      0.100D+01
 Gap=     0.191 Goal=   None    Shift=    0.000
 GapD=    0.191 DampG=1.000 DampE=0.250 DampFc=0.2500 IDamp=-1.
 Damping current iteration by 2.50D-01
 RMSDP=5.37D-02 MaxDP=2.11D+00              OVMax= 9.93D-01

 Cycle   2  Pass 1  IDiag  1:
 RMSU=  4.20D-03    CP:  7.93D-01
 FoFJK:  IHMeth= 1 ICntrl=     0 DoSepK=T KAlg= 1 I1Cent= 0 FoldK=F
 E= -2902.02814151431     Delta-E=       -1.214267406943 Rises=F Damp=T
 DIIS: error= 5.77D-02 at cycle   2 NSaved=   2.
 NSaved= 2 IEnMin= 2 EnMin= -2902.02814151431     IErMin= 2 ErrMin= 5.77D-02
 ErrMax= 5.77D-02 EMaxC= 1.00D-01 BMatC= 9.60D-01 BMatP= 3.40D+00
 IDIUse=3 WtCom= 4.23D-01 WtEn= 5.77D-01
 Coeff-Com: -0.788D+00 0.179D+01
 Coeff-En:   0.000D+00 0.100D+01
 Coeff:     -0.333D+00 0.133D+01
 Gap=    -0.684 Goal=   None    Shift=    0.000
 RMSDP=4.01D-02 MaxDP=1.58D+00 DE=-1.21D+00 OVMax= 9.76D-01

 Cycle   3  Pass 1  IDiag  1:
 RMSU=  5.63D-03    CP:  1.76D-01  3.00D+00
 FoFJK:  IHMeth= 1 ICntrl=     0 DoSepK=T KAlg= 1 I1Cent= 0 FoldK=F
 E= -2904.42596419839     Delta-E=       -2.397822684079 Rises=F Damp=F
 DIIS: error= 3.34D-02 at cycle   3 NSaved=   3.
 NSaved= 3 IEnMin= 3 EnMin= -2904.42596419839     IErMin= 3 ErrMin= 3.34D-02
 ErrMax= 3.34D-02 EMaxC= 1.00D-01 BMatC= 3.33D-01 BMatP= 9.60D-01
 IDIUse=3 WtCom= 6.66D-01 WtEn= 3.34D-01
 Coeff-Com: -0.645D-01 0.451D+00 0.614D+00
 Coeff-En:   0.000D+00 0.000D+00 0.100D+01
 Coeff:     -0.430D-01 0.300D+00 0.743D+00
 Gap=     0.487 Goal=   None    Shift=    0.000
 RMSDP=2.15D-03 MaxDP=9.06D-02 DE=-2.40D+00 OVMax= 7.31D-02

 Cycle   4  Pass 1  IDiag  1:
 RMSU=  1.51D-03    CP:  1.74D-01  3.00D+00  9.71D-01
 FoFJK:  IHMeth= 1 ICntrl=     0 DoSepK=T KAlg= 1 I1Cent= 0 FoldK=F
 E= -2904.60536412286     Delta-E=       -0.179399924470 Rises=F Damp=F
 DIIS: error= 6.01D-03 at cycle   4 NSaved=   4.
 NSaved= 4 IEnMin= 4 EnMin= -2904.60536412286     IErMin= 4 ErrMin= 6.01D-03
 ErrMax= 6.01D-03 EMaxC= 1.00D-01 BMatC= 8.69D-03 BMatP= 3.33D-01
 IDIUse=3 WtCom= 9.40D-01 WtEn= 6.01D-02
 Coeff-Com: -0.122D-01 0.299D-01 0.952D-01 0.887D+00
 Coeff-En:   0.000D+00 0.000D+00 0.000D+00 0.100D+01
 Coeff:     -0.115D-01 0.281D-01 0.895D-01 0.894D+00
 Gap=     0.491 Goal=   None    Shift=    0.000
 RMSDP=5.16D-04 MaxDP=2.15D-02 DE=-1.79D-01 OVMax= 1.61D-02

 Cycle   5  Pass 1  IDiag  1:
 RMSU=  3.59D-04    CP:  1.73D-01  3.00D+00  9.77D-01  1.03D+00
 FoFJK:  IHMeth= 1 ICntrl=     0 DoSepK=T KAlg= 1 I1Cent= 0 FoldK=F
 E= -2904.60972704282     Delta-E=       -0.004362919963 Rises=F Damp=F
 DIIS: error= 1.37D-03 at cycle   5 NSaved=   5.
 NSaved= 5 IEnMin= 5 EnMin= -2904.60972704282     IErMin= 5 ErrMin= 1.37D-03
 ErrMax= 1.37D-03 EMaxC= 1.00D-01 BMatC= 2.98D-04 BMatP= 8.69D-03
 IDIUse=3 WtCom= 9.86D-01 WtEn= 1.37D-02
 Coeff-Com: -0.147D-01 0.237D-01-0.723D-02-0.102D-01 0.101D+01
 Coeff-En:   0.000D+00 0.000D+00 0.000D+00 0.000D+00 0.100D+01
 Coeff:     -0.145D-01 0.233D-01-0.713D-02-0.100D-01 0.101D+01
 Gap=     0.503 Goal=   None    Shift=    0.000
 RMSDP=1.08D-04 MaxDP=2.02D-03 DE=-4.36D-03 OVMax= 6.28D-03

 Cycle   6  Pass 1  IDiag  1:
 RMSU=  6.48D-05    CP:  1.73D-01  3.00D+00  9.78D-01  1.05D+00  1.08D+00
 FoFJK:  IHMeth= 1 ICntrl=     0 DoSepK=T KAlg= 1 I1Cent= 0 FoldK=F
 E= -2904.61004684662     Delta-E=       -0.000319803806 Rises=F Damp=F
 DIIS: error= 4.71D-04 at cycle   6 NSaved=   6.
 NSaved= 6 IEnMin= 6 EnMin= -2904.61004684662     IErMin= 6 ErrMin= 4.71D-04
 ErrMax= 4.71D-04 EMaxC= 1.00D-01 BMatC= 3.03D-05 BMatP= 2.98D-04
 IDIUse=3 WtCom= 9.95D-01 WtEn= 4.71D-03
 Coeff-Com: -0.396D-02 0.617D-02-0.730D-02-0.266D-01-0.896D-01 0.112D+01
 Coeff-En:   0.000D+00 0.000D+00 0.000D+00 0.000D+00 0.000D+00 0.100D+01
 Coeff:     -0.395D-02 0.615D-02-0.727D-02-0.265D-01-0.892D-01 0.112D+01
 Gap=     0.506 Goal=   None    Shift=    0.000
 RMSDP=3.44D-05 MaxDP=1.12D-03 DE=-3.20D-04 OVMax= 2.62D-03

 Cycle   7  Pass 1  IDiag  1:
 RMSU=  1.29D-05    CP:  1.73D-01  3.00D+00  9.78D-01  1.06D+00  1.13D+00
                    CP:  1.12D+00
 FoFJK:  IHMeth= 1 ICntrl=     0 DoSepK=T KAlg= 1 I1Cent= 0 FoldK=F
 E= -2904.61009295902     Delta-E=       -0.000046112392 Rises=F Damp=F
 DIIS: error= 1.25D-04 at cycle   7 NSaved=   7.
 NSaved= 7 IEnMin= 7 EnMin= -2904.61009295902     IErMin= 7 ErrMin= 1.25D-04
 ErrMax= 1.25D-04 EMaxC= 1.00D-01 BMatC= 1.57D-06 BMatP= 3.03D-05
 IDIUse=3 WtCom= 9.99D-01 WtEn= 1.25D-03
 Coeff-Com:  0.305D-03-0.624D-03-0.107D-02-0.218D-02-0.426D-01 0.515D-02
 Coeff-Com:  0.104D+01
 Coeff-En:   0.000D+00 0.000D+00 0.000D+00 0.000D+00 0.000D+00 0.000D+00
 Coeff-En:   0.100D+01
 Coeff:      0.305D-03-0.623D-03-0.107D-02-0.217D-02-0.425D-01 0.515D-02
 Coeff:      0.104D+01
 Gap=     0.507 Goal=   None    Shift=    0.000
 RMSDP=9.55D-06 MaxDP=3.82D-04 DE=-4.61D-05 OVMax= 5.71D-04

 Cycle   8  Pass 1  IDiag  1:
 RMSU=  4.28D-06    CP:  1.73D-01  3.00D+00  9.78D-01  1.06D+00  1.14D+00
                    CP:  1.14D+00  1.23D+00
 FoFJK:  IHMeth= 1 ICntrl=     0 DoSepK=T KAlg= 1 I1Cent= 0 FoldK=F
 E= -2904.61009563555     Delta-E=       -0.000002676530 Rises=F Damp=F
 DIIS: error= 2.28D-05 at cycle   8 NSaved=   8.
 NSaved= 8 IEnMin= 8 EnMin= -2904.61009563555     IErMin= 8 ErrMin= 2.28D-05
 ErrMax= 2.28D-05 EMaxC= 1.00D-01 BMatC= 1.12D-07 BMatP= 1.57D-06
 IDIUse=1 WtCom= 1.00D+00 WtEn= 0.00D+00
 Coeff-Com:  0.428D-03-0.691D-03 0.515D-03 0.114D-02 0.799D-02-0.553D-01
 Coeff-Com:  0.107D-01 0.104D+01
 Coeff:      0.428D-03-0.691D-03 0.515D-03 0.114D-02 0.799D-02-0.553D-01
 Coeff:      0.107D-01 0.104D+01
 Gap=     0.507 Goal=   None    Shift=    0.000
 RMSDP=2.32D-06 MaxDP=8.38D-05 DE=-2.68D-06 OVMax= 1.27D-04

 Cycle   9  Pass 1  IDiag  1:
 RMSU=  1.02D-06    CP:  1.73D-01  3.00D+00  9.78D-01  1.06D+00  1.13D+00
                    CP:  1.13D+00  1.29D+00  1.22D+00
 FoFJK:  IHMeth= 1 ICntrl=     0 DoSepK=T KAlg= 1 I1Cent= 0 FoldK=F
 E= -2904.61009580814     Delta-E=       -0.000000172589 Rises=F Damp=F
 DIIS: error= 9.72D-06 at cycle   9 NSaved=   9.
 NSaved= 9 IEnMin= 9 EnMin= -2904.61009580814     IErMin= 9 ErrMin= 9.72D-06
 ErrMax= 9.72D-06 EMaxC= 1.00D-01 BMatC= 1.57D-08 BMatP= 1.12D-07
 IDIUse=1 WtCom= 1.00D+00 WtEn= 0.00D+00
 Coeff-Com:  0.761D-04-0.115D-03 0.178D-04 0.129D-05-0.294D-02 0.194D-01
 Coeff-Com: -0.330D-01-0.252D+00 0.127D+01
 Coeff:      0.761D-04-0.115D-03 0.178D-04 0.129D-05-0.294D-02 0.194D-01
 Coeff:     -0.330D-01-0.252D+00 0.127D+01
 Gap=     0.507 Goal=   None    Shift=    0.000
 RMSDP=9.08D-07 MaxDP=2.22D-05 DE=-1.73D-07 OVMax= 6.63D-05

 Cycle  10  Pass 1  IDiag  1:
 RMSU=  3.04D-07    CP:  1.73D-01  3.00D+00  9.78D-01  1.06D+00  1.13D+00
                    CP:  1.13D+00  1.29D+00  1.30D+00  1.41D+00
 FoFJK:  IHMeth= 1 ICntrl=     0 DoSepK=T KAlg= 1 I1Cent= 0 FoldK=F
 E= -2904.61009583649     Delta-E=       -0.000000028359 Rises=F Damp=F
 DIIS: error= 2.83D-06 at cycle  10 NSaved=  10.
 NSaved=10 IEnMin=10 EnMin= -2904.61009583649     IErMin=10 ErrMin= 2.83D-06
 ErrMax= 2.83D-06 EMaxC= 1.00D-01 BMatC= 1.24D-09 BMatP= 1.57D-08
 IDIUse=1 WtCom= 1.00D+00 WtEn= 0.00D+00
 Coeff-Com: -0.693D-05 0.101D-04-0.985D-05-0.288D-04 0.366D-04-0.200D-02
 Coeff-Com:  0.787D-02 0.729D-02-0.401D+00 0.139D+01
 Coeff:     -0.693D-05 0.101D-04-0.985D-05-0.288D-04 0.366D-04-0.200D-02
 Coeff:      0.787D-02 0.729D-02-0.401D+00 0.139D+01
 Gap=     0.507 Goal=   None    Shift=    0.000
 RMSDP=3.97D-07 MaxDP=9.98D-06 DE=-2.84D-08 OVMax= 3.42D-05

 Cycle  11  Pass 1  IDiag  1:
 RMSU=  9.04D-08    CP:  1.73D-01  3.00D+00  9.78D-01  1.06D+00  1.13D+00
                    CP:  1.14D+00  1.29D+00  1.33D+00  1.55D+00  1.58D+00
 FoFJK:  IHMeth= 1 ICntrl=     0 DoSepK=T KAlg= 1 I1Cent= 0 FoldK=F
 E= -2904.61009583988     Delta-E=       -0.000000003384 Rises=F Damp=F
 DIIS: error= 7.85D-07 at cycle  11 NSaved=  11.
 NSaved=11 IEnMin=11 EnMin= -2904.61009583988     IErMin=11 ErrMin= 7.85D-07
 ErrMax= 7.85D-07 EMaxC= 1.00D-01 BMatC= 6.23D-11 BMatP= 1.24D-09
 IDIUse=1 WtCom= 1.00D+00 WtEn= 0.00D+00
 Coeff-Com: -0.604D-05 0.868D-05 0.227D-05 0.438D-05 0.204D-03-0.861D-03
 Coeff-Com:  0.166D-03 0.193D-01-0.178D-01-0.227D+00 0.123D+01
 Coeff:     -0.604D-05 0.868D-05 0.227D-05 0.438D-05 0.204D-03-0.861D-03
 Coeff:      0.166D-03 0.193D-01-0.178D-01-0.227D+00 0.123D+01
 Gap=     0.507 Goal=   None    Shift=    0.000
 RMSDP=9.76D-08 MaxDP=2.95D-06 DE=-3.38D-09 OVMax= 8.72D-06

 Cycle  12  Pass 1  IDiag  1:
 RMSU=  2.24D-08    CP:  1.73D-01  3.00D+00  9.78D-01  1.06D+00  1.13D+00
                    CP:  1.14D+00  1.29D+00  1.33D+00  1.57D+00  1.69D+00
                    CP:  1.45D+00
 FoFJK:  IHMeth= 1 ICntrl=     0 DoSepK=T KAlg= 1 I1Cent= 0 FoldK=F
 E= -2904.61009584009     Delta-E=       -0.000000000212 Rises=F Damp=F
 DIIS: error= 2.47D-07 at cycle  12 NSaved=  12.
 NSaved=12 IEnMin=12 EnMin= -2904.61009584009     IErMin=12 ErrMin= 2.47D-07
 ErrMax= 2.47D-07 EMaxC= 1.00D-01 BMatC= 8.43D-12 BMatP= 6.23D-11
 IDIUse=1 WtCom= 1.00D+00 WtEn= 0.00D+00
 Coeff-Com: -0.177D-05 0.314D-05-0.178D-05 0.338D-05-0.839D-04 0.570D-03
 Coeff-Com: -0.121D-02-0.769D-02 0.440D-01-0.765D-01-0.318D+00 0.136D+01
 Coeff:     -0.177D-05 0.314D-05-0.178D-05 0.338D-05-0.839D-04 0.570D-03
 Coeff:     -0.121D-02-0.769D-02 0.440D-01-0.765D-01-0.318D+00 0.136D+01
 Gap=     0.507 Goal=   None    Shift=    0.000
 RMSDP=3.55D-08 MaxDP=1.29D-06 DE=-2.12D-10 OVMax= 3.31D-06

 Cycle  13  Pass 1  IDiag  1:
 RMSU=  6.00D-09    CP:  1.73D-01  3.00D+00  9.78D-01  1.06D+00  1.13D+00
                    CP:  1.13D+00  1.29D+00  1.34D+00  1.57D+00  1.71D+00
                    CP:  1.60D+00  1.52D+00
 FoFJK:  IHMeth= 1 ICntrl=     0 DoSepK=T KAlg= 1 I1Cent= 0 FoldK=F
 E= -2904.61009584010     Delta-E=       -0.000000000014 Rises=F Damp=F
 DIIS: error= 4.43D-08 at cycle  13 NSaved=  13.
 NSaved=13 IEnMin=13 EnMin= -2904.61009584010     IErMin=13 ErrMin= 4.43D-08
 ErrMax= 4.43D-08 EMaxC= 1.00D-01 BMatC= 3.79D-13 BMatP= 8.43D-12
 IDIUse=1 WtCom= 1.00D+00 WtEn= 0.00D+00
 Coeff-Com: -0.994D-08 0.319D-07-0.313D-06-0.325D-05 0.195D-04-0.928D-04
 Coeff-Com:  0.180D-03 0.103D-02-0.107D-01 0.334D-01 0.398D-01-0.410D+00
 Coeff-Com:  0.135D+01
 Coeff:     -0.994D-08 0.319D-07-0.313D-06-0.325D-05 0.195D-04-0.928D-04
 Coeff:      0.180D-03 0.103D-02-0.107D-01 0.334D-01 0.398D-01-0.410D+00
 Coeff:      0.135D+01
 Gap=     0.507 Goal=   None    Shift=    0.000
 RMSDP=5.13D-09 MaxDP=1.06D-07 DE=-1.36D-11 OVMax= 4.75D-07

 SCF Done:  E(RLC-B+HF-LYP) =  -2904.61009584     A.U. after   13 cycles
             Convg  =    0.5130D-08             -V/T =  2.0016
 KE= 2.899977709735D+03 PE=-7.239976105339D+03 EE= 1.283535027934D+03
 Leave Link  502 at Wed May  6 13:12:15 2020, MaxMem= 1073741824 cpu:     224.9
 (Enter /home/matheus/.gaussian/g09/l601.exe)
 Copying SCF densities to generalized density rwf, IOpCl= 0 IROHF=0.

 **********************************************************************

            Population analysis using the SCF density.

 **********************************************************************

 Orbital symmetries:
       Occupied  (A1) (A1) (A1) (B2) (B1) (A1) (B2) (A1) (A1) (B2)
                 (B1) (A1) (B2) (B1) (A2) (A1) (A1) (A1) (B2) (A1)
                 (B1) (A1) (B2) (B1) (A1) (B2) (A2)
       Virtual   (A1) (B2) (A1) (B1) (B2) (A1) (B2) (B1) (A1) (B2)
                 (A2) (A1) (A1) (B1) (A1) (A2) (B2) (B2) (A1) (A1)
                 (B2) (B1) (A2) (A1) (B2) (B2) (B2) (A1) (B1) (A1)
                 (A1) (B2) (B1) (A1) (B2) (B1) (A2) (A1) (B1) (B2)
                 (A1) (A2) (A1) (A2) (A1) (B2) (B2) (B1) (A1) (B1)
                 (A2) (B2) (A1) (B2) (B1) (A1) (A1) (B2) (A2) (B1)
                 (B2) (A2) (A1) (B2) (A1) (B2) (A1) (B1) (A2) (B2)
                 (B1) (A1) (A2) (A1) (B2) (B2) (A1) (B1) (A1) (B2)
                 (B1) (A1) (A1) (A2) (B1) (A1) (B2) (B1) (B2) (A2)
                 (A1) (B2) (A1) (A2) (A1) (B1) (A1) (B2) (B2) (B1)
                 (B1) (B2) (A1) (A2) (B1) (B2) (A1) (A2) (B1) (B2)
                 (A2) (A1) (B2) (A1) (A1) (B2) (A2) (B2) (B2) (A1)
                 (B2) (B1) (B1) (B1) (A1) (A2) (A2) (A1) (B2) (A2)
                 (A1) (A1) (B2) (B2) (A1) (A1) (B1) (A1) (B2) (A2)
                 (B2) (B2) (A1) (B1) (B2) (A1) (B1) (A1) (A2) (B2)
                 (A1) (B1) (A2) (A1) (B1) (B1) (B2) (A2) (A2) (B2)
                 (A1) (A2) (A1) (B2) (B2) (A1) (B2) (B2) (A1) (B2)
 The electronic state is 1-A1.
 Alpha  occ. eigenvalues -- -511.69909 -67.22388 -60.89590 -60.89584 -60.89572
 Alpha  occ. eigenvalues --  -19.47876 -19.47847 -10.12503  -7.84089  -7.84069
 Alpha  occ. eigenvalues --   -7.84040  -3.67054  -3.67053  -3.67026  -3.67011
 Alpha  occ. eigenvalues --   -3.67007  -1.46183  -1.22074  -1.21031  -0.79971
 Alpha  occ. eigenvalues --   -0.64741  -0.63278  -0.62008  -0.59480  -0.59031
 Alpha  occ. eigenvalues --   -0.57929  -0.48009
 Alpha virt. eigenvalues --    0.02685   0.04020   0.07569   0.08206   0.10249
 Alpha virt. eigenvalues --    0.12102   0.12820   0.16464   0.16565   0.17433
 Alpha virt. eigenvalues --    0.18186   0.18207   0.21711   0.22697   0.23644
 Alpha virt. eigenvalues --    0.24346   0.24725   0.26626   0.31142   0.33945
 Alpha virt. eigenvalues --    0.34305   0.37752   0.38595   0.38986   0.40096
 Alpha virt. eigenvalues --    0.44469   0.47017   0.50208   0.52942   0.54474
 Alpha virt. eigenvalues --    0.61666   0.63250   0.64505   0.65623   0.66274
 Alpha virt. eigenvalues --    0.71318   0.72197   0.73595   0.75124   0.78800
 Alpha virt. eigenvalues --    0.79091   0.79906   0.82736   0.86956   0.88002
 Alpha virt. eigenvalues --    0.88235   0.89315   0.91619   0.93953   0.94683
 Alpha virt. eigenvalues --    0.97155   1.00118   1.00743   1.02295   1.05888
 Alpha virt. eigenvalues --    1.06254   1.10207   1.12398   1.12610   1.13599
 Alpha virt. eigenvalues --    1.16828   1.22736   1.26339   1.32806   1.34131
 Alpha virt. eigenvalues --    1.35662   1.39375   1.43697   1.45893   1.51185
 Alpha virt. eigenvalues --    1.52128   1.54951   1.60780   1.63231   1.65503
 Alpha virt. eigenvalues --    1.71098   1.75155   1.88697   2.03894   2.04446
 Alpha virt. eigenvalues --    2.08404   2.08541   2.21473   2.24222   2.24822
 Alpha virt. eigenvalues --    2.31122   2.33853   2.34038   2.34465   2.39732
 Alpha virt. eigenvalues --    2.43744   2.44421   2.44947   2.45918   2.50030
 Alpha virt. eigenvalues --    2.51210   2.51845   2.54350   2.59819   2.60640
 Alpha virt. eigenvalues --    2.61825   2.64365   2.71831   2.72585   2.75192
 Alpha virt. eigenvalues --    2.78436   2.81680   2.82667   2.82692   2.84245
 Alpha virt. eigenvalues --    2.86973   2.87244   2.93566   3.01445   3.05423
 Alpha virt. eigenvalues --    3.08753   3.26012   3.26479   3.31615   3.69681
 Alpha virt. eigenvalues --    3.93101   4.00439   4.09440   4.23460   4.23490
 Alpha virt. eigenvalues --    4.24928   4.27984   4.33576   4.34630   4.43621
 Alpha virt. eigenvalues --    4.50460   4.65873   4.72581   4.91608   4.91854
 Alpha virt. eigenvalues --    5.14010   5.18065   5.20077   5.25370   5.33282
 Alpha virt. eigenvalues --    5.39051   5.76679   6.03387   6.22044   6.30415
 Alpha virt. eigenvalues --    6.37004   6.56203   6.63629   6.73863   6.83583
 Alpha virt. eigenvalues --    6.95780   6.97289   7.01124   7.05238   7.06949
 Alpha virt. eigenvalues --    7.13114   7.13767   7.16303   7.18304   7.37961
 Alpha virt. eigenvalues --    7.40937   7.49618   7.52866   7.55930   7.88189
 Alpha virt. eigenvalues --    8.22754   8.32914   8.47700  14.05146  14.99266
          Condensed to atoms (all electrons):
              1          2          3          4          5
     1  O    8.247224  -0.231116   0.179990   0.039624  -0.014739
     2  O   -0.231116   8.247224   0.039624   0.179990  -0.014739
     3  H    0.179990   0.039624   0.604346  -0.025659  -0.018546
     4  H    0.039624   0.179990  -0.025659   0.604346  -0.018546
     5  Kr  -0.014739  -0.014739  -0.018546  -0.018546  36.065094
 Mulliken atomic charges:
              1
     1  O   -0.220983
     2  O   -0.220983
     3  H    0.220246
     4  H    0.220246
     5  Kr   0.001476
 Sum of Mulliken atomic charges =   0.00000
 Mulliken charges with hydrogens summed into heavy atoms:
              1
     1  O   -0.000738
     2  O   -0.000738
     5  Kr   0.001476
 Sum of Mulliken charges with hydrogens summed into heavy atoms =   0.00000
          Condensed to fragments (all electrons):
     1      -0.001476
     2       0.001476
 Electronic spatial extent (au):  <R**2>=            475.0909
 Charge=              0.0000 electrons
 Dipole moment (field-independent basis, Debye):
    X=              0.0000    Y=              0.0000    Z=              3.9716  Tot=              3.9716
 Quadrupole moment (field-independent basis, Debye-Ang):
   XX=            -30.1629   YY=            -27.8627   ZZ=            -39.2778
   XY=              0.0000   XZ=              0.0000   YZ=              0.0000
 Traceless Quadrupole moment (field-independent basis, Debye-Ang):
   XX=              2.2716   YY=              4.5718   ZZ=             -6.8433
   XY=              0.0000   XZ=              0.0000   YZ=              0.0000
 Octapole moment (field-independent basis, Debye-Ang**2):
  XXX=              0.0000  YYY=              0.0000  ZZZ=             46.1061  XYY=              0.0000
  XXY=              0.0000  XXZ=              8.5750  XZZ=              0.0000  YZZ=              0.0000
  YYZ=              8.1120  XYZ=              0.0000
 Hexadecapole moment (field-independent basis, Debye-Ang**3):
 XXXX=            -27.7404 YYYY=            -61.8072 ZZZZ=           -454.1176 XXXY=              0.0000
 XXXZ=              0.0000 YYYX=              0.0000 YYYZ=              0.0000 ZZZX=              0.0000
 ZZZY=              0.0000 XXYY=            -16.7836 XXZZ=            -75.1611 YYZZ=            -86.0205
 XXYZ=              0.0000 YYXZ=              0.0000 ZZXY=              0.0000
 N-N= 1.518532718296D+02 E-N=-7.239976096364D+03  KE= 2.899977709735D+03
 Symmetry A1   KE= 2.056974569697D+03
 Symmetry A2   KE= 5.303802926283D+01
 Symmetry B1   KE= 3.628872991514D+02
 Symmetry B2   KE= 4.270778116235D+02
 No NMR shielding tensors so no spin-rotation constants.
 Leave Link  601 at Wed May  6 13:12:16 2020, MaxMem= 1073741824 cpu:       1.4
 (Enter /home/matheus/.gaussian/g09/l122.exe)
 Counterpoise: doing DCBS calculation for fragment   1 NewBq=T
 Leave Link  122 at Wed May  6 13:12:16 2020, MaxMem= 1073741824 cpu:       0.0
 (Enter /home/matheus/.gaussian/g09/l301.exe)
 Basis read from rwf:  (5D, 7F)
 No pseudopotential information found on rwf file.
 There are    71 symmetry adapted basis functions of A1  symmetry.
 There are    29 symmetry adapted basis functions of A2  symmetry.
 There are    37 symmetry adapted basis functions of B1  symmetry.
 There are    60 symmetry adapted basis functions of B2  symmetry.
 Integral buffers will be    131072 words long.
 Raffenetti 2 integral format.
 Two-electron integral symmetry is turned on.
   197 basis functions,   415 primitive gaussians,   229 cartesian basis functions
     9 alpha electrons        9 beta electrons
       nuclear repulsion energy        36.6667523957 Hartrees.
 IExCor=10402 DFT=T Ex=LC-B+HF Corr=LYP ExCW=0 ScaHFX=  1.000000
 ScaDFX=  1.000000  1.000000  1.000000  1.000000 ScalE2=  1.000000  1.000000
 IRadAn=      5 IRanWt=     -1 IRanGd=            0 ICorTp=0
  HFx wShort=  0.000000 wLong=  1.350000 cFull=  0.000000 cShort=  0.000000 cLong=  1.000000
  DFx wShort=  0.000000 wLong=  1.350000 cFull=  0.000000 cShort=  0.000000 cLong=  1.000000
 NAtoms=    5 NActive=    5 NUniq=    3 SFac= 2.78D+00 NAtFMM=   60 NAOKFM=F Big=F
 No density basis found on file   718.
 Leave Link  301 at Wed May  6 13:12:16 2020, MaxMem= 1073741824 cpu:       0.2
 (Enter /home/matheus/.gaussian/g09/l302.exe)
 NPDir=0 NMtPBC=     1 NCelOv=     1 NCel=       1 NClECP=     1 NCelD=      1
         NCelK=      1 NCelE2=     1 NClLst=     1 CellRange=     0.0.
 One-electron integrals computed using PRISM.
 One-electron integral symmetry used in STVInt
 NBasis=   197 RedAO= T  NBF=    71    29    37    60
 NBsUse=   197 1.00D-06 NBFU=    71    29    37    60
 Precomputing XC quadrature grid using
 IXCGrd= 2 IRadAn=           5 IRanWt=          -1 IRanGd=           0 AccXCQ= 0.00D+00.
 NRdTot=     427 NPtTot=      123512 NUsed=      126579 NTot=      126611
 NSgBfM=   229   229   229   229   229 NAtAll=     5     5.
 Leave Link  302 at Wed May  6 13:12:16 2020, MaxMem= 1073741824 cpu:       1.2
 (Enter /home/matheus/.gaussian/g09/l303.exe)
 DipDrv:  MaxL=1.
 Leave Link  303 at Wed May  6 13:12:16 2020, MaxMem= 1073741824 cpu:       0.2
 (Enter /home/matheus/.gaussian/g09/l401.exe)
 Harris functional with IExCor=10402 diagonalized for initial guess.
 ExpMin= 2.53D-02 ExpMax= 1.17D+07 ExpMxC= 1.33D+04 IAcc=3 IRadAn=         5 AccDes= 0.00D+00
 HarFok:  IExCor=10402 AccDes= 0.00D+00 IRadAn=         5 IDoV= 1
 ScaDFX=  1.000000  1.000000  1.000000  1.000000
 FoFCou: FMM=F IPFlag=           0 FMFlag=      100000 FMFlg1=           0
         NFxFlg=           0 DoJE=T BraDBF=F KetDBF=T FulRan=T
         Omega=  0.000000  0.000000  1.000000  0.000000  0.000000 ICntrl=     500 IOpCl=  0
         NMat0=    1 NMatS0=    1 NMatT0=    0 NMatD0=    1 NMtDS0=    0 NMtDT0=    0
         I1Cent=           4 NGrid=           0.
 Petite list used in FoFCou.
 Harris En= -143.227440158259    
 Initial guess orbital symmetries:
       Occupied  (B2) (A1) (A1) (B2) (A1) (A1) (B1) (B2) (A1)
       Virtual   (B2) (A1) (B1) (B2) (A2) (A1) (B2) (A1) (B1) (A1)
                 (B2) (A2) (A1) (B1) (A1) (B2) (A1) (A2) (B2) (B2)
                 (A1) (B1) (B2) (A1) (A2) (A1) (B1) (B2) (B2) (A1)
                 (A1) (B2) (A1) (B1) (B2) (A1) (B1) (A2) (A1) (A2)
                 (B2) (B1) (A1) (B2) (A1) (B1) (B2) (A2) (A1) (B2)
                 (B2) (A1) (B1) (B1) (A2) (A1) (B2) (A2) (A1) (B2)
                 (B2) (B1) (A2) (A1) (B1) (A1) (A1) (B2) (A1) (B2)
                 (A1) (B1) (A2) (B2) (B1) (A1) (A2) (A1) (B2) (A1)
                 (B2) (B1) (A1) (B1) (B2) (A1) (A2) (A1) (B2) (B1)
                 (A1) (A2) (B2) (A1) (B2) (A1) (B1) (B2) (B1) (A2)
                 (B2) (A2) (A1) (A1) (B2) (B2) (A2) (B2) (B1) (B2)
                 (A1) (A1) (A1) (A2) (B1) (A1) (B2) (B1) (B2) (A2)
                 (A1) (B1) (A1) (B1) (B2) (B1) (B2) (A1) (A2) (B1)
                 (A2) (A1) (B2) (A1) (A2) (A1) (A1) (B2) (B2) (A1)
                 (B1) (A1) (B2) (A2) (B2) (B2) (A1) (B1) (B2) (A1)
                 (B1) (A1) (A2) (B2) (B1) (A1) (A2) (A1) (B1) (B1)
                 (B2) (A2) (A2) (B2) (A1) (A2) (A1) (B2) (B2) (A1)
                 (B2) (B2) (A1) (A1) (B1) (B2) (B2) (A1) (A2) (A1)
                 (B1) (A1) (B2) (A1) (B1) (B2) (A1) (A1)
 The electronic state of the initial guess is 1-A1.
 Leave Link  401 at Wed May  6 13:12:16 2020, MaxMem= 1073741824 cpu:       1.9
 (Enter /home/matheus/.gaussian/g09/l502.exe)
 Closed shell SCF:
 Requested convergence on RMS density matrix=1.00D-08 within 128 cycles.
 Requested convergence on MAX density matrix=1.00D-06.
 Requested convergence on             energy=1.00D-06.
 No special actions if energy rises.
 Using DIIS extrapolation, IDIIS=  1040.
 Integral symmetry usage will be decided dynamically.
       126521 words used for storage of precomputed grid.
 IEnd=      305860 IEndB=      305860 NGot=  1073741824 MDV=  1073505275
 LenX=  1073505275 LenY=  1073452393
 Fock matrices will be formed incrementally for  20 cycles.

 Cycle   1  Pass 1  IDiag  1:
 FoFJK:  IHMeth= 1 ICntrl=     0 DoSepK=T KAlg= 1 I1Cent= 0 FoldK=F
 FoFCou: FMM=F IPFlag=           0 FMFlag=      100000 FMFlg1=           0
         NFxFlg=           0 DoJE=T BraDBF=F KetDBF=F FulRan=T
         Omega=  0.000000  0.000000  1.000000  0.000000  0.000000 ICntrl=     500 IOpCl=  0
         NMat0=    1 NMatS0=    1 NMatT0=    0 NMatD0=    1 NMtDS0=    0 NMtDT0=    0
         I1Cent=           0 NGrid=           0.
 Petite list used in FoFCou.
 E= -148.117775295886    
 DIIS: error= 1.16D-01 at cycle   1 NSaved=   1.
 NSaved= 1 IEnMin= 1 EnMin= -148.117775295886     IErMin= 1 ErrMin= 1.16D-01
 ErrMax= 1.16D-01 EMaxC= 1.00D-01 BMatC= 2.23D+00 BMatP= 2.23D+00
 IDIUse=3 WtCom= 0.00D+00 WtEn= 1.00D+00
 Coeff-Com:  0.100D+01
 Coeff-En:   0.100D+01
 Coeff:      0.100D+01
 Gap=     0.197 Goal=   None    Shift=    0.000
 GapD=    0.197 DampG=1.000 DampE=0.250 DampFc=0.2500 IDamp=-1.
 Damping current iteration by 2.50D-01
 RMSDP=3.23D-02 MaxDP=1.10D+00              OVMax= 7.33D-01

 Cycle   2  Pass 1  IDiag  1:
 RMSU=  1.73D-03    CP:  7.68D-01
 FoFJK:  IHMeth= 1 ICntrl=     0 DoSepK=T KAlg= 1 I1Cent= 0 FoldK=F
 E= -149.244379742117     Delta-E=       -1.126604446231 Rises=F Damp=T
 DIIS: error= 6.39D-02 at cycle   2 NSaved=   2.
 NSaved= 2 IEnMin= 2 EnMin= -149.244379742117     IErMin= 2 ErrMin= 6.39D-02
 ErrMax= 6.39D-02 EMaxC= 1.00D-01 BMatC= 6.34D-01 BMatP= 2.23D+00
 IDIUse=3 WtCom= 3.61D-01 WtEn= 6.39D-01
 Coeff-Com: -0.105D+01 0.205D+01
 Coeff-En:   0.000D+00 0.100D+01
 Coeff:     -0.380D+00 0.138D+01
 Gap=     0.368 Goal=   None    Shift=    0.000
 RMSDP=2.41D-02 MaxDP=8.24D-01 DE=-1.13D+00 OVMax= 1.07D-01

 Cycle   3  Pass 1  IDiag  1:
 RMSU=  1.95D-03    CP:  7.09D-02  3.00D+00
 FoFJK:  IHMeth= 1 ICntrl=     0 DoSepK=T KAlg= 1 I1Cent= 0 FoldK=F
 E= -150.855949662840     Delta-E=       -1.611569920723 Rises=F Damp=F
 DIIS: error= 6.32D-02 at cycle   3 NSaved=   3.
 NSaved= 3 IEnMin= 3 EnMin= -150.855949662840     IErMin= 3 ErrMin= 6.32D-02
 ErrMax= 6.32D-02 EMaxC= 1.00D-01 BMatC= 5.15D-01 BMatP= 6.34D-01
 IDIUse=3 WtCom= 3.68D-01 WtEn= 6.32D-01
 Coeff-Com: -0.178D+01 0.318D+01-0.399D+00
 Coeff-En:   0.000D+00 0.000D+00 0.100D+01
 Coeff:     -0.656D+00 0.117D+01 0.485D+00
 Gap=     0.396 Goal=   None    Shift=    0.000
 RMSDP=2.19D-03 MaxDP=9.62D-02 DE=-1.61D+00 OVMax= 1.41D-01

 Cycle   4  Pass 1  IDiag  1:
 RMSU=  1.47D-03    CP:  7.10D-02  3.00D+00  1.25D+00
 FoFJK:  IHMeth= 1 ICntrl=     0 DoSepK=T KAlg= 1 I1Cent= 0 FoldK=F
 E= -151.194692349340     Delta-E=       -0.338742686500 Rises=F Damp=F
 DIIS: error= 1.24D-02 at cycle   4 NSaved=   4.
 NSaved= 4 IEnMin= 4 EnMin= -151.194692349340     IErMin= 4 ErrMin= 1.24D-02
 ErrMax= 1.24D-02 EMaxC= 1.00D-01 BMatC= 2.09D-02 BMatP= 5.15D-01
 IDIUse=3 WtCom= 8.76D-01 WtEn= 1.24D-01
 Coeff-Com: -0.422D+00 0.723D+00-0.183D-01 0.717D+00
 Coeff-En:   0.000D+00 0.000D+00 0.000D+00 0.100D+01
 Coeff:     -0.370D+00 0.633D+00-0.160D-01 0.752D+00
 Gap=     0.507 Goal=   None    Shift=    0.000
 RMSDP=4.12D-04 MaxDP=1.69D-02 DE=-3.39D-01 OVMax= 3.53D-02

 Cycle   5  Pass 1  IDiag  1:
 RMSU=  1.92D-04    CP:  7.06D-02  3.00D+00  1.22D+00  8.56D-01
 FoFJK:  IHMeth= 1 ICntrl=     0 DoSepK=T KAlg= 1 I1Cent= 0 FoldK=F
 E= -151.198100127534     Delta-E=       -0.003407778194 Rises=F Damp=F
 DIIS: error= 7.20D-03 at cycle   5 NSaved=   5.
 NSaved= 5 IEnMin= 5 EnMin= -151.198100127534     IErMin= 5 ErrMin= 7.20D-03
 ErrMax= 7.20D-03 EMaxC= 1.00D-01 BMatC= 8.20D-03 BMatP= 2.09D-02
 IDIUse=3 WtCom= 9.28D-01 WtEn= 7.20D-02
 Coeff-Com: -0.339D-01 0.697D-01-0.190D+00-0.165D+00 0.132D+01
 Coeff-En:   0.000D+00 0.000D+00 0.000D+00 0.302D+00 0.698D+00
 Coeff:     -0.314D-01 0.646D-01-0.176D+00-0.132D+00 0.127D+01
 Gap=     0.500 Goal=   None    Shift=    0.000
 RMSDP=3.99D-04 MaxDP=9.56D-03 DE=-3.41D-03 OVMax= 1.94D-02

 Cycle   6  Pass 1  IDiag  1:
 RMSU=  1.09D-04    CP:  7.03D-02  3.00D+00  1.25D+00  1.01D+00  1.61D+00
 FoFJK:  IHMeth= 1 ICntrl=     0 DoSepK=T KAlg= 1 I1Cent= 0 FoldK=F
 E= -151.204654905434     Delta-E=       -0.006554777900 Rises=F Damp=F
 DIIS: error= 1.00D-03 at cycle   6 NSaved=   6.
 NSaved= 6 IEnMin= 6 EnMin= -151.204654905434     IErMin= 6 ErrMin= 1.00D-03
 ErrMax= 1.00D-03 EMaxC= 1.00D-01 BMatC= 1.27D-04 BMatP= 8.20D-03
 IDIUse=3 WtCom= 9.90D-01 WtEn= 1.00D-02
 Coeff-Com:  0.959D-02-0.150D-01-0.500D-02-0.357D-01-0.995D-01 0.115D+01
 Coeff-En:   0.000D+00 0.000D+00 0.000D+00 0.000D+00 0.000D+00 0.100D+01
 Coeff:      0.950D-02-0.148D-01-0.495D-02-0.354D-01-0.985D-01 0.114D+01
 Gap=     0.500 Goal=   None    Shift=    0.000
 RMSDP=9.77D-05 MaxDP=2.11D-03 DE=-6.55D-03 OVMax= 4.39D-03

 Cycle   7  Pass 1  IDiag  1:
 RMSU=  1.25D-05    CP:  7.02D-02  3.00D+00  1.25D+00  1.04D+00  1.79D+00
                    CP:  1.35D+00
 FoFJK:  IHMeth= 1 ICntrl=     0 DoSepK=T KAlg= 1 I1Cent= 0 FoldK=F
 E= -151.204794316947     Delta-E=       -0.000139411513 Rises=F Damp=F
 DIIS: error= 1.59D-04 at cycle   7 NSaved=   7.
 NSaved= 7 IEnMin= 7 EnMin= -151.204794316947     IErMin= 7 ErrMin= 1.59D-04
 ErrMax= 1.59D-04 EMaxC= 1.00D-01 BMatC= 2.55D-06 BMatP= 1.27D-04
 IDIUse=3 WtCom= 9.98D-01 WtEn= 1.59D-03
 Coeff-Com:  0.426D-02-0.739D-02 0.569D-02 0.441D-02-0.431D-02-0.103D+00
 Coeff-Com:  0.110D+01
 Coeff-En:   0.000D+00 0.000D+00 0.000D+00 0.000D+00 0.000D+00 0.000D+00
 Coeff-En:   0.100D+01
 Coeff:      0.425D-02-0.738D-02 0.568D-02 0.440D-02-0.430D-02-0.103D+00
 Coeff:      0.110D+01
 Gap=     0.501 Goal=   None    Shift=    0.000
 RMSDP=1.05D-05 MaxDP=2.55D-04 DE=-1.39D-04 OVMax= 6.25D-04

 Cycle   8  Pass 1  IDiag  1:
 RMSU=  3.37D-06    CP:  7.02D-02  3.00D+00  1.25D+00  1.04D+00  1.80D+00
                    CP:  1.40D+00  1.18D+00
 FoFJK:  IHMeth= 1 ICntrl=     0 DoSepK=T KAlg= 1 I1Cent= 0 FoldK=F
 E= -151.204797135823     Delta-E=       -0.000002818876 Rises=F Damp=F
 DIIS: error= 1.06D-04 at cycle   8 NSaved=   8.
 NSaved= 8 IEnMin= 8 EnMin= -151.204797135823     IErMin= 8 ErrMin= 1.06D-04
 ErrMax= 1.06D-04 EMaxC= 1.00D-01 BMatC= 1.14D-06 BMatP= 2.55D-06
 IDIUse=3 WtCom= 9.99D-01 WtEn= 1.06D-03
 Coeff-Com:  0.541D-04-0.833D-04-0.115D-02-0.184D-02 0.236D-01-0.480D-01
 Coeff-Com: -0.327D+00 0.135D+01
 Coeff-En:   0.000D+00 0.000D+00 0.000D+00 0.000D+00 0.000D+00 0.000D+00
 Coeff-En:   0.000D+00 0.100D+01
 Coeff:      0.540D-04-0.832D-04-0.115D-02-0.184D-02 0.236D-01-0.479D-01
 Coeff:     -0.327D+00 0.135D+01
 Gap=     0.501 Goal=   None    Shift=    0.000
 RMSDP=4.38D-06 MaxDP=1.40D-04 DE=-2.82D-06 OVMax= 3.55D-04

 Cycle   9  Pass 1  IDiag  1:
 RMSU=  1.14D-06    CP:  7.02D-02  3.00D+00  1.25D+00  1.04D+00  1.80D+00
                    CP:  1.39D+00  1.22D+00  1.39D+00
 FoFJK:  IHMeth= 1 ICntrl=     0 DoSepK=T KAlg= 1 I1Cent= 0 FoldK=F
 E= -151.204798216449     Delta-E=       -0.000001080626 Rises=F Damp=F
 DIIS: error= 7.94D-06 at cycle   9 NSaved=   9.
 NSaved= 9 IEnMin= 9 EnMin= -151.204798216449     IErMin= 9 ErrMin= 7.94D-06
 ErrMax= 7.94D-06 EMaxC= 1.00D-01 BMatC= 6.34D-09 BMatP= 1.14D-06
 IDIUse=1 WtCom= 1.00D+00 WtEn= 0.00D+00
 Coeff-Com: -0.156D-03 0.272D-03-0.239D-04 0.272D-03-0.495D-02 0.102D-01
 Coeff-Com:  0.739D-01-0.424D+00 0.134D+01
 Coeff:     -0.156D-03 0.272D-03-0.239D-04 0.272D-03-0.495D-02 0.102D-01
 Coeff:      0.739D-01-0.424D+00 0.134D+01
 Gap=     0.501 Goal=   None    Shift=    0.000
 RMSDP=1.14D-06 MaxDP=3.04D-05 DE=-1.08D-06 OVMax= 1.06D-04

 Cycle  10  Pass 1  IDiag  1:
 RMSU=  2.63D-07    CP:  7.02D-02  3.00D+00  1.25D+00  1.04D+00  1.80D+00
                    CP:  1.39D+00  1.21D+00  1.43D+00  1.49D+00
 FoFJK:  IHMeth= 1 ICntrl=     0 DoSepK=T KAlg= 1 I1Cent= 0 FoldK=F
 E= -151.204798236367     Delta-E=       -0.000000019918 Rises=F Damp=F
 DIIS: error= 3.77D-06 at cycle  10 NSaved=  10.
 NSaved=10 IEnMin=10 EnMin= -151.204798236367     IErMin=10 ErrMin= 3.77D-06
 ErrMax= 3.77D-06 EMaxC= 1.00D-01 BMatC= 1.91D-09 BMatP= 6.34D-09
 IDIUse=1 WtCom= 1.00D+00 WtEn= 0.00D+00
 Coeff-Com:  0.912D-06-0.249D-05 0.608D-04 0.675D-04 0.363D-04-0.233D-02
 Coeff-Com:  0.449D-02 0.574D-01-0.517D+00 0.146D+01
 Coeff:      0.912D-06-0.249D-05 0.608D-04 0.675D-04 0.363D-04-0.233D-02
 Coeff:      0.449D-02 0.574D-01-0.517D+00 0.146D+01
 Gap=     0.501 Goal=   None    Shift=    0.000
 RMSDP=3.52D-07 MaxDP=1.14D-05 DE=-1.99D-08 OVMax= 4.39D-05

 Cycle  11  Pass 1  IDiag  1:
 RMSU=  5.02D-08    CP:  7.02D-02  3.00D+00  1.25D+00  1.04D+00  1.80D+00
                    CP:  1.39D+00  1.21D+00  1.42D+00  1.62D+00  1.62D+00
 FoFJK:  IHMeth= 1 ICntrl=     0 DoSepK=T KAlg= 1 I1Cent= 0 FoldK=F
 E= -151.204798239899     Delta-E=       -0.000000003532 Rises=F Damp=F
 DIIS: error= 6.54D-07 at cycle  11 NSaved=  11.
 NSaved=11 IEnMin=11 EnMin= -151.204798239899     IErMin=11 ErrMin= 6.54D-07
 ErrMax= 6.54D-07 EMaxC= 1.00D-01 BMatC= 4.34D-11 BMatP= 1.91D-09
 IDIUse=1 WtCom= 1.00D+00 WtEn= 0.00D+00
 Coeff-Com:  0.105D-05-0.275D-05-0.139D-05-0.160D-04 0.502D-03-0.121D-02
 Coeff-Com: -0.576D-02 0.311D-01-0.751D-01-0.154D+00 0.120D+01
 Coeff:      0.105D-05-0.275D-05-0.139D-05-0.160D-04 0.502D-03-0.121D-02
 Coeff:     -0.576D-02 0.311D-01-0.751D-01-0.154D+00 0.120D+01
 Gap=     0.501 Goal=   None    Shift=    0.000
 RMSDP=9.33D-08 MaxDP=3.78D-06 DE=-3.53D-09 OVMax= 1.13D-05

 Cycle  12  Pass 1  IDiag  1:
 RMSU=  1.19D-08    CP:  7.02D-02  3.00D+00  1.25D+00  1.04D+00  1.80D+00
                    CP:  1.39D+00  1.21D+00  1.42D+00  1.64D+00  1.78D+00
                    CP:  1.47D+00
 FoFJK:  IHMeth= 1 ICntrl=     0 DoSepK=T KAlg= 1 I1Cent= 0 FoldK=F
 E= -151.204798240075     Delta-E=       -0.000000000176 Rises=F Damp=F
 DIIS: error= 9.64D-08 at cycle  12 NSaved=  12.
 NSaved=12 IEnMin=12 EnMin= -151.204798240075     IErMin=12 ErrMin= 9.64D-08
 ErrMax= 9.64D-08 EMaxC= 1.00D-01 BMatC= 1.73D-12 BMatP= 4.34D-11
 IDIUse=1 WtCom= 1.00D+00 WtEn= 0.00D+00
 Coeff-Com:  0.489D-06-0.119D-05 0.709D-06 0.349D-05-0.872D-04 0.221D-03
 Coeff-Com:  0.124D-02-0.830D-02 0.337D-01-0.381D-01-0.181D+00 0.119D+01
 Coeff:      0.489D-06-0.119D-05 0.709D-06 0.349D-05-0.872D-04 0.221D-03
 Coeff:      0.124D-02-0.830D-02 0.337D-01-0.381D-01-0.181D+00 0.119D+01
 Gap=     0.501 Goal=   None    Shift=    0.000
 RMSDP=1.21D-08 MaxDP=2.27D-07 DE=-1.76D-10 OVMax= 1.27D-06

 Cycle  13  Pass 1  IDiag  1:
 RMSU=  2.89D-09    CP:  7.02D-02  3.00D+00  1.25D+00  1.04D+00  1.80D+00
                    CP:  1.39D+00  1.21D+00  1.42D+00  1.64D+00  1.79D+00
                    CP:  1.56D+00  1.38D+00
 FoFJK:  IHMeth= 1 ICntrl=     0 DoSepK=T KAlg= 1 I1Cent= 0 FoldK=F
 E= -151.204798240083     Delta-E=       -0.000000000008 Rises=F Damp=F
 DIIS: error= 2.44D-08 at cycle  13 NSaved=  13.
 NSaved=13 IEnMin=13 EnMin= -151.204798240083     IErMin=13 ErrMin= 2.44D-08
 ErrMax= 2.44D-08 EMaxC= 1.00D-01 BMatC= 1.13D-13 BMatP= 1.73D-12
 IDIUse=1 WtCom= 1.00D+00 WtEn= 0.00D+00
 Coeff-Com: -0.158D-06 0.261D-06-0.555D-07-0.673D-06 0.151D-04-0.249D-04
 Coeff-Com: -0.316D-03 0.211D-02-0.101D-01 0.215D-01 0.638D-02-0.327D+00
 Coeff-Com:  0.131D+01
 Coeff:     -0.158D-06 0.261D-06-0.555D-07-0.673D-06 0.151D-04-0.249D-04
 Coeff:     -0.316D-03 0.211D-02-0.101D-01 0.215D-01 0.638D-02-0.327D+00
 Coeff:      0.131D+01
 Gap=     0.501 Goal=   None    Shift=    0.000
 RMSDP=6.06D-09 MaxDP=1.73D-07 DE=-7.96D-12 OVMax= 2.16D-07

 SCF Done:  E(RLC-B+HF-LYP) =  -151.204798240     A.U. after   13 cycles
             Convg  =    0.6064D-08             -V/T =  2.0061
 KE= 1.502905775618D+02 PE=-4.316121570465D+02 EE= 9.345002884891D+01
 Leave Link  502 at Wed May  6 13:12:43 2020, MaxMem= 1073741824 cpu:     215.1
 (Enter /home/matheus/.gaussian/g09/l601.exe)
 Copying SCF densities to generalized density rwf, IOpCl= 0 IROHF=0.

 **********************************************************************

            Population analysis using the SCF density.

 **********************************************************************

 Orbital symmetries:
       Occupied  (A1) (B2) (A1) (B2) (A1) (B1) (A1) (B2) (A2)
       Virtual   (A1) (B2) (A1) (B1) (A1) (B2) (B2) (A1) (B1) (A1)
                 (B2) (A2) (A1) (B2) (B1) (A1) (B2) (A1) (A2) (B2)
                 (A1) (B1) (B2) (A1) (A2) (A1) (B2) (B1) (B2) (A1)
                 (A1) (B2) (A1) (B1) (B2) (A1) (B1) (A2) (A1) (A2)
                 (B1) (B2) (A1) (B2) (A1) (B1) (A1) (B2) (A2) (B2)
                 (B2) (A1) (B1) (B1) (A1) (A2) (B2) (A1) (A2) (B2)
                 (B2) (B1) (A1) (A2) (B1) (A1) (A1) (B2) (A1) (B2)
                 (B1) (A1) (A2) (B2) (B1) (A1) (A2) (B2) (A1) (A1)
                 (B2) (B1) (A1) (B2) (B1) (A1) (A2) (A1) (B2) (B1)
                 (A1) (A2) (B2) (A1) (B2) (A1) (B1) (B2) (B1) (A2)
                 (B2) (A2) (A1) (A1) (B2) (B1) (B2) (A2) (B2) (B2)
                 (A1) (A1) (A1) (A2) (B1) (A1) (B1) (B2) (B2) (A2)
                 (A1) (B1) (A1) (B1) (B2) (B1) (B2) (A1) (B1) (A2)
                 (A1) (A2) (B2) (A1) (A2) (A1) (A1) (B2) (B2) (A1)
                 (B1) (A1) (B2) (A2) (B2) (B2) (A1) (B1) (B2) (A1)
                 (B1) (A1) (A2) (B2) (A1) (B1) (A2) (A1) (B1) (B1)
                 (B2) (A2) (A2) (B2) (A1) (A2) (A1) (B2) (B2) (A1)
                 (B2) (B2) (A1) (A1) (B1) (B2) (B2) (A1) (A2) (A1)
                 (B1) (A1) (B2) (A1) (B1) (B2) (A1) (A1)
 The electronic state is 1-A1.
 Alpha  occ. eigenvalues --  -19.48796 -19.48768  -1.46849  -1.21706  -0.79995
 Alpha  occ. eigenvalues --   -0.65411  -0.63325  -0.60531  -0.48796
 Alpha virt. eigenvalues --    0.01292   0.03555   0.06995   0.07207   0.08699
 Alpha virt. eigenvalues --    0.09956   0.12310   0.16340   0.16844   0.17337
 Alpha virt. eigenvalues --    0.18346   0.18692   0.21570   0.23839   0.25342
 Alpha virt. eigenvalues --    0.26414   0.27985   0.28037   0.30579   0.34323
 Alpha virt. eigenvalues --    0.34756   0.35775   0.37619   0.41180   0.44553
 Alpha virt. eigenvalues --    0.45034   0.45394   0.47268   0.49208   0.53541
 Alpha virt. eigenvalues --    0.54850   0.57992   0.60734   0.65967   0.66981
 Alpha virt. eigenvalues --    0.70420   0.72268   0.78090   0.78375   0.81845
 Alpha virt. eigenvalues --    0.84124   0.85621   0.86862   0.89405   0.91086
 Alpha virt. eigenvalues --    0.94886   0.98313   0.98570   0.99443   1.01081
 Alpha virt. eigenvalues --    1.03062   1.05112   1.08099   1.10771   1.11873
 Alpha virt. eigenvalues --    1.12951   1.19819   1.24545   1.24573   1.26139
 Alpha virt. eigenvalues --    1.30875   1.31024   1.31073   1.32550   1.33136
 Alpha virt. eigenvalues --    1.34527   1.37817   1.39800   1.45656   1.50567
 Alpha virt. eigenvalues --    1.52774   1.52942   1.54911   1.57660   1.64874
 Alpha virt. eigenvalues --    1.65550   1.66864   1.75501   1.76533   1.84643
 Alpha virt. eigenvalues --    1.88445   1.88930   2.05397   2.08235   2.08945
 Alpha virt. eigenvalues --    2.12738   2.24045   2.33390   2.34727   2.36876
 Alpha virt. eigenvalues --    2.37320   2.41668   2.44770   2.44896   2.54075
 Alpha virt. eigenvalues --    2.55641   2.62625   2.64442   2.72672   2.81426
 Alpha virt. eigenvalues --    2.82105   2.85767   2.93764   3.02385   3.06225
 Alpha virt. eigenvalues --    3.22756   3.23638   3.25169   3.28660   3.36974
 Alpha virt. eigenvalues --    3.39003   3.59444   3.69176   3.77188   3.79066
 Alpha virt. eigenvalues --    3.79259   3.81521   3.82041   3.83647   3.89787
 Alpha virt. eigenvalues --    3.90777   3.94308   3.96689   4.02209   4.02284
 Alpha virt. eigenvalues --    4.09375   4.11914   4.16381   4.23885   4.25124
 Alpha virt. eigenvalues --    4.26378   4.28167   4.37694   4.39482   4.43489
 Alpha virt. eigenvalues --    4.58163   4.74889   4.74919   4.91319   5.12870
 Alpha virt. eigenvalues --    5.17722   5.20197   5.25512   5.32981   5.38804
 Alpha virt. eigenvalues --    5.76475   6.02770   6.21404   6.29919   6.35650
 Alpha virt. eigenvalues --    6.55639   6.62954   6.73204   6.82909   6.95284
 Alpha virt. eigenvalues --    6.96535   7.00410   7.04204   7.06289   7.12410
 Alpha virt. eigenvalues --    7.13095   7.15583   7.17603   7.37376   7.40162
 Alpha virt. eigenvalues --    7.48890   7.51941   7.55220   7.87590   8.21878
 Alpha virt. eigenvalues --    8.32163   8.47000  11.08705  14.04713  14.79894
 Alpha virt. eigenvalues --   14.93652  15.00665  15.09109  29.01081  29.01812
 Alpha virt. eigenvalues --   29.05265  29.19634  29.24396  49.23351 148.28068
 Alpha virt. eigenvalues --  148.52073 148.72021 753.00435
          Condensed to atoms (all electrons):
              1          2          3          4          5
     1  O    8.229198  -0.229496   0.176504   0.036882   0.001843
     2  O   -0.229496   8.229198   0.036882   0.176504   0.001843
     3  H    0.176504   0.036882   0.593773  -0.020054  -0.003076
     4  H    0.036882   0.176504  -0.020054   0.593773  -0.003076
     5  Kr   0.001843   0.001843  -0.003076  -0.003076   0.004548
 Mulliken atomic charges:
              1
     1  O   -0.214930
     2  O   -0.214930
     3  H    0.215971
     4  H    0.215971
     5  Kr  -0.002082
 Sum of Mulliken atomic charges =   0.00000
 Mulliken charges with hydrogens summed into heavy atoms:
              1
     1  O    0.001041
     2  O    0.001041
     5  Kr  -0.002082
 Sum of Mulliken charges with hydrogens summed into heavy atoms =   0.00000
          Condensed to fragments (all electrons):
     1       0.002082
     2      -0.002082
 Electronic spatial extent (au):  <R**2>=            316.4206
 Charge=              0.0000 electrons
 Dipole moment (field-independent basis, Debye):
    X=              0.0000    Y=              0.0000    Z=              3.3794  Tot=              3.3794
 Quadrupole moment (field-independent basis, Debye-Ang):
   XX=            -12.8022   YY=            -10.3425   ZZ=            -22.0900
   XY=              0.0000   XZ=              0.0000   YZ=              0.0000
 Traceless Quadrupole moment (field-independent basis, Debye-Ang):
   XX=              2.2760   YY=              4.7358   ZZ=             -7.0118
   XY=              0.0000   XZ=              0.0000   YZ=              0.0000
 Octapole moment (field-independent basis, Debye-Ang**2):
  XXX=              0.0000  YYY=              0.0000  ZZZ=             93.8244  XYY=              0.0000
  XXY=              0.0000  XXZ=             25.1268  XZZ=              0.0000  YZZ=              0.0000
  YYZ=             24.5465  XYZ=              0.0000
 Hexadecapole moment (field-independent basis, Debye-Ang**3):
 XXXX=            -10.2875 YYYY=            -44.0095 ZZZZ=           -338.0086 XXXY=              0.0000
 XXXZ=              0.0000 YYYX=              0.0000 YYYZ=              0.0000 ZZZX=              0.0000
 ZZZY=              0.0000 XXYY=            -10.9051 XXZZ=            -53.1567 YYZZ=            -63.7184
 XXYZ=              0.0000 YYXZ=              0.0000 ZZXY=              0.0000
 N-N= 3.666675239568D+01 E-N=-4.316121600383D+02  KE= 1.502905775618D+02
 Symmetry A1   KE= 7.169567303345D+01
 Symmetry A2   KE= 5.460698594724D+00
 Symmetry B1   KE= 4.448172346146D+00
 Symmetry B2   KE= 6.868603358748D+01
 No NMR shielding tensors so no spin-rotation constants.
 Leave Link  601 at Wed May  6 13:12:43 2020, MaxMem= 1073741824 cpu:       1.2
 (Enter /home/matheus/.gaussian/g09/l122.exe)
 Counterpoise: doing DCBS calculation for fragment   2 NewBq=T
 Leave Link  122 at Wed May  6 13:12:43 2020, MaxMem= 1073741824 cpu:       0.0
 (Enter /home/matheus/.gaussian/g09/l301.exe)
 Basis read from rwf:  (5D, 7F)
 No pseudopotential information found on rwf file.
 There are    71 symmetry adapted basis functions of A1  symmetry.
 There are    29 symmetry adapted basis functions of A2  symmetry.
 There are    37 symmetry adapted basis functions of B1  symmetry.
 There are    60 symmetry adapted basis functions of B2  symmetry.
 Integral buffers will be    131072 words long.
 Raffenetti 2 integral format.
 Two-electron integral symmetry is turned on.
   197 basis functions,   415 primitive gaussians,   229 cartesian basis functions
    18 alpha electrons       18 beta electrons
       nuclear repulsion energy         0.0000000000 Hartrees.
 IExCor=10402 DFT=T Ex=LC-B+HF Corr=LYP ExCW=0 ScaHFX=  1.000000
 ScaDFX=  1.000000  1.000000  1.000000  1.000000 ScalE2=  1.000000  1.000000
 IRadAn=      5 IRanWt=     -1 IRanGd=            0 ICorTp=0
  HFx wShort=  0.000000 wLong=  1.350000 cFull=  0.000000 cShort=  0.000000 cLong=  1.000000
  DFx wShort=  0.000000 wLong=  1.350000 cFull=  0.000000 cShort=  0.000000 cLong=  1.000000
 NAtoms=    5 NActive=    5 NUniq=    3 SFac= 2.78D+00 NAtFMM=   60 NAOKFM=F Big=F
 No density basis found on file   718.
 Leave Link  301 at Wed May  6 13:12:43 2020, MaxMem= 1073741824 cpu:       0.3
 (Enter /home/matheus/.gaussian/g09/l302.exe)
 NPDir=0 NMtPBC=     1 NCelOv=     1 NCel=       1 NClECP=     1 NCelD=      1
         NCelK=      1 NCelE2=     1 NClLst=     1 CellRange=     0.0.
 One-electron integrals computed using PRISM.
 One-electron integral symmetry used in STVInt
 NBasis=   197 RedAO= T  NBF=    71    29    37    60
 NBsUse=   197 1.00D-06 NBFU=    71    29    37    60
 Precomputing XC quadrature grid using
 IXCGrd= 2 IRadAn=           5 IRanWt=          -1 IRanGd=           0 AccXCQ= 0.00D+00.
 NRdTot=     427 NPtTot=      123512 NUsed=      126579 NTot=      126611
 NSgBfM=   229   229   229   229   229 NAtAll=     5     5.
 Leave Link  302 at Wed May  6 13:12:43 2020, MaxMem= 1073741824 cpu:       0.9
 (Enter /home/matheus/.gaussian/g09/l303.exe)
 DipDrv:  MaxL=1.
 Leave Link  303 at Wed May  6 13:12:44 2020, MaxMem= 1073741824 cpu:       0.2
 (Enter /home/matheus/.gaussian/g09/l401.exe)
 Harris functional with IExCor=10402 diagonalized for initial guess.
 ExpMin= 2.53D-02 ExpMax= 1.17D+07 ExpMxC= 1.33D+04 IAcc=3 IRadAn=         5 AccDes= 0.00D+00
 HarFok:  IExCor=10402 AccDes= 0.00D+00 IRadAn=         5 IDoV= 1
 ScaDFX=  1.000000  1.000000  1.000000  1.000000
 FoFCou: FMM=F IPFlag=           0 FMFlag=      100000 FMFlg1=           0
         NFxFlg=           0 DoJE=T BraDBF=F KetDBF=T FulRan=T
         Omega=  0.000000  0.000000  1.000000  0.000000  0.000000 ICntrl=     500 IOpCl=  0
         NMat0=    1 NMatS0=    1 NMatT0=    0 NMatD0=    1 NMtDS0=    0 NMtDT0=    0
         I1Cent=           4 NGrid=           0.
 Petite list used in FoFCou.
 Harris En= -2731.73478336514    
 Initial guess orbital symmetries:
       Occupied  (A1) (A1) (A1) (B2) (B1) (A1) (A1) (B2) (B1) (B2)
                 (A1) (B1) (A1) (A2) (A1) (B2) (A1) (B1)
       Virtual   (A1) (B2) (A1) (B1) (B2) (A1) (A1) (B1) (B2) (A1)
                 (A2) (B2) (A1) (B1) (A1) (A2) (B2) (A1) (B2) (A1)
                 (B2) (B1) (A1) (A2) (A1) (B2) (B2) (A1) (B1) (A1)
                 (B1) (B2) (A2) (A1) (B2) (B1) (A1) (B2) (A1) (B1)
                 (A2) (A1) (A1) (B2) (B1) (B2) (A1) (A2) (B1) (B2)
                 (B2) (A2) (A1) (A1) (B2) (B1) (A2) (A1) (B1) (A1)
                 (B2) (A2) (A1) (B2) (B2) (A1) (A2) (B1) (B2) (A1)
                 (A1) (B2) (B1) (B2) (A1) (A2) (A1) (B2) (B2) (B1)
                 (A1) (B1) (A1) (B1) (A1) (B2) (A1) (A2) (B1) (A2)
                 (B2) (A1) (A2) (B1) (B2) (A1) (B1) (B1) (A2) (B2)
                 (A1) (B2) (A1) (B1) (A1) (A2) (B2) (B1) (A1) (B2)
                 (B2) (A1) (A2) (A1) (B2) (B1) (A2) (B2) (A1) (B2)
                 (B2) (A1) (A2) (B2) (A1) (B1) (A1) (B2) (A2) (B2)
                 (A1) (B1) (A1) (A2) (B2) (A1) (B2) (B1) (A1) (A2)
                 (A1) (B2) (B2) (A1) (B2) (B1) (A1) (B1) (A1) (A2)
                 (B2) (A1) (B1) (A2) (A2) (B2) (A1) (B2) (B2) (A1)
                 (B1) (B2) (B1) (A2) (A1) (A2) (B2) (B2) (A1) (B1)
                 (A2) (A1) (A1) (B2) (B2) (A1) (B2) (A1) (B2)
 The electronic state of the initial guess is 1-A1.
 Leave Link  401 at Wed May  6 13:12:44 2020, MaxMem= 1073741824 cpu:       1.7
 (Enter /home/matheus/.gaussian/g09/l502.exe)
 Closed shell SCF:
 Requested convergence on RMS density matrix=1.00D-08 within 128 cycles.
 Requested convergence on MAX density matrix=1.00D-06.
 Requested convergence on             energy=1.00D-06.
 No special actions if energy rises.
 Using DIIS extrapolation, IDIIS=  1040.
 Integral symmetry usage will be decided dynamically.
       126521 words used for storage of precomputed grid.
 IEnd=      305860 IEndB=      305860 NGot=  1073741824 MDV=  1073505275
 LenX=  1073505275 LenY=  1073452393
 Fock matrices will be formed incrementally for  20 cycles.

 Cycle   1  Pass 1  IDiag  1:
 FoFJK:  IHMeth= 1 ICntrl=     0 DoSepK=T KAlg= 1 I1Cent= 0 FoldK=F
 FoFCou: FMM=F IPFlag=           0 FMFlag=      100000 FMFlg1=           0
         NFxFlg=           0 DoJE=T BraDBF=F KetDBF=F FulRan=T
         Omega=  0.000000  0.000000  1.000000  0.000000  0.000000 ICntrl=     500 IOpCl=  0
         NMat0=    1 NMatS0=    1 NMatT0=    0 NMatD0=    1 NMtDS0=    0 NMtDT0=    0
         I1Cent=           0 NGrid=           0.
 Petite list used in FoFCou.
 E= -2752.70946054950    
 DIIS: error= 6.76D-02 at cycle   1 NSaved=   1.
 NSaved= 1 IEnMin= 1 EnMin= -2752.70946054950     IErMin= 1 ErrMin= 6.76D-02
 ErrMax= 6.76D-02 EMaxC= 1.00D-01 BMatC= 1.18D+00 BMatP= 1.18D+00
 IDIUse=3 WtCom= 3.24D-01 WtEn= 6.76D-01
 Coeff-Com:  0.100D+01
 Coeff-En:   0.100D+01
 Coeff:      0.100D+01
 Gap=     0.764 Goal=   None    Shift=    0.000
 GapD=    0.764 DampG=2.000 DampE=0.500 DampFc=1.0000 IDamp=-1.
 RMSDP=5.07D-03 MaxDP=2.30D-01              OVMax= 3.37D-01

 Cycle   2  Pass 1  IDiag  1:
 RMSU=  3.51D-03    CP:  1.05D+00
 FoFJK:  IHMeth= 1 ICntrl=     0 DoSepK=T KAlg= 1 I1Cent= 0 FoldK=F
 E= -2753.27658332215     Delta-E=       -0.567122772655 Rises=F Damp=F
 DIIS: error= 3.97D-02 at cycle   2 NSaved=   2.
 NSaved= 2 IEnMin= 2 EnMin= -2753.27658332215     IErMin= 2 ErrMin= 3.97D-02
 ErrMax= 3.97D-02 EMaxC= 1.00D-01 BMatC= 3.67D-01 BMatP= 1.18D+00
 IDIUse=3 WtCom= 6.03D-01 WtEn= 3.97D-01
 Coeff-Com:  0.352D+00 0.648D+00
 Coeff-En:   0.000D+00 0.100D+01
 Coeff:      0.212D+00 0.788D+00
 Gap=     0.588 Goal=   None    Shift=    0.000
 RMSDP=2.41D-03 MaxDP=1.43D-01 DE=-5.67D-01 OVMax= 7.78D-02

 Cycle   3  Pass 1  IDiag  1:
 RMSU=  9.13D-04    CP:  1.03D+00  6.01D-01
 FoFJK:  IHMeth= 1 ICntrl=     0 DoSepK=T KAlg= 1 I1Cent= 0 FoldK=F
 E= -2753.40576192604     Delta-E=       -0.129178603887 Rises=F Damp=F
 DIIS: error= 8.72D-03 at cycle   3 NSaved=   3.
 NSaved= 3 IEnMin= 3 EnMin= -2753.40576192604     IErMin= 3 ErrMin= 8.72D-03
 ErrMax= 8.72D-03 EMaxC= 1.00D-01 BMatC= 1.39D-02 BMatP= 3.67D-01
 IDIUse=3 WtCom= 9.13D-01 WtEn= 8.72D-02
 Coeff-Com: -0.107D-01 0.142D+00 0.869D+00
 Coeff-En:   0.000D+00 0.000D+00 0.100D+01
 Coeff:     -0.977D-02 0.130D+00 0.880D+00
 Gap=     0.576 Goal=   None    Shift=    0.000
 RMSDP=4.48D-04 MaxDP=2.43D-02 DE=-1.29D-01 OVMax= 1.23D-02

 Cycle   4  Pass 1  IDiag  1:
 RMSU=  2.37D-04    CP:  1.03D+00  6.55D-01  9.21D-01
 FoFJK:  IHMeth= 1 ICntrl=     0 DoSepK=T KAlg= 1 I1Cent= 0 FoldK=F
 E= -2753.40951943408     Delta-E=       -0.003757508041 Rises=F Damp=F
 DIIS: error= 3.61D-04 at cycle   4 NSaved=   4.
 NSaved= 4 IEnMin= 4 EnMin= -2753.40951943408     IErMin= 4 ErrMin= 3.61D-04
 ErrMax= 3.61D-04 EMaxC= 1.00D-01 BMatC= 2.02D-05 BMatP= 1.39D-02
 IDIUse=3 WtCom= 9.96D-01 WtEn= 3.61D-03
 Coeff-Com: -0.695D-02-0.742D-02 0.159D-01 0.998D+00
 Coeff-En:   0.000D+00 0.000D+00 0.000D+00 0.100D+01
 Coeff:     -0.693D-02-0.740D-02 0.158D-01 0.998D+00
 Gap=     0.581 Goal=   None    Shift=    0.000
 RMSDP=4.92D-05 MaxDP=2.16D-03 DE=-3.76D-03 OVMax= 3.29D-03

 Cycle   5  Pass 1  IDiag  1:
 RMSU=  2.03D-05    CP:  1.03D+00  6.57D-01  9.47D-01  1.06D+00
 FoFJK:  IHMeth= 1 ICntrl=     0 DoSepK=T KAlg= 1 I1Cent= 0 FoldK=F
 E= -2753.40957081627     Delta-E=       -0.000051382190 Rises=F Damp=F
 DIIS: error= 5.49D-05 at cycle   5 NSaved=   5.
 NSaved= 5 IEnMin= 5 EnMin= -2753.40957081627     IErMin= 5 ErrMin= 5.49D-05
 ErrMax= 5.49D-05 EMaxC= 1.00D-01 BMatC= 5.24D-07 BMatP= 2.02D-05
 IDIUse=1 WtCom= 1.00D+00 WtEn= 0.00D+00
 Coeff-Com: -0.104D-03-0.919D-03-0.131D-02-0.164D+00 0.117D+01
 Coeff:     -0.104D-03-0.919D-03-0.131D-02-0.164D+00 0.117D+01
 Gap=     0.581 Goal=   None    Shift=    0.000
 RMSDP=1.06D-05 MaxDP=4.49D-04 DE=-5.14D-05 OVMax= 6.41D-04

 Cycle   6  Pass 1  IDiag  1:
 RMSU=  1.07D-06    CP:  1.03D+00  6.57D-01  9.52D-01  1.08D+00  1.20D+00
 FoFJK:  IHMeth= 1 ICntrl=     0 DoSepK=T KAlg= 1 I1Cent= 0 FoldK=F
 E= -2753.40957228156     Delta-E=       -0.000001465291 Rises=F Damp=F
 DIIS: error= 2.48D-06 at cycle   6 NSaved=   6.
 NSaved= 6 IEnMin= 6 EnMin= -2753.40957228156     IErMin= 6 ErrMin= 2.48D-06
 ErrMax= 2.48D-06 EMaxC= 1.00D-01 BMatC= 1.13D-09 BMatP= 5.24D-07
 IDIUse=1 WtCom= 1.00D+00 WtEn= 0.00D+00
 Coeff-Com:  0.259D-04 0.698D-04-0.149D-03 0.119D-01-0.116D+00 0.110D+01
 Coeff:      0.259D-04 0.698D-04-0.149D-03 0.119D-01-0.116D+00 0.110D+01
 Gap=     0.581 Goal=   None    Shift=    0.000
 RMSDP=5.47D-07 MaxDP=2.34D-05 DE=-1.47D-06 OVMax= 2.48D-05

 Cycle   7  Pass 1  IDiag  1:
 RMSU=  7.32D-08    CP:  1.03D+00  6.57D-01  9.53D-01  1.08D+00  1.21D+00
                    CP:  1.15D+00
 FoFJK:  IHMeth= 1 ICntrl=     0 DoSepK=T KAlg= 1 I1Cent= 0 FoldK=F
 E= -2753.40957228247     Delta-E=       -0.000000000907 Rises=F Damp=F
 DIIS: error= 3.19D-07 at cycle   7 NSaved=   7.
 NSaved= 7 IEnMin= 7 EnMin= -2753.40957228247     IErMin= 7 ErrMin= 3.19D-07
 ErrMax= 3.19D-07 EMaxC= 1.00D-01 BMatC= 1.70D-11 BMatP= 1.13D-09
 IDIUse=1 WtCom= 1.00D+00 WtEn= 0.00D+00
 Coeff-Com:  0.471D-05 0.644D-05-0.301D-04 0.166D-02-0.127D-01 0.622D-01
 Coeff-Com:  0.949D+00
 Coeff:      0.471D-05 0.644D-05-0.301D-04 0.166D-02-0.127D-01 0.622D-01
 Coeff:      0.949D+00
 Gap=     0.581 Goal=   None    Shift=    0.000
 RMSDP=2.57D-08 MaxDP=1.05D-06 DE=-9.07D-10 OVMax= 1.48D-06

 Cycle   8  Pass 1  IDiag  1:
 RMSU=  1.12D-08    CP:  1.03D+00  6.57D-01  9.53D-01  1.08D+00  1.21D+00
                    CP:  1.16D+00  1.09D+00
 FoFJK:  IHMeth= 1 ICntrl=     0 DoSepK=T KAlg= 1 I1Cent= 0 FoldK=F
 E= -2753.40957228255     Delta-E=       -0.000000000076 Rises=F Damp=F
 DIIS: error= 9.44D-08 at cycle   8 NSaved=   8.
 NSaved= 8 IEnMin= 8 EnMin= -2753.40957228255     IErMin= 8 ErrMin= 9.44D-08
 ErrMax= 9.44D-08 EMaxC= 1.00D-01 BMatC= 7.04D-13 BMatP= 1.70D-11
 IDIUse=1 WtCom= 1.00D+00 WtEn= 0.00D+00
 Coeff-Com:  0.742D-07-0.183D-05-0.127D-05-0.241D-03 0.278D-02-0.310D-01
 Coeff-Com:  0.713D-01 0.957D+00
 Coeff:      0.742D-07-0.183D-05-0.127D-05-0.241D-03 0.278D-02-0.310D-01
 Coeff:      0.713D-01 0.957D+00
 Gap=     0.581 Goal=   None    Shift=    0.000
 RMSDP=6.25D-09 MaxDP=2.11D-07 DE=-7.64D-11 OVMax= 4.81D-07

 SCF Done:  E(RLC-B+HF-LYP) =  -2753.40957228     A.U. after    8 cycles
             Convg  =    0.6252D-08             -V/T =  2.0014
 KE= 2.749616595496D+03 PE=-6.579402221209D+03 EE= 1.076376053430D+03
 Leave Link  502 at Wed May  6 13:13:00 2020, MaxMem= 1073741824 cpu:     131.4
 (Enter /home/matheus/.gaussian/g09/l601.exe)
 Copying SCF densities to generalized density rwf, IOpCl= 0 IROHF=0.

 **********************************************************************

            Population analysis using the SCF density.

 **********************************************************************

 Orbital symmetries:
       Occupied  (A1) (A1) (A1) (B2) (B1) (A1) (A1) (B1) (B2) (A1)
                 (B1) (B2) (A1) (A2) (A1) (A1) (B2) (B1)
       Virtual   (A1) (B2) (A1) (B1) (B2) (A1) (A1) (B1) (B2) (A1)
                 (B2) (A2) (A1) (B1) (A1) (A2) (B2) (A1) (B2) (A1)
                 (B1) (A1) (B2) (A2) (A1) (B2) (B2) (A1) (B1) (A1)
                 (B1) (B2) (A2) (A1) (B2) (B1) (A1) (B2) (A1) (B1)
                 (A2) (A1) (A1) (B1) (B2) (A1) (B2) (A2) (B1) (B2)
                 (B2) (A1) (A2) (A1) (B2) (B1) (A2) (A1) (A1) (B1)
                 (B2) (A2) (A1) (B2) (B2) (A1) (A2) (B1) (B2) (A1)
                 (A1) (B2) (B2) (B1) (A1) (A2) (A1) (B2) (B2) (B1)
                 (A1) (B1) (A1) (B1) (A1) (B2) (A1) (B1) (A2) (A2)
                 (A1) (B2) (A2) (B1) (A1) (B2) (B1) (B1) (A2) (B2)
                 (A1) (B2) (A1) (A1) (B1) (A2) (B2) (B1) (A1) (B2)
                 (B2) (A1) (A2) (A1) (B2) (B1) (A2) (B2) (A1) (B2)
                 (B2) (A1) (A2) (B2) (A1) (B1) (A1) (B2) (A2) (B2)
                 (A1) (B1) (A1) (A2) (B2) (A1) (B2) (B1) (A1) (A2)
                 (A1) (B2) (B2) (A1) (B2) (B1) (A1) (B1) (A1) (A2)
                 (B2) (A1) (B1) (A2) (A2) (B2) (A1) (B2) (B2) (A1)
                 (B1) (B2) (B1) (A2) (A1) (A2) (B2) (B2) (A1) (B1)
                 (A2) (A1) (A1) (B2) (B2) (A1) (B2) (A1) (B2)
 The electronic state is 1-A1.
 Alpha  occ. eigenvalues -- -511.65549 -67.18010 -60.85210 -60.85207 -60.85205
 Alpha  occ. eigenvalues --  -10.08108  -7.79671  -7.79670  -7.79670  -3.62634
 Alpha  occ. eigenvalues --   -3.62634  -3.62634  -3.62633  -3.62633  -1.17382
 Alpha  occ. eigenvalues --   -0.55369  -0.55366  -0.55363
 Alpha virt. eigenvalues --    0.02705   0.04733   0.07884   0.09179   0.11496
 Alpha virt. eigenvalues --    0.12619   0.13286   0.14145   0.15213   0.17040
 Alpha virt. eigenvalues --    0.17445   0.17473   0.20733   0.26152   0.26773
 Alpha virt. eigenvalues --    0.27155   0.29593   0.31750   0.33251   0.37657
 Alpha virt. eigenvalues --    0.38688   0.39546   0.39777   0.40608   0.41561
 Alpha virt. eigenvalues --    0.42717   0.46029   0.55572   0.55640   0.60270
 Alpha virt. eigenvalues --    0.62542   0.63113   0.70200   0.70889   0.71495
 Alpha virt. eigenvalues --    0.73832   0.75724   0.78186   0.78330   0.79428
 Alpha virt. eigenvalues --    0.80138   0.84363   0.86460   0.88705   0.89023
 Alpha virt. eigenvalues --    0.89495   0.89830   0.91508   0.98722   0.99104
 Alpha virt. eigenvalues --    1.00262   1.01046   1.02053   1.02739   1.06673
 Alpha virt. eigenvalues --    1.07665   1.10235   1.12721   1.18546   1.18687
 Alpha virt. eigenvalues --    1.19816   1.25795   1.33095   1.34532   1.41779
 Alpha virt. eigenvalues --    1.43384   1.48526   1.49400   1.50605   1.54006
 Alpha virt. eigenvalues --    1.60186   1.64846   1.69473   1.69486   1.74694
 Alpha virt. eigenvalues --    1.78744   1.86386   1.89377   1.95943   2.22192
 Alpha virt. eigenvalues --    2.24305   2.28736   2.35204   2.35828   2.37238
 Alpha virt. eigenvalues --    2.41430   2.44568   2.46429   2.46521   2.49097
 Alpha virt. eigenvalues --    2.49710   2.51416   2.55788   2.56932   2.59703
 Alpha virt. eigenvalues --    2.60481   2.65435   2.66700   2.67447   2.68828
 Alpha virt. eigenvalues --    2.69911   2.70496   2.77033   2.77552   2.79286
 Alpha virt. eigenvalues --    2.81401   2.84238   2.92929   2.93168   2.96318
 Alpha virt. eigenvalues --    3.00543   3.02669   3.11658   3.14349   3.16459
 Alpha virt. eigenvalues --    3.26393   3.27583   3.29091   3.40430   3.56055
 Alpha virt. eigenvalues --    3.62965   3.65989   3.87788   3.88057   4.02058
 Alpha virt. eigenvalues --    4.42489   4.48326   4.51437   4.60685   4.72620
 Alpha virt. eigenvalues --    4.74724   4.80287   4.87662   4.94691   5.04963
 Alpha virt. eigenvalues --    5.17186   5.31954   5.50070   5.65873   5.71035
 Alpha virt. eigenvalues --    5.90720   6.03617   6.29484   6.69507   6.95678
 Alpha virt. eigenvalues --    7.25367   7.37986   7.63509   7.66680   7.79629
 Alpha virt. eigenvalues --    7.87564   8.03188   8.11280   8.12561   8.28641
 Alpha virt. eigenvalues --    8.31872   8.36604   8.71504   9.02299   9.50520
 Alpha virt. eigenvalues --    9.75038   9.76367   9.87471   9.90344   9.94269
 Alpha virt. eigenvalues --   10.20758  10.22418  10.74378  10.86576  11.42754
 Alpha virt. eigenvalues --   11.63133  11.66647  11.92055  12.07063  13.30260
 Alpha virt. eigenvalues --   13.59365  14.55867  62.39700  64.84713
          Condensed to atoms (all electrons):
              1          2          3          4          5
     1  O    0.002717  -0.000307  -0.002567   0.000565  -0.005050
     2  O   -0.000307   0.002717   0.000565  -0.002567  -0.005050
     3  H   -0.002567   0.000565   0.003462  -0.000343  -0.019667
     4  H    0.000565  -0.002567  -0.000343   0.003462  -0.019667
     5  Kr  -0.005050  -0.005050  -0.019667  -0.019667  36.095820
 Mulliken atomic charges:
              1
     1  O    0.004642
     2  O    0.004642
     3  H    0.018550
     4  H    0.018550
     5  Kr  -0.046385
 Sum of Mulliken atomic charges =   0.00000
 Mulliken charges with hydrogens summed into heavy atoms:
              1
     1  O    0.023193
     2  O    0.023193
     5  Kr  -0.046385
 Sum of Mulliken charges with hydrogens summed into heavy atoms =   0.00000
          Condensed to fragments (all electrons):
     1       0.046385
     2      -0.046385
 Electronic spatial extent (au):  <R**2>=            159.1509
 Charge=              0.0000 electrons
 Dipole moment (field-independent basis, Debye):
    X=              0.0000    Y=              0.0000    Z=             -0.0024  Tot=              0.0024
 Quadrupole moment (field-independent basis, Debye-Ang):
   XX=            -17.5818   YY=            -17.5702   ZZ=            -17.5633
   XY=              0.0000   XZ=              0.0000   YZ=              0.0000
 Traceless Quadrupole moment (field-independent basis, Debye-Ang):
   XX=             -0.0101   YY=              0.0016   ZZ=              0.0085
   XY=              0.0000   XZ=              0.0000   YZ=              0.0000
 Octapole moment (field-independent basis, Debye-Ang**2):
  XXX=              0.0000  YYY=              0.0000  ZZZ=            -50.8946  XYY=              0.0000
  XXY=              0.0000  XXZ=            -16.9862  XZZ=              0.0000  YZZ=              0.0000
  YYZ=            -16.9782  XYZ=              0.0000
 Hexadecapole moment (field-independent basis, Debye-Ang**3):
 XXXX=            -18.1162 YYYY=            -18.0759 ZZZZ=           -116.3730 XXXY=              0.0000
 XXXZ=              0.0000 YYYX=              0.0000 YYYZ=              0.0000 ZZZX=              0.0000
 ZZZY=              0.0000 XXYY=             -6.0286 XXZZ=            -22.4320 YYZZ=            -22.4192
 XXYZ=              0.0000 YYXZ=              0.0000 ZZXY=              0.0000
 N-N= 0.000000000000D+00 E-N=-6.579402208424D+03  KE= 2.749616595496D+03
 Symmetry A1   KE= 1.985207906842D+03
 Symmetry A2   KE= 4.759536672794D+01
 Symmetry B1   KE= 3.584099231942D+02
 Symmetry B2   KE= 3.584033987322D+02
 No NMR shielding tensors so no spin-rotation constants.
 Leave Link  601 at Wed May  6 13:13:00 2020, MaxMem= 1073741824 cpu:       0.9
 (Enter /home/matheus/.gaussian/g09/l122.exe)
 Counterpoise: doing MCBS calculation for fragment   1
 Leave Link  122 at Wed May  6 13:13:00 2020, MaxMem= 1073741824 cpu:       0.0
 (Enter /home/matheus/.gaussian/g09/l301.exe)
 Basis read from rwf:  (5D, 7F)
 No pseudopotential information found on rwf file.
 There are    46 symmetry adapted basis functions of A1  symmetry.
 There are    23 symmetry adapted basis functions of A2  symmetry.
 There are    23 symmetry adapted basis functions of B1  symmetry.
 There are    46 symmetry adapted basis functions of B2  symmetry.
 Integral buffers will be    131072 words long.
 Raffenetti 2 integral format.
 Two-electron integral symmetry is turned on.
   138 basis functions,   198 primitive gaussians,   160 cartesian basis functions
     9 alpha electrons        9 beta electrons
       nuclear repulsion energy        36.6667523957 Hartrees.
 IExCor=10402 DFT=T Ex=LC-B+HF Corr=LYP ExCW=0 ScaHFX=  1.000000
 ScaDFX=  1.000000  1.000000  1.000000  1.000000 ScalE2=  1.000000  1.000000
 IRadAn=      5 IRanWt=     -1 IRanGd=            0 ICorTp=0
  HFx wShort=  0.000000 wLong=  1.350000 cFull=  0.000000 cShort=  0.000000 cLong=  1.000000
[...]
                 (A1) (A2) (A1) (B2) (B2) (A1) (B2) (A1) (B2)
 The electronic state of the initial guess is 1-A1.
 Generating alternative initial guess.
 Harris functional with IExCor=10402 diagonalized for initial guess.
 ExpMin= 2.53D-02 ExpMax= 1.17D+07 ExpMxC= 1.33D+04 IAcc=3 IRadAn=         5 AccDes= 0.00D+00
 HarFok:  IExCor=10402 AccDes= 0.00D+00 IRadAn=         5 IDoV= 1
 ScaDFX=  1.000000  1.000000  1.000000  1.000000
 FoFCou: FMM=F IPFlag=           0 FMFlag=      100000 FMFlg1=           0
         NFxFlg=           0 DoJE=T BraDBF=F KetDBF=T FulRan=T
         Omega=  0.000000  0.000000  1.000000  0.000000  0.000000 ICntrl=     500 IOpCl=  0
         NMat0=    1 NMatS0=    1 NMatT0=    0 NMatD0=    1 NMtDS0=    0 NMtDT0=    0
         I1Cent=           4 NGrid=           0.
 Petite list used in FoFCou.
 Harris En= -2731.73404034441    
 Leave Link  401 at Wed May  6 13:28:10 2020, MaxMem= 1073741824 cpu:       2.4
 (Enter /home/matheus/.gaussian/g09/l502.exe)
 Closed shell SCF:
 Requested convergence on RMS density matrix=1.00D-08 within 128 cycles.
 Requested convergence on MAX density matrix=1.00D-06.
 Requested convergence on             energy=1.00D-06.
 No special actions if energy rises.
 Using DIIS extrapolation, IDIIS=  1040.
 Integral symmetry usage will be decided dynamically.
       126823 words used for storage of precomputed grid.
 IEnd=      306162 IEndB=      306162 NGot=  1073741824 MDV=  1073504973
 LenX=  1073504973 LenY=  1073452091
 Fock matrices will be formed incrementally for  20 cycles.

 Cycle   1  Pass 1  IDiag  1:
 FoFJK:  IHMeth= 1 ICntrl=     0 DoSepK=T KAlg= 1 I1Cent= 0 FoldK=F
 FoFCou: FMM=F IPFlag=           0 FMFlag=      100000 FMFlg1=           0
         NFxFlg=           0 DoJE=T BraDBF=F KetDBF=F FulRan=T
         Omega=  0.000000  0.000000  1.000000  0.000000  0.000000 ICntrl=     500 IOpCl=  0
         NMat0=    1 NMatS0=    1 NMatT0=    0 NMatD0=    1 NMtDS0=    0 NMtDT0=    0
         I1Cent=           0 NGrid=           0.
 Petite list used in FoFCou.
 E= -2753.40937789307    
 DIIS: error= 1.68D-04 at cycle   1 NSaved=   1.
 NSaved= 1 IEnMin= 1 EnMin= -2753.40937789307     IErMin= 1 ErrMin= 1.68D-04
 ErrMax= 1.68D-04 EMaxC= 1.00D-01 BMatC= 6.21D-06 BMatP= 6.21D-06
 IDIUse=3 WtCom= 9.98D-01 WtEn= 1.68D-03
 Coeff-Com:  0.100D+01
 Coeff-En:   0.100D+01
 Coeff:      0.100D+01
 Gap=     0.581 Goal=   None    Shift=    0.000
 RMSDP=1.53D-05 MaxDP=7.24D-04              OVMax= 3.98D-04

 Cycle   2  Pass 1  IDiag  1:
 RMSU=  1.08D-05    CP:  1.00D+00
 FoFJK:  IHMeth= 1 ICntrl=     0 DoSepK=T KAlg= 1 I1Cent= 0 FoldK=F
 E= -2753.40937880523     Delta-E=       -0.000000912157 Rises=F Damp=F
 DIIS: error= 8.54D-06 at cycle   2 NSaved=   2.
 NSaved= 2 IEnMin= 2 EnMin= -2753.40937880523     IErMin= 2 ErrMin= 8.54D-06
 ErrMax= 8.54D-06 EMaxC= 1.00D-01 BMatC= 6.82D-09 BMatP= 6.21D-06
 IDIUse=1 WtCom= 1.00D+00 WtEn= 0.00D+00
 Coeff-Com: -0.110D-01 0.101D+01
 Coeff:     -0.110D-01 0.101D+01
 Gap=     0.581 Goal=   None    Shift=    0.000
 RMSDP=1.45D-06 MaxDP=5.93D-05 DE=-9.12D-07 OVMax= 6.03D-05

 Cycle   3  Pass 1  IDiag  1:
 RMSU=  5.39D-07    CP:  1.00D+00  1.08D+00
 FoFJK:  IHMeth= 1 ICntrl=     0 DoSepK=T KAlg= 1 I1Cent= 0 FoldK=F
 E= -2753.40937881735     Delta-E=       -0.000000012121 Rises=F Damp=F
 DIIS: error= 1.25D-06 at cycle   3 NSaved=   3.
 NSaved= 3 IEnMin= 3 EnMin= -2753.40937881735     IErMin= 3 ErrMin= 1.25D-06
 ErrMax= 1.25D-06 EMaxC= 1.00D-01 BMatC= 1.81D-10 BMatP= 6.82D-09
 IDIUse=1 WtCom= 1.00D+00 WtEn= 0.00D+00
 Coeff-Com:  0.241D-03-0.112D+00 0.111D+01
 Coeff:      0.241D-03-0.112D+00 0.111D+01
 Gap=     0.581 Goal=   None    Shift=    0.000
 RMSDP=1.82D-07 MaxDP=5.48D-06 DE=-1.21D-08 OVMax= 1.18D-05

 Cycle   4  Pass 1  IDiag  1:
 RMSU=  5.85D-08    CP:  1.00D+00  1.09D+00  1.19D+00
 FoFJK:  IHMeth= 1 ICntrl=     0 DoSepK=T KAlg= 1 I1Cent= 0 FoldK=F
 E= -2753.40937881777     Delta-E=       -0.000000000427 Rises=F Damp=F
 DIIS: error= 3.63D-07 at cycle   4 NSaved=   4.
 NSaved= 4 IEnMin= 4 EnMin= -2753.40937881777     IErMin= 4 ErrMin= 3.63D-07
 ErrMax= 3.63D-07 EMaxC= 1.00D-01 BMatC= 1.73D-11 BMatP= 1.81D-10
 IDIUse=1 WtCom= 1.00D+00 WtEn= 0.00D+00
 Coeff-Com:  0.260D-03-0.453D-01 0.268D+00 0.777D+00
 Coeff:      0.260D-03-0.453D-01 0.268D+00 0.777D+00
 Gap=     0.581 Goal=   None    Shift=    0.000
 RMSDP=2.25D-08 MaxDP=7.77D-07 DE=-4.27D-10 OVMax= 1.09D-06

 Cycle   5  Pass 1  IDiag  1:
 RMSU=  1.09D-08    CP:  1.00D+00  1.08D+00  1.21D+00  1.09D+00
 FoFJK:  IHMeth= 1 ICntrl=     0 DoSepK=T KAlg= 1 I1Cent= 0 FoldK=F
 E= -2753.40937881782     Delta-E=       -0.000000000043 Rises=F Damp=F
 DIIS: error= 9.90D-08 at cycle   5 NSaved=   5.
 NSaved= 5 IEnMin= 5 EnMin= -2753.40937881782     IErMin= 5 ErrMin= 9.90D-08
 ErrMax= 9.90D-08 EMaxC= 1.00D-01 BMatC= 3.95D-13 BMatP= 1.73D-11
 IDIUse=1 WtCom= 1.00D+00 WtEn= 0.00D+00
 Coeff-Com: -0.215D-04 0.662D-02-0.594D-01-0.289D-01 0.108D+01
 Coeff:     -0.215D-04 0.662D-02-0.594D-01-0.289D-01 0.108D+01
 Gap=     0.581 Goal=   None    Shift=    0.000
 RMSDP=9.36D-09 MaxDP=3.76D-07 DE=-4.27D-11 OVMax= 4.44D-07

 SCF Done:  E(RLC-B+HF-LYP) =  -2753.40937882     A.U. after    5 cycles
             Convg  =    0.9364D-08             -V/T =  2.0014
 KE= 2.749687554182D+03 PE=-6.579480496235D+03 EE= 1.076383563235D+03
 Leave Link  502 at Wed May  6 13:28:19 2020, MaxMem= 1073741824 cpu:      74.0
 (Enter /home/matheus/.gaussian/g09/l122.exe)
 Restoring MOs from calculation   4 to rwf.
 Counterpoise: doing MCBS calculation for fragment   1
 Leave Link  122 at Wed May  6 13:28:19 2020, MaxMem= 1073741824 cpu:       0.0
 (Enter /home/matheus/.gaussian/g09/l301.exe)
 Basis read from rwf:  (5D, 7F)
 No pseudopotential information found on rwf file.
 There are    46 symmetry adapted basis functions of A1  symmetry.
 There are    23 symmetry adapted basis functions of A2  symmetry.
 There are    23 symmetry adapted basis functions of B1  symmetry.
 There are    46 symmetry adapted basis functions of B2  symmetry.
 Integral buffers will be    131072 words long.
 Raffenetti 2 integral format.
 Two-electron integral symmetry is turned on.
   138 basis functions,   198 primitive gaussians,   160 cartesian basis functions
     9 alpha electrons        9 beta electrons
       nuclear repulsion energy        36.6667523957 Hartrees.
 IExCor=10402 DFT=T Ex=LC-B+HF Corr=LYP ExCW=0 ScaHFX=  1.000000
 ScaDFX=  1.000000  1.000000  1.000000  1.000000 ScalE2=  1.000000  1.000000
 IRadAn=      5 IRanWt=     -1 IRanGd=            0 ICorTp=0
  HFx wShort=  0.000000 wLong=  1.350000 cFull=  0.000000 cShort=  0.000000 cLong=  1.000000
  DFx wShort=  0.000000 wLong=  1.350000 cFull=  0.000000 cShort=  0.000000 cLong=  1.000000
 NAtoms=    5 NActive=    4 NUniq=    2 SFac= 4.00D+00 NAtFMM=   60 NAOKFM=F Big=F
 No density basis found on file   718.
 Leave Link  301 at Wed May  6 13:28:20 2020, MaxMem= 1073741824 cpu:       0.2
 (Enter /home/matheus/.gaussian/g09/l302.exe)
 NPDir=0 NMtPBC=     1 NCelOv=     1 NCel=       1 NClECP=     1 NCelD=      1
         NCelK=      1 NCelE2=     1 NClLst=     1 CellRange=     0.0.
 One-electron integrals computed using PRISM.
 One-electron integral symmetry used in STVInt
 NBasis=   138 RedAO= T  NBF=    46    23    23    46
 NBsUse=   138 1.00D-06 NBFU=    46    23    23    46
 Precomputing XC quadrature grid using
 IXCGrd= 2 IRadAn=           5 IRanWt=          -1 IRanGd=           0 AccXCQ= 0.00D+00.
 NRdTot=     344 NPtTot=       92556 NUsed=       95038 NTot=       95070
 NSgBfM=   160   160   160   160   160 NAtAll=     4     4.
 Leave Link  302 at Wed May  6 13:28:20 2020, MaxMem= 1073741824 cpu:       0.8
 (Enter /home/matheus/.gaussian/g09/l303.exe)
 DipDrv:  MaxL=1.
 Leave Link  303 at Wed May  6 13:28:20 2020, MaxMem= 1073741824 cpu:       0.2
 (Enter /home/matheus/.gaussian/g09/l401.exe)
 Initial guess read from the read-write file.
 Guess basis will be translated and rotated to current coordinates.
 Initial guess orbital symmetries:
       Occupied  (A1) (B2) (A1) (B2) (A1) (B1) (A1) (B2) (A2)
       Virtual   (A1) (B2) (A1) (B2) (B2) (B1) (A1) (A1) (A2) (B1)
                 (B2) (A1) (B2) (A1) (A2) (B2) (A1) (B2) (B2) (A1)
                 (B1) (A1) (B2) (B1) (A1) (A2) (A2) (B1) (B2) (A1)
                 (B2) (A1) (A1) (B1) (A1) (B1) (B2) (A2) (B2) (B2)
                 (A1) (A2) (B2) (A2) (B2) (A1) (B1) (B2) (A1) (A2)
                 (A1) (B2) (B1) (A1) (B2) (A1) (B1) (A1) (A2) (B1)
                 (B2) (A1) (A2) (A1) (B2) (B2) (A1) (B1) (B2) (B1)
                 (B2) (A2) (A2) (A1) (A1) (B2) (B2) (A2) (B2) (A1)
                 (B2) (B1) (B1) (A1) (B1) (A2) (A2) (A1) (B2) (A2)
                 (A1) (A1) (B2) (B2) (A1) (A1) (B1) (B2) (A2) (B2)
                 (B2) (A1) (B1) (A1) (B2) (B1) (A1) (A2) (B2) (A1)
                 (B1) (A2) (A1) (B1) (B1) (B2) (A2) (A2) (A1) (B2)
                 (A1) (A2) (B2) (B2) (A1) (B2) (B2) (A1) (B2)
 The electronic state of the initial guess is 1-A1.
 Generating alternative initial guess.
 Harris functional with IExCor=10402 diagonalized for initial guess.
 ExpMin= 2.53D-02 ExpMax= 1.53D+04 ExpMxC= 5.22D+02 IAcc=3 IRadAn=         5 AccDes= 0.00D+00
 HarFok:  IExCor=10402 AccDes= 0.00D+00 IRadAn=         5 IDoV= 1
 ScaDFX=  1.000000  1.000000  1.000000  1.000000
 FoFCou: FMM=F IPFlag=           0 FMFlag=      100000 FMFlg1=           0
         NFxFlg=           0 DoJE=T BraDBF=F KetDBF=T FulRan=T
         Omega=  0.000000  0.000000  1.000000  0.000000  0.000000 ICntrl=     500 IOpCl=  0
         NMat0=    1 NMatS0=    1 NMatT0=    0 NMatD0=    1 NMtDS0=    0 NMtDT0=    0
         I1Cent=           4 NGrid=           0.
 Petite list used in FoFCou.
 Harris En= -143.219059442687    
 Leave Link  401 at Wed May  6 13:28:20 2020, MaxMem= 1073741824 cpu:       1.5
 (Enter /home/matheus/.gaussian/g09/l502.exe)
 Closed shell SCF:
 Requested convergence on RMS density matrix=1.00D-08 within 128 cycles.
 Requested convergence on MAX density matrix=1.00D-06.
 Requested convergence on             energy=1.00D-06.
 No special actions if energy rises.
 Using DIIS extrapolation, IDIIS=  1040.
 Integral symmetry usage will be decided dynamically.
        94980 words used for storage of precomputed grid.
 IEnd=      192636 IEndB=      192636 NGot=  1073741824 MDV=  1073591589
 LenX=  1073591589 LenY=  1073565548
 Fock matrices will be formed incrementally for  20 cycles.

 Cycle   1  Pass 1  IDiag  1:
 FoFJK:  IHMeth= 1 ICntrl=     0 DoSepK=T KAlg= 1 I1Cent= 0 FoldK=F
 FoFCou: FMM=F IPFlag=           0 FMFlag=      100000 FMFlg1=           0
         NFxFlg=           0 DoJE=T BraDBF=F KetDBF=F FulRan=T
         Omega=  0.000000  0.000000  1.000000  0.000000  0.000000 ICntrl=     500 IOpCl=  0
         NMat0=    1 NMatS0=    1 NMatT0=    0 NMatD0=    1 NMtDS0=    0 NMtDT0=    0
         I1Cent=           0 NGrid=           0.
 Petite list used in FoFCou.
 E= -151.204700640830    
 DIIS: error= 3.16D-13 at cycle   1 NSaved=   1.
 NSaved= 1 IEnMin= 1 EnMin= -151.204700640830     IErMin= 1 ErrMin= 3.16D-13
 ErrMax= 3.16D-13 EMaxC= 1.00D-01 BMatC= 1.17D-23 BMatP= 1.17D-23
 IDIUse=1 WtCom= 1.00D+00 WtEn= 0.00D+00
 Coeff-Com:  0.100D+01
 Coeff:      0.100D+01
 Gap=     0.505 Goal=   None    Shift=    0.000
 RMSDP=6.66D-14 MaxDP=2.69D-12              OVMax= 8.75D-13

 SCF Done:  E(RLC-B+HF-LYP) =  -151.204700641     A.U. after    1 cycles
             Convg  =    0.6658D-13             -V/T =  2.0061
 KE= 1.502910224388D+02 PE=-4.316109534689D+02 EE= 9.344847799362D+01
 Leave Link  502 at Wed May  6 13:28:21 2020, MaxMem= 1073741824 cpu:       6.4
 (Enter /home/matheus/.gaussian/g09/l122.exe)
 Restoring MOs from calculation   5 to rwf.
 Counterpoise: doing MCBS calculation for fragment   2
 Leave Link  122 at Wed May  6 13:28:21 2020, MaxMem= 1073741824 cpu:       0.0
 (Enter /home/matheus/.gaussian/g09/l301.exe)
 Basis read from rwf:  (5D, 7F)
 No pseudopotential information found on rwf file.
 There are    25 symmetry adapted basis functions of A1  symmetry.
 There are     6 symmetry adapted basis functions of A2  symmetry.
 There are    14 symmetry adapted basis functions of B1  symmetry.
 There are    14 symmetry adapted basis functions of B2  symmetry.
 Integral buffers will be    131072 words long.
 Raffenetti 2 integral format.
 Two-electron integral symmetry is turned on.
    59 basis functions,   217 primitive gaussians,    69 cartesian basis functions
    18 alpha electrons       18 beta electrons
       nuclear repulsion energy         0.0000000000 Hartrees.
 IExCor=10402 DFT=T Ex=LC-B+HF Corr=LYP ExCW=0 ScaHFX=  1.000000
 ScaDFX=  1.000000  1.000000  1.000000  1.000000 ScalE2=  1.000000  1.000000
 IRadAn=      5 IRanWt=     -1 IRanGd=            0 ICorTp=0
  HFx wShort=  0.000000 wLong=  1.350000 cFull=  0.000000 cShort=  0.000000 cLong=  1.000000
  DFx wShort=  0.000000 wLong=  1.350000 cFull=  0.000000 cShort=  0.000000 cLong=  1.000000
 NAtoms=    5 NActive=    1 NUniq=    1 SFac= 1.00D+00 NAtFMM=   60 NAOKFM=F Big=F
 No density basis found on file   718.
 Leave Link  301 at Wed May  6 13:28:21 2020, MaxMem= 1073741824 cpu:       0.3
 (Enter /home/matheus/.gaussian/g09/l302.exe)
 NPDir=0 NMtPBC=     1 NCelOv=     1 NCel=       1 NClECP=     1 NCelD=      1
         NCelK=      1 NCelE2=     1 NClLst=     1 CellRange=     0.0.
 One-electron integrals computed using PRISM.
 One-electron integral symmetry used in STVInt
 NBasis=    59 RedAO= T  NBF=    25     6    14    14
 NBsUse=    59 1.00D-06 NBFU=    25     6    14    14
 Precomputing XC quadrature grid using
 IXCGrd= 2 IRadAn=           5 IRanWt=          -1 IRanGd=           0 AccXCQ= 0.00D+00.
 NRdTot=      81 NPtTot=       30352 NUsed=       30981 NTot=       31013
 NSgBfM=    69    69    69    69    69 NAtAll=     1     1.
 Leave Link  302 at Wed May  6 13:28:21 2020, MaxMem= 1073741824 cpu:       0.7
 (Enter /home/matheus/.gaussian/g09/l303.exe)
 DipDrv:  MaxL=1.
 Leave Link  303 at Wed May  6 13:28:21 2020, MaxMem= 1073741824 cpu:       0.2
 (Enter /home/matheus/.gaussian/g09/l401.exe)
 Initial guess read from the read-write file.
 Guess basis will be translated and rotated to current coordinates.
 Initial guess orbital symmetries:
       Occupied  (A1) (A1) (B2) (B1) (A1) (A1) (B2) (B1) (A1) (B2)
                 (B1) (A2) (A1) (A1) (A1) (B2) (A1) (B1)
       Virtual   (A1) (A1) (B2) (B1) (B2) (B1) (A2) (A1) (A1) (A1)
                 (B2) (B1) (A1) (B2) (B1) (A2) (A1) (A1) (A1) (B2)
                 (B1) (A2) (B2) (A1) (B1) (A1) (B2) (B1) (B2) (B1)
                 (A2) (A1) (A1) (A1) (B2) (B1) (A2) (B2) (B1) (A1)
                 (A1)
 The electronic state of the initial guess is 1-A1.
 Generating alternative initial guess.
 Harris functional with IExCor=10402 diagonalized for initial guess.
 ExpMin= 4.00D-02 ExpMax= 1.17D+07 ExpMxC= 1.33D+04 IAcc=3 IRadAn=         5 AccDes= 0.00D+00
 HarFok:  IExCor=10402 AccDes= 0.00D+00 IRadAn=         5 IDoV= 1
 ScaDFX=  1.000000  1.000000  1.000000  1.000000
 FoFCou: FMM=F IPFlag=           0 FMFlag=      100000 FMFlg1=           0
         NFxFlg=           0 DoJE=T BraDBF=F KetDBF=T FulRan=T
         Omega=  0.000000  0.000000  1.000000  0.000000  0.000000 ICntrl=     500 IOpCl=  0
         NMat0=    1 NMatS0=    1 NMatT0=    0 NMatD0=    1 NMtDS0=    0 NMtDT0=    0
         I1Cent=           4 NGrid=           0.
 Petite list used in FoFCou.
 Harris En= -2731.73388500824    
 Leave Link  401 at Wed May  6 13:28:21 2020, MaxMem= 1073741824 cpu:       1.0
 (Enter /home/matheus/.gaussian/g09/l502.exe)
 Closed shell SCF:
 Requested convergence on RMS density matrix=1.00D-08 within 128 cycles.
 Requested convergence on MAX density matrix=1.00D-06.
 Requested convergence on             energy=1.00D-06.
 No special actions if energy rises.
 Using DIIS extrapolation, IDIIS=  1040.
 Integral symmetry usage will be decided dynamically.
        30923 words used for storage of precomputed grid.
 IEnd=       64522 IEndB=       64522 NGot=  1073741824 MDV=  1073698773
 LenX=  1073698773 LenY=  1073693571
 Fock matrices will be formed incrementally for  20 cycles.

 Cycle   1  Pass 1  IDiag  1:
 FoFJK:  IHMeth= 1 ICntrl=     0 DoSepK=T KAlg= 1 I1Cent= 0 FoldK=F
 FoFCou: FMM=F IPFlag=           0 FMFlag=      100000 FMFlg1=           0
         NFxFlg=           0 DoJE=T BraDBF=F KetDBF=F FulRan=T
         Omega=  0.000000  0.000000  1.000000  0.000000  0.000000 ICntrl=     500 IOpCl=  0
         NMat0=    1 NMatS0=    1 NMatT0=    0 NMatD0=    1 NMtDS0=    0 NMtDT0=    0
         I1Cent=           0 NGrid=           0.
 Petite list used in FoFCou.
 E= -2753.40934852740    
 DIIS: error= 1.97D-13 at cycle   1 NSaved=   1.
 NSaved= 1 IEnMin= 1 EnMin= -2753.40934852740     IErMin= 1 ErrMin= 1.97D-13
 ErrMax= 1.97D-13 EMaxC= 1.00D-01 BMatC= 1.17D-24 BMatP= 1.17D-24
 IDIUse=1 WtCom= 1.00D+00 WtEn= 0.00D+00
 Coeff-Com:  0.100D+01
 Coeff:      0.100D+01
 Gap=     0.640 Goal=   None    Shift=    0.000
 RMSDP=5.20D-15 MaxDP=1.52D-13              OVMax= 2.27D-14

 SCF Done:  E(RLC-B+HF-LYP) =  -2753.40934853     A.U. after    1 cycles
             Convg  =    0.5197D-14             -V/T =  2.0014
 KE= 2.749695852517D+03 PE=-6.579489077514D+03 EE= 1.076383876470D+03
 Leave Link  502 at Wed May  6 13:28:23 2020, MaxMem= 1073741824 cpu:      12.3
 (Enter /home/matheus/.gaussian/g09/l122.exe)
 Restoring MOs from calculation   1 to rwf.
 Counterpoise: corrected energy =   -2904.614236598435
 Counterpoise: BSSE energy =       0.000034103046
 Leave Link  122 at Wed May  6 13:28:23 2020, MaxMem= 1073741824 cpu:       0.0
 (Enter /home/matheus/.gaussian/g09/l108.exe)
 Scan completed.

 Summary of the potential surface scan:
   N      R1          SCF    
 ----  ---------  -----------
    1     3.0000  -2753.40935
    2     3.1000  -2753.40935
    3     3.2000  -2753.40935
    4     3.3000  -2753.40935
    5     3.4000  -2753.40935
    6     3.5000  -2753.40935
    7     3.6000  -2753.40935
    8     3.7000  -2753.40935
    9     3.8000  -2753.40935
   10     3.9000  -2753.40935
   11     4.0000  -2753.40935
   12     4.1000  -2753.40935
   13     4.2000  -2753.40935
   14     4.3000  -2753.40935
   15     4.4000  -2753.40935
   16     4.5000  -2753.40935
   17     4.6000  -2753.40935
   18     4.7000  -2753.40935
   19     4.8000  -2753.40935
   20     4.9000  -2753.40935
   21     5.0000  -2753.40935
 ----  ---------  -----------
  
 Leave Link  108 at Wed May  6 13:28:23 2020, MaxMem= 1073741824 cpu:       0.0
 (Enter /home/matheus/.gaussian/g09/l9999.exe)

 Test job not archived.
 1\1\GINC-REDGIANT\Scan\RLC-BLYP\Aug-CC-pVTZ\H2Kr1O2\MATHEUS\06-May-202
 0\1\\#p lc-blyp/aug-cc-PVTz iop(3/107=1350000000) iop(3/108=1350000000
 ) int=ultrafine counterpoise=2 Scan\\TCC\\0,1\O,0,0.,0.,0.725\O,0,0.,0
 .,-0.725\H,0,0.,0.9187205947,1.0235104166\H,0,0.,0.9187205947,-1.02351
 04166\Kr,0,0.,R1,0.\\R1=3.,s,20,0.1\\Version=EM64L-G09RevC.01\State=1-
 A1\HF=-2753.4093485,-2753.4093485,-2753.4093485,-2753.4093485,-2753.40
 93485,-2753.4093485,-2753.4093485,-2753.4093485,-2753.4093485,-2753.40
 93485,-2753.4093485,-2753.4093485,-2753.4093485,-2753.4093485,-2753.40
 93485,-2753.4093485,-2753.4093485,-2753.4093485,-2753.4093485,-2753.40
 93485,-2753.4093485\RMSD=5.473e-09,3.077e-10,7.420e-11,2.033e-11,7.197
 e-12,3.153e-12,1.453e-12,6.881e-13,3.256e-13,1.551e-13,7.167e-14,4.127
 e-14,1.954e-14,1.201e-14,6.572e-15,5.046e-15,1.078e-14,3.796e-15,1.051
 e-14,6.926e-15,5.197e-15\PG=C02V [C2(Kr1),SGV(H2O2)]\\@


 THE RARE EARTHS PERPLEX US IN OUR RESEARCHES,
 BAFFLE US IN OUR SPECULATIONS, AND HAUNT US IN OUR
 VERY DREAMS.  THEY STRETCH LIKE AN UNKNOWN BEFORE US,
 MOCKING, MYSTIFYING, AND MURMURING STRANGE REVELATIONS
 AND POSSIBILITIES.  -- SIR WILLIAM CROOKE, 1832-1919
 Job cpu time:  0 days  2 hours 11 minutes 35.3 seconds.
 File lengths (MBytes):  RWF=     33 Int=      0 D2E=      0 Chk=      8 Scr=      1
 Normal termination of Gaussian 09 at Wed May  6 13:28:23 2020.
