 Entering Gaussian System, Link 0=g09
 Input=/home/matheus/.tcc/Inputs/Inputs-lc-blyp/H2O2-Kr_27.com
 Output=/home/matheus/.tcc/Logs/Logs-lc-blyp/H2O2-Kr_27.log
 Initial command:
 /home/matheus/.gaussian/g09/l1.exe /home/matheus/.gaussian/g09/scratch/Gau-11220.inp -scrdir=/home/matheus/.gaussian/g09/scratch/
 Entering Link 1 = /home/matheus/.gaussian/g09/l1.exe PID=     11223.
  
 Copyright (c) 1988,1990,1992,1993,1995,1998,2003,2009,2011,
            Gaussian, Inc.  All Rights Reserved.
  
 This is part of the Gaussian(R) 09 program.  It is based on
 the Gaussian(R) 03 system (copyright 2003, Gaussian, Inc.),
 the Gaussian(R) 98 system (copyright 1998, Gaussian, Inc.),
 the Gaussian(R) 94 system (copyright 1995, Gaussian, Inc.),
 the Gaussian 92(TM) system (copyright 1992, Gaussian, Inc.),
 the Gaussian 90(TM) system (copyright 1990, Gaussian, Inc.),
 the Gaussian 88(TM) system (copyright 1988, Gaussian, Inc.),
 the Gaussian 86(TM) system (copyright 1986, Carnegie Mellon
 University), and the Gaussian 82(TM) system (copyright 1983,
 Carnegie Mellon University). Gaussian is a federally registered
 trademark of Gaussian, Inc.
  
 This software contains proprietary and confidential information,
 including trade secrets, belonging to Gaussian, Inc.
  
 This software is provided under written license and may be
 used, copied, transmitted, or stored only in accord with that
 written license.
  
 The following legend is applicable only to US Government
 contracts under FAR:
  
                    RESTRICTED RIGHTS LEGEND
  
 Use, reproduction and disclosure by the US Government is
 subject to restrictions as set forth in subparagraphs (a)
 and (c) of the Commercial Computer Software - Restricted
 Rights clause in FAR 52.227-19.
  
 Gaussian, Inc.
 340 Quinnipiac St., Bldg. 40, Wallingford CT 06492
  
  
 ---------------------------------------------------------------
 Warning -- This program may not be used in any manner that
 competes with the business of Gaussian, Inc. or will provide
 assistance to any competitor of Gaussian, Inc.  The licensee
 of this program is prohibited from giving any competitor of
 Gaussian, Inc. access to this program.  By using this program,
 the user acknowledges that Gaussian, Inc. is engaged in the
 business of creating and licensing software in the field of
 computational chemistry and represents and warrants to the
 licensee that it is not a competitor of Gaussian, Inc. and that
 it will not use this program in any manner prohibited above.
 ---------------------------------------------------------------
  

 Cite this work as:
 Gaussian 09, Revision C.01,
 M. J. Frisch, G. W. Trucks, H. B. Schlegel, G. E. Scuseria, 
 M. A. Robb, J. R. Cheeseman, G. Scalmani, V. Barone, B. Mennucci, 
 G. A. Petersson, H. Nakatsuji, M. Caricato, X. Li, H. P. Hratchian, 
 A. F. Izmaylov, J. Bloino, G. Zheng, J. L. Sonnenberg, M. Hada, 
 M. Ehara, K. Toyota, R. Fukuda, J. Hasegawa, M. Ishida, T. Nakajima, 
 Y. Honda, O. Kitao, H. Nakai, T. Vreven, J. A. Montgomery, Jr., 
 J. E. Peralta, F. Ogliaro, M. Bearpark, J. J. Heyd, E. Brothers, 
 K. N. Kudin, V. N. Staroverov, T. Keith, R. Kobayashi, J. Normand, 
 K. Raghavachari, A. Rendell, J. C. Burant, S. S. Iyengar, J. Tomasi, 
 M. Cossi, N. Rega, J. M. Millam, M. Klene, J. E. Knox, J. B. Cross, 
 V. Bakken, C. Adamo, J. Jaramillo, R. Gomperts, R. E. Stratmann, 
 O. Yazyev, A. J. Austin, R. Cammi, C. Pomelli, J. W. Ochterski, 
 R. L. Martin, K. Morokuma, V. G. Zakrzewski, G. A. Voth, 
 P. Salvador, J. J. Dannenberg, S. Dapprich, A. D. Daniels, 
 O. Farkas, J. B. Foresman, J. V. Ortiz, J. Cioslowski, 
 and D. J. Fox, Gaussian, Inc., Wallingford CT, 2010.
 
 ******************************************
 Gaussian 09:  EM64L-G09RevC.01 23-Sep-2011
                11-May-2020 
 ******************************************
 %mem=8GB
 %nproc=8
 Will use up to    8 processors via shared memory.
 ----------------------------------------------------------------------
 #p lc-blyp/aug-cc-PVTz iop(3/107=1350000000) iop(3/108=1350000000) int
 =ultrafine counterpoise=2 Scan
 ----------------------------------------------------------------------
 1/38=1,60=1,62=2/1,8;
 2/12=2,17=6,18=5,29=3,40=1/2;
 1/38=1,53=5172,62=2/22;
 3/5=16,6=1,7=10,11=2,16=1,25=1,30=1,74=1000402,75=-5,107=1350000000,108=1350000000/1,2,3;
 4//1;
 5/5=2,38=5/2;
 6/7=2,8=2,9=2,10=2,18=1,28=1/1;
 1/53=4052,62=2,63=1/22;
 3/5=7,6=11,7=10,11=2,16=1,25=1,30=1,74=1000402,75=-5,82=7,107=1350000000,108=1350000000/1,2,3;
 4//1;
 5/5=2,38=5/2;
 6/7=2,8=2,9=2,10=2,18=1,28=1/1;
 1/53=3042,62=2,63=2/22;
 3/5=7,6=11,7=10,11=2,16=1,25=1,30=1,74=1000402,75=-5,82=7,107=1350000000,108=1350000000/1,2,3;
 4//1;
 5/5=2,38=5/2;
 6/7=2,8=2,9=2,10=2,18=1,28=1/1;
 1/53=2032,62=2,63=3/22;
 3/5=7,6=11,7=10,11=2,16=1,25=1,30=1,74=1000402,75=-5,82=7,107=1350000000,108=1350000000/1,2,3;
 4//1;
 5/5=2,38=5/2;
 6/7=2,8=2,9=2,10=2,18=1,28=1/1;
 1/53=1022,62=2,63=4/22;
 3/5=7,6=11,7=10,11=2,16=1,25=1,30=1,74=1000402,75=-5,82=7,107=1350000000,108=1350000000/1,2,3;
 4//1;
 5/5=2,38=5/2;
 6/7=2,8=2,9=2,10=2,18=1,28=1/1;
 1/53=5014,62=2,63=5/22;
 1/60=1,62=2/8(1);
 99/9=1/99;
 2/29=3/2;
 1/53=5173,62=2/22;
 3/5=7,6=11,7=10,11=2,16=1,25=1,30=1,74=1000402,75=-5,82=7,107=1350000000,108=1350000000/1,2,3;
 4/5=5,16=3/1;
 5/5=2,38=5/2;
 1/53=4053,62=2,63=1/22;
 3/5=7,6=11,7=10,11=2,16=1,25=1,30=1,74=1000402,75=-5,82=7,107=1350000000,108=1350000000/1,2,3;
 4/5=5,16=3/1;
 5/5=2,38=5/2;
 1/53=3043,62=2,63=2/22;
 3/5=7,6=11,7=10,11=2,16=1,25=1,30=1,74=1000402,75=-5,82=7,107=1350000000,108=1350000000/1,2,3;
 4/5=5,16=3/1;
 5/5=2,38=5/2;
 1/53=2033,62=2,63=3/22;
 3/5=7,6=11,7=10,11=2,16=1,25=1,30=1,74=1000402,75=-5,82=7,107=1350000000,108=1350000000/1,2,3;
 4/5=5,16=3/1;
 5/5=2,38=5/2;
 1/53=1024,62=2,63=4/22;
 3/5=7,6=11,7=10,11=2,16=1,25=1,30=1,74=1000402,75=-5,82=7,107=1350000000,108=1350000000/1,2,3;
 4/5=5,16=3/1;
 5/5=2,38=5/2;
 1/53=5014,62=2,63=5/22;
 1/60=1,62=2/8(-22);
 99/9=1/99;
 Leave Link    1 at Mon May 11 21:06:22 2020, MaxMem= 1073741824 cpu:       0.1
 (Enter /home/matheus/.gaussian/g09/l101.exe)
 ---
 TCC
 ---
 Charge =  0 Multiplicity = 1 in supermolecule
 Charge =  0 Multiplicity = 1 in fragment  1.
 Charge =  0 Multiplicity = 1 in fragment  2.
 Symbolic Z-Matrix:
 O(Fragment=1)         0.        0.        0.725 
 O(Fragment=1)         0.        0.       -0.725 
 H(Fragment=1)        -0.91872  0.         1.02351 
 H(Fragment=1)         0.        0.91872  -1.02351 
 Kr(Fragment=2)        0.       R1        0. 
       Variables:
  R1                    3.     Scan 20    0.1    
 
 NAtoms=      5 NQM=        0 NQMF=       0 NMMI=      5 NMMIF=      0
                NMic=       0 NMicF=      0.
                    Isotopes and Nuclear Properties:
 (Nuclear quadrupole moments (NQMom) in fm**2, nuclear magnetic moments (NMagM)
  in nuclear magnetons)

  Atom         1           2           3           4           5
 IAtWgt=          16          16           1           1          84
 AtmWgt=  15.9949146  15.9949146   1.0078250   1.0078250  83.9115064
 NucSpn=           0           0           1           1           0
 AtZEff=   0.0000000   0.0000000   0.0000000   0.0000000   0.0000000
 NQMom=    0.0000000   0.0000000   0.0000000   0.0000000   0.0000000
 NMagM=    0.0000000   0.0000000   2.7928460   2.7928460   0.0000000
 Leave Link  101 at Mon May 11 21:06:22 2020, MaxMem= 1073741824 cpu:       0.3
 (Enter /home/matheus/.gaussian/g09/l108.exe)
 Scan the potential surface.
 Variable   Value     No. Steps Step-Size
 -------- ----------- --------- ---------
     1       3.000000      20      0.1000
 A total of     21 points will be computed.
 Leave Link  108 at Mon May 11 21:06:22 2020, MaxMem= 1073741824 cpu:       0.0
 (Enter /home/matheus/.gaussian/g09/l202.exe)
 ---------------------------------------------------------------------------------------------------
                            Z-MATRIX (ANGSTROMS AND DEGREES)
   CD    Cent   Atom    N1       Length/X        N2       Alpha/Y        N3        Beta/Z          J
 ---------------------------------------------------------------------------------------------------
      1      1  O        0   0.000000          0.000000          0.725000
      2      2  O        0   0.000000          0.000000         -0.725000
      3      3  H        0  -0.918721          0.000000          1.023510
      4      4  H        0   0.000000          0.918721         -1.023510
      5      5  Kr       0   0.000000          3.000000          0.000000
 ---------------------------------------------------------------------------------------------------
                         Z-Matrix orientation:                         
 ---------------------------------------------------------------------
 Center     Atomic      Atomic             Coordinates (Angstroms)
 Number     Number       Type             X           Y           Z
 ---------------------------------------------------------------------
      1          8           0        0.000000    0.000000    0.725000
      2          8           0        0.000000    0.000000   -0.725000
      3          1           0       -0.918721    0.000000    1.023510
      4          1           0        0.000000    0.918721   -1.023510
      5         36           0        0.000000    3.000000    0.000000
 ---------------------------------------------------------------------
                    Distance matrix (angstroms):
                    1          2          3          4          5
     1  O    0.000000
     2  O    1.450000   0.000000
     3  H    0.966000   1.975180   0.000000
     4  H    1.975180   0.966000   2.424539   0.000000
     5  Kr   3.086361   3.086361   3.300246   2.319331   0.000000
 Stoichiometry    H2KrO2
 Framework group  C1[X(H2KrO2)]
 Deg. of freedom     9
 Full point group                 C1      NOp   1
 Largest Abelian subgroup         C1      NOp   1
 Largest concise Abelian subgroup C1      NOp   1
                         Standard orientation:                         
 ---------------------------------------------------------------------
 Center     Atomic      Atomic             Coordinates (Angstroms)
 Number     Number       Type             X           Y           Z
 ---------------------------------------------------------------------
      1          8           0       -2.023612   -0.696492   -0.118952
      2          8           0       -2.008959    0.747023    0.017247
      3          1           0       -2.043021   -1.079789    0.767536
      4          1           0       -1.087415    1.033416    0.060735
      5         36           0        0.983084   -0.009941   -0.000406
 ---------------------------------------------------------------------
 Rotational constants (GHZ):     25.5933462      2.3453767      2.1627661
 Leave Link  202 at Mon May 11 21:06:22 2020, MaxMem= 1073741824 cpu:       0.0
 (Enter /home/matheus/.gaussian/g09/l122.exe)
 Leave Link  122 at Mon May 11 21:06:22 2020, MaxMem= 1073741824 cpu:       0.0
 (Enter /home/matheus/.gaussian/g09/l301.exe)
 Standard basis: Aug-CC-pVTZ (5D, 7F)
 Ernie: Thresh=  0.10000D-02 Tol=  0.10000D-05 Strict=F.
 Ernie:  38 primitive shells out of 205 were deleted.
 There are   197 symmetry adapted basis functions of A   symmetry.
 Integral buffers will be    131072 words long.
 Raffenetti 2 integral format.
 Two-electron integral symmetry is turned on.
   197 basis functions,   415 primitive gaussians,   229 cartesian basis functions
    27 alpha electrons       27 beta electrons
       nuclear repulsion energy       149.3716944117 Hartrees.
 IExCor=10402 DFT=T Ex=LC-B+HF Corr=LYP ExCW=0 ScaHFX=  1.000000
 ScaDFX=  1.000000  1.000000  1.000000  1.000000 ScalE2=  1.000000  1.000000
 IRadAn=      5 IRanWt=     -1 IRanGd=            0 ICorTp=0
  HFx wShort=  0.000000 wLong=  1.350000 cFull=  0.000000 cShort=  0.000000 cLong=  1.000000
  DFx wShort=  0.000000 wLong=  1.350000 cFull=  0.000000 cShort=  0.000000 cLong=  1.000000
 NAtoms=    5 NActive=    5 NUniq=    5 SFac= 1.00D+00 NAtFMM=   60 NAOKFM=F Big=F
 Leave Link  301 at Mon May 11 21:06:22 2020, MaxMem= 1073741824 cpu:       0.2
 (Enter /home/matheus/.gaussian/g09/l302.exe)
 NPDir=0 NMtPBC=     1 NCelOv=     1 NCel=       1 NClECP=     1 NCelD=      1
         NCelK=      1 NCelE2=     1 NClLst=     1 CellRange=     0.0.
 One-electron integrals computed using PRISM.
 NBasis=   197 RedAO= T  NBF=   197
 NBsUse=   197 1.00D-06 NBFU=   197
 Precomputing XC quadrature grid using
 IXCGrd= 2 IRadAn=           5 IRanWt=          -1 IRanGd=           0 AccXCQ= 0.00D+00.
 NRdTot=     427 NPtTot=      123512 NUsed=      126579 NTot=      126611
 NSgBfM=   229   229   229   229   229 NAtAll=     5     5.
 Leave Link  302 at Mon May 11 21:06:22 2020, MaxMem= 1073741824 cpu:       1.0
 (Enter /home/matheus/.gaussian/g09/l303.exe)
 DipDrv:  MaxL=1.
 Leave Link  303 at Mon May 11 21:06:22 2020, MaxMem= 1073741824 cpu:       0.2
 (Enter /home/matheus/.gaussian/g09/l401.exe)
 Harris functional with IExCor=10402 diagonalized for initial guess.
 ExpMin= 2.53D-02 ExpMax= 1.17D+07 ExpMxC= 1.33D+04 IAcc=3 IRadAn=         5 AccDes= 0.00D+00
 HarFok:  IExCor=10402 AccDes= 0.00D+00 IRadAn=         5 IDoV= 1
 ScaDFX=  1.000000  1.000000  1.000000  1.000000
 FoFCou: FMM=F IPFlag=           0 FMFlag=      100000 FMFlg1=           0
         NFxFlg=           0 DoJE=T BraDBF=F KetDBF=T FulRan=T
         Omega=  0.000000  0.000000  1.000000  0.000000  0.000000 ICntrl=     500 IOpCl=  0
         NMat0=    1 NMatS0=    1 NMatT0=    0 NMatD0=    1 NMtDS0=    0 NMtDT0=    0
         I1Cent=           4 NGrid=           0.
 Petite list used in FoFCou.
 Harris En= -2874.92930472903    
 Initial guess orbital symmetries:
       Occupied  (A) (A) (A) (A) (A) (A) (A) (A) (A) (A) (A) (A)
                 (A) (A) (A) (A) (A) (A) (A) (A) (A) (A) (A) (A)
                 (A) (A) (A)
       Virtual   (A) (A) (A) (A) (A) (A) (A) (A) (A) (A) (A) (A)
                 (A) (A) (A) (A) (A) (A) (A) (A) (A) (A) (A) (A)
                 (A) (A) (A) (A) (A) (A) (A) (A) (A) (A) (A) (A)
                 (A) (A) (A) (A) (A) (A) (A) (A) (A) (A) (A) (A)
                 (A) (A) (A) (A) (A) (A) (A) (A) (A) (A) (A) (A)
                 (A) (A) (A) (A) (A) (A) (A) (A) (A) (A) (A) (A)
                 (A) (A) (A) (A) (A) (A) (A) (A) (A) (A) (A) (A)
                 (A) (A) (A) (A) (A) (A) (A) (A) (A) (A) (A) (A)
                 (A) (A) (A) (A) (A) (A) (A) (A) (A) (A) (A) (A)
                 (A) (A) (A) (A) (A) (A) (A) (A) (A) (A) (A) (A)
                 (A) (A) (A) (A) (A) (A) (A) (A) (A) (A) (A) (A)
                 (A) (A) (A) (A) (A) (A) (A) (A) (A) (A) (A) (A)
                 (A) (A) (A) (A) (A) (A) (A) (A) (A) (A) (A) (A)
                 (A) (A) (A) (A) (A) (A) (A) (A) (A) (A) (A) (A)
                 (A) (A)
 The electronic state of the initial guess is 1-A.
 Leave Link  401 at Mon May 11 21:06:22 2020, MaxMem= 1073741824 cpu:       3.9
 (Enter /home/matheus/.gaussian/g09/l502.exe)
 Closed shell SCF:
 Requested convergence on RMS density matrix=1.00D-08 within 128 cycles.
 Requested convergence on MAX density matrix=1.00D-06.
 Requested convergence on             energy=1.00D-06.
 No special actions if energy rises.
 Using DIIS extrapolation, IDIIS=  1040.
 Integral symmetry usage will be decided dynamically.
       126521 words used for storage of precomputed grid.
 IEnd=      305468 IEndB=      305468 NGot=  1073741824 MDV=  1073505667
 LenX=  1073505667 LenY=  1073452785
 Fock matrices will be formed incrementally for  20 cycles.

 Cycle   1  Pass 1  IDiag  1:
 FoFJK:  IHMeth= 1 ICntrl=     0 DoSepK=T KAlg= 1 I1Cent= 0 FoldK=F
 FoFCou: FMM=F IPFlag=           0 FMFlag=      100000 FMFlg1=           0
         NFxFlg=           0 DoJE=T BraDBF=F KetDBF=F FulRan=T
         Omega=  0.000000  0.000000  1.000000  0.000000  0.000000 ICntrl=     500 IOpCl=  0
         NMat0=    1 NMatS0=    1 NMatT0=    0 NMatD0=    1 NMtDS0=    0 NMtDT0=    0
         I1Cent=           0 NGrid=           0.
 Symmetry not used in FoFCou.
 E= -2898.47501997418    
 DIIS: error= 1.30D-01 at cycle   1 NSaved=   1.
 NSaved= 1 IEnMin= 1 EnMin= -2898.47501997418     IErMin= 1 ErrMin= 1.30D-01
 ErrMax= 1.30D-01 EMaxC= 1.00D-01 BMatC= 3.87D+00 BMatP= 3.87D+00
 IDIUse=3 WtCom= 0.00D+00 WtEn= 1.00D+00
 Coeff-Com:  0.100D+01
 Coeff-En:   0.100D+01
 Coeff:      0.100D+01
 Gap=    -0.987 Goal=   None    Shift=    0.000
 GapD=   -0.987 DampG=0.250 DampE=0.250 DampFc=0.2500 IDamp=-1.
 Damping current iteration by 2.50D-01
 RMSDP=1.12D-01 MaxDP=9.81D+00              OVMax= 9.96D-01

 Cycle   2  Pass 1  IDiag  1:
 RMSU=  4.48D-03    CP:  7.61D-01
 FoFJK:  IHMeth= 1 ICntrl=     0 DoSepK=T KAlg= 1 I1Cent= 0 FoldK=F
 E= -2900.79668998141     Delta-E=       -2.321670007227 Rises=F Damp=T
 DIIS: error= 5.60D-02 at cycle   2 NSaved=   2.
 NSaved= 2 IEnMin= 2 EnMin= -2900.79668998141     IErMin= 2 ErrMin= 5.60D-02
 ErrMax= 5.60D-02 EMaxC= 1.00D-01 BMatC= 1.04D+00 BMatP= 3.87D+00
 IDIUse=3 WtCom= 4.40D-01 WtEn= 5.60D-01
 Coeff-Com: -0.756D+00 0.176D+01
 Coeff-En:   0.000D+00 0.100D+01
 Coeff:     -0.333D+00 0.133D+01
 Gap=     0.119 Goal=   None    Shift=    0.000
 RMSDP=8.39D-02 MaxDP=7.35D+00 DE=-2.32D+00 OVMax= 9.95D-01

 Cycle   3  Pass 1  IDiag  1:
 RMSU=  5.98D-03    CP:  4.56D-02  3.00D+00
 FoFJK:  IHMeth= 1 ICntrl=     0 DoSepK=T KAlg= 1 I1Cent= 0 FoldK=F
 E= -2904.23890903088     Delta-E=       -3.442219049466 Rises=F Damp=F
 DIIS: error= 3.36D-02 at cycle   3 NSaved=   3.
 NSaved= 3 IEnMin= 3 EnMin= -2904.23890903088     IErMin= 3 ErrMin= 3.36D-02
 ErrMax= 3.36D-02 EMaxC= 1.00D-01 BMatC= 5.81D-01 BMatP= 1.04D+00
 IDIUse=3 WtCom= 6.64D-01 WtEn= 3.36D-01
 Coeff-Com: -0.573D-02 0.421D+00 0.585D+00
 Coeff-En:   0.000D+00 0.000D+00 0.100D+01
 Coeff:     -0.380D-02 0.279D+00 0.724D+00
 Gap=     0.644 Goal=   None    Shift=    0.000
 RMSDP=2.50D-03 MaxDP=8.74D-02 DE=-3.44D+00 OVMax= 1.10D-01

 Cycle   4  Pass 1  IDiag  1:
 RMSU=  1.76D-03    CP:  4.52D-02  3.00D+00  9.83D-01
 FoFJK:  IHMeth= 1 ICntrl=     0 DoSepK=T KAlg= 1 I1Cent= 0 FoldK=F
 E= -2904.61110039315     Delta-E=       -0.372191362273 Rises=F Damp=F
 DIIS: error= 4.50D-03 at cycle   4 NSaved=   4.
 NSaved= 4 IEnMin= 4 EnMin= -2904.61110039315     IErMin= 4 ErrMin= 4.50D-03
 ErrMax= 4.50D-03 EMaxC= 1.00D-01 BMatC= 1.09D-02 BMatP= 5.81D-01
 IDIUse=3 WtCom= 9.55D-01 WtEn= 4.50D-02
 Coeff-Com: -0.168D-03 0.312D-01 0.651D-01 0.904D+00
 Coeff-En:   0.000D+00 0.000D+00 0.000D+00 0.100D+01
 Coeff:     -0.161D-03 0.298D-01 0.621D-01 0.908D+00
 Gap=     0.531 Goal=   None    Shift=    0.000
 RMSDP=6.16D-04 MaxDP=2.07D-02 DE=-3.72D-01 OVMax= 2.07D-02

 Cycle   5  Pass 1  IDiag  1:
 RMSU=  4.21D-04    CP:  4.53D-02  3.00D+00  9.82D-01  1.06D+00
 FoFJK:  IHMeth= 1 ICntrl=     0 DoSepK=T KAlg= 1 I1Cent= 0 FoldK=F
 E= -2904.61933508695     Delta-E=       -0.008234693804 Rises=F Damp=F
 DIIS: error= 1.11D-03 at cycle   5 NSaved=   5.
 NSaved= 5 IEnMin= 5 EnMin= -2904.61933508695     IErMin= 5 ErrMin= 1.11D-03
 ErrMax= 1.11D-03 EMaxC= 1.00D-01 BMatC= 6.90D-04 BMatP= 1.09D-02
 IDIUse=3 WtCom= 9.89D-01 WtEn= 1.11D-02
 Coeff-Com: -0.152D-01 0.338D-01-0.678D-02-0.223D-01 0.101D+01
 Coeff-En:   0.000D+00 0.000D+00 0.000D+00 0.000D+00 0.100D+01
 Coeff:     -0.150D-01 0.334D-01-0.670D-02-0.220D-01 0.101D+01
 Gap=     0.544 Goal=   None    Shift=    0.000
 RMSDP=1.61D-04 MaxDP=5.54D-03 DE=-8.23D-03 OVMax= 7.72D-03

 Cycle   6  Pass 1  IDiag  1:
 RMSU=  9.16D-05    CP:  4.53D-02  3.00D+00  9.81D-01  1.08D+00  1.15D+00
 FoFJK:  IHMeth= 1 ICntrl=     0 DoSepK=T KAlg= 1 I1Cent= 0 FoldK=F
 E= -2904.61999855681     Delta-E=       -0.000663469857 Rises=F Damp=F
 DIIS: error= 6.40D-04 at cycle   6 NSaved=   6.
 NSaved= 6 IEnMin= 6 EnMin= -2904.61999855681     IErMin= 6 ErrMin= 6.40D-04
 ErrMax= 6.40D-04 EMaxC= 1.00D-01 BMatC= 1.77D-04 BMatP= 6.90D-04
 IDIUse=3 WtCom= 9.94D-01 WtEn= 6.40D-03
 Coeff-Com: -0.476D-02 0.106D-01-0.915D-02-0.542D-01 0.241D+00 0.816D+00
 Coeff-En:   0.000D+00 0.000D+00 0.000D+00 0.000D+00 0.000D+00 0.100D+01
 Coeff:     -0.473D-02 0.106D-01-0.909D-02-0.539D-01 0.240D+00 0.818D+00
 Gap=     0.546 Goal=   None    Shift=    0.000
 RMSDP=6.20D-05 MaxDP=1.69D-03 DE=-6.63D-04 OVMax= 3.87D-03

 Cycle   7  Pass 1  IDiag  1:
 RMSU=  2.90D-05    CP:  4.53D-02  3.00D+00  9.81D-01  1.09D+00  1.21D+00
                    CP:  1.08D+00
 FoFJK:  IHMeth= 1 ICntrl=     0 DoSepK=T KAlg= 1 I1Cent= 0 FoldK=F
 E= -2904.62017366074     Delta-E=       -0.000175103934 Rises=F Damp=F
 DIIS: error= 3.07D-04 at cycle   7 NSaved=   7.
 NSaved= 7 IEnMin= 7 EnMin= -2904.62017366074     IErMin= 7 ErrMin= 3.07D-04
 ErrMax= 3.07D-04 EMaxC= 1.00D-01 BMatC= 3.51D-05 BMatP= 1.77D-04
 IDIUse=3 WtCom= 9.97D-01 WtEn= 3.07D-03
 Coeff-Com:  0.138D-02-0.278D-02-0.449D-02-0.159D-01-0.825D-01 0.264D+00
 Coeff-Com:  0.840D+00
 Coeff-En:   0.000D+00 0.000D+00 0.000D+00 0.000D+00 0.000D+00 0.000D+00
 Coeff-En:   0.100D+01
 Coeff:      0.138D-02-0.278D-02-0.447D-02-0.159D-01-0.822D-01 0.263D+00
 Coeff:      0.841D+00
 Gap=     0.546 Goal=   None    Shift=    0.000
 RMSDP=3.40D-05 MaxDP=8.29D-04 DE=-1.75D-04 OVMax= 2.67D-03

 Cycle   8  Pass 1  IDiag  1:
 RMSU=  1.36D-05    CP:  4.53D-02  3.00D+00  9.81D-01  1.10D+00  1.24D+00
                    CP:  1.18D+00  1.12D+00
 FoFJK:  IHMeth= 1 ICntrl=     0 DoSepK=T KAlg= 1 I1Cent= 0 FoldK=F
 E= -2904.62021820011     Delta-E=       -0.000044539363 Rises=F Damp=F
 DIIS: error= 7.60D-05 at cycle   8 NSaved=   8.
 NSaved= 8 IEnMin= 8 EnMin= -2904.62021820011     IErMin= 8 ErrMin= 7.60D-05
 ErrMax= 7.60D-05 EMaxC= 1.00D-01 BMatC= 2.42D-06 BMatP= 3.51D-05
 IDIUse=1 WtCom= 1.00D+00 WtEn= 0.00D+00
 Coeff-Com:  0.128D-02-0.243D-02 0.187D-02 0.706D-02-0.132D-01-0.103D+00
 Coeff-Com: -0.602D-01 0.117D+01
 Coeff:      0.128D-02-0.243D-02 0.187D-02 0.706D-02-0.132D-01-0.103D+00
 Coeff:     -0.602D-01 0.117D+01
 Gap=     0.546 Goal=   None    Shift=    0.000
 RMSDP=1.34D-05 MaxDP=3.58D-04 DE=-4.45D-05 OVMax= 1.66D-03

 Cycle   9  Pass 1  IDiag  1:
 RMSU=  4.79D-06    CP:  4.53D-02  3.00D+00  9.81D-01  1.10D+00  1.24D+00
                    CP:  1.21D+00  1.30D+00  1.41D+00
 FoFJK:  IHMeth= 1 ICntrl=     0 DoSepK=T KAlg= 1 I1Cent= 0 FoldK=F
 E= -2904.62022538892     Delta-E=       -0.000007188810 Rises=F Damp=F
 DIIS: error= 2.82D-05 at cycle   9 NSaved=   9.
 NSaved= 9 IEnMin= 9 EnMin= -2904.62022538892     IErMin= 9 ErrMin= 2.82D-05
 ErrMax= 2.82D-05 EMaxC= 1.00D-01 BMatC= 4.73D-07 BMatP= 2.42D-06
 IDIUse=1 WtCom= 1.00D+00 WtEn= 0.00D+00
 Coeff-Com: -0.130D-03 0.305D-03 0.588D-03 0.147D-02 0.511D-02 0.106D-02
 Coeff-Com: -0.544D-01-0.339D+00 0.138D+01
 Coeff:     -0.130D-03 0.305D-03 0.588D-03 0.147D-02 0.511D-02 0.106D-02
 Coeff:     -0.544D-01-0.339D+00 0.138D+01
 Gap=     0.546 Goal=   None    Shift=    0.000
 RMSDP=7.35D-06 MaxDP=1.59D-04 DE=-7.19D-06 OVMax= 1.03D-03

 Cycle  10  Pass 1  IDiag  1:
 RMSU=  1.86D-06    CP:  4.53D-02  3.00D+00  9.81D-01  1.10D+00  1.24D+00
                    CP:  1.22D+00  1.36D+00  1.62D+00  1.67D+00
 FoFJK:  IHMeth= 1 ICntrl=     0 DoSepK=T KAlg= 1 I1Cent= 0 FoldK=F
 E= -2904.62022715665     Delta-E=       -0.000001767733 Rises=F Damp=F
 DIIS: error= 1.23D-05 at cycle  10 NSaved=  10.
 NSaved=10 IEnMin=10 EnMin= -2904.62022715665     IErMin=10 ErrMin= 1.23D-05
 ErrMax= 1.23D-05 EMaxC= 1.00D-01 BMatC= 6.23D-08 BMatP= 4.73D-07
 IDIUse=1 WtCom= 1.00D+00 WtEn= 0.00D+00
 Coeff-Com: -0.189D-03 0.351D-03-0.390D-03-0.116D-02-0.782D-03 0.150D-01
 Coeff-Com:  0.154D-01-0.162D+00-0.788D-01 0.121D+01
 Coeff:     -0.189D-03 0.351D-03-0.390D-03-0.116D-02-0.782D-03 0.150D-01
 Coeff:      0.154D-01-0.162D+00-0.788D-01 0.121D+01
 Gap=     0.546 Goal=   None    Shift=    0.000
 RMSDP=3.01D-06 MaxDP=6.85D-05 DE=-1.77D-06 OVMax= 4.65D-04

 Cycle  11  Pass 1  IDiag  1:
 RMSU=  6.78D-07    CP:  4.53D-02  3.00D+00  9.81D-01  1.10D+00  1.24D+00
                    CP:  1.22D+00  1.38D+00  1.70D+00  1.94D+00  1.45D+00
 FoFJK:  IHMeth= 1 ICntrl=     0 DoSepK=T KAlg= 1 I1Cent= 0 FoldK=F
 E= -2904.62022741719     Delta-E=       -0.000000260538 Rises=F Damp=F
 DIIS: error= 4.22D-06 at cycle  11 NSaved=  11.
 NSaved=11 IEnMin=11 EnMin= -2904.62022741719     IErMin=11 ErrMin= 4.22D-06
 ErrMax= 4.22D-06 EMaxC= 1.00D-01 BMatC= 6.58D-09 BMatP= 6.23D-08
 IDIUse=1 WtCom= 1.00D+00 WtEn= 0.00D+00
 Coeff-Com: -0.116D-04 0.138D-04-0.804D-05-0.210D-04 0.102D-02-0.364D-02
 Coeff-Com: -0.422D-02 0.580D-01-0.802D-01-0.326D+00 0.135D+01
 Coeff:     -0.116D-04 0.138D-04-0.804D-05-0.210D-04 0.102D-02-0.364D-02
 Coeff:     -0.422D-02 0.580D-01-0.802D-01-0.326D+00 0.135D+01
 Gap=     0.546 Goal=   None    Shift=    0.000
 RMSDP=1.00D-06 MaxDP=1.94D-05 DE=-2.61D-07 OVMax= 1.49D-04

 Cycle  12  Pass 1  IDiag  1:
 RMSU=  2.28D-07    CP:  4.53D-02  3.00D+00  9.81D-01  1.10D+00  1.24D+00
                    CP:  1.22D+00  1.39D+00  1.73D+00  1.99D+00  1.61D+00
                    CP:  1.47D+00
 FoFJK:  IHMeth= 1 ICntrl=     0 DoSepK=T KAlg= 1 I1Cent= 0 FoldK=F
 E= -2904.62022744299     Delta-E=       -0.000000025798 Rises=F Damp=F
 DIIS: error= 1.03D-06 at cycle  12 NSaved=  12.
 NSaved=12 IEnMin=12 EnMin= -2904.62022744299     IErMin=12 ErrMin= 1.03D-06
 ErrMax= 1.03D-06 EMaxC= 1.00D-01 BMatC= 3.59D-10 BMatP= 6.58D-09
 IDIUse=1 WtCom= 1.00D+00 WtEn= 0.00D+00
 Coeff-Com:  0.508D-05-0.107D-04 0.171D-04 0.787D-04-0.346D-03 0.597D-03
 Coeff-Com:  0.114D-02-0.901D-02 0.290D-01 0.165D-01-0.394D+00 0.136D+01
 Coeff:      0.508D-05-0.107D-04 0.171D-04 0.787D-04-0.346D-03 0.597D-03
 Coeff:      0.114D-02-0.901D-02 0.290D-01 0.165D-01-0.394D+00 0.136D+01
 Gap=     0.546 Goal=   None    Shift=    0.000
 RMSDP=2.19D-07 MaxDP=5.08D-06 DE=-2.58D-08 OVMax= 2.55D-05

 Cycle  13  Pass 1  IDiag  1:
 RMSU=  4.41D-08    CP:  4.53D-02  3.00D+00  9.81D-01  1.10D+00  1.24D+00
                    CP:  1.22D+00  1.39D+00  1.73D+00  2.00D+00  1.62D+00
                    CP:  1.59D+00  1.43D+00
 FoFJK:  IHMeth= 1 ICntrl=     0 DoSepK=T KAlg= 1 I1Cent= 0 FoldK=F
 E= -2904.62022744429     Delta-E=       -0.000000001306 Rises=F Damp=F
 DIIS: error= 2.23D-07 at cycle  13 NSaved=  13.
 NSaved=13 IEnMin=13 EnMin= -2904.62022744429     IErMin=13 ErrMin= 2.23D-07
 ErrMax= 2.23D-07 EMaxC= 1.00D-01 BMatC= 1.88D-11 BMatP= 3.59D-10
 IDIUse=1 WtCom= 1.00D+00 WtEn= 0.00D+00
 Coeff-Com:  0.770D-06-0.108D-05-0.783D-06-0.367D-05-0.153D-04 0.936D-04
 Coeff-Com:  0.844D-04-0.147D-02-0.170D-02 0.134D-01-0.478D-02-0.192D+00
 Coeff-Com:  0.119D+01
 Coeff:      0.770D-06-0.108D-05-0.783D-06-0.367D-05-0.153D-04 0.936D-04
 Coeff:      0.844D-04-0.147D-02-0.170D-02 0.134D-01-0.478D-02-0.192D+00
 Coeff:      0.119D+01
 Gap=     0.546 Goal=   None    Shift=    0.000
 RMSDP=4.31D-08 MaxDP=1.21D-06 DE=-1.31D-09 OVMax= 4.02D-06

 Cycle  14  Pass 1  IDiag  1:
 RMSU=  9.10D-09    CP:  4.53D-02  3.00D+00  9.81D-01  1.10D+00  1.24D+00
                    CP:  1.22D+00  1.39D+00  1.73D+00  2.00D+00  1.62D+00
                    CP:  1.60D+00  1.48D+00  1.37D+00
 FoFJK:  IHMeth= 1 ICntrl=     0 DoSepK=T KAlg= 1 I1Cent= 0 FoldK=F
 E= -2904.62022744435     Delta-E=       -0.000000000057 Rises=F Damp=F
 DIIS: error= 6.10D-08 at cycle  14 NSaved=  14.
 NSaved=14 IEnMin=14 EnMin= -2904.62022744435     IErMin=14 ErrMin= 6.10D-08
 ErrMax= 6.10D-08 EMaxC= 1.00D-01 BMatC= 1.21D-12 BMatP= 1.88D-11
 IDIUse=1 WtCom= 1.00D+00 WtEn= 0.00D+00
 Coeff-Com:  0.235D-06-0.341D-06-0.704D-06-0.466D-05 0.295D-04-0.600D-04
 Coeff-Com: -0.115D-03 0.879D-03-0.158D-02-0.302D-02 0.286D-01-0.748D-01
 Coeff-Com: -0.157D+00 0.121D+01
 Coeff:      0.235D-06-0.341D-06-0.704D-06-0.466D-05 0.295D-04-0.600D-04
 Coeff:     -0.115D-03 0.879D-03-0.158D-02-0.302D-02 0.286D-01-0.748D-01
 Coeff:     -0.157D+00 0.121D+01
 Gap=     0.546 Goal=   None    Shift=    0.000
 RMSDP=1.06D-08 MaxDP=3.31D-07 DE=-5.73D-11 OVMax= 1.26D-06

 Cycle  15  Pass 1  IDiag  1:
 RMSU=  3.12D-09    CP:  4.53D-02  3.00D+00  9.81D-01  1.10D+00  1.24D+00
                    CP:  1.22D+00  1.39D+00  1.73D+00  2.00D+00  1.62D+00
                    CP:  1.60D+00  1.49D+00  1.47D+00  1.43D+00
 FoFJK:  IHMeth= 1 ICntrl=     0 DoSepK=T KAlg= 1 I1Cent= 0 FoldK=F
 E= -2904.62022744434     Delta-E=        0.000000000010 Rises=F Damp=F
 DIIS: error= 1.38D-08 at cycle  15 NSaved=  15.
 NSaved=15 IEnMin=14 EnMin= -2904.62022744435     IErMin=15 ErrMin= 1.38D-08
 ErrMax= 1.38D-08 EMaxC= 1.00D-01 BMatC= 6.48D-14 BMatP= 1.21D-12
 IDIUse=1 WtCom= 1.00D+00 WtEn= 0.00D+00
 Coeff-Com:  0.448D-07-0.785D-07 0.145D-06 0.111D-05-0.681D-05 0.108D-04
 Coeff-Com:  0.312D-04-0.125D-03 0.339D-03 0.116D-03-0.543D-02 0.233D-01
 Coeff-Com: -0.315D-01-0.196D+00 0.121D+01
 Coeff:      0.448D-07-0.785D-07 0.145D-06 0.111D-05-0.681D-05 0.108D-04
 Coeff:      0.312D-04-0.125D-03 0.339D-03 0.116D-03-0.543D-02 0.233D-01
 Coeff:     -0.315D-01-0.196D+00 0.121D+01
 Gap=     0.546 Goal=   None    Shift=    0.000
 RMSDP=2.70D-09 MaxDP=7.73D-08 DE= 1.00D-11 OVMax= 2.31D-07

 SCF Done:  E(RLC-B+HF-LYP) =  -2904.62022744     A.U. after   15 cycles
             Convg  =    0.2696D-08             -V/T =  2.0016
 KE= 2.899958707983D+03 PE=-7.235953478158D+03 EE= 1.282002848319D+03
 Leave Link  502 at Mon May 11 21:07:10 2020, MaxMem= 1073741824 cpu:     380.8
 (Enter /home/matheus/.gaussian/g09/l601.exe)
 Copying SCF densities to generalized density rwf, IOpCl= 0 IROHF=0.

 **********************************************************************

            Population analysis using the SCF density.

 **********************************************************************

 Orbital symmetries:
       Occupied  (A) (A) (A) (A) (A) (A) (A) (A) (A) (A) (A) (A)
                 (A) (A) (A) (A) (A) (A) (A) (A) (A) (A) (A) (A)
                 (A) (A) (A)
       Virtual   (A) (A) (A) (A) (A) (A) (A) (A) (A) (A) (A) (A)
                 (A) (A) (A) (A) (A) (A) (A) (A) (A) (A) (A) (A)
                 (A) (A) (A) (A) (A) (A) (A) (A) (A) (A) (A) (A)
                 (A) (A) (A) (A) (A) (A) (A) (A) (A) (A) (A) (A)
                 (A) (A) (A) (A) (A) (A) (A) (A) (A) (A) (A) (A)
                 (A) (A) (A) (A) (A) (A) (A) (A) (A) (A) (A) (A)
                 (A) (A) (A) (A) (A) (A) (A) (A) (A) (A) (A) (A)
                 (A) (A) (A) (A) (A) (A) (A) (A) (A) (A) (A) (A)
                 (A) (A) (A) (A) (A) (A) (A) (A) (A) (A) (A) (A)
                 (A) (A) (A) (A) (A) (A) (A) (A) (A) (A) (A) (A)
                 (A) (A) (A) (A) (A) (A) (A) (A) (A) (A) (A) (A)
                 (A) (A) (A) (A) (A) (A) (A) (A) (A) (A) (A) (A)
                 (A) (A) (A) (A) (A) (A) (A) (A) (A) (A) (A) (A)
                 (A) (A) (A) (A) (A) (A) (A) (A) (A) (A) (A) (A)
                 (A) (A)
 The electronic state is 1-A.
 Alpha  occ. eigenvalues -- -511.67120 -67.19618 -60.86824 -60.86809 -60.86798
 Alpha  occ. eigenvalues --  -19.48439 -19.48148 -10.09748  -7.81345  -7.81308
 Alpha  occ. eigenvalues --   -7.81279  -3.64307  -3.64300  -3.64276  -3.64246
 Alpha  occ. eigenvalues --   -3.64242  -1.46274  -1.21496  -1.19169  -0.77163
 Alpha  occ. eigenvalues --   -0.71268  -0.63600  -0.57565  -0.57002  -0.56465
 Alpha  occ. eigenvalues --   -0.52700  -0.51977
 Alpha virt. eigenvalues --    0.02629   0.03850   0.07760   0.08883   0.10690
 Alpha virt. eigenvalues --    0.11275   0.13105   0.13889   0.16513   0.17336
 Alpha virt. eigenvalues --    0.17677   0.19609   0.21290   0.23069   0.24320
 Alpha virt. eigenvalues --    0.24771   0.25868   0.28857   0.31352   0.32738
 Alpha virt. eigenvalues --    0.33697   0.35459   0.36832   0.39339   0.39728
 Alpha virt. eigenvalues --    0.41445   0.44246   0.48735   0.54070   0.56314
 Alpha virt. eigenvalues --    0.57321   0.62485   0.63287   0.66377   0.70813
 Alpha virt. eigenvalues --    0.73504   0.74601   0.75888   0.78729   0.78812
 Alpha virt. eigenvalues --    0.79379   0.80818   0.83045   0.83672   0.85885
 Alpha virt. eigenvalues --    0.87159   0.88477   0.90961   0.91267   0.93441
 Alpha virt. eigenvalues --    0.95303   0.96003   0.97442   0.98764   1.01371
 Alpha virt. eigenvalues --    1.03091   1.06989   1.10853   1.11618   1.13122
 Alpha virt. eigenvalues --    1.13751   1.19604   1.21279   1.26857   1.27202
 Alpha virt. eigenvalues --    1.29299   1.32418   1.41286   1.43449   1.46549
 Alpha virt. eigenvalues --    1.48985   1.54148   1.56680   1.59474   1.65220
 Alpha virt. eigenvalues --    1.75260   1.79913   1.91387   2.01820   2.05823
 Alpha virt. eigenvalues --    2.08870   2.13769   2.15783   2.21682   2.27332
 Alpha virt. eigenvalues --    2.28871   2.29271   2.31691   2.35153   2.37928
 Alpha virt. eigenvalues --    2.39503   2.41268   2.43856   2.45183   2.45751
 Alpha virt. eigenvalues --    2.50359   2.51418   2.57776   2.58520   2.60389
 Alpha virt. eigenvalues --    2.63873   2.64138   2.64438   2.68673   2.71730
 Alpha virt. eigenvalues --    2.73374   2.75093   2.78558   2.79460   2.84210
 Alpha virt. eigenvalues --    2.87484   2.88419   2.89530   2.97242   3.02143
 Alpha virt. eigenvalues --    3.07778   3.18696   3.24902   3.27159   3.77473
 Alpha virt. eigenvalues --    3.80307   4.04098   4.10017   4.17954   4.26844
 Alpha virt. eigenvalues --    4.29937   4.32300   4.34861   4.40368   4.43594
 Alpha virt. eigenvalues --    4.47544   4.66921   4.68893   4.73850   4.85666
 Alpha virt. eigenvalues --    5.09100   5.14159   5.15918   5.33808   5.34959
 Alpha virt. eigenvalues --    5.39867   5.66237   6.06940   6.26808   6.37292
 Alpha virt. eigenvalues --    6.43631   6.52449   6.54828   6.70949   6.73108
 Alpha virt. eigenvalues --    6.84306   7.04424   7.05255   7.07385   7.10602
 Alpha virt. eigenvalues --    7.13735   7.15446   7.18266   7.23482   7.26492
 Alpha virt. eigenvalues --    7.34301   7.39184   7.48702   7.71148   7.87095
 Alpha virt. eigenvalues --    8.05517   8.36092   8.38632  14.29001  14.88954
          Condensed to atoms (all electrons):
              1          2          3          4          5
     1  O    8.234422  -0.173616   0.193449  -0.004397  -0.026862
     2  O   -0.173616   8.239317   0.009177   0.192429  -0.012284
     3  H    0.193449   0.009177   0.568739   0.000796  -0.001835
     4  H   -0.004397   0.192429   0.000796   0.578162  -0.011287
     5  Kr  -0.026862  -0.012284  -0.001835  -0.011287  36.048219
 Mulliken atomic charges:
              1
     1  O   -0.222996
     2  O   -0.255023
     3  H    0.229674
     4  H    0.244297
     5  Kr   0.004048
 Sum of Mulliken atomic charges =   0.00000
 Mulliken charges with hydrogens summed into heavy atoms:
              1
     1  O    0.006678
     2  O   -0.010726
     5  Kr   0.004048
 Sum of Mulliken charges with hydrogens summed into heavy atoms =   0.00000
          Condensed to fragments (all electrons):
     1      -0.004048
     2       0.004048
 Electronic spatial extent (au):  <R**2>=            483.6246
 Charge=              0.0000 electrons
 Dipole moment (field-independent basis, Debye):
    X=              1.8802    Y=             -0.3990    Z=              1.6218  Tot=              2.5149
 Quadrupole moment (field-independent basis, Debye-Ang):
   XX=            -34.8125   YY=            -27.5698   ZZ=            -28.5980
   XY=              2.4286   XZ=             -3.5086   YZ=             -1.9807
 Traceless Quadrupole moment (field-independent basis, Debye-Ang):
   XX=             -4.4857   YY=              2.7570   ZZ=              1.7287
   XY=              2.4286   XZ=             -3.5086   YZ=             -1.9807
 Octapole moment (field-independent basis, Debye-Ang**2):
  XXX=             34.1173  YYY=             -1.1058  ZZZ=              1.4064  XYY=              4.8713
  XXY=             -7.6455  XXZ=              6.9517  XZZ=              4.7861  YZZ=             -1.9335
  YYZ=              2.4930  XYZ=              4.2153
 Hexadecapole moment (field-independent basis, Debye-Ang**3):
 XXXX=           -446.4820 YYYY=            -61.3215 ZZZZ=            -28.3396 XXXY=             16.8425
 XXXZ=            -15.3847 YYYX=              4.4821 YYYZ=             -2.9286 ZZZX=             -3.4135
 ZZZY=             -2.1806 XXYY=            -79.4600 XXZZ=            -69.9810 YYZZ=            -15.1770
 XXYZ=             -9.0901 YYXZ=             -5.1176 ZZXY=              3.7934
 N-N= 1.493716944117D+02 E-N=-7.235953478536D+03  KE= 2.899958707983D+03
 No NMR shielding tensors so no spin-rotation constants.
 Leave Link  601 at Mon May 11 21:07:10 2020, MaxMem= 1073741824 cpu:       0.8
 (Enter /home/matheus/.gaussian/g09/l122.exe)
 Counterpoise: doing DCBS calculation for fragment   1 NewBq=T
 Leave Link  122 at Mon May 11 21:07:10 2020, MaxMem= 1073741824 cpu:       0.0
 (Enter /home/matheus/.gaussian/g09/l301.exe)
 Basis read from rwf:  (5D, 7F)
 No pseudopotential information found on rwf file.
 There are   197 symmetry adapted basis functions of A   symmetry.
 Integral buffers will be    131072 words long.
 Raffenetti 2 integral format.
 Two-electron integral symmetry is turned on.
   197 basis functions,   415 primitive gaussians,   229 cartesian basis functions
     9 alpha electrons        9 beta electrons
       nuclear repulsion energy        36.6265003879 Hartrees.
 IExCor=10402 DFT=T Ex=LC-B+HF Corr=LYP ExCW=0 ScaHFX=  1.000000
 ScaDFX=  1.000000  1.000000  1.000000  1.000000 ScalE2=  1.000000  1.000000
 IRadAn=      5 IRanWt=     -1 IRanGd=            0 ICorTp=0
  HFx wShort=  0.000000 wLong=  1.350000 cFull=  0.000000 cShort=  0.000000 cLong=  1.000000
  DFx wShort=  0.000000 wLong=  1.350000 cFull=  0.000000 cShort=  0.000000 cLong=  1.000000
 NAtoms=    5 NActive=    5 NUniq=    5 SFac= 1.00D+00 NAtFMM=   60 NAOKFM=F Big=F
 No density basis found on file   718.
 Leave Link  301 at Mon May 11 21:07:10 2020, MaxMem= 1073741824 cpu:       0.2
 (Enter /home/matheus/.gaussian/g09/l302.exe)
 NPDir=0 NMtPBC=     1 NCelOv=     1 NCel=       1 NClECP=     1 NCelD=      1
         NCelK=      1 NCelE2=     1 NClLst=     1 CellRange=     0.0.
 One-electron integrals computed using PRISM.
 NBasis=   197 RedAO= T  NBF=   197
 NBsUse=   197 1.00D-06 NBFU=   197
 Precomputing XC quadrature grid using
 IXCGrd= 2 IRadAn=           5 IRanWt=          -1 IRanGd=           0 AccXCQ= 0.00D+00.
 NRdTot=     427 NPtTot=      123512 NUsed=      126579 NTot=      126611
 NSgBfM=   229   229   229   229   229 NAtAll=     5     5.
 Leave Link  302 at Mon May 11 21:07:10 2020, MaxMem= 1073741824 cpu:       1.0
 (Enter /home/matheus/.gaussian/g09/l303.exe)
 DipDrv:  MaxL=1.
 Leave Link  303 at Mon May 11 21:07:10 2020, MaxMem= 1073741824 cpu:       0.2
 (Enter /home/matheus/.gaussian/g09/l401.exe)
 Harris functional with IExCor=10402 diagonalized for initial guess.
 ExpMin= 2.53D-02 ExpMax= 1.17D+07 ExpMxC= 1.33D+04 IAcc=3 IRadAn=         5 AccDes= 0.00D+00
 HarFok:  IExCor=10402 AccDes= 0.00D+00 IRadAn=         5 IDoV= 1
 ScaDFX=  1.000000  1.000000  1.000000  1.000000
 FoFCou: FMM=F IPFlag=           0 FMFlag=      100000 FMFlg1=           0
         NFxFlg=           0 DoJE=T BraDBF=F KetDBF=T FulRan=T
         Omega=  0.000000  0.000000  1.000000  0.000000  0.000000 ICntrl=     500 IOpCl=  0
         NMat0=    1 NMatS0=    1 NMatT0=    0 NMatD0=    1 NMtDS0=    0 NMtDT0=    0
         I1Cent=           4 NGrid=           0.
 Petite list used in FoFCou.
 Harris En= -143.243056771955    
 Initial guess orbital symmetries:
       Occupied  (A) (A) (A) (A) (A) (A) (A) (A) (A)
       Virtual   (A) (A) (A) (A) (A) (A) (A) (A) (A) (A) (A) (A)
                 (A) (A) (A) (A) (A) (A) (A) (A) (A) (A) (A) (A)
                 (A) (A) (A) (A) (A) (A) (A) (A) (A) (A) (A) (A)
                 (A) (A) (A) (A) (A) (A) (A) (A) (A) (A) (A) (A)
                 (A) (A) (A) (A) (A) (A) (A) (A) (A) (A) (A) (A)
                 (A) (A) (A) (A) (A) (A) (A) (A) (A) (A) (A) (A)
                 (A) (A) (A) (A) (A) (A) (A) (A) (A) (A) (A) (A)
                 (A) (A) (A) (A) (A) (A) (A) (A) (A) (A) (A) (A)
                 (A) (A) (A) (A) (A) (A) (A) (A) (A) (A) (A) (A)
                 (A) (A) (A) (A) (A) (A) (A) (A) (A) (A) (A) (A)
                 (A) (A) (A) (A) (A) (A) (A) (A) (A) (A) (A) (A)
                 (A) (A) (A) (A) (A) (A) (A) (A) (A) (A) (A) (A)
                 (A) (A) (A) (A) (A) (A) (A) (A) (A) (A) (A) (A)
                 (A) (A) (A) (A) (A) (A) (A) (A) (A) (A) (A) (A)
                 (A) (A) (A) (A) (A) (A) (A) (A) (A) (A) (A) (A)
                 (A) (A) (A) (A) (A) (A) (A) (A)
 The electronic state of the initial guess is 1-A.
 Leave Link  401 at Mon May 11 21:07:11 2020, MaxMem= 1073741824 cpu:       3.9
 (Enter /home/matheus/.gaussian/g09/l502.exe)
 Closed shell SCF:
 Requested convergence on RMS density matrix=1.00D-08 within 128 cycles.
 Requested convergence on MAX density matrix=1.00D-06.
 Requested convergence on             energy=1.00D-06.
 No special actions if energy rises.
 Using DIIS extrapolation, IDIIS=  1040.
 Integral symmetry usage will be decided dynamically.
       126521 words used for storage of precomputed grid.
 IEnd=      305468 IEndB=      305468 NGot=  1073741824 MDV=  1073505667
 LenX=  1073505667 LenY=  1073452785
 Fock matrices will be formed incrementally for  20 cycles.

 Cycle   1  Pass 1  IDiag  1:
 FoFJK:  IHMeth= 1 ICntrl=     0 DoSepK=T KAlg= 1 I1Cent= 0 FoldK=F
 FoFCou: FMM=F IPFlag=           0 FMFlag=      100000 FMFlg1=           0
         NFxFlg=           0 DoJE=T BraDBF=F KetDBF=F FulRan=T
         Omega=  0.000000  0.000000  1.000000  0.000000  0.000000 ICntrl=     500 IOpCl=  0
         NMat0=    1 NMatS0=    1 NMatT0=    0 NMatD0=    1 NMtDS0=    0 NMtDT0=    0
         I1Cent=           0 NGrid=           0.
 Symmetry not used in FoFCou.
 E= -145.663546295904    
 DIIS: error= 1.30D-01 at cycle   1 NSaved=   1.
 NSaved= 1 IEnMin= 1 EnMin= -145.663546295904     IErMin= 1 ErrMin= 1.30D-01
 ErrMax= 1.30D-01 EMaxC= 1.00D-01 BMatC= 2.70D+00 BMatP= 2.70D+00
 IDIUse=3 WtCom= 0.00D+00 WtEn= 1.00D+00
 Coeff-Com:  0.100D+01
 Coeff-En:   0.100D+01
 Coeff:      0.100D+01
 Gap=    -0.150 Goal=   None    Shift=    0.000
 GapD=   -0.150 DampG=0.250 DampE=0.250 DampFc=0.2500 IDamp=-1.
 Damping current iteration by 2.50D-01
 RMSDP=9.57D-02 MaxDP=7.94D+00              OVMax= 9.97D-01

 Cycle   2  Pass 1  IDiag  1:
 RMSU=  1.82D-03    CP:  7.52D-01
 FoFJK:  IHMeth= 1 ICntrl=     0 DoSepK=T KAlg= 1 I1Cent= 0 FoldK=F
 E= -147.777222953868     Delta-E=       -2.113676657964 Rises=F Damp=T
 DIIS: error= 6.80D-02 at cycle   2 NSaved=   2.
 NSaved= 2 IEnMin= 2 EnMin= -147.777222953868     IErMin= 2 ErrMin= 6.80D-02
 ErrMax= 6.80D-02 EMaxC= 1.00D-01 BMatC= 7.14D-01 BMatP= 2.70D+00
 IDIUse=3 WtCom= 3.20D-01 WtEn= 6.80D-01
 Coeff-Com: -0.965D+00 0.197D+01
 Coeff-En:   0.000D+00 0.100D+01
 Coeff:     -0.309D+00 0.131D+01
 Gap=     0.368 Goal=   None    Shift=    0.000
 RMSDP=7.18D-02 MaxDP=5.96D+00 DE=-2.11D+00 OVMax= 1.18D-01

 Cycle   3  Pass 1  IDiag  1:
 RMSU=  2.15D-03    CP:  8.04D-03  3.00D+00
 FoFJK:  IHMeth= 1 ICntrl=     0 DoSepK=T KAlg= 1 I1Cent= 0 FoldK=F
 E= -150.509474542555     Delta-E=       -2.732251588687 Rises=F Damp=F
 DIIS: error= 5.10D-02 at cycle   3 NSaved=   3.
 NSaved= 3 IEnMin= 3 EnMin= -150.509474542555     IErMin= 3 ErrMin= 5.10D-02
 ErrMax= 5.10D-02 EMaxC= 1.00D-01 BMatC= 1.01D+00 BMatP= 7.14D-01
 IDIUse=2 WtCom= 0.00D+00 WtEn= 1.00D+00
 Coeff-En:   0.122D-01 0.000D+00 0.988D+00
 Coeff:      0.122D-01 0.000D+00 0.988D+00
 Gap=     0.823 Goal=   None    Shift=    0.000
 RMSDP=4.15D-03 MaxDP=1.49D-01 DE=-2.73D+00 OVMax= 3.02D-01

 Cycle   4  Pass 1  IDiag  1:
 RMSU=  2.91D-03    CP:  9.08D-03  3.00D+00  1.19D+00
 FoFJK:  IHMeth= 1 ICntrl=     0 DoSepK=T KAlg= 1 I1Cent= 0 FoldK=F
 E= -150.931145811396     Delta-E=       -0.421671268841 Rises=F Damp=F
 DIIS: error= 3.66D-02 at cycle   4 NSaved=   4.
 NSaved= 4 IEnMin= 4 EnMin= -150.931145811396     IErMin= 4 ErrMin= 3.66D-02
 ErrMax= 3.66D-02 EMaxC= 1.00D-01 BMatC= 4.31D-01 BMatP= 7.14D-01
 IDIUse=3 WtCom= 6.34D-01 WtEn= 3.66D-01
 Coeff-Com: -0.426D+00 0.715D+00 0.196D+00 0.514D+00
 Coeff-En:   0.000D+00 0.000D+00 0.186D+00 0.814D+00
 Coeff:     -0.270D+00 0.454D+00 0.192D+00 0.624D+00
 Gap=     0.605 Goal=   None    Shift=    0.000
 RMSDP=1.96D-03 MaxDP=5.55D-02 DE=-4.22D-01 OVMax= 1.50D-01

 Cycle   5  Pass 1  IDiag  1:
 RMSU=  4.05D-04    CP:  8.26D-03  3.00D+00  1.22D+00  5.44D-01
 FoFJK:  IHMeth= 1 ICntrl=     0 DoSepK=T KAlg= 1 I1Cent= 0 FoldK=F
 E= -151.190630911965     Delta-E=       -0.259485100568 Rises=F Damp=F
 DIIS: error= 9.50D-03 at cycle   5 NSaved=   5.
 NSaved= 5 IEnMin= 5 EnMin= -151.190630911965     IErMin= 5 ErrMin= 9.50D-03
 ErrMax= 9.50D-03 EMaxC= 1.00D-01 BMatC= 3.17D-02 BMatP= 4.31D-01
 IDIUse=3 WtCom= 9.05D-01 WtEn= 9.50D-02
 Coeff-Com: -0.986D-01 0.179D+00-0.145D+00 0.830D-01 0.982D+00
 Coeff-En:   0.000D+00 0.000D+00 0.000D+00 0.000D+00 0.100D+01
 Coeff:     -0.892D-01 0.162D+00-0.131D+00 0.751D-01 0.984D+00
 Gap=     0.553 Goal=   None    Shift=    0.000
 RMSDP=4.42D-04 MaxDP=1.70D-02 DE=-2.59D-01 OVMax= 2.65D-02

 Cycle   6  Pass 1  IDiag  1:
 RMSU=  8.71D-05    CP:  8.42D-03  3.00D+00  1.24D+00  6.45D-01  1.10D+00
 FoFJK:  IHMeth= 1 ICntrl=     0 DoSepK=T KAlg= 1 I1Cent= 0 FoldK=F
 E= -151.212312653123     Delta-E=       -0.021681741158 Rises=F Damp=F
 DIIS: error= 2.12D-03 at cycle   6 NSaved=   6.
 NSaved= 6 IEnMin= 6 EnMin= -151.212312653123     IErMin= 6 ErrMin= 2.12D-03
 ErrMax= 2.12D-03 EMaxC= 1.00D-01 BMatC= 9.78D-04 BMatP= 3.17D-02
 IDIUse=3 WtCom= 9.79D-01 WtEn= 2.12D-02
 Coeff-Com: -0.367D-01 0.708D-01 0.409D-02-0.265D-01-0.381D+00 0.137D+01
 Coeff-En:   0.000D+00 0.000D+00 0.000D+00 0.000D+00 0.000D+00 0.100D+01
 Coeff:     -0.359D-01 0.693D-01 0.400D-02-0.260D-01-0.373D+00 0.136D+01
 Gap=     0.549 Goal=   None    Shift=    0.000
 RMSDP=9.03D-05 MaxDP=2.18D-03 DE=-2.17D-02 OVMax= 5.33D-03

 Cycle   7  Pass 1  IDiag  1:
 RMSU=  2.60D-05    CP:  8.45D-03  3.00D+00  1.24D+00  6.59D-01  1.13D+00
                    CP:  1.44D+00
 FoFJK:  IHMeth= 1 ICntrl=     0 DoSepK=T KAlg= 1 I1Cent= 0 FoldK=F
 E= -151.213000396089     Delta-E=       -0.000687742967 Rises=F Damp=F
 DIIS: error= 1.14D-03 at cycle   7 NSaved=   7.
 NSaved= 7 IEnMin= 7 EnMin= -151.213000396089     IErMin= 7 ErrMin= 1.14D-03
 ErrMax= 1.14D-03 EMaxC= 1.00D-01 BMatC= 3.20D-04 BMatP= 9.78D-04
 IDIUse=3 WtCom= 9.89D-01 WtEn= 1.14D-02
 Coeff-Com: -0.537D-02 0.105D-01 0.776D-02 0.758D-02-0.104D+00-0.357D+00
 Coeff-Com:  0.144D+01
 Coeff-En:   0.000D+00 0.000D+00 0.000D+00 0.000D+00 0.000D+00 0.000D+00
 Coeff-En:   0.100D+01
 Coeff:     -0.531D-02 0.104D-01 0.767D-02 0.749D-02-0.102D+00-0.353D+00
 Coeff:      0.143D+01
 Gap=     0.545 Goal=   None    Shift=    0.000
 RMSDP=7.42D-05 MaxDP=2.06D-03 DE=-6.88D-04 OVMax= 4.36D-03

 Cycle   8  Pass 1  IDiag  1:
 RMSU=  9.58D-06    CP:  8.49D-03  3.00D+00  1.24D+00  6.74D-01  1.12D+00
                    CP:  1.69D+00  1.75D+00
 FoFJK:  IHMeth= 1 ICntrl=     0 DoSepK=T KAlg= 1 I1Cent= 0 FoldK=F
 E= -151.213290223325     Delta-E=       -0.000289827236 Rises=F Damp=F
 DIIS: error= 1.55D-04 at cycle   8 NSaved=   8.
 NSaved= 8 IEnMin= 8 EnMin= -151.213290223325     IErMin= 8 ErrMin= 1.55D-04
 ErrMax= 1.55D-04 EMaxC= 1.00D-01 BMatC= 5.92D-06 BMatP= 3.20D-04
 IDIUse=3 WtCom= 9.98D-01 WtEn= 1.55D-03
 Coeff-Com: -0.473D-03 0.722D-03-0.201D-02 0.292D-02 0.373D-01-0.348D-01
 Coeff-Com: -0.273D+00 0.127D+01
 Coeff-En:   0.000D+00 0.000D+00 0.000D+00 0.000D+00 0.000D+00 0.000D+00
 Coeff-En:   0.000D+00 0.100D+01
 Coeff:     -0.472D-03 0.721D-03-0.200D-02 0.292D-02 0.372D-01-0.347D-01
 Coeff:     -0.273D+00 0.127D+01
 Gap=     0.544 Goal=   None    Shift=    0.000
 RMSDP=1.51D-05 MaxDP=4.72D-04 DE=-2.90D-04 OVMax= 9.62D-04

 Cycle   9  Pass 1  IDiag  1:
 RMSU=  1.94D-06    CP:  8.50D-03  3.00D+00  1.24D+00  6.76D-01  1.11D+00
                    CP:  1.72D+00  1.94D+00  1.41D+00
 FoFJK:  IHMeth= 1 ICntrl=     0 DoSepK=T KAlg= 1 I1Cent= 0 FoldK=F
 E= -151.213297291111     Delta-E=       -0.000007067786 Rises=F Damp=F
 DIIS: error= 1.06D-05 at cycle   9 NSaved=   9.
 NSaved= 9 IEnMin= 9 EnMin= -151.213297291111     IErMin= 9 ErrMin= 1.06D-05
 ErrMax= 1.06D-05 EMaxC= 1.00D-01 BMatC= 4.04D-08 BMatP= 5.92D-06
 IDIUse=1 WtCom= 1.00D+00 WtEn= 0.00D+00
 Coeff-Com: -0.350D-04 0.417D-04 0.149D-03-0.480D-03-0.374D-02 0.183D-01
 Coeff-Com: -0.681D-02-0.157D+00 0.115D+01
 Coeff:     -0.350D-04 0.417D-04 0.149D-03-0.480D-03-0.374D-02 0.183D-01
 Coeff:     -0.681D-02-0.157D+00 0.115D+01
 Gap=     0.544 Goal=   None    Shift=    0.000
 RMSDP=1.43D-06 MaxDP=2.72D-05 DE=-7.07D-06 OVMax= 1.90D-04

 Cycle  10  Pass 1  IDiag  1:
 RMSU=  5.40D-07    CP:  8.50D-03  3.00D+00  1.24D+00  6.76D-01  1.11D+00
                    CP:  1.71D+00  1.94D+00  1.44D+00  1.36D+00
 FoFJK:  IHMeth= 1 ICntrl=     0 DoSepK=T KAlg= 1 I1Cent= 0 FoldK=F
 E= -151.213297388884     Delta-E=       -0.000000097772 Rises=F Damp=F
 DIIS: error= 5.94D-06 at cycle  10 NSaved=  10.
 NSaved=10 IEnMin=10 EnMin= -151.213297388884     IErMin=10 ErrMin= 5.94D-06
 ErrMax= 5.94D-06 EMaxC= 1.00D-01 BMatC= 1.05D-08 BMatP= 4.04D-08
 IDIUse=1 WtCom= 1.00D+00 WtEn= 0.00D+00
 Coeff-Com:  0.513D-04-0.914D-04 0.281D-03-0.502D-03-0.515D-02 0.116D-01
 Coeff-Com:  0.181D-01-0.161D+00 0.323D+00 0.814D+00
 Coeff:      0.513D-04-0.914D-04 0.281D-03-0.502D-03-0.515D-02 0.116D-01
 Coeff:      0.181D-01-0.161D+00 0.323D+00 0.814D+00
 Gap=     0.544 Goal=   None    Shift=    0.000
 RMSDP=5.74D-07 MaxDP=1.63D-05 DE=-9.78D-08 OVMax= 8.52D-05

 Cycle  11  Pass 1  IDiag  1:
 RMSU=  2.38D-07    CP:  8.50D-03  3.00D+00  1.24D+00  6.76D-01  1.11D+00
                    CP:  1.71D+00  1.95D+00  1.45D+00  1.49D+00  1.30D+00
 FoFJK:  IHMeth= 1 ICntrl=     0 DoSepK=T KAlg= 1 I1Cent= 0 FoldK=F
 E= -151.213297409948     Delta-E=       -0.000000021064 Rises=F Damp=F
 DIIS: error= 3.60D-06 at cycle  11 NSaved=  11.
 NSaved=11 IEnMin=11 EnMin= -151.213297409948     IErMin=11 ErrMin= 3.60D-06
 ErrMax= 3.60D-06 EMaxC= 1.00D-01 BMatC= 3.23D-09 BMatP= 1.05D-08
 IDIUse=1 WtCom= 1.00D+00 WtEn= 0.00D+00
 Coeff-Com:  0.692D-04-0.119D-03 0.300D-05 0.473D-04 0.838D-03-0.275D-02
 Coeff-Com: -0.484D-02 0.600D-01-0.408D+00 0.531D-01 0.130D+01
 Coeff:      0.692D-04-0.119D-03 0.300D-05 0.473D-04 0.838D-03-0.275D-02
 Coeff:     -0.484D-02 0.600D-01-0.408D+00 0.531D-01 0.130D+01
 Gap=     0.544 Goal=   None    Shift=    0.000
 RMSDP=6.14D-07 MaxDP=1.47D-05 DE=-2.11D-08 OVMax= 9.48D-05

 Cycle  12  Pass 1  IDiag  1:
 RMSU=  1.25D-07    CP:  8.50D-03  3.00D+00  1.24D+00  6.76D-01  1.11D+00
                    CP:  1.71D+00  1.95D+00  1.45D+00  1.61D+00  1.83D+00
                    CP:  1.61D+00
 FoFJK:  IHMeth= 1 ICntrl=     0 DoSepK=T KAlg= 1 I1Cent= 0 FoldK=F
 E= -151.213297420402     Delta-E=       -0.000000010454 Rises=F Damp=F
 DIIS: error= 1.30D-06 at cycle  12 NSaved=  12.
 NSaved=12 IEnMin=12 EnMin= -151.213297420402     IErMin=12 ErrMin= 1.30D-06
 ErrMax= 1.30D-06 EMaxC= 1.00D-01 BMatC= 6.97D-10 BMatP= 3.23D-09
 IDIUse=1 WtCom= 1.00D+00 WtEn= 0.00D+00
 Coeff-Com:  0.956D-05-0.148D-04-0.212D-04 0.188D-04 0.454D-03-0.829D-04
 Coeff-Com: -0.229D-02 0.911D-02 0.202D-01-0.130D+00-0.196D+00 0.130D+01
 Coeff:      0.956D-05-0.148D-04-0.212D-04 0.188D-04 0.454D-03-0.829D-04
 Coeff:     -0.229D-02 0.911D-02 0.202D-01-0.130D+00-0.196D+00 0.130D+01
 Gap=     0.544 Goal=   None    Shift=    0.000
 RMSDP=2.14D-07 MaxDP=4.68D-06 DE=-1.05D-08 OVMax= 3.24D-05

 Cycle  13  Pass 1  IDiag  1:
 RMSU=  2.19D-08    CP:  8.50D-03  3.00D+00  1.24D+00  6.76D-01  1.11D+00
                    CP:  1.72D+00  1.95D+00  1.45D+00  1.65D+00  1.98D+00
                    CP:  1.91D+00  1.47D+00
 FoFJK:  IHMeth= 1 ICntrl=     0 DoSepK=T KAlg= 1 I1Cent= 0 FoldK=F
 E= -151.213297421521     Delta-E=       -0.000000001119 Rises=F Damp=F
 DIIS: error= 2.17D-07 at cycle  13 NSaved=  13.
 NSaved=13 IEnMin=13 EnMin= -151.213297421521     IErMin=13 ErrMin= 2.17D-07
 ErrMax= 2.17D-07 EMaxC= 1.00D-01 BMatC= 1.18D-11 BMatP= 6.97D-10
 IDIUse=1 WtCom= 1.00D+00 WtEn= 0.00D+00
 Coeff-Com:  0.261D-05-0.463D-05 0.766D-05-0.155D-04-0.190D-03 0.253D-03
 Coeff-Com:  0.116D-02-0.883D-02 0.327D-01 0.242D-01-0.696D-01-0.260D+00
 Coeff-Com:  0.128D+01
 Coeff:      0.261D-05-0.463D-05 0.766D-05-0.155D-04-0.190D-03 0.253D-03
 Coeff:      0.116D-02-0.883D-02 0.327D-01 0.242D-01-0.696D-01-0.260D+00
 Coeff:      0.128D+01
 Gap=     0.544 Goal=   None    Shift=    0.000
 RMSDP=4.26D-08 MaxDP=9.78D-07 DE=-1.12D-09 OVMax= 5.32D-06

 Cycle  14  Pass 1  IDiag  1:
 RMSU=  6.45D-09    CP:  8.50D-03  3.00D+00  1.24D+00  6.76D-01  1.11D+00
                    CP:  1.72D+00  1.95D+00  1.46D+00  1.65D+00  2.00D+00
                    CP:  1.95D+00  1.58D+00  1.40D+00
 FoFJK:  IHMeth= 1 ICntrl=     0 DoSepK=T KAlg= 1 I1Cent= 0 FoldK=F
 E= -151.213297421563     Delta-E=       -0.000000000042 Rises=F Damp=F
 DIIS: error= 7.78D-08 at cycle  14 NSaved=  14.
 NSaved=14 IEnMin=14 EnMin= -151.213297421563     IErMin=14 ErrMin= 7.78D-08
 ErrMax= 7.78D-08 EMaxC= 1.00D-01 BMatC= 1.69D-12 BMatP= 1.18D-11
 IDIUse=1 WtCom= 1.00D+00 WtEn= 0.00D+00
 Coeff-Com:  0.419D-06-0.772D-06-0.536D-06 0.737D-06 0.220D-04-0.416D-04
 Coeff-Com: -0.147D-03 0.157D-02-0.826D-02 0.873D-03 0.246D-01 0.475D-03
 Coeff-Com: -0.268D+00 0.125D+01
 Coeff:      0.419D-06-0.772D-06-0.536D-06 0.737D-06 0.220D-04-0.416D-04
 Coeff:     -0.147D-03 0.157D-02-0.826D-02 0.873D-03 0.246D-01 0.475D-03
 Coeff:     -0.268D+00 0.125D+01
 Gap=     0.544 Goal=   None    Shift=    0.000
 RMSDP=5.83D-09 MaxDP=1.62D-07 DE=-4.24D-11 OVMax= 5.47D-07

 SCF Done:  E(RLC-B+HF-LYP) =  -151.213297422     A.U. after   14 cycles
             Convg  =    0.5826D-08             -V/T =  2.0063
 KE= 1.502684614540D+02 PE=-4.315545152012D+02 EE= 9.344625593772D+01
 Leave Link  502 at Mon May 11 21:07:56 2020, MaxMem= 1073741824 cpu:     356.0
 (Enter /home/matheus/.gaussian/g09/l601.exe)
 Copying SCF densities to generalized density rwf, IOpCl= 0 IROHF=0.

 **********************************************************************

            Population analysis using the SCF density.

 **********************************************************************

 Orbital symmetries:
       Occupied  (A) (A) (A) (A) (A) (A) (A) (A) (A)
       Virtual   (A) (A) (A) (A) (A) (A) (A) (A) (A) (A) (A) (A)
                 (A) (A) (A) (A) (A) (A) (A) (A) (A) (A) (A) (A)
                 (A) (A) (A) (A) (A) (A) (A) (A) (A) (A) (A) (A)
                 (A) (A) (A) (A) (A) (A) (A) (A) (A) (A) (A) (A)
                 (A) (A) (A) (A) (A) (A) (A) (A) (A) (A) (A) (A)
                 (A) (A) (A) (A) (A) (A) (A) (A) (A) (A) (A) (A)
                 (A) (A) (A) (A) (A) (A) (A) (A) (A) (A) (A) (A)
                 (A) (A) (A) (A) (A) (A) (A) (A) (A) (A) (A) (A)
                 (A) (A) (A) (A) (A) (A) (A) (A) (A) (A) (A) (A)
                 (A) (A) (A) (A) (A) (A) (A) (A) (A) (A) (A) (A)
                 (A) (A) (A) (A) (A) (A) (A) (A) (A) (A) (A) (A)
                 (A) (A) (A) (A) (A) (A) (A) (A) (A) (A) (A) (A)
                 (A) (A) (A) (A) (A) (A) (A) (A) (A) (A) (A) (A)
                 (A) (A) (A) (A) (A) (A) (A) (A) (A) (A) (A) (A)
                 (A) (A) (A) (A) (A) (A) (A) (A) (A) (A) (A) (A)
                 (A) (A) (A) (A) (A) (A) (A) (A)
 The electronic state is 1-A.
 Alpha  occ. eigenvalues --  -19.48685 -19.48655  -1.46470  -1.21649  -0.77163
 Alpha  occ. eigenvalues --   -0.71025  -0.63625  -0.53134  -0.52392
 Alpha virt. eigenvalues --    0.02054   0.03457   0.06904   0.08054   0.10075
 Alpha virt. eigenvalues --    0.10250   0.11897   0.13554   0.16521   0.16956
 Alpha virt. eigenvalues --    0.18002   0.19559   0.22029   0.23632   0.25403
 Alpha virt. eigenvalues --    0.26058   0.30071   0.30505   0.32011   0.32808
 Alpha virt. eigenvalues --    0.33483   0.36915   0.37085   0.40024   0.41449
 Alpha virt. eigenvalues --    0.43202   0.43914   0.47348   0.47964   0.49318
 Alpha virt. eigenvalues --    0.53462   0.57400   0.62767   0.63706   0.67535
 Alpha virt. eigenvalues --    0.72674   0.76032   0.78177   0.78852   0.81159
 Alpha virt. eigenvalues --    0.82289   0.82812   0.89069   0.90205   0.91764
 Alpha virt. eigenvalues --    0.92820   0.93952   0.95313   0.97521   0.99082
 Alpha virt. eigenvalues --    0.99778   1.01673   1.05821   1.11467   1.13091
 Alpha virt. eigenvalues --    1.14819   1.16073   1.21048   1.24188   1.25415
 Alpha virt. eigenvalues --    1.26888   1.28938   1.30380   1.31731   1.33192
 Alpha virt. eigenvalues --    1.34201   1.35090   1.38268   1.40973   1.43924
 Alpha virt. eigenvalues --    1.45873   1.51665   1.52099   1.53845   1.57905
 Alpha virt. eigenvalues --    1.62855   1.67847   1.69725   1.75947   1.83616
 Alpha virt. eigenvalues --    1.87116   1.93029   2.03582   2.06482   2.12608
 Alpha virt. eigenvalues --    2.14503   2.16824   2.26302   2.29821   2.33769
 Alpha virt. eigenvalues --    2.37086   2.40580   2.45815   2.47065   2.48464
 Alpha virt. eigenvalues --    2.58495   2.62059   2.66303   2.71053   2.74811
 Alpha virt. eigenvalues --    2.78261   2.81320   2.91700   3.00511   3.06316
 Alpha virt. eigenvalues --    3.16944   3.23195   3.23871   3.25517   3.30736
 Alpha virt. eigenvalues --    3.42807   3.55628   3.71480   3.75609   3.78194
 Alpha virt. eigenvalues --    3.78980   3.81620   3.81888   3.83217   3.85478
 Alpha virt. eigenvalues --    3.89805   3.90691   3.97333   3.98159   3.99532
 Alpha virt. eigenvalues --    4.05326   4.12903   4.17430   4.23405   4.28945
 Alpha virt. eigenvalues --    4.32738   4.32818   4.40852   4.44440   4.46852
 Alpha virt. eigenvalues --    4.51402   4.68306   4.74483   4.85263   5.09186
 Alpha virt. eigenvalues --    5.14249   5.16123   5.33799   5.35212   5.40042
 Alpha virt. eigenvalues --    5.66000   6.06755   6.26227   6.37185   6.43447
 Alpha virt. eigenvalues --    6.52311   6.54694   6.70805   6.72997   6.84113
 Alpha virt. eigenvalues --    7.04260   7.04936   7.06945   7.10329   7.13570
 Alpha virt. eigenvalues --    7.15173   7.17976   7.23230   7.26240   7.34096
 Alpha virt. eigenvalues --    7.38928   7.48395   7.70916   7.86865   8.05232
 Alpha virt. eigenvalues --    8.35641   8.37884  10.87436  14.28418  14.82693
 Alpha virt. eigenvalues --   14.86272  14.88841  15.09564  29.02507  29.02612
 Alpha virt. eigenvalues --   29.07341  29.12612  29.22328  49.08685 148.31014
 Alpha virt. eigenvalues --  148.37696 148.69900 752.47095
          Condensed to atoms (all electrons):
              1          2          3          4          5
     1  O    8.202039  -0.168586   0.194033  -0.005822   0.000128
     2  O   -0.168586   8.225371   0.008142   0.187302  -0.001507
     3  H    0.194033   0.008142   0.573862   0.001739  -0.001365
     4  H   -0.005822   0.187302   0.001739   0.574810  -0.002763
     5  Kr   0.000128  -0.001507  -0.001365  -0.002763   0.001317
 Mulliken atomic charges:
              1
     1  O   -0.221793
     2  O   -0.250721
     3  H    0.223590
     4  H    0.244734
     5  Kr   0.004190
 Sum of Mulliken atomic charges =   0.00000
 Mulliken charges with hydrogens summed into heavy atoms:
              1
     1  O    0.001797
     2  O   -0.005987
     5  Kr   0.004190
 Sum of Mulliken charges with hydrogens summed into heavy atoms =   0.00000
          Condensed to fragments (all electrons):
     1      -0.004190
     2       0.004190
 Electronic spatial extent (au):  <R**2>=            320.2947
 Charge=              0.0000 electrons
 Dipole moment (field-independent basis, Debye):
    X=              1.6852    Y=             -0.1807    Z=              1.7361  Tot=              2.4262
 Quadrupole moment (field-independent basis, Debye-Ang):
   XX=            -17.2922   YY=            -10.0269   ZZ=            -11.1086
   XY=              2.5774   XZ=             -3.4232   YZ=             -1.9953
 Traceless Quadrupole moment (field-independent basis, Debye-Ang):
   XX=             -4.4830   YY=              2.7823   ZZ=              1.7006
   XY=              2.5774   XZ=             -3.4232   YZ=             -1.9953
 Octapole moment (field-independent basis, Debye-Ang**2):
  XXX=             84.6685  YYY=             -1.3608  ZZZ=              1.5803  XYY=             21.9569
  XXY=             -7.5620  XXZ=              7.0679  XZZ=             21.9181  YZZ=             -2.0209
  YYZ=              2.5514  XYZ=              4.2201
 Hexadecapole moment (field-independent basis, Debye-Ang**3):
 XXXX=           -325.9982 YYYY=            -43.4022 ZZZZ=            -10.4999 XXXY=             16.5733
 XXXZ=            -15.1730 YYYX=              4.2837 YYYZ=             -2.9554 ZZZX=             -3.2908
 ZZZY=             -2.2063 XXYY=            -56.4397 XXZZ=            -47.1030 YYZZ=             -9.2102
 XXYZ=             -9.1057 YYXZ=             -5.0660 ZZXY=              3.6957
 N-N= 3.662650038791D+01 E-N=-4.315545253114D+02  KE= 1.502684614540D+02
 No NMR shielding tensors so no spin-rotation constants.
 Leave Link  601 at Mon May 11 21:07:56 2020, MaxMem= 1073741824 cpu:       0.8
 (Enter /home/matheus/.gaussian/g09/l122.exe)
 Counterpoise: doing DCBS calculation for fragment   2 NewBq=T
 Leave Link  122 at Mon May 11 21:07:56 2020, MaxMem= 1073741824 cpu:       0.0
 (Enter /home/matheus/.gaussian/g09/l301.exe)
 Basis read from rwf:  (5D, 7F)
 No pseudopotential information found on rwf file.
 There are   197 symmetry adapted basis functions of A   symmetry.
 Integral buffers will be    131072 words long.
 Raffenetti 2 integral format.
 Two-electron integral symmetry is turned on.
   197 basis functions,   415 primitive gaussians,   229 cartesian basis functions
    18 alpha electrons       18 beta electrons
       nuclear repulsion energy         0.0000000000 Hartrees.
 IExCor=10402 DFT=T Ex=LC-B+HF Corr=LYP ExCW=0 ScaHFX=  1.000000
 ScaDFX=  1.000000  1.000000  1.000000  1.000000 ScalE2=  1.000000  1.000000
 IRadAn=      5 IRanWt=     -1 IRanGd=            0 ICorTp=0
  HFx wShort=  0.000000 wLong=  1.350000 cFull=  0.000000 cShort=  0.000000 cLong=  1.000000
  DFx wShort=  0.000000 wLong=  1.350000 cFull=  0.000000 cShort=  0.000000 cLong=  1.000000
 NAtoms=    5 NActive=    5 NUniq=    5 SFac= 1.00D+00 NAtFMM=   60 NAOKFM=F Big=F
 No density basis found on file   718.
 Leave Link  301 at Mon May 11 21:07:56 2020, MaxMem= 1073741824 cpu:       0.2
 (Enter /home/matheus/.gaussian/g09/l302.exe)
 NPDir=0 NMtPBC=     1 NCelOv=     1 NCel=       1 NClECP=     1 NCelD=      1
         NCelK=      1 NCelE2=     1 NClLst=     1 CellRange=     0.0.
 One-electron integrals computed using PRISM.
 NBasis=   197 RedAO= T  NBF=   197
 NBsUse=   197 1.00D-06 NBFU=   197
 Precomputing XC quadrature grid using
 IXCGrd= 2 IRadAn=           5 IRanWt=          -1 IRanGd=           0 AccXCQ= 0.00D+00.
 NRdTot=     427 NPtTot=      123512 NUsed=      126579 NTot=      126611
 NSgBfM=   229   229   229   229   229 NAtAll=     5     5.
 Leave Link  302 at Mon May 11 21:07:56 2020, MaxMem= 1073741824 cpu:       1.0
 (Enter /home/matheus/.gaussian/g09/l303.exe)
 DipDrv:  MaxL=1.
 Leave Link  303 at Mon May 11 21:07:56 2020, MaxMem= 1073741824 cpu:       0.2
 (Enter /home/matheus/.gaussian/g09/l401.exe)
 Harris functional with IExCor=10402 diagonalized for initial guess.
 ExpMin= 2.53D-02 ExpMax= 1.17D+07 ExpMxC= 1.33D+04 IAcc=3 IRadAn=         5 AccDes= 0.00D+00
 HarFok:  IExCor=10402 AccDes= 0.00D+00 IRadAn=         5 IDoV= 1
 ScaDFX=  1.000000  1.000000  1.000000  1.000000
 FoFCou: FMM=F IPFlag=           0 FMFlag=      100000 FMFlg1=           0
         NFxFlg=           0 DoJE=T BraDBF=F KetDBF=T FulRan=T
         Omega=  0.000000  0.000000  1.000000  0.000000  0.000000 ICntrl=     500 IOpCl=  0
         NMat0=    1 NMatS0=    1 NMatT0=    0 NMatD0=    1 NMtDS0=    0 NMtDT0=    0
         I1Cent=           4 NGrid=           0.
 Petite list used in FoFCou.
 Harris En= -2731.73456593452    
 Initial guess orbital symmetries:
       Occupied  (A) (A) (A) (A) (A) (A) (A) (A) (A) (A) (A) (A)
                 (A) (A) (A) (A) (A) (A)
       Virtual   (A) (A) (A) (A) (A) (A) (A) (A) (A) (A) (A) (A)
                 (A) (A) (A) (A) (A) (A) (A) (A) (A) (A) (A) (A)
                 (A) (A) (A) (A) (A) (A) (A) (A) (A) (A) (A) (A)
                 (A) (A) (A) (A) (A) (A) (A) (A) (A) (A) (A) (A)
                 (A) (A) (A) (A) (A) (A) (A) (A) (A) (A) (A) (A)
                 (A) (A) (A) (A) (A) (A) (A) (A) (A) (A) (A) (A)
                 (A) (A) (A) (A) (A) (A) (A) (A) (A) (A) (A) (A)
                 (A) (A) (A) (A) (A) (A) (A) (A) (A) (A) (A) (A)
                 (A) (A) (A) (A) (A) (A) (A) (A) (A) (A) (A) (A)
                 (A) (A) (A) (A) (A) (A) (A) (A) (A) (A) (A) (A)
                 (A) (A) (A) (A) (A) (A) (A) (A) (A) (A) (A) (A)
                 (A) (A) (A) (A) (A) (A) (A) (A) (A) (A) (A) (A)
                 (A) (A) (A) (A) (A) (A) (A) (A) (A) (A) (A) (A)
                 (A) (A) (A) (A) (A) (A) (A) (A) (A) (A) (A) (A)
                 (A) (A) (A) (A) (A) (A) (A) (A) (A) (A) (A)
 The electronic state of the initial guess is 1-A.
 Leave Link  401 at Mon May 11 21:07:56 2020, MaxMem= 1073741824 cpu:       4.2
 (Enter /home/matheus/.gaussian/g09/l502.exe)
 Closed shell SCF:
 Requested convergence on RMS density matrix=1.00D-08 within 128 cycles.
 Requested convergence on MAX density matrix=1.00D-06.
 Requested convergence on             energy=1.00D-06.
 No special actions if energy rises.
 Using DIIS extrapolation, IDIIS=  1040.
 Integral symmetry usage will be decided dynamically.
       126521 words used for storage of precomputed grid.
 IEnd=      305468 IEndB=      305468 NGot=  1073741824 MDV=  1073505667
 LenX=  1073505667 LenY=  1073452785
 Fock matrices will be formed incrementally for  20 cycles.

 Cycle   1  Pass 1  IDiag  1:
 FoFJK:  IHMeth= 1 ICntrl=     0 DoSepK=T KAlg= 1 I1Cent= 0 FoldK=F
 FoFCou: FMM=F IPFlag=           0 FMFlag=      100000 FMFlg1=           0
         NFxFlg=           0 DoJE=T BraDBF=F KetDBF=F FulRan=T
         Omega=  0.000000  0.000000  1.000000  0.000000  0.000000 ICntrl=     500 IOpCl=  0
         NMat0=    1 NMatS0=    1 NMatT0=    0 NMatD0=    1 NMtDS0=    0 NMtDT0=    0
         I1Cent=           0 NGrid=           0.
 Symmetry not used in FoFCou.
 E= -2752.70993972565    
 DIIS: error= 4.29D-02 at cycle   1 NSaved=   1.
 NSaved= 1 IEnMin= 1 EnMin= -2752.70993972565     IErMin= 1 ErrMin= 4.29D-02
 ErrMax= 4.29D-02 EMaxC= 1.00D-01 BMatC= 1.18D+00 BMatP= 1.18D+00
 IDIUse=3 WtCom= 5.71D-01 WtEn= 4.29D-01
 Coeff-Com:  0.100D+01
 Coeff-En:   0.100D+01
 Coeff:      0.100D+01
 Gap=     0.766 Goal=   None    Shift=    0.000
 GapD=    0.766 DampG=2.000 DampE=0.500 DampFc=1.0000 IDamp=-1.
 RMSDP=4.95D-03 MaxDP=2.24D-01              OVMax= 3.37D-01

 Cycle   2  Pass 1  IDiag  1:
 RMSU=  3.42D-03    CP:  1.05D+00
 FoFJK:  IHMeth= 1 ICntrl=     0 DoSepK=T KAlg= 1 I1Cent= 0 FoldK=F
 E= -2753.27692450903     Delta-E=       -0.566984783372 Rises=F Damp=F
 DIIS: error= 2.76D-02 at cycle   2 NSaved=   2.
 NSaved= 2 IEnMin= 2 EnMin= -2753.27692450903     IErMin= 2 ErrMin= 2.76D-02
 ErrMax= 2.76D-02 EMaxC= 1.00D-01 BMatC= 3.64D-01 BMatP= 1.18D+00
 IDIUse=3 WtCom= 7.24D-01 WtEn= 2.76D-01
 Coeff-Com:  0.351D+00 0.649D+00
 Coeff-En:   0.000D+00 0.100D+01
 Coeff:      0.254D+00 0.746D+00
 Gap=     0.604 Goal=   None    Shift=    0.000
 RMSDP=2.20D-03 MaxDP=1.33D-01 DE=-5.67D-01 OVMax= 7.34D-02

 Cycle   3  Pass 1  IDiag  1:
 RMSU=  8.59D-04    CP:  1.03D+00  6.31D-01
 FoFJK:  IHMeth= 1 ICntrl=     0 DoSepK=T KAlg= 1 I1Cent= 0 FoldK=F
 E= -2753.40754819064     Delta-E=       -0.130623681609 Rises=F Damp=F
 DIIS: error= 3.34D-03 at cycle   3 NSaved=   3.
 NSaved= 3 IEnMin= 3 EnMin= -2753.40754819064     IErMin= 3 ErrMin= 3.34D-03
 ErrMax= 3.34D-03 EMaxC= 1.00D-01 BMatC= 6.22D-03 BMatP= 3.64D-01
 IDIUse=3 WtCom= 9.67D-01 WtEn= 3.34D-02
 Coeff-Com: -0.938D-02 0.901D-01 0.919D+00
 Coeff-En:   0.000D+00 0.000D+00 0.100D+01
 Coeff:     -0.907D-02 0.871D-01 0.922D+00
 Gap=     0.575 Goal=   None    Shift=    0.000
 RMSDP=3.47D-04 MaxDP=1.57D-02 DE=-1.31D-01 OVMax= 1.06D-02

 Cycle   4  Pass 1  IDiag  1:
 RMSU=  2.24D-04    CP:  1.03D+00  6.58D-01  9.81D-01
 FoFJK:  IHMeth= 1 ICntrl=     0 DoSepK=T KAlg= 1 I1Cent= 0 FoldK=F
 E= -2753.40945772709     Delta-E=       -0.001909536451 Rises=F Damp=F
 DIIS: error= 2.94D-04 at cycle   4 NSaved=   4.
 NSaved= 4 IEnMin= 4 EnMin= -2753.40945772709     IErMin= 4 ErrMin= 2.94D-04
 ErrMax= 2.94D-04 EMaxC= 1.00D-01 BMatC= 3.58D-05 BMatP= 6.22D-03
 IDIUse=3 WtCom= 9.97D-01 WtEn= 2.94D-03
 Coeff-Com: -0.672D-02-0.435D-02-0.137D-02 0.101D+01
 Coeff-En:   0.000D+00 0.000D+00 0.000D+00 0.100D+01
 Coeff:     -0.670D-02-0.434D-02-0.137D-02 0.101D+01
 Gap=     0.580 Goal=   None    Shift=    0.000
 RMSDP=4.99D-05 MaxDP=2.24D-03 DE=-1.91D-03 OVMax= 3.46D-03

 Cycle   5  Pass 1  IDiag  1:
 RMSU=  2.01D-05    CP:  1.03D+00  6.62D-01  1.00D+00  1.08D+00
 FoFJK:  IHMeth= 1 ICntrl=     0 DoSepK=T KAlg= 1 I1Cent= 0 FoldK=F
 E= -2753.40951797711     Delta-E=       -0.000060250020 Rises=F Damp=F
 DIIS: error= 4.73D-05 at cycle   5 NSaved=   5.
 NSaved= 5 IEnMin= 5 EnMin= -2753.40951797711     IErMin= 5 ErrMin= 4.73D-05
 ErrMax= 4.73D-05 EMaxC= 1.00D-01 BMatC= 4.95D-07 BMatP= 3.58D-05
 IDIUse=1 WtCom= 1.00D+00 WtEn= 0.00D+00
 Coeff-Com: -0.819D-04-0.145D-02 0.117D-02-0.167D+00 0.117D+01
 Coeff:     -0.819D-04-0.145D-02 0.117D-02-0.167D+00 0.117D+01
 Gap=     0.580 Goal=   None    Shift=    0.000
 RMSDP=1.05D-05 MaxDP=4.41D-04 DE=-6.03D-05 OVMax= 6.34D-04

 Cycle   6  Pass 1  IDiag  1:
 RMSU=  9.69D-07    CP:  1.03D+00  6.62D-01  1.01D+00  1.10D+00  1.20D+00
 FoFJK:  IHMeth= 1 ICntrl=     0 DoSepK=T KAlg= 1 I1Cent= 0 FoldK=F
 E= -2753.40951938718     Delta-E=       -0.000001410072 Rises=F Damp=F
 DIIS: error= 2.14D-06 at cycle   6 NSaved=   6.
 NSaved= 6 IEnMin= 6 EnMin= -2753.40951938718     IErMin= 6 ErrMin= 2.14D-06
 ErrMax= 2.14D-06 EMaxC= 1.00D-01 BMatC= 9.80D-10 BMatP= 4.95D-07
 IDIUse=1 WtCom= 1.00D+00 WtEn= 0.00D+00
 Coeff-Com:  0.239D-04 0.112D-03-0.369D-03 0.121D-01-0.114D+00 0.110D+01
 Coeff:      0.239D-04 0.112D-03-0.369D-03 0.121D-01-0.114D+00 0.110D+01
 Gap=     0.580 Goal=   None    Shift=    0.000
 RMSDP=5.18D-07 MaxDP=2.34D-05 DE=-1.41D-06 OVMax= 2.33D-05

 Cycle   7  Pass 1  IDiag  1:
 RMSU=  5.76D-08    CP:  1.03D+00  6.62D-01  1.01D+00  1.11D+00  1.21D+00
                    CP:  1.13D+00
 FoFJK:  IHMeth= 1 ICntrl=     0 DoSepK=T KAlg= 1 I1Cent= 0 FoldK=F
 E= -2753.40951938791     Delta-E=       -0.000000000729 Rises=F Damp=F
 DIIS: error= 1.36D-07 at cycle   7 NSaved=   7.
 NSaved= 7 IEnMin= 7 EnMin= -2753.40951938791     IErMin= 7 ErrMin= 1.36D-07
 ErrMax= 1.36D-07 EMaxC= 1.00D-01 BMatC= 1.04D-11 BMatP= 9.80D-10
 IDIUse=1 WtCom= 1.00D+00 WtEn= 0.00D+00
 Coeff-Com:  0.255D-05 0.350D-05-0.317D-04 0.572D-03-0.243D-02-0.220D-01
 Coeff-Com:  0.102D+01
 Coeff:      0.255D-05 0.350D-05-0.317D-04 0.572D-03-0.243D-02-0.220D-01
 Coeff:      0.102D+01
 Gap=     0.580 Goal=   None    Shift=    0.000
 RMSDP=2.16D-08 MaxDP=1.02D-06 DE=-7.29D-10 OVMax= 1.29D-06

 Cycle   8  Pass 1  IDiag  1:
 RMSU=  8.80D-09    CP:  1.03D+00  6.62D-01  1.01D+00  1.11D+00  1.21D+00
                    CP:  1.14D+00  1.13D+00
 FoFJK:  IHMeth= 1 ICntrl=     0 DoSepK=T KAlg= 1 I1Cent= 0 FoldK=F
 E= -2753.40951938798     Delta-E=       -0.000000000073 Rises=F Damp=F
 DIIS: error= 3.42D-08 at cycle   8 NSaved=   8.
 NSaved= 8 IEnMin= 8 EnMin= -2753.40951938798     IErMin= 8 ErrMin= 3.42D-08
 ErrMax= 3.42D-08 EMaxC= 1.00D-01 BMatC= 4.07D-13 BMatP= 1.04D-11
 IDIUse=1 WtCom= 1.00D+00 WtEn= 0.00D+00
 Coeff-Com:  0.648D-07-0.196D-05 0.278D-05-0.207D-03 0.231D-02-0.274D-01
 Coeff-Com:  0.111D+00 0.914D+00
 Coeff:      0.648D-07-0.196D-05 0.278D-05-0.207D-03 0.231D-02-0.274D-01
 Coeff:      0.111D+00 0.914D+00
 Gap=     0.580 Goal=   None    Shift=    0.000
 RMSDP=4.41D-09 MaxDP=1.49D-07 DE=-7.28D-11 OVMax= 3.48D-07

 SCF Done:  E(RLC-B+HF-LYP) =  -2753.40951939     A.U. after    8 cycles
             Convg  =    0.4409D-08             -V/T =  2.0014
 KE= 2.749636164553D+03 PE=-6.579423834197D+03 EE= 1.076378150255D+03
 Leave Link  502 at Mon May 11 21:08:23 2020, MaxMem= 1073741824 cpu:     214.6
 (Enter /home/matheus/.gaussian/g09/l601.exe)
 Copying SCF densities to generalized density rwf, IOpCl= 0 IROHF=0.

 **********************************************************************

            Population analysis using the SCF density.

 **********************************************************************

 Orbital symmetries:
       Occupied  (A) (A) (A) (A) (A) (A) (A) (A) (A) (A) (A) (A)
                 (A) (A) (A) (A) (A) (A)
       Virtual   (A) (A) (A) (A) (A) (A) (A) (A) (A) (A) (A) (A)
                 (A) (A) (A) (A) (A) (A) (A) (A) (A) (A) (A) (A)
                 (A) (A) (A) (A) (A) (A) (A) (A) (A) (A) (A) (A)
                 (A) (A) (A) (A) (A) (A) (A) (A) (A) (A) (A) (A)
                 (A) (A) (A) (A) (A) (A) (A) (A) (A) (A) (A) (A)
                 (A) (A) (A) (A) (A) (A) (A) (A) (A) (A) (A) (A)
                 (A) (A) (A) (A) (A) (A) (A) (A) (A) (A) (A) (A)
                 (A) (A) (A) (A) (A) (A) (A) (A) (A) (A) (A) (A)
                 (A) (A) (A) (A) (A) (A) (A) (A) (A) (A) (A) (A)
                 (A) (A) (A) (A) (A) (A) (A) (A) (A) (A) (A) (A)
                 (A) (A) (A) (A) (A) (A) (A) (A) (A) (A) (A) (A)
                 (A) (A) (A) (A) (A) (A) (A) (A) (A) (A) (A) (A)
                 (A) (A) (A) (A) (A) (A) (A) (A) (A) (A) (A) (A)
                 (A) (A) (A) (A) (A) (A) (A) (A) (A) (A) (A) (A)
                 (A) (A) (A) (A) (A) (A) (A) (A) (A) (A) (A)
 The electronic state is 1-A.
 Alpha  occ. eigenvalues -- -511.65508 -67.17992 -60.85189 -60.85186 -60.85185
 Alpha  occ. eigenvalues --  -10.08107  -7.79670  -7.79669  -7.79669  -3.62633
 Alpha  occ. eigenvalues --   -3.62633  -3.62633  -3.62632  -3.62632  -1.17384
 Alpha  occ. eigenvalues --   -0.55371  -0.55367  -0.55365
 Alpha virt. eigenvalues --    0.02665   0.04756   0.07907   0.08667   0.11229
 Alpha virt. eigenvalues --    0.11782   0.12899   0.13222   0.15818   0.16712
 Alpha virt. eigenvalues --    0.17507   0.19280   0.20307   0.25680   0.26903
 Alpha virt. eigenvalues --    0.27554   0.28363   0.30762   0.33477   0.34302
 Alpha virt. eigenvalues --    0.36034   0.37220   0.38521   0.39793   0.41130
 Alpha virt. eigenvalues --    0.41771   0.43188   0.54017   0.55185   0.58633
 Alpha virt. eigenvalues --    0.59886   0.66292   0.68564   0.69540   0.72068
 Alpha virt. eigenvalues --    0.75199   0.76489   0.77900   0.80591   0.81312
 Alpha virt. eigenvalues --    0.82267   0.83340   0.85044   0.85911   0.87916
 Alpha virt. eigenvalues --    0.89109   0.89418   0.91738   0.92204   0.96318
 Alpha virt. eigenvalues --    0.98053   0.98628   1.00340   1.00738   1.03327
 Alpha virt. eigenvalues --    1.06415   1.09216   1.11637   1.14217   1.14704
 Alpha virt. eigenvalues --    1.17785   1.22351   1.26807   1.29406   1.31807
 Alpha virt. eigenvalues --    1.33802   1.38005   1.39469   1.47752   1.49184
 Alpha virt. eigenvalues --    1.55134   1.56880   1.63254   1.73865   1.75434
 Alpha virt. eigenvalues --    1.80506   1.82261   1.87543   1.98770   2.24951
 Alpha virt. eigenvalues --    2.29458   2.32096   2.32391   2.33391   2.37777
 Alpha virt. eigenvalues --    2.38836   2.40978   2.43546   2.45477   2.46684
 Alpha virt. eigenvalues --    2.48023   2.50584   2.52308   2.54290   2.57543
 Alpha virt. eigenvalues --    2.58486   2.59830   2.62893   2.65042   2.66290
 Alpha virt. eigenvalues --    2.66784   2.71218   2.74114   2.76311   2.77703
 Alpha virt. eigenvalues --    2.81595   2.84270   2.86565   2.90258   2.92716
 Alpha virt. eigenvalues --    2.99389   3.03013   3.03996   3.09753   3.19448
 Alpha virt. eigenvalues --    3.22669   3.25593   3.30193   3.38104   3.46875
 Alpha virt. eigenvalues --    3.60419   3.63613   3.82075   3.85722   4.03349
 Alpha virt. eigenvalues --    4.40944   4.43960   4.53501   4.60589   4.63880
 Alpha virt. eigenvalues --    4.72202   4.87447   4.88982   4.95033   5.01291
 Alpha virt. eigenvalues --    5.13139   5.24013   5.59984   5.62262   5.77863
 Alpha virt. eigenvalues --    5.91401   6.05069   6.05712   6.74750   6.85263
 Alpha virt. eigenvalues --    7.37475   7.47461   7.55632   7.61017   7.76025
 Alpha virt. eigenvalues --    7.78698   7.92521   8.13679   8.15896   8.21167
 Alpha virt. eigenvalues --    8.39541   8.48946   8.55595   8.85366   9.65004
 Alpha virt. eigenvalues --    9.76118   9.83153   9.87394   9.91155   9.98819
 Alpha virt. eigenvalues --   10.14305  10.31020  10.37912  10.96993  11.51871
 Alpha virt. eigenvalues --   11.64710  11.80738  12.07076  12.08392  13.20728
 Alpha virt. eigenvalues --   13.65074  14.51026  62.82063  64.69398
          Condensed to atoms (all electrons):
              1          2          3          4          5
     1  O    0.001892  -0.002064  -0.001006   0.001321  -0.006839
     2  O   -0.002064   0.006209   0.000743  -0.004344  -0.002174
     3  H   -0.001006   0.000743   0.000742  -0.000398  -0.000056
     4  H    0.001321  -0.004344  -0.000398   0.004285  -0.021463
     5  Kr  -0.006839  -0.002174  -0.000056  -0.021463  36.059431
 Mulliken atomic charges:
              1
     1  O    0.006695
     2  O    0.001630
     3  H   -0.000025
     4  H    0.020599
     5  Kr  -0.028900
 Sum of Mulliken atomic charges =   0.00000
 Mulliken charges with hydrogens summed into heavy atoms:
              1
     1  O    0.006670
     2  O    0.022229
     5  Kr  -0.028900
 Sum of Mulliken charges with hydrogens summed into heavy atoms =   0.00000
          Condensed to fragments (all electrons):
     1       0.028900
     2      -0.028900
 Electronic spatial extent (au):  <R**2>=            163.4531
 Charge=              0.0000 electrons
 Dipole moment (field-independent basis, Debye):
    X=             -0.0015    Y=              0.0007    Z=              0.0002  Tot=              0.0016
 Quadrupole moment (field-independent basis, Debye-Ang):
   XX=            -17.5624   YY=            -17.5740   ZZ=            -17.5819
   XY=             -0.0037   XZ=             -0.0012   YZ=             -0.0002
 Traceless Quadrupole moment (field-independent basis, Debye-Ang):
   XX=              0.0103   YY=             -0.0012   ZZ=             -0.0091
   XY=             -0.0037   XZ=             -0.0012   YZ=             -0.0002
 Octapole moment (field-independent basis, Debye-Ang**2):
  XXX=            -51.7951  YYY=              0.5259  ZZZ=              0.0226  XYY=            -17.2786
  XXY=              0.1671  XXZ=              0.0051  XZZ=            -17.2834  YZZ=              0.1759
  YYZ=              0.0076  XYZ=             -0.0001
 Hexadecapole moment (field-independent basis, Debye-Ang**3):
 XXXX=           -119.8829 YYYY=            -18.0886 ZZZZ=            -18.1083 XXXY=              0.4990
 XXXZ=              0.0170 YYYX=              0.5034 YYYZ=             -0.0002 ZZZX=              0.0192
 ZZZY=              0.0001 XXYY=            -23.0079 XXZZ=            -23.0130 YYZZ=             -6.0318
 XXYZ=             -0.0004 YYXZ=              0.0066 ZZXY=              0.1671
 N-N= 0.000000000000D+00 E-N=-6.579423827613D+03  KE= 2.749636164553D+03
 No NMR shielding tensors so no spin-rotation constants.
 Leave Link  601 at Mon May 11 21:08:24 2020, MaxMem= 1073741824 cpu:       0.7
 (Enter /home/matheus/.gaussian/g09/l122.exe)
 Counterpoise: doing MCBS calculation for fragment   1
 Leave Link  122 at Mon May 11 21:08:24 2020, MaxMem= 1073741824 cpu:       0.0
 (Enter /home/matheus/.gaussian/g09/l301.exe)
 Basis read from rwf:  (5D, 7F)
 No pseudopotential information found on rwf file.
 There are   138 symmetry adapted basis functions of A   symmetry.
 Integral buffers will be    131072 words long.
 Raffenetti 2 integral format.
 Two-electron integral symmetry is turned on.
   138 basis functions,   198 primitive gaussians,   160 cartesian basis functions
     9 alpha electrons        9 beta electrons
       nuclear repulsion energy        36.6265003879 Hartrees.
 IExCor=10402 DFT=T Ex=LC-B+HF Corr=LYP ExCW=0 ScaHFX=  1.000000
[...]

 Cycle   2  Pass 1  IDiag  1:
 RMSU=  1.28D-05    CP:  1.00D+00
 FoFJK:  IHMeth= 1 ICntrl=     0 DoSepK=T KAlg= 1 I1Cent= 0 FoldK=F
 E= -2753.40937561004     Delta-E=       -0.000000680519 Rises=F Damp=F
 DIIS: error= 4.64D-06 at cycle   2 NSaved=   2.
 NSaved= 2 IEnMin= 2 EnMin= -2753.40937561004     IErMin= 2 ErrMin= 4.64D-06
 ErrMax= 4.64D-06 EMaxC= 1.00D-01 BMatC= 4.46D-09 BMatP= 5.48D-06
 IDIUse=1 WtCom= 1.00D+00 WtEn= 0.00D+00
 Coeff-Com: -0.899D-02 0.101D+01
 Coeff:     -0.899D-02 0.101D+01
 Gap=     0.580 Goal=   None    Shift=    0.000
 RMSDP=1.94D-06 MaxDP=7.83D-05 DE=-6.81D-07 OVMax= 5.09D-05

 Cycle   3  Pass 1  IDiag  1:
 RMSU=  6.08D-07    CP:  1.00D+00  1.10D+00
 FoFJK:  IHMeth= 1 ICntrl=     0 DoSepK=T KAlg= 1 I1Cent= 0 FoldK=F
 E= -2753.40937561831     Delta-E=       -0.000000008274 Rises=F Damp=F
 DIIS: error= 6.68D-07 at cycle   3 NSaved=   3.
 NSaved= 3 IEnMin= 3 EnMin= -2753.40937561831     IErMin= 3 ErrMin= 6.68D-07
 ErrMax= 6.68D-07 EMaxC= 1.00D-01 BMatC= 1.01D-10 BMatP= 4.46D-09
 IDIUse=1 WtCom= 1.00D+00 WtEn= 0.00D+00
 Coeff-Com:  0.509D-03-0.141D+00 0.114D+01
 Coeff:      0.509D-03-0.141D+00 0.114D+01
 Gap=     0.580 Goal=   None    Shift=    0.000
 RMSDP=2.43D-07 MaxDP=1.11D-05 DE=-8.27D-09 OVMax= 1.00D-05

 Cycle   4  Pass 1  IDiag  1:
 RMSU=  5.22D-08    CP:  1.00D+00  1.11D+00  1.18D+00
 FoFJK:  IHMeth= 1 ICntrl=     0 DoSepK=T KAlg= 1 I1Cent= 0 FoldK=F
 E= -2753.40937561862     Delta-E=       -0.000000000307 Rises=F Damp=F
 DIIS: error= 2.08D-07 at cycle   4 NSaved=   4.
 NSaved= 4 IEnMin= 4 EnMin= -2753.40937561862     IErMin= 4 ErrMin= 2.08D-07
 ErrMax= 2.08D-07 EMaxC= 1.00D-01 BMatC= 3.67D-12 BMatP= 1.01D-10
 IDIUse=1 WtCom= 1.00D+00 WtEn= 0.00D+00
 Coeff-Com:  0.152D-03-0.275D-01 0.151D+00 0.877D+00
 Coeff:      0.152D-03-0.275D-01 0.151D+00 0.877D+00
 Gap=     0.580 Goal=   None    Shift=    0.000
 RMSDP=1.67D-08 MaxDP=7.98D-07 DE=-3.07D-10 OVMax= 8.20D-07

 Cycle   5  Pass 1  IDiag  1:
 RMSU=  5.67D-09    CP:  1.00D+00  1.10D+00  1.19D+00  1.15D+00
 FoFJK:  IHMeth= 1 ICntrl=     0 DoSepK=T KAlg= 1 I1Cent= 0 FoldK=F
 E= -2753.40937561863     Delta-E=       -0.000000000017 Rises=F Damp=F
 DIIS: error= 4.02D-08 at cycle   5 NSaved=   5.
 NSaved= 5 IEnMin= 5 EnMin= -2753.40937561863     IErMin= 5 ErrMin= 4.02D-08
 ErrMax= 4.02D-08 EMaxC= 1.00D-01 BMatC= 2.96D-13 BMatP= 3.67D-12
 IDIUse=1 WtCom= 1.00D+00 WtEn= 0.00D+00
 Coeff-Com: -0.333D-04 0.920D-02-0.768D-01 0.370D-01 0.103D+01
 Coeff:     -0.333D-04 0.920D-02-0.768D-01 0.370D-01 0.103D+01
 Gap=     0.580 Goal=   None    Shift=    0.000
 RMSDP=6.57D-09 MaxDP=3.64D-07 DE=-1.73D-11 OVMax= 4.12D-07

 SCF Done:  E(RLC-B+HF-LYP) =  -2753.40937562     A.U. after    5 cycles
             Convg  =    0.6574D-08             -V/T =  2.0014
 KE= 2.749687802952D+03 PE=-6.579480693663D+03 EE= 1.076383515093D+03
 Leave Link  502 at Mon May 11 21:32:27 2020, MaxMem= 1073741824 cpu:     100.0
 (Enter /home/matheus/.gaussian/g09/l122.exe)
 Restoring MOs from calculation   4 to rwf.
 Counterpoise: doing MCBS calculation for fragment   1
 Leave Link  122 at Mon May 11 21:32:27 2020, MaxMem= 1073741824 cpu:       0.0
 (Enter /home/matheus/.gaussian/g09/l301.exe)
 Basis read from rwf:  (5D, 7F)
 No pseudopotential information found on rwf file.
 There are   138 symmetry adapted basis functions of A   symmetry.
 Integral buffers will be    131072 words long.
 Raffenetti 2 integral format.
 Two-electron integral symmetry is turned on.
   138 basis functions,   198 primitive gaussians,   160 cartesian basis functions
     9 alpha electrons        9 beta electrons
       nuclear repulsion energy        36.6265003879 Hartrees.
 IExCor=10402 DFT=T Ex=LC-B+HF Corr=LYP ExCW=0 ScaHFX=  1.000000
 ScaDFX=  1.000000  1.000000  1.000000  1.000000 ScalE2=  1.000000  1.000000
 IRadAn=      5 IRanWt=     -1 IRanGd=            0 ICorTp=0
  HFx wShort=  0.000000 wLong=  1.350000 cFull=  0.000000 cShort=  0.000000 cLong=  1.000000
  DFx wShort=  0.000000 wLong=  1.350000 cFull=  0.000000 cShort=  0.000000 cLong=  1.000000
 NAtoms=    5 NActive=    4 NUniq=    4 SFac= 1.00D+00 NAtFMM=   60 NAOKFM=F Big=F
 No density basis found on file   718.
 Leave Link  301 at Mon May 11 21:32:27 2020, MaxMem= 1073741824 cpu:       0.2
 (Enter /home/matheus/.gaussian/g09/l302.exe)
 NPDir=0 NMtPBC=     1 NCelOv=     1 NCel=       1 NClECP=     1 NCelD=      1
         NCelK=      1 NCelE2=     1 NClLst=     1 CellRange=     0.0.
 One-electron integrals computed using PRISM.
 NBasis=   138 RedAO= T  NBF=   138
 NBsUse=   138 1.00D-06 NBFU=   138
 Precomputing XC quadrature grid using
 IXCGrd= 2 IRadAn=           5 IRanWt=          -1 IRanGd=           0 AccXCQ= 0.00D+00.
 NRdTot=     344 NPtTot=       92556 NUsed=       95038 NTot=       95070
 NSgBfM=   160   160   160   160   160 NAtAll=     4     4.
 Leave Link  302 at Mon May 11 21:32:27 2020, MaxMem= 1073741824 cpu:       0.8
 (Enter /home/matheus/.gaussian/g09/l303.exe)
 DipDrv:  MaxL=1.
 Leave Link  303 at Mon May 11 21:32:27 2020, MaxMem= 1073741824 cpu:       0.1
 (Enter /home/matheus/.gaussian/g09/l401.exe)
 Initial guess read from the read-write file.
 Guess basis will be translated and rotated to current coordinates.
 Initial guess orbital symmetries:
       Occupied  (A) (A) (A) (A) (A) (A) (A) (A) (A)
       Virtual   (A) (A) (A) (A) (A) (A) (A) (A) (A) (A) (A) (A)
                 (A) (A) (A) (A) (A) (A) (A) (A) (A) (A) (A) (A)
                 (A) (A) (A) (A) (A) (A) (A) (A) (A) (A) (A) (A)
                 (A) (A) (A) (A) (A) (A) (A) (A) (A) (A) (A) (A)
                 (A) (A) (A) (A) (A) (A) (A) (A) (A) (A) (A) (A)
                 (A) (A) (A) (A) (A) (A) (A) (A) (A) (A) (A) (A)
                 (A) (A) (A) (A) (A) (A) (A) (A) (A) (A) (A) (A)
                 (A) (A) (A) (A) (A) (A) (A) (A) (A) (A) (A) (A)
                 (A) (A) (A) (A) (A) (A) (A) (A) (A) (A) (A) (A)
                 (A) (A) (A) (A) (A) (A) (A) (A) (A) (A) (A) (A)
                 (A) (A) (A) (A) (A) (A) (A) (A) (A)
 The electronic state of the initial guess is 1-A.
 Generating alternative initial guess.
 Harris functional with IExCor=10402 diagonalized for initial guess.
 ExpMin= 2.53D-02 ExpMax= 1.53D+04 ExpMxC= 5.22D+02 IAcc=3 IRadAn=         5 AccDes= 0.00D+00
 HarFok:  IExCor=10402 AccDes= 0.00D+00 IRadAn=         5 IDoV= 1
 ScaDFX=  1.000000  1.000000  1.000000  1.000000
 FoFCou: FMM=F IPFlag=           0 FMFlag=      100000 FMFlg1=           0
         NFxFlg=           0 DoJE=T BraDBF=F KetDBF=T FulRan=T
         Omega=  0.000000  0.000000  1.000000  0.000000  0.000000 ICntrl=     500 IOpCl=  0
         NMat0=    1 NMatS0=    1 NMatT0=    0 NMatD0=    1 NMtDS0=    0 NMtDT0=    0
         I1Cent=           4 NGrid=           0.
 Petite list used in FoFCou.
 Harris En= -143.234011880262    
 Leave Link  401 at Mon May 11 21:32:27 2020, MaxMem= 1073741824 cpu:       2.4
 (Enter /home/matheus/.gaussian/g09/l502.exe)
 Closed shell SCF:
 Requested convergence on RMS density matrix=1.00D-08 within 128 cycles.
 Requested convergence on MAX density matrix=1.00D-06.
 Requested convergence on             energy=1.00D-06.
 No special actions if energy rises.
 Using DIIS extrapolation, IDIIS=  1040.
 Integral symmetry usage will be decided dynamically.
        94980 words used for storage of precomputed grid.
 IEnd=      192360 IEndB=      192360 NGot=  1073741824 MDV=  1073591865
 LenX=  1073591865 LenY=  1073565824
 Fock matrices will be formed incrementally for  20 cycles.

 Cycle   1  Pass 1  IDiag  1:
 FoFJK:  IHMeth= 1 ICntrl=     0 DoSepK=T KAlg= 1 I1Cent= 0 FoldK=F
 FoFCou: FMM=F IPFlag=           0 FMFlag=      100000 FMFlg1=           0
         NFxFlg=           0 DoJE=T BraDBF=F KetDBF=F FulRan=T
         Omega=  0.000000  0.000000  1.000000  0.000000  0.000000 ICntrl=     500 IOpCl=  0
         NMat0=    1 NMatS0=    1 NMatT0=    0 NMatD0=    1 NMtDS0=    0 NMtDT0=    0
         I1Cent=           0 NGrid=           0.
 Symmetry not used in FoFCou.
 E= -151.213204141860    
 DIIS: error= 9.72D-06 at cycle   1 NSaved=   1.
 NSaved= 1 IEnMin= 1 EnMin= -151.213204141860     IErMin= 1 ErrMin= 9.72D-06
 ErrMax= 9.72D-06 EMaxC= 1.00D-01 BMatC= 2.58D-08 BMatP= 2.58D-08
 IDIUse=1 WtCom= 1.00D+00 WtEn= 0.00D+00
 Coeff-Com:  0.100D+01
 Coeff:      0.100D+01
 Gap=     0.547 Goal=   None    Shift=    0.000
 RMSDP=1.01D-06 MaxDP=2.40D-05              OVMax= 3.95D-05

 Cycle   2  Pass 1  IDiag  1:
 RMSU=  7.17D-07    CP:  1.00D+00
 FoFJK:  IHMeth= 1 ICntrl=     0 DoSepK=T KAlg= 1 I1Cent= 0 FoldK=F
 E= -151.213204168249     Delta-E=       -0.000000026389 Rises=F Damp=F
 DIIS: error= 2.82D-06 at cycle   2 NSaved=   2.
 NSaved= 2 IEnMin= 2 EnMin= -151.213204168249     IErMin= 2 ErrMin= 2.82D-06
 ErrMax= 2.82D-06 EMaxC= 1.00D-01 BMatC= 1.50D-09 BMatP= 2.58D-08
 IDIUse=1 WtCom= 1.00D+00 WtEn= 0.00D+00
 Coeff-Com: -0.204D+00 0.120D+01
 Coeff:     -0.204D+00 0.120D+01
 Gap=     0.547 Goal=   None    Shift=    0.000
 RMSDP=3.39D-07 MaxDP=9.69D-06 DE=-2.64D-08 OVMax= 2.01D-05

 Cycle   3  Pass 1  IDiag  1:
 RMSU=  1.28D-07    CP:  1.00D+00  1.28D+00
 FoFJK:  IHMeth= 1 ICntrl=     0 DoSepK=T KAlg= 1 I1Cent= 0 FoldK=F
 E= -151.213204171399     Delta-E=       -0.000000003150 Rises=F Damp=F
 DIIS: error= 1.06D-06 at cycle   3 NSaved=   3.
 NSaved= 3 IEnMin= 3 EnMin= -151.213204171399     IErMin= 3 ErrMin= 1.06D-06
 ErrMax= 1.06D-06 EMaxC= 1.00D-01 BMatC= 1.39D-10 BMatP= 1.50D-09
 IDIUse=1 WtCom= 1.00D+00 WtEn= 0.00D+00
 Coeff-Com:  0.221D-02-0.173D+00 0.117D+01
 Coeff:      0.221D-02-0.173D+00 0.117D+01
 Gap=     0.547 Goal=   None    Shift=    0.000
 RMSDP=1.10D-07 MaxDP=2.28D-06 DE=-3.15D-09 OVMax= 7.89D-06

 Cycle   4  Pass 1  IDiag  1:
 RMSU=  4.09D-08    CP:  1.00D+00  1.34D+00  1.39D+00
 FoFJK:  IHMeth= 1 ICntrl=     0 DoSepK=T KAlg= 1 I1Cent= 0 FoldK=F
 E= -151.213204171761     Delta-E=       -0.000000000362 Rises=F Damp=F
 DIIS: error= 4.66D-07 at cycle   4 NSaved=   4.
 NSaved= 4 IEnMin= 4 EnMin= -151.213204171761     IErMin= 4 ErrMin= 4.66D-07
 ErrMax= 4.66D-07 EMaxC= 1.00D-01 BMatC= 5.17D-11 BMatP= 1.39D-10
 IDIUse=1 WtCom= 1.00D+00 WtEn= 0.00D+00
 Coeff-Com:  0.276D-01-0.230D+00 0.438D+00 0.764D+00
 Coeff:      0.276D-01-0.230D+00 0.438D+00 0.764D+00
 Gap=     0.547 Goal=   None    Shift=    0.000
 RMSDP=4.31D-08 MaxDP=8.56D-07 DE=-3.62D-10 OVMax= 3.13D-06

 Cycle   5  Pass 1  IDiag  1:
 RMSU=  1.89D-08    CP:  1.00D+00  1.36D+00  1.56D+00  1.01D+00
 FoFJK:  IHMeth= 1 ICntrl=     0 DoSepK=T KAlg= 1 I1Cent= 0 FoldK=F
 E= -151.213204171840     Delta-E=       -0.000000000079 Rises=F Damp=F
 DIIS: error= 1.78D-07 at cycle   5 NSaved=   5.
 NSaved= 5 IEnMin= 5 EnMin= -151.213204171840     IErMin= 5 ErrMin= 1.78D-07
 ErrMax= 1.78D-07 EMaxC= 1.00D-01 BMatC= 5.21D-12 BMatP= 5.17D-11
 IDIUse=1 WtCom= 1.00D+00 WtEn= 0.00D+00
 Coeff-Com: -0.721D-03 0.319D-01-0.232D+00 0.150D-01 0.119D+01
 Coeff:     -0.721D-03 0.319D-01-0.232D+00 0.150D-01 0.119D+01
 Gap=     0.547 Goal=   None    Shift=    0.000
 RMSDP=2.60D-08 MaxDP=6.67D-07 DE=-7.86D-11 OVMax= 2.22D-06

 Cycle   6  Pass 1  IDiag  1:
 RMSU=  6.18D-09    CP:  1.00D+00  1.36D+00  1.64D+00  1.28D+00  1.43D+00
 FoFJK:  IHMeth= 1 ICntrl=     0 DoSepK=T KAlg= 1 I1Cent= 0 FoldK=F
 E= -151.213204171858     Delta-E=       -0.000000000018 Rises=F Damp=F
 DIIS: error= 5.72D-08 at cycle   6 NSaved=   6.
 NSaved= 6 IEnMin= 6 EnMin= -151.213204171858     IErMin= 6 ErrMin= 5.72D-08
 ErrMax= 5.72D-08 EMaxC= 1.00D-01 BMatC= 4.42D-13 BMatP= 5.21D-12
 IDIUse=1 WtCom= 1.00D+00 WtEn= 0.00D+00
 Coeff-Com: -0.265D-02 0.196D-01-0.748D-02-0.812D-01-0.184D+00 0.126D+01
 Coeff:     -0.265D-02 0.196D-01-0.748D-02-0.812D-01-0.184D+00 0.126D+01
 Gap=     0.547 Goal=   None    Shift=    0.000
 RMSDP=9.51D-09 MaxDP=2.29D-07 DE=-1.81D-11 OVMax= 8.85D-07

 SCF Done:  E(RLC-B+HF-LYP) =  -151.213204172     A.U. after    6 cycles
             Convg  =    0.9511D-08             -V/T =  2.0063
 KE= 1.502685972747D+02 PE=-4.315532865048D+02 EE= 9.344498467030D+01
 Leave Link  502 at Mon May 11 21:32:33 2020, MaxMem= 1073741824 cpu:      45.8
 (Enter /home/matheus/.gaussian/g09/l122.exe)
 Restoring MOs from calculation   5 to rwf.
 Counterpoise: doing MCBS calculation for fragment   2
 Leave Link  122 at Mon May 11 21:32:33 2020, MaxMem= 1073741824 cpu:       0.0
 (Enter /home/matheus/.gaussian/g09/l301.exe)
 Basis read from rwf:  (5D, 7F)
 No pseudopotential information found on rwf file.
 There are    59 symmetry adapted basis functions of A   symmetry.
 Integral buffers will be    131072 words long.
 Raffenetti 2 integral format.
 Two-electron integral symmetry is turned on.
    59 basis functions,   217 primitive gaussians,    69 cartesian basis functions
    18 alpha electrons       18 beta electrons
       nuclear repulsion energy         0.0000000000 Hartrees.
 IExCor=10402 DFT=T Ex=LC-B+HF Corr=LYP ExCW=0 ScaHFX=  1.000000
 ScaDFX=  1.000000  1.000000  1.000000  1.000000 ScalE2=  1.000000  1.000000
 IRadAn=      5 IRanWt=     -1 IRanGd=            0 ICorTp=0
  HFx wShort=  0.000000 wLong=  1.350000 cFull=  0.000000 cShort=  0.000000 cLong=  1.000000
  DFx wShort=  0.000000 wLong=  1.350000 cFull=  0.000000 cShort=  0.000000 cLong=  1.000000
 NAtoms=    5 NActive=    1 NUniq=    1 SFac= 1.00D+00 NAtFMM=   60 NAOKFM=F Big=F
 No density basis found on file   718.
 Leave Link  301 at Mon May 11 21:32:33 2020, MaxMem= 1073741824 cpu:       0.2
 (Enter /home/matheus/.gaussian/g09/l302.exe)
 NPDir=0 NMtPBC=     1 NCelOv=     1 NCel=       1 NClECP=     1 NCelD=      1
         NCelK=      1 NCelE2=     1 NClLst=     1 CellRange=     0.0.
 One-electron integrals computed using PRISM.
 NBasis=    59 RedAO= T  NBF=    59
 NBsUse=    59 1.00D-06 NBFU=    59
 Precomputing XC quadrature grid using
 IXCGrd= 2 IRadAn=           5 IRanWt=          -1 IRanGd=           0 AccXCQ= 0.00D+00.
 NRdTot=      81 NPtTot=       30352 NUsed=       30981 NTot=       31013
 NSgBfM=    69    69    69    69    69 NAtAll=     1     1.
 Leave Link  302 at Mon May 11 21:32:33 2020, MaxMem= 1073741824 cpu:       0.6
 (Enter /home/matheus/.gaussian/g09/l303.exe)
 DipDrv:  MaxL=1.
 Leave Link  303 at Mon May 11 21:32:33 2020, MaxMem= 1073741824 cpu:       0.1
 (Enter /home/matheus/.gaussian/g09/l401.exe)
 Initial guess read from the read-write file.
 Guess basis will be translated and rotated to current coordinates.
 Initial guess orbital symmetries:
       Occupied  (A) (A) (A) (A) (A) (A) (A) (A) (A) (A) (A) (A)
                 (A) (A) (A) (A) (A) (A)
       Virtual   (A) (A) (A) (A) (A) (A) (A) (A) (A) (A) (A) (A)
                 (A) (A) (A) (A) (A) (A) (A) (A) (A) (A) (A) (A)
                 (A) (A) (A) (A) (A) (A) (A) (A) (A) (A) (A) (A)
                 (A) (A) (A) (A) (A)
 The electronic state of the initial guess is 1-A.
 Generating alternative initial guess.
 Harris functional with IExCor=10402 diagonalized for initial guess.
 ExpMin= 4.00D-02 ExpMax= 1.17D+07 ExpMxC= 1.33D+04 IAcc=3 IRadAn=         5 AccDes= 0.00D+00
 HarFok:  IExCor=10402 AccDes= 0.00D+00 IRadAn=         5 IDoV= 1
 ScaDFX=  1.000000  1.000000  1.000000  1.000000
 FoFCou: FMM=F IPFlag=           0 FMFlag=      100000 FMFlg1=           0
         NFxFlg=           0 DoJE=T BraDBF=F KetDBF=T FulRan=T
         Omega=  0.000000  0.000000  1.000000  0.000000  0.000000 ICntrl=     500 IOpCl=  0
         NMat0=    1 NMatS0=    1 NMatT0=    0 NMatD0=    1 NMtDS0=    0 NMtDT0=    0
         I1Cent=           4 NGrid=           0.
 Petite list used in FoFCou.
 Harris En= -2731.73388500824    
 Leave Link  401 at Mon May 11 21:32:33 2020, MaxMem= 1073741824 cpu:       1.0
 (Enter /home/matheus/.gaussian/g09/l502.exe)
 Closed shell SCF:
 Requested convergence on RMS density matrix=1.00D-08 within 128 cycles.
 Requested convergence on MAX density matrix=1.00D-06.
 Requested convergence on             energy=1.00D-06.
 No special actions if energy rises.
 Using DIIS extrapolation, IDIIS=  1040.
 Integral symmetry usage will be decided dynamically.
        30923 words used for storage of precomputed grid.
 IEnd=       64406 IEndB=       64406 NGot=  1073741824 MDV=  1073698889
 LenX=  1073698889 LenY=  1073693687
 Fock matrices will be formed incrementally for  20 cycles.

 Cycle   1  Pass 1  IDiag  1:
 FoFJK:  IHMeth= 1 ICntrl=     0 DoSepK=T KAlg= 1 I1Cent= 0 FoldK=F
 FoFCou: FMM=F IPFlag=           0 FMFlag=      100000 FMFlg1=           0
         NFxFlg=           0 DoJE=T BraDBF=F KetDBF=F FulRan=T
         Omega=  0.000000  0.000000  1.000000  0.000000  0.000000 ICntrl=     500 IOpCl=  0
         NMat0=    1 NMatS0=    1 NMatT0=    0 NMatD0=    1 NMtDS0=    0 NMtDT0=    0
         I1Cent=           0 NGrid=           0.
 Symmetry not used in FoFCou.
 E= -2753.40934852740    
 DIIS: error= 1.05D-13 at cycle   1 NSaved=   1.
 NSaved= 1 IEnMin= 1 EnMin= -2753.40934852740     IErMin= 1 ErrMin= 1.05D-13
 ErrMax= 1.05D-13 EMaxC= 1.00D-01 BMatC= 4.88D-25 BMatP= 4.88D-25
 IDIUse=1 WtCom= 1.00D+00 WtEn= 0.00D+00
 Coeff-Com:  0.100D+01
 Coeff:      0.100D+01
 Gap=     0.640 Goal=   None    Shift=    0.000
 DSYEVD returned Info=          89 IAlg= 4 N=    59 NDim=    59 NE2=    18198197 trying DSYEV.
 RMSDP=7.87D-15 MaxDP=1.92D-13              OVMax= 4.88D-14

 SCF Done:  E(RLC-B+HF-LYP) =  -2753.40934853     A.U. after    1 cycles
             Convg  =    0.7868D-14             -V/T =  2.0014
 KE= 2.749695852517D+03 PE=-6.579489077514D+03 EE= 1.076383876470D+03
 Leave Link  502 at Mon May 11 21:32:35 2020, MaxMem= 1073741824 cpu:      11.7
 (Enter /home/matheus/.gaussian/g09/l122.exe)
 Restoring MOs from calculation   1 to rwf.
 Counterpoise: corrected energy =   -2904.622627387354
 Counterpoise: BSSE energy =       0.000031096985
 Leave Link  122 at Mon May 11 21:32:35 2020, MaxMem= 1073741824 cpu:       0.0
 (Enter /home/matheus/.gaussian/g09/l108.exe)
 Scan completed.

 Summary of the potential surface scan:
   N      R1          SCF    
 ----  ---------  -----------
    1     3.0000  -2753.40935
    2     3.1000  -2753.40935
    3     3.2000  -2753.40935
    4     3.3000  -2753.40935
    5     3.4000  -2753.40935
    6     3.5000  -2753.40935
    7     3.6000  -2753.40935
    8     3.7000  -2753.40935
    9     3.8000  -2753.40935
   10     3.9000  -2753.40935
   11     4.0000  -2753.40935
   12     4.1000  -2753.40935
   13     4.2000  -2753.40935
   14     4.3000  -2753.40935
   15     4.4000  -2753.40935
   16     4.5000  -2753.40935
   17     4.6000  -2753.40935
   18     4.7000  -2753.40935
   19     4.8000  -2753.40935
   20     4.9000  -2753.40935
   21     5.0000  -2753.40935
 ----  ---------  -----------
  
 Leave Link  108 at Mon May 11 21:32:35 2020, MaxMem= 1073741824 cpu:       0.0
 (Enter /home/matheus/.gaussian/g09/l9999.exe)

 Test job not archived.
 1\1\GINC-REDGIANT\Scan\RLC-BLYP\Aug-CC-pVTZ\H2Kr1O2\MATHEUS\11-May-202
 0\1\\#p lc-blyp/aug-cc-PVTz iop(3/107=1350000000) iop(3/108=1350000000
 ) int=ultrafine counterpoise=2 Scan\\TCC\\0,1\O,0,0.,0.,0.725\O,0,0.,0
 .,-0.725\H,0,-0.9187205947,0.,1.0235104166\H,0,0.,0.9187205947,-1.0235
 104166\Kr,0,0.,R1,0.\\R1=3.,s,20,0.1\\Version=EM64L-G09RevC.01\State=1
 -A\HF=-2753.4093485,-2753.4093485,-2753.4093485,-2753.4093485,-2753.40
 93485,-2753.4093485,-2753.4093485,-2753.4093485,-2753.4093485,-2753.40
 93485,-2753.4093485,-2753.4093485,-2753.4093485,-2753.4093485,-2753.40
 93485,-2753.4093485,-2753.4093485,-2753.4093485,-2753.4093485,-2753.40
 93485,-2753.4093485\RMSD=5.461e-09,3.089e-10,7.451e-11,2.036e-11,7.194
 e-12,3.141e-12,1.447e-12,6.859e-13,3.265e-13,1.550e-13,7.367e-14,3.289
 e-14,2.209e-14,9.691e-15,1.046e-14,4.127e-15,8.022e-15,5.614e-15,3.129
 e-15,4.975e-15,7.868e-15\PG=C01 [X(H2Kr1O2)]\\@


 In the race for quality, there is no finish line.
                               -- David T. Kearns
 Job cpu time:  0 days  3 hours 28 minutes 18.0 seconds.
 File lengths (MBytes):  RWF=     37 Int=      0 D2E=      0 Chk=      8 Scr=      1
 Normal termination of Gaussian 09 at Mon May 11 21:32:35 2020.
