 Entering Gaussian System, Link 0=g09
 Input=/home/matheus/.tcc/Inputs/Inputs-lc-blyp/H2O2-Kr_22.com
 Output=/home/matheus/.tcc/Logs/Logs-lc-blyp/H2O2-Kr_22.log
 Initial command:
 /home/matheus/.gaussian/g09/l1.exe /home/matheus/.gaussian/g09/scratch/Gau-12095.inp -scrdir=/home/matheus/.gaussian/g09/scratch/
 Entering Link 1 = /home/matheus/.gaussian/g09/l1.exe PID=     12098.
  
 Copyright (c) 1988,1990,1992,1993,1995,1998,2003,2009,2011,
            Gaussian, Inc.  All Rights Reserved.
  
 This is part of the Gaussian(R) 09 program.  It is based on
 the Gaussian(R) 03 system (copyright 2003, Gaussian, Inc.),
 the Gaussian(R) 98 system (copyright 1998, Gaussian, Inc.),
 the Gaussian(R) 94 system (copyright 1995, Gaussian, Inc.),
 the Gaussian 92(TM) system (copyright 1992, Gaussian, Inc.),
 the Gaussian 90(TM) system (copyright 1990, Gaussian, Inc.),
 the Gaussian 88(TM) system (copyright 1988, Gaussian, Inc.),
 the Gaussian 86(TM) system (copyright 1986, Carnegie Mellon
 University), and the Gaussian 82(TM) system (copyright 1983,
 Carnegie Mellon University). Gaussian is a federally registered
 trademark of Gaussian, Inc.
  
 This software contains proprietary and confidential information,
 including trade secrets, belonging to Gaussian, Inc.
  
 This software is provided under written license and may be
 used, copied, transmitted, or stored only in accord with that
 written license.
  
 The following legend is applicable only to US Government
 contracts under FAR:
  
                    RESTRICTED RIGHTS LEGEND
  
 Use, reproduction and disclosure by the US Government is
 subject to restrictions as set forth in subparagraphs (a)
 and (c) of the Commercial Computer Software - Restricted
 Rights clause in FAR 52.227-19.
  
 Gaussian, Inc.
 340 Quinnipiac St., Bldg. 40, Wallingford CT 06492
  
  
 ---------------------------------------------------------------
 Warning -- This program may not be used in any manner that
 competes with the business of Gaussian, Inc. or will provide
 assistance to any competitor of Gaussian, Inc.  The licensee
 of this program is prohibited from giving any competitor of
 Gaussian, Inc. access to this program.  By using this program,
 the user acknowledges that Gaussian, Inc. is engaged in the
 business of creating and licensing software in the field of
 computational chemistry and represents and warrants to the
 licensee that it is not a competitor of Gaussian, Inc. and that
 it will not use this program in any manner prohibited above.
 ---------------------------------------------------------------
  

 Cite this work as:
 Gaussian 09, Revision C.01,
 M. J. Frisch, G. W. Trucks, H. B. Schlegel, G. E. Scuseria, 
 M. A. Robb, J. R. Cheeseman, G. Scalmani, V. Barone, B. Mennucci, 
 G. A. Petersson, H. Nakatsuji, M. Caricato, X. Li, H. P. Hratchian, 
 A. F. Izmaylov, J. Bloino, G. Zheng, J. L. Sonnenberg, M. Hada, 
 M. Ehara, K. Toyota, R. Fukuda, J. Hasegawa, M. Ishida, T. Nakajima, 
 Y. Honda, O. Kitao, H. Nakai, T. Vreven, J. A. Montgomery, Jr., 
 J. E. Peralta, F. Ogliaro, M. Bearpark, J. J. Heyd, E. Brothers, 
 K. N. Kudin, V. N. Staroverov, T. Keith, R. Kobayashi, J. Normand, 
 K. Raghavachari, A. Rendell, J. C. Burant, S. S. Iyengar, J. Tomasi, 
 M. Cossi, N. Rega, J. M. Millam, M. Klene, J. E. Knox, J. B. Cross, 
 V. Bakken, C. Adamo, J. Jaramillo, R. Gomperts, R. E. Stratmann, 
 O. Yazyev, A. J. Austin, R. Cammi, C. Pomelli, J. W. Ochterski, 
 R. L. Martin, K. Morokuma, V. G. Zakrzewski, G. A. Voth, 
 P. Salvador, J. J. Dannenberg, S. Dapprich, A. D. Daniels, 
 O. Farkas, J. B. Foresman, J. V. Ortiz, J. Cioslowski, 
 and D. J. Fox, Gaussian, Inc., Wallingford CT, 2010.
 
 ******************************************
 Gaussian 09:  EM64L-G09RevC.01 23-Sep-2011
                11-May-2020 
 ******************************************
 %mem=8GB
 %nproc=8
 Will use up to    8 processors via shared memory.
 ----------------------------------------------------------------------
 #p lc-blyp/aug-cc-PVTz iop(3/107=1350000000) iop(3/108=1350000000) int
 =ultrafine counterpoise=2 Scan
 ----------------------------------------------------------------------
 1/38=1,60=1,62=2/1,8;
 2/12=2,17=6,18=5,29=3,40=1/2;
 1/38=1,53=5172,62=2/22;
 3/5=16,6=1,7=10,11=2,16=1,25=1,30=1,74=1000402,75=-5,107=1350000000,108=1350000000/1,2,3;
 4//1;
 5/5=2,38=5/2;
 6/7=2,8=2,9=2,10=2,18=1,28=1/1;
 1/53=4052,62=2,63=1/22;
 3/5=7,6=11,7=10,11=2,16=1,25=1,30=1,74=1000402,75=-5,82=7,107=1350000000,108=1350000000/1,2,3;
 4//1;
 5/5=2,38=5/2;
 6/7=2,8=2,9=2,10=2,18=1,28=1/1;
 1/53=3042,62=2,63=2/22;
 3/5=7,6=11,7=10,11=2,16=1,25=1,30=1,74=1000402,75=-5,82=7,107=1350000000,108=1350000000/1,2,3;
 4//1;
 5/5=2,38=5/2;
 6/7=2,8=2,9=2,10=2,18=1,28=1/1;
 1/53=2032,62=2,63=3/22;
 3/5=7,6=11,7=10,11=2,16=1,25=1,30=1,74=1000402,75=-5,82=7,107=1350000000,108=1350000000/1,2,3;
 4//1;
 5/5=2,38=5/2;
 6/7=2,8=2,9=2,10=2,18=1,28=1/1;
 1/53=1022,62=2,63=4/22;
 3/5=7,6=11,7=10,11=2,16=1,25=1,30=1,74=1000402,75=-5,82=7,107=1350000000,108=1350000000/1,2,3;
 4//1;
 5/5=2,38=5/2;
 6/7=2,8=2,9=2,10=2,18=1,28=1/1;
 1/53=5014,62=2,63=5/22;
 1/60=1,62=2/8(1);
 99/9=1/99;
 2/29=3/2;
 1/53=5173,62=2/22;
 3/5=7,6=11,7=10,11=2,16=1,25=1,30=1,74=1000402,75=-5,82=7,107=1350000000,108=1350000000/1,2,3;
 4/5=5,16=3/1;
 5/5=2,38=5/2;
 1/53=4053,62=2,63=1/22;
 3/5=7,6=11,7=10,11=2,16=1,25=1,30=1,74=1000402,75=-5,82=7,107=1350000000,108=1350000000/1,2,3;
 4/5=5,16=3/1;
 5/5=2,38=5/2;
 1/53=3043,62=2,63=2/22;
 3/5=7,6=11,7=10,11=2,16=1,25=1,30=1,74=1000402,75=-5,82=7,107=1350000000,108=1350000000/1,2,3;
 4/5=5,16=3/1;
 5/5=2,38=5/2;
 1/53=2033,62=2,63=3/22;
 3/5=7,6=11,7=10,11=2,16=1,25=1,30=1,74=1000402,75=-5,82=7,107=1350000000,108=1350000000/1,2,3;
 4/5=5,16=3/1;
 5/5=2,38=5/2;
 1/53=1024,62=2,63=4/22;
 3/5=7,6=11,7=10,11=2,16=1,25=1,30=1,74=1000402,75=-5,82=7,107=1350000000,108=1350000000/1,2,3;
 4/5=5,16=3/1;
 5/5=2,38=5/2;
 1/53=5014,62=2,63=5/22;
 1/60=1,62=2/8(-22);
 99/9=1/99;
 Leave Link    1 at Mon May 11 18:55:32 2020, MaxMem= 1073741824 cpu:       0.1
 (Enter /home/matheus/.gaussian/g09/l101.exe)
 ---
 TCC
 ---
 Charge =  0 Multiplicity = 1 in supermolecule
 Charge =  0 Multiplicity = 1 in fragment  1.
 Charge =  0 Multiplicity = 1 in fragment  2.
 Symbolic Z-Matrix:
 O(Fragment=1)         0.        0.        0.725 
 O(Fragment=1)         0.        0.       -0.725 
 H(Fragment=1)        -0.59054  -0.70378   1.02351 
 H(Fragment=1)         0.        0.91872  -1.02351 
 Kr(Fragment=2)        0.       R1        0. 
       Variables:
  R1                    3.     Scan 20    0.1    
 
 NAtoms=      5 NQM=        0 NQMF=       0 NMMI=      5 NMMIF=      0
                NMic=       0 NMicF=      0.
                    Isotopes and Nuclear Properties:
 (Nuclear quadrupole moments (NQMom) in fm**2, nuclear magnetic moments (NMagM)
  in nuclear magnetons)

  Atom         1           2           3           4           5
 IAtWgt=          16          16           1           1          84
 AtmWgt=  15.9949146  15.9949146   1.0078250   1.0078250  83.9115064
 NucSpn=           0           0           1           1           0
 AtZEff=   0.0000000   0.0000000   0.0000000   0.0000000   0.0000000
 NQMom=    0.0000000   0.0000000   0.0000000   0.0000000   0.0000000
 NMagM=    0.0000000   0.0000000   2.7928460   2.7928460   0.0000000
 Leave Link  101 at Mon May 11 18:55:32 2020, MaxMem= 1073741824 cpu:       0.3
 (Enter /home/matheus/.gaussian/g09/l108.exe)
 Scan the potential surface.
 Variable   Value     No. Steps Step-Size
 -------- ----------- --------- ---------
     1       3.000000      20      0.1000
 A total of     21 points will be computed.
 Leave Link  108 at Mon May 11 18:55:32 2020, MaxMem= 1073741824 cpu:       0.0
 (Enter /home/matheus/.gaussian/g09/l202.exe)
 ---------------------------------------------------------------------------------------------------
                            Z-MATRIX (ANGSTROMS AND DEGREES)
   CD    Cent   Atom    N1       Length/X        N2       Alpha/Y        N3        Beta/Z          J
 ---------------------------------------------------------------------------------------------------
      1      1  O        0   0.000000          0.000000          0.725000
      2      2  O        0   0.000000          0.000000         -0.725000
      3      3  H        0  -0.590542         -0.703781          1.023510
      4      4  H        0   0.000000          0.918721         -1.023510
      5      5  Kr       0   0.000000          3.000000          0.000000
 ---------------------------------------------------------------------------------------------------
                         Z-Matrix orientation:                         
 ---------------------------------------------------------------------
 Center     Atomic      Atomic             Coordinates (Angstroms)
 Number     Number       Type             X           Y           Z
 ---------------------------------------------------------------------
      1          8           0        0.000000    0.000000    0.725000
      2          8           0        0.000000    0.000000   -0.725000
      3          1           0       -0.590542   -0.703781    1.023510
      4          1           0        0.000000    0.918721   -1.023510
      5         36           0        0.000000    3.000000    0.000000
 ---------------------------------------------------------------------
                    Distance matrix (angstroms):
                    1          2          3          4          5
     1  O    0.000000
     2  O    1.450000   0.000000
     3  H    0.966000   1.975180   0.000000
     4  H    1.975180   0.966000   2.677974   0.000000
     5  Kr   3.086361   3.086361   3.887712   2.319331   0.000000
 Stoichiometry    H2KrO2
 Framework group  C1[X(H2KrO2)]
 Deg. of freedom     9
 Full point group                 C1      NOp   1
 Largest Abelian subgroup         C1      NOp   1
 Largest concise Abelian subgroup C1      NOp   1
                         Standard orientation:                         
 ---------------------------------------------------------------------
 Center     Atomic      Atomic             Coordinates (Angstroms)
 Number     Number       Type             X           Y           Z
 ---------------------------------------------------------------------
      1          8           0       -2.015651   -0.687348   -0.079909
      2          8           0       -1.990960    0.760101    0.002433
      3          1           0       -2.733117   -1.006163    0.482902
      4          1           0       -1.067391    1.041693    0.032139
      5         36           0        0.995928   -0.017154    0.002910
 ---------------------------------------------------------------------
 Rotational constants (GHZ):     26.2569855      2.3123407      2.1308521
 Leave Link  202 at Mon May 11 18:55:32 2020, MaxMem= 1073741824 cpu:       0.0
 (Enter /home/matheus/.gaussian/g09/l122.exe)
 Leave Link  122 at Mon May 11 18:55:32 2020, MaxMem= 1073741824 cpu:       0.0
 (Enter /home/matheus/.gaussian/g09/l301.exe)
 Standard basis: Aug-CC-pVTZ (5D, 7F)
 Ernie: Thresh=  0.10000D-02 Tol=  0.10000D-05 Strict=F.
 Ernie:  38 primitive shells out of 205 were deleted.
 There are   197 symmetry adapted basis functions of A   symmetry.
 Integral buffers will be    131072 words long.
 Raffenetti 2 integral format.
 Two-electron integral symmetry is turned on.
   197 basis functions,   415 primitive gaussians,   229 cartesian basis functions
    27 alpha electrons       27 beta electrons
       nuclear repulsion energy       148.4787781510 Hartrees.
 IExCor=10402 DFT=T Ex=LC-B+HF Corr=LYP ExCW=0 ScaHFX=  1.000000
 ScaDFX=  1.000000  1.000000  1.000000  1.000000 ScalE2=  1.000000  1.000000
 IRadAn=      5 IRanWt=     -1 IRanGd=            0 ICorTp=0
  HFx wShort=  0.000000 wLong=  1.350000 cFull=  0.000000 cShort=  0.000000 cLong=  1.000000
  DFx wShort=  0.000000 wLong=  1.350000 cFull=  0.000000 cShort=  0.000000 cLong=  1.000000
 NAtoms=    5 NActive=    5 NUniq=    5 SFac= 1.00D+00 NAtFMM=   60 NAOKFM=F Big=F
 Leave Link  301 at Mon May 11 18:55:32 2020, MaxMem= 1073741824 cpu:       0.2
 (Enter /home/matheus/.gaussian/g09/l302.exe)
 NPDir=0 NMtPBC=     1 NCelOv=     1 NCel=       1 NClECP=     1 NCelD=      1
         NCelK=      1 NCelE2=     1 NClLst=     1 CellRange=     0.0.
 One-electron integrals computed using PRISM.
 NBasis=   197 RedAO= T  NBF=   197
 NBsUse=   197 1.00D-06 NBFU=   197
 Precomputing XC quadrature grid using
 IXCGrd= 2 IRadAn=           5 IRanWt=          -1 IRanGd=           0 AccXCQ= 0.00D+00.
 NRdTot=     427 NPtTot=      123814 NUsed=      126881 NTot=      126913
 NSgBfM=   229   229   229   229   229 NAtAll=     5     5.
 Leave Link  302 at Mon May 11 18:55:32 2020, MaxMem= 1073741824 cpu:       1.0
 (Enter /home/matheus/.gaussian/g09/l303.exe)
 DipDrv:  MaxL=1.
 Leave Link  303 at Mon May 11 18:55:32 2020, MaxMem= 1073741824 cpu:       0.2
 (Enter /home/matheus/.gaussian/g09/l401.exe)
 Harris functional with IExCor=10402 diagonalized for initial guess.
 ExpMin= 2.53D-02 ExpMax= 1.17D+07 ExpMxC= 1.33D+04 IAcc=3 IRadAn=         5 AccDes= 0.00D+00
 HarFok:  IExCor=10402 AccDes= 0.00D+00 IRadAn=         5 IDoV= 1
 ScaDFX=  1.000000  1.000000  1.000000  1.000000
 FoFCou: FMM=F IPFlag=           0 FMFlag=      100000 FMFlg1=           0
         NFxFlg=           0 DoJE=T BraDBF=F KetDBF=T FulRan=T
         Omega=  0.000000  0.000000  1.000000  0.000000  0.000000 ICntrl=     500 IOpCl=  0
         NMat0=    1 NMatS0=    1 NMatT0=    0 NMatD0=    1 NMtDS0=    0 NMtDT0=    0
         I1Cent=           4 NGrid=           0.
 Petite list used in FoFCou.
 Harris En= -2874.93150301446    
 Initial guess orbital symmetries:
       Occupied  (A) (A) (A) (A) (A) (A) (A) (A) (A) (A) (A) (A)
                 (A) (A) (A) (A) (A) (A) (A) (A) (A) (A) (A) (A)
                 (A) (A) (A)
       Virtual   (A) (A) (A) (A) (A) (A) (A) (A) (A) (A) (A) (A)
                 (A) (A) (A) (A) (A) (A) (A) (A) (A) (A) (A) (A)
                 (A) (A) (A) (A) (A) (A) (A) (A) (A) (A) (A) (A)
                 (A) (A) (A) (A) (A) (A) (A) (A) (A) (A) (A) (A)
                 (A) (A) (A) (A) (A) (A) (A) (A) (A) (A) (A) (A)
                 (A) (A) (A) (A) (A) (A) (A) (A) (A) (A) (A) (A)
                 (A) (A) (A) (A) (A) (A) (A) (A) (A) (A) (A) (A)
                 (A) (A) (A) (A) (A) (A) (A) (A) (A) (A) (A) (A)
                 (A) (A) (A) (A) (A) (A) (A) (A) (A) (A) (A) (A)
                 (A) (A) (A) (A) (A) (A) (A) (A) (A) (A) (A) (A)
                 (A) (A) (A) (A) (A) (A) (A) (A) (A) (A) (A) (A)
                 (A) (A) (A) (A) (A) (A) (A) (A) (A) (A) (A) (A)
                 (A) (A) (A) (A) (A) (A) (A) (A) (A) (A) (A) (A)
                 (A) (A) (A) (A) (A) (A) (A) (A) (A) (A) (A) (A)
                 (A) (A)
 The electronic state of the initial guess is 1-A.
 Leave Link  401 at Mon May 11 18:55:33 2020, MaxMem= 1073741824 cpu:       3.8
 (Enter /home/matheus/.gaussian/g09/l502.exe)
 Closed shell SCF:
 Requested convergence on RMS density matrix=1.00D-08 within 128 cycles.
 Requested convergence on MAX density matrix=1.00D-06.
 Requested convergence on             energy=1.00D-06.
 No special actions if energy rises.
 Using DIIS extrapolation, IDIIS=  1040.
 Integral symmetry usage will be decided dynamically.
       126823 words used for storage of precomputed grid.
 IEnd=      305770 IEndB=      305770 NGot=  1073741824 MDV=  1073505365
 LenX=  1073505365 LenY=  1073452483
 Fock matrices will be formed incrementally for  20 cycles.

 Cycle   1  Pass 1  IDiag  1:
 FoFJK:  IHMeth= 1 ICntrl=     0 DoSepK=T KAlg= 1 I1Cent= 0 FoldK=F
 FoFCou: FMM=F IPFlag=           0 FMFlag=      100000 FMFlg1=           0
         NFxFlg=           0 DoJE=T BraDBF=F KetDBF=F FulRan=T
         Omega=  0.000000  0.000000  1.000000  0.000000  0.000000 ICntrl=     500 IOpCl=  0
         NMat0=    1 NMatS0=    1 NMatT0=    0 NMatD0=    1 NMtDS0=    0 NMtDT0=    0
         I1Cent=           0 NGrid=           0.
 Symmetry not used in FoFCou.
 E= -2898.76632284298    
 DIIS: error= 1.33D-01 at cycle   1 NSaved=   1.
 NSaved= 1 IEnMin= 1 EnMin= -2898.76632284298     IErMin= 1 ErrMin= 1.33D-01
 ErrMax= 1.33D-01 EMaxC= 1.00D-01 BMatC= 3.98D+00 BMatP= 3.98D+00
 IDIUse=3 WtCom= 0.00D+00 WtEn= 1.00D+00
 Coeff-Com:  0.100D+01
 Coeff-En:   0.100D+01
 Coeff:      0.100D+01
 Gap=    -0.964 Goal=   None    Shift=    0.000
 GapD=   -0.964 DampG=0.250 DampE=0.250 DampFc=0.2500 IDamp=-1.
 Damping current iteration by 2.50D-01
 RMSDP=1.03D-01 MaxDP=7.51D+00              OVMax= 9.98D-01

 Cycle   2  Pass 1  IDiag  1:
 RMSU=  4.46D-03    CP:  7.63D-01
 FoFJK:  IHMeth= 1 ICntrl=     0 DoSepK=T KAlg= 1 I1Cent= 0 FoldK=F
 E= -2900.95197282032     Delta-E=       -2.185649977332 Rises=F Damp=T
 DIIS: error= 5.37D-02 at cycle   2 NSaved=   2.
 NSaved= 2 IEnMin= 2 EnMin= -2900.95197282032     IErMin= 2 ErrMin= 5.37D-02
 ErrMax= 5.37D-02 EMaxC= 1.00D-01 BMatC= 1.07D+00 BMatP= 3.98D+00
 IDIUse=3 WtCom= 4.63D-01 WtEn= 5.37D-01
 Coeff-Com: -0.768D+00 0.177D+01
 Coeff-En:   0.000D+00 0.100D+01
 Coeff:     -0.356D+00 0.136D+01
 Gap=     0.123 Goal=   None    Shift=    0.000
 RMSDP=7.72D-02 MaxDP=5.63D+00 DE=-2.19D+00 OVMax= 8.67D-01

 Cycle   3  Pass 1  IDiag  1:
 RMSU=  5.91D-03    CP:  5.36D-02  3.00D+00
 FoFJK:  IHMeth= 1 ICntrl=     0 DoSepK=T KAlg= 1 I1Cent= 0 FoldK=F
 E= -2904.27360525138     Delta-E=       -3.321632431069 Rises=F Damp=F
 DIIS: error= 3.36D-02 at cycle   3 NSaved=   3.
 NSaved= 3 IEnMin= 3 EnMin= -2904.27360525138     IErMin= 3 ErrMin= 3.36D-02
 ErrMax= 3.36D-02 EMaxC= 1.00D-01 BMatC= 5.32D-01 BMatP= 1.07D+00
 IDIUse=3 WtCom= 6.64D-01 WtEn= 3.36D-01
 Coeff-Com: -0.378D-01 0.455D+00 0.583D+00
 Coeff-En:   0.000D+00 0.000D+00 0.100D+01
 Coeff:     -0.251D-01 0.302D+00 0.723D+00
 Gap=     0.606 Goal=   None    Shift=    0.000
 RMSDP=2.41D-03 MaxDP=8.62D-02 DE=-3.32D+00 OVMax= 1.04D-01

 Cycle   4  Pass 1  IDiag  1:
 RMSU=  1.70D-03    CP:  5.31D-02  3.00D+00  9.80D-01
 FoFJK:  IHMeth= 1 ICntrl=     0 DoSepK=T KAlg= 1 I1Cent= 0 FoldK=F
 E= -2904.61103867466     Delta-E=       -0.337433423277 Rises=F Damp=F
 DIIS: error= 4.01D-03 at cycle   4 NSaved=   4.
 NSaved= 4 IEnMin= 4 EnMin= -2904.61103867466     IErMin= 4 ErrMin= 4.01D-03
 ErrMax= 4.01D-03 EMaxC= 1.00D-01 BMatC= 1.05D-02 BMatP= 5.32D-01
 IDIUse=3 WtCom= 9.60D-01 WtEn= 4.01D-02
 Coeff-Com: -0.152D-01 0.498D-01 0.644D-01 0.901D+00
 Coeff-En:   0.000D+00 0.000D+00 0.000D+00 0.100D+01
 Coeff:     -0.146D-01 0.478D-01 0.619D-01 0.905D+00
 Gap=     0.501 Goal=   None    Shift=    0.000
 RMSDP=6.19D-04 MaxDP=2.03D-02 DE=-3.37D-01 OVMax= 1.84D-02

 Cycle   5  Pass 1  IDiag  1:
 RMSU=  4.25D-04    CP:  5.32D-02  3.00D+00  9.79D-01  1.06D+00
 FoFJK:  IHMeth= 1 ICntrl=     0 DoSepK=T KAlg= 1 I1Cent= 0 FoldK=F
 E= -2904.61837437662     Delta-E=       -0.007335701955 Rises=F Damp=F
 DIIS: error= 1.35D-03 at cycle   5 NSaved=   5.
 NSaved= 5 IEnMin= 5 EnMin= -2904.61837437662     IErMin= 5 ErrMin= 1.35D-03
 ErrMax= 1.35D-03 EMaxC= 1.00D-01 BMatC= 7.10D-04 BMatP= 1.05D-02
 IDIUse=3 WtCom= 9.87D-01 WtEn= 1.35D-02
 Coeff-Com: -0.224D-01 0.453D-01-0.733D-02-0.354D-01 0.102D+01
 Coeff-En:   0.000D+00 0.000D+00 0.000D+00 0.000D+00 0.100D+01
 Coeff:     -0.221D-01 0.447D-01-0.723D-02-0.349D-01 0.102D+01
 Gap=     0.517 Goal=   None    Shift=    0.000
 RMSDP=1.54D-04 MaxDP=5.62D-03 DE=-7.34D-03 OVMax= 7.13D-03

 Cycle   6  Pass 1  IDiag  1:
 RMSU=  8.85D-05    CP:  5.32D-02  3.00D+00  9.78D-01  1.07D+00  1.14D+00
 FoFJK:  IHMeth= 1 ICntrl=     0 DoSepK=T KAlg= 1 I1Cent= 0 FoldK=F
 E= -2904.61909351640     Delta-E=       -0.000719139785 Rises=F Damp=F
 DIIS: error= 5.57D-04 at cycle   6 NSaved=   6.
 NSaved= 6 IEnMin= 6 EnMin= -2904.61909351640     IErMin= 6 ErrMin= 5.57D-04
 ErrMax= 5.57D-04 EMaxC= 1.00D-01 BMatC= 1.58D-04 BMatP= 7.10D-04
 IDIUse=3 WtCom= 9.94D-01 WtEn= 5.57D-03
 Coeff-Com: -0.593D-02 0.117D-01-0.117D-01-0.570D-01 0.162D+00 0.901D+00
 Coeff-En:   0.000D+00 0.000D+00 0.000D+00 0.000D+00 0.000D+00 0.100D+01
 Coeff:     -0.589D-02 0.116D-01-0.117D-01-0.567D-01 0.161D+00 0.902D+00
 Gap=     0.520 Goal=   None    Shift=    0.000
 RMSDP=6.69D-05 MaxDP=1.61D-03 DE=-7.19D-04 OVMax= 4.39D-03

 Cycle   7  Pass 1  IDiag  1:
 RMSU=  2.82D-05    CP:  5.32D-02  3.00D+00  9.77D-01  1.08D+00  1.21D+00
                    CP:  1.13D+00
 FoFJK:  IHMeth= 1 ICntrl=     0 DoSepK=T KAlg= 1 I1Cent= 0 FoldK=F
 E= -2904.61928882424     Delta-E=       -0.000195307837 Rises=F Damp=F
 DIIS: error= 3.77D-04 at cycle   7 NSaved=   7.
 NSaved= 7 IEnMin= 7 EnMin= -2904.61928882424     IErMin= 7 ErrMin= 3.77D-04
 ErrMax= 3.77D-04 EMaxC= 1.00D-01 BMatC= 3.53D-05 BMatP= 1.58D-04
 IDIUse=3 WtCom= 9.96D-01 WtEn= 3.77D-03
 Coeff-Com:  0.143D-02-0.307D-02-0.547D-02-0.170D-01-0.102D+00 0.319D+00
 Coeff-Com:  0.807D+00
 Coeff-En:   0.000D+00 0.000D+00 0.000D+00 0.000D+00 0.000D+00 0.000D+00
 Coeff-En:   0.100D+01
 Coeff:      0.142D-02-0.306D-02-0.545D-02-0.170D-01-0.102D+00 0.318D+00
 Coeff:      0.808D+00
 Gap=     0.520 Goal=   None    Shift=    0.000
 RMSDP=3.17D-05 MaxDP=7.27D-04 DE=-1.95D-04 OVMax= 2.88D-03

 Cycle   8  Pass 1  IDiag  1:
 RMSU=  1.36D-05    CP:  5.32D-02  3.00D+00  9.77D-01  1.09D+00  1.24D+00
                    CP:  1.22D+00  1.19D+00
 FoFJK:  IHMeth= 1 ICntrl=     0 DoSepK=T KAlg= 1 I1Cent= 0 FoldK=F
 E= -2904.61933690984     Delta-E=       -0.000048085605 Rises=F Damp=F
 DIIS: error= 1.12D-04 at cycle   8 NSaved=   8.
 NSaved= 8 IEnMin= 8 EnMin= -2904.61933690984     IErMin= 8 ErrMin= 1.12D-04
 ErrMax= 1.12D-04 EMaxC= 1.00D-01 BMatC= 3.26D-06 BMatP= 3.53D-05
 IDIUse=3 WtCom= 9.99D-01 WtEn= 1.12D-03
 Coeff-Com:  0.139D-02-0.253D-02 0.259D-02 0.869D-02-0.921D-02-0.133D+00
 Coeff-Com: -0.398D-01 0.117D+01
 Coeff-En:   0.000D+00 0.000D+00 0.000D+00 0.000D+00 0.000D+00 0.000D+00
 Coeff-En:   0.000D+00 0.100D+01
 Coeff:      0.139D-02-0.253D-02 0.259D-02 0.868D-02-0.920D-02-0.132D+00
 Coeff:     -0.397D-01 0.117D+01
 Gap=     0.520 Goal=   None    Shift=    0.000
 RMSDP=1.56D-05 MaxDP=3.49D-04 DE=-4.81D-05 OVMax= 2.18D-03

 Cycle   9  Pass 1  IDiag  1:
 RMSU=  5.83D-06    CP:  5.32D-02  3.00D+00  9.77D-01  1.09D+00  1.24D+00
                    CP:  1.25D+00  1.43D+00  1.41D+00
 FoFJK:  IHMeth= 1 ICntrl=     0 DoSepK=T KAlg= 1 I1Cent= 0 FoldK=F
 E= -2904.61934767823     Delta-E=       -0.000010768390 Rises=F Damp=F
 DIIS: error= 5.63D-05 at cycle   9 NSaved=   9.
 NSaved= 9 IEnMin= 9 EnMin= -2904.61934767823     IErMin= 9 ErrMin= 5.63D-05
 ErrMax= 5.63D-05 EMaxC= 1.00D-01 BMatC= 6.94D-07 BMatP= 3.26D-06
 IDIUse=1 WtCom= 1.00D+00 WtEn= 0.00D+00
 Coeff-Com: -0.172D-03 0.402D-03 0.379D-03 0.693D-03 0.494D-02 0.153D-01
 Coeff-Com: -0.721D-01-0.441D+00 0.149D+01
 Coeff:     -0.172D-03 0.402D-03 0.379D-03 0.693D-03 0.494D-02 0.153D-01
 Coeff:     -0.721D-01-0.441D+00 0.149D+01
 Gap=     0.520 Goal=   None    Shift=    0.000
 RMSDP=1.04D-05 MaxDP=2.23D-04 DE=-1.08D-05 OVMax= 1.59D-03

 Cycle  10  Pass 1  IDiag  1:
 RMSU=  2.26D-06    CP:  5.32D-02  3.00D+00  9.77D-01  1.09D+00  1.23D+00
                    CP:  1.27D+00  1.54D+00  1.70D+00  1.79D+00
 FoFJK:  IHMeth= 1 ICntrl=     0 DoSepK=T KAlg= 1 I1Cent= 0 FoldK=F
 E= -2904.61935091397     Delta-E=       -0.000003235737 Rises=F Damp=F
 DIIS: error= 2.24D-05 at cycle  10 NSaved=  10.
 NSaved=10 IEnMin=10 EnMin= -2904.61935091397     IErMin=10 ErrMin= 2.24D-05
 ErrMax= 2.24D-05 EMaxC= 1.00D-01 BMatC= 1.04D-07 BMatP= 6.94D-07
 IDIUse=1 WtCom= 1.00D+00 WtEn= 0.00D+00
 Coeff-Com: -0.209D-03 0.382D-03-0.527D-03-0.150D-02-0.735D-03 0.187D-01
 Coeff-Com:  0.122D-01-0.146D+00-0.154D+00 0.127D+01
 Coeff:     -0.209D-03 0.382D-03-0.527D-03-0.150D-02-0.735D-03 0.187D-01
 Coeff:      0.122D-01-0.146D+00-0.154D+00 0.127D+01
 Gap=     0.520 Goal=   None    Shift=    0.000
 RMSDP=4.57D-06 MaxDP=1.03D-04 DE=-3.24D-06 OVMax= 7.34D-04

 Cycle  11  Pass 1  IDiag  1:
 RMSU=  9.06D-07    CP:  5.32D-02  3.00D+00  9.77D-01  1.09D+00  1.23D+00
                    CP:  1.28D+00  1.58D+00  1.82D+00  2.12D+00  1.55D+00
 FoFJK:  IHMeth= 1 ICntrl=     0 DoSepK=T KAlg= 1 I1Cent= 0 FoldK=F
 E= -2904.61935143311     Delta-E=       -0.000000519135 Rises=F Damp=F
 DIIS: error= 7.34D-06 at cycle  11 NSaved=  11.
 NSaved=11 IEnMin=11 EnMin= -2904.61935143311     IErMin=11 ErrMin= 7.34D-06
 ErrMax= 7.34D-06 EMaxC= 1.00D-01 BMatC= 1.21D-08 BMatP= 1.04D-07
 IDIUse=1 WtCom= 1.00D+00 WtEn= 0.00D+00
 Coeff-Com: -0.168D-04 0.177D-04 0.215D-04 0.104D-03 0.140D-02-0.737D-02
 Coeff-Com:  0.301D-03 0.797D-01-0.140D+00-0.266D+00 0.133D+01
 Coeff:     -0.168D-04 0.177D-04 0.215D-04 0.104D-03 0.140D-02-0.737D-02
 Coeff:      0.301D-03 0.797D-01-0.140D+00-0.266D+00 0.133D+01
 Gap=     0.520 Goal=   None    Shift=    0.000
 RMSDP=1.59D-06 MaxDP=3.37D-05 DE=-5.19D-07 OVMax= 2.42D-04

 Cycle  12  Pass 1  IDiag  1:
 RMSU=  3.22D-07    CP:  5.32D-02  3.00D+00  9.77D-01  1.09D+00  1.23D+00
                    CP:  1.28D+00  1.60D+00  1.86D+00  2.20D+00  1.77D+00
                    CP:  1.52D+00
 FoFJK:  IHMeth= 1 ICntrl=     0 DoSepK=T KAlg= 1 I1Cent= 0 FoldK=F
 E= -2904.61935148782     Delta-E=       -0.000000054713 Rises=F Damp=F
 DIIS: error= 1.82D-06 at cycle  12 NSaved=  12.
 NSaved=12 IEnMin=12 EnMin= -2904.61935148782     IErMin=12 ErrMin= 1.82D-06
 ErrMax= 1.82D-06 EMaxC= 1.00D-01 BMatC= 7.76D-10 BMatP= 1.21D-08
 IDIUse=1 WtCom= 1.00D+00 WtEn= 0.00D+00
 Coeff-Com:  0.671D-05-0.143D-04 0.258D-04 0.107D-03-0.435D-03 0.641D-03
 Coeff-Com:  0.265D-03-0.983D-02 0.440D-01-0.284D-01-0.347D+00 0.134D+01
 Coeff:      0.671D-05-0.143D-04 0.258D-04 0.107D-03-0.435D-03 0.641D-03
 Coeff:      0.265D-03-0.983D-02 0.440D-01-0.284D-01-0.347D+00 0.134D+01
 Gap=     0.520 Goal=   None    Shift=    0.000
 RMSDP=3.66D-07 MaxDP=9.21D-06 DE=-5.47D-08 OVMax= 4.36D-05

 Cycle  13  Pass 1  IDiag  1:
 RMSU=  6.74D-08    CP:  5.32D-02  3.00D+00  9.77D-01  1.09D+00  1.23D+00
                    CP:  1.28D+00  1.60D+00  1.86D+00  2.21D+00  1.79D+00
                    CP:  1.67D+00  1.42D+00
 FoFJK:  IHMeth= 1 ICntrl=     0 DoSepK=T KAlg= 1 I1Cent= 0 FoldK=F
 E= -2904.61935149072     Delta-E=       -0.000000002901 Rises=F Damp=F
 DIIS: error= 3.57D-07 at cycle  13 NSaved=  13.
 NSaved=13 IEnMin=13 EnMin= -2904.61935149072     IErMin=13 ErrMin= 3.57D-07
 ErrMax= 3.57D-07 EMaxC= 1.00D-01 BMatC= 3.78D-11 BMatP= 7.76D-10
 IDIUse=1 WtCom= 1.00D+00 WtEn= 0.00D+00
 Coeff-Com:  0.945D-06-0.901D-06-0.281D-05-0.106D-04-0.749D-05 0.171D-03
 Coeff-Com:  0.179D-03-0.183D-02-0.285D-02 0.194D-01-0.951D-02-0.202D+00
 Coeff-Com:  0.120D+01
 Coeff:      0.945D-06-0.901D-06-0.281D-05-0.106D-04-0.749D-05 0.171D-03
 Coeff:      0.179D-03-0.183D-02-0.285D-02 0.194D-01-0.951D-02-0.202D+00
 Coeff:      0.120D+01
 Gap=     0.520 Goal=   None    Shift=    0.000
 RMSDP=6.49D-08 MaxDP=2.04D-06 DE=-2.90D-09 OVMax= 5.45D-06

 Cycle  14  Pass 1  IDiag  1:
 RMSU=  1.48D-08    CP:  5.32D-02  3.00D+00  9.77D-01  1.09D+00  1.23D+00
                    CP:  1.28D+00  1.60D+00  1.86D+00  2.21D+00  1.80D+00
                    CP:  1.68D+00  1.48D+00  1.39D+00
 FoFJK:  IHMeth= 1 ICntrl=     0 DoSepK=T KAlg= 1 I1Cent= 0 FoldK=F
 E= -2904.61935149081     Delta-E=       -0.000000000085 Rises=F Damp=F
 DIIS: error= 1.09D-07 at cycle  14 NSaved=  14.
 NSaved=14 IEnMin=14 EnMin= -2904.61935149081     IErMin=14 ErrMin= 1.09D-07
 ErrMax= 1.09D-07 EMaxC= 1.00D-01 BMatC= 3.76D-12 BMatP= 3.78D-11
 IDIUse=1 WtCom= 1.00D+00 WtEn= 0.00D+00
 Coeff-Com:  0.532D-06-0.843D-06-0.105D-05-0.656D-05 0.490D-04-0.155D-03
 Coeff-Com: -0.409D-04 0.143D-02-0.356D-02-0.752D-03 0.315D-01-0.832D-01
 Coeff-Com: -0.168D+00 0.122D+01
 Coeff:      0.532D-06-0.843D-06-0.105D-05-0.656D-05 0.490D-04-0.155D-03
 Coeff:     -0.409D-04 0.143D-02-0.356D-02-0.752D-03 0.315D-01-0.832D-01
 Coeff:     -0.168D+00 0.122D+01
 Gap=     0.520 Goal=   None    Shift=    0.000
 RMSDP=1.83D-08 MaxDP=7.01D-07 DE=-8.55D-11 OVMax= 1.89D-06

 Cycle  15  Pass 1  IDiag  1:
 RMSU=  5.62D-09    CP:  5.32D-02  3.00D+00  9.77D-01  1.09D+00  1.23D+00
                    CP:  1.28D+00  1.60D+00  1.86D+00  2.21D+00  1.80D+00
                    CP:  1.68D+00  1.49D+00  1.51D+00  1.44D+00
 FoFJK:  IHMeth= 1 ICntrl=     0 DoSepK=T KAlg= 1 I1Cent= 0 FoldK=F
 E= -2904.61935149083     Delta-E=       -0.000000000024 Rises=F Damp=F
 DIIS: error= 3.81D-08 at cycle  15 NSaved=  15.
 NSaved=15 IEnMin=15 EnMin= -2904.61935149083     IErMin=15 ErrMin= 3.81D-08
 ErrMax= 3.81D-08 EMaxC= 1.00D-01 BMatC= 4.01D-13 BMatP= 3.76D-12
 IDIUse=1 WtCom= 1.00D+00 WtEn= 0.00D+00
 Coeff-Com: -0.830D-07 0.106D-06 0.540D-06 0.339D-05-0.216D-04 0.425D-04
 Coeff-Com:  0.583D-04-0.386D-03 0.111D-02-0.385D-03-0.109D-01 0.409D-01
 Coeff-Com:  0.189D-02-0.544D+00 0.151D+01
 Coeff:     -0.830D-07 0.106D-06 0.540D-06 0.339D-05-0.216D-04 0.425D-04
 Coeff:      0.583D-04-0.386D-03 0.111D-02-0.385D-03-0.109D-01 0.409D-01
 Coeff:      0.189D-02-0.544D+00 0.151D+01
 Gap=     0.520 Goal=   None    Shift=    0.000
 RMSDP=7.46D-09 MaxDP=1.46D-07 DE=-2.36D-11 OVMax= 9.38D-07

 SCF Done:  E(RLC-B+HF-LYP) =  -2904.61935149     A.U. after   15 cycles
             Convg  =    0.7462D-08             -V/T =  2.0016
 KE= 2.899948809891D+03 PE=-7.234431790781D+03 EE= 1.281384851249D+03
 Leave Link  502 at Mon May 11 18:56:17 2020, MaxMem= 1073741824 cpu:     355.5
 (Enter /home/matheus/.gaussian/g09/l601.exe)
 Copying SCF densities to generalized density rwf, IOpCl= 0 IROHF=0.

 **********************************************************************

            Population analysis using the SCF density.

 **********************************************************************

 Orbital symmetries:
       Occupied  (A) (A) (A) (A) (A) (A) (A) (A) (A) (A) (A) (A)
                 (A) (A) (A) (A) (A) (A) (A) (A) (A) (A) (A) (A)
                 (A) (A) (A)
       Virtual   (A) (A) (A) (A) (A) (A) (A) (A) (A) (A) (A) (A)
                 (A) (A) (A) (A) (A) (A) (A) (A) (A) (A) (A) (A)
                 (A) (A) (A) (A) (A) (A) (A) (A) (A) (A) (A) (A)
                 (A) (A) (A) (A) (A) (A) (A) (A) (A) (A) (A) (A)
                 (A) (A) (A) (A) (A) (A) (A) (A) (A) (A) (A) (A)
                 (A) (A) (A) (A) (A) (A) (A) (A) (A) (A) (A) (A)
                 (A) (A) (A) (A) (A) (A) (A) (A) (A) (A) (A) (A)
                 (A) (A) (A) (A) (A) (A) (A) (A) (A) (A) (A) (A)
                 (A) (A) (A) (A) (A) (A) (A) (A) (A) (A) (A) (A)
                 (A) (A) (A) (A) (A) (A) (A) (A) (A) (A) (A) (A)
                 (A) (A) (A) (A) (A) (A) (A) (A) (A) (A) (A) (A)
                 (A) (A) (A) (A) (A) (A) (A) (A) (A) (A) (A) (A)
                 (A) (A) (A) (A) (A) (A) (A) (A) (A) (A) (A) (A)
                 (A) (A) (A) (A) (A) (A) (A) (A) (A) (A) (A) (A)
                 (A) (A)
 The electronic state is 1-A.
 Alpha  occ. eigenvalues -- -511.66449 -67.18945 -60.86152 -60.86135 -60.86125
 Alpha  occ. eigenvalues --  -19.48172 -19.47854 -10.09073  -7.80674  -7.80631
 Alpha  occ. eigenvalues --   -7.80604  -3.63635  -3.63626  -3.63605  -3.63569
 Alpha  occ. eigenvalues --   -3.63566  -1.45992  -1.21435  -1.18479  -0.74402
 Alpha  occ. eigenvalues --   -0.73429  -0.64308  -0.57215  -0.56295  -0.55865
 Alpha  occ. eigenvalues --   -0.54306  -0.49158
 Alpha virt. eigenvalues --    0.02854   0.03798   0.07846   0.09382   0.10550
 Alpha virt. eigenvalues --    0.11258   0.13638   0.14206   0.15997   0.16884
 Alpha virt. eigenvalues --    0.18079   0.19865   0.22131   0.23734   0.24053
 Alpha virt. eigenvalues --    0.24812   0.26442   0.29482   0.31797   0.34100
 Alpha virt. eigenvalues --    0.34372   0.34717   0.36244   0.39549   0.40613
 Alpha virt. eigenvalues --    0.42625   0.43189   0.49291   0.54140   0.57284
 Alpha virt. eigenvalues --    0.58512   0.61294   0.65206   0.68534   0.70288
 Alpha virt. eigenvalues --    0.73900   0.74327   0.75107   0.75969   0.78621
 Alpha virt. eigenvalues --    0.80491   0.81888   0.82753   0.84278   0.84653
 Alpha virt. eigenvalues --    0.87826   0.88676   0.89840   0.92122   0.95053
 Alpha virt. eigenvalues --    0.96462   0.96842   0.99471   1.00097   1.02084
 Alpha virt. eigenvalues --    1.05292   1.06500   1.09752   1.11967   1.14765
 Alpha virt. eigenvalues --    1.15049   1.17547   1.20135   1.22788   1.25802
 Alpha virt. eigenvalues --    1.30892   1.36922   1.39437   1.44651   1.46684
 Alpha virt. eigenvalues --    1.48448   1.55874   1.58787   1.61397   1.67222
 Alpha virt. eigenvalues --    1.69846   1.83990   1.92791   1.93984   2.03538
 Alpha virt. eigenvalues --    2.09231   2.12151   2.16106   2.24405   2.26345
 Alpha virt. eigenvalues --    2.28173   2.31116   2.32839   2.35072   2.35591
 Alpha virt. eigenvalues --    2.37066   2.42318   2.45561   2.46315   2.47047
 Alpha virt. eigenvalues --    2.49681   2.51647   2.56497   2.59462   2.63160
 Alpha virt. eigenvalues --    2.64201   2.64412   2.65135   2.69115   2.70357
 Alpha virt. eigenvalues --    2.73229   2.75003   2.78427   2.80142   2.81651
 Alpha virt. eigenvalues --    2.86557   2.89048   2.94639   2.98352   3.02145
 Alpha virt. eigenvalues --    3.05912   3.19278   3.23561   3.28590   3.76650
 Alpha virt. eigenvalues --    3.82616   4.04772   4.13304   4.15642   4.18985
 Alpha virt. eigenvalues --    4.27815   4.29644   4.33155   4.38947   4.41701
 Alpha virt. eigenvalues --    4.60198   4.65240   4.67626   4.71823   4.91055
 Alpha virt. eigenvalues --    5.09695   5.17598   5.19826   5.26870   5.29552
 Alpha virt. eigenvalues --    5.46934   5.66026   6.05489   6.28319   6.29937
 Alpha virt. eigenvalues --    6.35041   6.56764   6.60083   6.64696   6.76812
 Alpha virt. eigenvalues --    6.90853   7.00734   7.02226   7.08773   7.11239
 Alpha virt. eigenvalues --    7.11374   7.16345   7.18006   7.21758   7.28400
 Alpha virt. eigenvalues --    7.29504   7.47685   7.51058   7.64657   7.98337
 Alpha virt. eigenvalues --    8.06835   8.32122   8.38002  14.21598  14.84936
          Condensed to atoms (all electrons):
              1          2          3          4          5
     1  O    8.202587  -0.158886   0.210719  -0.011105  -0.033189
     2  O   -0.158886   8.211235   0.002514   0.213938  -0.009176
     3  H    0.210719   0.002514   0.555896   0.005274   0.003891
     4  H   -0.011105   0.213938   0.005274   0.557782  -0.012950
     5  Kr  -0.033189  -0.009176   0.003891  -0.012950  36.050438
 Mulliken atomic charges:
              1
     1  O   -0.210127
     2  O   -0.259625
     3  H    0.221705
     4  H    0.247062
     5  Kr   0.000986
 Sum of Mulliken atomic charges =   0.00000
 Mulliken charges with hydrogens summed into heavy atoms:
              1
     1  O    0.011577
     2  O   -0.012564
     5  Kr   0.000986
 Sum of Mulliken charges with hydrogens summed into heavy atoms =   0.00000
          Condensed to fragments (all electrons):
     1      -0.000986
     2       0.000986
 Electronic spatial extent (au):  <R**2>=            489.8236
 Charge=              0.0000 electrons
 Dipole moment (field-independent basis, Debye):
    X=              0.5423    Y=             -0.3397    Z=              1.0886  Tot=              1.2628
 Quadrupole moment (field-independent basis, Debye-Ang):
   XX=            -28.1459   YY=            -27.9084   ZZ=            -29.6273
   XY=              3.8360   XZ=             -3.2026   YZ=             -1.1824
 Traceless Quadrupole moment (field-independent basis, Debye-Ang):
   XX=              0.4147   YY=              0.6521   ZZ=             -1.0667
   XY=              3.8360   XZ=             -3.2026   YZ=             -1.1824
 Octapole moment (field-independent basis, Debye-Ang**2):
  XXX=              8.0302  YYY=             -0.7951  ZZZ=              0.6398  XYY=              3.9356
  XXY=            -15.3032  XXZ=              9.0133  XZZ=              6.4244  YZZ=             -0.9253
  YYZ=              1.4365  XYZ=              3.4258
 Hexadecapole moment (field-independent basis, Debye-Ang**3):
 XXXX=           -368.1958 YYYY=            -62.1017 ZZZZ=            -28.5354 XXXY=             45.4632
 XXXZ=            -26.0562 YYYX=              5.9075 YYYZ=             -1.5534 ZZZX=             -1.9713
 ZZZY=             -0.8746 XXYY=            -74.3497 XXZZ=            -73.6147 YYZZ=            -16.3194
 XXYZ=             -9.7694 YYXZ=             -3.9239 ZZXY=              2.1090
 N-N= 1.484787781510D+02 E-N=-7.234431793069D+03  KE= 2.899948809891D+03
 No NMR shielding tensors so no spin-rotation constants.
 Leave Link  601 at Mon May 11 18:56:17 2020, MaxMem= 1073741824 cpu:       0.8
 (Enter /home/matheus/.gaussian/g09/l122.exe)
 Counterpoise: doing DCBS calculation for fragment   1 NewBq=T
 Leave Link  122 at Mon May 11 18:56:17 2020, MaxMem= 1073741824 cpu:       0.0
 (Enter /home/matheus/.gaussian/g09/l301.exe)
 Basis read from rwf:  (5D, 7F)
 No pseudopotential information found on rwf file.
 There are   197 symmetry adapted basis functions of A   symmetry.
 Integral buffers will be    131072 words long.
 Raffenetti 2 integral format.
 Two-electron integral symmetry is turned on.
   197 basis functions,   415 primitive gaussians,   229 cartesian basis functions
     9 alpha electrons        9 beta electrons
       nuclear repulsion energy        36.6058450489 Hartrees.
 IExCor=10402 DFT=T Ex=LC-B+HF Corr=LYP ExCW=0 ScaHFX=  1.000000
 ScaDFX=  1.000000  1.000000  1.000000  1.000000 ScalE2=  1.000000  1.000000
 IRadAn=      5 IRanWt=     -1 IRanGd=            0 ICorTp=0
  HFx wShort=  0.000000 wLong=  1.350000 cFull=  0.000000 cShort=  0.000000 cLong=  1.000000
  DFx wShort=  0.000000 wLong=  1.350000 cFull=  0.000000 cShort=  0.000000 cLong=  1.000000
 NAtoms=    5 NActive=    5 NUniq=    5 SFac= 1.00D+00 NAtFMM=   60 NAOKFM=F Big=F
 No density basis found on file   718.
 Leave Link  301 at Mon May 11 18:56:17 2020, MaxMem= 1073741824 cpu:       0.2
 (Enter /home/matheus/.gaussian/g09/l302.exe)
 NPDir=0 NMtPBC=     1 NCelOv=     1 NCel=       1 NClECP=     1 NCelD=      1
         NCelK=      1 NCelE2=     1 NClLst=     1 CellRange=     0.0.
 One-electron integrals computed using PRISM.
 NBasis=   197 RedAO= T  NBF=   197
 NBsUse=   197 1.00D-06 NBFU=   197
 Precomputing XC quadrature grid using
 IXCGrd= 2 IRadAn=           5 IRanWt=          -1 IRanGd=           0 AccXCQ= 0.00D+00.
 NRdTot=     427 NPtTot=      123814 NUsed=      126881 NTot=      126913
 NSgBfM=   229   229   229   229   229 NAtAll=     5     5.
 Leave Link  302 at Mon May 11 18:56:17 2020, MaxMem= 1073741824 cpu:       1.0
 (Enter /home/matheus/.gaussian/g09/l303.exe)
 DipDrv:  MaxL=1.
 Leave Link  303 at Mon May 11 18:56:17 2020, MaxMem= 1073741824 cpu:       0.2
 (Enter /home/matheus/.gaussian/g09/l401.exe)
 Harris functional with IExCor=10402 diagonalized for initial guess.
 ExpMin= 2.53D-02 ExpMax= 1.17D+07 ExpMxC= 1.33D+04 IAcc=3 IRadAn=         5 AccDes= 0.00D+00
 HarFok:  IExCor=10402 AccDes= 0.00D+00 IRadAn=         5 IDoV= 1
 ScaDFX=  1.000000  1.000000  1.000000  1.000000
 FoFCou: FMM=F IPFlag=           0 FMFlag=      100000 FMFlg1=           0
         NFxFlg=           0 DoJE=T BraDBF=F KetDBF=T FulRan=T
         Omega=  0.000000  0.000000  1.000000  0.000000  0.000000 ICntrl=     500 IOpCl=  0
         NMat0=    1 NMatS0=    1 NMatT0=    0 NMatD0=    1 NMtDS0=    0 NMtDT0=    0
         I1Cent=           4 NGrid=           0.
 Petite list used in FoFCou.
 Harris En= -143.242007963443    
 Initial guess orbital symmetries:
       Occupied  (A) (A) (A) (A) (A) (A) (A) (A) (A)
       Virtual   (A) (A) (A) (A) (A) (A) (A) (A) (A) (A) (A) (A)
                 (A) (A) (A) (A) (A) (A) (A) (A) (A) (A) (A) (A)
                 (A) (A) (A) (A) (A) (A) (A) (A) (A) (A) (A) (A)
                 (A) (A) (A) (A) (A) (A) (A) (A) (A) (A) (A) (A)
                 (A) (A) (A) (A) (A) (A) (A) (A) (A) (A) (A) (A)
                 (A) (A) (A) (A) (A) (A) (A) (A) (A) (A) (A) (A)
                 (A) (A) (A) (A) (A) (A) (A) (A) (A) (A) (A) (A)
                 (A) (A) (A) (A) (A) (A) (A) (A) (A) (A) (A) (A)
                 (A) (A) (A) (A) (A) (A) (A) (A) (A) (A) (A) (A)
                 (A) (A) (A) (A) (A) (A) (A) (A) (A) (A) (A) (A)
                 (A) (A) (A) (A) (A) (A) (A) (A) (A) (A) (A) (A)
                 (A) (A) (A) (A) (A) (A) (A) (A) (A) (A) (A) (A)
                 (A) (A) (A) (A) (A) (A) (A) (A) (A) (A) (A) (A)
                 (A) (A) (A) (A) (A) (A) (A) (A) (A) (A) (A) (A)
                 (A) (A) (A) (A) (A) (A) (A) (A) (A) (A) (A) (A)
                 (A) (A) (A) (A) (A) (A) (A) (A)
 The electronic state of the initial guess is 1-A.
 Leave Link  401 at Mon May 11 18:56:18 2020, MaxMem= 1073741824 cpu:       3.7
 (Enter /home/matheus/.gaussian/g09/l502.exe)
 Closed shell SCF:
 Requested convergence on RMS density matrix=1.00D-08 within 128 cycles.
 Requested convergence on MAX density matrix=1.00D-06.
 Requested convergence on             energy=1.00D-06.
 No special actions if energy rises.
 Using DIIS extrapolation, IDIIS=  1040.
 Integral symmetry usage will be decided dynamically.
       126823 words used for storage of precomputed grid.
 IEnd=      305770 IEndB=      305770 NGot=  1073741824 MDV=  1073505365
 LenX=  1073505365 LenY=  1073452483
 Fock matrices will be formed incrementally for  20 cycles.

 Cycle   1  Pass 1  IDiag  1:
 FoFJK:  IHMeth= 1 ICntrl=     0 DoSepK=T KAlg= 1 I1Cent= 0 FoldK=F
 FoFCou: FMM=F IPFlag=           0 FMFlag=      100000 FMFlg1=           0
         NFxFlg=           0 DoJE=T BraDBF=F KetDBF=F FulRan=T
         Omega=  0.000000  0.000000  1.000000  0.000000  0.000000 ICntrl=     500 IOpCl=  0
         NMat0=    1 NMatS0=    1 NMatT0=    0 NMatD0=    1 NMtDS0=    0 NMtDT0=    0
         I1Cent=           0 NGrid=           0.
 Symmetry not used in FoFCou.
 E= -145.760000106140    
 DIIS: error= 1.25D-01 at cycle   1 NSaved=   1.
 NSaved= 1 IEnMin= 1 EnMin= -145.760000106140     IErMin= 1 ErrMin= 1.25D-01
 ErrMax= 1.25D-01 EMaxC= 1.00D-01 BMatC= 2.77D+00 BMatP= 2.77D+00
 IDIUse=3 WtCom= 0.00D+00 WtEn= 1.00D+00
 Coeff-Com:  0.100D+01
 Coeff-En:   0.100D+01
 Coeff:      0.100D+01
 Gap=    -1.045 Goal=   None    Shift=    0.000
 GapD=   -1.045 DampG=0.250 DampE=0.250 DampFc=0.2500 IDamp=-1.
 Damping current iteration by 2.50D-01
 RMSDP=8.98D-02 MaxDP=6.79D+00              OVMax= 9.99D-01

 Cycle   2  Pass 1  IDiag  1:
 RMSU=  1.81D-03    CP:  7.52D-01
 FoFJK:  IHMeth= 1 ICntrl=     0 DoSepK=T KAlg= 1 I1Cent= 0 FoldK=F
 E= -147.838482839952     Delta-E=       -2.078482733812 Rises=F Damp=T
 DIIS: error= 6.22D-02 at cycle   2 NSaved=   2.
 NSaved= 2 IEnMin= 2 EnMin= -147.838482839952     IErMin= 2 ErrMin= 6.22D-02
 ErrMax= 6.22D-02 EMaxC= 1.00D-01 BMatC= 7.41D-01 BMatP= 2.77D+00
 IDIUse=3 WtCom= 3.78D-01 WtEn= 6.22D-01
 Coeff-Com: -0.978D+00 0.198D+01
 Coeff-En:   0.000D+00 0.100D+01
 Coeff:     -0.370D+00 0.137D+01
 Gap=     0.368 Goal=   None    Shift=    0.000
 RMSDP=6.73D-02 MaxDP=5.09D+00 DE=-2.08D+00 OVMax= 1.25D-01

 Cycle   3  Pass 1  IDiag  1:
 RMSU=  2.18D-03    CP:  9.09D-03  3.00D+00
 FoFJK:  IHMeth= 1 ICntrl=     0 DoSepK=T KAlg= 1 I1Cent= 0 FoldK=F
 E= -150.565068200627     Delta-E=       -2.726585360675 Rises=F Damp=F
 DIIS: error= 5.40D-02 at cycle   3 NSaved=   3.
 NSaved= 3 IEnMin= 3 EnMin= -150.565068200627     IErMin= 3 ErrMin= 5.40D-02
 ErrMax= 5.40D-02 EMaxC= 1.00D-01 BMatC= 9.19D-01 BMatP= 7.41D-01
 IDIUse=2 WtCom= 0.00D+00 WtEn= 1.00D+00
 Coeff-En:   0.143D-02 0.000D+00 0.999D+00
 Coeff:      0.143D-02 0.000D+00 0.999D+00
 Gap=     0.785 Goal=   None    Shift=    0.000
 RMSDP=4.00D-03 MaxDP=1.37D-01 DE=-2.73D+00 OVMax= 2.96D-01

 Cycle   4  Pass 1  IDiag  1:
 RMSU=  2.80D-03    CP:  1.03D-02  3.00D+00  1.18D+00
 FoFJK:  IHMeth= 1 ICntrl=     0 DoSepK=T KAlg= 1 I1Cent= 0 FoldK=F
 E= -150.931868904319     Delta-E=       -0.366800703692 Rises=F Damp=F
 DIIS: error= 4.05D-02 at cycle   4 NSaved=   4.
 NSaved= 4 IEnMin= 4 EnMin= -150.931868904319     IErMin= 4 ErrMin= 4.05D-02
 ErrMax= 4.05D-02 EMaxC= 1.00D-01 BMatC= 4.26D-01 BMatP= 7.41D-01
 IDIUse=3 WtCom= 5.95D-01 WtEn= 4.05D-01
 Coeff-Com: -0.405D+00 0.674D+00 0.213D+00 0.518D+00
 Coeff-En:   0.000D+00 0.000D+00 0.208D+00 0.792D+00
 Coeff:     -0.241D+00 0.401D+00 0.211D+00 0.629D+00
 Gap=     0.571 Goal=   None    Shift=    0.000
 RMSDP=1.90D-03 MaxDP=5.03D-02 DE=-3.67D-01 OVMax= 1.50D-01

 Cycle   5  Pass 1  IDiag  1:
 RMSU=  3.98D-04    CP:  9.31D-03  3.00D+00  1.20D+00  5.42D-01
 FoFJK:  IHMeth= 1 ICntrl=     0 DoSepK=T KAlg= 1 I1Cent= 0 FoldK=F
 E= -151.192175547477     Delta-E=       -0.260306643158 Rises=F Damp=F
 DIIS: error= 9.85D-03 at cycle   5 NSaved=   5.
 NSaved= 5 IEnMin= 5 EnMin= -151.192175547477     IErMin= 5 ErrMin= 9.85D-03
 ErrMax= 9.85D-03 EMaxC= 1.00D-01 BMatC= 2.69D-02 BMatP= 4.26D-01
 IDIUse=3 WtCom= 9.01D-01 WtEn= 9.85D-02
 Coeff-Com: -0.845D-01 0.153D+00-0.151D+00 0.657D-01 0.102D+01
 Coeff-En:   0.000D+00 0.000D+00 0.000D+00 0.000D+00 0.100D+01
 Coeff:     -0.762D-01 0.138D+00-0.136D+00 0.592D-01 0.102D+01
 Gap=     0.526 Goal=   None    Shift=    0.000
 RMSDP=4.07D-04 MaxDP=1.45D-02 DE=-2.60D-01 OVMax= 2.64D-02

 Cycle   6  Pass 1  IDiag  1:
 RMSU=  9.28D-05    CP:  9.49D-03  3.00D+00  1.22D+00  6.36D-01  1.16D+00
 FoFJK:  IHMeth= 1 ICntrl=     0 DoSepK=T KAlg= 1 I1Cent= 0 FoldK=F
 E= -151.211095013645     Delta-E=       -0.018919466168 Rises=F Damp=F
 DIIS: error= 1.82D-03 at cycle   6 NSaved=   6.
 NSaved= 6 IEnMin= 6 EnMin= -151.211095013645     IErMin= 6 ErrMin= 1.82D-03
 ErrMax= 1.82D-03 EMaxC= 1.00D-01 BMatC= 7.33D-04 BMatP= 2.69D-02
 IDIUse=3 WtCom= 9.82D-01 WtEn= 1.82D-02
 Coeff-Com: -0.310D-01 0.603D-01 0.590D-02-0.347D-01-0.411D+00 0.141D+01
 Coeff-En:   0.000D+00 0.000D+00 0.000D+00 0.000D+00 0.000D+00 0.100D+01
 Coeff:     -0.305D-01 0.592D-01 0.579D-02-0.341D-01-0.403D+00 0.140D+01
 Gap=     0.523 Goal=   None    Shift=    0.000
 RMSDP=1.05D-04 MaxDP=1.91D-03 DE=-1.89D-02 OVMax= 1.10D-02

 Cycle   7  Pass 1  IDiag  1:
 RMSU=  2.97D-05    CP:  9.53D-03  3.00D+00  1.22D+00  6.47D-01  1.24D+00
                    CP:  1.54D+00
 FoFJK:  IHMeth= 1 ICntrl=     0 DoSepK=T KAlg= 1 I1Cent= 0 FoldK=F
 E= -151.211833389342     Delta-E=       -0.000738375697 Rises=F Damp=F
 DIIS: error= 1.13D-03 at cycle   7 NSaved=   7.
 NSaved= 7 IEnMin= 7 EnMin= -151.211833389342     IErMin= 7 ErrMin= 1.13D-03
 ErrMax= 1.13D-03 EMaxC= 1.00D-01 BMatC= 2.40D-04 BMatP= 7.33D-04
 IDIUse=3 WtCom= 9.89D-01 WtEn= 1.13D-02
 Coeff-Com: -0.619D-02 0.117D-01 0.980D-02 0.707D-02-0.117D+00-0.327D+00
 Coeff-Com:  0.142D+01
 Coeff-En:   0.000D+00 0.000D+00 0.000D+00 0.000D+00 0.000D+00 0.000D+00
 Coeff-En:   0.100D+01
 Coeff:     -0.612D-02 0.116D-01 0.969D-02 0.699D-02-0.115D+00-0.323D+00
 Coeff:      0.142D+01
 Gap=     0.519 Goal=   None    Shift=    0.000
 RMSDP=7.43D-05 MaxDP=1.56D-03 DE=-7.38D-04 OVMax= 7.85D-03

 Cycle   8  Pass 1  IDiag  1:
 RMSU=  9.50D-06    CP:  9.58D-03  3.00D+00  1.22D+00  6.60D-01  1.26D+00
                    CP:  1.84D+00  1.87D+00
 FoFJK:  IHMeth= 1 ICntrl=     0 DoSepK=T KAlg= 1 I1Cent= 0 FoldK=F
 E= -151.212109817067     Delta-E=       -0.000276427726 Rises=F Damp=F
 DIIS: error= 2.02D-04 at cycle   8 NSaved=   8.
 NSaved= 8 IEnMin= 8 EnMin= -151.212109817067     IErMin= 8 ErrMin= 2.02D-04
 ErrMax= 2.02D-04 EMaxC= 1.00D-01 BMatC= 7.98D-06 BMatP= 2.40D-04
 IDIUse=3 WtCom= 9.98D-01 WtEn= 2.02D-03
 Coeff-Com: -0.344D-03 0.323D-03-0.224D-02 0.378D-02 0.459D-01-0.529D-01
 Coeff-Com: -0.345D+00 0.135D+01
 Coeff-En:   0.000D+00 0.000D+00 0.000D+00 0.000D+00 0.000D+00 0.000D+00
 Coeff-En:   0.000D+00 0.100D+01
 Coeff:     -0.344D-03 0.322D-03-0.224D-02 0.377D-02 0.458D-01-0.528D-01
 Coeff:     -0.344D+00 0.135D+01
 Gap=     0.519 Goal=   None    Shift=    0.000
 RMSDP=2.35D-05 MaxDP=4.66D-04 DE=-2.76D-04 OVMax= 3.13D-03

 Cycle   9  Pass 1  IDiag  1:
 RMSU=  4.20D-06    CP:  9.59D-03  3.00D+00  1.22D+00  6.63D-01  1.26D+00
                    CP:  1.91D+00  2.23D+00  1.60D+00
 FoFJK:  IHMeth= 1 ICntrl=     0 DoSepK=T KAlg= 1 I1Cent= 0 FoldK=F
 E= -151.212126470063     Delta-E=       -0.000016652996 Rises=F Damp=F
 DIIS: error= 4.33D-05 at cycle   9 NSaved=   9.
 NSaved= 9 IEnMin= 9 EnMin= -151.212126470063     IErMin= 9 ErrMin= 4.33D-05
 ErrMax= 4.33D-05 EMaxC= 1.00D-01 BMatC= 5.57D-07 BMatP= 7.98D-06
 IDIUse=1 WtCom= 1.00D+00 WtEn= 0.00D+00
 Coeff-Com:  0.356D-03-0.836D-03-0.131D-02 0.121D-03 0.220D-01 0.311D-01
 Coeff-Com: -0.269D+00 0.416D+00 0.802D+00
 Coeff:      0.356D-03-0.836D-03-0.131D-02 0.121D-03 0.220D-01 0.311D-01
 Coeff:     -0.269D+00 0.416D+00 0.802D+00
 Gap=     0.519 Goal=   None    Shift=    0.000
 RMSDP=5.25D-06 MaxDP=1.10D-04 DE=-1.67D-05 OVMax= 7.94D-04

 Cycle  10  Pass 1  IDiag  1:
 RMSU=  1.71D-06    CP:  9.59D-03  3.00D+00  1.22D+00  6.63D-01  1.26D+00
                    CP:  1.92D+00  2.31D+00  1.77D+00  1.32D+00
 FoFJK:  IHMeth= 1 ICntrl=     0 DoSepK=T KAlg= 1 I1Cent= 0 FoldK=F
 E= -151.212127701978     Delta-E=       -0.000001231915 Rises=F Damp=F
 DIIS: error= 2.69D-05 at cycle  10 NSaved=  10.
 NSaved=10 IEnMin=10 EnMin= -151.212127701978     IErMin=10 ErrMin= 2.69D-05
 ErrMax= 2.69D-05 EMaxC= 1.00D-01 BMatC= 1.92D-07 BMatP= 5.57D-07
 IDIUse=1 WtCom= 1.00D+00 WtEn= 0.00D+00
 Coeff-Com:  0.612D-03-0.106D-02 0.121D-02-0.216D-02-0.192D-01 0.428D-01
 Coeff-Com:  0.826D-01-0.488D+00 0.556D-01 0.133D+01
 Coeff:      0.612D-03-0.106D-02 0.121D-02-0.216D-02-0.192D-01 0.428D-01
 Coeff:      0.826D-01-0.488D+00 0.556D-01 0.133D+01
 Gap=     0.519 Goal=   None    Shift=    0.000
 RMSDP=4.90D-06 MaxDP=1.03D-04 DE=-1.23D-06 OVMax= 7.49D-04

 Cycle  11  Pass 1  IDiag  1:
 RMSU=  7.39D-07    CP:  9.59D-03  3.00D+00  1.22D+00  6.63D-01  1.26D+00
                    CP:  1.93D+00  2.36D+00  1.87D+00  1.88D+00  1.60D+00
 FoFJK:  IHMeth= 1 ICntrl=     0 DoSepK=T KAlg= 1 I1Cent= 0 FoldK=F
 E= -151.212128250080     Delta-E=       -0.000000548102 Rises=F Damp=F
 DIIS: error= 1.55D-05 at cycle  11 NSaved=  11.
 NSaved=11 IEnMin=11 EnMin= -151.212128250080     IErMin=11 ErrMin= 1.55D-05
 ErrMax= 1.55D-05 EMaxC= 1.00D-01 BMatC= 5.26D-08 BMatP= 1.92D-07
 IDIUse=1 WtCom= 1.00D+00 WtEn= 0.00D+00
 Coeff-Com:  0.197D-03-0.343D-03-0.822D-04 0.187D-03 0.349D-02-0.881D-02
 Coeff-Com: -0.104D-01 0.104D+00-0.980D-01-0.399D+00 0.141D+01
 Coeff:      0.197D-03-0.343D-03-0.822D-04 0.187D-03 0.349D-02-0.881D-02
 Coeff:     -0.104D-01 0.104D+00-0.980D-01-0.399D+00 0.141D+01
 Gap=     0.519 Goal=   None    Shift=    0.000
 RMSDP=1.49D-06 MaxDP=2.81D-05 DE=-5.48D-07 OVMax= 1.99D-04

 Cycle  12  Pass 1  IDiag  1:
 RMSU=  2.03D-07    CP:  9.59D-03  3.00D+00  1.22D+00  6.63D-01  1.26D+00
                    CP:  1.93D+00  2.37D+00  1.88D+00  2.01D+00  1.84D+00
                    CP:  1.44D+00
 FoFJK:  IHMeth= 1 ICntrl=     0 DoSepK=T KAlg= 1 I1Cent= 0 FoldK=F
 E= -151.212128314265     Delta-E=       -0.000000064186 Rises=F Damp=F
 DIIS: error= 4.21D-06 at cycle  12 NSaved=  12.
 NSaved=12 IEnMin=12 EnMin= -151.212128314265     IErMin=12 ErrMin= 4.21D-06
 ErrMax= 4.21D-06 EMaxC= 1.00D-01 BMatC= 4.39D-09 BMatP= 5.26D-08
 IDIUse=1 WtCom= 1.00D+00 WtEn= 0.00D+00
 Coeff-Com:  0.242D-04-0.425D-04-0.589D-05-0.346D-04 0.811D-04 0.139D-02
 Coeff-Com: -0.806D-03-0.122D-01 0.263D-01 0.621D-01-0.396D+00 0.132D+01
 Coeff:      0.242D-04-0.425D-04-0.589D-05-0.346D-04 0.811D-04 0.139D-02
 Coeff:     -0.806D-03-0.122D-01 0.263D-01 0.621D-01-0.396D+00 0.132D+01
 Gap=     0.519 Goal=   None    Shift=    0.000
 RMSDP=2.27D-07 MaxDP=5.83D-06 DE=-6.42D-08 OVMax= 2.18D-05

 Cycle  13  Pass 1  IDiag  1:
 RMSU=  4.66D-08    CP:  9.59D-03  3.00D+00  1.22D+00  6.63D-01  1.26D+00
                    CP:  1.93D+00  2.37D+00  1.88D+00  2.02D+00  1.85D+00
                    CP:  1.48D+00  1.36D+00
 FoFJK:  IHMeth= 1 ICntrl=     0 DoSepK=T KAlg= 1 I1Cent= 0 FoldK=F
 E= -151.212128317676     Delta-E=       -0.000000003410 Rises=F Damp=F
 DIIS: error= 6.13D-07 at cycle  13 NSaved=  13.
 NSaved=13 IEnMin=13 EnMin= -151.212128317676     IErMin=13 ErrMin= 6.13D-07
 ErrMax= 6.13D-07 EMaxC= 1.00D-01 BMatC= 9.37D-11 BMatP= 4.39D-09
 IDIUse=1 WtCom= 1.00D+00 WtEn= 0.00D+00
 Coeff-Com:  0.189D-05-0.389D-05 0.113D-04-0.252D-04-0.262D-03 0.469D-03
 Coeff-Com:  0.117D-02-0.810D-02 0.381D-02 0.251D-01-0.622D-01-0.156D+00
 Coeff-Com:  0.120D+01
 Coeff:      0.189D-05-0.389D-05 0.113D-04-0.252D-04-0.262D-03 0.469D-03
 Coeff:      0.117D-02-0.810D-02 0.381D-02 0.251D-01-0.622D-01-0.156D+00
 Coeff:      0.120D+01
 Gap=     0.519 Goal=   None    Shift=    0.000
 RMSDP=5.76D-08 MaxDP=1.19D-06 DE=-3.41D-09 OVMax= 7.95D-06

 Cycle  14  Pass 1  IDiag  1:
 RMSU=  8.12D-09    CP:  9.59D-03  3.00D+00  1.22D+00  6.63D-01  1.26D+00
                    CP:  1.93D+00  2.37D+00  1.88D+00  2.02D+00  1.86D+00
                    CP:  1.48D+00  1.42D+00  1.41D+00
 FoFJK:  IHMeth= 1 ICntrl=     0 DoSepK=T KAlg= 1 I1Cent= 0 FoldK=F
 E= -151.212128317723     Delta-E=       -0.000000000048 Rises=F Damp=F
 DIIS: error= 1.19D-07 at cycle  14 NSaved=  14.
 NSaved=14 IEnMin=14 EnMin= -151.212128317723     IErMin=14 ErrMin= 1.19D-07
 ErrMax= 1.19D-07 EMaxC= 1.00D-01 BMatC= 2.55D-12 BMatP= 9.37D-11
 IDIUse=1 WtCom= 1.00D+00 WtEn= 0.00D+00
 Coeff-Com: -0.283D-06 0.369D-06-0.234D-05 0.500D-05 0.582D-04-0.163D-03
 Coeff-Com: -0.222D-03 0.237D-02-0.196D-02-0.835D-02 0.326D-01-0.339D-01
 Coeff-Com: -0.205D+00 0.121D+01
 Coeff:     -0.283D-06 0.369D-06-0.234D-05 0.500D-05 0.582D-04-0.163D-03
 Coeff:     -0.222D-03 0.237D-02-0.196D-02-0.835D-02 0.326D-01-0.339D-01
 Coeff:     -0.205D+00 0.121D+01
 Gap=     0.519 Goal=   None    Shift=    0.000
 RMSDP=1.05D-08 MaxDP=3.24D-07 DE=-4.76D-11 OVMax= 6.55D-07

 Cycle  15  Pass 1  IDiag  1:
 RMSU=  1.88D-09    CP:  9.59D-03  3.00D+00  1.22D+00  6.63D-01  1.26D+00
                    CP:  1.93D+00  2.37D+00  1.88D+00  2.02D+00  1.86D+00
                    CP:  1.48D+00  1.41D+00  1.48D+00  1.30D+00
 FoFJK:  IHMeth= 1 ICntrl=     0 DoSepK=T KAlg= 1 I1Cent= 0 FoldK=F
 E= -151.212128317705     Delta-E=        0.000000000018 Rises=F Damp=F
 DIIS: error= 1.43D-08 at cycle  15 NSaved=  15.
 NSaved=15 IEnMin=14 EnMin= -151.212128317723     IErMin=15 ErrMin= 1.43D-08
 ErrMax= 1.43D-08 EMaxC= 1.00D-01 BMatC= 3.08D-14 BMatP= 2.55D-12
 IDIUse=1 WtCom= 1.00D+00 WtEn= 0.00D+00
 Coeff-Com: -0.105D-06 0.198D-06 0.234D-06-0.386D-06-0.694D-05 0.269D-04
 Coeff-Com:  0.309D-04-0.448D-03 0.453D-03 0.153D-02-0.694D-02 0.135D-01
 Coeff-Com:  0.277D-01-0.374D+00 0.134D+01
 Coeff:     -0.105D-06 0.198D-06 0.234D-06-0.386D-06-0.694D-05 0.269D-04
 Coeff:      0.309D-04-0.448D-03 0.453D-03 0.153D-02-0.694D-02 0.135D-01
 Coeff:      0.277D-01-0.374D+00 0.134D+01
 Gap=     0.519 Goal=   None    Shift=    0.000
 RMSDP=1.48D-09 MaxDP=4.92D-08 DE= 1.84D-11 OVMax= 1.53D-07

 SCF Done:  E(RLC-B+HF-LYP) =  -151.212128318     A.U. after   15 cycles
             Convg  =    0.1477D-08             -V/T =  2.0063
 KE= 1.502619793748D+02 PE=-4.315425915729D+02 EE= 9.346263883147D+01
 Leave Link  502 at Mon May 11 18:57:01 2020, MaxMem= 1073741824 cpu:     342.4
 (Enter /home/matheus/.gaussian/g09/l601.exe)
 Copying SCF densities to generalized density rwf, IOpCl= 0 IROHF=0.

 **********************************************************************

            Population analysis using the SCF density.

 **********************************************************************

 Orbital symmetries:
       Occupied  (A) (A) (A) (A) (A) (A) (A) (A) (A)
       Virtual   (A) (A) (A) (A) (A) (A) (A) (A) (A) (A) (A) (A)
                 (A) (A) (A) (A) (A) (A) (A) (A) (A) (A) (A) (A)
                 (A) (A) (A) (A) (A) (A) (A) (A) (A) (A) (A) (A)
                 (A) (A) (A) (A) (A) (A) (A) (A) (A) (A) (A) (A)
                 (A) (A) (A) (A) (A) (A) (A) (A) (A) (A) (A) (A)
                 (A) (A) (A) (A) (A) (A) (A) (A) (A) (A) (A) (A)
                 (A) (A) (A) (A) (A) (A) (A) (A) (A) (A) (A) (A)
                 (A) (A) (A) (A) (A) (A) (A) (A) (A) (A) (A) (A)
                 (A) (A) (A) (A) (A) (A) (A) (A) (A) (A) (A) (A)
                 (A) (A) (A) (A) (A) (A) (A) (A) (A) (A) (A) (A)
                 (A) (A) (A) (A) (A) (A) (A) (A) (A) (A) (A) (A)
                 (A) (A) (A) (A) (A) (A) (A) (A) (A) (A) (A) (A)
                 (A) (A) (A) (A) (A) (A) (A) (A) (A) (A) (A) (A)
                 (A) (A) (A) (A) (A) (A) (A) (A) (A) (A) (A) (A)
                 (A) (A) (A) (A) (A) (A) (A) (A) (A) (A) (A) (A)
                 (A) (A) (A) (A) (A) (A) (A) (A)
 The electronic state is 1-A.
 Alpha  occ. eigenvalues --  -19.48369 -19.48339  -1.46162  -1.21554  -0.74430
 Alpha  occ. eigenvalues --   -0.73086  -0.64437  -0.55070  -0.49430
 Alpha virt. eigenvalues --    0.02450   0.03374   0.07057   0.08543   0.10057
 Alpha virt. eigenvalues --    0.10646   0.11907   0.13753   0.16174   0.16486
 Alpha virt. eigenvalues --    0.18519   0.19844   0.22799   0.23631   0.25131
 Alpha virt. eigenvalues --    0.26704   0.29905   0.30867   0.31837   0.32934
 Alpha virt. eigenvalues --    0.34736   0.37923   0.38496   0.40638   0.41479
 Alpha virt. eigenvalues --    0.42531   0.43949   0.47884   0.48550   0.49634
 Alpha virt. eigenvalues --    0.55165   0.57513   0.61409   0.65404   0.70167
 Alpha virt. eigenvalues --    0.72496   0.75793   0.76497   0.77454   0.78518
 Alpha virt. eigenvalues --    0.81131   0.83755   0.88208   0.91190   0.92038
 Alpha virt. eigenvalues --    0.92082   0.95404   0.96948   0.99314   1.00803
 Alpha virt. eigenvalues --    1.01576   1.05106   1.06894   1.09937   1.12959
 Alpha virt. eigenvalues --    1.13310   1.16033   1.18368   1.24168   1.25638
 Alpha virt. eigenvalues --    1.27317   1.31153   1.32225   1.33332   1.33987
 Alpha virt. eigenvalues --    1.34611   1.35926   1.36920   1.38989   1.41812
 Alpha virt. eigenvalues --    1.48098   1.51982   1.56943   1.57541   1.57705
 Alpha virt. eigenvalues --    1.61653   1.67242   1.71716   1.72983   1.84777
 Alpha virt. eigenvalues --    1.88823   1.94335   1.94655   2.05480   2.10960
 Alpha virt. eigenvalues --    2.16501   2.18644   2.25737   2.27990   2.32692
 Alpha virt. eigenvalues --    2.37540   2.39062   2.41353   2.45676   2.54111
 Alpha virt. eigenvalues --    2.57695   2.63088   2.64771   2.72087   2.76108
 Alpha virt. eigenvalues --    2.80677   2.84133   2.93726   2.99383   3.02855
 Alpha virt. eigenvalues --    3.18501   3.22291   3.23184   3.25840   3.31270
 Alpha virt. eigenvalues --    3.43317   3.57204   3.72542   3.78098   3.78589
 Alpha virt. eigenvalues --    3.79789   3.82169   3.82512   3.83009   3.87838
 Alpha virt. eigenvalues --    3.89588   3.91196   3.95769   3.98582   4.00384
 Alpha virt. eigenvalues --    4.09362   4.13929   4.15549   4.18459   4.23622
 Alpha virt. eigenvalues --    4.30125   4.32315   4.39120   4.44146   4.44851
 Alpha virt. eigenvalues --    4.60685   4.67552   4.70538   4.91053   5.10083
 Alpha virt. eigenvalues --    5.17411   5.19924   5.26910   5.29726   5.47175
 Alpha virt. eigenvalues --    5.65804   6.05184   6.28191   6.29781   6.34681
 Alpha virt. eigenvalues --    6.56687   6.60010   6.64528   6.76672   6.90690
 Alpha virt. eigenvalues --    7.00508   7.02011   7.08602   7.10810   7.11247
 Alpha virt. eigenvalues --    7.15956   7.17769   7.21559   7.28191   7.29252
 Alpha virt. eigenvalues --    7.47500   7.50716   7.64492   7.98147   8.06574
 Alpha virt. eigenvalues --    8.31937   8.37384  10.88902  14.21496  14.80983
 Alpha virt. eigenvalues --   14.83218  14.89489  15.11534  29.02955  29.03432
 Alpha virt. eigenvalues --   29.07846  29.13381  29.22933  49.10215 148.31308
 Alpha virt. eigenvalues --  148.38600 148.71182 752.49422
          Condensed to atoms (all electrons):
              1          2          3          4          5
     1  O    8.188442  -0.154606   0.205523  -0.014354  -0.000148
     2  O   -0.154606   8.196172   0.001710   0.208143  -0.001021
     3  H    0.205523   0.001710   0.559416   0.006824   0.000019
     4  H   -0.014354   0.208143   0.006824   0.557167  -0.003441
     5  Kr  -0.000148  -0.001021   0.000019  -0.003441   0.001503
 Mulliken atomic charges:
              1
     1  O   -0.224858
     2  O   -0.250399
     3  H    0.226508
     4  H    0.245661
     5  Kr   0.003087
 Sum of Mulliken atomic charges =   0.00000
 Mulliken charges with hydrogens summed into heavy atoms:
              1
     1  O    0.001650
     2  O   -0.004737
     5  Kr   0.003087
 Sum of Mulliken charges with hydrogens summed into heavy atoms =   0.00000
          Condensed to fragments (all electrons):
     1      -0.003087
     2       0.003087
 Electronic spatial extent (au):  <R**2>=            323.1477
 Charge=              0.0000 electrons
 Dipole moment (field-independent basis, Debye):
    X=              0.3909    Y=             -0.0701    Z=              1.1232  Tot=              1.1913
 Quadrupole moment (field-independent basis, Debye-Ang):
   XX=            -10.5512   YY=            -10.3679   ZZ=            -12.1399
   XY=              4.0276   XZ=             -3.1733   YZ=             -1.1817
 Traceless Quadrupole moment (field-independent basis, Debye-Ang):
   XX=              0.4685   YY=              0.6518   ZZ=             -1.1203
   XY=              4.0276   XZ=             -3.1733   YZ=             -1.1817
 Octapole moment (field-independent basis, Debye-Ang**2):
  XXX=             59.4682  YYY=             -1.3421  ZZZ=              0.8523  XYY=             21.2802
  XXY=            -15.2829  XXZ=              9.1077  XZZ=             23.8173  YZZ=             -1.1054
  YYZ=              1.5054  XYZ=              3.4254
 Hexadecapole moment (field-independent basis, Debye-Ang**3):
 XXXX=           -244.6227 YYYY=            -44.1639 ZZZZ=            -10.6976 XXXY=             44.9244
 XXXZ=            -25.8410 YYYX=              5.4052 YYYZ=             -1.5539 ZZZX=             -1.7660
 ZZZY=             -0.8762 XXYY=            -50.8338 XXZZ=            -50.2407 YYZZ=            -10.3533
 XXYZ=             -9.7758 YYXZ=             -3.8500 ZZXY=              1.9028
 N-N= 3.660584504895D+01 E-N=-4.315425913889D+02  KE= 1.502619793748D+02
 No NMR shielding tensors so no spin-rotation constants.
 Leave Link  601 at Mon May 11 18:57:01 2020, MaxMem= 1073741824 cpu:       0.8
 (Enter /home/matheus/.gaussian/g09/l122.exe)
 Counterpoise: doing DCBS calculation for fragment   2 NewBq=T
 Leave Link  122 at Mon May 11 18:57:01 2020, MaxMem= 1073741824 cpu:       0.0
 (Enter /home/matheus/.gaussian/g09/l301.exe)
 Basis read from rwf:  (5D, 7F)
 No pseudopotential information found on rwf file.
 There are   197 symmetry adapted basis functions of A   symmetry.
 Integral buffers will be    131072 words long.
 Raffenetti 2 integral format.
 Two-electron integral symmetry is turned on.
   197 basis functions,   415 primitive gaussians,   229 cartesian basis functions
    18 alpha electrons       18 beta electrons
       nuclear repulsion energy         0.0000000000 Hartrees.
 IExCor=10402 DFT=T Ex=LC-B+HF Corr=LYP ExCW=0 ScaHFX=  1.000000
 ScaDFX=  1.000000  1.000000  1.000000  1.000000 ScalE2=  1.000000  1.000000
 IRadAn=      5 IRanWt=     -1 IRanGd=            0 ICorTp=0
  HFx wShort=  0.000000 wLong=  1.350000 cFull=  0.000000 cShort=  0.000000 cLong=  1.000000
  DFx wShort=  0.000000 wLong=  1.350000 cFull=  0.000000 cShort=  0.000000 cLong=  1.000000
 NAtoms=    5 NActive=    5 NUniq=    5 SFac= 1.00D+00 NAtFMM=   60 NAOKFM=F Big=F
 No density basis found on file   718.
 Leave Link  301 at Mon May 11 18:57:01 2020, MaxMem= 1073741824 cpu:       0.2
 (Enter /home/matheus/.gaussian/g09/l302.exe)
 NPDir=0 NMtPBC=     1 NCelOv=     1 NCel=       1 NClECP=     1 NCelD=      1
         NCelK=      1 NCelE2=     1 NClLst=     1 CellRange=     0.0.
 One-electron integrals computed using PRISM.
 NBasis=   197 RedAO= T  NBF=   197
 NBsUse=   197 1.00D-06 NBFU=   197
 Precomputing XC quadrature grid using
 IXCGrd= 2 IRadAn=           5 IRanWt=          -1 IRanGd=           0 AccXCQ= 0.00D+00.
 NRdTot=     427 NPtTot=      123814 NUsed=      126881 NTot=      126913
 NSgBfM=   229   229   229   229   229 NAtAll=     5     5.
 Leave Link  302 at Mon May 11 18:57:01 2020, MaxMem= 1073741824 cpu:       1.0
 (Enter /home/matheus/.gaussian/g09/l303.exe)
 DipDrv:  MaxL=1.
 Leave Link  303 at Mon May 11 18:57:01 2020, MaxMem= 1073741824 cpu:       0.2
 (Enter /home/matheus/.gaussian/g09/l401.exe)
 Harris functional with IExCor=10402 diagonalized for initial guess.
 ExpMin= 2.53D-02 ExpMax= 1.17D+07 ExpMxC= 1.33D+04 IAcc=3 IRadAn=         5 AccDes= 0.00D+00
 HarFok:  IExCor=10402 AccDes= 0.00D+00 IRadAn=         5 IDoV= 1
 ScaDFX=  1.000000  1.000000  1.000000  1.000000
 FoFCou: FMM=F IPFlag=           0 FMFlag=      100000 FMFlg1=           0
         NFxFlg=           0 DoJE=T BraDBF=F KetDBF=T FulRan=T
         Omega=  0.000000  0.000000  1.000000  0.000000  0.000000 ICntrl=     500 IOpCl=  0
         NMat0=    1 NMatS0=    1 NMatT0=    0 NMatD0=    1 NMtDS0=    0 NMtDT0=    0
         I1Cent=           4 NGrid=           0.
 Petite list used in FoFCou.
 Harris En= -2731.73456193862    
 Initial guess orbital symmetries:
       Occupied  (A) (A) (A) (A) (A) (A) (A) (A) (A) (A) (A) (A)
                 (A) (A) (A) (A) (A) (A)
       Virtual   (A) (A) (A) (A) (A) (A) (A) (A) (A) (A) (A) (A)
                 (A) (A) (A) (A) (A) (A) (A) (A) (A) (A) (A) (A)
                 (A) (A) (A) (A) (A) (A) (A) (A) (A) (A) (A) (A)
                 (A) (A) (A) (A) (A) (A) (A) (A) (A) (A) (A) (A)
                 (A) (A) (A) (A) (A) (A) (A) (A) (A) (A) (A) (A)
                 (A) (A) (A) (A) (A) (A) (A) (A) (A) (A) (A) (A)
                 (A) (A) (A) (A) (A) (A) (A) (A) (A) (A) (A) (A)
                 (A) (A) (A) (A) (A) (A) (A) (A) (A) (A) (A) (A)
                 (A) (A) (A) (A) (A) (A) (A) (A) (A) (A) (A) (A)
                 (A) (A) (A) (A) (A) (A) (A) (A) (A) (A) (A) (A)
                 (A) (A) (A) (A) (A) (A) (A) (A) (A) (A) (A) (A)
                 (A) (A) (A) (A) (A) (A) (A) (A) (A) (A) (A) (A)
                 (A) (A) (A) (A) (A) (A) (A) (A) (A) (A) (A) (A)
                 (A) (A) (A) (A) (A) (A) (A) (A) (A) (A) (A) (A)
                 (A) (A) (A) (A) (A) (A) (A) (A) (A) (A) (A)
 The electronic state of the initial guess is 1-A.
 Leave Link  401 at Mon May 11 18:57:02 2020, MaxMem= 1073741824 cpu:       3.8
 (Enter /home/matheus/.gaussian/g09/l502.exe)
 Closed shell SCF:
 Requested convergence on RMS density matrix=1.00D-08 within 128 cycles.
 Requested convergence on MAX density matrix=1.00D-06.
 Requested convergence on             energy=1.00D-06.
 No special actions if energy rises.
 Using DIIS extrapolation, IDIIS=  1040.
 Integral symmetry usage will be decided dynamically.
       126823 words used for storage of precomputed grid.
 IEnd=      305770 IEndB=      305770 NGot=  1073741824 MDV=  1073505365
 LenX=  1073505365 LenY=  1073452483
 Fock matrices will be formed incrementally for  20 cycles.

 Cycle   1  Pass 1  IDiag  1:
 FoFJK:  IHMeth= 1 ICntrl=     0 DoSepK=T KAlg= 1 I1Cent= 0 FoldK=F
 FoFCou: FMM=F IPFlag=           0 FMFlag=      100000 FMFlg1=           0
         NFxFlg=           0 DoJE=T BraDBF=F KetDBF=F FulRan=T
         Omega=  0.000000  0.000000  1.000000  0.000000  0.000000 ICntrl=     500 IOpCl=  0
         NMat0=    1 NMatS0=    1 NMatT0=    0 NMatD0=    1 NMtDS0=    0 NMtDT0=    0
         I1Cent=           0 NGrid=           0.
 Symmetry not used in FoFCou.
 E= -2752.71025816842    
 DIIS: error= 4.36D-02 at cycle   1 NSaved=   1.
 NSaved= 1 IEnMin= 1 EnMin= -2752.71025816842     IErMin= 1 ErrMin= 4.36D-02
 ErrMax= 4.36D-02 EMaxC= 1.00D-01 BMatC= 1.18D+00 BMatP= 1.18D+00
 IDIUse=3 WtCom= 5.64D-01 WtEn= 4.36D-01
 Coeff-Com:  0.100D+01
 Coeff-En:   0.100D+01
 Coeff:      0.100D+01
 Gap=     0.767 Goal=   None    Shift=    0.000
 GapD=    0.767 DampG=2.000 DampE=0.500 DampFc=1.0000 IDamp=-1.
 RMSDP=4.96D-03 MaxDP=2.25D-01              OVMax= 3.36D-01

 Cycle   2  Pass 1  IDiag  1:
 RMSU=  3.43D-03    CP:  1.05D+00
 FoFJK:  IHMeth= 1 ICntrl=     0 DoSepK=T KAlg= 1 I1Cent= 0 FoldK=F
 E= -2753.27698081017     Delta-E=       -0.566722641757 Rises=F Damp=F
 DIIS: error= 3.21D-02 at cycle   2 NSaved=   2.
 NSaved= 2 IEnMin= 2 EnMin= -2753.27698081017     IErMin= 2 ErrMin= 3.21D-02
 ErrMax= 3.21D-02 EMaxC= 1.00D-01 BMatC= 3.64D-01 BMatP= 1.18D+00
 IDIUse=3 WtCom= 6.79D-01 WtEn= 3.21D-01
 Coeff-Com:  0.351D+00 0.649D+00
 Coeff-En:   0.000D+00 0.100D+01
 Coeff:      0.238D+00 0.762D+00
 Gap=     0.599 Goal=   None    Shift=    0.000
 RMSDP=2.25D-03 MaxDP=1.35D-01 DE=-5.67D-01 OVMax= 7.50D-02

 Cycle   3  Pass 1  IDiag  1:
 RMSU=  8.73D-04    CP:  1.03D+00  6.22D-01
 FoFJK:  IHMeth= 1 ICntrl=     0 DoSepK=T KAlg= 1 I1Cent= 0 FoldK=F
 E= -2753.40700769980     Delta-E=       -0.130026889627 Rises=F Damp=F
 DIIS: error= 3.90D-03 at cycle   3 NSaved=   3.
 NSaved= 3 IEnMin= 3 EnMin= -2753.40700769980     IErMin= 3 ErrMin= 3.90D-03
 ErrMax= 3.90D-03 EMaxC= 1.00D-01 BMatC= 8.59D-03 BMatP= 3.64D-01
 IDIUse=3 WtCom= 9.61D-01 WtEn= 3.90D-02
 Coeff-Com: -0.100D-01 0.110D+00 0.901D+00
 Coeff-En:   0.000D+00 0.000D+00 0.100D+01
 Coeff:     -0.964D-02 0.105D+00 0.904D+00
 Gap=     0.574 Goal=   None    Shift=    0.000
 RMSDP=3.71D-04 MaxDP=1.84D-02 DE=-1.30D-01 OVMax= 1.10D-02

 Cycle   4  Pass 1  IDiag  1:
 RMSU=  2.26D-04    CP:  1.03D+00  6.58D-01  9.62D-01
 FoFJK:  IHMeth= 1 ICntrl=     0 DoSepK=T KAlg= 1 I1Cent= 0 FoldK=F
 E= -2753.40946046674     Delta-E=       -0.002452766940 Rises=F Damp=F
 DIIS: error= 2.58D-04 at cycle   4 NSaved=   4.
 NSaved= 4 IEnMin= 4 EnMin= -2753.40946046674     IErMin= 4 ErrMin= 2.58D-04
 ErrMax= 2.58D-04 EMaxC= 1.00D-01 BMatC= 3.31D-05 BMatP= 8.59D-03
 IDIUse=3 WtCom= 9.97D-01 WtEn= 2.58D-03
 Coeff-Com: -0.683D-02-0.478D-02 0.153D-02 0.101D+01
 Coeff-En:   0.000D+00 0.000D+00 0.000D+00 0.100D+01
 Coeff:     -0.681D-02-0.477D-02 0.153D-02 0.101D+01
 Gap=     0.580 Goal=   None    Shift=    0.000
 RMSDP=4.97D-05 MaxDP=2.22D-03 DE=-2.45D-03 OVMax= 3.45D-03

 Cycle   5  Pass 1  IDiag  1:
 RMSU=  2.03D-05    CP:  1.03D+00  6.61D-01  9.85D-01  1.08D+00
 FoFJK:  IHMeth= 1 ICntrl=     0 DoSepK=T KAlg= 1 I1Cent= 0 FoldK=F
 E= -2753.40951959247     Delta-E=       -0.000059125733 Rises=F Damp=F
 DIIS: error= 3.90D-05 at cycle   5 NSaved=   5.
 NSaved= 5 IEnMin= 5 EnMin= -2753.40951959247     IErMin= 5 ErrMin= 3.90D-05
 ErrMax= 3.90D-05 EMaxC= 1.00D-01 BMatC= 4.98D-07 BMatP= 3.31D-05
 IDIUse=1 WtCom= 1.00D+00 WtEn= 0.00D+00
 Coeff-Com: -0.890D-04-0.136D-02 0.897D-03-0.166D+00 0.117D+01
 Coeff:     -0.890D-04-0.136D-02 0.897D-03-0.166D+00 0.117D+01
 Gap=     0.580 Goal=   None    Shift=    0.000
 RMSDP=1.06D-05 MaxDP=4.37D-04 DE=-5.91D-05 OVMax= 6.33D-04

 Cycle   6  Pass 1  IDiag  1:
 RMSU=  9.91D-07    CP:  1.03D+00  6.61D-01  9.89D-01  1.10D+00  1.20D+00
 FoFJK:  IHMeth= 1 ICntrl=     0 DoSepK=T KAlg= 1 I1Cent= 0 FoldK=F
 E= -2753.40952100237     Delta-E=       -0.000001409897 Rises=F Damp=F
 DIIS: error= 1.47D-06 at cycle   6 NSaved=   6.
 NSaved= 6 IEnMin= 6 EnMin= -2753.40952100237     IErMin= 6 ErrMin= 1.47D-06
 ErrMax= 1.47D-06 EMaxC= 1.00D-01 BMatC= 1.01D-09 BMatP= 4.98D-07
 IDIUse=1 WtCom= 1.00D+00 WtEn= 0.00D+00
 Coeff-Com:  0.247D-04 0.104D-03-0.334D-03 0.122D-01-0.116D+00 0.110D+01
 Coeff:      0.247D-04 0.104D-03-0.334D-03 0.122D-01-0.116D+00 0.110D+01
 Gap=     0.580 Goal=   None    Shift=    0.000
 RMSDP=5.40D-07 MaxDP=2.37D-05 DE=-1.41D-06 OVMax= 2.39D-05

 Cycle   7  Pass 1  IDiag  1:
 RMSU=  6.17D-08    CP:  1.03D+00  6.61D-01  9.90D-01  1.10D+00  1.21D+00
                    CP:  1.13D+00
 FoFJK:  IHMeth= 1 ICntrl=     0 DoSepK=T KAlg= 1 I1Cent= 0 FoldK=F
 E= -2753.40952100315     Delta-E=       -0.000000000778 Rises=F Damp=F
 DIIS: error= 1.50D-07 at cycle   7 NSaved=   7.
 NSaved= 7 IEnMin= 7 EnMin= -2753.40952100315     IErMin= 7 ErrMin= 1.50D-07
 ErrMax= 1.50D-07 EMaxC= 1.00D-01 BMatC= 1.07D-11 BMatP= 1.01D-09
 IDIUse=1 WtCom= 1.00D+00 WtEn= 0.00D+00
 Coeff-Com:  0.274D-05 0.315D-05-0.313D-04 0.629D-03-0.297D-02-0.176D-01
 Coeff-Com:  0.102D+01
 Coeff:      0.274D-05 0.315D-05-0.313D-04 0.629D-03-0.297D-02-0.176D-01
 Coeff:      0.102D+01
 Gap=     0.580 Goal=   None    Shift=    0.000
 RMSDP=2.31D-08 MaxDP=1.03D-06 DE=-7.78D-10 OVMax= 1.29D-06

 Cycle   8  Pass 1  IDiag  1:
 RMSU=  9.22D-09    CP:  1.03D+00  6.61D-01  9.89D-01  1.10D+00  1.21D+00
                    CP:  1.14D+00  1.14D+00
 FoFJK:  IHMeth= 1 ICntrl=     0 DoSepK=T KAlg= 1 I1Cent= 0 FoldK=F
 E= -2753.40952100320     Delta-E=       -0.000000000055 Rises=F Damp=F
 DIIS: error= 4.59D-08 at cycle   8 NSaved=   8.
 NSaved= 8 IEnMin= 8 EnMin= -2753.40952100320     IErMin= 8 ErrMin= 4.59D-08
 ErrMax= 4.59D-08 EMaxC= 1.00D-01 BMatC= 4.14D-13 BMatP= 1.07D-11
 IDIUse=1 WtCom= 1.00D+00 WtEn= 0.00D+00
 Coeff-Com:  0.833D-07-0.188D-05 0.203D-05-0.205D-03 0.233D-02-0.274D-01
 Coeff-Com:  0.113D+00 0.912D+00
 Coeff:      0.833D-07-0.188D-05 0.203D-05-0.205D-03 0.233D-02-0.274D-01
 Coeff:      0.113D+00 0.912D+00
 Gap=     0.580 Goal=   None    Shift=    0.000
 RMSDP=4.61D-09 MaxDP=1.39D-07 DE=-5.46D-11 OVMax= 3.27D-07

 SCF Done:  E(RLC-B+HF-LYP) =  -2753.40952100     A.U. after    8 cycles
             Convg  =    0.4606D-08             -V/T =  2.0014
 KE= 2.749635520147D+03 PE=-6.579423153954D+03 EE= 1.076378112804D+03
 Leave Link  502 at Mon May 11 18:57:25 2020, MaxMem= 1073741824 cpu:     187.3
 (Enter /home/matheus/.gaussian/g09/l601.exe)
 Copying SCF densities to generalized density rwf, IOpCl= 0 IROHF=0.

 **********************************************************************

            Population analysis using the SCF density.

 **********************************************************************

 Orbital symmetries:
       Occupied  (A) (A) (A) (A) (A) (A) (A) (A) (A) (A) (A) (A)
                 (A) (A) (A) (A) (A) (A)
       Virtual   (A) (A) (A) (A) (A) (A) (A) (A) (A) (A) (A) (A)
                 (A) (A) (A) (A) (A) (A) (A) (A) (A) (A) (A) (A)
                 (A) (A) (A) (A) (A) (A) (A) (A) (A) (A) (A) (A)
                 (A) (A) (A) (A) (A) (A) (A) (A) (A) (A) (A) (A)
                 (A) (A) (A) (A) (A) (A) (A) (A) (A) (A) (A) (A)
                 (A) (A) (A) (A) (A) (A) (A) (A) (A) (A) (A) (A)
                 (A) (A) (A) (A) (A) (A) (A) (A) (A) (A) (A) (A)
                 (A) (A) (A) (A) (A) (A) (A) (A) (A) (A) (A) (A)
                 (A) (A) (A) (A) (A) (A) (A) (A) (A) (A) (A) (A)
                 (A) (A) (A) (A) (A) (A) (A) (A) (A) (A) (A) (A)
                 (A) (A) (A) (A) (A) (A) (A) (A) (A) (A) (A) (A)
                 (A) (A) (A) (A) (A) (A) (A) (A) (A) (A) (A) (A)
                 (A) (A) (A) (A) (A) (A) (A) (A) (A) (A) (A) (A)
                 (A) (A) (A) (A) (A) (A) (A) (A) (A) (A) (A) (A)
                 (A) (A) (A) (A) (A) (A) (A) (A) (A) (A) (A)
 The electronic state is 1-A.
 Alpha  occ. eigenvalues -- -511.65509 -67.17992 -60.85189 -60.85186 -60.85185
 Alpha  occ. eigenvalues --  -10.08107  -7.79670  -7.79669  -7.79669  -3.62633
 Alpha  occ. eigenvalues --   -3.62633  -3.62633  -3.62632  -3.62632  -1.17384
 Alpha  occ. eigenvalues --   -0.55371  -0.55367  -0.55365
 Alpha virt. eigenvalues --    0.02612   0.04681   0.07830   0.09020   0.10519
 Alpha virt. eigenvalues --    0.11698   0.12725   0.13747   0.16078   0.16776
 Alpha virt. eigenvalues --    0.17376   0.19302   0.20608   0.25540   0.27018
 Alpha virt. eigenvalues --    0.27624   0.28196   0.32156   0.33631   0.35507
 Alpha virt. eigenvalues --    0.36143   0.37257   0.37515   0.39241   0.41540
 Alpha virt. eigenvalues --    0.41952   0.43499   0.54823   0.55829   0.57906
 Alpha virt. eigenvalues --    0.59747   0.66122   0.66910   0.70623   0.72876
 Alpha virt. eigenvalues --    0.74798   0.77176   0.78510   0.78872   0.79952
 Alpha virt. eigenvalues --    0.82322   0.83805   0.84019   0.86436   0.86459
 Alpha virt. eigenvalues --    0.88300   0.89243   0.90201   0.92804   0.95849
 Alpha virt. eigenvalues --    0.98972   1.00165   1.01166   1.04682   1.05564
 Alpha virt. eigenvalues --    1.08755   1.09052   1.11534   1.13493   1.15424
 Alpha virt. eigenvalues --    1.17714   1.21787   1.23177   1.24914   1.28572
 Alpha virt. eigenvalues --    1.35675   1.36240   1.42383   1.48015   1.48681
 Alpha virt. eigenvalues --    1.58298   1.60944   1.62754   1.71975   1.78244
 Alpha virt. eigenvalues --    1.81410   1.85284   1.88120   1.91433   2.25812
 Alpha virt. eigenvalues --    2.29114   2.29996   2.33525   2.33941   2.36750
 Alpha virt. eigenvalues --    2.41020   2.42019   2.44847   2.46383   2.47021
 Alpha virt. eigenvalues --    2.48451   2.51986   2.53064   2.54388   2.57257
 Alpha virt. eigenvalues --    2.57842   2.60054   2.62049   2.64561   2.65571
 Alpha virt. eigenvalues --    2.66605   2.67392   2.69030   2.74374   2.75351
 Alpha virt. eigenvalues --    2.78715   2.82321   2.85559   2.90075   2.91358
 Alpha virt. eigenvalues --    2.95658   2.96178   3.05794   3.13114   3.16224
 Alpha virt. eigenvalues --    3.22163   3.27194   3.32832   3.36319   3.51193
 Alpha virt. eigenvalues --    3.60424   3.65942   3.82239   3.86448   4.02890
 Alpha virt. eigenvalues --    4.45713   4.49517   4.52579   4.54084   4.62261
 Alpha virt. eigenvalues --    4.71770   4.87254   4.87676   4.94319   5.05523
 Alpha virt. eigenvalues --    5.13735   5.16918   5.58646   5.62813   5.82409
 Alpha virt. eigenvalues --    5.97832   6.04922   6.10774   6.78554   6.85524
 Alpha virt. eigenvalues --    7.32165   7.38751   7.62374   7.64572   7.69062
 Alpha virt. eigenvalues --    7.84066   7.99740   8.09813   8.17176   8.21445
 Alpha virt. eigenvalues --    8.37200   8.40038   8.63409   8.88154   9.61469
 Alpha virt. eigenvalues --    9.70418   9.79408   9.87576   9.96248  10.02412
 Alpha virt. eigenvalues --   10.15375  10.25886  10.45534  10.93553  11.49790
 Alpha virt. eigenvalues --   11.59507  11.63605  12.05127  12.05225  13.24703
 Alpha virt. eigenvalues --   13.62298  14.52957  62.72673  64.57446
          Condensed to atoms (all electrons):
              1          2          3          4          5
     1  O    0.003558  -0.002788  -0.001883   0.001673  -0.012299
     2  O   -0.002788   0.006889   0.000871  -0.004259  -0.002826
     3  H   -0.001883   0.000871   0.001299  -0.000517   0.003475
     4  H    0.001673  -0.004259  -0.000517   0.004048  -0.021946
     5  Kr  -0.012299  -0.002826   0.003475  -0.021946  36.065202
 Mulliken atomic charges:
              1
     1  O    0.011739
     2  O    0.002112
     3  H   -0.003246
     4  H    0.021000
     5  Kr  -0.031606
 Sum of Mulliken atomic charges =   0.00000
 Mulliken charges with hydrogens summed into heavy atoms:
              1
     1  O    0.008493
     2  O    0.023113
     5  Kr  -0.031606
 Sum of Mulliken charges with hydrogens summed into heavy atoms =   0.00000
          Condensed to fragments (all electrons):
     1       0.031606
     2      -0.031606
 Electronic spatial extent (au):  <R**2>=            166.7472
 Charge=              0.0000 electrons
 Dipole moment (field-independent basis, Debye):
    X=             -0.0015    Y=              0.0007    Z=              0.0001  Tot=              0.0017
 Quadrupole moment (field-independent basis, Debye-Ang):
   XX=            -17.5638   YY=            -17.5736   ZZ=            -17.5810
   XY=             -0.0046   XZ=              0.0003   YZ=              0.0004
 Traceless Quadrupole moment (field-independent basis, Debye-Ang):
   XX=              0.0090   YY=             -0.0008   ZZ=             -0.0082
   XY=             -0.0046   XZ=              0.0003   YZ=              0.0004
 Octapole moment (field-independent basis, Debye-Ang**2):
  XXX=            -52.4764  YYY=              0.9069  ZZZ=             -0.1525  XYY=            -17.5043
  XXY=              0.2918  XXZ=             -0.0510  XZZ=            -17.5086  YZZ=              0.3030
  YYZ=             -0.0504  XYZ=              0.0003
 Hexadecapole moment (field-independent basis, Debye-Ang**3):
 XXXX=           -122.5818 YYYY=            -18.1064 ZZZZ=            -18.1037 XXXY=              0.8773
 XXXZ=             -0.1527 YYYX=              0.8866 YYYZ=              0.0021 ZZZX=             -0.1520
[...]
 FoFJK:  IHMeth= 1 ICntrl=     0 DoSepK=T KAlg= 1 I1Cent= 0 FoldK=F
 E= -2753.40937608734     Delta-E=       -0.000000008363 Rises=F Damp=F
 DIIS: error= 5.24D-07 at cycle   3 NSaved=   3.
 NSaved= 3 IEnMin= 3 EnMin= -2753.40937608734     IErMin= 3 ErrMin= 5.24D-07
 ErrMax= 5.24D-07 EMaxC= 1.00D-01 BMatC= 1.05D-10 BMatP= 4.53D-09
 IDIUse=1 WtCom= 1.00D+00 WtEn= 0.00D+00
 Coeff-Com:  0.506D-03-0.142D+00 0.114D+01
 Coeff:      0.506D-03-0.142D+00 0.114D+01
 Gap=     0.580 Goal=   None    Shift=    0.000
 RMSDP=2.23D-07 MaxDP=7.83D-06 DE=-8.36D-09 OVMax= 1.02D-05

 Cycle   4  Pass 1  IDiag  1:
 RMSU=  5.76D-08    CP:  1.00D+00  1.09D+00  1.18D+00
 FoFJK:  IHMeth= 1 ICntrl=     0 DoSepK=T KAlg= 1 I1Cent= 0 FoldK=F
 E= -2753.40937608766     Delta-E=       -0.000000000318 Rises=F Damp=F
 DIIS: error= 1.58D-07 at cycle   4 NSaved=   4.
 NSaved= 4 IEnMin= 4 EnMin= -2753.40937608766     IErMin= 4 ErrMin= 1.58D-07
 ErrMax= 1.58D-07 EMaxC= 1.00D-01 BMatC= 3.92D-12 BMatP= 1.05D-10
 IDIUse=1 WtCom= 1.00D+00 WtEn= 0.00D+00
 Coeff-Com:  0.150D-03-0.277D-01 0.148D+00 0.879D+00
 Coeff:      0.150D-03-0.277D-01 0.148D+00 0.879D+00
 Gap=     0.580 Goal=   None    Shift=    0.000
 RMSDP=1.82D-08 MaxDP=9.60D-07 DE=-3.18D-10 OVMax= 8.29D-07

 Cycle   5  Pass 1  IDiag  1:
 RMSU=  5.87D-09    CP:  1.00D+00  1.09D+00  1.19D+00  1.15D+00
 FoFJK:  IHMeth= 1 ICntrl=     0 DoSepK=T KAlg= 1 I1Cent= 0 FoldK=F
 E= -2753.40937608768     Delta-E=       -0.000000000025 Rises=F Damp=F
 DIIS: error= 4.11D-08 at cycle   5 NSaved=   5.
 NSaved= 5 IEnMin= 5 EnMin= -2753.40937608768     IErMin= 5 ErrMin= 4.11D-08
 ErrMax= 4.11D-08 EMaxC= 1.00D-01 BMatC= 3.28D-13 BMatP= 3.92D-12
 IDIUse=1 WtCom= 1.00D+00 WtEn= 0.00D+00
 Coeff-Com: -0.347D-04 0.962D-02-0.793D-01 0.327D-01 0.104D+01
 Coeff:     -0.347D-04 0.962D-02-0.793D-01 0.327D-01 0.104D+01
 Gap=     0.580 Goal=   None    Shift=    0.000
 RMSDP=7.11D-09 MaxDP=4.04D-07 DE=-2.46D-11 OVMax= 4.32D-07

 SCF Done:  E(RLC-B+HF-LYP) =  -2753.40937609     A.U. after    5 cycles
             Convg  =    0.7113D-08             -V/T =  2.0014
 KE= 2.749687372933D+03 PE=-6.579480181188D+03 EE= 1.076383432167D+03
 Leave Link  502 at Mon May 11 19:19:57 2020, MaxMem= 1073741824 cpu:      91.5
 (Enter /home/matheus/.gaussian/g09/l122.exe)
 Restoring MOs from calculation   4 to rwf.
 Counterpoise: doing MCBS calculation for fragment   1
 Leave Link  122 at Mon May 11 19:19:57 2020, MaxMem= 1073741824 cpu:       0.0
 (Enter /home/matheus/.gaussian/g09/l301.exe)
 Basis read from rwf:  (5D, 7F)
 No pseudopotential information found on rwf file.
 There are   138 symmetry adapted basis functions of A   symmetry.
 Integral buffers will be    131072 words long.
 Raffenetti 2 integral format.
 Two-electron integral symmetry is turned on.
   138 basis functions,   198 primitive gaussians,   160 cartesian basis functions
     9 alpha electrons        9 beta electrons
       nuclear repulsion energy        36.6058450489 Hartrees.
 IExCor=10402 DFT=T Ex=LC-B+HF Corr=LYP ExCW=0 ScaHFX=  1.000000
 ScaDFX=  1.000000  1.000000  1.000000  1.000000 ScalE2=  1.000000  1.000000
 IRadAn=      5 IRanWt=     -1 IRanGd=            0 ICorTp=0
  HFx wShort=  0.000000 wLong=  1.350000 cFull=  0.000000 cShort=  0.000000 cLong=  1.000000
  DFx wShort=  0.000000 wLong=  1.350000 cFull=  0.000000 cShort=  0.000000 cLong=  1.000000
 NAtoms=    5 NActive=    4 NUniq=    4 SFac= 1.00D+00 NAtFMM=   60 NAOKFM=F Big=F
 No density basis found on file   718.
 Leave Link  301 at Mon May 11 19:19:57 2020, MaxMem= 1073741824 cpu:       0.2
 (Enter /home/matheus/.gaussian/g09/l302.exe)
 NPDir=0 NMtPBC=     1 NCelOv=     1 NCel=       1 NClECP=     1 NCelD=      1
         NCelK=      1 NCelE2=     1 NClLst=     1 CellRange=     0.0.
 One-electron integrals computed using PRISM.
 NBasis=   138 RedAO= T  NBF=   138
 NBsUse=   138 1.00D-06 NBFU=   138
 Precomputing XC quadrature grid using
 IXCGrd= 2 IRadAn=           5 IRanWt=          -1 IRanGd=           0 AccXCQ= 0.00D+00.
 NRdTot=     344 NPtTot=       92556 NUsed=       95038 NTot=       95070
 NSgBfM=   160   160   160   160   160 NAtAll=     4     4.
 Leave Link  302 at Mon May 11 19:19:57 2020, MaxMem= 1073741824 cpu:       0.7
 (Enter /home/matheus/.gaussian/g09/l303.exe)
 DipDrv:  MaxL=1.
 Leave Link  303 at Mon May 11 19:19:57 2020, MaxMem= 1073741824 cpu:       0.1
 (Enter /home/matheus/.gaussian/g09/l401.exe)
 Initial guess read from the read-write file.
 Guess basis will be translated and rotated to current coordinates.
 Initial guess orbital symmetries:
       Occupied  (A) (A) (A) (A) (A) (A) (A) (A) (A)
       Virtual   (A) (A) (A) (A) (A) (A) (A) (A) (A) (A) (A) (A)
                 (A) (A) (A) (A) (A) (A) (A) (A) (A) (A) (A) (A)
                 (A) (A) (A) (A) (A) (A) (A) (A) (A) (A) (A) (A)
                 (A) (A) (A) (A) (A) (A) (A) (A) (A) (A) (A) (A)
                 (A) (A) (A) (A) (A) (A) (A) (A) (A) (A) (A) (A)
                 (A) (A) (A) (A) (A) (A) (A) (A) (A) (A) (A) (A)
                 (A) (A) (A) (A) (A) (A) (A) (A) (A) (A) (A) (A)
                 (A) (A) (A) (A) (A) (A) (A) (A) (A) (A) (A) (A)
                 (A) (A) (A) (A) (A) (A) (A) (A) (A) (A) (A) (A)
                 (A) (A) (A) (A) (A) (A) (A) (A) (A) (A) (A) (A)
                 (A) (A) (A) (A) (A) (A) (A) (A) (A)
 The electronic state of the initial guess is 1-A.
 Generating alternative initial guess.
 Harris functional with IExCor=10402 diagonalized for initial guess.
 ExpMin= 2.53D-02 ExpMax= 1.53D+04 ExpMxC= 5.22D+02 IAcc=3 IRadAn=         5 AccDes= 0.00D+00
 HarFok:  IExCor=10402 AccDes= 0.00D+00 IRadAn=         5 IDoV= 1
 ScaDFX=  1.000000  1.000000  1.000000  1.000000
 FoFCou: FMM=F IPFlag=           0 FMFlag=      100000 FMFlg1=           0
         NFxFlg=           0 DoJE=T BraDBF=F KetDBF=T FulRan=T
         Omega=  0.000000  0.000000  1.000000  0.000000  0.000000 ICntrl=     500 IOpCl=  0
         NMat0=    1 NMatS0=    1 NMatT0=    0 NMatD0=    1 NMtDS0=    0 NMtDT0=    0
         I1Cent=           4 NGrid=           0.
 Petite list used in FoFCou.
 Harris En= -143.233537026592    
 Leave Link  401 at Mon May 11 19:19:57 2020, MaxMem= 1073741824 cpu:       2.3
 (Enter /home/matheus/.gaussian/g09/l502.exe)
 Closed shell SCF:
 Requested convergence on RMS density matrix=1.00D-08 within 128 cycles.
 Requested convergence on MAX density matrix=1.00D-06.
 Requested convergence on             energy=1.00D-06.
 No special actions if energy rises.
 Using DIIS extrapolation, IDIIS=  1040.
 Integral symmetry usage will be decided dynamically.
        94980 words used for storage of precomputed grid.
 IEnd=      192360 IEndB=      192360 NGot=  1073741824 MDV=  1073591865
 LenX=  1073591865 LenY=  1073565824
 Fock matrices will be formed incrementally for  20 cycles.

 Cycle   1  Pass 1  IDiag  1:
 FoFJK:  IHMeth= 1 ICntrl=     0 DoSepK=T KAlg= 1 I1Cent= 0 FoldK=F
 FoFCou: FMM=F IPFlag=           0 FMFlag=      100000 FMFlg1=           0
         NFxFlg=           0 DoJE=T BraDBF=F KetDBF=F FulRan=T
         Omega=  0.000000  0.000000  1.000000  0.000000  0.000000 ICntrl=     500 IOpCl=  0
         NMat0=    1 NMatS0=    1 NMatT0=    0 NMatD0=    1 NMtDS0=    0 NMtDT0=    0
         I1Cent=           0 NGrid=           0.
 Symmetry not used in FoFCou.
 E= -151.212056175811    
 DIIS: error= 1.87D-05 at cycle   1 NSaved=   1.
 NSaved= 1 IEnMin= 1 EnMin= -151.212056175811     IErMin= 1 ErrMin= 1.87D-05
 ErrMax= 1.87D-05 EMaxC= 1.00D-01 BMatC= 4.35D-08 BMatP= 4.35D-08
 IDIUse=1 WtCom= 1.00D+00 WtEn= 0.00D+00
 Coeff-Com:  0.100D+01
 Coeff:      0.100D+01
 Gap=     0.521 Goal=   None    Shift=    0.000
 RMSDP=1.13D-06 MaxDP=2.02D-05              OVMax= 7.09D-05

 Cycle   2  Pass 1  IDiag  1:
 RMSU=  8.02D-07    CP:  1.00D+00
 FoFJK:  IHMeth= 1 ICntrl=     0 DoSepK=T KAlg= 1 I1Cent= 0 FoldK=F
 E= -151.212056220722     Delta-E=       -0.000000044912 Rises=F Damp=F
 DIIS: error= 4.82D-06 at cycle   2 NSaved=   2.
 NSaved= 2 IEnMin= 2 EnMin= -151.212056220722     IErMin= 2 ErrMin= 4.82D-06
 ErrMax= 4.82D-06 EMaxC= 1.00D-01 BMatC= 2.65D-09 BMatP= 4.35D-08
 IDIUse=1 WtCom= 1.00D+00 WtEn= 0.00D+00
 Coeff-Com: -0.213D+00 0.121D+01
 Coeff:     -0.213D+00 0.121D+01
 Gap=     0.521 Goal=   None    Shift=    0.000
 RMSDP=4.26D-07 MaxDP=7.42D-06 DE=-4.49D-08 OVMax= 3.73D-05

 Cycle   3  Pass 1  IDiag  1:
 RMSU=  1.72D-07    CP:  1.00D+00  1.31D+00
 FoFJK:  IHMeth= 1 ICntrl=     0 DoSepK=T KAlg= 1 I1Cent= 0 FoldK=F
 E= -151.212056226408     Delta-E=       -0.000000005686 Rises=F Damp=F
 DIIS: error= 1.45D-06 at cycle   3 NSaved=   3.
 NSaved= 3 IEnMin= 3 EnMin= -151.212056226408     IErMin= 3 ErrMin= 1.45D-06
 ErrMax= 1.45D-06 EMaxC= 1.00D-01 BMatC= 2.32D-10 BMatP= 2.65D-09
 IDIUse=1 WtCom= 1.00D+00 WtEn= 0.00D+00
 Coeff-Com:  0.897D-02-0.230D+00 0.122D+01
 Coeff:      0.897D-02-0.230D+00 0.122D+01
 Gap=     0.521 Goal=   None    Shift=    0.000
 RMSDP=1.55D-07 MaxDP=3.41D-06 DE=-5.69D-09 OVMax= 1.46D-05

 Cycle   4  Pass 1  IDiag  1:
 RMSU=  4.91D-08    CP:  1.00D+00  1.38D+00  1.45D+00
 FoFJK:  IHMeth= 1 ICntrl=     0 DoSepK=T KAlg= 1 I1Cent= 0 FoldK=F
 E= -151.212056227016     Delta-E=       -0.000000000608 Rises=F Damp=F
 DIIS: error= 5.40D-07 at cycle   4 NSaved=   4.
 NSaved= 4 IEnMin= 4 EnMin= -151.212056227016     IErMin= 4 ErrMin= 5.40D-07
 ErrMax= 5.40D-07 EMaxC= 1.00D-01 BMatC= 7.28D-11 BMatP= 2.32D-10
 IDIUse=1 WtCom= 1.00D+00 WtEn= 0.00D+00
 Coeff-Com:  0.268D-01-0.224D+00 0.445D+00 0.752D+00
 Coeff:      0.268D-01-0.224D+00 0.445D+00 0.752D+00
 Gap=     0.521 Goal=   None    Shift=    0.000
 RMSDP=5.23D-08 MaxDP=1.35D-06 DE=-6.08D-10 OVMax= 4.25D-06

 Cycle   5  Pass 1  IDiag  1:
 RMSU=  2.11D-08    CP:  1.00D+00  1.40D+00  1.61D+00  9.56D-01
 FoFJK:  IHMeth= 1 ICntrl=     0 DoSepK=T KAlg= 1 I1Cent= 0 FoldK=F
 E= -151.212056227123     Delta-E=       -0.000000000107 Rises=F Damp=F
 DIIS: error= 2.08D-07 at cycle   5 NSaved=   5.
 NSaved= 5 IEnMin= 5 EnMin= -151.212056227123     IErMin= 5 ErrMin= 2.08D-07
 ErrMax= 2.08D-07 EMaxC= 1.00D-01 BMatC= 7.27D-12 BMatP= 7.28D-11
 IDIUse=1 WtCom= 1.00D+00 WtEn= 0.00D+00
 Coeff-Com:  0.128D-03 0.246D-01-0.192D+00 0.622D-01 0.110D+01
 Coeff:      0.128D-03 0.246D-01-0.192D+00 0.622D-01 0.110D+01
 Gap=     0.521 Goal=   None    Shift=    0.000
 RMSDP=2.76D-08 MaxDP=4.95D-07 DE=-1.07D-10 OVMax= 2.31D-06

 Cycle   6  Pass 1  IDiag  1:
 RMSU=  7.86D-09    CP:  1.00D+00  1.40D+00  1.67D+00  1.18D+00  1.35D+00
 FoFJK:  IHMeth= 1 ICntrl=     0 DoSepK=T KAlg= 1 I1Cent= 0 FoldK=F
 E= -151.212056227149     Delta-E=       -0.000000000025 Rises=F Damp=F
 DIIS: error= 7.38D-08 at cycle   6 NSaved=   6.
 NSaved= 6 IEnMin= 6 EnMin= -151.212056227149     IErMin= 6 ErrMin= 7.38D-08
 ErrMax= 7.38D-08 EMaxC= 1.00D-01 BMatC= 7.66D-13 BMatP= 7.27D-12
 IDIUse=1 WtCom= 1.00D+00 WtEn= 0.00D+00
 Coeff-Com: -0.209D-02 0.194D-01-0.384D-01-0.658D-01 0.716D-02 0.108D+01
 Coeff:     -0.209D-02 0.194D-01-0.384D-01-0.658D-01 0.716D-02 0.108D+01
 Gap=     0.521 Goal=   None    Shift=    0.000
 RMSDP=1.00D-08 MaxDP=1.59D-07 DE=-2.55D-11 OVMax= 1.06D-06

 Cycle   7  Pass 1  IDiag  1:
 RMSU=  3.15D-09    CP:  1.00D+00  1.40D+00  1.69D+00  1.22D+00  1.54D+00
                    CP:  1.52D+00
 FoFJK:  IHMeth= 1 ICntrl=     0 DoSepK=T KAlg= 1 I1Cent= 0 FoldK=F
 E= -151.212056227149     Delta-E=        0.000000000000 Rises=F Damp=F
 DIIS: error= 4.83D-08 at cycle   7 NSaved=   7.
 NSaved= 7 IEnMin= 7 EnMin= -151.212056227149     IErMin= 7 ErrMin= 4.83D-08
 ErrMax= 4.83D-08 EMaxC= 1.00D-01 BMatC= 2.05D-13 BMatP= 7.66D-13
 IDIUse=1 WtCom= 1.00D+00 WtEn= 0.00D+00
 Coeff-Com: -0.874D-05-0.377D-02 0.321D-01-0.157D-01-0.204D+00 0.994D-01
 Coeff-Com:  0.109D+01
 Coeff:     -0.874D-05-0.377D-02 0.321D-01-0.157D-01-0.204D+00 0.994D-01
 Coeff:      0.109D+01
 Gap=     0.521 Goal=   None    Shift=    0.000
 RMSDP=6.25D-09 MaxDP=1.04D-07 DE=-3.98D-13 OVMax= 6.90D-07

 SCF Done:  E(RLC-B+HF-LYP) =  -151.212056227     A.U. after    7 cycles
             Convg  =    0.6254D-08             -V/T =  2.0063
 KE= 1.502622904463D+02 PE=-4.315418182117D+02 EE= 9.346162648929D+01
 Leave Link  502 at Mon May 11 19:20:04 2020, MaxMem= 1073741824 cpu:      51.9
 (Enter /home/matheus/.gaussian/g09/l122.exe)
 Restoring MOs from calculation   5 to rwf.
 Counterpoise: doing MCBS calculation for fragment   2
 Leave Link  122 at Mon May 11 19:20:04 2020, MaxMem= 1073741824 cpu:       0.0
 (Enter /home/matheus/.gaussian/g09/l301.exe)
 Basis read from rwf:  (5D, 7F)
 No pseudopotential information found on rwf file.
 There are    59 symmetry adapted basis functions of A   symmetry.
 Integral buffers will be    131072 words long.
 Raffenetti 2 integral format.
 Two-electron integral symmetry is turned on.
    59 basis functions,   217 primitive gaussians,    69 cartesian basis functions
    18 alpha electrons       18 beta electrons
       nuclear repulsion energy         0.0000000000 Hartrees.
 IExCor=10402 DFT=T Ex=LC-B+HF Corr=LYP ExCW=0 ScaHFX=  1.000000
 ScaDFX=  1.000000  1.000000  1.000000  1.000000 ScalE2=  1.000000  1.000000
 IRadAn=      5 IRanWt=     -1 IRanGd=            0 ICorTp=0
  HFx wShort=  0.000000 wLong=  1.350000 cFull=  0.000000 cShort=  0.000000 cLong=  1.000000
  DFx wShort=  0.000000 wLong=  1.350000 cFull=  0.000000 cShort=  0.000000 cLong=  1.000000
 NAtoms=    5 NActive=    1 NUniq=    1 SFac= 1.00D+00 NAtFMM=   60 NAOKFM=F Big=F
 No density basis found on file   718.
 Leave Link  301 at Mon May 11 19:20:04 2020, MaxMem= 1073741824 cpu:       0.2
 (Enter /home/matheus/.gaussian/g09/l302.exe)
 NPDir=0 NMtPBC=     1 NCelOv=     1 NCel=       1 NClECP=     1 NCelD=      1
         NCelK=      1 NCelE2=     1 NClLst=     1 CellRange=     0.0.
 One-electron integrals computed using PRISM.
 NBasis=    59 RedAO= T  NBF=    59
 NBsUse=    59 1.00D-06 NBFU=    59
 Precomputing XC quadrature grid using
 IXCGrd= 2 IRadAn=           5 IRanWt=          -1 IRanGd=           0 AccXCQ= 0.00D+00.
 NRdTot=      81 NPtTot=       30352 NUsed=       30981 NTot=       31013
 NSgBfM=    69    69    69    69    69 NAtAll=     1     1.
 Leave Link  302 at Mon May 11 19:20:04 2020, MaxMem= 1073741824 cpu:       0.6
 (Enter /home/matheus/.gaussian/g09/l303.exe)
 DipDrv:  MaxL=1.
 Leave Link  303 at Mon May 11 19:20:04 2020, MaxMem= 1073741824 cpu:       0.1
 (Enter /home/matheus/.gaussian/g09/l401.exe)
 Initial guess read from the read-write file.
 Guess basis will be translated and rotated to current coordinates.
 Initial guess orbital symmetries:
       Occupied  (A) (A) (A) (A) (A) (A) (A) (A) (A) (A) (A) (A)
                 (A) (A) (A) (A) (A) (A)
       Virtual   (A) (A) (A) (A) (A) (A) (A) (A) (A) (A) (A) (A)
                 (A) (A) (A) (A) (A) (A) (A) (A) (A) (A) (A) (A)
                 (A) (A) (A) (A) (A) (A) (A) (A) (A) (A) (A) (A)
                 (A) (A) (A) (A) (A)
 The electronic state of the initial guess is 1-A.
 Generating alternative initial guess.
 Harris functional with IExCor=10402 diagonalized for initial guess.
 ExpMin= 4.00D-02 ExpMax= 1.17D+07 ExpMxC= 1.33D+04 IAcc=3 IRadAn=         5 AccDes= 0.00D+00
 HarFok:  IExCor=10402 AccDes= 0.00D+00 IRadAn=         5 IDoV= 1
 ScaDFX=  1.000000  1.000000  1.000000  1.000000
 FoFCou: FMM=F IPFlag=           0 FMFlag=      100000 FMFlg1=           0
         NFxFlg=           0 DoJE=T BraDBF=F KetDBF=T FulRan=T
         Omega=  0.000000  0.000000  1.000000  0.000000  0.000000 ICntrl=     500 IOpCl=  0
         NMat0=    1 NMatS0=    1 NMatT0=    0 NMatD0=    1 NMtDS0=    0 NMtDT0=    0
         I1Cent=           4 NGrid=           0.
 Petite list used in FoFCou.
 Harris En= -2731.73388500824    
 Leave Link  401 at Mon May 11 19:20:04 2020, MaxMem= 1073741824 cpu:       1.0
 (Enter /home/matheus/.gaussian/g09/l502.exe)
 Closed shell SCF:
 Requested convergence on RMS density matrix=1.00D-08 within 128 cycles.
 Requested convergence on MAX density matrix=1.00D-06.
 Requested convergence on             energy=1.00D-06.
 No special actions if energy rises.
 Using DIIS extrapolation, IDIIS=  1040.
 Integral symmetry usage will be decided dynamically.
        30923 words used for storage of precomputed grid.
 IEnd=       64406 IEndB=       64406 NGot=  1073741824 MDV=  1073698889
 LenX=  1073698889 LenY=  1073693687
 Fock matrices will be formed incrementally for  20 cycles.

 Cycle   1  Pass 1  IDiag  1:
 FoFJK:  IHMeth= 1 ICntrl=     0 DoSepK=T KAlg= 1 I1Cent= 0 FoldK=F
 FoFCou: FMM=F IPFlag=           0 FMFlag=      100000 FMFlg1=           0
         NFxFlg=           0 DoJE=T BraDBF=F KetDBF=F FulRan=T
         Omega=  0.000000  0.000000  1.000000  0.000000  0.000000 ICntrl=     500 IOpCl=  0
         NMat0=    1 NMatS0=    1 NMatT0=    0 NMatD0=    1 NMtDS0=    0 NMtDT0=    0
         I1Cent=           0 NGrid=           0.
 Symmetry not used in FoFCou.
 E= -2753.40934852740    
 DIIS: error= 1.12D-13 at cycle   1 NSaved=   1.
 NSaved= 1 IEnMin= 1 EnMin= -2753.40934852740     IErMin= 1 ErrMin= 1.12D-13
 ErrMax= 1.12D-13 EMaxC= 1.00D-01 BMatC= 2.20D-25 BMatP= 2.20D-25
 IDIUse=1 WtCom= 1.00D+00 WtEn= 0.00D+00
 Coeff-Com:  0.100D+01
 Coeff:      0.100D+01
 Gap=     0.640 Goal=   None    Shift=    0.000
 RMSDP=9.38D-15 MaxDP=2.34D-13              OVMax= 3.82D-14

 SCF Done:  E(RLC-B+HF-LYP) =  -2753.40934853     A.U. after    1 cycles
             Convg  =    0.9377D-14             -V/T =  2.0014
 KE= 2.749695852517D+03 PE=-6.579489077514D+03 EE= 1.076383876470D+03
 Leave Link  502 at Mon May 11 19:20:05 2020, MaxMem= 1073741824 cpu:      11.2
 (Enter /home/matheus/.gaussian/g09/l122.exe)
 Restoring MOs from calculation   1 to rwf.
 Counterpoise: corrected energy =   -2904.621464994793
 Counterpoise: BSSE energy =       0.000031038844
 Leave Link  122 at Mon May 11 19:20:05 2020, MaxMem= 1073741824 cpu:       0.0
 (Enter /home/matheus/.gaussian/g09/l108.exe)
 Scan completed.

 Summary of the potential surface scan:
   N      R1          SCF    
 ----  ---------  -----------
    1     3.0000  -2753.40935
    2     3.1000  -2753.40935
    3     3.2000  -2753.40935
    4     3.3000  -2753.40935
    5     3.4000  -2753.40935
    6     3.5000  -2753.40935
    7     3.6000  -2753.40935
    8     3.7000  -2753.40935
    9     3.8000  -2753.40935
   10     3.9000  -2753.40935
   11     4.0000  -2753.40935
   12     4.1000  -2753.40935
   13     4.2000  -2753.40935
   14     4.3000  -2753.40935
   15     4.4000  -2753.40935
   16     4.5000  -2753.40935
   17     4.6000  -2753.40935
   18     4.7000  -2753.40935
   19     4.8000  -2753.40935
   20     4.9000  -2753.40935
   21     5.0000  -2753.40935
 ----  ---------  -----------
  
 Leave Link  108 at Mon May 11 19:20:05 2020, MaxMem= 1073741824 cpu:       0.0
 (Enter /home/matheus/.gaussian/g09/l9999.exe)

 Test job not archived.
 1\1\GINC-REDGIANT\Scan\RLC-BLYP\Aug-CC-pVTZ\H2Kr1O2\MATHEUS\11-May-202
 0\1\\#p lc-blyp/aug-cc-PVTz iop(3/107=1350000000) iop(3/108=1350000000
 ) int=ultrafine counterpoise=2 Scan\\TCC\\0,1\O,0,0.,0.,0.725\O,0,0.,0
 .,-0.725\H,0,-0.5905422151,-0.7037808064,1.0235104166\H,0,0.,0.9187205
 947,-1.0235104166\Kr,0,0.,R1,0.\\R1=3.,s,20,0.1\\Version=EM64L-G09RevC
 .01\State=1-A\HF=-2753.4093485,-2753.4093485,-2753.4093485,-2753.40934
 85,-2753.4093485,-2753.4093485,-2753.4093485,-2753.4093485,-2753.40934
 85,-2753.4093485,-2753.4093485,-2753.4093485,-2753.4093485,-2753.40934
 85,-2753.4093485,-2753.4093485,-2753.4093485,-2753.4093485,-2753.40934
 85,-2753.4093485,-2753.4093485\RMSD=5.461e-09,3.089e-10,7.451e-11,2.03
 5e-11,7.193e-12,3.151e-12,1.457e-12,6.841e-13,3.241e-13,1.518e-13,6.83
 1e-14,3.945e-14,2.408e-14,1.592e-14,9.857e-15,5.170e-15,3.929e-15,1.77
 5e-14,1.521e-14,6.594e-15,9.377e-15\PG=C01 [X(H2Kr1O2)]\\@


 Everywhere is walking distance if you have the time.
                                    -- Steven Wright
 Job cpu time:  0 days  3 hours 15 minutes 23.8 seconds.
 File lengths (MBytes):  RWF=     33 Int=      0 D2E=      0 Chk=      8 Scr=      1
 Normal termination of Gaussian 09 at Mon May 11 19:20:06 2020.
