 Entering Gaussian System, Link 0=g09
 Input=/home/matheus/.tcc/Inputs/Inputs-lc-blyp/H2O2-Kr_20.com
 Output=/home/matheus/.tcc/Logs/Logs-lc-blyp/H2O2-Kr_20.log
 Initial command:
 /home/matheus/.gaussian/g09/l1.exe /home/matheus/.gaussian/g09/scratch/Gau-870.inp -scrdir=/home/matheus/.gaussian/g09/scratch/
 Entering Link 1 = /home/matheus/.gaussian/g09/l1.exe PID=       873.
  
 Copyright (c) 1988,1990,1992,1993,1995,1998,2003,2009,2011,
            Gaussian, Inc.  All Rights Reserved.
  
 This is part of the Gaussian(R) 09 program.  It is based on
 the Gaussian(R) 03 system (copyright 2003, Gaussian, Inc.),
 the Gaussian(R) 98 system (copyright 1998, Gaussian, Inc.),
 the Gaussian(R) 94 system (copyright 1995, Gaussian, Inc.),
 the Gaussian 92(TM) system (copyright 1992, Gaussian, Inc.),
 the Gaussian 90(TM) system (copyright 1990, Gaussian, Inc.),
 the Gaussian 88(TM) system (copyright 1988, Gaussian, Inc.),
 the Gaussian 86(TM) system (copyright 1986, Carnegie Mellon
 University), and the Gaussian 82(TM) system (copyright 1983,
 Carnegie Mellon University). Gaussian is a federally registered
 trademark of Gaussian, Inc.
  
 This software contains proprietary and confidential information,
 including trade secrets, belonging to Gaussian, Inc.
  
 This software is provided under written license and may be
 used, copied, transmitted, or stored only in accord with that
 written license.
  
 The following legend is applicable only to US Government
 contracts under FAR:
  
                    RESTRICTED RIGHTS LEGEND
  
 Use, reproduction and disclosure by the US Government is
 subject to restrictions as set forth in subparagraphs (a)
 and (c) of the Commercial Computer Software - Restricted
 Rights clause in FAR 52.227-19.
  
 Gaussian, Inc.
 340 Quinnipiac St., Bldg. 40, Wallingford CT 06492
  
  
 ---------------------------------------------------------------
 Warning -- This program may not be used in any manner that
 competes with the business of Gaussian, Inc. or will provide
 assistance to any competitor of Gaussian, Inc.  The licensee
 of this program is prohibited from giving any competitor of
 Gaussian, Inc. access to this program.  By using this program,
 the user acknowledges that Gaussian, Inc. is engaged in the
 business of creating and licensing software in the field of
 computational chemistry and represents and warrants to the
 licensee that it is not a competitor of Gaussian, Inc. and that
 it will not use this program in any manner prohibited above.
 ---------------------------------------------------------------
  

 Cite this work as:
 Gaussian 09, Revision C.01,
 M. J. Frisch, G. W. Trucks, H. B. Schlegel, G. E. Scuseria, 
 M. A. Robb, J. R. Cheeseman, G. Scalmani, V. Barone, B. Mennucci, 
 G. A. Petersson, H. Nakatsuji, M. Caricato, X. Li, H. P. Hratchian, 
 A. F. Izmaylov, J. Bloino, G. Zheng, J. L. Sonnenberg, M. Hada, 
 M. Ehara, K. Toyota, R. Fukuda, J. Hasegawa, M. Ishida, T. Nakajima, 
 Y. Honda, O. Kitao, H. Nakai, T. Vreven, J. A. Montgomery, Jr., 
 J. E. Peralta, F. Ogliaro, M. Bearpark, J. J. Heyd, E. Brothers, 
 K. N. Kudin, V. N. Staroverov, T. Keith, R. Kobayashi, J. Normand, 
 K. Raghavachari, A. Rendell, J. C. Burant, S. S. Iyengar, J. Tomasi, 
 M. Cossi, N. Rega, J. M. Millam, M. Klene, J. E. Knox, J. B. Cross, 
 V. Bakken, C. Adamo, J. Jaramillo, R. Gomperts, R. E. Stratmann, 
 O. Yazyev, A. J. Austin, R. Cammi, C. Pomelli, J. W. Ochterski, 
 R. L. Martin, K. Morokuma, V. G. Zakrzewski, G. A. Voth, 
 P. Salvador, J. J. Dannenberg, S. Dapprich, A. D. Daniels, 
 O. Farkas, J. B. Foresman, J. V. Ortiz, J. Cioslowski, 
 and D. J. Fox, Gaussian, Inc., Wallingford CT, 2010.
 
 ******************************************
 Gaussian 09:  EM64L-G09RevC.01 23-Sep-2011
                11-May-2020 
 ******************************************
 %mem=8GB
 %nproc=8
 Will use up to    8 processors via shared memory.
 ----------------------------------------------------------------------
 #p lc-blyp/aug-cc-PVTz iop(3/107=1350000000) iop(3/108=1350000000) int
 =ultrafine counterpoise=2 Scan
 ----------------------------------------------------------------------
 1/38=1,60=1,62=2/1,8;
 2/12=2,17=6,18=5,29=3,40=1/2;
 1/38=1,53=5172,62=2/22;
 3/5=16,6=1,7=10,11=2,16=1,25=1,30=1,74=1000402,75=-5,107=1350000000,108=1350000000/1,2,3;
 4//1;
 5/5=2,38=5/2;
 6/7=2,8=2,9=2,10=2,18=1,28=1/1;
 1/53=4052,62=2,63=1/22;
 3/5=7,6=11,7=10,11=2,16=1,25=1,30=1,74=1000402,75=-5,82=7,107=1350000000,108=1350000000/1,2,3;
 4//1;
 5/5=2,38=5/2;
 6/7=2,8=2,9=2,10=2,18=1,28=1/1;
 1/53=3042,62=2,63=2/22;
 3/5=7,6=11,7=10,11=2,16=1,25=1,30=1,74=1000402,75=-5,82=7,107=1350000000,108=1350000000/1,2,3;
 4//1;
 5/5=2,38=5/2;
 6/7=2,8=2,9=2,10=2,18=1,28=1/1;
 1/53=2032,62=2,63=3/22;
 3/5=7,6=11,7=10,11=2,16=1,25=1,30=1,74=1000402,75=-5,82=7,107=1350000000,108=1350000000/1,2,3;
 4//1;
 5/5=2,38=5/2;
 6/7=2,8=2,9=2,10=2,18=1,28=1/1;
 1/53=1022,62=2,63=4/22;
 3/5=7,6=11,7=10,11=2,16=1,25=1,30=1,74=1000402,75=-5,82=7,107=1350000000,108=1350000000/1,2,3;
 4//1;
 5/5=2,38=5/2;
 6/7=2,8=2,9=2,10=2,18=1,28=1/1;
 1/53=5014,62=2,63=5/22;
 1/60=1,62=2/8(1);
 99/9=1/99;
 2/29=3/2;
 1/53=5173,62=2/22;
 3/5=7,6=11,7=10,11=2,16=1,25=1,30=1,74=1000402,75=-5,82=7,107=1350000000,108=1350000000/1,2,3;
 4/5=5,16=3/1;
 5/5=2,38=5/2;
 1/53=4053,62=2,63=1/22;
 3/5=7,6=11,7=10,11=2,16=1,25=1,30=1,74=1000402,75=-5,82=7,107=1350000000,108=1350000000/1,2,3;
 4/5=5,16=3/1;
 5/5=2,38=5/2;
 1/53=3043,62=2,63=2/22;
 3/5=7,6=11,7=10,11=2,16=1,25=1,30=1,74=1000402,75=-5,82=7,107=1350000000,108=1350000000/1,2,3;
 4/5=5,16=3/1;
 5/5=2,38=5/2;
 1/53=2033,62=2,63=3/22;
 3/5=7,6=11,7=10,11=2,16=1,25=1,30=1,74=1000402,75=-5,82=7,107=1350000000,108=1350000000/1,2,3;
 4/5=5,16=3/1;
 5/5=2,38=5/2;
 1/53=1024,62=2,63=4/22;
 3/5=7,6=11,7=10,11=2,16=1,25=1,30=1,74=1000402,75=-5,82=7,107=1350000000,108=1350000000/1,2,3;
 4/5=5,16=3/1;
 5/5=2,38=5/2;
 1/53=5014,62=2,63=5/22;
 1/60=1,62=2/8(-22);
 99/9=1/99;
 Leave Link    1 at Mon May 11 18:08:41 2020, MaxMem= 1073741824 cpu:       0.1
 (Enter /home/matheus/.gaussian/g09/l101.exe)
 ---
 TCC
 ---
 Charge =  0 Multiplicity = 1 in supermolecule
 Charge =  0 Multiplicity = 1 in fragment  1.
 Charge =  0 Multiplicity = 1 in fragment  2.
 Symbolic Z-Matrix:
 O(Fragment=1)         0.        0.        0.725 
 O(Fragment=1)         0.        0.       -0.725 
 H(Fragment=1)        -0.31422  -0.86331   1.02351 
 H(Fragment=1)         0.        0.91872  -1.02351 
 Kr(Fragment=2)        0.       R1        0. 
       Variables:
  R1                    3.     Scan 20    0.1    
 
 NAtoms=      5 NQM=        0 NQMF=       0 NMMI=      5 NMMIF=      0
                NMic=       0 NMicF=      0.
                    Isotopes and Nuclear Properties:
 (Nuclear quadrupole moments (NQMom) in fm**2, nuclear magnetic moments (NMagM)
  in nuclear magnetons)

  Atom         1           2           3           4           5
 IAtWgt=          16          16           1           1          84
 AtmWgt=  15.9949146  15.9949146   1.0078250   1.0078250  83.9115064
 NucSpn=           0           0           1           1           0
 AtZEff=   0.0000000   0.0000000   0.0000000   0.0000000   0.0000000
 NQMom=    0.0000000   0.0000000   0.0000000   0.0000000   0.0000000
 NMagM=    0.0000000   0.0000000   2.7928460   2.7928460   0.0000000
 Leave Link  101 at Mon May 11 18:08:41 2020, MaxMem= 1073741824 cpu:       0.3
 (Enter /home/matheus/.gaussian/g09/l108.exe)
 Scan the potential surface.
 Variable   Value     No. Steps Step-Size
 -------- ----------- --------- ---------
     1       3.000000      20      0.1000
 A total of     21 points will be computed.
 Leave Link  108 at Mon May 11 18:08:41 2020, MaxMem= 1073741824 cpu:       0.0
 (Enter /home/matheus/.gaussian/g09/l202.exe)
 ---------------------------------------------------------------------------------------------------
                            Z-MATRIX (ANGSTROMS AND DEGREES)
   CD    Cent   Atom    N1       Length/X        N2       Alpha/Y        N3        Beta/Z          J
 ---------------------------------------------------------------------------------------------------
      1      1  O        0   0.000000          0.000000          0.725000
      2      2  O        0   0.000000          0.000000         -0.725000
      3      3  H        0  -0.314221         -0.863315          1.023510
      4      4  H        0   0.000000          0.918721         -1.023510
      5      5  Kr       0   0.000000          3.000000          0.000000
 ---------------------------------------------------------------------------------------------------
                         Z-Matrix orientation:                         
 ---------------------------------------------------------------------
 Center     Atomic      Atomic             Coordinates (Angstroms)
 Number     Number       Type             X           Y           Z
 ---------------------------------------------------------------------
      1          8           0        0.000000    0.000000    0.725000
      2          8           0        0.000000    0.000000   -0.725000
      3          1           0       -0.314221   -0.863315    1.023510
      4          1           0        0.000000    0.918721   -1.023510
      5         36           0        0.000000    3.000000    0.000000
 ---------------------------------------------------------------------
                    Distance matrix (angstroms):
                    1          2          3          4          5
     1  O    0.000000
     2  O    1.450000   0.000000
     3  H    0.966000   1.975180   0.000000
     4  H    1.975180   0.966000   2.732157   0.000000
     5  Kr   3.086361   3.086361   4.008929   2.319331   0.000000
 Stoichiometry    H2KrO2
 Framework group  C1[X(H2KrO2)]
 Deg. of freedom     9
 Full point group                 C1      NOp   1
 Largest Abelian subgroup         C1      NOp   1
 Largest concise Abelian subgroup C1      NOp   1
                         Standard orientation:                         
 ---------------------------------------------------------------------
 Center     Atomic      Atomic             Coordinates (Angstroms)
 Number     Number       Type             X           Y           Z
 ---------------------------------------------------------------------
      1          8           0       -2.013955   -0.686971   -0.042678
      2          8           0       -1.987181    0.762152    0.000071
      3          1           0       -2.885209   -0.978373    0.255914
      4          1           0       -1.063137    1.043301    0.015982
      5         36           0        0.998818   -0.018511    0.001916
 ---------------------------------------------------------------------
 Rotational constants (GHZ):     26.5935251      2.3048996      2.1226538
 Leave Link  202 at Mon May 11 18:08:41 2020, MaxMem= 1073741824 cpu:       0.0
 (Enter /home/matheus/.gaussian/g09/l122.exe)
 Leave Link  122 at Mon May 11 18:08:41 2020, MaxMem= 1073741824 cpu:       0.0
 (Enter /home/matheus/.gaussian/g09/l301.exe)
 Standard basis: Aug-CC-pVTZ (5D, 7F)
 Ernie: Thresh=  0.10000D-02 Tol=  0.10000D-05 Strict=F.
 Ernie:  38 primitive shells out of 205 were deleted.
 There are   197 symmetry adapted basis functions of A   symmetry.
 Integral buffers will be    131072 words long.
 Raffenetti 2 integral format.
 Two-electron integral symmetry is turned on.
   197 basis functions,   415 primitive gaussians,   229 cartesian basis functions
    27 alpha electrons       27 beta electrons
       nuclear repulsion energy       148.3266950462 Hartrees.
 IExCor=10402 DFT=T Ex=LC-B+HF Corr=LYP ExCW=0 ScaHFX=  1.000000
 ScaDFX=  1.000000  1.000000  1.000000  1.000000 ScalE2=  1.000000  1.000000
 IRadAn=      5 IRanWt=     -1 IRanGd=            0 ICorTp=0
  HFx wShort=  0.000000 wLong=  1.350000 cFull=  0.000000 cShort=  0.000000 cLong=  1.000000
  DFx wShort=  0.000000 wLong=  1.350000 cFull=  0.000000 cShort=  0.000000 cLong=  1.000000
 NAtoms=    5 NActive=    5 NUniq=    5 SFac= 1.00D+00 NAtFMM=   60 NAOKFM=F Big=F
 Leave Link  301 at Mon May 11 18:08:41 2020, MaxMem= 1073741824 cpu:       0.2
 (Enter /home/matheus/.gaussian/g09/l302.exe)
 NPDir=0 NMtPBC=     1 NCelOv=     1 NCel=       1 NClECP=     1 NCelD=      1
         NCelK=      1 NCelE2=     1 NClLst=     1 CellRange=     0.0.
 One-electron integrals computed using PRISM.
 NBasis=   197 RedAO= T  NBF=   197
 NBsUse=   197 1.00D-06 NBFU=   197
 Precomputing XC quadrature grid using
 IXCGrd= 2 IRadAn=           5 IRanWt=          -1 IRanGd=           0 AccXCQ= 0.00D+00.
 NRdTot=     427 NPtTot=      123814 NUsed=      126881 NTot=      126913
 NSgBfM=   229   229   229   229   229 NAtAll=     5     5.
 Leave Link  302 at Mon May 11 18:08:41 2020, MaxMem= 1073741824 cpu:       1.0
 (Enter /home/matheus/.gaussian/g09/l303.exe)
 DipDrv:  MaxL=1.
 Leave Link  303 at Mon May 11 18:08:41 2020, MaxMem= 1073741824 cpu:       0.2
 (Enter /home/matheus/.gaussian/g09/l401.exe)
 Harris functional with IExCor=10402 diagonalized for initial guess.
 ExpMin= 2.53D-02 ExpMax= 1.17D+07 ExpMxC= 1.33D+04 IAcc=3 IRadAn=         5 AccDes= 0.00D+00
 HarFok:  IExCor=10402 AccDes= 0.00D+00 IRadAn=         5 IDoV= 1
 ScaDFX=  1.000000  1.000000  1.000000  1.000000
 FoFCou: FMM=F IPFlag=           0 FMFlag=      100000 FMFlg1=           0
         NFxFlg=           0 DoJE=T BraDBF=F KetDBF=T FulRan=T
         Omega=  0.000000  0.000000  1.000000  0.000000  0.000000 ICntrl=     500 IOpCl=  0
         NMat0=    1 NMatS0=    1 NMatT0=    0 NMatD0=    1 NMtDS0=    0 NMtDT0=    0
         I1Cent=           4 NGrid=           0.
 Petite list used in FoFCou.
 Harris En= -2874.93214890079    
 Initial guess orbital symmetries:
       Occupied  (A) (A) (A) (A) (A) (A) (A) (A) (A) (A) (A) (A)
                 (A) (A) (A) (A) (A) (A) (A) (A) (A) (A) (A) (A)
                 (A) (A) (A)
       Virtual   (A) (A) (A) (A) (A) (A) (A) (A) (A) (A) (A) (A)
                 (A) (A) (A) (A) (A) (A) (A) (A) (A) (A) (A) (A)
                 (A) (A) (A) (A) (A) (A) (A) (A) (A) (A) (A) (A)
                 (A) (A) (A) (A) (A) (A) (A) (A) (A) (A) (A) (A)
                 (A) (A) (A) (A) (A) (A) (A) (A) (A) (A) (A) (A)
                 (A) (A) (A) (A) (A) (A) (A) (A) (A) (A) (A) (A)
                 (A) (A) (A) (A) (A) (A) (A) (A) (A) (A) (A) (A)
                 (A) (A) (A) (A) (A) (A) (A) (A) (A) (A) (A) (A)
                 (A) (A) (A) (A) (A) (A) (A) (A) (A) (A) (A) (A)
                 (A) (A) (A) (A) (A) (A) (A) (A) (A) (A) (A) (A)
                 (A) (A) (A) (A) (A) (A) (A) (A) (A) (A) (A) (A)
                 (A) (A) (A) (A) (A) (A) (A) (A) (A) (A) (A) (A)
                 (A) (A) (A) (A) (A) (A) (A) (A) (A) (A) (A) (A)
                 (A) (A) (A) (A) (A) (A) (A) (A) (A) (A) (A) (A)
                 (A) (A)
 The electronic state of the initial guess is 1-A.
 Leave Link  401 at Mon May 11 18:08:41 2020, MaxMem= 1073741824 cpu:       3.9
 (Enter /home/matheus/.gaussian/g09/l502.exe)
 Closed shell SCF:
 Requested convergence on RMS density matrix=1.00D-08 within 128 cycles.
 Requested convergence on MAX density matrix=1.00D-06.
 Requested convergence on             energy=1.00D-06.
 No special actions if energy rises.
 Using DIIS extrapolation, IDIIS=  1040.
 Integral symmetry usage will be decided dynamically.
       126823 words used for storage of precomputed grid.
 IEnd=      305770 IEndB=      305770 NGot=  1073741824 MDV=  1073505365
 LenX=  1073505365 LenY=  1073452483
 Fock matrices will be formed incrementally for  20 cycles.

 Cycle   1  Pass 1  IDiag  1:
 FoFJK:  IHMeth= 1 ICntrl=     0 DoSepK=T KAlg= 1 I1Cent= 0 FoldK=F
 FoFCou: FMM=F IPFlag=           0 FMFlag=      100000 FMFlg1=           0
         NFxFlg=           0 DoJE=T BraDBF=F KetDBF=F FulRan=T
         Omega=  0.000000  0.000000  1.000000  0.000000  0.000000 ICntrl=     500 IOpCl=  0
         NMat0=    1 NMatS0=    1 NMatT0=    0 NMatD0=    1 NMtDS0=    0 NMtDT0=    0
         I1Cent=           0 NGrid=           0.
 Symmetry not used in FoFCou.
 E= -2899.21828223571    
 DIIS: error= 1.40D-01 at cycle   1 NSaved=   1.
 NSaved= 1 IEnMin= 1 EnMin= -2899.21828223571     IErMin= 1 ErrMin= 1.40D-01
 ErrMax= 1.40D-01 EMaxC= 1.00D-01 BMatC= 4.05D+00 BMatP= 4.05D+00
 IDIUse=3 WtCom= 0.00D+00 WtEn= 1.00D+00
 Coeff-Com:  0.100D+01
 Coeff-En:   0.100D+01
 Coeff:      0.100D+01
 Gap=    -0.654 Goal=   None    Shift=    0.000
 GapD=   -0.654 DampG=0.250 DampE=0.250 DampFc=0.2500 IDamp=-1.
 Damping current iteration by 2.50D-01
 RMSDP=9.96D-02 MaxDP=6.32D+00              OVMax= 9.98D-01

 Cycle   2  Pass 1  IDiag  1:
 RMSU=  4.45D-03    CP:  7.64D-01
 FoFJK:  IHMeth= 1 ICntrl=     0 DoSepK=T KAlg= 1 I1Cent= 0 FoldK=F
 E= -2901.19049235207     Delta-E=       -1.972210116358 Rises=F Damp=T
 DIIS: error= 5.70D-02 at cycle   2 NSaved=   2.
 NSaved= 2 IEnMin= 2 EnMin= -2901.19049235207     IErMin= 2 ErrMin= 5.70D-02
 ErrMax= 5.70D-02 EMaxC= 1.00D-01 BMatC= 1.09D+00 BMatP= 4.05D+00
 IDIUse=3 WtCom= 4.30D-01 WtEn= 5.70D-01
 Coeff-Com: -0.782D+00 0.178D+01
 Coeff-En:   0.000D+00 0.100D+01
 Coeff:     -0.336D+00 0.134D+01
 Gap=     0.125 Goal=   None    Shift=    0.000
 RMSDP=7.47D-02 MaxDP=4.74D+00 DE=-1.97D+00 OVMax= 8.50D-01

 Cycle   3  Pass 1  IDiag  1:
 RMSU=  5.85D-03    CP:  5.73D-02  3.00D+00
 FoFJK:  IHMeth= 1 ICntrl=     0 DoSepK=T KAlg= 1 I1Cent= 0 FoldK=F
 E= -2904.29701655933     Delta-E=       -3.106524207257 Rises=F Damp=F
 DIIS: error= 3.40D-02 at cycle   3 NSaved=   3.
 NSaved= 3 IEnMin= 3 EnMin= -2904.29701655933     IErMin= 3 ErrMin= 3.40D-02
 ErrMax= 3.40D-02 EMaxC= 1.00D-01 BMatC= 5.06D-01 BMatP= 1.09D+00
 IDIUse=3 WtCom= 6.60D-01 WtEn= 3.40D-01
 Coeff-Com: -0.585D-01 0.478D+00 0.581D+00
 Coeff-En:   0.000D+00 0.000D+00 0.100D+01
 Coeff:     -0.386D-01 0.315D+00 0.723D+00
 Gap=     0.598 Goal=   None    Shift=    0.000
 RMSDP=2.37D-03 MaxDP=8.65D-02 DE=-3.11D+00 OVMax= 1.02D-01

 Cycle   4  Pass 1  IDiag  1:
 RMSU=  1.67D-03    CP:  5.68D-02  3.00D+00  9.78D-01
 FoFJK:  IHMeth= 1 ICntrl=     0 DoSepK=T KAlg= 1 I1Cent= 0 FoldK=F
 E= -2904.61082591850     Delta-E=       -0.313809359176 Rises=F Damp=F
 DIIS: error= 3.53D-03 at cycle   4 NSaved=   4.
 NSaved= 4 IEnMin= 4 EnMin= -2904.61082591850     IErMin= 4 ErrMin= 3.53D-03
 ErrMax= 3.53D-03 EMaxC= 1.00D-01 BMatC= 1.10D-02 BMatP= 5.06D-01
 IDIUse=3 WtCom= 9.65D-01 WtEn= 3.53D-02
 Coeff-Com: -0.325D-01 0.738D-01 0.708D-01 0.888D+00
 Coeff-En:   0.000D+00 0.000D+00 0.000D+00 0.100D+01
 Coeff:     -0.314D-01 0.712D-01 0.683D-01 0.892D+00
 Gap=     0.493 Goal=   None    Shift=    0.000
 RMSDP=6.00D-04 MaxDP=1.96D-02 DE=-3.14D-01 OVMax= 2.06D-02

 Cycle   5  Pass 1  IDiag  1:
 RMSU=  4.17D-04    CP:  5.68D-02  3.00D+00  9.78D-01  1.05D+00
 FoFJK:  IHMeth= 1 ICntrl=     0 DoSepK=T KAlg= 1 I1Cent= 0 FoldK=F
 E= -2904.61746266598     Delta-E=       -0.006636747474 Rises=F Damp=F
 DIIS: error= 1.42D-03 at cycle   5 NSaved=   5.
 NSaved= 5 IEnMin= 5 EnMin= -2904.61746266598     IErMin= 5 ErrMin= 1.42D-03
 ErrMax= 1.42D-03 EMaxC= 1.00D-01 BMatC= 7.12D-04 BMatP= 1.10D-02
 IDIUse=3 WtCom= 9.86D-01 WtEn= 1.42D-02
 Coeff-Com: -0.271D-01 0.519D-01-0.108D-01-0.548D-01 0.104D+01
 Coeff-En:   0.000D+00 0.000D+00 0.000D+00 0.000D+00 0.100D+01
 Coeff:     -0.268D-01 0.512D-01-0.106D-01-0.540D-01 0.104D+01
 Gap=     0.510 Goal=   None    Shift=    0.000
 RMSDP=1.49D-04 MaxDP=4.48D-03 DE=-6.64D-03 OVMax= 7.34D-03

 Cycle   6  Pass 1  IDiag  1:
 RMSU=  8.20D-05    CP:  5.67D-02  3.00D+00  9.77D-01  1.06D+00  1.15D+00
 FoFJK:  IHMeth= 1 ICntrl=     0 DoSepK=T KAlg= 1 I1Cent= 0 FoldK=F
 E= -2904.61817355670     Delta-E=       -0.000710890719 Rises=F Damp=F
 DIIS: error= 4.75D-04 at cycle   6 NSaved=   6.
 NSaved= 6 IEnMin= 6 EnMin= -2904.61817355670     IErMin= 6 ErrMin= 4.75D-04
 ErrMax= 4.75D-04 EMaxC= 1.00D-01 BMatC= 1.22D-04 BMatP= 7.12D-04
 IDIUse=3 WtCom= 9.95D-01 WtEn= 4.75D-03
 Coeff-Com: -0.524D-02 0.936D-02-0.137D-01-0.556D-01 0.621D-01 0.100D+01
 Coeff-En:   0.000D+00 0.000D+00 0.000D+00 0.000D+00 0.000D+00 0.100D+01
 Coeff:     -0.522D-02 0.932D-02-0.136D-01-0.554D-01 0.618D-01 0.100D+01
 Gap=     0.513 Goal=   None    Shift=    0.000
 RMSDP=6.72D-05 MaxDP=1.83D-03 DE=-7.11D-04 OVMax= 3.79D-03

 Cycle   7  Pass 1  IDiag  1:
 RMSU=  2.48D-05    CP:  5.67D-02  3.00D+00  9.76D-01  1.07D+00  1.23D+00
                    CP:  1.16D+00
 FoFJK:  IHMeth= 1 ICntrl=     0 DoSepK=T KAlg= 1 I1Cent= 0 FoldK=F
 E= -2904.61833551173     Delta-E=       -0.000161955033 Rises=F Damp=F
 DIIS: error= 3.29D-04 at cycle   7 NSaved=   7.
 NSaved= 7 IEnMin= 7 EnMin= -2904.61833551173     IErMin= 7 ErrMin= 3.29D-04
 ErrMax= 3.29D-04 EMaxC= 1.00D-01 BMatC= 2.24D-05 BMatP= 1.22D-04
 IDIUse=3 WtCom= 9.97D-01 WtEn= 3.29D-03
 Coeff-Com:  0.105D-02-0.242D-02-0.535D-02-0.157D-01-0.967D-01 0.360D+00
 Coeff-Com:  0.759D+00
 Coeff-En:   0.000D+00 0.000D+00 0.000D+00 0.000D+00 0.000D+00 0.000D+00
 Coeff-En:   0.100D+01
 Coeff:      0.105D-02-0.241D-02-0.533D-02-0.156D-01-0.964D-01 0.359D+00
 Coeff:      0.760D+00
 Gap=     0.513 Goal=   None    Shift=    0.000
 RMSDP=2.10D-05 MaxDP=5.85D-04 DE=-1.62D-04 OVMax= 1.74D-03

 Cycle   8  Pass 1  IDiag  1:
 RMSU=  9.83D-06    CP:  5.67D-02  3.00D+00  9.76D-01  1.07D+00  1.24D+00
                    CP:  1.22D+00  1.14D+00
 FoFJK:  IHMeth= 1 ICntrl=     0 DoSepK=T KAlg= 1 I1Cent= 0 FoldK=F
 E= -2904.61836004247     Delta-E=       -0.000024530737 Rises=F Damp=F
 DIIS: error= 8.93D-05 at cycle   8 NSaved=   8.
 NSaved= 8 IEnMin= 8 EnMin= -2904.61836004247     IErMin= 8 ErrMin= 8.93D-05
 ErrMax= 8.93D-05 EMaxC= 1.00D-01 BMatC= 1.92D-06 BMatP= 2.24D-05
 IDIUse=1 WtCom= 1.00D+00 WtEn= 0.00D+00
 Coeff-Com:  0.117D-02-0.211D-02 0.188D-02 0.629D-02-0.924D-02-0.104D+00
 Coeff-Com:  0.706D-01 0.104D+01
 Coeff:      0.117D-02-0.211D-02 0.188D-02 0.629D-02-0.924D-02-0.104D+00
 Coeff:      0.706D-01 0.104D+01
 Gap=     0.513 Goal=   None    Shift=    0.000
 RMSDP=9.64D-06 MaxDP=2.81D-04 DE=-2.45D-05 OVMax= 1.04D-03

 Cycle   9  Pass 1  IDiag  1:
 RMSU=  4.39D-06    CP:  5.67D-02  3.00D+00  9.76D-01  1.07D+00  1.24D+00
                    CP:  1.24D+00  1.32D+00  1.21D+00
 FoFJK:  IHMeth= 1 ICntrl=     0 DoSepK=T KAlg= 1 I1Cent= 0 FoldK=F
 E= -2904.61836443070     Delta-E=       -0.000004388229 Rises=F Damp=F
 DIIS: error= 3.34D-05 at cycle   9 NSaved=   9.
 NSaved= 9 IEnMin= 9 EnMin= -2904.61836443070     IErMin= 9 ErrMin= 3.34D-05
 ErrMax= 3.34D-05 EMaxC= 1.00D-01 BMatC= 3.24D-07 BMatP= 1.92D-06
 IDIUse=1 WtCom= 1.00D+00 WtEn= 0.00D+00
 Coeff-Com:  0.269D-04 0.206D-04 0.359D-03 0.564D-03 0.297D-02 0.965D-02
 Coeff-Com: -0.835D-01-0.266D+00 0.134D+01
 Coeff:      0.269D-04 0.206D-04 0.359D-03 0.564D-03 0.297D-02 0.965D-02
 Coeff:     -0.835D-01-0.266D+00 0.134D+01
 Gap=     0.513 Goal=   None    Shift=    0.000
 RMSDP=5.79D-06 MaxDP=1.06D-04 DE=-4.39D-06 OVMax= 7.74D-04

 Cycle  10  Pass 1  IDiag  1:
 RMSU=  1.69D-06    CP:  5.67D-02  3.00D+00  9.76D-01  1.07D+00  1.24D+00
                    CP:  1.24D+00  1.37D+00  1.37D+00  1.66D+00
 FoFJK:  IHMeth= 1 ICntrl=     0 DoSepK=T KAlg= 1 I1Cent= 0 FoldK=F
 E= -2904.61836562493     Delta-E=       -0.000001194234 Rises=F Damp=F
 DIIS: error= 1.86D-05 at cycle  10 NSaved=  10.
 NSaved=10 IEnMin=10 EnMin= -2904.61836562493     IErMin=10 ErrMin= 1.86D-05
 ErrMax= 1.86D-05 EMaxC= 1.00D-01 BMatC= 5.74D-08 BMatP= 3.24D-07
 IDIUse=1 WtCom= 1.00D+00 WtEn= 0.00D+00
 Coeff-Com: -0.128D-03 0.235D-03-0.372D-03-0.109D-02-0.108D-02 0.170D-01
 Coeff-Com: -0.612D-03-0.125D+00-0.204D+00 0.131D+01
 Coeff:     -0.128D-03 0.235D-03-0.372D-03-0.109D-02-0.108D-02 0.170D-01
 Coeff:     -0.612D-03-0.125D+00-0.204D+00 0.131D+01
 Gap=     0.513 Goal=   None    Shift=    0.000
 RMSDP=3.10D-06 MaxDP=6.62D-05 DE=-1.19D-06 OVMax= 4.77D-04

 Cycle  11  Pass 1  IDiag  1:
 RMSU=  7.21D-07    CP:  5.67D-02  3.00D+00  9.76D-01  1.07D+00  1.24D+00
                    CP:  1.25D+00  1.39D+00  1.44D+00  1.99D+00  1.65D+00
 FoFJK:  IHMeth= 1 ICntrl=     0 DoSepK=T KAlg= 1 I1Cent= 0 FoldK=F
 E= -2904.61836591033     Delta-E=       -0.000000285403 Rises=F Damp=F
 DIIS: error= 8.35D-06 at cycle  11 NSaved=  11.
 NSaved=11 IEnMin=11 EnMin= -2904.61836591033     IErMin=11 ErrMin= 8.35D-06
 ErrMax= 8.35D-06 EMaxC= 1.00D-01 BMatC= 9.33D-09 BMatP= 5.74D-08
 IDIUse=1 WtCom= 1.00D+00 WtEn= 0.00D+00
 Coeff-Com: -0.253D-04 0.339D-04 0.265D-04 0.134D-03 0.126D-02-0.791D-02
 Coeff-Com:  0.775D-02 0.702D-01-0.138D+00-0.373D+00 0.144D+01
 Coeff:     -0.253D-04 0.339D-04 0.265D-04 0.134D-03 0.126D-02-0.791D-02
 Coeff:      0.775D-02 0.702D-01-0.138D+00-0.373D+00 0.144D+01
 Gap=     0.513 Goal=   None    Shift=    0.000
 RMSDP=1.51D-06 MaxDP=3.42D-05 DE=-2.85D-07 OVMax= 2.38D-04

 Cycle  12  Pass 1  IDiag  1:
 RMSU=  2.93D-07    CP:  5.67D-02  3.00D+00  9.76D-01  1.07D+00  1.24D+00
                    CP:  1.25D+00  1.40D+00  1.47D+00  2.11D+00  2.00D+00
                    CP:  1.67D+00
 FoFJK:  IHMeth= 1 ICntrl=     0 DoSepK=T KAlg= 1 I1Cent= 0 FoldK=F
 E= -2904.61836596174     Delta-E=       -0.000000051405 Rises=F Damp=F
 DIIS: error= 2.60D-06 at cycle  12 NSaved=  12.
 NSaved=12 IEnMin=12 EnMin= -2904.61836596174     IErMin=12 ErrMin= 2.60D-06
 ErrMax= 2.60D-06 EMaxC= 1.00D-01 BMatC= 9.41D-10 BMatP= 9.33D-09
 IDIUse=1 WtCom= 1.00D+00 WtEn= 0.00D+00
 Coeff-Com:  0.557D-05-0.116D-04 0.236D-04 0.958D-04-0.374D-03 0.652D-03
 Coeff-Com: -0.106D-02-0.916D-02 0.635D-01-0.265D-01-0.483D+00 0.146D+01
 Coeff:      0.557D-05-0.116D-04 0.236D-04 0.958D-04-0.374D-03 0.652D-03
 Coeff:     -0.106D-02-0.916D-02 0.635D-01-0.265D-01-0.483D+00 0.146D+01
 Gap=     0.513 Goal=   None    Shift=    0.000
 RMSDP=4.80D-07 MaxDP=1.07D-05 DE=-5.14D-08 OVMax= 7.10D-05

 Cycle  13  Pass 1  IDiag  1:
 RMSU=  7.84D-08    CP:  5.67D-02  3.00D+00  9.76D-01  1.07D+00  1.24D+00
                    CP:  1.25D+00  1.41D+00  1.48D+00  2.14D+00  2.08D+00
                    CP:  1.93D+00  1.57D+00
 FoFJK:  IHMeth= 1 ICntrl=     0 DoSepK=T KAlg= 1 I1Cent= 0 FoldK=F
 E= -2904.61836596627     Delta-E=       -0.000000004532 Rises=F Damp=F
 DIIS: error= 4.99D-07 at cycle  13 NSaved=  13.
 NSaved=13 IEnMin=13 EnMin= -2904.61836596627     IErMin=13 ErrMin= 4.99D-07
 ErrMax= 4.99D-07 EMaxC= 1.00D-01 BMatC= 5.19D-11 BMatP= 9.41D-10
 IDIUse=1 WtCom= 1.00D+00 WtEn= 0.00D+00
 Coeff-Com:  0.124D-05-0.116D-05-0.465D-05-0.163D-04-0.492D-05 0.248D-03
 Coeff-Com:  0.192D-03-0.233D-02-0.716D-02 0.329D-01-0.264D-02-0.272D+00
 Coeff-Com:  0.125D+01
 Coeff:      0.124D-05-0.116D-05-0.465D-05-0.163D-04-0.492D-05 0.248D-03
 Coeff:      0.192D-03-0.233D-02-0.716D-02 0.329D-01-0.264D-02-0.272D+00
 Coeff:      0.125D+01
 Gap=     0.513 Goal=   None    Shift=    0.000
 RMSDP=8.97D-08 MaxDP=2.53D-06 DE=-4.53D-09 OVMax= 1.06D-05

 Cycle  14  Pass 1  IDiag  1:
 RMSU=  1.82D-08    CP:  5.67D-02  3.00D+00  9.76D-01  1.07D+00  1.24D+00
                    CP:  1.25D+00  1.41D+00  1.48D+00  2.14D+00  2.09D+00
                    CP:  1.95D+00  1.67D+00  1.47D+00
 FoFJK:  IHMeth= 1 ICntrl=     0 DoSepK=T KAlg= 1 I1Cent= 0 FoldK=F
 E= -2904.61836596644     Delta-E=       -0.000000000168 Rises=F Damp=F
 DIIS: error= 1.41D-07 at cycle  14 NSaved=  14.
 NSaved=14 IEnMin=14 EnMin= -2904.61836596644     IErMin=14 ErrMin= 1.41D-07
 ErrMax= 1.41D-07 EMaxC= 1.00D-01 BMatC= 6.01D-12 BMatP= 5.19D-11
 IDIUse=1 WtCom= 1.00D+00 WtEn= 0.00D+00
 Coeff-Com:  0.768D-06-0.132D-05-0.523D-06-0.545D-05 0.540D-04-0.237D-03
 Coeff-Com:  0.190D-03 0.176D-02-0.550D-02-0.416D-02 0.508D-01-0.947D-01
 Coeff-Com: -0.225D+00 0.128D+01
 Coeff:      0.768D-06-0.132D-05-0.523D-06-0.545D-05 0.540D-04-0.237D-03
 Coeff:      0.190D-03 0.176D-02-0.550D-02-0.416D-02 0.508D-01-0.947D-01
 Coeff:     -0.225D+00 0.128D+01
 Gap=     0.513 Goal=   None    Shift=    0.000
 RMSDP=2.59D-08 MaxDP=9.30D-07 DE=-1.68D-10 OVMax= 2.54D-06

 Cycle  15  Pass 1  IDiag  1:
 RMSU=  6.76D-09    CP:  5.67D-02  3.00D+00  9.76D-01  1.07D+00  1.24D+00
                    CP:  1.25D+00  1.41D+00  1.48D+00  2.14D+00  2.09D+00
                    CP:  1.96D+00  1.69D+00  1.62D+00  1.49D+00
 FoFJK:  IHMeth= 1 ICntrl=     0 DoSepK=T KAlg= 1 I1Cent= 0 FoldK=F
 E= -2904.61836596643     Delta-E=        0.000000000005 Rises=F Damp=F
 DIIS: error= 5.97D-08 at cycle  15 NSaved=  15.
 NSaved=15 IEnMin=14 EnMin= -2904.61836596644     IErMin=15 ErrMin= 5.97D-08
 ErrMax= 5.97D-08 EMaxC= 1.00D-01 BMatC= 5.64D-13 BMatP= 6.01D-12
 IDIUse=1 WtCom= 1.00D+00 WtEn= 0.00D+00
 Coeff-Com: -0.150D-06 0.217D-06 0.604D-06 0.391D-05-0.279D-04 0.736D-04
 Coeff-Com:  0.999D-05-0.485D-03 0.195D-02 0.143D-03-0.188D-01 0.515D-01
 Coeff-Com:  0.162D-01-0.584D+00 0.153D+01
 Coeff:     -0.150D-06 0.217D-06 0.604D-06 0.391D-05-0.279D-04 0.736D-04
 Coeff:      0.999D-05-0.485D-03 0.195D-02 0.143D-03-0.188D-01 0.515D-01
 Coeff:      0.162D-01-0.584D+00 0.153D+01
 Gap=     0.513 Goal=   None    Shift=    0.000
 RMSDP=9.33D-09 MaxDP=1.92D-07 DE= 5.00D-12 OVMax= 1.09D-06

 SCF Done:  E(RLC-B+HF-LYP) =  -2904.61836597     A.U. after   15 cycles
             Convg  =    0.9326D-08             -V/T =  2.0016
 KE= 2.899947627008D+03 PE=-7.234159328791D+03 EE= 1.281266640771D+03
 Leave Link  502 at Mon May 11 18:09:26 2020, MaxMem= 1073741824 cpu:     352.5
 (Enter /home/matheus/.gaussian/g09/l601.exe)
 Copying SCF densities to generalized density rwf, IOpCl= 0 IROHF=0.

 **********************************************************************

            Population analysis using the SCF density.

 **********************************************************************

 Orbital symmetries:
       Occupied  (A) (A) (A) (A) (A) (A) (A) (A) (A) (A) (A) (A)
                 (A) (A) (A) (A) (A) (A) (A) (A) (A) (A) (A) (A)
                 (A) (A) (A)
       Virtual   (A) (A) (A) (A) (A) (A) (A) (A) (A) (A) (A) (A)
                 (A) (A) (A) (A) (A) (A) (A) (A) (A) (A) (A) (A)
                 (A) (A) (A) (A) (A) (A) (A) (A) (A) (A) (A) (A)
                 (A) (A) (A) (A) (A) (A) (A) (A) (A) (A) (A) (A)
                 (A) (A) (A) (A) (A) (A) (A) (A) (A) (A) (A) (A)
                 (A) (A) (A) (A) (A) (A) (A) (A) (A) (A) (A) (A)
                 (A) (A) (A) (A) (A) (A) (A) (A) (A) (A) (A) (A)
                 (A) (A) (A) (A) (A) (A) (A) (A) (A) (A) (A) (A)
                 (A) (A) (A) (A) (A) (A) (A) (A) (A) (A) (A) (A)
                 (A) (A) (A) (A) (A) (A) (A) (A) (A) (A) (A) (A)
                 (A) (A) (A) (A) (A) (A) (A) (A) (A) (A) (A) (A)
                 (A) (A) (A) (A) (A) (A) (A) (A) (A) (A) (A) (A)
                 (A) (A) (A) (A) (A) (A) (A) (A) (A) (A) (A) (A)
                 (A) (A) (A) (A) (A) (A) (A) (A) (A) (A) (A) (A)
                 (A) (A)
 The electronic state is 1-A.
 Alpha  occ. eigenvalues -- -511.66388 -67.18883 -60.86091 -60.86073 -60.86064
 Alpha  occ. eigenvalues --  -19.48069 -19.47740 -10.09011  -7.80613  -7.80567
 Alpha  occ. eigenvalues --   -7.80543  -3.63572  -3.63563  -3.63544  -3.63506
 Alpha  occ. eigenvalues --   -3.63504  -1.45909  -1.21403  -1.18412  -0.73911
 Alpha  occ. eigenvalues --   -0.73477  -0.64661  -0.57353  -0.56214  -0.55833
 Alpha  occ. eigenvalues --   -0.54662  -0.48387
 Alpha virt. eigenvalues --    0.02909   0.03789   0.07833   0.09546   0.10498
 Alpha virt. eigenvalues --    0.11265   0.13613   0.14612   0.15921   0.16569
 Alpha virt. eigenvalues --    0.18289   0.19829   0.22896   0.23725   0.23999
 Alpha virt. eigenvalues --    0.24901   0.26787   0.29361   0.31321   0.34097
 Alpha virt. eigenvalues --    0.34550   0.34959   0.36776   0.39418   0.40933
 Alpha virt. eigenvalues --    0.42451   0.43374   0.49669   0.54060   0.56810
 Alpha virt. eigenvalues --    0.58843   0.61936   0.66421   0.67799   0.71061
 Alpha virt. eigenvalues --    0.73792   0.74646   0.75074   0.76706   0.78562
 Alpha virt. eigenvalues --    0.80952   0.81835   0.82296   0.83716   0.84711
 Alpha virt. eigenvalues --    0.87732   0.87991   0.90442   0.90959   0.94864
 Alpha virt. eigenvalues --    0.95721   0.97899   0.98385   1.00129   1.03428
 Alpha virt. eigenvalues --    1.05948   1.07703   1.09759   1.11295   1.14266
 Alpha virt. eigenvalues --    1.16217   1.18454   1.20309   1.21764   1.24351
 Alpha virt. eigenvalues --    1.32201   1.36482   1.41785   1.45833   1.47100
 Alpha virt. eigenvalues --    1.51617   1.57481   1.58093   1.61674   1.66561
 Alpha virt. eigenvalues --    1.68630   1.85807   1.91228   1.94417   2.03823
 Alpha virt. eigenvalues --    2.09924   2.10357   2.14649   2.24315   2.25835
 Alpha virt. eigenvalues --    2.28301   2.29845   2.30460   2.33036   2.36914
 Alpha virt. eigenvalues --    2.40505   2.41739   2.45691   2.46344   2.47476
 Alpha virt. eigenvalues --    2.50244   2.51814   2.56523   2.59719   2.62197
 Alpha virt. eigenvalues --    2.63874   2.64645   2.66167   2.68718   2.69236
 Alpha virt. eigenvalues --    2.73459   2.75673   2.78095   2.80977   2.82389
 Alpha virt. eigenvalues --    2.85286   2.88351   2.89956   2.97845   3.03303
 Alpha virt. eigenvalues --    3.08609   3.20881   3.23186   3.29667   3.69922
 Alpha virt. eigenvalues --    3.87814   4.03229   4.06426   4.20907   4.23749
 Alpha virt. eigenvalues --    4.25692   4.30673   4.32402   4.37315   4.41113
 Alpha virt. eigenvalues --    4.55545   4.62694   4.68700   4.70771   4.92682
 Alpha virt. eigenvalues --    5.09304   5.18590   5.21241   5.24664   5.28317
 Alpha virt. eigenvalues --    5.54406   5.66700   6.05152   6.23392   6.30596
 Alpha virt. eigenvalues --    6.36497   6.56304   6.59541   6.67042   6.73838
 Alpha virt. eigenvalues --    6.95605   6.98384   7.00690   7.08058   7.11304
 Alpha virt. eigenvalues --    7.13074   7.18822   7.19189   7.21741   7.24664
 Alpha virt. eigenvalues --    7.28594   7.49441   7.50223   7.63850   7.89816
 Alpha virt. eigenvalues --    8.09841   8.35509   8.39698  14.32485  14.81373
          Condensed to atoms (all electrons):
              1          2          3          4          5
     1  O    8.205836  -0.148067   0.193385  -0.012489  -0.034914
     2  O   -0.148067   8.196776  -0.001013   0.222062  -0.009539
     3  H    0.193385  -0.001013   0.583339   0.006426   0.003594
     4  H   -0.012489   0.222062   0.006426   0.549484  -0.012966
     5  Kr  -0.034914  -0.009539   0.003594  -0.012966  36.051609
 Mulliken atomic charges:
              1
     1  O   -0.203751
     2  O   -0.260219
     3  H    0.214270
     4  H    0.247484
     5  Kr   0.002216
 Sum of Mulliken atomic charges =   0.00000
 Mulliken charges with hydrogens summed into heavy atoms:
              1
     1  O    0.010520
     2  O   -0.012735
     5  Kr   0.002216
 Sum of Mulliken charges with hydrogens summed into heavy atoms =   0.00000
          Condensed to fragments (all electrons):
     1      -0.002216
     2       0.002216
 Electronic spatial extent (au):  <R**2>=            491.1941
 Charge=              0.0000 electrons
 Dipole moment (field-independent basis, Debye):
    X=              0.2561    Y=             -0.2924    Z=              0.5841  Tot=              0.7016
 Quadrupole moment (field-independent basis, Debye-Ang):
   XX=            -26.2790   YY=            -28.0359   ZZ=            -30.1187
   XY=              4.0457   XZ=             -1.8160   YZ=             -0.6115
 Traceless Quadrupole moment (field-independent basis, Debye-Ang):
   XX=              1.8656   YY=              0.1086   ZZ=             -1.9742
   XY=              4.0457   XZ=             -1.8160   YZ=             -0.6115
 Octapole moment (field-independent basis, Debye-Ang**2):
  XXX=             -0.4091  YYY=             -0.6252  ZZZ=              0.2578  XYY=              3.9714
  XXY=            -16.9695  XXZ=              5.4062  XZZ=              7.6746  YZZ=             -0.4560
  YYZ=              0.7301  XYZ=              1.8771
 Hexadecapole moment (field-independent basis, Debye-Ang**3):
 XXXX=           -337.3139 YYYY=            -62.3528 ZZZZ=            -28.3308 XXXY=             53.2374
 XXXZ=            -16.3869 YYYX=              5.8664 YYYZ=             -0.7668 ZZZX=             -0.8101
 ZZZY=             -0.3509 XXYY=            -73.6985 XXZZ=            -77.1475 YYZZ=            -16.7614
 XXYZ=             -5.6351 YYXZ=             -2.1044 ZZXY=              0.8820
 N-N= 1.483266950462D+02 E-N=-7.234159333197D+03  KE= 2.899947627008D+03
 No NMR shielding tensors so no spin-rotation constants.
 Leave Link  601 at Mon May 11 18:09:26 2020, MaxMem= 1073741824 cpu:       0.9
 (Enter /home/matheus/.gaussian/g09/l122.exe)
 Counterpoise: doing DCBS calculation for fragment   1 NewBq=T
 Leave Link  122 at Mon May 11 18:09:26 2020, MaxMem= 1073741824 cpu:       0.0
 (Enter /home/matheus/.gaussian/g09/l301.exe)
 Basis read from rwf:  (5D, 7F)
 No pseudopotential information found on rwf file.
 There are   197 symmetry adapted basis functions of A   symmetry.
 Integral buffers will be    131072 words long.
 Raffenetti 2 integral format.
 Two-electron integral symmetry is turned on.
   197 basis functions,   415 primitive gaussians,   229 cartesian basis functions
     9 alpha electrons        9 beta electrons
       nuclear repulsion energy        36.6019262901 Hartrees.
 IExCor=10402 DFT=T Ex=LC-B+HF Corr=LYP ExCW=0 ScaHFX=  1.000000
 ScaDFX=  1.000000  1.000000  1.000000  1.000000 ScalE2=  1.000000  1.000000
 IRadAn=      5 IRanWt=     -1 IRanGd=            0 ICorTp=0
  HFx wShort=  0.000000 wLong=  1.350000 cFull=  0.000000 cShort=  0.000000 cLong=  1.000000
  DFx wShort=  0.000000 wLong=  1.350000 cFull=  0.000000 cShort=  0.000000 cLong=  1.000000
 NAtoms=    5 NActive=    5 NUniq=    5 SFac= 1.00D+00 NAtFMM=   60 NAOKFM=F Big=F
 No density basis found on file   718.
 Leave Link  301 at Mon May 11 18:09:26 2020, MaxMem= 1073741824 cpu:       0.2
 (Enter /home/matheus/.gaussian/g09/l302.exe)
 NPDir=0 NMtPBC=     1 NCelOv=     1 NCel=       1 NClECP=     1 NCelD=      1
         NCelK=      1 NCelE2=     1 NClLst=     1 CellRange=     0.0.
 One-electron integrals computed using PRISM.
 NBasis=   197 RedAO= T  NBF=   197
 NBsUse=   197 1.00D-06 NBFU=   197
 Precomputing XC quadrature grid using
 IXCGrd= 2 IRadAn=           5 IRanWt=          -1 IRanGd=           0 AccXCQ= 0.00D+00.
 NRdTot=     427 NPtTot=      123814 NUsed=      126881 NTot=      126913
 NSgBfM=   229   229   229   229   229 NAtAll=     5     5.
 Leave Link  302 at Mon May 11 18:09:26 2020, MaxMem= 1073741824 cpu:       0.9
 (Enter /home/matheus/.gaussian/g09/l303.exe)
 DipDrv:  MaxL=1.
 Leave Link  303 at Mon May 11 18:09:26 2020, MaxMem= 1073741824 cpu:       0.2
 (Enter /home/matheus/.gaussian/g09/l401.exe)
 Harris functional with IExCor=10402 diagonalized for initial guess.
 ExpMin= 2.53D-02 ExpMax= 1.17D+07 ExpMxC= 1.33D+04 IAcc=3 IRadAn=         5 AccDes= 0.00D+00
 HarFok:  IExCor=10402 AccDes= 0.00D+00 IRadAn=         5 IDoV= 1
 ScaDFX=  1.000000  1.000000  1.000000  1.000000
 FoFCou: FMM=F IPFlag=           0 FMFlag=      100000 FMFlg1=           0
         NFxFlg=           0 DoJE=T BraDBF=F KetDBF=T FulRan=T
         Omega=  0.000000  0.000000  1.000000  0.000000  0.000000 ICntrl=     500 IOpCl=  0
         NMat0=    1 NMatS0=    1 NMatT0=    0 NMatD0=    1 NMtDS0=    0 NMtDT0=    0
         I1Cent=           4 NGrid=           0.
 Petite list used in FoFCou.
 Harris En= -143.239454075732    
 Initial guess orbital symmetries:
       Occupied  (A) (A) (A) (A) (A) (A) (A) (A) (A)
       Virtual   (A) (A) (A) (A) (A) (A) (A) (A) (A) (A) (A) (A)
                 (A) (A) (A) (A) (A) (A) (A) (A) (A) (A) (A) (A)
                 (A) (A) (A) (A) (A) (A) (A) (A) (A) (A) (A) (A)
                 (A) (A) (A) (A) (A) (A) (A) (A) (A) (A) (A) (A)
                 (A) (A) (A) (A) (A) (A) (A) (A) (A) (A) (A) (A)
                 (A) (A) (A) (A) (A) (A) (A) (A) (A) (A) (A) (A)
                 (A) (A) (A) (A) (A) (A) (A) (A) (A) (A) (A) (A)
                 (A) (A) (A) (A) (A) (A) (A) (A) (A) (A) (A) (A)
                 (A) (A) (A) (A) (A) (A) (A) (A) (A) (A) (A) (A)
                 (A) (A) (A) (A) (A) (A) (A) (A) (A) (A) (A) (A)
                 (A) (A) (A) (A) (A) (A) (A) (A) (A) (A) (A) (A)
                 (A) (A) (A) (A) (A) (A) (A) (A) (A) (A) (A) (A)
                 (A) (A) (A) (A) (A) (A) (A) (A) (A) (A) (A) (A)
                 (A) (A) (A) (A) (A) (A) (A) (A) (A) (A) (A) (A)
                 (A) (A) (A) (A) (A) (A) (A) (A) (A) (A) (A) (A)
                 (A) (A) (A) (A) (A) (A) (A) (A)
 The electronic state of the initial guess is 1-A.
 Leave Link  401 at Mon May 11 18:09:26 2020, MaxMem= 1073741824 cpu:       3.8
 (Enter /home/matheus/.gaussian/g09/l502.exe)
 Closed shell SCF:
 Requested convergence on RMS density matrix=1.00D-08 within 128 cycles.
 Requested convergence on MAX density matrix=1.00D-06.
 Requested convergence on             energy=1.00D-06.
 No special actions if energy rises.
 Using DIIS extrapolation, IDIIS=  1040.
 Integral symmetry usage will be decided dynamically.
       126823 words used for storage of precomputed grid.
 IEnd=      305770 IEndB=      305770 NGot=  1073741824 MDV=  1073505365
 LenX=  1073505365 LenY=  1073452483
 Fock matrices will be formed incrementally for  20 cycles.

 Cycle   1  Pass 1  IDiag  1:
 FoFJK:  IHMeth= 1 ICntrl=     0 DoSepK=T KAlg= 1 I1Cent= 0 FoldK=F
 FoFCou: FMM=F IPFlag=           0 FMFlag=      100000 FMFlg1=           0
         NFxFlg=           0 DoJE=T BraDBF=F KetDBF=F FulRan=T
         Omega=  0.000000  0.000000  1.000000  0.000000  0.000000 ICntrl=     500 IOpCl=  0
         NMat0=    1 NMatS0=    1 NMatT0=    0 NMatD0=    1 NMtDS0=    0 NMtDT0=    0
         I1Cent=           0 NGrid=           0.
 Symmetry not used in FoFCou.
 E= -145.957416425832    
 DIIS: error= 1.38D-01 at cycle   1 NSaved=   1.
 NSaved= 1 IEnMin= 1 EnMin= -145.957416425832     IErMin= 1 ErrMin= 1.38D-01
 ErrMax= 1.38D-01 EMaxC= 1.00D-01 BMatC= 2.87D+00 BMatP= 2.87D+00
 IDIUse=3 WtCom= 0.00D+00 WtEn= 1.00D+00
 Coeff-Com:  0.100D+01
 Coeff-En:   0.100D+01
 Coeff:      0.100D+01
 Gap=    -0.976 Goal=   None    Shift=    0.000
 GapD=   -0.976 DampG=0.250 DampE=0.250 DampFc=0.2500 IDamp=-1.
 Damping current iteration by 2.50D-01
 RMSDP=8.61D-02 MaxDP=6.54D+00              OVMax= 1.00D+00

 Cycle   2  Pass 1  IDiag  1:
 RMSU=  1.81D-03    CP:  7.52D-01
 FoFJK:  IHMeth= 1 ICntrl=     0 DoSepK=T KAlg= 1 I1Cent= 0 FoldK=F
 E= -147.957127767155     Delta-E=       -1.999711341323 Rises=F Damp=T
 DIIS: error= 6.90D-02 at cycle   2 NSaved=   2.
 NSaved= 2 IEnMin= 2 EnMin= -147.957127767155     IErMin= 2 ErrMin= 6.90D-02
 ErrMax= 6.90D-02 EMaxC= 1.00D-01 BMatC= 7.78D-01 BMatP= 2.87D+00
 IDIUse=3 WtCom= 3.10D-01 WtEn= 6.90D-01
 Coeff-Com: -0.996D+00 0.200D+01
 Coeff-En:   0.000D+00 0.100D+01
 Coeff:     -0.308D+00 0.131D+01
 Gap=     0.361 Goal=   None    Shift=    0.000
 RMSDP=6.45D-02 MaxDP=4.90D+00 DE=-2.00D+00 OVMax= 1.16D-01

 Cycle   3  Pass 1  IDiag  1:
 RMSU=  2.12D-03    CP:  9.78D-03  3.00D+00
 FoFJK:  IHMeth= 1 ICntrl=     0 DoSepK=T KAlg= 1 I1Cent= 0 FoldK=F
 E= -150.542121383976     Delta-E=       -2.584993616821 Rises=F Damp=F
 DIIS: error= 5.79D-02 at cycle   3 NSaved=   3.
 NSaved= 3 IEnMin= 3 EnMin= -150.542121383976     IErMin= 3 ErrMin= 5.79D-02
 ErrMax= 5.79D-02 EMaxC= 1.00D-01 BMatC= 9.67D-01 BMatP= 7.78D-01
 IDIUse=2 WtCom= 0.00D+00 WtEn= 1.00D+00
 Coeff-En:   0.125D-01 0.000D+00 0.987D+00
 Coeff:      0.125D-01 0.000D+00 0.987D+00
 Gap=     0.773 Goal=   None    Shift=    0.000
 RMSDP=3.97D-03 MaxDP=1.39D-01 DE=-2.58D+00 OVMax= 2.92D-01

 Cycle   4  Pass 1  IDiag  1:
 RMSU=  2.78D-03    CP:  1.08D-02  3.00D+00  1.18D+00
 FoFJK:  IHMeth= 1 ICntrl=     0 DoSepK=T KAlg= 1 I1Cent= 0 FoldK=F
 E= -150.952495264403     Delta-E=       -0.410373880427 Rises=F Damp=F
 DIIS: error= 3.96D-02 at cycle   4 NSaved=   4.
 NSaved= 4 IEnMin= 4 EnMin= -150.952495264403     IErMin= 4 ErrMin= 3.96D-02
 ErrMax= 3.96D-02 EMaxC= 1.00D-01 BMatC= 3.98D-01 BMatP= 7.78D-01
 IDIUse=3 WtCom= 6.04D-01 WtEn= 3.96D-01
 Coeff-Com: -0.419D+00 0.696D+00 0.196D+00 0.527D+00
 Coeff-En:   0.000D+00 0.000D+00 0.170D+00 0.830D+00
 Coeff:     -0.253D+00 0.420D+00 0.186D+00 0.647D+00
 Gap=     0.569 Goal=   None    Shift=    0.000
 RMSDP=1.83D-03 MaxDP=5.14D-02 DE=-4.10D-01 OVMax= 1.46D-01

 Cycle   5  Pass 1  IDiag  1:
 RMSU=  3.86D-04    CP:  9.96D-03  3.00D+00  1.20D+00  5.55D-01
 FoFJK:  IHMeth= 1 ICntrl=     0 DoSepK=T KAlg= 1 I1Cent= 0 FoldK=F
 E= -151.189966855367     Delta-E=       -0.237471590964 Rises=F Damp=F
 DIIS: error= 1.09D-02 at cycle   5 NSaved=   5.
 NSaved= 5 IEnMin= 5 EnMin= -151.189966855367     IErMin= 5 ErrMin= 1.09D-02
 ErrMax= 1.09D-02 EMaxC= 1.00D-01 BMatC= 2.94D-02 BMatP= 3.98D-01
 IDIUse=3 WtCom= 8.91D-01 WtEn= 1.09D-01
 Coeff-Com: -0.870D-01 0.156D+00-0.150D+00 0.753D-01 0.101D+01
 Coeff-En:   0.000D+00 0.000D+00 0.000D+00 0.000D+00 0.100D+01
 Coeff:     -0.775D-01 0.139D+00-0.134D+00 0.671D-01 0.101D+01
 Gap=     0.518 Goal=   None    Shift=    0.000
 RMSDP=4.17D-04 MaxDP=1.47D-02 DE=-2.37D-01 OVMax= 2.80D-02

 Cycle   6  Pass 1  IDiag  1:
 RMSU=  8.91D-05    CP:  1.02D-02  3.00D+00  1.21D+00  6.54D-01  1.14D+00
 FoFJK:  IHMeth= 1 ICntrl=     0 DoSepK=T KAlg= 1 I1Cent= 0 FoldK=F
 E= -151.210297935834     Delta-E=       -0.020331080468 Rises=F Damp=F
 DIIS: error= 1.77D-03 at cycle   6 NSaved=   6.
 NSaved= 6 IEnMin= 6 EnMin= -151.210297935834     IErMin= 6 ErrMin= 1.77D-03
 ErrMax= 1.77D-03 EMaxC= 1.00D-01 BMatC= 5.72D-04 BMatP= 2.94D-02
 IDIUse=3 WtCom= 9.82D-01 WtEn= 1.77D-02
 Coeff-Com: -0.306D-01 0.589D-01 0.996D-02-0.429D-01-0.414D+00 0.142D+01
 Coeff-En:   0.000D+00 0.000D+00 0.000D+00 0.000D+00 0.000D+00 0.100D+01
 Coeff:     -0.301D-01 0.579D-01 0.978D-02-0.422D-01-0.407D+00 0.141D+01
 Gap=     0.516 Goal=   None    Shift=    0.000
 RMSDP=9.08D-05 MaxDP=1.97D-03 DE=-2.03D-02 OVMax= 6.93D-03

 Cycle   7  Pass 1  IDiag  1:
 RMSU=  2.53D-05    CP:  1.02D-02  3.00D+00  1.21D+00  6.63D-01  1.21D+00
                    CP:  1.50D+00
 FoFJK:  IHMeth= 1 ICntrl=     0 DoSepK=T KAlg= 1 I1Cent= 0 FoldK=F
 E= -151.210854820346     Delta-E=       -0.000556884512 Rises=F Damp=F
 DIIS: error= 1.06D-03 at cycle   7 NSaved=   7.
 NSaved= 7 IEnMin= 7 EnMin= -151.210854820346     IErMin= 7 ErrMin= 1.06D-03
 ErrMax= 1.06D-03 EMaxC= 1.00D-01 BMatC= 1.96D-04 BMatP= 5.72D-04
 IDIUse=3 WtCom= 9.89D-01 WtEn= 1.06D-02
 Coeff-Com: -0.684D-02 0.127D-01 0.836D-02 0.679D-02-0.104D+00-0.294D+00
 Coeff-Com:  0.138D+01
 Coeff-En:   0.000D+00 0.000D+00 0.000D+00 0.000D+00 0.000D+00 0.000D+00
 Coeff-En:   0.100D+01
 Coeff:     -0.677D-02 0.125D-01 0.827D-02 0.672D-02-0.103D+00-0.291D+00
 Coeff:      0.137D+01
 Gap=     0.512 Goal=   None    Shift=    0.000
 RMSDP=5.98D-05 MaxDP=1.38D-03 DE=-5.57D-04 OVMax= 4.80D-03

 Cycle   8  Pass 1  IDiag  1:
 RMSU=  8.90D-06    CP:  1.02D-02  3.00D+00  1.21D+00  6.73D-01  1.22D+00
                    CP:  1.74D+00  1.80D+00
 FoFJK:  IHMeth= 1 ICntrl=     0 DoSepK=T KAlg= 1 I1Cent= 0 FoldK=F
 E= -151.211060214559     Delta-E=       -0.000205394212 Rises=F Damp=F
 DIIS: error= 2.17D-04 at cycle   8 NSaved=   8.
 NSaved= 8 IEnMin= 8 EnMin= -151.211060214559     IErMin= 8 ErrMin= 2.17D-04
 ErrMax= 2.17D-04 EMaxC= 1.00D-01 BMatC= 7.04D-06 BMatP= 1.96D-04
 IDIUse=3 WtCom= 9.98D-01 WtEn= 2.17D-03
 Coeff-Com: -0.115D-02 0.179D-02-0.267D-02 0.454D-02 0.410D-01-0.690D-01
 Coeff-Com: -0.270D+00 0.130D+01
 Coeff-En:   0.000D+00 0.000D+00 0.000D+00 0.000D+00 0.000D+00 0.000D+00
 Coeff-En:   0.000D+00 0.100D+01
 Coeff:     -0.115D-02 0.179D-02-0.266D-02 0.453D-02 0.409D-01-0.689D-01
 Coeff:     -0.270D+00 0.130D+01
 Gap=     0.512 Goal=   None    Shift=    0.000
 RMSDP=1.78D-05 MaxDP=4.19D-04 DE=-2.05D-04 OVMax= 2.04D-03

 Cycle   9  Pass 1  IDiag  1:
 RMSU=  3.42D-06    CP:  1.02D-02  3.00D+00  1.21D+00  6.76D-01  1.22D+00
                    CP:  1.78D+00  2.10D+00  1.57D+00
 FoFJK:  IHMeth= 1 ICntrl=     0 DoSepK=T KAlg= 1 I1Cent= 0 FoldK=F
 E= -151.211071394086     Delta-E=       -0.000011179527 Rises=F Damp=F
 DIIS: error= 3.71D-05 at cycle   9 NSaved=   9.
 NSaved= 9 IEnMin= 9 EnMin= -151.211071394086     IErMin= 9 ErrMin= 3.71D-05
 ErrMax= 3.71D-05 EMaxC= 1.00D-01 BMatC= 3.80D-07 BMatP= 7.04D-06
 IDIUse=1 WtCom= 1.00D+00 WtEn= 0.00D+00
 Coeff-Com:  0.236D-04-0.174D-03-0.110D-02 0.558D-03 0.151D-01 0.139D-01
 Coeff-Com: -0.185D+00 0.304D+00 0.852D+00
 Coeff:      0.236D-04-0.174D-03-0.110D-02 0.558D-03 0.151D-01 0.139D-01
 Coeff:     -0.185D+00 0.304D+00 0.852D+00
 Gap=     0.512 Goal=   None    Shift=    0.000
 RMSDP=4.12D-06 MaxDP=8.56D-05 DE=-1.12D-05 OVMax= 6.10D-04

 Cycle  10  Pass 1  IDiag  1:
 RMSU=  1.41D-06    CP:  1.02D-02  3.00D+00  1.21D+00  6.76D-01  1.22D+00
                    CP:  1.78D+00  2.16D+00  1.70D+00  1.38D+00
 FoFJK:  IHMeth= 1 ICntrl=     0 DoSepK=T KAlg= 1 I1Cent= 0 FoldK=F
 E= -151.211072244807     Delta-E=       -0.000000850721 Rises=F Damp=F
 DIIS: error= 2.48D-05 at cycle  10 NSaved=  10.
 NSaved=10 IEnMin=10 EnMin= -151.211072244807     IErMin=10 ErrMin= 2.48D-05
 ErrMax= 2.48D-05 EMaxC= 1.00D-01 BMatC= 1.05D-07 BMatP= 3.80D-07
 IDIUse=1 WtCom= 1.00D+00 WtEn= 0.00D+00
 Coeff-Com:  0.527D-03-0.884D-03 0.115D-02-0.225D-02-0.173D-01 0.436D-01
 Coeff-Com:  0.712D-01-0.513D+00 0.151D+00 0.127D+01
 Coeff:      0.527D-03-0.884D-03 0.115D-02-0.225D-02-0.173D-01 0.436D-01
 Coeff:      0.712D-01-0.513D+00 0.151D+00 0.127D+01
 Gap=     0.512 Goal=   None    Shift=    0.000
 RMSDP=4.05D-06 MaxDP=9.22D-05 DE=-8.51D-07 OVMax= 6.43D-04

 Cycle  11  Pass 1  IDiag  1:
 RMSU=  6.96D-07    CP:  1.02D-02  3.00D+00  1.21D+00  6.76D-01  1.22D+00
                    CP:  1.79D+00  2.21D+00  1.79D+00  1.99D+00  1.68D+00
 FoFJK:  IHMeth= 1 ICntrl=     0 DoSepK=T KAlg= 1 I1Cent= 0 FoldK=F
 E= -151.211072646510     Delta-E=       -0.000000401703 Rises=F Damp=F
 DIIS: error= 1.27D-05 at cycle  11 NSaved=  11.
 NSaved=11 IEnMin=11 EnMin= -151.211072646510     IErMin=11 ErrMin= 1.27D-05
 ErrMax= 1.27D-05 EMaxC= 1.00D-01 BMatC= 3.41D-08 BMatP= 1.05D-07
 IDIUse=1 WtCom= 1.00D+00 WtEn= 0.00D+00
 Coeff-Com:  0.190D-03-0.328D-03-0.161D-03 0.322D-03 0.422D-02-0.116D-01
 Coeff-Com: -0.108D-01 0.141D+00-0.174D+00-0.470D+00 0.152D+01
 Coeff:      0.190D-03-0.328D-03-0.161D-03 0.322D-03 0.422D-02-0.116D-01
 Coeff:     -0.108D-01 0.141D+00-0.174D+00-0.470D+00 0.152D+01
 Gap=     0.512 Goal=   None    Shift=    0.000
 RMSDP=1.67D-06 MaxDP=3.60D-05 DE=-4.02D-07 OVMax= 2.47D-04

 Cycle  12  Pass 1  IDiag  1:
 RMSU=  2.13D-07    CP:  1.02D-02  3.00D+00  1.21D+00  6.76D-01  1.22D+00
                    CP:  1.79D+00  2.23D+00  1.80D+00  2.20D+00  2.07D+00
                    CP:  1.54D+00
 FoFJK:  IHMeth= 1 ICntrl=     0 DoSepK=T KAlg= 1 I1Cent= 0 FoldK=F
 E= -151.211072707752     Delta-E=       -0.000000061242 Rises=F Damp=F
 DIIS: error= 4.03D-06 at cycle  12 NSaved=  12.
 NSaved=12 IEnMin=12 EnMin= -151.211072707752     IErMin=12 ErrMin= 4.03D-06
 ErrMax= 4.03D-06 EMaxC= 1.00D-01 BMatC= 3.51D-09 BMatP= 3.41D-08
 IDIUse=1 WtCom= 1.00D+00 WtEn= 0.00D+00
 Coeff-Com:  0.177D-04-0.308D-04 0.249D-04-0.102D-03-0.568D-03 0.339D-02
 Coeff-Com:  0.496D-03-0.373D-01 0.634D-01 0.136D+00-0.611D+00 0.145D+01
 Coeff:      0.177D-04-0.308D-04 0.249D-04-0.102D-03-0.568D-03 0.339D-02
 Coeff:      0.496D-03-0.373D-01 0.634D-01 0.136D+00-0.611D+00 0.145D+01
 Gap=     0.512 Goal=   None    Shift=    0.000
 RMSDP=2.62D-07 MaxDP=6.40D-06 DE=-6.12D-08 OVMax= 3.30D-05

 Cycle  13  Pass 1  IDiag  1:
 RMSU=  5.47D-08    CP:  1.02D-02  3.00D+00  1.21D+00  6.76D-01  1.22D+00
                    CP:  1.79D+00  2.23D+00  1.80D+00  2.23D+00  2.10D+00
                    CP:  1.59D+00  1.41D+00
 FoFJK:  IHMeth= 1 ICntrl=     0 DoSepK=T KAlg= 1 I1Cent= 0 FoldK=F
 E= -151.211072710957     Delta-E=       -0.000000003205 Rises=F Damp=F
 DIIS: error= 4.94D-07 at cycle  13 NSaved=  13.
 NSaved=13 IEnMin=13 EnMin= -151.211072710957     IErMin=13 ErrMin= 4.94D-07
 ErrMax= 4.94D-07 EMaxC= 1.00D-01 BMatC= 5.80D-11 BMatP= 3.51D-09
 IDIUse=1 WtCom= 1.00D+00 WtEn= 0.00D+00
 Coeff-Com:  0.111D-05-0.242D-05 0.821D-05-0.202D-04-0.169D-03 0.290D-03
 Coeff-Com:  0.686D-03-0.500D-02 0.262D-02 0.113D-01-0.236D-01-0.156D+00
 Coeff-Com:  0.117D+01
 Coeff:      0.111D-05-0.242D-05 0.821D-05-0.202D-04-0.169D-03 0.290D-03
 Coeff:      0.686D-03-0.500D-02 0.262D-02 0.113D-01-0.236D-01-0.156D+00
 Coeff:      0.117D+01
 Gap=     0.512 Goal=   None    Shift=    0.000
 RMSDP=5.62D-08 MaxDP=1.17D-06 DE=-3.20D-09 OVMax= 8.06D-06

 Cycle  14  Pass 1  IDiag  1:
 RMSU=  7.11D-09    CP:  1.02D-02  3.00D+00  1.21D+00  6.76D-01  1.22D+00
                    CP:  1.79D+00  2.23D+00  1.80D+00  2.23D+00  2.11D+00
                    CP:  1.59D+00  1.45D+00  1.32D+00
 FoFJK:  IHMeth= 1 ICntrl=     0 DoSepK=T KAlg= 1 I1Cent= 0 FoldK=F
 E= -151.211072710975     Delta-E=       -0.000000000018 Rises=F Damp=F
 DIIS: error= 9.54D-08 at cycle  14 NSaved=  14.
 NSaved=14 IEnMin=14 EnMin= -151.211072710975     IErMin=14 ErrMin= 9.54D-08
 ErrMax= 9.54D-08 EMaxC= 1.00D-01 BMatC= 1.37D-12 BMatP= 5.80D-11
 IDIUse=1 WtCom= 1.00D+00 WtEn= 0.00D+00
 Coeff-Com: -0.335D-06 0.439D-06-0.233D-05 0.573D-05 0.507D-04-0.187D-03
 Coeff-Com: -0.136D-03 0.249D-02-0.325D-02-0.776D-02 0.332D-01-0.509D-01
 Coeff-Com: -0.116D+00 0.114D+01
 Coeff:     -0.335D-06 0.439D-06-0.233D-05 0.573D-05 0.507D-04-0.187D-03
 Coeff:     -0.136D-03 0.249D-02-0.325D-02-0.776D-02 0.332D-01-0.509D-01
 Coeff:     -0.116D+00 0.114D+01
 Gap=     0.512 Goal=   None    Shift=    0.000
 RMSDP=8.27D-09 MaxDP=2.33D-07 DE=-1.84D-11 OVMax= 6.48D-07

 SCF Done:  E(RLC-B+HF-LYP) =  -151.211072711     A.U. after   14 cycles
             Convg  =    0.8265D-08             -V/T =  2.0063
 KE= 1.502617237842D+02 PE=-4.315433830674D+02 EE= 9.346866028214D+01
 Leave Link  502 at Mon May 11 18:10:07 2020, MaxMem= 1073741824 cpu:     320.3
 (Enter /home/matheus/.gaussian/g09/l601.exe)
 Copying SCF densities to generalized density rwf, IOpCl= 0 IROHF=0.

 **********************************************************************

            Population analysis using the SCF density.

 **********************************************************************

 Orbital symmetries:
       Occupied  (A) (A) (A) (A) (A) (A) (A) (A) (A)
       Virtual   (A) (A) (A) (A) (A) (A) (A) (A) (A) (A) (A) (A)
                 (A) (A) (A) (A) (A) (A) (A) (A) (A) (A) (A) (A)
                 (A) (A) (A) (A) (A) (A) (A) (A) (A) (A) (A) (A)
                 (A) (A) (A) (A) (A) (A) (A) (A) (A) (A) (A) (A)
                 (A) (A) (A) (A) (A) (A) (A) (A) (A) (A) (A) (A)
                 (A) (A) (A) (A) (A) (A) (A) (A) (A) (A) (A) (A)
                 (A) (A) (A) (A) (A) (A) (A) (A) (A) (A) (A) (A)
                 (A) (A) (A) (A) (A) (A) (A) (A) (A) (A) (A) (A)
                 (A) (A) (A) (A) (A) (A) (A) (A) (A) (A) (A) (A)
                 (A) (A) (A) (A) (A) (A) (A) (A) (A) (A) (A) (A)
                 (A) (A) (A) (A) (A) (A) (A) (A) (A) (A) (A) (A)
                 (A) (A) (A) (A) (A) (A) (A) (A) (A) (A) (A) (A)
                 (A) (A) (A) (A) (A) (A) (A) (A) (A) (A) (A) (A)
                 (A) (A) (A) (A) (A) (A) (A) (A) (A) (A) (A) (A)
                 (A) (A) (A) (A) (A) (A) (A) (A) (A) (A) (A) (A)
                 (A) (A) (A) (A) (A) (A) (A) (A)
 The electronic state is 1-A.
 Alpha  occ. eigenvalues --  -19.48266 -19.48237  -1.46087  -1.21526  -0.73623
 Alpha  occ. eigenvalues --   -0.73459  -0.64838  -0.55635  -0.48649
 Alpha virt. eigenvalues --    0.02523   0.03356   0.07069   0.08680   0.10046
 Alpha virt. eigenvalues --    0.10684   0.11923   0.13851   0.16271   0.16358
 Alpha virt. eigenvalues --    0.18757   0.19740   0.22945   0.23619   0.25721
 Alpha virt. eigenvalues --    0.27005   0.29552   0.30728   0.31182   0.33229
 Alpha virt. eigenvalues --    0.35996   0.37667   0.38721   0.40143   0.42070
 Alpha virt. eigenvalues --    0.42888   0.43755   0.48060   0.48616   0.49796
 Alpha virt. eigenvalues --    0.55000   0.57802   0.62100   0.67278   0.69951
 Alpha virt. eigenvalues --    0.71882   0.75789   0.76515   0.77284   0.78516
 Alpha virt. eigenvalues --    0.80439   0.84462   0.87459   0.89248   0.91877
 Alpha virt. eigenvalues --    0.93152   0.95026   0.96398   0.99212   1.01137
 Alpha virt. eigenvalues --    1.02145   1.05979   1.07113   1.11400   1.13428
 Alpha virt. eigenvalues --    1.13809   1.16878   1.17989   1.22580   1.25593
 Alpha virt. eigenvalues --    1.27266   1.30945   1.32159   1.33368   1.33940
 Alpha virt. eigenvalues --    1.34746   1.35891   1.36693   1.38961   1.46512
 Alpha virt. eigenvalues --    1.49866   1.52400   1.56726   1.57230   1.59196
 Alpha virt. eigenvalues --    1.61817   1.67534   1.70546   1.75534   1.84640
 Alpha virt. eigenvalues --    1.89981   1.91332   1.96240   2.06403   2.11534
 Alpha virt. eigenvalues --    2.12156   2.16688   2.26037   2.26321   2.31090
 Alpha virt. eigenvalues --    2.36097   2.38499   2.42889   2.46715   2.54073
 Alpha virt. eigenvalues --    2.59488   2.65108   2.66665   2.68751   2.77508
 Alpha virt. eigenvalues --    2.79764   2.82901   2.88116   3.00495   3.05403
 Alpha virt. eigenvalues --    3.19995   3.22503   3.24215   3.25913   3.31380
 Alpha virt. eigenvalues --    3.43632   3.56096   3.66688   3.78477   3.79205
 Alpha virt. eigenvalues --    3.80511   3.82228   3.82684   3.82958   3.87135
 Alpha virt. eigenvalues --    3.91489   3.92269   3.96210   3.98306   4.02183
 Alpha virt. eigenvalues --    4.06668   4.10188   4.16931   4.22894   4.25148
 Alpha virt. eigenvalues --    4.28240   4.33137   4.35922   4.43186   4.45694
 Alpha virt. eigenvalues --    4.57121   4.64126   4.70664   4.92847   5.09390
 Alpha virt. eigenvalues --    5.18870   5.21313   5.24799   5.28481   5.54613
 Alpha virt. eigenvalues --    5.66543   6.04977   6.23231   6.30380   6.36172
 Alpha virt. eigenvalues --    6.56194   6.59437   6.66867   6.73660   6.95437
 Alpha virt. eigenvalues --    6.98154   7.00497   7.07867   7.11148   7.12877
 Alpha virt. eigenvalues --    7.18195   7.19018   7.21574   7.24269   7.28316
 Alpha virt. eigenvalues --    7.49217   7.50133   7.63569   7.89514   8.09604
 Alpha virt. eigenvalues --    8.35314   8.39218  10.88515  14.32439  14.78310
 Alpha virt. eigenvalues --   14.83223  14.88823  15.11902  29.02938  29.03511
 Alpha virt. eigenvalues --   29.07816  29.13607  29.23090  49.10143 148.31269
 Alpha virt. eigenvalues --  148.38836 148.71851 752.49251
          Condensed to atoms (all electrons):
              1          2          3          4          5
     1  O    8.194593  -0.144252   0.188861  -0.016439  -0.004310
     2  O   -0.144252   8.180451  -0.001623   0.216735  -0.000147
     3  H    0.188861  -0.001623   0.585089   0.007981   0.001084
     4  H   -0.016439   0.216735   0.007981   0.549123  -0.003352
     5  Kr  -0.004310  -0.000147   0.001084  -0.003352   0.001667
 Mulliken atomic charges:
              1
     1  O   -0.218454
     2  O   -0.251163
     3  H    0.218607
     4  H    0.245952
     5  Kr   0.005058
 Sum of Mulliken atomic charges =   0.00000
 Mulliken charges with hydrogens summed into heavy atoms:
              1
     1  O    0.000153
     2  O   -0.005211
     5  Kr   0.005058
 Sum of Mulliken charges with hydrogens summed into heavy atoms =   0.00000
          Condensed to fragments (all electrons):
     1      -0.005058
     2       0.005058
 Electronic spatial extent (au):  <R**2>=            323.7755
 Charge=              0.0000 electrons
 Dipole moment (field-independent basis, Debye):
    X=              0.1005    Y=             -0.0189    Z=              0.5986  Tot=              0.6072
 Quadrupole moment (field-independent basis, Debye-Ang):
   XX=             -8.6856   YY=            -10.4956   ZZ=            -12.6353
   XY=              4.2413   XZ=             -1.8027   YZ=             -0.6099
 Traceless Quadrupole moment (field-independent basis, Debye-Ang):
   XX=              1.9199   YY=              0.1099   ZZ=             -2.0298
   XY=              4.2413   XZ=             -1.8027   YZ=             -0.6099
 Octapole moment (field-independent basis, Debye-Ang**2):
  XXX=             51.1694  YYY=             -1.2360  ZZZ=              0.3838  XYY=             21.3610
  XXY=            -16.9598  XXZ=              5.4590  XZZ=             25.1152  YZZ=             -0.6566
  YYZ=              0.7708  XYZ=              1.8761
 Hexadecapole moment (field-independent basis, Debye-Ang**3):
 XXXX=           -213.1212 YYYY=            -44.4079 ZZZZ=            -10.5069 XXXY=             52.6205
 XXXZ=            -16.2592 YYYX=              5.2995 YYYZ=             -0.7653 ZZZX=             -0.6846
 ZZZY=             -0.3500 XXYY=            -50.0787 XXZZ=            -53.6740 YYZZ=            -10.7973
 XXYZ=             -5.6372 YYXZ=             -2.0599 ZZXY=              0.6531
 N-N= 3.660192629008D+01 E-N=-4.315433936842D+02  KE= 1.502617237842D+02
 No NMR shielding tensors so no spin-rotation constants.
 Leave Link  601 at Mon May 11 18:10:07 2020, MaxMem= 1073741824 cpu:       0.7
 (Enter /home/matheus/.gaussian/g09/l122.exe)
 Counterpoise: doing DCBS calculation for fragment   2 NewBq=T
 Leave Link  122 at Mon May 11 18:10:07 2020, MaxMem= 1073741824 cpu:       0.0
 (Enter /home/matheus/.gaussian/g09/l301.exe)
 Basis read from rwf:  (5D, 7F)
 No pseudopotential information found on rwf file.
 There are   197 symmetry adapted basis functions of A   symmetry.
 Integral buffers will be    131072 words long.
 Raffenetti 2 integral format.
 Two-electron integral symmetry is turned on.
   197 basis functions,   415 primitive gaussians,   229 cartesian basis functions
    18 alpha electrons       18 beta electrons
       nuclear repulsion energy         0.0000000000 Hartrees.
 IExCor=10402 DFT=T Ex=LC-B+HF Corr=LYP ExCW=0 ScaHFX=  1.000000
 ScaDFX=  1.000000  1.000000  1.000000  1.000000 ScalE2=  1.000000  1.000000
 IRadAn=      5 IRanWt=     -1 IRanGd=            0 ICorTp=0
  HFx wShort=  0.000000 wLong=  1.350000 cFull=  0.000000 cShort=  0.000000 cLong=  1.000000
  DFx wShort=  0.000000 wLong=  1.350000 cFull=  0.000000 cShort=  0.000000 cLong=  1.000000
 NAtoms=    5 NActive=    5 NUniq=    5 SFac= 1.00D+00 NAtFMM=   60 NAOKFM=F Big=F
 No density basis found on file   718.
 Leave Link  301 at Mon May 11 18:10:07 2020, MaxMem= 1073741824 cpu:       0.2
 (Enter /home/matheus/.gaussian/g09/l302.exe)
 NPDir=0 NMtPBC=     1 NCelOv=     1 NCel=       1 NClECP=     1 NCelD=      1
         NCelK=      1 NCelE2=     1 NClLst=     1 CellRange=     0.0.
 One-electron integrals computed using PRISM.
 NBasis=   197 RedAO= T  NBF=   197
 NBsUse=   197 1.00D-06 NBFU=   197
 Precomputing XC quadrature grid using
 IXCGrd= 2 IRadAn=           5 IRanWt=          -1 IRanGd=           0 AccXCQ= 0.00D+00.
 NRdTot=     427 NPtTot=      123814 NUsed=      126881 NTot=      126913
 NSgBfM=   229   229   229   229   229 NAtAll=     5     5.
 Leave Link  302 at Mon May 11 18:10:07 2020, MaxMem= 1073741824 cpu:       1.0
 (Enter /home/matheus/.gaussian/g09/l303.exe)
 DipDrv:  MaxL=1.
 Leave Link  303 at Mon May 11 18:10:07 2020, MaxMem= 1073741824 cpu:       0.2
 (Enter /home/matheus/.gaussian/g09/l401.exe)
 Harris functional with IExCor=10402 diagonalized for initial guess.
 ExpMin= 2.53D-02 ExpMax= 1.17D+07 ExpMxC= 1.33D+04 IAcc=3 IRadAn=         5 AccDes= 0.00D+00
 HarFok:  IExCor=10402 AccDes= 0.00D+00 IRadAn=         5 IDoV= 1
 ScaDFX=  1.000000  1.000000  1.000000  1.000000
 FoFCou: FMM=F IPFlag=           0 FMFlag=      100000 FMFlg1=           0
         NFxFlg=           0 DoJE=T BraDBF=F KetDBF=T FulRan=T
         Omega=  0.000000  0.000000  1.000000  0.000000  0.000000 ICntrl=     500 IOpCl=  0
         NMat0=    1 NMatS0=    1 NMatT0=    0 NMatD0=    1 NMtDS0=    0 NMtDT0=    0
         I1Cent=           4 NGrid=           0.
 Petite list used in FoFCou.
 Harris En= -2731.73456246518    
 Initial guess orbital symmetries:
       Occupied  (A) (A) (A) (A) (A) (A) (A) (A) (A) (A) (A) (A)
                 (A) (A) (A) (A) (A) (A)
       Virtual   (A) (A) (A) (A) (A) (A) (A) (A) (A) (A) (A) (A)
                 (A) (A) (A) (A) (A) (A) (A) (A) (A) (A) (A) (A)
                 (A) (A) (A) (A) (A) (A) (A) (A) (A) (A) (A) (A)
                 (A) (A) (A) (A) (A) (A) (A) (A) (A) (A) (A) (A)
                 (A) (A) (A) (A) (A) (A) (A) (A) (A) (A) (A) (A)
                 (A) (A) (A) (A) (A) (A) (A) (A) (A) (A) (A) (A)
                 (A) (A) (A) (A) (A) (A) (A) (A) (A) (A) (A) (A)
                 (A) (A) (A) (A) (A) (A) (A) (A) (A) (A) (A) (A)
                 (A) (A) (A) (A) (A) (A) (A) (A) (A) (A) (A) (A)
                 (A) (A) (A) (A) (A) (A) (A) (A) (A) (A) (A) (A)
                 (A) (A) (A) (A) (A) (A) (A) (A) (A) (A) (A) (A)
                 (A) (A) (A) (A) (A) (A) (A) (A) (A) (A) (A) (A)
                 (A) (A) (A) (A) (A) (A) (A) (A) (A) (A) (A) (A)
                 (A) (A) (A) (A) (A) (A) (A) (A) (A) (A) (A) (A)
                 (A) (A) (A) (A) (A) (A) (A) (A) (A) (A) (A)
 The electronic state of the initial guess is 1-A.
 Leave Link  401 at Mon May 11 18:10:07 2020, MaxMem= 1073741824 cpu:       3.7
 (Enter /home/matheus/.gaussian/g09/l502.exe)
 Closed shell SCF:
 Requested convergence on RMS density matrix=1.00D-08 within 128 cycles.
 Requested convergence on MAX density matrix=1.00D-06.
 Requested convergence on             energy=1.00D-06.
 No special actions if energy rises.
 Using DIIS extrapolation, IDIIS=  1040.
 Integral symmetry usage will be decided dynamically.
       126823 words used for storage of precomputed grid.
 IEnd=      305770 IEndB=      305770 NGot=  1073741824 MDV=  1073505365
 LenX=  1073505365 LenY=  1073452483
 Fock matrices will be formed incrementally for  20 cycles.

 Cycle   1  Pass 1  IDiag  1:
 FoFJK:  IHMeth= 1 ICntrl=     0 DoSepK=T KAlg= 1 I1Cent= 0 FoldK=F
 FoFCou: FMM=F IPFlag=           0 FMFlag=      100000 FMFlg1=           0
         NFxFlg=           0 DoJE=T BraDBF=F KetDBF=F FulRan=T
         Omega=  0.000000  0.000000  1.000000  0.000000  0.000000 ICntrl=     500 IOpCl=  0
         NMat0=    1 NMatS0=    1 NMatT0=    0 NMatD0=    1 NMtDS0=    0 NMtDT0=    0
         I1Cent=           0 NGrid=           0.
 Symmetry not used in FoFCou.
 E= -2752.71034675395    
 DIIS: error= 4.96D-02 at cycle   1 NSaved=   1.
 NSaved= 1 IEnMin= 1 EnMin= -2752.71034675395     IErMin= 1 ErrMin= 4.96D-02
 ErrMax= 4.96D-02 EMaxC= 1.00D-01 BMatC= 1.18D+00 BMatP= 1.18D+00
 IDIUse=3 WtCom= 5.04D-01 WtEn= 4.96D-01
 Coeff-Com:  0.100D+01
 Coeff-En:   0.100D+01
 Coeff:      0.100D+01
 Gap=     0.767 Goal=   None    Shift=    0.000
 GapD=    0.767 DampG=2.000 DampE=0.500 DampFc=1.0000 IDamp=-1.
 RMSDP=4.97D-03 MaxDP=2.25D-01              OVMax= 3.36D-01

 Cycle   2  Pass 1  IDiag  1:
 RMSU=  3.43D-03    CP:  1.05D+00
 FoFJK:  IHMeth= 1 ICntrl=     0 DoSepK=T KAlg= 1 I1Cent= 0 FoldK=F
 E= -2753.27699232088     Delta-E=       -0.566645566935 Rises=F Damp=F
 DIIS: error= 3.22D-02 at cycle   2 NSaved=   2.
 NSaved= 2 IEnMin= 2 EnMin= -2753.27699232088     IErMin= 2 ErrMin= 3.22D-02
 ErrMax= 3.22D-02 EMaxC= 1.00D-01 BMatC= 3.64D-01 BMatP= 1.18D+00
 IDIUse=3 WtCom= 6.78D-01 WtEn= 3.22D-01
 Coeff-Com:  0.351D+00 0.649D+00
 Coeff-En:   0.000D+00 0.100D+01
 Coeff:      0.238D+00 0.762D+00
 Gap=     0.598 Goal=   None    Shift=    0.000
 RMSDP=2.26D-03 MaxDP=1.35D-01 DE=-5.67D-01 OVMax= 7.50D-02

 Cycle   3  Pass 1  IDiag  1:
 RMSU=  8.73D-04    CP:  1.03D+00  6.21D-01
 FoFJK:  IHMeth= 1 ICntrl=     0 DoSepK=T KAlg= 1 I1Cent= 0 FoldK=F
 E= -2753.40699033047     Delta-E=       -0.129998009590 Rises=F Damp=F
 DIIS: error= 3.96D-03 at cycle   3 NSaved=   3.
 NSaved= 3 IEnMin= 3 EnMin= -2753.40699033047     IErMin= 3 ErrMin= 3.96D-03
 ErrMax= 3.96D-03 EMaxC= 1.00D-01 BMatC= 8.67D-03 BMatP= 3.64D-01
 IDIUse=3 WtCom= 9.60D-01 WtEn= 3.96D-02
 Coeff-Com: -0.100D-01 0.110D+00 0.900D+00
 Coeff-En:   0.000D+00 0.000D+00 0.100D+01
 Coeff:     -0.965D-02 0.106D+00 0.904D+00
 Gap=     0.574 Goal=   None    Shift=    0.000
 RMSDP=3.74D-04 MaxDP=1.85D-02 DE=-1.30D-01 OVMax= 1.10D-02

 Cycle   4  Pass 1  IDiag  1:
 RMSU=  2.28D-04    CP:  1.03D+00  6.58D-01  9.61D-01
 FoFJK:  IHMeth= 1 ICntrl=     0 DoSepK=T KAlg= 1 I1Cent= 0 FoldK=F
 E= -2753.40946131341     Delta-E=       -0.002470982939 Rises=F Damp=F
 DIIS: error= 2.39D-04 at cycle   4 NSaved=   4.
 NSaved= 4 IEnMin= 4 EnMin= -2753.40946131341     IErMin= 4 ErrMin= 2.39D-04
 ErrMax= 2.39D-04 EMaxC= 1.00D-01 BMatC= 3.29D-05 BMatP= 8.67D-03
 IDIUse=3 WtCom= 9.98D-01 WtEn= 2.39D-03
 Coeff-Com: -0.683D-02-0.482D-02 0.170D-02 0.101D+01
 Coeff-En:   0.000D+00 0.000D+00 0.000D+00 0.100D+01
 Coeff:     -0.681D-02-0.481D-02 0.170D-02 0.101D+01
 Gap=     0.580 Goal=   None    Shift=    0.000
 RMSDP=4.97D-05 MaxDP=2.22D-03 DE=-2.47D-03 OVMax= 3.44D-03

 Cycle   5  Pass 1  IDiag  1:
 RMSU=  2.08D-05    CP:  1.03D+00  6.61D-01  9.83D-01  1.08D+00
 FoFJK:  IHMeth= 1 ICntrl=     0 DoSepK=T KAlg= 1 I1Cent= 0 FoldK=F
 E= -2753.40952031054     Delta-E=       -0.000058997130 Rises=F Damp=F
 DIIS: error= 3.87D-05 at cycle   5 NSaved=   5.
 NSaved= 5 IEnMin= 5 EnMin= -2753.40952031054     IErMin= 5 ErrMin= 3.87D-05
 ErrMax= 3.87D-05 EMaxC= 1.00D-01 BMatC= 4.98D-07 BMatP= 3.29D-05
 IDIUse=1 WtCom= 1.00D+00 WtEn= 0.00D+00
 Coeff-Com: -0.890D-04-0.135D-02 0.870D-03-0.166D+00 0.117D+01
 Coeff:     -0.890D-04-0.135D-02 0.870D-03-0.166D+00 0.117D+01
 Gap=     0.580 Goal=   None    Shift=    0.000
 RMSDP=1.06D-05 MaxDP=4.37D-04 DE=-5.90D-05 OVMax= 6.33D-04

 Cycle   6  Pass 1  IDiag  1:
 RMSU=  1.01D-06    CP:  1.03D+00  6.61D-01  9.88D-01  1.10D+00  1.20D+00
 FoFJK:  IHMeth= 1 ICntrl=     0 DoSepK=T KAlg= 1 I1Cent= 0 FoldK=F
 E= -2753.40952172016     Delta-E=       -0.000001409623 Rises=F Damp=F
 DIIS: error= 1.66D-06 at cycle   6 NSaved=   6.
 NSaved= 6 IEnMin= 6 EnMin= -2753.40952172016     IErMin= 6 ErrMin= 1.66D-06
 ErrMax= 1.66D-06 EMaxC= 1.00D-01 BMatC= 1.01D-09 BMatP= 4.98D-07
 IDIUse=1 WtCom= 1.00D+00 WtEn= 0.00D+00
 Coeff-Com:  0.247D-04 0.103D-03-0.332D-03 0.122D-01-0.116D+00 0.110D+01
 Coeff:      0.247D-04 0.103D-03-0.332D-03 0.122D-01-0.116D+00 0.110D+01
 Gap=     0.580 Goal=   None    Shift=    0.000
 RMSDP=5.41D-07 MaxDP=2.37D-05 DE=-1.41D-06 OVMax= 2.39D-05

 Cycle   7  Pass 1  IDiag  1:
 RMSU=  6.27D-08    CP:  1.03D+00  6.61D-01  9.88D-01  1.10D+00  1.21D+00
                    CP:  1.13D+00
 FoFJK:  IHMeth= 1 ICntrl=     0 DoSepK=T KAlg= 1 I1Cent= 0 FoldK=F
 E= -2753.40952172093     Delta-E=       -0.000000000764 Rises=F Damp=F
 DIIS: error= 1.47D-07 at cycle   7 NSaved=   7.
 NSaved= 7 IEnMin= 7 EnMin= -2753.40952172093     IErMin= 7 ErrMin= 1.47D-07
 ErrMax= 1.47D-07 EMaxC= 1.00D-01 BMatC= 1.08D-11 BMatP= 1.01D-09
 IDIUse=1 WtCom= 1.00D+00 WtEn= 0.00D+00
 Coeff-Com:  0.278D-05 0.332D-05-0.317D-04 0.654D-03-0.320D-02-0.156D-01
 Coeff-Com:  0.102D+01
 Coeff:      0.278D-05 0.332D-05-0.317D-04 0.654D-03-0.320D-02-0.156D-01
 Coeff:      0.102D+01
 Gap=     0.580 Goal=   None    Shift=    0.000
 RMSDP=2.36D-08 MaxDP=1.03D-06 DE=-7.64D-10 OVMax= 1.29D-06

 Cycle   8  Pass 1  IDiag  1:
 RMSU=  9.41D-09    CP:  1.03D+00  6.61D-01  9.88D-01  1.10D+00  1.21D+00
                    CP:  1.14D+00  1.14D+00
 FoFJK:  IHMeth= 1 ICntrl=     0 DoSepK=T KAlg= 1 I1Cent= 0 FoldK=F
 E= -2753.40952172099     Delta-E=       -0.000000000066 Rises=F Damp=F
 DIIS: error= 4.78D-08 at cycle   8 NSaved=   8.
 NSaved= 8 IEnMin= 8 EnMin= -2753.40952172099     IErMin= 8 ErrMin= 4.78D-08
 ErrMax= 4.78D-08 EMaxC= 1.00D-01 BMatC= 4.21D-13 BMatP= 1.08D-11
 IDIUse=1 WtCom= 1.00D+00 WtEn= 0.00D+00
 Coeff-Com:  0.842D-07-0.189D-05 0.199D-05-0.206D-03 0.235D-02-0.275D-01
 Coeff-Com:  0.113D+00 0.912D+00
 Coeff:      0.842D-07-0.189D-05 0.199D-05-0.206D-03 0.235D-02-0.275D-01
 Coeff:      0.113D+00 0.912D+00
 Gap=     0.580 Goal=   None    Shift=    0.000
 RMSDP=4.71D-09 MaxDP=1.49D-07 DE=-6.64D-11 OVMax= 3.26D-07

 SCF Done:  E(RLC-B+HF-LYP) =  -2753.40952172     A.U. after    8 cycles
             Convg  =    0.4709D-08             -V/T =  2.0014
 KE= 2.749635488368D+03 PE=-6.579423128858D+03 EE= 1.076378118769D+03
 Leave Link  502 at Mon May 11 18:10:31 2020, MaxMem= 1073741824 cpu:     186.3
 (Enter /home/matheus/.gaussian/g09/l601.exe)
 Copying SCF densities to generalized density rwf, IOpCl= 0 IROHF=0.

 **********************************************************************

            Population analysis using the SCF density.

 **********************************************************************

 Orbital symmetries:
       Occupied  (A) (A) (A) (A) (A) (A) (A) (A) (A) (A) (A) (A)
                 (A) (A) (A) (A) (A) (A)
       Virtual   (A) (A) (A) (A) (A) (A) (A) (A) (A) (A) (A) (A)
                 (A) (A) (A) (A) (A) (A) (A) (A) (A) (A) (A) (A)
                 (A) (A) (A) (A) (A) (A) (A) (A) (A) (A) (A) (A)
                 (A) (A) (A) (A) (A) (A) (A) (A) (A) (A) (A) (A)
                 (A) (A) (A) (A) (A) (A) (A) (A) (A) (A) (A) (A)
                 (A) (A) (A) (A) (A) (A) (A) (A) (A) (A) (A) (A)
                 (A) (A) (A) (A) (A) (A) (A) (A) (A) (A) (A) (A)
                 (A) (A) (A) (A) (A) (A) (A) (A) (A) (A) (A) (A)
                 (A) (A) (A) (A) (A) (A) (A) (A) (A) (A) (A) (A)
                 (A) (A) (A) (A) (A) (A) (A) (A) (A) (A) (A) (A)
                 (A) (A) (A) (A) (A) (A) (A) (A) (A) (A) (A) (A)
                 (A) (A) (A) (A) (A) (A) (A) (A) (A) (A) (A) (A)
                 (A) (A) (A) (A) (A) (A) (A) (A) (A) (A) (A) (A)
                 (A) (A) (A) (A) (A) (A) (A) (A) (A) (A) (A) (A)
                 (A) (A) (A) (A) (A) (A) (A) (A) (A) (A) (A)
 The electronic state is 1-A.
 Alpha  occ. eigenvalues -- -511.65510 -67.17992 -60.85189 -60.85186 -60.85185
 Alpha  occ. eigenvalues --  -10.08107  -7.79670  -7.79669  -7.79669  -3.62633
 Alpha  occ. eigenvalues --   -3.62633  -3.62633  -3.62632  -3.62632  -1.17384
 Alpha  occ. eigenvalues --   -0.55371  -0.55367  -0.55365
 Alpha virt. eigenvalues --    0.02592   0.04667   0.07799   0.09223   0.10294
 Alpha virt. eigenvalues --    0.11703   0.12651   0.13974   0.16114   0.16714
 Alpha virt. eigenvalues --    0.17461   0.19226   0.20637   0.25863   0.26959
 Alpha virt. eigenvalues --    0.27591   0.28238   0.32892   0.33842   0.35539
 Alpha virt. eigenvalues --    0.36103   0.37106   0.37541   0.39375   0.41567
 Alpha virt. eigenvalues --    0.42701   0.43629   0.54757   0.56064   0.58781
 Alpha virt. eigenvalues --    0.60027   0.65997   0.67126   0.69638   0.70989
 Alpha virt. eigenvalues --    0.75446   0.76596   0.77851   0.79236   0.80413
 Alpha virt. eigenvalues --    0.82419   0.82856   0.84816   0.85899   0.86521
 Alpha virt. eigenvalues --    0.87887   0.89006   0.89885   0.93756   0.95541
 Alpha virt. eigenvalues --    0.98863   1.00312   1.02736   1.04180   1.06623
 Alpha virt. eigenvalues --    1.08185   1.11065   1.12230   1.14688   1.14953
 Alpha virt. eigenvalues --    1.16861   1.20537   1.22549   1.26888   1.28093
 Alpha virt. eigenvalues --    1.34868   1.36288   1.43199   1.47248   1.48723
 Alpha virt. eigenvalues --    1.59433   1.62885   1.67186   1.75185   1.76369
 Alpha virt. eigenvalues --    1.82559   1.86330   1.86997   1.89718   2.24952
 Alpha virt. eigenvalues --    2.29354   2.31961   2.33047   2.34437   2.36841
 Alpha virt. eigenvalues --    2.38896   2.42239   2.45028   2.46184   2.47161
 Alpha virt. eigenvalues --    2.48259   2.52494   2.52864   2.55202   2.55857
 Alpha virt. eigenvalues --    2.58209   2.60519   2.62062   2.64196   2.64786
 Alpha virt. eigenvalues --    2.66195   2.66897   2.69108   2.73075   2.73692
 Alpha virt. eigenvalues --    2.77053   2.79574   2.84196   2.88898   2.89555
 Alpha virt. eigenvalues --    2.93346   3.01300   3.07180   3.11772   3.14333
 Alpha virt. eigenvalues --    3.22804   3.27415   3.30065   3.36541   3.52526
 Alpha virt. eigenvalues --    3.59565   3.64324   3.83676   3.86698   4.02746
 Alpha virt. eigenvalues --    4.44494   4.45495   4.53453   4.58863   4.60842
 Alpha virt. eigenvalues --    4.72674   4.88725   4.89068   4.94534   5.06130
 Alpha virt. eigenvalues --    5.11700   5.14492   5.58247   5.66443   5.88574
 Alpha virt. eigenvalues --    5.90345   5.94591   6.17715   6.83202   6.89382
 Alpha virt. eigenvalues --    7.27210   7.40598   7.60960   7.64210   7.71919
 Alpha virt. eigenvalues --    7.80221   8.06418   8.09460   8.16775   8.23617
 Alpha virt. eigenvalues --    8.34620   8.37643   8.66958   8.89068   9.62457
 Alpha virt. eigenvalues --    9.69817   9.77044   9.85013   9.95956  10.04567
 Alpha virt. eigenvalues --   10.16462  10.22048  10.48406  10.92612  11.44406
 Alpha virt. eigenvalues --   11.55995  11.61454  12.02535  12.10460  13.21709
 Alpha virt. eigenvalues --   13.66549  14.52524  62.87244  64.52675
          Condensed to atoms (all electrons):
              1          2          3          4          5
     1  O    0.003397  -0.003136  -0.001497   0.001692  -0.010494
     2  O   -0.003136   0.007343   0.001103  -0.004427  -0.004419
     3  H   -0.001497   0.001103   0.000832  -0.000519   0.001842
     4  H    0.001692  -0.004427  -0.000519   0.004182  -0.021587
     5  Kr  -0.010494  -0.004419   0.001842  -0.021587  36.067129
 Mulliken atomic charges:
              1
     1  O    0.010038
     2  O    0.003536
     3  H   -0.001760
     4  H    0.020659
     5  Kr  -0.032473
 Sum of Mulliken atomic charges =   0.00000
 Mulliken charges with hydrogens summed into heavy atoms:
              1
     1  O    0.008277
     2  O    0.024195
     5  Kr  -0.032473
 Sum of Mulliken charges with hydrogens summed into heavy atoms =   0.00000
          Condensed to fragments (all electrons):
     1       0.032473
     2      -0.032473
 Electronic spatial extent (au):  <R**2>=            167.4939
 Charge=              0.0000 electrons
 Dipole moment (field-independent basis, Debye):
    X=             -0.0016    Y=              0.0008    Z=              0.0000  Tot=              0.0018
 Quadrupole moment (field-independent basis, Debye-Ang):
   XX=            -17.5643   YY=            -17.5736   ZZ=            -17.5807
   XY=             -0.0047   XZ=              0.0000   YZ=              0.0002
 Traceless Quadrupole moment (field-independent basis, Debye-Ang):
   XX=              0.0086   YY=             -0.0007   ZZ=             -0.0078
   XY=             -0.0047   XZ=              0.0000   YZ=              0.0002
 Octapole moment (field-independent basis, Debye-Ang**2):
  XXX=            -52.6311  YYY=              0.9794  ZZZ=             -0.1007  XYY=            -17.5551
  XXY=              0.3150  XXZ=             -0.0339  XZZ=            -17.5593  YZZ=              0.3268
  YYZ=             -0.0332  XYZ=              0.0003
 Hexadecapole moment (field-independent basis, Debye-Ang**3):
 XXXX=           -123.1979 YYYY=            -18.1117 ZZZZ=            -18.1011 XXXY=              0.9495
 XXXZ=             -0.1015 YYYX=              0.9602 YYYZ=              0.0015 ZZZX=             -0.1007
 ZZZY=              0.0025 XXYY=            -23.5606 XXZZ=            -23.5620 YYZZ=             -6.0324
 XXYZ=              0.0007 YYXZ=             -0.0337 ZZXY=              0.3191
 N-N= 0.000000000000D+00 E-N=-6.579423121743D+03  KE= 2.749635488368D+03
 No NMR shielding tensors so no spin-rotation constants.
 Leave Link  601 at Mon May 11 18:10:31 2020, MaxMem= 1073741824 cpu:       0.7
 (Enter /home/matheus/.gaussian/g09/l122.exe)
 Counterpoise: doing MCBS calculation for fragment   1
 Leave Link  122 at Mon May 11 18:10:31 2020, MaxMem= 1073741824 cpu:       0.0
 (Enter /home/matheus/.gaussian/g09/l301.exe)
 Basis read from rwf:  (5D, 7F)
 No pseudopotential information found on rwf file.
 There are   138 symmetry adapted basis functions of A   symmetry.
 Integral buffers will be    131072 words long.
 Raffenetti 2 integral format.
 Two-electron integral symmetry is turned on.
   138 basis functions,   198 primitive gaussians,   160 cartesian basis functions
     9 alpha electrons        9 beta electrons
       nuclear repulsion energy        36.6019262901 Hartrees.
 IExCor=10402 DFT=T Ex=LC-B+HF Corr=LYP ExCW=0 ScaHFX=  1.000000
[...]

 Cycle   2  Pass 1  IDiag  1:
 RMSU=  1.52D-05    CP:  1.00D+00
 FoFJK:  IHMeth= 1 ICntrl=     0 DoSepK=T KAlg= 1 I1Cent= 0 FoldK=F
 E= -2753.40937618958     Delta-E=       -0.000000711400 Rises=F Damp=F
 DIIS: error= 3.79D-06 at cycle   2 NSaved=   2.
 NSaved= 2 IEnMin= 2 EnMin= -2753.40937618958     IErMin= 2 ErrMin= 3.79D-06
 ErrMax= 3.79D-06 EMaxC= 1.00D-01 BMatC= 4.64D-09 BMatP= 6.06D-06
 IDIUse=1 WtCom= 1.00D+00 WtEn= 0.00D+00
 Coeff-Com: -0.861D-02 0.101D+01
 Coeff:     -0.861D-02 0.101D+01
 Gap=     0.580 Goal=   None    Shift=    0.000
 RMSDP=1.91D-06 MaxDP=7.36D-05 DE=-7.11D-07 OVMax= 5.18D-05

 Cycle   3  Pass 1  IDiag  1:
 RMSU=  6.07D-07    CP:  1.00D+00  1.08D+00
 FoFJK:  IHMeth= 1 ICntrl=     0 DoSepK=T KAlg= 1 I1Cent= 0 FoldK=F
 E= -2753.40937619810     Delta-E=       -0.000000008520 Rises=F Damp=F
 DIIS: error= 5.94D-07 at cycle   3 NSaved=   3.
 NSaved= 3 IEnMin= 3 EnMin= -2753.40937619810     IErMin= 3 ErrMin= 5.94D-07
 ErrMax= 5.94D-07 EMaxC= 1.00D-01 BMatC= 1.09D-10 BMatP= 4.64D-09
 IDIUse=1 WtCom= 1.00D+00 WtEn= 0.00D+00
 Coeff-Com:  0.498D-03-0.141D+00 0.114D+01
 Coeff:      0.498D-03-0.141D+00 0.114D+01
 Gap=     0.580 Goal=   None    Shift=    0.000
 RMSDP=2.19D-07 MaxDP=7.58D-06 DE=-8.52D-09 OVMax= 1.04D-05

 Cycle   4  Pass 1  IDiag  1:
 RMSU=  6.05D-08    CP:  1.00D+00  1.09D+00  1.18D+00
 FoFJK:  IHMeth= 1 ICntrl=     0 DoSepK=T KAlg= 1 I1Cent= 0 FoldK=F
 E= -2753.40937619841     Delta-E=       -0.000000000308 Rises=F Damp=F
 DIIS: error= 2.09D-07 at cycle   4 NSaved=   4.
 NSaved= 4 IEnMin= 4 EnMin= -2753.40937619841     IErMin= 4 ErrMin= 2.09D-07
 ErrMax= 2.09D-07 EMaxC= 1.00D-01 BMatC= 4.46D-12 BMatP= 1.09D-10
 IDIUse=1 WtCom= 1.00D+00 WtEn= 0.00D+00
 Coeff-Com:  0.160D-03-0.297D-01 0.161D+00 0.868D+00
 Coeff:      0.160D-03-0.297D-01 0.161D+00 0.868D+00
 Gap=     0.580 Goal=   None    Shift=    0.000
 RMSDP=1.96D-08 MaxDP=1.04D-06 DE=-3.08D-10 OVMax= 8.27D-07

 Cycle   5  Pass 1  IDiag  1:
 RMSU=  6.31D-09    CP:  1.00D+00  1.08D+00  1.19D+00  1.15D+00
 FoFJK:  IHMeth= 1 ICntrl=     0 DoSepK=T KAlg= 1 I1Cent= 0 FoldK=F
 E= -2753.40937619844     Delta-E=       -0.000000000035 Rises=F Damp=F
 DIIS: error= 5.17D-08 at cycle   5 NSaved=   5.
 NSaved= 5 IEnMin= 5 EnMin= -2753.40937619844     IErMin= 5 ErrMin= 5.17D-08
 ErrMax= 5.17D-08 EMaxC= 1.00D-01 BMatC= 3.51D-13 BMatP= 4.46D-12
 IDIUse=1 WtCom= 1.00D+00 WtEn= 0.00D+00
 Coeff-Com: -0.343D-04 0.953D-02-0.791D-01 0.298D-01 0.104D+01
 Coeff:     -0.343D-04 0.953D-02-0.791D-01 0.298D-01 0.104D+01
 Gap=     0.580 Goal=   None    Shift=    0.000
 RMSDP=7.78D-09 MaxDP=4.47D-07 DE=-3.55D-11 OVMax= 4.31D-07

 SCF Done:  E(RLC-B+HF-LYP) =  -2753.40937620     A.U. after    5 cycles
             Convg  =    0.7785D-08             -V/T =  2.0014
 KE= 2.749687302108D+03 PE=-6.579480092613D+03 EE= 1.076383414307D+03
 Leave Link  502 at Mon May 11 18:31:27 2020, MaxMem= 1073741824 cpu:      87.1
 (Enter /home/matheus/.gaussian/g09/l122.exe)
 Restoring MOs from calculation   4 to rwf.
 Counterpoise: doing MCBS calculation for fragment   1
 Leave Link  122 at Mon May 11 18:31:27 2020, MaxMem= 1073741824 cpu:       0.0
 (Enter /home/matheus/.gaussian/g09/l301.exe)
 Basis read from rwf:  (5D, 7F)
 No pseudopotential information found on rwf file.
 There are   138 symmetry adapted basis functions of A   symmetry.
 Integral buffers will be    131072 words long.
 Raffenetti 2 integral format.
 Two-electron integral symmetry is turned on.
   138 basis functions,   198 primitive gaussians,   160 cartesian basis functions
     9 alpha electrons        9 beta electrons
       nuclear repulsion energy        36.6019262901 Hartrees.
 IExCor=10402 DFT=T Ex=LC-B+HF Corr=LYP ExCW=0 ScaHFX=  1.000000
 ScaDFX=  1.000000  1.000000  1.000000  1.000000 ScalE2=  1.000000  1.000000
 IRadAn=      5 IRanWt=     -1 IRanGd=            0 ICorTp=0
  HFx wShort=  0.000000 wLong=  1.350000 cFull=  0.000000 cShort=  0.000000 cLong=  1.000000
  DFx wShort=  0.000000 wLong=  1.350000 cFull=  0.000000 cShort=  0.000000 cLong=  1.000000
 NAtoms=    5 NActive=    4 NUniq=    4 SFac= 1.00D+00 NAtFMM=   60 NAOKFM=F Big=F
 No density basis found on file   718.
 Leave Link  301 at Mon May 11 18:31:27 2020, MaxMem= 1073741824 cpu:       0.2
 (Enter /home/matheus/.gaussian/g09/l302.exe)
 NPDir=0 NMtPBC=     1 NCelOv=     1 NCel=       1 NClECP=     1 NCelD=      1
         NCelK=      1 NCelE2=     1 NClLst=     1 CellRange=     0.0.
 One-electron integrals computed using PRISM.
 NBasis=   138 RedAO= T  NBF=   138
 NBsUse=   138 1.00D-06 NBFU=   138
 Precomputing XC quadrature grid using
 IXCGrd= 2 IRadAn=           5 IRanWt=          -1 IRanGd=           0 AccXCQ= 0.00D+00.
 NRdTot=     344 NPtTot=       92556 NUsed=       95038 NTot=       95070
 NSgBfM=   160   160   160   160   160 NAtAll=     4     4.
 Leave Link  302 at Mon May 11 18:31:28 2020, MaxMem= 1073741824 cpu:       0.8
 (Enter /home/matheus/.gaussian/g09/l303.exe)
 DipDrv:  MaxL=1.
 Leave Link  303 at Mon May 11 18:31:28 2020, MaxMem= 1073741824 cpu:       0.2
 (Enter /home/matheus/.gaussian/g09/l401.exe)
 Initial guess read from the read-write file.
 Guess basis will be translated and rotated to current coordinates.
 Initial guess orbital symmetries:
       Occupied  (A) (A) (A) (A) (A) (A) (A) (A) (A)
       Virtual   (A) (A) (A) (A) (A) (A) (A) (A) (A) (A) (A) (A)
                 (A) (A) (A) (A) (A) (A) (A) (A) (A) (A) (A) (A)
                 (A) (A) (A) (A) (A) (A) (A) (A) (A) (A) (A) (A)
                 (A) (A) (A) (A) (A) (A) (A) (A) (A) (A) (A) (A)
                 (A) (A) (A) (A) (A) (A) (A) (A) (A) (A) (A) (A)
                 (A) (A) (A) (A) (A) (A) (A) (A) (A) (A) (A) (A)
                 (A) (A) (A) (A) (A) (A) (A) (A) (A) (A) (A) (A)
                 (A) (A) (A) (A) (A) (A) (A) (A) (A) (A) (A) (A)
                 (A) (A) (A) (A) (A) (A) (A) (A) (A) (A) (A) (A)
                 (A) (A) (A) (A) (A) (A) (A) (A) (A) (A) (A) (A)
                 (A) (A) (A) (A) (A) (A) (A) (A) (A)
 The electronic state of the initial guess is 1-A.
 Generating alternative initial guess.
 Harris functional with IExCor=10402 diagonalized for initial guess.
 ExpMin= 2.53D-02 ExpMax= 1.53D+04 ExpMxC= 5.22D+02 IAcc=3 IRadAn=         5 AccDes= 0.00D+00
 HarFok:  IExCor=10402 AccDes= 0.00D+00 IRadAn=         5 IDoV= 1
 ScaDFX=  1.000000  1.000000  1.000000  1.000000
 FoFCou: FMM=F IPFlag=           0 FMFlag=      100000 FMFlg1=           0
         NFxFlg=           0 DoJE=T BraDBF=F KetDBF=T FulRan=T
         Omega=  0.000000  0.000000  1.000000  0.000000  0.000000 ICntrl=     500 IOpCl=  0
         NMat0=    1 NMatS0=    1 NMatT0=    0 NMatD0=    1 NMtDS0=    0 NMtDT0=    0
         I1Cent=           4 NGrid=           0.
 Petite list used in FoFCou.
 Harris En= -143.231713809318    
 Leave Link  401 at Mon May 11 18:31:28 2020, MaxMem= 1073741824 cpu:       2.4
 (Enter /home/matheus/.gaussian/g09/l502.exe)
 Closed shell SCF:
 Requested convergence on RMS density matrix=1.00D-08 within 128 cycles.
 Requested convergence on MAX density matrix=1.00D-06.
 Requested convergence on             energy=1.00D-06.
 No special actions if energy rises.
 Using DIIS extrapolation, IDIIS=  1040.
 Integral symmetry usage will be decided dynamically.
        94980 words used for storage of precomputed grid.
 IEnd=      192360 IEndB=      192360 NGot=  1073741824 MDV=  1073591865
 LenX=  1073591865 LenY=  1073565824
 Fock matrices will be formed incrementally for  20 cycles.

 Cycle   1  Pass 1  IDiag  1:
 FoFJK:  IHMeth= 1 ICntrl=     0 DoSepK=T KAlg= 1 I1Cent= 0 FoldK=F
 FoFCou: FMM=F IPFlag=           0 FMFlag=      100000 FMFlg1=           0
         NFxFlg=           0 DoJE=T BraDBF=F KetDBF=F FulRan=T
         Omega=  0.000000  0.000000  1.000000  0.000000  0.000000 ICntrl=     500 IOpCl=  0
         NMat0=    1 NMatS0=    1 NMatT0=    0 NMatD0=    1 NMtDS0=    0 NMtDT0=    0
         I1Cent=           0 NGrid=           0.
 Symmetry not used in FoFCou.
 E= -151.211006240862    
 DIIS: error= 2.25D-05 at cycle   1 NSaved=   1.
 NSaved= 1 IEnMin= 1 EnMin= -151.211006240862     IErMin= 1 ErrMin= 2.25D-05
 ErrMax= 2.25D-05 EMaxC= 1.00D-01 BMatC= 4.15D-08 BMatP= 4.15D-08
 IDIUse=1 WtCom= 1.00D+00 WtEn= 0.00D+00
 Coeff-Com:  0.100D+01
 Coeff:      0.100D+01
 Gap=     0.514 Goal=   None    Shift=    0.000
 RMSDP=1.00D-06 MaxDP=1.94D-05              OVMax= 7.60D-05

 Cycle   2  Pass 1  IDiag  1:
 RMSU=  7.09D-07    CP:  1.00D+00
 FoFJK:  IHMeth= 1 ICntrl=     0 DoSepK=T KAlg= 1 I1Cent= 0 FoldK=F
 E= -151.211006283776     Delta-E=       -0.000000042914 Rises=F Damp=F
 DIIS: error= 5.82D-06 at cycle   2 NSaved=   2.
 NSaved= 2 IEnMin= 2 EnMin= -151.211006283776     IErMin= 2 ErrMin= 5.82D-06
 ErrMax= 5.82D-06 EMaxC= 1.00D-01 BMatC= 2.61D-09 BMatP= 4.15D-08
 IDIUse=1 WtCom= 1.00D+00 WtEn= 0.00D+00
 Coeff-Com: -0.220D+00 0.122D+01
 Coeff:     -0.220D+00 0.122D+01
 Gap=     0.514 Goal=   None    Shift=    0.000
 RMSDP=4.14D-07 MaxDP=7.74D-06 DE=-4.29D-08 OVMax= 4.05D-05

 Cycle   3  Pass 1  IDiag  1:
 RMSU=  1.72D-07    CP:  1.00D+00  1.33D+00
 FoFJK:  IHMeth= 1 ICntrl=     0 DoSepK=T KAlg= 1 I1Cent= 0 FoldK=F
 E= -151.211006289419     Delta-E=       -0.000000005643 Rises=F Damp=F
 DIIS: error= 1.62D-06 at cycle   3 NSaved=   3.
 NSaved= 3 IEnMin= 3 EnMin= -151.211006289419     IErMin= 3 ErrMin= 1.62D-06
 ErrMax= 1.62D-06 EMaxC= 1.00D-01 BMatC= 2.04D-10 BMatP= 2.61D-09
 IDIUse=1 WtCom= 1.00D+00 WtEn= 0.00D+00
 Coeff-Com:  0.186D-01-0.294D+00 0.128D+01
 Coeff:      0.186D-01-0.294D+00 0.128D+01
 Gap=     0.514 Goal=   None    Shift=    0.000
 RMSDP=1.58D-07 MaxDP=3.45D-06 DE=-5.64D-09 OVMax= 1.64D-05

 Cycle   4  Pass 1  IDiag  1:
 RMSU=  3.84D-08    CP:  1.00D+00  1.42D+00  1.49D+00
 FoFJK:  IHMeth= 1 ICntrl=     0 DoSepK=T KAlg= 1 I1Cent= 0 FoldK=F
 E= -151.211006289971     Delta-E=       -0.000000000552 Rises=F Damp=F
 DIIS: error= 5.13D-07 at cycle   4 NSaved=   4.
 NSaved= 4 IEnMin= 4 EnMin= -151.211006289971     IErMin= 4 ErrMin= 5.13D-07
 ErrMax= 5.13D-07 EMaxC= 1.00D-01 BMatC= 3.50D-11 BMatP= 2.04D-10
 IDIUse=1 WtCom= 1.00D+00 WtEn= 0.00D+00
 Coeff-Com:  0.229D-01-0.181D+00 0.308D+00 0.850D+00
 Coeff:      0.229D-01-0.181D+00 0.308D+00 0.850D+00
 Gap=     0.514 Goal=   None    Shift=    0.000
 RMSDP=4.41D-08 MaxDP=1.29D-06 DE=-5.52D-10 OVMax= 4.09D-06

 Cycle   5  Pass 1  IDiag  1:
 RMSU=  1.62D-08    CP:  1.00D+00  1.44D+00  1.63D+00  1.03D+00
 FoFJK:  IHMeth= 1 ICntrl=     0 DoSepK=T KAlg= 1 I1Cent= 0 FoldK=F
 E= -151.211006290051     Delta-E=       -0.000000000080 Rises=F Damp=F
 DIIS: error= 1.64D-07 at cycle   5 NSaved=   5.
 NSaved= 5 IEnMin= 5 EnMin= -151.211006290051     IErMin= 5 ErrMin= 1.64D-07
 ErrMax= 1.64D-07 EMaxC= 1.00D-01 BMatC= 3.94D-12 BMatP= 3.50D-11
 IDIUse=1 WtCom= 1.00D+00 WtEn= 0.00D+00
 Coeff-Com: -0.405D-03 0.237D-01-0.152D+00 0.962D-01 0.103D+01
 Coeff:     -0.405D-03 0.237D-01-0.152D+00 0.962D-01 0.103D+01
 Gap=     0.514 Goal=   None    Shift=    0.000
 RMSDP=1.81D-08 MaxDP=3.07D-07 DE=-7.99D-11 OVMax= 1.53D-06

 Cycle   6  Pass 1  IDiag  1:
 RMSU=  6.13D-09    CP:  1.00D+00  1.44D+00  1.67D+00  1.20D+00  1.25D+00
 FoFJK:  IHMeth= 1 ICntrl=     0 DoSepK=T KAlg= 1 I1Cent= 0 FoldK=F
 E= -151.211006290059     Delta-E=       -0.000000000008 Rises=F Damp=F
 DIIS: error= 5.98D-08 at cycle   6 NSaved=   6.
 NSaved= 6 IEnMin= 6 EnMin= -151.211006290059     IErMin= 6 ErrMin= 5.98D-08
 ErrMax= 5.98D-08 EMaxC= 1.00D-01 BMatC= 6.69D-13 BMatP= 3.94D-12
 IDIUse=1 WtCom= 1.00D+00 WtEn= 0.00D+00
 Coeff-Com: -0.204D-02 0.226D-01-0.702D-01-0.471D-01 0.300D+00 0.797D+00
 Coeff:     -0.204D-02 0.226D-01-0.702D-01-0.471D-01 0.300D+00 0.797D+00
 Gap=     0.514 Goal=   None    Shift=    0.000
 RMSDP=5.67D-09 MaxDP=8.35D-08 DE=-8.24D-12 OVMax= 5.08D-07

 SCF Done:  E(RLC-B+HF-LYP) =  -151.211006290     A.U. after    6 cycles
             Convg  =    0.5673D-08             -V/T =  2.0063
 KE= 1.502619675596D+02 PE=-4.315426733537D+02 EE= 9.346777321391D+01
 Leave Link  502 at Mon May 11 18:31:33 2020, MaxMem= 1073741824 cpu:      43.7
 (Enter /home/matheus/.gaussian/g09/l122.exe)
 Restoring MOs from calculation   5 to rwf.
 Counterpoise: doing MCBS calculation for fragment   2
 Leave Link  122 at Mon May 11 18:31:33 2020, MaxMem= 1073741824 cpu:       0.0
 (Enter /home/matheus/.gaussian/g09/l301.exe)
 Basis read from rwf:  (5D, 7F)
 No pseudopotential information found on rwf file.
 There are    59 symmetry adapted basis functions of A   symmetry.
 Integral buffers will be    131072 words long.
 Raffenetti 2 integral format.
 Two-electron integral symmetry is turned on.
    59 basis functions,   217 primitive gaussians,    69 cartesian basis functions
    18 alpha electrons       18 beta electrons
       nuclear repulsion energy         0.0000000000 Hartrees.
 IExCor=10402 DFT=T Ex=LC-B+HF Corr=LYP ExCW=0 ScaHFX=  1.000000
 ScaDFX=  1.000000  1.000000  1.000000  1.000000 ScalE2=  1.000000  1.000000
 IRadAn=      5 IRanWt=     -1 IRanGd=            0 ICorTp=0
  HFx wShort=  0.000000 wLong=  1.350000 cFull=  0.000000 cShort=  0.000000 cLong=  1.000000
  DFx wShort=  0.000000 wLong=  1.350000 cFull=  0.000000 cShort=  0.000000 cLong=  1.000000
 NAtoms=    5 NActive=    1 NUniq=    1 SFac= 1.00D+00 NAtFMM=   60 NAOKFM=F Big=F
 No density basis found on file   718.
 Leave Link  301 at Mon May 11 18:31:33 2020, MaxMem= 1073741824 cpu:       0.2
 (Enter /home/matheus/.gaussian/g09/l302.exe)
 NPDir=0 NMtPBC=     1 NCelOv=     1 NCel=       1 NClECP=     1 NCelD=      1
         NCelK=      1 NCelE2=     1 NClLst=     1 CellRange=     0.0.
 One-electron integrals computed using PRISM.
 NBasis=    59 RedAO= T  NBF=    59
 NBsUse=    59 1.00D-06 NBFU=    59
 Precomputing XC quadrature grid using
 IXCGrd= 2 IRadAn=           5 IRanWt=          -1 IRanGd=           0 AccXCQ= 0.00D+00.
 NRdTot=      81 NPtTot=       30352 NUsed=       30981 NTot=       31013
 NSgBfM=    69    69    69    69    69 NAtAll=     1     1.
 Leave Link  302 at Mon May 11 18:31:34 2020, MaxMem= 1073741824 cpu:       0.6
 (Enter /home/matheus/.gaussian/g09/l303.exe)
 DipDrv:  MaxL=1.
 Leave Link  303 at Mon May 11 18:31:34 2020, MaxMem= 1073741824 cpu:       0.1
 (Enter /home/matheus/.gaussian/g09/l401.exe)
 Initial guess read from the read-write file.
 Guess basis will be translated and rotated to current coordinates.
 Initial guess orbital symmetries:
       Occupied  (A) (A) (A) (A) (A) (A) (A) (A) (A) (A) (A) (A)
                 (A) (A) (A) (A) (A) (A)
       Virtual   (A) (A) (A) (A) (A) (A) (A) (A) (A) (A) (A) (A)
                 (A) (A) (A) (A) (A) (A) (A) (A) (A) (A) (A) (A)
                 (A) (A) (A) (A) (A) (A) (A) (A) (A) (A) (A) (A)
                 (A) (A) (A) (A) (A)
 The electronic state of the initial guess is 1-A.
 Generating alternative initial guess.
 Harris functional with IExCor=10402 diagonalized for initial guess.
 ExpMin= 4.00D-02 ExpMax= 1.17D+07 ExpMxC= 1.33D+04 IAcc=3 IRadAn=         5 AccDes= 0.00D+00
 HarFok:  IExCor=10402 AccDes= 0.00D+00 IRadAn=         5 IDoV= 1
 ScaDFX=  1.000000  1.000000  1.000000  1.000000
 FoFCou: FMM=F IPFlag=           0 FMFlag=      100000 FMFlg1=           0
         NFxFlg=           0 DoJE=T BraDBF=F KetDBF=T FulRan=T
         Omega=  0.000000  0.000000  1.000000  0.000000  0.000000 ICntrl=     500 IOpCl=  0
         NMat0=    1 NMatS0=    1 NMatT0=    0 NMatD0=    1 NMtDS0=    0 NMtDT0=    0
         I1Cent=           4 NGrid=           0.
 Petite list used in FoFCou.
 Harris En= -2731.73388500824    
 Leave Link  401 at Mon May 11 18:31:34 2020, MaxMem= 1073741824 cpu:       1.0
 (Enter /home/matheus/.gaussian/g09/l502.exe)
 Closed shell SCF:
 Requested convergence on RMS density matrix=1.00D-08 within 128 cycles.
 Requested convergence on MAX density matrix=1.00D-06.
 Requested convergence on             energy=1.00D-06.
 No special actions if energy rises.
 Using DIIS extrapolation, IDIIS=  1040.
 Integral symmetry usage will be decided dynamically.
        30923 words used for storage of precomputed grid.
 IEnd=       64406 IEndB=       64406 NGot=  1073741824 MDV=  1073698889
 LenX=  1073698889 LenY=  1073693687
 Fock matrices will be formed incrementally for  20 cycles.

 Cycle   1  Pass 1  IDiag  1:
 FoFJK:  IHMeth= 1 ICntrl=     0 DoSepK=T KAlg= 1 I1Cent= 0 FoldK=F
 FoFCou: FMM=F IPFlag=           0 FMFlag=      100000 FMFlg1=           0
         NFxFlg=           0 DoJE=T BraDBF=F KetDBF=F FulRan=T
         Omega=  0.000000  0.000000  1.000000  0.000000  0.000000 ICntrl=     500 IOpCl=  0
         NMat0=    1 NMatS0=    1 NMatT0=    0 NMatD0=    1 NMtDS0=    0 NMtDT0=    0
         I1Cent=           0 NGrid=           0.
 Symmetry not used in FoFCou.
 E= -2753.40934852740    
 DIIS: error= 6.95D-14 at cycle   1 NSaved=   1.
 NSaved= 1 IEnMin= 1 EnMin= -2753.40934852740     IErMin= 1 ErrMin= 6.95D-14
 ErrMax= 6.95D-14 EMaxC= 1.00D-01 BMatC= 1.18D-25 BMatP= 1.18D-25
 IDIUse=1 WtCom= 1.00D+00 WtEn= 0.00D+00
 Coeff-Com:  0.100D+01
 Coeff:      0.100D+01
 Gap=     0.640 Goal=   None    Shift=    0.000
 DSYEVD returned Info=          89 IAlg= 4 N=    59 NDim=    59 NE2=    18198197 trying DSYEV.
 RMSDP=7.37D-15 MaxDP=2.54D-13              OVMax= 3.68D-14

 SCF Done:  E(RLC-B+HF-LYP) =  -2753.40934853     A.U. after    1 cycles
             Convg  =    0.7372D-14             -V/T =  2.0014
 KE= 2.749695852517D+03 PE=-6.579489077514D+03 EE= 1.076383876470D+03
 Leave Link  502 at Mon May 11 18:31:35 2020, MaxMem= 1073741824 cpu:      11.6
 (Enter /home/matheus/.gaussian/g09/l122.exe)
 Restoring MOs from calculation   1 to rwf.
 Counterpoise: corrected energy =   -2904.620413650010
 Counterpoise: BSSE energy =       0.000031360353
 Leave Link  122 at Mon May 11 18:31:35 2020, MaxMem= 1073741824 cpu:       0.0
 (Enter /home/matheus/.gaussian/g09/l108.exe)
 Scan completed.

 Summary of the potential surface scan:
   N      R1          SCF    
 ----  ---------  -----------
    1     3.0000  -2753.40935
    2     3.1000  -2753.40935
    3     3.2000  -2753.40935
    4     3.3000  -2753.40935
    5     3.4000  -2753.40935
    6     3.5000  -2753.40935
    7     3.6000  -2753.40935
    8     3.7000  -2753.40935
    9     3.8000  -2753.40935
   10     3.9000  -2753.40935
   11     4.0000  -2753.40935
   12     4.1000  -2753.40935
   13     4.2000  -2753.40935
   14     4.3000  -2753.40935
   15     4.4000  -2753.40935
   16     4.5000  -2753.40935
   17     4.6000  -2753.40935
   18     4.7000  -2753.40935
   19     4.8000  -2753.40935
   20     4.9000  -2753.40935
   21     5.0000  -2753.40935
 ----  ---------  -----------
  
 Leave Link  108 at Mon May 11 18:31:35 2020, MaxMem= 1073741824 cpu:       0.0
 (Enter /home/matheus/.gaussian/g09/l9999.exe)

 Test job not archived.
 1\1\GINC-REDGIANT\Scan\RLC-BLYP\Aug-CC-pVTZ\H2Kr1O2\MATHEUS\11-May-202
 0\1\\#p lc-blyp/aug-cc-PVTz iop(3/107=1350000000) iop(3/108=1350000000
 ) int=ultrafine counterpoise=2 Scan\\TCC\\0,1\O,0,0.,0.,0.725\O,0,0.,0
 .,-0.725\H,0,-0.3142209495,-0.8633149634,1.0235104166\H,0,0.,0.9187205
 947,-1.0235104166\Kr,0,0.,R1,0.\\R1=3.,s,20,0.1\\Version=EM64L-G09RevC
 .01\State=1-A\HF=-2753.4093485,-2753.4093485,-2753.4093485,-2753.40934
 85,-2753.4093485,-2753.4093485,-2753.4093485,-2753.4093485,-2753.40934
 85,-2753.4093485,-2753.4093485,-2753.4093485,-2753.4093485,-2753.40934
 85,-2753.4093485,-2753.4093485,-2753.4093485,-2753.4093485,-2753.40934
 85,-2753.4093485,-2753.4093485\RMSD=5.461e-09,3.089e-10,7.451e-11,2.03
 6e-11,7.195e-12,3.142e-12,1.452e-12,6.905e-13,3.288e-13,1.530e-13,7.22
 4e-14,3.453e-14,1.569e-14,9.493e-15,9.605e-15,7.010e-15,4.983e-15,4.39
 8e-15,3.653e-15,9.677e-15,7.372e-15\PG=C01 [X(H2Kr1O2)]\\@


 The mind is not a vessel to be filled but a fire to be kindled.
                                  -- Plutarch
 Job cpu time:  0 days  3 hours  2 minutes 14.8 seconds.
 File lengths (MBytes):  RWF=     33 Int=      0 D2E=      0 Chk=      8 Scr=      1
 Normal termination of Gaussian 09 at Mon May 11 18:31:35 2020.
