 Entering Gaussian System, Link 0=g09
 Input=/home/matheus/.tcc/Inputs-DFT/H2O2-Kr_2.com
 Output=/home/matheus/.tcc/Inputs-DFT/H2O2-Kr_2.log
 Initial command:
 /home/matheus/.gaussian/g09/l1.exe /home/matheus/.gaussian/g09/scratch/Gau-31320.inp -scrdir=/home/matheus/.gaussian/g09/scratch/
 Entering Link 1 = /home/matheus/.gaussian/g09/l1.exe PID=     31322.
  
 Copyright (c) 1988,1990,1992,1993,1995,1998,2003,2009,2011,
            Gaussian, Inc.  All Rights Reserved.
  
 This is part of the Gaussian(R) 09 program.  It is based on
 the Gaussian(R) 03 system (copyright 2003, Gaussian, Inc.),
 the Gaussian(R) 98 system (copyright 1998, Gaussian, Inc.),
 the Gaussian(R) 94 system (copyright 1995, Gaussian, Inc.),
 the Gaussian 92(TM) system (copyright 1992, Gaussian, Inc.),
 the Gaussian 90(TM) system (copyright 1990, Gaussian, Inc.),
 the Gaussian 88(TM) system (copyright 1988, Gaussian, Inc.),
 the Gaussian 86(TM) system (copyright 1986, Carnegie Mellon
 University), and the Gaussian 82(TM) system (copyright 1983,
 Carnegie Mellon University). Gaussian is a federally registered
 trademark of Gaussian, Inc.
  
 This software contains proprietary and confidential information,
 including trade secrets, belonging to Gaussian, Inc.
  
 This software is provided under written license and may be
 used, copied, transmitted, or stored only in accord with that
 written license.
  
 The following legend is applicable only to US Government
 contracts under FAR:
  
                    RESTRICTED RIGHTS LEGEND
  
 Use, reproduction and disclosure by the US Government is
 subject to restrictions as set forth in subparagraphs (a)
 and (c) of the Commercial Computer Software - Restricted
 Rights clause in FAR 52.227-19.
  
 Gaussian, Inc.
 340 Quinnipiac St., Bldg. 40, Wallingford CT 06492
  
  
 ---------------------------------------------------------------
 Warning -- This program may not be used in any manner that
 competes with the business of Gaussian, Inc. or will provide
 assistance to any competitor of Gaussian, Inc.  The licensee
 of this program is prohibited from giving any competitor of
 Gaussian, Inc. access to this program.  By using this program,
 the user acknowledges that Gaussian, Inc. is engaged in the
 business of creating and licensing software in the field of
 computational chemistry and represents and warrants to the
 licensee that it is not a competitor of Gaussian, Inc. and that
 it will not use this program in any manner prohibited above.
 ---------------------------------------------------------------
  

 Cite this work as:
 Gaussian 09, Revision C.01,
 M. J. Frisch, G. W. Trucks, H. B. Schlegel, G. E. Scuseria, 
 M. A. Robb, J. R. Cheeseman, G. Scalmani, V. Barone, B. Mennucci, 
 G. A. Petersson, H. Nakatsuji, M. Caricato, X. Li, H. P. Hratchian, 
 A. F. Izmaylov, J. Bloino, G. Zheng, J. L. Sonnenberg, M. Hada, 
 M. Ehara, K. Toyota, R. Fukuda, J. Hasegawa, M. Ishida, T. Nakajima, 
 Y. Honda, O. Kitao, H. Nakai, T. Vreven, J. A. Montgomery, Jr., 
 J. E. Peralta, F. Ogliaro, M. Bearpark, J. J. Heyd, E. Brothers, 
 K. N. Kudin, V. N. Staroverov, T. Keith, R. Kobayashi, J. Normand, 
 K. Raghavachari, A. Rendell, J. C. Burant, S. S. Iyengar, J. Tomasi, 
 M. Cossi, N. Rega, J. M. Millam, M. Klene, J. E. Knox, J. B. Cross, 
 V. Bakken, C. Adamo, J. Jaramillo, R. Gomperts, R. E. Stratmann, 
 O. Yazyev, A. J. Austin, R. Cammi, C. Pomelli, J. W. Ochterski, 
 R. L. Martin, K. Morokuma, V. G. Zakrzewski, G. A. Voth, 
 P. Salvador, J. J. Dannenberg, S. Dapprich, A. D. Daniels, 
 O. Farkas, J. B. Foresman, J. V. Ortiz, J. Cioslowski, 
 and D. J. Fox, Gaussian, Inc., Wallingford CT, 2010.
 
 ******************************************
 Gaussian 09:  EM64L-G09RevC.01 23-Sep-2011
                17-Jan-2020 
 ******************************************
 %mem=4GB
 %nproc=4
 Will use up to    4 processors via shared memory.
 ----------------------------------------------------------------------
 #p wb97xd/aug-cc-PVTz iop(3/107=0330000000) iop(3/108=0330000000) int=
 ultrafine Scan
 ----------------------------------------------------------------------
 1/38=1,60=1/1,8;
 2/12=2,17=6,18=5,29=3,40=1/2;
 3/5=16,6=1,7=10,11=2,16=1,25=1,30=1,74=-58,75=-5,107=330000000,108=330000000/1,2,3;
 4//1;
 5/5=2,38=5/2;
 6/7=2,8=2,9=2,10=2,18=1,28=1/1;
 1/60=1/8(1);
 99/9=1/99;
 2/29=3/2;
 3/5=16,6=1,7=10,11=2,16=1,25=1,30=1,74=-58,75=-5,107=330000000,108=330000000/1,2,3;
 4/5=5,16=3/1;
 5/5=2,38=5/2;
 1/60=1/8(-4);
 99/9=1/99;
 Leave Link    1 at Fri Jan 17 14:10:32 2020, MaxMem=  536870912 cpu:       0.1
 (Enter /home/matheus/.gaussian/g09/l101.exe)
 ----
 PTCC
 ----
 Charge =  0 Multiplicity = 1
 Symbolic Z-Matrix:
 O                     0.        0.        0.725 
 O                     0.        0.       -0.725 
 H                     0.31422   0.86331   1.02351 
 H                     0.        0.91872  -1.02351 
 Kr                    0.       R1        0. 
       Variables:
  R1                    3.     Scan 20    0.1    
 
 NAtoms=      5 NQM=        0 NQMF=       0 NMMI=      5 NMMIF=      0
                NMic=       0 NMicF=      0.
                    Isotopes and Nuclear Properties:
 (Nuclear quadrupole moments (NQMom) in fm**2, nuclear magnetic moments (NMagM)
  in nuclear magnetons)

  Atom         1           2           3           4           5
 IAtWgt=          16          16           1           1          84
 AtmWgt=  15.9949146  15.9949146   1.0078250   1.0078250  83.9115064
 NucSpn=           0           0           1           1           0
 AtZEff=   0.0000000   0.0000000   0.0000000   0.0000000   0.0000000
 NQMom=    0.0000000   0.0000000   0.0000000   0.0000000   0.0000000
 NMagM=    0.0000000   0.0000000   2.7928460   2.7928460   0.0000000
 Leave Link  101 at Fri Jan 17 14:10:32 2020, MaxMem=  536870912 cpu:       0.2
 (Enter /home/matheus/.gaussian/g09/l108.exe)
 Scan the potential surface.
 Variable   Value     No. Steps Step-Size
 -------- ----------- --------- ---------
     1       3.000000      20      0.1000
 A total of     21 points will be computed.
 Leave Link  108 at Fri Jan 17 14:10:32 2020, MaxMem=  536870912 cpu:       0.0
 (Enter /home/matheus/.gaussian/g09/l202.exe)
 ---------------------------------------------------------------------------------------------------
                            Z-MATRIX (ANGSTROMS AND DEGREES)
   CD    Cent   Atom    N1       Length/X        N2       Alpha/Y        N3        Beta/Z          J
 ---------------------------------------------------------------------------------------------------
      1      1  O        0   0.000000          0.000000          0.725000
      2      2  O        0   0.000000          0.000000         -0.725000
      3      3  H        0   0.314221          0.863315          1.023510
      4      4  H        0   0.000000          0.918721         -1.023510
      5      5  Kr       0   0.000000          3.000000          0.000000
 ---------------------------------------------------------------------------------------------------
                         Z-Matrix orientation:                         
 ---------------------------------------------------------------------
 Center     Atomic      Atomic             Coordinates (Angstroms)
 Number     Number       Type             X           Y           Z
 ---------------------------------------------------------------------
      1          8           0        0.000000    0.000000    0.725000
      2          8           0        0.000000    0.000000   -0.725000
      3          1           0        0.314221    0.863315    1.023510
      4          1           0        0.000000    0.918721   -1.023510
      5         36           0        0.000000    3.000000    0.000000
 ---------------------------------------------------------------------
                    Distance matrix (angstroms):
                    1          2          3          4          5
     1  O    0.000000
     2  O    1.450000   0.000000
     3  H    0.966000   1.975180   0.000000
     4  H    1.975180   0.966000   2.071738   0.000000
     5  Kr   3.086361   3.086361   2.389923   2.319331   0.000000
 Stoichiometry    H2KrO2
 Framework group  C1[X(H2KrO2)]
 Deg. of freedom     9
 Full point group                 C1      NOp   1
 Largest Abelian subgroup         C1      NOp   1
 Largest concise Abelian subgroup C1      NOp   1
                         Standard orientation:                         
 ---------------------------------------------------------------------
 Center     Atomic      Atomic             Coordinates (Angstroms)
 Number     Number       Type             X           Y           Z
 ---------------------------------------------------------------------
      1          8           0        2.033423   -0.722971   -0.035434
      2          8           0        2.032510    0.726339    0.009272
      3          1           0        1.171431   -1.031666    0.272517
      4          1           0        1.113607    1.024028    0.021759
      5         36           0       -0.967014   -0.000536   -0.002361
 ---------------------------------------------------------------------
 Rotational constants (GHZ):     26.5652681      2.3862430      2.1913165
 Leave Link  202 at Fri Jan 17 14:10:32 2020, MaxMem=  536870912 cpu:       0.0
 (Enter /home/matheus/.gaussian/g09/l301.exe)
 Standard basis: Aug-CC-pVTZ (5D, 7F)
 Ernie: Thresh=  0.10000D-02 Tol=  0.10000D-05 Strict=F.
 Ernie:  38 primitive shells out of 205 were deleted.
 There are   197 symmetry adapted basis functions of A   symmetry.
 Integral buffers will be    131072 words long.
 Raffenetti 2 integral format.
 Two-electron integral symmetry is turned on.
   197 basis functions,   415 primitive gaussians,   229 cartesian basis functions
    27 alpha electrons       27 beta electrons
       nuclear repulsion energy       151.6075768884 Hartrees.
 IExCor= 4639 DFT=T Ex+Corr=wB97XD ExCW=0 ScaHFX=  1.000000
 ScaDFX=  1.000000  1.000000  1.000000  1.000000 ScalE2=  1.000000  1.000000
 IRadAn=      5 IRanWt=     -1 IRanGd=            0 ICorTp=0
  HFx wShort=  0.000000 wLong=  0.330000 cFull=  0.222036 cShort=  0.000000 cLong=  0.777964
  DFx wShort=  0.000000 wLong=  0.330000 cFull=  0.000000 cShort=  0.000000 cLong=  1.000000
 NAtoms=    5 NActive=    5 NUniq=    5 SFac= 1.00D+00 NAtFMM=   60 NAOKFM=F Big=F
 R6Disp: Dispersion energy =        -0.0007717585 Hartrees.
 Nuclear repulsion after empirical dispersion term =      151.6068051300 Hartrees.
 Leave Link  301 at Fri Jan 17 14:10:32 2020, MaxMem=  536870912 cpu:       0.1
 (Enter /home/matheus/.gaussian/g09/l302.exe)
 NPDir=0 NMtPBC=     1 NCelOv=     1 NCel=       1 NClECP=     1 NCelD=      1
         NCelK=      1 NCelE2=     1 NClLst=     1 CellRange=     0.0.
 One-electron integrals computed using PRISM.
 NBasis=   197 RedAO= T  NBF=   197
 NBsUse=   197 1.00D-06 NBFU=   197
 Precomputing XC quadrature grid using
 IXCGrd= 2 IRadAn=           5 IRanWt=          -1 IRanGd=           0 AccXCQ= 0.00D+00.
 NRdTot=     427 NPtTot=      123512 NUsed=      126579 NTot=      126611
 NSgBfM=   229   229   229   229   229 NAtAll=     5     5.
 Leave Link  302 at Fri Jan 17 14:10:32 2020, MaxMem=  536870912 cpu:       0.6
 (Enter /home/matheus/.gaussian/g09/l303.exe)
 DipDrv:  MaxL=1.
 Leave Link  303 at Fri Jan 17 14:10:32 2020, MaxMem=  536870912 cpu:       0.1
 (Enter /home/matheus/.gaussian/g09/l401.exe)
 Harris functional with IExCor= 4639 diagonalized for initial guess.
 ExpMin= 2.53D-02 ExpMax= 1.17D+07 ExpMxC= 1.33D+04 IAcc=3 IRadAn=         5 AccDes= 0.00D+00
 HarFok:  IExCor= 4639 AccDes= 0.00D+00 IRadAn=         5 IDoV= 1
 ScaDFX=  1.000000  1.000000  1.000000  1.000000
 FoFCou: FMM=F IPFlag=           0 FMFlag=      100000 FMFlg1=           0
         NFxFlg=           0 DoJE=T BraDBF=F KetDBF=T FulRan=T
         Omega=  0.000000  0.000000  1.000000  0.000000  0.000000 ICntrl=     500 IOpCl=  0
         NMat0=    1 NMatS0=    1 NMatT0=    0 NMatD0=    1 NMtDS0=    0 NMtDT0=    0
         I1Cent=           4 NGrid=           0.
 Petite list used in FoFCou.
 Harris En= -2873.71967166061    
 Initial guess orbital symmetries:
       Occupied  (A) (A) (A) (A) (A) (A) (A) (A) (A) (A) (A) (A)
                 (A) (A) (A) (A) (A) (A) (A) (A) (A) (A) (A) (A)
                 (A) (A) (A)
       Virtual   (A) (A) (A) (A) (A) (A) (A) (A) (A) (A) (A) (A)
                 (A) (A) (A) (A) (A) (A) (A) (A) (A) (A) (A) (A)
                 (A) (A) (A) (A) (A) (A) (A) (A) (A) (A) (A) (A)
                 (A) (A) (A) (A) (A) (A) (A) (A) (A) (A) (A) (A)
                 (A) (A) (A) (A) (A) (A) (A) (A) (A) (A) (A) (A)
                 (A) (A) (A) (A) (A) (A) (A) (A) (A) (A) (A) (A)
                 (A) (A) (A) (A) (A) (A) (A) (A) (A) (A) (A) (A)
                 (A) (A) (A) (A) (A) (A) (A) (A) (A) (A) (A) (A)
                 (A) (A) (A) (A) (A) (A) (A) (A) (A) (A) (A) (A)
                 (A) (A) (A) (A) (A) (A) (A) (A) (A) (A) (A) (A)
                 (A) (A) (A) (A) (A) (A) (A) (A) (A) (A) (A) (A)
                 (A) (A) (A) (A) (A) (A) (A) (A) (A) (A) (A) (A)
                 (A) (A) (A) (A) (A) (A) (A) (A) (A) (A) (A) (A)
                 (A) (A) (A) (A) (A) (A) (A) (A) (A) (A) (A) (A)
                 (A) (A)
 The electronic state of the initial guess is 1-A.
 Leave Link  401 at Fri Jan 17 14:10:33 2020, MaxMem=  536870912 cpu:       2.8
 (Enter /home/matheus/.gaussian/g09/l502.exe)
 Closed shell SCF:
 Requested convergence on RMS density matrix=1.00D-08 within 128 cycles.
 Requested convergence on MAX density matrix=1.00D-06.
 Requested convergence on             energy=1.00D-06.
 No special actions if energy rises.
 Using DIIS extrapolation, IDIIS=  1040.
 Integral symmetry usage will be decided dynamically.
       126521 words used for storage of precomputed grid.
 IEnd=      305010 IEndB=      305010 NGot=   536870912 MDV=   536635213
 LenX=   536635213 LenY=   536582331
 Fock matrices will be formed incrementally for  20 cycles.

 Cycle   1  Pass 1  IDiag  1:
 FoFJK:  IHMeth= 1 ICntrl=     0 DoSepK=T KAlg= 1 I1Cent= 0 FoldK=F
 FoFCou: FMM=F IPFlag=           0 FMFlag=      100000 FMFlg1=           0
         NFxFlg=           0 DoJE=T BraDBF=F KetDBF=F FulRan=T
         Omega=  0.000000  0.000000  1.000000  0.000000  0.000000 ICntrl=     500 IOpCl=  0
         NMat0=    1 NMatS0=    1 NMatT0=    0 NMatD0=    1 NMtDS0=    0 NMtDT0=    0
         I1Cent=           0 NGrid=           0.
 Symmetry not used in FoFCou.
 E= -2904.82888917169    
 DIIS: error= 8.87D-02 at cycle   1 NSaved=   1.
 NSaved= 1 IEnMin= 1 EnMin= -2904.82888917169     IErMin= 1 ErrMin= 8.87D-02
 ErrMax= 8.87D-02 EMaxC= 1.00D-01 BMatC= 2.33D+00 BMatP= 2.33D+00
 IDIUse=3 WtCom= 1.13D-01 WtEn= 8.87D-01
 Coeff-Com:  0.100D+01
 Coeff-En:   0.100D+01
 Coeff:      0.100D+01
 Gap=     0.567 Goal=   None    Shift=    0.000
 GapD=    0.567 DampG=2.000 DampE=0.500 DampFc=1.0000 IDamp=-1.
 RMSDP=6.47D-03 MaxDP=3.78D-01              OVMax= 1.99D-01

 Cycle   2  Pass 1  IDiag  1:
 RMSU=  4.55D-03    CP:  1.03D+00
 FoFJK:  IHMeth= 1 ICntrl=     0 DoSepK=T KAlg= 1 I1Cent= 0 FoldK=F
 E= -2905.21401116308     Delta-E=       -0.385121991389 Rises=F Damp=F
 DIIS: error= 3.49D-02 at cycle   2 NSaved=   2.
 NSaved= 2 IEnMin= 2 EnMin= -2905.21401116308     IErMin= 2 ErrMin= 3.49D-02
 ErrMax= 3.49D-02 EMaxC= 1.00D-01 BMatC= 5.85D-01 BMatP= 2.33D+00
 IDIUse=3 WtCom= 6.51D-01 WtEn= 3.49D-01
 Coeff-Com:  0.326D+00 0.674D+00
 Coeff-En:   0.159D+00 0.841D+00
 Coeff:      0.267D+00 0.733D+00
 Gap=     0.514 Goal=   None    Shift=    0.000
 RMSDP=2.82D-03 MaxDP=1.65D-01 DE=-3.85D-01 OVMax= 7.35D-02

 Cycle   3  Pass 1  IDiag  1:
 RMSU=  6.74D-04    CP:  1.02D+00  5.89D-01
 FoFJK:  IHMeth= 1 ICntrl=     0 DoSepK=T KAlg= 1 I1Cent= 0 FoldK=F
 E= -2905.41550149698     Delta-E=       -0.201490333902 Rises=F Damp=F
 DIIS: error= 6.37D-03 at cycle   3 NSaved=   3.
 NSaved= 3 IEnMin= 3 EnMin= -2905.41550149698     IErMin= 3 ErrMin= 6.37D-03
 ErrMax= 6.37D-03 EMaxC= 1.00D-01 BMatC= 2.17D-02 BMatP= 5.85D-01
 IDIUse=3 WtCom= 9.36D-01 WtEn= 6.37D-02
 Coeff-Com:  0.278D-01 0.190D+00 0.782D+00
 Coeff-En:   0.000D+00 0.000D+00 0.100D+01
 Coeff:      0.260D-01 0.178D+00 0.796D+00
 Gap=     0.446 Goal=   None    Shift=    0.000
 RMSDP=5.34D-04 MaxDP=1.55D-02 DE=-2.01D-01 OVMax= 2.84D-02

 Cycle   4  Pass 1  IDiag  1:
 RMSU=  2.44D-04    CP:  1.02D+00  6.51D-01  9.50D-01
 FoFJK:  IHMeth= 1 ICntrl=     0 DoSepK=T KAlg= 1 I1Cent= 0 FoldK=F
 E= -2905.42534331102     Delta-E=       -0.009841814039 Rises=F Damp=F
 DIIS: error= 2.09D-03 at cycle   4 NSaved=   4.
 NSaved= 4 IEnMin= 4 EnMin= -2905.42534331102     IErMin= 4 ErrMin= 2.09D-03
 ErrMax= 2.09D-03 EMaxC= 1.00D-01 BMatC= 1.58D-03 BMatP= 2.17D-02
 IDIUse=3 WtCom= 9.79D-01 WtEn= 2.09D-02
 Coeff-Com: -0.574D-02 0.440D-01 0.353D+00 0.609D+00
 Coeff-En:   0.000D+00 0.000D+00 0.000D+00 0.100D+01
 Coeff:     -0.562D-02 0.431D-01 0.345D+00 0.617D+00
 Gap=     0.430 Goal=   None    Shift=    0.000
 RMSDP=1.18D-04 MaxDP=5.34D-03 DE=-9.84D-03 OVMax= 6.65D-03

 Cycle   5  Pass 1  IDiag  1:
 RMSU=  4.77D-05    CP:  1.02D+00  6.50D-01  9.97D-01  7.56D-01
 FoFJK:  IHMeth= 1 ICntrl=     0 DoSepK=T KAlg= 1 I1Cent= 0 FoldK=F
 E= -2905.42632158862     Delta-E=       -0.000978277597 Rises=F Damp=F
 DIIS: error= 1.39D-04 at cycle   5 NSaved=   5.
 NSaved= 5 IEnMin= 5 EnMin= -2905.42632158862     IErMin= 5 ErrMin= 1.39D-04
 ErrMax= 1.39D-04 EMaxC= 1.00D-01 BMatC= 6.20D-06 BMatP= 1.58D-03
 IDIUse=3 WtCom= 9.99D-01 WtEn= 1.39D-03
 Coeff-Com: -0.441D-03-0.798D-02-0.375D-01-0.425D-01 0.109D+01
 Coeff-En:   0.000D+00 0.000D+00 0.000D+00 0.000D+00 0.100D+01
 Coeff:     -0.440D-03-0.797D-02-0.375D-01-0.425D-01 0.109D+01
 Gap=     0.430 Goal=   None    Shift=    0.000
 RMSDP=3.23D-05 MaxDP=1.10D-03 DE=-9.78D-04 OVMax= 1.91D-03

 Cycle   6  Pass 1  IDiag  1:
 RMSU=  6.79D-06    CP:  1.02D+00  6.50D-01  1.02D+00  7.95D-01  1.30D+00
 FoFJK:  IHMeth= 1 ICntrl=     0 DoSepK=T KAlg= 1 I1Cent= 0 FoldK=F
 E= -2905.42633493494     Delta-E=       -0.000013346322 Rises=F Damp=F
 DIIS: error= 5.30D-05 at cycle   6 NSaved=   6.
 NSaved= 6 IEnMin= 6 EnMin= -2905.42633493494     IErMin= 6 ErrMin= 5.30D-05
 ErrMax= 5.30D-05 EMaxC= 1.00D-01 BMatC= 1.11D-06 BMatP= 6.20D-06
 IDIUse=1 WtCom= 1.00D+00 WtEn= 0.00D+00
 Coeff-Com:  0.289D-04-0.430D-02-0.245D-01-0.349D-01 0.281D+00 0.782D+00
 Coeff:      0.289D-04-0.430D-02-0.245D-01-0.349D-01 0.281D+00 0.782D+00
 Gap=     0.430 Goal=   None    Shift=    0.000
 RMSDP=6.94D-06 MaxDP=2.23D-04 DE=-1.33D-05 OVMax= 4.48D-04

 Cycle   7  Pass 1  IDiag  1:
 RMSU=  2.92D-06    CP:  1.02D+00  6.50D-01  1.02D+00  8.01D-01  1.36D+00
                    CP:  1.04D+00
 FoFJK:  IHMeth= 1 ICntrl=     0 DoSepK=T KAlg= 1 I1Cent= 0 FoldK=F
 E= -2905.42633594868     Delta-E=       -0.000001013744 Rises=F Damp=F
 DIIS: error= 4.12D-05 at cycle   7 NSaved=   7.
 NSaved= 7 IEnMin= 7 EnMin= -2905.42633594868     IErMin= 7 ErrMin= 4.12D-05
 ErrMax= 4.12D-05 EMaxC= 1.00D-01 BMatC= 4.20D-07 BMatP= 1.11D-06
 IDIUse=1 WtCom= 1.00D+00 WtEn= 0.00D+00
 Coeff-Com:  0.566D-04-0.130D-02-0.810D-02-0.127D-01 0.436D-02 0.403D+00
 Coeff-Com:  0.614D+00
 Coeff:      0.566D-04-0.130D-02-0.810D-02-0.127D-01 0.436D-02 0.403D+00
 Coeff:      0.614D+00
 Gap=     0.430 Goal=   None    Shift=    0.000
 RMSDP=2.43D-06 MaxDP=8.85D-05 DE=-1.01D-06 OVMax= 1.74D-04

 Cycle   8  Pass 1  IDiag  1:
 RMSU=  9.48D-07    CP:  1.02D+00  6.50D-01  1.02D+00  8.03D-01  1.37D+00
                    CP:  1.18D+00  8.73D-01
 FoFJK:  IHMeth= 1 ICntrl=     0 DoSepK=T KAlg= 1 I1Cent= 0 FoldK=F
 E= -2905.42633627788     Delta-E=       -0.000000329193 Rises=F Damp=F
 DIIS: error= 6.20D-06 at cycle   8 NSaved=   8.
 NSaved= 8 IEnMin= 8 EnMin= -2905.42633627788     IErMin= 8 ErrMin= 6.20D-06
 ErrMax= 6.20D-06 EMaxC= 1.00D-01 BMatC= 1.28D-08 BMatP= 4.20D-07
 IDIUse=1 WtCom= 1.00D+00 WtEn= 0.00D+00
 Coeff-Com:  0.930D-05 0.336D-03 0.174D-02 0.179D-02-0.364D-01-0.350D-01
 Coeff-Com:  0.916D-01 0.976D+00
 Coeff:      0.930D-05 0.336D-03 0.174D-02 0.179D-02-0.364D-01-0.350D-01
 Coeff:      0.916D-01 0.976D+00
 Gap=     0.430 Goal=   None    Shift=    0.000
 RMSDP=1.04D-06 MaxDP=2.90D-05 DE=-3.29D-07 OVMax= 7.95D-05

 Cycle   9  Pass 1  IDiag  1:
 RMSU=  3.35D-07    CP:  1.02D+00  6.50D-01  1.02D+00  8.02D-01  1.38D+00
                    CP:  1.22D+00  9.93D-01  1.21D+00
 FoFJK:  IHMeth= 1 ICntrl=     0 DoSepK=T KAlg= 1 I1Cent= 0 FoldK=F
 E= -2905.42633630306     Delta-E=       -0.000000025186 Rises=F Damp=F
 DIIS: error= 2.72D-06 at cycle   9 NSaved=   9.
 NSaved= 9 IEnMin= 9 EnMin= -2905.42633630306     IErMin= 9 ErrMin= 2.72D-06
 ErrMax= 2.72D-06 EMaxC= 1.00D-01 BMatC= 7.57D-10 BMatP= 1.28D-08
 IDIUse=1 WtCom= 1.00D+00 WtEn= 0.00D+00
 Coeff-Com: -0.261D-05 0.111D-03 0.633D-03 0.694D-03 0.373D-03-0.251D-01
 Coeff-Com: -0.441D-01-0.371D-01 0.110D+01
 Coeff:     -0.261D-05 0.111D-03 0.633D-03 0.694D-03 0.373D-03-0.251D-01
 Coeff:     -0.441D-01-0.371D-01 0.110D+01
 Gap=     0.430 Goal=   None    Shift=    0.000
 RMSDP=3.48D-07 MaxDP=8.84D-06 DE=-2.52D-08 OVMax= 3.09D-05

 Cycle  10  Pass 1  IDiag  1:
 RMSU=  8.66D-08    CP:  1.02D+00  6.50D-01  1.02D+00  8.02D-01  1.38D+00
                    CP:  1.23D+00  1.01D+00  1.32D+00  1.37D+00
 FoFJK:  IHMeth= 1 ICntrl=     0 DoSepK=T KAlg= 1 I1Cent= 0 FoldK=F
 E= -2905.42633630516     Delta-E=       -0.000000002096 Rises=F Damp=F
 DIIS: error= 7.28D-07 at cycle  10 NSaved=  10.
 NSaved=10 IEnMin=10 EnMin= -2905.42633630516     IErMin=10 ErrMin= 7.28D-07
 ErrMax= 7.28D-07 EMaxC= 1.00D-01 BMatC= 5.58D-11 BMatP= 7.57D-10
 IDIUse=1 WtCom= 1.00D+00 WtEn= 0.00D+00
 Coeff-Com: -0.245D-06-0.192D-04-0.101D-03-0.904D-04 0.239D-02 0.377D-02
 Coeff-Com: -0.659D-02-0.859D-01 0.777D-01 0.101D+01
 Coeff:     -0.245D-06-0.192D-04-0.101D-03-0.904D-04 0.239D-02 0.377D-02
 Coeff:     -0.659D-02-0.859D-01 0.777D-01 0.101D+01
 Gap=     0.430 Goal=   None    Shift=    0.000
 RMSDP=8.67D-08 MaxDP=2.00D-06 DE=-2.10D-09 OVMax= 8.60D-06

 Cycle  11  Pass 1  IDiag  1:
 RMSU=  2.40D-08    CP:  1.02D+00  6.50D-01  1.02D+00  8.02D-01  1.38D+00
                    CP:  1.23D+00  1.01D+00  1.33D+00  1.49D+00  1.21D+00
 FoFJK:  IHMeth= 1 ICntrl=     0 DoSepK=T KAlg= 1 I1Cent= 0 FoldK=F
 E= -2905.42633630532     Delta-E=       -0.000000000163 Rises=F Damp=F
 DIIS: error= 2.52D-07 at cycle  11 NSaved=  11.
 NSaved=11 IEnMin=11 EnMin= -2905.42633630532     IErMin=11 ErrMin= 2.52D-07
 ErrMax= 2.52D-07 EMaxC= 1.00D-01 BMatC= 5.29D-12 BMatP= 5.58D-11
 IDIUse=1 WtCom= 1.00D+00 WtEn= 0.00D+00
 Coeff-Com:  0.319D-06-0.662D-05-0.393D-04-0.256D-04-0.562D-03 0.193D-02
 Coeff-Com:  0.515D-02 0.130D-01-0.984D-01-0.166D+00 0.124D+01
 Coeff:      0.319D-06-0.662D-05-0.393D-04-0.256D-04-0.562D-03 0.193D-02
 Coeff:      0.515D-02 0.130D-01-0.984D-01-0.166D+00 0.124D+01
 Gap=     0.430 Goal=   None    Shift=    0.000
 RMSDP=3.13D-08 MaxDP=8.12D-07 DE=-1.63D-10 OVMax= 3.30D-06

 Cycle  12  Pass 1  IDiag  1:
 RMSU=  7.49D-09    CP:  1.02D+00  6.50D-01  1.02D+00  8.02D-01  1.38D+00
                    CP:  1.23D+00  1.01D+00  1.34D+00  1.53D+00  1.33D+00
                    CP:  1.48D+00
 FoFJK:  IHMeth= 1 ICntrl=     0 DoSepK=T KAlg= 1 I1Cent= 0 FoldK=F
 E= -2905.42633630532     Delta-E=        0.000000000005 Rises=F Damp=F
 DIIS: error= 5.18D-08 at cycle  12 NSaved=  12.
 NSaved=12 IEnMin=11 EnMin= -2905.42633630532     IErMin=12 ErrMin= 5.18D-08
 ErrMax= 5.18D-08 EMaxC= 1.00D-01 BMatC= 3.25D-13 BMatP= 5.29D-12
 IDIUse=1 WtCom= 1.00D+00 WtEn= 0.00D+00
 Coeff-Com: -0.281D-07 0.198D-05 0.106D-04-0.162D-05-0.494D-04-0.410D-03
 Coeff-Com: -0.207D-03 0.330D-02 0.831D-02-0.332D-01-0.207D+00 0.123D+01
 Coeff:     -0.281D-07 0.198D-05 0.106D-04-0.162D-05-0.494D-04-0.410D-03
 Coeff:     -0.207D-03 0.330D-02 0.831D-02-0.332D-01-0.207D+00 0.123D+01
 Gap=     0.430 Goal=   None    Shift=    0.000
 RMSDP=7.95D-09 MaxDP=2.22D-07 DE= 4.55D-12 OVMax= 8.36D-07

 SCF Done:  E(RwB97XD) =  -2905.42633631     A.U. after   12 cycles
             Convg  =    0.7950D-08             -V/T =  2.0016
 KE= 2.900910655955D+03 PE=-7.240478568049D+03 EE= 1.282534770659D+03
 Leave Link  502 at Fri Jan 17 14:11:27 2020, MaxMem=  536870912 cpu:     218.0
 (Enter /home/matheus/.gaussian/g09/l601.exe)
 Copying SCF densities to generalized density rwf, IOpCl= 0 IROHF=0.

 **********************************************************************

            Population analysis using the SCF density.

 **********************************************************************

 Orbital symmetries:
       Occupied  (A) (A) (A) (A) (A) (A) (A) (A) (A) (A) (A) (A)
                 (A) (A) (A) (A) (A) (A) (A) (A) (A) (A) (A) (A)
                 (A) (A) (A)
       Virtual   (A) (A) (A) (A) (A) (A) (A) (A) (A) (A) (A) (A)
                 (A) (A) (A) (A) (A) (A) (A) (A) (A) (A) (A) (A)
                 (A) (A) (A) (A) (A) (A) (A) (A) (A) (A) (A) (A)
                 (A) (A) (A) (A) (A) (A) (A) (A) (A) (A) (A) (A)
                 (A) (A) (A) (A) (A) (A) (A) (A) (A) (A) (A) (A)
                 (A) (A) (A) (A) (A) (A) (A) (A) (A) (A) (A) (A)
                 (A) (A) (A) (A) (A) (A) (A) (A) (A) (A) (A) (A)
                 (A) (A) (A) (A) (A) (A) (A) (A) (A) (A) (A) (A)
                 (A) (A) (A) (A) (A) (A) (A) (A) (A) (A) (A) (A)
                 (A) (A) (A) (A) (A) (A) (A) (A) (A) (A) (A) (A)
                 (A) (A) (A) (A) (A) (A) (A) (A) (A) (A) (A) (A)
                 (A) (A) (A) (A) (A) (A) (A) (A) (A) (A) (A) (A)
                 (A) (A) (A) (A) (A) (A) (A) (A) (A) (A) (A) (A)
                 (A) (A) (A) (A) (A) (A) (A) (A) (A) (A) (A) (A)
                 (A) (A)
 The electronic state is 1-A.
 Alpha  occ. eigenvalues -- -513.15170 -67.42222 -60.97089 -60.97083 -60.97074
 Alpha  occ. eigenvalues --  -19.36901 -19.36827  -9.87598  -7.56918  -7.56896
 Alpha  occ. eigenvalues --   -7.56866  -3.43436  -3.43433  -3.43408  -3.43392
 Alpha  occ. eigenvalues --   -3.43387  -1.28197  -1.08379  -1.06069  -0.71741
 Alpha  occ. eigenvalues --   -0.57196  -0.56197  -0.54712  -0.53730  -0.52862
 Alpha  occ. eigenvalues --   -0.49951  -0.39392
 Alpha virt. eigenvalues --    0.03575   0.04622   0.08717   0.09486   0.10248
 Alpha virt. eigenvalues --    0.12044   0.12761   0.16189   0.17262   0.18191
 Alpha virt. eigenvalues --    0.18625   0.19468   0.20577   0.21689   0.23078
 Alpha virt. eigenvalues --    0.24023   0.24532   0.26913   0.30432   0.33553
 Alpha virt. eigenvalues --    0.35334   0.36701   0.38403   0.38508   0.40030
 Alpha virt. eigenvalues --    0.42674   0.45087   0.48577   0.52037   0.53701
 Alpha virt. eigenvalues --    0.58620   0.61498   0.61609   0.63861   0.65204
 Alpha virt. eigenvalues --    0.69029   0.69482   0.72089   0.72904   0.74588
 Alpha virt. eigenvalues --    0.75533   0.77240   0.80517   0.82471   0.85542
 Alpha virt. eigenvalues --    0.86160   0.86782   0.88395   0.88930   0.91360
 Alpha virt. eigenvalues --    0.93520   0.95443   0.96916   0.98672   1.00242
 Alpha virt. eigenvalues --    1.03440   1.04608   1.06245   1.08623   1.10319
 Alpha virt. eigenvalues --    1.13284   1.18882   1.22126   1.25371   1.26932
 Alpha virt. eigenvalues --    1.31449   1.32599   1.38546   1.39726   1.46975
 Alpha virt. eigenvalues --    1.49270   1.53036   1.54593   1.56147   1.58695
 Alpha virt. eigenvalues --    1.62858   1.67180   1.82704   1.90429   1.94897
 Alpha virt. eigenvalues --    1.98820   2.05302   2.08770   2.14262   2.14520
 Alpha virt. eigenvalues --    2.17733   2.21938   2.22621   2.22861   2.29438
 Alpha virt. eigenvalues --    2.31069   2.32650   2.33700   2.34710   2.36408
 Alpha virt. eigenvalues --    2.39268   2.41112   2.43976   2.48114   2.49076
 Alpha virt. eigenvalues --    2.50650   2.51160   2.57369   2.58748   2.61062
 Alpha virt. eigenvalues --    2.64423   2.67530   2.68779   2.71861   2.73535
 Alpha virt. eigenvalues --    2.74267   2.78322   2.81676   2.90115   2.90616
 Alpha virt. eigenvalues --    2.95607   3.10269   3.13396   3.15176   3.57283
 Alpha virt. eigenvalues --    3.74441   3.89643   3.99400   4.04243   4.10982
 Alpha virt. eigenvalues --    4.16259   4.17496   4.20585   4.22036   4.25955
 Alpha virt. eigenvalues --    4.42507   4.51938   4.57085   4.70840   4.74889
 Alpha virt. eigenvalues --    4.98842   5.02376   5.06190   5.10739   5.13251
 Alpha virt. eigenvalues --    5.17271   5.53823   5.84659   6.04593   6.07673
 Alpha virt. eigenvalues --    6.15097   6.37841   6.40005   6.50333   6.59840
 Alpha virt. eigenvalues --    6.71626   6.74291   6.80440   6.83824   6.85813
 Alpha virt. eigenvalues --    6.88973   6.91716   6.92889   6.94746   7.12757
 Alpha virt. eigenvalues --    7.19231   7.20258   7.29716   7.36394   7.62161
 Alpha virt. eigenvalues --    8.01115   8.05416   8.20692  13.87168  14.76422
          Condensed to atoms (all electrons):
              1          2          3          4          5
     1  O    8.214536  -0.189784   0.192570   0.033158  -0.020933
     2  O   -0.189784   8.208942   0.037308   0.201591  -0.017318
     3  H    0.192570   0.037308   0.572111  -0.020129  -0.004262
     4  H    0.033158   0.201591  -0.020129   0.564681  -0.010518
     5  Kr  -0.020933  -0.017318  -0.004262  -0.010518  36.036361
 Mulliken atomic charges:
              1
     1  O   -0.229547
     2  O   -0.240739
     3  H    0.222401
     4  H    0.231216
     5  Kr   0.016669
 Sum of Mulliken atomic charges =   0.00000
 Mulliken charges with hydrogens summed into heavy atoms:
              1
     1  O   -0.007147
     2  O   -0.009523
     5  Kr   0.016669
 Sum of Mulliken charges with hydrogens summed into heavy atoms =   0.00000
 Electronic spatial extent (au):  <R**2>=            475.7938
 Charge=              0.0000 electrons
 Dipole moment (field-independent basis, Debye):
    X=             -3.6039    Y=             -0.0452    Z=              0.4493  Tot=              3.6321
 Quadrupole moment (field-independent basis, Debye-Ang):
   XX=            -38.7051   YY=            -28.1243   ZZ=            -30.3460
   XY=             -0.1364   XZ=              0.5126   YZ=             -0.6022
 Traceless Quadrupole moment (field-independent basis, Debye-Ang):
   XX=             -6.3133   YY=              4.2675   ZZ=              2.0458
   XY=             -0.1364   XZ=              0.5126   YZ=             -0.6022
 Octapole moment (field-independent basis, Debye-Ang**2):
  XXX=            -44.8261  YYY=             -0.1086  ZZZ=              0.0010  XYY=             -7.9685
  XXY=             -0.3131  XXZ=             -0.0347  XZZ=             -8.7220  YZZ=             -0.2174
  YYZ=              0.6897  XYZ=             -0.6743
 Hexadecapole moment (field-independent basis, Debye-Ang**3):
 XXXX=           -455.9030 YYYY=            -63.3031 ZZZZ=            -29.2608 XXXY=             -0.3013
 XXXZ=             -0.9814 YYYX=             -0.2507 YYYZ=             -0.8206 ZZZX=              0.1981
 ZZZY=             -0.3460 XXYY=            -86.1891 XXZZ=            -76.1859 YYZZ=            -17.2316
 XXYZ=             -0.7078 YYXZ=              0.7976 ZZXY=             -0.2850
 N-N= 1.516068051300D+02 E-N=-7.240478572203D+03  KE= 2.900910655955D+03
 No NMR shielding tensors so no spin-rotation constants.
 Leave Link  601 at Fri Jan 17 14:11:27 2020, MaxMem=  536870912 cpu:       0.3
 (Enter /home/matheus/.gaussian/g09/l108.exe)
 Variable Step   Value    
 -------- ---- -----------
     1       1    5.858151
 Leave Link  108 at Fri Jan 17 14:11:27 2020, MaxMem=  536870912 cpu:       0.0
 (Enter /home/matheus/.gaussian/g09/l202.exe)
 ---------------------------------------------------------------------------------------------------
                            Z-MATRIX (ANGSTROMS AND DEGREES)
   CD    Cent   Atom    N1       Length/X        N2       Alpha/Y        N3        Beta/Z          J
 ---------------------------------------------------------------------------------------------------
      1      1  O        0   0.000000          0.000000          0.725000
      2      2  O        0   0.000000          0.000000         -0.725000
      3      3  H        0   0.314221          0.863315          1.023510
      4      4  H        0   0.000000          0.918721         -1.023510
      5      5  Kr       0   0.000000          3.100000          0.000000
 ---------------------------------------------------------------------------------------------------
                         Z-Matrix orientation:                         
 ---------------------------------------------------------------------
 Center     Atomic      Atomic             Coordinates (Angstroms)
 Number     Number       Type             X           Y           Z
 ---------------------------------------------------------------------
      1          8           0        0.000000    0.000000    0.725000
      2          8           0        0.000000    0.000000   -0.725000
      3          1           0        0.314221    0.863315    1.023510
      4          1           0        0.000000    0.918721   -1.023510
      5         36           0        0.000000    3.100000    0.000000
 ---------------------------------------------------------------------
                    Distance matrix (angstroms):
                    1          2          3          4          5
     1  O    0.000000
     2  O    1.450000   0.000000
     3  H    0.966000   1.975180   0.000000
     4  H    1.975180   0.966000   2.071738   0.000000
     5  Kr   3.183650   3.183650   2.479732   2.409472   0.000000
 Stoichiometry    H2KrO2
 Framework group  C1[X(H2KrO2)]
 Deg. of freedom     9
 Full point group                 C1      NOp   1
 RotChk:  IX=0 Diff= 8.66D-05
 Largest Abelian subgroup         C1      NOp   1
 Largest concise Abelian subgroup C1      NOp   1
                         Standard orientation:                         
 ---------------------------------------------------------------------
 Center     Atomic      Atomic             Coordinates (Angstroms)
 Number     Number       Type             X           Y           Z
 ---------------------------------------------------------------------
      1          8           0        2.100057   -0.723019   -0.035588
      2          8           0        2.099209    0.726291    0.009118
      3          1           0        1.238038   -1.031674    0.272328
      4          1           0        1.180320    1.024022    0.021568
      5         36           0       -1.000347   -0.000515   -0.002282
 ---------------------------------------------------------------------
 Rotational constants (GHZ):     26.5653126      2.2332827      2.0616461
 Leave Link  202 at Fri Jan 17 14:11:27 2020, MaxMem=  536870912 cpu:       0.0
 (Enter /home/matheus/.gaussian/g09/l301.exe)
 Standard basis: Aug-CC-pVTZ (5D, 7F)
 Ernie: Thresh=  0.10000D-02 Tol=  0.10000D-05 Strict=F.
 Ernie:  38 primitive shells out of 205 were deleted.
 There are   197 symmetry adapted basis functions of A   symmetry.
 Integral buffers will be    131072 words long.
 Raffenetti 2 integral format.
 Two-electron integral symmetry is turned on.
   197 basis functions,   415 primitive gaussians,   229 cartesian basis functions
    27 alpha electrons       27 beta electrons
       nuclear repulsion energy       147.9936454092 Hartrees.
 IExCor= 4639 DFT=T Ex+Corr=wB97XD ExCW=0 ScaHFX=  1.000000
 ScaDFX=  1.000000  1.000000  1.000000  1.000000 ScalE2=  1.000000  1.000000
 IRadAn=      5 IRanWt=     -1 IRanGd=            0 ICorTp=0
  HFx wShort=  0.000000 wLong=  0.330000 cFull=  0.222036 cShort=  0.000000 cLong=  0.777964
  DFx wShort=  0.000000 wLong=  0.330000 cFull=  0.000000 cShort=  0.000000 cLong=  1.000000
 NAtoms=    5 NActive=    5 NUniq=    5 SFac= 1.00D+00 NAtFMM=   60 NAOKFM=F Big=F
 R6Disp: Dispersion energy =        -0.0008585092 Hartrees.
 Nuclear repulsion after empirical dispersion term =      147.9927868999 Hartrees.
 Leave Link  301 at Fri Jan 17 14:11:28 2020, MaxMem=  536870912 cpu:       0.1
 (Enter /home/matheus/.gaussian/g09/l302.exe)
 NPDir=0 NMtPBC=     1 NCelOv=     1 NCel=       1 NClECP=     1 NCelD=      1
         NCelK=      1 NCelE2=     1 NClLst=     1 CellRange=     0.0.
 One-electron integrals computed using PRISM.
 NBasis=   197 RedAO= T  NBF=   197
 NBsUse=   197 1.00D-06 NBFU=   197
 Precomputing XC quadrature grid using
 IXCGrd= 2 IRadAn=           5 IRanWt=          -1 IRanGd=           0 AccXCQ= 0.00D+00.
 NRdTot=     427 NPtTot=      123512 NUsed=      126579 NTot=      126611
 NSgBfM=   229   229   229   229   229 NAtAll=     5     5.
 Leave Link  302 at Fri Jan 17 14:11:28 2020, MaxMem=  536870912 cpu:       0.4
 (Enter /home/matheus/.gaussian/g09/l303.exe)
 DipDrv:  MaxL=1.
 Leave Link  303 at Fri Jan 17 14:11:28 2020, MaxMem=  536870912 cpu:       0.1
 (Enter /home/matheus/.gaussian/g09/l401.exe)
 Initial guess read from the read-write file.
 B after Tr=     0.000000    0.000000    0.000000
         Rot=    1.000000    0.000000    0.000000    0.000000 Ang=   0.00 deg.
 Guess basis will be translated and rotated to current coordinates.
 Initial guess orbital symmetries:
       Occupied  (A) (A) (A) (A) (A) (A) (A) (A) (A) (A) (A) (A)
                 (A) (A) (A) (A) (A) (A) (A) (A) (A) (A) (A) (A)
                 (A) (A) (A)
       Virtual   (A) (A) (A) (A) (A) (A) (A) (A) (A) (A) (A) (A)
                 (A) (A) (A) (A) (A) (A) (A) (A) (A) (A) (A) (A)
                 (A) (A) (A) (A) (A) (A) (A) (A) (A) (A) (A) (A)
                 (A) (A) (A) (A) (A) (A) (A) (A) (A) (A) (A) (A)
                 (A) (A) (A) (A) (A) (A) (A) (A) (A) (A) (A) (A)
                 (A) (A) (A) (A) (A) (A) (A) (A) (A) (A) (A) (A)
                 (A) (A) (A) (A) (A) (A) (A) (A) (A) (A) (A) (A)
                 (A) (A) (A) (A) (A) (A) (A) (A) (A) (A) (A) (A)
                 (A) (A) (A) (A) (A) (A) (A) (A) (A) (A) (A) (A)
                 (A) (A) (A) (A) (A) (A) (A) (A) (A) (A) (A) (A)
                 (A) (A) (A) (A) (A) (A) (A) (A) (A) (A) (A) (A)
                 (A) (A) (A) (A) (A) (A) (A) (A) (A) (A) (A) (A)
                 (A) (A) (A) (A) (A) (A) (A) (A) (A) (A) (A) (A)
                 (A) (A) (A) (A) (A) (A) (A) (A) (A) (A) (A) (A)
                 (A) (A)
 The electronic state of the initial guess is 1-A.
 Generating alternative initial guess.
 Harris functional with IExCor= 4639 diagonalized for initial guess.
 ExpMin= 2.53D-02 ExpMax= 1.17D+07 ExpMxC= 1.33D+04 IAcc=3 IRadAn=         5 AccDes= 0.00D+00
 HarFok:  IExCor= 4639 AccDes= 0.00D+00 IRadAn=         5 IDoV= 1
 ScaDFX=  1.000000  1.000000  1.000000  1.000000
 FoFCou: FMM=F IPFlag=           0 FMFlag=      100000 FMFlg1=           0
         NFxFlg=           0 DoJE=T BraDBF=F KetDBF=T FulRan=T
         Omega=  0.000000  0.000000  1.000000  0.000000  0.000000 ICntrl=     500 IOpCl=  0
         NMat0=    1 NMatS0=    1 NMatT0=    0 NMatD0=    1 NMtDS0=    0 NMtDT0=    0
         I1Cent=           4 NGrid=           0.
 Petite list used in FoFCou.
 Harris En= -2873.72461035098    
 Leave Link  401 at Fri Jan 17 14:11:28 2020, MaxMem=  536870912 cpu:       2.9
 (Enter /home/matheus/.gaussian/g09/l502.exe)
 Closed shell SCF:
 Requested convergence on RMS density matrix=1.00D-08 within 128 cycles.
 Requested convergence on MAX density matrix=1.00D-06.
 Requested convergence on             energy=1.00D-06.
 No special actions if energy rises.
 Using DIIS extrapolation, IDIIS=  1040.
 Integral symmetry usage will be decided dynamically.
       126521 words used for storage of precomputed grid.
 IEnd=      305010 IEndB=      305010 NGot=   536870912 MDV=   536635213
 LenX=   536635213 LenY=   536582331
 Fock matrices will be formed incrementally for  20 cycles.

 Cycle   1  Pass 1  IDiag  1:
 FoFJK:  IHMeth= 1 ICntrl=     0 DoSepK=T KAlg= 1 I1Cent= 0 FoldK=F
 FoFCou: FMM=F IPFlag=           0 FMFlag=      100000 FMFlg1=           0
         NFxFlg=           0 DoJE=T BraDBF=F KetDBF=F FulRan=T
         Omega=  0.000000  0.000000  1.000000  0.000000  0.000000 ICntrl=     500 IOpCl=  0
         NMat0=    1 NMatS0=    1 NMatT0=    0 NMatD0=    1 NMtDS0=    0 NMtDT0=    0
         I1Cent=           0 NGrid=           0.
 Symmetry not used in FoFCou.
 E= -2905.42872541750    
 DIIS: error= 2.44D-03 at cycle   1 NSaved=   1.
 NSaved= 1 IEnMin= 1 EnMin= -2905.42872541750     IErMin= 1 ErrMin= 2.44D-03
 ErrMax= 2.44D-03 EMaxC= 1.00D-01 BMatC= 9.74D-04 BMatP= 9.74D-04
 IDIUse=3 WtCom= 9.76D-01 WtEn= 2.44D-02
 Coeff-Com:  0.100D+01
 Coeff-En:   0.100D+01
 Coeff:      0.100D+01
 Gap=     0.434 Goal=   None    Shift=    0.000
 GapD=    0.434 DampG=2.000 DampE=1.000 DampFc=2.0000 IDamp=-1.
 RMSDP=7.29D-05 MaxDP=2.01D-03              OVMax= 3.36D-03

 Cycle   2  Pass 1  IDiag  1:
 RMSU=  5.16D-05    CP:  1.00D+00
 FoFJK:  IHMeth= 1 ICntrl=     0 DoSepK=T KAlg= 1 I1Cent= 0 FoldK=F
 E= -2905.42887109552     Delta-E=       -0.000145678017 Rises=F Damp=F
 DIIS: error= 1.85D-04 at cycle   2 NSaved=   2.
 NSaved= 2 IEnMin= 2 EnMin= -2905.42887109552     IErMin= 2 ErrMin= 1.85D-04
 ErrMax= 1.85D-04 EMaxC= 1.00D-01 BMatC= 6.50D-06 BMatP= 9.74D-04
 IDIUse=3 WtCom= 9.98D-01 WtEn= 1.85D-03
 Coeff-Com: -0.299D-02 0.100D+01
 Coeff-En:   0.000D+00 0.100D+01
 Coeff:     -0.299D-02 0.100D+01
 Gap=     0.430 Goal=   None    Shift=    0.000
 RMSDP=1.69D-05 MaxDP=5.64D-04 DE=-1.46D-04 OVMax= 9.71D-04

 Cycle   3  Pass 1  IDiag  1:
 RMSU=  1.01D-05    CP:  1.00D+00  1.12D+00
 FoFJK:  IHMeth= 1 ICntrl=     0 DoSepK=T KAlg= 1 I1Cent= 0 FoldK=F
 E= -2905.42887620701     Delta-E=       -0.000005111490 Rises=F Damp=F
 DIIS: error= 9.91D-05 at cycle   3 NSaved=   3.
 NSaved= 3 IEnMin= 3 EnMin= -2905.42887620701     IErMin= 3 ErrMin= 9.91D-05
 ErrMax= 9.91D-05 EMaxC= 1.00D-01 BMatC= 3.06D-06 BMatP= 6.50D-06
 IDIUse=1 WtCom= 1.00D+00 WtEn= 0.00D+00
 Coeff-Com: -0.664D-02 0.397D+00 0.610D+00
 Coeff:     -0.664D-02 0.397D+00 0.610D+00
 Gap=     0.430 Goal=   None    Shift=    0.000
 RMSDP=6.21D-06 MaxDP=2.25D-04 DE=-5.11D-06 OVMax= 3.20D-04

 Cycle   4  Pass 1  IDiag  1:
 RMSU=  3.21D-06    CP:  1.00D+00  1.15D+00  7.42D-01
 FoFJK:  IHMeth= 1 ICntrl=     0 DoSepK=T KAlg= 1 I1Cent= 0 FoldK=F
 E= -2905.42887825001     Delta-E=       -0.000002043001 Rises=F Damp=F
 DIIS: error= 2.26D-05 at cycle   4 NSaved=   4.
 NSaved= 4 IEnMin= 4 EnMin= -2905.42887825001     IErMin= 4 ErrMin= 2.26D-05
 ErrMax= 2.26D-05 EMaxC= 1.00D-01 BMatC= 8.76D-08 BMatP= 3.06D-06
 IDIUse=1 WtCom= 1.00D+00 WtEn= 0.00D+00
 Coeff-Com: -0.266D-03-0.592D-01 0.577D-01 0.100D+01
 Coeff:     -0.266D-03-0.592D-01 0.577D-01 0.100D+01
 Gap=     0.430 Goal=   None    Shift=    0.000
 RMSDP=2.13D-06 MaxDP=6.83D-05 DE=-2.04D-06 OVMax= 1.35D-04

 Cycle   5  Pass 1  IDiag  1:
 RMSU=  7.61D-07    CP:  1.00D+00  1.16D+00  8.29D-01  1.22D+00
 FoFJK:  IHMeth= 1 ICntrl=     0 DoSepK=T KAlg= 1 I1Cent= 0 FoldK=F
 E= -2905.42887835236     Delta-E=       -0.000000102357 Rises=F Damp=F
 DIIS: error= 7.08D-06 at cycle   5 NSaved=   5.
 NSaved= 5 IEnMin= 5 EnMin= -2905.42887835236     IErMin= 5 ErrMin= 7.08D-06
 ErrMax= 7.08D-06 EMaxC= 1.00D-01 BMatC= 1.55D-08 BMatP= 8.76D-08
 IDIUse=1 WtCom= 1.00D+00 WtEn= 0.00D+00
 Coeff-Com:  0.258D-03-0.471D-01-0.982D-02 0.400D+00 0.657D+00
 Coeff:      0.258D-03-0.471D-01-0.982D-02 0.400D+00 0.657D+00
 Gap=     0.430 Goal=   None    Shift=    0.000
 RMSDP=5.08D-07 MaxDP=1.91D-05 DE=-1.02D-07 OVMax= 3.67D-05

 Cycle   6  Pass 1  IDiag  1:
 RMSU=  2.54D-07    CP:  1.00D+00  1.16D+00  8.42D-01  1.28D+00  9.45D-01
 FoFJK:  IHMeth= 1 ICntrl=     0 DoSepK=T KAlg= 1 I1Cent= 0 FoldK=F
 E= -2905.42887836387     Delta-E=       -0.000000011511 Rises=F Damp=F
 DIIS: error= 2.65D-06 at cycle   6 NSaved=   6.
 NSaved= 6 IEnMin= 6 EnMin= -2905.42887836387     IErMin= 6 ErrMin= 2.65D-06
 ErrMax= 2.65D-06 EMaxC= 1.00D-01 BMatC= 2.14D-09 BMatP= 1.55D-08
 IDIUse=1 WtCom= 1.00D+00 WtEn= 0.00D+00
 Coeff-Com:  0.146D-03-0.160D-01-0.954D-02 0.842D-01 0.296D+00 0.645D+00
 Coeff:      0.146D-03-0.160D-01-0.954D-02 0.842D-01 0.296D+00 0.645D+00
 Gap=     0.430 Goal=   None    Shift=    0.000
 RMSDP=1.79D-07 MaxDP=6.49D-06 DE=-1.15D-08 OVMax= 1.27D-05

 Cycle   7  Pass 1  IDiag  1:
 RMSU=  8.29D-08    CP:  1.00D+00  1.16D+00  8.45D-01  1.30D+00  1.03D+00
                    CP:  9.29D-01
 FoFJK:  IHMeth= 1 ICntrl=     0 DoSepK=T KAlg= 1 I1Cent= 0 FoldK=F
 E= -2905.42887836569     Delta-E=       -0.000000001811 Rises=F Damp=F
 DIIS: error= 8.05D-07 at cycle   7 NSaved=   7.
 NSaved= 7 IEnMin= 7 EnMin= -2905.42887836569     IErMin= 7 ErrMin= 8.05D-07
 ErrMax= 8.05D-07 EMaxC= 1.00D-01 BMatC= 1.16D-10 BMatP= 2.14D-09
 IDIUse=1 WtCom= 1.00D+00 WtEn= 0.00D+00
 Coeff-Com: -0.330D-04 0.730D-02 0.159D-02-0.663D-01-0.988D-01 0.602D-01
 Coeff-Com:  0.110D+01
 Coeff:     -0.330D-04 0.730D-02 0.159D-02-0.663D-01-0.988D-01 0.602D-01
 Coeff:      0.110D+01
 Gap=     0.430 Goal=   None    Shift=    0.000
 RMSDP=9.77D-08 MaxDP=3.20D-06 DE=-1.81D-09 OVMax= 7.72D-06

 Cycle   8  Pass 1  IDiag  1:
 RMSU=  3.08D-08    CP:  1.00D+00  1.16D+00  8.47D-01  1.31D+00  1.07D+00
                    CP:  1.07D+00  1.21D+00
 FoFJK:  IHMeth= 1 ICntrl=     0 DoSepK=T KAlg= 1 I1Cent= 0 FoldK=F
 E= -2905.42887836595     Delta-E=       -0.000000000261 Rises=F Damp=F
 DIIS: error= 1.11D-07 at cycle   8 NSaved=   8.
 NSaved= 8 IEnMin= 8 EnMin= -2905.42887836595     IErMin= 8 ErrMin= 1.11D-07
 ErrMax= 1.11D-07 EMaxC= 1.00D-01 BMatC= 3.60D-12 BMatP= 1.16D-10
 IDIUse=1 WtCom= 1.00D+00 WtEn= 0.00D+00
 Coeff-Com: -0.744D-05 0.965D-03 0.416D-03-0.633D-02-0.151D-01-0.187D-01
 Coeff-Com:  0.506D-01 0.988D+00
 Coeff:     -0.744D-05 0.965D-03 0.416D-03-0.633D-02-0.151D-01-0.187D-01
 Coeff:      0.506D-01 0.988D+00
 Gap=     0.430 Goal=   None    Shift=    0.000
 RMSDP=2.01D-08 MaxDP=4.68D-07 DE=-2.61D-10 OVMax= 2.04D-06

 Cycle   9  Pass 1  IDiag  1:
 RMSU=  6.38D-09    CP:  1.00D+00  1.16D+00  8.47D-01  1.31D+00  1.07D+00
                    CP:  1.08D+00  1.28D+00  1.31D+00
 FoFJK:  IHMeth= 1 ICntrl=     0 DoSepK=T KAlg= 1 I1Cent= 0 FoldK=F
 E= -2905.42887836594     Delta-E=        0.000000000005 Rises=F Damp=F
 DIIS: error= 5.30D-08 at cycle   9 NSaved=   9.
 NSaved= 9 IEnMin= 8 EnMin= -2905.42887836595     IErMin= 9 ErrMin= 5.30D-08
 ErrMax= 5.30D-08 EMaxC= 1.00D-01 BMatC= 5.79D-13 BMatP= 3.60D-12
 IDIUse=1 WtCom= 1.00D+00 WtEn= 0.00D+00
 Coeff-Com:  0.360D-05-0.844D-03-0.170D-03 0.789D-02 0.110D-01-0.987D-02
 Coeff-Com: -0.138D+00 0.106D+00 0.102D+01
 Coeff:      0.360D-05-0.844D-03-0.170D-03 0.789D-02 0.110D-01-0.987D-02
 Coeff:     -0.138D+00 0.106D+00 0.102D+01
 Gap=     0.430 Goal=   None    Shift=    0.000
 RMSDP=1.04D-08 MaxDP=2.22D-07 DE= 5.46D-12 OVMax= 1.07D-06

 Cycle  10  Pass 1  IDiag  1:
 RMSU=  2.59D-09    CP:  1.00D+00  1.16D+00  8.47D-01  1.30D+00  1.07D+00
                    CP:  1.08D+00  1.30D+00  1.47D+00  1.31D+00
 FoFJK:  IHMeth= 1 ICntrl=     0 DoSepK=T KAlg= 1 I1Cent= 0 FoldK=F
 E= -2905.42887836596     Delta-E=       -0.000000000015 Rises=F Damp=F
 DIIS: error= 1.73D-08 at cycle  10 NSaved=  10.
 NSaved=10 IEnMin=10 EnMin= -2905.42887836596     IErMin=10 ErrMin= 1.73D-08
 ErrMax= 1.73D-08 EMaxC= 1.00D-01 BMatC= 4.81D-14 BMatP= 5.79D-13
 IDIUse=1 WtCom= 1.00D+00 WtEn= 0.00D+00
 Coeff-Com:  0.112D-06 0.321D-04-0.128D-05-0.557D-03-0.281D-03 0.321D-02
 Coeff-Com:  0.141D-01-0.105D+00-0.954D-01 0.118D+01
 Coeff:      0.112D-06 0.321D-04-0.128D-05-0.557D-03-0.281D-03 0.321D-02
 Coeff:      0.141D-01-0.105D+00-0.954D-01 0.118D+01
 Gap=     0.430 Goal=   None    Shift=    0.000
 RMSDP=3.01D-09 MaxDP=6.53D-08 DE=-1.46D-11 OVMax= 4.09D-07

 SCF Done:  E(RwB97XD) =  -2905.42887837     A.U. after   10 cycles
             Convg  =    0.3011D-08             -V/T =  2.0016
 KE= 2.900893724123D+03 PE=-7.233287419846D+03 EE= 1.278972030456D+03
 Leave Link  502 at Fri Jan 17 14:12:12 2020, MaxMem=  536870912 cpu:     173.6
 (Enter /home/matheus/.gaussian/g09/l108.exe)
 Variable Step   Value    
 -------- ---- -----------
     1       2    6.047124
 Leave Link  108 at Fri Jan 17 14:12:12 2020, MaxMem=  536870912 cpu:       0.0
 (Enter /home/matheus/.gaussian/g09/l202.exe)
 ---------------------------------------------------------------------------------------------------
                            Z-MATRIX (ANGSTROMS AND DEGREES)
   CD    Cent   Atom    N1       Length/X        N2       Alpha/Y        N3        Beta/Z          J
 ---------------------------------------------------------------------------------------------------
      1      1  O        0   0.000000          0.000000          0.725000
      2      2  O        0   0.000000          0.000000         -0.725000
      3      3  H        0   0.314221          0.863315          1.023510
      4      4  H        0   0.000000          0.918721         -1.023510
      5      5  Kr       0   0.000000          3.200000          0.000000
 ---------------------------------------------------------------------------------------------------
                         Z-Matrix orientation:                         
 ---------------------------------------------------------------------
 Center     Atomic      Atomic             Coordinates (Angstroms)
 Number     Number       Type             X           Y           Z
 ---------------------------------------------------------------------
      1          8           0        0.000000    0.000000    0.725000
      2          8           0        0.000000    0.000000   -0.725000
      3          1           0        0.314221    0.863315    1.023510
      4          1           0        0.000000    0.918721   -1.023510
      5         36           0        0.000000    3.200000    0.000000
 ---------------------------------------------------------------------
                    Distance matrix (angstroms):
                    1          2          3          4          5
     1  O    0.000000
     2  O    1.450000   0.000000
     3  H    0.966000   1.975180   0.000000
     4  H    1.975180   0.966000   2.071738   0.000000
     5  Kr   3.281101   3.281101   2.570293   2.500362   0.000000
 Stoichiometry    H2KrO2
 Framework group  C1[X(H2KrO2)]
 Deg. of freedom     9
 Full point group                 C1      NOp   1
 RotChk:  IX=0 Diff= 8.40D-05
 Largest Abelian subgroup         C1      NOp   1
 Largest concise Abelian subgroup C1      NOp   1
                         Standard orientation:                         
 ---------------------------------------------------------------------
 Center     Atomic      Atomic             Coordinates (Angstroms)
 Number     Number       Type             X           Y           Z
 ---------------------------------------------------------------------
      1          8           0        2.166694   -0.723063   -0.035732
      2          8           0        2.165905    0.726247    0.008974
      3          1           0        1.304650   -1.031682    0.272148
      4          1           0        1.247028    1.024017    0.021385
      5         36           0       -1.033680   -0.000495   -0.002207
 ---------------------------------------------------------------------
 Rotational constants (GHZ):     26.5653553      2.0945411      1.9428433
 Leave Link  202 at Fri Jan 17 14:12:12 2020, MaxMem=  536870912 cpu:       0.0
 (Enter /home/matheus/.gaussian/g09/l301.exe)
 Standard basis: Aug-CC-pVTZ (5D, 7F)
 Ernie: Thresh=  0.10000D-02 Tol=  0.10000D-05 Strict=F.
 Ernie:  38 primitive shells out of 205 were deleted.
 There are   197 symmetry adapted basis functions of A   symmetry.
 Integral buffers will be    131072 words long.
 Raffenetti 2 integral format.
 Two-electron integral symmetry is turned on.
   197 basis functions,   415 primitive gaussians,   229 cartesian basis functions
    27 alpha electrons       27 beta electrons
       nuclear repulsion energy       144.5919639800 Hartrees.
 IExCor= 4639 DFT=T Ex+Corr=wB97XD ExCW=0 ScaHFX=  1.000000
 ScaDFX=  1.000000  1.000000  1.000000  1.000000 ScalE2=  1.000000  1.000000
 IRadAn=      5 IRanWt=     -1 IRanGd=            0 ICorTp=0
  HFx wShort=  0.000000 wLong=  0.330000 cFull=  0.222036 cShort=  0.000000 cLong=  0.777964
  DFx wShort=  0.000000 wLong=  0.330000 cFull=  0.000000 cShort=  0.000000 cLong=  1.000000
 NAtoms=    5 NActive=    5 NUniq=    5 SFac= 1.00D+00 NAtFMM=   60 NAOKFM=F Big=F
 R6Disp: Dispersion energy =        -0.0009446658 Hartrees.
 Nuclear repulsion after empirical dispersion term =      144.5910193142 Hartrees.
 Leave Link  301 at Fri Jan 17 14:12:12 2020, MaxMem=  536870912 cpu:       0.1
 (Enter /home/matheus/.gaussian/g09/l302.exe)
 NPDir=0 NMtPBC=     1 NCelOv=     1 NCel=       1 NClECP=     1 NCelD=      1
         NCelK=      1 NCelE2=     1 NClLst=     1 CellRange=     0.0.
 One-electron integrals computed using PRISM.
 NBasis=   197 RedAO= T  NBF=   197
 NBsUse=   197 1.00D-06 NBFU=   197
 Precomputing XC quadrature grid using
 IXCGrd= 2 IRadAn=           5 IRanWt=          -1 IRanGd=           0 AccXCQ= 0.00D+00.
 NRdTot=     427 NPtTot=      123512 NUsed=      126579 NTot=      126611
 NSgBfM=   229   229   229   229   229 NAtAll=     5     5.
 Leave Link  302 at Fri Jan 17 14:12:12 2020, MaxMem=  536870912 cpu:       0.5
 (Enter /home/matheus/.gaussian/g09/l303.exe)
 DipDrv:  MaxL=1.
 Leave Link  303 at Fri Jan 17 14:12:12 2020, MaxMem=  536870912 cpu:       0.1
 (Enter /home/matheus/.gaussian/g09/l401.exe)
 Initial guess read from the read-write file.
 B after Tr=     0.000000    0.000000    0.000000
         Rot=    1.000000    0.000000    0.000000    0.000000 Ang=   0.00 deg.
 Guess basis will be translated and rotated to current coordinates.
 Initial guess orbital symmetries:
       Occupied  (A) (A) (A) (A) (A) (A) (A) (A) (A) (A) (A) (A)
                 (A) (A) (A) (A) (A) (A) (A) (A) (A) (A) (A) (A)
                 (A) (A) (A)
       Virtual   (A) (A) (A) (A) (A) (A) (A) (A) (A) (A) (A) (A)
                 (A) (A) (A) (A) (A) (A) (A) (A) (A) (A) (A) (A)
                 (A) (A) (A) (A) (A) (A) (A) (A) (A) (A) (A) (A)
                 (A) (A) (A) (A) (A) (A) (A) (A) (A) (A) (A) (A)
                 (A) (A) (A) (A) (A) (A) (A) (A) (A) (A) (A) (A)
                 (A) (A) (A) (A) (A) (A) (A) (A) (A) (A) (A) (A)
                 (A) (A) (A) (A) (A) (A) (A) (A) (A) (A) (A) (A)
                 (A) (A) (A) (A) (A) (A) (A) (A) (A) (A) (A) (A)
                 (A) (A) (A) (A) (A) (A) (A) (A) (A) (A) (A) (A)
                 (A) (A) (A) (A) (A) (A) (A) (A) (A) (A) (A) (A)
                 (A) (A) (A) (A) (A) (A) (A) (A) (A) (A) (A) (A)
                 (A) (A) (A) (A) (A) (A) (A) (A) (A) (A) (A) (A)
                 (A) (A) (A) (A) (A) (A) (A) (A) (A) (A) (A) (A)
                 (A) (A) (A) (A) (A) (A) (A) (A) (A) (A) (A) (A)
                 (A) (A)
 The electronic state of the initial guess is 1-A.
 Generating alternative initial guess.
 Harris functional with IExCor= 4639 diagonalized for initial guess.
 ExpMin= 2.53D-02 ExpMax= 1.17D+07 ExpMxC= 1.33D+04 IAcc=3 IRadAn=         5 AccDes= 0.00D+00
 HarFok:  IExCor= 4639 AccDes= 0.00D+00 IRadAn=         5 IDoV= 1
 ScaDFX=  1.000000  1.000000  1.000000  1.000000
 FoFCou: FMM=F IPFlag=           0 FMFlag=      100000 FMFlg1=           0
         NFxFlg=           0 DoJE=T BraDBF=F KetDBF=T FulRan=T
         Omega=  0.000000  0.000000  1.000000  0.000000  0.000000 ICntrl=     500 IOpCl=  0
         NMat0=    1 NMatS0=    1 NMatT0=    0 NMatD0=    1 NMtDS0=    0 NMtDT0=    0
         I1Cent=           4 NGrid=           0.
 Petite list used in FoFCou.
 Harris En= -2873.72834352849    
 Leave Link  401 at Fri Jan 17 14:12:13 2020, MaxMem=  536870912 cpu:       2.9
 (Enter /home/matheus/.gaussian/g09/l502.exe)
 Closed shell SCF:
 Requested convergence on RMS density matrix=1.00D-08 within 128 cycles.
 Requested convergence on MAX density matrix=1.00D-06.
 Requested convergence on             energy=1.00D-06.
 No special actions if energy rises.
 Using DIIS extrapolation, IDIIS=  1040.
 Integral symmetry usage will be decided dynamically.
       126521 words used for storage of precomputed grid.
 IEnd=      305010 IEndB=      305010 NGot=   536870912 MDV=   536635213
 LenX=   536635213 LenY=   536582331
 Fock matrices will be formed incrementally for  20 cycles.

 Cycle   1  Pass 1  IDiag  1:
 FoFJK:  IHMeth= 1 ICntrl=     0 DoSepK=T KAlg= 1 I1Cent= 0 FoldK=F
 FoFCou: FMM=F IPFlag=           0 FMFlag=      100000 FMFlg1=           0
         NFxFlg=           0 DoJE=T BraDBF=F KetDBF=F FulRan=T
         Omega=  0.000000  0.000000  1.000000  0.000000  0.000000 ICntrl=     500 IOpCl=  0
         NMat0=    1 NMatS0=    1 NMatT0=    0 NMatD0=    1 NMtDS0=    0 NMtDT0=    0
         I1Cent=           0 NGrid=           0.
 Symmetry not used in FoFCou.
 E= -2905.43044695697    
 DIIS: error= 2.22D-03 at cycle   1 NSaved=   1.
 NSaved= 1 IEnMin= 1 EnMin= -2905.43044695697     IErMin= 1 ErrMin= 2.22D-03
 ErrMax= 2.22D-03 EMaxC= 1.00D-01 BMatC= 7.81D-04 BMatP= 7.81D-04
 IDIUse=3 WtCom= 9.78D-01 WtEn= 2.22D-02
 Coeff-Com:  0.100D+01
 Coeff-En:   0.100D+01
 Coeff:      0.100D+01
 Gap=     0.434 Goal=   None    Shift=    0.000
 GapD=    0.434 DampG=2.000 DampE=1.000 DampFc=2.0000 IDamp=-1.
 RMSDP=6.81D-05 MaxDP=1.54D-03              OVMax= 3.06D-03

 Cycle   2  Pass 1  IDiag  1:
 RMSU=  4.81D-05    CP:  1.00D+00
 FoFJK:  IHMeth= 1 ICntrl=     0 DoSepK=T KAlg= 1 I1Cent= 0 FoldK=F
 E= -2905.43055865315     Delta-E=       -0.000111696176 Rises=F Damp=F
 DIIS: error= 1.57D-04 at cycle   2 NSaved=   2.
 NSaved= 2 IEnMin= 2 EnMin= -2905.43055865315     IErMin= 2 ErrMin= 1.57D-04
 ErrMax= 1.57D-04 EMaxC= 1.00D-01 BMatC= 4.21D-06 BMatP= 7.81D-04
 IDIUse=3 WtCom= 9.98D-01 WtEn= 1.57D-03
 Coeff-Com: -0.472D-02 0.100D+01
 Coeff-En:   0.000D+00 0.100D+01
 Coeff:     -0.471D-02 0.100D+01
 Gap=     0.430 Goal=   None    Shift=    0.000
 RMSDP=1.44D-05 MaxDP=4.39D-04 DE=-1.12D-04 OVMax= 8.33D-04

 Cycle   3  Pass 1  IDiag  1:
 RMSU=  8.18D-06    CP:  1.00D+00  1.13D+00
 FoFJK:  IHMeth= 1 ICntrl=     0 DoSepK=T KAlg= 1 I1Cent= 0 FoldK=F
 E= -2905.43056240395     Delta-E=       -0.000003750803 Rises=F Damp=F
 DIIS: error= 8.24D-05 at cycle   3 NSaved=   3.
 NSaved= 3 IEnMin= 3 EnMin= -2905.43056240395     IErMin= 3 ErrMin= 8.24D-05
 ErrMax= 8.24D-05 EMaxC= 1.00D-01 BMatC= 1.84D-06 BMatP= 4.21D-06
 IDIUse=1 WtCom= 1.00D+00 WtEn= 0.00D+00
 Coeff-Com: -0.612D-02 0.384D+00 0.622D+00
 Coeff:     -0.612D-02 0.384D+00 0.622D+00
 Gap=     0.431 Goal=   None    Shift=    0.000
 RMSDP=5.05D-06 MaxDP=1.77D-04 DE=-3.75D-06 OVMax= 2.54D-04

 Cycle   4  Pass 1  IDiag  1:
 RMSU=  2.78D-06    CP:  1.00D+00  1.15D+00  7.80D-01
 FoFJK:  IHMeth= 1 ICntrl=     0 DoSepK=T KAlg= 1 I1Cent= 0 FoldK=F
 E= -2905.43056365643     Delta-E=       -0.000001252484 Rises=F Damp=F
 DIIS: error= 1.98D-05 at cycle   4 NSaved=   4.
 NSaved= 4 IEnMin= 4 EnMin= -2905.43056365643     IErMin= 4 ErrMin= 1.98D-05
 ErrMax= 1.98D-05 EMaxC= 1.00D-01 BMatC= 6.91D-08 BMatP= 1.84D-06
 IDIUse=1 WtCom= 1.00D+00 WtEn= 0.00D+00
 Coeff-Com: -0.125D-03-0.664D-01 0.721D-01 0.994D+00
 Coeff:     -0.125D-03-0.664D-01 0.721D-01 0.994D+00
 Gap=     0.431 Goal=   None    Shift=    0.000
 RMSDP=1.95D-06 MaxDP=5.96D-05 DE=-1.25D-06 OVMax= 1.20D-04

 Cycle   5  Pass 1  IDiag  1:
 RMSU=  6.36D-07    CP:  1.00D+00  1.17D+00  8.86D-01  1.21D+00
 FoFJK:  IHMeth= 1 ICntrl=     0 DoSepK=T KAlg= 1 I1Cent= 0 FoldK=F
 E= -2905.43056373645     Delta-E=       -0.000000080018 Rises=F Damp=F
 DIIS: error= 5.50D-06 at cycle   5 NSaved=   5.
 NSaved= 5 IEnMin= 5 EnMin= -2905.43056373645     IErMin= 5 ErrMin= 5.50D-06
 ErrMax= 5.50D-06 EMaxC= 1.00D-01 BMatC= 1.01D-08 BMatP= 6.91D-08
 IDIUse=1 WtCom= 1.00D+00 WtEn= 0.00D+00
 Coeff-Com:  0.265D-03-0.471D-01-0.293D-02 0.386D+00 0.664D+00
 Coeff:      0.265D-03-0.471D-01-0.293D-02 0.386D+00 0.664D+00
 Gap=     0.431 Goal=   None    Shift=    0.000
 RMSDP=4.25D-07 MaxDP=1.57D-05 DE=-8.00D-08 OVMax= 3.10D-05

 Cycle   6  Pass 1  IDiag  1:
 RMSU=  2.08D-07    CP:  1.00D+00  1.17D+00  9.01D-01  1.27D+00  9.52D-01
 FoFJK:  IHMeth= 1 ICntrl=     0 DoSepK=T KAlg= 1 I1Cent= 0 FoldK=F
 E= -2905.43056374423     Delta-E=       -0.000000007779 Rises=F Damp=F
 DIIS: error= 2.31D-06 at cycle   6 NSaved=   6.
 NSaved= 6 IEnMin= 6 EnMin= -2905.43056374423     IErMin= 6 ErrMin= 2.31D-06
 ErrMax= 2.31D-06 EMaxC= 1.00D-01 BMatC= 1.52D-09 BMatP= 1.01D-08
 IDIUse=1 WtCom= 1.00D+00 WtEn= 0.00D+00
 Coeff-Com:  0.135D-03-0.149D-01-0.801D-02 0.729D-01 0.299D+00 0.651D+00
 Coeff:      0.135D-03-0.149D-01-0.801D-02 0.729D-01 0.299D+00 0.651D+00
 Gap=     0.431 Goal=   None    Shift=    0.000
 RMSDP=1.51D-07 MaxDP=5.50D-06 DE=-7.78D-09 OVMax= 1.12D-05

 Cycle   7  Pass 1  IDiag  1:
 RMSU=  6.92D-08    CP:  1.00D+00  1.17D+00  9.05D-01  1.29D+00  1.03D+00
                    CP:  9.16D-01
 FoFJK:  IHMeth= 1 ICntrl=     0 DoSepK=T KAlg= 1 I1Cent= 0 FoldK=F
 E= -2905.43056374549     Delta-E=       -0.000000001261 Rises=F Damp=F
 DIIS: error= 7.26D-07 at cycle   7 NSaved=   7.
 NSaved= 7 IEnMin= 7 EnMin= -2905.43056374549     IErMin= 7 ErrMin= 7.26D-07
 ErrMax= 7.26D-07 EMaxC= 1.00D-01 BMatC= 8.81D-11 BMatP= 1.52D-09
 IDIUse=1 WtCom= 1.00D+00 WtEn= 0.00D+00
 Coeff-Com: -0.344D-04 0.748D-02 0.251D-03-0.665D-01-0.969D-01 0.787D-01
 Coeff-Com:  0.108D+01
 Coeff:     -0.344D-04 0.748D-02 0.251D-03-0.665D-01-0.969D-01 0.787D-01
 Coeff:      0.108D+01
 Gap=     0.431 Goal=   None    Shift=    0.000
 RMSDP=7.95D-08 MaxDP=2.72D-06 DE=-1.26D-09 OVMax= 6.35D-06

 Cycle   8  Pass 1  IDiag  1:
 RMSU=  2.60D-08    CP:  1.00D+00  1.17D+00  9.07D-01  1.30D+00  1.08D+00
                    CP:  1.06D+00  1.21D+00
 FoFJK:  IHMeth= 1 ICntrl=     0 DoSepK=T KAlg= 1 I1Cent= 0 FoldK=F
 E= -2905.43056374568     Delta-E=       -0.000000000185 Rises=F Damp=F
 DIIS: error= 9.98D-08 at cycle   8 NSaved=   8.
 NSaved= 8 IEnMin= 8 EnMin= -2905.43056374568     IErMin= 8 ErrMin= 9.98D-08
 ErrMax= 9.98D-08 EMaxC= 1.00D-01 BMatC= 2.10D-12 BMatP= 8.81D-11
 IDIUse=1 WtCom= 1.00D+00 WtEn= 0.00D+00
 Coeff-Com: -0.448D-05 0.441D-03 0.224D-03-0.185D-02-0.841D-02-0.201D-01
 Coeff-Com: -0.996D-02 0.104D+01
 Coeff:     -0.448D-05 0.441D-03 0.224D-03-0.185D-02-0.841D-02-0.201D-01
 Coeff:     -0.996D-02 0.104D+01
 Gap=     0.431 Goal=   None    Shift=    0.000
 RMSDP=1.76D-08 MaxDP=4.33D-07 DE=-1.85D-10 OVMax= 1.70D-06

 Cycle   9  Pass 1  IDiag  1:
 RMSU=  4.96D-09    CP:  1.00D+00  1.17D+00  9.07D-01  1.29D+00  1.07D+00
                    CP:  1.06D+00  1.28D+00  1.31D+00
 FoFJK:  IHMeth= 1 ICntrl=     0 DoSepK=T KAlg= 1 I1Cent= 0 FoldK=F
 E= -2905.43056374571     Delta-E=       -0.000000000035 Rises=F Damp=F
 DIIS: error= 3.67D-08 at cycle   9 NSaved=   9.
 NSaved= 9 IEnMin= 9 EnMin= -2905.43056374571     IErMin= 9 ErrMin= 3.67D-08
 ErrMax= 3.67D-08 EMaxC= 1.00D-01 BMatC= 3.42D-13 BMatP= 2.10D-12
 IDIUse=1 WtCom= 1.00D+00 WtEn= 0.00D+00
 Coeff-Com:  0.346D-05-0.807D-03-0.775D-05 0.743D-02 0.988D-02-0.120D-01
 Coeff-Com: -0.127D+00 0.143D+00 0.980D+00
 Coeff:      0.346D-05-0.807D-03-0.775D-05 0.743D-02 0.988D-02-0.120D-01
 Coeff:     -0.127D+00 0.143D+00 0.980D+00
 Gap=     0.431 Goal=   None    Shift=    0.000
 RMSDP=7.36D-09 MaxDP=1.71D-07 DE=-3.50D-11 OVMax= 7.73D-07

 SCF Done:  E(RwB97XD) =  -2905.43056375     A.U. after    9 cycles
             Convg  =    0.7362D-08             -V/T =  2.0016
 KE= 2.900882682071D+03 PE=-7.226525519092D+03 EE= 1.275621253961D+03
 Leave Link  502 at Fri Jan 17 14:12:51 2020, MaxMem=  536870912 cpu:     154.0
 (Enter /home/matheus/.gaussian/g09/l108.exe)
 Variable Step   Value    
 -------- ---- -----------
     1       3    6.236096
 Leave Link  108 at Fri Jan 17 14:12:51 2020, MaxMem=  536870912 cpu:       0.0
 (Enter /home/matheus/.gaussian/g09/l202.exe)
 ---------------------------------------------------------------------------------------------------
                            Z-MATRIX (ANGSTROMS AND DEGREES)
   CD    Cent   Atom    N1       Length/X        N2       Alpha/Y        N3        Beta/Z          J
 ---------------------------------------------------------------------------------------------------
      1      1  O        0   0.000000          0.000000          0.725000
      2      2  O        0   0.000000          0.000000         -0.725000
      3      3  H        0   0.314221          0.863315          1.023510
      4      4  H        0   0.000000          0.918721         -1.023510
      5      5  Kr       0   0.000000          3.300000          0.000000
 ---------------------------------------------------------------------------------------------------
                         Z-Matrix orientation:                         
 ---------------------------------------------------------------------
 Center     Atomic      Atomic             Coordinates (Angstroms)
 Number     Number       Type             X           Y           Z
 ---------------------------------------------------------------------
      1          8           0        0.000000    0.000000    0.725000
      2          8           0        0.000000    0.000000   -0.725000
      3          1           0        0.314221    0.863315    1.023510
      4          1           0        0.000000    0.918721   -1.023510
      5         36           0        0.000000    3.300000    0.000000
 ---------------------------------------------------------------------
                    Distance matrix (angstroms):
                    1          2          3          4          5
     1  O    0.000000
     2  O    1.450000   0.000000
     3  H    0.966000   1.975180   0.000000
     4  H    1.975180   0.966000   2.071738   0.000000
     5  Kr   3.378702   3.378702   2.661530   2.591923   0.000000
 Stoichiometry    H2KrO2
 Framework group  C1[X(H2KrO2)]
 Deg. of freedom     9
 Full point group                 C1      NOp   1
 RotChk:  IX=0 Diff= 8.18D-05
 Largest Abelian subgroup         C1      NOp   1
 Largest concise Abelian subgroup C1      NOp   1
                         Standard orientation:                         
 ---------------------------------------------------------------------
 Center     Atomic      Atomic             Coordinates (Angstroms)
 Number     Number       Type             X           Y           Z
 ---------------------------------------------------------------------
      1          8           0        2.233335   -0.723104   -0.035867
      2          8           0        2.232599    0.726207    0.008840
      3          1           0        1.371265   -1.031690    0.271975
      4          1           0        1.313732    1.024011    0.021210
      5         36           0       -1.067013   -0.000476   -0.002138
 ---------------------------------------------------------------------
 Rotational constants (GHZ):     26.5653962      1.9683126      1.8337606
 Leave Link  202 at Fri Jan 17 14:12:51 2020, MaxMem=  536870912 cpu:       0.0
 (Enter /home/matheus/.gaussian/g09/l301.exe)
 Standard basis: Aug-CC-pVTZ (5D, 7F)
 Ernie: Thresh=  0.10000D-02 Tol=  0.10000D-05 Strict=F.
 Ernie:  38 primitive shells out of 205 were deleted.
 There are   197 symmetry adapted basis functions of A   symmetry.
 Integral buffers will be    131072 words long.
 Raffenetti 2 integral format.
 Two-electron integral symmetry is turned on.
   197 basis functions,   415 primitive gaussians,   229 cartesian basis functions
    27 alpha electrons       27 beta electrons
       nuclear repulsion energy       141.3852136713 Hartrees.
 IExCor= 4639 DFT=T Ex+Corr=wB97XD ExCW=0 ScaHFX=  1.000000
 ScaDFX=  1.000000  1.000000  1.000000  1.000000 ScalE2=  1.000000  1.000000
 IRadAn=      5 IRanWt=     -1 IRanGd=            0 ICorTp=0
  HFx wShort=  0.000000 wLong=  0.330000 cFull=  0.222036 cShort=  0.000000 cLong=  0.777964
  DFx wShort=  0.000000 wLong=  0.330000 cFull=  0.000000 cShort=  0.000000 cLong=  1.000000
 NAtoms=    5 NActive=    5 NUniq=    5 SFac= 1.00D+00 NAtFMM=   60 NAOKFM=F Big=F
 R6Disp: Dispersion energy =        -0.0010252503 Hartrees.
 Nuclear repulsion after empirical dispersion term =      141.3841884209 Hartrees.
 Leave Link  301 at Fri Jan 17 14:12:51 2020, MaxMem=  536870912 cpu:       0.1
 (Enter /home/matheus/.gaussian/g09/l302.exe)
 NPDir=0 NMtPBC=     1 NCelOv=     1 NCel=       1 NClECP=     1 NCelD=      1
         NCelK=      1 NCelE2=     1 NClLst=     1 CellRange=     0.0.
 One-electron integrals computed using PRISM.
 NBasis=   197 RedAO= T  NBF=   197
 NBsUse=   197 1.00D-06 NBFU=   197
 Precomputing XC quadrature grid using
 IXCGrd= 2 IRadAn=           5 IRanWt=          -1 IRanGd=           0 AccXCQ= 0.00D+00.
 NRdTot=     427 NPtTot=      123512 NUsed=      126579 NTot=      126611
 NSgBfM=   229   229   229   229   229 NAtAll=     5     5.
 Leave Link  302 at Fri Jan 17 14:12:51 2020, MaxMem=  536870912 cpu:       0.5
 (Enter /home/matheus/.gaussian/g09/l303.exe)
 DipDrv:  MaxL=1.
 Leave Link  303 at Fri Jan 17 14:12:51 2020, MaxMem=  536870912 cpu:       0.1
 (Enter /home/matheus/.gaussian/g09/l401.exe)
 Initial guess read from the read-write file.
 B after Tr=     0.000000    0.000000    0.000000
         Rot=    1.000000    0.000000    0.000000    0.000000 Ang=   0.00 deg.
 Guess basis will be translated and rotated to current coordinates.
 Initial guess orbital symmetries:
       Occupied  (A) (A) (A) (A) (A) (A) (A) (A) (A) (A) (A) (A)
                 (A) (A) (A) (A) (A) (A) (A) (A) (A) (A) (A) (A)
                 (A) (A) (A)
       Virtual   (A) (A) (A) (A) (A) (A) (A) (A) (A) (A) (A) (A)
                 (A) (A) (A) (A) (A) (A) (A) (A) (A) (A) (A) (A)
                 (A) (A) (A) (A) (A) (A) (A) (A) (A) (A) (A) (A)
                 (A) (A) (A) (A) (A) (A) (A) (A) (A) (A) (A) (A)
                 (A) (A) (A) (A) (A) (A) (A) (A) (A) (A) (A) (A)
                 (A) (A) (A) (A) (A) (A) (A) (A) (A) (A) (A) (A)
                 (A) (A) (A) (A) (A) (A) (A) (A) (A) (A) (A) (A)
                 (A) (A) (A) (A) (A) (A) (A) (A) (A) (A) (A) (A)
                 (A) (A) (A) (A) (A) (A) (A) (A) (A) (A) (A) (A)
                 (A) (A) (A) (A) (A) (A) (A) (A) (A) (A) (A) (A)
                 (A) (A) (A) (A) (A) (A) (A) (A) (A) (A) (A) (A)
                 (A) (A) (A) (A) (A) (A) (A) (A) (A) (A) (A) (A)
                 (A) (A) (A) (A) (A) (A) (A) (A) (A) (A) (A) (A)
                 (A) (A) (A) (A) (A) (A) (A) (A) (A) (A) (A) (A)
                 (A) (A)
 The electronic state of the initial guess is 1-A.
 Generating alternative initial guess.
 Harris functional with IExCor= 4639 diagonalized for initial guess.
 ExpMin= 2.53D-02 ExpMax= 1.17D+07 ExpMxC= 1.33D+04 IAcc=3 IRadAn=         5 AccDes= 0.00D+00
 HarFok:  IExCor= 4639 AccDes= 0.00D+00 IRadAn=         5 IDoV= 1
 ScaDFX=  1.000000  1.000000  1.000000  1.000000
 FoFCou: FMM=F IPFlag=           0 FMFlag=      100000 FMFlg1=           0
         NFxFlg=           0 DoJE=T BraDBF=F KetDBF=T FulRan=T
         Omega=  0.000000  0.000000  1.000000  0.000000  0.000000 ICntrl=     500 IOpCl=  0
         NMat0=    1 NMatS0=    1 NMatT0=    0 NMatD0=    1 NMtDS0=    0 NMtDT0=    0
         I1Cent=           4 NGrid=           0.
 Petite list used in FoFCou.
 Harris En= -2873.73108796798    
 Leave Link  401 at Fri Jan 17 14:12:52 2020, MaxMem=  536870912 cpu:       2.9
 (Enter /home/matheus/.gaussian/g09/l502.exe)
 Closed shell SCF:
 Requested convergence on RMS density matrix=1.00D-08 within 128 cycles.
 Requested convergence on MAX density matrix=1.00D-06.
 Requested convergence on             energy=1.00D-06.
 No special actions if energy rises.
 Using DIIS extrapolation, IDIIS=  1040.
 Integral symmetry usage will be decided dynamically.
       126521 words used for storage of precomputed grid.
 IEnd=      305010 IEndB=      305010 NGot=   536870912 MDV=   536635213
 LenX=   536635213 LenY=   536582331
 Fock matrices will be formed incrementally for  20 cycles.

 Cycle   1  Pass 1  IDiag  1:
 FoFJK:  IHMeth= 1 ICntrl=     0 DoSepK=T KAlg= 1 I1Cent= 0 FoldK=F
 FoFCou: FMM=F IPFlag=           0 FMFlag=      100000 FMFlg1=           0
         NFxFlg=           0 DoJE=T BraDBF=F KetDBF=F FulRan=T
         Omega=  0.000000  0.000000  1.000000  0.000000  0.000000 ICntrl=     500 IOpCl=  0
         NMat0=    1 NMatS0=    1 NMatT0=    0 NMatD0=    1 NMtDS0=    0 NMtDT0=    0
         I1Cent=           0 NGrid=           0.
 Symmetry not used in FoFCou.
 E= -2905.43155293523    
 DIIS: error= 1.50D-03 at cycle   1 NSaved=   1.
 NSaved= 1 IEnMin= 1 EnMin= -2905.43155293523     IErMin= 1 ErrMin= 1.50D-03
 ErrMax= 1.50D-03 EMaxC= 1.00D-01 BMatC= 6.03D-04 BMatP= 6.03D-04
 IDIUse=3 WtCom= 9.85D-01 WtEn= 1.50D-02
 Coeff-Com:  0.100D+01
 Coeff-En:   0.100D+01
 Coeff:      0.100D+01
 Gap=     0.434 Goal=   None    Shift=    0.000
 GapD=    0.434 DampG=2.000 DampE=1.000 DampFc=2.0000 IDamp=-1.
 RMSDP=6.31D-05 MaxDP=1.67D-03              OVMax= 2.69D-03

 Cycle   2  Pass 1  IDiag  1:
 RMSU=  4.46D-05    CP:  1.00D+00
 FoFJK:  IHMeth= 1 ICntrl=     0 DoSepK=T KAlg= 1 I1Cent= 0 FoldK=F
 E= -2905.43163808334     Delta-E=       -0.000085148105 Rises=F Damp=F
 DIIS: error= 1.34D-04 at cycle   2 NSaved=   2.
 NSaved= 2 IEnMin= 2 EnMin= -2905.43163808334     IErMin= 2 ErrMin= 1.34D-04
 ErrMax= 1.34D-04 EMaxC= 1.00D-01 BMatC= 2.74D-06 BMatP= 6.03D-04
 IDIUse=3 WtCom= 9.99D-01 WtEn= 1.34D-03
 Coeff-Com: -0.606D-02 0.101D+01
 Coeff-En:   0.000D+00 0.100D+01
 Coeff:     -0.605D-02 0.101D+01
 Gap=     0.431 Goal=   None    Shift=    0.000
 RMSDP=1.25D-05 MaxDP=3.69D-04 DE=-8.51D-05 OVMax= 6.97D-04

 Cycle   3  Pass 1  IDiag  1:
 RMSU=  6.70D-06    CP:  1.00D+00  1.13D+00
 FoFJK:  IHMeth= 1 ICntrl=     0 DoSepK=T KAlg= 1 I1Cent= 0 FoldK=F
 E= -2905.43164085137     Delta-E=       -0.000002768036 Rises=F Damp=F
 DIIS: error= 6.52D-05 at cycle   3 NSaved=   3.
 NSaved= 3 IEnMin= 3 EnMin= -2905.43164085137     IErMin= 3 ErrMin= 6.52D-05
 ErrMax= 6.52D-05 EMaxC= 1.00D-01 BMatC= 1.10D-06 BMatP= 2.74D-06
 IDIUse=1 WtCom= 1.00D+00 WtEn= 0.00D+00
 Coeff-Com: -0.578D-02 0.368D+00 0.638D+00
 Coeff:     -0.578D-02 0.368D+00 0.638D+00
 Gap=     0.431 Goal=   None    Shift=    0.000
 RMSDP=4.12D-06 MaxDP=1.43D-04 DE=-2.77D-06 OVMax= 2.02D-04

 Cycle   4  Pass 1  IDiag  1:
 RMSU=  2.46D-06    CP:  1.00D+00  1.15D+00  8.35D-01
 FoFJK:  IHMeth= 1 ICntrl=     0 DoSepK=T KAlg= 1 I1Cent= 0 FoldK=F
 E= -2905.43164161410     Delta-E=       -0.000000762733 Rises=F Damp=F
 DIIS: error= 1.69D-05 at cycle   4 NSaved=   4.
 NSaved= 4 IEnMin= 4 EnMin= -2905.43164161410     IErMin= 4 ErrMin= 1.69D-05
 ErrMax= 1.69D-05 EMaxC= 1.00D-01 BMatC= 5.81D-08 BMatP= 1.10D-06
 IDIUse=1 WtCom= 1.00D+00 WtEn= 0.00D+00
 Coeff-Com: -0.108D-03-0.670D-01 0.101D+00 0.967D+00
 Coeff:     -0.108D-03-0.670D-01 0.101D+00 0.967D+00
 Gap=     0.431 Goal=   None    Shift=    0.000
 RMSDP=1.75D-06 MaxDP=5.44D-05 DE=-7.63D-07 OVMax= 9.96D-05

 Cycle   5  Pass 1  IDiag  1:
 RMSU=  5.52D-07    CP:  1.00D+00  1.17D+00  9.59D-01  1.19D+00
 FoFJK:  IHMeth= 1 ICntrl=     0 DoSepK=T KAlg= 1 I1Cent= 0 FoldK=F
 E= -2905.43164167675     Delta-E=       -0.000000062648 Rises=F Damp=F
 DIIS: error= 5.67D-06 at cycle   5 NSaved=   5.
 NSaved= 5 IEnMin= 5 EnMin= -2905.43164167675     IErMin= 5 ErrMin= 5.67D-06
 ErrMax= 5.67D-06 EMaxC= 1.00D-01 BMatC= 9.14D-09 BMatP= 5.81D-08
 IDIUse=1 WtCom= 1.00D+00 WtEn= 0.00D+00
 Coeff-Com:  0.275D-03-0.497D-01 0.792D-02 0.401D+00 0.641D+00
 Coeff:      0.275D-03-0.497D-01 0.792D-02 0.401D+00 0.641D+00
 Gap=     0.431 Goal=   None    Shift=    0.000
 RMSDP=3.85D-07 MaxDP=1.53D-05 DE=-6.26D-08 OVMax= 2.88D-05

 Cycle   6  Pass 1  IDiag  1:
 RMSU=  1.86D-07    CP:  1.00D+00  1.17D+00  9.78D-01  1.24D+00  9.20D-01
 FoFJK:  IHMeth= 1 ICntrl=     0 DoSepK=T KAlg= 1 I1Cent= 0 FoldK=F
 E= -2905.43164168364     Delta-E=       -0.000000006885 Rises=F Damp=F
 DIIS: error= 2.05D-06 at cycle   6 NSaved=   6.
 NSaved= 6 IEnMin= 6 EnMin= -2905.43164168364     IErMin= 6 ErrMin= 2.05D-06
 ErrMax= 2.05D-06 EMaxC= 1.00D-01 BMatC= 1.15D-09 BMatP= 9.14D-09
 IDIUse=1 WtCom= 1.00D+00 WtEn= 0.00D+00
 Coeff-Com:  0.133D-03-0.144D-01-0.700D-02 0.654D-01 0.277D+00 0.679D+00
 Coeff:      0.133D-03-0.144D-01-0.700D-02 0.654D-01 0.277D+00 0.679D+00
 Gap=     0.431 Goal=   None    Shift=    0.000
 RMSDP=1.36D-07 MaxDP=4.47D-06 DE=-6.89D-09 OVMax= 1.02D-05

 Cycle   7  Pass 1  IDiag  1:
 RMSU=  6.05D-08    CP:  1.00D+00  1.17D+00  9.83D-01  1.26D+00  1.00D+00
                    CP:  9.25D-01
 FoFJK:  IHMeth= 1 ICntrl=     0 DoSepK=T KAlg= 1 I1Cent= 0 FoldK=F
 E= -2905.43164168468     Delta-E=       -0.000000001045 Rises=F Damp=F
 DIIS: error= 6.59D-07 at cycle   7 NSaved=   7.
 NSaved= 7 IEnMin= 7 EnMin= -2905.43164168468     IErMin= 7 ErrMin= 6.59D-07
 ErrMax= 6.59D-07 EMaxC= 1.00D-01 BMatC= 6.04D-11 BMatP= 1.15D-09
 IDIUse=1 WtCom= 1.00D+00 WtEn= 0.00D+00
 Coeff-Com: -0.361D-04 0.766D-02-0.137D-02-0.656D-01-0.917D-01 0.595D-01
 Coeff-Com:  0.109D+01
 Coeff:     -0.361D-04 0.766D-02-0.137D-02-0.656D-01-0.917D-01 0.595D-01
 Coeff:      0.109D+01
 Gap=     0.431 Goal=   None    Shift=    0.000
 RMSDP=6.69D-08 MaxDP=2.33D-06 DE=-1.04D-09 OVMax= 5.55D-06

 Cycle   8  Pass 1  IDiag  1:
 RMSU=  2.20D-08    CP:  1.00D+00  1.17D+00  9.85D-01  1.27D+00  1.04D+00
                    CP:  1.06D+00  1.25D+00
 FoFJK:  IHMeth= 1 ICntrl=     0 DoSepK=T KAlg= 1 I1Cent= 0 FoldK=F
 E= -2905.43164168483     Delta-E=       -0.000000000144 Rises=F Damp=F
 DIIS: error= 8.92D-08 at cycle   8 NSaved=   8.
 NSaved= 8 IEnMin= 8 EnMin= -2905.43164168483     IErMin= 8 ErrMin= 8.92D-08
 ErrMax= 8.92D-08 EMaxC= 1.00D-01 BMatC= 1.23D-12 BMatP= 6.04D-11
 IDIUse=1 WtCom= 1.00D+00 WtEn= 0.00D+00
 Coeff-Com: -0.163D-06-0.403D-03 0.292D-03 0.526D-02 0.227D-02-0.247D-01
 Coeff-Com: -0.119D+00 0.114D+01
 Coeff:     -0.163D-06-0.403D-03 0.292D-03 0.526D-02 0.227D-02-0.247D-01
 Coeff:     -0.119D+00 0.114D+01
 Gap=     0.431 Goal=   None    Shift=    0.000
 RMSDP=1.65D-08 MaxDP=4.21D-07 DE=-1.44D-10 OVMax= 1.56D-06

 Cycle   9  Pass 1  IDiag  1:
 RMSU=  3.89D-09    CP:  1.00D+00  1.17D+00  9.85D-01  1.26D+00  1.04D+00
                    CP:  1.07D+00  1.32D+00  1.34D+00
 FoFJK:  IHMeth= 1 ICntrl=     0 DoSepK=T KAlg= 1 I1Cent= 0 FoldK=F
 E= -2905.43164168483     Delta-E=       -0.000000000005 Rises=F Damp=F
 DIIS: error= 2.96D-08 at cycle   9 NSaved=   9.
 NSaved= 9 IEnMin= 9 EnMin= -2905.43164168483     IErMin= 9 ErrMin= 2.96D-08
 ErrMax= 2.96D-08 EMaxC= 1.00D-01 BMatC= 1.70D-13 BMatP= 1.23D-12
 IDIUse=1 WtCom= 1.00D+00 WtEn= 0.00D+00
 Coeff-Com:  0.319D-05-0.720D-03 0.148D-03 0.636D-02 0.818D-02-0.839D-02
 Coeff-Com: -0.111D+00 0.140D+00 0.965D+00
 Coeff:      0.319D-05-0.720D-03 0.148D-03 0.636D-02 0.818D-02-0.839D-02
 Coeff:     -0.111D+00 0.140D+00 0.965D+00
 Gap=     0.431 Goal=   None    Shift=    0.000
 RMSDP=4.76D-09 MaxDP=1.25D-07 DE=-5.46D-12 OVMax= 5.65D-07

 SCF Done:  E(RwB97XD) =  -2905.43164168     A.U. after    9 cycles
             Convg  =    0.4755D-08             -V/T =  2.0016
 KE= 2.900876158608D+03 PE=-7.220156894013D+03 EE= 1.272464905299D+03
 Leave Link  502 at Fri Jan 17 14:13:30 2020, MaxMem=  536870912 cpu:     153.2
 (Enter /home/matheus/.gaussian/g09/l108.exe)
 Variable Step   Value    
 -------- ---- -----------
     1       4    6.425069
 Leave Link  108 at Fri Jan 17 14:13:31 2020, MaxMem=  536870912 cpu:       0.0
 (Enter /home/matheus/.gaussian/g09/l202.exe)
 ---------------------------------------------------------------------------------------------------
                            Z-MATRIX (ANGSTROMS AND DEGREES)
   CD    Cent   Atom    N1       Length/X        N2       Alpha/Y        N3        Beta/Z          J
 ---------------------------------------------------------------------------------------------------
      1      1  O        0   0.000000          0.000000          0.725000
      2      2  O        0   0.000000          0.000000         -0.725000
      3      3  H        0   0.314221          0.863315          1.023510
      4      4  H        0   0.000000          0.918721         -1.023510
      5      5  Kr       0   0.000000          3.400000          0.000000
 ---------------------------------------------------------------------------------------------------
[...]
 Coeff:      0.386D-02 0.996D+00
 Gap=     0.428 Goal=   None    Shift=    0.000
 RMSDP=1.75D-06 MaxDP=5.45D-05 DE=-1.32D-06 OVMax= 1.29D-04

 Cycle   3  Pass 1  IDiag  1:
 RMSU=  9.46D-07    CP:  1.00D+00  1.08D+00
 FoFJK:  IHMeth= 1 ICntrl=     0 DoSepK=T KAlg= 1 I1Cent= 0 FoldK=F
 E= -2905.43119885216     Delta-E=       -0.000000061510 Rises=F Damp=F
 DIIS: error= 7.20D-06 at cycle   3 NSaved=   3.
 NSaved= 3 IEnMin= 3 EnMin= -2905.43119885216     IErMin= 3 ErrMin= 7.20D-06
 ErrMax= 7.20D-06 EMaxC= 1.00D-01 BMatC= 7.12D-09 BMatP= 4.90D-08
 IDIUse=1 WtCom= 1.00D+00 WtEn= 0.00D+00
 Coeff-Com: -0.682D-02 0.233D+00 0.774D+00
 Coeff:     -0.682D-02 0.233D+00 0.774D+00
 Gap=     0.428 Goal=   None    Shift=    0.000
 RMSDP=3.80D-07 MaxDP=1.45D-05 DE=-6.15D-08 OVMax= 4.26D-05

 Cycle   4  Pass 1  IDiag  1:
 RMSU=  2.44D-07    CP:  1.00D+00  1.09D+00  1.05D+00
 FoFJK:  IHMeth= 1 ICntrl=     0 DoSepK=T KAlg= 1 I1Cent= 0 FoldK=F
 E= -2905.43119885997     Delta-E=       -0.000000007811 Rises=F Damp=F
 DIIS: error= 1.59D-06 at cycle   4 NSaved=   4.
 NSaved= 4 IEnMin= 4 EnMin= -2905.43119885997     IErMin= 4 ErrMin= 1.59D-06
 ErrMax= 1.59D-06 EMaxC= 1.00D-01 BMatC= 4.27D-10 BMatP= 7.12D-09
 IDIUse=1 WtCom= 1.00D+00 WtEn= 0.00D+00
 Coeff-Com: -0.400D-03-0.498D-01 0.178D-01 0.103D+01
 Coeff:     -0.400D-03-0.498D-01 0.178D-01 0.103D+01
 Gap=     0.428 Goal=   None    Shift=    0.000
 RMSDP=2.19D-07 MaxDP=1.04D-05 DE=-7.81D-09 OVMax= 2.01D-05

 Cycle   5  Pass 1  IDiag  1:
 RMSU=  7.42D-08    CP:  1.00D+00  1.09D+00  1.17D+00  1.30D+00
 FoFJK:  IHMeth= 1 ICntrl=     0 DoSepK=T KAlg= 1 I1Cent= 0 FoldK=F
 E= -2905.43119886078     Delta-E=       -0.000000000813 Rises=F Damp=F
 DIIS: error= 8.63D-07 at cycle   5 NSaved=   5.
 NSaved= 5 IEnMin= 5 EnMin= -2905.43119886078     IErMin= 5 ErrMin= 8.63D-07
 ErrMax= 8.63D-07 EMaxC= 1.00D-01 BMatC= 1.32D-10 BMatP= 4.27D-10
 IDIUse=1 WtCom= 1.00D+00 WtEn= 0.00D+00
 Coeff-Com:  0.565D-03-0.456D-01-0.771D-01 0.430D+00 0.692D+00
 Coeff:      0.565D-03-0.456D-01-0.771D-01 0.430D+00 0.692D+00
 Gap=     0.428 Goal=   None    Shift=    0.000
 RMSDP=6.11D-08 MaxDP=2.99D-06 DE=-8.13D-10 OVMax= 5.31D-06

 Cycle   6  Pass 1  IDiag  1:
 RMSU=  2.22D-08    CP:  1.00D+00  1.09D+00  1.19D+00  1.42D+00  9.40D-01
 FoFJK:  IHMeth= 1 ICntrl=     0 DoSepK=T KAlg= 1 I1Cent= 0 FoldK=F
 E= -2905.43119886090     Delta-E=       -0.000000000119 Rises=F Damp=F
 DIIS: error= 1.73D-07 at cycle   6 NSaved=   6.
 NSaved= 6 IEnMin= 6 EnMin= -2905.43119886090     IErMin= 6 ErrMin= 1.73D-07
 ErrMax= 1.73D-07 EMaxC= 1.00D-01 BMatC= 4.80D-12 BMatP= 1.32D-10
 IDIUse=1 WtCom= 1.00D+00 WtEn= 0.00D+00
 Coeff-Com:  0.138D-03-0.559D-02-0.176D-01 0.251D-01 0.144D+00 0.854D+00
 Coeff:      0.138D-03-0.559D-02-0.176D-01 0.251D-01 0.144D+00 0.854D+00
 Gap=     0.428 Goal=   None    Shift=    0.000
 RMSDP=1.74D-08 MaxDP=8.33D-07 DE=-1.19D-10 OVMax= 1.37D-06

 Cycle   7  Pass 1  IDiag  1:
 RMSU=  6.49D-09    CP:  1.00D+00  1.09D+00  1.20D+00  1.44D+00  1.01D+00
                    CP:  1.16D+00
 FoFJK:  IHMeth= 1 ICntrl=     0 DoSepK=T KAlg= 1 I1Cent= 0 FoldK=F
 E= -2905.43119886091     Delta-E=       -0.000000000009 Rises=F Damp=F
 DIIS: error= 1.30D-07 at cycle   7 NSaved=   7.
 NSaved= 7 IEnMin= 7 EnMin= -2905.43119886091     IErMin= 7 ErrMin= 1.30D-07
 ErrMax= 1.30D-07 EMaxC= 1.00D-01 BMatC= 2.27D-12 BMatP= 4.80D-12
 IDIUse=1 WtCom= 1.00D+00 WtEn= 0.00D+00
 Coeff-Com: -0.245D-04 0.512D-02 0.358D-02-0.622D-01-0.431D-01 0.463D+00
 Coeff-Com:  0.634D+00
 Coeff:     -0.245D-04 0.512D-02 0.358D-02-0.622D-01-0.431D-01 0.463D+00
 Coeff:      0.634D+00
 Gap=     0.428 Goal=   None    Shift=    0.000
 RMSDP=6.61D-09 MaxDP=3.04D-07 DE=-9.09D-12 OVMax= 4.85D-07

 SCF Done:  E(RwB97XD) =  -2905.43119886     A.U. after    7 cycles
             Convg  =    0.6613D-08             -V/T =  2.0016
 KE= 2.900894525787D+03 PE=-7.152795063429D+03 EE= 1.239074937923D+03
 Leave Link  502 at Fri Jan 17 14:21:48 2020, MaxMem=  536870912 cpu:      94.7
 (Enter /home/matheus/.gaussian/g09/l108.exe)
 Variable Step   Value    
 -------- ---- -----------
     1      20    9.448631
 Leave Link  108 at Fri Jan 17 14:21:48 2020, MaxMem=  536870912 cpu:       0.0
 (Enter /home/matheus/.gaussian/g09/l202.exe)
 ---------------------------------------------------------------------------------------------------
                            Z-MATRIX (ANGSTROMS AND DEGREES)
   CD    Cent   Atom    N1       Length/X        N2       Alpha/Y        N3        Beta/Z          J
 ---------------------------------------------------------------------------------------------------
      1      1  O        0   0.000000          0.000000          0.725000
      2      2  O        0   0.000000          0.000000         -0.725000
      3      3  H        0   0.314221          0.863315          1.023510
      4      4  H        0   0.000000          0.918721         -1.023510
      5      5  Kr       0   0.000000          5.000000          0.000000
 ---------------------------------------------------------------------------------------------------
                         Z-Matrix orientation:                         
 ---------------------------------------------------------------------
 Center     Atomic      Atomic             Coordinates (Angstroms)
 Number     Number       Type             X           Y           Z
 ---------------------------------------------------------------------
      1          8           0        0.000000    0.000000    0.725000
      2          8           0        0.000000    0.000000   -0.725000
      3          1           0        0.314221    0.863315    1.023510
      4          1           0        0.000000    0.918721   -1.023510
      5         36           0        0.000000    5.000000    0.000000
 ---------------------------------------------------------------------
                    Distance matrix (angstroms):
                    1          2          3          4          5
     1  O    0.000000
     2  O    1.450000   0.000000
     3  H    0.966000   1.975180   0.000000
     4  H    1.975180   0.966000   2.071738   0.000000
     5  Kr   5.052289   5.052289   4.272993   4.207661   0.000000
 Stoichiometry    H2KrO2
 Framework group  C1[X(H2KrO2)]
 Deg. of freedom     9
 Full point group                 C1      NOp   1
 RotChk:  IX=0 Diff= 5.58D-05
 Largest Abelian subgroup         C1      NOp   1
 Largest concise Abelian subgroup C1      NOp   1
                         Standard orientation:                         
 ---------------------------------------------------------------------
 Center     Atomic      Atomic             Coordinates (Angstroms)
 Number     Number       Type             X           Y           Z
 ---------------------------------------------------------------------
      1          8           0        3.366455   -0.723500   -0.037290
      2          8           0        3.366156    0.725811    0.007420
      3          1           0        2.504059   -1.031807    0.269915
      4          1           0        2.447377    1.023913    0.019113
      5         36           0       -1.633676   -0.000294   -0.001391
 ---------------------------------------------------------------------
 Rotational constants (GHZ):     26.5658885      0.8510107      0.8248429
 Leave Link  202 at Fri Jan 17 14:21:48 2020, MaxMem=  536870912 cpu:       0.0
 (Enter /home/matheus/.gaussian/g09/l301.exe)
 Standard basis: Aug-CC-pVTZ (5D, 7F)
 Ernie: Thresh=  0.10000D-02 Tol=  0.10000D-05 Strict=F.
 Ernie:  38 primitive shells out of 205 were deleted.
 There are   197 symmetry adapted basis functions of A   symmetry.
 Integral buffers will be    131072 words long.
 Raffenetti 2 integral format.
 Two-electron integral symmetry is turned on.
   197 basis functions,   415 primitive gaussians,   229 cartesian basis functions
    27 alpha electrons       27 beta electrons
       nuclear repulsion energy       105.9798270356 Hartrees.
 IExCor= 4639 DFT=T Ex+Corr=wB97XD ExCW=0 ScaHFX=  1.000000
 ScaDFX=  1.000000  1.000000  1.000000  1.000000 ScalE2=  1.000000  1.000000
 IRadAn=      5 IRanWt=     -1 IRanGd=            0 ICorTp=0
  HFx wShort=  0.000000 wLong=  0.330000 cFull=  0.222036 cShort=  0.000000 cLong=  0.777964
  DFx wShort=  0.000000 wLong=  0.330000 cFull=  0.000000 cShort=  0.000000 cLong=  1.000000
 NAtoms=    5 NActive=    5 NUniq=    5 SFac= 1.00D+00 NAtFMM=   60 NAOKFM=F Big=F
 R6Disp: Dispersion energy =        -0.0005199499 Hartrees.
 Nuclear repulsion after empirical dispersion term =      105.9793070857 Hartrees.
 Leave Link  301 at Fri Jan 17 14:21:48 2020, MaxMem=  536870912 cpu:       0.1
 (Enter /home/matheus/.gaussian/g09/l302.exe)
 NPDir=0 NMtPBC=     1 NCelOv=     1 NCel=       1 NClECP=     1 NCelD=      1
         NCelK=      1 NCelE2=     1 NClLst=     1 CellRange=     0.0.
 One-electron integrals computed using PRISM.
 NBasis=   197 RedAO= T  NBF=   197
 NBsUse=   197 1.00D-06 NBFU=   197
 Precomputing XC quadrature grid using
 IXCGrd= 2 IRadAn=           5 IRanWt=          -1 IRanGd=           0 AccXCQ= 0.00D+00.
 NRdTot=     427 NPtTot=      123814 NUsed=      126881 NTot=      126913
 NSgBfM=   228   228   229   229   229 NAtAll=     5     5.
 Leave Link  302 at Fri Jan 17 14:21:48 2020, MaxMem=  536870912 cpu:       0.4
 (Enter /home/matheus/.gaussian/g09/l303.exe)
 DipDrv:  MaxL=1.
 Leave Link  303 at Fri Jan 17 14:21:48 2020, MaxMem=  536870912 cpu:       0.1
 (Enter /home/matheus/.gaussian/g09/l401.exe)
 Initial guess read from the read-write file.
 B after Tr=     0.000000    0.000000    0.000000
         Rot=    1.000000    0.000000    0.000000    0.000000 Ang=   0.00 deg.
 Guess basis will be translated and rotated to current coordinates.
 Initial guess orbital symmetries:
       Occupied  (A) (A) (A) (A) (A) (A) (A) (A) (A) (A) (A) (A)
                 (A) (A) (A) (A) (A) (A) (A) (A) (A) (A) (A) (A)
                 (A) (A) (A)
       Virtual   (A) (A) (A) (A) (A) (A) (A) (A) (A) (A) (A) (A)
                 (A) (A) (A) (A) (A) (A) (A) (A) (A) (A) (A) (A)
                 (A) (A) (A) (A) (A) (A) (A) (A) (A) (A) (A) (A)
                 (A) (A) (A) (A) (A) (A) (A) (A) (A) (A) (A) (A)
                 (A) (A) (A) (A) (A) (A) (A) (A) (A) (A) (A) (A)
                 (A) (A) (A) (A) (A) (A) (A) (A) (A) (A) (A) (A)
                 (A) (A) (A) (A) (A) (A) (A) (A) (A) (A) (A) (A)
                 (A) (A) (A) (A) (A) (A) (A) (A) (A) (A) (A) (A)
                 (A) (A) (A) (A) (A) (A) (A) (A) (A) (A) (A) (A)
                 (A) (A) (A) (A) (A) (A) (A) (A) (A) (A) (A) (A)
                 (A) (A) (A) (A) (A) (A) (A) (A) (A) (A) (A) (A)
                 (A) (A) (A) (A) (A) (A) (A) (A) (A) (A) (A) (A)
                 (A) (A) (A) (A) (A) (A) (A) (A) (A) (A) (A) (A)
                 (A) (A) (A) (A) (A) (A) (A) (A) (A) (A) (A) (A)
                 (A) (A)
 The electronic state of the initial guess is 1-A.
 Generating alternative initial guess.
 Harris functional with IExCor= 4639 diagonalized for initial guess.
 ExpMin= 2.53D-02 ExpMax= 1.17D+07 ExpMxC= 1.33D+04 IAcc=3 IRadAn=         5 AccDes= 0.00D+00
 HarFok:  IExCor= 4639 AccDes= 0.00D+00 IRadAn=         5 IDoV= 1
 ScaDFX=  1.000000  1.000000  1.000000  1.000000
 FoFCou: FMM=F IPFlag=           0 FMFlag=      100000 FMFlg1=           0
         NFxFlg=           0 DoJE=T BraDBF=F KetDBF=T FulRan=T
         Omega=  0.000000  0.000000  1.000000  0.000000  0.000000 ICntrl=     500 IOpCl=  0
         NMat0=    1 NMatS0=    1 NMatT0=    0 NMatD0=    1 NMtDS0=    0 NMtDT0=    0
         I1Cent=           4 NGrid=           0.
 Petite list used in FoFCou.
 Harris En= -2873.73466693077    
 Leave Link  401 at Fri Jan 17 14:21:49 2020, MaxMem=  536870912 cpu:       2.5
 (Enter /home/matheus/.gaussian/g09/l502.exe)
 Closed shell SCF:
 Requested convergence on RMS density matrix=1.00D-08 within 128 cycles.
 Requested convergence on MAX density matrix=1.00D-06.
 Requested convergence on             energy=1.00D-06.
 No special actions if energy rises.
 Using DIIS extrapolation, IDIIS=  1040.
 Integral symmetry usage will be decided dynamically.
       126823 words used for storage of precomputed grid.
 IEnd=      305312 IEndB=      305312 NGot=   536870912 MDV=   536634911
 LenX=   536634911 LenY=   536582029
 Fock matrices will be formed incrementally for  20 cycles.

 Cycle   1  Pass 1  IDiag  1:
 FoFJK:  IHMeth= 1 ICntrl=     0 DoSepK=T KAlg= 1 I1Cent= 0 FoldK=F
 FoFCou: FMM=F IPFlag=           0 FMFlag=      100000 FMFlg1=           0
         NFxFlg=           0 DoJE=T BraDBF=F KetDBF=F FulRan=T
         Omega=  0.000000  0.000000  1.000000  0.000000  0.000000 ICntrl=     500 IOpCl=  0
         NMat0=    1 NMatS0=    1 NMatT0=    0 NMatD0=    1 NMtDS0=    0 NMtDT0=    0
         I1Cent=           0 NGrid=           0.
 Symmetry not used in FoFCou.
 E= -2905.43112111946    
 DIIS: error= 1.38D-04 at cycle   1 NSaved=   1.
 NSaved= 1 IEnMin= 1 EnMin= -2905.43112111946     IErMin= 1 ErrMin= 1.38D-04
 ErrMax= 1.38D-04 EMaxC= 1.00D-01 BMatC= 3.88D-06 BMatP= 3.88D-06
 IDIUse=3 WtCom= 9.99D-01 WtEn= 1.38D-03
 Coeff-Com:  0.100D+01
 Coeff-En:   0.100D+01
 Coeff:      0.100D+01
 Gap=     0.428 Goal=   None    Shift=    0.000
 RMSDP=1.19D-05 MaxDP=2.67D-04              OVMax= 5.40D-04

 Cycle   2  Pass 1  IDiag  1:
 RMSU=  8.38D-06    CP:  1.00D+00
 FoFJK:  IHMeth= 1 ICntrl=     0 DoSepK=T KAlg= 1 I1Cent= 0 FoldK=F
 E= -2905.43112222557     Delta-E=       -0.000001106112 Rises=F Damp=F
 DIIS: error= 2.10D-05 at cycle   2 NSaved=   2.
 NSaved= 2 IEnMin= 2 EnMin= -2905.43112222557     IErMin= 2 ErrMin= 2.10D-05
 ErrMax= 2.10D-05 EMaxC= 1.00D-01 BMatC= 4.12D-08 BMatP= 3.88D-06
 IDIUse=1 WtCom= 1.00D+00 WtEn= 0.00D+00
 Coeff-Com:  0.420D-02 0.996D+00
 Coeff:      0.420D-02 0.996D+00
 Gap=     0.428 Goal=   None    Shift=    0.000
 RMSDP=1.53D-06 MaxDP=4.75D-05 DE=-1.11D-06 OVMax= 1.17D-04

 Cycle   3  Pass 1  IDiag  1:
 RMSU=  8.84D-07    CP:  1.00D+00  1.07D+00
 FoFJK:  IHMeth= 1 ICntrl=     0 DoSepK=T KAlg= 1 I1Cent= 0 FoldK=F
 E= -2905.43112227622     Delta-E=       -0.000000050648 Rises=F Damp=F
 DIIS: error= 6.83D-06 at cycle   3 NSaved=   3.
 NSaved= 3 IEnMin= 3 EnMin= -2905.43112227622     IErMin= 3 ErrMin= 6.83D-06
 ErrMax= 6.83D-06 EMaxC= 1.00D-01 BMatC= 5.99D-09 BMatP= 4.12D-08
 IDIUse=1 WtCom= 1.00D+00 WtEn= 0.00D+00
 Coeff-Com: -0.645D-02 0.235D+00 0.771D+00
 Coeff:     -0.645D-02 0.235D+00 0.771D+00
 Gap=     0.428 Goal=   None    Shift=    0.000
 RMSDP=3.48D-07 MaxDP=1.29D-05 DE=-5.06D-08 OVMax= 3.83D-05

 Cycle   4  Pass 1  IDiag  1:
 RMSU=  2.24D-07    CP:  1.00D+00  1.09D+00  1.05D+00
 FoFJK:  IHMeth= 1 ICntrl=     0 DoSepK=T KAlg= 1 I1Cent= 0 FoldK=F
 E= -2905.43112228269     Delta-E=       -0.000000006468 Rises=F Damp=F
 DIIS: error= 1.52D-06 at cycle   4 NSaved=   4.
 NSaved= 4 IEnMin= 4 EnMin= -2905.43112228269     IErMin= 4 ErrMin= 1.52D-06
 ErrMax= 1.52D-06 EMaxC= 1.00D-01 BMatC= 3.45D-10 BMatP= 5.99D-09
 IDIUse=1 WtCom= 1.00D+00 WtEn= 0.00D+00
 Coeff-Com: -0.391D-03-0.479D-01 0.175D-01 0.103D+01
 Coeff:     -0.391D-03-0.479D-01 0.175D-01 0.103D+01
 Gap=     0.428 Goal=   None    Shift=    0.000
 RMSDP=2.09D-07 MaxDP=9.40D-06 DE=-6.47D-09 OVMax= 1.79D-05

 Cycle   5  Pass 1  IDiag  1:
 RMSU=  6.78D-08    CP:  1.00D+00  1.09D+00  1.17D+00  1.32D+00
 FoFJK:  IHMeth= 1 ICntrl=     0 DoSepK=T KAlg= 1 I1Cent= 0 FoldK=F
 E= -2905.43112228335     Delta-E=       -0.000000000668 Rises=F Damp=F
 DIIS: error= 7.68D-07 at cycle   5 NSaved=   5.
 NSaved= 5 IEnMin= 5 EnMin= -2905.43112228335     IErMin= 5 ErrMin= 7.68D-07
 ErrMax= 7.68D-07 EMaxC= 1.00D-01 BMatC= 1.09D-10 BMatP= 3.45D-10
 IDIUse=1 WtCom= 1.00D+00 WtEn= 0.00D+00
 Coeff-Com:  0.537D-03-0.453D-01-0.777D-01 0.430D+00 0.692D+00
 Coeff:      0.537D-03-0.453D-01-0.777D-01 0.430D+00 0.692D+00
 Gap=     0.428 Goal=   None    Shift=    0.000
 RMSDP=5.70D-08 MaxDP=2.76D-06 DE=-6.68D-10 OVMax= 4.82D-06

 Cycle   6  Pass 1  IDiag  1:
 RMSU=  2.14D-08    CP:  1.00D+00  1.09D+00  1.20D+00  1.43D+00  9.59D-01
 FoFJK:  IHMeth= 1 ICntrl=     0 DoSepK=T KAlg= 1 I1Cent= 0 FoldK=F
 E= -2905.43112228346     Delta-E=       -0.000000000103 Rises=F Damp=F
 DIIS: error= 1.66D-07 at cycle   6 NSaved=   6.
 NSaved= 6 IEnMin= 6 EnMin= -2905.43112228346     IErMin= 6 ErrMin= 1.66D-07
 ErrMax= 1.66D-07 EMaxC= 1.00D-01 BMatC= 4.17D-12 BMatP= 1.09D-10
 IDIUse=1 WtCom= 1.00D+00 WtEn= 0.00D+00
 Coeff-Com:  0.138D-03-0.610D-02-0.186D-01 0.290D-01 0.151D+00 0.845D+00
 Coeff:      0.138D-03-0.610D-02-0.186D-01 0.290D-01 0.151D+00 0.845D+00
 Gap=     0.428 Goal=   None    Shift=    0.000
 RMSDP=1.61D-08 MaxDP=7.89D-07 DE=-1.03D-10 OVMax= 1.25D-06

 Cycle   7  Pass 1  IDiag  1:
 RMSU=  6.02D-09    CP:  1.00D+00  1.09D+00  1.20D+00  1.46D+00  1.03D+00
                    CP:  1.17D+00
 FoFJK:  IHMeth= 1 ICntrl=     0 DoSepK=T KAlg= 1 I1Cent= 0 FoldK=F
 E= -2905.43112228345     Delta-E=        0.000000000007 Rises=F Damp=F
 DIIS: error= 1.18D-07 at cycle   7 NSaved=   7.
 NSaved= 7 IEnMin= 6 EnMin= -2905.43112228346     IErMin= 7 ErrMin= 1.18D-07
 ErrMax= 1.18D-07 EMaxC= 1.00D-01 BMatC= 1.88D-12 BMatP= 4.17D-12
 IDIUse=1 WtCom= 1.00D+00 WtEn= 0.00D+00
 Coeff-Com: -0.231D-04 0.509D-02 0.373D-02-0.629D-01-0.440D-01 0.454D+00
 Coeff-Com:  0.645D+00
 Coeff:     -0.231D-04 0.509D-02 0.373D-02-0.629D-01-0.440D-01 0.454D+00
 Coeff:      0.645D+00
 Gap=     0.428 Goal=   None    Shift=    0.000
 RMSDP=6.30D-09 MaxDP=2.99D-07 DE= 7.28D-12 OVMax= 4.63D-07

 SCF Done:  E(RwB97XD) =  -2905.43112228     A.U. after    7 cycles
             Convg  =    0.6301D-08             -V/T =  2.0016
 KE= 2.900895186500D+03 PE=-7.149988066504D+03 EE= 1.237682450635D+03
 Leave Link  502 at Fri Jan 17 14:22:12 2020, MaxMem=  536870912 cpu:      92.4
 (Enter /home/matheus/.gaussian/g09/l108.exe)
 Scan completed.

 Summary of the potential surface scan:
   N      R1          SCF    
 ----  ---------  -----------
    1     3.0000  -2905.42634
    2     3.1000  -2905.42888
    3     3.2000  -2905.43056
    4     3.3000  -2905.43164
    5     3.4000  -2905.43229
    6     3.5000  -2905.43265
    7     3.6000  -2905.43281
    8     3.7000  -2905.43282
    9     3.8000  -2905.43275
   10     3.9000  -2905.43262
   11     4.0000  -2905.43246
   12     4.1000  -2905.43229
   13     4.2000  -2905.43211
   14     4.3000  -2905.43194
   15     4.4000  -2905.43178
   16     4.5000  -2905.43163
   17     4.6000  -2905.43150
   18     4.7000  -2905.43139
   19     4.8000  -2905.43129
   20     4.9000  -2905.43120
   21     5.0000  -2905.43112
 ----  ---------  -----------
  
 Leave Link  108 at Fri Jan 17 14:22:12 2020, MaxMem=  536870912 cpu:       0.0
 (Enter /home/matheus/.gaussian/g09/l9999.exe)

 Test job not archived.
 1\1\GINC-REDGIANT\Scan\RwB97XD\Aug-CC-pVTZ\H2Kr1O2\ROOT\17-Jan-2020\1\
 \#p wb97xd/aug-cc-PVTz iop(3/107=0330000000) iop(3/108=0330000000) int
 =ultrafine Scan\\PTCC\\0,1\O,0,0.,0.,0.725\O,0,0.,0.,-0.725\H,0,0.3142
 209495,0.8633149634,1.0235104166\H,0,0.,0.9187205947,-1.0235104166\Kr,
 0,0.,R1,0.\\R1=3.,s,20,0.1\\Version=EM64L-G09RevC.01\State=1-A\HF=-290
 5.4263363,-2905.4288784,-2905.4305637,-2905.4316417,-2905.4322932,-290
 5.4326547,-2905.4328052,-2905.4328232,-2905.4327514,-2905.4326223,-290
 5.4324612,-2905.4322864,-2905.4321091,-2905.431937,-2905.4317791,-2905
 .4316342,-2905.4315034,-2905.4313882,-2905.4312876,-2905.4311989,-2905
 .4311223\RMSD=7.950e-09,3.011e-09,7.362e-09,4.755e-09,3.170e-09,2.907e
 -09,3.018e-09,8.674e-09,7.182e-09,6.030e-09,5.106e-09,4.264e-09,3.580e
 -09,2.843e-09,2.284e-09,1.921e-09,1.682e-09,1.516e-09,8.791e-09,6.613e
 -09,6.301e-09\PG=C01 [X(H2Kr1O2)]\\@


 I DO NOT DEFINE TIME, SPACE, PLACE, AND MOTION, AS BEING WELL KNOWN TO ALL.
                                            -- NEWTON (1642-1726), PRINCIPIA
 Job cpu time:  0 days  0 hours 46 minutes 34.9 seconds.
 File lengths (MBytes):  RWF=     27 Int=      0 D2E=      0 Chk=      4 Scr=      1
 Normal termination of Gaussian 09 at Fri Jan 17 14:22:12 2020.
