 Entering Gaussian System, Link 0=g09
 Input=/home/matheus/.tcc/Inputs-DFT/H2O2-Kr_3.com
 Output=/home/matheus/.tcc/Inputs-DFT/H2O2-Kr_3.log
 Initial command:
 /home/matheus/.gaussian/g09/l1.exe /home/matheus/.gaussian/g09/scratch/Gau-32577.inp -scrdir=/home/matheus/.gaussian/g09/scratch/
 Entering Link 1 = /home/matheus/.gaussian/g09/l1.exe PID=     32579.
  
 Copyright (c) 1988,1990,1992,1993,1995,1998,2003,2009,2011,
            Gaussian, Inc.  All Rights Reserved.
  
 This is part of the Gaussian(R) 09 program.  It is based on
 the Gaussian(R) 03 system (copyright 2003, Gaussian, Inc.),
 the Gaussian(R) 98 system (copyright 1998, Gaussian, Inc.),
 the Gaussian(R) 94 system (copyright 1995, Gaussian, Inc.),
 the Gaussian 92(TM) system (copyright 1992, Gaussian, Inc.),
 the Gaussian 90(TM) system (copyright 1990, Gaussian, Inc.),
 the Gaussian 88(TM) system (copyright 1988, Gaussian, Inc.),
 the Gaussian 86(TM) system (copyright 1986, Carnegie Mellon
 University), and the Gaussian 82(TM) system (copyright 1983,
 Carnegie Mellon University). Gaussian is a federally registered
 trademark of Gaussian, Inc.
  
 This software contains proprietary and confidential information,
 including trade secrets, belonging to Gaussian, Inc.
  
 This software is provided under written license and may be
 used, copied, transmitted, or stored only in accord with that
 written license.
  
 The following legend is applicable only to US Government
 contracts under FAR:
  
                    RESTRICTED RIGHTS LEGEND
  
 Use, reproduction and disclosure by the US Government is
 subject to restrictions as set forth in subparagraphs (a)
 and (c) of the Commercial Computer Software - Restricted
 Rights clause in FAR 52.227-19.
  
 Gaussian, Inc.
 340 Quinnipiac St., Bldg. 40, Wallingford CT 06492
  
  
 ---------------------------------------------------------------
 Warning -- This program may not be used in any manner that
 competes with the business of Gaussian, Inc. or will provide
 assistance to any competitor of Gaussian, Inc.  The licensee
 of this program is prohibited from giving any competitor of
 Gaussian, Inc. access to this program.  By using this program,
 the user acknowledges that Gaussian, Inc. is engaged in the
 business of creating and licensing software in the field of
 computational chemistry and represents and warrants to the
 licensee that it is not a competitor of Gaussian, Inc. and that
 it will not use this program in any manner prohibited above.
 ---------------------------------------------------------------
  

 Cite this work as:
 Gaussian 09, Revision C.01,
 M. J. Frisch, G. W. Trucks, H. B. Schlegel, G. E. Scuseria, 
 M. A. Robb, J. R. Cheeseman, G. Scalmani, V. Barone, B. Mennucci, 
 G. A. Petersson, H. Nakatsuji, M. Caricato, X. Li, H. P. Hratchian, 
 A. F. Izmaylov, J. Bloino, G. Zheng, J. L. Sonnenberg, M. Hada, 
 M. Ehara, K. Toyota, R. Fukuda, J. Hasegawa, M. Ishida, T. Nakajima, 
 Y. Honda, O. Kitao, H. Nakai, T. Vreven, J. A. Montgomery, Jr., 
 J. E. Peralta, F. Ogliaro, M. Bearpark, J. J. Heyd, E. Brothers, 
 K. N. Kudin, V. N. Staroverov, T. Keith, R. Kobayashi, J. Normand, 
 K. Raghavachari, A. Rendell, J. C. Burant, S. S. Iyengar, J. Tomasi, 
 M. Cossi, N. Rega, J. M. Millam, M. Klene, J. E. Knox, J. B. Cross, 
 V. Bakken, C. Adamo, J. Jaramillo, R. Gomperts, R. E. Stratmann, 
 O. Yazyev, A. J. Austin, R. Cammi, C. Pomelli, J. W. Ochterski, 
 R. L. Martin, K. Morokuma, V. G. Zakrzewski, G. A. Voth, 
 P. Salvador, J. J. Dannenberg, S. Dapprich, A. D. Daniels, 
 O. Farkas, J. B. Foresman, J. V. Ortiz, J. Cioslowski, 
 and D. J. Fox, Gaussian, Inc., Wallingford CT, 2010.
 
 ******************************************
 Gaussian 09:  EM64L-G09RevC.01 23-Sep-2011
                17-Jan-2020 
 ******************************************
 %mem=4GB
 %nproc=4
 Will use up to    4 processors via shared memory.
 ----------------------------------------------------------------------
 #p wb97xd/aug-cc-PVTz iop(3/107=0330000000) iop(3/108=0330000000) int=
 ultrafine Scan
 ----------------------------------------------------------------------
 1/38=1,60=1/1,8;
 2/12=2,17=6,18=5,29=3,40=1/2;
 3/5=16,6=1,7=10,11=2,16=1,25=1,30=1,74=-58,75=-5,107=330000000,108=330000000/1,2,3;
 4//1;
 5/5=2,38=5/2;
 6/7=2,8=2,9=2,10=2,18=1,28=1/1;
 1/60=1/8(1);
 99/9=1/99;
 2/29=3/2;
 3/5=16,6=1,7=10,11=2,16=1,25=1,30=1,74=-58,75=-5,107=330000000,108=330000000/1,2,3;
 4/5=5,16=3/1;
 5/5=2,38=5/2;
 1/60=1/8(-4);
 99/9=1/99;
 Leave Link    1 at Fri Jan 17 14:22:12 2020, MaxMem=  536870912 cpu:       0.1
 (Enter /home/matheus/.gaussian/g09/l101.exe)
 ----
 PTCC
 ----
 Charge =  0 Multiplicity = 1
 Symbolic Z-Matrix:
 O                     0.        0.        0.725 
 O                     0.        0.       -0.725 
 H                     0.45936   0.79564   1.02351 
 H                     0.        0.91872  -1.02351 
 Kr                    0.       R1        0. 
       Variables:
  R1                    3.     Scan 20    0.1    
 
 NAtoms=      5 NQM=        0 NQMF=       0 NMMI=      5 NMMIF=      0
                NMic=       0 NMicF=      0.
                    Isotopes and Nuclear Properties:
 (Nuclear quadrupole moments (NQMom) in fm**2, nuclear magnetic moments (NMagM)
  in nuclear magnetons)

  Atom         1           2           3           4           5
 IAtWgt=          16          16           1           1          84
 AtmWgt=  15.9949146  15.9949146   1.0078250   1.0078250  83.9115064
 NucSpn=           0           0           1           1           0
 AtZEff=   0.0000000   0.0000000   0.0000000   0.0000000   0.0000000
 NQMom=    0.0000000   0.0000000   0.0000000   0.0000000   0.0000000
 NMagM=    0.0000000   0.0000000   2.7928460   2.7928460   0.0000000
 Leave Link  101 at Fri Jan 17 14:22:12 2020, MaxMem=  536870912 cpu:       0.1
 (Enter /home/matheus/.gaussian/g09/l108.exe)
 Scan the potential surface.
 Variable   Value     No. Steps Step-Size
 -------- ----------- --------- ---------
     1       3.000000      20      0.1000
 A total of     21 points will be computed.
 Leave Link  108 at Fri Jan 17 14:22:12 2020, MaxMem=  536870912 cpu:       0.0
 (Enter /home/matheus/.gaussian/g09/l202.exe)
 ---------------------------------------------------------------------------------------------------
                            Z-MATRIX (ANGSTROMS AND DEGREES)
   CD    Cent   Atom    N1       Length/X        N2       Alpha/Y        N3        Beta/Z          J
 ---------------------------------------------------------------------------------------------------
      1      1  O        0   0.000000          0.000000          0.725000
      2      2  O        0   0.000000          0.000000         -0.725000
      3      3  H        0   0.459360          0.795635          1.023510
      4      4  H        0   0.000000          0.918721         -1.023510
      5      5  Kr       0   0.000000          3.000000          0.000000
 ---------------------------------------------------------------------------------------------------
                         Z-Matrix orientation:                         
 ---------------------------------------------------------------------
 Center     Atomic      Atomic             Coordinates (Angstroms)
 Number     Number       Type             X           Y           Z
 ---------------------------------------------------------------------
      1          8           0        0.000000    0.000000    0.725000
      2          8           0        0.000000    0.000000   -0.725000
      3          1           0        0.459360    0.795635    1.023510
      4          1           0        0.000000    0.918721   -1.023510
      5         36           0        0.000000    3.000000    0.000000
 ---------------------------------------------------------------------
                    Distance matrix (angstroms):
                    1          2          3          4          5
     1  O    0.000000
     2  O    1.450000   0.000000
     3  H    0.966000   1.975180   0.000000
     4  H    1.975180   0.966000   2.101537   0.000000
     5  Kr   3.086361   3.086361   2.473420   2.319331   0.000000
 Stoichiometry    H2KrO2
 Framework group  C1[X(H2KrO2)]
 Deg. of freedom     9
 Full point group                 C1      NOp   1
 Largest Abelian subgroup         C1      NOp   1
 Largest concise Abelian subgroup C1      NOp   1
                         Standard orientation:                         
 ---------------------------------------------------------------------
 Center     Atomic      Atomic             Coordinates (Angstroms)
 Number     Number       Type             X           Y           Z
 ---------------------------------------------------------------------
      1          8           0        2.032679   -0.720517   -0.052579
      2          8           0        2.030654    0.727985    0.013298
      3          1           0        1.240025   -1.040895    0.397102
      4          1           0        1.111532    1.024673    0.031898
      5         36           0       -0.968284   -0.001209   -0.003188
 ---------------------------------------------------------------------
 Rotational constants (GHZ):     26.4110984      2.3830252      2.1895357
 Leave Link  202 at Fri Jan 17 14:22:12 2020, MaxMem=  536870912 cpu:       0.0
 (Enter /home/matheus/.gaussian/g09/l301.exe)
 Standard basis: Aug-CC-pVTZ (5D, 7F)
 Ernie: Thresh=  0.10000D-02 Tol=  0.10000D-05 Strict=F.
 Ernie:  38 primitive shells out of 205 were deleted.
 There are   197 symmetry adapted basis functions of A   symmetry.
 Integral buffers will be    131072 words long.
 Raffenetti 2 integral format.
 Two-electron integral symmetry is turned on.
   197 basis functions,   415 primitive gaussians,   229 cartesian basis functions
    27 alpha electrons       27 beta electrons
       nuclear repulsion energy       151.3348661682 Hartrees.
 IExCor= 4639 DFT=T Ex+Corr=wB97XD ExCW=0 ScaHFX=  1.000000
 ScaDFX=  1.000000  1.000000  1.000000  1.000000 ScalE2=  1.000000  1.000000
 IRadAn=      5 IRanWt=     -1 IRanGd=            0 ICorTp=0
  HFx wShort=  0.000000 wLong=  0.330000 cFull=  0.222036 cShort=  0.000000 cLong=  0.777964
  DFx wShort=  0.000000 wLong=  0.330000 cFull=  0.000000 cShort=  0.000000 cLong=  1.000000
 NAtoms=    5 NActive=    5 NUniq=    5 SFac= 1.00D+00 NAtFMM=   60 NAOKFM=F Big=F
 R6Disp: Dispersion energy =        -0.0007967424 Hartrees.
 Nuclear repulsion after empirical dispersion term =      151.3340694258 Hartrees.
 Leave Link  301 at Fri Jan 17 14:22:12 2020, MaxMem=  536870912 cpu:       0.1
 (Enter /home/matheus/.gaussian/g09/l302.exe)
 NPDir=0 NMtPBC=     1 NCelOv=     1 NCel=       1 NClECP=     1 NCelD=      1
         NCelK=      1 NCelE2=     1 NClLst=     1 CellRange=     0.0.
 One-electron integrals computed using PRISM.
 NBasis=   197 RedAO= T  NBF=   197
 NBsUse=   197 1.00D-06 NBFU=   197
 Precomputing XC quadrature grid using
 IXCGrd= 2 IRadAn=           5 IRanWt=          -1 IRanGd=           0 AccXCQ= 0.00D+00.
 NRdTot=     427 NPtTot=      123512 NUsed=      126579 NTot=      126611
 NSgBfM=   229   229   229   229   229 NAtAll=     5     5.
 Leave Link  302 at Fri Jan 17 14:22:12 2020, MaxMem=  536870912 cpu:       0.5
 (Enter /home/matheus/.gaussian/g09/l303.exe)
 DipDrv:  MaxL=1.
 Leave Link  303 at Fri Jan 17 14:22:12 2020, MaxMem=  536870912 cpu:       0.1
 (Enter /home/matheus/.gaussian/g09/l401.exe)
 Harris functional with IExCor= 4639 diagonalized for initial guess.
 ExpMin= 2.53D-02 ExpMax= 1.17D+07 ExpMxC= 1.33D+04 IAcc=3 IRadAn=         5 AccDes= 0.00D+00
 HarFok:  IExCor= 4639 AccDes= 0.00D+00 IRadAn=         5 IDoV= 1
 ScaDFX=  1.000000  1.000000  1.000000  1.000000
 FoFCou: FMM=F IPFlag=           0 FMFlag=      100000 FMFlg1=           0
         NFxFlg=           0 DoJE=T BraDBF=F KetDBF=T FulRan=T
         Omega=  0.000000  0.000000  1.000000  0.000000  0.000000 ICntrl=     500 IOpCl=  0
         NMat0=    1 NMatS0=    1 NMatT0=    0 NMatD0=    1 NMtDS0=    0 NMtDT0=    0
         I1Cent=           4 NGrid=           0.
 Petite list used in FoFCou.
 Harris En= -2873.72145832370    
 Initial guess orbital symmetries:
       Occupied  (A) (A) (A) (A) (A) (A) (A) (A) (A) (A) (A) (A)
                 (A) (A) (A) (A) (A) (A) (A) (A) (A) (A) (A) (A)
                 (A) (A) (A)
       Virtual   (A) (A) (A) (A) (A) (A) (A) (A) (A) (A) (A) (A)
                 (A) (A) (A) (A) (A) (A) (A) (A) (A) (A) (A) (A)
                 (A) (A) (A) (A) (A) (A) (A) (A) (A) (A) (A) (A)
                 (A) (A) (A) (A) (A) (A) (A) (A) (A) (A) (A) (A)
                 (A) (A) (A) (A) (A) (A) (A) (A) (A) (A) (A) (A)
                 (A) (A) (A) (A) (A) (A) (A) (A) (A) (A) (A) (A)
                 (A) (A) (A) (A) (A) (A) (A) (A) (A) (A) (A) (A)
                 (A) (A) (A) (A) (A) (A) (A) (A) (A) (A) (A) (A)
                 (A) (A) (A) (A) (A) (A) (A) (A) (A) (A) (A) (A)
                 (A) (A) (A) (A) (A) (A) (A) (A) (A) (A) (A) (A)
                 (A) (A) (A) (A) (A) (A) (A) (A) (A) (A) (A) (A)
                 (A) (A) (A) (A) (A) (A) (A) (A) (A) (A) (A) (A)
                 (A) (A) (A) (A) (A) (A) (A) (A) (A) (A) (A) (A)
                 (A) (A) (A) (A) (A) (A) (A) (A) (A) (A) (A) (A)
                 (A) (A)
 The electronic state of the initial guess is 1-A.
 Leave Link  401 at Fri Jan 17 14:22:13 2020, MaxMem=  536870912 cpu:       2.7
 (Enter /home/matheus/.gaussian/g09/l502.exe)
 Closed shell SCF:
 Requested convergence on RMS density matrix=1.00D-08 within 128 cycles.
 Requested convergence on MAX density matrix=1.00D-06.
 Requested convergence on             energy=1.00D-06.
 No special actions if energy rises.
 Using DIIS extrapolation, IDIIS=  1040.
 Integral symmetry usage will be decided dynamically.
       126521 words used for storage of precomputed grid.
 IEnd=      305010 IEndB=      305010 NGot=   536870912 MDV=   536635213
 LenX=   536635213 LenY=   536582331
 Fock matrices will be formed incrementally for  20 cycles.

 Cycle   1  Pass 1  IDiag  1:
 FoFJK:  IHMeth= 1 ICntrl=     0 DoSepK=T KAlg= 1 I1Cent= 0 FoldK=F
 FoFCou: FMM=F IPFlag=           0 FMFlag=      100000 FMFlg1=           0
         NFxFlg=           0 DoJE=T BraDBF=F KetDBF=F FulRan=T
         Omega=  0.000000  0.000000  1.000000  0.000000  0.000000 ICntrl=     500 IOpCl=  0
         NMat0=    1 NMatS0=    1 NMatT0=    0 NMatD0=    1 NMtDS0=    0 NMtDT0=    0
         I1Cent=           0 NGrid=           0.
 Symmetry not used in FoFCou.
 E= -2904.83143264458    
 DIIS: error= 8.66D-02 at cycle   1 NSaved=   1.
 NSaved= 1 IEnMin= 1 EnMin= -2904.83143264458     IErMin= 1 ErrMin= 8.66D-02
 ErrMax= 8.66D-02 EMaxC= 1.00D-01 BMatC= 2.33D+00 BMatP= 2.33D+00
 IDIUse=3 WtCom= 1.34D-01 WtEn= 8.66D-01
 Coeff-Com:  0.100D+01
 Coeff-En:   0.100D+01
 Coeff:      0.100D+01
 Gap=     0.572 Goal=   None    Shift=    0.000
 GapD=    0.572 DampG=2.000 DampE=0.500 DampFc=1.0000 IDamp=-1.
 RMSDP=6.39D-03 MaxDP=3.77D-01              OVMax= 1.95D-01

 Cycle   2  Pass 1  IDiag  1:
 RMSU=  4.49D-03    CP:  1.03D+00
 FoFJK:  IHMeth= 1 ICntrl=     0 DoSepK=T KAlg= 1 I1Cent= 0 FoldK=F
 E= -2905.21493169027     Delta-E=       -0.383499045687 Rises=F Damp=F
 DIIS: error= 3.28D-02 at cycle   2 NSaved=   2.
 NSaved= 2 IEnMin= 2 EnMin= -2905.21493169027     IErMin= 2 ErrMin= 3.28D-02
 ErrMax= 3.28D-02 EMaxC= 1.00D-01 BMatC= 5.85D-01 BMatP= 2.33D+00
 IDIUse=3 WtCom= 6.72D-01 WtEn= 3.28D-01
 Coeff-Com:  0.326D+00 0.674D+00
 Coeff-En:   0.160D+00 0.840D+00
 Coeff:      0.272D+00 0.728D+00
 Gap=     0.518 Goal=   None    Shift=    0.000
 RMSDP=2.78D-03 MaxDP=1.64D-01 DE=-3.83D-01 OVMax= 7.15D-02

 Cycle   3  Pass 1  IDiag  1:
 RMSU=  6.68D-04    CP:  1.02D+00  5.91D-01
 FoFJK:  IHMeth= 1 ICntrl=     0 DoSepK=T KAlg= 1 I1Cent= 0 FoldK=F
 E= -2905.41733719062     Delta-E=       -0.202405500355 Rises=F Damp=F
 DIIS: error= 6.13D-03 at cycle   3 NSaved=   3.
 NSaved= 3 IEnMin= 3 EnMin= -2905.41733719062     IErMin= 3 ErrMin= 6.13D-03
 ErrMax= 6.13D-03 EMaxC= 1.00D-01 BMatC= 2.04D-02 BMatP= 5.85D-01
 IDIUse=3 WtCom= 9.39D-01 WtEn= 6.13D-02
 Coeff-Com:  0.286D-01 0.187D+00 0.784D+00
 Coeff-En:   0.000D+00 0.000D+00 0.100D+01
 Coeff:      0.269D-01 0.176D+00 0.798D+00
 Gap=     0.449 Goal=   None    Shift=    0.000
 RMSDP=5.13D-04 MaxDP=1.52D-02 DE=-2.02D-01 OVMax= 2.80D-02

 Cycle   4  Pass 1  IDiag  1:
 RMSU=  2.40D-04    CP:  1.02D+00  6.51D-01  9.52D-01
 FoFJK:  IHMeth= 1 ICntrl=     0 DoSepK=T KAlg= 1 I1Cent= 0 FoldK=F
 E= -2905.42672479739     Delta-E=       -0.009387606767 Rises=F Damp=F
 DIIS: error= 1.95D-03 at cycle   4 NSaved=   4.
 NSaved= 4 IEnMin= 4 EnMin= -2905.42672479739     IErMin= 4 ErrMin= 1.95D-03
 ErrMax= 1.95D-03 EMaxC= 1.00D-01 BMatC= 1.57D-03 BMatP= 2.04D-02
 IDIUse=3 WtCom= 9.81D-01 WtEn= 1.95D-02
 Coeff-Com: -0.559D-02 0.423D-01 0.352D+00 0.611D+00
 Coeff-En:   0.000D+00 0.000D+00 0.000D+00 0.100D+01
 Coeff:     -0.548D-02 0.415D-01 0.346D+00 0.618D+00
 Gap=     0.433 Goal=   None    Shift=    0.000
 RMSDP=1.16D-04 MaxDP=5.50D-03 DE=-9.39D-03 OVMax= 6.41D-03

 Cycle   5  Pass 1  IDiag  1:
 RMSU=  4.74D-05    CP:  1.02D+00  6.49D-01  1.00D+00  7.57D-01
 FoFJK:  IHMeth= 1 ICntrl=     0 DoSepK=T KAlg= 1 I1Cent= 0 FoldK=F
 E= -2905.42769088743     Delta-E=       -0.000966090040 Rises=F Damp=F
 DIIS: error= 1.31D-04 at cycle   5 NSaved=   5.
 NSaved= 5 IEnMin= 5 EnMin= -2905.42769088743     IErMin= 5 ErrMin= 1.31D-04
 ErrMax= 1.31D-04 EMaxC= 1.00D-01 BMatC= 7.05D-06 BMatP= 1.57D-03
 IDIUse=3 WtCom= 9.99D-01 WtEn= 1.31D-03
 Coeff-Com: -0.557D-03-0.703D-02-0.312D-01-0.327D-01 0.107D+01
 Coeff-En:   0.000D+00 0.000D+00 0.000D+00 0.000D+00 0.100D+01
 Coeff:     -0.557D-03-0.703D-02-0.312D-01-0.327D-01 0.107D+01
 Gap=     0.433 Goal=   None    Shift=    0.000
 RMSDP=3.17D-05 MaxDP=1.04D-03 DE=-9.66D-04 OVMax= 1.86D-03

 Cycle   6  Pass 1  IDiag  1:
 RMSU=  7.76D-06    CP:  1.02D+00  6.50D-01  1.02D+00  7.96D-01  1.29D+00
 FoFJK:  IHMeth= 1 ICntrl=     0 DoSepK=T KAlg= 1 I1Cent= 0 FoldK=F
 E= -2905.42770357198     Delta-E=       -0.000012684555 Rises=F Damp=F
 DIIS: error= 9.71D-05 at cycle   6 NSaved=   6.
 NSaved= 6 IEnMin= 6 EnMin= -2905.42770357198     IErMin= 6 ErrMin= 9.71D-05
 ErrMax= 9.71D-05 EMaxC= 1.00D-01 BMatC= 2.88D-06 BMatP= 7.05D-06
 IDIUse=1 WtCom= 1.00D+00 WtEn= 0.00D+00
 Coeff-Com: -0.157D-04-0.537D-02-0.309D-01-0.439D-01 0.444D+00 0.636D+00
 Coeff:     -0.157D-04-0.537D-02-0.309D-01-0.439D-01 0.444D+00 0.636D+00
 Gap=     0.433 Goal=   None    Shift=    0.000
 RMSDP=7.47D-06 MaxDP=2.49D-04 DE=-1.27D-05 OVMax= 4.70D-04

 Cycle   7  Pass 1  IDiag  1:
 RMSU=  3.43D-06    CP:  1.02D+00  6.50D-01  1.02D+00  8.02D-01  1.35D+00
                    CP:  8.51D-01
 FoFJK:  IHMeth= 1 ICntrl=     0 DoSepK=T KAlg= 1 I1Cent= 0 FoldK=F
 E= -2905.42770567511     Delta-E=       -0.000002103126 Rises=F Damp=F
 DIIS: error= 3.77D-05 at cycle   7 NSaved=   7.
 NSaved= 7 IEnMin= 7 EnMin= -2905.42770567511     IErMin= 7 ErrMin= 3.77D-05
 ErrMax= 3.77D-05 EMaxC= 1.00D-01 BMatC= 4.26D-07 BMatP= 2.88D-06
 IDIUse=1 WtCom= 1.00D+00 WtEn= 0.00D+00
 Coeff-Com:  0.570D-04-0.132D-02-0.856D-02-0.134D-01 0.781D-02 0.280D+00
 Coeff-Com:  0.735D+00
 Coeff:      0.570D-04-0.132D-02-0.856D-02-0.134D-01 0.781D-02 0.280D+00
 Coeff:      0.735D+00
 Gap=     0.433 Goal=   None    Shift=    0.000
 RMSDP=3.07D-06 MaxDP=9.22D-05 DE=-2.10D-06 OVMax= 2.20D-04

 Cycle   8  Pass 1  IDiag  1:
 RMSU=  9.61D-07    CP:  1.02D+00  6.50D-01  1.02D+00  8.04D-01  1.37D+00
                    CP:  1.01D+00  9.90D-01
 FoFJK:  IHMeth= 1 ICntrl=     0 DoSepK=T KAlg= 1 I1Cent= 0 FoldK=F
 E= -2905.42770606517     Delta-E=       -0.000000390058 Rises=F Damp=F
 DIIS: error= 5.35D-06 at cycle   8 NSaved=   8.
 NSaved= 8 IEnMin= 8 EnMin= -2905.42770606517     IErMin= 8 ErrMin= 5.35D-06
 ErrMax= 5.35D-06 EMaxC= 1.00D-01 BMatC= 9.61D-09 BMatP= 4.26D-07
 IDIUse=1 WtCom= 1.00D+00 WtEn= 0.00D+00
 Coeff-Com:  0.894D-05 0.344D-03 0.185D-02 0.207D-02-0.362D-01-0.339D-01
 Coeff-Com:  0.373D-01 0.103D+01
 Coeff:      0.894D-05 0.344D-03 0.185D-02 0.207D-02-0.362D-01-0.339D-01
 Coeff:      0.373D-01 0.103D+01
 Gap=     0.433 Goal=   None    Shift=    0.000
 RMSDP=1.03D-06 MaxDP=2.60D-05 DE=-3.90D-07 OVMax= 8.70D-05

 Cycle   9  Pass 1  IDiag  1:
 RMSU=  3.36D-07    CP:  1.02D+00  6.50D-01  1.02D+00  8.04D-01  1.38D+00
                    CP:  1.05D+00  1.09D+00  1.26D+00
 FoFJK:  IHMeth= 1 ICntrl=     0 DoSepK=T KAlg= 1 I1Cent= 0 FoldK=F
 E= -2905.42770608969     Delta-E=       -0.000000024522 Rises=F Damp=F
 DIIS: error= 2.46D-06 at cycle   9 NSaved=   9.
 NSaved= 9 IEnMin= 9 EnMin= -2905.42770608969     IErMin= 9 ErrMin= 2.46D-06
 ErrMax= 2.46D-06 EMaxC= 1.00D-01 BMatC= 7.42D-10 BMatP= 9.61D-09
 IDIUse=1 WtCom= 1.00D+00 WtEn= 0.00D+00
 Coeff-Com: -0.266D-05 0.105D-03 0.626D-03 0.699D-03 0.464D-03-0.161D-01
 Coeff-Com: -0.483D-01-0.527D-01 0.112D+01
 Coeff:     -0.266D-05 0.105D-03 0.626D-03 0.699D-03 0.464D-03-0.161D-01
 Coeff:     -0.483D-01-0.527D-01 0.112D+01
 Gap=     0.433 Goal=   None    Shift=    0.000
 RMSDP=3.46D-07 MaxDP=8.52D-06 DE=-2.45D-08 OVMax= 3.27D-05

 Cycle  10  Pass 1  IDiag  1:
 RMSU=  8.71D-08    CP:  1.02D+00  6.50D-01  1.02D+00  8.03D-01  1.38D+00
                    CP:  1.05D+00  1.11D+00  1.37D+00  1.39D+00
 FoFJK:  IHMeth= 1 ICntrl=     0 DoSepK=T KAlg= 1 I1Cent= 0 FoldK=F
 E= -2905.42770609187     Delta-E=       -0.000000002186 Rises=F Damp=F
 DIIS: error= 7.01D-07 at cycle  10 NSaved=  10.
 NSaved=10 IEnMin=10 EnMin= -2905.42770609187     IErMin=10 ErrMin= 7.01D-07
 ErrMax= 7.01D-07 EMaxC= 1.00D-01 BMatC= 6.05D-11 BMatP= 7.42D-10
 IDIUse=1 WtCom= 1.00D+00 WtEn= 0.00D+00
 Coeff-Com: -0.214D-06-0.213D-04-0.117D-03-0.117D-03 0.246D-02 0.337D-02
 Coeff-Com: -0.973D-03-0.943D-01 0.764D-01 0.101D+01
 Coeff:     -0.214D-06-0.213D-04-0.117D-03-0.117D-03 0.246D-02 0.337D-02
 Coeff:     -0.973D-03-0.943D-01 0.764D-01 0.101D+01
 Gap=     0.433 Goal=   None    Shift=    0.000
 RMSDP=8.99D-08 MaxDP=1.96D-06 DE=-2.19D-09 OVMax= 9.34D-06

 Cycle  11  Pass 1  IDiag  1:
 RMSU=  2.49D-08    CP:  1.02D+00  6.50D-01  1.02D+00  8.03D-01  1.38D+00
                    CP:  1.05D+00  1.11D+00  1.39D+00  1.52D+00  1.22D+00
 FoFJK:  IHMeth= 1 ICntrl=     0 DoSepK=T KAlg= 1 I1Cent= 0 FoldK=F
 E= -2905.42770609207     Delta-E=       -0.000000000193 Rises=F Damp=F
 DIIS: error= 2.33D-07 at cycle  11 NSaved=  11.
 NSaved=11 IEnMin=11 EnMin= -2905.42770609207     IErMin=11 ErrMin= 2.33D-07
 ErrMax= 2.33D-07 EMaxC= 1.00D-01 BMatC= 5.94D-12 BMatP= 6.05D-11
 IDIUse=1 WtCom= 1.00D+00 WtEn= 0.00D+00
 Coeff-Com:  0.331D-06-0.634D-05-0.397D-04-0.257D-04-0.600D-03 0.111D-02
 Coeff-Com:  0.536D-02 0.163D-01-0.106D+00-0.180D+00 0.126D+01
 Coeff:      0.331D-06-0.634D-05-0.397D-04-0.257D-04-0.600D-03 0.111D-02
 Coeff:      0.536D-02 0.163D-01-0.106D+00-0.180D+00 0.126D+01
 Gap=     0.433 Goal=   None    Shift=    0.000
 RMSDP=3.40D-08 MaxDP=8.33D-07 DE=-1.93D-10 OVMax= 3.70D-06

 Cycle  12  Pass 1  IDiag  1:
 RMSU=  7.89D-09    CP:  1.02D+00  6.50D-01  1.02D+00  8.03D-01  1.38D+00
                    CP:  1.05D+00  1.11D+00  1.39D+00  1.56D+00  1.36D+00
                    CP:  1.50D+00
 FoFJK:  IHMeth= 1 ICntrl=     0 DoSepK=T KAlg= 1 I1Cent= 0 FoldK=F
 E= -2905.42770609209     Delta-E=       -0.000000000026 Rises=F Damp=F
 DIIS: error= 4.69D-08 at cycle  12 NSaved=  12.
 NSaved=12 IEnMin=12 EnMin= -2905.42770609209     IErMin=12 ErrMin= 4.69D-08
 ErrMax= 4.69D-08 EMaxC= 1.00D-01 BMatC= 3.80D-13 BMatP= 5.94D-12
 IDIUse=1 WtCom= 1.00D+00 WtEn= 0.00D+00
 Coeff-Com: -0.348D-07 0.210D-05 0.119D-04-0.348D-06-0.548D-04-0.310D-03
 Coeff-Com: -0.544D-03 0.372D-02 0.929D-02-0.359D-01-0.198D+00 0.122D+01
 Coeff:     -0.348D-07 0.210D-05 0.119D-04-0.348D-06-0.548D-04-0.310D-03
 Coeff:     -0.544D-03 0.372D-02 0.929D-02-0.359D-01-0.198D+00 0.122D+01
 Gap=     0.433 Goal=   None    Shift=    0.000
 RMSDP=8.32D-09 MaxDP=2.23D-07 DE=-2.64D-11 OVMax= 9.36D-07

 SCF Done:  E(RwB97XD) =  -2905.42770609     A.U. after   12 cycles
             Convg  =    0.8315D-08             -V/T =  2.0016
 KE= 2.900906924886D+03 PE=-7.240033632941D+03 EE= 1.282364932537D+03
 Leave Link  502 at Fri Jan 17 14:23:09 2020, MaxMem=  536870912 cpu:     223.5
 (Enter /home/matheus/.gaussian/g09/l601.exe)
 Copying SCF densities to generalized density rwf, IOpCl= 0 IROHF=0.

 **********************************************************************

            Population analysis using the SCF density.

 **********************************************************************

 Orbital symmetries:
       Occupied  (A) (A) (A) (A) (A) (A) (A) (A) (A) (A) (A) (A)
                 (A) (A) (A) (A) (A) (A) (A) (A) (A) (A) (A) (A)
                 (A) (A) (A)
       Virtual   (A) (A) (A) (A) (A) (A) (A) (A) (A) (A) (A) (A)
                 (A) (A) (A) (A) (A) (A) (A) (A) (A) (A) (A) (A)
                 (A) (A) (A) (A) (A) (A) (A) (A) (A) (A) (A) (A)
                 (A) (A) (A) (A) (A) (A) (A) (A) (A) (A) (A) (A)
                 (A) (A) (A) (A) (A) (A) (A) (A) (A) (A) (A) (A)
                 (A) (A) (A) (A) (A) (A) (A) (A) (A) (A) (A) (A)
                 (A) (A) (A) (A) (A) (A) (A) (A) (A) (A) (A) (A)
                 (A) (A) (A) (A) (A) (A) (A) (A) (A) (A) (A) (A)
                 (A) (A) (A) (A) (A) (A) (A) (A) (A) (A) (A) (A)
                 (A) (A) (A) (A) (A) (A) (A) (A) (A) (A) (A) (A)
                 (A) (A) (A) (A) (A) (A) (A) (A) (A) (A) (A) (A)
                 (A) (A) (A) (A) (A) (A) (A) (A) (A) (A) (A) (A)
                 (A) (A) (A) (A) (A) (A) (A) (A) (A) (A) (A) (A)
                 (A) (A) (A) (A) (A) (A) (A) (A) (A) (A) (A) (A)
                 (A) (A)
 The electronic state is 1-A.
 Alpha  occ. eigenvalues -- -513.14850 -67.41904 -60.96771 -60.96765 -60.96756
 Alpha  occ. eigenvalues --  -19.37036 -19.36891  -9.87281  -7.56600  -7.56579
 Alpha  occ. eigenvalues --   -7.56549  -3.43119  -3.43116  -3.43091  -3.43074
 Alpha  occ. eigenvalues --   -3.43070  -1.28249  -1.08052  -1.06146  -0.71584
 Alpha  occ. eigenvalues --   -0.57373  -0.56656  -0.54354  -0.53590  -0.52622
 Alpha  occ. eigenvalues --   -0.49246  -0.39760
 Alpha virt. eigenvalues --    0.03552   0.04603   0.08699   0.09499   0.10307
 Alpha virt. eigenvalues --    0.11990   0.12802   0.15606   0.17354   0.18206
 Alpha virt. eigenvalues --    0.18440   0.19567   0.20471   0.21869   0.23311
 Alpha virt. eigenvalues --    0.24115   0.24650   0.27488   0.30597   0.33492
 Alpha virt. eigenvalues --    0.34995   0.35857   0.37993   0.38498   0.40105
 Alpha virt. eigenvalues --    0.42302   0.44435   0.48103   0.52418   0.53801
 Alpha virt. eigenvalues --    0.58416   0.60601   0.61255   0.64030   0.66216
 Alpha virt. eigenvalues --    0.68371   0.69808   0.73012   0.73709   0.75016
 Alpha virt. eigenvalues --    0.75805   0.77034   0.80245   0.82021   0.85170
 Alpha virt. eigenvalues --    0.85885   0.86930   0.87750   0.89312   0.91561
 Alpha virt. eigenvalues --    0.93593   0.94153   0.96579   0.98544   1.00604
 Alpha virt. eigenvalues --    1.02852   1.03627   1.05758   1.07148   1.10638
 Alpha virt. eigenvalues --    1.13219   1.19206   1.21792   1.22676   1.24866
 Alpha virt. eigenvalues --    1.31291   1.33746   1.38110   1.39705   1.45923
 Alpha virt. eigenvalues --    1.49496   1.51284   1.53767   1.56186   1.60210
 Alpha virt. eigenvalues --    1.61362   1.67850   1.84488   1.89052   1.94614
 Alpha virt. eigenvalues --    1.99624   2.07683   2.08537   2.13937   2.15022
 Alpha virt. eigenvalues --    2.15660   2.21338   2.21879   2.22855   2.29550
 Alpha virt. eigenvalues --    2.29935   2.32136   2.33721   2.33836   2.35162
 Alpha virt. eigenvalues --    2.39093   2.40936   2.44503   2.48002   2.49070
 Alpha virt. eigenvalues --    2.50930   2.52321   2.56351   2.58070   2.59062
 Alpha virt. eigenvalues --    2.62032   2.67068   2.69098   2.70102   2.73761
 Alpha virt. eigenvalues --    2.74870   2.77016   2.81488   2.90468   2.92220
 Alpha virt. eigenvalues --    2.94067   3.07413   3.12074   3.13239   3.60132
 Alpha virt. eigenvalues --    3.70203   3.92794   4.00669   4.03071   4.08196
 Alpha virt. eigenvalues --    4.17034   4.18871   4.20943   4.22654   4.25354
 Alpha virt. eigenvalues --    4.45886   4.53953   4.56998   4.68174   4.71988
 Alpha virt. eigenvalues --    5.00521   5.01145   5.08300   5.10322   5.11233
 Alpha virt. eigenvalues --    5.15665   5.50918   5.85585   6.05576   6.08224
 Alpha virt. eigenvalues --    6.14961   6.37867   6.40482   6.48198   6.58810
 Alpha virt. eigenvalues --    6.70297   6.75437   6.81049   6.85923   6.87680
 Alpha virt. eigenvalues --    6.88782   6.92370   6.93554   6.94169   7.10510
 Alpha virt. eigenvalues --    7.17673   7.20373   7.27256   7.40222   7.58761
 Alpha virt. eigenvalues --    8.00648   8.02922   8.18894  13.92183  14.73373
          Condensed to atoms (all electrons):
              1          2          3          4          5
     1  O    8.211414  -0.183929   0.193023   0.027979  -0.022308
     2  O   -0.183929   8.206457   0.034361   0.204421  -0.017082
     3  H    0.193023   0.034361   0.569290  -0.015993  -0.000863
     4  H    0.027979   0.204421  -0.015993   0.560217  -0.010740
     5  Kr  -0.022308  -0.017082  -0.000863  -0.010740  36.034886
 Mulliken atomic charges:
              1
     1  O   -0.226178
     2  O   -0.244227
     3  H    0.220182
     4  H    0.234117
     5  Kr   0.016107
 Sum of Mulliken atomic charges =   0.00000
 Mulliken charges with hydrogens summed into heavy atoms:
              1
     1  O   -0.005997
     2  O   -0.010110
     5  Kr   0.016107
 Sum of Mulliken charges with hydrogens summed into heavy atoms =   0.00000
 Electronic spatial extent (au):  <R**2>=            476.4629
 Charge=              0.0000 electrons
 Dipole moment (field-independent basis, Debye):
    X=             -3.4261    Y=             -0.0954    Z=              0.6694  Tot=              3.4922
 Quadrupole moment (field-independent basis, Debye-Ang):
   XX=            -38.5465   YY=            -28.0813   ZZ=            -30.1361
   XY=             -0.3047   XZ=              0.8154   YZ=             -0.8901
 Traceless Quadrupole moment (field-independent basis, Debye-Ang):
   XX=             -6.2918   YY=              4.1733   ZZ=              2.1185
   XY=             -0.3047   XZ=              0.8154   YZ=             -0.8901
 Octapole moment (field-independent basis, Debye-Ang**2):
  XXX=            -44.5173  YYY=             -0.2355  ZZZ=              0.0877  XYY=             -7.6926
  XXY=             -0.7130  XXZ=              0.1666  XZZ=             -8.3353  YZZ=             -0.4673
  YYZ=              1.0343  XYZ=             -1.0701
 Hexadecapole moment (field-independent basis, Debye-Ang**3):
 XXXX=           -457.6189 YYYY=            -63.2279 ZZZZ=            -29.4345 XXXY=             -0.7607
 XXXZ=             -0.9656 YYYX=             -0.5675 YYYZ=             -1.2318 ZZZX=              0.3827
 ZZZY=             -0.5838 XXYY=            -85.8779 XXZZ=            -75.7945 YYZZ=            -17.0216
 XXYZ=             -1.2447 YYXZ=              1.2693 ZZXY=             -0.6326
 N-N= 1.513340694258D+02 E-N=-7.240033637031D+03  KE= 2.900906924886D+03
 No NMR shielding tensors so no spin-rotation constants.
 Leave Link  601 at Fri Jan 17 14:23:09 2020, MaxMem=  536870912 cpu:       0.4
 (Enter /home/matheus/.gaussian/g09/l108.exe)
 Variable Step   Value    
 -------- ---- -----------
     1       1    5.858151
 Leave Link  108 at Fri Jan 17 14:23:09 2020, MaxMem=  536870912 cpu:       0.0
 (Enter /home/matheus/.gaussian/g09/l202.exe)
 ---------------------------------------------------------------------------------------------------
                            Z-MATRIX (ANGSTROMS AND DEGREES)
   CD    Cent   Atom    N1       Length/X        N2       Alpha/Y        N3        Beta/Z          J
 ---------------------------------------------------------------------------------------------------
      1      1  O        0   0.000000          0.000000          0.725000
      2      2  O        0   0.000000          0.000000         -0.725000
      3      3  H        0   0.459360          0.795635          1.023510
      4      4  H        0   0.000000          0.918721         -1.023510
      5      5  Kr       0   0.000000          3.100000          0.000000
 ---------------------------------------------------------------------------------------------------
                         Z-Matrix orientation:                         
 ---------------------------------------------------------------------
 Center     Atomic      Atomic             Coordinates (Angstroms)
 Number     Number       Type             X           Y           Z
 ---------------------------------------------------------------------
      1          8           0        0.000000    0.000000    0.725000
      2          8           0        0.000000    0.000000   -0.725000
      3          1           0        0.459360    0.795635    1.023510
      4          1           0        0.000000    0.918721   -1.023510
      5         36           0        0.000000    3.100000    0.000000
 ---------------------------------------------------------------------
                    Distance matrix (angstroms):
                    1          2          3          4          5
     1  O    0.000000
     2  O    1.450000   0.000000
     3  H    0.966000   1.975180   0.000000
     4  H    1.975180   0.966000   2.101537   0.000000
     5  Kr   3.183650   3.183650   2.562944   2.409472   0.000000
 Stoichiometry    H2KrO2
 Framework group  C1[X(H2KrO2)]
 Deg. of freedom     9
 Full point group                 C1      NOp   1
 RotChk:  IX=0 Diff= 1.82D-04
 Largest Abelian subgroup         C1      NOp   1
 Largest concise Abelian subgroup C1      NOp   1
                         Standard orientation:                         
 ---------------------------------------------------------------------
 Center     Atomic      Atomic             Coordinates (Angstroms)
 Number     Number       Type             X           Y           Z
 ---------------------------------------------------------------------
      1          8           0        2.099274   -0.720625   -0.052786
      2          8           0        2.097394    0.727877    0.013092
      3          1           0        1.306553   -1.040922    0.396835
      4          1           0        1.178301    1.024660    0.031623
      5         36           0       -1.001617   -0.001160   -0.003081
 ---------------------------------------------------------------------
 Rotational constants (GHZ):     26.4111844      2.2303685      2.0599879
 Leave Link  202 at Fri Jan 17 14:23:09 2020, MaxMem=  536870912 cpu:       0.0
 (Enter /home/matheus/.gaussian/g09/l301.exe)
 Standard basis: Aug-CC-pVTZ (5D, 7F)
 Ernie: Thresh=  0.10000D-02 Tol=  0.10000D-05 Strict=F.
 Ernie:  38 primitive shells out of 205 were deleted.
 There are   197 symmetry adapted basis functions of A   symmetry.
 Integral buffers will be    131072 words long.
 Raffenetti 2 integral format.
 Two-electron integral symmetry is turned on.
   197 basis functions,   415 primitive gaussians,   229 cartesian basis functions
    27 alpha electrons       27 beta electrons
       nuclear repulsion energy       147.7405938704 Hartrees.
 IExCor= 4639 DFT=T Ex+Corr=wB97XD ExCW=0 ScaHFX=  1.000000
 ScaDFX=  1.000000  1.000000  1.000000  1.000000 ScalE2=  1.000000  1.000000
 IRadAn=      5 IRanWt=     -1 IRanGd=            0 ICorTp=0
  HFx wShort=  0.000000 wLong=  0.330000 cFull=  0.222036 cShort=  0.000000 cLong=  0.777964
  DFx wShort=  0.000000 wLong=  0.330000 cFull=  0.000000 cShort=  0.000000 cLong=  1.000000
 NAtoms=    5 NActive=    5 NUniq=    5 SFac= 1.00D+00 NAtFMM=   60 NAOKFM=F Big=F
 R6Disp: Dispersion energy =        -0.0008856021 Hartrees.
 Nuclear repulsion after empirical dispersion term =      147.7397082683 Hartrees.
 Leave Link  301 at Fri Jan 17 14:23:09 2020, MaxMem=  536870912 cpu:       0.1
 (Enter /home/matheus/.gaussian/g09/l302.exe)
 NPDir=0 NMtPBC=     1 NCelOv=     1 NCel=       1 NClECP=     1 NCelD=      1
         NCelK=      1 NCelE2=     1 NClLst=     1 CellRange=     0.0.
 One-electron integrals computed using PRISM.
 NBasis=   197 RedAO= T  NBF=   197
 NBsUse=   197 1.00D-06 NBFU=   197
 Precomputing XC quadrature grid using
 IXCGrd= 2 IRadAn=           5 IRanWt=          -1 IRanGd=           0 AccXCQ= 0.00D+00.
 NRdTot=     427 NPtTot=      123512 NUsed=      126579 NTot=      126611
 NSgBfM=   229   229   229   229   229 NAtAll=     5     5.
 Leave Link  302 at Fri Jan 17 14:23:09 2020, MaxMem=  536870912 cpu:       0.5
 (Enter /home/matheus/.gaussian/g09/l303.exe)
 DipDrv:  MaxL=1.
 Leave Link  303 at Fri Jan 17 14:23:09 2020, MaxMem=  536870912 cpu:       0.1
 (Enter /home/matheus/.gaussian/g09/l401.exe)
 Initial guess read from the read-write file.
 B after Tr=     0.000000    0.000000    0.000000
         Rot=    1.000000    0.000000    0.000000    0.000000 Ang=   0.00 deg.
 Guess basis will be translated and rotated to current coordinates.
 Initial guess orbital symmetries:
       Occupied  (A) (A) (A) (A) (A) (A) (A) (A) (A) (A) (A) (A)
                 (A) (A) (A) (A) (A) (A) (A) (A) (A) (A) (A) (A)
                 (A) (A) (A)
       Virtual   (A) (A) (A) (A) (A) (A) (A) (A) (A) (A) (A) (A)
                 (A) (A) (A) (A) (A) (A) (A) (A) (A) (A) (A) (A)
                 (A) (A) (A) (A) (A) (A) (A) (A) (A) (A) (A) (A)
                 (A) (A) (A) (A) (A) (A) (A) (A) (A) (A) (A) (A)
                 (A) (A) (A) (A) (A) (A) (A) (A) (A) (A) (A) (A)
                 (A) (A) (A) (A) (A) (A) (A) (A) (A) (A) (A) (A)
                 (A) (A) (A) (A) (A) (A) (A) (A) (A) (A) (A) (A)
                 (A) (A) (A) (A) (A) (A) (A) (A) (A) (A) (A) (A)
                 (A) (A) (A) (A) (A) (A) (A) (A) (A) (A) (A) (A)
                 (A) (A) (A) (A) (A) (A) (A) (A) (A) (A) (A) (A)
                 (A) (A) (A) (A) (A) (A) (A) (A) (A) (A) (A) (A)
                 (A) (A) (A) (A) (A) (A) (A) (A) (A) (A) (A) (A)
                 (A) (A) (A) (A) (A) (A) (A) (A) (A) (A) (A) (A)
                 (A) (A) (A) (A) (A) (A) (A) (A) (A) (A) (A) (A)
                 (A) (A)
 The electronic state of the initial guess is 1-A.
 Generating alternative initial guess.
 Harris functional with IExCor= 4639 diagonalized for initial guess.
 ExpMin= 2.53D-02 ExpMax= 1.17D+07 ExpMxC= 1.33D+04 IAcc=3 IRadAn=         5 AccDes= 0.00D+00
 HarFok:  IExCor= 4639 AccDes= 0.00D+00 IRadAn=         5 IDoV= 1
 ScaDFX=  1.000000  1.000000  1.000000  1.000000
 FoFCou: FMM=F IPFlag=           0 FMFlag=      100000 FMFlg1=           0
         NFxFlg=           0 DoJE=T BraDBF=F KetDBF=T FulRan=T
         Omega=  0.000000  0.000000  1.000000  0.000000  0.000000 ICntrl=     500 IOpCl=  0
         NMat0=    1 NMatS0=    1 NMatT0=    0 NMatD0=    1 NMtDS0=    0 NMtDT0=    0
         I1Cent=           4 NGrid=           0.
 Petite list used in FoFCou.
 Harris En= -2873.72616556467    
 Leave Link  401 at Fri Jan 17 14:23:10 2020, MaxMem=  536870912 cpu:       3.0
 (Enter /home/matheus/.gaussian/g09/l502.exe)
 Closed shell SCF:
 Requested convergence on RMS density matrix=1.00D-08 within 128 cycles.
 Requested convergence on MAX density matrix=1.00D-06.
 Requested convergence on             energy=1.00D-06.
 No special actions if energy rises.
 Using DIIS extrapolation, IDIIS=  1040.
 Integral symmetry usage will be decided dynamically.
       126521 words used for storage of precomputed grid.
 IEnd=      305010 IEndB=      305010 NGot=   536870912 MDV=   536635213
 LenX=   536635213 LenY=   536582331
 Fock matrices will be formed incrementally for  20 cycles.

 Cycle   1  Pass 1  IDiag  1:
 FoFJK:  IHMeth= 1 ICntrl=     0 DoSepK=T KAlg= 1 I1Cent= 0 FoldK=F
 FoFCou: FMM=F IPFlag=           0 FMFlag=      100000 FMFlg1=           0
         NFxFlg=           0 DoJE=T BraDBF=F KetDBF=F FulRan=T
         Omega=  0.000000  0.000000  1.000000  0.000000  0.000000 ICntrl=     500 IOpCl=  0
         NMat0=    1 NMatS0=    1 NMatT0=    0 NMatD0=    1 NMtDS0=    0 NMtDT0=    0
         I1Cent=           0 NGrid=           0.
 Symmetry not used in FoFCou.
 E= -2905.42996509552    
 DIIS: error= 2.30D-03 at cycle   1 NSaved=   1.
 NSaved= 1 IEnMin= 1 EnMin= -2905.42996509552     IErMin= 1 ErrMin= 2.30D-03
 ErrMax= 2.30D-03 EMaxC= 1.00D-01 BMatC= 8.98D-04 BMatP= 8.98D-04
 IDIUse=3 WtCom= 9.77D-01 WtEn= 2.30D-02
 Coeff-Com:  0.100D+01
 Coeff-En:   0.100D+01
 Coeff:      0.100D+01
 Gap=     0.437 Goal=   None    Shift=    0.000
 GapD=    0.437 DampG=2.000 DampE=1.000 DampFc=2.0000 IDamp=-1.
 RMSDP=7.22D-05 MaxDP=2.05D-03              OVMax= 3.26D-03

 Cycle   2  Pass 1  IDiag  1:
 RMSU=  5.11D-05    CP:  1.00D+00
 FoFJK:  IHMeth= 1 ICntrl=     0 DoSepK=T KAlg= 1 I1Cent= 0 FoldK=F
 E= -2905.43009685590     Delta-E=       -0.000131760375 Rises=F Damp=F
 DIIS: error= 1.89D-04 at cycle   2 NSaved=   2.
 NSaved= 2 IEnMin= 2 EnMin= -2905.43009685590     IErMin= 2 ErrMin= 1.89D-04
 ErrMax= 1.89D-04 EMaxC= 1.00D-01 BMatC= 5.97D-06 BMatP= 8.98D-04
 IDIUse=3 WtCom= 9.98D-01 WtEn= 1.89D-03
 Coeff-Com: -0.261D-02 0.100D+01
 Coeff-En:   0.000D+00 0.100D+01
 Coeff:     -0.260D-02 0.100D+01
 Gap=     0.433 Goal=   None    Shift=    0.000
 RMSDP=1.62D-05 MaxDP=5.80D-04 DE=-1.32D-04 OVMax= 9.36D-04

 Cycle   3  Pass 1  IDiag  1:
 RMSU=  9.65D-06    CP:  1.00D+00  1.12D+00
 FoFJK:  IHMeth= 1 ICntrl=     0 DoSepK=T KAlg= 1 I1Cent= 0 FoldK=F
 E= -2905.43010139190     Delta-E=       -0.000004536004 Rises=F Damp=F
 DIIS: error= 8.39D-05 at cycle   3 NSaved=   3.
 NSaved= 3 IEnMin= 3 EnMin= -2905.43010139190     IErMin= 3 ErrMin= 8.39D-05
 ErrMax= 8.39D-05 EMaxC= 1.00D-01 BMatC= 2.96D-06 BMatP= 5.97D-06
 IDIUse=1 WtCom= 1.00D+00 WtEn= 0.00D+00
 Coeff-Com: -0.649D-02 0.404D+00 0.603D+00
 Coeff:     -0.649D-02 0.404D+00 0.603D+00
 Gap=     0.434 Goal=   None    Shift=    0.000
 RMSDP=5.82D-06 MaxDP=2.41D-04 DE=-4.54D-06 OVMax= 3.14D-04

 Cycle   4  Pass 1  IDiag  1:
 RMSU=  3.02D-06    CP:  1.00D+00  1.15D+00  7.42D-01
 FoFJK:  IHMeth= 1 ICntrl=     0 DoSepK=T KAlg= 1 I1Cent= 0 FoldK=F
 E= -2905.43010333458     Delta-E=       -0.000001942675 Rises=F Damp=F
 DIIS: error= 1.78D-05 at cycle   4 NSaved=   4.
 NSaved= 4 IEnMin= 4 EnMin= -2905.43010333458     IErMin= 4 ErrMin= 1.78D-05
 ErrMax= 1.78D-05 EMaxC= 1.00D-01 BMatC= 9.81D-08 BMatP= 2.96D-06
 IDIUse=1 WtCom= 1.00D+00 WtEn= 0.00D+00
 Coeff-Com: -0.610D-03-0.355D-01 0.863D-01 0.950D+00
 Coeff:     -0.610D-03-0.355D-01 0.863D-01 0.950D+00
 Gap=     0.434 Goal=   None    Shift=    0.000
 RMSDP=2.03D-06 MaxDP=7.09D-05 DE=-1.94D-06 OVMax= 1.28D-04

 Cycle   5  Pass 1  IDiag  1:
 RMSU=  8.50D-07    CP:  1.00D+00  1.16D+00  8.25D-01  1.20D+00
 FoFJK:  IHMeth= 1 ICntrl=     0 DoSepK=T KAlg= 1 I1Cent= 0 FoldK=F
 E= -2905.43010342765     Delta-E=       -0.000000093078 Rises=F Damp=F
 DIIS: error= 9.95D-06 at cycle   5 NSaved=   5.
 NSaved= 5 IEnMin= 5 EnMin= -2905.43010342765     IErMin= 5 ErrMin= 9.95D-06
 ErrMax= 9.95D-06 EMaxC= 1.00D-01 BMatC= 3.27D-08 BMatP= 9.81D-08
 IDIUse=1 WtCom= 1.00D+00 WtEn= 0.00D+00
 Coeff-Com:  0.244D-03-0.528D-01-0.812D-02 0.464D+00 0.596D+00
 Coeff:      0.244D-03-0.528D-01-0.812D-02 0.464D+00 0.596D+00
 Gap=     0.434 Goal=   None    Shift=    0.000
 RMSDP=6.01D-07 MaxDP=2.67D-05 DE=-9.31D-08 OVMax= 3.72D-05

 Cycle   6  Pass 1  IDiag  1:
 RMSU=  2.95D-07    CP:  1.00D+00  1.16D+00  8.41D-01  1.27D+00  8.42D-01
 FoFJK:  IHMeth= 1 ICntrl=     0 DoSepK=T KAlg= 1 I1Cent= 0 FoldK=F
 E= -2905.43010345055     Delta-E=       -0.000000022892 Rises=F Damp=F
 DIIS: error= 2.14D-06 at cycle   6 NSaved=   6.
 NSaved= 6 IEnMin= 6 EnMin= -2905.43010345055     IErMin= 6 ErrMin= 2.14D-06
 ErrMax= 2.14D-06 EMaxC= 1.00D-01 BMatC= 1.79D-09 BMatP= 3.27D-08
 IDIUse=1 WtCom= 1.00D+00 WtEn= 0.00D+00
 Coeff-Com:  0.151D-03-0.170D-01-0.106D-01 0.841D-01 0.219D+00 0.724D+00
 Coeff:      0.151D-03-0.170D-01-0.106D-01 0.841D-01 0.219D+00 0.724D+00
 Gap=     0.434 Goal=   None    Shift=    0.000
 RMSDP=1.97D-07 MaxDP=5.52D-06 DE=-2.29D-08 OVMax= 1.25D-05

 Cycle   7  Pass 1  IDiag  1:
 RMSU=  8.40D-08    CP:  1.00D+00  1.16D+00  8.45D-01  1.30D+00  9.25D-01
                    CP:  1.00D+00
 FoFJK:  IHMeth= 1 ICntrl=     0 DoSepK=T KAlg= 1 I1Cent= 0 FoldK=F
 E= -2905.43010345234     Delta-E=       -0.000000001798 Rises=F Damp=F
 DIIS: error= 7.54D-07 at cycle   7 NSaved=   7.
 NSaved= 7 IEnMin= 7 EnMin= -2905.43010345234     IErMin= 7 ErrMin= 7.54D-07
 ErrMax= 7.54D-07 EMaxC= 1.00D-01 BMatC= 8.85D-11 BMatP= 1.79D-09
 IDIUse=1 WtCom= 1.00D+00 WtEn= 0.00D+00
 Coeff-Com: -0.322D-04 0.732D-02 0.187D-02-0.631D-01-0.862D-01-0.946D-02
 Coeff-Com:  0.115D+01
 Coeff:     -0.322D-04 0.732D-02 0.187D-02-0.631D-01-0.862D-01-0.946D-02
 Coeff:      0.115D+01
 Gap=     0.434 Goal=   None    Shift=    0.000
 RMSDP=9.75D-08 MaxDP=3.19D-06 DE=-1.80D-09 OVMax= 8.27D-06

 Cycle   8  Pass 1  IDiag  1:
 RMSU=  3.10D-08    CP:  1.00D+00  1.16D+00  8.47D-01  1.30D+00  9.60D-01
                    CP:  1.14D+00  1.27D+00
 FoFJK:  IHMeth= 1 ICntrl=     0 DoSepK=T KAlg= 1 I1Cent= 0 FoldK=F
 E= -2905.43010345258     Delta-E=       -0.000000000238 Rises=F Damp=F
 DIIS: error= 9.95D-08 at cycle   8 NSaved=   8.
 NSaved= 8 IEnMin= 8 EnMin= -2905.43010345258     IErMin= 8 ErrMin= 9.95D-08
 ErrMax= 9.95D-08 EMaxC= 1.00D-01 BMatC= 3.64D-12 BMatP= 8.85D-11
 IDIUse=1 WtCom= 1.00D+00 WtEn= 0.00D+00
 Coeff-Com: -0.828D-05 0.114D-02 0.514D-03-0.731D-02-0.137D-01-0.258D-01
 Coeff-Com:  0.730D-01 0.972D+00
 Coeff:     -0.828D-05 0.114D-02 0.514D-03-0.731D-02-0.137D-01-0.258D-01
 Coeff:      0.730D-01 0.972D+00
 Gap=     0.434 Goal=   None    Shift=    0.000
 RMSDP=1.94D-08 MaxDP=4.98D-07 DE=-2.38D-10 OVMax= 2.09D-06

 Cycle   9  Pass 1  IDiag  1:
 RMSU=  6.40D-09    CP:  1.00D+00  1.16D+00  8.47D-01  1.30D+00  9.59D-01
                    CP:  1.14D+00  1.34D+00  1.30D+00
 FoFJK:  IHMeth= 1 ICntrl=     0 DoSepK=T KAlg= 1 I1Cent= 0 FoldK=F
 E= -2905.43010345258     Delta-E=        0.000000000003 Rises=F Damp=F
 DIIS: error= 4.40D-08 at cycle   9 NSaved=   9.
 NSaved= 9 IEnMin= 8 EnMin= -2905.43010345258     IErMin= 9 ErrMin= 4.40D-08
 ErrMax= 4.40D-08 EMaxC= 1.00D-01 BMatC= 5.78D-13 BMatP= 3.64D-12
 IDIUse=1 WtCom= 1.00D+00 WtEn= 0.00D+00
 Coeff-Com:  0.371D-05-0.877D-03-0.212D-03 0.775D-02 0.100D-01-0.115D-02
 Coeff-Com: -0.147D+00 0.905D-01 0.104D+01
 Coeff:      0.371D-05-0.877D-03-0.212D-03 0.775D-02 0.100D-01-0.115D-02
 Coeff:     -0.147D+00 0.905D-01 0.104D+01
 Gap=     0.434 Goal=   None    Shift=    0.000
 RMSDP=1.04D-08 MaxDP=2.30D-07 DE= 2.73D-12 OVMax= 1.11D-06

 Cycle  10  Pass 1  IDiag  1:
 RMSU=  2.59D-09    CP:  1.00D+00  1.16D+00  8.48D-01  1.30D+00  9.58D-01
                    CP:  1.14D+00  1.36D+00  1.46D+00  1.32D+00
 FoFJK:  IHMeth= 1 ICntrl=     0 DoSepK=T KAlg= 1 I1Cent= 0 FoldK=F
 E= -2905.43010345258     Delta-E=        0.000000000000 Rises=F Damp=F
 DIIS: error= 1.32D-08 at cycle  10 NSaved=  10.
 NSaved=10 IEnMin= 8 EnMin= -2905.43010345258     IErMin=10 ErrMin= 1.32D-08
 ErrMax= 1.32D-08 EMaxC= 1.00D-01 BMatC= 4.63D-14 BMatP= 5.78D-13
 IDIUse=1 WtCom= 1.00D+00 WtEn= 0.00D+00
 Coeff-Com:  0.174D-06 0.196D-04-0.295D-05-0.423D-03-0.333D-03 0.243D-02
 Coeff-Com:  0.134D-01-0.984D-01-0.105D+00 0.119D+01
 Coeff:      0.174D-06 0.196D-04-0.295D-05-0.423D-03-0.333D-03 0.243D-02
 Coeff:      0.134D-01-0.984D-01-0.105D+00 0.119D+01
 Gap=     0.434 Goal=   None    Shift=    0.000
 RMSDP=2.94D-09 MaxDP=5.97D-08 DE=-4.55D-13 OVMax= 4.08D-07

 SCF Done:  E(RwB97XD) =  -2905.43010345     A.U. after   10 cycles
             Convg  =    0.2944D-08             -V/T =  2.0016
 KE= 2.900891043080D+03 PE=-7.232876827576D+03 EE= 1.278815972775D+03
 Leave Link  502 at Fri Jan 17 14:23:54 2020, MaxMem=  536870912 cpu:     178.8
 (Enter /home/matheus/.gaussian/g09/l108.exe)
 Variable Step   Value    
 -------- ---- -----------
     1       2    6.047124
 Leave Link  108 at Fri Jan 17 14:23:54 2020, MaxMem=  536870912 cpu:       0.0
 (Enter /home/matheus/.gaussian/g09/l202.exe)
 ---------------------------------------------------------------------------------------------------
                            Z-MATRIX (ANGSTROMS AND DEGREES)
   CD    Cent   Atom    N1       Length/X        N2       Alpha/Y        N3        Beta/Z          J
 ---------------------------------------------------------------------------------------------------
      1      1  O        0   0.000000          0.000000          0.725000
      2      2  O        0   0.000000          0.000000         -0.725000
      3      3  H        0   0.459360          0.795635          1.023510
      4      4  H        0   0.000000          0.918721         -1.023510
      5      5  Kr       0   0.000000          3.200000          0.000000
 ---------------------------------------------------------------------------------------------------
                         Z-Matrix orientation:                         
 ---------------------------------------------------------------------
 Center     Atomic      Atomic             Coordinates (Angstroms)
 Number     Number       Type             X           Y           Z
 ---------------------------------------------------------------------
      1          8           0        0.000000    0.000000    0.725000
      2          8           0        0.000000    0.000000   -0.725000
      3          1           0        0.459360    0.795635    1.023510
      4          1           0        0.000000    0.918721   -1.023510
      5         36           0        0.000000    3.200000    0.000000
 ---------------------------------------------------------------------
                    Distance matrix (angstroms):
                    1          2          3          4          5
     1  O    0.000000
     2  O    1.450000   0.000000
     3  H    0.966000   1.975180   0.000000
     4  H    1.975180   0.966000   2.101537   0.000000
     5  Kr   3.281101   3.281101   2.653216   2.500362   0.000000
 Stoichiometry    H2KrO2
 Framework group  C1[X(H2KrO2)]
 Deg. of freedom     9
 Full point group                 C1      NOp   1
 RotChk:  IX=0 Diff= 1.72D-04
 Largest Abelian subgroup         C1      NOp   1
 Largest concise Abelian subgroup C1      NOp   1
                         Standard orientation:                         
 ---------------------------------------------------------------------
 Center     Atomic      Atomic             Coordinates (Angstroms)
 Number     Number       Type             X           Y           Z
 ---------------------------------------------------------------------
      1          8           0        2.165877   -0.720724   -0.052979
      2          8           0        2.164127    0.727778    0.012899
      3          1           0        1.373090   -1.040947    0.396580
      4          1           0        1.245060    1.024647    0.031359
      5         36           0       -1.034949   -0.001115   -0.002981
 ---------------------------------------------------------------------
 Rotational constants (GHZ):     26.4112668      2.0918935      1.9412980
 Leave Link  202 at Fri Jan 17 14:23:54 2020, MaxMem=  536870912 cpu:       0.0
 (Enter /home/matheus/.gaussian/g09/l301.exe)
 Standard basis: Aug-CC-pVTZ (5D, 7F)
 Ernie: Thresh=  0.10000D-02 Tol=  0.10000D-05 Strict=F.
 Ernie:  38 primitive shells out of 205 were deleted.
 There are   197 symmetry adapted basis functions of A   symmetry.
 Integral buffers will be    131072 words long.
 Raffenetti 2 integral format.
 Two-electron integral symmetry is turned on.
   197 basis functions,   415 primitive gaussians,   229 cartesian basis functions
    27 alpha electrons       27 beta electrons
       nuclear repulsion energy       144.3566967293 Hartrees.
 IExCor= 4639 DFT=T Ex+Corr=wB97XD ExCW=0 ScaHFX=  1.000000
 ScaDFX=  1.000000  1.000000  1.000000  1.000000 ScalE2=  1.000000  1.000000
 IRadAn=      5 IRanWt=     -1 IRanGd=            0 ICorTp=0
  HFx wShort=  0.000000 wLong=  0.330000 cFull=  0.222036 cShort=  0.000000 cLong=  0.777964
  DFx wShort=  0.000000 wLong=  0.330000 cFull=  0.000000 cShort=  0.000000 cLong=  1.000000
 NAtoms=    5 NActive=    5 NUniq=    5 SFac= 1.00D+00 NAtFMM=   60 NAOKFM=F Big=F
 R6Disp: Dispersion energy =        -0.0009732728 Hartrees.
 Nuclear repulsion after empirical dispersion term =      144.3557234565 Hartrees.
 Leave Link  301 at Fri Jan 17 14:23:54 2020, MaxMem=  536870912 cpu:       0.1
 (Enter /home/matheus/.gaussian/g09/l302.exe)
 NPDir=0 NMtPBC=     1 NCelOv=     1 NCel=       1 NClECP=     1 NCelD=      1
         NCelK=      1 NCelE2=     1 NClLst=     1 CellRange=     0.0.
 One-electron integrals computed using PRISM.
 NBasis=   197 RedAO= T  NBF=   197
 NBsUse=   197 1.00D-06 NBFU=   197
 Precomputing XC quadrature grid using
 IXCGrd= 2 IRadAn=           5 IRanWt=          -1 IRanGd=           0 AccXCQ= 0.00D+00.
 NRdTot=     427 NPtTot=      123512 NUsed=      126579 NTot=      126611
 NSgBfM=   229   229   229   229   229 NAtAll=     5     5.
 Leave Link  302 at Fri Jan 17 14:23:55 2020, MaxMem=  536870912 cpu:       0.5
 (Enter /home/matheus/.gaussian/g09/l303.exe)
 DipDrv:  MaxL=1.
 Leave Link  303 at Fri Jan 17 14:23:55 2020, MaxMem=  536870912 cpu:       0.1
 (Enter /home/matheus/.gaussian/g09/l401.exe)
 Initial guess read from the read-write file.
 B after Tr=     0.000000    0.000000    0.000000
         Rot=    1.000000    0.000000    0.000000    0.000000 Ang=   0.00 deg.
 Guess basis will be translated and rotated to current coordinates.
 Initial guess orbital symmetries:
       Occupied  (A) (A) (A) (A) (A) (A) (A) (A) (A) (A) (A) (A)
                 (A) (A) (A) (A) (A) (A) (A) (A) (A) (A) (A) (A)
                 (A) (A) (A)
       Virtual   (A) (A) (A) (A) (A) (A) (A) (A) (A) (A) (A) (A)
                 (A) (A) (A) (A) (A) (A) (A) (A) (A) (A) (A) (A)
                 (A) (A) (A) (A) (A) (A) (A) (A) (A) (A) (A) (A)
                 (A) (A) (A) (A) (A) (A) (A) (A) (A) (A) (A) (A)
                 (A) (A) (A) (A) (A) (A) (A) (A) (A) (A) (A) (A)
                 (A) (A) (A) (A) (A) (A) (A) (A) (A) (A) (A) (A)
                 (A) (A) (A) (A) (A) (A) (A) (A) (A) (A) (A) (A)
                 (A) (A) (A) (A) (A) (A) (A) (A) (A) (A) (A) (A)
                 (A) (A) (A) (A) (A) (A) (A) (A) (A) (A) (A) (A)
                 (A) (A) (A) (A) (A) (A) (A) (A) (A) (A) (A) (A)
                 (A) (A) (A) (A) (A) (A) (A) (A) (A) (A) (A) (A)
                 (A) (A) (A) (A) (A) (A) (A) (A) (A) (A) (A) (A)
                 (A) (A) (A) (A) (A) (A) (A) (A) (A) (A) (A) (A)
                 (A) (A) (A) (A) (A) (A) (A) (A) (A) (A) (A) (A)
                 (A) (A)
 The electronic state of the initial guess is 1-A.
 Generating alternative initial guess.
 Harris functional with IExCor= 4639 diagonalized for initial guess.
 ExpMin= 2.53D-02 ExpMax= 1.17D+07 ExpMxC= 1.33D+04 IAcc=3 IRadAn=         5 AccDes= 0.00D+00
 HarFok:  IExCor= 4639 AccDes= 0.00D+00 IRadAn=         5 IDoV= 1
 ScaDFX=  1.000000  1.000000  1.000000  1.000000
 FoFCou: FMM=F IPFlag=           0 FMFlag=      100000 FMFlg1=           0
         NFxFlg=           0 DoJE=T BraDBF=F KetDBF=T FulRan=T
         Omega=  0.000000  0.000000  1.000000  0.000000  0.000000 ICntrl=     500 IOpCl=  0
         NMat0=    1 NMatS0=    1 NMatT0=    0 NMatD0=    1 NMtDS0=    0 NMtDT0=    0
         I1Cent=           4 NGrid=           0.
 Petite list used in FoFCou.
 Harris En= -2873.72967439920    
 Leave Link  401 at Fri Jan 17 14:23:55 2020, MaxMem=  536870912 cpu:       3.0
 (Enter /home/matheus/.gaussian/g09/l502.exe)
 Closed shell SCF:
 Requested convergence on RMS density matrix=1.00D-08 within 128 cycles.
 Requested convergence on MAX density matrix=1.00D-06.
 Requested convergence on             energy=1.00D-06.
 No special actions if energy rises.
 Using DIIS extrapolation, IDIIS=  1040.
 Integral symmetry usage will be decided dynamically.
       126521 words used for storage of precomputed grid.
 IEnd=      305010 IEndB=      305010 NGot=   536870912 MDV=   536635213
 LenX=   536635213 LenY=   536582331
 Fock matrices will be formed incrementally for  20 cycles.

 Cycle   1  Pass 1  IDiag  1:
 FoFJK:  IHMeth= 1 ICntrl=     0 DoSepK=T KAlg= 1 I1Cent= 0 FoldK=F
 FoFCou: FMM=F IPFlag=           0 FMFlag=      100000 FMFlg1=           0
         NFxFlg=           0 DoJE=T BraDBF=F KetDBF=F FulRan=T
         Omega=  0.000000  0.000000  1.000000  0.000000  0.000000 ICntrl=     500 IOpCl=  0
         NMat0=    1 NMatS0=    1 NMatT0=    0 NMatD0=    1 NMtDS0=    0 NMtDT0=    0
         I1Cent=           0 NGrid=           0.
 Symmetry not used in FoFCou.
 E= -2905.43157814852    
 DIIS: error= 1.99D-03 at cycle   1 NSaved=   1.
 NSaved= 1 IEnMin= 1 EnMin= -2905.43157814852     IErMin= 1 ErrMin= 1.99D-03
 ErrMax= 1.99D-03 EMaxC= 1.00D-01 BMatC= 7.13D-04 BMatP= 7.13D-04
 IDIUse=3 WtCom= 9.80D-01 WtEn= 1.99D-02
 Coeff-Com:  0.100D+01
 Coeff-En:   0.100D+01
 Coeff:      0.100D+01
 Gap=     0.437 Goal=   None    Shift=    0.000
 GapD=    0.437 DampG=2.000 DampE=1.000 DampFc=2.0000 IDamp=-1.
 RMSDP=6.64D-05 MaxDP=1.55D-03              OVMax= 2.95D-03

 Cycle   2  Pass 1  IDiag  1:
 RMSU=  4.69D-05    CP:  1.00D+00
 FoFJK:  IHMeth= 1 ICntrl=     0 DoSepK=T KAlg= 1 I1Cent= 0 FoldK=F
 E= -2905.43167873289     Delta-E=       -0.000100584365 Rises=F Damp=F
 DIIS: error= 1.55D-04 at cycle   2 NSaved=   2.
 NSaved= 2 IEnMin= 2 EnMin= -2905.43167873289     IErMin= 2 ErrMin= 1.55D-04
 ErrMax= 1.55D-04 EMaxC= 1.00D-01 BMatC= 3.87D-06 BMatP= 7.13D-04
 IDIUse=3 WtCom= 9.98D-01 WtEn= 1.55D-03
 Coeff-Com: -0.437D-02 0.100D+01
 Coeff-En:   0.000D+00 0.100D+01
 Coeff:     -0.436D-02 0.100D+01
 Gap=     0.433 Goal=   None    Shift=    0.000
 RMSDP=1.38D-05 MaxDP=4.45D-04 DE=-1.01D-04 OVMax= 7.97D-04

 Cycle   3  Pass 1  IDiag  1:
 RMSU=  7.84D-06    CP:  1.00D+00  1.12D+00
 FoFJK:  IHMeth= 1 ICntrl=     0 DoSepK=T KAlg= 1 I1Cent= 0 FoldK=F
 E= -2905.43168204742     Delta-E=       -0.000003314532 Rises=F Damp=F
 DIIS: error= 7.49D-05 at cycle   3 NSaved=   3.
 NSaved= 3 IEnMin= 3 EnMin= -2905.43168204742     IErMin= 3 ErrMin= 7.49D-05
 ErrMax= 7.49D-05 EMaxC= 1.00D-01 BMatC= 1.81D-06 BMatP= 3.87D-06
 IDIUse=1 WtCom= 1.00D+00 WtEn= 0.00D+00
 Coeff-Com: -0.606D-02 0.393D+00 0.613D+00
 Coeff:     -0.606D-02 0.393D+00 0.613D+00
 Gap=     0.434 Goal=   None    Shift=    0.000
 RMSDP=4.73D-06 MaxDP=1.94D-04 DE=-3.31D-06 OVMax= 2.50D-04

 Cycle   4  Pass 1  IDiag  1:
 RMSU=  2.62D-06    CP:  1.00D+00  1.15D+00  7.82D-01
 FoFJK:  IHMeth= 1 ICntrl=     0 DoSepK=T KAlg= 1 I1Cent= 0 FoldK=F
 E= -2905.43168324813     Delta-E=       -0.000001200709 Rises=F Damp=F
 DIIS: error= 1.53D-05 at cycle   4 NSaved=   4.
 NSaved= 4 IEnMin= 4 EnMin= -2905.43168324813     IErMin= 4 ErrMin= 1.53D-05
 ErrMax= 1.53D-05 EMaxC= 1.00D-01 BMatC= 7.81D-08 BMatP= 1.81D-06
 IDIUse=1 WtCom= 1.00D+00 WtEn= 0.00D+00
 Coeff-Com: -0.473D-03-0.421D-01 0.102D+00 0.941D+00
 Coeff:     -0.473D-03-0.421D-01 0.102D+00 0.941D+00
 Gap=     0.434 Goal=   None    Shift=    0.000
 RMSDP=1.85D-06 MaxDP=6.15D-05 DE=-1.20D-06 OVMax= 1.11D-04

 Cycle   5  Pass 1  IDiag  1:
 RMSU=  7.20D-07    CP:  1.00D+00  1.16D+00  8.81D-01  1.19D+00
 FoFJK:  IHMeth= 1 ICntrl=     0 DoSepK=T KAlg= 1 I1Cent= 0 FoldK=F
 E= -2905.43168332135     Delta-E=       -0.000000073227 Rises=F Damp=F
 DIIS: error= 8.82D-06 at cycle   5 NSaved=   5.
 NSaved= 5 IEnMin= 5 EnMin= -2905.43168332135     IErMin= 5 ErrMin= 8.82D-06
 ErrMax= 8.82D-06 EMaxC= 1.00D-01 BMatC= 2.34D-08 BMatP= 7.81D-08
 IDIUse=1 WtCom= 1.00D+00 WtEn= 0.00D+00
 Coeff-Com:  0.261D-03-0.543D-01 0.407D-03 0.460D+00 0.594D+00
 Coeff:      0.261D-03-0.543D-01 0.407D-03 0.460D+00 0.594D+00
 Gap=     0.434 Goal=   None    Shift=    0.000
 RMSDP=5.17D-07 MaxDP=2.32D-05 DE=-7.32D-08 OVMax= 3.29D-05

 Cycle   6  Pass 1  IDiag  1:
 RMSU=  2.48D-07    CP:  1.00D+00  1.16D+00  9.00D-01  1.26D+00  8.40D-01
 FoFJK:  IHMeth= 1 ICntrl=     0 DoSepK=T KAlg= 1 I1Cent= 0 FoldK=F
 E= -2905.43168333792     Delta-E=       -0.000000016567 Rises=F Damp=F
 DIIS: error= 1.87D-06 at cycle   6 NSaved=   6.
 NSaved= 6 IEnMin= 6 EnMin= -2905.43168333792     IErMin= 6 ErrMin= 1.87D-06
 ErrMax= 1.87D-06 EMaxC= 1.00D-01 BMatC= 1.23D-09 BMatP= 2.34D-08
 IDIUse=1 WtCom= 1.00D+00 WtEn= 0.00D+00
 Coeff-Com:  0.142D-03-0.160D-01-0.895D-02 0.744D-01 0.210D+00 0.740D+00
 Coeff:      0.142D-03-0.160D-01-0.895D-02 0.744D-01 0.210D+00 0.740D+00
 Gap=     0.434 Goal=   None    Shift=    0.000
 RMSDP=1.67D-07 MaxDP=4.86D-06 DE=-1.66D-08 OVMax= 1.06D-05

 Cycle   7  Pass 1  IDiag  1:
 RMSU=  6.99D-08    CP:  1.00D+00  1.16D+00  9.05D-01  1.28D+00  9.21D-01
                    CP:  1.00D+00
 FoFJK:  IHMeth= 1 ICntrl=     0 DoSepK=T KAlg= 1 I1Cent= 0 FoldK=F
 E= -2905.43168333921     Delta-E=       -0.000000001287 Rises=F Damp=F
 DIIS: error= 6.78D-07 at cycle   7 NSaved=   7.
 NSaved= 7 IEnMin= 7 EnMin= -2905.43168333921     IErMin= 7 ErrMin= 6.78D-07
 ErrMax= 6.78D-07 EMaxC= 1.00D-01 BMatC= 6.30D-11 BMatP= 1.23D-09
 IDIUse=1 WtCom= 1.00D+00 WtEn= 0.00D+00
 Coeff-Com: -0.337D-04 0.746D-02 0.596D-03-0.627D-01-0.837D-01 0.246D-03
 Coeff-Com:  0.114D+01
 Coeff:     -0.337D-04 0.746D-02 0.596D-03-0.627D-01-0.837D-01 0.246D-03
 Coeff:      0.114D+01
 Gap=     0.434 Goal=   None    Shift=    0.000
 RMSDP=7.89D-08 MaxDP=2.65D-06 DE=-1.29D-09 OVMax= 6.68D-06

 Cycle   8  Pass 1  IDiag  1:
 RMSU=  2.58D-08    CP:  1.00D+00  1.16D+00  9.08D-01  1.29D+00  9.53D-01
                    CP:  1.13D+00  1.27D+00
 FoFJK:  IHMeth= 1 ICntrl=     0 DoSepK=T KAlg= 1 I1Cent= 0 FoldK=F
 E= -2905.43168333940     Delta-E=       -0.000000000195 Rises=F Damp=F
 DIIS: error= 9.46D-08 at cycle   8 NSaved=   8.
 NSaved= 8 IEnMin= 8 EnMin= -2905.43168333940     IErMin= 8 ErrMin= 9.46D-08
 ErrMax= 9.46D-08 EMaxC= 1.00D-01 BMatC= 2.10D-12 BMatP= 6.30D-11
 IDIUse=1 WtCom= 1.00D+00 WtEn= 0.00D+00
 Coeff-Com: -0.567D-05 0.684D-03 0.279D-03-0.362D-02-0.829D-02-0.226D-01
 Coeff-Com:  0.198D-01 0.101D+01
 Coeff:     -0.567D-05 0.684D-03 0.279D-03-0.362D-02-0.829D-02-0.226D-01
 Coeff:      0.198D-01 0.101D+01
 Gap=     0.434 Goal=   None    Shift=    0.000
 RMSDP=1.65D-08 MaxDP=4.11D-07 DE=-1.95D-10 OVMax= 1.68D-06

 Cycle   9  Pass 1  IDiag  1:
 RMSU=  4.94D-09    CP:  1.00D+00  1.16D+00  9.08D-01  1.29D+00  9.51D-01
                    CP:  1.13D+00  1.34D+00  1.30D+00
 FoFJK:  IHMeth= 1 ICntrl=     0 DoSepK=T KAlg= 1 I1Cent= 0 FoldK=F
 E= -2905.43168333939     Delta-E=        0.000000000009 Rises=F Damp=F
 DIIS: error= 3.90D-08 at cycle   9 NSaved=   9.
 NSaved= 9 IEnMin= 8 EnMin= -2905.43168333940     IErMin= 9 ErrMin= 3.90D-08
 ErrMax= 3.90D-08 EMaxC= 1.00D-01 BMatC= 3.44D-13 BMatP= 2.10D-12
 IDIUse=1 WtCom= 1.00D+00 WtEn= 0.00D+00
 Coeff-Com:  0.358D-05-0.841D-03-0.473D-04 0.731D-02 0.913D-02-0.307D-02
 Coeff-Com: -0.139D+00 0.131D+00 0.995D+00
 Coeff:      0.358D-05-0.841D-03-0.473D-04 0.731D-02 0.913D-02-0.307D-02
 Coeff:     -0.139D+00 0.131D+00 0.995D+00
 Gap=     0.434 Goal=   None    Shift=    0.000
 RMSDP=7.36D-09 MaxDP=1.79D-07 DE= 8.64D-12 OVMax= 7.98D-07

 SCF Done:  E(RwB97XD) =  -2905.43168334     A.U. after    9 cycles
             Convg  =    0.7362D-08             -V/T =  2.0016
 KE= 2.900880754427D+03 PE=-7.226145611106D+03 EE= 1.275477449883D+03
 Leave Link  502 at Fri Jan 17 14:24:35 2020, MaxMem=  536870912 cpu:     157.6
 (Enter /home/matheus/.gaussian/g09/l108.exe)
 Variable Step   Value    
 -------- ---- -----------
     1       3    6.236096
 Leave Link  108 at Fri Jan 17 14:24:35 2020, MaxMem=  536870912 cpu:       0.0
 (Enter /home/matheus/.gaussian/g09/l202.exe)
 ---------------------------------------------------------------------------------------------------
                            Z-MATRIX (ANGSTROMS AND DEGREES)
   CD    Cent   Atom    N1       Length/X        N2       Alpha/Y        N3        Beta/Z          J
 ---------------------------------------------------------------------------------------------------
      1      1  O        0   0.000000          0.000000          0.725000
      2      2  O        0   0.000000          0.000000         -0.725000
      3      3  H        0   0.459360          0.795635          1.023510
      4      4  H        0   0.000000          0.918721         -1.023510
      5      5  Kr       0   0.000000          3.300000          0.000000
 ---------------------------------------------------------------------------------------------------
                         Z-Matrix orientation:                         
 ---------------------------------------------------------------------
 Center     Atomic      Atomic             Coordinates (Angstroms)
 Number     Number       Type             X           Y           Z
 ---------------------------------------------------------------------
      1          8           0        0.000000    0.000000    0.725000
      2          8           0        0.000000    0.000000   -0.725000
      3          1           0        0.459360    0.795635    1.023510
      4          1           0        0.000000    0.918721   -1.023510
      5         36           0        0.000000    3.300000    0.000000
 ---------------------------------------------------------------------
                    Distance matrix (angstroms):
                    1          2          3          4          5
     1  O    0.000000
     2  O    1.450000   0.000000
     3  H    0.966000   1.975180   0.000000
     4  H    1.975180   0.966000   2.101537   0.000000
     5  Kr   3.378702   3.378702   2.744162   2.591923   0.000000
 Stoichiometry    H2KrO2
 Framework group  C1[X(H2KrO2)]
 Deg. of freedom     9
 Full point group                 C1      NOp   1
 RotChk:  IX=0 Diff= 1.63D-04
 Largest Abelian subgroup         C1      NOp   1
 Largest concise Abelian subgroup C1      NOp   1
                         Standard orientation:                         
 ---------------------------------------------------------------------
 Center     Atomic      Atomic             Coordinates (Angstroms)
 Number     Number       Type             X           Y           Z
 ---------------------------------------------------------------------
      1          8           0        2.232486   -0.720815   -0.053159
      2          8           0        2.230853    0.727687    0.012720
      3          1           0        1.439637   -1.040971    0.396337
      4          1           0        1.311809    1.024633    0.031107
      5         36           0       -1.068282   -0.001073   -0.002887
 ---------------------------------------------------------------------
 Rotational constants (GHZ):     26.4113457      1.9659000      1.8323191
 Leave Link  202 at Fri Jan 17 14:24:35 2020, MaxMem=  536870912 cpu:       0.0
 (Enter /home/matheus/.gaussian/g09/l301.exe)
 Standard basis: Aug-CC-pVTZ (5D, 7F)
 Ernie: Thresh=  0.10000D-02 Tol=  0.10000D-05 Strict=F.
 Ernie:  38 primitive shells out of 205 were deleted.
 There are   197 symmetry adapted basis functions of A   symmetry.
 Integral buffers will be    131072 words long.
 Raffenetti 2 integral format.
 Two-electron integral symmetry is turned on.
   197 basis functions,   415 primitive gaussians,   229 cartesian basis functions
    27 alpha electrons       27 beta electrons
       nuclear repulsion energy       141.1660593904 Hartrees.
 IExCor= 4639 DFT=T Ex+Corr=wB97XD ExCW=0 ScaHFX=  1.000000
 ScaDFX=  1.000000  1.000000  1.000000  1.000000 ScalE2=  1.000000  1.000000
 IRadAn=      5 IRanWt=     -1 IRanGd=            0 ICorTp=0
  HFx wShort=  0.000000 wLong=  0.330000 cFull=  0.222036 cShort=  0.000000 cLong=  0.777964
  DFx wShort=  0.000000 wLong=  0.330000 cFull=  0.000000 cShort=  0.000000 cLong=  1.000000
 NAtoms=    5 NActive=    5 NUniq=    5 SFac= 1.00D+00 NAtFMM=   60 NAOKFM=F Big=F
 R6Disp: Dispersion energy =        -0.0010543036 Hartrees.
 Nuclear repulsion after empirical dispersion term =      141.1650050868 Hartrees.
 Leave Link  301 at Fri Jan 17 14:24:35 2020, MaxMem=  536870912 cpu:       0.1
 (Enter /home/matheus/.gaussian/g09/l302.exe)
 NPDir=0 NMtPBC=     1 NCelOv=     1 NCel=       1 NClECP=     1 NCelD=      1
         NCelK=      1 NCelE2=     1 NClLst=     1 CellRange=     0.0.
 One-electron integrals computed using PRISM.
 NBasis=   197 RedAO= T  NBF=   197
 NBsUse=   197 1.00D-06 NBFU=   197
 Precomputing XC quadrature grid using
 IXCGrd= 2 IRadAn=           5 IRanWt=          -1 IRanGd=           0 AccXCQ= 0.00D+00.
 NRdTot=     427 NPtTot=      123512 NUsed=      126579 NTot=      126611
 NSgBfM=   229   229   229   229   229 NAtAll=     5     5.
 Leave Link  302 at Fri Jan 17 14:24:35 2020, MaxMem=  536870912 cpu:       0.5
 (Enter /home/matheus/.gaussian/g09/l303.exe)
 DipDrv:  MaxL=1.
 Leave Link  303 at Fri Jan 17 14:24:35 2020, MaxMem=  536870912 cpu:       0.1
 (Enter /home/matheus/.gaussian/g09/l401.exe)
 Initial guess read from the read-write file.
 B after Tr=     0.000000    0.000000    0.000000
         Rot=    1.000000    0.000000    0.000000    0.000000 Ang=   0.00 deg.
 Guess basis will be translated and rotated to current coordinates.
 Initial guess orbital symmetries:
       Occupied  (A) (A) (A) (A) (A) (A) (A) (A) (A) (A) (A) (A)
                 (A) (A) (A) (A) (A) (A) (A) (A) (A) (A) (A) (A)
                 (A) (A) (A)
       Virtual   (A) (A) (A) (A) (A) (A) (A) (A) (A) (A) (A) (A)
                 (A) (A) (A) (A) (A) (A) (A) (A) (A) (A) (A) (A)
                 (A) (A) (A) (A) (A) (A) (A) (A) (A) (A) (A) (A)
                 (A) (A) (A) (A) (A) (A) (A) (A) (A) (A) (A) (A)
                 (A) (A) (A) (A) (A) (A) (A) (A) (A) (A) (A) (A)
                 (A) (A) (A) (A) (A) (A) (A) (A) (A) (A) (A) (A)
                 (A) (A) (A) (A) (A) (A) (A) (A) (A) (A) (A) (A)
                 (A) (A) (A) (A) (A) (A) (A) (A) (A) (A) (A) (A)
                 (A) (A) (A) (A) (A) (A) (A) (A) (A) (A) (A) (A)
                 (A) (A) (A) (A) (A) (A) (A) (A) (A) (A) (A) (A)
                 (A) (A) (A) (A) (A) (A) (A) (A) (A) (A) (A) (A)
                 (A) (A) (A) (A) (A) (A) (A) (A) (A) (A) (A) (A)
                 (A) (A) (A) (A) (A) (A) (A) (A) (A) (A) (A) (A)
                 (A) (A) (A) (A) (A) (A) (A) (A) (A) (A) (A) (A)
                 (A) (A)
 The electronic state of the initial guess is 1-A.
 Generating alternative initial guess.
 Harris functional with IExCor= 4639 diagonalized for initial guess.
 ExpMin= 2.53D-02 ExpMax= 1.17D+07 ExpMxC= 1.33D+04 IAcc=3 IRadAn=         5 AccDes= 0.00D+00
 HarFok:  IExCor= 4639 AccDes= 0.00D+00 IRadAn=         5 IDoV= 1
 ScaDFX=  1.000000  1.000000  1.000000  1.000000
 FoFCou: FMM=F IPFlag=           0 FMFlag=      100000 FMFlg1=           0
         NFxFlg=           0 DoJE=T BraDBF=F KetDBF=T FulRan=T
         Omega=  0.000000  0.000000  1.000000  0.000000  0.000000 ICntrl=     500 IOpCl=  0
         NMat0=    1 NMatS0=    1 NMatT0=    0 NMatD0=    1 NMtDS0=    0 NMtDT0=    0
         I1Cent=           4 NGrid=           0.
 Petite list used in FoFCou.
 Harris En= -2873.73232430026    
 Leave Link  401 at Fri Jan 17 14:24:36 2020, MaxMem=  536870912 cpu:       2.9
 (Enter /home/matheus/.gaussian/g09/l502.exe)
 Closed shell SCF:
 Requested convergence on RMS density matrix=1.00D-08 within 128 cycles.
 Requested convergence on MAX density matrix=1.00D-06.
 Requested convergence on             energy=1.00D-06.
 No special actions if energy rises.
 Using DIIS extrapolation, IDIIS=  1040.
 Integral symmetry usage will be decided dynamically.
       126521 words used for storage of precomputed grid.
 IEnd=      305010 IEndB=      305010 NGot=   536870912 MDV=   536635213
 LenX=   536635213 LenY=   536582331
 Fock matrices will be formed incrementally for  20 cycles.

 Cycle   1  Pass 1  IDiag  1:
 FoFJK:  IHMeth= 1 ICntrl=     0 DoSepK=T KAlg= 1 I1Cent= 0 FoldK=F
 FoFCou: FMM=F IPFlag=           0 FMFlag=      100000 FMFlg1=           0
         NFxFlg=           0 DoJE=T BraDBF=F KetDBF=F FulRan=T
         Omega=  0.000000  0.000000  1.000000  0.000000  0.000000 ICntrl=     500 IOpCl=  0
         NMat0=    1 NMatS0=    1 NMatT0=    0 NMatD0=    1 NMtDS0=    0 NMtDT0=    0
         I1Cent=           0 NGrid=           0.
 Symmetry not used in FoFCou.
 E= -2905.43261774095    
 DIIS: error= 1.73D-03 at cycle   1 NSaved=   1.
 NSaved= 1 IEnMin= 1 EnMin= -2905.43261774095     IErMin= 1 ErrMin= 1.73D-03
 ErrMax= 1.73D-03 EMaxC= 1.00D-01 BMatC= 5.45D-04 BMatP= 5.45D-04
 IDIUse=3 WtCom= 9.83D-01 WtEn= 1.73D-02
 Coeff-Com:  0.100D+01
 Coeff-En:   0.100D+01
 Coeff:      0.100D+01
 Gap=     0.437 Goal=   None    Shift=    0.000
 GapD=    0.437 DampG=2.000 DampE=1.000 DampFc=2.0000 IDamp=-1.
 RMSDP=6.10D-05 MaxDP=1.65D-03              OVMax= 2.59D-03

 Cycle   2  Pass 1  IDiag  1:
 RMSU=  4.31D-05    CP:  1.00D+00
 FoFJK:  IHMeth= 1 ICntrl=     0 DoSepK=T KAlg= 1 I1Cent= 0 FoldK=F
 E= -2905.43269458355     Delta-E=       -0.000076842601 Rises=F Damp=F
 DIIS: error= 1.25D-04 at cycle   2 NSaved=   2.
 NSaved= 2 IEnMin= 2 EnMin= -2905.43269458355     IErMin= 2 ErrMin= 1.25D-04
 ErrMax= 1.25D-04 EMaxC= 1.00D-01 BMatC= 2.55D-06 BMatP= 5.45D-04
 IDIUse=3 WtCom= 9.99D-01 WtEn= 1.25D-03
 Coeff-Com: -0.571D-02 0.101D+01
 Coeff-En:   0.000D+00 0.100D+01
 Coeff:     -0.570D-02 0.101D+01
 Gap=     0.434 Goal=   None    Shift=    0.000
 RMSDP=1.19D-05 MaxDP=3.71D-04 DE=-7.68D-05 OVMax= 6.67D-04

 Cycle   3  Pass 1  IDiag  1:
 RMSU=  6.44D-06    CP:  1.00D+00  1.12D+00
 FoFJK:  IHMeth= 1 ICntrl=     0 DoSepK=T KAlg= 1 I1Cent= 0 FoldK=F
 E= -2905.43269702232     Delta-E=       -0.000002438771 Rises=F Damp=F
 DIIS: error= 5.93D-05 at cycle   3 NSaved=   3.
 NSaved= 3 IEnMin= 3 EnMin= -2905.43269702232     IErMin= 3 ErrMin= 5.93D-05
 ErrMax= 5.93D-05 EMaxC= 1.00D-01 BMatC= 1.12D-06 BMatP= 2.55D-06
 IDIUse=1 WtCom= 1.00D+00 WtEn= 0.00D+00
 Coeff-Com: -0.583D-02 0.382D+00 0.624D+00
 Coeff:     -0.583D-02 0.382D+00 0.624D+00
 Gap=     0.434 Goal=   None    Shift=    0.000
 RMSDP=3.88D-06 MaxDP=1.57D-04 DE=-2.44D-06 OVMax= 2.01D-04

 Cycle   4  Pass 1  IDiag  1:
 RMSU=  2.34D-06    CP:  1.00D+00  1.15D+00  8.32D-01
 FoFJK:  IHMeth= 1 ICntrl=     0 DoSepK=T KAlg= 1 I1Cent= 0 FoldK=F
 E= -2905.43269777334     Delta-E=       -0.000000751018 Rises=F Damp=F
 DIIS: error= 1.30D-05 at cycle   4 NSaved=   4.
 NSaved= 4 IEnMin= 4 EnMin= -2905.43269777334     IErMin= 4 ErrMin= 1.30D-05
 ErrMax= 1.30D-05 EMaxC= 1.00D-01 BMatC= 6.32D-08 BMatP= 1.12D-06
 IDIUse=1 WtCom= 1.00D+00 WtEn= 0.00D+00
 Coeff-Com: -0.416D-03-0.451D-01 0.124D+00 0.922D+00
 Coeff:     -0.416D-03-0.451D-01 0.124D+00 0.922D+00
 Gap=     0.434 Goal=   None    Shift=    0.000
 RMSDP=1.65D-06 MaxDP=5.36D-05 DE=-7.51D-07 OVMax= 9.20D-05

 Cycle   5  Pass 1  IDiag  1:
 RMSU=  6.14D-07    CP:  1.00D+00  1.16D+00  9.48D-01  1.18D+00
 FoFJK:  IHMeth= 1 ICntrl=     0 DoSepK=T KAlg= 1 I1Cent= 0 FoldK=F
 E= -2905.43269783082     Delta-E=       -0.000000057486 Rises=F Damp=F
 DIIS: error= 8.35D-06 at cycle   5 NSaved=   5.
 NSaved= 5 IEnMin= 5 EnMin= -2905.43269783082     IErMin= 5 ErrMin= 8.35D-06
 ErrMax= 8.35D-06 EMaxC= 1.00D-01 BMatC= 1.71D-08 BMatP= 6.32D-08
 IDIUse=1 WtCom= 1.00D+00 WtEn= 0.00D+00
 Coeff-Com:  0.273D-03-0.548D-01 0.102D-01 0.451D+00 0.594D+00
 Coeff:      0.273D-03-0.548D-01 0.102D-01 0.451D+00 0.594D+00
 Gap=     0.434 Goal=   None    Shift=    0.000
 RMSDP=4.49D-07 MaxDP=2.03D-05 DE=-5.75D-08 OVMax= 2.95D-05

 Cycle   6  Pass 1  IDiag  1:
 RMSU=  2.11D-07    CP:  1.00D+00  1.16D+00  9.70D-01  1.24D+00  8.34D-01
 FoFJK:  IHMeth= 1 ICntrl=     0 DoSepK=T KAlg= 1 I1Cent= 0 FoldK=F
 E= -2905.43269784304     Delta-E=       -0.000000012213 Rises=F Damp=F
 DIIS: error= 1.61D-06 at cycle   6 NSaved=   6.
 NSaved= 6 IEnMin= 6 EnMin= -2905.43269784304     IErMin= 6 ErrMin= 1.61D-06
 ErrMax= 1.61D-06 EMaxC= 1.00D-01 BMatC= 8.55D-10 BMatP= 1.71D-08
 IDIUse=1 WtCom= 1.00D+00 WtEn= 0.00D+00
 Coeff-Com:  0.136D-03-0.150D-01-0.763D-02 0.652D-01 0.202D+00 0.755D+00
 Coeff:      0.136D-03-0.150D-01-0.763D-02 0.652D-01 0.202D+00 0.755D+00
 Gap=     0.434 Goal=   None    Shift=    0.000
 RMSDP=1.44D-07 MaxDP=4.61D-06 DE=-1.22D-08 OVMax= 9.19D-06

 Cycle   7  Pass 1  IDiag  1:
 RMSU=  5.93D-08    CP:  1.00D+00  1.16D+00  9.77D-01  1.26D+00  9.13D-01
                    CP:  1.01D+00
 FoFJK:  IHMeth= 1 ICntrl=     0 DoSepK=T KAlg= 1 I1Cent= 0 FoldK=F
 E= -2905.43269784400     Delta-E=       -0.000000000959 Rises=F Damp=F
 DIIS: error= 6.00D-07 at cycle   7 NSaved=   7.
 NSaved= 7 IEnMin= 7 EnMin= -2905.43269784400     IErMin= 7 ErrMin= 6.00D-07
 ErrMax= 6.00D-07 EMaxC= 1.00D-01 BMatC= 4.50D-11 BMatP= 8.55D-10
 IDIUse=1 WtCom= 1.00D+00 WtEn= 0.00D+00
 Coeff-Com: -0.354D-04 0.756D-02-0.778D-03-0.617D-01-0.826D-01 0.520D-02
 Coeff-Com:  0.113D+01
 Coeff:     -0.354D-04 0.756D-02-0.778D-03-0.617D-01-0.826D-01 0.520D-02
 Coeff:      0.113D+01
 Gap=     0.434 Goal=   None    Shift=    0.000
 RMSDP=6.50D-08 MaxDP=2.19D-06 DE=-9.59D-10 OVMax= 5.59D-06

 Cycle   8  Pass 1  IDiag  1:
 RMSU=  2.14D-08    CP:  1.00D+00  1.16D+00  9.79D-01  1.27D+00  9.43D-01
                    CP:  1.13D+00  1.29D+00
 FoFJK:  IHMeth= 1 ICntrl=     0 DoSepK=T KAlg= 1 I1Cent= 0 FoldK=F
 E= -2905.43269784407     Delta-E=       -0.000000000072 Rises=F Damp=F
 DIIS: error= 7.94D-08 at cycle   8 NSaved=   8.
 NSaved= 8 IEnMin= 8 EnMin= -2905.43269784407     IErMin= 8 ErrMin= 7.94D-08
 ErrMax= 7.94D-08 EMaxC= 1.00D-01 BMatC= 1.16D-12 BMatP= 4.50D-11
 IDIUse=1 WtCom= 1.00D+00 WtEn= 0.00D+00
 Coeff-Com: -0.120D-05-0.192D-03 0.238D-03 0.335D-02 0.132D-02-0.210D-01
 Coeff-Com: -0.955D-01 0.111D+01
 Coeff:     -0.120D-05-0.192D-03 0.238D-03 0.335D-02 0.132D-02-0.210D-01
 Coeff:     -0.955D-01 0.111D+01
 Gap=     0.434 Goal=   None    Shift=    0.000
 RMSDP=1.52D-08 MaxDP=3.83D-07 DE=-7.23D-11 OVMax= 1.49D-06

 Cycle   9  Pass 1  IDiag  1:
 RMSU=  3.78D-09    CP:  1.00D+00  1.16D+00  9.79D-01  1.27D+00  9.40D-01
                    CP:  1.13D+00  1.36D+00  1.32D+00
 FoFJK:  IHMeth= 1 ICntrl=     0 DoSepK=T KAlg= 1 I1Cent= 0 FoldK=F
 E= -2905.43269784410     Delta-E=       -0.000000000037 Rises=F Damp=F
 DIIS: error= 2.74D-08 at cycle   9 NSaved=   9.
 NSaved= 9 IEnMin= 9 EnMin= -2905.43269784410     IErMin= 9 ErrMin= 2.74D-08
 ErrMax= 2.74D-08 EMaxC= 1.00D-01 BMatC= 1.75D-13 BMatP= 1.16D-12
 IDIUse=1 WtCom= 1.00D+00 WtEn= 0.00D+00
 Coeff-Com:  0.334D-05-0.762D-03 0.103D-03 0.645D-02 0.808D-02-0.366D-02
 Coeff-Com: -0.124D+00 0.160D+00 0.954D+00
 Coeff:      0.334D-05-0.762D-03 0.103D-03 0.645D-02 0.808D-02-0.366D-02
 Coeff:     -0.124D+00 0.160D+00 0.954D+00
 Gap=     0.434 Goal=   None    Shift=    0.000
 RMSDP=4.71D-09 MaxDP=1.24D-07 DE=-3.68D-11 OVMax= 5.56D-07

 SCF Done:  E(RwB97XD) =  -2905.43269784     A.U. after    9 cycles
             Convg  =    0.4706D-08             -V/T =  2.0016
 KE= 2.900874672718D+03 PE=-7.219804143430D+03 EE= 1.272331767781D+03
 Leave Link  502 at Fri Jan 17 14:25:15 2020, MaxMem=  536870912 cpu:     155.2
 (Enter /home/matheus/.gaussian/g09/l108.exe)
 Variable Step   Value    
 -------- ---- -----------
     1       4    6.425069
 Leave Link  108 at Fri Jan 17 14:25:15 2020, MaxMem=  536870912 cpu:       0.0
 (Enter /home/matheus/.gaussian/g09/l202.exe)
 ---------------------------------------------------------------------------------------------------
                            Z-MATRIX (ANGSTROMS AND DEGREES)
   CD    Cent   Atom    N1       Length/X        N2       Alpha/Y        N3        Beta/Z          J
 ---------------------------------------------------------------------------------------------------
      1      1  O        0   0.000000          0.000000          0.725000
      2      2  O        0   0.000000          0.000000         -0.725000
      3      3  H        0   0.459360          0.795635          1.023510
      4      4  H        0   0.000000          0.918721         -1.023510
      5      5  Kr       0   0.000000          3.400000          0.000000
 ---------------------------------------------------------------------------------------------------
[...]
 Coeff:      0.222D-02 0.998D+00
 Gap=     0.432 Goal=   None    Shift=    0.000
 RMSDP=1.77D-06 MaxDP=5.14D-05 DE=-1.23D-06 OVMax= 1.20D-04

 Cycle   3  Pass 1  IDiag  1:
 RMSU=  9.11D-07    CP:  1.00D+00  1.09D+00
 FoFJK:  IHMeth= 1 ICntrl=     0 DoSepK=T KAlg= 1 I1Cent= 0 FoldK=F
 E= -2905.43221454709     Delta-E=       -0.000000054529 Rises=F Damp=F
 DIIS: error= 7.64D-06 at cycle   3 NSaved=   3.
 NSaved= 3 IEnMin= 3 EnMin= -2905.43221454709     IErMin= 3 ErrMin= 7.64D-06
 ErrMax= 7.64D-06 EMaxC= 1.00D-01 BMatC= 6.37D-09 BMatP= 4.33D-08
 IDIUse=1 WtCom= 1.00D+00 WtEn= 0.00D+00
 Coeff-Com: -0.647D-02 0.234D+00 0.772D+00
 Coeff:     -0.647D-02 0.234D+00 0.772D+00
 Gap=     0.432 Goal=   None    Shift=    0.000
 RMSDP=3.69D-07 MaxDP=1.33D-05 DE=-5.45D-08 OVMax= 3.93D-05

 Cycle   4  Pass 1  IDiag  1:
 RMSU=  2.30D-07    CP:  1.00D+00  1.10D+00  1.05D+00
 FoFJK:  IHMeth= 1 ICntrl=     0 DoSepK=T KAlg= 1 I1Cent= 0 FoldK=F
 E= -2905.43221455397     Delta-E=       -0.000000006887 Rises=F Damp=F
 DIIS: error= 1.42D-06 at cycle   4 NSaved=   4.
 NSaved= 4 IEnMin= 4 EnMin= -2905.43221455397     IErMin= 4 ErrMin= 1.42D-06
 ErrMax= 1.42D-06 EMaxC= 1.00D-01 BMatC= 4.33D-10 BMatP= 6.37D-09
 IDIUse=1 WtCom= 1.00D+00 WtEn= 0.00D+00
 Coeff-Com: -0.566D-03-0.410D-01 0.493D-01 0.992D+00
 Coeff:     -0.566D-03-0.410D-01 0.493D-01 0.992D+00
 Gap=     0.432 Goal=   None    Shift=    0.000
 RMSDP=2.05D-07 MaxDP=9.28D-06 DE=-6.89D-09 OVMax= 1.79D-05

 Cycle   5  Pass 1  IDiag  1:
 RMSU=  7.41D-08    CP:  1.00D+00  1.10D+00  1.16D+00  1.28D+00
 FoFJK:  IHMeth= 1 ICntrl=     0 DoSepK=T KAlg= 1 I1Cent= 0 FoldK=F
 E= -2905.43221455469     Delta-E=       -0.000000000717 Rises=F Damp=F
 DIIS: error= 7.74D-07 at cycle   5 NSaved=   5.
 NSaved= 5 IEnMin= 5 EnMin= -2905.43221455469     IErMin= 5 ErrMin= 7.74D-07
 ErrMax= 7.74D-07 EMaxC= 1.00D-01 BMatC= 1.70D-10 BMatP= 4.33D-10
 IDIUse=1 WtCom= 1.00D+00 WtEn= 0.00D+00
 Coeff-Com:  0.542D-03-0.480D-01-0.750D-01 0.456D+00 0.667D+00
 Coeff:      0.542D-03-0.480D-01-0.750D-01 0.456D+00 0.667D+00
 Gap=     0.432 Goal=   None    Shift=    0.000
 RMSDP=6.37D-08 MaxDP=2.96D-06 DE=-7.17D-10 OVMax= 5.29D-06

 Cycle   6  Pass 1  IDiag  1:
 RMSU=  2.37D-08    CP:  1.00D+00  1.10D+00  1.19D+00  1.40D+00  9.42D-01
 FoFJK:  IHMeth= 1 ICntrl=     0 DoSepK=T KAlg= 1 I1Cent= 0 FoldK=F
 E= -2905.43221455484     Delta-E=       -0.000000000152 Rises=F Damp=F
 DIIS: error= 2.36D-07 at cycle   6 NSaved=   6.
 NSaved= 6 IEnMin= 6 EnMin= -2905.43221455484     IErMin= 6 ErrMin= 2.36D-07
 ErrMax= 2.36D-07 EMaxC= 1.00D-01 BMatC= 9.33D-12 BMatP= 1.70D-10
 IDIUse=1 WtCom= 1.00D+00 WtEn= 0.00D+00
 Coeff-Com:  0.222D-03-0.132D-01-0.296D-01 0.916D-01 0.232D+00 0.719D+00
 Coeff:      0.222D-03-0.132D-01-0.296D-01 0.916D-01 0.232D+00 0.719D+00
 Gap=     0.432 Goal=   None    Shift=    0.000
 RMSDP=1.69D-08 MaxDP=7.51D-07 DE=-1.52D-10 OVMax= 1.25D-06

 Cycle   7  Pass 1  IDiag  1:
 RMSU=  7.89D-09    CP:  1.00D+00  1.10D+00  1.20D+00  1.42D+00  1.01D+00
                    CP:  1.09D+00
 FoFJK:  IHMeth= 1 ICntrl=     0 DoSepK=T KAlg= 1 I1Cent= 0 FoldK=F
 E= -2905.43221455485     Delta-E=       -0.000000000010 Rises=F Damp=F
 DIIS: error= 8.50D-08 at cycle   7 NSaved=   7.
 NSaved= 7 IEnMin= 7 EnMin= -2905.43221455485     IErMin= 7 ErrMin= 8.50D-08
 ErrMax= 8.50D-08 EMaxC= 1.00D-01 BMatC= 1.80D-12 BMatP= 9.33D-12
 IDIUse=1 WtCom= 1.00D+00 WtEn= 0.00D+00
 Coeff-Com: -0.271D-04 0.542D-02 0.358D-02-0.640D-01-0.504D-01 0.301D+00
 Coeff-Com:  0.804D+00
 Coeff:     -0.271D-04 0.542D-02 0.358D-02-0.640D-01-0.504D-01 0.301D+00
 Coeff:      0.804D+00
 Gap=     0.432 Goal=   None    Shift=    0.000
 RMSDP=9.04D-09 MaxDP=4.20D-07 DE=-1.00D-11 OVMax= 6.90D-07

 SCF Done:  E(RwB97XD) =  -2905.43221455     A.U. after    7 cycles
             Convg  =    0.9036D-08             -V/T =  2.0016
 KE= 2.900892364548D+03 PE=-7.152654475667D+03 EE= 1.239023452583D+03
 Leave Link  502 at Fri Jan 17 14:34:12 2020, MaxMem=  536870912 cpu:      93.7
 (Enter /home/matheus/.gaussian/g09/l108.exe)
 Variable Step   Value    
 -------- ---- -----------
     1      20    9.448631
 Leave Link  108 at Fri Jan 17 14:34:12 2020, MaxMem=  536870912 cpu:       0.0
 (Enter /home/matheus/.gaussian/g09/l202.exe)
 ---------------------------------------------------------------------------------------------------
                            Z-MATRIX (ANGSTROMS AND DEGREES)
   CD    Cent   Atom    N1       Length/X        N2       Alpha/Y        N3        Beta/Z          J
 ---------------------------------------------------------------------------------------------------
      1      1  O        0   0.000000          0.000000          0.725000
      2      2  O        0   0.000000          0.000000         -0.725000
      3      3  H        0   0.459360          0.795635          1.023510
      4      4  H        0   0.000000          0.918721         -1.023510
      5      5  Kr       0   0.000000          5.000000          0.000000
 ---------------------------------------------------------------------------------------------------
                         Z-Matrix orientation:                         
 ---------------------------------------------------------------------
 Center     Atomic      Atomic             Coordinates (Angstroms)
 Number     Number       Type             X           Y           Z
 ---------------------------------------------------------------------
      1          8           0        0.000000    0.000000    0.725000
      2          8           0        0.000000    0.000000   -0.725000
      3          1           0        0.459360    0.795635    1.023510
      4          1           0        0.000000    0.918721   -1.023510
      5         36           0        0.000000    5.000000    0.000000
 ---------------------------------------------------------------------
                    Distance matrix (angstroms):
                    1          2          3          4          5
     1  O    0.000000
     2  O    1.450000   0.000000
     3  H    0.966000   1.975180   0.000000
     4  H    1.975180   0.966000   2.101537   0.000000
     5  Kr   5.052289   5.052289   4.351467   4.207661   0.000000
 Stoichiometry    H2KrO2
 Framework group  C1[X(H2KrO2)]
 Deg. of freedom     9
 Full point group                 C1      NOp   1
 RotChk:  IX=0 Diff= 9.02D-05
 Largest Abelian subgroup         C1      NOp   1
 Largest concise Abelian subgroup C1      NOp   1
                         Standard orientation:                         
 ---------------------------------------------------------------------
 Center     Atomic      Atomic             Coordinates (Angstroms)
 Number     Number       Type             X           Y           Z
 ---------------------------------------------------------------------
      1          8           0        3.365349   -0.721703   -0.055068
      2          8           0        3.364686    0.726799    0.010824
      3          1           0        2.571729   -1.041290    0.393470
      4          1           0        2.445837    1.024411    0.028109
      5         36           0       -1.634940   -0.000663   -0.001879
 ---------------------------------------------------------------------
 Rotational constants (GHZ):     26.4122995      0.8503233      0.8243287
 Leave Link  202 at Fri Jan 17 14:34:12 2020, MaxMem=  536870912 cpu:       0.0
 (Enter /home/matheus/.gaussian/g09/l301.exe)
 Standard basis: Aug-CC-pVTZ (5D, 7F)
 Ernie: Thresh=  0.10000D-02 Tol=  0.10000D-05 Strict=F.
 Ernie:  38 primitive shells out of 205 were deleted.
 There are   197 symmetry adapted basis functions of A   symmetry.
 Integral buffers will be    131072 words long.
 Raffenetti 2 integral format.
 Two-electron integral symmetry is turned on.
   197 basis functions,   415 primitive gaussians,   229 cartesian basis functions
    27 alpha electrons       27 beta electrons
       nuclear repulsion energy       105.8958042385 Hartrees.
 IExCor= 4639 DFT=T Ex+Corr=wB97XD ExCW=0 ScaHFX=  1.000000
 ScaDFX=  1.000000  1.000000  1.000000  1.000000 ScalE2=  1.000000  1.000000
 IRadAn=      5 IRanWt=     -1 IRanGd=            0 ICorTp=0
  HFx wShort=  0.000000 wLong=  0.330000 cFull=  0.222036 cShort=  0.000000 cLong=  0.777964
  DFx wShort=  0.000000 wLong=  0.330000 cFull=  0.000000 cShort=  0.000000 cLong=  1.000000
 NAtoms=    5 NActive=    5 NUniq=    5 SFac= 1.00D+00 NAtFMM=   60 NAOKFM=F Big=F
 R6Disp: Dispersion energy =        -0.0005189334 Hartrees.
 Nuclear repulsion after empirical dispersion term =      105.8952853051 Hartrees.
 Leave Link  301 at Fri Jan 17 14:34:12 2020, MaxMem=  536870912 cpu:       0.1
 (Enter /home/matheus/.gaussian/g09/l302.exe)
 NPDir=0 NMtPBC=     1 NCelOv=     1 NCel=       1 NClECP=     1 NCelD=      1
         NCelK=      1 NCelE2=     1 NClLst=     1 CellRange=     0.0.
 One-electron integrals computed using PRISM.
 NBasis=   197 RedAO= T  NBF=   197
 NBsUse=   197 1.00D-06 NBFU=   197
 Precomputing XC quadrature grid using
 IXCGrd= 2 IRadAn=           5 IRanWt=          -1 IRanGd=           0 AccXCQ= 0.00D+00.
 NRdTot=     427 NPtTot=      123814 NUsed=      126881 NTot=      126913
 NSgBfM=   228   228   229   229   229 NAtAll=     5     5.
 Leave Link  302 at Fri Jan 17 14:34:12 2020, MaxMem=  536870912 cpu:       0.4
 (Enter /home/matheus/.gaussian/g09/l303.exe)
 DipDrv:  MaxL=1.
 Leave Link  303 at Fri Jan 17 14:34:12 2020, MaxMem=  536870912 cpu:       0.1
 (Enter /home/matheus/.gaussian/g09/l401.exe)
 Initial guess read from the read-write file.
 B after Tr=     0.000000    0.000000    0.000000
         Rot=    1.000000    0.000000    0.000000    0.000000 Ang=   0.00 deg.
 Guess basis will be translated and rotated to current coordinates.
 Initial guess orbital symmetries:
       Occupied  (A) (A) (A) (A) (A) (A) (A) (A) (A) (A) (A) (A)
                 (A) (A) (A) (A) (A) (A) (A) (A) (A) (A) (A) (A)
                 (A) (A) (A)
       Virtual   (A) (A) (A) (A) (A) (A) (A) (A) (A) (A) (A) (A)
                 (A) (A) (A) (A) (A) (A) (A) (A) (A) (A) (A) (A)
                 (A) (A) (A) (A) (A) (A) (A) (A) (A) (A) (A) (A)
                 (A) (A) (A) (A) (A) (A) (A) (A) (A) (A) (A) (A)
                 (A) (A) (A) (A) (A) (A) (A) (A) (A) (A) (A) (A)
                 (A) (A) (A) (A) (A) (A) (A) (A) (A) (A) (A) (A)
                 (A) (A) (A) (A) (A) (A) (A) (A) (A) (A) (A) (A)
                 (A) (A) (A) (A) (A) (A) (A) (A) (A) (A) (A) (A)
                 (A) (A) (A) (A) (A) (A) (A) (A) (A) (A) (A) (A)
                 (A) (A) (A) (A) (A) (A) (A) (A) (A) (A) (A) (A)
                 (A) (A) (A) (A) (A) (A) (A) (A) (A) (A) (A) (A)
                 (A) (A) (A) (A) (A) (A) (A) (A) (A) (A) (A) (A)
                 (A) (A) (A) (A) (A) (A) (A) (A) (A) (A) (A) (A)
                 (A) (A) (A) (A) (A) (A) (A) (A) (A) (A) (A) (A)
                 (A) (A)
 The electronic state of the initial guess is 1-A.
 Generating alternative initial guess.
 Harris functional with IExCor= 4639 diagonalized for initial guess.
 ExpMin= 2.53D-02 ExpMax= 1.17D+07 ExpMxC= 1.33D+04 IAcc=3 IRadAn=         5 AccDes= 0.00D+00
 HarFok:  IExCor= 4639 AccDes= 0.00D+00 IRadAn=         5 IDoV= 1
 ScaDFX=  1.000000  1.000000  1.000000  1.000000
 FoFCou: FMM=F IPFlag=           0 FMFlag=      100000 FMFlg1=           0
         NFxFlg=           0 DoJE=T BraDBF=F KetDBF=T FulRan=T
         Omega=  0.000000  0.000000  1.000000  0.000000  0.000000 ICntrl=     500 IOpCl=  0
         NMat0=    1 NMatS0=    1 NMatT0=    0 NMatD0=    1 NMtDS0=    0 NMtDT0=    0
         I1Cent=           4 NGrid=           0.
 Petite list used in FoFCou.
 Harris En= -2873.73540109155    
 Leave Link  401 at Fri Jan 17 14:34:13 2020, MaxMem=  536870912 cpu:       2.5
 (Enter /home/matheus/.gaussian/g09/l502.exe)
 Closed shell SCF:
 Requested convergence on RMS density matrix=1.00D-08 within 128 cycles.
 Requested convergence on MAX density matrix=1.00D-06.
 Requested convergence on             energy=1.00D-06.
 No special actions if energy rises.
 Using DIIS extrapolation, IDIIS=  1040.
 Integral symmetry usage will be decided dynamically.
       126823 words used for storage of precomputed grid.
 IEnd=      305312 IEndB=      305312 NGot=   536870912 MDV=   536634911
 LenX=   536634911 LenY=   536582029
 Fock matrices will be formed incrementally for  20 cycles.

 Cycle   1  Pass 1  IDiag  1:
 FoFJK:  IHMeth= 1 ICntrl=     0 DoSepK=T KAlg= 1 I1Cent= 0 FoldK=F
 FoFCou: FMM=F IPFlag=           0 FMFlag=      100000 FMFlg1=           0
         NFxFlg=           0 DoJE=T BraDBF=F KetDBF=F FulRan=T
         Omega=  0.000000  0.000000  1.000000  0.000000  0.000000 ICntrl=     500 IOpCl=  0
         NMat0=    1 NMatS0=    1 NMatT0=    0 NMatD0=    1 NMtDS0=    0 NMtDT0=    0
         I1Cent=           0 NGrid=           0.
 Symmetry not used in FoFCou.
 E= -2905.43214041009    
 DIIS: error= 1.42D-04 at cycle   1 NSaved=   1.
 NSaved= 1 IEnMin= 1 EnMin= -2905.43214041009     IErMin= 1 ErrMin= 1.42D-04
 ErrMax= 1.42D-04 EMaxC= 1.00D-01 BMatC= 3.80D-06 BMatP= 3.80D-06
 IDIUse=3 WtCom= 9.99D-01 WtEn= 1.42D-03
 Coeff-Com:  0.100D+01
 Coeff-En:   0.100D+01
 Coeff:      0.100D+01
 Gap=     0.432 Goal=   None    Shift=    0.000
 RMSDP=1.18D-05 MaxDP=2.69D-04              OVMax= 5.08D-04

 Cycle   2  Pass 1  IDiag  1:
 RMSU=  8.31D-06    CP:  1.00D+00
 FoFJK:  IHMeth= 1 ICntrl=     0 DoSepK=T KAlg= 1 I1Cent= 0 FoldK=F
 E= -2905.43214144045     Delta-E=       -0.000001030357 Rises=F Damp=F
 DIIS: error= 1.92D-05 at cycle   2 NSaved=   2.
 NSaved= 2 IEnMin= 2 EnMin= -2905.43214144045     IErMin= 2 ErrMin= 1.92D-05
 ErrMax= 1.92D-05 EMaxC= 1.00D-01 BMatC= 3.63D-08 BMatP= 3.80D-06
 IDIUse=1 WtCom= 1.00D+00 WtEn= 0.00D+00
 Coeff-Com:  0.265D-02 0.997D+00
 Coeff:      0.265D-02 0.997D+00
 Gap=     0.431 Goal=   None    Shift=    0.000
 RMSDP=1.54D-06 MaxDP=4.47D-05 DE=-1.03D-06 OVMax= 1.09D-04

 Cycle   3  Pass 1  IDiag  1:
 RMSU=  8.46D-07    CP:  1.00D+00  1.08D+00
 FoFJK:  IHMeth= 1 ICntrl=     0 DoSepK=T KAlg= 1 I1Cent= 0 FoldK=F
 E= -2905.43214148510     Delta-E=       -0.000000044649 Rises=F Damp=F
 DIIS: error= 7.34D-06 at cycle   3 NSaved=   3.
 NSaved= 3 IEnMin= 3 EnMin= -2905.43214148510     IErMin= 3 ErrMin= 7.34D-06
 ErrMax= 7.34D-06 EMaxC= 1.00D-01 BMatC= 5.35D-09 BMatP= 3.63D-08
 IDIUse=1 WtCom= 1.00D+00 WtEn= 0.00D+00
 Coeff-Com: -0.608D-02 0.237D+00 0.769D+00
 Coeff:     -0.608D-02 0.237D+00 0.769D+00
 Gap=     0.431 Goal=   None    Shift=    0.000
 RMSDP=3.33D-07 MaxDP=1.18D-05 DE=-4.46D-08 OVMax= 3.52D-05

 Cycle   4  Pass 1  IDiag  1:
 RMSU=  2.08D-07    CP:  1.00D+00  1.09D+00  1.05D+00
 FoFJK:  IHMeth= 1 ICntrl=     0 DoSepK=T KAlg= 1 I1Cent= 0 FoldK=F
 E= -2905.43214149080     Delta-E=       -0.000000005698 Rises=F Damp=F
 DIIS: error= 1.31D-06 at cycle   4 NSaved=   4.
 NSaved= 4 IEnMin= 4 EnMin= -2905.43214149080     IErMin= 4 ErrMin= 1.31D-06
 ErrMax= 1.31D-06 EMaxC= 1.00D-01 BMatC= 3.35D-10 BMatP= 5.35D-09
 IDIUse=1 WtCom= 1.00D+00 WtEn= 0.00D+00
 Coeff-Com: -0.493D-03-0.410D-01 0.415D-01 0.100D+01
 Coeff:     -0.493D-03-0.410D-01 0.415D-01 0.100D+01
 Gap=     0.431 Goal=   None    Shift=    0.000
 RMSDP=1.92D-07 MaxDP=8.41D-06 DE=-5.70D-09 OVMax= 1.59D-05

 Cycle   5  Pass 1  IDiag  1:
 RMSU=  6.70D-08    CP:  1.00D+00  1.10D+00  1.16D+00  1.30D+00
 FoFJK:  IHMeth= 1 ICntrl=     0 DoSepK=T KAlg= 1 I1Cent= 0 FoldK=F
 E= -2905.43214149137     Delta-E=       -0.000000000569 Rises=F Damp=F
 DIIS: error= 5.94D-07 at cycle   5 NSaved=   5.
 NSaved= 5 IEnMin= 5 EnMin= -2905.43214149137     IErMin= 5 ErrMin= 5.94D-07
 ErrMax= 5.94D-07 EMaxC= 1.00D-01 BMatC= 1.22D-10 BMatP= 3.35D-10
 IDIUse=1 WtCom= 1.00D+00 WtEn= 0.00D+00
 Coeff-Com:  0.509D-03-0.465D-01-0.752D-01 0.443D+00 0.678D+00
 Coeff:      0.509D-03-0.465D-01-0.752D-01 0.443D+00 0.678D+00
 Gap=     0.431 Goal=   None    Shift=    0.000
 RMSDP=5.70D-08 MaxDP=2.67D-06 DE=-5.69D-10 OVMax= 4.65D-06

 Cycle   6  Pass 1  IDiag  1:
 RMSU=  2.20D-08    CP:  1.00D+00  1.10D+00  1.19D+00  1.42D+00  9.68D-01
 FoFJK:  IHMeth= 1 ICntrl=     0 DoSepK=T KAlg= 1 I1Cent= 0 FoldK=F
 E= -2905.43214149148     Delta-E=       -0.000000000110 Rises=F Damp=F
 DIIS: error= 2.03D-07 at cycle   6 NSaved=   6.
 NSaved= 6 IEnMin= 6 EnMin= -2905.43214149148     IErMin= 6 ErrMin= 2.03D-07
 ErrMax= 2.03D-07 EMaxC= 1.00D-01 BMatC= 6.67D-12 BMatP= 1.22D-10
 IDIUse=1 WtCom= 1.00D+00 WtEn= 0.00D+00
 Coeff-Com:  0.195D-03-0.118D-01-0.276D-01 0.792D-01 0.222D+00 0.738D+00
 Coeff:      0.195D-03-0.118D-01-0.276D-01 0.792D-01 0.222D+00 0.738D+00
 Gap=     0.431 Goal=   None    Shift=    0.000
 RMSDP=1.53D-08 MaxDP=6.99D-07 DE=-1.10D-10 OVMax= 1.12D-06

 Cycle   7  Pass 1  IDiag  1:
 RMSU=  6.86D-09    CP:  1.00D+00  1.10D+00  1.19D+00  1.44D+00  1.04D+00
                    CP:  1.12D+00
 FoFJK:  IHMeth= 1 ICntrl=     0 DoSepK=T KAlg= 1 I1Cent= 0 FoldK=F
 E= -2905.43214149147     Delta-E=        0.000000000006 Rises=F Damp=F
 DIIS: error= 8.82D-08 at cycle   7 NSaved=   7.
 NSaved= 7 IEnMin= 6 EnMin= -2905.43214149148     IErMin= 7 ErrMin= 8.82D-08
 ErrMax= 8.82D-08 EMaxC= 1.00D-01 BMatC= 1.62D-12 BMatP= 6.67D-12
 IDIUse=1 WtCom= 1.00D+00 WtEn= 0.00D+00
 Coeff-Com: -0.256D-04 0.539D-02 0.378D-02-0.652D-01-0.517D-01 0.338D+00
 Coeff-Com:  0.770D+00
 Coeff:     -0.256D-04 0.539D-02 0.378D-02-0.652D-01-0.517D-01 0.338D+00
 Coeff:      0.770D+00
 Gap=     0.431 Goal=   None    Shift=    0.000
 RMSDP=7.91D-09 MaxDP=3.78D-07 DE= 6.37D-12 OVMax= 5.97D-07

 SCF Done:  E(RwB97XD) =  -2905.43214149     A.U. after    7 cycles
             Convg  =    0.7914D-08             -V/T =  2.0016
 KE= 2.900893003008D+03 PE=-7.149853648112D+03 EE= 1.237633218308D+03
 Leave Link  502 at Fri Jan 17 14:34:36 2020, MaxMem=  536870912 cpu:      92.2
 (Enter /home/matheus/.gaussian/g09/l108.exe)
 Scan completed.

 Summary of the potential surface scan:
   N      R1          SCF    
 ----  ---------  -----------
    1     3.0000  -2905.42771
    2     3.1000  -2905.43010
    3     3.2000  -2905.43168
    4     3.3000  -2905.43270
    5     3.4000  -2905.43331
    6     3.5000  -2905.43364
    7     3.6000  -2905.43378
    8     3.7000  -2905.43379
    9     3.8000  -2905.43372
   10     3.9000  -2905.43359
   11     4.0000  -2905.43343
   12     4.1000  -2905.43326
   13     4.2000  -2905.43309
   14     4.3000  -2905.43292
   15     4.4000  -2905.43277
   16     4.5000  -2905.43263
   17     4.6000  -2905.43251
   18     4.7000  -2905.43239
   19     4.8000  -2905.43230
   20     4.9000  -2905.43221
   21     5.0000  -2905.43214
 ----  ---------  -----------
  
 Leave Link  108 at Fri Jan 17 14:34:36 2020, MaxMem=  536870912 cpu:       0.0
 (Enter /home/matheus/.gaussian/g09/l9999.exe)

 Test job not archived.
 1\1\GINC-REDGIANT\Scan\RwB97XD\Aug-CC-pVTZ\H2Kr1O2\ROOT\17-Jan-2020\1\
 \#p wb97xd/aug-cc-PVTz iop(3/107=0330000000) iop(3/108=0330000000) int
 =ultrafine Scan\\PTCC\\0,1\O,0,0.,0.,0.725\O,0,0.,0.,-0.725\H,0,0.4593
 602974,0.795635374,1.0235104166\H,0,0.,0.9187205947,-1.0235104166\Kr,0
 ,0.,R1,0.\\R1=3.,s,20,0.1\\Version=EM64L-G09RevC.01\State=1-A\HF=-2905
 .4277061,-2905.4301035,-2905.4316833,-2905.4326978,-2905.4333105,-2905
 .4336446,-2905.4337829,-2905.4337922,-2905.4337172,-2905.4335886,-2905
 .433429,-2905.4332581,-2905.4330874,-2905.4329207,-2905.4327691,-2905.
 4326303,-2905.432505,-2905.4323946,-2905.4322988,-2905.4322146,-2905.4
 321415\RMSD=8.315e-09,2.944e-09,7.362e-09,4.706e-09,3.047e-09,2.547e-0
 9,2.566e-09,8.455e-09,6.935e-09,6.077e-09,5.011e-09,4.376e-09,3.722e-0
 9,3.003e-09,2.512e-09,2.186e-09,1.832e-09,1.710e-09,1.651e-09,9.036e-0
 9,7.914e-09\PG=C01 [X(H2Kr1O2)]\\@


 TRUTH, IN SCIENCE, CAN BE DEFINED AS THE WORKING HYPOTHESIS 
 BEST FITTED TO OPEN THE WAY TO THE NEXT BETTER ONE.

                              -- KONRAD LORENZ
 Job cpu time:  0 days  0 hours 49 minutes 29.2 seconds.
 File lengths (MBytes):  RWF=     27 Int=      0 D2E=      0 Chk=      4 Scr=      1
 Normal termination of Gaussian 09 at Fri Jan 17 14:34:36 2020.
