 Entering Gaussian System, Link 0=g09
 Input=/home/matheus/.tcc/Inputs-DFT/H2O2-Kr_1.com
 Output=/home/matheus/.tcc/Inputs-DFT/H2O2-Kr_1.log
 Initial command:
 /home/matheus/.gaussian/g09/l1.exe /home/matheus/.gaussian/g09/scratch/Gau-30407.inp -scrdir=/home/matheus/.gaussian/g09/scratch/
 Entering Link 1 = /home/matheus/.gaussian/g09/l1.exe PID=     30409.
  
 Copyright (c) 1988,1990,1992,1993,1995,1998,2003,2009,2011,
            Gaussian, Inc.  All Rights Reserved.
  
 This is part of the Gaussian(R) 09 program.  It is based on
 the Gaussian(R) 03 system (copyright 2003, Gaussian, Inc.),
 the Gaussian(R) 98 system (copyright 1998, Gaussian, Inc.),
 the Gaussian(R) 94 system (copyright 1995, Gaussian, Inc.),
 the Gaussian 92(TM) system (copyright 1992, Gaussian, Inc.),
 the Gaussian 90(TM) system (copyright 1990, Gaussian, Inc.),
 the Gaussian 88(TM) system (copyright 1988, Gaussian, Inc.),
 the Gaussian 86(TM) system (copyright 1986, Carnegie Mellon
 University), and the Gaussian 82(TM) system (copyright 1983,
 Carnegie Mellon University). Gaussian is a federally registered
 trademark of Gaussian, Inc.
  
 This software contains proprietary and confidential information,
 including trade secrets, belonging to Gaussian, Inc.
  
 This software is provided under written license and may be
 used, copied, transmitted, or stored only in accord with that
 written license.
  
 The following legend is applicable only to US Government
 contracts under FAR:
  
                    RESTRICTED RIGHTS LEGEND
  
 Use, reproduction and disclosure by the US Government is
 subject to restrictions as set forth in subparagraphs (a)
 and (c) of the Commercial Computer Software - Restricted
 Rights clause in FAR 52.227-19.
  
 Gaussian, Inc.
 340 Quinnipiac St., Bldg. 40, Wallingford CT 06492
  
  
 ---------------------------------------------------------------
 Warning -- This program may not be used in any manner that
 competes with the business of Gaussian, Inc. or will provide
 assistance to any competitor of Gaussian, Inc.  The licensee
 of this program is prohibited from giving any competitor of
 Gaussian, Inc. access to this program.  By using this program,
 the user acknowledges that Gaussian, Inc. is engaged in the
 business of creating and licensing software in the field of
 computational chemistry and represents and warrants to the
 licensee that it is not a competitor of Gaussian, Inc. and that
 it will not use this program in any manner prohibited above.
 ---------------------------------------------------------------
  

 Cite this work as:
 Gaussian 09, Revision C.01,
 M. J. Frisch, G. W. Trucks, H. B. Schlegel, G. E. Scuseria, 
 M. A. Robb, J. R. Cheeseman, G. Scalmani, V. Barone, B. Mennucci, 
 G. A. Petersson, H. Nakatsuji, M. Caricato, X. Li, H. P. Hratchian, 
 A. F. Izmaylov, J. Bloino, G. Zheng, J. L. Sonnenberg, M. Hada, 
 M. Ehara, K. Toyota, R. Fukuda, J. Hasegawa, M. Ishida, T. Nakajima, 
 Y. Honda, O. Kitao, H. Nakai, T. Vreven, J. A. Montgomery, Jr., 
 J. E. Peralta, F. Ogliaro, M. Bearpark, J. J. Heyd, E. Brothers, 
 K. N. Kudin, V. N. Staroverov, T. Keith, R. Kobayashi, J. Normand, 
 K. Raghavachari, A. Rendell, J. C. Burant, S. S. Iyengar, J. Tomasi, 
 M. Cossi, N. Rega, J. M. Millam, M. Klene, J. E. Knox, J. B. Cross, 
 V. Bakken, C. Adamo, J. Jaramillo, R. Gomperts, R. E. Stratmann, 
 O. Yazyev, A. J. Austin, R. Cammi, C. Pomelli, J. W. Ochterski, 
 R. L. Martin, K. Morokuma, V. G. Zakrzewski, G. A. Voth, 
 P. Salvador, J. J. Dannenberg, S. Dapprich, A. D. Daniels, 
 O. Farkas, J. B. Foresman, J. V. Ortiz, J. Cioslowski, 
 and D. J. Fox, Gaussian, Inc., Wallingford CT, 2010.
 
 ******************************************
 Gaussian 09:  EM64L-G09RevC.01 23-Sep-2011
                17-Jan-2020 
 ******************************************
 %mem=4GB
 %nproc=4
 Will use up to    4 processors via shared memory.
 ----------------------------------------------------------------------
 #p wb97xd/aug-cc-PVTz iop(3/107=0330000000) iop(3/108=0330000000) int=
 ultrafine Scan
 ----------------------------------------------------------------------
 1/38=1,60=1/1,8;
 2/12=2,17=6,18=5,29=3,40=1/2;
 3/5=16,6=1,7=10,11=2,16=1,25=1,30=1,74=-58,75=-5,107=330000000,108=330000000/1,2,3;
 4//1;
 5/5=2,38=5/2;
 6/7=2,8=2,9=2,10=2,18=1,28=1/1;
 1/60=1/8(1);
 99/9=1/99;
 2/29=3/2;
 3/5=16,6=1,7=10,11=2,16=1,25=1,30=1,74=-58,75=-5,107=330000000,108=330000000/1,2,3;
 4/5=5,16=3/1;
 5/5=2,38=5/2;
 1/60=1/8(-4);
 99/9=1/99;
 Leave Link    1 at Fri Jan 17 13:59:20 2020, MaxMem=  536870912 cpu:       0.0
 (Enter /home/matheus/.gaussian/g09/l101.exe)
 ----
 PTCC
 ----
 Charge =  0 Multiplicity = 1
 Symbolic Z-Matrix:
 O                     0.        0.        0.725 
 O                     0.        0.       -0.725 
 H                     0.15953   0.90476   1.02351 
 H                     0.        0.91872  -1.02351 
 Kr                    0.       R1        0. 
       Variables:
  R1                    3.     Scan 20    0.1    
 
 NAtoms=      5 NQM=        0 NQMF=       0 NMMI=      5 NMMIF=      0
                NMic=       0 NMicF=      0.
                    Isotopes and Nuclear Properties:
 (Nuclear quadrupole moments (NQMom) in fm**2, nuclear magnetic moments (NMagM)
  in nuclear magnetons)

  Atom         1           2           3           4           5
 IAtWgt=          16          16           1           1          84
 AtmWgt=  15.9949146  15.9949146   1.0078250   1.0078250  83.9115064
 NucSpn=           0           0           1           1           0
 AtZEff=   0.0000000   0.0000000   0.0000000   0.0000000   0.0000000
 NQMom=    0.0000000   0.0000000   0.0000000   0.0000000   0.0000000
 NMagM=    0.0000000   0.0000000   2.7928460   2.7928460   0.0000000
 Leave Link  101 at Fri Jan 17 13:59:20 2020, MaxMem=  536870912 cpu:       0.1
 (Enter /home/matheus/.gaussian/g09/l108.exe)
 Scan the potential surface.
 Variable   Value     No. Steps Step-Size
 -------- ----------- --------- ---------
     1       3.000000      20      0.1000
 A total of     21 points will be computed.
 Leave Link  108 at Fri Jan 17 13:59:20 2020, MaxMem=  536870912 cpu:       0.0
 (Enter /home/matheus/.gaussian/g09/l202.exe)
 ---------------------------------------------------------------------------------------------------
                            Z-MATRIX (ANGSTROMS AND DEGREES)
   CD    Cent   Atom    N1       Length/X        N2       Alpha/Y        N3        Beta/Z          J
 ---------------------------------------------------------------------------------------------------
      1      1  O        0   0.000000          0.000000          0.725000
      2      2  O        0   0.000000          0.000000         -0.725000
      3      3  H        0   0.159534          0.904763          1.023510
      4      4  H        0   0.000000          0.918721         -1.023510
      5      5  Kr       0   0.000000          3.000000          0.000000
 ---------------------------------------------------------------------------------------------------
                         Z-Matrix orientation:                         
 ---------------------------------------------------------------------
 Center     Atomic      Atomic             Coordinates (Angstroms)
 Number     Number       Type             X           Y           Z
 ---------------------------------------------------------------------
      1          8           0        0.000000    0.000000    0.725000
      2          8           0        0.000000    0.000000   -0.725000
      3          1           0        0.159534    0.904763    1.023510
      4          1           0        0.000000    0.918721   -1.023510
      5         36           0        0.000000    3.000000    0.000000
 ---------------------------------------------------------------------
                    Distance matrix (angstroms):
                    1          2          3          4          5
     1  O    0.000000
     2  O    1.450000   0.000000
     3  H    0.966000   1.975180   0.000000
     4  H    1.975180   0.966000   2.053275   0.000000
     5  Kr   3.086361   3.086361   2.337315   2.319331   0.000000
 Stoichiometry    H2KrO2
 Framework group  C1[X(H2KrO2)]
 Deg. of freedom     9
 Full point group                 C1      NOp   1
 Largest Abelian subgroup         C1      NOp   1
 Largest concise Abelian subgroup C1      NOp   1
                         Standard orientation:                         
 ---------------------------------------------------------------------
 Center     Atomic      Atomic             Coordinates (Angstroms)
 Number     Number       Type             X           Y           Z
 ---------------------------------------------------------------------
      1          8           0        2.033875   -0.724487   -0.017820
      2          8           0        2.033645    0.725337    0.004759
      3          1           0        1.129442   -1.025614    0.138637
      4          1           0        1.114878    1.023640    0.011023
      5         36           0       -0.966235   -0.000134   -0.001255
 ---------------------------------------------------------------------
 Rotational constants (GHZ):     26.6670558      2.3882151      2.1923671
 Leave Link  202 at Fri Jan 17 13:59:20 2020, MaxMem=  536870912 cpu:       0.0
 (Enter /home/matheus/.gaussian/g09/l301.exe)
 Standard basis: Aug-CC-pVTZ (5D, 7F)
 Ernie: Thresh=  0.10000D-02 Tol=  0.10000D-05 Strict=F.
 Ernie:  38 primitive shells out of 205 were deleted.
 There are   197 symmetry adapted basis functions of A   symmetry.
 Integral buffers will be    131072 words long.
 Raffenetti 2 integral format.
 Two-electron integral symmetry is turned on.
   197 basis functions,   415 primitive gaussians,   229 cartesian basis functions
    27 alpha electrons       27 beta electrons
       nuclear repulsion energy       151.7892858201 Hartrees.
 IExCor= 4639 DFT=T Ex+Corr=wB97XD ExCW=0 ScaHFX=  1.000000
 ScaDFX=  1.000000  1.000000  1.000000  1.000000 ScalE2=  1.000000  1.000000
 IRadAn=      5 IRanWt=     -1 IRanGd=            0 ICorTp=0
  HFx wShort=  0.000000 wLong=  0.330000 cFull=  0.222036 cShort=  0.000000 cLong=  0.777964
  DFx wShort=  0.000000 wLong=  0.330000 cFull=  0.000000 cShort=  0.000000 cLong=  1.000000
 NAtoms=    5 NActive=    5 NUniq=    5 SFac= 1.00D+00 NAtFMM=   60 NAOKFM=F Big=F
 R6Disp: Dispersion energy =        -0.0007570347 Hartrees.
 Nuclear repulsion after empirical dispersion term =      151.7885287854 Hartrees.
 Leave Link  301 at Fri Jan 17 13:59:20 2020, MaxMem=  536870912 cpu:       0.1
 (Enter /home/matheus/.gaussian/g09/l302.exe)
 NPDir=0 NMtPBC=     1 NCelOv=     1 NCel=       1 NClECP=     1 NCelD=      1
         NCelK=      1 NCelE2=     1 NClLst=     1 CellRange=     0.0.
 One-electron integrals computed using PRISM.
 NBasis=   197 RedAO= T  NBF=   197
 NBsUse=   197 1.00D-06 NBFU=   197
 Precomputing XC quadrature grid using
 IXCGrd= 2 IRadAn=           5 IRanWt=          -1 IRanGd=           0 AccXCQ= 0.00D+00.
 NRdTot=     427 NPtTot=      123512 NUsed=      126579 NTot=      126611
 NSgBfM=   229   229   229   229   229 NAtAll=     5     5.
 Leave Link  302 at Fri Jan 17 13:59:20 2020, MaxMem=  536870912 cpu:       0.4
 (Enter /home/matheus/.gaussian/g09/l303.exe)
 DipDrv:  MaxL=1.
 Leave Link  303 at Fri Jan 17 13:59:20 2020, MaxMem=  536870912 cpu:       0.1
 (Enter /home/matheus/.gaussian/g09/l401.exe)
 Harris functional with IExCor= 4639 diagonalized for initial guess.
 ExpMin= 2.53D-02 ExpMax= 1.17D+07 ExpMxC= 1.33D+04 IAcc=3 IRadAn=         5 AccDes= 0.00D+00
 HarFok:  IExCor= 4639 AccDes= 0.00D+00 IRadAn=         5 IDoV= 1
 ScaDFX=  1.000000  1.000000  1.000000  1.000000
 FoFCou: FMM=F IPFlag=           0 FMFlag=      100000 FMFlg1=           0
         NFxFlg=           0 DoJE=T BraDBF=F KetDBF=T FulRan=T
         Omega=  0.000000  0.000000  1.000000  0.000000  0.000000 ICntrl=     500 IOpCl=  0
         NMat0=    1 NMatS0=    1 NMatT0=    0 NMatD0=    1 NMtDS0=    0 NMtDT0=    0
         I1Cent=           4 NGrid=           0.
 Petite list used in FoFCou.
 Harris En= -2873.71844682625    
 Initial guess orbital symmetries:
       Occupied  (A) (A) (A) (A) (A) (A) (A) (A) (A) (A) (A) (A)
                 (A) (A) (A) (A) (A) (A) (A) (A) (A) (A) (A) (A)
                 (A) (A) (A)
       Virtual   (A) (A) (A) (A) (A) (A) (A) (A) (A) (A) (A) (A)
                 (A) (A) (A) (A) (A) (A) (A) (A) (A) (A) (A) (A)
                 (A) (A) (A) (A) (A) (A) (A) (A) (A) (A) (A) (A)
                 (A) (A) (A) (A) (A) (A) (A) (A) (A) (A) (A) (A)
                 (A) (A) (A) (A) (A) (A) (A) (A) (A) (A) (A) (A)
                 (A) (A) (A) (A) (A) (A) (A) (A) (A) (A) (A) (A)
                 (A) (A) (A) (A) (A) (A) (A) (A) (A) (A) (A) (A)
                 (A) (A) (A) (A) (A) (A) (A) (A) (A) (A) (A) (A)
                 (A) (A) (A) (A) (A) (A) (A) (A) (A) (A) (A) (A)
                 (A) (A) (A) (A) (A) (A) (A) (A) (A) (A) (A) (A)
                 (A) (A) (A) (A) (A) (A) (A) (A) (A) (A) (A) (A)
                 (A) (A) (A) (A) (A) (A) (A) (A) (A) (A) (A) (A)
                 (A) (A) (A) (A) (A) (A) (A) (A) (A) (A) (A) (A)
                 (A) (A) (A) (A) (A) (A) (A) (A) (A) (A) (A) (A)
                 (A) (A)
 The electronic state of the initial guess is 1-A.
 Leave Link  401 at Fri Jan 17 13:59:20 2020, MaxMem=  536870912 cpu:       2.6
 (Enter /home/matheus/.gaussian/g09/l502.exe)
 Closed shell SCF:
 Requested convergence on RMS density matrix=1.00D-08 within 128 cycles.
 Requested convergence on MAX density matrix=1.00D-06.
 Requested convergence on             energy=1.00D-06.
 No special actions if energy rises.
 Using DIIS extrapolation, IDIIS=  1040.
 Integral symmetry usage will be decided dynamically.
       126521 words used for storage of precomputed grid.
 IEnd=      305010 IEndB=      305010 NGot=   536870912 MDV=   536635213
 LenX=   536635213 LenY=   536582331
 Fock matrices will be formed incrementally for  20 cycles.

 Cycle   1  Pass 1  IDiag  1:
 FoFJK:  IHMeth= 1 ICntrl=     0 DoSepK=T KAlg= 1 I1Cent= 0 FoldK=F
 FoFCou: FMM=F IPFlag=           0 FMFlag=      100000 FMFlg1=           0
         NFxFlg=           0 DoJE=T BraDBF=F KetDBF=F FulRan=T
         Omega=  0.000000  0.000000  1.000000  0.000000  0.000000 ICntrl=     500 IOpCl=  0
         NMat0=    1 NMatS0=    1 NMatT0=    0 NMatD0=    1 NMtDS0=    0 NMtDT0=    0
         I1Cent=           0 NGrid=           0.
 Symmetry not used in FoFCou.
 E= -2904.82714693465    
 DIIS: error= 9.68D-02 at cycle   1 NSaved=   1.
 NSaved= 1 IEnMin= 1 EnMin= -2904.82714693465     IErMin= 1 ErrMin= 9.68D-02
 ErrMax= 9.68D-02 EMaxC= 1.00D-01 BMatC= 2.34D+00 BMatP= 2.34D+00
 IDIUse=3 WtCom= 3.20D-02 WtEn= 9.68D-01
 Coeff-Com:  0.100D+01
 Coeff-En:   0.100D+01
 Coeff:      0.100D+01
 Gap=     0.564 Goal=   None    Shift=    0.000
 GapD=    0.564 DampG=2.000 DampE=0.500 DampFc=1.0000 IDamp=-1.
 RMSDP=6.57D-03 MaxDP=3.79D-01              OVMax= 2.01D-01

 Cycle   2  Pass 1  IDiag  1:
 RMSU=  4.62D-03    CP:  1.02D+00
 FoFJK:  IHMeth= 1 ICntrl=     0 DoSepK=T KAlg= 1 I1Cent= 0 FoldK=F
 E= -2905.21339144847     Delta-E=       -0.386244513822 Rises=F Damp=F
 DIIS: error= 3.68D-02 at cycle   2 NSaved=   2.
 NSaved= 2 IEnMin= 2 EnMin= -2905.21339144847     IErMin= 2 ErrMin= 3.68D-02
 ErrMax= 3.68D-02 EMaxC= 1.00D-01 BMatC= 5.86D-01 BMatP= 2.34D+00
 IDIUse=3 WtCom= 6.32D-01 WtEn= 3.68D-01
 Coeff-Com:  0.326D+00 0.674D+00
 Coeff-En:   0.158D+00 0.842D+00
 Coeff:      0.264D+00 0.736D+00
 Gap=     0.512 Goal=   None    Shift=    0.000
 RMSDP=2.87D-03 MaxDP=1.67D-01 DE=-3.86D-01 OVMax= 7.52D-02

 Cycle   3  Pass 1  IDiag  1:
 RMSU=  6.77D-04    CP:  1.02D+00  5.87D-01
 FoFJK:  IHMeth= 1 ICntrl=     0 DoSepK=T KAlg= 1 I1Cent= 0 FoldK=F
 E= -2905.41412453299     Delta-E=       -0.200733084526 Rises=F Damp=F
 DIIS: error= 9.95D-03 at cycle   3 NSaved=   3.
 NSaved= 3 IEnMin= 3 EnMin= -2905.41412453299     IErMin= 3 ErrMin= 9.95D-03
 ErrMax= 9.95D-03 EMaxC= 1.00D-01 BMatC= 2.29D-02 BMatP= 5.86D-01
 IDIUse=3 WtCom= 9.01D-01 WtEn= 9.95D-02
 Coeff-Com:  0.271D-01 0.193D+00 0.780D+00
 Coeff-En:   0.000D+00 0.000D+00 0.100D+01
 Coeff:      0.244D-01 0.174D+00 0.802D+00
 Gap=     0.444 Goal=   None    Shift=    0.000
 RMSDP=5.63D-04 MaxDP=1.69D-02 DE=-2.01D-01 OVMax= 2.91D-02

 Cycle   4  Pass 1  IDiag  1:
 RMSU=  2.51D-04    CP:  1.02D+00  6.53D-01  9.44D-01
 FoFJK:  IHMeth= 1 ICntrl=     0 DoSepK=T KAlg= 1 I1Cent= 0 FoldK=F
 E= -2905.42429772083     Delta-E=       -0.010173187838 Rises=F Damp=F
 DIIS: error= 3.21D-03 at cycle   4 NSaved=   4.
 NSaved= 4 IEnMin= 4 EnMin= -2905.42429772083     IErMin= 4 ErrMin= 3.21D-03
 ErrMax= 3.21D-03 EMaxC= 1.00D-01 BMatC= 1.74D-03 BMatP= 2.29D-02
 IDIUse=3 WtCom= 9.68D-01 WtEn= 3.21D-02
 Coeff-Com: -0.583D-02 0.445D-01 0.359D+00 0.602D+00
 Coeff-En:   0.000D+00 0.000D+00 0.000D+00 0.100D+01
 Coeff:     -0.564D-02 0.431D-01 0.348D+00 0.615D+00
 Gap=     0.427 Goal=   None    Shift=    0.000
 RMSDP=1.25D-04 MaxDP=5.49D-03 DE=-1.02D-02 OVMax= 7.26D-03

 Cycle   5  Pass 1  IDiag  1:
 RMSU=  4.81D-05    CP:  1.02D+00  6.50D-01  9.93D-01  7.44D-01
 FoFJK:  IHMeth= 1 ICntrl=     0 DoSepK=T KAlg= 1 I1Cent= 0 FoldK=F
 E= -2905.42538047500     Delta-E=       -0.001082754167 Rises=F Damp=F
 DIIS: error= 1.56D-04 at cycle   5 NSaved=   5.
 NSaved= 5 IEnMin= 5 EnMin= -2905.42538047500     IErMin= 5 ErrMin= 1.56D-04
 ErrMax= 1.56D-04 EMaxC= 1.00D-01 BMatC= 6.18D-06 BMatP= 1.74D-03
 IDIUse=3 WtCom= 9.98D-01 WtEn= 1.56D-03
 Coeff-Com: -0.403D-03-0.831D-02-0.404D-01-0.350D-01 0.108D+01
 Coeff-En:   0.000D+00 0.000D+00 0.000D+00 0.000D+00 0.100D+01
 Coeff:     -0.403D-03-0.829D-02-0.403D-01-0.349D-01 0.108D+01
 Gap=     0.428 Goal=   None    Shift=    0.000
 RMSDP=3.21D-05 MaxDP=1.13D-03 DE=-1.08D-03 OVMax= 1.97D-03

 Cycle   6  Pass 1  IDiag  1:
 RMSU=  6.36D-06    CP:  1.02D+00  6.51D-01  1.01D+00  7.86D-01  1.29D+00
 FoFJK:  IHMeth= 1 ICntrl=     0 DoSepK=T KAlg= 1 I1Cent= 0 FoldK=F
 E= -2905.42539418162     Delta-E=       -0.000013706622 Rises=F Damp=F
 DIIS: error= 6.07D-05 at cycle   6 NSaved=   6.
 NSaved= 6 IEnMin= 6 EnMin= -2905.42539418162     IErMin= 6 ErrMin= 6.07D-05
 ErrMax= 6.07D-05 EMaxC= 1.00D-01 BMatC= 4.60D-07 BMatP= 6.18D-06
 IDIUse=1 WtCom= 1.00D+00 WtEn= 0.00D+00
 Coeff-Com:  0.745D-04-0.323D-02-0.193D-01-0.265D-01 0.119D+00 0.930D+00
 Coeff:      0.745D-04-0.323D-02-0.193D-01-0.265D-01 0.119D+00 0.930D+00
 Gap=     0.427 Goal=   None    Shift=    0.000
 RMSDP=6.90D-06 MaxDP=2.39D-04 DE=-1.37D-05 OVMax= 4.65D-04

 Cycle   7  Pass 1  IDiag  1:
 RMSU=  2.04D-06    CP:  1.02D+00  6.51D-01  1.02D+00  7.93D-01  1.35D+00
                    CP:  1.18D+00
 FoFJK:  IHMeth= 1 ICntrl=     0 DoSepK=T KAlg= 1 I1Cent= 0 FoldK=F
 E= -2905.42539502622     Delta-E=       -0.000000844602 Rises=F Damp=F
 DIIS: error= 2.01D-05 at cycle   7 NSaved=   7.
 NSaved= 7 IEnMin= 7 EnMin= -2905.42539502622     IErMin= 7 ErrMin= 2.01D-05
 ErrMax= 2.01D-05 EMaxC= 1.00D-01 BMatC= 8.70D-08 BMatP= 4.60D-07
 IDIUse=1 WtCom= 1.00D+00 WtEn= 0.00D+00
 Coeff-Com:  0.429D-04-0.648D-03-0.427D-02-0.719D-02-0.211D-01 0.295D+00
 Coeff-Com:  0.738D+00
 Coeff:      0.429D-04-0.648D-03-0.427D-02-0.719D-02-0.211D-01 0.295D+00
 Coeff:      0.738D+00
 Gap=     0.427 Goal=   None    Shift=    0.000
 RMSDP=1.63D-06 MaxDP=6.11D-05 DE=-8.45D-07 OVMax= 1.23D-04

 Cycle   8  Pass 1  IDiag  1:
 RMSU=  7.67D-07    CP:  1.02D+00  6.51D-01  1.02D+00  7.93D-01  1.36D+00
                    CP:  1.27D+00  1.05D+00
 FoFJK:  IHMeth= 1 ICntrl=     0 DoSepK=T KAlg= 1 I1Cent= 0 FoldK=F
 E= -2905.42539511049     Delta-E=       -0.000000084270 Rises=F Damp=F
 DIIS: error= 1.23D-05 at cycle   8 NSaved=   8.
 NSaved= 8 IEnMin= 8 EnMin= -2905.42539511049     IErMin= 8 ErrMin= 1.23D-05
 ErrMax= 1.23D-05 EMaxC= 1.00D-01 BMatC= 2.69D-08 BMatP= 8.70D-08
 IDIUse=1 WtCom= 1.00D+00 WtEn= 0.00D+00
 Coeff-Com:  0.922D-05 0.326D-03 0.168D-02 0.128D-02-0.351D-01-0.351D-01
 Coeff-Com:  0.368D+00 0.699D+00
 Coeff:      0.922D-05 0.326D-03 0.168D-02 0.128D-02-0.351D-01-0.351D-01
 Coeff:      0.368D+00 0.699D+00
 Gap=     0.427 Goal=   None    Shift=    0.000
 RMSDP=7.84D-07 MaxDP=3.04D-05 DE=-8.43D-08 OVMax= 5.60D-05

 Cycle   9  Pass 1  IDiag  1:
 RMSU=  3.15D-07    CP:  1.02D+00  6.51D-01  1.02D+00  7.93D-01  1.37D+00
                    CP:  1.31D+00  1.19D+00  9.72D-01
 FoFJK:  IHMeth= 1 ICntrl=     0 DoSepK=T KAlg= 1 I1Cent= 0 FoldK=F
 E= -2905.42539513590     Delta-E=       -0.000000025406 Rises=F Damp=F
 DIIS: error= 2.81D-06 at cycle   9 NSaved=   9.
 NSaved= 9 IEnMin= 9 EnMin= -2905.42539513590     IErMin= 9 ErrMin= 2.81D-06
 ErrMax= 2.81D-06 EMaxC= 1.00D-01 BMatC= 8.80D-10 BMatP= 2.69D-08
 IDIUse=1 WtCom= 1.00D+00 WtEn= 0.00D+00
 Coeff-Com: -0.262D-05 0.113D-03 0.640D-03 0.681D-03 0.348D-03-0.309D-01
 Coeff-Com: -0.639D-01 0.279D-01 0.107D+01
 Coeff:     -0.262D-05 0.113D-03 0.640D-03 0.681D-03 0.348D-03-0.309D-01
 Coeff:     -0.639D-01 0.279D-01 0.107D+01
 Gap=     0.427 Goal=   None    Shift=    0.000
 RMSDP=3.44D-07 MaxDP=9.68D-06 DE=-2.54D-08 OVMax= 2.92D-05

 Cycle  10  Pass 1  IDiag  1:
 RMSU=  8.54D-08    CP:  1.02D+00  6.51D-01  1.02D+00  7.92D-01  1.37D+00
                    CP:  1.32D+00  1.23D+00  1.11D+00  1.32D+00
 FoFJK:  IHMeth= 1 ICntrl=     0 DoSepK=T KAlg= 1 I1Cent= 0 FoldK=F
 E= -2905.42539513790     Delta-E=       -0.000000002004 Rises=F Damp=F
 DIIS: error= 7.56D-07 at cycle  10 NSaved=  10.
 NSaved=10 IEnMin=10 EnMin= -2905.42539513790     IErMin=10 ErrMin= 7.56D-07
 ErrMax= 7.56D-07 EMaxC= 1.00D-01 BMatC= 5.22D-11 BMatP= 8.80D-10
 IDIUse=1 WtCom= 1.00D+00 WtEn= 0.00D+00
 Coeff-Com: -0.265D-06-0.173D-04-0.899D-04-0.501D-04 0.228D-02 0.377D-02
 Coeff-Com: -0.324D-01-0.568D-01 0.813D-01 0.100D+01
 Coeff:     -0.265D-06-0.173D-04-0.899D-04-0.501D-04 0.228D-02 0.377D-02
 Coeff:     -0.324D-01-0.568D-01 0.813D-01 0.100D+01
 Gap=     0.427 Goal=   None    Shift=    0.000
 RMSDP=8.29D-08 MaxDP=2.01D-06 DE=-2.00D-09 OVMax= 8.10D-06

 Cycle  11  Pass 1  IDiag  1:
 RMSU=  2.26D-08    CP:  1.02D+00  6.51D-01  1.02D+00  7.92D-01  1.37D+00
                    CP:  1.32D+00  1.23D+00  1.14D+00  1.44D+00  1.19D+00
 FoFJK:  IHMeth= 1 ICntrl=     0 DoSepK=T KAlg= 1 I1Cent= 0 FoldK=F
 E= -2905.42539513804     Delta-E=       -0.000000000136 Rises=F Damp=F
 DIIS: error= 2.62D-07 at cycle  11 NSaved=  11.
 NSaved=11 IEnMin=11 EnMin= -2905.42539513804     IErMin=11 ErrMin= 2.62D-07
 ErrMax= 2.62D-07 EMaxC= 1.00D-01 BMatC= 4.64D-12 BMatP= 5.22D-11
 IDIUse=1 WtCom= 1.00D+00 WtEn= 0.00D+00
 Coeff-Com:  0.311D-06-0.676D-05-0.390D-04-0.291D-04-0.505D-03 0.245D-02
 Coeff-Com:  0.873D-02 0.364D-02-0.892D-01-0.145D+00 0.122D+01
 Coeff:      0.311D-06-0.676D-05-0.390D-04-0.291D-04-0.505D-03 0.245D-02
 Coeff:      0.873D-02 0.364D-02-0.892D-01-0.145D+00 0.122D+01
 Gap=     0.427 Goal=   None    Shift=    0.000
 RMSDP=2.79D-08 MaxDP=7.96D-07 DE=-1.36D-10 OVMax= 3.03D-06

 Cycle  12  Pass 1  IDiag  1:
 RMSU=  6.91D-09    CP:  1.02D+00  6.51D-01  1.02D+00  7.92D-01  1.37D+00
                    CP:  1.31D+00  1.23D+00  1.14D+00  1.47D+00  1.30D+00
                    CP:  1.45D+00
 FoFJK:  IHMeth= 1 ICntrl=     0 DoSepK=T KAlg= 1 I1Cent= 0 FoldK=F
 E= -2905.42539513806     Delta-E=       -0.000000000025 Rises=F Damp=F
 DIIS: error= 5.75D-08 at cycle  12 NSaved=  12.
 NSaved=12 IEnMin=12 EnMin= -2905.42539513806     IErMin=12 ErrMin= 5.75D-08
 ErrMax= 5.75D-08 EMaxC= 1.00D-01 BMatC= 2.48D-13 BMatP= 4.64D-12
 IDIUse=1 WtCom= 1.00D+00 WtEn= 0.00D+00
 Coeff-Com: -0.212D-07 0.174D-05 0.885D-05-0.332D-05-0.436D-04-0.407D-03
 Coeff-Com:  0.690D-03 0.243D-02 0.656D-02-0.297D-01-0.205D+00 0.123D+01
 Coeff:     -0.212D-07 0.174D-05 0.885D-05-0.332D-05-0.436D-04-0.407D-03
 Coeff:      0.690D-03 0.243D-02 0.656D-02-0.297D-01-0.205D+00 0.123D+01
 Gap=     0.427 Goal=   None    Shift=    0.000
 RMSDP=6.96D-09 MaxDP=2.25D-07 DE=-2.50D-11 OVMax= 6.59D-07

 SCF Done:  E(RwB97XD) =  -2905.42539514     A.U. after   12 cycles
             Convg  =    0.6964D-08             -V/T =  2.0016
 KE= 2.900913118566D+03 PE=-7.240774346626D+03 EE= 1.282647304137D+03
 Leave Link  502 at Fri Jan 17 14:00:14 2020, MaxMem=  536870912 cpu:     215.4
 (Enter /home/matheus/.gaussian/g09/l601.exe)
 Copying SCF densities to generalized density rwf, IOpCl= 0 IROHF=0.

 **********************************************************************

            Population analysis using the SCF density.

 **********************************************************************

 Orbital symmetries:
       Occupied  (A) (A) (A) (A) (A) (A) (A) (A) (A) (A) (A) (A)
                 (A) (A) (A) (A) (A) (A) (A) (A) (A) (A) (A) (A)
                 (A) (A) (A)
       Virtual   (A) (A) (A) (A) (A) (A) (A) (A) (A) (A) (A) (A)
                 (A) (A) (A) (A) (A) (A) (A) (A) (A) (A) (A) (A)
                 (A) (A) (A) (A) (A) (A) (A) (A) (A) (A) (A) (A)
                 (A) (A) (A) (A) (A) (A) (A) (A) (A) (A) (A) (A)
                 (A) (A) (A) (A) (A) (A) (A) (A) (A) (A) (A) (A)
                 (A) (A) (A) (A) (A) (A) (A) (A) (A) (A) (A) (A)
                 (A) (A) (A) (A) (A) (A) (A) (A) (A) (A) (A) (A)
                 (A) (A) (A) (A) (A) (A) (A) (A) (A) (A) (A) (A)
                 (A) (A) (A) (A) (A) (A) (A) (A) (A) (A) (A) (A)
                 (A) (A) (A) (A) (A) (A) (A) (A) (A) (A) (A) (A)
                 (A) (A) (A) (A) (A) (A) (A) (A) (A) (A) (A) (A)
                 (A) (A) (A) (A) (A) (A) (A) (A) (A) (A) (A) (A)
                 (A) (A) (A) (A) (A) (A) (A) (A) (A) (A) (A) (A)
                 (A) (A) (A) (A) (A) (A) (A) (A) (A) (A) (A) (A)
                 (A) (A)
 The electronic state is 1-A.
 Alpha  occ. eigenvalues -- -513.15389 -67.42439 -60.97306 -60.97301 -60.97292
 Alpha  occ. eigenvalues --  -19.36800 -19.36779  -9.87814  -7.57135  -7.57112
 Alpha  occ. eigenvalues --   -7.57083  -3.43652  -3.43650  -3.43625  -3.43607
 Alpha  occ. eigenvalues --   -3.43604  -1.28154  -1.08605  -1.06009  -0.71836
 Alpha  occ. eigenvalues --   -0.57199  -0.55794  -0.54958  -0.53689  -0.53043
 Alpha  occ. eigenvalues --   -0.50486  -0.39155
 Alpha virt. eigenvalues --    0.03588   0.04631   0.08730   0.09487   0.10199
 Alpha virt. eigenvalues --    0.12075   0.12738   0.16764   0.17281   0.18044
 Alpha virt. eigenvalues --    0.18812   0.19354   0.20650   0.21624   0.22824
 Alpha virt. eigenvalues --    0.23961   0.24483   0.26445   0.30286   0.33546
 Alpha virt. eigenvalues --    0.35496   0.37313   0.38678   0.38735   0.39886
 Alpha virt. eigenvalues --    0.43271   0.45571   0.48982   0.51628   0.53549
 Alpha virt. eigenvalues --    0.58873   0.62003   0.62227   0.63810   0.64315
 Alpha virt. eigenvalues --    0.69114   0.69450   0.71211   0.72360   0.74701
 Alpha virt. eigenvalues --    0.75331   0.77408   0.80061   0.83315   0.85295
 Alpha virt. eigenvalues --    0.86469   0.86573   0.88562   0.88921   0.90919
 Alpha virt. eigenvalues --    0.93647   0.96527   0.97364   0.99081   1.00555
 Alpha virt. eigenvalues --    1.03373   1.05978   1.07140   1.09569   1.09711
 Alpha virt. eigenvalues --    1.12397   1.19338   1.22280   1.27416   1.28632
 Alpha virt. eigenvalues --    1.31355   1.32035   1.38142   1.40681   1.47081
 Alpha virt. eigenvalues --    1.48836   1.50961   1.55000   1.56771   1.59246
 Alpha virt. eigenvalues --    1.64619   1.67180   1.80122   1.93257   1.95100
 Alpha virt. eigenvalues --    1.98368   2.01771   2.09384   2.14046   2.14186
 Alpha virt. eigenvalues --    2.19900   2.22536   2.22793   2.23562   2.28784
 Alpha virt. eigenvalues --    2.32110   2.33103   2.33646   2.34664   2.37960
 Alpha virt. eigenvalues --    2.39419   2.41722   2.43877   2.47994   2.48919
 Alpha virt. eigenvalues --    2.50099   2.50634   2.57898   2.59023   2.64954
 Alpha virt. eigenvalues --    2.65356   2.67161   2.70122   2.73065   2.73312
 Alpha virt. eigenvalues --    2.74110   2.78139   2.80778   2.89544   2.90948
 Alpha virt. eigenvalues --    2.96303   3.12141   3.13573   3.19017   3.55926
 Alpha virt. eigenvalues --    3.77961   3.86212   3.97888   4.06144   4.12027
 Alpha virt. eigenvalues --    4.12733   4.15151   4.21209   4.22186   4.27863
 Alpha virt. eigenvalues --    4.38347   4.50056   4.59147   4.73457   4.76698
 Alpha virt. eigenvalues --    4.98186   5.02572   5.04395   5.09675   5.16194
 Alpha virt. eigenvalues --    5.19906   5.56518   5.83960   6.01755   6.09568
 Alpha virt. eigenvalues --    6.15636   6.35306   6.41282   6.51196   6.60676
 Alpha virt. eigenvalues --    6.73171   6.73351   6.79355   6.81500   6.84434
 Alpha virt. eigenvalues --    6.89860   6.90472   6.92709   6.95432   7.14664
 Alpha virt. eigenvalues --    7.19076   7.23132   7.31862   7.32363   7.64812
 Alpha virt. eigenvalues --    7.99986   8.08817   8.23338  13.86327  14.79733
          Condensed to atoms (all electrons):
              1          2          3          4          5
     1  O    8.214811  -0.193825   0.195043   0.037369  -0.019244
     2  O   -0.193825   8.212480   0.038700   0.198252  -0.018016
     3  H    0.195043   0.038700   0.571430  -0.023518  -0.007727
     4  H    0.037369   0.198252  -0.023518   0.568871  -0.009722
     5  Kr  -0.019244  -0.018016  -0.007727  -0.009722  36.037782
 Mulliken atomic charges:
              1
     1  O   -0.234154
     2  O   -0.237592
     3  H    0.226072
     4  H    0.228748
     5  Kr   0.016926
 Sum of Mulliken atomic charges =   0.00000
 Mulliken charges with hydrogens summed into heavy atoms:
              1
     1  O   -0.008082
     2  O   -0.008844
     5  Kr   0.016926
 Sum of Mulliken charges with hydrogens summed into heavy atoms =   0.00000
 Electronic spatial extent (au):  <R**2>=            475.3827
 Charge=              0.0000 electrons
 Dipole moment (field-independent basis, Debye):
    X=             -3.7198    Y=             -0.0118    Z=              0.2252  Tot=              3.7266
 Quadrupole moment (field-independent basis, Debye-Ang):
   XX=            -38.7910   YY=            -28.1524   ZZ=            -30.4820
   XY=             -0.0342   XZ=              0.2465   YZ=             -0.3036
 Traceless Quadrupole moment (field-independent basis, Debye-Ang):
   XX=             -6.3159   YY=              4.3227   ZZ=              1.9931
   XY=             -0.0342   XZ=              0.2465   YZ=             -0.3036
 Octapole moment (field-independent basis, Debye-Ang**2):
  XXX=            -45.0019  YYY=             -0.0276  ZZZ=             -0.0190  XYY=             -8.1440
  XXY=             -0.0778  XXZ=             -0.0628  XZZ=             -8.9648  YZZ=             -0.0558
  YYZ=              0.3443  XYZ=             -0.3244
 Hexadecapole moment (field-independent basis, Debye-Ang**3):
 XXXX=           -454.7394 YYYY=            -63.3520 ZZZZ=            -29.1207 XXXY=             -0.0698
 XXXZ=             -0.5929 YYYX=             -0.0623 YYYZ=             -0.4095 ZZZX=              0.0820
 ZZZY=             -0.1584 XXYY=            -86.3684 XXZZ=            -76.4241 YYZZ=            -17.3645
 XXYZ=             -0.3165 YYXZ=              0.3835 ZZXY=             -0.0718
 N-N= 1.517885287854D+02 E-N=-7.240774350652D+03  KE= 2.900913118566D+03
 No NMR shielding tensors so no spin-rotation constants.
 Leave Link  601 at Fri Jan 17 14:00:14 2020, MaxMem=  536870912 cpu:       0.4
 (Enter /home/matheus/.gaussian/g09/l108.exe)
 Variable Step   Value    
 -------- ---- -----------
     1       1    5.858151
 Leave Link  108 at Fri Jan 17 14:00:14 2020, MaxMem=  536870912 cpu:       0.0
 (Enter /home/matheus/.gaussian/g09/l202.exe)
 ---------------------------------------------------------------------------------------------------
                            Z-MATRIX (ANGSTROMS AND DEGREES)
   CD    Cent   Atom    N1       Length/X        N2       Alpha/Y        N3        Beta/Z          J
 ---------------------------------------------------------------------------------------------------
      1      1  O        0   0.000000          0.000000          0.725000
      2      2  O        0   0.000000          0.000000         -0.725000
      3      3  H        0   0.159534          0.904763          1.023510
      4      4  H        0   0.000000          0.918721         -1.023510
      5      5  Kr       0   0.000000          3.100000          0.000000
 ---------------------------------------------------------------------------------------------------
                         Z-Matrix orientation:                         
 ---------------------------------------------------------------------
 Center     Atomic      Atomic             Coordinates (Angstroms)
 Number     Number       Type             X           Y           Z
 ---------------------------------------------------------------------
      1          8           0        0.000000    0.000000    0.725000
      2          8           0        0.000000    0.000000   -0.725000
      3          1           0        0.159534    0.904763    1.023510
      4          1           0        0.000000    0.918721   -1.023510
      5         36           0        0.000000    3.100000    0.000000
 ---------------------------------------------------------------------
                    Distance matrix (angstroms):
                    1          2          3          4          5
     1  O    0.000000
     2  O    1.450000   0.000000
     3  H    0.966000   1.975180   0.000000
     4  H    1.975180   0.966000   2.053275   0.000000
     5  Kr   3.183650   3.183650   2.427363   2.409472   0.000000
 Stoichiometry    H2KrO2
 Framework group  C1[X(H2KrO2)]
 Deg. of freedom     9
 Full point group                 C1      NOp   1
 RotChk:  IX=0 Diff= 2.86D-05
 Largest Abelian subgroup         C1      NOp   1
 Largest concise Abelian subgroup C1      NOp   1
                         Standard orientation:                         
 ---------------------------------------------------------------------
 Center     Atomic      Atomic             Coordinates (Angstroms)
 Number     Number       Type             X           Y           Z
 ---------------------------------------------------------------------
      1          8           0        2.100533   -0.724500   -0.017902
      2          8           0        2.100320    0.725325    0.004677
      3          1           0        1.196094   -1.025616    0.138540
      4          1           0        1.181557    1.023639    0.010925
      5         36           0       -0.999569   -0.000128   -0.001213
 ---------------------------------------------------------------------
 Rotational constants (GHZ):     26.6670679      2.2350687      2.0626263
 Leave Link  202 at Fri Jan 17 14:00:14 2020, MaxMem=  536870912 cpu:       0.0
 (Enter /home/matheus/.gaussian/g09/l301.exe)
 Standard basis: Aug-CC-pVTZ (5D, 7F)
 Ernie: Thresh=  0.10000D-02 Tol=  0.10000D-05 Strict=F.
 Ernie:  38 primitive shells out of 205 were deleted.
 There are   197 symmetry adapted basis functions of A   symmetry.
 Integral buffers will be    131072 words long.
 Raffenetti 2 integral format.
 Two-electron integral symmetry is turned on.
   197 basis functions,   415 primitive gaussians,   229 cartesian basis functions
    27 alpha electrons       27 beta electrons
       nuclear repulsion energy       148.1616859534 Hartrees.
 IExCor= 4639 DFT=T Ex+Corr=wB97XD ExCW=0 ScaHFX=  1.000000
 ScaDFX=  1.000000  1.000000  1.000000  1.000000 ScalE2=  1.000000  1.000000
 IRadAn=      5 IRanWt=     -1 IRanGd=            0 ICorTp=0
  HFx wShort=  0.000000 wLong=  0.330000 cFull=  0.222036 cShort=  0.000000 cLong=  0.777964
  DFx wShort=  0.000000 wLong=  0.330000 cFull=  0.000000 cShort=  0.000000 cLong=  1.000000
 NAtoms=    5 NActive=    5 NUniq=    5 SFac= 1.00D+00 NAtFMM=   60 NAOKFM=F Big=F
 R6Disp: Dispersion energy =        -0.0008423299 Hartrees.
 Nuclear repulsion after empirical dispersion term =      148.1608436235 Hartrees.
 Leave Link  301 at Fri Jan 17 14:00:14 2020, MaxMem=  536870912 cpu:       0.1
 (Enter /home/matheus/.gaussian/g09/l302.exe)
 NPDir=0 NMtPBC=     1 NCelOv=     1 NCel=       1 NClECP=     1 NCelD=      1
         NCelK=      1 NCelE2=     1 NClLst=     1 CellRange=     0.0.
 One-electron integrals computed using PRISM.
 NBasis=   197 RedAO= T  NBF=   197
 NBsUse=   197 1.00D-06 NBFU=   197
 Precomputing XC quadrature grid using
 IXCGrd= 2 IRadAn=           5 IRanWt=          -1 IRanGd=           0 AccXCQ= 0.00D+00.
 NRdTot=     427 NPtTot=      123512 NUsed=      126579 NTot=      126611
 NSgBfM=   229   229   229   229   229 NAtAll=     5     5.
 Leave Link  302 at Fri Jan 17 14:00:15 2020, MaxMem=  536870912 cpu:       0.5
 (Enter /home/matheus/.gaussian/g09/l303.exe)
 DipDrv:  MaxL=1.
 Leave Link  303 at Fri Jan 17 14:00:15 2020, MaxMem=  536870912 cpu:       0.1
 (Enter /home/matheus/.gaussian/g09/l401.exe)
 Initial guess read from the read-write file.
 B after Tr=     0.000000    0.000000    0.000000
         Rot=    1.000000    0.000000    0.000000    0.000000 Ang=   0.00 deg.
 Guess basis will be translated and rotated to current coordinates.
 Initial guess orbital symmetries:
       Occupied  (A) (A) (A) (A) (A) (A) (A) (A) (A) (A) (A) (A)
                 (A) (A) (A) (A) (A) (A) (A) (A) (A) (A) (A) (A)
                 (A) (A) (A)
       Virtual   (A) (A) (A) (A) (A) (A) (A) (A) (A) (A) (A) (A)
                 (A) (A) (A) (A) (A) (A) (A) (A) (A) (A) (A) (A)
                 (A) (A) (A) (A) (A) (A) (A) (A) (A) (A) (A) (A)
                 (A) (A) (A) (A) (A) (A) (A) (A) (A) (A) (A) (A)
                 (A) (A) (A) (A) (A) (A) (A) (A) (A) (A) (A) (A)
                 (A) (A) (A) (A) (A) (A) (A) (A) (A) (A) (A) (A)
                 (A) (A) (A) (A) (A) (A) (A) (A) (A) (A) (A) (A)
                 (A) (A) (A) (A) (A) (A) (A) (A) (A) (A) (A) (A)
                 (A) (A) (A) (A) (A) (A) (A) (A) (A) (A) (A) (A)
                 (A) (A) (A) (A) (A) (A) (A) (A) (A) (A) (A) (A)
                 (A) (A) (A) (A) (A) (A) (A) (A) (A) (A) (A) (A)
                 (A) (A) (A) (A) (A) (A) (A) (A) (A) (A) (A) (A)
                 (A) (A) (A) (A) (A) (A) (A) (A) (A) (A) (A) (A)
                 (A) (A) (A) (A) (A) (A) (A) (A) (A) (A) (A) (A)
                 (A) (A)
 The electronic state of the initial guess is 1-A.
 Generating alternative initial guess.
 Harris functional with IExCor= 4639 diagonalized for initial guess.
 ExpMin= 2.53D-02 ExpMax= 1.17D+07 ExpMxC= 1.33D+04 IAcc=3 IRadAn=         5 AccDes= 0.00D+00
 HarFok:  IExCor= 4639 AccDes= 0.00D+00 IRadAn=         5 IDoV= 1
 ScaDFX=  1.000000  1.000000  1.000000  1.000000
 FoFCou: FMM=F IPFlag=           0 FMFlag=      100000 FMFlg1=           0
         NFxFlg=           0 DoJE=T BraDBF=F KetDBF=T FulRan=T
         Omega=  0.000000  0.000000  1.000000  0.000000  0.000000 ICntrl=     500 IOpCl=  0
         NMat0=    1 NMatS0=    1 NMatT0=    0 NMatD0=    1 NMtDS0=    0 NMtDT0=    0
         I1Cent=           4 NGrid=           0.
 Petite list used in FoFCou.
 Harris En= -2873.72354738049    
 Leave Link  401 at Fri Jan 17 14:00:15 2020, MaxMem=  536870912 cpu:       2.9
 (Enter /home/matheus/.gaussian/g09/l502.exe)
 Closed shell SCF:
 Requested convergence on RMS density matrix=1.00D-08 within 128 cycles.
 Requested convergence on MAX density matrix=1.00D-06.
 Requested convergence on             energy=1.00D-06.
 No special actions if energy rises.
 Using DIIS extrapolation, IDIIS=  1040.
 Integral symmetry usage will be decided dynamically.
       126521 words used for storage of precomputed grid.
 IEnd=      305010 IEndB=      305010 NGot=   536870912 MDV=   536635213
 LenX=   536635213 LenY=   536582331
 Fock matrices will be formed incrementally for  20 cycles.

 Cycle   1  Pass 1  IDiag  1:
 FoFJK:  IHMeth= 1 ICntrl=     0 DoSepK=T KAlg= 1 I1Cent= 0 FoldK=F
 FoFCou: FMM=F IPFlag=           0 FMFlag=      100000 FMFlg1=           0
         NFxFlg=           0 DoJE=T BraDBF=F KetDBF=F FulRan=T
         Omega=  0.000000  0.000000  1.000000  0.000000  0.000000 ICntrl=     500 IOpCl=  0
         NMat0=    1 NMatS0=    1 NMatT0=    0 NMatD0=    1 NMtDS0=    0 NMtDT0=    0
         I1Cent=           0 NGrid=           0.
 Symmetry not used in FoFCou.
 E= -2905.42788878762    
 DIIS: error= 2.63D-03 at cycle   1 NSaved=   1.
 NSaved= 1 IEnMin= 1 EnMin= -2905.42788878762     IErMin= 1 ErrMin= 2.63D-03
 ErrMax= 2.63D-03 EMaxC= 1.00D-01 BMatC= 1.03D-03 BMatP= 1.03D-03
 IDIUse=3 WtCom= 9.74D-01 WtEn= 2.63D-02
 Coeff-Com:  0.100D+01
 Coeff-En:   0.100D+01
 Coeff:      0.100D+01
 Gap=     0.432 Goal=   None    Shift=    0.000
 GapD=    0.432 DampG=2.000 DampE=1.000 DampFc=2.0000 IDamp=-1.
 RMSDP=7.41D-05 MaxDP=1.93D-03              OVMax= 3.49D-03

 Cycle   2  Pass 1  IDiag  1:
 RMSU=  5.24D-05    CP:  1.00D+00
 FoFJK:  IHMeth= 1 ICntrl=     0 DoSepK=T KAlg= 1 I1Cent= 0 FoldK=F
 E= -2905.42804619675     Delta-E=       -0.000157409131 Rises=F Damp=F
 DIIS: error= 2.35D-04 at cycle   2 NSaved=   2.
 NSaved= 2 IEnMin= 2 EnMin= -2905.42804619675     IErMin= 2 ErrMin= 2.35D-04
 ErrMax= 2.35D-04 EMaxC= 1.00D-01 BMatC= 6.97D-06 BMatP= 1.03D-03
 IDIUse=3 WtCom= 9.98D-01 WtEn= 2.35D-03
 Coeff-Com: -0.326D-02 0.100D+01
 Coeff-En:   0.000D+00 0.100D+01
 Coeff:     -0.326D-02 0.100D+01
 Gap=     0.427 Goal=   None    Shift=    0.000
 RMSDP=1.77D-05 MaxDP=5.54D-04 DE=-1.57D-04 OVMax= 1.01D-03

 Cycle   3  Pass 1  IDiag  1:
 RMSU=  1.07D-05    CP:  1.00D+00  1.12D+00
 FoFJK:  IHMeth= 1 ICntrl=     0 DoSepK=T KAlg= 1 I1Cent= 0 FoldK=F
 E= -2905.42805178525     Delta-E=       -0.000005588499 Rises=F Damp=F
 DIIS: error= 1.21D-04 at cycle   3 NSaved=   3.
 NSaved= 3 IEnMin= 3 EnMin= -2905.42805178525     IErMin= 3 ErrMin= 1.21D-04
 ErrMax= 1.21D-04 EMaxC= 1.00D-01 BMatC= 3.21D-06 BMatP= 6.97D-06
 IDIUse=3 WtCom= 9.99D-01 WtEn= 1.21D-03
 Coeff-Com: -0.682D-02 0.393D+00 0.614D+00
 Coeff-En:   0.000D+00 0.000D+00 0.100D+01
 Coeff:     -0.681D-02 0.393D+00 0.614D+00
 Gap=     0.428 Goal=   None    Shift=    0.000
 RMSDP=6.56D-06 MaxDP=2.09D-04 DE=-5.59D-06 OVMax= 3.27D-04

 Cycle   4  Pass 1  IDiag  1:
 RMSU=  3.43D-06    CP:  1.00D+00  1.15D+00  7.45D-01
 FoFJK:  IHMeth= 1 ICntrl=     0 DoSepK=T KAlg= 1 I1Cent= 0 FoldK=F
 E= -2905.42805394292     Delta-E=       -0.000002157676 Rises=F Damp=F
 DIIS: error= 2.68D-05 at cycle   4 NSaved=   4.
 NSaved= 4 IEnMin= 4 EnMin= -2905.42805394292     IErMin= 4 ErrMin= 2.68D-05
 ErrMax= 2.68D-05 EMaxC= 1.00D-01 BMatC= 8.91D-08 BMatP= 3.21D-06
 IDIUse=1 WtCom= 1.00D+00 WtEn= 0.00D+00
 Coeff-Com: -0.135D-03-0.686D-01 0.488D-01 0.102D+01
 Coeff:     -0.135D-03-0.686D-01 0.488D-01 0.102D+01
 Gap=     0.428 Goal=   None    Shift=    0.000
 RMSDP=2.24D-06 MaxDP=6.25D-05 DE=-2.16D-06 OVMax= 1.43D-04

 Cycle   5  Pass 1  IDiag  1:
 RMSU=  7.40D-07    CP:  1.00D+00  1.17D+00  8.36D-01  1.22D+00
 FoFJK:  IHMeth= 1 ICntrl=     0 DoSepK=T KAlg= 1 I1Cent= 0 FoldK=F
 E= -2905.42805405559     Delta-E=       -0.000000112665 Rises=F Damp=F
 DIIS: error= 5.31D-06 at cycle   5 NSaved=   5.
 NSaved= 5 IEnMin= 5 EnMin= -2905.42805405559     IErMin= 5 ErrMin= 5.31D-06
 ErrMax= 5.31D-06 EMaxC= 1.00D-01 BMatC= 6.24D-09 BMatP= 8.91D-08
 IDIUse=1 WtCom= 1.00D+00 WtEn= 0.00D+00
 Coeff-Com:  0.275D-03-0.386D-01-0.139D-01 0.277D+00 0.775D+00
 Coeff:      0.275D-03-0.386D-01-0.139D-01 0.277D+00 0.775D+00
 Gap=     0.428 Goal=   None    Shift=    0.000
 RMSDP=4.72D-07 MaxDP=1.13D-05 DE=-1.13D-07 OVMax= 2.73D-05

 Cycle   6  Pass 1  IDiag  1:
 RMSU=  1.88D-07    CP:  1.00D+00  1.17D+00  8.48D-01  1.29D+00  1.05D+00
 FoFJK:  IHMeth= 1 ICntrl=     0 DoSepK=T KAlg= 1 I1Cent= 0 FoldK=F
 E= -2905.42805406234     Delta-E=       -0.000000006752 Rises=F Damp=F
 DIIS: error= 1.50D-06 at cycle   6 NSaved=   6.
 NSaved= 6 IEnMin= 6 EnMin= -2905.42805406234     IErMin= 6 ErrMin= 1.50D-06
 ErrMax= 1.50D-06 EMaxC= 1.00D-01 BMatC= 5.71D-10 BMatP= 6.24D-09
 IDIUse=1 WtCom= 1.00D+00 WtEn= 0.00D+00
 Coeff-Com:  0.772D-04-0.622D-02-0.511D-02 0.176D-01 0.187D+00 0.807D+00
 Coeff:      0.772D-04-0.622D-02-0.511D-02 0.176D-01 0.187D+00 0.807D+00
 Gap=     0.428 Goal=   None    Shift=    0.000
 RMSDP=1.41D-07 MaxDP=6.24D-06 DE=-6.75D-09 OVMax= 9.98D-06

 Cycle   7  Pass 1  IDiag  1:
 RMSU=  6.65D-08    CP:  1.00D+00  1.17D+00  8.51D-01  1.30D+00  1.12D+00
                    CP:  1.08D+00
 FoFJK:  IHMeth= 1 ICntrl=     0 DoSepK=T KAlg= 1 I1Cent= 0 FoldK=F
 E= -2905.42805406288     Delta-E=       -0.000000000543 Rises=F Damp=F
 DIIS: error= 1.19D-06 at cycle   7 NSaved=   7.
 NSaved= 7 IEnMin= 7 EnMin= -2905.42805406288     IErMin= 7 ErrMin= 1.19D-06
 ErrMax= 1.19D-06 EMaxC= 1.00D-01 BMatC= 2.62D-10 BMatP= 5.71D-10
 IDIUse=1 WtCom= 1.00D+00 WtEn= 0.00D+00
 Coeff-Com: -0.316D-04 0.693D-02 0.123D-02-0.641D-01-0.107D+00 0.436D+00
 Coeff-Com:  0.727D+00
 Coeff:     -0.316D-04 0.693D-02 0.123D-02-0.641D-01-0.107D+00 0.436D+00
 Coeff:      0.727D+00
 Gap=     0.428 Goal=   None    Shift=    0.000
 RMSDP=7.16D-08 MaxDP=3.42D-06 DE=-5.43D-10 OVMax= 5.10D-06

 Cycle   8  Pass 1  IDiag  1:
 RMSU=  2.74D-08    CP:  1.00D+00  1.17D+00  8.52D-01  1.30D+00  1.15D+00
                    CP:  1.22D+00  9.02D-01
 FoFJK:  IHMeth= 1 ICntrl=     0 DoSepK=T KAlg= 1 I1Cent= 0 FoldK=F
 E= -2905.42805406315     Delta-E=       -0.000000000262 Rises=F Damp=F
 DIIS: error= 1.33D-07 at cycle   8 NSaved=   8.
 NSaved= 8 IEnMin= 8 EnMin= -2905.42805406315     IErMin= 8 ErrMin= 1.33D-07
 ErrMax= 1.33D-07 EMaxC= 1.00D-01 BMatC= 3.37D-12 BMatP= 2.62D-10
 IDIUse=1 WtCom= 1.00D+00 WtEn= 0.00D+00
 Coeff-Com: -0.741D-05 0.100D-02 0.361D-03-0.713D-02-0.186D-01 0.313D-02
 Coeff-Com:  0.666D-01 0.955D+00
 Coeff:     -0.741D-05 0.100D-02 0.361D-03-0.713D-02-0.186D-01 0.313D-02
 Coeff:      0.666D-01 0.955D+00
 Gap=     0.428 Goal=   None    Shift=    0.000
 RMSDP=1.84D-08 MaxDP=5.38D-07 DE=-2.62D-10 OVMax= 1.29D-06

 Cycle   9  Pass 1  IDiag  1:
 RMSU=  5.87D-09    CP:  1.00D+00  1.17D+00  8.53D-01  1.30D+00  1.15D+00
                    CP:  1.23D+00  9.85D-01  1.27D+00
 FoFJK:  IHMeth= 1 ICntrl=     0 DoSepK=T KAlg= 1 I1Cent= 0 FoldK=F
 E= -2905.42805406315     Delta-E=       -0.000000000006 Rises=F Damp=F
 DIIS: error= 5.92D-08 at cycle   9 NSaved=   9.
 NSaved= 9 IEnMin= 9 EnMin= -2905.42805406315     IErMin= 9 ErrMin= 5.92D-08
 ErrMax= 5.92D-08 EMaxC= 1.00D-01 BMatC= 4.50D-13 BMatP= 3.37D-12
 IDIUse=1 WtCom= 1.00D+00 WtEn= 0.00D+00
 Coeff-Com:  0.294D-05-0.703D-03-0.112D-03 0.673D-02 0.105D-01-0.522D-01
 Coeff-Com: -0.806D-01 0.105D+00 0.101D+01
 Coeff:      0.294D-05-0.703D-03-0.112D-03 0.673D-02 0.105D-01-0.522D-01
 Coeff:     -0.806D-01 0.105D+00 0.101D+01
 Gap=     0.428 Goal=   None    Shift=    0.000
 RMSDP=9.56D-09 MaxDP=2.07D-07 DE=-6.37D-12 OVMax= 6.87D-07

 SCF Done:  E(RwB97XD) =  -2905.42805406     A.U. after    9 cycles
             Convg  =    0.9564D-08             -V/T =  2.0016
 KE= 2.900895503552D+03 PE=-7.233559589298D+03 EE= 1.279075188059D+03
 Leave Link  502 at Fri Jan 17 14:00:55 2020, MaxMem=  536870912 cpu:     157.3
 (Enter /home/matheus/.gaussian/g09/l108.exe)
 Variable Step   Value    
 -------- ---- -----------
     1       2    6.047124
 Leave Link  108 at Fri Jan 17 14:00:55 2020, MaxMem=  536870912 cpu:       0.0
 (Enter /home/matheus/.gaussian/g09/l202.exe)
 ---------------------------------------------------------------------------------------------------
                            Z-MATRIX (ANGSTROMS AND DEGREES)
   CD    Cent   Atom    N1       Length/X        N2       Alpha/Y        N3        Beta/Z          J
 ---------------------------------------------------------------------------------------------------
      1      1  O        0   0.000000          0.000000          0.725000
      2      2  O        0   0.000000          0.000000         -0.725000
      3      3  H        0   0.159534          0.904763          1.023510
      4      4  H        0   0.000000          0.918721         -1.023510
      5      5  Kr       0   0.000000          3.200000          0.000000
 ---------------------------------------------------------------------------------------------------
                         Z-Matrix orientation:                         
 ---------------------------------------------------------------------
 Center     Atomic      Atomic             Coordinates (Angstroms)
 Number     Number       Type             X           Y           Z
 ---------------------------------------------------------------------
      1          8           0        0.000000    0.000000    0.725000
      2          8           0        0.000000    0.000000   -0.725000
      3          1           0        0.159534    0.904763    1.023510
      4          1           0        0.000000    0.918721   -1.023510
      5         36           0        0.000000    3.200000    0.000000
 ---------------------------------------------------------------------
                    Distance matrix (angstroms):
                    1          2          3          4          5
     1  O    0.000000
     2  O    1.450000   0.000000
     3  H    0.966000   1.975180   0.000000
     4  H    1.975180   0.966000   2.053275   0.000000
     5  Kr   3.281101   3.281101   2.518161   2.500362   0.000000
 Stoichiometry    H2KrO2
 Framework group  C1[X(H2KrO2)]
 Deg. of freedom     9
 Full point group                 C1      NOp   1
 RotChk:  IX=0 Diff= 2.96D-05
 Largest Abelian subgroup         C1      NOp   1
 Largest concise Abelian subgroup C1      NOp   1
                         Standard orientation:                         
 ---------------------------------------------------------------------
 Center     Atomic      Atomic             Coordinates (Angstroms)
 Number     Number       Type             X           Y           Z
 ---------------------------------------------------------------------
      1          8           0        2.167193   -0.724511   -0.017979
      2          8           0        2.166994    0.725314    0.004600
      3          1           0        1.262747   -1.025617    0.138447
      4          1           0        1.248234    1.023637    0.010832
      5         36           0       -1.032902   -0.000123   -0.001173
 ---------------------------------------------------------------------
 Rotational constants (GHZ):     26.6670795      2.0961637      1.9437584
 Leave Link  202 at Fri Jan 17 14:00:55 2020, MaxMem=  536870912 cpu:       0.0
 (Enter /home/matheus/.gaussian/g09/l301.exe)
 Standard basis: Aug-CC-pVTZ (5D, 7F)
 Ernie: Thresh=  0.10000D-02 Tol=  0.10000D-05 Strict=F.
 Ernie:  38 primitive shells out of 205 were deleted.
 There are   197 symmetry adapted basis functions of A   symmetry.
 Integral buffers will be    131072 words long.
 Raffenetti 2 integral format.
 Two-electron integral symmetry is turned on.
   197 basis functions,   415 primitive gaussians,   229 cartesian basis functions
    27 alpha electrons       27 beta electrons
       nuclear repulsion energy       144.7477002505 Hartrees.
 IExCor= 4639 DFT=T Ex+Corr=wB97XD ExCW=0 ScaHFX=  1.000000
 ScaDFX=  1.000000  1.000000  1.000000  1.000000 ScalE2=  1.000000  1.000000
 IRadAn=      5 IRanWt=     -1 IRanGd=            0 ICorTp=0
  HFx wShort=  0.000000 wLong=  0.330000 cFull=  0.222036 cShort=  0.000000 cLong=  0.777964
  DFx wShort=  0.000000 wLong=  0.330000 cFull=  0.000000 cShort=  0.000000 cLong=  1.000000
 NAtoms=    5 NActive=    5 NUniq=    5 SFac= 1.00D+00 NAtFMM=   60 NAOKFM=F Big=F
 R6Disp: Dispersion energy =        -0.0009272286 Hartrees.
 Nuclear repulsion after empirical dispersion term =      144.7467730219 Hartrees.
 Leave Link  301 at Fri Jan 17 14:00:55 2020, MaxMem=  536870912 cpu:       0.1
 (Enter /home/matheus/.gaussian/g09/l302.exe)
 NPDir=0 NMtPBC=     1 NCelOv=     1 NCel=       1 NClECP=     1 NCelD=      1
         NCelK=      1 NCelE2=     1 NClLst=     1 CellRange=     0.0.
 One-electron integrals computed using PRISM.
 NBasis=   197 RedAO= T  NBF=   197
 NBsUse=   197 1.00D-06 NBFU=   197
 Precomputing XC quadrature grid using
 IXCGrd= 2 IRadAn=           5 IRanWt=          -1 IRanGd=           0 AccXCQ= 0.00D+00.
 NRdTot=     427 NPtTot=      123512 NUsed=      126579 NTot=      126611
 NSgBfM=   229   229   229   229   229 NAtAll=     5     5.
 Leave Link  302 at Fri Jan 17 14:00:55 2020, MaxMem=  536870912 cpu:       0.5
 (Enter /home/matheus/.gaussian/g09/l303.exe)
 DipDrv:  MaxL=1.
 Leave Link  303 at Fri Jan 17 14:00:55 2020, MaxMem=  536870912 cpu:       0.1
 (Enter /home/matheus/.gaussian/g09/l401.exe)
 Initial guess read from the read-write file.
 B after Tr=     0.000000    0.000000    0.000000
         Rot=    1.000000    0.000000    0.000000    0.000000 Ang=   0.00 deg.
 Guess basis will be translated and rotated to current coordinates.
 Initial guess orbital symmetries:
       Occupied  (A) (A) (A) (A) (A) (A) (A) (A) (A) (A) (A) (A)
                 (A) (A) (A) (A) (A) (A) (A) (A) (A) (A) (A) (A)
                 (A) (A) (A)
       Virtual   (A) (A) (A) (A) (A) (A) (A) (A) (A) (A) (A) (A)
                 (A) (A) (A) (A) (A) (A) (A) (A) (A) (A) (A) (A)
                 (A) (A) (A) (A) (A) (A) (A) (A) (A) (A) (A) (A)
                 (A) (A) (A) (A) (A) (A) (A) (A) (A) (A) (A) (A)
                 (A) (A) (A) (A) (A) (A) (A) (A) (A) (A) (A) (A)
                 (A) (A) (A) (A) (A) (A) (A) (A) (A) (A) (A) (A)
                 (A) (A) (A) (A) (A) (A) (A) (A) (A) (A) (A) (A)
                 (A) (A) (A) (A) (A) (A) (A) (A) (A) (A) (A) (A)
                 (A) (A) (A) (A) (A) (A) (A) (A) (A) (A) (A) (A)
                 (A) (A) (A) (A) (A) (A) (A) (A) (A) (A) (A) (A)
                 (A) (A) (A) (A) (A) (A) (A) (A) (A) (A) (A) (A)
                 (A) (A) (A) (A) (A) (A) (A) (A) (A) (A) (A) (A)
                 (A) (A) (A) (A) (A) (A) (A) (A) (A) (A) (A) (A)
                 (A) (A) (A) (A) (A) (A) (A) (A) (A) (A) (A) (A)
                 (A) (A)
 The electronic state of the initial guess is 1-A.
 Generating alternative initial guess.
 Harris functional with IExCor= 4639 diagonalized for initial guess.
 ExpMin= 2.53D-02 ExpMax= 1.17D+07 ExpMxC= 1.33D+04 IAcc=3 IRadAn=         5 AccDes= 0.00D+00
 HarFok:  IExCor= 4639 AccDes= 0.00D+00 IRadAn=         5 IDoV= 1
 ScaDFX=  1.000000  1.000000  1.000000  1.000000
 FoFCou: FMM=F IPFlag=           0 FMFlag=      100000 FMFlg1=           0
         NFxFlg=           0 DoJE=T BraDBF=F KetDBF=T FulRan=T
         Omega=  0.000000  0.000000  1.000000  0.000000  0.000000 ICntrl=     500 IOpCl=  0
         NMat0=    1 NMatS0=    1 NMatT0=    0 NMatD0=    1 NMtDS0=    0 NMtDT0=    0
         I1Cent=           4 NGrid=           0.
 Petite list used in FoFCou.
 Harris En= -2873.72741819032    
 Leave Link  401 at Fri Jan 17 14:00:56 2020, MaxMem=  536870912 cpu:       2.8
 (Enter /home/matheus/.gaussian/g09/l502.exe)
 Closed shell SCF:
 Requested convergence on RMS density matrix=1.00D-08 within 128 cycles.
 Requested convergence on MAX density matrix=1.00D-06.
 Requested convergence on             energy=1.00D-06.
 No special actions if energy rises.
 Using DIIS extrapolation, IDIIS=  1040.
 Integral symmetry usage will be decided dynamically.
       126521 words used for storage of precomputed grid.
 IEnd=      305010 IEndB=      305010 NGot=   536870912 MDV=   536635213
 LenX=   536635213 LenY=   536582331
 Fock matrices will be formed incrementally for  20 cycles.

 Cycle   1  Pass 1  IDiag  1:
 FoFJK:  IHMeth= 1 ICntrl=     0 DoSepK=T KAlg= 1 I1Cent= 0 FoldK=F
 FoFCou: FMM=F IPFlag=           0 FMFlag=      100000 FMFlg1=           0
         NFxFlg=           0 DoJE=T BraDBF=F KetDBF=F FulRan=T
         Omega=  0.000000  0.000000  1.000000  0.000000  0.000000 ICntrl=     500 IOpCl=  0
         NMat0=    1 NMatS0=    1 NMatT0=    0 NMatD0=    1 NMtDS0=    0 NMtDT0=    0
         I1Cent=           0 NGrid=           0.
 Symmetry not used in FoFCou.
 E= -2905.42968750641    
 DIIS: error= 2.42D-03 at cycle   1 NSaved=   1.
 NSaved= 1 IEnMin= 1 EnMin= -2905.42968750641     IErMin= 1 ErrMin= 2.42D-03
 ErrMax= 2.42D-03 EMaxC= 1.00D-01 BMatC= 8.29D-04 BMatP= 8.29D-04
 IDIUse=3 WtCom= 9.76D-01 WtEn= 2.42D-02
 Coeff-Com:  0.100D+01
 Coeff-En:   0.100D+01
 Coeff:      0.100D+01
 Gap=     0.432 Goal=   None    Shift=    0.000
 GapD=    0.432 DampG=2.000 DampE=1.000 DampFc=2.0000 IDamp=-1.
 RMSDP=6.99D-05 MaxDP=1.56D-03              OVMax= 3.18D-03

 Cycle   2  Pass 1  IDiag  1:
 RMSU=  4.94D-05    CP:  1.00D+00
 FoFJK:  IHMeth= 1 ICntrl=     0 DoSepK=T KAlg= 1 I1Cent= 0 FoldK=F
 E= -2905.42980781729     Delta-E=       -0.000120310883 Rises=F Damp=F
 DIIS: error= 1.99D-04 at cycle   2 NSaved=   2.
 NSaved= 2 IEnMin= 2 EnMin= -2905.42980781729     IErMin= 2 ErrMin= 1.99D-04
 ErrMax= 1.99D-04 EMaxC= 1.00D-01 BMatC= 4.48D-06 BMatP= 8.29D-04
 IDIUse=3 WtCom= 9.98D-01 WtEn= 1.99D-03
 Coeff-Com: -0.501D-02 0.101D+01
 Coeff-En:   0.000D+00 0.100D+01
 Coeff:     -0.500D-02 0.100D+01
 Gap=     0.428 Goal=   None    Shift=    0.000
 RMSDP=1.51D-05 MaxDP=4.35D-04 DE=-1.20D-04 OVMax= 8.67D-04

 Cycle   3  Pass 1  IDiag  1:
 RMSU=  8.57D-06    CP:  1.00D+00  1.13D+00
 FoFJK:  IHMeth= 1 ICntrl=     0 DoSepK=T KAlg= 1 I1Cent= 0 FoldK=F
 E= -2905.42981189881     Delta-E=       -0.000004081518 Rises=F Damp=F
 DIIS: error= 9.37D-05 at cycle   3 NSaved=   3.
 NSaved= 3 IEnMin= 3 EnMin= -2905.42981189881     IErMin= 3 ErrMin= 9.37D-05
 ErrMax= 9.37D-05 EMaxC= 1.00D-01 BMatC= 1.91D-06 BMatP= 4.48D-06
 IDIUse=1 WtCom= 1.00D+00 WtEn= 0.00D+00
 Coeff-Com: -0.622D-02 0.379D+00 0.627D+00
 Coeff:     -0.622D-02 0.379D+00 0.627D+00
 Gap=     0.429 Goal=   None    Shift=    0.000
 RMSDP=5.32D-06 MaxDP=1.65D-04 DE=-4.08D-06 OVMax= 2.59D-04

 Cycle   4  Pass 1  IDiag  1:
 RMSU=  2.92D-06    CP:  1.00D+00  1.16D+00  7.85D-01
 FoFJK:  IHMeth= 1 ICntrl=     0 DoSepK=T KAlg= 1 I1Cent= 0 FoldK=F
 E= -2905.42981320551     Delta-E=       -0.000001306707 Rises=F Damp=F
 DIIS: error= 2.31D-05 at cycle   4 NSaved=   4.
 NSaved= 4 IEnMin= 4 EnMin= -2905.42981320551     IErMin= 4 ErrMin= 2.31D-05
 ErrMax= 2.31D-05 EMaxC= 1.00D-01 BMatC= 7.08D-08 BMatP= 1.91D-06
 IDIUse=1 WtCom= 1.00D+00 WtEn= 0.00D+00
 Coeff-Com: -0.153D-04-0.746D-01 0.653D-01 0.101D+01
 Coeff:     -0.153D-04-0.746D-01 0.653D-01 0.101D+01
 Gap=     0.429 Goal=   None    Shift=    0.000
 RMSDP=2.07D-06 MaxDP=6.02D-05 DE=-1.31D-06 OVMax= 1.26D-04

 Cycle   5  Pass 1  IDiag  1:
 RMSU=  6.20D-07    CP:  1.00D+00  1.17D+00  8.94D-01  1.21D+00
 FoFJK:  IHMeth= 1 ICntrl=     0 DoSepK=T KAlg= 1 I1Cent= 0 FoldK=F
 E= -2905.42981329305     Delta-E=       -0.000000087540 Rises=F Damp=F
 DIIS: error= 3.92D-06 at cycle   5 NSaved=   5.
 NSaved= 5 IEnMin= 5 EnMin= -2905.42981329305     IErMin= 5 ErrMin= 3.92D-06
 ErrMax= 3.92D-06 EMaxC= 1.00D-01 BMatC= 4.36D-09 BMatP= 7.08D-08
 IDIUse=1 WtCom= 1.00D+00 WtEn= 0.00D+00
 Coeff-Com:  0.269D-03-0.384D-01-0.863D-02 0.270D+00 0.777D+00
 Coeff:      0.269D-03-0.384D-01-0.863D-02 0.270D+00 0.777D+00
 Gap=     0.429 Goal=   None    Shift=    0.000
 RMSDP=4.00D-07 MaxDP=9.88D-06 DE=-8.75D-08 OVMax= 2.40D-05

 Cycle   6  Pass 1  IDiag  1:
 RMSU=  1.55D-07    CP:  1.00D+00  1.18D+00  9.09D-01  1.28D+00  1.04D+00
 FoFJK:  IHMeth= 1 ICntrl=     0 DoSepK=T KAlg= 1 I1Cent= 0 FoldK=F
 E= -2905.42981329792     Delta-E=       -0.000000004863 Rises=F Damp=F
 DIIS: error= 1.39D-06 at cycle   6 NSaved=   6.
 NSaved= 6 IEnMin= 6 EnMin= -2905.42981329792     IErMin= 6 ErrMin= 1.39D-06
 ErrMax= 1.39D-06 EMaxC= 1.00D-01 BMatC= 4.97D-10 BMatP= 4.36D-09
 IDIUse=1 WtCom= 1.00D+00 WtEn= 0.00D+00
 Coeff-Com:  0.786D-04-0.668D-02-0.533D-02 0.188D-01 0.215D+00 0.778D+00
 Coeff:      0.786D-04-0.668D-02-0.533D-02 0.188D-01 0.215D+00 0.778D+00
 Gap=     0.429 Goal=   None    Shift=    0.000
 RMSDP=1.19D-07 MaxDP=5.32D-06 DE=-4.86D-09 OVMax= 9.29D-06

 Cycle   7  Pass 1  IDiag  1:
 RMSU=  5.88D-08    CP:  1.00D+00  1.18D+00  9.12D-01  1.29D+00  1.11D+00
                    CP:  1.04D+00
 FoFJK:  IHMeth= 1 ICntrl=     0 DoSepK=T KAlg= 1 I1Cent= 0 FoldK=F
 E= -2905.42981329839     Delta-E=       -0.000000000472 Rises=F Damp=F
 DIIS: error= 9.50D-07 at cycle   7 NSaved=   7.
 NSaved= 7 IEnMin= 7 EnMin= -2905.42981329839     IErMin= 7 ErrMin= 9.50D-07
 ErrMax= 9.50D-07 EMaxC= 1.00D-01 BMatC= 1.93D-10 BMatP= 4.97D-10
 IDIUse=1 WtCom= 1.00D+00 WtEn= 0.00D+00
 Coeff-Com: -0.333D-04 0.720D-02-0.914D-04-0.649D-01-0.104D+00 0.409D+00
 Coeff-Com:  0.753D+00
 Coeff:     -0.333D-04 0.720D-02-0.914D-04-0.649D-01-0.104D+00 0.409D+00
 Coeff:      0.753D+00
 Gap=     0.429 Goal=   None    Shift=    0.000
 RMSDP=6.19D-08 MaxDP=2.98D-06 DE=-4.72D-10 OVMax= 4.80D-06

 Cycle   8  Pass 1  IDiag  1:
 RMSU=  2.37D-08    CP:  1.00D+00  1.18D+00  9.14D-01  1.29D+00  1.15D+00
                    CP:  1.20D+00  9.27D-01
 FoFJK:  IHMeth= 1 ICntrl=     0 DoSepK=T KAlg= 1 I1Cent= 0 FoldK=F
 E= -2905.42981329858     Delta-E=       -0.000000000189 Rises=F Damp=F
 DIIS: error= 9.16D-08 at cycle   8 NSaved=   8.
 NSaved= 8 IEnMin= 8 EnMin= -2905.42981329858     IErMin= 8 ErrMin= 9.16D-08
 ErrMax= 9.16D-08 EMaxC= 1.00D-01 BMatC= 1.86D-12 BMatP= 1.93D-10
 IDIUse=1 WtCom= 1.00D+00 WtEn= 0.00D+00
 Coeff-Com: -0.436D-05 0.459D-03 0.183D-03-0.229D-02-0.104D-01-0.211D-01
 Coeff-Com:  0.149D-01 0.102D+01
 Coeff:     -0.436D-05 0.459D-03 0.183D-03-0.229D-02-0.104D-01-0.211D-01
 Coeff:      0.149D-01 0.102D+01
 Gap=     0.429 Goal=   None    Shift=    0.000
 RMSDP=1.67D-08 MaxDP=4.46D-07 DE=-1.89D-10 OVMax= 1.13D-06

 Cycle   9  Pass 1  IDiag  1:
 RMSU=  4.56D-09    CP:  1.00D+00  1.18D+00  9.14D-01  1.29D+00  1.14D+00
                    CP:  1.21D+00  1.00D+00  1.29D+00
 FoFJK:  IHMeth= 1 ICntrl=     0 DoSepK=T KAlg= 1 I1Cent= 0 FoldK=F
 E= -2905.42981329857     Delta-E=        0.000000000002 Rises=F Damp=F
 DIIS: error= 4.46D-08 at cycle   9 NSaved=   9.
 NSaved= 9 IEnMin= 8 EnMin= -2905.42981329858     IErMin= 9 ErrMin= 4.46D-08
 ErrMax= 4.46D-08 EMaxC= 1.00D-01 BMatC= 2.65D-13 BMatP= 1.86D-12
 IDIUse=1 WtCom= 1.00D+00 WtEn= 0.00D+00
 Coeff-Com:  0.286D-05-0.675D-03 0.260D-04 0.633D-02 0.916D-02-0.457D-01
 Coeff-Com: -0.771D-01 0.142D+00 0.966D+00
 Coeff:      0.286D-05-0.675D-03 0.260D-04 0.633D-02 0.916D-02-0.457D-01
 Coeff:     -0.771D-01 0.142D+00 0.966D+00
 Gap=     0.429 Goal=   None    Shift=    0.000
 RMSDP=6.78D-09 MaxDP=1.54D-07 DE= 2.27D-12 OVMax= 5.18D-07

 SCF Done:  E(RwB97XD) =  -2905.42981330     A.U. after    9 cycles
             Convg  =    0.6782D-08             -V/T =  2.0016
 KE= 2.900883957554D+03 PE=-7.226776498975D+03 EE= 1.275715955101D+03
 Leave Link  502 at Fri Jan 17 14:01:34 2020, MaxMem=  536870912 cpu:     153.4
 (Enter /home/matheus/.gaussian/g09/l108.exe)
 Variable Step   Value    
 -------- ---- -----------
     1       3    6.236096
 Leave Link  108 at Fri Jan 17 14:01:34 2020, MaxMem=  536870912 cpu:       0.0
 (Enter /home/matheus/.gaussian/g09/l202.exe)
 ---------------------------------------------------------------------------------------------------
                            Z-MATRIX (ANGSTROMS AND DEGREES)
   CD    Cent   Atom    N1       Length/X        N2       Alpha/Y        N3        Beta/Z          J
 ---------------------------------------------------------------------------------------------------
      1      1  O        0   0.000000          0.000000          0.725000
      2      2  O        0   0.000000          0.000000         -0.725000
      3      3  H        0   0.159534          0.904763          1.023510
      4      4  H        0   0.000000          0.918721         -1.023510
      5      5  Kr       0   0.000000          3.300000          0.000000
 ---------------------------------------------------------------------------------------------------
                         Z-Matrix orientation:                         
 ---------------------------------------------------------------------
 Center     Atomic      Atomic             Coordinates (Angstroms)
 Number     Number       Type             X           Y           Z
 ---------------------------------------------------------------------
      1          8           0        0.000000    0.000000    0.725000
      2          8           0        0.000000    0.000000   -0.725000
      3          1           0        0.159534    0.904763    1.023510
      4          1           0        0.000000    0.918721   -1.023510
      5         36           0        0.000000    3.300000    0.000000
 ---------------------------------------------------------------------
                    Distance matrix (angstroms):
                    1          2          3          4          5
     1  O    0.000000
     2  O    1.450000   0.000000
     3  H    0.966000   1.975180   0.000000
     4  H    1.975180   0.966000   2.053275   0.000000
     5  Kr   3.378702   3.378702   2.609633   2.591923   0.000000
 Stoichiometry    H2KrO2
 Framework group  C1[X(H2KrO2)]
 Deg. of freedom     9
 Full point group                 C1      NOp   1
 RotChk:  IX=0 Diff= 3.03D-05
 Largest Abelian subgroup         C1      NOp   1
 Largest concise Abelian subgroup C1      NOp   1
                         Standard orientation:                         
 ---------------------------------------------------------------------
 Center     Atomic      Atomic             Coordinates (Angstroms)
 Number     Number       Type             X           Y           Z
 ---------------------------------------------------------------------
      1          8           0        2.233853   -0.724521   -0.018051
      2          8           0        2.233667    0.725303    0.004528
      3          1           0        1.329401   -1.025619    0.138357
      4          1           0        1.314910    1.023636    0.010742
      5         36           0       -1.066235   -0.000119   -0.001136
 ---------------------------------------------------------------------
 Rotational constants (GHZ):     26.6670906      1.9697910      1.8346155
 Leave Link  202 at Fri Jan 17 14:01:34 2020, MaxMem=  536870912 cpu:       0.0
 (Enter /home/matheus/.gaussian/g09/l301.exe)
 Standard basis: Aug-CC-pVTZ (5D, 7F)
 Ernie: Thresh=  0.10000D-02 Tol=  0.10000D-05 Strict=F.
 Ernie:  38 primitive shells out of 205 were deleted.
 There are   197 symmetry adapted basis functions of A   symmetry.
 Integral buffers will be    131072 words long.
 Raffenetti 2 integral format.
 Two-electron integral symmetry is turned on.
   197 basis functions,   415 primitive gaussians,   229 cartesian basis functions
    27 alpha electrons       27 beta electrons
       nuclear repulsion energy       141.5298533775 Hartrees.
 IExCor= 4639 DFT=T Ex+Corr=wB97XD ExCW=0 ScaHFX=  1.000000
 ScaDFX=  1.000000  1.000000  1.000000  1.000000 ScalE2=  1.000000  1.000000
 IRadAn=      5 IRanWt=     -1 IRanGd=            0 ICorTp=0
  HFx wShort=  0.000000 wLong=  0.330000 cFull=  0.222036 cShort=  0.000000 cLong=  0.777964
  DFx wShort=  0.000000 wLong=  0.330000 cFull=  0.000000 cShort=  0.000000 cLong=  1.000000
 NAtoms=    5 NActive=    5 NUniq=    5 SFac= 1.00D+00 NAtFMM=   60 NAOKFM=F Big=F
 R6Disp: Dispersion energy =        -0.0010070069 Hartrees.
 Nuclear repulsion after empirical dispersion term =      141.5288463706 Hartrees.
 Leave Link  301 at Fri Jan 17 14:01:34 2020, MaxMem=  536870912 cpu:       0.1
 (Enter /home/matheus/.gaussian/g09/l302.exe)
 NPDir=0 NMtPBC=     1 NCelOv=     1 NCel=       1 NClECP=     1 NCelD=      1
         NCelK=      1 NCelE2=     1 NClLst=     1 CellRange=     0.0.
 One-electron integrals computed using PRISM.
 NBasis=   197 RedAO= T  NBF=   197
 NBsUse=   197 1.00D-06 NBFU=   197
 Precomputing XC quadrature grid using
 IXCGrd= 2 IRadAn=           5 IRanWt=          -1 IRanGd=           0 AccXCQ= 0.00D+00.
 NRdTot=     427 NPtTot=      123512 NUsed=      126579 NTot=      126611
 NSgBfM=   229   229   229   229   229 NAtAll=     5     5.
 Leave Link  302 at Fri Jan 17 14:01:34 2020, MaxMem=  536870912 cpu:       0.4
 (Enter /home/matheus/.gaussian/g09/l303.exe)
 DipDrv:  MaxL=1.
 Leave Link  303 at Fri Jan 17 14:01:34 2020, MaxMem=  536870912 cpu:       0.1
 (Enter /home/matheus/.gaussian/g09/l401.exe)
 Initial guess read from the read-write file.
 B after Tr=     0.000000    0.000000    0.000000
         Rot=    1.000000    0.000000    0.000000    0.000000 Ang=   0.00 deg.
 Guess basis will be translated and rotated to current coordinates.
 Initial guess orbital symmetries:
       Occupied  (A) (A) (A) (A) (A) (A) (A) (A) (A) (A) (A) (A)
                 (A) (A) (A) (A) (A) (A) (A) (A) (A) (A) (A) (A)
                 (A) (A) (A)
       Virtual   (A) (A) (A) (A) (A) (A) (A) (A) (A) (A) (A) (A)
                 (A) (A) (A) (A) (A) (A) (A) (A) (A) (A) (A) (A)
                 (A) (A) (A) (A) (A) (A) (A) (A) (A) (A) (A) (A)
                 (A) (A) (A) (A) (A) (A) (A) (A) (A) (A) (A) (A)
                 (A) (A) (A) (A) (A) (A) (A) (A) (A) (A) (A) (A)
                 (A) (A) (A) (A) (A) (A) (A) (A) (A) (A) (A) (A)
                 (A) (A) (A) (A) (A) (A) (A) (A) (A) (A) (A) (A)
                 (A) (A) (A) (A) (A) (A) (A) (A) (A) (A) (A) (A)
                 (A) (A) (A) (A) (A) (A) (A) (A) (A) (A) (A) (A)
                 (A) (A) (A) (A) (A) (A) (A) (A) (A) (A) (A) (A)
                 (A) (A) (A) (A) (A) (A) (A) (A) (A) (A) (A) (A)
                 (A) (A) (A) (A) (A) (A) (A) (A) (A) (A) (A) (A)
                 (A) (A) (A) (A) (A) (A) (A) (A) (A) (A) (A) (A)
                 (A) (A) (A) (A) (A) (A) (A) (A) (A) (A) (A) (A)
                 (A) (A)
 The electronic state of the initial guess is 1-A.
 Generating alternative initial guess.
 Harris functional with IExCor= 4639 diagonalized for initial guess.
 ExpMin= 2.53D-02 ExpMax= 1.17D+07 ExpMxC= 1.33D+04 IAcc=3 IRadAn=         5 AccDes= 0.00D+00
 HarFok:  IExCor= 4639 AccDes= 0.00D+00 IRadAn=         5 IDoV= 1
 ScaDFX=  1.000000  1.000000  1.000000  1.000000
 FoFCou: FMM=F IPFlag=           0 FMFlag=      100000 FMFlg1=           0
         NFxFlg=           0 DoJE=T BraDBF=F KetDBF=T FulRan=T
         Omega=  0.000000  0.000000  1.000000  0.000000  0.000000 ICntrl=     500 IOpCl=  0
         NMat0=    1 NMatS0=    1 NMatT0=    0 NMatD0=    1 NMtDS0=    0 NMtDT0=    0
         I1Cent=           4 NGrid=           0.
 Petite list used in FoFCou.
 Harris En= -2873.73028261591    
 Leave Link  401 at Fri Jan 17 14:01:35 2020, MaxMem=  536870912 cpu:       2.8
 (Enter /home/matheus/.gaussian/g09/l502.exe)
 Closed shell SCF:
 Requested convergence on RMS density matrix=1.00D-08 within 128 cycles.
 Requested convergence on MAX density matrix=1.00D-06.
 Requested convergence on             energy=1.00D-06.
 No special actions if energy rises.
 Using DIIS extrapolation, IDIIS=  1040.
 Integral symmetry usage will be decided dynamically.
       126521 words used for storage of precomputed grid.
 IEnd=      305010 IEndB=      305010 NGot=   536870912 MDV=   536635213
 LenX=   536635213 LenY=   536582331
 Fock matrices will be formed incrementally for  20 cycles.

 Cycle   1  Pass 1  IDiag  1:
 FoFJK:  IHMeth= 1 ICntrl=     0 DoSepK=T KAlg= 1 I1Cent= 0 FoldK=F
 FoFCou: FMM=F IPFlag=           0 FMFlag=      100000 FMFlg1=           0
         NFxFlg=           0 DoJE=T BraDBF=F KetDBF=F FulRan=T
         Omega=  0.000000  0.000000  1.000000  0.000000  0.000000 ICntrl=     500 IOpCl=  0
         NMat0=    1 NMatS0=    1 NMatT0=    0 NMatD0=    1 NMtDS0=    0 NMtDT0=    0
         I1Cent=           0 NGrid=           0.
 Symmetry not used in FoFCou.
 E= -2905.43084835649    
 DIIS: error= 2.10D-03 at cycle   1 NSaved=   1.
 NSaved= 1 IEnMin= 1 EnMin= -2905.43084835649     IErMin= 1 ErrMin= 2.10D-03
 ErrMax= 2.10D-03 EMaxC= 1.00D-01 BMatC= 6.44D-04 BMatP= 6.44D-04
 IDIUse=3 WtCom= 9.79D-01 WtEn= 2.10D-02
 Coeff-Com:  0.100D+01
 Coeff-En:   0.100D+01
 Coeff:      0.100D+01
 Gap=     0.432 Goal=   None    Shift=    0.000
 GapD=    0.432 DampG=2.000 DampE=1.000 DampFc=2.0000 IDamp=-1.
 RMSDP=6.53D-05 MaxDP=1.60D-03              OVMax= 2.78D-03

 Cycle   2  Pass 1  IDiag  1:
 RMSU=  4.62D-05    CP:  1.00D+00
 FoFJK:  IHMeth= 1 ICntrl=     0 DoSepK=T KAlg= 1 I1Cent= 0 FoldK=F
 E= -2905.43094081270     Delta-E=       -0.000092456210 Rises=F Damp=F
 DIIS: error= 1.63D-04 at cycle   2 NSaved=   2.
 NSaved= 2 IEnMin= 2 EnMin= -2905.43094081270     IErMin= 2 ErrMin= 1.63D-04
 ErrMax= 1.63D-04 EMaxC= 1.00D-01 BMatC= 2.96D-06 BMatP= 6.44D-04
 IDIUse=3 WtCom= 9.98D-01 WtEn= 1.63D-03
 Coeff-Com: -0.631D-02 0.101D+01
 Coeff-En:   0.000D+00 0.100D+01
 Coeff:     -0.630D-02 0.101D+01
 Gap=     0.429 Goal=   None    Shift=    0.000
 RMSDP=1.31D-05 MaxDP=3.62D-04 DE=-9.25D-05 OVMax= 7.23D-04

 Cycle   3  Pass 1  IDiag  1:
 RMSU=  6.96D-06    CP:  1.00D+00  1.13D+00
 FoFJK:  IHMeth= 1 ICntrl=     0 DoSepK=T KAlg= 1 I1Cent= 0 FoldK=F
 E= -2905.43094386328     Delta-E=       -0.000003050580 Rises=F Damp=F
 DIIS: error= 8.09D-05 at cycle   3 NSaved=   3.
 NSaved= 3 IEnMin= 3 EnMin= -2905.43094386328     IErMin= 3 ErrMin= 8.09D-05
 ErrMax= 8.09D-05 EMaxC= 1.00D-01 BMatC= 1.14D-06 BMatP= 2.96D-06
 IDIUse=1 WtCom= 1.00D+00 WtEn= 0.00D+00
 Coeff-Com: -0.587D-02 0.362D+00 0.644D+00
 Coeff:     -0.587D-02 0.362D+00 0.644D+00
 Gap=     0.429 Goal=   None    Shift=    0.000
 RMSDP=4.36D-06 MaxDP=1.29D-04 DE=-3.05D-06 OVMax= 2.06D-04

 Cycle   4  Pass 1  IDiag  1:
 RMSU=  2.58D-06    CP:  1.00D+00  1.16D+00  8.31D-01
 FoFJK:  IHMeth= 1 ICntrl=     0 DoSepK=T KAlg= 1 I1Cent= 0 FoldK=F
 E= -2905.43094466607     Delta-E=       -0.000000802784 Rises=F Damp=F
 DIIS: error= 2.00D-05 at cycle   4 NSaved=   4.
 NSaved= 4 IEnMin= 4 EnMin= -2905.43094466607     IErMin= 4 ErrMin= 2.00D-05
 ErrMax= 2.00D-05 EMaxC= 1.00D-01 BMatC= 5.75D-08 BMatP= 1.14D-06
 IDIUse=1 WtCom= 1.00D+00 WtEn= 0.00D+00
 Coeff-Com:  0.515D-04-0.785D-01 0.878D-01 0.991D+00
 Coeff:      0.515D-04-0.785D-01 0.878D-01 0.991D+00
 Gap=     0.429 Goal=   None    Shift=    0.000
 RMSDP=1.84D-06 MaxDP=5.32D-05 DE=-8.03D-07 OVMax= 1.05D-04

 Cycle   5  Pass 1  IDiag  1:
 RMSU=  5.23D-07    CP:  1.00D+00  1.17D+00  9.60D-01  1.20D+00
 FoFJK:  IHMeth= 1 ICntrl=     0 DoSepK=T KAlg= 1 I1Cent= 0 FoldK=F
 E= -2905.43094473480     Delta-E=       -0.000000068739 Rises=F Damp=F
 DIIS: error= 3.80D-06 at cycle   5 NSaved=   5.
 NSaved= 5 IEnMin= 5 EnMin= -2905.43094473480     IErMin= 5 ErrMin= 3.80D-06
 ErrMax= 3.80D-06 EMaxC= 1.00D-01 BMatC= 3.08D-09 BMatP= 5.75D-08
 IDIUse=1 WtCom= 1.00D+00 WtEn= 0.00D+00
 Coeff-Com:  0.269D-03-0.379D-01-0.329D-02 0.257D+00 0.784D+00
 Coeff:      0.269D-03-0.379D-01-0.329D-02 0.257D+00 0.784D+00
 Gap=     0.429 Goal=   None    Shift=    0.000
 RMSDP=3.43D-07 MaxDP=8.47D-06 DE=-6.87D-08 OVMax= 2.08D-05

 Cycle   6  Pass 1  IDiag  1:
 RMSU=  1.28D-07    CP:  1.00D+00  1.17D+00  9.77D-01  1.26D+00  1.04D+00
 FoFJK:  IHMeth= 1 ICntrl=     0 DoSepK=T KAlg= 1 I1Cent= 0 FoldK=F
 E= -2905.43094473839     Delta-E=       -0.000000003589 Rises=F Damp=F
 DIIS: error= 1.23D-06 at cycle   6 NSaved=   6.
 NSaved= 6 IEnMin= 6 EnMin= -2905.43094473839     IErMin= 6 ErrMin= 1.23D-06
 ErrMax= 1.23D-06 EMaxC= 1.00D-01 BMatC= 3.78D-10 BMatP= 3.08D-09
 IDIUse=1 WtCom= 1.00D+00 WtEn= 0.00D+00
 Coeff-Com:  0.725D-04-0.569D-02-0.540D-02 0.101D-01 0.214D+00 0.787D+00
 Coeff:      0.725D-04-0.569D-02-0.540D-02 0.101D-01 0.214D+00 0.787D+00
 Gap=     0.429 Goal=   None    Shift=    0.000
 RMSDP=1.03D-07 MaxDP=4.66D-06 DE=-3.59D-09 OVMax= 8.52D-06

 Cycle   7  Pass 1  IDiag  1:
 RMSU=  5.18D-08    CP:  1.00D+00  1.17D+00  9.81D-01  1.27D+00  1.11D+00
                    CP:  1.04D+00
 FoFJK:  IHMeth= 1 ICntrl=     0 DoSepK=T KAlg= 1 I1Cent= 0 FoldK=F
 E= -2905.43094473876     Delta-E=       -0.000000000363 Rises=F Damp=F
 DIIS: error= 7.93D-07 at cycle   7 NSaved=   7.
 NSaved= 7 IEnMin= 7 EnMin= -2905.43094473876     IErMin= 7 ErrMin= 7.93D-07
 ErrMax= 7.93D-07 EMaxC= 1.00D-01 BMatC= 1.51D-10 BMatP= 3.78D-10
 IDIUse=1 WtCom= 1.00D+00 WtEn= 0.00D+00
 Coeff-Com: -0.349D-04 0.740D-02-0.170D-02-0.650D-01-0.101D+00 0.419D+00
 Coeff-Com:  0.741D+00
 Coeff:     -0.349D-04 0.740D-02-0.170D-02-0.650D-01-0.101D+00 0.419D+00
 Coeff:      0.741D+00
 Gap=     0.429 Goal=   None    Shift=    0.000
 RMSDP=5.18D-08 MaxDP=2.56D-06 DE=-3.63D-10 OVMax= 4.36D-06

 Cycle   8  Pass 1  IDiag  1:
 RMSU=  2.03D-08    CP:  1.00D+00  1.17D+00  9.82D-01  1.27D+00  1.14D+00
                    CP:  1.21D+00  9.29D-01
 FoFJK:  IHMeth= 1 ICntrl=     0 DoSepK=T KAlg= 1 I1Cent= 0 FoldK=F
 E= -2905.43094473889     Delta-E=       -0.000000000135 Rises=F Damp=F
 DIIS: error= 8.13D-08 at cycle   8 NSaved=   8.
 NSaved= 8 IEnMin= 8 EnMin= -2905.43094473889     IErMin= 8 ErrMin= 8.13D-08
 ErrMax= 8.13D-08 EMaxC= 1.00D-01 BMatC= 1.04D-12 BMatP= 1.51D-10
 IDIUse=1 WtCom= 1.00D+00 WtEn= 0.00D+00
 Coeff-Com: -0.510D-06-0.288D-03 0.258D-03 0.415D-02-0.180D-03-0.569D-01
 Coeff-Com: -0.531D-01 0.111D+01
 Coeff:     -0.510D-06-0.288D-03 0.258D-03 0.415D-02-0.180D-03-0.569D-01
 Coeff:     -0.531D-01 0.111D+01
 Gap=     0.429 Goal=   None    Shift=    0.000
 RMSDP=1.57D-08 MaxDP=4.26D-07 DE=-1.35D-10 OVMax= 1.01D-06

 Cycle   9  Pass 1  IDiag  1:
 RMSU=  3.54D-09    CP:  1.00D+00  1.17D+00  9.82D-01  1.27D+00  1.14D+00
                    CP:  1.22D+00  1.01D+00  1.31D+00
 FoFJK:  IHMeth= 1 ICntrl=     0 DoSepK=T KAlg= 1 I1Cent= 0 FoldK=F
 E= -2905.43094473889     Delta-E=        0.000000000003 Rises=F Damp=F
 DIIS: error= 3.16D-08 at cycle   9 NSaved=   9.
 NSaved= 9 IEnMin= 8 EnMin= -2905.43094473889     IErMin= 9 ErrMin= 3.16D-08
 ErrMax= 3.16D-08 EMaxC= 1.00D-01 BMatC= 1.21D-13 BMatP= 1.04D-12
 IDIUse=1 WtCom= 1.00D+00 WtEn= 0.00D+00
 Coeff-Com:  0.252D-05-0.574D-03 0.144D-03 0.521D-02 0.737D-02-0.377D-01
 Coeff-Com: -0.617D-01 0.121D+00 0.966D+00
 Coeff:      0.252D-05-0.574D-03 0.144D-03 0.521D-02 0.737D-02-0.377D-01
 Coeff:     -0.617D-01 0.121D+00 0.966D+00
 Gap=     0.429 Goal=   None    Shift=    0.000
 RMSDP=4.39D-09 MaxDP=9.47D-08 DE= 2.73D-12 OVMax= 3.76D-07

 SCF Done:  E(RwB97XD) =  -2905.43094474     A.U. after    9 cycles
             Convg  =    0.4389D-08             -V/T =  2.0016
 KE= 2.900877078775D+03 PE=-7.220389010566D+03 EE= 1.272552140682D+03
 Leave Link  502 at Fri Jan 17 14:02:12 2020, MaxMem=  536870912 cpu:     150.3
 (Enter /home/matheus/.gaussian/g09/l108.exe)
 Variable Step   Value    
 -------- ---- -----------
     1       4    6.425069
 Leave Link  108 at Fri Jan 17 14:02:12 2020, MaxMem=  536870912 cpu:       0.0
 (Enter /home/matheus/.gaussian/g09/l202.exe)
 ---------------------------------------------------------------------------------------------------
                            Z-MATRIX (ANGSTROMS AND DEGREES)
   CD    Cent   Atom    N1       Length/X        N2       Alpha/Y        N3        Beta/Z          J
 ---------------------------------------------------------------------------------------------------
      1      1  O        0   0.000000          0.000000          0.725000
      2      2  O        0   0.000000          0.000000         -0.725000
      3      3  H        0   0.159534          0.904763          1.023510
      4      4  H        0   0.000000          0.918721         -1.023510
      5      5  Kr       0   0.000000          3.400000          0.000000
 ---------------------------------------------------------------------------------------------------
                         Z-Matrix orientation:                         
 ---------------------------------------------------------------------
 Center     Atomic      Atomic             Coordinates (Angstroms)
 Number     Number       Type             X           Y           Z
 ---------------------------------------------------------------------
      1          8           0        0.000000    0.000000    0.725000
      2          8           0        0.000000    0.000000   -0.725000
      3          1           0        0.159534    0.904763    1.023510
      4          1           0        0.000000    0.918721   -1.023510
      5         36           0        0.000000    3.400000    0.000000
 ---------------------------------------------------------------------
                    Distance matrix (angstroms):
                    1          2          3          4          5
[...]
 IDIUse=1 WtCom= 1.00D+00 WtEn= 0.00D+00
 Coeff-Com:  0.488D-02 0.995D+00
 Coeff:      0.488D-02 0.995D+00
 Gap=     0.426 Goal=   None    Shift=    0.000
 RMSDP=1.77D-06 MaxDP=5.68D-05 DE=-1.39D-06 OVMax= 1.35D-04

 Cycle   3  Pass 1  IDiag  1:
 RMSU=  9.75D-07    CP:  1.00D+00  1.07D+00
 FoFJK:  IHMeth= 1 ICntrl=     0 DoSepK=T KAlg= 1 I1Cent= 0 FoldK=F
 E= -2905.43053232573     Delta-E=       -0.000000066191 Rises=F Damp=F
 DIIS: error= 7.37D-06 at cycle   3 NSaved=   3.
 NSaved= 3 IEnMin= 3 EnMin= -2905.43053232573     IErMin= 3 ErrMin= 7.37D-06
 ErrMax= 7.37D-06 EMaxC= 1.00D-01 BMatC= 7.67D-09 BMatP= 5.32D-08
 IDIUse=1 WtCom= 1.00D+00 WtEn= 0.00D+00
 Coeff-Com: -0.699D-02 0.233D+00 0.774D+00
 Coeff:     -0.699D-02 0.233D+00 0.774D+00
 Gap=     0.426 Goal=   None    Shift=    0.000
 RMSDP=3.85D-07 MaxDP=1.52D-05 DE=-6.62D-08 OVMax= 4.46D-05

 Cycle   4  Pass 1  IDiag  1:
 RMSU=  2.53D-07    CP:  1.00D+00  1.08D+00  1.04D+00
 FoFJK:  IHMeth= 1 ICntrl=     0 DoSepK=T KAlg= 1 I1Cent= 0 FoldK=F
 E= -2905.43053233419     Delta-E=       -0.000000008453 Rises=F Damp=F
 DIIS: error= 1.54D-06 at cycle   4 NSaved=   4.
 NSaved= 4 IEnMin= 4 EnMin= -2905.43053233419     IErMin= 4 ErrMin= 1.54D-06
 ErrMax= 1.54D-06 EMaxC= 1.00D-01 BMatC= 4.38D-10 BMatP= 7.67D-09
 IDIUse=1 WtCom= 1.00D+00 WtEn= 0.00D+00
 Coeff-Com: -0.349D-03-0.525D-01 0.617D-02 0.105D+01
 Coeff:     -0.349D-03-0.525D-01 0.617D-02 0.105D+01
 Gap=     0.426 Goal=   None    Shift=    0.000
 RMSDP=2.28D-07 MaxDP=1.10D-05 DE=-8.45D-09 OVMax= 2.13D-05

 Cycle   5  Pass 1  IDiag  1:
 RMSU=  7.46D-08    CP:  1.00D+00  1.08D+00  1.16D+00  1.31D+00
 FoFJK:  IHMeth= 1 ICntrl=     0 DoSepK=T KAlg= 1 I1Cent= 0 FoldK=F
 E= -2905.43053233505     Delta-E=       -0.000000000863 Rises=F Damp=F
 DIIS: error= 9.84D-07 at cycle   5 NSaved=   5.
 NSaved= 5 IEnMin= 5 EnMin= -2905.43053233505     IErMin= 5 ErrMin= 9.84D-07
 ErrMax= 9.84D-07 EMaxC= 1.00D-01 BMatC= 1.23D-10 BMatP= 4.38D-10
 IDIUse=1 WtCom= 1.00D+00 WtEn= 0.00D+00
 Coeff-Com:  0.576D-03-0.447D-01-0.783D-01 0.418D+00 0.704D+00
 Coeff:      0.576D-03-0.447D-01-0.783D-01 0.418D+00 0.704D+00
 Gap=     0.426 Goal=   None    Shift=    0.000
 RMSDP=6.11D-08 MaxDP=3.07D-06 DE=-8.63D-10 OVMax= 5.44D-06

 Cycle   6  Pass 1  IDiag  1:
 RMSU=  2.22D-08    CP:  1.00D+00  1.08D+00  1.19D+00  1.42D+00  9.31D-01
 FoFJK:  IHMeth= 1 ICntrl=     0 DoSepK=T KAlg= 1 I1Cent= 0 FoldK=F
 E= -2905.43053233518     Delta-E=       -0.000000000132 Rises=F Damp=F
 DIIS: error= 1.28D-07 at cycle   6 NSaved=   6.
 NSaved= 6 IEnMin= 6 EnMin= -2905.43053233518     IErMin= 6 ErrMin= 1.28D-07
 ErrMax= 1.28D-07 EMaxC= 1.00D-01 BMatC= 1.87D-12 BMatP= 1.23D-10
 IDIUse=1 WtCom= 1.00D+00 WtEn= 0.00D+00
 Coeff-Com:  0.350D-05 0.548D-02 0.724D-03-0.788D-01-0.174D-01 0.109D+01
 Coeff:      0.350D-05 0.548D-02 0.724D-03-0.788D-01-0.174D-01 0.109D+01
 Gap=     0.426 Goal=   None    Shift=    0.000
 RMSDP=2.00D-08 MaxDP=1.03D-06 DE=-1.32D-10 OVMax= 1.68D-06

 Cycle   7  Pass 1  IDiag  1:
 RMSU=  4.09D-09    CP:  1.00D+00  1.08D+00  1.19D+00  1.46D+00  1.01D+00
                    CP:  1.25D+00
 FoFJK:  IHMeth= 1 ICntrl=     0 DoSepK=T KAlg= 1 I1Cent= 0 FoldK=F
 E= -2905.43053233520     Delta-E=       -0.000000000017 Rises=F Damp=F
 DIIS: error= 3.91D-08 at cycle   7 NSaved=   7.
 NSaved= 7 IEnMin= 7 EnMin= -2905.43053233520     IErMin= 7 ErrMin= 3.91D-08
 ErrMax= 3.91D-08 EMaxC= 1.00D-01 BMatC= 2.71D-13 BMatP= 1.87D-12
 IDIUse=1 WtCom= 1.00D+00 WtEn= 0.00D+00
 Coeff-Com: -0.223D-04 0.378D-02 0.318D-02-0.448D-01-0.340D-01 0.390D+00
 Coeff-Com:  0.682D+00
 Coeff:     -0.223D-04 0.378D-02 0.318D-02-0.448D-01-0.340D-01 0.390D+00
 Coeff:      0.682D+00
 Gap=     0.426 Goal=   None    Shift=    0.000
 RMSDP=2.51D-09 MaxDP=1.25D-07 DE=-1.73D-11 OVMax= 1.88D-07

 SCF Done:  E(RwB97XD) =  -2905.43053234     A.U. after    7 cycles
             Convg  =    0.2508D-08             -V/T =  2.0016
 KE= 2.900895888122D+03 PE=-7.152884924298D+03 EE= 1.239107743515D+03
 Leave Link  502 at Fri Jan 17 14:10:08 2020, MaxMem=  536870912 cpu:      92.5
 (Enter /home/matheus/.gaussian/g09/l108.exe)
 Variable Step   Value    
 -------- ---- -----------
     1      20    9.448631
 Leave Link  108 at Fri Jan 17 14:10:08 2020, MaxMem=  536870912 cpu:       0.0
 (Enter /home/matheus/.gaussian/g09/l202.exe)
 ---------------------------------------------------------------------------------------------------
                            Z-MATRIX (ANGSTROMS AND DEGREES)
   CD    Cent   Atom    N1       Length/X        N2       Alpha/Y        N3        Beta/Z          J
 ---------------------------------------------------------------------------------------------------
      1      1  O        0   0.000000          0.000000          0.725000
      2      2  O        0   0.000000          0.000000         -0.725000
      3      3  H        0   0.159534          0.904763          1.023510
      4      4  H        0   0.000000          0.918721         -1.023510
      5      5  Kr       0   0.000000          5.000000          0.000000
 ---------------------------------------------------------------------------------------------------
                         Z-Matrix orientation:                         
 ---------------------------------------------------------------------
 Center     Atomic      Atomic             Coordinates (Angstroms)
 Number     Number       Type             X           Y           Z
 ---------------------------------------------------------------------
      1          8           0        0.000000    0.000000    0.725000
      2          8           0        0.000000    0.000000   -0.725000
      3          1           0        0.159534    0.904763    1.023510
      4          1           0        0.000000    0.918721   -1.023510
      5         36           0        0.000000    5.000000    0.000000
 ---------------------------------------------------------------------
                    Distance matrix (angstroms):
                    1          2          3          4          5
     1  O    0.000000
     2  O    1.450000   0.000000
     3  H    0.966000   1.975180   0.000000
     4  H    1.975180   0.966000   2.053275   0.000000
     5  Kr   5.052289   5.052289   4.224215   4.207661   0.000000
 Stoichiometry    H2KrO2
 Framework group  C1[X(H2KrO2)]
 Deg. of freedom     9
 Full point group                 C1      NOp   1
 RotChk:  IX=0 Diff= 2.65D-05
 Largest Abelian subgroup         C1      NOp   1
 Largest concise Abelian subgroup C1      NOp   1
                         Standard orientation:                         
 ---------------------------------------------------------------------
 Center     Atomic      Atomic             Coordinates (Angstroms)
 Number     Number       Type             X           Y           Z
 ---------------------------------------------------------------------
      1          8           0        3.367132   -0.724620   -0.018811
      2          8           0        3.367057    0.725204    0.003769
      3          1           0        2.462602   -1.025644    0.137283
      4          1           0        2.448321    1.023611    0.009663
      5         36           0       -1.632901   -0.000073   -0.000739
 ---------------------------------------------------------------------
 Rotational constants (GHZ):     26.6672245      0.8514319      0.8251523
 Leave Link  202 at Fri Jan 17 14:10:08 2020, MaxMem=  536870912 cpu:       0.0
 (Enter /home/matheus/.gaussian/g09/l301.exe)
 Standard basis: Aug-CC-pVTZ (5D, 7F)
 Ernie: Thresh=  0.10000D-02 Tol=  0.10000D-05 Strict=F.
 Ernie:  38 primitive shells out of 205 were deleted.
 There are   197 symmetry adapted basis functions of A   symmetry.
 Integral buffers will be    131072 words long.
 Raffenetti 2 integral format.
 Two-electron integral symmetry is turned on.
   197 basis functions,   415 primitive gaussians,   229 cartesian basis functions
    27 alpha electrons       27 beta electrons
       nuclear repulsion energy       106.0336057185 Hartrees.
 IExCor= 4639 DFT=T Ex+Corr=wB97XD ExCW=0 ScaHFX=  1.000000
 ScaDFX=  1.000000  1.000000  1.000000  1.000000 ScalE2=  1.000000  1.000000
 IRadAn=      5 IRanWt=     -1 IRanGd=            0 ICorTp=0
  HFx wShort=  0.000000 wLong=  0.330000 cFull=  0.222036 cShort=  0.000000 cLong=  0.777964
  DFx wShort=  0.000000 wLong=  0.330000 cFull=  0.000000 cShort=  0.000000 cLong=  1.000000
 NAtoms=    5 NActive=    5 NUniq=    5 SFac= 1.00D+00 NAtFMM=   60 NAOKFM=F Big=F
 R6Disp: Dispersion energy =        -0.0005208458 Hartrees.
 Nuclear repulsion after empirical dispersion term =      106.0330848727 Hartrees.
 Leave Link  301 at Fri Jan 17 14:10:08 2020, MaxMem=  536870912 cpu:       0.1
 (Enter /home/matheus/.gaussian/g09/l302.exe)
 NPDir=0 NMtPBC=     1 NCelOv=     1 NCel=       1 NClECP=     1 NCelD=      1
         NCelK=      1 NCelE2=     1 NClLst=     1 CellRange=     0.0.
 One-electron integrals computed using PRISM.
 NBasis=   197 RedAO= T  NBF=   197
 NBsUse=   197 1.00D-06 NBFU=   197
 Precomputing XC quadrature grid using
 IXCGrd= 2 IRadAn=           5 IRanWt=          -1 IRanGd=           0 AccXCQ= 0.00D+00.
 NRdTot=     427 NPtTot=      123814 NUsed=      126881 NTot=      126913
 NSgBfM=   228   228   229   229   229 NAtAll=     5     5.
 Leave Link  302 at Fri Jan 17 14:10:08 2020, MaxMem=  536870912 cpu:       0.5
 (Enter /home/matheus/.gaussian/g09/l303.exe)
 DipDrv:  MaxL=1.
 Leave Link  303 at Fri Jan 17 14:10:08 2020, MaxMem=  536870912 cpu:       0.1
 (Enter /home/matheus/.gaussian/g09/l401.exe)
 Initial guess read from the read-write file.
 B after Tr=     0.000000    0.000000    0.000000
         Rot=    1.000000    0.000000    0.000000    0.000000 Ang=   0.00 deg.
 Guess basis will be translated and rotated to current coordinates.
 Initial guess orbital symmetries:
       Occupied  (A) (A) (A) (A) (A) (A) (A) (A) (A) (A) (A) (A)
                 (A) (A) (A) (A) (A) (A) (A) (A) (A) (A) (A) (A)
                 (A) (A) (A)
       Virtual   (A) (A) (A) (A) (A) (A) (A) (A) (A) (A) (A) (A)
                 (A) (A) (A) (A) (A) (A) (A) (A) (A) (A) (A) (A)
                 (A) (A) (A) (A) (A) (A) (A) (A) (A) (A) (A) (A)
                 (A) (A) (A) (A) (A) (A) (A) (A) (A) (A) (A) (A)
                 (A) (A) (A) (A) (A) (A) (A) (A) (A) (A) (A) (A)
                 (A) (A) (A) (A) (A) (A) (A) (A) (A) (A) (A) (A)
                 (A) (A) (A) (A) (A) (A) (A) (A) (A) (A) (A) (A)
                 (A) (A) (A) (A) (A) (A) (A) (A) (A) (A) (A) (A)
                 (A) (A) (A) (A) (A) (A) (A) (A) (A) (A) (A) (A)
                 (A) (A) (A) (A) (A) (A) (A) (A) (A) (A) (A) (A)
                 (A) (A) (A) (A) (A) (A) (A) (A) (A) (A) (A) (A)
                 (A) (A) (A) (A) (A) (A) (A) (A) (A) (A) (A) (A)
                 (A) (A) (A) (A) (A) (A) (A) (A) (A) (A) (A) (A)
                 (A) (A) (A) (A) (A) (A) (A) (A) (A) (A) (A) (A)
                 (A) (A)
 The electronic state of the initial guess is 1-A.
 Generating alternative initial guess.
 Harris functional with IExCor= 4639 diagonalized for initial guess.
 ExpMin= 2.53D-02 ExpMax= 1.17D+07 ExpMxC= 1.33D+04 IAcc=3 IRadAn=         5 AccDes= 0.00D+00
 HarFok:  IExCor= 4639 AccDes= 0.00D+00 IRadAn=         5 IDoV= 1
 ScaDFX=  1.000000  1.000000  1.000000  1.000000
 FoFCou: FMM=F IPFlag=           0 FMFlag=      100000 FMFlg1=           0
         NFxFlg=           0 DoJE=T BraDBF=F KetDBF=T FulRan=T
         Omega=  0.000000  0.000000  1.000000  0.000000  0.000000 ICntrl=     500 IOpCl=  0
         NMat0=    1 NMatS0=    1 NMatT0=    0 NMatD0=    1 NMtDS0=    0 NMtDT0=    0
         I1Cent=           4 NGrid=           0.
 Petite list used in FoFCou.
 Harris En= -2873.73418175147    
 Leave Link  401 at Fri Jan 17 14:10:09 2020, MaxMem=  536870912 cpu:       2.4
 (Enter /home/matheus/.gaussian/g09/l502.exe)
 Closed shell SCF:
 Requested convergence on RMS density matrix=1.00D-08 within 128 cycles.
 Requested convergence on MAX density matrix=1.00D-06.
 Requested convergence on             energy=1.00D-06.
 No special actions if energy rises.
 Using DIIS extrapolation, IDIIS=  1040.
 Integral symmetry usage will be decided dynamically.
       126823 words used for storage of precomputed grid.
 IEnd=      305312 IEndB=      305312 NGot=   536870912 MDV=   536634911
 LenX=   536634911 LenY=   536582029
 Fock matrices will be formed incrementally for  20 cycles.

 Cycle   1  Pass 1  IDiag  1:
 FoFJK:  IHMeth= 1 ICntrl=     0 DoSepK=T KAlg= 1 I1Cent= 0 FoldK=F
 FoFCou: FMM=F IPFlag=           0 FMFlag=      100000 FMFlg1=           0
         NFxFlg=           0 DoJE=T BraDBF=F KetDBF=F FulRan=T
         Omega=  0.000000  0.000000  1.000000  0.000000  0.000000 ICntrl=     500 IOpCl=  0
         NMat0=    1 NMatS0=    1 NMatT0=    0 NMatD0=    1 NMtDS0=    0 NMtDT0=    0
         I1Cent=           0 NGrid=           0.
 Symmetry not used in FoFCou.
 E= -2905.43045161385    
 DIIS: error= 1.26D-04 at cycle   1 NSaved=   1.
 NSaved= 1 IEnMin= 1 EnMin= -2905.43045161385     IErMin= 1 ErrMin= 1.26D-04
 ErrMax= 1.26D-04 EMaxC= 1.00D-01 BMatC= 3.97D-06 BMatP= 3.97D-06
 IDIUse=3 WtCom= 9.99D-01 WtEn= 1.26D-03
 Coeff-Com:  0.100D+01
 Coeff-En:   0.100D+01
 Coeff:      0.100D+01
 Gap=     0.426 Goal=   None    Shift=    0.000
 RMSDP=1.21D-05 MaxDP=2.58D-04              OVMax= 5.62D-04

 Cycle   2  Pass 1  IDiag  1:
 RMSU=  8.53D-06    CP:  1.00D+00
 FoFJK:  IHMeth= 1 ICntrl=     0 DoSepK=T KAlg= 1 I1Cent= 0 FoldK=F
 E= -2905.43045277770     Delta-E=       -0.000001163852 Rises=F Damp=F
 DIIS: error= 2.40D-05 at cycle   2 NSaved=   2.
 NSaved= 2 IEnMin= 2 EnMin= -2905.43045277770     IErMin= 2 ErrMin= 2.40D-05
 ErrMax= 2.40D-05 EMaxC= 1.00D-01 BMatC= 4.48D-08 BMatP= 3.97D-06
 IDIUse=1 WtCom= 1.00D+00 WtEn= 0.00D+00
 Coeff-Com:  0.520D-02 0.995D+00
 Coeff:      0.520D-02 0.995D+00
 Gap=     0.426 Goal=   None    Shift=    0.000
 RMSDP=1.53D-06 MaxDP=4.92D-05 DE=-1.16D-06 OVMax= 1.23D-04

 Cycle   3  Pass 1  IDiag  1:
 RMSU=  9.13D-07    CP:  1.00D+00  1.07D+00
 FoFJK:  IHMeth= 1 ICntrl=     0 DoSepK=T KAlg= 1 I1Cent= 0 FoldK=F
 E= -2905.43045283259     Delta-E=       -0.000000054889 Rises=F Damp=F
 DIIS: error= 7.60D-06 at cycle   3 NSaved=   3.
 NSaved= 3 IEnMin= 3 EnMin= -2905.43045283259     IErMin= 3 ErrMin= 7.60D-06
 ErrMax= 7.60D-06 EMaxC= 1.00D-01 BMatC= 6.49D-09 BMatP= 4.48D-08
 IDIUse=1 WtCom= 1.00D+00 WtEn= 0.00D+00
 Coeff-Com: -0.667D-02 0.235D+00 0.772D+00
 Coeff:     -0.667D-02 0.235D+00 0.772D+00
 Gap=     0.426 Goal=   None    Shift=    0.000
 RMSDP=3.56D-07 MaxDP=1.35D-05 DE=-5.49D-08 OVMax= 4.02D-05

 Cycle   4  Pass 1  IDiag  1:
 RMSU=  2.33D-07    CP:  1.00D+00  1.08D+00  1.05D+00
 FoFJK:  IHMeth= 1 ICntrl=     0 DoSepK=T KAlg= 1 I1Cent= 0 FoldK=F
 E= -2905.43045283962     Delta-E=       -0.000000007030 Rises=F Damp=F
 DIIS: error= 1.68D-06 at cycle   4 NSaved=   4.
 NSaved= 4 IEnMin= 4 EnMin= -2905.43045283962     IErMin= 4 ErrMin= 1.68D-06
 ErrMax= 1.68D-06 EMaxC= 1.00D-01 BMatC= 3.59D-10 BMatP= 6.49D-09
 IDIUse=1 WtCom= 1.00D+00 WtEn= 0.00D+00
 Coeff-Com: -0.374D-03-0.500D-01 0.893D-02 0.104D+01
 Coeff:     -0.374D-03-0.500D-01 0.893D-02 0.104D+01
 Gap=     0.426 Goal=   None    Shift=    0.000
 RMSDP=2.17D-07 MaxDP=9.91D-06 DE=-7.03D-09 OVMax= 1.90D-05

 Cycle   5  Pass 1  IDiag  1:
 RMSU=  6.80D-08    CP:  1.00D+00  1.08D+00  1.17D+00  1.33D+00
 FoFJK:  IHMeth= 1 ICntrl=     0 DoSepK=T KAlg= 1 I1Cent= 0 FoldK=F
 E= -2905.43045284033     Delta-E=       -0.000000000714 Rises=F Damp=F
 DIIS: error= 8.83D-07 at cycle   5 NSaved=   5.
 NSaved= 5 IEnMin= 5 EnMin= -2905.43045284033     IErMin= 5 ErrMin= 8.83D-07
 ErrMax= 8.83D-07 EMaxC= 1.00D-01 BMatC= 1.02D-10 BMatP= 3.59D-10
 IDIUse=1 WtCom= 1.00D+00 WtEn= 0.00D+00
 Coeff-Com:  0.546D-03-0.443D-01-0.782D-01 0.416D+00 0.706D+00
 Coeff:      0.546D-03-0.443D-01-0.782D-01 0.416D+00 0.706D+00
 Gap=     0.426 Goal=   None    Shift=    0.000
 RMSDP=5.71D-08 MaxDP=2.85D-06 DE=-7.14D-10 OVMax= 4.96D-06

 Cycle   6  Pass 1  IDiag  1:
 RMSU=  2.12D-08    CP:  1.00D+00  1.08D+00  1.20D+00  1.44D+00  9.45D-01
 FoFJK:  IHMeth= 1 ICntrl=     0 DoSepK=T KAlg= 1 I1Cent= 0 FoldK=F
 E= -2905.43045284042     Delta-E=       -0.000000000089 Rises=F Damp=F
 DIIS: error= 1.02D-07 at cycle   6 NSaved=   6.
 NSaved= 6 IEnMin= 6 EnMin= -2905.43045284042     IErMin= 6 ErrMin= 1.02D-07
 ErrMax= 1.02D-07 EMaxC= 1.00D-01 BMatC= 1.60D-12 BMatP= 1.02D-10
 IDIUse=1 WtCom= 1.00D+00 WtEn= 0.00D+00
 Coeff-Com:  0.118D-04 0.477D-02-0.216D-03-0.727D-01-0.102D-01 0.108D+01
 Coeff:      0.118D-04 0.477D-02-0.216D-03-0.727D-01-0.102D-01 0.108D+01
 Gap=     0.426 Goal=   None    Shift=    0.000
 RMSDP=1.80D-08 MaxDP=9.71D-07 DE=-8.91D-11 OVMax= 1.52D-06

 Cycle   7  Pass 1  IDiag  1:
 RMSU=  3.88D-09    CP:  1.00D+00  1.08D+00  1.20D+00  1.47D+00  1.03D+00
                    CP:  1.26D+00
 FoFJK:  IHMeth= 1 ICntrl=     0 DoSepK=T KAlg= 1 I1Cent= 0 FoldK=F
 E= -2905.43045284045     Delta-E=       -0.000000000031 Rises=F Damp=F
 DIIS: error= 4.74D-08 at cycle   7 NSaved=   7.
 NSaved= 7 IEnMin= 7 EnMin= -2905.43045284045     IErMin= 7 ErrMin= 4.74D-08
 ErrMax= 4.74D-08 EMaxC= 1.00D-01 BMatC= 3.34D-13 BMatP= 1.60D-12
 IDIUse=1 WtCom= 1.00D+00 WtEn= 0.00D+00
 Coeff-Com: -0.210D-04 0.401D-02 0.333D-02-0.485D-01-0.364D-01 0.436D+00
 Coeff-Com:  0.642D+00
 Coeff:     -0.210D-04 0.401D-02 0.333D-02-0.485D-01-0.364D-01 0.436D+00
 Coeff:      0.642D+00
 Gap=     0.426 Goal=   None    Shift=    0.000
 RMSDP=2.54D-09 MaxDP=1.25D-07 DE=-3.09D-11 OVMax= 1.83D-07

 SCF Done:  E(RwB97XD) =  -2905.43045284     A.U. after    7 cycles
             Convg  =    0.2538D-08             -V/T =  2.0016
 KE= 2.900896562308D+03 PE=-7.150073872390D+03 EE= 1.237713772368D+03
 Leave Link  502 at Fri Jan 17 14:10:32 2020, MaxMem=  536870912 cpu:      91.5
 (Enter /home/matheus/.gaussian/g09/l108.exe)
 Scan completed.

 Summary of the potential surface scan:
   N      R1          SCF    
 ----  ---------  -----------
    1     3.0000  -2905.42540
    2     3.1000  -2905.42805
    3     3.2000  -2905.42981
    4     3.3000  -2905.43094
    5     3.4000  -2905.43163
    6     3.5000  -2905.43201
    7     3.6000  -2905.43217
    8     3.7000  -2905.43219
    9     3.8000  -2905.43212
   10     3.9000  -2905.43199
   11     4.0000  -2905.43183
   12     4.1000  -2905.43165
   13     4.2000  -2905.43147
   14     4.3000  -2905.43129
   15     4.4000  -2905.43113
   16     4.5000  -2905.43098
   17     4.6000  -2905.43085
   18     4.7000  -2905.43073
   19     4.8000  -2905.43062
   20     4.9000  -2905.43053
   21     5.0000  -2905.43045
 ----  ---------  -----------
  
 Leave Link  108 at Fri Jan 17 14:10:32 2020, MaxMem=  536870912 cpu:       0.0
 (Enter /home/matheus/.gaussian/g09/l9999.exe)

 Test job not archived.
 1\1\GINC-REDGIANT\Scan\RwB97XD\Aug-CC-pVTZ\H2Kr1O2\ROOT\17-Jan-2020\1\
 \#p wb97xd/aug-cc-PVTz iop(3/107=0330000000) iop(3/108=0330000000) int
 =ultrafine Scan\\PTCC\\0,1\O,0,0.,0.,0.725\O,0,0.,0.,-0.725\H,0,0.1595
 341571,0.9047631646,1.0235104166\H,0,0.,0.9187205947,-1.0235104166\Kr,
 0,0.,R1,0.\\R1=3.,s,20,0.1\\Version=EM64L-G09RevC.01\State=1-A\HF=-290
 5.4253951,-2905.4280541,-2905.4298133,-2905.4309447,-2905.4316277,-290
 5.4320054,-2905.4321664,-2905.432188,-2905.4321197,-2905.4319892,-2905
 .4318268,-2905.4316491,-2905.4314694,-2905.4312913,-2905.4311305,-2905
 .4309814,-2905.4308461,-2905.4307276,-2905.4306241,-2905.4305323,-2905
 .4304528\RMSD=6.964e-09,9.564e-09,6.782e-09,4.389e-09,3.067e-09,3.140e
 -09,2.973e-09,8.500e-09,7.211e-09,6.170e-09,5.200e-09,4.302e-09,9.028e
 -09,2.825e-09,8.363e-09,7.003e-09,5.441e-09,6.644e-09,3.204e-09,2.508e
 -09,2.538e-09\PG=C01 [X(H2Kr1O2)]\\@


 The most important thing in communication is to hear what isn't being said.
 -- Peter F. Drucker
 Job cpu time:  0 days  0 hours 44 minutes 45.2 seconds.
 File lengths (MBytes):  RWF=     27 Int=      0 D2E=      0 Chk=      4 Scr=      1
 Normal termination of Gaussian 09 at Fri Jan 17 14:10:32 2020.
