 Entering Gaussian System, Link 0=g09
 Input=.tcc/Inputs-DFT/H2O2-Kr_0.com
 Output=.tcc/Inputs-DFT/teste.log
 Initial command:
 /home/matheus/.gaussian/g09/l1.exe /home/matheus/.gaussian/g09/scratch/Gau-1616.inp -scrdir=/home/matheus/.gaussian/g09/scratch/
 Entering Link 1 = /home/matheus/.gaussian/g09/l1.exe PID=      1621.
  
 Copyright (c) 1988,1990,1992,1993,1995,1998,2003,2009,2011,
            Gaussian, Inc.  All Rights Reserved.
  
 This is part of the Gaussian(R) 09 program.  It is based on
 the Gaussian(R) 03 system (copyright 2003, Gaussian, Inc.),
 the Gaussian(R) 98 system (copyright 1998, Gaussian, Inc.),
 the Gaussian(R) 94 system (copyright 1995, Gaussian, Inc.),
 the Gaussian 92(TM) system (copyright 1992, Gaussian, Inc.),
 the Gaussian 90(TM) system (copyright 1990, Gaussian, Inc.),
 the Gaussian 88(TM) system (copyright 1988, Gaussian, Inc.),
 the Gaussian 86(TM) system (copyright 1986, Carnegie Mellon
 University), and the Gaussian 82(TM) system (copyright 1983,
 Carnegie Mellon University). Gaussian is a federally registered
 trademark of Gaussian, Inc.
  
 This software contains proprietary and confidential information,
 including trade secrets, belonging to Gaussian, Inc.
  
 This software is provided under written license and may be
 used, copied, transmitted, or stored only in accord with that
 written license.
  
 The following legend is applicable only to US Government
 contracts under FAR:
  
                    RESTRICTED RIGHTS LEGEND
  
 Use, reproduction and disclosure by the US Government is
 subject to restrictions as set forth in subparagraphs (a)
 and (c) of the Commercial Computer Software - Restricted
 Rights clause in FAR 52.227-19.
  
 Gaussian, Inc.
 340 Quinnipiac St., Bldg. 40, Wallingford CT 06492
  
  
 ---------------------------------------------------------------
 Warning -- This program may not be used in any manner that
 competes with the business of Gaussian, Inc. or will provide
 assistance to any competitor of Gaussian, Inc.  The licensee
 of this program is prohibited from giving any competitor of
 Gaussian, Inc. access to this program.  By using this program,
 the user acknowledges that Gaussian, Inc. is engaged in the
 business of creating and licensing software in the field of
 computational chemistry and represents and warrants to the
 licensee that it is not a competitor of Gaussian, Inc. and that
 it will not use this program in any manner prohibited above.
 ---------------------------------------------------------------
  

 Cite this work as:
 Gaussian 09, Revision C.01,
 M. J. Frisch, G. W. Trucks, H. B. Schlegel, G. E. Scuseria, 
 M. A. Robb, J. R. Cheeseman, G. Scalmani, V. Barone, B. Mennucci, 
 G. A. Petersson, H. Nakatsuji, M. Caricato, X. Li, H. P. Hratchian, 
 A. F. Izmaylov, J. Bloino, G. Zheng, J. L. Sonnenberg, M. Hada, 
 M. Ehara, K. Toyota, R. Fukuda, J. Hasegawa, M. Ishida, T. Nakajima, 
 Y. Honda, O. Kitao, H. Nakai, T. Vreven, J. A. Montgomery, Jr., 
 J. E. Peralta, F. Ogliaro, M. Bearpark, J. J. Heyd, E. Brothers, 
 K. N. Kudin, V. N. Staroverov, T. Keith, R. Kobayashi, J. Normand, 
 K. Raghavachari, A. Rendell, J. C. Burant, S. S. Iyengar, J. Tomasi, 
 M. Cossi, N. Rega, J. M. Millam, M. Klene, J. E. Knox, J. B. Cross, 
 V. Bakken, C. Adamo, J. Jaramillo, R. Gomperts, R. E. Stratmann, 
 O. Yazyev, A. J. Austin, R. Cammi, C. Pomelli, J. W. Ochterski, 
 R. L. Martin, K. Morokuma, V. G. Zakrzewski, G. A. Voth, 
 P. Salvador, J. J. Dannenberg, S. Dapprich, A. D. Daniels, 
 O. Farkas, J. B. Foresman, J. V. Ortiz, J. Cioslowski, 
 and D. J. Fox, Gaussian, Inc., Wallingford CT, 2010.
 
 ******************************************
 Gaussian 09:  EM64L-G09RevC.01 23-Sep-2011
                19-Mar-2020 
 ******************************************
 %mem=8GB
 %nproc=8
 Will use up to    8 processors via shared memory.
 ----------------------------------------------------------------------
 #p wb97xd/aug-cc-PVTz iop(3/107=0250000000) iop(3/108=0250000000) int=
 ultrafine
 ----------------------------------------------------------------------
 1/38=1/1;
 2/12=2,17=6,18=5,40=1/2;
 3/5=16,6=1,7=10,11=2,16=1,25=1,30=1,74=-58,75=-5,107=250000000,108=250000000/1,2,3;
 4//1;
 5/5=2,38=5/2;
 6/7=2,8=2,9=2,10=2,28=1/1;
 99/5=1,9=1/99;
 Leave Link    1 at Thu Mar 19 09:32:45 2020, MaxMem= 1073741824 cpu:       0.2
 (Enter /home/matheus/.gaussian/g09/l101.exe)
 ---
 TCC
 ---
 Charge =  0 Multiplicity = 1
 Symbolic Z-Matrix:
 O                     0.        0.        0.725 
 O                     0.        0.       -0.725 
 H                     0.        0.91872   1.02351 
 H                     0.        0.91872  -1.02351 
 Kr                    0.       R1        0. 
       Variables:
  R1                   15.                       
 
 NAtoms=      5 NQM=        0 NQMF=       0 NMMI=      5 NMMIF=      0
                NMic=       0 NMicF=      0.
                    Isotopes and Nuclear Properties:
 (Nuclear quadrupole moments (NQMom) in fm**2, nuclear magnetic moments (NMagM)
  in nuclear magnetons)

  Atom         1           2           3           4           5
 IAtWgt=          16          16           1           1          84
 AtmWgt=  15.9949146  15.9949146   1.0078250   1.0078250  83.9115064
 NucSpn=           0           0           1           1           0
 AtZEff=   0.0000000   0.0000000   0.0000000   0.0000000   0.0000000
 NQMom=    0.0000000   0.0000000   0.0000000   0.0000000   0.0000000
 NMagM=    0.0000000   0.0000000   2.7928460   2.7928460   0.0000000
 Leave Link  101 at Thu Mar 19 09:32:45 2020, MaxMem= 1073741824 cpu:       0.4
 (Enter /home/matheus/.gaussian/g09/l202.exe)
                          Input orientation:                          
 ---------------------------------------------------------------------
 Center     Atomic      Atomic             Coordinates (Angstroms)
 Number     Number       Type             X           Y           Z
 ---------------------------------------------------------------------
      1          8           0        0.000000    0.000000    0.725000
      2          8           0        0.000000    0.000000   -0.725000
      3          1           0        0.000000    0.918721    1.023510
      4          1           0        0.000000    0.918721   -1.023510
      5         36           0        0.000000   15.000000    0.000000
 ---------------------------------------------------------------------
                    Distance matrix (angstroms):
                    1          2          3          4          5
     1  O    0.000000
     2  O    1.450000   0.000000
     3  H    0.966000   1.975180   0.000000
     4  H    1.975180   0.966000   2.047021   0.000000
     5  Kr  15.017511  15.017511  14.118428  14.118428   0.000000
 Stoichiometry    H2KrO2
 Framework group  C2V[C2(Kr),SGV(H2O2)]
 Deg. of freedom     4
 Full point group                 C2V     NOp   4
 Largest Abelian subgroup         C2V     NOp   4
 Largest concise Abelian subgroup C2      NOp   2
                         Standard orientation:                         
 ---------------------------------------------------------------------
 Center     Atomic      Atomic             Coordinates (Angstroms)
 Number     Number       Type             X           Y           Z
 ---------------------------------------------------------------------
      1          8           0        0.000000    0.725000  -10.034027
      2          8           0        0.000000   -0.725000  -10.034027
      3          1           0        0.000000    1.023510   -9.115306
      4          1           0        0.000000   -1.023510   -9.115306
      5         36           0        0.000000    0.000000    4.965973
 ---------------------------------------------------------------------
 Rotational constants (GHZ):     26.7026195      0.0934698      0.0931437
 Leave Link  202 at Thu Mar 19 09:32:45 2020, MaxMem= 1073741824 cpu:       0.1
 (Enter /home/matheus/.gaussian/g09/l301.exe)
 Standard basis: Aug-CC-pVTZ (5D, 7F)
 Ernie: Thresh=  0.10000D-02 Tol=  0.10000D-05 Strict=F.
 Ernie:  38 primitive shells out of 205 were deleted.
 There are    71 symmetry adapted basis functions of A1  symmetry.
 There are    29 symmetry adapted basis functions of A2  symmetry.
 There are    37 symmetry adapted basis functions of B1  symmetry.
 There are    60 symmetry adapted basis functions of B2  symmetry.
 Integral buffers will be    131072 words long.
 Raffenetti 2 integral format.
 Two-electron integral symmetry is turned on.
   197 basis functions,   415 primitive gaussians,   229 cartesian basis functions
    27 alpha electrons       27 beta electrons
       nuclear repulsion energy        59.6621178727 Hartrees.
 IExCor= 4639 DFT=T Ex+Corr=wB97XD ExCW=0 ScaHFX=  1.000000
 ScaDFX=  1.000000  1.000000  1.000000  1.000000 ScalE2=  1.000000  1.000000
 IRadAn=      5 IRanWt=     -1 IRanGd=            0 ICorTp=0
  HFx wShort=  0.000000 wLong=  0.250000 cFull=  0.222036 cShort=  0.000000 cLong=  0.777964
  DFx wShort=  0.000000 wLong=  0.250000 cFull=  0.000000 cShort=  0.000000 cLong=  1.000000
 NAtoms=    5 NActive=    5 NUniq=    3 SFac= 2.78D+00 NAtFMM=   60 NAOKFM=F Big=F
 R6Disp: Dispersion energy =        -0.0002184098 Hartrees.
 Nuclear repulsion after empirical dispersion term =       59.6618994630 Hartrees.
 Leave Link  301 at Thu Mar 19 09:32:45 2020, MaxMem= 1073741824 cpu:       0.4
 (Enter /home/matheus/.gaussian/g09/l302.exe)
 NPDir=0 NMtPBC=     1 NCelOv=     1 NCel=       1 NClECP=     1 NCelD=      1
         NCelK=      1 NCelE2=     1 NClLst=     1 CellRange=     0.0.
 One-electron integrals computed using PRISM.
 One-electron integral symmetry used in STVInt
 NBasis=   197 RedAO= T  NBF=    71    29    37    60
 NBsUse=   197 1.00D-06 NBFU=    71    29    37    60
 Precomputing XC quadrature grid using
 IXCGrd= 2 IRadAn=           5 IRanWt=          -1 IRanGd=           0 AccXCQ= 0.00D+00.
 NRdTot=     437 NPtTot=      127438 NUsed=      130575 NTot=      130607
 NSgBfM=   164   164   164   164   164 NAtAll=     5     5.
 Leave Link  302 at Thu Mar 19 09:32:45 2020, MaxMem= 1073741824 cpu:       1.1
 (Enter /home/matheus/.gaussian/g09/l303.exe)
 DipDrv:  MaxL=1.
 Leave Link  303 at Thu Mar 19 09:32:46 2020, MaxMem= 1073741824 cpu:       0.6
 (Enter /home/matheus/.gaussian/g09/l401.exe)
 Harris functional with IExCor= 4639 diagonalized for initial guess.
 ExpMin= 2.53D-02 ExpMax= 1.17D+07 ExpMxC= 1.33D+04 IAcc=3 IRadAn=         5 AccDes= 0.00D+00
 HarFok:  IExCor= 4639 AccDes= 0.00D+00 IRadAn=         5 IDoV= 1
 ScaDFX=  1.000000  1.000000  1.000000  1.000000
 FoFCou: FMM=F IPFlag=           0 FMFlag=      100000 FMFlg1=           0
         NFxFlg=           0 DoJE=T BraDBF=F KetDBF=T FulRan=T
         Omega=  0.000000  0.000000  1.000000  0.000000  0.000000 ICntrl=     500 IOpCl=  0
         NMat0=    1 NMatS0=    1 NMatT0=    0 NMatD0=    1 NMtDS0=    0 NMtDT0=    0
         I1Cent=           4 NGrid=           0.
 Petite list used in FoFCou.
 Harris En= -2875.39984163475    
 Initial guess orbital symmetries:
       Occupied  (A1) (A1) (A1) (B1) (B2) (B2) (A1) (A1) (A1) (B1)
                 (B2) (A2) (B1) (B2) (A1) (A1) (A1) (B2) (A1) (A1)
                 (A1) (B1) (B2) (A1) (B1) (B2) (A2)
       Virtual   (A1) (B2) (A1) (B2) (B1) (A1) (A1) (B2) (B1) (B2)
                 (A1) (A1) (A2) (B2) (B1) (A1) (A2) (B2) (A1) (B1)
                 (A1) (B2) (A1) (A2) (B2) (A1) (B2) (B2) (B1) (B2)
                 (A1) (A1) (B1) (B2) (A1) (A1) (B1) (A1) (A1) (A2)
                 (B1) (B2) (A1) (A2) (A2) (B1) (B2) (A1) (B2) (A1)
                 (A1) (B1) (B1) (A1) (A2) (B2) (B2) (B1) (A1) (B2)
                 (B2) (B1) (A2) (A1) (B2) (A1) (A2) (B2) (A2) (B2)
                 (A1) (B1) (A1) (B2) (A2) (A1) (B2) (B1) (A1) (B2)
                 (A1) (B1) (A1) (A2) (B1) (B2) (A1) (B1) (B2) (A1)
                 (A2) (A1) (B2) (A1) (A2) (B2) (B1) (A1) (B2) (A1)
                 (B1) (B1) (A1) (B2) (B2) (B1) (A2) (A1) (B2) (B1)
                 (B2) (A2) (A2) (A1) (A1) (B2) (B2) (A2) (B2) (A1)
                 (B2) (B1) (A1) (A1) (B1) (A2) (B1) (A2) (A1) (B2)
                 (A2) (A1) (A1) (B2) (B2) (A1) (A1) (B1) (B2) (A2)
                 (B2) (B2) (A1) (B1) (A1) (B2) (B1) (A1) (A2) (B2)
                 (A1) (B1) (A2) (A1) (B1) (B1) (B2) (A2) (A2) (A1)
                 (B2) (A2) (A1) (B2) (B2) (A1) (B2) (B2) (A1) (B2)
 The electronic state of the initial guess is 1-A1.
 Leave Link  401 at Thu Mar 19 09:32:46 2020, MaxMem= 1073741824 cpu:       1.8
 (Enter /home/matheus/.gaussian/g09/l502.exe)
 Closed shell SCF:
 Requested convergence on RMS density matrix=1.00D-08 within 128 cycles.
 Requested convergence on MAX density matrix=1.00D-06.
 Requested convergence on             energy=1.00D-06.
 No special actions if energy rises.
 Using DIIS extrapolation, IDIIS=  1040.
 Integral symmetry usage will be decided dynamically.
       130517 words used for storage of precomputed grid.
 IEnd=      309856 IEndB=      309856 NGot=  1073741824 MDV=  1073501279
 LenX=  1073501279 LenY=  1073448397
 Fock matrices will be formed incrementally for  20 cycles.

 Cycle   1  Pass 1  IDiag  1:
 FoFJK:  IHMeth= 1 ICntrl=     0 DoSepK=T KAlg= 1 I1Cent= 0 FoldK=F
 FoFCou: FMM=F IPFlag=           0 FMFlag=      100000 FMFlg1=           0
         NFxFlg=           0 DoJE=T BraDBF=F KetDBF=F FulRan=T
         Omega=  0.000000  0.000000  1.000000  0.000000  0.000000 ICntrl=     500 IOpCl=  0
         NMat0=    1 NMatS0=    1 NMatT0=    0 NMatD0=    1 NMtDS0=    0 NMtDT0=    0
         I1Cent=           0 NGrid=           0.
 Petite list used in FoFCou.
 E= -2904.90346458890    
 DIIS: error= 1.51D-01 at cycle   1 NSaved=   1.
 NSaved= 1 IEnMin= 1 EnMin= -2904.90346458890     IErMin= 1 ErrMin= 1.51D-01
 ErrMax= 1.51D-01 EMaxC= 1.00D-01 BMatC= 2.16D+00 BMatP= 2.16D+00
 IDIUse=3 WtCom= 0.00D+00 WtEn= 1.00D+00
 Coeff-Com:  0.100D+01
 Coeff-En:   0.100D+01
 Coeff:      0.100D+01
 Gap=     0.518 Goal=   None    Shift=    0.000
 GapD=    0.518 DampG=2.000 DampE=0.250 DampFc=0.5000 IDamp=-1.
 Damping current iteration by 5.00D-01
 RMSDP=5.48D-03 MaxDP=3.31D-01              OVMax= 1.83D-01

 Cycle   2  Pass 1  IDiag  1:
 RMSU=  1.92D-03    CP:  1.02D+00
 FoFJK:  IHMeth= 1 ICntrl=     0 DoSepK=T KAlg= 1 I1Cent= 0 FoldK=F
 E= -2905.19325485847     Delta-E=       -0.289790269572 Rises=F Damp=T
 DIIS: error= 5.70D-02 at cycle   2 NSaved=   2.
 NSaved= 2 IEnMin= 2 EnMin= -2905.19325485847     IErMin= 2 ErrMin= 5.70D-02
 ErrMax= 5.70D-02 EMaxC= 1.00D-01 BMatC= 1.64D-01 BMatP= 2.16D+00
 IDIUse=3 WtCom= 4.30D-01 WtEn= 5.70D-01
 Coeff-Com: -0.315D+00 0.131D+01
 Coeff-En:   0.000D+00 0.100D+01
 Coeff:     -0.135D+00 0.114D+01
 Gap=     0.393 Goal=   None    Shift=    0.000
 RMSDP=1.05D-03 MaxDP=5.00D-02 DE=-2.90D-01 OVMax= 5.99D-02

 Cycle   3  Pass 1  IDiag  1:
 RMSU=  4.33D-04    CP:  1.02D+00  1.31D+00
 FoFJK:  IHMeth= 1 ICntrl=     0 DoSepK=T KAlg= 1 I1Cent= 0 FoldK=F
 E= -2905.41964403558     Delta-E=       -0.226389177106 Rises=F Damp=F
 DIIS: error= 7.93D-03 at cycle   3 NSaved=   3.
 NSaved= 3 IEnMin= 3 EnMin= -2905.41964403558     IErMin= 3 ErrMin= 7.93D-03
 ErrMax= 7.93D-03 EMaxC= 1.00D-01 BMatC= 7.52D-03 BMatP= 1.64D-01
 IDIUse=3 WtCom= 9.21D-01 WtEn= 7.93D-02
 Coeff-Com:  0.479D-01-0.890D-02 0.961D+00
 Coeff-En:   0.000D+00 0.000D+00 0.100D+01
 Coeff:      0.441D-01-0.820D-02 0.964D+00
 Gap=     0.413 Goal=   None    Shift=    0.000
 RMSDP=3.40D-04 MaxDP=1.77D-02 DE=-2.26D-01 OVMax= 1.32D-02

 Cycle   4  Pass 1  IDiag  1:
 RMSU=  1.94D-04    CP:  1.02D+00  1.24D+00  1.14D+00
 FoFJK:  IHMeth= 1 ICntrl=     0 DoSepK=T KAlg= 1 I1Cent= 0 FoldK=F
 E= -2905.42146443532     Delta-E=       -0.001820399739 Rises=F Damp=F
 DIIS: error= 3.55D-03 at cycle   4 NSaved=   4.
 NSaved= 4 IEnMin= 4 EnMin= -2905.42146443532     IErMin= 4 ErrMin= 3.55D-03
 ErrMax= 3.55D-03 EMaxC= 1.00D-01 BMatC= 1.53D-03 BMatP= 7.52D-03
 IDIUse=3 WtCom= 9.65D-01 WtEn= 3.55D-02
 Coeff-Com:  0.372D-01-0.757D-01 0.434D+00 0.605D+00
 Coeff-En:   0.000D+00 0.000D+00 0.654D-01 0.935D+00
 Coeff:      0.359D-01-0.730D-01 0.421D+00 0.616D+00
 Gap=     0.398 Goal=   None    Shift=    0.000
 RMSDP=1.26D-04 MaxDP=5.91D-03 DE=-1.82D-03 OVMax= 6.88D-03

 Cycle   5  Pass 1  IDiag  1:
 RMSU=  4.78D-05    CP:  1.02D+00  1.24D+00  1.19D+00  6.38D-01
 FoFJK:  IHMeth= 1 ICntrl=     0 DoSepK=T KAlg= 1 I1Cent= 0 FoldK=F
 E= -2905.42233133120     Delta-E=       -0.000866895884 Rises=F Damp=F
 DIIS: error= 2.02D-04 at cycle   5 NSaved=   5.
 NSaved= 5 IEnMin= 5 EnMin= -2905.42233133120     IErMin= 5 ErrMin= 2.02D-04
 ErrMax= 2.02D-04 EMaxC= 1.00D-01 BMatC= 3.07D-06 BMatP= 1.53D-03
 IDIUse=3 WtCom= 9.98D-01 WtEn= 2.02D-03
 Coeff-Com: -0.343D-02 0.551D-02-0.420D-01-0.401D-01 0.108D+01
 Coeff-En:   0.000D+00 0.000D+00 0.000D+00 0.000D+00 0.100D+01
 Coeff:     -0.343D-02 0.550D-02-0.419D-01-0.400D-01 0.108D+01
 Gap=     0.398 Goal=   None    Shift=    0.000
 RMSDP=2.29D-05 MaxDP=8.36D-04 DE=-8.67D-04 OVMax= 1.25D-03

 Cycle   6  Pass 1  IDiag  1:
 RMSU=  6.02D-06    CP:  1.02D+00  1.24D+00  1.21D+00  6.54D-01  1.25D+00
 FoFJK:  IHMeth= 1 ICntrl=     0 DoSepK=T KAlg= 1 I1Cent= 0 FoldK=F
 E= -2905.42233788471     Delta-E=       -0.000006553506 Rises=F Damp=F
 DIIS: error= 5.55D-05 at cycle   6 NSaved=   6.
 NSaved= 6 IEnMin= 6 EnMin= -2905.42233788471     IErMin= 6 ErrMin= 5.55D-05
 ErrMax= 5.55D-05 EMaxC= 1.00D-01 BMatC= 2.19D-07 BMatP= 3.07D-06
 IDIUse=1 WtCom= 1.00D+00 WtEn= 0.00D+00
 Coeff-Com: -0.190D-02 0.373D-02-0.225D-01-0.303D-01 0.134D+00 0.917D+00
 Coeff:     -0.190D-02 0.373D-02-0.225D-01-0.303D-01 0.134D+00 0.917D+00
 Gap=     0.398 Goal=   None    Shift=    0.000
 RMSDP=4.67D-06 MaxDP=1.74D-04 DE=-6.55D-06 OVMax= 2.77D-04

 Cycle   7  Pass 1  IDiag  1:
 RMSU=  1.30D-06    CP:  1.02D+00  1.24D+00  1.21D+00  6.56D-01  1.31D+00
                    CP:  1.16D+00
 FoFJK:  IHMeth= 1 ICntrl=     0 DoSepK=T KAlg= 1 I1Cent= 0 FoldK=F
 E= -2905.42233831300     Delta-E=       -0.000000428291 Rises=F Damp=F
 DIIS: error= 1.47D-05 at cycle   7 NSaved=   7.
 NSaved= 7 IEnMin= 7 EnMin= -2905.42233831300     IErMin= 7 ErrMin= 1.47D-05
 ErrMax= 1.47D-05 EMaxC= 1.00D-01 BMatC= 1.23D-08 BMatP= 2.19D-07
 IDIUse=1 WtCom= 1.00D+00 WtEn= 0.00D+00
 Coeff-Com:  0.399D-03-0.730D-03 0.393D-02 0.490D-02-0.682D-01-0.117D+00
 Coeff-Com:  0.118D+01
 Coeff:      0.399D-03-0.730D-03 0.393D-02 0.490D-02-0.682D-01-0.117D+00
 Coeff:      0.118D+01
 Gap=     0.398 Goal=   None    Shift=    0.000
 DSYEVD returned Info=          91 IAlg= 4 N=    60 NDim=   197 NE2=     5448975 trying DSYEV.
 RMSDP=1.53D-06 MaxDP=5.07D-05 DE=-4.28D-07 OVMax= 1.26D-04

 Cycle   8  Pass 1  IDiag  1:
 RMSU=  3.97D-07    CP:  1.02D+00  1.24D+00  1.21D+00  6.56D-01  1.32D+00
                    CP:  1.23D+00  1.29D+00
 FoFJK:  IHMeth= 1 ICntrl=     0 DoSepK=T KAlg= 1 I1Cent= 0 FoldK=F
 E= -2905.42233834952     Delta-E=       -0.000000036522 Rises=F Damp=F
 DIIS: error= 3.93D-06 at cycle   8 NSaved=   8.
 NSaved= 8 IEnMin= 8 EnMin= -2905.42233834952     IErMin= 8 ErrMin= 3.93D-06
 ErrMax= 3.93D-06 EMaxC= 1.00D-01 BMatC= 4.30D-10 BMatP= 1.23D-08
 IDIUse=1 WtCom= 1.00D+00 WtEn= 0.00D+00
 Coeff-Com:  0.234D-04-0.549D-04 0.398D-03 0.359D-03 0.306D-02-0.115D-01
 Coeff-Com: -0.168D+00 0.118D+01
 Coeff:      0.234D-04-0.549D-04 0.398D-03 0.359D-03 0.306D-02-0.115D-01
 Coeff:     -0.168D+00 0.118D+01
 Gap=     0.398 Goal=   None    Shift=    0.000
 RMSDP=2.38D-07 MaxDP=6.96D-06 DE=-3.65D-08 OVMax= 3.30D-05

 Cycle   9  Pass 1  IDiag  1:
 RMSU=  7.52D-08    CP:  1.02D+00  1.24D+00  1.21D+00  6.56D-01  1.32D+00
                    CP:  1.24D+00  1.33D+00  1.31D+00
 FoFJK:  IHMeth= 1 ICntrl=     0 DoSepK=T KAlg= 1 I1Cent= 0 FoldK=F
 E= -2905.42233835104     Delta-E=       -0.000000001522 Rises=F Damp=F
 DIIS: error= 7.98D-07 at cycle   9 NSaved=   9.
 NSaved= 9 IEnMin= 9 EnMin= -2905.42233835104     IErMin= 9 ErrMin= 7.98D-07
 ErrMax= 7.98D-07 EMaxC= 1.00D-01 BMatC= 4.00D-11 BMatP= 4.30D-10
 IDIUse=1 WtCom= 1.00D+00 WtEn= 0.00D+00
 Coeff-Com: -0.189D-04 0.378D-04-0.106D-03-0.149D-03 0.330D-02 0.708D-02
 Coeff-Com: -0.621D-01-0.358D-01 0.109D+01
 Coeff:     -0.189D-04 0.378D-04-0.106D-03-0.149D-03 0.330D-02 0.708D-02
 Coeff:     -0.621D-01-0.358D-01 0.109D+01
 Gap=     0.398 Goal=   None    Shift=    0.000
 RMSDP=7.17D-08 MaxDP=1.81D-06 DE=-1.52D-09 OVMax= 7.86D-06

 Cycle  10  Pass 1  IDiag  1:
 RMSU=  1.58D-08    CP:  1.02D+00  1.24D+00  1.21D+00  6.56D-01  1.32D+00
                    CP:  1.23D+00  1.33D+00  1.39D+00  1.33D+00
 FoFJK:  IHMeth= 1 ICntrl=     0 DoSepK=T KAlg= 1 I1Cent= 0 FoldK=F
 E= -2905.42233835113     Delta-E=       -0.000000000093 Rises=F Damp=F
 DIIS: error= 1.64D-07 at cycle  10 NSaved=  10.
 NSaved=10 IEnMin=10 EnMin= -2905.42233835113     IErMin=10 ErrMin= 1.64D-07
 ErrMax= 1.64D-07 EMaxC= 1.00D-01 BMatC= 2.14D-12 BMatP= 4.00D-11
 IDIUse=1 WtCom= 1.00D+00 WtEn= 0.00D+00
 Coeff-Com:  0.113D-05-0.204D-05-0.245D-04-0.148D-04-0.763D-03 0.386D-03
 Coeff-Com:  0.164D-01-0.531D-01-0.180D+00 0.122D+01
 Coeff:      0.113D-05-0.204D-05-0.245D-04-0.148D-04-0.763D-03 0.386D-03
 Coeff:      0.164D-01-0.531D-01-0.180D+00 0.122D+01
 Gap=     0.398 Goal=   None    Shift=    0.000
 RMSDP=1.76D-08 MaxDP=7.23D-07 DE=-9.28D-11 OVMax= 1.92D-06

 Cycle  11  Pass 1  IDiag  1:
 RMSU=  3.80D-09    CP:  1.02D+00  1.24D+00  1.21D+00  6.56D-01  1.32D+00
                    CP:  1.23D+00  1.32D+00  1.41D+00  1.43D+00  1.29D+00
 FoFJK:  IHMeth= 1 ICntrl=     0 DoSepK=T KAlg= 1 I1Cent= 0 FoldK=F
 E= -2905.42233835114     Delta-E=       -0.000000000005 Rises=F Damp=F
 DIIS: error= 3.08D-08 at cycle  11 NSaved=  11.
 NSaved=11 IEnMin=11 EnMin= -2905.42233835114     IErMin=11 ErrMin= 3.08D-08
 ErrMax= 3.08D-08 EMaxC= 1.00D-01 BMatC= 7.27D-14 BMatP= 2.14D-12
 IDIUse=1 WtCom= 1.00D+00 WtEn= 0.00D+00
 Coeff-Com:  0.959D-06-0.192D-05-0.542D-06 0.381D-06-0.264D-03-0.185D-03
 Coeff-Com:  0.541D-02-0.432D-02-0.727D-01 0.136D+00 0.936D+00
 Coeff:      0.959D-06-0.192D-05-0.542D-06 0.381D-06-0.264D-03-0.185D-03
 Coeff:      0.541D-02-0.432D-02-0.727D-01 0.136D+00 0.936D+00
 Gap=     0.398 Goal=   None    Shift=    0.000
 RMSDP=3.14D-09 MaxDP=1.24D-07 DE=-4.55D-12 OVMax= 2.36D-07

 SCF Done:  E(RwB97XD) =  -2905.42233835     A.U. after   11 cycles
             Convg  =    0.3137D-08             -V/T =  2.0015
 KE= 2.900957011695D+03 PE=-7.057886671268D+03 EE= 1.191845421759D+03
 Leave Link  502 at Thu Mar 19 09:33:00 2020, MaxMem= 1073741824 cpu:     114.5
 (Enter /home/matheus/.gaussian/g09/l601.exe)
 Copying SCF densities to generalized density rwf, IOpCl= 0 IROHF=0.

 **********************************************************************

            Population analysis using the SCF density.

 **********************************************************************

 Orbital symmetries:
       Occupied  (A1) (A1) (A1) (B2) (B1) (A1) (B2) (A1) (A1) (B2)
                 (B1) (A1) (B2) (B1) (A2) (A1) (A1) (B2) (A1) (A1)
                 (A1) (B1) (B2) (A1) (B2) (B1) (A2)
       Virtual   (A1) (B2) (B2) (A1) (A1) (B2) (B1) (A1) (B2) (B1)
                 (A1) (A1) (B2) (A2) (B1) (A1) (A1) (B2) (B1) (A1)
                 (A2) (B2) (A1) (A2) (B2) (A1) (B2) (B2) (A1) (B2)
                 (B1) (A1) (B1) (A1) (B2) (A1) (B1) (A1) (A1) (B2)
                 (B1) (A1) (A2) (A2) (A2) (B1) (B2) (A1) (B2) (A1)
                 (A1) (B1) (A1) (B1) (A2) (B2) (B2) (B2) (A1) (B2)
                 (B1) (A1) (A2) (B1) (B2) (A1) (A2) (B2) (A2) (B2)
                 (A1) (B1) (A1) (B2) (A2) (A1) (B2) (B1) (A1) (B2)
                 (A1) (B1) (A1) (A2) (A1) (B2) (B1) (B2) (B1) (A1)
                 (A2) (A1) (A1) (B2) (B1) (A1) (A2) (B2) (B2) (A1)
                 (B1) (A1) (B2) (B1) (A1) (A2) (B1) (B2) (B2) (B1)
                 (B2) (A2) (A2) (A1) (A1) (B2) (B2) (A2) (B2) (A1)
                 (A1) (B2) (B1) (B1) (A1) (A2) (B1) (A2) (A1) (B2)
                 (A2) (A1) (A1) (B2) (B2) (A1) (A1) (B1) (B2) (A2)
                 (B2) (B2) (A1) (B1) (A1) (B2) (B1) (A1) (A2) (B2)
                 (A1) (B1) (A1) (A2) (B1) (B1) (B2) (A2) (A2) (A1)
                 (B2) (A1) (A2) (B2) (B2) (A1) (B2) (B2) (A1) (B2)
 The electronic state is 1-A1.
 Alpha  occ. eigenvalues -- -513.08131 -67.34996 -60.89860 -60.89860 -60.89860
 Alpha  occ. eigenvalues --  -19.34339 -19.34335  -9.80345  -7.49643  -7.49642
 Alpha  occ. eigenvalues --   -7.49642  -3.36327  -3.36327  -3.36327  -3.36327
 Alpha  occ. eigenvalues --   -3.36327  -1.25195  -1.03428  -1.00998  -0.69489
 Alpha  occ. eigenvalues --   -0.54339  -0.52272  -0.49870  -0.48434  -0.48433
 Alpha  occ. eigenvalues --   -0.48433  -0.37270
 Alpha virt. eigenvalues --    0.02516   0.04011   0.09322   0.09346   0.10679
 Alpha virt. eigenvalues --    0.10693   0.10693   0.11322   0.15905   0.16422
 Alpha virt. eigenvalues --    0.16816   0.19255   0.19272   0.20274   0.24413
 Alpha virt. eigenvalues --    0.26601   0.26770   0.26771   0.26771   0.26775
 Alpha virt. eigenvalues --    0.26775   0.27215   0.30393   0.33200   0.35764
 Alpha virt. eigenvalues --    0.36912   0.40950   0.42908   0.50422   0.50429
 Alpha virt. eigenvalues --    0.50430   0.56042   0.62189   0.63257   0.64262
 Alpha virt. eigenvalues --    0.65695   0.65986   0.67758   0.75343   0.75344
 Alpha virt. eigenvalues --    0.75345   0.75347   0.75347   0.76090   0.77407
 Alpha virt. eigenvalues --    0.78327   0.80899   0.81830   0.83095   0.86162
 Alpha virt. eigenvalues --    0.89116   0.90355   0.93898   0.95054   0.96723
 Alpha virt. eigenvalues --    0.96763   0.97746   0.99487   1.03694   1.03694
 Alpha virt. eigenvalues --    1.03694   1.03695   1.03695   1.03697   1.03697
 Alpha virt. eigenvalues --    1.08971   1.10672   1.16916   1.26156   1.31010
 Alpha virt. eigenvalues --    1.31559   1.39478   1.44456   1.47213   1.50783
 Alpha virt. eigenvalues --    1.55287   1.60983   1.75007   1.80342   1.88749
 Alpha virt. eigenvalues --    1.91492   1.95581   1.99910   2.10461   2.13653
 Alpha virt. eigenvalues --    2.13656   2.13656   2.14837   2.15827   2.18906
 Alpha virt. eigenvalues --    2.24003   2.27941   2.28008   2.28009   2.28009
 Alpha virt. eigenvalues --    2.28010   2.28010   2.30415   2.36425   2.40704
 Alpha virt. eigenvalues --    2.42665   2.47215   2.47215   2.47215   2.47216
 Alpha virt. eigenvalues --    2.47216   2.47217   2.47217   2.48930   2.55660
 Alpha virt. eigenvalues --    2.65763   2.67864   2.71950   2.71991   2.82175
 Alpha virt. eigenvalues --    2.88984   3.00386   3.08700   3.12978   3.40391
 Alpha virt. eigenvalues --    3.61296   3.68219   3.76726   3.90182   3.90222
 Alpha virt. eigenvalues --    4.03991   4.06600   4.10762   4.13321   4.16576
 Alpha virt. eigenvalues --    4.25365   4.30403   4.38647   4.54721   4.67099
 Alpha virt. eigenvalues --    4.91685   4.98245   4.98888   5.01159   5.13961
 Alpha virt. eigenvalues --    5.14175   5.53216   5.77630   5.95045   6.04012
 Alpha virt. eigenvalues --    6.05032   6.23521   6.32623   6.44710   6.56043
 Alpha virt. eigenvalues --    6.66795   6.68035   6.73902   6.74336   6.78533
 Alpha virt. eigenvalues --    6.84158   6.84683   6.88013   6.91764   6.98499
 Alpha virt. eigenvalues --    7.06257   7.21029   7.21170   7.28428   7.61303
 Alpha virt. eigenvalues --    7.93901   8.04176   8.14012  13.52345  14.73130
          Condensed to atoms (all electrons):
              1          2          3          4          5
     1  O    8.168092  -0.202283   0.192491   0.039835   0.000000
     2  O   -0.202283   8.168092   0.039835   0.192491   0.000000
     3  H    0.192491   0.039835   0.580616  -0.011077   0.000000
     4  H    0.039835   0.192491  -0.011077   0.580616   0.000000
     5  Kr   0.000000   0.000000   0.000000   0.000000  36.000000
 Mulliken atomic charges:
              1
     1  O   -0.198135
     2  O   -0.198135
     3  H    0.198135
     4  H    0.198135
     5  Kr   0.000000
 Sum of Mulliken atomic charges =   0.00000
 Mulliken charges with hydrogens summed into heavy atoms:
              1
     1  O    0.000000
     2  O    0.000000
     5  Kr   0.000000
 Sum of Mulliken charges with hydrogens summed into heavy atoms =   0.00000
 Electronic spatial extent (au):  <R**2>=           9663.6743
 Charge=              0.0000 electrons
 Dipole moment (field-independent basis, Debye):
    X=              0.0000    Y=              0.0000    Z=              3.1068  Tot=              3.1068
 Quadrupole moment (field-independent basis, Debye-Ang):
   XX=            -30.7576   YY=            -28.1948   ZZ=            -88.6140
   XY=              0.0000   XZ=              0.0000   YZ=              0.0000
 Traceless Quadrupole moment (field-independent basis, Debye-Ang):
   XX=             18.4312   YY=             20.9940   ZZ=            -39.4252
   XY=              0.0000   XZ=              0.0000   YZ=              0.0000
 Octapole moment (field-independent basis, Debye-Ang**2):
  XXX=              0.0000  YYY=              0.0000  ZZZ=            938.3887  XYY=              0.0000
  XXY=              0.0000  XXZ=             42.7585  XZZ=              0.0000  YZZ=              0.0000
  YYZ=             21.1999  XYZ=              0.0000
 Hexadecapole moment (field-independent basis, Debye-Ang**3):
 XXXX=            -29.8249 YYYY=            -63.6275 ZZZZ=         -20482.9394 XXXY=              0.0000
 XXXZ=              0.0000 YYYX=              0.0000 YYYZ=              0.0000 ZZZX=              0.0000
 ZZZY=              0.0000 XXYY=            -17.5844 XXZZ=          -1744.2316 YYZZ=          -1572.6667
 XXYZ=              0.0000 YYXZ=              0.0000 ZZXY=              0.0000
 N-N= 5.966189946296D+01 E-N=-7.057886667701D+03  KE= 2.900957011695D+03
 Symmetry A1   KE= 2.057743406451D+03
 Symmetry A2   KE= 5.298375260588D+01
 Symmetry B1   KE= 3.628051617293D+02
 Symmetry B2   KE= 4.274246909095D+02
 No NMR shielding tensors so no spin-rotation constants.
 Leave Link  601 at Thu Mar 19 09:33:01 2020, MaxMem= 1073741824 cpu:       1.2
 (Enter /home/matheus/.gaussian/g09/l9999.exe)

 Test job not archived.
 1\1\GINC-REDGIANT\SP\RwB97XD\Aug-CC-pVTZ\H2Kr1O2\ROOT\19-Mar-2020\0\\#
 p wb97xd/aug-cc-PVTz iop(3/107=0250000000) iop(3/108=0250000000) int=u
 ltrafine\\TCC\\0,1\O,0,0.,0.,0.725\O,0,0.,0.,-0.725\H,0,0.,0.918720594
 7,1.0235104166\H,0,0.,0.9187205947,-1.0235104166\Kr,0,0.,15.,0.\\Versi
 on=EM64L-G09RevC.01\State=1-A1\HF=-2905.4223384\RMSD=3.137e-09\Dipole=
 0.,1.2223014,0.\Quadrupole=13.7031685,-29.3116871,15.6085186,0.,0.,0.\
 PG=C02V [C2(Kr1),SGV(H2O2)]\\@


 Standing in the middle of the road is very dangerous;
 you get knocked down by the traffic from both sides.
                                -- Margaret Thatcher
 Job cpu time:  0 days  0 hours  2 minutes  0.7 seconds.
 File lengths (MBytes):  RWF=     27 Int=      0 D2E=      0 Chk=      2 Scr=      1
 Normal termination of Gaussian 09 at Thu Mar 19 09:33:01 2020.
