 Entering Gaussian System, Link 0=g09
 Input=/home/matheus/.ptcc/Inputs/teste.com
 Output=/home/matheus/.ptcc/Inputs/teste.log
 Initial command:
 /home/matheus/.gaussian/g09/l1.exe /home/matheus/.gaussian/g09/scratch/Gau-7150.inp -scrdir=/home/matheus/.gaussian/g09/scratch/
 Entering Link 1 = /home/matheus/.gaussian/g09/l1.exe PID=      7153.
  
 Copyright (c) 1988,1990,1992,1993,1995,1998,2003,2009,2011,
            Gaussian, Inc.  All Rights Reserved.
  
 This is part of the Gaussian(R) 09 program.  It is based on
 the Gaussian(R) 03 system (copyright 2003, Gaussian, Inc.),
 the Gaussian(R) 98 system (copyright 1998, Gaussian, Inc.),
 the Gaussian(R) 94 system (copyright 1995, Gaussian, Inc.),
 the Gaussian 92(TM) system (copyright 1992, Gaussian, Inc.),
 the Gaussian 90(TM) system (copyright 1990, Gaussian, Inc.),
 the Gaussian 88(TM) system (copyright 1988, Gaussian, Inc.),
 the Gaussian 86(TM) system (copyright 1986, Carnegie Mellon
 University), and the Gaussian 82(TM) system (copyright 1983,
 Carnegie Mellon University). Gaussian is a federally registered
 trademark of Gaussian, Inc.
  
 This software contains proprietary and confidential information,
 including trade secrets, belonging to Gaussian, Inc.
  
 This software is provided under written license and may be
 used, copied, transmitted, or stored only in accord with that
 written license.
  
 The following legend is applicable only to US Government
 contracts under FAR:
  
                    RESTRICTED RIGHTS LEGEND
  
 Use, reproduction and disclosure by the US Government is
 subject to restrictions as set forth in subparagraphs (a)
 and (c) of the Commercial Computer Software - Restricted
 Rights clause in FAR 52.227-19.
  
 Gaussian, Inc.
 340 Quinnipiac St., Bldg. 40, Wallingford CT 06492
  
  
 ---------------------------------------------------------------
 Warning -- This program may not be used in any manner that
 competes with the business of Gaussian, Inc. or will provide
 assistance to any competitor of Gaussian, Inc.  The licensee
 of this program is prohibited from giving any competitor of
 Gaussian, Inc. access to this program.  By using this program,
 the user acknowledges that Gaussian, Inc. is engaged in the
 business of creating and licensing software in the field of
 computational chemistry and represents and warrants to the
 licensee that it is not a competitor of Gaussian, Inc. and that
 it will not use this program in any manner prohibited above.
 ---------------------------------------------------------------
  

 Cite this work as:
 Gaussian 09, Revision C.01,
 M. J. Frisch, G. W. Trucks, H. B. Schlegel, G. E. Scuseria, 
 M. A. Robb, J. R. Cheeseman, G. Scalmani, V. Barone, B. Mennucci, 
 G. A. Petersson, H. Nakatsuji, M. Caricato, X. Li, H. P. Hratchian, 
 A. F. Izmaylov, J. Bloino, G. Zheng, J. L. Sonnenberg, M. Hada, 
 M. Ehara, K. Toyota, R. Fukuda, J. Hasegawa, M. Ishida, T. Nakajima, 
 Y. Honda, O. Kitao, H. Nakai, T. Vreven, J. A. Montgomery, Jr., 
 J. E. Peralta, F. Ogliaro, M. Bearpark, J. J. Heyd, E. Brothers, 
 K. N. Kudin, V. N. Staroverov, T. Keith, R. Kobayashi, J. Normand, 
 K. Raghavachari, A. Rendell, J. C. Burant, S. S. Iyengar, J. Tomasi, 
 M. Cossi, N. Rega, J. M. Millam, M. Klene, J. E. Knox, J. B. Cross, 
 V. Bakken, C. Adamo, J. Jaramillo, R. Gomperts, R. E. Stratmann, 
 O. Yazyev, A. J. Austin, R. Cammi, C. Pomelli, J. W. Ochterski, 
 R. L. Martin, K. Morokuma, V. G. Zakrzewski, G. A. Voth, 
 P. Salvador, J. J. Dannenberg, S. Dapprich, A. D. Daniels, 
 O. Farkas, J. B. Foresman, J. V. Ortiz, J. Cioslowski, 
 and D. J. Fox, Gaussian, Inc., Wallingford CT, 2010.
 
 ******************************************
 Gaussian 09:  EM64L-G09RevC.01 23-Sep-2011
                11-Nov-2019 
 ******************************************
 %mem=2GB
 %nproc=2
 Will use up to    2 processors via shared memory.
 -------------------------------------
 #p mp4/aug-cc-PVTz int=ultrafine Scan
 -------------------------------------
 1/38=1,60=1/1,8;
 2/12=2,17=6,18=5,29=3,40=1/2;
 3/5=16,6=1,7=10,11=9,16=1,25=1,30=1,75=-5/1,2,3;
 4//1;
 5/5=2,38=5/2;
 8/6=4,9=120000,10=1/1,4;
 9/5=5/13;
 6/7=2,8=2,9=2,10=2,18=1/1;
 1/60=1/8(1);
 99/9=1/99;
 2/29=3/2;
 3/5=16,6=1,7=10,11=9,16=1,25=1,30=1,75=-5/1,2,3;
 4/5=5,16=3/1;
 5/5=2,38=5/2;
 8/6=4,9=120000,10=1/1,4;
 9/5=5/13;
 1/60=1/8(-6);
 99/9=1/99;
 Leave Link    1 at Mon Nov 11 10:52:59 2019, MaxMem=  268435456 cpu:       0.0
 (Enter /home/matheus/.gaussian/g09/l101.exe)
 ----
 PTCC
 ----
 Charge =  0 Multiplicity = 1
 Symbolic Z-Matrix:
 O                     0.        0.        0.725 
 O                     0.        0.       -0.725 
 H                     0.15953   0.90476   1.02351 
 H                     0.        0.91872  -1.02351 
 Kr                    0.       R1        0. 
       Variables:
  R1                    3.     Scan 50    0.1    
 
 NAtoms=      5 NQM=        0 NQMF=       0 NMMI=      5 NMMIF=      0
                NMic=       0 NMicF=      0.
                    Isotopes and Nuclear Properties:
 (Nuclear quadrupole moments (NQMom) in fm**2, nuclear magnetic moments (NMagM)
  in nuclear magnetons)

  Atom         1           2           3           4           5
 IAtWgt=          16          16           1           1          84
 AtmWgt=  15.9949146  15.9949146   1.0078250   1.0078250  83.9115064
 NucSpn=           0           0           1           1           0
 AtZEff=   0.0000000   0.0000000   0.0000000   0.0000000   0.0000000
 NQMom=    0.0000000   0.0000000   0.0000000   0.0000000   0.0000000
 NMagM=    0.0000000   0.0000000   2.7928460   2.7928460   0.0000000
 Leave Link  101 at Mon Nov 11 10:52:59 2019, MaxMem=  268435456 cpu:       0.1
 (Enter /home/matheus/.gaussian/g09/l108.exe)
 Scan the potential surface.
 Variable   Value     No. Steps Step-Size
 -------- ----------- --------- ---------
     1       3.000000      50      0.1000
 A total of     51 points will be computed.
 Leave Link  108 at Mon Nov 11 10:52:59 2019, MaxMem=  268435456 cpu:       0.0
 (Enter /home/matheus/.gaussian/g09/l202.exe)
 ---------------------------------------------------------------------------------------------------
                            Z-MATRIX (ANGSTROMS AND DEGREES)
   CD    Cent   Atom    N1       Length/X        N2       Alpha/Y        N3        Beta/Z          J
 ---------------------------------------------------------------------------------------------------
      1      1  O        0   0.000000          0.000000          0.725000
      2      2  O        0   0.000000          0.000000         -0.725000
      3      3  H        0   0.159534          0.904763          1.023510
      4      4  H        0   0.000000          0.918721         -1.023510
      5      5  Kr       0   0.000000          3.000000          0.000000
 ---------------------------------------------------------------------------------------------------
                         Z-Matrix orientation:                         
 ---------------------------------------------------------------------
 Center     Atomic      Atomic             Coordinates (Angstroms)
 Number     Number       Type             X           Y           Z
 ---------------------------------------------------------------------
      1          8           0        0.000000    0.000000    0.725000
      2          8           0        0.000000    0.000000   -0.725000
      3          1           0        0.159534    0.904763    1.023510
      4          1           0        0.000000    0.918721   -1.023510
      5         36           0        0.000000    3.000000    0.000000
 ---------------------------------------------------------------------
                    Distance matrix (angstroms):
                    1          2          3          4          5
     1  O    0.000000
     2  O    1.450000   0.000000
     3  H    0.966000   1.975180   0.000000
     4  H    1.975180   0.966000   2.053275   0.000000
     5  Kr   3.086361   3.086361   2.337315   2.319331   0.000000
 Stoichiometry    H2KrO2
 Framework group  C1[X(H2KrO2)]
 Deg. of freedom     9
 Full point group                 C1      NOp   1
 Largest Abelian subgroup         C1      NOp   1
 Largest concise Abelian subgroup C1      NOp   1
                         Standard orientation:                         
 ---------------------------------------------------------------------
 Center     Atomic      Atomic             Coordinates (Angstroms)
 Number     Number       Type             X           Y           Z
 ---------------------------------------------------------------------
      1          8           0        2.033875   -0.724487   -0.017820
      2          8           0        2.033645    0.725337    0.004759
      3          1           0        1.129442   -1.025614    0.138637
      4          1           0        1.114878    1.023640    0.011023
      5         36           0       -0.966235   -0.000134   -0.001255
 ---------------------------------------------------------------------
 Rotational constants (GHZ):     26.6670558      2.3882151      2.1923671
 Leave Link  202 at Mon Nov 11 10:52:59 2019, MaxMem=  268435456 cpu:       0.0
 (Enter /home/matheus/.gaussian/g09/l301.exe)
 Standard basis: Aug-CC-pVTZ (5D, 7F)
 Ernie: Thresh=  0.10000D-02 Tol=  0.10000D-05 Strict=F.
 Ernie:  38 primitive shells out of 205 were deleted.
 There are   197 symmetry adapted basis functions of A   symmetry.
 Integral buffers will be    131072 words long.
 Raffenetti 1 integral format.
 Two-electron integral symmetry is turned on.
   197 basis functions,   415 primitive gaussians,   229 cartesian basis functions
    27 alpha electrons       27 beta electrons
       nuclear repulsion energy       151.7892858201 Hartrees.
 IExCor=    0 DFT=F Ex=HF Corr=None ExCW=0 ScaHFX=  1.000000
 ScaDFX=  1.000000  1.000000  1.000000  1.000000 ScalE2=  1.000000  1.000000
 IRadAn=      5 IRanWt=     -1 IRanGd=            0 ICorTp=0
 NAtoms=    5 NActive=    5 NUniq=    5 SFac= 1.00D+00 NAtFMM=   60 NAOKFM=F Big=F
 Leave Link  301 at Mon Nov 11 10:52:59 2019, MaxMem=  268435456 cpu:       0.0
 (Enter /home/matheus/.gaussian/g09/l302.exe)
 NPDir=0 NMtPBC=     1 NCelOv=     1 NCel=       1 NClECP=     1 NCelD=      1
         NCelK=      1 NCelE2=     1 NClLst=     1 CellRange=     0.0.
 One-electron integrals computed using PRISM.
 NBasis=   197 RedAO= T  NBF=   197
 NBsUse=   197 1.00D-06 NBFU=   197
 Leave Link  302 at Mon Nov 11 10:52:59 2019, MaxMem=  268435456 cpu:       0.2
 (Enter /home/matheus/.gaussian/g09/l303.exe)
 DipDrv:  MaxL=1.
 Leave Link  303 at Mon Nov 11 10:52:59 2019, MaxMem=  268435456 cpu:       0.0
 (Enter /home/matheus/.gaussian/g09/l401.exe)
 Harris functional with IExCor=  205 diagonalized for initial guess.
 ExpMin= 2.53D-02 ExpMax= 1.17D+07 ExpMxC= 1.33D+04 IAcc=3 IRadAn=         5 AccDes= 0.00D+00
 HarFok:  IExCor=  205 AccDes= 0.00D+00 IRadAn=         5 IDoV= 1
 ScaDFX=  1.000000  1.000000  1.000000  1.000000
 FoFCou: FMM=F IPFlag=           0 FMFlag=      100000 FMFlg1=           0
         NFxFlg=           0 DoJE=T BraDBF=F KetDBF=T FulRan=T
         Omega=  0.000000  0.000000  1.000000  0.000000  0.000000 ICntrl=     500 IOpCl=  0
         NMat0=    1 NMatS0=    1 NMatT0=    0 NMatD0=    1 NMtDS0=    0 NMtDT0=    0
         I1Cent=           4 NGrid=           0.
 Petite list used in FoFCou.
 Harris En= -2901.92365389567    
 Initial guess orbital symmetries:
       Occupied  (A) (A) (A) (A) (A) (A) (A) (A) (A) (A) (A) (A)
                 (A) (A) (A) (A) (A) (A) (A) (A) (A) (A) (A) (A)
                 (A) (A) (A)
       Virtual   (A) (A) (A) (A) (A) (A) (A) (A) (A) (A) (A) (A)
                 (A) (A) (A) (A) (A) (A) (A) (A) (A) (A) (A) (A)
                 (A) (A) (A) (A) (A) (A) (A) (A) (A) (A) (A) (A)
                 (A) (A) (A) (A) (A) (A) (A) (A) (A) (A) (A) (A)
                 (A) (A) (A) (A) (A) (A) (A) (A) (A) (A) (A) (A)
                 (A) (A) (A) (A) (A) (A) (A) (A) (A) (A) (A) (A)
                 (A) (A) (A) (A) (A) (A) (A) (A) (A) (A) (A) (A)
                 (A) (A) (A) (A) (A) (A) (A) (A) (A) (A) (A) (A)
                 (A) (A) (A) (A) (A) (A) (A) (A) (A) (A) (A) (A)
                 (A) (A) (A) (A) (A) (A) (A) (A) (A) (A) (A) (A)
                 (A) (A) (A) (A) (A) (A) (A) (A) (A) (A) (A) (A)
                 (A) (A) (A) (A) (A) (A) (A) (A) (A) (A) (A) (A)
                 (A) (A) (A) (A) (A) (A) (A) (A) (A) (A) (A) (A)
                 (A) (A) (A) (A) (A) (A) (A) (A) (A) (A) (A) (A)
                 (A) (A)
 The electronic state of the initial guess is 1-A.
 Leave Link  401 at Mon Nov 11 10:53:00 2019, MaxMem=  268435456 cpu:       1.2
 (Enter /home/matheus/.gaussian/g09/l502.exe)
 Closed shell SCF:
 Requested convergence on RMS density matrix=1.00D-08 within 128 cycles.
 Requested convergence on MAX density matrix=1.00D-06.
 Requested convergence on             energy=1.00D-06.
 No special actions if energy rises.
 Using DIIS extrapolation, IDIIS=  1040.
 Integral symmetry usage will be decided dynamically.
 IEnd=      178489 IEndB=      178489 NGot=   268435456 MDV=   268326278
 LenX=   268326278 LenY=   268273396
 Fock matrices will be formed incrementally for  20 cycles.

 Cycle   1  Pass 0  IDiag  1:
 FoFCou: FMM=F IPFlag=           0 FMFlag=      100000 FMFlg1=           0
         NFxFlg=           0 DoJE=F BraDBF=F KetDBF=F FulRan=T
         Omega=  0.000000  0.000000  1.000000  0.000000  0.000000 ICntrl=       0 IOpCl=  0
         NMat0=    1 NMatS0=    1 NMatT0=    0 NMatD0=    1 NMtDS0=    0 NMtDT0=    0
         I1Cent=           0 NGrid=           0.
 Symmetry not used in FoFCou.
 E= -2902.74418477113    
 DIIS: error= 6.46D-02 at cycle   1 NSaved=   1.
 NSaved= 1 IEnMin= 1 EnMin= -2902.74418477113     IErMin= 1 ErrMin= 6.46D-02
 ErrMax= 6.46D-02 EMaxC= 1.00D-01 BMatC= 7.07D-01 BMatP= 7.07D-01
 IDIUse=3 WtCom= 3.54D-01 WtEn= 6.46D-01
 Coeff-Com:  0.100D+01
 Coeff-En:   0.100D+01
 Coeff:      0.100D+01
 Gap=     0.680 Goal=   None    Shift=    0.000
 GapD=    0.680 DampG=2.000 DampE=0.500 DampFc=1.0000 IDamp=-1.
 RMSDP=2.35D-03 MaxDP=1.55D-01              OVMax= 5.82D-02

 Cycle   2  Pass 0  IDiag  1:
 RMSU=  1.64D-03    CP:  1.01D+00
 E= -2902.85152330515     Delta-E=       -0.107338534027 Rises=F Damp=F
 DIIS: error= 9.54D-03 at cycle   2 NSaved=   2.
 NSaved= 2 IEnMin= 2 EnMin= -2902.85152330515     IErMin= 2 ErrMin= 9.54D-03
 ErrMax= 9.54D-03 EMaxC= 1.00D-01 BMatC= 4.47D-02 BMatP= 7.07D-01
 IDIUse=3 WtCom= 9.05D-01 WtEn= 9.54D-02
 Coeff-Com:  0.158D+00 0.842D+00
 Coeff-En:   0.000D+00 0.100D+01
 Coeff:      0.143D+00 0.857D+00
 Gap=     0.512 Goal=   None    Shift=    0.000
 RMSDP=8.94D-04 MaxDP=4.46D-02 DE=-1.07D-01 OVMax= 2.51D-02

 Cycle   3  Pass 0  IDiag  1:
 RMSU=  4.90D-04    CP:  1.01D+00  7.67D-01
 E= -2902.86713711720     Delta-E=       -0.015613812051 Rises=F Damp=F
 DIIS: error= 3.05D-03 at cycle   3 NSaved=   3.
 NSaved= 3 IEnMin= 3 EnMin= -2902.86713711720     IErMin= 3 ErrMin= 3.05D-03
 ErrMax= 3.05D-03 EMaxC= 1.00D-01 BMatC= 2.71D-03 BMatP= 4.47D-02
 IDIUse=3 WtCom= 9.69D-01 WtEn= 3.05D-02
 Coeff-Com: -0.558D-02 0.176D+00 0.829D+00
 Coeff-En:   0.000D+00 0.000D+00 0.100D+01
 Coeff:     -0.541D-02 0.171D+00 0.835D+00
 Gap=     0.486 Goal=   None    Shift=    0.000
 RMSDP=1.40D-04 MaxDP=5.29D-03 DE=-1.56D-02 OVMax= 7.89D-03

 Cycle   4  Pass 0  IDiag  1:
 RMSU=  5.19D-05    CP:  1.01D+00  8.00D-01  8.72D-01
 E= -2902.86847652637     Delta-E=       -0.001339409165 Rises=F Damp=F
 DIIS: error= 6.77D-04 at cycle   4 NSaved=   4.
 NSaved= 4 IEnMin= 4 EnMin= -2902.86847652637     IErMin= 4 ErrMin= 6.77D-04
 ErrMax= 6.77D-04 EMaxC= 1.00D-01 BMatC= 5.71D-05 BMatP= 2.71D-03
 IDIUse=3 WtCom= 9.93D-01 WtEn= 6.77D-03
 Coeff-Com: -0.466D-02 0.137D-01 0.165D+00 0.826D+00
 Coeff-En:   0.000D+00 0.000D+00 0.000D+00 0.100D+01
 Coeff:     -0.463D-02 0.136D-01 0.164D+00 0.827D+00
 Gap=     0.491 Goal=   None    Shift=    0.000
 RMSDP=2.50D-05 MaxDP=7.05D-04 DE=-1.34D-03 OVMax= 1.79D-03

 Cycle   5  Pass 0  IDiag  1:
 RMSU=  1.41D-05    CP:  1.01D+00  8.02D-01  8.92D-01  9.38D-01
 E= -2902.86852215426     Delta-E=       -0.000045627894 Rises=F Damp=F
 DIIS: error= 1.74D-04 at cycle   5 NSaved=   5.
 NSaved= 5 IEnMin= 5 EnMin= -2902.86852215426     IErMin= 5 ErrMin= 1.74D-04
 ErrMax= 1.74D-04 EMaxC= 1.00D-01 BMatC= 3.58D-06 BMatP= 5.71D-05
 IDIUse=3 WtCom= 9.98D-01 WtEn= 1.74D-03
 Coeff-Com:  0.848D-03-0.152D-01-0.717D-01 0.178D-02 0.108D+01
 Coeff-En:   0.000D+00 0.000D+00 0.000D+00 0.000D+00 0.100D+01
 Coeff:      0.847D-03-0.151D-01-0.716D-01 0.178D-02 0.108D+01
 Gap=     0.491 Goal=   None    Shift=    0.000
 RMSDP=1.09D-05 MaxDP=3.17D-04 DE=-4.56D-05 OVMax= 7.06D-04

 Cycle   6  Pass 0  IDiag  1:
 RMSU=  4.84D-06    CP:  1.01D+00  8.00D-01  8.90D-01  1.02D+00  1.24D+00
 E= -2902.86852713853     Delta-E=       -0.000004984270 Rises=F Damp=F
 DIIS: error= 3.15D-05 at cycle   6 NSaved=   6.
 NSaved= 6 IEnMin= 6 EnMin= -2902.86852713853     IErMin= 6 ErrMin= 3.15D-05
 ErrMax= 3.15D-05 EMaxC= 1.00D-01 BMatC= 1.69D-07 BMatP= 3.58D-06
 IDIUse=1 WtCom= 1.00D+00 WtEn= 0.00D+00
 Coeff-Com:  0.152D-03 0.532D-03-0.440D-02-0.444D-01-0.628D-01 0.111D+01
 Coeff:      0.152D-03 0.532D-03-0.440D-02-0.444D-01-0.628D-01 0.111D+01
 Gap=     0.491 Goal=   None    Shift=    0.000
 RMSDP=2.96D-06 MaxDP=9.25D-05 DE=-4.98D-06 OVMax= 1.79D-04

 Initial convergence to 1.0D-05 achieved.  Increase integral accuracy.
 Cycle   7  Pass 1  IDiag  1:
 E= -2902.86852749376     Delta-E=       -0.000000355228 Rises=F Damp=F
 DIIS: error= 9.18D-06 at cycle   1 NSaved=   1.
 NSaved= 1 IEnMin= 1 EnMin= -2902.86852749376     IErMin= 1 ErrMin= 9.18D-06
 ErrMax= 9.18D-06 EMaxC= 1.00D-01 BMatC= 1.11D-08 BMatP= 1.11D-08
 IDIUse=1 WtCom= 1.00D+00 WtEn= 0.00D+00
 Coeff-Com:  0.100D+01
 Coeff:      0.100D+01
 Gap=     0.491 Goal=   None    Shift=    0.000
 RMSDP=2.96D-06 MaxDP=9.25D-05 DE=-3.55D-07 OVMax= 5.50D-05

 Cycle   8  Pass 1  IDiag  1:
 RMSU=  5.67D-07    CP:  1.00D+00
 E= -2902.86852752112     Delta-E=       -0.000000027355 Rises=F Damp=F
 DIIS: error= 5.61D-06 at cycle   2 NSaved=   2.
 NSaved= 2 IEnMin= 2 EnMin= -2902.86852752112     IErMin= 2 ErrMin= 5.61D-06
 ErrMax= 5.61D-06 EMaxC= 1.00D-01 BMatC= 2.65D-09 BMatP= 1.11D-08
 IDIUse=1 WtCom= 1.00D+00 WtEn= 0.00D+00
 Coeff-Com: -0.447D+00 0.145D+01
 Coeff:     -0.447D+00 0.145D+01
 Gap=     0.491 Goal=   None    Shift=    0.000
 RMSDP=5.10D-07 MaxDP=1.61D-05 DE=-2.74D-08 OVMax= 3.99D-05

 Cycle   9  Pass 1  IDiag  1:
 RMSU=  1.03D-07    CP:  1.00D+00  1.61D+00
 E= -2902.86852752909     Delta-E=       -0.000000007974 Rises=F Damp=F
 DIIS: error= 1.84D-06 at cycle   3 NSaved=   3.
 NSaved= 3 IEnMin= 3 EnMin= -2902.86852752909     IErMin= 3 ErrMin= 1.84D-06
 ErrMax= 1.84D-06 EMaxC= 1.00D-01 BMatC= 5.48D-10 BMatP= 2.65D-09
 IDIUse=1 WtCom= 1.00D+00 WtEn= 0.00D+00
 Coeff-Com: -0.285D+00 0.434D+00 0.851D+00
 Coeff:     -0.285D+00 0.434D+00 0.851D+00
 Gap=     0.491 Goal=   None    Shift=    0.000
 RMSDP=1.81D-07 MaxDP=7.21D-06 DE=-7.97D-09 OVMax= 1.43D-05

 Cycle  10  Pass 1  IDiag  1:
 RMSU=  4.44D-08    CP:  1.00D+00  1.82D+00  1.01D+00
 E= -2902.86852753005     Delta-E=       -0.000000000956 Rises=F Damp=F
 DIIS: error= 6.61D-07 at cycle   4 NSaved=   4.
 NSaved= 4 IEnMin= 4 EnMin= -2902.86852753005     IErMin= 4 ErrMin= 6.61D-07
 ErrMax= 6.61D-07 EMaxC= 1.00D-01 BMatC= 5.67D-11 BMatP= 5.48D-10
 IDIUse=1 WtCom= 1.00D+00 WtEn= 0.00D+00
 Coeff-Com:  0.675D-04-0.752D-01 0.154D+00 0.921D+00
 Coeff:      0.675D-04-0.752D-01 0.154D+00 0.921D+00
 Gap=     0.491 Goal=   None    Shift=    0.000
 RMSDP=4.77D-08 MaxDP=1.67D-06 DE=-9.56D-10 OVMax= 4.31D-06

 Cycle  11  Pass 1  IDiag  1:
 RMSU=  1.54D-08    CP:  1.00D+00  1.86D+00  1.18D+00  1.22D+00
 E= -2902.86852753013     Delta-E=       -0.000000000080 Rises=F Damp=F
 DIIS: error= 3.36D-07 at cycle   5 NSaved=   5.
 NSaved= 5 IEnMin= 5 EnMin= -2902.86852753013     IErMin= 5 ErrMin= 3.36D-07
 ErrMax= 3.36D-07 EMaxC= 1.00D-01 BMatC= 8.52D-12 BMatP= 5.67D-11
 IDIUse=1 WtCom= 1.00D+00 WtEn= 0.00D+00
 Coeff-Com:  0.521D-01-0.755D-01-0.172D+00-0.664D-01 0.126D+01
 Coeff:      0.521D-01-0.755D-01-0.172D+00-0.664D-01 0.126D+01
 Gap=     0.491 Goal=   None    Shift=    0.000
 RMSDP=2.75D-08 MaxDP=5.80D-07 DE=-7.96D-11 OVMax= 2.88D-06

 Cycle  12  Pass 1  IDiag  1:
 RMSU=  6.34D-09    CP:  1.00D+00  1.87D+00  1.25D+00  1.49D+00  1.44D+00
 E= -2902.86852753016     Delta-E=       -0.000000000034 Rises=F Damp=F
 DIIS: error= 7.18D-08 at cycle   6 NSaved=   6.
 NSaved= 6 IEnMin= 6 EnMin= -2902.86852753016     IErMin= 6 ErrMin= 7.18D-08
 ErrMax= 7.18D-08 EMaxC= 1.00D-01 BMatC= 7.52D-13 BMatP= 8.52D-12
 IDIUse=1 WtCom= 1.00D+00 WtEn= 0.00D+00
 Coeff-Com:  0.211D-02 0.128D-02-0.163D-01-0.685D-01 0.899D-02 0.107D+01
 Coeff:      0.211D-02 0.128D-02-0.163D-01-0.685D-01 0.899D-02 0.107D+01
 Gap=     0.491 Goal=   None    Shift=    0.000
 RMSDP=6.84D-09 MaxDP=1.75D-07 DE=-3.37D-11 OVMax= 6.58D-07

 SCF Done:  E(RHF) =  -2902.86852753     A.U. after   12 cycles
             Convg  =    0.6837D-08             -V/T =  2.0001
 KE= 2.902673750343D+03 PE=-7.243053744189D+03 EE= 1.285722180496D+03
 Leave Link  502 at Mon Nov 11 10:53:52 2019, MaxMem=  268435456 cpu:     102.4
 (Enter /home/matheus/.gaussian/g09/l801.exe)
 Windowed orbitals will be sorted by symmetry type.
 ExpMin= 2.53D-02 ExpMax= 1.17D+07 ExpMxC= 1.33D+04 IAcc=3 IRadAn=         5 AccDes= 0.00D+00
 HarFok:  IExCor=  205 AccDes= 0.00D+00 IRadAn=         5 IDoV=-2
 ScaDFX=  1.000000  1.000000  1.000000  1.000000
 DSYEVD returned Info=          93 IAlg= 4 N=    46 NDim=    46 NE2=     4547561 trying DSYEV.
 DSYEVD returned Info=          89 IAlg= 4 N=    59 NDim=    59 NE2=     4547561 trying DSYEV.
 Largest valence mixing into a core orbital is  1.47D-04
 Largest core mixing into a valence orbital is  2.63D-05
 Range of M.O.s used for correlation:    12   197
 NBasis=   197 NAE=    27 NBE=    27 NFC=    11 NFV=     0
 NROrb=    186 NOA=    16 NOB=    16 NVA=   170 NVB=   170

 **** Warning!!: The largest alpha MO coefficient is  0.17310886D+02

 Leave Link  801 at Mon Nov 11 10:53:53 2019, MaxMem=  268435456 cpu:       0.4
 (Enter /home/matheus/.gaussian/g09/l804.exe)
 Closed-shell transformation, MDV=   268435456 ITran=4 ISComp=1.
 Semi-Direct transformation.
 ModeAB=           2 MOrb=            16 LenV=     267323198
 LASXX=     48528660 LTotXX=    48528660 LenRXX=    48528660
 LTotAB=    49298776 MaxLAS=    78372960 LenRXY=    78372960
 NonZer=    97057320 LenScr=   146313216 LnRSAI=           0
 LnScr1=           0 LExtra=           0 Total=    273214836
 MaxDsk=          -1 SrtSym=           F ITran=            4
 DoSDTr:  NPSUse=  2
 JobTyp=0 Pass  1:  I=   1 to  16.
 (rs|ai) integrals will be sorted in core.
 Complete sort for first half transformation.
 First half transformation complete.
 Begin second half transformation for I=  10.
 Begin second half transformation for I=  10.
 Complete sort for second half transformation.
 Second half transformation complete.
 SymMOI:  orbitals are not symmetric.
 Spin components of T(2) and E(2):
     alpha-alpha T2 =       0.2624329897D-01 E2=     -0.1006406455D+00
     alpha-beta  T2 =       0.1424984968D+00 E2=     -0.5583454891D+00
     beta-beta   T2 =       0.2624329897D-01 E2=     -0.1006406455D+00
 ANorm=    0.1093153738D+01
 E2 =    -0.7596267801D+00 EUMP2 =    -0.29036281543103D+04
 Leave Link  804 at Mon Nov 11 10:54:26 2019, MaxMem=  268435456 cpu:      59.8
 (Enter /home/matheus/.gaussian/g09/l913.exe)
 CIDS:  MDV=   268435456.
 Frozen-core window:  NFC=  11 NFV=   0.
 IFCWin=0 IBDFC=1 NFBD=     0     0 NFCmp=     0     0 NFFFC=     0     0
 Using DD3R+UMP44R for 1st iteration, S=T.
 Using DD4RQ for 2nd and later iterations.
 Would need an additional       431206676 words for in-memory AO integral storage.
 MP4(SDTQ)
 =========
 DD1Dir will call FoFDir   1 times, MxPair=       272
 NAB=   136 NAA=     0 NBB=     0 NumPrc=  2.
 Integrals replicated using symmetry in FoFDir.
 MinBra= 0 MaxBra= 3 Meth= 1.
 IRaf=       0 NMat= 272 IRICut=     340 DoRegI=T DoRafI=T ISym2E= 2 JSym2E=2.
 MP4(D)= -0.14913655D-01
 MP4(S)= -0.65920476D-02
 MP4(R+Q)=  0.15697217D-01
