 Entering Gaussian System, Link 0=g09
 Input=/home/matheus/.tcc/Inputs-wb97xd/H2O2-Kr_5.com
 Output=/home/matheus/.tcc/Logs-wb97xd/H2O2-Kr_5.log
 Initial command:
 /home/matheus/.gaussian/g09/l1.exe /home/matheus/.gaussian/g09/scratch/Gau-3035.inp -scrdir=/home/matheus/.gaussian/g09/scratch/
 Entering Link 1 = /home/matheus/.gaussian/g09/l1.exe PID=      3039.
  
 Copyright (c) 1988,1990,1992,1993,1995,1998,2003,2009,2011,
            Gaussian, Inc.  All Rights Reserved.
  
 This is part of the Gaussian(R) 09 program.  It is based on
 the Gaussian(R) 03 system (copyright 2003, Gaussian, Inc.),
 the Gaussian(R) 98 system (copyright 1998, Gaussian, Inc.),
 the Gaussian(R) 94 system (copyright 1995, Gaussian, Inc.),
 the Gaussian 92(TM) system (copyright 1992, Gaussian, Inc.),
 the Gaussian 90(TM) system (copyright 1990, Gaussian, Inc.),
 the Gaussian 88(TM) system (copyright 1988, Gaussian, Inc.),
 the Gaussian 86(TM) system (copyright 1986, Carnegie Mellon
 University), and the Gaussian 82(TM) system (copyright 1983,
 Carnegie Mellon University). Gaussian is a federally registered
 trademark of Gaussian, Inc.
  
 This software contains proprietary and confidential information,
 including trade secrets, belonging to Gaussian, Inc.
  
 This software is provided under written license and may be
 used, copied, transmitted, or stored only in accord with that
 written license.
  
 The following legend is applicable only to US Government
 contracts under FAR:
  
                    RESTRICTED RIGHTS LEGEND
  
 Use, reproduction and disclosure by the US Government is
 subject to restrictions as set forth in subparagraphs (a)
 and (c) of the Commercial Computer Software - Restricted
 Rights clause in FAR 52.227-19.
  
 Gaussian, Inc.
 340 Quinnipiac St., Bldg. 40, Wallingford CT 06492
  
  
 ---------------------------------------------------------------
 Warning -- This program may not be used in any manner that
 competes with the business of Gaussian, Inc. or will provide
 assistance to any competitor of Gaussian, Inc.  The licensee
 of this program is prohibited from giving any competitor of
 Gaussian, Inc. access to this program.  By using this program,
 the user acknowledges that Gaussian, Inc. is engaged in the
 business of creating and licensing software in the field of
 computational chemistry and represents and warrants to the
 licensee that it is not a competitor of Gaussian, Inc. and that
 it will not use this program in any manner prohibited above.
 ---------------------------------------------------------------
  

 Cite this work as:
 Gaussian 09, Revision C.01,
 M. J. Frisch, G. W. Trucks, H. B. Schlegel, G. E. Scuseria, 
 M. A. Robb, J. R. Cheeseman, G. Scalmani, V. Barone, B. Mennucci, 
 G. A. Petersson, H. Nakatsuji, M. Caricato, X. Li, H. P. Hratchian, 
 A. F. Izmaylov, J. Bloino, G. Zheng, J. L. Sonnenberg, M. Hada, 
 M. Ehara, K. Toyota, R. Fukuda, J. Hasegawa, M. Ishida, T. Nakajima, 
 Y. Honda, O. Kitao, H. Nakai, T. Vreven, J. A. Montgomery, Jr., 
 J. E. Peralta, F. Ogliaro, M. Bearpark, J. J. Heyd, E. Brothers, 
 K. N. Kudin, V. N. Staroverov, T. Keith, R. Kobayashi, J. Normand, 
 K. Raghavachari, A. Rendell, J. C. Burant, S. S. Iyengar, J. Tomasi, 
 M. Cossi, N. Rega, J. M. Millam, M. Klene, J. E. Knox, J. B. Cross, 
 V. Bakken, C. Adamo, J. Jaramillo, R. Gomperts, R. E. Stratmann, 
 O. Yazyev, A. J. Austin, R. Cammi, C. Pomelli, J. W. Ochterski, 
 R. L. Martin, K. Morokuma, V. G. Zakrzewski, G. A. Voth, 
 P. Salvador, J. J. Dannenberg, S. Dapprich, A. D. Daniels, 
 O. Farkas, J. B. Foresman, J. V. Ortiz, J. Cioslowski, 
 and D. J. Fox, Gaussian, Inc., Wallingford CT, 2010.
 
 ******************************************
 Gaussian 09:  EM64L-G09RevC.01 23-Sep-2011
                 3-May-2020 
 ******************************************
 %mem=8GB
 %nproc=8
 Will use up to    8 processors via shared memory.
 ----------------------------------------------------------------------
 #p wb97xd/aug-cc-PVTz iop(3/107=0250000000) iop(3/108=0250000000) int=
 ultrafine counterpoise=2 Scan
 ----------------------------------------------------------------------
 1/38=1,60=1,62=2/1,8;
 2/12=2,17=6,18=5,29=3,40=1/2;
 1/38=1,53=5172,62=2/22;
 3/5=16,6=1,7=10,11=2,16=1,25=1,30=1,74=-58,75=-5,107=250000000,108=250000000/1,2,3;
 4//1;
 5/5=2,38=5/2;
 6/7=2,8=2,9=2,10=2,18=1,28=1/1;
 1/53=4052,62=2,63=1/22;
 3/5=7,6=11,7=10,11=2,16=1,25=1,30=1,74=-58,75=-5,82=7,107=250000000,108=250000000/1,2,3;
 4//1;
 5/5=2,38=5/2;
 6/7=2,8=2,9=2,10=2,18=1,28=1/1;
 1/53=3042,62=2,63=2/22;
 3/5=7,6=11,7=10,11=2,16=1,25=1,30=1,74=-58,75=-5,82=7,107=250000000,108=250000000/1,2,3;
 4//1;
 5/5=2,38=5/2;
 6/7=2,8=2,9=2,10=2,18=1,28=1/1;
 1/53=2032,62=2,63=3/22;
 3/5=7,6=11,7=10,11=2,16=1,25=1,30=1,74=-58,75=-5,82=7,107=250000000,108=250000000/1,2,3;
 4//1;
 5/5=2,38=5/2;
 6/7=2,8=2,9=2,10=2,18=1,28=1/1;
 1/53=1022,62=2,63=4/22;
 3/5=7,6=11,7=10,11=2,16=1,25=1,30=1,74=-58,75=-5,82=7,107=250000000,108=250000000/1,2,3;
 4//1;
 5/5=2,38=5/2;
 6/7=2,8=2,9=2,10=2,18=1,28=1/1;
 1/53=5014,62=2,63=5/22;
 1/60=1,62=2/8(1);
 99/9=1/99;
 2/29=3/2;
 1/53=5173,62=2/22;
 3/5=7,6=11,7=10,11=2,16=1,25=1,30=1,74=-58,75=-5,82=7,107=250000000,108=250000000/1,2,3;
 4/5=5,16=3/1;
 5/5=2,38=5/2;
 1/53=4053,62=2,63=1/22;
 3/5=7,6=11,7=10,11=2,16=1,25=1,30=1,74=-58,75=-5,82=7,107=250000000,108=250000000/1,2,3;
 4/5=5,16=3/1;
 5/5=2,38=5/2;
 1/53=3043,62=2,63=2/22;
 3/5=7,6=11,7=10,11=2,16=1,25=1,30=1,74=-58,75=-5,82=7,107=250000000,108=250000000/1,2,3;
 4/5=5,16=3/1;
 5/5=2,38=5/2;
 1/53=2033,62=2,63=3/22;
 3/5=7,6=11,7=10,11=2,16=1,25=1,30=1,74=-58,75=-5,82=7,107=250000000,108=250000000/1,2,3;
 4/5=5,16=3/1;
 5/5=2,38=5/2;
 1/53=1024,62=2,63=4/22;
 3/5=7,6=11,7=10,11=2,16=1,25=1,30=1,74=-58,75=-5,82=7,107=250000000,108=250000000/1,2,3;
 4/5=5,16=3/1;
 5/5=2,38=5/2;
 1/53=5014,62=2,63=5/22;
 1/60=1,62=2/8(-22);
 99/9=1/99;
 Leave Link    1 at Sun May  3 11:20:27 2020, MaxMem= 1073741824 cpu:       0.1
 (Enter /home/matheus/.gaussian/g09/l101.exe)
 ---
 TCC
 ---
 Charge =  0 Multiplicity = 1 in supermolecule
 Charge =  0 Multiplicity = 1 in fragment  1.
 Charge =  0 Multiplicity = 1 in fragment  2.
 Symbolic Z-Matrix:
 O(Fragment=1)         0.        0.        0.725 
 O(Fragment=1)         0.        0.       -0.725 
 H(Fragment=1)         0.70378   0.59054   1.02351 
 H(Fragment=1)         0.        0.91872  -1.02351 
 Kr(Fragment=2)        0.       R1        0. 
       Variables:
  R1                    3.     Scan 20    0.1    
 
 NAtoms=      5 NQM=        0 NQMF=       0 NMMI=      5 NMMIF=      0
                NMic=       0 NMicF=      0.
                    Isotopes and Nuclear Properties:
 (Nuclear quadrupole moments (NQMom) in fm**2, nuclear magnetic moments (NMagM)
  in nuclear magnetons)

  Atom         1           2           3           4           5
 IAtWgt=          16          16           1           1          84
 AtmWgt=  15.9949146  15.9949146   1.0078250   1.0078250  83.9115064
 NucSpn=           0           0           1           1           0
 AtZEff=   0.0000000   0.0000000   0.0000000   0.0000000   0.0000000
 NQMom=    0.0000000   0.0000000   0.0000000   0.0000000   0.0000000
 NMagM=    0.0000000   0.0000000   2.7928460   2.7928460   0.0000000
 Leave Link  101 at Sun May  3 11:20:27 2020, MaxMem= 1073741824 cpu:       0.3
 (Enter /home/matheus/.gaussian/g09/l108.exe)
 Scan the potential surface.
 Variable   Value     No. Steps Step-Size
 -------- ----------- --------- ---------
     1       3.000000      20      0.1000
 A total of     21 points will be computed.
 Leave Link  108 at Sun May  3 11:20:27 2020, MaxMem= 1073741824 cpu:       0.0
 (Enter /home/matheus/.gaussian/g09/l202.exe)
 ---------------------------------------------------------------------------------------------------
                            Z-MATRIX (ANGSTROMS AND DEGREES)
   CD    Cent   Atom    N1       Length/X        N2       Alpha/Y        N3        Beta/Z          J
 ---------------------------------------------------------------------------------------------------
      1      1  O        0   0.000000          0.000000          0.725000
      2      2  O        0   0.000000          0.000000         -0.725000
      3      3  H        0   0.703781          0.590542          1.023510
      4      4  H        0   0.000000          0.918721         -1.023510
      5      5  Kr       0   0.000000          3.000000          0.000000
 ---------------------------------------------------------------------------------------------------
                         Z-Matrix orientation:                         
 ---------------------------------------------------------------------
 Center     Atomic      Atomic             Coordinates (Angstroms)
 Number     Number       Type             X           Y           Z
 ---------------------------------------------------------------------
      1          8           0        0.000000    0.000000    0.725000
      2          8           0        0.000000    0.000000   -0.725000
      3          1           0        0.703781    0.590542    1.023510
      4          1           0        0.000000    0.918721   -1.023510
      5         36           0        0.000000    3.000000    0.000000
 ---------------------------------------------------------------------
                    Distance matrix (angstroms):
                    1          2          3          4          5
     1  O    0.000000
     2  O    1.450000   0.000000
     3  H    0.966000   1.975180   0.000000
     4  H    1.975180   0.966000   2.189361   0.000000
     5  Kr   3.086361   3.086361   2.710787   2.319331   0.000000
 Stoichiometry    H2KrO2
 Framework group  C1[X(H2KrO2)]
 Deg. of freedom     9
 Full point group                 C1      NOp   1
 Largest Abelian subgroup         C1      NOp   1
 Largest concise Abelian subgroup C1      NOp   1
                         Standard orientation:                         
 ---------------------------------------------------------------------
 Center     Atomic      Atomic             Coordinates (Angstroms)
 Number     Number       Type             X           Y           Z
 ---------------------------------------------------------------------
      1          8           0        2.030392   -0.713331   -0.083900
      2          8           0        2.025023    0.733004    0.018989
      3          1           0        1.447943   -1.063593    0.602558
      4          1           0        1.105248    1.026723    0.048985
      5         36           0       -0.972125   -0.003348   -0.003674
 ---------------------------------------------------------------------
 Rotational constants (GHZ):     26.0306695      2.3732907      2.1836508
 Leave Link  202 at Sun May  3 11:20:27 2020, MaxMem= 1073741824 cpu:       0.0
 (Enter /home/matheus/.gaussian/g09/l122.exe)
 Leave Link  122 at Sun May  3 11:20:27 2020, MaxMem= 1073741824 cpu:       0.0
 (Enter /home/matheus/.gaussian/g09/l301.exe)
 Standard basis: Aug-CC-pVTZ (5D, 7F)
 Ernie: Thresh=  0.10000D-02 Tol=  0.10000D-05 Strict=F.
 Ernie:  38 primitive shells out of 205 were deleted.
 There are   197 symmetry adapted basis functions of A   symmetry.
 Integral buffers will be    131072 words long.
 Raffenetti 2 integral format.
 Two-electron integral symmetry is turned on.
   197 basis functions,   415 primitive gaussians,   229 cartesian basis functions
    27 alpha electrons       27 beta electrons
       nuclear repulsion energy       150.6503454741 Hartrees.
 IExCor= 4639 DFT=T Ex+Corr=wB97XD ExCW=0 ScaHFX=  1.000000
 ScaDFX=  1.000000  1.000000  1.000000  1.000000 ScalE2=  1.000000  1.000000
 IRadAn=      5 IRanWt=     -1 IRanGd=            0 ICorTp=0
  HFx wShort=  0.000000 wLong=  0.250000 cFull=  0.222036 cShort=  0.000000 cLong=  0.777964
  DFx wShort=  0.000000 wLong=  0.250000 cFull=  0.000000 cShort=  0.000000 cLong=  1.000000
 NAtoms=    5 NActive=    5 NUniq=    5 SFac= 1.00D+00 NAtFMM=   60 NAOKFM=F Big=F
 R6Disp: Dispersion energy =        -0.0008742328 Hartrees.
 Nuclear repulsion after empirical dispersion term =      150.6494712413 Hartrees.
 Leave Link  301 at Sun May  3 11:20:27 2020, MaxMem= 1073741824 cpu:       0.2
 (Enter /home/matheus/.gaussian/g09/l302.exe)
 NPDir=0 NMtPBC=     1 NCelOv=     1 NCel=       1 NClECP=     1 NCelD=      1
         NCelK=      1 NCelE2=     1 NClLst=     1 CellRange=     0.0.
 One-electron integrals computed using PRISM.
 NBasis=   197 RedAO= T  NBF=   197
 NBsUse=   197 1.00D-06 NBFU=   197
 Precomputing XC quadrature grid using
 IXCGrd= 2 IRadAn=           5 IRanWt=          -1 IRanGd=           0 AccXCQ= 0.00D+00.
 NRdTot=     427 NPtTot=      123512 NUsed=      126579 NTot=      126611
 NSgBfM=   229   229   229   229   229 NAtAll=     5     5.
 Leave Link  302 at Sun May  3 11:20:27 2020, MaxMem= 1073741824 cpu:       1.0
 (Enter /home/matheus/.gaussian/g09/l303.exe)
 DipDrv:  MaxL=1.
 Leave Link  303 at Sun May  3 11:20:27 2020, MaxMem= 1073741824 cpu:       0.2
 (Enter /home/matheus/.gaussian/g09/l401.exe)
 Harris functional with IExCor= 4639 diagonalized for initial guess.
 ExpMin= 2.53D-02 ExpMax= 1.17D+07 ExpMxC= 1.33D+04 IAcc=3 IRadAn=         5 AccDes= 0.00D+00
 HarFok:  IExCor= 4639 AccDes= 0.00D+00 IRadAn=         5 IDoV= 1
 ScaDFX=  1.000000  1.000000  1.000000  1.000000
 FoFCou: FMM=F IPFlag=           0 FMFlag=      100000 FMFlg1=           0
         NFxFlg=           0 DoJE=T BraDBF=F KetDBF=T FulRan=T
         Omega=  0.000000  0.000000  1.000000  0.000000  0.000000 ICntrl=     500 IOpCl=  0
         NMat0=    1 NMatS0=    1 NMatT0=    0 NMatD0=    1 NMtDS0=    0 NMtDT0=    0
         I1Cent=           4 NGrid=           0.
 Petite list used in FoFCou.
 Harris En= -2875.39335619556    
 Initial guess orbital symmetries:
       Occupied  (A) (A) (A) (A) (A) (A) (A) (A) (A) (A) (A) (A)
                 (A) (A) (A) (A) (A) (A) (A) (A) (A) (A) (A) (A)
                 (A) (A) (A)
       Virtual   (A) (A) (A) (A) (A) (A) (A) (A) (A) (A) (A) (A)
                 (A) (A) (A) (A) (A) (A) (A) (A) (A) (A) (A) (A)
                 (A) (A) (A) (A) (A) (A) (A) (A) (A) (A) (A) (A)
                 (A) (A) (A) (A) (A) (A) (A) (A) (A) (A) (A) (A)
                 (A) (A) (A) (A) (A) (A) (A) (A) (A) (A) (A) (A)
                 (A) (A) (A) (A) (A) (A) (A) (A) (A) (A) (A) (A)
                 (A) (A) (A) (A) (A) (A) (A) (A) (A) (A) (A) (A)
                 (A) (A) (A) (A) (A) (A) (A) (A) (A) (A) (A) (A)
                 (A) (A) (A) (A) (A) (A) (A) (A) (A) (A) (A) (A)
                 (A) (A) (A) (A) (A) (A) (A) (A) (A) (A) (A) (A)
                 (A) (A) (A) (A) (A) (A) (A) (A) (A) (A) (A) (A)
                 (A) (A) (A) (A) (A) (A) (A) (A) (A) (A) (A) (A)
                 (A) (A) (A) (A) (A) (A) (A) (A) (A) (A) (A) (A)
                 (A) (A) (A) (A) (A) (A) (A) (A) (A) (A) (A) (A)
                 (A) (A)
 The electronic state of the initial guess is 1-A.
 Leave Link  401 at Sun May  3 11:20:28 2020, MaxMem= 1073741824 cpu:       4.1
 (Enter /home/matheus/.gaussian/g09/l502.exe)
 Closed shell SCF:
 Requested convergence on RMS density matrix=1.00D-08 within 128 cycles.
 Requested convergence on MAX density matrix=1.00D-06.
 Requested convergence on             energy=1.00D-06.
 No special actions if energy rises.
 Using DIIS extrapolation, IDIIS=  1040.
 Integral symmetry usage will be decided dynamically.
       126521 words used for storage of precomputed grid.
 IEnd=      305468 IEndB=      305468 NGot=  1073741824 MDV=  1073505667
 LenX=  1073505667 LenY=  1073452785
 Fock matrices will be formed incrementally for  20 cycles.

 Cycle   1  Pass 1  IDiag  1:
 FoFJK:  IHMeth= 1 ICntrl=     0 DoSepK=T KAlg= 1 I1Cent= 0 FoldK=F
 FoFCou: FMM=F IPFlag=           0 FMFlag=      100000 FMFlg1=           0
         NFxFlg=           0 DoJE=T BraDBF=F KetDBF=F FulRan=T
         Omega=  0.000000  0.000000  1.000000  0.000000  0.000000 ICntrl=     500 IOpCl=  0
         NMat0=    1 NMatS0=    1 NMatT0=    0 NMatD0=    1 NMtDS0=    0 NMtDT0=    0
         I1Cent=           0 NGrid=           0.
 Symmetry not used in FoFCou.
 E= -2904.89648469972    
 DIIS: error= 7.61D-02 at cycle   1 NSaved=   1.
 NSaved= 1 IEnMin= 1 EnMin= -2904.89648469972     IErMin= 1 ErrMin= 7.61D-02
 ErrMax= 7.61D-02 EMaxC= 1.00D-01 BMatC= 2.23D+00 BMatP= 2.23D+00
 IDIUse=3 WtCom= 2.39D-01 WtEn= 7.61D-01
 Coeff-Com:  0.100D+01
 Coeff-En:   0.100D+01
 Coeff:      0.100D+01
 Gap=     0.536 Goal=   None    Shift=    0.000
 GapD=    0.536 DampG=2.000 DampE=0.500 DampFc=1.0000 IDamp=-1.
 RMSDP=6.20D-03 MaxDP=3.72D-01              OVMax= 1.82D-01

 Cycle   2  Pass 1  IDiag  1:
 RMSU=  4.36D-03    CP:  1.03D+00
 FoFJK:  IHMeth= 1 ICntrl=     0 DoSepK=T KAlg= 1 I1Cent= 0 FoldK=F
 E= -2905.22127430164     Delta-E=       -0.324789601917 Rises=F Damp=F
 DIIS: error= 3.12D-02 at cycle   2 NSaved=   2.
 NSaved= 2 IEnMin= 2 EnMin= -2905.22127430164     IErMin= 2 ErrMin= 3.12D-02
 ErrMax= 3.12D-02 EMaxC= 1.00D-01 BMatC= 5.64D-01 BMatP= 2.23D+00
 IDIUse=3 WtCom= 6.88D-01 WtEn= 3.12D-01
 Coeff-Com:  0.327D+00 0.673D+00
 Coeff-En:   0.192D+00 0.808D+00
 Coeff:      0.285D+00 0.715D+00
 Gap=     0.483 Goal=   None    Shift=    0.000
 RMSDP=2.71D-03 MaxDP=1.60D-01 DE=-3.25D-01 OVMax= 7.38D-02

 Cycle   3  Pass 1  IDiag  1:
 RMSU=  5.71D-04    CP:  1.02D+00  5.83D-01
 FoFJK:  IHMeth= 1 ICntrl=     0 DoSepK=T KAlg= 1 I1Cent= 0 FoldK=F
 E= -2905.41366200948     Delta-E=       -0.192387707837 Rises=F Damp=F
 DIIS: error= 5.30D-03 at cycle   3 NSaved=   3.
 NSaved= 3 IEnMin= 3 EnMin= -2905.41366200948     IErMin= 3 ErrMin= 5.30D-03
 ErrMax= 5.30D-03 EMaxC= 1.00D-01 BMatC= 1.85D-02 BMatP= 5.64D-01
 IDIUse=3 WtCom= 9.47D-01 WtEn= 5.30D-02
 Coeff-Com:  0.327D-01 0.188D+00 0.779D+00
 Coeff-En:   0.000D+00 0.000D+00 0.100D+01
 Coeff:      0.310D-01 0.178D+00 0.791D+00
 Gap=     0.433 Goal=   None    Shift=    0.000
 RMSDP=4.90D-04 MaxDP=1.79D-02 DE=-1.92D-01 OVMax= 2.61D-02

 Cycle   4  Pass 1  IDiag  1:
 RMSU=  2.33D-04    CP:  1.02D+00  6.40D-01  9.16D-01
 FoFJK:  IHMeth= 1 ICntrl=     0 DoSepK=T KAlg= 1 I1Cent= 0 FoldK=F
 E= -2905.42203624809     Delta-E=       -0.008374238615 Rises=F Damp=F
 DIIS: error= 2.16D-03 at cycle   4 NSaved=   4.
 NSaved= 4 IEnMin= 4 EnMin= -2905.42203624809     IErMin= 4 ErrMin= 2.16D-03
 ErrMax= 2.16D-03 EMaxC= 1.00D-01 BMatC= 1.75D-03 BMatP= 1.85D-02
 IDIUse=3 WtCom= 9.78D-01 WtEn= 2.16D-02
 Coeff-Com: -0.265D-02 0.490D-01 0.370D+00 0.584D+00
 Coeff-En:   0.000D+00 0.000D+00 0.000D+00 0.100D+01
 Coeff:     -0.259D-02 0.480D-01 0.362D+00 0.593D+00
 Gap=     0.417 Goal=   None    Shift=    0.000
 RMSDP=1.24D-04 MaxDP=6.56D-03 DE=-8.37D-03 OVMax= 6.66D-03

 Cycle   5  Pass 1  IDiag  1:
 RMSU=  4.06D-05    CP:  1.02D+00  6.38D-01  9.57D-01  6.89D-01
 FoFJK:  IHMeth= 1 ICntrl=     0 DoSepK=T KAlg= 1 I1Cent= 0 FoldK=F
 E= -2905.42310924035     Delta-E=       -0.001072992253 Rises=F Damp=F
 DIIS: error= 1.54D-04 at cycle   5 NSaved=   5.
 NSaved= 5 IEnMin= 5 EnMin= -2905.42310924035     IErMin= 5 ErrMin= 1.54D-04
 ErrMax= 1.54D-04 EMaxC= 1.00D-01 BMatC= 1.19D-05 BMatP= 1.75D-03
 IDIUse=3 WtCom= 9.98D-01 WtEn= 1.54D-03
 Coeff-Com: -0.109D-02 0.297D-02 0.420D-01 0.847D-01 0.871D+00
 Coeff-En:   0.000D+00 0.000D+00 0.000D+00 0.000D+00 0.100D+01
 Coeff:     -0.109D-02 0.297D-02 0.420D-01 0.846D-01 0.872D+00
 Gap=     0.417 Goal=   None    Shift=    0.000
 RMSDP=2.21D-05 MaxDP=8.95D-04 DE=-1.07D-03 OVMax= 1.25D-03

 Cycle   6  Pass 1  IDiag  1:
 RMSU=  1.17D-05    CP:  1.02D+00  6.38D-01  9.68D-01  7.06D-01  1.17D+00
 FoFJK:  IHMeth= 1 ICntrl=     0 DoSepK=T KAlg= 1 I1Cent= 0 FoldK=F
 E= -2905.42311545758     Delta-E=       -0.000006217230 Rises=F Damp=F
 DIIS: error= 1.53D-04 at cycle   6 NSaved=   6.
 NSaved= 6 IEnMin= 6 EnMin= -2905.42311545758     IErMin= 6 ErrMin= 1.53D-04
 ErrMax= 1.53D-04 EMaxC= 1.00D-01 BMatC= 9.24D-06 BMatP= 1.19D-05
 IDIUse=3 WtCom= 9.98D-01 WtEn= 1.53D-03
 Coeff-Com: -0.262D-03-0.569D-02-0.301D-01-0.394D-01 0.504D+00 0.572D+00
 Coeff-En:   0.000D+00 0.000D+00 0.000D+00 0.000D+00 0.219D+00 0.781D+00
 Coeff:     -0.262D-03-0.568D-02-0.301D-01-0.394D-01 0.503D+00 0.572D+00
 Gap=     0.417 Goal=   None    Shift=    0.000
 RMSDP=1.01D-05 MaxDP=4.04D-04 DE=-6.22D-06 OVMax= 7.10D-04

 Cycle   7  Pass 1  IDiag  1:
 RMSU=  3.64D-06    CP:  1.02D+00  6.38D-01  9.73D-01  7.11D-01  1.28D+00
                    CP:  7.18D-01
 FoFJK:  IHMeth= 1 ICntrl=     0 DoSepK=T KAlg= 1 I1Cent= 0 FoldK=F
 E= -2905.42312182501     Delta-E=       -0.000006367437 Rises=F Damp=F
 DIIS: error= 2.37D-05 at cycle   7 NSaved=   7.
 NSaved= 7 IEnMin= 7 EnMin= -2905.42312182501     IErMin= 7 ErrMin= 2.37D-05
 ErrMax= 2.37D-05 EMaxC= 1.00D-01 BMatC= 1.46D-07 BMatP= 9.24D-06
 IDIUse=1 WtCom= 1.00D+00 WtEn= 0.00D+00
 Coeff-Com:  0.221D-04-0.143D-02-0.948D-02-0.140D-01 0.165D-01 0.112D+00
 Coeff-Com:  0.896D+00
 Coeff:      0.221D-04-0.143D-02-0.948D-02-0.140D-01 0.165D-01 0.112D+00
 Coeff:      0.896D+00
 Gap=     0.417 Goal=   None    Shift=    0.000
 RMSDP=2.70D-06 MaxDP=8.01D-05 DE=-6.37D-06 OVMax= 2.00D-04

 Cycle   8  Pass 1  IDiag  1:
 RMSU=  8.79D-07    CP:  1.02D+00  6.38D-01  9.73D-01  7.12D-01  1.31D+00
                    CP:  7.94D-01  1.17D+00
 FoFJK:  IHMeth= 1 ICntrl=     0 DoSepK=T KAlg= 1 I1Cent= 0 FoldK=F
 E= -2905.42312203646     Delta-E=       -0.000000211448 Rises=F Damp=F
 DIIS: error= 5.72D-06 at cycle   8 NSaved=   8.
 NSaved= 8 IEnMin= 8 EnMin= -2905.42312203646     IErMin= 8 ErrMin= 5.72D-06
 ErrMax= 5.72D-06 EMaxC= 1.00D-01 BMatC= 6.10D-09 BMatP= 1.46D-07
 IDIUse=1 WtCom= 1.00D+00 WtEn= 0.00D+00
 Coeff-Com:  0.185D-04 0.239D-03 0.113D-02 0.113D-02-0.309D-01-0.279D-01
 Coeff-Com:  0.390D-01 0.102D+01
 Coeff:      0.185D-04 0.239D-03 0.113D-02 0.113D-02-0.309D-01-0.279D-01
 Coeff:      0.390D-01 0.102D+01
 Gap=     0.417 Goal=   None    Shift=    0.000
 RMSDP=8.59D-07 MaxDP=2.10D-05 DE=-2.11D-07 OVMax= 8.29D-05

 Cycle   9  Pass 1  IDiag  1:
 RMSU=  2.80D-07    CP:  1.02D+00  6.38D-01  9.74D-01  7.12D-01  1.32D+00
                    CP:  8.08D-01  1.26D+00  1.30D+00
 FoFJK:  IHMeth= 1 ICntrl=     0 DoSepK=T KAlg= 1 I1Cent= 0 FoldK=F
 E= -2905.42312205316     Delta-E=       -0.000000016700 Rises=F Damp=F
 DIIS: error= 1.94D-06 at cycle   9 NSaved=   9.
 NSaved= 9 IEnMin= 9 EnMin= -2905.42312205316     IErMin= 9 ErrMin= 1.94D-06
 ErrMax= 1.94D-06 EMaxC= 1.00D-01 BMatC= 5.28D-10 BMatP= 6.10D-09
 IDIUse=1 WtCom= 1.00D+00 WtEn= 0.00D+00
 Coeff-Com: -0.146D-05 0.934D-04 0.619D-03 0.681D-03-0.598D-03-0.539D-02
 Coeff-Com: -0.525D-01-0.537D-01 0.111D+01
 Coeff:     -0.146D-05 0.934D-04 0.619D-03 0.681D-03-0.598D-03-0.539D-02
 Coeff:     -0.525D-01-0.537D-01 0.111D+01
 Gap=     0.417 Goal=   None    Shift=    0.000
 RMSDP=2.80D-07 MaxDP=7.72D-06 DE=-1.67D-08 OVMax= 3.26D-05

 Cycle  10  Pass 1  IDiag  1:
 RMSU=  8.50D-08    CP:  1.02D+00  6.38D-01  9.74D-01  7.12D-01  1.32D+00
                    CP:  8.10D-01  1.27D+00  1.41D+00  1.36D+00
 FoFJK:  IHMeth= 1 ICntrl=     0 DoSepK=T KAlg= 1 I1Cent= 0 FoldK=F
 E= -2905.42312205482     Delta-E=       -0.000000001661 Rises=F Damp=F
 DIIS: error= 4.57D-07 at cycle  10 NSaved=  10.
 NSaved=10 IEnMin=10 EnMin= -2905.42312205482     IErMin=10 ErrMin= 4.57D-07
 ErrMax= 4.57D-07 EMaxC= 1.00D-01 BMatC= 5.21D-11 BMatP= 5.28D-10
 IDIUse=1 WtCom= 1.00D+00 WtEn= 0.00D+00
 Coeff-Com: -0.111D-05-0.111D-04-0.476D-04-0.504D-04 0.261D-02 0.242D-02
 Coeff-Com: -0.356D-02-0.112D+00 0.136D+00 0.975D+00
 Coeff:     -0.111D-05-0.111D-04-0.476D-04-0.504D-04 0.261D-02 0.242D-02
 Coeff:     -0.356D-02-0.112D+00 0.136D+00 0.975D+00
 Gap=     0.417 Goal=   None    Shift=    0.000
 RMSDP=7.81D-08 MaxDP=1.70D-06 DE=-1.66D-09 OVMax= 9.84D-06

 Cycle  11  Pass 1  IDiag  1:
 RMSU=  2.13D-08    CP:  1.02D+00  6.38D-01  9.74D-01  7.12D-01  1.32D+00
                    CP:  8.11D-01  1.27D+00  1.43D+00  1.50D+00  1.25D+00
 FoFJK:  IHMeth= 1 ICntrl=     0 DoSepK=T KAlg= 1 I1Cent= 0 FoldK=F
 E= -2905.42312205498     Delta-E=       -0.000000000158 Rises=F Damp=F
 DIIS: error= 1.17D-07 at cycle  11 NSaved=  11.
 NSaved=11 IEnMin=11 EnMin= -2905.42312205498     IErMin=11 ErrMin= 1.17D-07
 ErrMax= 1.17D-07 EMaxC= 1.00D-01 BMatC= 3.90D-12 BMatP= 5.21D-11
 IDIUse=1 WtCom= 1.00D+00 WtEn= 0.00D+00
 Coeff-Com:  0.441D-06-0.547D-05-0.443D-04-0.271D-04-0.361D-03 0.111D-03
 Coeff-Com:  0.566D-02 0.122D-01-0.977D-01-0.122D+00 0.120D+01
 Coeff:      0.441D-06-0.547D-05-0.443D-04-0.271D-04-0.361D-03 0.111D-03
 Coeff:      0.566D-02 0.122D-01-0.977D-01-0.122D+00 0.120D+01
 Gap=     0.417 Goal=   None    Shift=    0.000
 RMSDP=2.58D-08 MaxDP=5.04D-07 DE=-1.58D-10 OVMax= 3.39D-06

 Cycle  12  Pass 1  IDiag  1:
 RMSU=  5.60D-09    CP:  1.02D+00  6.38D-01  9.74D-01  7.12D-01  1.32D+00
                    CP:  8.11D-01  1.27D+00  1.43D+00  1.54D+00  1.39D+00
                    CP:  1.34D+00
 FoFJK:  IHMeth= 1 ICntrl=     0 DoSepK=T KAlg= 1 I1Cent= 0 FoldK=F
 E= -2905.42312205498     Delta-E=        0.000000000003 Rises=F Damp=F
 DIIS: error= 3.45D-08 at cycle  12 NSaved=  12.
 NSaved=12 IEnMin=11 EnMin= -2905.42312205498     IErMin=12 ErrMin= 3.45D-08
 ErrMax= 3.45D-08 EMaxC= 1.00D-01 BMatC= 1.52D-13 BMatP= 3.90D-12
 IDIUse=1 WtCom= 1.00D+00 WtEn= 0.00D+00
 Coeff-Com: -0.403D-07 0.655D-06 0.545D-05-0.255D-05-0.782D-04-0.101D-03
 Coeff-Com: -0.270D-03 0.346D-02 0.651D-02-0.239D-01-0.180D+00 0.119D+01
 Coeff:     -0.403D-07 0.655D-06 0.545D-05-0.255D-05-0.782D-04-0.101D-03
 Coeff:     -0.270D-03 0.346D-02 0.651D-02-0.239D-01-0.180D+00 0.119D+01
 Gap=     0.417 Goal=   None    Shift=    0.000
 RMSDP=5.14D-09 MaxDP=1.74D-07 DE= 2.73D-12 OVMax= 5.89D-07

 SCF Done:  E(RwB97XD) =  -2905.42312205     A.U. after   12 cycles
             Convg  =    0.5136D-08             -V/T =  2.0015
 KE= 2.900953720480D+03 PE=-7.238975028889D+03 EE= 1.281948715112D+03
 Leave Link  502 at Sun May  3 11:21:04 2020, MaxMem= 1073741824 cpu:     291.3
 (Enter /home/matheus/.gaussian/g09/l601.exe)
 Copying SCF densities to generalized density rwf, IOpCl= 0 IROHF=0.

 **********************************************************************

            Population analysis using the SCF density.

 **********************************************************************

 Orbital symmetries:
       Occupied  (A) (A) (A) (A) (A) (A) (A) (A) (A) (A) (A) (A)
                 (A) (A) (A) (A) (A) (A) (A) (A) (A) (A) (A) (A)
                 (A) (A) (A)
       Virtual   (A) (A) (A) (A) (A) (A) (A) (A) (A) (A) (A) (A)
                 (A) (A) (A) (A) (A) (A) (A) (A) (A) (A) (A) (A)
                 (A) (A) (A) (A) (A) (A) (A) (A) (A) (A) (A) (A)
                 (A) (A) (A) (A) (A) (A) (A) (A) (A) (A) (A) (A)
                 (A) (A) (A) (A) (A) (A) (A) (A) (A) (A) (A) (A)
                 (A) (A) (A) (A) (A) (A) (A) (A) (A) (A) (A) (A)
                 (A) (A) (A) (A) (A) (A) (A) (A) (A) (A) (A) (A)
                 (A) (A) (A) (A) (A) (A) (A) (A) (A) (A) (A) (A)
                 (A) (A) (A) (A) (A) (A) (A) (A) (A) (A) (A) (A)
                 (A) (A) (A) (A) (A) (A) (A) (A) (A) (A) (A) (A)
                 (A) (A) (A) (A) (A) (A) (A) (A) (A) (A) (A) (A)
                 (A) (A) (A) (A) (A) (A) (A) (A) (A) (A) (A) (A)
                 (A) (A) (A) (A) (A) (A) (A) (A) (A) (A) (A) (A)
                 (A) (A) (A) (A) (A) (A) (A) (A) (A) (A) (A) (A)
                 (A) (A)
 The electronic state is 1-A.
 Alpha  occ. eigenvalues -- -513.10820 -67.37641 -60.92519 -60.92511 -60.92502
 Alpha  occ. eigenvalues --  -19.33959 -19.33679  -9.82966  -7.52293  -7.52266
 Alpha  occ. eigenvalues --   -7.52236  -3.38977  -3.38973  -3.38950  -3.38928
 Alpha  occ. eigenvalues --   -3.38924  -1.24681  -1.03833  -1.02991  -0.68565
 Alpha  occ. eigenvalues --   -0.56167  -0.54378  -0.51370  -0.50906  -0.49891
 Alpha  occ. eigenvalues --   -0.45094  -0.38262
 Alpha virt. eigenvalues --    0.03443   0.04416   0.08531   0.09282   0.10029
 Alpha virt. eigenvalues --    0.11847   0.12752   0.14694   0.17270   0.17686
 Alpha virt. eigenvalues --    0.18157   0.19199   0.20238   0.22035   0.23268
 Alpha virt. eigenvalues --    0.24057   0.24775   0.27897   0.30193   0.32521
 Alpha virt. eigenvalues --    0.33961   0.34986   0.36923   0.38323   0.39815
 Alpha virt. eigenvalues --    0.41532   0.42241   0.47093   0.51975   0.53673
 Alpha virt. eigenvalues --    0.56366   0.58496   0.60637   0.63340   0.66996
 Alpha virt. eigenvalues --    0.67856   0.69747   0.72627   0.74306   0.74946
 Alpha virt. eigenvalues --    0.75437   0.76459   0.77882   0.79836   0.82988
 Alpha virt. eigenvalues --    0.84358   0.85752   0.87543   0.88097   0.89658
 Alpha virt. eigenvalues --    0.90560   0.94323   0.95837   0.96752   0.99105
 Alpha virt. eigenvalues --    1.00111   1.01306   1.04039   1.06045   1.09268
 Alpha virt. eigenvalues --    1.10637   1.14712   1.17757   1.20978   1.23231
 Alpha virt. eigenvalues --    1.28030   1.32879   1.35920   1.39273   1.41710
 Alpha virt. eigenvalues --    1.43235   1.47140   1.49832   1.53713   1.58574
 Alpha virt. eigenvalues --    1.64827   1.68025   1.82437   1.89161   1.92144
 Alpha virt. eigenvalues --    1.99296   2.04847   2.07811   2.09389   2.13132
 Alpha virt. eigenvalues --    2.14044   2.17884   2.18545   2.20691   2.24699
 Alpha virt. eigenvalues --    2.28113   2.28503   2.29176   2.30964   2.31740
 Alpha virt. eigenvalues --    2.37070   2.37477   2.43441   2.46388   2.46488
 Alpha virt. eigenvalues --    2.48748   2.50314   2.53663   2.54383   2.56101
 Alpha virt. eigenvalues --    2.57153   2.61779   2.64837   2.67971   2.70555
 Alpha virt. eigenvalues --    2.71967   2.75323   2.81209   2.87088   2.88148
 Alpha virt. eigenvalues --    2.93228   2.99955   3.08562   3.10904   3.60423
 Alpha virt. eigenvalues --    3.66266   3.93831   3.97489   3.99130   4.03459
 Alpha virt. eigenvalues --    4.10328   4.12109   4.22512   4.23769   4.25518
 Alpha virt. eigenvalues --    4.42327   4.46500   4.59167   4.61943   4.68206
 Alpha virt. eigenvalues --    4.96038   4.99684   5.00903   5.06512   5.14311
 Alpha virt. eigenvalues --    5.16576   5.44307   5.84461   6.01299   6.12098
 Alpha virt. eigenvalues --    6.13172   6.30530   6.38604   6.39985   6.52830
 Alpha virt. eigenvalues --    6.65100   6.74375   6.78161   6.83261   6.85307
 Alpha virt. eigenvalues --    6.89393   6.90254   6.91870   6.92199   7.04476
 Alpha virt. eigenvalues --    7.10760   7.16359   7.23959   7.45482   7.50066
 Alpha virt. eigenvalues --    7.87270   8.04743   8.15093  14.05101  14.67518
          Condensed to atoms (all electrons):
              1          2          3          4          5
     1  O    8.228779  -0.192969   0.185056   0.019810  -0.021793
     2  O   -0.192969   8.257242   0.026241   0.180749  -0.018981
     3  H    0.185056   0.026241   0.572411  -0.006659   0.002529
     4  H    0.019810   0.180749  -0.006659   0.574997  -0.008746
     5  Kr  -0.021793  -0.018981   0.002529  -0.008746  36.036094
 Mulliken atomic charges:
              1
     1  O   -0.218883
     2  O   -0.252283
     3  H    0.220421
     4  H    0.239848
     5  Kr   0.010897
 Sum of Mulliken atomic charges =   0.00000
 Mulliken charges with hydrogens summed into heavy atoms:
              1
     1  O    0.001538
     2  O   -0.012434
     5  Kr   0.010897
 Sum of Mulliken charges with hydrogens summed into heavy atoms =   0.00000
          Condensed to fragments (all electrons):
     1      -0.010897
     2       0.010897
 Electronic spatial extent (au):  <R**2>=            478.3766
 Charge=              0.0000 electrons
 Dipole moment (field-independent basis, Debye):
    X=             -2.9094    Y=             -0.2192    Z=              1.0524  Tot=              3.1017
 Quadrupole moment (field-independent basis, Debye-Ang):
   XX=            -37.7766   YY=            -27.9709   ZZ=            -29.6166
   XY=             -0.8158   XZ=              1.5341   YZ=             -1.3802
 Traceless Quadrupole moment (field-independent basis, Debye-Ang):
   XX=             -5.9886   YY=              3.8171   ZZ=              2.1714
   XY=             -0.8158   XZ=              1.5341   YZ=             -1.3802
 Octapole moment (field-independent basis, Debye-Ang**2):
  XXX=            -42.8065  YYY=             -0.5719  ZZZ=              0.4397  XYY=             -6.8280
  XXY=             -2.0496  XXZ=              1.2579  XZZ=             -7.2454  YZZ=             -1.1041
  YYZ=              1.6524  XYZ=             -1.9930
 Hexadecapole moment (field-independent basis, Debye-Ang**3):
 XXXX=           -459.9681 YYYY=            -63.0682 ZZZZ=            -29.7712 XXXY=             -2.7866
 XXXZ=              0.8358 YYYX=             -1.5444 YYYZ=             -1.9715 ZZZX=              1.0159
 ZZZY=             -1.1782 XXYY=            -84.5339 XXZZ=            -74.5767 YYZZ=            -16.5040
 XXYZ=             -2.9020 YYXZ=              2.3817 ZZXY=             -1.6552
 N-N= 1.506494712413D+02 E-N=-7.238975027594D+03  KE= 2.900953720480D+03
 No NMR shielding tensors so no spin-rotation constants.
 Leave Link  601 at Sun May  3 11:21:04 2020, MaxMem= 1073741824 cpu:       0.8
 (Enter /home/matheus/.gaussian/g09/l122.exe)
 Counterpoise: doing DCBS calculation for fragment   1 NewBq=T
 Leave Link  122 at Sun May  3 11:21:04 2020, MaxMem= 1073741824 cpu:       0.0
 (Enter /home/matheus/.gaussian/g09/l301.exe)
 Basis read from rwf:  (5D, 7F)
 No pseudopotential information found on rwf file.
 There are   197 symmetry adapted basis functions of A   symmetry.
 Integral buffers will be    131072 words long.
 Raffenetti 2 integral format.
 Two-electron integral symmetry is turned on.
   197 basis functions,   415 primitive gaussians,   229 cartesian basis functions
     9 alpha electrons        9 beta electrons
       nuclear repulsion energy        36.6499454140 Hartrees.
 IExCor= 4639 DFT=T Ex+Corr=wB97XD ExCW=0 ScaHFX=  1.000000
 ScaDFX=  1.000000  1.000000  1.000000  1.000000 ScalE2=  1.000000  1.000000
 IRadAn=      5 IRanWt=     -1 IRanGd=            0 ICorTp=0
  HFx wShort=  0.000000 wLong=  0.250000 cFull=  0.222036 cShort=  0.000000 cLong=  0.777964
  DFx wShort=  0.000000 wLong=  0.250000 cFull=  0.000000 cShort=  0.000000 cLong=  1.000000
 NAtoms=    5 NActive=    5 NUniq=    5 SFac= 1.00D+00 NAtFMM=   60 NAOKFM=F Big=F
 R6Disp: Dispersion energy =        -0.0002472616 Hartrees.
 Nuclear repulsion after empirical dispersion term =       36.6496981524 Hartrees.
 No density basis found on file   718.
 Leave Link  301 at Sun May  3 11:21:04 2020, MaxMem= 1073741824 cpu:       0.2
 (Enter /home/matheus/.gaussian/g09/l302.exe)
 NPDir=0 NMtPBC=     1 NCelOv=     1 NCel=       1 NClECP=     1 NCelD=      1
         NCelK=      1 NCelE2=     1 NClLst=     1 CellRange=     0.0.
 One-electron integrals computed using PRISM.
 NBasis=   197 RedAO= T  NBF=   197
 NBsUse=   197 1.00D-06 NBFU=   197
 Precomputing XC quadrature grid using
 IXCGrd= 2 IRadAn=           5 IRanWt=          -1 IRanGd=           0 AccXCQ= 0.00D+00.
 NRdTot=     427 NPtTot=      123512 NUsed=      126579 NTot=      126611
 NSgBfM=   229   229   229   229   229 NAtAll=     5     5.
 Leave Link  302 at Sun May  3 11:21:04 2020, MaxMem= 1073741824 cpu:       1.0
 (Enter /home/matheus/.gaussian/g09/l303.exe)
 DipDrv:  MaxL=1.
 Leave Link  303 at Sun May  3 11:21:04 2020, MaxMem= 1073741824 cpu:       0.2
 (Enter /home/matheus/.gaussian/g09/l401.exe)
 Harris functional with IExCor= 4639 diagonalized for initial guess.
 ExpMin= 2.53D-02 ExpMax= 1.17D+07 ExpMxC= 1.33D+04 IAcc=3 IRadAn=         5 AccDes= 0.00D+00
 HarFok:  IExCor= 4639 AccDes= 0.00D+00 IRadAn=         5 IDoV= 1
 ScaDFX=  1.000000  1.000000  1.000000  1.000000
 FoFCou: FMM=F IPFlag=           0 FMFlag=      100000 FMFlg1=           0
         NFxFlg=           0 DoJE=T BraDBF=F KetDBF=T FulRan=T
         Omega=  0.000000  0.000000  1.000000  0.000000  0.000000 ICntrl=     500 IOpCl=  0
         NMat0=    1 NMatS0=    1 NMatT0=    0 NMatD0=    1 NMtDS0=    0 NMtDT0=    0
         I1Cent=           4 NGrid=           0.
 Petite list used in FoFCou.
 Harris En= -145.944856741396    
 Initial guess orbital symmetries:
       Occupied  (A) (A) (A) (A) (A) (A) (A) (A) (A)
       Virtual   (A) (A) (A) (A) (A) (A) (A) (A) (A) (A) (A) (A)
                 (A) (A) (A) (A) (A) (A) (A) (A) (A) (A) (A) (A)
                 (A) (A) (A) (A) (A) (A) (A) (A) (A) (A) (A) (A)
                 (A) (A) (A) (A) (A) (A) (A) (A) (A) (A) (A) (A)
                 (A) (A) (A) (A) (A) (A) (A) (A) (A) (A) (A) (A)
                 (A) (A) (A) (A) (A) (A) (A) (A) (A) (A) (A) (A)
                 (A) (A) (A) (A) (A) (A) (A) (A) (A) (A) (A) (A)
                 (A) (A) (A) (A) (A) (A) (A) (A) (A) (A) (A) (A)
                 (A) (A) (A) (A) (A) (A) (A) (A) (A) (A) (A) (A)
                 (A) (A) (A) (A) (A) (A) (A) (A) (A) (A) (A) (A)
                 (A) (A) (A) (A) (A) (A) (A) (A) (A) (A) (A) (A)
                 (A) (A) (A) (A) (A) (A) (A) (A) (A) (A) (A) (A)
                 (A) (A) (A) (A) (A) (A) (A) (A) (A) (A) (A) (A)
                 (A) (A) (A) (A) (A) (A) (A) (A) (A) (A) (A) (A)
                 (A) (A) (A) (A) (A) (A) (A) (A) (A) (A) (A) (A)
                 (A) (A) (A) (A) (A) (A) (A) (A)
 The electronic state of the initial guess is 1-A.
 Leave Link  401 at Sun May  3 11:21:05 2020, MaxMem= 1073741824 cpu:       3.7
 (Enter /home/matheus/.gaussian/g09/l502.exe)
 Closed shell SCF:
 Requested convergence on RMS density matrix=1.00D-08 within 128 cycles.
 Requested convergence on MAX density matrix=1.00D-06.
 Requested convergence on             energy=1.00D-06.
 No special actions if energy rises.
 Using DIIS extrapolation, IDIIS=  1040.
 Integral symmetry usage will be decided dynamically.
       126521 words used for storage of precomputed grid.
 IEnd=      305468 IEndB=      305468 NGot=  1073741824 MDV=  1073505667
 LenX=  1073505667 LenY=  1073452785
 Fock matrices will be formed incrementally for  20 cycles.

 Cycle   1  Pass 1  IDiag  1:
 FoFJK:  IHMeth= 1 ICntrl=     0 DoSepK=T KAlg= 1 I1Cent= 0 FoldK=F
 FoFCou: FMM=F IPFlag=           0 FMFlag=      100000 FMFlg1=           0
         NFxFlg=           0 DoJE=T BraDBF=F KetDBF=F FulRan=T
         Omega=  0.000000  0.000000  1.000000  0.000000  0.000000 ICntrl=     500 IOpCl=  0
         NMat0=    1 NMatS0=    1 NMatT0=    0 NMatD0=    1 NMtDS0=    0 NMtDT0=    0
         I1Cent=           0 NGrid=           0.
 Symmetry not used in FoFCou.
 E= -151.457444087504    
 DIIS: error= 3.08D-02 at cycle   1 NSaved=   1.
 NSaved= 1 IEnMin= 1 EnMin= -151.457444087504     IErMin= 1 ErrMin= 3.08D-02
 ErrMax= 3.08D-02 EMaxC= 1.00D-01 BMatC= 3.20D-01 BMatP= 3.20D-01
 IDIUse=3 WtCom= 6.92D-01 WtEn= 3.08D-01
 Coeff-Com:  0.100D+01
 Coeff-En:   0.100D+01
 Coeff:      0.100D+01
 Gap=     0.534 Goal=   None    Shift=    0.000
 GapD=    0.534 DampG=2.000 DampE=0.500 DampFc=1.0000 IDamp=-1.
 RMSDP=2.52D-03 MaxDP=9.97D-02              OVMax= 1.22D-01

 Cycle   2  Pass 1  IDiag  1:
 RMSU=  1.74D-03    CP:  9.48D-01
 FoFJK:  IHMeth= 1 ICntrl=     0 DoSepK=T KAlg= 1 I1Cent= 0 FoldK=F
 E= -151.498846671585     Delta-E=       -0.041402584081 Rises=F Damp=F
 DIIS: error= 1.55D-02 at cycle   2 NSaved=   2.
 NSaved= 2 IEnMin= 2 EnMin= -151.498846671585     IErMin= 2 ErrMin= 1.55D-02
 ErrMax= 1.55D-02 EMaxC= 1.00D-01 BMatC= 9.99D-02 BMatP= 3.20D-01
 IDIUse=3 WtCom= 8.45D-01 WtEn= 1.55D-01
 Coeff-Com:  0.337D+00 0.663D+00
 Coeff-En:   0.333D+00 0.667D+00
 Coeff:      0.337D+00 0.663D+00
 Gap=     0.483 Goal=   None    Shift=    0.000
 RMSDP=1.02D-03 MaxDP=4.77D-02 DE=-4.14D-02 OVMax= 6.14D-02

 Cycle   3  Pass 1  IDiag  1:
 RMSU=  3.91D-04    CP:  9.70D-01  6.61D-01
 FoFJK:  IHMeth= 1 ICntrl=     0 DoSepK=T KAlg= 1 I1Cent= 0 FoldK=F
 E= -151.552749316742     Delta-E=       -0.053902645157 Rises=F Damp=F
 DIIS: error= 4.01D-03 at cycle   3 NSaved=   3.
 NSaved= 3 IEnMin= 3 EnMin= -151.552749316742     IErMin= 3 ErrMin= 4.01D-03
 ErrMax= 4.01D-03 EMaxC= 1.00D-01 BMatC= 6.24D-03 BMatP= 9.99D-02
 IDIUse=3 WtCom= 9.60D-01 WtEn= 4.01D-02
 Coeff-Com:  0.136D-01 0.208D+00 0.779D+00
 Coeff-En:   0.000D+00 0.000D+00 0.100D+01
 Coeff:      0.131D-01 0.199D+00 0.788D+00
 Gap=     0.414 Goal=   None    Shift=    0.000
 RMSDP=2.76D-04 MaxDP=9.07D-03 DE=-5.39D-02 OVMax= 1.68D-02

 Cycle   4  Pass 1  IDiag  1:
 RMSU=  7.81D-05    CP:  9.64D-01  7.56D-01  8.61D-01
 FoFJK:  IHMeth= 1 ICntrl=     0 DoSepK=T KAlg= 1 I1Cent= 0 FoldK=F
 E= -151.556829796793     Delta-E=       -0.004080480051 Rises=F Damp=F
 DIIS: error= 4.41D-04 at cycle   4 NSaved=   4.
 NSaved= 4 IEnMin= 4 EnMin= -151.556829796793     IErMin= 4 ErrMin= 4.41D-04
 ErrMax= 4.41D-04 EMaxC= 1.00D-01 BMatC= 7.71D-05 BMatP= 6.24D-03
 IDIUse=3 WtCom= 9.96D-01 WtEn= 4.41D-03
 Coeff-Com: -0.948D-03 0.191D-01 0.158D+00 0.824D+00
 Coeff-En:   0.000D+00 0.000D+00 0.000D+00 0.100D+01
 Coeff:     -0.944D-03 0.191D-01 0.157D+00 0.825D+00
 Gap=     0.412 Goal=   None    Shift=    0.000
 RMSDP=4.21D-05 MaxDP=2.22D-03 DE=-4.08D-03 OVMax= 1.99D-03

 Cycle   5  Pass 1  IDiag  1:
 RMSU=  1.51D-05    CP:  9.65D-01  7.51D-01  9.15D-01  1.13D+00
 FoFJK:  IHMeth= 1 ICntrl=     0 DoSepK=T KAlg= 1 I1Cent= 0 FoldK=F
 E= -151.556888106156     Delta-E=       -0.000058309362 Rises=F Damp=F
 DIIS: error= 6.56D-05 at cycle   5 NSaved=   5.
 NSaved= 5 IEnMin= 5 EnMin= -151.556888106156     IErMin= 5 ErrMin= 6.56D-05
 ErrMax= 6.56D-05 EMaxC= 1.00D-01 BMatC= 1.21D-06 BMatP= 7.71D-05
 IDIUse=1 WtCom= 1.00D+00 WtEn= 0.00D+00
 Coeff-Com: -0.588D-03-0.123D-01-0.481D-01-0.993D-01 0.116D+01
 Coeff:     -0.588D-03-0.123D-01-0.481D-01-0.993D-01 0.116D+01
 Gap=     0.411 Goal=   None    Shift=    0.000
 RMSDP=1.61D-05 MaxDP=6.44D-04 DE=-5.83D-05 OVMax= 9.60D-04

 Cycle   6  Pass 1  IDiag  1:
 RMSU=  3.28D-06    CP:  9.65D-01  7.52D-01  9.32D-01  1.22D+00  1.29D+00
 FoFJK:  IHMeth= 1 ICntrl=     0 DoSepK=T KAlg= 1 I1Cent= 0 FoldK=F
 E= -151.556891268523     Delta-E=       -0.000003162367 Rises=F Damp=F
 DIIS: error= 1.32D-05 at cycle   6 NSaved=   6.
 NSaved= 6 IEnMin= 6 EnMin= -151.556891268523     IErMin= 6 ErrMin= 1.32D-05
 ErrMax= 1.32D-05 EMaxC= 1.00D-01 BMatC= 4.36D-08 BMatP= 1.21D-06
 IDIUse=1 WtCom= 1.00D+00 WtEn= 0.00D+00
 Coeff-Com:  0.492D-04-0.144D-03-0.350D-02-0.178D-01-0.220D-01 0.104D+01
 Coeff:      0.492D-04-0.144D-03-0.350D-02-0.178D-01-0.220D-01 0.104D+01
 Gap=     0.411 Goal=   None    Shift=    0.000
 RMSDP=2.27D-06 MaxDP=8.15D-05 DE=-3.16D-06 OVMax= 2.04D-04

 Cycle   7  Pass 1  IDiag  1:
 RMSU=  7.65D-07    CP:  9.65D-01  7.52D-01  9.33D-01  1.23D+00  1.34D+00
                    CP:  1.30D+00
 FoFJK:  IHMeth= 1 ICntrl=     0 DoSepK=T KAlg= 1 I1Cent= 0 FoldK=F
 E= -151.556891380100     Delta-E=       -0.000000111577 Rises=F Damp=F
 DIIS: error= 7.56D-06 at cycle   7 NSaved=   7.
 NSaved= 7 IEnMin= 7 EnMin= -151.556891380100     IErMin= 7 ErrMin= 7.56D-06
 ErrMax= 7.56D-06 EMaxC= 1.00D-01 BMatC= 2.33D-08 BMatP= 4.36D-08
 IDIUse=1 WtCom= 1.00D+00 WtEn= 0.00D+00
 Coeff-Com:  0.604D-04 0.709D-03 0.143D-02-0.287D-02-0.859D-01 0.497D+00
 Coeff-Com:  0.590D+00
 Coeff:      0.604D-04 0.709D-03 0.143D-02-0.287D-02-0.859D-01 0.497D+00
 Coeff:      0.590D+00
 Gap=     0.411 Goal=   None    Shift=    0.000
 RMSDP=5.72D-07 MaxDP=2.67D-05 DE=-1.12D-07 OVMax= 5.44D-05

 Cycle   8  Pass 1  IDiag  1:
 RMSU=  3.34D-07    CP:  9.65D-01  7.52D-01  9.33D-01  1.23D+00  1.35D+00
                    CP:  1.36D+00  9.63D-01
 FoFJK:  IHMeth= 1 ICntrl=     0 DoSepK=T KAlg= 1 I1Cent= 0 FoldK=F
 E= -151.556891400451     Delta-E=       -0.000000020351 Rises=F Damp=F
 DIIS: error= 2.64D-06 at cycle   8 NSaved=   8.
 NSaved= 8 IEnMin= 8 EnMin= -151.556891400451     IErMin= 8 ErrMin= 2.64D-06
 ErrMax= 2.64D-06 EMaxC= 1.00D-01 BMatC= 2.92D-09 BMatP= 2.33D-08
 IDIUse=1 WtCom= 1.00D+00 WtEn= 0.00D+00
 Coeff-Com: -0.138D-05 0.175D-03 0.129D-02 0.320D-02-0.120D-01-0.181D+00
 Coeff-Com:  0.190D+00 0.998D+00
 Coeff:     -0.138D-05 0.175D-03 0.129D-02 0.320D-02-0.120D-01-0.181D+00
 Coeff:      0.190D+00 0.998D+00
 Gap=     0.411 Goal=   None    Shift=    0.000
 RMSDP=4.11D-07 MaxDP=1.31D-05 DE=-2.04D-08 OVMax= 5.04D-05

 Cycle   9  Pass 1  IDiag  1:
 RMSU=  1.10D-07    CP:  9.65D-01  7.51D-01  9.33D-01  1.23D+00  1.35D+00
                    CP:  1.39D+00  1.21D+00  1.20D+00
 FoFJK:  IHMeth= 1 ICntrl=     0 DoSepK=T KAlg= 1 I1Cent= 0 FoldK=F
 E= -151.556891405351     Delta-E=       -0.000000004900 Rises=F Damp=F
 DIIS: error= 4.85D-07 at cycle   9 NSaved=   9.
 NSaved= 9 IEnMin= 9 EnMin= -151.556891405351     IErMin= 9 ErrMin= 4.85D-07
 ErrMax= 4.85D-07 EMaxC= 1.00D-01 BMatC= 5.87D-11 BMatP= 2.92D-09
 IDIUse=1 WtCom= 1.00D+00 WtEn= 0.00D+00
 Coeff-Com:  0.869D-07-0.349D-04-0.233D-03-0.665D-03 0.656D-02-0.137D-02
 Coeff-Com: -0.470D-01-0.110D+00 0.115D+01
 Coeff:      0.869D-07-0.349D-04-0.233D-03-0.665D-03 0.656D-02-0.137D-02
 Coeff:     -0.470D-01-0.110D+00 0.115D+01
 Gap=     0.411 Goal=   None    Shift=    0.000
 RMSDP=1.00D-07 MaxDP=2.22D-06 DE=-4.90D-09 OVMax= 1.16D-05

 Cycle  10  Pass 1  IDiag  1:
 RMSU=  1.85D-08    CP:  9.65D-01  7.51D-01  9.33D-01  1.23D+00  1.35D+00
                    CP:  1.39D+00  1.24D+00  1.32D+00  1.38D+00
 FoFJK:  IHMeth= 1 ICntrl=     0 DoSepK=T KAlg= 1 I1Cent= 0 FoldK=F
 E= -151.556891405555     Delta-E=       -0.000000000204 Rises=F Damp=F
 DIIS: error= 1.46D-07 at cycle  10 NSaved=  10.
 NSaved=10 IEnMin=10 EnMin= -151.556891405555     IErMin=10 ErrMin= 1.46D-07
 ErrMax= 1.46D-07 EMaxC= 1.00D-01 BMatC= 5.63D-12 BMatP= 5.87D-11
 IDIUse=1 WtCom= 1.00D+00 WtEn= 0.00D+00
 Coeff-Com:  0.346D-06-0.152D-04-0.131D-03-0.390D-03 0.158D-02 0.153D-01
 Coeff-Com: -0.211D-01-0.983D-01 0.519D-01 0.105D+01
 Coeff:      0.346D-06-0.152D-04-0.131D-03-0.390D-03 0.158D-02 0.153D-01
 Coeff:     -0.211D-01-0.983D-01 0.519D-01 0.105D+01
 Gap=     0.411 Goal=   None    Shift=    0.000
 RMSDP=2.81D-08 MaxDP=5.74D-07 DE=-2.04D-10 OVMax= 3.77D-06

 Cycle  11  Pass 1  IDiag  1:
 RMSU=  5.22D-09    CP:  9.65D-01  7.51D-01  9.33D-01  1.23D+00  1.35D+00
                    CP:  1.38D+00  1.25D+00  1.34D+00  1.48D+00  1.39D+00
 FoFJK:  IHMeth= 1 ICntrl=     0 DoSepK=T KAlg= 1 I1Cent= 0 FoldK=F
 E= -151.556891405573     Delta-E=       -0.000000000018 Rises=F Damp=F
 DIIS: error= 3.88D-08 at cycle  11 NSaved=  11.
 NSaved=11 IEnMin=11 EnMin= -151.556891405573     IErMin=11 ErrMin= 3.88D-08
 ErrMax= 3.88D-08 EMaxC= 1.00D-01 BMatC= 3.01D-13 BMatP= 5.63D-12
 IDIUse=1 WtCom= 1.00D+00 WtEn= 0.00D+00
 Coeff-Com: -0.168D-06 0.108D-05 0.192D-04 0.488D-04-0.420D-03-0.863D-03
 Coeff-Com:  0.481D-02 0.150D-01-0.754D-01-0.101D+00 0.116D+01
 Coeff:     -0.168D-06 0.108D-05 0.192D-04 0.488D-04-0.420D-03-0.863D-03
 Coeff:      0.481D-02 0.150D-01-0.754D-01-0.101D+00 0.116D+01
 Gap=     0.411 Goal=   None    Shift=    0.000
 RMSDP=7.31D-09 MaxDP=2.86D-07 DE=-1.76D-11 OVMax= 7.99D-07

 SCF Done:  E(RwB97XD) =  -151.556891406     A.U. after   11 cycles
             Convg  =    0.7308D-08             -V/T =  2.0060
 KE= 1.506578747668D+02 PE=-4.317250615937D+02 EE= 9.286059726892D+01
 Leave Link  502 at Sun May  3 11:21:37 2020, MaxMem= 1073741824 cpu:     256.8
 (Enter /home/matheus/.gaussian/g09/l601.exe)
 Copying SCF densities to generalized density rwf, IOpCl= 0 IROHF=0.

 **********************************************************************

            Population analysis using the SCF density.

 **********************************************************************

 Orbital symmetries:
       Occupied  (A) (A) (A) (A) (A) (A) (A) (A) (A)
       Virtual   (A) (A) (A) (A) (A) (A) (A) (A) (A) (A) (A) (A)
                 (A) (A) (A) (A) (A) (A) (A) (A) (A) (A) (A) (A)
                 (A) (A) (A) (A) (A) (A) (A) (A) (A) (A) (A) (A)
                 (A) (A) (A) (A) (A) (A) (A) (A) (A) (A) (A) (A)
                 (A) (A) (A) (A) (A) (A) (A) (A) (A) (A) (A) (A)
                 (A) (A) (A) (A) (A) (A) (A) (A) (A) (A) (A) (A)
                 (A) (A) (A) (A) (A) (A) (A) (A) (A) (A) (A) (A)
                 (A) (A) (A) (A) (A) (A) (A) (A) (A) (A) (A) (A)
                 (A) (A) (A) (A) (A) (A) (A) (A) (A) (A) (A) (A)
                 (A) (A) (A) (A) (A) (A) (A) (A) (A) (A) (A) (A)
                 (A) (A) (A) (A) (A) (A) (A) (A) (A) (A) (A) (A)
                 (A) (A) (A) (A) (A) (A) (A) (A) (A) (A) (A) (A)
                 (A) (A) (A) (A) (A) (A) (A) (A) (A) (A) (A) (A)
                 (A) (A) (A) (A) (A) (A) (A) (A) (A) (A) (A) (A)
                 (A) (A) (A) (A) (A) (A) (A) (A) (A) (A) (A) (A)
                 (A) (A) (A) (A) (A) (A) (A) (A)
 The electronic state is 1-A.
 Alpha  occ. eigenvalues --  -19.34352 -19.34348  -1.25055  -1.03433  -0.68668
 Alpha  occ. eigenvalues --   -0.55866  -0.54130  -0.45721  -0.38684
 Alpha virt. eigenvalues --    0.02428   0.03986   0.07331   0.08384   0.09427
 Alpha virt. eigenvalues --    0.09972   0.10718   0.15111   0.17628   0.18071
 Alpha virt. eigenvalues --    0.18662   0.19316   0.20828   0.22414   0.25476
 Alpha virt. eigenvalues --    0.27251   0.29549   0.30058   0.33532   0.34479
 Alpha virt. eigenvalues --    0.35412   0.36784   0.38177   0.39583   0.40432
 Alpha virt. eigenvalues --    0.43376   0.45480   0.46081   0.48306   0.51368
 Alpha virt. eigenvalues --    0.53183   0.57537   0.59326   0.61494   0.66405
 Alpha virt. eigenvalues --    0.69314   0.72629   0.76005   0.76946   0.78766
 Alpha virt. eigenvalues --    0.80669   0.81997   0.86010   0.88944   0.89869
 Alpha virt. eigenvalues --    0.91852   0.92937   0.95806   0.96521   0.98554
 Alpha virt. eigenvalues --    1.02304   1.03845   1.04920   1.07423   1.09003
 Alpha virt. eigenvalues --    1.13276   1.16193   1.19491   1.19940   1.23023
 Alpha virt. eigenvalues --    1.28190   1.29964   1.30767   1.31349   1.32317
 Alpha virt. eigenvalues --    1.34659   1.35146   1.37746   1.41028   1.42729
 Alpha virt. eigenvalues --    1.47287   1.48958   1.52029   1.53643   1.58535
 Alpha virt. eigenvalues --    1.59823   1.62524   1.66669   1.74258   1.76399
 Alpha virt. eigenvalues --    1.81581   1.85480   1.90730   1.97471   2.02397
 Alpha virt. eigenvalues --    2.06996   2.09658   2.13810   2.17824   2.21831
 Alpha virt. eigenvalues --    2.27256   2.29186   2.31954   2.35069   2.36271
 Alpha virt. eigenvalues --    2.49314   2.53511   2.57563   2.59872   2.62024
 Alpha virt. eigenvalues --    2.63067   2.75358   2.84533   2.85834   2.92310
 Alpha virt. eigenvalues --    2.96661   3.07280   3.09168   3.25751   3.30729
 Alpha virt. eigenvalues --    3.41788   3.57605   3.62948   3.65319   3.78209
 Alpha virt. eigenvalues --    3.79017   3.81649   3.82241   3.82712   3.86225
 Alpha virt. eigenvalues --    3.87752   3.90057   3.91951   3.94671   3.98000
 Alpha virt. eigenvalues --    3.98867   4.02567   4.06015   4.09293   4.13808
 Alpha virt. eigenvalues --    4.14804   4.20886   4.23576   4.29296   4.34423
 Alpha virt. eigenvalues --    4.45216   4.49819   4.62052   4.68500   4.95848
 Alpha virt. eigenvalues --    4.99528   5.00934   5.06725   5.14436   5.16454
 Alpha virt. eigenvalues --    5.43941   5.84181   6.00599   6.11700   6.12936
 Alpha virt. eigenvalues --    6.30307   6.38442   6.39714   6.52585   6.64757
 Alpha virt. eigenvalues --    6.73893   6.77826   6.82668   6.84919   6.89006
 Alpha virt. eigenvalues --    6.89793   6.91592   6.91822   7.04126   7.10402
 Alpha virt. eigenvalues --    7.15989   7.23558   7.45139   7.49692   7.86801
 Alpha virt. eigenvalues --    8.04339   8.13821  11.01302  14.04793  14.65024
 Alpha virt. eigenvalues --   14.83146  14.89991  15.11478  29.02771  29.03313
 Alpha virt. eigenvalues --   29.07695  29.16085  29.22814  49.18366 148.31374
 Alpha virt. eigenvalues --  148.41279 148.71754 752.75857
          Condensed to atoms (all electrons):
              1          2          3          4          5
     1  O    8.187786  -0.185402   0.198708   0.017110   0.002267
     2  O   -0.185402   8.200688   0.024100   0.194954  -0.001751
     3  H    0.198708   0.024100   0.560792  -0.001804  -0.002228
     4  H    0.017110   0.194954  -0.001804   0.567208  -0.004747
     5  Kr   0.002267  -0.001751  -0.002228  -0.004747   0.001111
 Mulliken atomic charges:
              1
     1  O   -0.220469
     2  O   -0.232590
     3  H    0.220432
     4  H    0.227279
     5  Kr   0.005348
 Sum of Mulliken atomic charges =   0.00000
 Mulliken charges with hydrogens summed into heavy atoms:
              1
     1  O   -0.000037
     2  O   -0.005311
     5  Kr   0.005348
 Sum of Mulliken charges with hydrogens summed into heavy atoms =   0.00000
          Condensed to fragments (all electrons):
     1      -0.005348
     2       0.005348
 Electronic spatial extent (au):  <R**2>=            317.7947
 Charge=              0.0000 electrons
 Dipole moment (field-independent basis, Debye):
    X=             -2.5448    Y=             -0.0957    Z=              1.2132  Tot=              2.8208
 Quadrupole moment (field-independent basis, Debye-Ang):
   XX=            -20.3686   YY=            -10.3408   ZZ=            -12.0807
   XY=             -0.8700   XZ=              1.4195   YZ=             -1.4132
 Traceless Quadrupole moment (field-independent basis, Debye-Ang):
   XX=             -6.1052   YY=              3.9225   ZZ=              2.1827
   XY=             -0.8700   XZ=              1.4195   YZ=             -1.4132
 Octapole moment (field-independent basis, Debye-Ang**2):
  XXX=            -92.2156  YYY=             -0.6087  ZZZ=              0.5195  XYY=            -23.6362
  XXY=             -1.9092  XXZ=              1.3431  XZZ=            -24.1133  YZZ=             -1.1235
  YYZ=              1.6853  XYZ=             -1.9962
 Hexadecapole moment (field-independent basis, Debye-Ang**3):
 XXXX=           -341.5174 YYYY=            -44.7733 ZZZZ=            -11.6824 XXXY=             -2.5768
 XXXZ=              0.6790 YYYX=             -1.5136 YYYZ=             -2.0285 ZZZX=              1.0096
 ZZZY=             -1.2312 XXYY=            -61.7861 XXZZ=            -52.0177 YYZZ=            -10.4258
 XXYZ=             -2.9123 YYXZ=              2.3633 ZZXY=             -1.6167
 N-N= 3.664969815241D+01 E-N=-4.317250601821D+02  KE= 1.506578747668D+02
 No NMR shielding tensors so no spin-rotation constants.
 Leave Link  601 at Sun May  3 11:21:37 2020, MaxMem= 1073741824 cpu:       0.8
 (Enter /home/matheus/.gaussian/g09/l122.exe)
 Counterpoise: doing DCBS calculation for fragment   2 NewBq=T
 Leave Link  122 at Sun May  3 11:21:37 2020, MaxMem= 1073741824 cpu:       0.0
 (Enter /home/matheus/.gaussian/g09/l301.exe)
 Basis read from rwf:  (5D, 7F)
 No pseudopotential information found on rwf file.
 There are   197 symmetry adapted basis functions of A   symmetry.
 Integral buffers will be    131072 words long.
 Raffenetti 2 integral format.
 Two-electron integral symmetry is turned on.
   197 basis functions,   415 primitive gaussians,   229 cartesian basis functions
    18 alpha electrons       18 beta electrons
       nuclear repulsion energy         0.0000000000 Hartrees.
 IExCor= 4639 DFT=T Ex+Corr=wB97XD ExCW=0 ScaHFX=  1.000000
 ScaDFX=  1.000000  1.000000  1.000000  1.000000 ScalE2=  1.000000  1.000000
 IRadAn=      5 IRanWt=     -1 IRanGd=            0 ICorTp=0
  HFx wShort=  0.000000 wLong=  0.250000 cFull=  0.222036 cShort=  0.000000 cLong=  0.777964
  DFx wShort=  0.000000 wLong=  0.250000 cFull=  0.000000 cShort=  0.000000 cLong=  1.000000
 NAtoms=    5 NActive=    5 NUniq=    5 SFac= 1.00D+00 NAtFMM=   60 NAOKFM=F Big=F
 R6Disp: Dispersion energy =         0.0000000000 Hartrees.
 Nuclear repulsion after empirical dispersion term =        0.0000000000 Hartrees.
 No density basis found on file   718.
 Leave Link  301 at Sun May  3 11:21:37 2020, MaxMem= 1073741824 cpu:       0.2
 (Enter /home/matheus/.gaussian/g09/l302.exe)
 NPDir=0 NMtPBC=     1 NCelOv=     1 NCel=       1 NClECP=     1 NCelD=      1
         NCelK=      1 NCelE2=     1 NClLst=     1 CellRange=     0.0.
 One-electron integrals computed using PRISM.
 NBasis=   197 RedAO= T  NBF=   197
 NBsUse=   197 1.00D-06 NBFU=   197
 Precomputing XC quadrature grid using
 IXCGrd= 2 IRadAn=           5 IRanWt=          -1 IRanGd=           0 AccXCQ= 0.00D+00.
 NRdTot=     427 NPtTot=      123512 NUsed=      126579 NTot=      126611
 NSgBfM=   229   229   229   229   229 NAtAll=     5     5.
 Leave Link  302 at Sun May  3 11:21:37 2020, MaxMem= 1073741824 cpu:       1.0
 (Enter /home/matheus/.gaussian/g09/l303.exe)
 DipDrv:  MaxL=1.
 Leave Link  303 at Sun May  3 11:21:37 2020, MaxMem= 1073741824 cpu:       0.2
 (Enter /home/matheus/.gaussian/g09/l401.exe)
 Harris functional with IExCor= 4639 diagonalized for initial guess.
 ExpMin= 2.53D-02 ExpMax= 1.17D+07 ExpMxC= 1.33D+04 IAcc=3 IRadAn=         5 AccDes= 0.00D+00
 HarFok:  IExCor= 4639 AccDes= 0.00D+00 IRadAn=         5 IDoV= 1
 ScaDFX=  1.000000  1.000000  1.000000  1.000000
 FoFCou: FMM=F IPFlag=           0 FMFlag=      100000 FMFlg1=           0
         NFxFlg=           0 DoJE=T BraDBF=F KetDBF=T FulRan=T
         Omega=  0.000000  0.000000  1.000000  0.000000  0.000000 ICntrl=     500 IOpCl=  0
         NMat0=    1 NMatS0=    1 NMatT0=    0 NMatD0=    1 NMtDS0=    0 NMtDT0=    0
         I1Cent=           4 NGrid=           0.
 Petite list used in FoFCou.
 Harris En= -2729.46060126656    
 Initial guess orbital symmetries:
       Occupied  (A) (A) (A) (A) (A) (A) (A) (A) (A) (A) (A) (A)
                 (A) (A) (A) (A) (A) (A)
       Virtual   (A) (A) (A) (A) (A) (A) (A) (A) (A) (A) (A) (A)
                 (A) (A) (A) (A) (A) (A) (A) (A) (A) (A) (A) (A)
                 (A) (A) (A) (A) (A) (A) (A) (A) (A) (A) (A) (A)
                 (A) (A) (A) (A) (A) (A) (A) (A) (A) (A) (A) (A)
                 (A) (A) (A) (A) (A) (A) (A) (A) (A) (A) (A) (A)
                 (A) (A) (A) (A) (A) (A) (A) (A) (A) (A) (A) (A)
                 (A) (A) (A) (A) (A) (A) (A) (A) (A) (A) (A) (A)
                 (A) (A) (A) (A) (A) (A) (A) (A) (A) (A) (A) (A)
                 (A) (A) (A) (A) (A) (A) (A) (A) (A) (A) (A) (A)
                 (A) (A) (A) (A) (A) (A) (A) (A) (A) (A) (A) (A)
                 (A) (A) (A) (A) (A) (A) (A) (A) (A) (A) (A) (A)
                 (A) (A) (A) (A) (A) (A) (A) (A) (A) (A) (A) (A)
                 (A) (A) (A) (A) (A) (A) (A) (A) (A) (A) (A) (A)
                 (A) (A) (A) (A) (A) (A) (A) (A) (A) (A) (A) (A)
                 (A) (A) (A) (A) (A) (A) (A) (A) (A) (A) (A)
 The electronic state of the initial guess is 1-A.
 Leave Link  401 at Sun May  3 11:21:38 2020, MaxMem= 1073741824 cpu:       3.8
 (Enter /home/matheus/.gaussian/g09/l502.exe)
 Closed shell SCF:
 Requested convergence on RMS density matrix=1.00D-08 within 128 cycles.
 Requested convergence on MAX density matrix=1.00D-06.
 Requested convergence on             energy=1.00D-06.
 No special actions if energy rises.
 Using DIIS extrapolation, IDIIS=  1040.
 Integral symmetry usage will be decided dynamically.
       126521 words used for storage of precomputed grid.
 IEnd=      305468 IEndB=      305468 NGot=  1073741824 MDV=  1073505667
 LenX=  1073505667 LenY=  1073452785
 Fock matrices will be formed incrementally for  20 cycles.

 Cycle   1  Pass 1  IDiag  1:
 FoFJK:  IHMeth= 1 ICntrl=     0 DoSepK=T KAlg= 1 I1Cent= 0 FoldK=F
 FoFCou: FMM=F IPFlag=           0 FMFlag=      100000 FMFlg1=           0
         NFxFlg=           0 DoJE=T BraDBF=F KetDBF=F FulRan=T
         Omega=  0.000000  0.000000  1.000000  0.000000  0.000000 ICntrl=     500 IOpCl=  0
         NMat0=    1 NMatS0=    1 NMatT0=    0 NMatD0=    1 NMtDS0=    0 NMtDT0=    0
         I1Cent=           0 NGrid=           0.
 Symmetry not used in FoFCou.
 E= -2753.44638805175    
 DIIS: error= 7.67D-02 at cycle   1 NSaved=   1.
 NSaved= 1 IEnMin= 1 EnMin= -2753.44638805175     IErMin= 1 ErrMin= 7.67D-02
 ErrMax= 7.67D-02 EMaxC= 1.00D-01 BMatC= 1.90D+00 BMatP= 1.90D+00
 IDIUse=3 WtCom= 2.33D-01 WtEn= 7.67D-01
 Coeff-Com:  0.100D+01
 Coeff-En:   0.100D+01
 Coeff:      0.100D+01
 Gap=     0.654 Goal=   None    Shift=    0.000
 GapD=    0.654 DampG=2.000 DampE=0.500 DampFc=1.0000 IDamp=-1.
 RMSDP=5.64D-03 MaxDP=3.72D-01              OVMax= 1.83D-01

 Cycle   2  Pass 1  IDiag  1:
 RMSU=  3.93D-03    CP:  1.04D+00
 FoFJK:  IHMeth= 1 ICntrl=     0 DoSepK=T KAlg= 1 I1Cent= 0 FoldK=F
 E= -2753.72358890756     Delta-E=       -0.277200855811 Rises=F Damp=F
 DIIS: error= 3.12D-02 at cycle   2 NSaved=   2.
 NSaved= 2 IEnMin= 2 EnMin= -2753.72358890756     IErMin= 2 ErrMin= 3.12D-02
 ErrMax= 3.12D-02 EMaxC= 1.00D-01 BMatC= 4.68D-01 BMatP= 1.90D+00
 IDIUse=3 WtCom= 6.88D-01 WtEn= 3.12D-01
 Coeff-Com:  0.326D+00 0.674D+00
 Coeff-En:   0.160D+00 0.840D+00
 Coeff:      0.275D+00 0.725D+00
 Gap=     0.492 Goal=   None    Shift=    0.000
 RMSDP=2.52D-03 MaxDP=1.62D-01 DE=-2.77D-01 OVMax= 7.66D-02

 Cycle   3  Pass 1  IDiag  1:
 RMSU=  3.68D-04    CP:  1.03D+00  5.61D-01
 FoFJK:  IHMeth= 1 ICntrl=     0 DoSepK=T KAlg= 1 I1Cent= 0 FoldK=F
 E= -2753.86706917182     Delta-E=       -0.143480264260 Rises=F Damp=F
 DIIS: error= 4.17D-03 at cycle   3 NSaved=   3.
 NSaved= 3 IEnMin= 3 EnMin= -2753.86706917182     IErMin= 3 ErrMin= 4.17D-03
 ErrMax= 4.17D-03 EMaxC= 1.00D-01 BMatC= 1.02D-02 BMatP= 4.68D-01
 IDIUse=3 WtCom= 9.58D-01 WtEn= 4.17D-02
 Coeff-Com: -0.773D-02 0.116D+00 0.891D+00
 Coeff-En:   0.000D+00 0.000D+00 0.100D+01
 Coeff:     -0.741D-02 0.112D+00 0.896D+00
 Gap=     0.518 Goal=   None    Shift=    0.000
 RMSDP=2.95D-04 MaxDP=1.75D-02 DE=-1.43D-01 OVMax= 1.20D-02

 Cycle   4  Pass 1  IDiag  1:
 RMSU=  4.00D-05    CP:  1.03D+00  6.12D-01  9.66D-01
 FoFJK:  IHMeth= 1 ICntrl=     0 DoSepK=T KAlg= 1 I1Cent= 0 FoldK=F
 E= -2753.87023148509     Delta-E=       -0.003162313278 Rises=F Damp=F
 DIIS: error= 1.71D-04 at cycle   4 NSaved=   4.
 NSaved= 4 IEnMin= 4 EnMin= -2753.87023148509     IErMin= 4 ErrMin= 1.71D-04
 ErrMax= 1.71D-04 EMaxC= 1.00D-01 BMatC= 1.38D-05 BMatP= 1.02D-02
 IDIUse=3 WtCom= 9.98D-01 WtEn= 1.71D-03
 Coeff-Com: -0.254D-03-0.173D-01-0.767D-01 0.109D+01
 Coeff-En:   0.000D+00 0.000D+00 0.000D+00 0.100D+01
 Coeff:     -0.253D-03-0.173D-01-0.766D-01 0.109D+01
 Gap=     0.516 Goal=   None    Shift=    0.000
 RMSDP=2.26D-05 MaxDP=8.67D-04 DE=-3.16D-03 OVMax= 9.54D-04

 Cycle   5  Pass 1  IDiag  1:
 RMSU=  8.76D-06    CP:  1.03D+00  6.10D-01  9.85D-01  1.22D+00
 FoFJK:  IHMeth= 1 ICntrl=     0 DoSepK=T KAlg= 1 I1Cent= 0 FoldK=F
 E= -2753.87023991648     Delta-E=       -0.000008431384 Rises=F Damp=F
 DIIS: error= 1.68D-05 at cycle   5 NSaved=   5.
 NSaved= 5 IEnMin= 5 EnMin= -2753.87023991648     IErMin= 5 ErrMin= 1.68D-05
 ErrMax= 1.68D-05 EMaxC= 1.00D-01 BMatC= 4.80D-08 BMatP= 1.38D-05
 IDIUse=1 WtCom= 1.00D+00 WtEn= 0.00D+00
 Coeff-Com:  0.750D-04 0.117D-02 0.142D-02-0.190D+00 0.119D+01
 Coeff:      0.750D-04 0.117D-02 0.142D-02-0.190D+00 0.119D+01
 Gap=     0.516 Goal=   None    Shift=    0.000
 RMSDP=3.65D-06 MaxDP=1.47D-04 DE=-8.43D-06 OVMax= 2.10D-04

 Cycle   6  Pass 1  IDiag  1:
 RMSU=  7.21D-07    CP:  1.03D+00  6.10D-01  9.88D-01  1.26D+00  1.18D+00
 FoFJK:  IHMeth= 1 ICntrl=     0 DoSepK=T KAlg= 1 I1Cent= 0 FoldK=F
 E= -2753.87024005803     Delta-E=       -0.000000141554 Rises=F Damp=F
 DIIS: error= 1.67D-06 at cycle   6 NSaved=   6.
 NSaved= 6 IEnMin= 6 EnMin= -2753.87024005803     IErMin= 6 ErrMin= 1.67D-06
 ErrMax= 1.67D-06 EMaxC= 1.00D-01 BMatC= 7.14D-10 BMatP= 4.80D-08
 IDIUse=1 WtCom= 1.00D+00 WtEn= 0.00D+00
 Coeff-Com:  0.763D-05 0.316D-03 0.835D-03-0.431D-01 0.201D+00 0.841D+00
 Coeff:      0.763D-05 0.316D-03 0.835D-03-0.431D-01 0.201D+00 0.841D+00
 Gap=     0.516 Goal=   None    Shift=    0.000
 RMSDP=2.30D-07 MaxDP=8.86D-06 DE=-1.42D-07 OVMax= 1.07D-05

 Cycle   7  Pass 1  IDiag  1:
 RMSU=  7.16D-08    CP:  1.03D+00  6.10D-01  9.88D-01  1.27D+00  1.20D+00
                    CP:  1.11D+00
 FoFJK:  IHMeth= 1 ICntrl=     0 DoSepK=T KAlg= 1 I1Cent= 0 FoldK=F
 E= -2753.87024005878     Delta-E=       -0.000000000751 Rises=F Damp=F
 DIIS: error= 2.45D-07 at cycle   7 NSaved=   7.
 NSaved= 7 IEnMin= 7 EnMin= -2753.87024005878     IErMin= 7 ErrMin= 2.45D-07
 ErrMax= 2.45D-07 EMaxC= 1.00D-01 BMatC= 2.08D-11 BMatP= 7.14D-10
 IDIUse=1 WtCom= 1.00D+00 WtEn= 0.00D+00
 Coeff-Com: -0.143D-05 0.200D-04 0.142D-03-0.654D-05-0.114D-01 0.106D+00
 Coeff-Com:  0.906D+00
 Coeff:     -0.143D-05 0.200D-04 0.142D-03-0.654D-05-0.114D-01 0.106D+00
 Coeff:      0.906D+00
 Gap=     0.516 Goal=   None    Shift=    0.000
 RMSDP=5.08D-08 MaxDP=2.08D-06 DE=-7.51D-10 OVMax= 2.05D-06

 Cycle   8  Pass 1  IDiag  1:
 RMSU=  1.53D-08    CP:  1.03D+00  6.10D-01  9.88D-01  1.27D+00  1.20D+00
                    CP:  1.15D+00  1.09D+00
 FoFJK:  IHMeth= 1 ICntrl=     0 DoSepK=T KAlg= 1 I1Cent= 0 FoldK=F
 E= -2753.87024005880     Delta-E=       -0.000000000019 Rises=F Damp=F
 DIIS: error= 6.30D-08 at cycle   8 NSaved=   8.
 NSaved= 8 IEnMin= 8 EnMin= -2753.87024005880     IErMin= 8 ErrMin= 6.30D-08
 ErrMax= 6.30D-08 EMaxC= 1.00D-01 BMatC= 1.53D-12 BMatP= 2.08D-11
 IDIUse=1 WtCom= 1.00D+00 WtEn= 0.00D+00
 Coeff-Com: -0.101D-06-0.512D-05 0.152D-05 0.158D-02-0.825D-02-0.201D-01
 Coeff-Com:  0.103D+00 0.924D+00
 Coeff:     -0.101D-06-0.512D-05 0.152D-05 0.158D-02-0.825D-02-0.201D-01
 Coeff:      0.103D+00 0.924D+00
 Gap=     0.516 Goal=   None    Shift=    0.000
 RMSDP=1.27D-08 MaxDP=5.19D-07 DE=-1.86D-11 OVMax= 3.73D-07

 Cycle   9  Pass 1  IDiag  1:
 RMSU=  2.39D-09    CP:  1.03D+00  6.10D-01  9.88D-01  1.27D+00  1.20D+00
                    CP:  1.16D+00  1.13D+00  1.09D+00
 FoFJK:  IHMeth= 1 ICntrl=     0 DoSepK=T KAlg= 1 I1Cent= 0 FoldK=F
 E= -2753.87024005881     Delta-E=       -0.000000000008 Rises=F Damp=F
 DIIS: error= 1.03D-08 at cycle   9 NSaved=   9.
 NSaved= 9 IEnMin= 9 EnMin= -2753.87024005881     IErMin= 9 ErrMin= 1.03D-08
 ErrMax= 1.03D-08 EMaxC= 1.00D-01 BMatC= 7.73D-15 BMatP= 1.53D-12
 IDIUse=1 WtCom= 1.00D+00 WtEn= 0.00D+00
 Coeff-Com:  0.110D-07 0.846D-07-0.152D-05-0.129D-03 0.655D-03 0.125D-02
 Coeff-Com: -0.204D-01-0.105D+00 0.112D+01
 Coeff:      0.110D-07 0.846D-07-0.152D-05-0.129D-03 0.655D-03 0.125D-02
 Coeff:     -0.204D-01-0.105D+00 0.112D+01
 Gap=     0.516 Goal=   None    Shift=    0.000
 RMSDP=1.56D-09 MaxDP=6.53D-08 DE=-8.19D-12 OVMax= 9.68D-08

 SCF Done:  E(RwB97XD) =  -2753.87024006     A.U. after    9 cycles
             Convg  =    0.1556D-08             -V/T =  2.0013
 KE= 2.750241893343D+03 PE=-6.580150334205D+03 EE= 1.076038200803D+03
 Leave Link  502 at Sun May  3 11:22:05 2020, MaxMem= 1073741824 cpu:     215.7
 (Enter /home/matheus/.gaussian/g09/l601.exe)
 Copying SCF densities to generalized density rwf, IOpCl= 0 IROHF=0.

 **********************************************************************

            Population analysis using the SCF density.

 **********************************************************************

 Orbital symmetries:
       Occupied  (A) (A) (A) (A) (A) (A) (A) (A) (A) (A) (A) (A)
                 (A) (A) (A) (A) (A) (A)
       Virtual   (A) (A) (A) (A) (A) (A) (A) (A) (A) (A) (A) (A)
                 (A) (A) (A) (A) (A) (A) (A) (A) (A) (A) (A) (A)
                 (A) (A) (A) (A) (A) (A) (A) (A) (A) (A) (A) (A)
                 (A) (A) (A) (A) (A) (A) (A) (A) (A) (A) (A) (A)
                 (A) (A) (A) (A) (A) (A) (A) (A) (A) (A) (A) (A)
                 (A) (A) (A) (A) (A) (A) (A) (A) (A) (A) (A) (A)
                 (A) (A) (A) (A) (A) (A) (A) (A) (A) (A) (A) (A)
                 (A) (A) (A) (A) (A) (A) (A) (A) (A) (A) (A) (A)
                 (A) (A) (A) (A) (A) (A) (A) (A) (A) (A) (A) (A)
                 (A) (A) (A) (A) (A) (A) (A) (A) (A) (A) (A) (A)
                 (A) (A) (A) (A) (A) (A) (A) (A) (A) (A) (A) (A)
                 (A) (A) (A) (A) (A) (A) (A) (A) (A) (A) (A) (A)
                 (A) (A) (A) (A) (A) (A) (A) (A) (A) (A) (A) (A)
                 (A) (A) (A) (A) (A) (A) (A) (A) (A) (A) (A) (A)
                 (A) (A) (A) (A) (A) (A) (A) (A) (A) (A) (A)
 The electronic state is 1-A.
 Alpha  occ. eigenvalues -- -513.08059 -67.34868 -60.89741 -60.89740 -60.89739
 Alpha  occ. eigenvalues --   -9.80180  -7.49479  -7.49478  -7.49478  -3.36164
 Alpha  occ. eigenvalues --   -3.36163  -3.36163  -3.36162  -3.36162  -1.00828
 Alpha  occ. eigenvalues --   -0.48267  -0.48264  -0.48262
 Alpha virt. eigenvalues --    0.03349   0.05277   0.08806   0.09784   0.12517
 Alpha virt. eigenvalues --    0.13018   0.13779   0.13880   0.16322   0.17431
 Alpha virt. eigenvalues --    0.18061   0.19374   0.20995   0.25541   0.26457
 Alpha virt. eigenvalues --    0.26807   0.29180   0.31151   0.32911   0.35446
 Alpha virt. eigenvalues --    0.36359   0.37896   0.38714   0.39896   0.41637
 Alpha virt. eigenvalues --    0.42140   0.44719   0.52559   0.55984   0.57557
 Alpha virt. eigenvalues --    0.60385   0.65956   0.67785   0.69535   0.71198
 Alpha virt. eigenvalues --    0.72625   0.73922   0.75660   0.76850   0.77715
 Alpha virt. eigenvalues --    0.79072   0.81086   0.84650   0.85023   0.87864
 Alpha virt. eigenvalues --    0.88546   0.90025   0.90864   0.92365   0.95641
 Alpha virt. eigenvalues --    0.97443   0.98314   1.00078   1.00159   1.02356
 Alpha virt. eigenvalues --    1.05236   1.06857   1.07295   1.13185   1.15811
 Alpha virt. eigenvalues --    1.17728   1.22873   1.23992   1.31089   1.32825
 Alpha virt. eigenvalues --    1.33403   1.40350   1.43843   1.47985   1.53160
 Alpha virt. eigenvalues --    1.55528   1.57445   1.58613   1.70794   1.80270
 Alpha virt. eigenvalues --    1.82638   1.83887   1.86063   1.92419   2.16077
 Alpha virt. eigenvalues --    2.21075   2.24008   2.28490   2.29002   2.30266
 Alpha virt. eigenvalues --    2.31938   2.34529   2.36183   2.38439   2.41534
 Alpha virt. eigenvalues --    2.43051   2.45327   2.46738   2.49589   2.50316
 Alpha virt. eigenvalues --    2.51202   2.53916   2.57093   2.59031   2.60718
 Alpha virt. eigenvalues --    2.62667   2.63967   2.67863   2.70262   2.71694
 Alpha virt. eigenvalues --    2.74323   2.79056   2.85143   2.87826   2.90113
 Alpha virt. eigenvalues --    2.95361   3.00157   3.05934   3.09306   3.18630
 Alpha virt. eigenvalues --    3.21444   3.27299   3.32874   3.40983   3.45720
 Alpha virt. eigenvalues --    3.61611   3.67050   3.83040   3.87637   4.03355
 Alpha virt. eigenvalues --    4.42741   4.48648   4.52495   4.58550   4.68683
 Alpha virt. eigenvalues --    4.71772   4.86008   4.86353   4.98244   5.08706
 Alpha virt. eigenvalues --    5.14318   5.24821   5.55620   5.68999   5.82140
 Alpha virt. eigenvalues --    5.91047   5.99812   6.14142   6.80241   6.83933
 Alpha virt. eigenvalues --    7.37994   7.41555   7.60292   7.70984   7.72023
 Alpha virt. eigenvalues --    7.83194   7.99713   8.16688   8.17637   8.26652
 Alpha virt. eigenvalues --    8.32483   8.48261   8.63070   8.92773   9.58146
 Alpha virt. eigenvalues --    9.74407   9.83776   9.88430   9.95551   9.97737
 Alpha virt. eigenvalues --   10.18414  10.23726  10.55954  10.93964  11.58041
 Alpha virt. eigenvalues --   11.60187  11.77908  12.00111  12.05360  13.21336
 Alpha virt. eigenvalues --   13.69475  14.53054  62.68443  64.68666
          Condensed to atoms (all electrons):
              1          2          3          4          5
     1  O    0.000826  -0.000776  -0.000383   0.000628  -0.007181
     2  O   -0.000776   0.003944   0.000253  -0.002969  -0.003396
     3  H   -0.000383   0.000253   0.000535  -0.000170  -0.005589
     4  H    0.000628  -0.002969  -0.000170   0.003243  -0.017928
     5  Kr  -0.007181  -0.003396  -0.005589  -0.017928  36.066476
 Mulliken atomic charges:
              1
     1  O    0.006886
     2  O    0.002945
     3  H    0.005354
     4  H    0.017196
     5  Kr  -0.032381
 Sum of Mulliken atomic charges =   0.00000
 Mulliken charges with hydrogens summed into heavy atoms:
              1
     1  O    0.012241
     2  O    0.020140
     5  Kr  -0.032381
 Sum of Mulliken charges with hydrogens summed into heavy atoms =   0.00000
          Condensed to fragments (all electrons):
     1       0.032381
     2      -0.032381
 Electronic spatial extent (au):  <R**2>=            160.8665
 Charge=              0.0000 electrons
 Dipole moment (field-independent basis, Debye):
    X=              0.0010    Y=              0.0003    Z=              0.0001  Tot=              0.0010
 Quadrupole moment (field-independent basis, Debye-Ang):
   XX=            -17.6408   YY=            -17.6541   ZZ=            -17.6620
   XY=              0.0017   XZ=              0.0026   YZ=             -0.0013
 Traceless Quadrupole moment (field-independent basis, Debye-Ang):
   XX=              0.0115   YY=             -0.0018   ZZ=             -0.0097
   XY=              0.0017   XZ=              0.0026   YZ=             -0.0013
 Octapole moment (field-independent basis, Debye-Ang**2):
  XXX=             51.4439  YYY=              0.1780  ZZZ=              0.1931  XYY=             17.1634
  XXY=              0.0548  XXZ=              0.0606  XZZ=             17.1681  YZZ=              0.0595
  YYZ=              0.0653  XYZ=              0.0002
 Hexadecapole moment (field-independent basis, Debye-Ang**3):
 XXXX=           -118.4623 YYYY=            -18.4847 ZZZZ=            -18.5079 XXXY=             -0.1651
 XXXZ=             -0.1805 YYYX=             -0.1665 YYYZ=             -0.0010 ZZZX=             -0.1829
 ZZZY=             -0.0014 XXYY=            -22.8363 XXZZ=            -22.8432 YYZZ=             -6.1647
 XXYZ=             -0.0016 YYXZ=             -0.0608 ZZXY=             -0.0544
 N-N= 0.000000000000D+00 E-N=-6.580150333384D+03  KE= 2.750241893343D+03
 No NMR shielding tensors so no spin-rotation constants.
 Leave Link  601 at Sun May  3 11:22:05 2020, MaxMem= 1073741824 cpu:       0.8
 (Enter /home/matheus/.gaussian/g09/l122.exe)
 Counterpoise: doing MCBS calculation for fragment   1
 Leave Link  122 at Sun May  3 11:22:05 2020, MaxMem= 1073741824 cpu:       0.0
 (Enter /home/matheus/.gaussian/g09/l301.exe)
 Basis read from rwf:  (5D, 7F)
 No pseudopotential information found on rwf file.
 There are   138 symmetry adapted basis functions of A   symmetry.
 Integral buffers will be    131072 words long.
 Raffenetti 2 integral format.
 Two-electron integral symmetry is turned on.
   138 basis functions,   198 primitive gaussians,   160 cartesian basis functions
     9 alpha electrons        9 beta electrons
       nuclear repulsion energy        36.6499454140 Hartrees.
 IExCor= 4639 DFT=T Ex+Corr=wB97XD ExCW=0 ScaHFX=  1.000000
 ScaDFX=  1.000000  1.000000  1.000000  1.000000 ScalE2=  1.000000  1.000000
 IRadAn=      5 IRanWt=     -1 IRanGd=            0 ICorTp=0
  HFx wShort=  0.000000 wLong=  0.250000 cFull=  0.222036 cShort=  0.000000 cLong=  0.777964
  DFx wShort=  0.000000 wLong=  0.250000 cFull=  0.000000 cShort=  0.000000 cLong=  1.000000
 NAtoms=    5 NActive=    4 NUniq=    4 SFac= 1.00D+00 NAtFMM=   60 NAOKFM=F Big=F
 R6Disp: Dispersion energy =        -0.0002472616 Hartrees.
 Nuclear repulsion after empirical dispersion term =       36.6496981524 Hartrees.
 No density basis found on file   718.
 Leave Link  301 at Sun May  3 11:22:05 2020, MaxMem= 1073741824 cpu:       0.2
 (Enter /home/matheus/.gaussian/g09/l302.exe)
 NPDir=0 NMtPBC=     1 NCelOv=     1 NCel=       1 NClECP=     1 NCelD=      1
         NCelK=      1 NCelE2=     1 NClLst=     1 CellRange=     0.0.
 One-electron integrals computed using PRISM.
 NBasis=   138 RedAO= T  NBF=   138
 NBsUse=   138 1.00D-06 NBFU=   138
 Precomputing XC quadrature grid using
 IXCGrd= 2 IRadAn=           5 IRanWt=          -1 IRanGd=           0 AccXCQ= 0.00D+00.
 NRdTot=     344 NPtTot=       92556 NUsed=       95038 NTot=       95070
 NSgBfM=   160   160   160   160   160 NAtAll=     4     4.
 Leave Link  302 at Sun May  3 11:22:05 2020, MaxMem= 1073741824 cpu:       0.7
 (Enter /home/matheus/.gaussian/g09/l303.exe)
 DipDrv:  MaxL=1.
 Leave Link  303 at Sun May  3 11:22:05 2020, MaxMem= 1073741824 cpu:       0.2
 (Enter /home/matheus/.gaussian/g09/l401.exe)
 Harris functional with IExCor= 4639 diagonalized for initial guess.
 ExpMin= 2.53D-02 ExpMax= 1.53D+04 ExpMxC= 5.22D+02 IAcc=3 IRadAn=         5 AccDes= 0.00D+00
 HarFok:  IExCor= 4639 AccDes= 0.00D+00 IRadAn=         5 IDoV= 1
 ScaDFX=  1.000000  1.000000  1.000000  1.000000
 FoFCou: FMM=F IPFlag=           0 FMFlag=      100000 FMFlg1=           0
         NFxFlg=           0 DoJE=T BraDBF=F KetDBF=T FulRan=T
         Omega=  0.000000  0.000000  1.000000  0.000000  0.000000 ICntrl=     500 IOpCl=  0
         NMat0=    1 NMatS0=    1 NMatT0=    0 NMatD0=    1 NMtDS0=    0 NMtDT0=    0
         I1Cent=           4 NGrid=           0.
 Petite list used in FoFCou.
 Harris En= -145.944769198689    
 Initial guess orbital symmetries:
       Occupied  (A) (A) (A) (A) (A) (A) (A) (A) (A)
       Virtual   (A) (A) (A) (A) (A) (A) (A) (A) (A) (A) (A) (A)
                 (A) (A) (A) (A) (A) (A) (A) (A) (A) (A) (A) (A)
                 (A) (A) (A) (A) (A) (A) (A) (A) (A) (A) (A) (A)
                 (A) (A) (A) (A) (A) (A) (A) (A) (A) (A) (A) (A)
                 (A) (A) (A) (A) (A) (A) (A) (A) (A) (A) (A) (A)
                 (A) (A) (A) (A) (A) (A) (A) (A) (A) (A) (A) (A)
                 (A) (A) (A) (A) (A) (A) (A) (A) (A) (A) (A) (A)
                 (A) (A) (A) (A) (A) (A) (A) (A) (A) (A) (A) (A)
                 (A) (A) (A) (A) (A) (A) (A) (A) (A) (A) (A) (A)
                 (A) (A) (A) (A) (A) (A) (A) (A) (A) (A) (A) (A)
                 (A) (A) (A) (A) (A) (A) (A) (A) (A)
 The electronic state of the initial guess is 1-A.
 Leave Link  401 at Sun May  3 11:22:05 2020, MaxMem= 1073741824 cpu:       2.0
 (Enter /home/matheus/.gaussian/g09/l502.exe)
 Closed shell SCF:
 Requested convergence on RMS density matrix=1.00D-08 within 128 cycles.
 Requested convergence on MAX density matrix=1.00D-06.
 Requested convergence on             energy=1.00D-06.
 No special actions if energy rises.
 Using DIIS extrapolation, IDIIS=  1040.
 Integral symmetry usage will be decided dynamically.
        94980 words used for storage of precomputed grid.
 IEnd=      192360 IEndB=      192360 NGot=  1073741824 MDV=  1073591865
 LenX=  1073591865 LenY=  1073565824
 Fock matrices will be formed incrementally for  20 cycles.

 Cycle   1  Pass 1  IDiag  1:
 FoFJK:  IHMeth= 1 ICntrl=     0 DoSepK=T KAlg= 1 I1Cent= 0 FoldK=F
 FoFCou: FMM=F IPFlag=           0 FMFlag=      100000 FMFlg1=           0
         NFxFlg=           0 DoJE=T BraDBF=F KetDBF=F FulRan=T
         Omega=  0.000000  0.000000  1.000000  0.000000  0.000000 ICntrl=     500 IOpCl=  0
         NMat0=    1 NMatS0=    1 NMatT0=    0 NMatD0=    1 NMtDS0=    0 NMtDT0=    0
         I1Cent=           0 NGrid=           0.
 Symmetry not used in FoFCou.
 E= -151.457551881639    
 DIIS: error= 5.36D-02 at cycle   1 NSaved=   1.
 NSaved= 1 IEnMin= 1 EnMin= -151.457551881639     IErMin= 1 ErrMin= 5.36D-02
 ErrMax= 5.36D-02 EMaxC= 1.00D-01 BMatC= 3.19D-01 BMatP= 3.19D-01
 IDIUse=3 WtCom= 4.64D-01 WtEn= 5.36D-01
 Coeff-Com:  0.100D+01
 Coeff-En:   0.100D+01
 Coeff:      0.100D+01
 Gap=     0.536 Goal=   None    Shift=    0.000
 GapD=    0.536 DampG=2.000 DampE=0.500 DampFc=1.0000 IDamp=-1.
 RMSDP=3.44D-03 MaxDP=9.70D-02              OVMax= 1.22D-01

 Cycle   2  Pass 1  IDiag  1:
 RMSU=  2.39D-03    CP:  9.55D-01
 FoFJK:  IHMeth= 1 ICntrl=     0 DoSepK=T KAlg= 1 I1Cent= 0 FoldK=F
 E= -151.498860796969     Delta-E=       -0.041308915331 Rises=F Damp=F
 DIIS: error= 2.84D-02 at cycle   2 NSaved=   2.
 NSaved= 2 IEnMin= 2 EnMin= -151.498860796969     IErMin= 2 ErrMin= 2.84D-02
 ErrMax= 2.84D-02 EMaxC= 1.00D-01 BMatC= 9.98D-02 BMatP= 3.19D-01
 IDIUse=3 WtCom= 7.16D-01 WtEn= 2.84D-01
 Coeff-Com:  0.338D+00 0.662D+00
 Coeff-En:   0.333D+00 0.667D+00
 Coeff:      0.336D+00 0.664D+00
 Gap=     0.483 Goal=   None    Shift=    0.000
 RMSDP=1.44D-03 MaxDP=4.73D-02 DE=-4.13D-02 OVMax= 6.14D-02

 Cycle   3  Pass 1  IDiag  1:
 RMSU=  5.44D-04    CP:  9.75D-01  6.50D-01
 FoFJK:  IHMeth= 1 ICntrl=     0 DoSepK=T KAlg= 1 I1Cent= 0 FoldK=F
 E= -151.552688803992     Delta-E=       -0.053828007023 Rises=F Damp=F
 DIIS: error= 7.44D-03 at cycle   3 NSaved=   3.
[...]
 Symmetry not used in FoFCou.
 E= -2753.87012715771    
 DIIS: error= 1.76D-04 at cycle   1 NSaved=   1.
 NSaved= 1 IEnMin= 1 EnMin= -2753.87012715771     IErMin= 1 ErrMin= 1.76D-04
 ErrMax= 1.76D-04 EMaxC= 1.00D-01 BMatC= 3.77D-06 BMatP= 3.77D-06
 IDIUse=3 WtCom= 9.98D-01 WtEn= 1.76D-03
 Coeff-Com:  0.100D+01
 Coeff-En:   0.100D+01
 Coeff:      0.100D+01
 Gap=     0.514 Goal=   None    Shift=    0.000
 RMSDP=1.34D-05 MaxDP=7.65D-04              OVMax= 3.43D-04

 Cycle   2  Pass 1  IDiag  1:
 RMSU=  9.49D-06    CP:  1.00D+00
 FoFJK:  IHMeth= 1 ICntrl=     0 DoSepK=T KAlg= 1 I1Cent= 0 FoldK=F
 E= -2753.87012772601     Delta-E=       -0.000000568300 Rises=F Damp=F
 DIIS: error= 4.14D-06 at cycle   2 NSaved=   2.
 NSaved= 2 IEnMin= 2 EnMin= -2753.87012772601     IErMin= 2 ErrMin= 4.14D-06
 ErrMax= 4.14D-06 EMaxC= 1.00D-01 BMatC= 4.32D-09 BMatP= 3.77D-06
 IDIUse=1 WtCom= 1.00D+00 WtEn= 0.00D+00
 Coeff-Com: -0.105D-01 0.101D+01
 Coeff:     -0.105D-01 0.101D+01
 Gap=     0.513 Goal=   None    Shift=    0.000
 RMSDP=1.42D-06 MaxDP=6.90D-05 DE=-5.68D-07 OVMax= 5.28D-05

 Cycle   3  Pass 1  IDiag  1:
 RMSU=  5.45D-07    CP:  1.00D+00  1.09D+00
 FoFJK:  IHMeth= 1 ICntrl=     0 DoSepK=T KAlg= 1 I1Cent= 0 FoldK=F
 E= -2753.87012773395     Delta-E=       -0.000000007940 Rises=F Damp=F
 DIIS: error= 6.91D-07 at cycle   3 NSaved=   3.
 NSaved= 3 IEnMin= 3 EnMin= -2753.87012773395     IErMin= 3 ErrMin= 6.91D-07
 ErrMax= 6.91D-07 EMaxC= 1.00D-01 BMatC= 1.16D-10 BMatP= 4.32D-09
 IDIUse=1 WtCom= 1.00D+00 WtEn= 0.00D+00
 Coeff-Com:  0.159D-03-0.116D+00 0.112D+01
 Coeff:      0.159D-03-0.116D+00 0.112D+01
 Gap=     0.513 Goal=   None    Shift=    0.000
 RMSDP=2.18D-07 MaxDP=9.69D-06 DE=-7.94D-09 OVMax= 1.07D-05

 Cycle   4  Pass 1  IDiag  1:
 RMSU=  5.10D-08    CP:  1.00D+00  1.10D+00  1.24D+00
 FoFJK:  IHMeth= 1 ICntrl=     0 DoSepK=T KAlg= 1 I1Cent= 0 FoldK=F
 E= -2753.87012773416     Delta-E=       -0.000000000214 Rises=F Damp=F
 DIIS: error= 3.81D-07 at cycle   4 NSaved=   4.
 NSaved= 4 IEnMin= 4 EnMin= -2753.87012773416     IErMin= 4 ErrMin= 3.81D-07
 ErrMax= 3.81D-07 EMaxC= 1.00D-01 BMatC= 1.28D-11 BMatP= 1.16D-10
 IDIUse=1 WtCom= 1.00D+00 WtEn= 0.00D+00
 Coeff-Com:  0.236D-03-0.502D-01 0.305D+00 0.745D+00
 Coeff:      0.236D-03-0.502D-01 0.305D+00 0.745D+00
 Gap=     0.513 Goal=   None    Shift=    0.000
 RMSDP=2.32D-08 MaxDP=8.81D-07 DE=-2.14D-10 OVMax= 1.35D-06

 Cycle   5  Pass 1  IDiag  1:
 RMSU=  9.53D-09    CP:  1.00D+00  1.10D+00  1.26D+00  1.08D+00
 FoFJK:  IHMeth= 1 ICntrl=     0 DoSepK=T KAlg= 1 I1Cent= 0 FoldK=F
 E= -2753.87012773418     Delta-E=       -0.000000000016 Rises=F Damp=F
 DIIS: error= 3.04D-08 at cycle   5 NSaved=   5.
 NSaved= 5 IEnMin= 5 EnMin= -2753.87012773418     IErMin= 5 ErrMin= 3.04D-08
 ErrMax= 3.04D-08 EMaxC= 1.00D-01 BMatC= 1.94D-13 BMatP= 1.28D-11
 IDIUse=1 WtCom= 1.00D+00 WtEn= 0.00D+00
 Coeff-Com: -0.182D-04 0.653D-02-0.554D-01-0.237D-01 0.107D+01
 Coeff:     -0.182D-04 0.653D-02-0.554D-01-0.237D-01 0.107D+01
 Gap=     0.513 Goal=   None    Shift=    0.000
 RMSDP=9.46D-09 MaxDP=4.85D-07 DE=-1.59D-11 OVMax= 4.27D-07

 SCF Done:  E(RwB97XD) =  -2753.87012773     A.U. after    5 cycles
             Convg  =    0.9456D-08             -V/T =  2.0013
 KE= 2.750283666497D+03 PE=-6.580194966369D+03 EE= 1.076041172137D+03
 Leave Link  502 at Sun May  3 11:43:03 2020, MaxMem= 1073741824 cpu:      89.5
 (Enter /home/matheus/.gaussian/g09/l122.exe)
 Restoring MOs from calculation   4 to rwf.
 Counterpoise: doing MCBS calculation for fragment   1
 Leave Link  122 at Sun May  3 11:43:03 2020, MaxMem= 1073741824 cpu:       0.0
 (Enter /home/matheus/.gaussian/g09/l301.exe)
 Basis read from rwf:  (5D, 7F)
 No pseudopotential information found on rwf file.
 There are   138 symmetry adapted basis functions of A   symmetry.
 Integral buffers will be    131072 words long.
 Raffenetti 2 integral format.
 Two-electron integral symmetry is turned on.
   138 basis functions,   198 primitive gaussians,   160 cartesian basis functions
     9 alpha electrons        9 beta electrons
       nuclear repulsion energy        36.6499454140 Hartrees.
 IExCor= 4639 DFT=T Ex+Corr=wB97XD ExCW=0 ScaHFX=  1.000000
 ScaDFX=  1.000000  1.000000  1.000000  1.000000 ScalE2=  1.000000  1.000000
 IRadAn=      5 IRanWt=     -1 IRanGd=            0 ICorTp=0
  HFx wShort=  0.000000 wLong=  0.250000 cFull=  0.222036 cShort=  0.000000 cLong=  0.777964
  DFx wShort=  0.000000 wLong=  0.250000 cFull=  0.000000 cShort=  0.000000 cLong=  1.000000
 NAtoms=    5 NActive=    4 NUniq=    4 SFac= 1.00D+00 NAtFMM=   60 NAOKFM=F Big=F
 R6Disp: Dispersion energy =        -0.0002472616 Hartrees.
 Nuclear repulsion after empirical dispersion term =       36.6496981524 Hartrees.
 No density basis found on file   718.
 Leave Link  301 at Sun May  3 11:43:03 2020, MaxMem= 1073741824 cpu:       0.2
 (Enter /home/matheus/.gaussian/g09/l302.exe)
 NPDir=0 NMtPBC=     1 NCelOv=     1 NCel=       1 NClECP=     1 NCelD=      1
         NCelK=      1 NCelE2=     1 NClLst=     1 CellRange=     0.0.
 One-electron integrals computed using PRISM.
 NBasis=   138 RedAO= T  NBF=   138
 NBsUse=   138 1.00D-06 NBFU=   138
 Precomputing XC quadrature grid using
 IXCGrd= 2 IRadAn=           5 IRanWt=          -1 IRanGd=           0 AccXCQ= 0.00D+00.
 NRdTot=     344 NPtTot=       92556 NUsed=       95038 NTot=       95070
 NSgBfM=   160   160   160   160   160 NAtAll=     4     4.
 Leave Link  302 at Sun May  3 11:43:03 2020, MaxMem= 1073741824 cpu:       0.8
 (Enter /home/matheus/.gaussian/g09/l303.exe)
 DipDrv:  MaxL=1.
 Leave Link  303 at Sun May  3 11:43:03 2020, MaxMem= 1073741824 cpu:       0.1
 (Enter /home/matheus/.gaussian/g09/l401.exe)
 Initial guess read from the read-write file.
 Guess basis will be translated and rotated to current coordinates.
 Initial guess orbital symmetries:
       Occupied  (A) (A) (A) (A) (A) (A) (A) (A) (A)
       Virtual   (A) (A) (A) (A) (A) (A) (A) (A) (A) (A) (A) (A)
                 (A) (A) (A) (A) (A) (A) (A) (A) (A) (A) (A) (A)
                 (A) (A) (A) (A) (A) (A) (A) (A) (A) (A) (A) (A)
                 (A) (A) (A) (A) (A) (A) (A) (A) (A) (A) (A) (A)
                 (A) (A) (A) (A) (A) (A) (A) (A) (A) (A) (A) (A)
                 (A) (A) (A) (A) (A) (A) (A) (A) (A) (A) (A) (A)
                 (A) (A) (A) (A) (A) (A) (A) (A) (A) (A) (A) (A)
                 (A) (A) (A) (A) (A) (A) (A) (A) (A) (A) (A) (A)
                 (A) (A) (A) (A) (A) (A) (A) (A) (A) (A) (A) (A)
                 (A) (A) (A) (A) (A) (A) (A) (A) (A) (A) (A) (A)
                 (A) (A) (A) (A) (A) (A) (A) (A) (A)
 The electronic state of the initial guess is 1-A.
 Generating alternative initial guess.
 Harris functional with IExCor= 4639 diagonalized for initial guess.
 ExpMin= 2.53D-02 ExpMax= 1.53D+04 ExpMxC= 5.22D+02 IAcc=3 IRadAn=         5 AccDes= 0.00D+00
 HarFok:  IExCor= 4639 AccDes= 0.00D+00 IRadAn=         5 IDoV= 1
 ScaDFX=  1.000000  1.000000  1.000000  1.000000
 FoFCou: FMM=F IPFlag=           0 FMFlag=      100000 FMFlg1=           0
         NFxFlg=           0 DoJE=T BraDBF=F KetDBF=T FulRan=T
         Omega=  0.000000  0.000000  1.000000  0.000000  0.000000 ICntrl=     500 IOpCl=  0
         NMat0=    1 NMatS0=    1 NMatT0=    0 NMatD0=    1 NMtDS0=    0 NMtDT0=    0
         I1Cent=           4 NGrid=           0.
 Petite list used in FoFCou.
 Harris En= -145.944769192644    
 Leave Link  401 at Sun May  3 11:43:04 2020, MaxMem= 1073741824 cpu:       2.3
 (Enter /home/matheus/.gaussian/g09/l502.exe)
 Closed shell SCF:
 Requested convergence on RMS density matrix=1.00D-08 within 128 cycles.
 Requested convergence on MAX density matrix=1.00D-06.
 Requested convergence on             energy=1.00D-06.
 No special actions if energy rises.
 Using DIIS extrapolation, IDIIS=  1040.
 Integral symmetry usage will be decided dynamically.
        94980 words used for storage of precomputed grid.
 IEnd=      192360 IEndB=      192360 NGot=  1073741824 MDV=  1073591865
 LenX=  1073591865 LenY=  1073565824
 Fock matrices will be formed incrementally for  20 cycles.

 Cycle   1  Pass 1  IDiag  1:
 FoFJK:  IHMeth= 1 ICntrl=     0 DoSepK=T KAlg= 1 I1Cent= 0 FoldK=F
 FoFCou: FMM=F IPFlag=           0 FMFlag=      100000 FMFlg1=           0
         NFxFlg=           0 DoJE=T BraDBF=F KetDBF=F FulRan=T
         Omega=  0.000000  0.000000  1.000000  0.000000  0.000000 ICntrl=     500 IOpCl=  0
         NMat0=    1 NMatS0=    1 NMatT0=    0 NMatD0=    1 NMtDS0=    0 NMtDT0=    0
         I1Cent=           0 NGrid=           0.
 Symmetry not used in FoFCou.
 E= -151.556836604699    
 DIIS: error= 4.55D-06 at cycle   1 NSaved=   1.
 NSaved= 1 IEnMin= 1 EnMin= -151.556836604699     IErMin= 1 ErrMin= 4.55D-06
 ErrMax= 4.55D-06 EMaxC= 1.00D-01 BMatC= 4.97D-09 BMatP= 4.97D-09
 IDIUse=1 WtCom= 1.00D+00 WtEn= 0.00D+00
 Coeff-Com:  0.100D+01
 Coeff:      0.100D+01
 Gap=     0.415 Goal=   None    Shift=    0.000
 RMSDP=4.92D-07 MaxDP=1.13D-05              OVMax= 1.93D-05

 Cycle   2  Pass 1  IDiag  1:
 RMSU=  3.48D-07    CP:  1.00D+00
 FoFJK:  IHMeth= 1 ICntrl=     0 DoSepK=T KAlg= 1 I1Cent= 0 FoldK=F
 E= -151.556836609766     Delta-E=       -0.000000005067 Rises=F Damp=F
 DIIS: error= 8.59D-07 at cycle   2 NSaved=   2.
 NSaved= 2 IEnMin= 2 EnMin= -151.556836609766     IErMin= 2 ErrMin= 8.59D-07
 ErrMax= 8.59D-07 EMaxC= 1.00D-01 BMatC= 1.65D-10 BMatP= 4.97D-09
 IDIUse=1 WtCom= 1.00D+00 WtEn= 0.00D+00
 Coeff-Com: -0.115D+00 0.112D+01
 Coeff:     -0.115D+00 0.112D+01
 Gap=     0.415 Goal=   None    Shift=    0.000
 RMSDP=1.38D-07 MaxDP=3.92D-06 DE=-5.07D-09 OVMax= 6.15D-06

 Cycle   3  Pass 1  IDiag  1:
 RMSU=  4.92D-08    CP:  1.00D+00  1.24D+00
 FoFJK:  IHMeth= 1 ICntrl=     0 DoSepK=T KAlg= 1 I1Cent= 0 FoldK=F
 E= -151.556836610093     Delta-E=       -0.000000000327 Rises=F Damp=F
 DIIS: error= 2.56D-07 at cycle   3 NSaved=   3.
 NSaved= 3 IEnMin= 3 EnMin= -151.556836610093     IErMin= 3 ErrMin= 2.56D-07
 ErrMax= 2.56D-07 EMaxC= 1.00D-01 BMatC= 8.33D-12 BMatP= 1.65D-10
 IDIUse=1 WtCom= 1.00D+00 WtEn= 0.00D+00
 Coeff-Com: -0.139D-01-0.138D-01 0.103D+01
 Coeff:     -0.139D-01-0.138D-01 0.103D+01
 Gap=     0.415 Goal=   None    Shift=    0.000
 RMSDP=3.51D-08 MaxDP=8.66D-07 DE=-3.27D-10 OVMax= 2.02D-06

 Cycle   4  Pass 1  IDiag  1:
 RMSU=  8.77D-09    CP:  1.00D+00  1.29D+00  1.29D+00
 FoFJK:  IHMeth= 1 ICntrl=     0 DoSepK=T KAlg= 1 I1Cent= 0 FoldK=F
 E= -151.556836610117     Delta-E=       -0.000000000024 Rises=F Damp=F
 DIIS: error= 7.96D-08 at cycle   4 NSaved=   4.
 NSaved= 4 IEnMin= 4 EnMin= -151.556836610117     IErMin= 4 ErrMin= 7.96D-08
 ErrMax= 7.96D-08 EMaxC= 1.00D-01 BMatC= 1.12D-12 BMatP= 8.33D-12
 IDIUse=1 WtCom= 1.00D+00 WtEn= 0.00D+00
 Coeff-Com:  0.715D-02-0.863D-01 0.306D-01 0.105D+01
 Coeff:      0.715D-02-0.863D-01 0.306D-01 0.105D+01
 Gap=     0.415 Goal=   None    Shift=    0.000
 RMSDP=1.35D-08 MaxDP=2.58D-07 DE=-2.43D-11 OVMax= 8.13D-07

 Cycle   5  Pass 1  IDiag  1:
 RMSU=  4.11D-09    CP:  1.00D+00  1.31D+00  1.42D+00  1.35D+00
 FoFJK:  IHMeth= 1 ICntrl=     0 DoSepK=T KAlg= 1 I1Cent= 0 FoldK=F
 E= -151.556836610119     Delta-E=       -0.000000000002 Rises=F Damp=F
 DIIS: error= 4.98D-08 at cycle   5 NSaved=   5.
 NSaved= 5 IEnMin= 5 EnMin= -151.556836610119     IErMin= 5 ErrMin= 4.98D-08
 ErrMax= 4.98D-08 EMaxC= 1.00D-01 BMatC= 4.25D-13 BMatP= 1.12D-12
 IDIUse=1 WtCom= 1.00D+00 WtEn= 0.00D+00
 Coeff-Com:  0.428D-02-0.414D-01-0.484D-01 0.519D+00 0.566D+00
 Coeff:      0.428D-02-0.414D-01-0.484D-01 0.519D+00 0.566D+00
 Gap=     0.415 Goal=   None    Shift=    0.000
 RMSDP=3.09D-09 MaxDP=7.40D-08 DE=-1.71D-12 OVMax= 2.01D-07

 SCF Done:  E(RwB97XD) =  -151.556836610     A.U. after    5 cycles
             Convg  =    0.3093D-08             -V/T =  2.0060
 KE= 1.506570356750D+02 PE=-4.317231583321D+02 EE= 9.285958789456D+01
 Leave Link  502 at Sun May  3 11:43:08 2020, MaxMem= 1073741824 cpu:      36.6
 (Enter /home/matheus/.gaussian/g09/l122.exe)
 Restoring MOs from calculation   5 to rwf.
 Counterpoise: doing MCBS calculation for fragment   2
 Leave Link  122 at Sun May  3 11:43:08 2020, MaxMem= 1073741824 cpu:       0.0
 (Enter /home/matheus/.gaussian/g09/l301.exe)
 Basis read from rwf:  (5D, 7F)
 No pseudopotential information found on rwf file.
 There are    59 symmetry adapted basis functions of A   symmetry.
 Integral buffers will be    131072 words long.
 Raffenetti 2 integral format.
 Two-electron integral symmetry is turned on.
    59 basis functions,   217 primitive gaussians,    69 cartesian basis functions
    18 alpha electrons       18 beta electrons
       nuclear repulsion energy         0.0000000000 Hartrees.
 IExCor= 4639 DFT=T Ex+Corr=wB97XD ExCW=0 ScaHFX=  1.000000
 ScaDFX=  1.000000  1.000000  1.000000  1.000000 ScalE2=  1.000000  1.000000
 IRadAn=      5 IRanWt=     -1 IRanGd=            0 ICorTp=0
  HFx wShort=  0.000000 wLong=  0.250000 cFull=  0.222036 cShort=  0.000000 cLong=  0.777964
  DFx wShort=  0.000000 wLong=  0.250000 cFull=  0.000000 cShort=  0.000000 cLong=  1.000000
 NAtoms=    5 NActive=    1 NUniq=    1 SFac= 1.00D+00 NAtFMM=   60 NAOKFM=F Big=F
 R6Disp: Dispersion energy =         0.0000000000 Hartrees.
 Nuclear repulsion after empirical dispersion term =        0.0000000000 Hartrees.
 No density basis found on file   718.
 Leave Link  301 at Sun May  3 11:43:08 2020, MaxMem= 1073741824 cpu:       0.2
 (Enter /home/matheus/.gaussian/g09/l302.exe)
 NPDir=0 NMtPBC=     1 NCelOv=     1 NCel=       1 NClECP=     1 NCelD=      1
         NCelK=      1 NCelE2=     1 NClLst=     1 CellRange=     0.0.
 One-electron integrals computed using PRISM.
 NBasis=    59 RedAO= T  NBF=    59
 NBsUse=    59 1.00D-06 NBFU=    59
 Precomputing XC quadrature grid using
 IXCGrd= 2 IRadAn=           5 IRanWt=          -1 IRanGd=           0 AccXCQ= 0.00D+00.
 NRdTot=      81 NPtTot=       30352 NUsed=       30981 NTot=       31013
 NSgBfM=    69    69    69    69    69 NAtAll=     1     1.
 Leave Link  302 at Sun May  3 11:43:08 2020, MaxMem= 1073741824 cpu:       0.6
 (Enter /home/matheus/.gaussian/g09/l303.exe)
 DipDrv:  MaxL=1.
 Leave Link  303 at Sun May  3 11:43:08 2020, MaxMem= 1073741824 cpu:       0.1
 (Enter /home/matheus/.gaussian/g09/l401.exe)
 Initial guess read from the read-write file.
 Guess basis will be translated and rotated to current coordinates.
 Initial guess orbital symmetries:
       Occupied  (A) (A) (A) (A) (A) (A) (A) (A) (A) (A) (A) (A)
                 (A) (A) (A) (A) (A) (A)
       Virtual   (A) (A) (A) (A) (A) (A) (A) (A) (A) (A) (A) (A)
                 (A) (A) (A) (A) (A) (A) (A) (A) (A) (A) (A) (A)
                 (A) (A) (A) (A) (A) (A) (A) (A) (A) (A) (A) (A)
                 (A) (A) (A) (A) (A)
 The electronic state of the initial guess is 1-A.
 Generating alternative initial guess.
 Harris functional with IExCor= 4639 diagonalized for initial guess.
 ExpMin= 4.00D-02 ExpMax= 1.17D+07 ExpMxC= 1.33D+04 IAcc=3 IRadAn=         5 AccDes= 0.00D+00
 HarFok:  IExCor= 4639 AccDes= 0.00D+00 IRadAn=         5 IDoV= 1
 ScaDFX=  1.000000  1.000000  1.000000  1.000000
 FoFCou: FMM=F IPFlag=           0 FMFlag=      100000 FMFlg1=           0
         NFxFlg=           0 DoJE=T BraDBF=F KetDBF=T FulRan=T
         Omega=  0.000000  0.000000  1.000000  0.000000  0.000000 ICntrl=     500 IOpCl=  0
         NMat0=    1 NMatS0=    1 NMatT0=    0 NMatD0=    1 NMtDS0=    0 NMtDT0=    0
         I1Cent=           4 NGrid=           0.
 Petite list used in FoFCou.
 Harris En= -2729.45839233129    
 Leave Link  401 at Sun May  3 11:43:08 2020, MaxMem= 1073741824 cpu:       1.0
 (Enter /home/matheus/.gaussian/g09/l502.exe)
 Closed shell SCF:
 Requested convergence on RMS density matrix=1.00D-08 within 128 cycles.
 Requested convergence on MAX density matrix=1.00D-06.
 Requested convergence on             energy=1.00D-06.
 No special actions if energy rises.
 Using DIIS extrapolation, IDIIS=  1040.
 Integral symmetry usage will be decided dynamically.
        30923 words used for storage of precomputed grid.
 IEnd=       64406 IEndB=       64406 NGot=  1073741824 MDV=  1073698889
 LenX=  1073698889 LenY=  1073693687
 Fock matrices will be formed incrementally for  20 cycles.

 Cycle   1  Pass 1  IDiag  1:
 FoFJK:  IHMeth= 1 ICntrl=     0 DoSepK=T KAlg= 1 I1Cent= 0 FoldK=F
 FoFCou: FMM=F IPFlag=           0 FMFlag=      100000 FMFlg1=           0
         NFxFlg=           0 DoJE=T BraDBF=F KetDBF=F FulRan=T
         Omega=  0.000000  0.000000  1.000000  0.000000  0.000000 ICntrl=     500 IOpCl=  0
         NMat0=    1 NMatS0=    1 NMatT0=    0 NMatD0=    1 NMtDS0=    0 NMtDT0=    0
         I1Cent=           0 NGrid=           0.
 Symmetry not used in FoFCou.
 E= -2753.87011063501    
 DIIS: error= 1.36D-13 at cycle   1 NSaved=   1.
 NSaved= 1 IEnMin= 1 EnMin= -2753.87011063501     IErMin= 1 ErrMin= 1.36D-13
 ErrMax= 1.36D-13 EMaxC= 1.00D-01 BMatC= 5.05D-25 BMatP= 5.05D-25
 IDIUse=1 WtCom= 1.00D+00 WtEn= 0.00D+00
 Coeff-Com:  0.100D+01
 Coeff:      0.100D+01
 Gap=     0.578 Goal=   None    Shift=    0.000
 DSYEVD returned Info=          89 IAlg= 4 N=    59 NDim=    59 NE2=    18198197 trying DSYEV.
 RMSDP=1.11D-14 MaxDP=2.39D-13              OVMax= 7.33D-14

 SCF Done:  E(RwB97XD) =  -2753.87011064     A.U. after    1 cycles
             Convg  =    0.1115D-13             -V/T =  2.0013
 KE= 2.750289370128D+03 PE=-6.580200885036D+03 EE= 1.076041404273D+03
 Leave Link  502 at Sun May  3 11:43:10 2020, MaxMem= 1073741824 cpu:      11.4
 (Enter /home/matheus/.gaussian/g09/l122.exe)
 Restoring MOs from calculation   1 to rwf.
 Counterpoise: corrected energy =   -2905.427342671787
 Counterpoise: BSSE energy =       0.000020496939
 Leave Link  122 at Sun May  3 11:43:10 2020, MaxMem= 1073741824 cpu:       0.0
 (Enter /home/matheus/.gaussian/g09/l108.exe)
 Scan completed.

 Summary of the potential surface scan:
   N      R1          SCF    
 ----  ---------  -----------
    1     3.0000  -2753.87011
    2     3.1000  -2753.87011
    3     3.2000  -2753.87011
    4     3.3000  -2753.87011
    5     3.4000  -2753.87011
    6     3.5000  -2753.87011
    7     3.6000  -2753.87011
    8     3.7000  -2753.87011
    9     3.8000  -2753.87011
   10     3.9000  -2753.87011
   11     4.0000  -2753.87011
   12     4.1000  -2753.87011
   13     4.2000  -2753.87011
   14     4.3000  -2753.87011
   15     4.4000  -2753.87011
   16     4.5000  -2753.87011
   17     4.6000  -2753.87011
   18     4.7000  -2753.87011
   19     4.8000  -2753.87011
   20     4.9000  -2753.87011
   21     5.0000  -2753.87011
 ----  ---------  -----------
  
 Leave Link  108 at Sun May  3 11:43:10 2020, MaxMem= 1073741824 cpu:       0.0
 (Enter /home/matheus/.gaussian/g09/l9999.exe)

 Test job not archived.
 1\1\GINC-REDGIANT\Scan\RwB97XD\Aug-CC-pVTZ\H2Kr1O2\ROOT\03-May-2020\1\
 \#p wb97xd/aug-cc-PVTz iop(3/107=0250000000) iop(3/108=0250000000) int
 =ultrafine counterpoise=2 Scan\\TCC\\0,1\O,0,0.,0.,0.725\O,0,0.,0.,-0.
 725\H,0,0.7037808064,0.5905422151,1.0235104166\H,0,0.,0.9187205947,-1.
 0235104166\Kr,0,0.,R1,0.\\R1=3.,s,20,0.1\\Version=EM64L-G09RevC.01\Sta
 te=1-A\HF=-2753.8701106,-2753.8701106,-2753.8701106,-2753.8701106,-275
 3.8701106,-2753.8701106,-2753.8701106,-2753.8701106,-2753.8701106,-275
 3.8701106,-2753.8701106,-2753.8701106,-2753.8701106,-2753.8701106,-275
 3.8701106,-2753.8701106,-2753.8701106,-2753.8701106,-2753.8701106,-275
 3.8701106,-2753.8701106\RMSD=9.654e-09,1.847e-10,5.406e-11,3.458e-11,1
 .948e-11,1.188e-11,7.101e-12,4.278e-12,2.564e-12,1.543e-12,9.317e-13,5
 .616e-13,3.327e-13,2.008e-13,1.243e-13,7.738e-14,4.892e-14,3.497e-14,2
 .777e-14,1.022e-14,1.115e-14\PG=C01 [X(H2Kr1O2)]\\@


 I DON'T PRETEND TO UNDERSTAND THE UNIVERSE --
 IT'S A GREAT DEAL BIGGER THAN I AM.
       -- ATTR. TO WILLIAM ALLINGHAM (1828-89)
 Job cpu time:  0 days  3 hours  0 minutes 41.8 seconds.
 File lengths (MBytes):  RWF=     33 Int=      0 D2E=      0 Chk=      8 Scr=      1
 Normal termination of Gaussian 09 at Sun May  3 11:43:10 2020.
