 Entering Gaussian System, Link 0=g09
 Input=/home/matheus/.tcc/Inputs-wb97xd/H2O2-Kr_19.com
 Output=/home/matheus/.tcc/Logs-wb97xd/H2O2-Kr_19.log
 Initial command:
 /home/matheus/.gaussian/g09/l1.exe /home/matheus/.gaussian/g09/scratch/Gau-16859.inp -scrdir=/home/matheus/.gaussian/g09/scratch/
 Entering Link 1 = /home/matheus/.gaussian/g09/l1.exe PID=     16862.
  
 Copyright (c) 1988,1990,1992,1993,1995,1998,2003,2009,2011,
            Gaussian, Inc.  All Rights Reserved.
  
 This is part of the Gaussian(R) 09 program.  It is based on
 the Gaussian(R) 03 system (copyright 2003, Gaussian, Inc.),
 the Gaussian(R) 98 system (copyright 1998, Gaussian, Inc.),
 the Gaussian(R) 94 system (copyright 1995, Gaussian, Inc.),
 the Gaussian 92(TM) system (copyright 1992, Gaussian, Inc.),
 the Gaussian 90(TM) system (copyright 1990, Gaussian, Inc.),
 the Gaussian 88(TM) system (copyright 1988, Gaussian, Inc.),
 the Gaussian 86(TM) system (copyright 1986, Carnegie Mellon
 University), and the Gaussian 82(TM) system (copyright 1983,
 Carnegie Mellon University). Gaussian is a federally registered
 trademark of Gaussian, Inc.
  
 This software contains proprietary and confidential information,
 including trade secrets, belonging to Gaussian, Inc.
  
 This software is provided under written license and may be
 used, copied, transmitted, or stored only in accord with that
 written license.
  
 The following legend is applicable only to US Government
 contracts under FAR:
  
                    RESTRICTED RIGHTS LEGEND
  
 Use, reproduction and disclosure by the US Government is
 subject to restrictions as set forth in subparagraphs (a)
 and (c) of the Commercial Computer Software - Restricted
 Rights clause in FAR 52.227-19.
  
 Gaussian, Inc.
 340 Quinnipiac St., Bldg. 40, Wallingford CT 06492
  
  
 ---------------------------------------------------------------
 Warning -- This program may not be used in any manner that
 competes with the business of Gaussian, Inc. or will provide
 assistance to any competitor of Gaussian, Inc.  The licensee
 of this program is prohibited from giving any competitor of
 Gaussian, Inc. access to this program.  By using this program,
 the user acknowledges that Gaussian, Inc. is engaged in the
 business of creating and licensing software in the field of
 computational chemistry and represents and warrants to the
 licensee that it is not a competitor of Gaussian, Inc. and that
 it will not use this program in any manner prohibited above.
 ---------------------------------------------------------------
  

 Cite this work as:
 Gaussian 09, Revision C.01,
 M. J. Frisch, G. W. Trucks, H. B. Schlegel, G. E. Scuseria, 
 M. A. Robb, J. R. Cheeseman, G. Scalmani, V. Barone, B. Mennucci, 
 G. A. Petersson, H. Nakatsuji, M. Caricato, X. Li, H. P. Hratchian, 
 A. F. Izmaylov, J. Bloino, G. Zheng, J. L. Sonnenberg, M. Hada, 
 M. Ehara, K. Toyota, R. Fukuda, J. Hasegawa, M. Ishida, T. Nakajima, 
 Y. Honda, O. Kitao, H. Nakai, T. Vreven, J. A. Montgomery, Jr., 
 J. E. Peralta, F. Ogliaro, M. Bearpark, J. J. Heyd, E. Brothers, 
 K. N. Kudin, V. N. Staroverov, T. Keith, R. Kobayashi, J. Normand, 
 K. Raghavachari, A. Rendell, J. C. Burant, S. S. Iyengar, J. Tomasi, 
 M. Cossi, N. Rega, J. M. Millam, M. Klene, J. E. Knox, J. B. Cross, 
 V. Bakken, C. Adamo, J. Jaramillo, R. Gomperts, R. E. Stratmann, 
 O. Yazyev, A. J. Austin, R. Cammi, C. Pomelli, J. W. Ochterski, 
 R. L. Martin, K. Morokuma, V. G. Zakrzewski, G. A. Voth, 
 P. Salvador, J. J. Dannenberg, S. Dapprich, A. D. Daniels, 
 O. Farkas, J. B. Foresman, J. V. Ortiz, J. Cioslowski, 
 and D. J. Fox, Gaussian, Inc., Wallingford CT, 2010.
 
 ******************************************
 Gaussian 09:  EM64L-G09RevC.01 23-Sep-2011
                 3-May-2020 
 ******************************************
 %mem=8GB
 %nproc=8
 Will use up to    8 processors via shared memory.
 ----------------------------------------------------------------------
 #p wb97xd/aug-cc-PVTz iop(3/107=0250000000) iop(3/108=0250000000) int=
 ultrafine counterpoise=2 Scan
 ----------------------------------------------------------------------
 1/38=1,60=1,62=2/1,8;
 2/12=2,17=6,18=5,29=3,40=1/2;
 1/38=1,53=5172,62=2/22;
 3/5=16,6=1,7=10,11=2,16=1,25=1,30=1,74=-58,75=-5,107=250000000,108=250000000/1,2,3;
 4//1;
 5/5=2,38=5/2;
 6/7=2,8=2,9=2,10=2,18=1,28=1/1;
 1/53=4052,62=2,63=1/22;
 3/5=7,6=11,7=10,11=2,16=1,25=1,30=1,74=-58,75=-5,82=7,107=250000000,108=250000000/1,2,3;
 4//1;
 5/5=2,38=5/2;
 6/7=2,8=2,9=2,10=2,18=1,28=1/1;
 1/53=3042,62=2,63=2/22;
 3/5=7,6=11,7=10,11=2,16=1,25=1,30=1,74=-58,75=-5,82=7,107=250000000,108=250000000/1,2,3;
 4//1;
 5/5=2,38=5/2;
 6/7=2,8=2,9=2,10=2,18=1,28=1/1;
 1/53=2032,62=2,63=3/22;
 3/5=7,6=11,7=10,11=2,16=1,25=1,30=1,74=-58,75=-5,82=7,107=250000000,108=250000000/1,2,3;
 4//1;
 5/5=2,38=5/2;
 6/7=2,8=2,9=2,10=2,18=1,28=1/1;
 1/53=1022,62=2,63=4/22;
 3/5=7,6=11,7=10,11=2,16=1,25=1,30=1,74=-58,75=-5,82=7,107=250000000,108=250000000/1,2,3;
 4//1;
 5/5=2,38=5/2;
 6/7=2,8=2,9=2,10=2,18=1,28=1/1;
 1/53=5014,62=2,63=5/22;
 1/60=1,62=2/8(1);
 99/9=1/99;
 2/29=3/2;
 1/53=5173,62=2/22;
 3/5=7,6=11,7=10,11=2,16=1,25=1,30=1,74=-58,75=-5,82=7,107=250000000,108=250000000/1,2,3;
 4/5=5,16=3/1;
 5/5=2,38=5/2;
 1/53=4053,62=2,63=1/22;
 3/5=7,6=11,7=10,11=2,16=1,25=1,30=1,74=-58,75=-5,82=7,107=250000000,108=250000000/1,2,3;
 4/5=5,16=3/1;
 5/5=2,38=5/2;
 1/53=3043,62=2,63=2/22;
 3/5=7,6=11,7=10,11=2,16=1,25=1,30=1,74=-58,75=-5,82=7,107=250000000,108=250000000/1,2,3;
 4/5=5,16=3/1;
 5/5=2,38=5/2;
 1/53=2033,62=2,63=3/22;
 3/5=7,6=11,7=10,11=2,16=1,25=1,30=1,74=-58,75=-5,82=7,107=250000000,108=250000000/1,2,3;
 4/5=5,16=3/1;
 5/5=2,38=5/2;
 1/53=1024,62=2,63=4/22;
 3/5=7,6=11,7=10,11=2,16=1,25=1,30=1,74=-58,75=-5,82=7,107=250000000,108=250000000/1,2,3;
 4/5=5,16=3/1;
 5/5=2,38=5/2;
 1/53=5014,62=2,63=5/22;
 1/60=1,62=2/8(-22);
 99/9=1/99;
 Leave Link    1 at Sun May  3 17:24:19 2020, MaxMem= 1073741824 cpu:       0.1
 (Enter /home/matheus/.gaussian/g09/l101.exe)
 ---
 TCC
 ---
 Charge =  0 Multiplicity = 1 in supermolecule
 Charge =  0 Multiplicity = 1 in fragment  1.
 Charge =  0 Multiplicity = 1 in fragment  2.
 Symbolic Z-Matrix:
 O(Fragment=1)         0.        0.        0.725 
 O(Fragment=1)         0.        0.       -0.725 
 H(Fragment=1)        -0.15953  -0.90476   1.02351 
 H(Fragment=1)         0.        0.91872  -1.02351 
 Kr(Fragment=2)        0.       R1        0. 
       Variables:
  R1                    3.     Scan 20    0.1    
 
 NAtoms=      5 NQM=        0 NQMF=       0 NMMI=      5 NMMIF=      0
                NMic=       0 NMicF=      0.
                    Isotopes and Nuclear Properties:
 (Nuclear quadrupole moments (NQMom) in fm**2, nuclear magnetic moments (NMagM)
  in nuclear magnetons)

  Atom         1           2           3           4           5
 IAtWgt=          16          16           1           1          84
 AtmWgt=  15.9949146  15.9949146   1.0078250   1.0078250  83.9115064
 NucSpn=           0           0           1           1           0
 AtZEff=   0.0000000   0.0000000   0.0000000   0.0000000   0.0000000
 NQMom=    0.0000000   0.0000000   0.0000000   0.0000000   0.0000000
 NMagM=    0.0000000   0.0000000   2.7928460   2.7928460   0.0000000
 Leave Link  101 at Sun May  3 17:24:19 2020, MaxMem= 1073741824 cpu:       0.3
 (Enter /home/matheus/.gaussian/g09/l108.exe)
 Scan the potential surface.
 Variable   Value     No. Steps Step-Size
 -------- ----------- --------- ---------
     1       3.000000      20      0.1000
 A total of     21 points will be computed.
 Leave Link  108 at Sun May  3 17:24:19 2020, MaxMem= 1073741824 cpu:       0.0
 (Enter /home/matheus/.gaussian/g09/l202.exe)
 ---------------------------------------------------------------------------------------------------
                            Z-MATRIX (ANGSTROMS AND DEGREES)
   CD    Cent   Atom    N1       Length/X        N2       Alpha/Y        N3        Beta/Z          J
 ---------------------------------------------------------------------------------------------------
      1      1  O        0   0.000000          0.000000          0.725000
      2      2  O        0   0.000000          0.000000         -0.725000
      3      3  H        0  -0.159534         -0.904763          1.023510
      4      4  H        0   0.000000          0.918721         -1.023510
      5      5  Kr       0   0.000000          3.000000          0.000000
 ---------------------------------------------------------------------------------------------------
                         Z-Matrix orientation:                         
 ---------------------------------------------------------------------
 Center     Atomic      Atomic             Coordinates (Angstroms)
 Number     Number       Type             X           Y           Z
 ---------------------------------------------------------------------
      1          8           0        0.000000    0.000000    0.725000
      2          8           0        0.000000    0.000000   -0.725000
      3          1           0       -0.159534   -0.904763    1.023510
      4          1           0        0.000000    0.918721   -1.023510
      5         36           0        0.000000    3.000000    0.000000
 ---------------------------------------------------------------------
                    Distance matrix (angstroms):
                    1          2          3          4          5
     1  O    0.000000
     2  O    1.450000   0.000000
     3  H    0.966000   1.975180   0.000000
     4  H    1.975180   0.966000   2.746059   0.000000
     5  Kr   3.086361   3.086361   4.039827   2.319331   0.000000
 Stoichiometry    H2KrO2
 Framework group  C1[X(H2KrO2)]
 Deg. of freedom     9
 Full point group                 C1      NOp   1
 Largest Abelian subgroup         C1      NOp   1
 Largest concise Abelian subgroup C1      NOp   1
                         Standard orientation:                         
 ---------------------------------------------------------------------
 Center     Atomic      Atomic             Coordinates (Angstroms)
 Number     Number       Type             X           Y           Z
 ---------------------------------------------------------------------
      1          8           0       -2.013524   -0.686962   -0.021683
      2          8           0       -1.986222    0.762620   -0.000129
      3          1           0       -2.924418   -0.970655    0.129799
      4          1           0       -1.062052    1.043690    0.007960
      5         36           0        0.999568   -0.018842    0.001020
 ---------------------------------------------------------------------
 Rotational constants (GHZ):     26.6931850      2.3029701      2.1204694
 Leave Link  202 at Sun May  3 17:24:19 2020, MaxMem= 1073741824 cpu:       0.0
 (Enter /home/matheus/.gaussian/g09/l122.exe)
 Leave Link  122 at Sun May  3 17:24:19 2020, MaxMem= 1073741824 cpu:       0.0
 (Enter /home/matheus/.gaussian/g09/l301.exe)
 Standard basis: Aug-CC-pVTZ (5D, 7F)
 Ernie: Thresh=  0.10000D-02 Tol=  0.10000D-05 Strict=F.
 Ernie:  38 primitive shells out of 205 were deleted.
 There are   197 symmetry adapted basis functions of A   symmetry.
 Integral buffers will be    131072 words long.
 Raffenetti 2 integral format.
 Two-electron integral symmetry is turned on.
   197 basis functions,   415 primitive gaussians,   229 cartesian basis functions
    27 alpha electrons       27 beta electrons
       nuclear repulsion energy       148.2893698349 Hartrees.
 IExCor= 4639 DFT=T Ex+Corr=wB97XD ExCW=0 ScaHFX=  1.000000
 ScaDFX=  1.000000  1.000000  1.000000  1.000000 ScalE2=  1.000000  1.000000
 IRadAn=      5 IRanWt=     -1 IRanGd=            0 ICorTp=0
  HFx wShort=  0.000000 wLong=  0.250000 cFull=  0.222036 cShort=  0.000000 cLong=  0.777964
  DFx wShort=  0.000000 wLong=  0.250000 cFull=  0.000000 cShort=  0.000000 cLong=  1.000000
 NAtoms=    5 NActive=    5 NUniq=    5 SFac= 1.00D+00 NAtFMM=   60 NAOKFM=F Big=F
 R6Disp: Dispersion energy =        -0.0007663178 Hartrees.
 Nuclear repulsion after empirical dispersion term =      148.2886035171 Hartrees.
 Leave Link  301 at Sun May  3 17:24:19 2020, MaxMem= 1073741824 cpu:       0.2
 (Enter /home/matheus/.gaussian/g09/l302.exe)
 NPDir=0 NMtPBC=     1 NCelOv=     1 NCel=       1 NClECP=     1 NCelD=      1
         NCelK=      1 NCelE2=     1 NClLst=     1 CellRange=     0.0.
 One-electron integrals computed using PRISM.
 NBasis=   197 RedAO= T  NBF=   197
 NBsUse=   197 1.00D-06 NBFU=   197
 Precomputing XC quadrature grid using
 IXCGrd= 2 IRadAn=           5 IRanWt=          -1 IRanGd=           0 AccXCQ= 0.00D+00.
 NRdTot=     427 NPtTot=      123814 NUsed=      126881 NTot=      126913
 NSgBfM=   229   229   229   229   229 NAtAll=     5     5.
 Leave Link  302 at Sun May  3 17:24:19 2020, MaxMem= 1073741824 cpu:       1.0
 (Enter /home/matheus/.gaussian/g09/l303.exe)
 DipDrv:  MaxL=1.
 Leave Link  303 at Sun May  3 17:24:19 2020, MaxMem= 1073741824 cpu:       0.2
 (Enter /home/matheus/.gaussian/g09/l401.exe)
 Harris functional with IExCor= 4639 diagonalized for initial guess.
 ExpMin= 2.53D-02 ExpMax= 1.17D+07 ExpMxC= 1.33D+04 IAcc=3 IRadAn=         5 AccDes= 0.00D+00
 HarFok:  IExCor= 4639 AccDes= 0.00D+00 IRadAn=         5 IDoV= 1
 ScaDFX=  1.000000  1.000000  1.000000  1.000000
 FoFCou: FMM=F IPFlag=           0 FMFlag=      100000 FMFlg1=           0
         NFxFlg=           0 DoJE=T BraDBF=F KetDBF=T FulRan=T
         Omega=  0.000000  0.000000  1.000000  0.000000  0.000000 ICntrl=     500 IOpCl=  0
         NMat0=    1 NMatS0=    1 NMatT0=    0 NMatD0=    1 NMtDS0=    0 NMtDT0=    0
         I1Cent=           4 NGrid=           0.
 Petite list used in FoFCou.
 Harris En= -2875.39329031365    
 Initial guess orbital symmetries:
       Occupied  (A) (A) (A) (A) (A) (A) (A) (A) (A) (A) (A) (A)
                 (A) (A) (A) (A) (A) (A) (A) (A) (A) (A) (A) (A)
                 (A) (A) (A)
       Virtual   (A) (A) (A) (A) (A) (A) (A) (A) (A) (A) (A) (A)
                 (A) (A) (A) (A) (A) (A) (A) (A) (A) (A) (A) (A)
                 (A) (A) (A) (A) (A) (A) (A) (A) (A) (A) (A) (A)
                 (A) (A) (A) (A) (A) (A) (A) (A) (A) (A) (A) (A)
                 (A) (A) (A) (A) (A) (A) (A) (A) (A) (A) (A) (A)
                 (A) (A) (A) (A) (A) (A) (A) (A) (A) (A) (A) (A)
                 (A) (A) (A) (A) (A) (A) (A) (A) (A) (A) (A) (A)
                 (A) (A) (A) (A) (A) (A) (A) (A) (A) (A) (A) (A)
                 (A) (A) (A) (A) (A) (A) (A) (A) (A) (A) (A) (A)
                 (A) (A) (A) (A) (A) (A) (A) (A) (A) (A) (A) (A)
                 (A) (A) (A) (A) (A) (A) (A) (A) (A) (A) (A) (A)
                 (A) (A) (A) (A) (A) (A) (A) (A) (A) (A) (A) (A)
                 (A) (A) (A) (A) (A) (A) (A) (A) (A) (A) (A) (A)
                 (A) (A) (A) (A) (A) (A) (A) (A) (A) (A) (A) (A)
                 (A) (A)
 The electronic state of the initial guess is 1-A.
 Leave Link  401 at Sun May  3 17:24:20 2020, MaxMem= 1073741824 cpu:       4.6
 (Enter /home/matheus/.gaussian/g09/l502.exe)
 Closed shell SCF:
 Requested convergence on RMS density matrix=1.00D-08 within 128 cycles.
 Requested convergence on MAX density matrix=1.00D-06.
 Requested convergence on             energy=1.00D-06.
 No special actions if energy rises.
 Using DIIS extrapolation, IDIIS=  1040.
 Integral symmetry usage will be decided dynamically.
       126823 words used for storage of precomputed grid.
 IEnd=      305770 IEndB=      305770 NGot=  1073741824 MDV=  1073505365
 LenX=  1073505365 LenY=  1073452483
 Fock matrices will be formed incrementally for  20 cycles.

 Cycle   1  Pass 1  IDiag  1:
 FoFJK:  IHMeth= 1 ICntrl=     0 DoSepK=T KAlg= 1 I1Cent= 0 FoldK=F
 FoFCou: FMM=F IPFlag=           0 FMFlag=      100000 FMFlg1=           0
         NFxFlg=           0 DoJE=T BraDBF=F KetDBF=F FulRan=T
         Omega=  0.000000  0.000000  1.000000  0.000000  0.000000 ICntrl=     500 IOpCl=  0
         NMat0=    1 NMatS0=    1 NMatT0=    0 NMatD0=    1 NMtDS0=    0 NMtDT0=    0
         I1Cent=           0 NGrid=           0.
 Symmetry not used in FoFCou.
 E= -2904.90114332864    
 DIIS: error= 7.74D-02 at cycle   1 NSaved=   1.
 NSaved= 1 IEnMin= 1 EnMin= -2904.90114332864     IErMin= 1 ErrMin= 7.74D-02
 ErrMax= 7.74D-02 EMaxC= 1.00D-01 BMatC= 2.21D+00 BMatP= 2.21D+00
 IDIUse=3 WtCom= 2.26D-01 WtEn= 7.74D-01
 Coeff-Com:  0.100D+01
 Coeff-En:   0.100D+01
 Coeff:      0.100D+01
 Gap=     0.528 Goal=   None    Shift=    0.000
 GapD=    0.528 DampG=2.000 DampE=0.500 DampFc=1.0000 IDamp=-1.
 RMSDP=6.16D-03 MaxDP=3.67D-01              OVMax= 1.73D-01

 Cycle   2  Pass 1  IDiag  1:
 RMSU=  4.33D-03    CP:  1.03D+00
 FoFJK:  IHMeth= 1 ICntrl=     0 DoSepK=T KAlg= 1 I1Cent= 0 FoldK=F
 E= -2905.22022441660     Delta-E=       -0.319081087962 Rises=F Damp=F
 DIIS: error= 3.72D-02 at cycle   2 NSaved=   2.
 NSaved= 2 IEnMin= 2 EnMin= -2905.22022441660     IErMin= 2 ErrMin= 3.72D-02
 ErrMax= 3.72D-02 EMaxC= 1.00D-01 BMatC= 5.65D-01 BMatP= 2.21D+00
 IDIUse=3 WtCom= 6.28D-01 WtEn= 3.72D-01
 Coeff-Com:  0.328D+00 0.672D+00
 Coeff-En:   0.199D+00 0.801D+00
 Coeff:      0.280D+00 0.720D+00
 Gap=     0.468 Goal=   None    Shift=    0.000
 RMSDP=2.71D-03 MaxDP=1.59D-01 DE=-3.19D-01 OVMax= 7.43D-02

 Cycle   3  Pass 1  IDiag  1:
 RMSU=  5.82D-04    CP:  1.02D+00  5.80D-01
 FoFJK:  IHMeth= 1 ICntrl=     0 DoSepK=T KAlg= 1 I1Cent= 0 FoldK=F
 E= -2905.41358674570     Delta-E=       -0.193362329099 Rises=F Damp=F
 DIIS: error= 6.76D-03 at cycle   3 NSaved=   3.
 NSaved= 3 IEnMin= 3 EnMin= -2905.41358674570     IErMin= 3 ErrMin= 6.76D-03
 ErrMax= 6.76D-03 EMaxC= 1.00D-01 BMatC= 2.05D-02 BMatP= 5.65D-01
 IDIUse=3 WtCom= 9.32D-01 WtEn= 6.76D-02
 Coeff-Com:  0.322D-01 0.194D+00 0.774D+00
 Coeff-En:   0.000D+00 0.000D+00 0.100D+01
 Coeff:      0.300D-01 0.181D+00 0.789D+00
 Gap=     0.421 Goal=   None    Shift=    0.000
 RMSDP=4.95D-04 MaxDP=1.83D-02 DE=-1.93D-01 OVMax= 2.67D-02

 Cycle   4  Pass 1  IDiag  1:
 RMSU=  2.30D-04    CP:  1.02D+00  6.40D-01  9.01D-01
 FoFJK:  IHMeth= 1 ICntrl=     0 DoSepK=T KAlg= 1 I1Cent= 0 FoldK=F
 E= -2905.42278580804     Delta-E=       -0.009199062340 Rises=F Damp=F
 DIIS: error= 2.72D-03 at cycle   4 NSaved=   4.
 NSaved= 4 IEnMin= 4 EnMin= -2905.42278580804     IErMin= 4 ErrMin= 2.72D-03
 ErrMax= 2.72D-03 EMaxC= 1.00D-01 BMatC= 1.74D-03 BMatP= 2.05D-02
 IDIUse=3 WtCom= 9.73D-01 WtEn= 2.72D-02
 Coeff-Com: -0.259D-02 0.517D-01 0.368D+00 0.583D+00
 Coeff-En:   0.000D+00 0.000D+00 0.000D+00 0.100D+01
 Coeff:     -0.252D-02 0.503D-01 0.358D+00 0.594D+00
 Gap=     0.405 Goal=   None    Shift=    0.000
 RMSDP=1.13D-04 MaxDP=6.19D-03 DE=-9.20D-03 OVMax= 6.95D-03

 Cycle   5  Pass 1  IDiag  1:
 RMSU=  4.12D-05    CP:  1.02D+00  6.39D-01  9.47D-01  7.30D-01
 FoFJK:  IHMeth= 1 ICntrl=     0 DoSepK=T KAlg= 1 I1Cent= 0 FoldK=F
 E= -2905.42382513331     Delta-E=       -0.001039325269 Rises=F Damp=F
 DIIS: error= 2.94D-04 at cycle   5 NSaved=   5.
 NSaved= 5 IEnMin= 5 EnMin= -2905.42382513331     IErMin= 5 ErrMin= 2.94D-04
 ErrMax= 2.94D-04 EMaxC= 1.00D-01 BMatC= 2.73D-05 BMatP= 1.74D-03
 IDIUse=3 WtCom= 9.97D-01 WtEn= 2.94D-03
 Coeff-Com: -0.156D-02 0.120D-01 0.104D+00 0.191D+00 0.694D+00
 Coeff-En:   0.000D+00 0.000D+00 0.000D+00 0.000D+00 0.100D+01
 Coeff:     -0.156D-02 0.120D-01 0.103D+00 0.191D+00 0.695D+00
 Gap=     0.404 Goal=   None    Shift=    0.000
 RMSDP=2.40D-05 MaxDP=9.53D-04 DE=-1.04D-03 OVMax= 1.71D-03

 Cycle   6  Pass 1  IDiag  1:
 RMSU=  1.51D-05    CP:  1.02D+00  6.39D-01  9.54D-01  7.54D-01  1.07D+00
 FoFJK:  IHMeth= 1 ICntrl=     0 DoSepK=T KAlg= 1 I1Cent= 0 FoldK=F
 E= -2905.42383950763     Delta-E=       -0.000014374317 Rises=F Damp=F
 DIIS: error= 1.88D-04 at cycle   6 NSaved=   6.
 NSaved= 6 IEnMin= 6 EnMin= -2905.42383950763     IErMin= 6 ErrMin= 1.88D-04
 ErrMax= 1.88D-04 EMaxC= 1.00D-01 BMatC= 1.03D-05 BMatP= 2.73D-05
 IDIUse=3 WtCom= 9.98D-01 WtEn= 1.88D-03
 Coeff-Com: -0.227D-03-0.672D-02-0.355D-01-0.468D-01 0.387D+00 0.703D+00
 Coeff-En:   0.000D+00 0.000D+00 0.000D+00 0.000D+00 0.178D+00 0.822D+00
 Coeff:     -0.227D-03-0.671D-02-0.354D-01-0.468D-01 0.386D+00 0.703D+00
 Gap=     0.404 Goal=   None    Shift=    0.000
 RMSDP=1.36D-05 MaxDP=4.51D-04 DE=-1.44D-05 OVMax= 7.92D-04

 Cycle   7  Pass 1  IDiag  1:
 RMSU=  3.71D-06    CP:  1.02D+00  6.39D-01  9.62D-01  7.67D-01  1.23D+00
                    CP:  8.78D-01
 FoFJK:  IHMeth= 1 ICntrl=     0 DoSepK=T KAlg= 1 I1Cent= 0 FoldK=F
 E= -2905.42384710049     Delta-E=       -0.000007592864 Rises=F Damp=F
 DIIS: error= 1.79D-05 at cycle   7 NSaved=   7.
 NSaved= 7 IEnMin= 7 EnMin= -2905.42384710049     IErMin= 7 ErrMin= 1.79D-05
 ErrMax= 1.79D-05 EMaxC= 1.00D-01 BMatC= 5.00D-08 BMatP= 1.03D-05
 IDIUse=1 WtCom= 1.00D+00 WtEn= 0.00D+00
 Coeff-Com:  0.402D-04-0.674D-03-0.491D-02-0.732D-02-0.232D-01 0.144D-01
 Coeff-Com:  0.102D+01
 Coeff:      0.402D-04-0.674D-03-0.491D-02-0.732D-02-0.232D-01 0.144D-01
 Coeff:      0.102D+01
 Gap=     0.404 Goal=   None    Shift=    0.000
 RMSDP=2.88D-06 MaxDP=1.20D-04 DE=-7.59D-06 OVMax= 1.99D-04

 Cycle   8  Pass 1  IDiag  1:
 RMSU=  7.96D-07    CP:  1.02D+00  6.39D-01  9.63D-01  7.71D-01  1.26D+00
                    CP:  9.34D-01  1.21D+00
 FoFJK:  IHMeth= 1 ICntrl=     0 DoSepK=T KAlg= 1 I1Cent= 0 FoldK=F
 E= -2905.42384722059     Delta-E=       -0.000000120103 Rises=F Damp=F
 DIIS: error= 2.92D-06 at cycle   8 NSaved=   8.
 NSaved= 8 IEnMin= 8 EnMin= -2905.42384722059     IErMin= 8 ErrMin= 2.92D-06
 ErrMax= 2.92D-06 EMaxC= 1.00D-01 BMatC= 2.61D-09 BMatP= 5.00D-08
 IDIUse=1 WtCom= 1.00D+00 WtEn= 0.00D+00
 Coeff-Com:  0.900D-05 0.186D-03 0.942D-03 0.842D-03-0.160D-01-0.251D-01
 Coeff-Com:  0.395D-01 0.100D+01
 Coeff:      0.900D-05 0.186D-03 0.942D-03 0.842D-03-0.160D-01-0.251D-01
 Coeff:      0.395D-01 0.100D+01
 Gap=     0.404 Goal=   None    Shift=    0.000
 RMSDP=5.81D-07 MaxDP=2.28D-05 DE=-1.20D-07 OVMax= 4.36D-05

 Cycle   9  Pass 1  IDiag  1:
 RMSU=  1.67D-07    CP:  1.02D+00  6.39D-01  9.63D-01  7.71D-01  1.26D+00
                    CP:  9.45D-01  1.27D+00  1.21D+00
 FoFJK:  IHMeth= 1 ICntrl=     0 DoSepK=T KAlg= 1 I1Cent= 0 FoldK=F
 E= -2905.42384722686     Delta-E=       -0.000000006266 Rises=F Damp=F
 DIIS: error= 7.99D-07 at cycle   9 NSaved=   9.
 NSaved= 9 IEnMin= 9 EnMin= -2905.42384722686     IErMin= 9 ErrMin= 7.99D-07
 ErrMax= 7.99D-07 EMaxC= 1.00D-01 BMatC= 2.22D-10 BMatP= 2.61D-09
 IDIUse=1 WtCom= 1.00D+00 WtEn= 0.00D+00
 Coeff-Com: -0.166D-05 0.633D-04 0.415D-03 0.438D-03 0.732D-04-0.255D-02
 Coeff-Com: -0.631D-01 0.866D-01 0.978D+00
 Coeff:     -0.166D-05 0.633D-04 0.415D-03 0.438D-03 0.732D-04-0.255D-02
 Coeff:     -0.631D-01 0.866D-01 0.978D+00
 Gap=     0.404 Goal=   None    Shift=    0.000
 RMSDP=1.29D-07 MaxDP=3.85D-06 DE=-6.27D-09 OVMax= 1.03D-05

 Cycle  10  Pass 1  IDiag  1:
 RMSU=  4.84D-08    CP:  1.02D+00  6.39D-01  9.63D-01  7.71D-01  1.26D+00
                    CP:  9.46D-01  1.28D+00  1.28D+00  1.18D+00
 FoFJK:  IHMeth= 1 ICntrl=     0 DoSepK=T KAlg= 1 I1Cent= 0 FoldK=F
 E= -2905.42384722734     Delta-E=       -0.000000000475 Rises=F Damp=F
 DIIS: error= 1.82D-07 at cycle  10 NSaved=  10.
 NSaved=10 IEnMin=10 EnMin= -2905.42384722734     IErMin=10 ErrMin= 1.82D-07
 ErrMax= 1.82D-07 EMaxC= 1.00D-01 BMatC= 1.13D-11 BMatP= 2.22D-10
 IDIUse=1 WtCom= 1.00D+00 WtEn= 0.00D+00
 Coeff-Com: -0.250D-06-0.508D-05-0.275D-04-0.642D-05 0.101D-02 0.143D-02
 Coeff-Com: -0.432D-02-0.635D-01 0.514D-01 0.101D+01
 Coeff:     -0.250D-06-0.508D-05-0.275D-04-0.642D-05 0.101D-02 0.143D-02
 Coeff:     -0.432D-02-0.635D-01 0.514D-01 0.101D+01
 Gap=     0.404 Goal=   None    Shift=    0.000
 RMSDP=3.24D-08 MaxDP=7.13D-07 DE=-4.75D-10 OVMax= 2.79D-06

 Cycle  11  Pass 1  IDiag  1:
 RMSU=  1.16D-08    CP:  1.02D+00  6.39D-01  9.63D-01  7.71D-01  1.26D+00
                    CP:  9.46D-01  1.28D+00  1.28D+00  1.27D+00  1.21D+00
 FoFJK:  IHMeth= 1 ICntrl=     0 DoSepK=T KAlg= 1 I1Cent= 0 FoldK=F
 E= -2905.42384722736     Delta-E=       -0.000000000020 Rises=F Damp=F
 DIIS: error= 6.23D-08 at cycle  11 NSaved=  11.
 NSaved=11 IEnMin=11 EnMin= -2905.42384722736     IErMin=11 ErrMin= 6.23D-08
 ErrMax= 6.23D-08 EMaxC= 1.00D-01 BMatC= 8.78D-13 BMatP= 1.13D-11
 IDIUse=1 WtCom= 1.00D+00 WtEn= 0.00D+00
 Coeff-Com:  0.171D-06-0.237D-05-0.177D-04-0.704D-05-0.764D-04-0.128D-04
 Coeff-Com:  0.334D-02-0.195D-02-0.439D-01-0.483D-01 0.109D+01
 Coeff:      0.171D-06-0.237D-05-0.177D-04-0.704D-05-0.764D-04-0.128D-04
 Coeff:      0.334D-02-0.195D-02-0.439D-01-0.483D-01 0.109D+01
 Gap=     0.404 Goal=   None    Shift=    0.000
 RMSDP=9.83D-09 MaxDP=1.77D-07 DE=-2.05D-11 OVMax= 1.21D-06

 SCF Done:  E(RwB97XD) =  -2905.42384723     A.U. after   11 cycles
             Convg  =    0.9827D-08             -V/T =  2.0016
 KE= 2.900926710754D+03 PE=-7.234944484721D+03 EE= 1.280305323223D+03
 Leave Link  502 at Sun May  3 17:24:57 2020, MaxMem= 1073741824 cpu:     292.9
 (Enter /home/matheus/.gaussian/g09/l601.exe)
 Copying SCF densities to generalized density rwf, IOpCl= 0 IROHF=0.

 **********************************************************************

            Population analysis using the SCF density.

 **********************************************************************

 Orbital symmetries:
       Occupied  (A) (A) (A) (A) (A) (A) (A) (A) (A) (A) (A) (A)
                 (A) (A) (A) (A) (A) (A) (A) (A) (A) (A) (A) (A)
                 (A) (A) (A)
       Virtual   (A) (A) (A) (A) (A) (A) (A) (A) (A) (A) (A) (A)
                 (A) (A) (A) (A) (A) (A) (A) (A) (A) (A) (A) (A)
                 (A) (A) (A) (A) (A) (A) (A) (A) (A) (A) (A) (A)
                 (A) (A) (A) (A) (A) (A) (A) (A) (A) (A) (A) (A)
                 (A) (A) (A) (A) (A) (A) (A) (A) (A) (A) (A) (A)
                 (A) (A) (A) (A) (A) (A) (A) (A) (A) (A) (A) (A)
                 (A) (A) (A) (A) (A) (A) (A) (A) (A) (A) (A) (A)
                 (A) (A) (A) (A) (A) (A) (A) (A) (A) (A) (A) (A)
                 (A) (A) (A) (A) (A) (A) (A) (A) (A) (A) (A) (A)
                 (A) (A) (A) (A) (A) (A) (A) (A) (A) (A) (A) (A)
                 (A) (A) (A) (A) (A) (A) (A) (A) (A) (A) (A) (A)
                 (A) (A) (A) (A) (A) (A) (A) (A) (A) (A) (A) (A)
                 (A) (A) (A) (A) (A) (A) (A) (A) (A) (A) (A) (A)
                 (A) (A) (A) (A) (A) (A) (A) (A) (A) (A) (A) (A)
                 (A) (A)
 The electronic state is 1-A.
 Alpha  occ. eigenvalues -- -513.08937 -67.35763 -60.90644 -60.90630 -60.90623
 Alpha  occ. eigenvalues --  -19.33685 -19.33276  -9.81090  -7.50427  -7.50379
 Alpha  occ. eigenvalues --   -7.50359  -3.37107  -3.37097  -3.37082  -3.37042
 Alpha  occ. eigenvalues --   -3.37041  -1.24247  -1.03272  -1.01746  -0.64872
 Alpha  occ. eigenvalues --   -0.61696  -0.51907  -0.49778  -0.49006  -0.48580
 Alpha  occ. eigenvalues --   -0.45474  -0.36761
 Alpha virt. eigenvalues --    0.03675   0.04341   0.08124   0.10139   0.10805
 Alpha virt. eigenvalues --    0.11683   0.13591   0.14450   0.17139   0.17458
 Alpha virt. eigenvalues --    0.18672   0.19516   0.20726   0.23284   0.23573
 Alpha virt. eigenvalues --    0.24606   0.26723   0.28399   0.30271   0.33705
 Alpha virt. eigenvalues --    0.34221   0.34493   0.36687   0.38791   0.39832
 Alpha virt. eigenvalues --    0.40410   0.42802   0.48221   0.51618   0.54269
 Alpha virt. eigenvalues --    0.56578   0.59056   0.63852   0.64830   0.68187
 Alpha virt. eigenvalues --    0.70551   0.71061   0.72532   0.74022   0.74844
 Alpha virt. eigenvalues --    0.75862   0.76154   0.77848   0.79054   0.80108
 Alpha virt. eigenvalues --    0.82198   0.84764   0.86752   0.88346   0.90040
 Alpha virt. eigenvalues --    0.91157   0.93237   0.95320   0.97746   0.98667
 Alpha virt. eigenvalues --    1.02520   1.03234   1.04080   1.05292   1.07597
 Alpha virt. eigenvalues --    1.11632   1.12375   1.15073   1.17872   1.18623
 Alpha virt. eigenvalues --    1.26303   1.30513   1.34610   1.39372   1.40129
 Alpha virt. eigenvalues --    1.48254   1.51026   1.52393   1.55174   1.57437
 Alpha virt. eigenvalues --    1.61377   1.77084   1.78714   1.84792   1.93194
 Alpha virt. eigenvalues --    1.97933   1.98371   2.03475   2.12233   2.14044
 Alpha virt. eigenvalues --    2.14868   2.16231   2.17188   2.19192   2.25066
 Alpha virt. eigenvalues --    2.26870   2.28113   2.29931   2.32336   2.33867
 Alpha virt. eigenvalues --    2.37081   2.38119   2.43456   2.45773   2.47438
 Alpha virt. eigenvalues --    2.47662   2.49069   2.51364   2.54695   2.56663
 Alpha virt. eigenvalues --    2.58356   2.60988   2.65033   2.67737   2.69084
 Alpha virt. eigenvalues --    2.70259   2.73376   2.74771   2.80168   2.88385
 Alpha virt. eigenvalues --    2.95929   3.06735   3.08373   3.14757   3.51398
 Alpha virt. eigenvalues --    3.74221   3.83131   3.90286   4.04831   4.05509
 Alpha virt. eigenvalues --    4.11011   4.14621   4.18979   4.22756   4.26021
 Alpha virt. eigenvalues --    4.37941   4.42794   4.52673   4.54212   4.73239
 Alpha virt. eigenvalues --    4.89282   5.01534   5.02809   5.07319   5.07611
 Alpha virt. eigenvalues --    5.36665   5.44102   5.82911   5.97484   6.08496
 Alpha virt. eigenvalues --    6.13482   6.29759   6.35863   6.43456   6.46995
 Alpha virt. eigenvalues --    6.70410   6.71207   6.73883   6.80614   6.86065
 Alpha virt. eigenvalues --    6.88958   6.92239   6.94022   6.95063   6.97826
 Alpha virt. eigenvalues --    7.01541   7.22071   7.24886   7.38737   7.62092
 Alpha virt. eigenvalues --    7.83955   8.11547   8.14612  14.15574  14.59685
          Condensed to atoms (all electrons):
              1          2          3          4          5
     1  O    8.157492  -0.152507   0.198377   0.004470  -0.028062
     2  O   -0.152507   8.221765   0.005958   0.219286  -0.017726
     3  H    0.198377   0.005958   0.593479   0.003077   0.002744
     4  H    0.004470   0.219286   0.003077   0.526044  -0.003659
     5  Kr  -0.028062  -0.017726   0.002744  -0.003659  36.037300
 Mulliken atomic charges:
              1
     1  O   -0.179771
     2  O   -0.276777
     3  H    0.196365
     4  H    0.250782
     5  Kr   0.009402
 Sum of Mulliken atomic charges =   0.00000
 Mulliken charges with hydrogens summed into heavy atoms:
              1
     1  O    0.016593
     2  O   -0.025996
     5  Kr   0.009402
 Sum of Mulliken charges with hydrogens summed into heavy atoms =   0.00000
          Condensed to fragments (all electrons):
     1      -0.009402
     2       0.009402
 Electronic spatial extent (au):  <R**2>=            492.3921
 Charge=              0.0000 electrons
 Dipole moment (field-independent basis, Debye):
    X=              0.1979    Y=             -0.2885    Z=              0.2721  Tot=              0.4432
 Quadrupole moment (field-independent basis, Debye-Ang):
   XX=            -26.2454   YY=            -28.3527   ZZ=            -30.6437
   XY=              3.8542   XZ=             -0.8771   YZ=             -0.2856
 Traceless Quadrupole moment (field-independent basis, Debye-Ang):
   XX=              2.1685   YY=              0.0612   ZZ=             -2.2298
   XY=              3.8542   XZ=             -0.8771   YZ=             -0.2856
 Octapole moment (field-independent basis, Debye-Ang**2):
  XXX=             -0.4478  YYY=             -0.6330  ZZZ=              0.0947  XYY=              4.3038
  XXY=            -16.4081  XXZ=              2.6702  XZZ=              8.6142  YZZ=             -0.3441
  YYZ=              0.3302  XYZ=              0.9020
 Hexadecapole moment (field-independent basis, Debye-Ang**3):
 XXXX=           -340.5361 YYYY=            -64.0051 ZZZZ=            -29.7103 XXXY=             51.8884
 XXXZ=             -8.2049 YYYX=              5.5309 YYYZ=             -0.3471 ZZZX=             -0.3281
 ZZZY=             -0.1487 XXYY=            -75.0841 XXZZ=            -80.0822 YYZZ=            -17.5475
 XXYZ=             -2.7567 YYXZ=             -0.9926 ZZXY=              0.4530
 N-N= 1.482886035171D+02 E-N=-7.234944486108D+03  KE= 2.900926710754D+03
 No NMR shielding tensors so no spin-rotation constants.
 Leave Link  601 at Sun May  3 17:24:57 2020, MaxMem= 1073741824 cpu:       0.8
 (Enter /home/matheus/.gaussian/g09/l122.exe)
 Counterpoise: doing DCBS calculation for fragment   1 NewBq=T
 Leave Link  122 at Sun May  3 17:24:57 2020, MaxMem= 1073741824 cpu:       0.0
 (Enter /home/matheus/.gaussian/g09/l301.exe)
 Basis read from rwf:  (5D, 7F)
 No pseudopotential information found on rwf file.
 There are   197 symmetry adapted basis functions of A   symmetry.
 Integral buffers will be    131072 words long.
 Raffenetti 2 integral format.
 Two-electron integral symmetry is turned on.
   197 basis functions,   415 primitive gaussians,   229 cartesian basis functions
     9 alpha electrons        9 beta electrons
       nuclear repulsion energy        36.6009457491 Hartrees.
 IExCor= 4639 DFT=T Ex+Corr=wB97XD ExCW=0 ScaHFX=  1.000000
 ScaDFX=  1.000000  1.000000  1.000000  1.000000 ScalE2=  1.000000  1.000000
 IRadAn=      5 IRanWt=     -1 IRanGd=            0 ICorTp=0
  HFx wShort=  0.000000 wLong=  0.250000 cFull=  0.222036 cShort=  0.000000 cLong=  0.777964
  DFx wShort=  0.000000 wLong=  0.250000 cFull=  0.000000 cShort=  0.000000 cLong=  1.000000
 NAtoms=    5 NActive=    5 NUniq=    5 SFac= 1.00D+00 NAtFMM=   60 NAOKFM=F Big=F
 R6Disp: Dispersion energy =        -0.0001980872 Hartrees.
 Nuclear repulsion after empirical dispersion term =       36.6007476619 Hartrees.
 No density basis found on file   718.
 Leave Link  301 at Sun May  3 17:24:57 2020, MaxMem= 1073741824 cpu:       0.2
 (Enter /home/matheus/.gaussian/g09/l302.exe)
 NPDir=0 NMtPBC=     1 NCelOv=     1 NCel=       1 NClECP=     1 NCelD=      1
         NCelK=      1 NCelE2=     1 NClLst=     1 CellRange=     0.0.
 One-electron integrals computed using PRISM.
 NBasis=   197 RedAO= T  NBF=   197
 NBsUse=   197 1.00D-06 NBFU=   197
 Precomputing XC quadrature grid using
 IXCGrd= 2 IRadAn=           5 IRanWt=          -1 IRanGd=           0 AccXCQ= 0.00D+00.
 NRdTot=     427 NPtTot=      123814 NUsed=      126881 NTot=      126913
 NSgBfM=   229   229   229   229   229 NAtAll=     5     5.
 Leave Link  302 at Sun May  3 17:24:57 2020, MaxMem= 1073741824 cpu:       1.0
 (Enter /home/matheus/.gaussian/g09/l303.exe)
 DipDrv:  MaxL=1.
 Leave Link  303 at Sun May  3 17:24:57 2020, MaxMem= 1073741824 cpu:       0.3
 (Enter /home/matheus/.gaussian/g09/l401.exe)
 Harris functional with IExCor= 4639 diagonalized for initial guess.
 ExpMin= 2.53D-02 ExpMax= 1.17D+07 ExpMxC= 1.33D+04 IAcc=3 IRadAn=         5 AccDes= 0.00D+00
 HarFok:  IExCor= 4639 AccDes= 0.00D+00 IRadAn=         5 IDoV= 1
 ScaDFX=  1.000000  1.000000  1.000000  1.000000
 FoFCou: FMM=F IPFlag=           0 FMFlag=      100000 FMFlg1=           0
         NFxFlg=           0 DoJE=T BraDBF=F KetDBF=T FulRan=T
         Omega=  0.000000  0.000000  1.000000  0.000000  0.000000 ICntrl=     500 IOpCl=  0
         NMat0=    1 NMatS0=    1 NMatT0=    0 NMatD0=    1 NMtDS0=    0 NMtDT0=    0
         I1Cent=           4 NGrid=           0.
 Petite list used in FoFCou.
 Harris En= -145.942584029664    
 Initial guess orbital symmetries:
       Occupied  (A) (A) (A) (A) (A) (A) (A) (A) (A)
       Virtual   (A) (A) (A) (A) (A) (A) (A) (A) (A) (A) (A) (A)
                 (A) (A) (A) (A) (A) (A) (A) (A) (A) (A) (A) (A)
                 (A) (A) (A) (A) (A) (A) (A) (A) (A) (A) (A) (A)
                 (A) (A) (A) (A) (A) (A) (A) (A) (A) (A) (A) (A)
                 (A) (A) (A) (A) (A) (A) (A) (A) (A) (A) (A) (A)
                 (A) (A) (A) (A) (A) (A) (A) (A) (A) (A) (A) (A)
                 (A) (A) (A) (A) (A) (A) (A) (A) (A) (A) (A) (A)
                 (A) (A) (A) (A) (A) (A) (A) (A) (A) (A) (A) (A)
                 (A) (A) (A) (A) (A) (A) (A) (A) (A) (A) (A) (A)
                 (A) (A) (A) (A) (A) (A) (A) (A) (A) (A) (A) (A)
                 (A) (A) (A) (A) (A) (A) (A) (A) (A) (A) (A) (A)
                 (A) (A) (A) (A) (A) (A) (A) (A) (A) (A) (A) (A)
                 (A) (A) (A) (A) (A) (A) (A) (A) (A) (A) (A) (A)
                 (A) (A) (A) (A) (A) (A) (A) (A) (A) (A) (A) (A)
                 (A) (A) (A) (A) (A) (A) (A) (A) (A) (A) (A) (A)
                 (A) (A) (A) (A) (A) (A) (A) (A)
 The electronic state of the initial guess is 1-A.
 Leave Link  401 at Sun May  3 17:24:57 2020, MaxMem= 1073741824 cpu:       4.2
 (Enter /home/matheus/.gaussian/g09/l502.exe)
 Closed shell SCF:
 Requested convergence on RMS density matrix=1.00D-08 within 128 cycles.
 Requested convergence on MAX density matrix=1.00D-06.
 Requested convergence on             energy=1.00D-06.
 No special actions if energy rises.
 Using DIIS extrapolation, IDIIS=  1040.
 Integral symmetry usage will be decided dynamically.
       126823 words used for storage of precomputed grid.
 IEnd=      305770 IEndB=      305770 NGot=  1073741824 MDV=  1073505365
 LenX=  1073505365 LenY=  1073452483
 Fock matrices will be formed incrementally for  20 cycles.

 Cycle   1  Pass 1  IDiag  1:
 FoFJK:  IHMeth= 1 ICntrl=     0 DoSepK=T KAlg= 1 I1Cent= 0 FoldK=F
 FoFCou: FMM=F IPFlag=           0 FMFlag=      100000 FMFlg1=           0
         NFxFlg=           0 DoJE=T BraDBF=F KetDBF=F FulRan=T
         Omega=  0.000000  0.000000  1.000000  0.000000  0.000000 ICntrl=     500 IOpCl=  0
         NMat0=    1 NMatS0=    1 NMatT0=    0 NMatD0=    1 NMtDS0=    0 NMtDT0=    0
         I1Cent=           0 NGrid=           0.
 Symmetry not used in FoFCou.
 E= -151.459536507763    
 DIIS: error= 3.41D-02 at cycle   1 NSaved=   1.
 NSaved= 1 IEnMin= 1 EnMin= -151.459536507763     IErMin= 1 ErrMin= 3.41D-02
 ErrMax= 3.41D-02 EMaxC= 1.00D-01 BMatC= 3.18D-01 BMatP= 3.18D-01
 IDIUse=3 WtCom= 6.59D-01 WtEn= 3.41D-01
 Coeff-Com:  0.100D+01
 Coeff-En:   0.100D+01
 Coeff:      0.100D+01
 Gap=     0.528 Goal=   None    Shift=    0.000
 GapD=    0.528 DampG=2.000 DampE=0.500 DampFc=1.0000 IDamp=-1.
 RMSDP=2.35D-03 MaxDP=9.14D-02              OVMax= 1.24D-01

 Cycle   2  Pass 1  IDiag  1:
 RMSU=  1.64D-03    CP:  9.59D-01
 FoFJK:  IHMeth= 1 ICntrl=     0 DoSepK=T KAlg= 1 I1Cent= 0 FoldK=F
 E= -151.497829263416     Delta-E=       -0.038292755654 Rises=F Damp=F
 DIIS: error= 1.83D-02 at cycle   2 NSaved=   2.
 NSaved= 2 IEnMin= 2 EnMin= -151.497829263416     IErMin= 2 ErrMin= 1.83D-02
 ErrMax= 1.83D-02 EMaxC= 1.00D-01 BMatC= 1.02D-01 BMatP= 3.18D-01
 IDIUse=3 WtCom= 8.17D-01 WtEn= 1.83D-01
 Coeff-Com:  0.340D+00 0.660D+00
 Coeff-En:   0.348D+00 0.652D+00
 Coeff:      0.342D+00 0.658D+00
 Gap=     0.466 Goal=   None    Shift=    0.000
 RMSDP=9.63D-04 MaxDP=4.60D-02 DE=-3.83D-02 OVMax= 5.95D-02

 Cycle   3  Pass 1  IDiag  1:
 RMSU=  3.78D-04    CP:  9.77D-01  6.63D-01
 FoFJK:  IHMeth= 1 ICntrl=     0 DoSepK=T KAlg= 1 I1Cent= 0 FoldK=F
 E= -151.553482958936     Delta-E=       -0.055653695520 Rises=F Damp=F
 DIIS: error= 4.28D-03 at cycle   3 NSaved=   3.
 NSaved= 3 IEnMin= 3 EnMin= -151.553482958936     IErMin= 3 ErrMin= 4.28D-03
 ErrMax= 4.28D-03 EMaxC= 1.00D-01 BMatC= 5.31D-03 BMatP= 1.02D-01
 IDIUse=3 WtCom= 9.57D-01 WtEn= 4.28D-02
 Coeff-Com:  0.719D-02 0.190D+00 0.802D+00
 Coeff-En:   0.000D+00 0.000D+00 0.100D+01
 Coeff:      0.689D-02 0.182D+00 0.811D+00
 Gap=     0.406 Goal=   None    Shift=    0.000
 RMSDP=2.54D-04 MaxDP=1.00D-02 DE=-5.57D-02 OVMax= 1.61D-02

 Cycle   4  Pass 1  IDiag  1:
 RMSU=  7.27D-05    CP:  9.72D-01  7.57D-01  8.80D-01
 FoFJK:  IHMeth= 1 ICntrl=     0 DoSepK=T KAlg= 1 I1Cent= 0 FoldK=F
 E= -151.556897355775     Delta-E=       -0.003414396839 Rises=F Damp=F
 DIIS: error= 4.06D-04 at cycle   4 NSaved=   4.
 NSaved= 4 IEnMin= 4 EnMin= -151.556897355775     IErMin= 4 ErrMin= 4.06D-04
 ErrMax= 4.06D-04 EMaxC= 1.00D-01 BMatC= 4.11D-05 BMatP= 5.31D-03
 IDIUse=3 WtCom= 9.96D-01 WtEn= 4.06D-03
 Coeff-Com: -0.184D-02-0.168D-01 0.166D-01 0.100D+01
 Coeff-En:   0.000D+00 0.000D+00 0.000D+00 0.100D+01
 Coeff:     -0.183D-02-0.168D-01 0.165D-01 0.100D+01
 Gap=     0.403 Goal=   None    Shift=    0.000
 RMSDP=3.92D-05 MaxDP=1.84D-03 DE=-3.41D-03 OVMax= 1.65D-03

 Cycle   5  Pass 1  IDiag  1:
 RMSU=  1.24D-05    CP:  9.73D-01  7.54D-01  9.31D-01  1.20D+00
 FoFJK:  IHMeth= 1 ICntrl=     0 DoSepK=T KAlg= 1 I1Cent= 0 FoldK=F
 E= -151.556932778748     Delta-E=       -0.000035422973 Rises=F Damp=F
 DIIS: error= 4.51D-05 at cycle   5 NSaved=   5.
 NSaved= 5 IEnMin= 5 EnMin= -151.556932778748     IErMin= 5 ErrMin= 4.51D-05
 ErrMax= 4.51D-05 EMaxC= 1.00D-01 BMatC= 4.32D-07 BMatP= 4.11D-05
 IDIUse=1 WtCom= 1.00D+00 WtEn= 0.00D+00
 Coeff-Com: -0.286D-03-0.802D-02-0.362D-01-0.385D-01 0.108D+01
 Coeff:     -0.286D-03-0.802D-02-0.362D-01-0.385D-01 0.108D+01
 Gap=     0.403 Goal=   None    Shift=    0.000
 RMSDP=1.05D-05 MaxDP=4.70D-04 DE=-3.54D-05 OVMax= 7.33D-04

 Cycle   6  Pass 1  IDiag  1:
 RMSU=  2.43D-06    CP:  9.72D-01  7.56D-01  9.39D-01  1.27D+00  1.23D+00
 FoFJK:  IHMeth= 1 ICntrl=     0 DoSepK=T KAlg= 1 I1Cent= 0 FoldK=F
 E= -151.556934076732     Delta-E=       -0.000001297984 Rises=F Damp=F
 DIIS: error= 1.16D-05 at cycle   6 NSaved=   6.
 NSaved= 6 IEnMin= 6 EnMin= -151.556934076732     IErMin= 6 ErrMin= 1.16D-05
 ErrMax= 1.16D-05 EMaxC= 1.00D-01 BMatC= 3.68D-08 BMatP= 4.32D-07
 IDIUse=1 WtCom= 1.00D+00 WtEn= 0.00D+00
 Coeff-Com: -0.516D-05-0.957D-03-0.645D-02-0.269D-01 0.165D+00 0.869D+00
 Coeff:     -0.516D-05-0.957D-03-0.645D-02-0.269D-01 0.165D+00 0.869D+00
 Gap=     0.403 Goal=   None    Shift=    0.000
 RMSDP=1.48D-06 MaxDP=5.69D-05 DE=-1.30D-06 OVMax= 1.14D-04

 Cycle   7  Pass 1  IDiag  1:
 RMSU=  6.33D-07    CP:  9.72D-01  7.56D-01  9.40D-01  1.28D+00  1.28D+00
                    CP:  1.20D+00
 FoFJK:  IHMeth= 1 ICntrl=     0 DoSepK=T KAlg= 1 I1Cent= 0 FoldK=F
 E= -151.556934117361     Delta-E=       -0.000000040629 Rises=F Damp=F
 DIIS: error= 9.74D-06 at cycle   7 NSaved=   7.
 NSaved= 7 IEnMin= 7 EnMin= -151.556934117361     IErMin= 7 ErrMin= 9.74D-06
 ErrMax= 9.74D-06 EMaxC= 1.00D-01 BMatC= 2.59D-08 BMatP= 3.68D-08
 IDIUse=1 WtCom= 1.00D+00 WtEn= 0.00D+00
 Coeff-Com:  0.365D-04 0.626D-03 0.174D-02-0.906D-02-0.717D-01 0.484D+00
 Coeff-Com:  0.594D+00
 Coeff:      0.365D-04 0.626D-03 0.174D-02-0.906D-02-0.717D-01 0.484D+00
 Coeff:      0.594D+00
 Gap=     0.403 Goal=   None    Shift=    0.000
 RMSDP=5.71D-07 MaxDP=2.66D-05 DE=-4.06D-08 OVMax= 4.49D-05

 Cycle   8  Pass 1  IDiag  1:
 RMSU=  2.01D-07    CP:  9.72D-01  7.56D-01  9.40D-01  1.28D+00  1.29D+00
                    CP:  1.29D+00  7.31D-01
 FoFJK:  IHMeth= 1 ICntrl=     0 DoSepK=T KAlg= 1 I1Cent= 0 FoldK=F
 E= -151.556934137279     Delta-E=       -0.000000019918 Rises=F Damp=F
 DIIS: error= 1.68D-06 at cycle   8 NSaved=   8.
 NSaved= 8 IEnMin= 8 EnMin= -151.556934137279     IErMin= 8 ErrMin= 1.68D-06
 ErrMax= 1.68D-06 EMaxC= 1.00D-01 BMatC= 8.73D-10 BMatP= 2.59D-08
 IDIUse=1 WtCom= 1.00D+00 WtEn= 0.00D+00
 Coeff-Com:  0.392D-05 0.212D-03 0.119D-02 0.200D-02-0.350D-01-0.455D-01
 Coeff-Com:  0.114D+00 0.963D+00
 Coeff:      0.392D-05 0.212D-03 0.119D-02 0.200D-02-0.350D-01-0.455D-01
 Coeff:      0.114D+00 0.963D+00
 Gap=     0.403 Goal=   None    Shift=    0.000
 RMSDP=1.75D-07 MaxDP=6.26D-06 DE=-1.99D-08 OVMax= 1.99D-05

 Cycle   9  Pass 1  IDiag  1:
 RMSU=  5.96D-08    CP:  9.72D-01  7.56D-01  9.40D-01  1.28D+00  1.30D+00
                    CP:  1.31D+00  8.38D-01  1.16D+00
 FoFJK:  IHMeth= 1 ICntrl=     0 DoSepK=T KAlg= 1 I1Cent= 0 FoldK=F
 E= -151.556934138604     Delta-E=       -0.000000001325 Rises=F Damp=F
 DIIS: error= 3.01D-07 at cycle   9 NSaved=   9.
 NSaved= 9 IEnMin= 9 EnMin= -151.556934138604     IErMin= 9 ErrMin= 3.01D-07
 ErrMax= 3.01D-07 EMaxC= 1.00D-01 BMatC= 2.14D-11 BMatP= 8.73D-10
 IDIUse=1 WtCom= 1.00D+00 WtEn= 0.00D+00
 Coeff-Com: -0.508D-06-0.158D-04-0.546D-04 0.267D-03 0.362D-02-0.256D-01
 Coeff-Com: -0.232D-01 0.463D-01 0.999D+00
 Coeff:     -0.508D-06-0.158D-04-0.546D-04 0.267D-03 0.362D-02-0.256D-01
 Coeff:     -0.232D-01 0.463D-01 0.999D+00
 Gap=     0.403 Goal=   None    Shift=    0.000
 RMSDP=4.25D-08 MaxDP=1.01D-06 DE=-1.33D-09 OVMax= 3.98D-06

 Cycle  10  Pass 1  IDiag  1:
 RMSU=  1.21D-08    CP:  9.72D-01  7.56D-01  9.40D-01  1.28D+00  1.30D+00
                    CP:  1.31D+00  8.48D-01  1.23D+00  1.29D+00
 FoFJK:  IHMeth= 1 ICntrl=     0 DoSepK=T KAlg= 1 I1Cent= 0 FoldK=F
 E= -151.556934138655     Delta-E=       -0.000000000051 Rises=F Damp=F
 DIIS: error= 1.06D-07 at cycle  10 NSaved=  10.
 NSaved=10 IEnMin=10 EnMin= -151.556934138655     IErMin=10 ErrMin= 1.06D-07
 ErrMax= 1.06D-07 EMaxC= 1.00D-01 BMatC= 2.25D-12 BMatP= 2.14D-11
 IDIUse=1 WtCom= 1.00D+00 WtEn= 0.00D+00
 Coeff-Com:  0.168D-06-0.633D-05-0.608D-04-0.175D-03 0.177D-02 0.315D-02
 Coeff-Com: -0.452D-02-0.489D-01-0.125D+00 0.117D+01
 Coeff:      0.168D-06-0.633D-05-0.608D-04-0.175D-03 0.177D-02 0.315D-02
 Coeff:     -0.452D-02-0.489D-01-0.125D+00 0.117D+01
 Gap=     0.403 Goal=   None    Shift=    0.000
 RMSDP=1.80D-08 MaxDP=4.28D-07 DE=-5.12D-11 OVMax= 2.16D-06

 Cycle  11  Pass 1  IDiag  1:
 RMSU=  4.67D-09    CP:  9.72D-01  7.56D-01  9.40D-01  1.28D+00  1.30D+00
                    CP:  1.31D+00  8.51D-01  1.26D+00  1.40D+00  1.50D+00
 FoFJK:  IHMeth= 1 ICntrl=     0 DoSepK=T KAlg= 1 I1Cent= 0 FoldK=F
 E= -151.556934138662     Delta-E=       -0.000000000006 Rises=F Damp=F
 DIIS: error= 4.11D-08 at cycle  11 NSaved=  11.
 NSaved=11 IEnMin=11 EnMin= -151.556934138662     IErMin=11 ErrMin= 4.11D-08
 ErrMax= 4.11D-08 EMaxC= 1.00D-01 BMatC= 1.73D-13 BMatP= 2.25D-12
 IDIUse=1 WtCom= 1.00D+00 WtEn= 0.00D+00
 Coeff-Com: -0.134D-06 0.119D-05 0.181D-04 0.358D-04-0.624D-03-0.145D-03
 Coeff-Com:  0.265D-02 0.166D-01-0.279D-01-0.392D+00 0.140D+01
 Coeff:     -0.134D-06 0.119D-05 0.181D-04 0.358D-04-0.624D-03-0.145D-03
 Coeff:      0.265D-02 0.166D-01-0.279D-01-0.392D+00 0.140D+01
 Gap=     0.403 Goal=   None    Shift=    0.000
 RMSDP=7.55D-09 MaxDP=1.68D-07 DE=-6.42D-12 OVMax= 1.15D-06

 SCF Done:  E(RwB97XD) =  -151.556934139     A.U. after   11 cycles
             Convg  =    0.7551D-08             -V/T =  2.0061
 KE= 1.506334948244D+02 PE=-4.316735042323D+02 EE= 9.288232760731D+01
 Leave Link  502 at Sun May  3 17:25:32 2020, MaxMem= 1073741824 cpu:     276.4
 (Enter /home/matheus/.gaussian/g09/l601.exe)
 Copying SCF densities to generalized density rwf, IOpCl= 0 IROHF=0.

 **********************************************************************

            Population analysis using the SCF density.

 **********************************************************************

 Orbital symmetries:
       Occupied  (A) (A) (A) (A) (A) (A) (A) (A) (A)
       Virtual   (A) (A) (A) (A) (A) (A) (A) (A) (A) (A) (A) (A)
                 (A) (A) (A) (A) (A) (A) (A) (A) (A) (A) (A) (A)
                 (A) (A) (A) (A) (A) (A) (A) (A) (A) (A) (A) (A)
                 (A) (A) (A) (A) (A) (A) (A) (A) (A) (A) (A) (A)
                 (A) (A) (A) (A) (A) (A) (A) (A) (A) (A) (A) (A)
                 (A) (A) (A) (A) (A) (A) (A) (A) (A) (A) (A) (A)
                 (A) (A) (A) (A) (A) (A) (A) (A) (A) (A) (A) (A)
                 (A) (A) (A) (A) (A) (A) (A) (A) (A) (A) (A) (A)
                 (A) (A) (A) (A) (A) (A) (A) (A) (A) (A) (A) (A)
                 (A) (A) (A) (A) (A) (A) (A) (A) (A) (A) (A) (A)
                 (A) (A) (A) (A) (A) (A) (A) (A) (A) (A) (A) (A)
                 (A) (A) (A) (A) (A) (A) (A) (A) (A) (A) (A) (A)
                 (A) (A) (A) (A) (A) (A) (A) (A) (A) (A) (A) (A)
                 (A) (A) (A) (A) (A) (A) (A) (A) (A) (A) (A) (A)
                 (A) (A) (A) (A) (A) (A) (A) (A) (A) (A) (A) (A)
                 (A) (A) (A) (A) (A) (A) (A) (A)
 The electronic state is 1-A.
 Alpha  occ. eigenvalues --  -19.33817 -19.33812  -1.24450  -1.03361  -0.65007
 Alpha  occ. eigenvalues --   -0.61244  -0.51969  -0.46057  -0.36991
 Alpha virt. eigenvalues --    0.03282   0.03821   0.07218   0.09414   0.09712
 Alpha virt. eigenvalues --    0.10739   0.11328   0.14189   0.16847   0.17585
 Alpha virt. eigenvalues --    0.18651   0.20194   0.21323   0.23271   0.27058
 Alpha virt. eigenvalues --    0.27493   0.29859   0.31482   0.32027   0.33716
 Alpha virt. eigenvalues --    0.37177   0.38050   0.38905   0.39628   0.42041
 Alpha virt. eigenvalues --    0.43305   0.44218   0.47526   0.49362   0.50100
 Alpha virt. eigenvalues --    0.54726   0.58074   0.60309   0.65376   0.67219
 Alpha virt. eigenvalues --    0.68673   0.72702   0.74567   0.75083   0.75746
 Alpha virt. eigenvalues --    0.77964   0.82179   0.83952   0.87158   0.90405
 Alpha virt. eigenvalues --    0.90988   0.92138   0.95366   0.97321   0.99406
 Alpha virt. eigenvalues --    1.00762   1.04113   1.05124   1.09490   1.13802
 Alpha virt. eigenvalues --    1.14446   1.15646   1.17219   1.18190   1.24219
 Alpha virt. eigenvalues --    1.25876   1.30258   1.33054   1.33368   1.34216
 Alpha virt. eigenvalues --    1.34555   1.35248   1.37300   1.37324   1.45623
 Alpha virt. eigenvalues --    1.48587   1.50379   1.52816   1.53236   1.56557
 Alpha virt. eigenvalues --    1.57635   1.64730   1.66924   1.72654   1.78742
 Alpha virt. eigenvalues --    1.80051   1.83444   1.88809   1.97025   1.99810
 Alpha virt. eigenvalues --    2.01851   2.05722   2.13370   2.14727   2.18902
 Alpha virt. eigenvalues --    2.24736   2.27694   2.30139   2.36537   2.42375
 Alpha virt. eigenvalues --    2.47507   2.54881   2.55672   2.57194   2.65787
 Alpha virt. eigenvalues --    2.67670   2.69280   2.73459   2.84749   2.93386
 Alpha virt. eigenvalues --    3.06032   3.08055   3.11351   3.27021   3.31252
 Alpha virt. eigenvalues --    3.39521   3.49882   3.61527   3.70207   3.78805
 Alpha virt. eigenvalues --    3.80386   3.81112   3.82948   3.83671   3.84529
 Alpha virt. eigenvalues --    3.88806   3.90046   3.91385   3.92805   3.95455
 Alpha virt. eigenvalues --    3.97217   4.06175   4.08728   4.11778   4.11979
 Alpha virt. eigenvalues --    4.12645   4.20186   4.20838   4.27607   4.34051
 Alpha virt. eigenvalues --    4.40869   4.45933   4.56733   4.73822   4.89327
 Alpha virt. eigenvalues --    5.01700   5.03363   5.07427   5.07459   5.36911
 Alpha virt. eigenvalues --    5.44004   5.82875   5.97336   6.08317   6.13234
 Alpha virt. eigenvalues --    6.29697   6.35818   6.43323   6.46841   6.70191
 Alpha virt. eigenvalues --    6.71059   6.73698   6.80480   6.85931   6.88795
 Alpha virt. eigenvalues --    6.91898   6.93667   6.94691   6.97600   7.01368
 Alpha virt. eigenvalues --    7.21854   7.24852   7.38494   7.61805   7.83756
 Alpha virt. eigenvalues --    8.11352   8.14222  10.90656  14.15595  14.58065
 Alpha virt. eigenvalues --   14.84575  14.89762  15.12528  29.04323  29.04945
 Alpha virt. eigenvalues --   29.09217  29.15223  29.24597  49.12126 148.32543
 Alpha virt. eigenvalues --  148.40222 148.73297 752.52840
          Condensed to atoms (all electrons):
              1          2          3          4          5
     1  O    8.177827  -0.148110   0.187495  -0.001408  -0.007557
     2  O   -0.148110   8.159886   0.006080   0.231741  -0.000235
     3  H    0.187495   0.006080   0.590841   0.004621   0.001344
     4  H   -0.001408   0.231741   0.004621   0.530071  -0.004012
     5  Kr  -0.007557  -0.000235   0.001344  -0.004012   0.001454
 Mulliken atomic charges:
              1
     1  O   -0.208248
     2  O   -0.249363
     3  H    0.209619
     4  H    0.238986
     5  Kr   0.009006
 Sum of Mulliken atomic charges =   0.00000
 Mulliken charges with hydrogens summed into heavy atoms:
              1
     1  O    0.001371
     2  O   -0.010377
     5  Kr   0.009006
 Sum of Mulliken charges with hydrogens summed into heavy atoms =   0.00000
          Condensed to fragments (all electrons):
     1      -0.009006
     2       0.009006
 Electronic spatial extent (au):  <R**2>=            324.6136
 Charge=              0.0000 electrons
 Dipole moment (field-independent basis, Debye):
    X=              0.0235    Y=             -0.0042    Z=              0.2780  Tot=              0.2791
 Quadrupole moment (field-independent basis, Debye-Ang):
   XX=             -8.6002   YY=            -10.7222   ZZ=            -13.0793
   XY=              4.0251   XZ=             -0.8720   YZ=             -0.2842
 Traceless Quadrupole moment (field-independent basis, Debye-Ang):
   XX=              2.2003   YY=              0.0784   ZZ=             -2.2787
   XY=              4.0251   XZ=             -0.8720   YZ=             -0.2842
 Octapole moment (field-independent basis, Debye-Ang**2):
  XXX=             51.3769  YYY=             -1.2265  ZZZ=              0.1594  XYY=             21.7564
  XXY=            -16.3445  XXZ=              2.6972  XZZ=             26.1167  YZZ=             -0.5394
  YYZ=              0.3514  XYZ=              0.9011
 Hexadecapole moment (field-independent basis, Debye-Ang**3):
 XXXX=           -215.4006 YYYY=            -45.6422 ZZZZ=            -11.5137 XXXY=             51.0948
 XXXZ=             -8.1431 YYYX=              4.9082 YYYZ=             -0.3454 ZZZX=             -0.2639
 ZZZY=             -0.1471 XXYY=            -51.2249 XXZZ=            -56.3662 YYZZ=            -11.4457
 XXYZ=             -2.7570 YYXZ=             -0.9704 ZZXY=              0.2048
 N-N= 3.660074766190D+01 E-N=-4.316735036758D+02  KE= 1.506334948244D+02
 No NMR shielding tensors so no spin-rotation constants.
 Leave Link  601 at Sun May  3 17:25:32 2020, MaxMem= 1073741824 cpu:       0.8
 (Enter /home/matheus/.gaussian/g09/l122.exe)
 Counterpoise: doing DCBS calculation for fragment   2 NewBq=T
 Leave Link  122 at Sun May  3 17:25:32 2020, MaxMem= 1073741824 cpu:       0.0
 (Enter /home/matheus/.gaussian/g09/l301.exe)
 Basis read from rwf:  (5D, 7F)
 No pseudopotential information found on rwf file.
 There are   197 symmetry adapted basis functions of A   symmetry.
 Integral buffers will be    131072 words long.
 Raffenetti 2 integral format.
 Two-electron integral symmetry is turned on.
   197 basis functions,   415 primitive gaussians,   229 cartesian basis functions
    18 alpha electrons       18 beta electrons
       nuclear repulsion energy         0.0000000000 Hartrees.
 IExCor= 4639 DFT=T Ex+Corr=wB97XD ExCW=0 ScaHFX=  1.000000
 ScaDFX=  1.000000  1.000000  1.000000  1.000000 ScalE2=  1.000000  1.000000
 IRadAn=      5 IRanWt=     -1 IRanGd=            0 ICorTp=0
  HFx wShort=  0.000000 wLong=  0.250000 cFull=  0.222036 cShort=  0.000000 cLong=  0.777964
  DFx wShort=  0.000000 wLong=  0.250000 cFull=  0.000000 cShort=  0.000000 cLong=  1.000000
 NAtoms=    5 NActive=    5 NUniq=    5 SFac= 1.00D+00 NAtFMM=   60 NAOKFM=F Big=F
 R6Disp: Dispersion energy =         0.0000000000 Hartrees.
 Nuclear repulsion after empirical dispersion term =        0.0000000000 Hartrees.
 No density basis found on file   718.
 Leave Link  301 at Sun May  3 17:25:32 2020, MaxMem= 1073741824 cpu:       0.2
 (Enter /home/matheus/.gaussian/g09/l302.exe)
 NPDir=0 NMtPBC=     1 NCelOv=     1 NCel=       1 NClECP=     1 NCelD=      1
         NCelK=      1 NCelE2=     1 NClLst=     1 CellRange=     0.0.
 One-electron integrals computed using PRISM.
 NBasis=   197 RedAO= T  NBF=   197
 NBsUse=   197 1.00D-06 NBFU=   197
 Precomputing XC quadrature grid using
 IXCGrd= 2 IRadAn=           5 IRanWt=          -1 IRanGd=           0 AccXCQ= 0.00D+00.
 NRdTot=     427 NPtTot=      123814 NUsed=      126881 NTot=      126913
 NSgBfM=   229   229   229   229   229 NAtAll=     5     5.
 Leave Link  302 at Sun May  3 17:25:32 2020, MaxMem= 1073741824 cpu:       1.0
 (Enter /home/matheus/.gaussian/g09/l303.exe)
 DipDrv:  MaxL=1.
 Leave Link  303 at Sun May  3 17:25:32 2020, MaxMem= 1073741824 cpu:       0.2
 (Enter /home/matheus/.gaussian/g09/l401.exe)
 Harris functional with IExCor= 4639 diagonalized for initial guess.
 ExpMin= 2.53D-02 ExpMax= 1.17D+07 ExpMxC= 1.33D+04 IAcc=3 IRadAn=         5 AccDes= 0.00D+00
 HarFok:  IExCor= 4639 AccDes= 0.00D+00 IRadAn=         5 IDoV= 1
 ScaDFX=  1.000000  1.000000  1.000000  1.000000
 FoFCou: FMM=F IPFlag=           0 FMFlag=      100000 FMFlg1=           0
         NFxFlg=           0 DoJE=T BraDBF=F KetDBF=T FulRan=T
         Omega=  0.000000  0.000000  1.000000  0.000000  0.000000 ICntrl=     500 IOpCl=  0
         NMat0=    1 NMatS0=    1 NMatT0=    0 NMatD0=    1 NMtDS0=    0 NMtDT0=    0
         I1Cent=           4 NGrid=           0.
 Petite list used in FoFCou.
 Harris En= -2729.46039701951    
 Initial guess orbital symmetries:
       Occupied  (A) (A) (A) (A) (A) (A) (A) (A) (A) (A) (A) (A)
                 (A) (A) (A) (A) (A) (A)
       Virtual   (A) (A) (A) (A) (A) (A) (A) (A) (A) (A) (A) (A)
                 (A) (A) (A) (A) (A) (A) (A) (A) (A) (A) (A) (A)
                 (A) (A) (A) (A) (A) (A) (A) (A) (A) (A) (A) (A)
                 (A) (A) (A) (A) (A) (A) (A) (A) (A) (A) (A) (A)
                 (A) (A) (A) (A) (A) (A) (A) (A) (A) (A) (A) (A)
                 (A) (A) (A) (A) (A) (A) (A) (A) (A) (A) (A) (A)
                 (A) (A) (A) (A) (A) (A) (A) (A) (A) (A) (A) (A)
                 (A) (A) (A) (A) (A) (A) (A) (A) (A) (A) (A) (A)
                 (A) (A) (A) (A) (A) (A) (A) (A) (A) (A) (A) (A)
                 (A) (A) (A) (A) (A) (A) (A) (A) (A) (A) (A) (A)
                 (A) (A) (A) (A) (A) (A) (A) (A) (A) (A) (A) (A)
                 (A) (A) (A) (A) (A) (A) (A) (A) (A) (A) (A) (A)
                 (A) (A) (A) (A) (A) (A) (A) (A) (A) (A) (A) (A)
                 (A) (A) (A) (A) (A) (A) (A) (A) (A) (A) (A) (A)
                 (A) (A) (A) (A) (A) (A) (A) (A) (A) (A) (A)
 The electronic state of the initial guess is 1-A.
 Leave Link  401 at Sun May  3 17:25:33 2020, MaxMem= 1073741824 cpu:       3.8
 (Enter /home/matheus/.gaussian/g09/l502.exe)
 Closed shell SCF:
 Requested convergence on RMS density matrix=1.00D-08 within 128 cycles.
 Requested convergence on MAX density matrix=1.00D-06.
 Requested convergence on             energy=1.00D-06.
 No special actions if energy rises.
 Using DIIS extrapolation, IDIIS=  1040.
 Integral symmetry usage will be decided dynamically.
       126823 words used for storage of precomputed grid.
 IEnd=      305770 IEndB=      305770 NGot=  1073741824 MDV=  1073505365
 LenX=  1073505365 LenY=  1073452483
 Fock matrices will be formed incrementally for  20 cycles.

 Cycle   1  Pass 1  IDiag  1:
 FoFJK:  IHMeth= 1 ICntrl=     0 DoSepK=T KAlg= 1 I1Cent= 0 FoldK=F
 FoFCou: FMM=F IPFlag=           0 FMFlag=      100000 FMFlg1=           0
         NFxFlg=           0 DoJE=T BraDBF=F KetDBF=F FulRan=T
         Omega=  0.000000  0.000000  1.000000  0.000000  0.000000 ICntrl=     500 IOpCl=  0
         NMat0=    1 NMatS0=    1 NMatT0=    0 NMatD0=    1 NMtDS0=    0 NMtDT0=    0
         I1Cent=           0 NGrid=           0.
 Symmetry not used in FoFCou.
 E= -2753.44666922796    
 DIIS: error= 7.73D-02 at cycle   1 NSaved=   1.
 NSaved= 1 IEnMin= 1 EnMin= -2753.44666922796     IErMin= 1 ErrMin= 7.73D-02
 ErrMax= 7.73D-02 EMaxC= 1.00D-01 BMatC= 1.90D+00 BMatP= 1.90D+00
 IDIUse=3 WtCom= 2.27D-01 WtEn= 7.73D-01
 Coeff-Com:  0.100D+01
 Coeff-En:   0.100D+01
 Coeff:      0.100D+01
 Gap=     0.654 Goal=   None    Shift=    0.000
 GapD=    0.654 DampG=2.000 DampE=0.500 DampFc=1.0000 IDamp=-1.
 RMSDP=5.68D-03 MaxDP=3.67D-01              OVMax= 1.83D-01

 Cycle   2  Pass 1  IDiag  1:
 RMSU=  3.96D-03    CP:  1.04D+00
 FoFJK:  IHMeth= 1 ICntrl=     0 DoSepK=T KAlg= 1 I1Cent= 0 FoldK=F
 E= -2753.72375989418     Delta-E=       -0.277090666216 Rises=F Damp=F
 DIIS: error= 3.73D-02 at cycle   2 NSaved=   2.
 NSaved= 2 IEnMin= 2 EnMin= -2753.72375989418     IErMin= 2 ErrMin= 3.73D-02
 ErrMax= 3.73D-02 EMaxC= 1.00D-01 BMatC= 4.66D-01 BMatP= 1.90D+00
 IDIUse=3 WtCom= 6.27D-01 WtEn= 3.73D-01
 Coeff-Com:  0.326D+00 0.674D+00
 Coeff-En:   0.160D+00 0.840D+00
 Coeff:      0.264D+00 0.736D+00
 Gap=     0.488 Goal=   None    Shift=    0.000
 RMSDP=2.57D-03 MaxDP=1.62D-01 DE=-2.77D-01 OVMax= 7.77D-02

 Cycle   3  Pass 1  IDiag  1:
 RMSU=  3.77D-04    CP:  1.03D+00  5.57D-01
 FoFJK:  IHMeth= 1 ICntrl=     0 DoSepK=T KAlg= 1 I1Cent= 0 FoldK=F
 E= -2753.86629224238     Delta-E=       -0.142532348208 Rises=F Damp=F
 DIIS: error= 5.91D-03 at cycle   3 NSaved=   3.
 NSaved= 3 IEnMin= 3 EnMin= -2753.86629224238     IErMin= 3 ErrMin= 5.91D-03
 ErrMax= 5.91D-03 EMaxC= 1.00D-01 BMatC= 1.28D-02 BMatP= 4.66D-01
 IDIUse=3 WtCom= 9.41D-01 WtEn= 5.91D-02
 Coeff-Com: -0.849D-02 0.129D+00 0.880D+00
 Coeff-En:   0.000D+00 0.000D+00 0.100D+01
 Coeff:     -0.798D-02 0.121D+00 0.887D+00
 Gap=     0.516 Goal=   None    Shift=    0.000
 RMSDP=3.36D-04 MaxDP=1.97D-02 DE=-1.43D-01 OVMax= 1.32D-02

 Cycle   4  Pass 1  IDiag  1:
 RMSU=  4.31D-05    CP:  1.03D+00  6.15D-01  9.58D-01
 FoFJK:  IHMeth= 1 ICntrl=     0 DoSepK=T KAlg= 1 I1Cent= 0 FoldK=F
 E= -2753.87021537969     Delta-E=       -0.003923137310 Rises=F Damp=F
 DIIS: error= 3.01D-04 at cycle   4 NSaved=   4.
 NSaved= 4 IEnMin= 4 EnMin= -2753.87021537969     IErMin= 4 ErrMin= 3.01D-04
 ErrMax= 3.01D-04 EMaxC= 1.00D-01 BMatC= 2.57D-05 BMatP= 1.28D-02
 IDIUse=3 WtCom= 9.97D-01 WtEn= 3.01D-03
 Coeff-Com: -0.230D-03-0.183D-01-0.613D-01 0.108D+01
 Coeff-En:   0.000D+00 0.000D+00 0.000D+00 0.100D+01
 Coeff:     -0.229D-03-0.182D-01-0.611D-01 0.108D+01
 Gap=     0.514 Goal=   None    Shift=    0.000
 RMSDP=2.56D-05 MaxDP=9.42D-04 DE=-3.92D-03 OVMax= 9.53D-04

 Cycle   5  Pass 1  IDiag  1:
 RMSU=  9.26D-06    CP:  1.03D+00  6.13D-01  9.79D-01  1.22D+00
 FoFJK:  IHMeth= 1 ICntrl=     0 DoSepK=T KAlg= 1 I1Cent= 0 FoldK=F
 E= -2753.87022737631     Delta-E=       -0.000011996621 Rises=F Damp=F
 DIIS: error= 1.37D-05 at cycle   5 NSaved=   5.
 NSaved= 5 IEnMin= 5 EnMin= -2753.87022737631     IErMin= 5 ErrMin= 1.37D-05
 ErrMax= 1.37D-05 EMaxC= 1.00D-01 BMatC= 5.73D-08 BMatP= 2.57D-05
 IDIUse=1 WtCom= 1.00D+00 WtEn= 0.00D+00
 Coeff-Com:  0.657D-04 0.140D-02-0.920D-04-0.206D+00 0.120D+01
 Coeff:      0.657D-04 0.140D-02-0.920D-04-0.206D+00 0.120D+01
 Gap=     0.514 Goal=   None    Shift=    0.000
 RMSDP=4.06D-06 MaxDP=1.56D-04 DE=-1.20D-05 OVMax= 2.21D-04

 Cycle   6  Pass 1  IDiag  1:
 RMSU=  8.01D-07    CP:  1.03D+00  6.13D-01  9.82D-01  1.26D+00  1.19D+00
 FoFJK:  IHMeth= 1 ICntrl=     0 DoSepK=T KAlg= 1 I1Cent= 0 FoldK=F
 E= -2753.87022753580     Delta-E=       -0.000000159489 Rises=F Damp=F
 DIIS: error= 1.42D-06 at cycle   6 NSaved=   6.
 NSaved= 6 IEnMin= 6 EnMin= -2753.87022753580     IErMin= 6 ErrMin= 1.42D-06
 ErrMax= 1.42D-06 EMaxC= 1.00D-01 BMatC= 4.82D-10 BMatP= 5.73D-08
 IDIUse=1 WtCom= 1.00D+00 WtEn= 0.00D+00
 Coeff-Com:  0.604D-05 0.331D-03 0.390D-03-0.407D-01 0.190D+00 0.850D+00
 Coeff:      0.604D-05 0.331D-03 0.390D-03-0.407D-01 0.190D+00 0.850D+00
 Gap=     0.514 Goal=   None    Shift=    0.000
 RMSDP=2.03D-07 MaxDP=7.25D-06 DE=-1.59D-07 OVMax= 9.31D-06

 Cycle   7  Pass 1  IDiag  1:
 RMSU=  6.79D-08    CP:  1.03D+00  6.13D-01  9.82D-01  1.26D+00  1.20D+00
                    CP:  1.11D+00
 FoFJK:  IHMeth= 1 ICntrl=     0 DoSepK=T KAlg= 1 I1Cent= 0 FoldK=F
 E= -2753.87022753634     Delta-E=       -0.000000000533 Rises=F Damp=F
 DIIS: error= 2.20D-07 at cycle   7 NSaved=   7.
 NSaved= 7 IEnMin= 7 EnMin= -2753.87022753634     IErMin= 7 ErrMin= 2.20D-07
 ErrMax= 2.20D-07 EMaxC= 1.00D-01 BMatC= 2.31D-11 BMatP= 4.82D-10
 IDIUse=1 WtCom= 1.00D+00 WtEn= 0.00D+00
 Coeff-Com: -0.174D-05 0.422D-05 0.126D-03 0.263D-02-0.234D-01 0.106D+00
 Coeff-Com:  0.915D+00
 Coeff:     -0.174D-05 0.422D-05 0.126D-03 0.263D-02-0.234D-01 0.106D+00
 Coeff:      0.915D+00
 Gap=     0.514 Goal=   None    Shift=    0.000
 RMSDP=5.58D-08 MaxDP=2.16D-06 DE=-5.33D-10 OVMax= 2.01D-06

 Cycle   8  Pass 1  IDiag  1:
 RMSU=  1.55D-08    CP:  1.03D+00  6.13D-01  9.82D-01  1.26D+00  1.20D+00
                    CP:  1.15D+00  1.09D+00
 FoFJK:  IHMeth= 1 ICntrl=     0 DoSepK=T KAlg= 1 I1Cent= 0 FoldK=F
 E= -2753.87022753636     Delta-E=       -0.000000000019 Rises=F Damp=F
 DIIS: error= 5.94D-08 at cycle   8 NSaved=   8.
 NSaved= 8 IEnMin= 8 EnMin= -2753.87022753636     IErMin= 8 ErrMin= 5.94D-08
 ErrMax= 5.94D-08 EMaxC= 1.00D-01 BMatC= 1.20D-12 BMatP= 2.31D-11
 IDIUse=1 WtCom= 1.00D+00 WtEn= 0.00D+00
 Coeff-Com: -0.276D-07-0.446D-05 0.169D-04 0.137D-02-0.730D-02-0.120D-01
 Coeff-Com:  0.108D+00 0.910D+00
 Coeff:     -0.276D-07-0.446D-05 0.169D-04 0.137D-02-0.730D-02-0.120D-01
 Coeff:      0.108D+00 0.910D+00
 Gap=     0.514 Goal=   None    Shift=    0.000
 RMSDP=1.17D-08 MaxDP=4.21D-07 DE=-1.91D-11 OVMax= 3.35D-07

 Cycle   9  Pass 1  IDiag  1:
 RMSU=  2.28D-09    CP:  1.03D+00  6.13D-01  9.82D-01  1.26D+00  1.20D+00
                    CP:  1.16D+00  1.13D+00  1.09D+00
 FoFJK:  IHMeth= 1 ICntrl=     0 DoSepK=T KAlg= 1 I1Cent= 0 FoldK=F
 E= -2753.87022753636     Delta-E=       -0.000000000006 Rises=F Damp=F
 DIIS: error= 7.55D-09 at cycle   9 NSaved=   9.
 NSaved= 9 IEnMin= 9 EnMin= -2753.87022753636     IErMin= 9 ErrMin= 7.55D-09
 ErrMax= 7.55D-09 EMaxC= 1.00D-01 BMatC= 9.49D-15 BMatP= 1.20D-12
 IDIUse=1 WtCom= 1.00D+00 WtEn= 0.00D+00
 Coeff-Com:  0.103D-07 0.999D-07-0.266D-05-0.123D-03 0.659D-03-0.414D-03
 Coeff-Com: -0.233D-01-0.808D-01 0.110D+01
 Coeff:      0.103D-07 0.999D-07-0.266D-05-0.123D-03 0.659D-03-0.414D-03
 Coeff:     -0.233D-01-0.808D-01 0.110D+01
 Gap=     0.514 Goal=   None    Shift=    0.000
 RMSDP=1.69D-09 MaxDP=6.46D-08 DE=-6.37D-12 OVMax= 9.60D-08

 SCF Done:  E(RwB97XD) =  -2753.87022754     A.U. after    9 cycles
             Convg  =    0.1686D-08             -V/T =  2.0013
 KE= 2.750247141324D+03 PE=-6.580155850891D+03 EE= 1.076038482031D+03
 Leave Link  502 at Sun May  3 17:26:02 2020, MaxMem= 1073741824 cpu:     229.7
 (Enter /home/matheus/.gaussian/g09/l601.exe)
 Copying SCF densities to generalized density rwf, IOpCl= 0 IROHF=0.

 **********************************************************************

            Population analysis using the SCF density.

 **********************************************************************

 Orbital symmetries:
       Occupied  (A) (A) (A) (A) (A) (A) (A) (A) (A) (A) (A) (A)
                 (A) (A) (A) (A) (A) (A)
       Virtual   (A) (A) (A) (A) (A) (A) (A) (A) (A) (A) (A) (A)
                 (A) (A) (A) (A) (A) (A) (A) (A) (A) (A) (A) (A)
                 (A) (A) (A) (A) (A) (A) (A) (A) (A) (A) (A) (A)
                 (A) (A) (A) (A) (A) (A) (A) (A) (A) (A) (A) (A)
                 (A) (A) (A) (A) (A) (A) (A) (A) (A) (A) (A) (A)
                 (A) (A) (A) (A) (A) (A) (A) (A) (A) (A) (A) (A)
                 (A) (A) (A) (A) (A) (A) (A) (A) (A) (A) (A) (A)
                 (A) (A) (A) (A) (A) (A) (A) (A) (A) (A) (A) (A)
                 (A) (A) (A) (A) (A) (A) (A) (A) (A) (A) (A) (A)
                 (A) (A) (A) (A) (A) (A) (A) (A) (A) (A) (A) (A)
                 (A) (A) (A) (A) (A) (A) (A) (A) (A) (A) (A) (A)
                 (A) (A) (A) (A) (A) (A) (A) (A) (A) (A) (A) (A)
                 (A) (A) (A) (A) (A) (A) (A) (A) (A) (A) (A) (A)
                 (A) (A) (A) (A) (A) (A) (A) (A) (A) (A) (A) (A)
                 (A) (A) (A) (A) (A) (A) (A) (A) (A) (A) (A)
 The electronic state is 1-A.
 Alpha  occ. eigenvalues -- -513.08050 -67.34865 -60.89737 -60.89736 -60.89736
 Alpha  occ. eigenvalues --   -9.80180  -7.49479  -7.49478  -7.49478  -3.36164
 Alpha  occ. eigenvalues --   -3.36164  -3.36164  -3.36163  -3.36163  -1.00829
 Alpha  occ. eigenvalues --   -0.48267  -0.48264  -0.48263
 Alpha virt. eigenvalues --    0.03140   0.05125   0.08649   0.10393   0.11192
 Alpha virt. eigenvalues --    0.12579   0.13315   0.14859   0.16699   0.17283
 Alpha virt. eigenvalues --    0.18185   0.19673   0.21079   0.25843   0.26587
 Alpha virt. eigenvalues --    0.27501   0.27817   0.32077   0.34036   0.35343
 Alpha virt. eigenvalues --    0.35525   0.37128   0.38069   0.38980   0.41547
 Alpha virt. eigenvalues --    0.43197   0.43448   0.52351   0.54651   0.57090
 Alpha virt. eigenvalues --    0.61727   0.65247   0.67399   0.68687   0.70944
 Alpha virt. eigenvalues --    0.74299   0.74694   0.75225   0.76768   0.77054
 Alpha virt. eigenvalues --    0.80703   0.81542   0.83182   0.84357   0.84834
 Alpha virt. eigenvalues --    0.86693   0.88079   0.89187   0.91491   0.94383
 Alpha virt. eigenvalues --    0.97337   0.98985   1.01087   1.02117   1.03789
 Alpha virt. eigenvalues --    1.05762   1.06391   1.07946   1.12681   1.12926
 Alpha virt. eigenvalues --    1.16210   1.17243   1.18505   1.25949   1.28489
 Alpha virt. eigenvalues --    1.32241   1.34773   1.42251   1.43072   1.43795
 Alpha virt. eigenvalues --    1.56900   1.59533   1.70751   1.75405   1.77401
 Alpha virt. eigenvalues --    1.83029   1.86015   1.87163   1.88569   2.15545
 Alpha virt. eigenvalues --    2.20181   2.25594   2.27477   2.30422   2.30822
 Alpha virt. eigenvalues --    2.32461   2.33840   2.36366   2.39802   2.40147
 Alpha virt. eigenvalues --    2.41745   2.45994   2.47979   2.48435   2.49652
 Alpha virt. eigenvalues --    2.52734   2.53876   2.54683   2.57030   2.59499
 Alpha virt. eigenvalues --    2.61330   2.62234   2.63125   2.64574   2.66996
 Alpha virt. eigenvalues --    2.69393   2.70512   2.76869   2.78706   2.88351
 Alpha virt. eigenvalues --    2.89432   3.02818   3.05381   3.11520   3.15514
 Alpha virt. eigenvalues --    3.24351   3.28333   3.29002   3.35330   3.53121
 Alpha virt. eigenvalues --    3.60255   3.64914   3.85589   3.88115   4.04028
 Alpha virt. eigenvalues --    4.34681   4.43871   4.56305   4.57136   4.62719
 Alpha virt. eigenvalues --    4.73860   4.90789   4.91615   4.94204   5.03606
 Alpha virt. eigenvalues --    5.11927   5.14915   5.59892   5.67372   5.86410
 Alpha virt. eigenvalues --    5.88244   5.95128   6.22133   6.84773   6.94772
 Alpha virt. eigenvalues --    7.27035   7.43051   7.61172   7.66275   7.75158
 Alpha virt. eigenvalues --    7.79808   8.09831   8.10624   8.17544   8.26163
 Alpha virt. eigenvalues --    8.34455   8.38552   8.69515   8.90609   9.64912
 Alpha virt. eigenvalues --    9.71543   9.77828   9.84646   9.96660  10.06848
 Alpha virt. eigenvalues --   10.18589  10.21599  10.50416  10.94059  11.43438
 Alpha virt. eigenvalues --   11.57176  11.62445  12.03798  12.14282  13.22507
 Alpha virt. eigenvalues --   13.69883  14.53920  62.94767  64.53056
          Condensed to atoms (all electrons):
              1          2          3          4          5
     1  O    0.002846  -0.002515  -0.001338   0.001299  -0.008538
     2  O   -0.002515   0.005913   0.000974  -0.003571  -0.005133
     3  H   -0.001338   0.000974   0.000791  -0.000434   0.001071
     4  H    0.001299  -0.003571  -0.000434   0.003407  -0.018871
     5  Kr  -0.008538  -0.005133   0.001071  -0.018871  36.061155
 Mulliken atomic charges:
              1
     1  O    0.008247
     2  O    0.004332
     3  H   -0.001065
     4  H    0.018170
     5  Kr  -0.029684
 Sum of Mulliken atomic charges =   0.00000
 Mulliken charges with hydrogens summed into heavy atoms:
              1
     1  O    0.007182
     2  O    0.022502
     5  Kr  -0.029684
 Sum of Mulliken charges with hydrogens summed into heavy atoms =   0.00000
          Condensed to fragments (all electrons):
     1       0.029684
     2      -0.029684
 Electronic spatial extent (au):  <R**2>=            167.8660
 Charge=              0.0000 electrons
 Dipole moment (field-independent basis, Debye):
    X=             -0.0010    Y=              0.0007    Z=              0.0000  Tot=              0.0012
 Quadrupole moment (field-independent basis, Debye-Ang):
   XX=            -17.6440   YY=            -17.6539   ZZ=            -17.6601
   XY=             -0.0046   XZ=             -0.0001   YZ=              0.0001
 Traceless Quadrupole moment (field-independent basis, Debye-Ang):
   XX=              0.0087   YY=             -0.0013   ZZ=             -0.0074
   XY=             -0.0046   XZ=             -0.0001   YZ=              0.0001
 Octapole moment (field-independent basis, Debye-Ang**2):
  XXX=            -52.9085  YYY=              1.0009  ZZZ=             -0.0540  XYY=            -17.6472
  XXY=              0.3223  XXZ=             -0.0182  XZZ=            -17.6507  YZZ=              0.3339
  YYZ=             -0.0178  XYZ=              0.0002
 Hexadecapole moment (field-independent basis, Debye-Ang**3):
 XXXX=           -124.2348 YYYY=            -18.5128 ZZZZ=            -18.4914 XXXY=              0.9727
 XXXZ=             -0.0545 YYYX=              0.9829 YYYZ=              0.0007 ZZZX=             -0.0541
 ZZZY=              0.0012 XXYY=            -23.7999 XXZZ=            -23.7988 YYZZ=             -6.1638
 XXYZ=              0.0004 YYXZ=             -0.0181 ZZXY=              0.3266
 N-N= 0.000000000000D+00 E-N=-6.580155849470D+03  KE= 2.750247141324D+03
 No NMR shielding tensors so no spin-rotation constants.
 Leave Link  601 at Sun May  3 17:26:02 2020, MaxMem= 1073741824 cpu:       0.8
 (Enter /home/matheus/.gaussian/g09/l122.exe)
 Counterpoise: doing MCBS calculation for fragment   1
 Leave Link  122 at Sun May  3 17:26:02 2020, MaxMem= 1073741824 cpu:       0.0
 (Enter /home/matheus/.gaussian/g09/l301.exe)
 Basis read from rwf:  (5D, 7F)
 No pseudopotential information found on rwf file.
 There are   138 symmetry adapted basis functions of A   symmetry.
 Integral buffers will be    131072 words long.
 Raffenetti 2 integral format.
 Two-electron integral symmetry is turned on.
   138 basis functions,   198 primitive gaussians,   160 cartesian basis functions
     9 alpha electrons        9 beta electrons
       nuclear repulsion energy        36.6009457491 Hartrees.
 IExCor= 4639 DFT=T Ex+Corr=wB97XD ExCW=0 ScaHFX=  1.000000
 ScaDFX=  1.000000  1.000000  1.000000  1.000000 ScalE2=  1.000000  1.000000
 IRadAn=      5 IRanWt=     -1 IRanGd=            0 ICorTp=0
  HFx wShort=  0.000000 wLong=  0.250000 cFull=  0.222036 cShort=  0.000000 cLong=  0.777964
  DFx wShort=  0.000000 wLong=  0.250000 cFull=  0.000000 cShort=  0.000000 cLong=  1.000000
 NAtoms=    5 NActive=    4 NUniq=    4 SFac= 1.00D+00 NAtFMM=   60 NAOKFM=F Big=F
 R6Disp: Dispersion energy =        -0.0001980872 Hartrees.
 Nuclear repulsion after empirical dispersion term =       36.6007476619 Hartrees.
 No density basis found on file   718.
 Leave Link  301 at Sun May  3 17:26:02 2020, MaxMem= 1073741824 cpu:       0.2
 (Enter /home/matheus/.gaussian/g09/l302.exe)
 NPDir=0 NMtPBC=     1 NCelOv=     1 NCel=       1 NClECP=     1 NCelD=      1
         NCelK=      1 NCelE2=     1 NClLst=     1 CellRange=     0.0.
 One-electron integrals computed using PRISM.
 NBasis=   138 RedAO= T  NBF=   138
 NBsUse=   138 1.00D-06 NBFU=   138
 Precomputing XC quadrature grid using
 IXCGrd= 2 IRadAn=           5 IRanWt=          -1 IRanGd=           0 AccXCQ= 0.00D+00.
 NRdTot=     344 NPtTot=       92556 NUsed=       95038 NTot=       95070
 NSgBfM=   160   160   160   160   160 NAtAll=     4     4.
 Leave Link  302 at Sun May  3 17:26:02 2020, MaxMem= 1073741824 cpu:       0.8
 (Enter /home/matheus/.gaussian/g09/l303.exe)
 DipDrv:  MaxL=1.
 Leave Link  303 at Sun May  3 17:26:02 2020, MaxMem= 1073741824 cpu:       0.1
 (Enter /home/matheus/.gaussian/g09/l401.exe)
 Harris functional with IExCor= 4639 diagonalized for initial guess.
 ExpMin= 2.53D-02 ExpMax= 1.53D+04 ExpMxC= 5.22D+02 IAcc=3 IRadAn=         5 AccDes= 0.00D+00
 HarFok:  IExCor= 4639 AccDes= 0.00D+00 IRadAn=         5 IDoV= 1
 ScaDFX=  1.000000  1.000000  1.000000  1.000000
 FoFCou: FMM=F IPFlag=           0 FMFlag=      100000 FMFlg1=           0
         NFxFlg=           0 DoJE=T BraDBF=F KetDBF=T FulRan=T
         Omega=  0.000000  0.000000  1.000000  0.000000  0.000000 ICntrl=     500 IOpCl=  0
         NMat0=    1 NMatS0=    1 NMatT0=    0 NMatD0=    1 NMtDS0=    0 NMtDT0=    0
         I1Cent=           4 NGrid=           0.
 Petite list used in FoFCou.
 Harris En= -145.942518950459    
 Initial guess orbital symmetries:
       Occupied  (A) (A) (A) (A) (A) (A) (A) (A) (A)
       Virtual   (A) (A) (A) (A) (A) (A) (A) (A) (A) (A) (A) (A)
                 (A) (A) (A) (A) (A) (A) (A) (A) (A) (A) (A) (A)
                 (A) (A) (A) (A) (A) (A) (A) (A) (A) (A) (A) (A)
                 (A) (A) (A) (A) (A) (A) (A) (A) (A) (A) (A) (A)
                 (A) (A) (A) (A) (A) (A) (A) (A) (A) (A) (A) (A)
                 (A) (A) (A) (A) (A) (A) (A) (A) (A) (A) (A) (A)
                 (A) (A) (A) (A) (A) (A) (A) (A) (A) (A) (A) (A)
                 (A) (A) (A) (A) (A) (A) (A) (A) (A) (A) (A) (A)
                 (A) (A) (A) (A) (A) (A) (A) (A) (A) (A) (A) (A)
                 (A) (A) (A) (A) (A) (A) (A) (A) (A) (A) (A) (A)
                 (A) (A) (A) (A) (A) (A) (A) (A) (A)
 The electronic state of the initial guess is 1-A.
 Leave Link  401 at Sun May  3 17:26:02 2020, MaxMem= 1073741824 cpu:       2.4
 (Enter /home/matheus/.gaussian/g09/l502.exe)
 Closed shell SCF:
 Requested convergence on RMS density matrix=1.00D-08 within 128 cycles.
 Requested convergence on MAX density matrix=1.00D-06.
 Requested convergence on             energy=1.00D-06.
 No special actions if energy rises.
 Using DIIS extrapolation, IDIIS=  1040.
 Integral symmetry usage will be decided dynamically.
        94980 words used for storage of precomputed grid.
 IEnd=      192360 IEndB=      192360 NGot=  1073741824 MDV=  1073591865
 LenX=  1073591865 LenY=  1073565824
 Fock matrices will be formed incrementally for  20 cycles.

 Cycle   1  Pass 1  IDiag  1:
 FoFJK:  IHMeth= 1 ICntrl=     0 DoSepK=T KAlg= 1 I1Cent= 0 FoldK=F
 FoFCou: FMM=F IPFlag=           0 FMFlag=      100000 FMFlg1=           0
         NFxFlg=           0 DoJE=T BraDBF=F KetDBF=F FulRan=T
         Omega=  0.000000  0.000000  1.000000  0.000000  0.000000 ICntrl=     500 IOpCl=  0
         NMat0=    1 NMatS0=    1 NMatT0=    0 NMatD0=    1 NMtDS0=    0 NMtDT0=    0
         I1Cent=           0 NGrid=           0.
 Symmetry not used in FoFCou.
 E= -151.459574744440    
 DIIS: error= 5.14D-02 at cycle   1 NSaved=   1.
 NSaved= 1 IEnMin= 1 EnMin= -151.459574744440     IErMin= 1 ErrMin= 5.14D-02
 ErrMax= 5.14D-02 EMaxC= 1.00D-01 BMatC= 3.18D-01 BMatP= 3.18D-01
 IDIUse=3 WtCom= 4.86D-01 WtEn= 5.14D-01
 Coeff-Com:  0.100D+01
 Coeff-En:   0.100D+01
 Coeff:      0.100D+01
 Gap=     0.529 Goal=   None    Shift=    0.000
 GapD=    0.529 DampG=2.000 DampE=0.500 DampFc=1.0000 IDamp=-1.
 RMSDP=3.29D-03 MaxDP=9.04D-02              OVMax= 1.24D-01

 Cycle   2  Pass 1  IDiag  1:
 RMSU=  2.30D-03    CP:  9.63D-01
 FoFJK:  IHMeth= 1 ICntrl=     0 DoSepK=T KAlg= 1 I1Cent= 0 FoldK=F
 E= -151.497808392611     Delta-E=       -0.038233648171 Rises=F Damp=F
 DIIS: error= 2.93D-02 at cycle   2 NSaved=   2.
 NSaved= 2 IEnMin= 2 EnMin= -151.497808392611     IErMin= 2 ErrMin= 2.93D-02
 ErrMax= 2.93D-02 EMaxC= 1.00D-01 BMatC= 1.02D-01 BMatP= 3.18D-01
 IDIUse=3 WtCom= 7.07D-01 WtEn= 2.93D-01
 Coeff-Com:  0.341D+00 0.659D+00
 Coeff-En:   0.348D+00 0.652D+00
 Coeff:      0.343D+00 0.657D+00
 Gap=     0.466 Goal=   None    Shift=    0.000
 RMSDP=1.37D-03 MaxDP=4.59D-02 DE=-3.82D-02 OVMax= 5.94D-02

 Cycle   3  Pass 1  IDiag  1:
 RMSU=  5.31D-04    CP:  9.80D-01  6.54D-01
 FoFJK:  IHMeth= 1 ICntrl=     0 DoSepK=T KAlg= 1 I1Cent= 0 FoldK=F
 E= -151.553487460893     Delta-E=       -0.055679068281 Rises=F Damp=F
 DIIS: error= 6.76D-03 at cycle   3 NSaved=   3.
 NSaved= 3 IEnMin= 3 EnMin= -151.553487460893     IErMin= 3 ErrMin= 6.76D-03
 ErrMax= 6.76D-03 EMaxC= 1.00D-01 BMatC= 5.22D-03 BMatP= 1.02D-01
 IDIUse=3 WtCom= 9.32D-01 WtEn= 6.76D-02
 Coeff-Com:  0.717D-02 0.189D+00 0.804D+00
 Coeff-En:   0.000D+00 0.000D+00 0.100D+01
 Coeff:      0.668D-02 0.176D+00 0.817D+00
 Gap=     0.410 Goal=   None    Shift=    0.000
 RMSDP=3.62D-04 MaxDP=1.00D-02 DE=-5.57D-02 OVMax= 1.62D-02

 Cycle   4  Pass 1  IDiag  1:
 RMSU=  1.03D-04    CP:  9.76D-01  7.50D-01  8.76D-01
 FoFJK:  IHMeth= 1 ICntrl=     0 DoSepK=T KAlg= 1 I1Cent= 0 FoldK=F
 E= -151.556831163124     Delta-E=       -0.003343702231 Rises=F Damp=F
 DIIS: error= 8.16D-04 at cycle   4 NSaved=   4.
 NSaved= 4 IEnMin= 4 EnMin= -151.556831163124     IErMin= 4 ErrMin= 8.16D-04
 ErrMax= 8.16D-04 EMaxC= 1.00D-01 BMatC= 6.10D-05 BMatP= 5.22D-03
 IDIUse=3 WtCom= 9.92D-01 WtEn= 8.16D-03
 Coeff-Com: -0.181D-02-0.191D-01 0.269D-01 0.994D+00
 Coeff-En:   0.000D+00 0.000D+00 0.000D+00 0.100D+01
[...]
 ErrMax= 5.36D-07 EMaxC= 1.00D-01 BMatC= 9.64D-11 BMatP= 3.79D-09
 IDIUse=1 WtCom= 1.00D+00 WtEn= 0.00D+00
 Coeff-Com:  0.286D-03-0.129D+00 0.113D+01
 Coeff:      0.286D-03-0.129D+00 0.113D+01
 Gap=     0.512 Goal=   None    Shift=    0.000
 RMSDP=2.16D-07 MaxDP=7.94D-06 DE=-6.98D-09 OVMax= 1.02D-05

 Cycle   4  Pass 1  IDiag  1:
 RMSU=  6.01D-08    CP:  1.00D+00  1.08D+00  1.21D+00
 FoFJK:  IHMeth= 1 ICntrl=     0 DoSepK=T KAlg= 1 I1Cent= 0 FoldK=F
 E= -2753.87012720234     Delta-E=       -0.000000000200 Rises=F Damp=F
 DIIS: error= 3.84D-07 at cycle   4 NSaved=   4.
 NSaved= 4 IEnMin= 4 EnMin= -2753.87012720234     IErMin= 4 ErrMin= 3.84D-07
 ErrMax= 3.84D-07 EMaxC= 1.00D-01 BMatC= 7.69D-12 BMatP= 9.64D-11
 IDIUse=1 WtCom= 1.00D+00 WtEn= 0.00D+00
 Coeff-Com:  0.203D-03-0.467D-01 0.281D+00 0.765D+00
 Coeff:      0.203D-03-0.467D-01 0.281D+00 0.765D+00
 Gap=     0.512 Goal=   None    Shift=    0.000
 RMSDP=2.20D-08 MaxDP=1.15D-06 DE=-2.00D-10 OVMax= 1.15D-06

 Cycle   5  Pass 1  IDiag  1:
 RMSU=  8.21D-09    CP:  1.00D+00  1.08D+00  1.23D+00  1.13D+00
 FoFJK:  IHMeth= 1 ICntrl=     0 DoSepK=T KAlg= 1 I1Cent= 0 FoldK=F
 E= -2753.87012720235     Delta-E=       -0.000000000007 Rises=F Damp=F
 DIIS: error= 3.11D-08 at cycle   5 NSaved=   5.
 NSaved= 5 IEnMin= 5 EnMin= -2753.87012720235     IErMin= 5 ErrMin= 3.11D-08
 ErrMax= 3.11D-08 EMaxC= 1.00D-01 BMatC= 1.35D-13 BMatP= 7.69D-12
 IDIUse=1 WtCom= 1.00D+00 WtEn= 0.00D+00
 Coeff-Com: -0.321D-04 0.100D-01-0.764D-01-0.609D-01 0.113D+01
 Coeff:     -0.321D-04 0.100D-01-0.764D-01-0.609D-01 0.113D+01
 Gap=     0.512 Goal=   None    Shift=    0.000
 RMSDP=1.12D-08 MaxDP=6.86D-07 DE=-7.28D-12 OVMax= 4.22D-07

 Cycle   6  Pass 1  IDiag  1:
 RMSU=  1.45D-09    CP:  1.00D+00  1.08D+00  1.23D+00  1.22D+00  1.17D+00
 FoFJK:  IHMeth= 1 ICntrl=     0 DoSepK=T KAlg= 1 I1Cent= 0 FoldK=F
 E= -2753.87012720234     Delta-E=        0.000000000004 Rises=F Damp=F
 DIIS: error= 2.92D-09 at cycle   6 NSaved=   6.
 NSaved= 6 IEnMin= 5 EnMin= -2753.87012720235     IErMin= 6 ErrMin= 2.92D-09
 ErrMax= 2.92D-09 EMaxC= 1.00D-01 BMatC= 1.63D-15 BMatP= 1.35D-13
 IDIUse=1 WtCom= 1.00D+00 WtEn= 0.00D+00
 Coeff-Com:  0.223D-05-0.850D-03 0.738D-02 0.535D-03-0.150D+00 0.114D+01
 Coeff:      0.223D-05-0.850D-03 0.738D-02 0.535D-03-0.150D+00 0.114D+01
 Gap=     0.512 Goal=   None    Shift=    0.000
 RMSDP=5.38D-10 MaxDP=2.68D-08 DE= 4.09D-12 OVMax= 4.77D-08

 SCF Done:  E(RwB97XD) =  -2753.87012720     A.U. after    6 cycles
             Convg  =    0.5378D-09             -V/T =  2.0013
 KE= 2.750283256165D+03 PE=-6.580194535639D+03 EE= 1.076041152272D+03
 Leave Link  502 at Sun May  3 17:48:34 2020, MaxMem= 1073741824 cpu:     108.3
 (Enter /home/matheus/.gaussian/g09/l122.exe)
 Restoring MOs from calculation   4 to rwf.
 Counterpoise: doing MCBS calculation for fragment   1
 Leave Link  122 at Sun May  3 17:48:34 2020, MaxMem= 1073741824 cpu:       0.0
 (Enter /home/matheus/.gaussian/g09/l301.exe)
 Basis read from rwf:  (5D, 7F)
 No pseudopotential information found on rwf file.
 There are   138 symmetry adapted basis functions of A   symmetry.
 Integral buffers will be    131072 words long.
 Raffenetti 2 integral format.
 Two-electron integral symmetry is turned on.
   138 basis functions,   198 primitive gaussians,   160 cartesian basis functions
     9 alpha electrons        9 beta electrons
       nuclear repulsion energy        36.6009457491 Hartrees.
 IExCor= 4639 DFT=T Ex+Corr=wB97XD ExCW=0 ScaHFX=  1.000000
 ScaDFX=  1.000000  1.000000  1.000000  1.000000 ScalE2=  1.000000  1.000000
 IRadAn=      5 IRanWt=     -1 IRanGd=            0 ICorTp=0
  HFx wShort=  0.000000 wLong=  0.250000 cFull=  0.222036 cShort=  0.000000 cLong=  0.777964
  DFx wShort=  0.000000 wLong=  0.250000 cFull=  0.000000 cShort=  0.000000 cLong=  1.000000
 NAtoms=    5 NActive=    4 NUniq=    4 SFac= 1.00D+00 NAtFMM=   60 NAOKFM=F Big=F
 R6Disp: Dispersion energy =        -0.0001980872 Hartrees.
 Nuclear repulsion after empirical dispersion term =       36.6007476619 Hartrees.
 No density basis found on file   718.
 Leave Link  301 at Sun May  3 17:48:34 2020, MaxMem= 1073741824 cpu:       0.2
 (Enter /home/matheus/.gaussian/g09/l302.exe)
 NPDir=0 NMtPBC=     1 NCelOv=     1 NCel=       1 NClECP=     1 NCelD=      1
         NCelK=      1 NCelE2=     1 NClLst=     1 CellRange=     0.0.
 One-electron integrals computed using PRISM.
 NBasis=   138 RedAO= T  NBF=   138
 NBsUse=   138 1.00D-06 NBFU=   138
 Precomputing XC quadrature grid using
 IXCGrd= 2 IRadAn=           5 IRanWt=          -1 IRanGd=           0 AccXCQ= 0.00D+00.
 NRdTot=     344 NPtTot=       92556 NUsed=       95038 NTot=       95070
 NSgBfM=   160   160   160   160   160 NAtAll=     4     4.
 Leave Link  302 at Sun May  3 17:48:34 2020, MaxMem= 1073741824 cpu:       0.8
 (Enter /home/matheus/.gaussian/g09/l303.exe)
 DipDrv:  MaxL=1.
 Leave Link  303 at Sun May  3 17:48:34 2020, MaxMem= 1073741824 cpu:       0.1
 (Enter /home/matheus/.gaussian/g09/l401.exe)
 Initial guess read from the read-write file.
 Guess basis will be translated and rotated to current coordinates.
 Initial guess orbital symmetries:
       Occupied  (A) (A) (A) (A) (A) (A) (A) (A) (A)
       Virtual   (A) (A) (A) (A) (A) (A) (A) (A) (A) (A) (A) (A)
                 (A) (A) (A) (A) (A) (A) (A) (A) (A) (A) (A) (A)
                 (A) (A) (A) (A) (A) (A) (A) (A) (A) (A) (A) (A)
                 (A) (A) (A) (A) (A) (A) (A) (A) (A) (A) (A) (A)
                 (A) (A) (A) (A) (A) (A) (A) (A) (A) (A) (A) (A)
                 (A) (A) (A) (A) (A) (A) (A) (A) (A) (A) (A) (A)
                 (A) (A) (A) (A) (A) (A) (A) (A) (A) (A) (A) (A)
                 (A) (A) (A) (A) (A) (A) (A) (A) (A) (A) (A) (A)
                 (A) (A) (A) (A) (A) (A) (A) (A) (A) (A) (A) (A)
                 (A) (A) (A) (A) (A) (A) (A) (A) (A) (A) (A) (A)
                 (A) (A) (A) (A) (A) (A) (A) (A) (A)
 The electronic state of the initial guess is 1-A.
 Generating alternative initial guess.
 Harris functional with IExCor= 4639 diagonalized for initial guess.
 ExpMin= 2.53D-02 ExpMax= 1.53D+04 ExpMxC= 5.22D+02 IAcc=3 IRadAn=         5 AccDes= 0.00D+00
 HarFok:  IExCor= 4639 AccDes= 0.00D+00 IRadAn=         5 IDoV= 1
 ScaDFX=  1.000000  1.000000  1.000000  1.000000
 FoFCou: FMM=F IPFlag=           0 FMFlag=      100000 FMFlg1=           0
         NFxFlg=           0 DoJE=T BraDBF=F KetDBF=T FulRan=T
         Omega=  0.000000  0.000000  1.000000  0.000000  0.000000 ICntrl=     500 IOpCl=  0
         NMat0=    1 NMatS0=    1 NMatT0=    0 NMatD0=    1 NMtDS0=    0 NMtDT0=    0
         I1Cent=           4 NGrid=           0.
 Petite list used in FoFCou.
 Harris En= -145.942519014920    
 Leave Link  401 at Sun May  3 17:48:34 2020, MaxMem= 1073741824 cpu:       2.6
 (Enter /home/matheus/.gaussian/g09/l502.exe)
 Closed shell SCF:
 Requested convergence on RMS density matrix=1.00D-08 within 128 cycles.
 Requested convergence on MAX density matrix=1.00D-06.
 Requested convergence on             energy=1.00D-06.
 No special actions if energy rises.
 Using DIIS extrapolation, IDIIS=  1040.
 Integral symmetry usage will be decided dynamically.
        94980 words used for storage of precomputed grid.
 IEnd=      192360 IEndB=      192360 NGot=  1073741824 MDV=  1073591865
 LenX=  1073591865 LenY=  1073565824
 Fock matrices will be formed incrementally for  20 cycles.

 Cycle   1  Pass 1  IDiag  1:
 FoFJK:  IHMeth= 1 ICntrl=     0 DoSepK=T KAlg= 1 I1Cent= 0 FoldK=F
 FoFCou: FMM=F IPFlag=           0 FMFlag=      100000 FMFlg1=           0
         NFxFlg=           0 DoJE=T BraDBF=F KetDBF=F FulRan=T
         Omega=  0.000000  0.000000  1.000000  0.000000  0.000000 ICntrl=     500 IOpCl=  0
         NMat0=    1 NMatS0=    1 NMatT0=    0 NMatD0=    1 NMtDS0=    0 NMtDT0=    0
         I1Cent=           0 NGrid=           0.
 Symmetry not used in FoFCou.
 E= -151.556879700669    
 DIIS: error= 2.62D-05 at cycle   1 NSaved=   1.
 NSaved= 1 IEnMin= 1 EnMin= -151.556879700669     IErMin= 1 ErrMin= 2.62D-05
 ErrMax= 2.62D-05 EMaxC= 1.00D-01 BMatC= 4.10D-08 BMatP= 4.10D-08
 IDIUse=1 WtCom= 1.00D+00 WtEn= 0.00D+00
 Coeff-Com:  0.100D+01
 Coeff:      0.100D+01
 Gap=     0.406 Goal=   None    Shift=    0.000
 RMSDP=1.03D-06 MaxDP=2.17D-05              OVMax= 9.08D-05

 Cycle   2  Pass 1  IDiag  1:
 RMSU=  7.25D-07    CP:  1.00D+00
 FoFJK:  IHMeth= 1 ICntrl=     0 DoSepK=T KAlg= 1 I1Cent= 0 FoldK=F
 E= -151.556879741922     Delta-E=       -0.000000041253 Rises=F Damp=F
 DIIS: error= 4.36D-06 at cycle   2 NSaved=   2.
 NSaved= 2 IEnMin= 2 EnMin= -151.556879741922     IErMin= 2 ErrMin= 4.36D-06
 ErrMax= 4.36D-06 EMaxC= 1.00D-01 BMatC= 1.38D-09 BMatP= 4.10D-08
 IDIUse=1 WtCom= 1.00D+00 WtEn= 0.00D+00
 Coeff-Com: -0.127D+00 0.113D+01
 Coeff:     -0.127D+00 0.113D+01
 Gap=     0.406 Goal=   None    Shift=    0.000
 RMSDP=3.59D-07 MaxDP=7.40D-06 DE=-4.13D-08 OVMax= 3.45D-05

 Cycle   3  Pass 1  IDiag  1:
 RMSU=  1.64D-07    CP:  1.00D+00  1.27D+00
 FoFJK:  IHMeth= 1 ICntrl=     0 DoSepK=T KAlg= 1 I1Cent= 0 FoldK=F
 E= -151.556879745155     Delta-E=       -0.000000003233 Rises=F Damp=F
 DIIS: error= 1.19D-06 at cycle   3 NSaved=   3.
 NSaved= 3 IEnMin= 3 EnMin= -151.556879745155     IErMin= 3 ErrMin= 1.19D-06
 ErrMax= 1.19D-06 EMaxC= 1.00D-01 BMatC= 1.24D-10 BMatP= 1.38D-09
 IDIUse=1 WtCom= 1.00D+00 WtEn= 0.00D+00
 Coeff-Com: -0.224D-01 0.354D-01 0.987D+00
 Coeff:     -0.224D-01 0.354D-01 0.987D+00
 Gap=     0.406 Goal=   None    Shift=    0.000
 RMSDP=1.06D-07 MaxDP=2.11D-06 DE=-3.23D-09 OVMax= 9.97D-06

 Cycle   4  Pass 1  IDiag  1:
 RMSU=  4.78D-08    CP:  1.00D+00  1.33D+00  1.21D+00
 FoFJK:  IHMeth= 1 ICntrl=     0 DoSepK=T KAlg= 1 I1Cent= 0 FoldK=F
 E= -151.556879745367     Delta-E=       -0.000000000212 Rises=F Damp=F
 DIIS: error= 7.11D-07 at cycle   4 NSaved=   4.
 NSaved= 4 IEnMin= 4 EnMin= -151.556879745367     IErMin= 4 ErrMin= 7.11D-07
 ErrMax= 7.11D-07 EMaxC= 1.00D-01 BMatC= 6.19D-11 BMatP= 1.24D-10
 IDIUse=1 WtCom= 1.00D+00 WtEn= 0.00D+00
 Coeff-Com:  0.848D-02-0.157D+00 0.443D+00 0.705D+00
 Coeff:      0.848D-02-0.157D+00 0.443D+00 0.705D+00
 Gap=     0.406 Goal=   None    Shift=    0.000
 RMSDP=4.82D-08 MaxDP=1.95D-06 DE=-2.12D-10 OVMax= 3.49D-06

 Cycle   5  Pass 1  IDiag  1:
 RMSU=  1.20D-08    CP:  1.00D+00  1.34D+00  1.38D+00  7.60D-01
 FoFJK:  IHMeth= 1 ICntrl=     0 DoSepK=T KAlg= 1 I1Cent= 0 FoldK=F
 E= -151.556879745422     Delta-E=       -0.000000000054 Rises=F Damp=F
 DIIS: error= 1.52D-07 at cycle   5 NSaved=   5.
 NSaved= 5 IEnMin= 5 EnMin= -151.556879745422     IErMin= 5 ErrMin= 1.52D-07
 ErrMax= 1.52D-07 EMaxC= 1.00D-01 BMatC= 3.34D-12 BMatP= 6.19D-11
 IDIUse=1 WtCom= 1.00D+00 WtEn= 0.00D+00
 Coeff-Com:  0.446D-02-0.612D-01 0.104D+00 0.255D+00 0.697D+00
 Coeff:      0.446D-02-0.612D-01 0.104D+00 0.255D+00 0.697D+00
 Gap=     0.406 Goal=   None    Shift=    0.000
 RMSDP=1.04D-08 MaxDP=2.90D-07 DE=-5.43D-11 OVMax= 7.11D-07

 Cycle   6  Pass 1  IDiag  1:
 RMSU=  5.98D-09    CP:  1.00D+00  1.34D+00  1.40D+00  8.09D-01  9.20D-01
 FoFJK:  IHMeth= 1 ICntrl=     0 DoSepK=T KAlg= 1 I1Cent= 0 FoldK=F
 E= -151.556879745424     Delta-E=       -0.000000000002 Rises=F Damp=F
 DIIS: error= 7.67D-08 at cycle   6 NSaved=   6.
 NSaved= 6 IEnMin= 6 EnMin= -151.556879745424     IErMin= 6 ErrMin= 7.67D-08
 ErrMax= 7.67D-08 EMaxC= 1.00D-01 BMatC= 8.56D-13 BMatP= 3.34D-12
 IDIUse=1 WtCom= 1.00D+00 WtEn= 0.00D+00
 Coeff-Com:  0.421D-03 0.238D-02-0.384D-01-0.190D-01 0.341D+00 0.714D+00
 Coeff:      0.421D-03 0.238D-02-0.384D-01-0.190D-01 0.341D+00 0.714D+00
 Gap=     0.406 Goal=   None    Shift=    0.000
 RMSDP=4.63D-09 MaxDP=1.34D-07 DE=-2.25D-12 OVMax= 3.11D-07

 SCF Done:  E(RwB97XD) =  -151.556879745     A.U. after    6 cycles
             Convg  =    0.4629D-08             -V/T =  2.0061
 KE= 1.506332174358D+02 PE=-4.316723446793D+02 EE= 9.288149983615D+01
 Leave Link  502 at Sun May  3 17:48:40 2020, MaxMem= 1073741824 cpu:      45.7
 (Enter /home/matheus/.gaussian/g09/l122.exe)
 Restoring MOs from calculation   5 to rwf.
 Counterpoise: doing MCBS calculation for fragment   2
 Leave Link  122 at Sun May  3 17:48:40 2020, MaxMem= 1073741824 cpu:       0.0
 (Enter /home/matheus/.gaussian/g09/l301.exe)
 Basis read from rwf:  (5D, 7F)
 No pseudopotential information found on rwf file.
 There are    59 symmetry adapted basis functions of A   symmetry.
 Integral buffers will be    131072 words long.
 Raffenetti 2 integral format.
 Two-electron integral symmetry is turned on.
    59 basis functions,   217 primitive gaussians,    69 cartesian basis functions
    18 alpha electrons       18 beta electrons
       nuclear repulsion energy         0.0000000000 Hartrees.
 IExCor= 4639 DFT=T Ex+Corr=wB97XD ExCW=0 ScaHFX=  1.000000
 ScaDFX=  1.000000  1.000000  1.000000  1.000000 ScalE2=  1.000000  1.000000
 IRadAn=      5 IRanWt=     -1 IRanGd=            0 ICorTp=0
  HFx wShort=  0.000000 wLong=  0.250000 cFull=  0.222036 cShort=  0.000000 cLong=  0.777964
  DFx wShort=  0.000000 wLong=  0.250000 cFull=  0.000000 cShort=  0.000000 cLong=  1.000000
 NAtoms=    5 NActive=    1 NUniq=    1 SFac= 1.00D+00 NAtFMM=   60 NAOKFM=F Big=F
 R6Disp: Dispersion energy =         0.0000000000 Hartrees.
 Nuclear repulsion after empirical dispersion term =        0.0000000000 Hartrees.
 No density basis found on file   718.
 Leave Link  301 at Sun May  3 17:48:40 2020, MaxMem= 1073741824 cpu:       0.2
 (Enter /home/matheus/.gaussian/g09/l302.exe)
 NPDir=0 NMtPBC=     1 NCelOv=     1 NCel=       1 NClECP=     1 NCelD=      1
         NCelK=      1 NCelE2=     1 NClLst=     1 CellRange=     0.0.
 One-electron integrals computed using PRISM.
 NBasis=    59 RedAO= T  NBF=    59
 NBsUse=    59 1.00D-06 NBFU=    59
 Precomputing XC quadrature grid using
 IXCGrd= 2 IRadAn=           5 IRanWt=          -1 IRanGd=           0 AccXCQ= 0.00D+00.
 NRdTot=      81 NPtTot=       30352 NUsed=       30981 NTot=       31013
 NSgBfM=    69    69    69    69    69 NAtAll=     1     1.
 Leave Link  302 at Sun May  3 17:48:40 2020, MaxMem= 1073741824 cpu:       0.6
 (Enter /home/matheus/.gaussian/g09/l303.exe)
 DipDrv:  MaxL=1.
 Leave Link  303 at Sun May  3 17:48:40 2020, MaxMem= 1073741824 cpu:       0.1
 (Enter /home/matheus/.gaussian/g09/l401.exe)
 Initial guess read from the read-write file.
 Guess basis will be translated and rotated to current coordinates.
 Initial guess orbital symmetries:
       Occupied  (A) (A) (A) (A) (A) (A) (A) (A) (A) (A) (A) (A)
                 (A) (A) (A) (A) (A) (A)
       Virtual   (A) (A) (A) (A) (A) (A) (A) (A) (A) (A) (A) (A)
                 (A) (A) (A) (A) (A) (A) (A) (A) (A) (A) (A) (A)
                 (A) (A) (A) (A) (A) (A) (A) (A) (A) (A) (A) (A)
                 (A) (A) (A) (A) (A)
 The electronic state of the initial guess is 1-A.
 Generating alternative initial guess.
 Harris functional with IExCor= 4639 diagonalized for initial guess.
 ExpMin= 4.00D-02 ExpMax= 1.17D+07 ExpMxC= 1.33D+04 IAcc=3 IRadAn=         5 AccDes= 0.00D+00
 HarFok:  IExCor= 4639 AccDes= 0.00D+00 IRadAn=         5 IDoV= 1
 ScaDFX=  1.000000  1.000000  1.000000  1.000000
 FoFCou: FMM=F IPFlag=           0 FMFlag=      100000 FMFlg1=           0
         NFxFlg=           0 DoJE=T BraDBF=F KetDBF=T FulRan=T
         Omega=  0.000000  0.000000  1.000000  0.000000  0.000000 ICntrl=     500 IOpCl=  0
         NMat0=    1 NMatS0=    1 NMatT0=    0 NMatD0=    1 NMtDS0=    0 NMtDT0=    0
         I1Cent=           4 NGrid=           0.
 Petite list used in FoFCou.
 DSYEVD returned Info=         119 IAlg= 4 N=    59 NDim=    59 NE2=    18198841 trying DSYEV.
 Harris En= -2729.45839233129    
 Leave Link  401 at Sun May  3 17:48:40 2020, MaxMem= 1073741824 cpu:       1.0
 (Enter /home/matheus/.gaussian/g09/l502.exe)
 Closed shell SCF:
 Requested convergence on RMS density matrix=1.00D-08 within 128 cycles.
 Requested convergence on MAX density matrix=1.00D-06.
 Requested convergence on             energy=1.00D-06.
 No special actions if energy rises.
 Using DIIS extrapolation, IDIIS=  1040.
 Integral symmetry usage will be decided dynamically.
        30923 words used for storage of precomputed grid.
 IEnd=       64406 IEndB=       64406 NGot=  1073741824 MDV=  1073698889
 LenX=  1073698889 LenY=  1073693687
 Fock matrices will be formed incrementally for  20 cycles.

 Cycle   1  Pass 1  IDiag  1:
 FoFJK:  IHMeth= 1 ICntrl=     0 DoSepK=T KAlg= 1 I1Cent= 0 FoldK=F
 FoFCou: FMM=F IPFlag=           0 FMFlag=      100000 FMFlg1=           0
         NFxFlg=           0 DoJE=T BraDBF=F KetDBF=F FulRan=T
         Omega=  0.000000  0.000000  1.000000  0.000000  0.000000 ICntrl=     500 IOpCl=  0
         NMat0=    1 NMatS0=    1 NMatT0=    0 NMatD0=    1 NMtDS0=    0 NMtDT0=    0
         I1Cent=           0 NGrid=           0.
 Symmetry not used in FoFCou.
 E= -2753.87011063501    
 DIIS: error= 1.11D-13 at cycle   1 NSaved=   1.
 NSaved= 1 IEnMin= 1 EnMin= -2753.87011063501     IErMin= 1 ErrMin= 1.11D-13
 ErrMax= 1.11D-13 EMaxC= 1.00D-01 BMatC= 2.76D-25 BMatP= 2.76D-25
 IDIUse=1 WtCom= 1.00D+00 WtEn= 0.00D+00
 Coeff-Com:  0.100D+01
 Coeff:      0.100D+01
 Gap=     0.578 Goal=   None    Shift=    0.000
 RMSDP=1.13D-14 MaxDP=2.03D-13              OVMax= 6.75D-14

 SCF Done:  E(RwB97XD) =  -2753.87011064     A.U. after    1 cycles
             Convg  =    0.1131D-13             -V/T =  2.0013
 KE= 2.750289370128D+03 PE=-6.580200885036D+03 EE= 1.076041404273D+03
 Leave Link  502 at Sun May  3 17:48:42 2020, MaxMem= 1073741824 cpu:      11.8
 (Enter /home/matheus/.gaussian/g09/l122.exe)
 Restoring MOs from calculation   1 to rwf.
 Counterpoise: corrected energy =   -2905.427283697278
 Counterpoise: BSSE energy =       0.000020989928
 Leave Link  122 at Sun May  3 17:48:42 2020, MaxMem= 1073741824 cpu:       0.0
 (Enter /home/matheus/.gaussian/g09/l108.exe)
 Scan completed.

 Summary of the potential surface scan:
   N      R1          SCF    
 ----  ---------  -----------
    1     3.0000  -2753.87011
    2     3.1000  -2753.87011
    3     3.2000  -2753.87011
    4     3.3000  -2753.87011
    5     3.4000  -2753.87011
    6     3.5000  -2753.87011
    7     3.6000  -2753.87011
    8     3.7000  -2753.87011
    9     3.8000  -2753.87011
   10     3.9000  -2753.87011
   11     4.0000  -2753.87011
   12     4.1000  -2753.87011
   13     4.2000  -2753.87011
   14     4.3000  -2753.87011
   15     4.4000  -2753.87011
   16     4.5000  -2753.87011
   17     4.6000  -2753.87011
   18     4.7000  -2753.87011
   19     4.8000  -2753.87011
   20     4.9000  -2753.87011
   21     5.0000  -2753.87011
 ----  ---------  -----------
  
 Leave Link  108 at Sun May  3 17:48:42 2020, MaxMem= 1073741824 cpu:       0.0
 (Enter /home/matheus/.gaussian/g09/l9999.exe)

 Test job not archived.
 1\1\GINC-REDGIANT\Scan\RwB97XD\Aug-CC-pVTZ\H2Kr1O2\ROOT\03-May-2020\1\
 \#p wb97xd/aug-cc-PVTz iop(3/107=0250000000) iop(3/108=0250000000) int
 =ultrafine counterpoise=2 Scan\\TCC\\0,1\O,0,0.,0.,0.725\O,0,0.,0.,-0.
 725\H,0,-0.1595341571,-0.9047631646,1.0235104166\H,0,0.,0.9187205947,-
 1.0235104166\Kr,0,0.,R1,0.\\R1=3.,s,20,0.1\\Version=EM64L-G09RevC.01\S
 tate=1-A\HF=-2753.8701106,-2753.8701106,-2753.8701106,-2753.8701106,-2
 753.8701106,-2753.8701106,-2753.8701106,-2753.8701106,-2753.8701106,-2
 753.8701106,-2753.8701106,-2753.8701106,-2753.8701106,-2753.8701106,-2
 753.8701106,-2753.8701106,-2753.8701106,-2753.8701106,-2753.8701106,-2
 753.8701106,-2753.8701106\RMSD=9.654e-09,1.848e-10,5.406e-11,3.458e-11
 ,1.948e-11,1.188e-11,7.098e-12,4.278e-12,2.574e-12,1.549e-12,9.314e-13
 ,5.615e-13,3.340e-13,2.037e-13,1.199e-13,6.952e-14,4.178e-14,2.402e-14
 ,1.389e-14,1.437e-14,1.131e-14\PG=C01 [X(H2Kr1O2)]\\@


 SI MONUMENTUM REQUIRIS, CIRCUMSPICE
     -- FROM SIR CHRISTOPHER WREN'S TOMBSTONE
 Job cpu time:  0 days  3 hours 13 minutes 42.2 seconds.
 File lengths (MBytes):  RWF=     33 Int=      0 D2E=      0 Chk=      8 Scr=      1
 Normal termination of Gaussian 09 at Sun May  3 17:48:42 2020.
