 Entering Gaussian System, Link 0=g09
 Input=/home/matheus/.tcc/Inputs-wb97xd/H2O2-Kr_3.com
 Output=/home/matheus/.tcc/Logs-wb97xd/H2O2-Kr_3.log
 Initial command:
 /home/matheus/.gaussian/g09/l1.exe /home/matheus/.gaussian/g09/scratch/Gau-23110.inp -scrdir=/home/matheus/.gaussian/g09/scratch/
 Entering Link 1 = /home/matheus/.gaussian/g09/l1.exe PID=     23113.
  
 Copyright (c) 1988,1990,1992,1993,1995,1998,2003,2009,2011,
            Gaussian, Inc.  All Rights Reserved.
  
 This is part of the Gaussian(R) 09 program.  It is based on
 the Gaussian(R) 03 system (copyright 2003, Gaussian, Inc.),
 the Gaussian(R) 98 system (copyright 1998, Gaussian, Inc.),
 the Gaussian(R) 94 system (copyright 1995, Gaussian, Inc.),
 the Gaussian 92(TM) system (copyright 1992, Gaussian, Inc.),
 the Gaussian 90(TM) system (copyright 1990, Gaussian, Inc.),
 the Gaussian 88(TM) system (copyright 1988, Gaussian, Inc.),
 the Gaussian 86(TM) system (copyright 1986, Carnegie Mellon
 University), and the Gaussian 82(TM) system (copyright 1983,
 Carnegie Mellon University). Gaussian is a federally registered
 trademark of Gaussian, Inc.
  
 This software contains proprietary and confidential information,
 including trade secrets, belonging to Gaussian, Inc.
  
 This software is provided under written license and may be
 used, copied, transmitted, or stored only in accord with that
 written license.
  
 The following legend is applicable only to US Government
 contracts under FAR:
  
                    RESTRICTED RIGHTS LEGEND
  
 Use, reproduction and disclosure by the US Government is
 subject to restrictions as set forth in subparagraphs (a)
 and (c) of the Commercial Computer Software - Restricted
 Rights clause in FAR 52.227-19.
  
 Gaussian, Inc.
 340 Quinnipiac St., Bldg. 40, Wallingford CT 06492
  
  
 ---------------------------------------------------------------
 Warning -- This program may not be used in any manner that
 competes with the business of Gaussian, Inc. or will provide
 assistance to any competitor of Gaussian, Inc.  The licensee
 of this program is prohibited from giving any competitor of
 Gaussian, Inc. access to this program.  By using this program,
 the user acknowledges that Gaussian, Inc. is engaged in the
 business of creating and licensing software in the field of
 computational chemistry and represents and warrants to the
 licensee that it is not a competitor of Gaussian, Inc. and that
 it will not use this program in any manner prohibited above.
 ---------------------------------------------------------------
  

 Cite this work as:
 Gaussian 09, Revision C.01,
 M. J. Frisch, G. W. Trucks, H. B. Schlegel, G. E. Scuseria, 
 M. A. Robb, J. R. Cheeseman, G. Scalmani, V. Barone, B. Mennucci, 
 G. A. Petersson, H. Nakatsuji, M. Caricato, X. Li, H. P. Hratchian, 
 A. F. Izmaylov, J. Bloino, G. Zheng, J. L. Sonnenberg, M. Hada, 
 M. Ehara, K. Toyota, R. Fukuda, J. Hasegawa, M. Ishida, T. Nakajima, 
 Y. Honda, O. Kitao, H. Nakai, T. Vreven, J. A. Montgomery, Jr., 
 J. E. Peralta, F. Ogliaro, M. Bearpark, J. J. Heyd, E. Brothers, 
 K. N. Kudin, V. N. Staroverov, T. Keith, R. Kobayashi, J. Normand, 
 K. Raghavachari, A. Rendell, J. C. Burant, S. S. Iyengar, J. Tomasi, 
 M. Cossi, N. Rega, J. M. Millam, M. Klene, J. E. Knox, J. B. Cross, 
 V. Bakken, C. Adamo, J. Jaramillo, R. Gomperts, R. E. Stratmann, 
 O. Yazyev, A. J. Austin, R. Cammi, C. Pomelli, J. W. Ochterski, 
 R. L. Martin, K. Morokuma, V. G. Zakrzewski, G. A. Voth, 
 P. Salvador, J. J. Dannenberg, S. Dapprich, A. D. Daniels, 
 O. Farkas, J. B. Foresman, J. V. Ortiz, J. Cioslowski, 
 and D. J. Fox, Gaussian, Inc., Wallingford CT, 2010.
 
 ******************************************
 Gaussian 09:  EM64L-G09RevC.01 23-Sep-2011
                 3-May-2020 
 ******************************************
 %mem=8GB
 %nproc=8
 Will use up to    8 processors via shared memory.
 ----------------------------------------------------------------------
 #p wb97xd/aug-cc-PVTz iop(3/107=0250000000) iop(3/108=0250000000) int=
 ultrafine counterpoise=2 Scan
 ----------------------------------------------------------------------
 1/38=1,60=1,62=2/1,8;
 2/12=2,17=6,18=5,29=3,40=1/2;
 1/38=1,53=5172,62=2/22;
 3/5=16,6=1,7=10,11=2,16=1,25=1,30=1,74=-58,75=-5,107=250000000,108=250000000/1,2,3;
 4//1;
 5/5=2,38=5/2;
 6/7=2,8=2,9=2,10=2,18=1,28=1/1;
 1/53=4052,62=2,63=1/22;
 3/5=7,6=11,7=10,11=2,16=1,25=1,30=1,74=-58,75=-5,82=7,107=250000000,108=250000000/1,2,3;
 4//1;
 5/5=2,38=5/2;
 6/7=2,8=2,9=2,10=2,18=1,28=1/1;
 1/53=3042,62=2,63=2/22;
 3/5=7,6=11,7=10,11=2,16=1,25=1,30=1,74=-58,75=-5,82=7,107=250000000,108=250000000/1,2,3;
 4//1;
 5/5=2,38=5/2;
 6/7=2,8=2,9=2,10=2,18=1,28=1/1;
 1/53=2032,62=2,63=3/22;
 3/5=7,6=11,7=10,11=2,16=1,25=1,30=1,74=-58,75=-5,82=7,107=250000000,108=250000000/1,2,3;
 4//1;
 5/5=2,38=5/2;
 6/7=2,8=2,9=2,10=2,18=1,28=1/1;
 1/53=1022,62=2,63=4/22;
 3/5=7,6=11,7=10,11=2,16=1,25=1,30=1,74=-58,75=-5,82=7,107=250000000,108=250000000/1,2,3;
 4//1;
 5/5=2,38=5/2;
 6/7=2,8=2,9=2,10=2,18=1,28=1/1;
 1/53=5014,62=2,63=5/22;
 1/60=1,62=2/8(1);
 99/9=1/99;
 2/29=3/2;
 1/53=5173,62=2/22;
 3/5=7,6=11,7=10,11=2,16=1,25=1,30=1,74=-58,75=-5,82=7,107=250000000,108=250000000/1,2,3;
 4/5=5,16=3/1;
 5/5=2,38=5/2;
 1/53=4053,62=2,63=1/22;
 3/5=7,6=11,7=10,11=2,16=1,25=1,30=1,74=-58,75=-5,82=7,107=250000000,108=250000000/1,2,3;
 4/5=5,16=3/1;
 5/5=2,38=5/2;
 1/53=3043,62=2,63=2/22;
 3/5=7,6=11,7=10,11=2,16=1,25=1,30=1,74=-58,75=-5,82=7,107=250000000,108=250000000/1,2,3;
 4/5=5,16=3/1;
 5/5=2,38=5/2;
 1/53=2033,62=2,63=3/22;
 3/5=7,6=11,7=10,11=2,16=1,25=1,30=1,74=-58,75=-5,82=7,107=250000000,108=250000000/1,2,3;
 4/5=5,16=3/1;
 5/5=2,38=5/2;
 1/53=1024,62=2,63=4/22;
 3/5=7,6=11,7=10,11=2,16=1,25=1,30=1,74=-58,75=-5,82=7,107=250000000,108=250000000/1,2,3;
 4/5=5,16=3/1;
 5/5=2,38=5/2;
 1/53=5014,62=2,63=5/22;
 1/60=1,62=2/8(-22);
 99/9=1/99;
 Leave Link    1 at Sun May  3 10:31:03 2020, MaxMem= 1073741824 cpu:       0.2
 (Enter /home/matheus/.gaussian/g09/l101.exe)
 ---
 TCC
 ---
 Charge =  0 Multiplicity = 1 in supermolecule
 Charge =  0 Multiplicity = 1 in fragment  1.
 Charge =  0 Multiplicity = 1 in fragment  2.
 Symbolic Z-Matrix:
 O(Fragment=1)         0.        0.        0.725 
 O(Fragment=1)         0.        0.       -0.725 
 H(Fragment=1)         0.45936   0.79564   1.02351 
 H(Fragment=1)         0.        0.91872  -1.02351 
 Kr(Fragment=2)        0.       R1        0. 
       Variables:
  R1                    3.     Scan 20    0.1    
 
 NAtoms=      5 NQM=        0 NQMF=       0 NMMI=      5 NMMIF=      0
                NMic=       0 NMicF=      0.
                    Isotopes and Nuclear Properties:
 (Nuclear quadrupole moments (NQMom) in fm**2, nuclear magnetic moments (NMagM)
  in nuclear magnetons)

  Atom         1           2           3           4           5
 IAtWgt=          16          16           1           1          84
 AtmWgt=  15.9949146  15.9949146   1.0078250   1.0078250  83.9115064
 NucSpn=           0           0           1           1           0
 AtZEff=   0.0000000   0.0000000   0.0000000   0.0000000   0.0000000
 NQMom=    0.0000000   0.0000000   0.0000000   0.0000000   0.0000000
 NMagM=    0.0000000   0.0000000   2.7928460   2.7928460   0.0000000
 Leave Link  101 at Sun May  3 10:31:03 2020, MaxMem= 1073741824 cpu:       0.3
 (Enter /home/matheus/.gaussian/g09/l108.exe)
 Scan the potential surface.
 Variable   Value     No. Steps Step-Size
 -------- ----------- --------- ---------
     1       3.000000      20      0.1000
 A total of     21 points will be computed.
 Leave Link  108 at Sun May  3 10:31:03 2020, MaxMem= 1073741824 cpu:       0.0
 (Enter /home/matheus/.gaussian/g09/l202.exe)
 ---------------------------------------------------------------------------------------------------
                            Z-MATRIX (ANGSTROMS AND DEGREES)
   CD    Cent   Atom    N1       Length/X        N2       Alpha/Y        N3        Beta/Z          J
 ---------------------------------------------------------------------------------------------------
      1      1  O        0   0.000000          0.000000          0.725000
      2      2  O        0   0.000000          0.000000         -0.725000
      3      3  H        0   0.459360          0.795635          1.023510
      4      4  H        0   0.000000          0.918721         -1.023510
      5      5  Kr       0   0.000000          3.000000          0.000000
 ---------------------------------------------------------------------------------------------------
                         Z-Matrix orientation:                         
 ---------------------------------------------------------------------
 Center     Atomic      Atomic             Coordinates (Angstroms)
 Number     Number       Type             X           Y           Z
 ---------------------------------------------------------------------
      1          8           0        0.000000    0.000000    0.725000
      2          8           0        0.000000    0.000000   -0.725000
      3          1           0        0.459360    0.795635    1.023510
      4          1           0        0.000000    0.918721   -1.023510
      5         36           0        0.000000    3.000000    0.000000
 ---------------------------------------------------------------------
                    Distance matrix (angstroms):
                    1          2          3          4          5
     1  O    0.000000
     2  O    1.450000   0.000000
     3  H    0.966000   1.975180   0.000000
     4  H    1.975180   0.966000   2.101537   0.000000
     5  Kr   3.086361   3.086361   2.473420   2.319331   0.000000
 Stoichiometry    H2KrO2
 Framework group  C1[X(H2KrO2)]
 Deg. of freedom     9
 Full point group                 C1      NOp   1
 Largest Abelian subgroup         C1      NOp   1
 Largest concise Abelian subgroup C1      NOp   1
                         Standard orientation:                         
 ---------------------------------------------------------------------
 Center     Atomic      Atomic             Coordinates (Angstroms)
 Number     Number       Type             X           Y           Z
 ---------------------------------------------------------------------
      1          8           0        2.032679   -0.720517   -0.052579
      2          8           0        2.030654    0.727985    0.013298
      3          1           0        1.240025   -1.040895    0.397102
      4          1           0        1.111532    1.024673    0.031898
      5         36           0       -0.968284   -0.001209   -0.003188
 ---------------------------------------------------------------------
 Rotational constants (GHZ):     26.4110984      2.3830252      2.1895357
 Leave Link  202 at Sun May  3 10:31:03 2020, MaxMem= 1073741824 cpu:       0.0
 (Enter /home/matheus/.gaussian/g09/l122.exe)
 Leave Link  122 at Sun May  3 10:31:03 2020, MaxMem= 1073741824 cpu:       0.0
 (Enter /home/matheus/.gaussian/g09/l301.exe)
 Standard basis: Aug-CC-pVTZ (5D, 7F)
 Ernie: Thresh=  0.10000D-02 Tol=  0.10000D-05 Strict=F.
 Ernie:  38 primitive shells out of 205 were deleted.
 There are   197 symmetry adapted basis functions of A   symmetry.
 Integral buffers will be    131072 words long.
 Raffenetti 2 integral format.
 Two-electron integral symmetry is turned on.
   197 basis functions,   415 primitive gaussians,   229 cartesian basis functions
    27 alpha electrons       27 beta electrons
       nuclear repulsion energy       151.3348661682 Hartrees.
 IExCor= 4639 DFT=T Ex+Corr=wB97XD ExCW=0 ScaHFX=  1.000000
 ScaDFX=  1.000000  1.000000  1.000000  1.000000 ScalE2=  1.000000  1.000000
 IRadAn=      5 IRanWt=     -1 IRanGd=            0 ICorTp=0
  HFx wShort=  0.000000 wLong=  0.250000 cFull=  0.222036 cShort=  0.000000 cLong=  0.777964
  DFx wShort=  0.000000 wLong=  0.250000 cFull=  0.000000 cShort=  0.000000 cLong=  1.000000
 NAtoms=    5 NActive=    5 NUniq=    5 SFac= 1.00D+00 NAtFMM=   60 NAOKFM=F Big=F
 R6Disp: Dispersion energy =        -0.0007967424 Hartrees.
 Nuclear repulsion after empirical dispersion term =      151.3340694258 Hartrees.
 Leave Link  301 at Sun May  3 10:31:03 2020, MaxMem= 1073741824 cpu:       0.2
 (Enter /home/matheus/.gaussian/g09/l302.exe)
 NPDir=0 NMtPBC=     1 NCelOv=     1 NCel=       1 NClECP=     1 NCelD=      1
         NCelK=      1 NCelE2=     1 NClLst=     1 CellRange=     0.0.
 One-electron integrals computed using PRISM.
 NBasis=   197 RedAO= T  NBF=   197
 NBsUse=   197 1.00D-06 NBFU=   197
 Precomputing XC quadrature grid using
 IXCGrd= 2 IRadAn=           5 IRanWt=          -1 IRanGd=           0 AccXCQ= 0.00D+00.
 NRdTot=     427 NPtTot=      123512 NUsed=      126579 NTot=      126611
 NSgBfM=   229   229   229   229   229 NAtAll=     5     5.
 Leave Link  302 at Sun May  3 10:31:04 2020, MaxMem= 1073741824 cpu:       1.0
 (Enter /home/matheus/.gaussian/g09/l303.exe)
 DipDrv:  MaxL=1.
 Leave Link  303 at Sun May  3 10:31:04 2020, MaxMem= 1073741824 cpu:       0.2
 (Enter /home/matheus/.gaussian/g09/l401.exe)
 Harris functional with IExCor= 4639 diagonalized for initial guess.
 ExpMin= 2.53D-02 ExpMax= 1.17D+07 ExpMxC= 1.33D+04 IAcc=3 IRadAn=         5 AccDes= 0.00D+00
 HarFok:  IExCor= 4639 AccDes= 0.00D+00 IRadAn=         5 IDoV= 1
 ScaDFX=  1.000000  1.000000  1.000000  1.000000
 FoFCou: FMM=F IPFlag=           0 FMFlag=      100000 FMFlg1=           0
         NFxFlg=           0 DoJE=T BraDBF=F KetDBF=T FulRan=T
         Omega=  0.000000  0.000000  1.000000  0.000000  0.000000 ICntrl=     500 IOpCl=  0
         NMat0=    1 NMatS0=    1 NMatT0=    0 NMatD0=    1 NMtDS0=    0 NMtDT0=    0
         I1Cent=           4 NGrid=           0.
 Petite list used in FoFCou.
 Harris En= -2875.38930253048    
 Initial guess orbital symmetries:
       Occupied  (A) (A) (A) (A) (A) (A) (A) (A) (A) (A) (A) (A)
                 (A) (A) (A) (A) (A) (A) (A) (A) (A) (A) (A) (A)
                 (A) (A) (A)
       Virtual   (A) (A) (A) (A) (A) (A) (A) (A) (A) (A) (A) (A)
                 (A) (A) (A) (A) (A) (A) (A) (A) (A) (A) (A) (A)
                 (A) (A) (A) (A) (A) (A) (A) (A) (A) (A) (A) (A)
                 (A) (A) (A) (A) (A) (A) (A) (A) (A) (A) (A) (A)
                 (A) (A) (A) (A) (A) (A) (A) (A) (A) (A) (A) (A)
                 (A) (A) (A) (A) (A) (A) (A) (A) (A) (A) (A) (A)
                 (A) (A) (A) (A) (A) (A) (A) (A) (A) (A) (A) (A)
                 (A) (A) (A) (A) (A) (A) (A) (A) (A) (A) (A) (A)
                 (A) (A) (A) (A) (A) (A) (A) (A) (A) (A) (A) (A)
                 (A) (A) (A) (A) (A) (A) (A) (A) (A) (A) (A) (A)
                 (A) (A) (A) (A) (A) (A) (A) (A) (A) (A) (A) (A)
                 (A) (A) (A) (A) (A) (A) (A) (A) (A) (A) (A) (A)
                 (A) (A) (A) (A) (A) (A) (A) (A) (A) (A) (A) (A)
                 (A) (A) (A) (A) (A) (A) (A) (A) (A) (A) (A) (A)
                 (A) (A)
 The electronic state of the initial guess is 1-A.
 Leave Link  401 at Sun May  3 10:31:04 2020, MaxMem= 1073741824 cpu:       4.4
 (Enter /home/matheus/.gaussian/g09/l502.exe)
 Closed shell SCF:
 Requested convergence on RMS density matrix=1.00D-08 within 128 cycles.
 Requested convergence on MAX density matrix=1.00D-06.
 Requested convergence on             energy=1.00D-06.
 No special actions if energy rises.
 Using DIIS extrapolation, IDIIS=  1040.
 Integral symmetry usage will be decided dynamically.
       126521 words used for storage of precomputed grid.
 IEnd=      305468 IEndB=      305468 NGot=  1073741824 MDV=  1073505667
 LenX=  1073505667 LenY=  1073452785
 Fock matrices will be formed incrementally for  20 cycles.

 Cycle   1  Pass 1  IDiag  1:
 FoFJK:  IHMeth= 1 ICntrl=     0 DoSepK=T KAlg= 1 I1Cent= 0 FoldK=F
 FoFCou: FMM=F IPFlag=           0 FMFlag=      100000 FMFlg1=           0
         NFxFlg=           0 DoJE=T BraDBF=F KetDBF=F FulRan=T
         Omega=  0.000000  0.000000  1.000000  0.000000  0.000000 ICntrl=     500 IOpCl=  0
         NMat0=    1 NMatS0=    1 NMatT0=    0 NMatD0=    1 NMtDS0=    0 NMtDT0=    0
         I1Cent=           0 NGrid=           0.
 Symmetry not used in FoFCou.
 E= -2904.89103224403    
 DIIS: error= 8.63D-02 at cycle   1 NSaved=   1.
 NSaved= 1 IEnMin= 1 EnMin= -2904.89103224403     IErMin= 1 ErrMin= 8.63D-02
 ErrMax= 8.63D-02 EMaxC= 1.00D-01 BMatC= 2.23D+00 BMatP= 2.23D+00
 IDIUse=3 WtCom= 1.37D-01 WtEn= 8.63D-01
 Coeff-Com:  0.100D+01
 Coeff-En:   0.100D+01
 Coeff:      0.100D+01
 Gap=     0.524 Goal=   None    Shift=    0.000
 GapD=    0.524 DampG=2.000 DampE=0.500 DampFc=1.0000 IDamp=-1.
 RMSDP=6.30D-03 MaxDP=3.77D-01              OVMax= 1.88D-01

 Cycle   2  Pass 1  IDiag  1:
 RMSU=  4.43D-03    CP:  1.03D+00
 FoFJK:  IHMeth= 1 ICntrl=     0 DoSepK=T KAlg= 1 I1Cent= 0 FoldK=F
 E= -2905.21905720427     Delta-E=       -0.328024960241 Rises=F Damp=F
 DIIS: error= 3.30D-02 at cycle   2 NSaved=   2.
 NSaved= 2 IEnMin= 2 EnMin= -2905.21905720427     IErMin= 2 ErrMin= 3.30D-02
 ErrMax= 3.30D-02 EMaxC= 1.00D-01 BMatC= 5.65D-01 BMatP= 2.23D+00
 IDIUse=3 WtCom= 6.70D-01 WtEn= 3.30D-01
 Coeff-Com:  0.327D+00 0.673D+00
 Coeff-En:   0.188D+00 0.812D+00
 Coeff:      0.281D+00 0.719D+00
 Gap=     0.472 Goal=   None    Shift=    0.000
 RMSDP=2.75D-03 MaxDP=1.63D-01 DE=-3.28D-01 OVMax= 7.35D-02

 Cycle   3  Pass 1  IDiag  1:
 RMSU=  5.79D-04    CP:  1.02D+00  5.82D-01
 FoFJK:  IHMeth= 1 ICntrl=     0 DoSepK=T KAlg= 1 I1Cent= 0 FoldK=F
 E= -2905.41032314479     Delta-E=       -0.191265940513 Rises=F Damp=F
 DIIS: error= 5.73D-03 at cycle   3 NSaved=   3.
 NSaved= 3 IEnMin= 3 EnMin= -2905.41032314479     IErMin= 3 ErrMin= 5.73D-03
 ErrMax= 5.73D-03 EMaxC= 1.00D-01 BMatC= 1.92D-02 BMatP= 5.65D-01
 IDIUse=3 WtCom= 9.43D-01 WtEn= 5.73D-02
 Coeff-Com:  0.307D-01 0.188D+00 0.781D+00
 Coeff-En:   0.000D+00 0.000D+00 0.100D+01
 Coeff:      0.290D-01 0.177D+00 0.794D+00
 Gap=     0.423 Goal=   None    Shift=    0.000
 RMSDP=5.07D-04 MaxDP=1.69D-02 DE=-1.91D-01 OVMax= 2.61D-02

 Cycle   4  Pass 1  IDiag  1:
 RMSU=  2.36D-04    CP:  1.02D+00  6.42D-01  9.28D-01
 FoFJK:  IHMeth= 1 ICntrl=     0 DoSepK=T KAlg= 1 I1Cent= 0 FoldK=F
 E= -2905.41883404465     Delta-E=       -0.008510899865 Rises=F Damp=F
 DIIS: error= 2.06D-03 at cycle   4 NSaved=   4.
 NSaved= 4 IEnMin= 4 EnMin= -2905.41883404465     IErMin= 4 ErrMin= 2.06D-03
 ErrMax= 2.06D-03 EMaxC= 1.00D-01 BMatC= 1.74D-03 BMatP= 1.92D-02
 IDIUse=3 WtCom= 9.79D-01 WtEn= 2.06D-02
 Coeff-Com: -0.287D-02 0.504D-01 0.372D+00 0.580D+00
 Coeff-En:   0.000D+00 0.000D+00 0.000D+00 0.100D+01
 Coeff:     -0.281D-02 0.494D-01 0.365D+00 0.589D+00
 Gap=     0.407 Goal=   None    Shift=    0.000
 RMSDP=1.26D-04 MaxDP=6.09D-03 DE=-8.51D-03 OVMax= 6.93D-03

 Cycle   5  Pass 1  IDiag  1:
 RMSU=  4.13D-05    CP:  1.02D+00  6.39D-01  9.63D-01  6.84D-01
 FoFJK:  IHMeth= 1 ICntrl=     0 DoSepK=T KAlg= 1 I1Cent= 0 FoldK=F
 E= -2905.41990814775     Delta-E=       -0.001074103095 Rises=F Damp=F
 DIIS: error= 1.04D-04 at cycle   5 NSaved=   5.
 NSaved= 5 IEnMin= 5 EnMin= -2905.41990814775     IErMin= 5 ErrMin= 1.04D-04
 ErrMax= 1.04D-04 EMaxC= 1.00D-01 BMatC= 6.23D-06 BMatP= 1.74D-03
 IDIUse=3 WtCom= 9.99D-01 WtEn= 1.04D-03
 Coeff-Com: -0.780D-03-0.314D-02-0.305D-02 0.116D-01 0.995D+00
 Coeff-En:   0.000D+00 0.000D+00 0.000D+00 0.000D+00 0.100D+01
 Coeff:     -0.779D-03-0.314D-02-0.305D-02 0.116D-01 0.995D+00
 Gap=     0.407 Goal=   None    Shift=    0.000
 RMSDP=2.28D-05 MaxDP=7.20D-04 DE=-1.07D-03 OVMax= 1.29D-03

 Cycle   6  Pass 1  IDiag  1:
 RMSU=  8.62D-06    CP:  1.02D+00  6.39D-01  9.77D-01  7.02D-01  1.25D+00
 FoFJK:  IHMeth= 1 ICntrl=     0 DoSepK=T KAlg= 1 I1Cent= 0 FoldK=F
 E= -2905.41991431852     Delta-E=       -0.000006170778 Rises=F Damp=F
 DIIS: error= 1.27D-04 at cycle   6 NSaved=   6.
 NSaved= 6 IEnMin= 6 EnMin= -2905.41991431852     IErMin= 5 ErrMin= 1.04D-04
 ErrMax= 1.27D-04 EMaxC= 1.00D-01 BMatC= 4.32D-06 BMatP= 6.23D-06
 IDIUse=3 WtCom= 9.99D-01 WtEn= 1.04D-03
 Coeff-Com: -0.226D-03-0.527D-02-0.275D-01-0.350D-01 0.509D+00 0.559D+00
 Coeff-En:   0.000D+00 0.000D+00 0.000D+00 0.000D+00 0.000D+00 0.100D+01
 Coeff:     -0.226D-03-0.526D-02-0.275D-01-0.350D-01 0.508D+00 0.560D+00
 Gap=     0.407 Goal=   None    Shift=    0.000
 RMSDP=7.35D-06 MaxDP=2.86D-04 DE=-6.17D-06 OVMax= 4.39D-04

 Cycle   7  Pass 1  IDiag  1:
 RMSU=  3.54D-06    CP:  1.02D+00  6.39D-01  9.80D-01  7.05D-01  1.31D+00
                    CP:  7.74D-01
 FoFJK:  IHMeth= 1 ICntrl=     0 DoSepK=T KAlg= 1 I1Cent= 0 FoldK=F
 E= -2905.41991724365     Delta-E=       -0.000002925122 Rises=F Damp=F
 DIIS: error= 2.91D-05 at cycle   7 NSaved=   7.
 NSaved= 7 IEnMin= 7 EnMin= -2905.41991724365     IErMin= 7 ErrMin= 2.91D-05
 ErrMax= 2.91D-05 EMaxC= 1.00D-01 BMatC= 2.74D-07 BMatP= 4.32D-06
 IDIUse=1 WtCom= 1.00D+00 WtEn= 0.00D+00
 Coeff-Com:  0.214D-04-0.150D-02-0.957D-02-0.140D-01 0.234D-01 0.206D+00
 Coeff-Com:  0.796D+00
 Coeff:      0.214D-04-0.150D-02-0.957D-02-0.140D-01 0.234D-01 0.206D+00
 Coeff:      0.796D+00
 Gap=     0.407 Goal=   None    Shift=    0.000
 RMSDP=2.80D-06 MaxDP=7.88D-05 DE=-2.93D-06 OVMax= 1.89D-04

 Cycle   8  Pass 1  IDiag  1:
 RMSU=  9.01D-07    CP:  1.02D+00  6.39D-01  9.81D-01  7.06D-01  1.34D+00
                    CP:  9.05D-01  1.07D+00
 FoFJK:  IHMeth= 1 ICntrl=     0 DoSepK=T KAlg= 1 I1Cent= 0 FoldK=F
 E= -2905.41991751853     Delta-E=       -0.000000274881 Rises=F Damp=F
 DIIS: error= 5.18D-06 at cycle   8 NSaved=   8.
 NSaved= 8 IEnMin= 8 EnMin= -2905.41991751853     IErMin= 8 ErrMin= 5.18D-06
 ErrMax= 5.18D-06 EMaxC= 1.00D-01 BMatC= 6.74D-09 BMatP= 2.74D-07
 IDIUse=1 WtCom= 1.00D+00 WtEn= 0.00D+00
 Coeff-Com:  0.189D-04 0.222D-03 0.994D-03 0.798D-03-0.349D-01-0.227D-01
 Coeff-Com:  0.545D-01 0.100D+01
 Coeff:      0.189D-04 0.222D-03 0.994D-03 0.798D-03-0.349D-01-0.227D-01
 Coeff:      0.545D-01 0.100D+01
 Gap=     0.407 Goal=   None    Shift=    0.000
 RMSDP=9.52D-07 MaxDP=2.43D-05 DE=-2.75D-07 OVMax= 7.57D-05

 Cycle   9  Pass 1  IDiag  1:
 RMSU=  2.89D-07    CP:  1.02D+00  6.39D-01  9.81D-01  7.06D-01  1.35D+00
                    CP:  9.32D-01  1.17D+00  1.28D+00
 FoFJK:  IHMeth= 1 ICntrl=     0 DoSepK=T KAlg= 1 I1Cent= 0 FoldK=F
 E= -2905.41991753541     Delta-E=       -0.000000016880 Rises=F Damp=F
 DIIS: error= 2.11D-06 at cycle   9 NSaved=   9.
 NSaved= 9 IEnMin= 9 EnMin= -2905.41991753541     IErMin= 9 ErrMin= 2.11D-06
 ErrMax= 2.11D-06 EMaxC= 1.00D-01 BMatC= 5.49D-10 BMatP= 6.74D-09
 IDIUse=1 WtCom= 1.00D+00 WtEn= 0.00D+00
 Coeff-Com: -0.905D-06 0.103D-03 0.646D-03 0.675D-03-0.152D-02-0.113D-01
 Coeff-Com: -0.465D-01-0.256D-01 0.108D+01
 Coeff:     -0.905D-06 0.103D-03 0.646D-03 0.675D-03-0.152D-02-0.113D-01
 Coeff:     -0.465D-01-0.256D-01 0.108D+01
 Gap=     0.407 Goal=   None    Shift=    0.000
 RMSDP=2.83D-07 MaxDP=7.71D-06 DE=-1.69D-08 OVMax= 2.84D-05

 Cycle  10  Pass 1  IDiag  1:
 RMSU=  8.21D-08    CP:  1.02D+00  6.39D-01  9.81D-01  7.06D-01  1.35D+00
                    CP:  9.36D-01  1.18D+00  1.38D+00  1.33D+00
 FoFJK:  IHMeth= 1 ICntrl=     0 DoSepK=T KAlg= 1 I1Cent= 0 FoldK=F
 E= -2905.41991753690     Delta-E=       -0.000000001497 Rises=F Damp=F
 DIIS: error= 5.41D-07 at cycle  10 NSaved=  10.
 NSaved=10 IEnMin=10 EnMin= -2905.41991753690     IErMin=10 ErrMin= 5.41D-07
 ErrMax= 5.41D-07 EMaxC= 1.00D-01 BMatC= 4.64D-11 BMatP= 5.49D-10
 IDIUse=1 WtCom= 1.00D+00 WtEn= 0.00D+00
 Coeff-Com: -0.114D-05-0.853D-05-0.306D-04-0.255D-04 0.288D-02 0.193D-02
 Coeff-Com: -0.536D-02-0.104D+00 0.128D+00 0.977D+00
 Coeff:     -0.114D-05-0.853D-05-0.306D-04-0.255D-04 0.288D-02 0.193D-02
 Coeff:     -0.536D-02-0.104D+00 0.128D+00 0.977D+00
 Gap=     0.407 Goal=   None    Shift=    0.000
 RMSDP=7.49D-08 MaxDP=1.88D-06 DE=-1.50D-09 OVMax= 8.40D-06

 Cycle  11  Pass 1  IDiag  1:
 RMSU=  2.06D-08    CP:  1.02D+00  6.39D-01  9.81D-01  7.06D-01  1.35D+00
                    CP:  9.36D-01  1.18D+00  1.40D+00  1.45D+00  1.23D+00
 FoFJK:  IHMeth= 1 ICntrl=     0 DoSepK=T KAlg= 1 I1Cent= 0 FoldK=F
 E= -2905.41991753703     Delta-E=       -0.000000000126 Rises=F Damp=F
 DIIS: error= 1.43D-07 at cycle  11 NSaved=  11.
 NSaved=11 IEnMin=11 EnMin= -2905.41991753703     IErMin=11 ErrMin= 1.43D-07
 ErrMax= 1.43D-07 EMaxC= 1.00D-01 BMatC= 3.10D-12 BMatP= 4.64D-11
 IDIUse=1 WtCom= 1.00D+00 WtEn= 0.00D+00
 Coeff-Com:  0.391D-06-0.519D-05-0.394D-04-0.198D-04-0.387D-03 0.589D-03
 Coeff-Com:  0.455D-02 0.109D-01-0.827D-01-0.127D+00 0.119D+01
 Coeff:      0.391D-06-0.519D-05-0.394D-04-0.198D-04-0.387D-03 0.589D-03
 Coeff:      0.455D-02 0.109D-01-0.827D-01-0.127D+00 0.119D+01
 Gap=     0.407 Goal=   None    Shift=    0.000
 RMSDP=2.27D-08 MaxDP=4.98D-07 DE=-1.26D-10 OVMax= 2.56D-06

 Cycle  12  Pass 1  IDiag  1:
 RMSU=  5.21D-09    CP:  1.02D+00  6.39D-01  9.81D-01  7.06D-01  1.35D+00
                    CP:  9.36D-01  1.18D+00  1.40D+00  1.48D+00  1.35D+00
                    CP:  1.34D+00
 FoFJK:  IHMeth= 1 ICntrl=     0 DoSepK=T KAlg= 1 I1Cent= 0 FoldK=F
 E= -2905.41991753703     Delta-E=       -0.000000000004 Rises=F Damp=F
 DIIS: error= 2.65D-08 at cycle  12 NSaved=  12.
 NSaved=12 IEnMin=12 EnMin= -2905.41991753703     IErMin=12 ErrMin= 2.65D-08
 ErrMax= 2.65D-08 EMaxC= 1.00D-01 BMatC= 1.11D-13 BMatP= 3.10D-12
 IDIUse=1 WtCom= 1.00D+00 WtEn= 0.00D+00
 Coeff-Com: -0.410D-07 0.697D-06 0.533D-05-0.321D-05-0.555D-04-0.120D-03
 Coeff-Com: -0.282D-03 0.239D-02 0.742D-02-0.134D-01-0.217D+00 0.122D+01
 Coeff:     -0.410D-07 0.697D-06 0.533D-05-0.321D-05-0.555D-04-0.120D-03
 Coeff:     -0.282D-03 0.239D-02 0.742D-02-0.134D-01-0.217D+00 0.122D+01
 Gap=     0.407 Goal=   None    Shift=    0.000
 RMSDP=4.82D-09 MaxDP=1.66D-07 DE=-3.64D-12 OVMax= 4.55D-07

 SCF Done:  E(RwB97XD) =  -2905.41991754     A.U. after   12 cycles
             Convg  =    0.4821D-08             -V/T =  2.0015
 KE= 2.900960474694D+03 PE=-7.240095342319D+03 EE= 1.282380880662D+03
 Leave Link  502 at Sun May  3 10:31:43 2020, MaxMem= 1073741824 cpu:     312.9
 (Enter /home/matheus/.gaussian/g09/l601.exe)
 Copying SCF densities to generalized density rwf, IOpCl= 0 IROHF=0.

 **********************************************************************

            Population analysis using the SCF density.

 **********************************************************************

 Orbital symmetries:
       Occupied  (A) (A) (A) (A) (A) (A) (A) (A) (A) (A) (A) (A)
                 (A) (A) (A) (A) (A) (A) (A) (A) (A) (A) (A) (A)
                 (A) (A) (A)
       Virtual   (A) (A) (A) (A) (A) (A) (A) (A) (A) (A) (A) (A)
                 (A) (A) (A) (A) (A) (A) (A) (A) (A) (A) (A) (A)
                 (A) (A) (A) (A) (A) (A) (A) (A) (A) (A) (A) (A)
                 (A) (A) (A) (A) (A) (A) (A) (A) (A) (A) (A) (A)
                 (A) (A) (A) (A) (A) (A) (A) (A) (A) (A) (A) (A)
                 (A) (A) (A) (A) (A) (A) (A) (A) (A) (A) (A) (A)
                 (A) (A) (A) (A) (A) (A) (A) (A) (A) (A) (A) (A)
                 (A) (A) (A) (A) (A) (A) (A) (A) (A) (A) (A) (A)
                 (A) (A) (A) (A) (A) (A) (A) (A) (A) (A) (A) (A)
                 (A) (A) (A) (A) (A) (A) (A) (A) (A) (A) (A) (A)
                 (A) (A) (A) (A) (A) (A) (A) (A) (A) (A) (A) (A)
                 (A) (A) (A) (A) (A) (A) (A) (A) (A) (A) (A) (A)
                 (A) (A) (A) (A) (A) (A) (A) (A) (A) (A) (A) (A)
                 (A) (A) (A) (A) (A) (A) (A) (A) (A) (A) (A) (A)
                 (A) (A)
 The electronic state is 1-A.
 Alpha  occ. eigenvalues -- -513.11587 -67.38402 -60.93281 -60.93274 -60.93265
 Alpha  occ. eigenvalues --  -19.33703 -19.33553  -9.83724  -7.53049  -7.53026
 Alpha  occ. eigenvalues --   -7.52995  -3.39734  -3.39732  -3.39706  -3.39688
 Alpha  occ. eigenvalues --   -3.39684  -1.24600  -1.04568  -1.02873  -0.69027
 Alpha  occ. eigenvalues --   -0.54988  -0.54147  -0.52146  -0.51458  -0.50456
 Alpha  occ. eigenvalues --   -0.46783  -0.37224
 Alpha virt. eigenvalues --    0.03503   0.04472   0.08648   0.09226   0.09839
 Alpha virt. eigenvalues --    0.11909   0.12644   0.15429   0.17074   0.17766
 Alpha virt. eigenvalues --    0.18301   0.19215   0.20205   0.21653   0.23002
 Alpha virt. eigenvalues --    0.23841   0.24354   0.27047   0.30060   0.33073
 Alpha virt. eigenvalues --    0.34883   0.35558   0.37610   0.38159   0.39816
 Alpha virt. eigenvalues --    0.41731   0.43992   0.47618   0.51766   0.53220
 Alpha virt. eigenvalues --    0.57591   0.59853   0.60642   0.63275   0.65404
 Alpha virt. eigenvalues --    0.67562   0.68901   0.72111   0.72673   0.73927
 Alpha virt. eigenvalues --    0.74751   0.76166   0.79181   0.81104   0.84279
 Alpha virt. eigenvalues --    0.84976   0.85864   0.86816   0.88187   0.90459
 Alpha virt. eigenvalues --    0.92444   0.93059   0.95637   0.97473   0.99492
 Alpha virt. eigenvalues --    1.01621   1.02527   1.04771   1.05943   1.09437
 Alpha virt. eigenvalues --    1.12134   1.18264   1.20425   1.21327   1.23767
 Alpha virt. eigenvalues --    1.29925   1.32062   1.36692   1.38246   1.45108
 Alpha virt. eigenvalues --    1.47986   1.50056   1.52370   1.54812   1.58691
 Alpha virt. eigenvalues --    1.60023   1.66207   1.82674   1.87185   1.92754
 Alpha virt. eigenvalues --    1.97661   2.05586   2.06558   2.11855   2.12785
 Alpha virt. eigenvalues --    2.13530   2.19189   2.19746   2.20597   2.27194
 Alpha virt. eigenvalues --    2.27542   2.29955   2.31583   2.31684   2.32965
 Alpha virt. eigenvalues --    2.36767   2.38756   2.42468   2.45647   2.46722
 Alpha virt. eigenvalues --    2.48587   2.50125   2.54043   2.55820   2.56747
 Alpha virt. eigenvalues --    2.59852   2.64870   2.67023   2.67949   2.71482
 Alpha virt. eigenvalues --    2.72630   2.74687   2.79190   2.88093   2.90092
 Alpha virt. eigenvalues --    2.91869   3.05241   3.09918   3.10973   3.57664
 Alpha virt. eigenvalues --    3.67732   3.90218   3.98360   4.00681   4.05644
 Alpha virt. eigenvalues --    4.14641   4.16573   4.18627   4.20334   4.22909
 Alpha virt. eigenvalues --    4.43436   4.51669   4.54588   4.65586   4.69584
 Alpha virt. eigenvalues --    4.98024   4.98633   5.05745   5.07777   5.08630
 Alpha virt. eigenvalues --    5.13117   5.48164   5.82858   6.02837   6.05401
 Alpha virt. eigenvalues --    6.12187   6.35023   6.37642   6.45333   6.55921
 Alpha virt. eigenvalues --    6.67410   6.72418   6.78045   6.83017   6.84737
 Alpha virt. eigenvalues --    6.85857   6.89398   6.90571   6.91272   7.07621
 Alpha virt. eigenvalues --    7.14684   7.17481   7.24320   7.37237   7.55835
 Alpha virt. eigenvalues --    7.97697   7.99985   8.16019  13.89348  14.70574
          Condensed to atoms (all electrons):
              1          2          3          4          5
     1  O    8.249310  -0.206568   0.171068   0.030251  -0.021962
     2  O   -0.206568   8.256089   0.034959   0.178444  -0.017689
     3  H    0.171068   0.034959   0.589720  -0.014000  -0.000837
     4  H    0.030251   0.178444  -0.014000   0.580793  -0.010883
     5  Kr  -0.021962  -0.017689  -0.000837  -0.010883  36.038520
 Mulliken atomic charges:
              1
     1  O   -0.222099
     2  O   -0.245235
     3  H    0.219090
     4  H    0.235394
     5  Kr   0.012850
 Sum of Mulliken atomic charges =   0.00000
 Mulliken charges with hydrogens summed into heavy atoms:
              1
     1  O   -0.003009
     2  O   -0.009841
     5  Kr   0.012850
 Sum of Mulliken charges with hydrogens summed into heavy atoms =   0.00000
          Condensed to fragments (all electrons):
     1      -0.012850
     2       0.012850
 Electronic spatial extent (au):  <R**2>=            476.3547
 Charge=              0.0000 electrons
 Dipole moment (field-independent basis, Debye):
    X=             -3.3886    Y=             -0.0957    Z=              0.6565  Tot=              3.4529
 Quadrupole moment (field-independent basis, Debye-Ang):
   XX=            -38.3916   YY=            -28.0778   ZZ=            -30.1491
   XY=             -0.3017   XZ=              0.7958   YZ=             -0.8772
 Traceless Quadrupole moment (field-independent basis, Debye-Ang):
   XX=             -6.1854   YY=              4.1284   ZZ=              2.0571
   XY=             -0.3017   XZ=              0.7958   YZ=             -0.8772
 Octapole moment (field-independent basis, Debye-Ang**2):
  XXX=            -44.0553  YYY=             -0.2345  ZZZ=              0.0686  XYY=             -7.6025
  XXY=             -0.7066  XXZ=              0.1223  XZZ=             -8.3301  YZZ=             -0.4651
  YYZ=              1.0146  XYZ=             -1.0497
 Hexadecapole moment (field-independent basis, Debye-Ang**3):
 XXXX=           -456.2924 YYYY=            -63.2572 ZZZZ=            -29.5345 XXXY=             -0.7393
 XXXZ=             -1.0710 YYYX=             -0.5583 YYYZ=             -1.2060 ZZZX=              0.3530
 ZZZY=             -0.5692 XXYY=            -85.6256 XXZZ=            -75.7896 YYZZ=            -17.0574
 XXYZ=             -1.2027 YYXZ=              1.2389 ZZXY=             -0.6319
 N-N= 1.513340694258D+02 E-N=-7.240095341721D+03  KE= 2.900960474694D+03
 No NMR shielding tensors so no spin-rotation constants.
 Leave Link  601 at Sun May  3 10:31:44 2020, MaxMem= 1073741824 cpu:       0.8
 (Enter /home/matheus/.gaussian/g09/l122.exe)
 Counterpoise: doing DCBS calculation for fragment   1 NewBq=T
 Leave Link  122 at Sun May  3 10:31:44 2020, MaxMem= 1073741824 cpu:       0.0
 (Enter /home/matheus/.gaussian/g09/l301.exe)
 Basis read from rwf:  (5D, 7F)
 No pseudopotential information found on rwf file.
 There are   197 symmetry adapted basis functions of A   symmetry.
 Integral buffers will be    131072 words long.
 Raffenetti 2 integral format.
 Two-electron integral symmetry is turned on.
   197 basis functions,   415 primitive gaussians,   229 cartesian basis functions
     9 alpha electrons        9 beta electrons
       nuclear repulsion energy        36.6600463863 Hartrees.
 IExCor= 4639 DFT=T Ex+Corr=wB97XD ExCW=0 ScaHFX=  1.000000
 ScaDFX=  1.000000  1.000000  1.000000  1.000000 ScalE2=  1.000000  1.000000
 IRadAn=      5 IRanWt=     -1 IRanGd=            0 ICorTp=0
  HFx wShort=  0.000000 wLong=  0.250000 cFull=  0.222036 cShort=  0.000000 cLong=  0.777964
  DFx wShort=  0.000000 wLong=  0.250000 cFull=  0.000000 cShort=  0.000000 cLong=  1.000000
 NAtoms=    5 NActive=    5 NUniq=    5 SFac= 1.00D+00 NAtFMM=   60 NAOKFM=F Big=F
 R6Disp: Dispersion energy =        -0.0002307925 Hartrees.
 Nuclear repulsion after empirical dispersion term =       36.6598155938 Hartrees.
 No density basis found on file   718.
 Leave Link  301 at Sun May  3 10:31:44 2020, MaxMem= 1073741824 cpu:       0.2
 (Enter /home/matheus/.gaussian/g09/l302.exe)
 NPDir=0 NMtPBC=     1 NCelOv=     1 NCel=       1 NClECP=     1 NCelD=      1
         NCelK=      1 NCelE2=     1 NClLst=     1 CellRange=     0.0.
 One-electron integrals computed using PRISM.
 NBasis=   197 RedAO= T  NBF=   197
 NBsUse=   197 1.00D-06 NBFU=   197
 Precomputing XC quadrature grid using
 IXCGrd= 2 IRadAn=           5 IRanWt=          -1 IRanGd=           0 AccXCQ= 0.00D+00.
 NRdTot=     427 NPtTot=      123512 NUsed=      126579 NTot=      126611
 NSgBfM=   229   229   229   229   229 NAtAll=     5     5.
 Leave Link  302 at Sun May  3 10:31:44 2020, MaxMem= 1073741824 cpu:       1.0
 (Enter /home/matheus/.gaussian/g09/l303.exe)
 DipDrv:  MaxL=1.
 Leave Link  303 at Sun May  3 10:31:44 2020, MaxMem= 1073741824 cpu:       0.2
 (Enter /home/matheus/.gaussian/g09/l401.exe)
 Harris functional with IExCor= 4639 diagonalized for initial guess.
 ExpMin= 2.53D-02 ExpMax= 1.17D+07 ExpMxC= 1.33D+04 IAcc=3 IRadAn=         5 AccDes= 0.00D+00
 HarFok:  IExCor= 4639 AccDes= 0.00D+00 IRadAn=         5 IDoV= 1
 ScaDFX=  1.000000  1.000000  1.000000  1.000000
 FoFCou: FMM=F IPFlag=           0 FMFlag=      100000 FMFlg1=           0
         NFxFlg=           0 DoJE=T BraDBF=F KetDBF=T FulRan=T
         Omega=  0.000000  0.000000  1.000000  0.000000  0.000000 ICntrl=     500 IOpCl=  0
         NMat0=    1 NMatS0=    1 NMatT0=    0 NMatD0=    1 NMtDS0=    0 NMtDT0=    0
         I1Cent=           4 NGrid=           0.
 Petite list used in FoFCou.
 Harris En= -145.942987572412    
 Initial guess orbital symmetries:
       Occupied  (A) (A) (A) (A) (A) (A) (A) (A) (A)
       Virtual   (A) (A) (A) (A) (A) (A) (A) (A) (A) (A) (A) (A)
                 (A) (A) (A) (A) (A) (A) (A) (A) (A) (A) (A) (A)
                 (A) (A) (A) (A) (A) (A) (A) (A) (A) (A) (A) (A)
                 (A) (A) (A) (A) (A) (A) (A) (A) (A) (A) (A) (A)
                 (A) (A) (A) (A) (A) (A) (A) (A) (A) (A) (A) (A)
                 (A) (A) (A) (A) (A) (A) (A) (A) (A) (A) (A) (A)
                 (A) (A) (A) (A) (A) (A) (A) (A) (A) (A) (A) (A)
                 (A) (A) (A) (A) (A) (A) (A) (A) (A) (A) (A) (A)
                 (A) (A) (A) (A) (A) (A) (A) (A) (A) (A) (A) (A)
                 (A) (A) (A) (A) (A) (A) (A) (A) (A) (A) (A) (A)
                 (A) (A) (A) (A) (A) (A) (A) (A) (A) (A) (A) (A)
                 (A) (A) (A) (A) (A) (A) (A) (A) (A) (A) (A) (A)
                 (A) (A) (A) (A) (A) (A) (A) (A) (A) (A) (A) (A)
                 (A) (A) (A) (A) (A) (A) (A) (A) (A) (A) (A) (A)
                 (A) (A) (A) (A) (A) (A) (A) (A) (A) (A) (A) (A)
                 (A) (A) (A) (A) (A) (A) (A) (A)
 The electronic state of the initial guess is 1-A.
 Leave Link  401 at Sun May  3 10:31:44 2020, MaxMem= 1073741824 cpu:       3.8
 (Enter /home/matheus/.gaussian/g09/l502.exe)
 Closed shell SCF:
 Requested convergence on RMS density matrix=1.00D-08 within 128 cycles.
 Requested convergence on MAX density matrix=1.00D-06.
 Requested convergence on             energy=1.00D-06.
 No special actions if energy rises.
 Using DIIS extrapolation, IDIIS=  1040.
 Integral symmetry usage will be decided dynamically.
       126521 words used for storage of precomputed grid.
 IEnd=      305468 IEndB=      305468 NGot=  1073741824 MDV=  1073505667
 LenX=  1073505667 LenY=  1073452785
 Fock matrices will be formed incrementally for  20 cycles.

 Cycle   1  Pass 1  IDiag  1:
 FoFJK:  IHMeth= 1 ICntrl=     0 DoSepK=T KAlg= 1 I1Cent= 0 FoldK=F
 FoFCou: FMM=F IPFlag=           0 FMFlag=      100000 FMFlg1=           0
         NFxFlg=           0 DoJE=T BraDBF=F KetDBF=F FulRan=T
         Omega=  0.000000  0.000000  1.000000  0.000000  0.000000 ICntrl=     500 IOpCl=  0
         NMat0=    1 NMatS0=    1 NMatT0=    0 NMatD0=    1 NMtDS0=    0 NMtDT0=    0
         I1Cent=           0 NGrid=           0.
 Symmetry not used in FoFCou.
 E= -151.455355893985    
 DIIS: error= 3.59D-02 at cycle   1 NSaved=   1.
 NSaved= 1 IEnMin= 1 EnMin= -151.455355893985     IErMin= 1 ErrMin= 3.59D-02
 ErrMax= 3.59D-02 EMaxC= 1.00D-01 BMatC= 3.19D-01 BMatP= 3.19D-01
 IDIUse=3 WtCom= 6.41D-01 WtEn= 3.59D-01
 Coeff-Com:  0.100D+01
 Coeff-En:   0.100D+01
 Coeff:      0.100D+01
 Gap=     0.523 Goal=   None    Shift=    0.000
 GapD=    0.523 DampG=2.000 DampE=0.500 DampFc=1.0000 IDamp=-1.
 RMSDP=2.57D-03 MaxDP=9.85D-02              OVMax= 1.23D-01

 Cycle   2  Pass 1  IDiag  1:
 RMSU=  1.77D-03    CP:  9.44D-01
 FoFJK:  IHMeth= 1 ICntrl=     0 DoSepK=T KAlg= 1 I1Cent= 0 FoldK=F
 E= -151.497405224786     Delta-E=       -0.042049330801 Rises=F Damp=F
 DIIS: error= 1.57D-02 at cycle   2 NSaved=   2.
 NSaved= 2 IEnMin= 2 EnMin= -151.497405224786     IErMin= 2 ErrMin= 1.57D-02
 ErrMax= 1.57D-02 EMaxC= 1.00D-01 BMatC= 9.79D-02 BMatP= 3.19D-01
 IDIUse=3 WtCom= 8.43D-01 WtEn= 1.57D-01
 Coeff-Com:  0.335D+00 0.665D+00
 Coeff-En:   0.327D+00 0.673D+00
 Coeff:      0.334D+00 0.666D+00
 Gap=     0.473 Goal=   None    Shift=    0.000
 RMSDP=1.04D-03 MaxDP=4.74D-02 DE=-4.20D-02 OVMax= 6.18D-02

 Cycle   3  Pass 1  IDiag  1:
 RMSU=  3.99D-04    CP:  9.67D-01  6.66D-01
 FoFJK:  IHMeth= 1 ICntrl=     0 DoSepK=T KAlg= 1 I1Cent= 0 FoldK=F
 E= -151.549991196674     Delta-E=       -0.052585971888 Rises=F Damp=F
 DIIS: error= 4.30D-03 at cycle   3 NSaved=   3.
 NSaved= 3 IEnMin= 3 EnMin= -151.549991196674     IErMin= 3 ErrMin= 4.30D-03
 ErrMax= 4.30D-03 EMaxC= 1.00D-01 BMatC= 6.42D-03 BMatP= 9.79D-02
 IDIUse=3 WtCom= 9.57D-01 WtEn= 4.30D-02
 Coeff-Com:  0.146D-01 0.212D+00 0.773D+00
 Coeff-En:   0.000D+00 0.000D+00 0.100D+01
 Coeff:      0.140D-01 0.203D+00 0.783D+00
 Gap=     0.404 Goal=   None    Shift=    0.000
 RMSDP=2.85D-04 MaxDP=8.88D-03 DE=-5.26D-02 OVMax= 1.71D-02

 Cycle   4  Pass 1  IDiag  1:
 RMSU=  8.05D-05    CP:  9.61D-01  7.62D-01  8.60D-01
 FoFJK:  IHMeth= 1 ICntrl=     0 DoSepK=T KAlg= 1 I1Cent= 0 FoldK=F
 E= -151.554194113158     Delta-E=       -0.004202916484 Rises=F Damp=F
 DIIS: error= 5.68D-04 at cycle   4 NSaved=   4.
 NSaved= 4 IEnMin= 4 EnMin= -151.554194113158     IErMin= 4 ErrMin= 5.68D-04
 ErrMax= 5.68D-04 EMaxC= 1.00D-01 BMatC= 8.67D-05 BMatP= 6.42D-03
 IDIUse=3 WtCom= 9.94D-01 WtEn= 5.68D-03
 Coeff-Com: -0.901D-03 0.207D-01 0.165D+00 0.816D+00
 Coeff-En:   0.000D+00 0.000D+00 0.000D+00 0.100D+01
 Coeff:     -0.895D-03 0.206D-01 0.164D+00 0.817D+00
 Gap=     0.401 Goal=   None    Shift=    0.000
 RMSDP=4.50D-05 MaxDP=2.32D-03 DE=-4.20D-03 OVMax= 2.13D-03

 Cycle   5  Pass 1  IDiag  1:
 RMSU=  1.60D-05    CP:  9.62D-01  7.57D-01  9.16D-01  1.13D+00
 FoFJK:  IHMeth= 1 ICntrl=     0 DoSepK=T KAlg= 1 I1Cent= 0 FoldK=F
 E= -151.554258848189     Delta-E=       -0.000064735031 Rises=F Damp=F
 DIIS: error= 6.47D-05 at cycle   5 NSaved=   5.
 NSaved= 5 IEnMin= 5 EnMin= -151.554258848189     IErMin= 5 ErrMin= 6.47D-05
 ErrMax= 6.47D-05 EMaxC= 1.00D-01 BMatC= 1.28D-06 BMatP= 8.67D-05
 IDIUse=1 WtCom= 1.00D+00 WtEn= 0.00D+00
 Coeff-Com: -0.612D-03-0.126D-01-0.485D-01-0.104D+00 0.117D+01
 Coeff:     -0.612D-03-0.126D-01-0.485D-01-0.104D+00 0.117D+01
 Gap=     0.400 Goal=   None    Shift=    0.000
 RMSDP=1.75D-05 MaxDP=6.94D-04 DE=-6.47D-05 OVMax= 1.01D-03

 Cycle   6  Pass 1  IDiag  1:
 RMSU=  3.62D-06    CP:  9.62D-01  7.57D-01  9.34D-01  1.23D+00  1.30D+00
 FoFJK:  IHMeth= 1 ICntrl=     0 DoSepK=T KAlg= 1 I1Cent= 0 FoldK=F
 E= -151.554262144741     Delta-E=       -0.000003296551 Rises=F Damp=F
 DIIS: error= 1.38D-05 at cycle   6 NSaved=   6.
 NSaved= 6 IEnMin= 6 EnMin= -151.554262144741     IErMin= 6 ErrMin= 1.38D-05
 ErrMax= 1.38D-05 EMaxC= 1.00D-01 BMatC= 4.19D-08 BMatP= 1.28D-06
 IDIUse=1 WtCom= 1.00D+00 WtEn= 0.00D+00
 Coeff-Com:  0.571D-04-0.215D-04-0.307D-02-0.157D-01-0.387D-01 0.106D+01
 Coeff:      0.571D-04-0.215D-04-0.307D-02-0.157D-01-0.387D-01 0.106D+01
 Gap=     0.400 Goal=   None    Shift=    0.000
 RMSDP=2.49D-06 MaxDP=8.89D-05 DE=-3.30D-06 OVMax= 1.92D-04

 Cycle   7  Pass 1  IDiag  1:
 RMSU=  7.73D-07    CP:  9.62D-01  7.57D-01  9.36D-01  1.23D+00  1.35D+00
                    CP:  1.30D+00
 FoFJK:  IHMeth= 1 ICntrl=     0 DoSepK=T KAlg= 1 I1Cent= 0 FoldK=F
 E= -151.554262252598     Delta-E=       -0.000000107857 Rises=F Damp=F
 DIIS: error= 8.74D-06 at cycle   7 NSaved=   7.
 NSaved= 7 IEnMin= 7 EnMin= -151.554262252598     IErMin= 7 ErrMin= 8.74D-06
 ErrMax= 8.74D-06 EMaxC= 1.00D-01 BMatC= 2.15D-08 BMatP= 4.19D-08
 IDIUse=1 WtCom= 1.00D+00 WtEn= 0.00D+00
 Coeff-Com:  0.609D-04 0.697D-03 0.136D-02-0.204D-02-0.864D-01 0.500D+00
 Coeff-Com:  0.586D+00
 Coeff:      0.609D-04 0.697D-03 0.136D-02-0.204D-02-0.864D-01 0.500D+00
 Coeff:      0.586D+00
 Gap=     0.400 Goal=   None    Shift=    0.000
 RMSDP=5.58D-07 MaxDP=2.53D-05 DE=-1.08D-07 OVMax= 4.82D-05

 Cycle   8  Pass 1  IDiag  1:
 RMSU=  3.18D-07    CP:  9.62D-01  7.57D-01  9.36D-01  1.23D+00  1.36D+00
                    CP:  1.35D+00  9.77D-01
 FoFJK:  IHMeth= 1 ICntrl=     0 DoSepK=T KAlg= 1 I1Cent= 0 FoldK=F
 E= -151.554262270338     Delta-E=       -0.000000017740 Rises=F Damp=F
 DIIS: error= 2.37D-06 at cycle   8 NSaved=   8.
 NSaved= 8 IEnMin= 8 EnMin= -151.554262270338     IErMin= 8 ErrMin= 2.37D-06
 ErrMax= 2.37D-06 EMaxC= 1.00D-01 BMatC= 2.69D-09 BMatP= 2.15D-08
 IDIUse=1 WtCom= 1.00D+00 WtEn= 0.00D+00
 Coeff-Com: -0.243D-05 0.154D-03 0.121D-02 0.299D-02-0.972D-02-0.173D+00
 Coeff-Com:  0.195D+00 0.983D+00
 Coeff:     -0.243D-05 0.154D-03 0.121D-02 0.299D-02-0.972D-02-0.173D+00
 Coeff:      0.195D+00 0.983D+00
 Gap=     0.400 Goal=   None    Shift=    0.000
 RMSDP=3.87D-07 MaxDP=1.22D-05 DE=-1.77D-08 OVMax= 4.39D-05

 Cycle   9  Pass 1  IDiag  1:
 RMSU=  1.02D-07    CP:  9.62D-01  7.57D-01  9.36D-01  1.23D+00  1.36D+00
                    CP:  1.38D+00  1.20D+00  1.15D+00
 FoFJK:  IHMeth= 1 ICntrl=     0 DoSepK=T KAlg= 1 I1Cent= 0 FoldK=F
 E= -151.554262274374     Delta-E=       -0.000000004036 Rises=F Damp=F
 DIIS: error= 5.99D-07 at cycle   9 NSaved=   9.
 NSaved= 9 IEnMin= 9 EnMin= -151.554262274374     IErMin= 9 ErrMin= 5.99D-07
 ErrMax= 5.99D-07 EMaxC= 1.00D-01 BMatC= 4.63D-11 BMatP= 2.69D-09
 IDIUse=1 WtCom= 1.00D+00 WtEn= 0.00D+00
 Coeff-Com:  0.372D-06-0.254D-04-0.184D-03-0.546D-03 0.532D-02-0.262D-02
 Coeff-Com: -0.399D-01-0.868D-01 0.112D+01
 Coeff:      0.372D-06-0.254D-04-0.184D-03-0.546D-03 0.532D-02-0.262D-02
 Coeff:     -0.399D-01-0.868D-01 0.112D+01
 Gap=     0.400 Goal=   None    Shift=    0.000
 RMSDP=8.65D-08 MaxDP=1.90D-06 DE=-4.04D-09 OVMax= 9.32D-06

 Cycle  10  Pass 1  IDiag  1:
 RMSU=  1.74D-08    CP:  9.62D-01  7.57D-01  9.36D-01  1.23D+00  1.36D+00
                    CP:  1.37D+00  1.23D+00  1.24D+00  1.34D+00
 FoFJK:  IHMeth= 1 ICntrl=     0 DoSepK=T KAlg= 1 I1Cent= 0 FoldK=F
 E= -151.554262274519     Delta-E=       -0.000000000146 Rises=F Damp=F
 DIIS: error= 1.98D-07 at cycle  10 NSaved=  10.
 NSaved=10 IEnMin=10 EnMin= -151.554262274519     IErMin=10 ErrMin= 1.98D-07
 ErrMax= 1.98D-07 EMaxC= 1.00D-01 BMatC= 4.83D-12 BMatP= 4.63D-11
 IDIUse=1 WtCom= 1.00D+00 WtEn= 0.00D+00
 Coeff-Com:  0.494D-06-0.138D-04-0.129D-03-0.379D-03 0.144D-02 0.152D-01
 Coeff-Com: -0.233D-01-0.103D+00 0.936D-01 0.102D+01
 Coeff:      0.494D-06-0.138D-04-0.129D-03-0.379D-03 0.144D-02 0.152D-01
 Coeff:     -0.233D-01-0.103D+00 0.936D-01 0.102D+01
 Gap=     0.400 Goal=   None    Shift=    0.000
 RMSDP=2.45D-08 MaxDP=5.31D-07 DE=-1.46D-10 OVMax= 3.07D-06

 Cycle  11  Pass 1  IDiag  1:
 RMSU=  4.66D-09    CP:  9.62D-01  7.57D-01  9.36D-01  1.23D+00  1.36D+00
                    CP:  1.37D+00  1.24D+00  1.26D+00  1.44D+00  1.37D+00
 FoFJK:  IHMeth= 1 ICntrl=     0 DoSepK=T KAlg= 1 I1Cent= 0 FoldK=F
 E= -151.554262274533     Delta-E=       -0.000000000013 Rises=F Damp=F
 DIIS: error= 3.17D-08 at cycle  11 NSaved=  11.
 NSaved=11 IEnMin=11 EnMin= -151.554262274533     IErMin=11 ErrMin= 3.17D-08
 ErrMax= 3.17D-08 EMaxC= 1.00D-01 BMatC= 2.36D-13 BMatP= 4.83D-12
 IDIUse=1 WtCom= 1.00D+00 WtEn= 0.00D+00
 Coeff-Com: -0.202D-06 0.988D-06 0.206D-04 0.550D-04-0.380D-03-0.135D-02
 Coeff-Com:  0.507D-02 0.170D-01-0.696D-01-0.160D+00 0.121D+01
 Coeff:     -0.202D-06 0.988D-06 0.206D-04 0.550D-04-0.380D-03-0.135D-02
 Coeff:      0.507D-02 0.170D-01-0.696D-01-0.160D+00 0.121D+01
 Gap=     0.400 Goal=   None    Shift=    0.000
 RMSDP=6.83D-09 MaxDP=2.79D-07 DE=-1.33D-11 OVMax= 6.64D-07

 SCF Done:  E(RwB97XD) =  -151.554262275     A.U. after   11 cycles
             Convg  =    0.6828D-08             -V/T =  2.0059
 KE= 1.506640331857D+02 PE=-4.317427908693D+02 EE= 9.286467981523D+01
 Leave Link  502 at Sun May  3 10:32:18 2020, MaxMem= 1073741824 cpu:     269.6
 (Enter /home/matheus/.gaussian/g09/l601.exe)
 Copying SCF densities to generalized density rwf, IOpCl= 0 IROHF=0.

 **********************************************************************

            Population analysis using the SCF density.

 **********************************************************************

 Orbital symmetries:
       Occupied  (A) (A) (A) (A) (A) (A) (A) (A) (A)
       Virtual   (A) (A) (A) (A) (A) (A) (A) (A) (A) (A) (A) (A)
                 (A) (A) (A) (A) (A) (A) (A) (A) (A) (A) (A) (A)
                 (A) (A) (A) (A) (A) (A) (A) (A) (A) (A) (A) (A)
                 (A) (A) (A) (A) (A) (A) (A) (A) (A) (A) (A) (A)
                 (A) (A) (A) (A) (A) (A) (A) (A) (A) (A) (A) (A)
                 (A) (A) (A) (A) (A) (A) (A) (A) (A) (A) (A) (A)
                 (A) (A) (A) (A) (A) (A) (A) (A) (A) (A) (A) (A)
                 (A) (A) (A) (A) (A) (A) (A) (A) (A) (A) (A) (A)
                 (A) (A) (A) (A) (A) (A) (A) (A) (A) (A) (A) (A)
                 (A) (A) (A) (A) (A) (A) (A) (A) (A) (A) (A) (A)
                 (A) (A) (A) (A) (A) (A) (A) (A) (A) (A) (A) (A)
                 (A) (A) (A) (A) (A) (A) (A) (A) (A) (A) (A) (A)
                 (A) (A) (A) (A) (A) (A) (A) (A) (A) (A) (A) (A)
                 (A) (A) (A) (A) (A) (A) (A) (A) (A) (A) (A) (A)
                 (A) (A) (A) (A) (A) (A) (A) (A) (A) (A) (A) (A)
                 (A) (A) (A) (A) (A) (A) (A) (A)
 The electronic state is 1-A.
 Alpha  occ. eigenvalues --  -19.34343 -19.34339  -1.25137  -1.03427  -0.69173
 Alpha  occ. eigenvalues --   -0.54262  -0.54203  -0.47731  -0.37795
 Alpha virt. eigenvalues --    0.02236   0.03999   0.07450   0.08221   0.09331
 Alpha virt. eigenvalues --    0.09512   0.10690   0.16116   0.17539   0.18265
 Alpha virt. eigenvalues --    0.18729   0.19534   0.20869   0.21802   0.25724
 Alpha virt. eigenvalues --    0.27078   0.28944   0.29338   0.32837   0.35205
 Alpha virt. eigenvalues --    0.36011   0.36316   0.38264   0.40618   0.41282
 Alpha virt. eigenvalues --    0.44282   0.45206   0.46662   0.48893   0.52360
 Alpha virt. eigenvalues --    0.54451   0.57296   0.58997   0.61670   0.66053
 Alpha virt. eigenvalues --    0.69137   0.71357   0.75854   0.76681   0.79240
 Alpha virt. eigenvalues --    0.81649   0.82704   0.86405   0.87022   0.89229
 Alpha virt. eigenvalues --    0.92351   0.94880   0.96303   0.98435   0.99422
 Alpha virt. eigenvalues --    1.00927   1.04299   1.05845   1.08062   1.08783
 Alpha virt. eigenvalues --    1.12958   1.16582   1.19549   1.21885   1.24835
 Alpha virt. eigenvalues --    1.26169   1.29782   1.31412   1.31675   1.33980
 Alpha virt. eigenvalues --    1.34614   1.36563   1.37945   1.43754   1.45152
 Alpha virt. eigenvalues --    1.47957   1.49848   1.53136   1.55397   1.58968
 Alpha virt. eigenvalues --    1.61441   1.63716   1.68373   1.73856   1.76756
 Alpha virt. eigenvalues --    1.82457   1.85256   1.91425   1.96564   2.01831
 Alpha virt. eigenvalues --    2.07115   2.12259   2.15541   2.20174   2.22064
 Alpha virt. eigenvalues --    2.26910   2.31579   2.32366   2.33583   2.38927
 Alpha virt. eigenvalues --    2.47857   2.51381   2.56504   2.62394   2.64115
 Alpha virt. eigenvalues --    2.67183   2.70183   2.84886   2.88401   2.89801
 Alpha virt. eigenvalues --    3.02248   3.08486   3.09329   3.25146   3.32801
 Alpha virt. eigenvalues --    3.42050   3.55476   3.61153   3.65829   3.78211
 Alpha virt. eigenvalues --    3.79106   3.80909   3.82506   3.82786   3.86923
 Alpha virt. eigenvalues --    3.91182   3.92530   3.92591   3.94187   3.97178
 Alpha virt. eigenvalues --    3.99442   4.02497   4.06225   4.11798   4.14173
 Alpha virt. eigenvalues --    4.17752   4.21342   4.22647   4.26212   4.31937
 Alpha virt. eigenvalues --    4.52803   4.54273   4.55689   4.66337   4.97841
 Alpha virt. eigenvalues --    4.98434   5.05569   5.07707   5.08839   5.12868
 Alpha virt. eigenvalues --    5.47899   5.82473   6.02245   6.04858   6.11493
 Alpha virt. eigenvalues --    6.34599   6.37199   6.45016   6.55450   6.66905
 Alpha virt. eigenvalues --    6.71716   6.77404   6.82513   6.84046   6.85397
 Alpha virt. eigenvalues --    6.88852   6.90133   6.90679   7.07210   7.14133
 Alpha virt. eigenvalues --    7.17156   7.23661   7.36656   7.55381   7.97089
 Alpha virt. eigenvalues --    7.99300   8.15250  11.07847  13.88305  14.68895
 Alpha virt. eigenvalues --   14.82440  14.92413  15.11388  29.02526  29.03235
 Alpha virt. eigenvalues --   29.07247  29.20219  29.22786  49.22787 148.30565
 Alpha virt. eigenvalues --  148.45433 148.72088 752.93585
          Condensed to atoms (all electrons):
              1          2          3          4          5
     1  O    8.200958  -0.196820   0.185628   0.025612   0.002950
     2  O   -0.196820   8.197179   0.030566   0.193465  -0.000821
     3  H    0.185628   0.030566   0.575006  -0.005520  -0.003068
     4  H    0.025612   0.193465  -0.005520   0.571018  -0.005012
     5  Kr   0.002950  -0.000821  -0.003068  -0.005012   0.001879
 Mulliken atomic charges:
              1
     1  O   -0.218328
     2  O   -0.223569
     3  H    0.217388
     4  H    0.220437
     5  Kr   0.004072
 Sum of Mulliken atomic charges =   0.00000
 Mulliken charges with hydrogens summed into heavy atoms:
              1
     1  O   -0.000940
     2  O   -0.003132
     5  Kr   0.004072
 Sum of Mulliken charges with hydrogens summed into heavy atoms =   0.00000
          Condensed to fragments (all electrons):
     1      -0.004072
     2       0.004072
 Electronic spatial extent (au):  <R**2>=            316.8354
 Charge=              0.0000 electrons
 Dipole moment (field-independent basis, Debye):
    X=             -2.8929    Y=             -0.0404    Z=              0.7911  Tot=              2.9994
 Quadrupole moment (field-independent basis, Debye-Ang):
   XX=            -21.0703   YY=            -10.4535   ZZ=            -12.6587
   XY=             -0.3225   XZ=              0.6989   YZ=             -0.9062
 Traceless Quadrupole moment (field-independent basis, Debye-Ang):
   XX=             -6.3428   YY=              4.2740   ZZ=              2.0688
   XY=             -0.3225   XZ=              0.6989   YZ=             -0.9062
 Octapole moment (field-independent basis, Debye-Ang**2):
  XXX=            -92.6084  YYY=             -0.2423  ZZZ=              0.1135  XYY=            -24.2186
  XXY=             -0.6262  XXZ=              0.1868  XZZ=            -25.0316  YZZ=             -0.4738
  YYZ=              1.0396  XYZ=             -1.0500
 Hexadecapole moment (field-independent basis, Debye-Ang**3):
 XXXX=           -338.7739 YYYY=            -44.9966 ZZZZ=            -11.5913 XXXY=             -0.6344
 XXXZ=             -1.1988 YYYX=             -0.5594 YYYZ=             -1.2511 ZZZX=              0.3541
 ZZZY=             -0.6064 XXYY=            -63.0296 XXZZ=            -53.4395 YYZZ=            -11.0072
 XXYZ=             -1.2023 YYXZ=              1.2250 ZZXY=             -0.6156
 N-N= 3.665981559382D+01 E-N=-4.317427893442D+02  KE= 1.506640331857D+02
 No NMR shielding tensors so no spin-rotation constants.
 Leave Link  601 at Sun May  3 10:32:18 2020, MaxMem= 1073741824 cpu:       0.7
 (Enter /home/matheus/.gaussian/g09/l122.exe)
 Counterpoise: doing DCBS calculation for fragment   2 NewBq=T
 Leave Link  122 at Sun May  3 10:32:18 2020, MaxMem= 1073741824 cpu:       0.0
 (Enter /home/matheus/.gaussian/g09/l301.exe)
 Basis read from rwf:  (5D, 7F)
 No pseudopotential information found on rwf file.
 There are   197 symmetry adapted basis functions of A   symmetry.
 Integral buffers will be    131072 words long.
 Raffenetti 2 integral format.
 Two-electron integral symmetry is turned on.
   197 basis functions,   415 primitive gaussians,   229 cartesian basis functions
    18 alpha electrons       18 beta electrons
       nuclear repulsion energy         0.0000000000 Hartrees.
 IExCor= 4639 DFT=T Ex+Corr=wB97XD ExCW=0 ScaHFX=  1.000000
 ScaDFX=  1.000000  1.000000  1.000000  1.000000 ScalE2=  1.000000  1.000000
 IRadAn=      5 IRanWt=     -1 IRanGd=            0 ICorTp=0
  HFx wShort=  0.000000 wLong=  0.250000 cFull=  0.222036 cShort=  0.000000 cLong=  0.777964
  DFx wShort=  0.000000 wLong=  0.250000 cFull=  0.000000 cShort=  0.000000 cLong=  1.000000
 NAtoms=    5 NActive=    5 NUniq=    5 SFac= 1.00D+00 NAtFMM=   60 NAOKFM=F Big=F
 R6Disp: Dispersion energy =         0.0000000000 Hartrees.
 Nuclear repulsion after empirical dispersion term =        0.0000000000 Hartrees.
 No density basis found on file   718.
 Leave Link  301 at Sun May  3 10:32:18 2020, MaxMem= 1073741824 cpu:       0.2
 (Enter /home/matheus/.gaussian/g09/l302.exe)
 NPDir=0 NMtPBC=     1 NCelOv=     1 NCel=       1 NClECP=     1 NCelD=      1
         NCelK=      1 NCelE2=     1 NClLst=     1 CellRange=     0.0.
 One-electron integrals computed using PRISM.
 NBasis=   197 RedAO= T  NBF=   197
 NBsUse=   197 1.00D-06 NBFU=   197
 Precomputing XC quadrature grid using
 IXCGrd= 2 IRadAn=           5 IRanWt=          -1 IRanGd=           0 AccXCQ= 0.00D+00.
 NRdTot=     427 NPtTot=      123512 NUsed=      126579 NTot=      126611
 NSgBfM=   229   229   229   229   229 NAtAll=     5     5.
 Leave Link  302 at Sun May  3 10:32:18 2020, MaxMem= 1073741824 cpu:       1.0
 (Enter /home/matheus/.gaussian/g09/l303.exe)
 DipDrv:  MaxL=1.
 Leave Link  303 at Sun May  3 10:32:18 2020, MaxMem= 1073741824 cpu:       0.2
 (Enter /home/matheus/.gaussian/g09/l401.exe)
 Harris functional with IExCor= 4639 diagonalized for initial guess.
 ExpMin= 2.53D-02 ExpMax= 1.17D+07 ExpMxC= 1.33D+04 IAcc=3 IRadAn=         5 AccDes= 0.00D+00
 HarFok:  IExCor= 4639 AccDes= 0.00D+00 IRadAn=         5 IDoV= 1
 ScaDFX=  1.000000  1.000000  1.000000  1.000000
 FoFCou: FMM=F IPFlag=           0 FMFlag=      100000 FMFlg1=           0
         NFxFlg=           0 DoJE=T BraDBF=F KetDBF=T FulRan=T
         Omega=  0.000000  0.000000  1.000000  0.000000  0.000000 ICntrl=     500 IOpCl=  0
         NMat0=    1 NMatS0=    1 NMatT0=    0 NMatD0=    1 NMtDS0=    0 NMtDT0=    0
         I1Cent=           4 NGrid=           0.
 Petite list used in FoFCou.
 Harris En= -2729.46082371038    
 Initial guess orbital symmetries:
       Occupied  (A) (A) (A) (A) (A) (A) (A) (A) (A) (A) (A) (A)
                 (A) (A) (A) (A) (A) (A)
       Virtual   (A) (A) (A) (A) (A) (A) (A) (A) (A) (A) (A) (A)
                 (A) (A) (A) (A) (A) (A) (A) (A) (A) (A) (A) (A)
                 (A) (A) (A) (A) (A) (A) (A) (A) (A) (A) (A) (A)
                 (A) (A) (A) (A) (A) (A) (A) (A) (A) (A) (A) (A)
                 (A) (A) (A) (A) (A) (A) (A) (A) (A) (A) (A) (A)
                 (A) (A) (A) (A) (A) (A) (A) (A) (A) (A) (A) (A)
                 (A) (A) (A) (A) (A) (A) (A) (A) (A) (A) (A) (A)
                 (A) (A) (A) (A) (A) (A) (A) (A) (A) (A) (A) (A)
                 (A) (A) (A) (A) (A) (A) (A) (A) (A) (A) (A) (A)
                 (A) (A) (A) (A) (A) (A) (A) (A) (A) (A) (A) (A)
                 (A) (A) (A) (A) (A) (A) (A) (A) (A) (A) (A) (A)
                 (A) (A) (A) (A) (A) (A) (A) (A) (A) (A) (A) (A)
                 (A) (A) (A) (A) (A) (A) (A) (A) (A) (A) (A) (A)
                 (A) (A) (A) (A) (A) (A) (A) (A) (A) (A) (A) (A)
                 (A) (A) (A) (A) (A) (A) (A) (A) (A) (A) (A)
 The electronic state of the initial guess is 1-A.
 Leave Link  401 at Sun May  3 10:32:19 2020, MaxMem= 1073741824 cpu:       3.8
 (Enter /home/matheus/.gaussian/g09/l502.exe)
 Closed shell SCF:
 Requested convergence on RMS density matrix=1.00D-08 within 128 cycles.
 Requested convergence on MAX density matrix=1.00D-06.
 Requested convergence on             energy=1.00D-06.
 No special actions if energy rises.
 Using DIIS extrapolation, IDIIS=  1040.
 Integral symmetry usage will be decided dynamically.
       126521 words used for storage of precomputed grid.
 IEnd=      305468 IEndB=      305468 NGot=  1073741824 MDV=  1073505667
 LenX=  1073505667 LenY=  1073452785
 Fock matrices will be formed incrementally for  20 cycles.

 Cycle   1  Pass 1  IDiag  1:
 FoFJK:  IHMeth= 1 ICntrl=     0 DoSepK=T KAlg= 1 I1Cent= 0 FoldK=F
 FoFCou: FMM=F IPFlag=           0 FMFlag=      100000 FMFlg1=           0
         NFxFlg=           0 DoJE=T BraDBF=F KetDBF=F FulRan=T
         Omega=  0.000000  0.000000  1.000000  0.000000  0.000000 ICntrl=     500 IOpCl=  0
         NMat0=    1 NMatS0=    1 NMatT0=    0 NMatD0=    1 NMtDS0=    0 NMtDT0=    0
         I1Cent=           0 NGrid=           0.
 Symmetry not used in FoFCou.
 E= -2753.44604611931    
 DIIS: error= 8.62D-02 at cycle   1 NSaved=   1.
 NSaved= 1 IEnMin= 1 EnMin= -2753.44604611931     IErMin= 1 ErrMin= 8.62D-02
 ErrMax= 8.62D-02 EMaxC= 1.00D-01 BMatC= 1.91D+00 BMatP= 1.91D+00
 IDIUse=3 WtCom= 1.38D-01 WtEn= 8.62D-01
 Coeff-Com:  0.100D+01
 Coeff-En:   0.100D+01
 Coeff:      0.100D+01
 Gap=     0.654 Goal=   None    Shift=    0.000
 GapD=    0.654 DampG=2.000 DampE=0.500 DampFc=1.0000 IDamp=-1.
 RMSDP=5.71D-03 MaxDP=3.77D-01              OVMax= 1.83D-01

 Cycle   2  Pass 1  IDiag  1:
 RMSU=  3.98D-03    CP:  1.04D+00
 FoFJK:  IHMeth= 1 ICntrl=     0 DoSepK=T KAlg= 1 I1Cent= 0 FoldK=F
 E= -2753.72334995131     Delta-E=       -0.277303832000 Rises=F Damp=F
 DIIS: error= 3.25D-02 at cycle   2 NSaved=   2.
 NSaved= 2 IEnMin= 2 EnMin= -2753.72334995131     IErMin= 2 ErrMin= 3.25D-02
 ErrMax= 3.25D-02 EMaxC= 1.00D-01 BMatC= 4.70D-01 BMatP= 1.91D+00
 IDIUse=3 WtCom= 6.75D-01 WtEn= 3.25D-01
 Coeff-Com:  0.327D+00 0.673D+00
 Coeff-En:   0.160D+00 0.840D+00
 Coeff:      0.273D+00 0.727D+00
 Gap=     0.492 Goal=   None    Shift=    0.000
 RMSDP=2.56D-03 MaxDP=1.64D-01 DE=-2.77D-01 OVMax= 7.68D-02

 Cycle   3  Pass 1  IDiag  1:
 RMSU=  3.71D-04    CP:  1.03D+00  5.60D-01
 FoFJK:  IHMeth= 1 ICntrl=     0 DoSepK=T KAlg= 1 I1Cent= 0 FoldK=F
 E= -2753.86691962402     Delta-E=       -0.143569672705 Rises=F Damp=F
 DIIS: error= 4.44D-03 at cycle   3 NSaved=   3.
 NSaved= 3 IEnMin= 3 EnMin= -2753.86691962402     IErMin= 3 ErrMin= 4.44D-03
 ErrMax= 4.44D-03 EMaxC= 1.00D-01 BMatC= 1.08D-02 BMatP= 4.70D-01
 IDIUse=3 WtCom= 9.56D-01 WtEn= 4.44D-02
 Coeff-Com: -0.782D-02 0.119D+00 0.889D+00
 Coeff-En:   0.000D+00 0.000D+00 0.100D+01
 Coeff:     -0.747D-02 0.114D+00 0.894D+00
 Gap=     0.518 Goal=   None    Shift=    0.000
 RMSDP=3.06D-04 MaxDP=1.82D-02 DE=-1.44D-01 OVMax= 1.23D-02

 Cycle   4  Pass 1  IDiag  1:
 RMSU=  3.99D-05    CP:  1.03D+00  6.12D-01  9.63D-01
 FoFJK:  IHMeth= 1 ICntrl=     0 DoSepK=T KAlg= 1 I1Cent= 0 FoldK=F
 E= -2753.87024237735     Delta-E=       -0.003322753333 Rises=F Damp=F
 DIIS: error= 1.84D-04 at cycle   4 NSaved=   4.
 NSaved= 4 IEnMin= 4 EnMin= -2753.87024237735     IErMin= 4 ErrMin= 1.84D-04
 ErrMax= 1.84D-04 EMaxC= 1.00D-01 BMatC= 1.54D-05 BMatP= 1.08D-02
 IDIUse=3 WtCom= 9.98D-01 WtEn= 1.84D-03
 Coeff-Com: -0.249D-03-0.174D-01-0.734D-01 0.109D+01
 Coeff-En:   0.000D+00 0.000D+00 0.000D+00 0.100D+01
 Coeff:     -0.248D-03-0.174D-01-0.732D-01 0.109D+01
 Gap=     0.516 Goal=   None    Shift=    0.000
 DSYEVD returned Info=       19749 IAlg= 4 N=   197 NDim=   197 NE2=     5448997 trying DSYEV.
 RMSDP=2.29D-05 MaxDP=8.74D-04 DE=-3.32D-03 OVMax= 9.53D-04

 Cycle   5  Pass 1  IDiag  1:
 RMSU=  8.88D-06    CP:  1.03D+00  6.11D-01  9.82D-01  1.22D+00
 FoFJK:  IHMeth= 1 ICntrl=     0 DoSepK=T KAlg= 1 I1Cent= 0 FoldK=F
 E= -2753.87025130721     Delta-E=       -0.000008929859 Rises=F Damp=F
 DIIS: error= 1.74D-05 at cycle   5 NSaved=   5.
 NSaved= 5 IEnMin= 5 EnMin= -2753.87025130721     IErMin= 5 ErrMin= 1.74D-05
 ErrMax= 1.74D-05 EMaxC= 1.00D-01 BMatC= 5.07D-08 BMatP= 1.54D-05
 IDIUse=1 WtCom= 1.00D+00 WtEn= 0.00D+00
 Coeff-Com:  0.718D-04 0.116D-02 0.990D-03-0.191D+00 0.119D+01
 Coeff:      0.718D-04 0.116D-02 0.990D-03-0.191D+00 0.119D+01
 Gap=     0.516 Goal=   None    Shift=    0.000
 RMSDP=3.72D-06 MaxDP=1.49D-04 DE=-8.93D-06 OVMax= 2.12D-04

 Cycle   6  Pass 1  IDiag  1:
 RMSU=  7.11D-07    CP:  1.03D+00  6.10D-01  9.85D-01  1.26D+00  1.19D+00
 FoFJK:  IHMeth= 1 ICntrl=     0 DoSepK=T KAlg= 1 I1Cent= 0 FoldK=F
 E= -2753.87025145353     Delta-E=       -0.000000146317 Rises=F Damp=F
 DIIS: error= 1.69D-06 at cycle   6 NSaved=   6.
 NSaved= 6 IEnMin= 6 EnMin= -2753.87025145353     IErMin= 6 ErrMin= 1.69D-06
 ErrMax= 1.69D-06 EMaxC= 1.00D-01 BMatC= 8.37D-10 BMatP= 5.07D-08
 IDIUse=1 WtCom= 1.00D+00 WtEn= 0.00D+00
 Coeff-Com:  0.930D-05 0.351D-03 0.782D-03-0.478D-01 0.229D+00 0.818D+00
 Coeff:      0.930D-05 0.351D-03 0.782D-03-0.478D-01 0.229D+00 0.818D+00
 Gap=     0.516 Goal=   None    Shift=    0.000
 RMSDP=2.29D-07 MaxDP=8.78D-06 DE=-1.46D-07 OVMax= 1.14D-05

 Cycle   7  Pass 1  IDiag  1:
 RMSU=  7.94D-08    CP:  1.03D+00  6.10D-01  9.85D-01  1.26D+00  1.20D+00
                    CP:  1.11D+00
 FoFJK:  IHMeth= 1 ICntrl=     0 DoSepK=T KAlg= 1 I1Cent= 0 FoldK=F
 E= -2753.87025145439     Delta-E=       -0.000000000861 Rises=F Damp=F
 DIIS: error= 2.82D-07 at cycle   7 NSaved=   7.
 NSaved= 7 IEnMin= 7 EnMin= -2753.87025145439     IErMin= 7 ErrMin= 2.82D-07
 ErrMax= 2.82D-07 EMaxC= 1.00D-01 BMatC= 2.16D-11 BMatP= 8.37D-10
 IDIUse=1 WtCom= 1.00D+00 WtEn= 0.00D+00
 Coeff-Com: -0.161D-05 0.172D-04 0.136D-03 0.483D-03-0.141D-01 0.924D-01
 Coeff-Com:  0.921D+00
 Coeff:     -0.161D-05 0.172D-04 0.136D-03 0.483D-03-0.141D-01 0.924D-01
 Coeff:      0.921D+00
 Gap=     0.516 Goal=   None    Shift=    0.000
 RMSDP=5.44D-08 MaxDP=2.25D-06 DE=-8.61D-10 OVMax= 2.18D-06

 Cycle   8  Pass 1  IDiag  1:
 RMSU=  1.63D-08    CP:  1.03D+00  6.10D-01  9.85D-01  1.26D+00  1.20D+00
                    CP:  1.15D+00  1.08D+00
 FoFJK:  IHMeth= 1 ICntrl=     0 DoSepK=T KAlg= 1 I1Cent= 0 FoldK=F
 E= -2753.87025145441     Delta-E=       -0.000000000018 Rises=F Damp=F
 DIIS: error= 6.76D-08 at cycle   8 NSaved=   8.
 NSaved= 8 IEnMin= 8 EnMin= -2753.87025145441     IErMin= 8 ErrMin= 6.76D-08
 ErrMax= 6.76D-08 EMaxC= 1.00D-01 BMatC= 1.56D-12 BMatP= 2.16D-11
 IDIUse=1 WtCom= 1.00D+00 WtEn= 0.00D+00
 Coeff-Com: -0.806D-07-0.481D-05 0.516D-05 0.152D-02-0.801D-02-0.175D-01
 Coeff-Com:  0.908D-01 0.933D+00
 Coeff:     -0.806D-07-0.481D-05 0.516D-05 0.152D-02-0.801D-02-0.175D-01
 Coeff:      0.908D-01 0.933D+00
 Gap=     0.516 Goal=   None    Shift=    0.000
 RMSDP=1.27D-08 MaxDP=5.23D-07 DE=-1.77D-11 OVMax= 3.65D-07

 Cycle   9  Pass 1  IDiag  1:
 RMSU=  2.48D-09    CP:  1.03D+00  6.10D-01  9.85D-01  1.26D+00  1.20D+00
                    CP:  1.16D+00  1.13D+00  1.10D+00
 FoFJK:  IHMeth= 1 ICntrl=     0 DoSepK=T KAlg= 1 I1Cent= 0 FoldK=F
 E= -2753.87025145441     Delta-E=        0.000000000001 Rises=F Damp=F
 DIIS: error= 1.01D-08 at cycle   9 NSaved=   9.
 NSaved= 9 IEnMin= 8 EnMin= -2753.87025145441     IErMin= 9 ErrMin= 1.01D-08
 ErrMax= 1.01D-08 EMaxC= 1.00D-01 BMatC= 8.03D-15 BMatP= 1.56D-12
 IDIUse=1 WtCom= 1.00D+00 WtEn= 0.00D+00
 Coeff-Com:  0.107D-07 0.855D-07-0.166D-05-0.126D-03 0.645D-03 0.832D-03
 Coeff-Com: -0.188D-01-0.105D+00 0.112D+01
 Coeff:      0.107D-07 0.855D-07-0.166D-05-0.126D-03 0.645D-03 0.832D-03
 Coeff:     -0.188D-01-0.105D+00 0.112D+01
 Gap=     0.516 Goal=   None    Shift=    0.000
 RMSDP=1.64D-09 MaxDP=7.02D-08 DE= 9.09D-13 OVMax= 9.52D-08

 SCF Done:  E(RwB97XD) =  -2753.87025145     A.U. after    9 cycles
             Convg  =    0.1643D-08             -V/T =  2.0013
 KE= 2.750237721214D+03 PE=-6.580145809007D+03 EE= 1.076037836339D+03
 Leave Link  502 at Sun May  3 10:32:47 2020, MaxMem= 1073741824 cpu:     225.2
 (Enter /home/matheus/.gaussian/g09/l601.exe)
 Copying SCF densities to generalized density rwf, IOpCl= 0 IROHF=0.

 **********************************************************************

            Population analysis using the SCF density.

 **********************************************************************

 Orbital symmetries:
       Occupied  (A) (A) (A) (A) (A) (A) (A) (A) (A) (A) (A) (A)
                 (A) (A) (A) (A) (A) (A)
       Virtual   (A) (A) (A) (A) (A) (A) (A) (A) (A) (A) (A) (A)
                 (A) (A) (A) (A) (A) (A) (A) (A) (A) (A) (A) (A)
                 (A) (A) (A) (A) (A) (A) (A) (A) (A) (A) (A) (A)
                 (A) (A) (A) (A) (A) (A) (A) (A) (A) (A) (A) (A)
                 (A) (A) (A) (A) (A) (A) (A) (A) (A) (A) (A) (A)
                 (A) (A) (A) (A) (A) (A) (A) (A) (A) (A) (A) (A)
                 (A) (A) (A) (A) (A) (A) (A) (A) (A) (A) (A) (A)
                 (A) (A) (A) (A) (A) (A) (A) (A) (A) (A) (A) (A)
                 (A) (A) (A) (A) (A) (A) (A) (A) (A) (A) (A) (A)
                 (A) (A) (A) (A) (A) (A) (A) (A) (A) (A) (A) (A)
                 (A) (A) (A) (A) (A) (A) (A) (A) (A) (A) (A) (A)
                 (A) (A) (A) (A) (A) (A) (A) (A) (A) (A) (A) (A)
                 (A) (A) (A) (A) (A) (A) (A) (A) (A) (A) (A) (A)
                 (A) (A) (A) (A) (A) (A) (A) (A) (A) (A) (A) (A)
                 (A) (A) (A) (A) (A) (A) (A) (A) (A) (A) (A)
 The electronic state is 1-A.
 Alpha  occ. eigenvalues -- -513.08068 -67.34872 -60.89745 -60.89744 -60.89743
 Alpha  occ. eigenvalues --   -9.80179  -7.49479  -7.49478  -7.49478  -3.36163
 Alpha  occ. eigenvalues --   -3.36163  -3.36163  -3.36162  -3.36162  -1.00827
 Alpha  occ. eigenvalues --   -0.48266  -0.48263  -0.48261
 Alpha virt. eigenvalues --    0.03367   0.05267   0.08803   0.10020   0.12494
 Alpha virt. eigenvalues --    0.13349   0.13911   0.14025   0.16249   0.17424
 Alpha virt. eigenvalues --    0.17987   0.18889   0.21150   0.25685   0.26434
 Alpha virt. eigenvalues --    0.26611   0.29429   0.31198   0.33261   0.36796
 Alpha virt. eigenvalues --    0.37174   0.38438   0.39245   0.40098   0.42005
 Alpha virt. eigenvalues --    0.42105   0.45415   0.52776   0.56529   0.57554
 Alpha virt. eigenvalues --    0.61606   0.64909   0.68918   0.70059   0.71387
 Alpha virt. eigenvalues --    0.72234   0.73759   0.75303   0.75651   0.77373
 Alpha virt. eigenvalues --    0.78369   0.82645   0.84674   0.85699   0.88340
 Alpha virt. eigenvalues --    0.88794   0.90060   0.91834   0.92751   0.96604
 Alpha virt. eigenvalues --    0.98095   0.98900   0.99711   1.00994   1.02220
 Alpha virt. eigenvalues --    1.04627   1.08019   1.09568   1.13808   1.15037
 Alpha virt. eigenvalues --    1.19764   1.22632   1.27128   1.32973   1.35976
 Alpha virt. eigenvalues --    1.38769   1.41464   1.44001   1.47593   1.52770
 Alpha virt. eigenvalues --    1.56489   1.59538   1.61195   1.74722   1.77324
 Alpha virt. eigenvalues --    1.84400   1.84530   1.86827   1.90129   2.16192
 Alpha virt. eigenvalues --    2.23041   2.23745   2.26620   2.28655   2.31527
 Alpha virt. eigenvalues --    2.32807   2.35500   2.37053   2.38152   2.42322
 Alpha virt. eigenvalues --    2.44292   2.47321   2.49183   2.50698   2.50939
 Alpha virt. eigenvalues --    2.52262   2.54064   2.58669   2.59275   2.61197
 Alpha virt. eigenvalues --    2.62093   2.65289   2.68521   2.69363   2.70874
 Alpha virt. eigenvalues --    2.76211   2.80230   2.81663   2.89271   2.91794
 Alpha virt. eigenvalues --    2.95631   2.99913   3.05709   3.11625   3.20232
 Alpha virt. eigenvalues --    3.24943   3.27374   3.31816   3.41687   3.49405
 Alpha virt. eigenvalues --    3.61573   3.65764   3.86028   3.88565   4.02927
 Alpha virt. eigenvalues --    4.44012   4.47453   4.53538   4.58953   4.70059
 Alpha virt. eigenvalues --    4.71830   4.86429   4.89974   4.98300   5.04250
 Alpha virt. eigenvalues --    5.16195   5.23899   5.59864   5.61215   5.74376
 Alpha virt. eigenvalues --    5.97990   6.02966   6.14452   6.76007   6.89995
 Alpha virt. eigenvalues --    7.34138   7.37467   7.65045   7.69789   7.77617
 Alpha virt. eigenvalues --    7.86484   8.02028   8.15016   8.19580   8.27455
 Alpha virt. eigenvalues --    8.27852   8.42418   8.68738   8.97888   9.52498
 Alpha virt. eigenvalues --    9.73324   9.81682   9.90972   9.94218   9.95313
 Alpha virt. eigenvalues --   10.20252  10.23013  10.65483  10.90730  11.53229
 Alpha virt. eigenvalues --   11.63353  11.71841  11.98022  12.02454  13.25374
 Alpha virt. eigenvalues --   13.62890  14.54803  62.43522  64.72834
          Condensed to atoms (all electrons):
              1          2          3          4          5
     1  O    0.001139  -0.000257  -0.000879   0.000403  -0.007283
     2  O   -0.000257   0.002945   0.000108  -0.002425  -0.003544
     3  H   -0.000879   0.000108   0.001370  -0.000144  -0.010974
     4  H    0.000403  -0.002425  -0.000144   0.002964  -0.017471
     5  Kr  -0.007283  -0.003544  -0.010974  -0.017471  36.076514
 Mulliken atomic charges:
              1
     1  O    0.006877
     2  O    0.003173
     3  H    0.010519
     4  H    0.016673
     5  Kr  -0.037242
 Sum of Mulliken atomic charges =   0.00000
 Mulliken charges with hydrogens summed into heavy atoms:
              1
     1  O    0.017396
     2  O    0.019846
     5  Kr  -0.037242
 Sum of Mulliken charges with hydrogens summed into heavy atoms =   0.00000
          Condensed to fragments (all electrons):
     1       0.037242
     2      -0.037242
 Electronic spatial extent (au):  <R**2>=            159.9060
 Charge=              0.0000 electrons
 Dipole moment (field-independent basis, Debye):
    X=              0.0013    Y=              0.0002    Z=              0.0000  Tot=              0.0013
 Quadrupole moment (field-independent basis, Debye-Ang):
   XX=            -17.6418   YY=            -17.6527   ZZ=            -17.6616
   XY=              0.0009   XZ=              0.0026   YZ=             -0.0014
 Traceless Quadrupole moment (field-independent basis, Debye-Ang):
   XX=              0.0102   YY=             -0.0007   ZZ=             -0.0095
   XY=              0.0009   XZ=              0.0026   YZ=             -0.0014
 Octapole moment (field-independent basis, Debye-Ang**2):
  XXX=             51.2432  YYY=              0.0636  ZZZ=              0.1670  XYY=             17.0958
  XXY=              0.0190  XXZ=              0.0520  XZZ=             17.1013  YZZ=              0.0218
  YYZ=              0.0561  XYZ=              0.0004
 Hexadecapole moment (field-independent basis, Debye-Ang**3):
 XXXX=           -117.6833 YYYY=            -18.4830 ZZZZ=            -18.5082 XXXY=             -0.0576
 XXXZ=             -0.1548 YYYX=             -0.0589 YYYZ=             -0.0001 ZZZX=             -0.1556
 ZZZY=             -0.0023 XXYY=            -22.7056 XXZZ=            -22.7137 YYZZ=             -6.1641
 XXYZ=             -0.0008 YYXZ=             -0.0524 ZZXY=             -0.0187
 N-N= 0.000000000000D+00 E-N=-6.580145808040D+03  KE= 2.750237721214D+03
 No NMR shielding tensors so no spin-rotation constants.
 Leave Link  601 at Sun May  3 10:32:47 2020, MaxMem= 1073741824 cpu:       0.7
 (Enter /home/matheus/.gaussian/g09/l122.exe)
 Counterpoise: doing MCBS calculation for fragment   1
 Leave Link  122 at Sun May  3 10:32:47 2020, MaxMem= 1073741824 cpu:       0.0
 (Enter /home/matheus/.gaussian/g09/l301.exe)
 Basis read from rwf:  (5D, 7F)
 No pseudopotential information found on rwf file.
 There are   138 symmetry adapted basis functions of A   symmetry.
 Integral buffers will be    131072 words long.
 Raffenetti 2 integral format.
 Two-electron integral symmetry is turned on.
   138 basis functions,   198 primitive gaussians,   160 cartesian basis functions
     9 alpha electrons        9 beta electrons
       nuclear repulsion energy        36.6600463863 Hartrees.
 IExCor= 4639 DFT=T Ex+Corr=wB97XD ExCW=0 ScaHFX=  1.000000
 ScaDFX=  1.000000  1.000000  1.000000  1.000000 ScalE2=  1.000000  1.000000
 IRadAn=      5 IRanWt=     -1 IRanGd=            0 ICorTp=0
  HFx wShort=  0.000000 wLong=  0.250000 cFull=  0.222036 cShort=  0.000000 cLong=  0.777964
  DFx wShort=  0.000000 wLong=  0.250000 cFull=  0.000000 cShort=  0.000000 cLong=  1.000000
 NAtoms=    5 NActive=    4 NUniq=    4 SFac= 1.00D+00 NAtFMM=   60 NAOKFM=F Big=F
 R6Disp: Dispersion energy =        -0.0002307925 Hartrees.
 Nuclear repulsion after empirical dispersion term =       36.6598155938 Hartrees.
 No density basis found on file   718.
 Leave Link  301 at Sun May  3 10:32:47 2020, MaxMem= 1073741824 cpu:       0.2
 (Enter /home/matheus/.gaussian/g09/l302.exe)
 NPDir=0 NMtPBC=     1 NCelOv=     1 NCel=       1 NClECP=     1 NCelD=      1
         NCelK=      1 NCelE2=     1 NClLst=     1 CellRange=     0.0.
 One-electron integrals computed using PRISM.
 NBasis=   138 RedAO= T  NBF=   138
 NBsUse=   138 1.00D-06 NBFU=   138
 Precomputing XC quadrature grid using
 IXCGrd= 2 IRadAn=           5 IRanWt=          -1 IRanGd=           0 AccXCQ= 0.00D+00.
 NRdTot=     344 NPtTot=       92556 NUsed=       95038 NTot=       95070
 NSgBfM=   160   160   160   160   160 NAtAll=     4     4.
 Leave Link  302 at Sun May  3 10:32:47 2020, MaxMem= 1073741824 cpu:       0.7
 (Enter /home/matheus/.gaussian/g09/l303.exe)
 DipDrv:  MaxL=1.
 Leave Link  303 at Sun May  3 10:32:47 2020, MaxMem= 1073741824 cpu:       0.1
 (Enter /home/matheus/.gaussian/g09/l401.exe)
 Harris functional with IExCor= 4639 diagonalized for initial guess.
 ExpMin= 2.53D-02 ExpMax= 1.53D+04 ExpMxC= 5.22D+02 IAcc=3 IRadAn=         5 AccDes= 0.00D+00
 HarFok:  IExCor= 4639 AccDes= 0.00D+00 IRadAn=         5 IDoV= 1
 ScaDFX=  1.000000  1.000000  1.000000  1.000000
 FoFCou: FMM=F IPFlag=           0 FMFlag=      100000 FMFlg1=           0
         NFxFlg=           0 DoJE=T BraDBF=F KetDBF=T FulRan=T
         Omega=  0.000000  0.000000  1.000000  0.000000  0.000000 ICntrl=     500 IOpCl=  0
         NMat0=    1 NMatS0=    1 NMatT0=    0 NMatD0=    1 NMtDS0=    0 NMtDT0=    0
         I1Cent=           4 NGrid=           0.
 Petite list used in FoFCou.
 Harris En= -145.942894066095    
 Initial guess orbital symmetries:
       Occupied  (A) (A) (A) (A) (A) (A) (A) (A) (A)
       Virtual   (A) (A) (A) (A) (A) (A) (A) (A) (A) (A) (A) (A)
                 (A) (A) (A) (A) (A) (A) (A) (A) (A) (A) (A) (A)
                 (A) (A) (A) (A) (A) (A) (A) (A) (A) (A) (A) (A)
                 (A) (A) (A) (A) (A) (A) (A) (A) (A) (A) (A) (A)
                 (A) (A) (A) (A) (A) (A) (A) (A) (A) (A) (A) (A)
                 (A) (A) (A) (A) (A) (A) (A) (A) (A) (A) (A) (A)
                 (A) (A) (A) (A) (A) (A) (A) (A) (A) (A) (A) (A)
                 (A) (A) (A) (A) (A) (A) (A) (A) (A) (A) (A) (A)
                 (A) (A) (A) (A) (A) (A) (A) (A) (A) (A) (A) (A)
                 (A) (A) (A) (A) (A) (A) (A) (A) (A) (A) (A) (A)
                 (A) (A) (A) (A) (A) (A) (A) (A) (A)
 The electronic state of the initial guess is 1-A.
 Leave Link  401 at Sun May  3 10:32:48 2020, MaxMem= 1073741824 cpu:       2.3
 (Enter /home/matheus/.gaussian/g09/l502.exe)
 Closed shell SCF:
 Requested convergence on RMS density matrix=1.00D-08 within 128 cycles.
 Requested convergence on MAX density matrix=1.00D-06.
 Requested convergence on             energy=1.00D-06.
 No special actions if energy rises.
 Using DIIS extrapolation, IDIIS=  1040.
 Integral symmetry usage will be decided dynamically.
        94980 words used for storage of precomputed grid.
 IEnd=      192360 IEndB=      192360 NGot=  1073741824 MDV=  1073591865
 LenX=  1073591865 LenY=  1073565824
 Fock matrices will be formed incrementally for  20 cycles.

 Cycle   1  Pass 1  IDiag  1:
 FoFJK:  IHMeth= 1 ICntrl=     0 DoSepK=T KAlg= 1 I1Cent= 0 FoldK=F
 FoFCou: FMM=F IPFlag=           0 FMFlag=      100000 FMFlg1=           0
         NFxFlg=           0 DoJE=T BraDBF=F KetDBF=F FulRan=T
         Omega=  0.000000  0.000000  1.000000  0.000000  0.000000 ICntrl=     500 IOpCl=  0
         NMat0=    1 NMatS0=    1 NMatT0=    0 NMatD0=    1 NMtDS0=    0 NMtDT0=    0
         I1Cent=           0 NGrid=           0.
 Symmetry not used in FoFCou.
 E= -151.455450941972    
 DIIS: error= 5.62D-02 at cycle   1 NSaved=   1.
 NSaved= 1 IEnMin= 1 EnMin= -151.455450941972     IErMin= 1 ErrMin= 5.62D-02
 ErrMax= 5.62D-02 EMaxC= 1.00D-01 BMatC= 3.18D-01 BMatP= 3.18D-01
 IDIUse=3 WtCom= 4.38D-01 WtEn= 5.62D-01
 Coeff-Com:  0.100D+01
 Coeff-En:   0.100D+01
 Coeff:      0.100D+01
 Gap=     0.525 Goal=   None    Shift=    0.000
 GapD=    0.525 DampG=2.000 DampE=0.500 DampFc=1.0000 IDamp=-1.
 RMSDP=3.46D-03 MaxDP=9.57D-02              OVMax= 1.23D-01

 Cycle   2  Pass 1  IDiag  1:
 RMSU=  2.40D-03    CP:  9.53D-01
 FoFJK:  IHMeth= 1 ICntrl=     0 DoSepK=T KAlg= 1 I1Cent= 0 FoldK=F
 E= -151.497406144586     Delta-E=       -0.041955202614 Rises=F Damp=F
 DIIS: error= 2.93D-02 at cycle   2 NSaved=   2.
 NSaved= 2 IEnMin= 2 EnMin= -151.497406144586     IErMin= 2 ErrMin= 2.93D-02
 ErrMax= 2.93D-02 EMaxC= 1.00D-01 BMatC= 9.78D-02 BMatP= 3.18D-01
 IDIUse=3 WtCom= 7.07D-01 WtEn= 2.93D-01
 Coeff-Com:  0.336D+00 0.664D+00
 Coeff-En:   0.327D+00 0.673D+00
 Coeff:      0.333D+00 0.667D+00
 Gap=     0.473 Goal=   None    Shift=    0.000
 RMSDP=1.46D-03 MaxDP=4.73D-02 DE=-4.20D-02 OVMax= 6.18D-02

 Cycle   3  Pass 1  IDiag  1:
 RMSU=  5.58D-04    CP:  9.75D-01  6.48D-01
 FoFJK:  IHMeth= 1 ICntrl=     0 DoSepK=T KAlg= 1 I1Cent= 0 FoldK=F
[...]
 FoFJK:  IHMeth= 1 ICntrl=     0 DoSepK=T KAlg= 1 I1Cent= 0 FoldK=F
 E= -2753.87012829714     Delta-E=       -0.000000626328 Rises=F Damp=F
 DIIS: error= 5.99D-06 at cycle   2 NSaved=   2.
 NSaved= 2 IEnMin= 2 EnMin= -2753.87012829714     IErMin= 2 ErrMin= 5.99D-06
 ErrMax= 5.99D-06 EMaxC= 1.00D-01 BMatC= 4.98D-09 BMatP= 3.85D-06
 IDIUse=1 WtCom= 1.00D+00 WtEn= 0.00D+00
 Coeff-Com: -0.115D-01 0.101D+01
 Coeff:     -0.115D-01 0.101D+01
 Gap=     0.514 Goal=   None    Shift=    0.000
 RMSDP=1.31D-06 MaxDP=5.77D-05 DE=-6.26D-07 OVMax= 5.55D-05

 Cycle   3  Pass 1  IDiag  1:
 RMSU=  4.94D-07    CP:  1.00D+00  1.08D+00
 FoFJK:  IHMeth= 1 ICntrl=     0 DoSepK=T KAlg= 1 I1Cent= 0 FoldK=F
 E= -2753.87012830608     Delta-E=       -0.000000008946 Rises=F Damp=F
 DIIS: error= 9.14D-07 at cycle   3 NSaved=   3.
 NSaved= 3 IEnMin= 3 EnMin= -2753.87012830608     IErMin= 3 ErrMin= 9.14D-07
 ErrMax= 9.14D-07 EMaxC= 1.00D-01 BMatC= 1.44D-10 BMatP= 4.98D-09
 IDIUse=1 WtCom= 1.00D+00 WtEn= 0.00D+00
 Coeff-Com: -0.525D-05-0.103D+00 0.110D+01
 Coeff:     -0.525D-05-0.103D+00 0.110D+01
 Gap=     0.514 Goal=   None    Shift=    0.000
 RMSDP=1.87D-07 MaxDP=6.63D-06 DE=-8.95D-09 OVMax= 1.11D-05

 Cycle   4  Pass 1  IDiag  1:
 RMSU=  5.33D-08    CP:  1.00D+00  1.08D+00  1.23D+00
 FoFJK:  IHMeth= 1 ICntrl=     0 DoSepK=T KAlg= 1 I1Cent= 0 FoldK=F
 E= -2753.87012830632     Delta-E=       -0.000000000241 Rises=F Damp=F
 DIIS: error= 4.11D-07 at cycle   4 NSaved=   4.
 NSaved= 4 IEnMin= 4 EnMin= -2753.87012830632     IErMin= 4 ErrMin= 4.11D-07
 ErrMax= 4.11D-07 EMaxC= 1.00D-01 BMatC= 2.09D-11 BMatP= 1.44D-10
 IDIUse=1 WtCom= 1.00D+00 WtEn= 0.00D+00
 Coeff-Com:  0.261D-03-0.532D-01 0.323D+00 0.730D+00
 Coeff:      0.261D-03-0.532D-01 0.323D+00 0.730D+00
 Gap=     0.514 Goal=   None    Shift=    0.000
 RMSDP=2.57D-08 MaxDP=8.94D-07 DE=-2.41D-10 OVMax= 1.55D-06

 Cycle   5  Pass 1  IDiag  1:
 RMSU=  1.13D-08    CP:  1.00D+00  1.08D+00  1.26D+00  1.05D+00
 FoFJK:  IHMeth= 1 ICntrl=     0 DoSepK=T KAlg= 1 I1Cent= 0 FoldK=F
 E= -2753.87012830634     Delta-E=       -0.000000000018 Rises=F Damp=F
 DIIS: error= 4.32D-08 at cycle   5 NSaved=   5.
 NSaved= 5 IEnMin= 5 EnMin= -2753.87012830634     IErMin= 5 ErrMin= 4.32D-08
 ErrMax= 4.32D-08 EMaxC= 1.00D-01 BMatC= 2.50D-13 BMatP= 2.09D-11
 IDIUse=1 WtCom= 1.00D+00 WtEn= 0.00D+00
 Coeff-Com: -0.265D-05 0.335D-02-0.362D-01 0.270D-02 0.103D+01
 Coeff:     -0.265D-05 0.335D-02-0.362D-01 0.270D-02 0.103D+01
 Gap=     0.514 Goal=   None    Shift=    0.000
 RMSDP=1.03D-08 MaxDP=4.55D-07 DE=-1.77D-11 OVMax= 4.36D-07

 Cycle   6  Pass 1  IDiag  1:
 RMSU=  1.40D-09    CP:  1.00D+00  1.08D+00  1.26D+00  1.12D+00  1.15D+00
 FoFJK:  IHMeth= 1 ICntrl=     0 DoSepK=T KAlg= 1 I1Cent= 0 FoldK=F
 E= -2753.87012830635     Delta-E=       -0.000000000005 Rises=F Damp=F
 DIIS: error= 1.43D-08 at cycle   6 NSaved=   6.
 NSaved= 6 IEnMin= 6 EnMin= -2753.87012830635     IErMin= 6 ErrMin= 1.43D-08
 ErrMax= 1.43D-08 EMaxC= 1.00D-01 BMatC= 2.85D-14 BMatP= 2.50D-13
 IDIUse=1 WtCom= 1.00D+00 WtEn= 0.00D+00
 Coeff-Com: -0.134D-04 0.358D-02-0.262D-01-0.326D-01 0.287D+00 0.768D+00
 Coeff:     -0.134D-04 0.358D-02-0.262D-01-0.326D-01 0.287D+00 0.768D+00
 Gap=     0.514 Goal=   None    Shift=    0.000
 RMSDP=1.40D-09 MaxDP=6.19D-08 DE=-5.46D-12 OVMax= 8.40D-08

 SCF Done:  E(RwB97XD) =  -2753.87012831     A.U. after    6 cycles
             Convg  =    0.1403D-08             -V/T =  2.0013
 KE= 2.750283619194D+03 PE=-6.580194918161D+03 EE= 1.076041170661D+03
 Leave Link  502 at Sun May  3 10:55:42 2020, MaxMem= 1073741824 cpu:     108.8
 (Enter /home/matheus/.gaussian/g09/l122.exe)
 Restoring MOs from calculation   4 to rwf.
 Counterpoise: doing MCBS calculation for fragment   1
 Leave Link  122 at Sun May  3 10:55:42 2020, MaxMem= 1073741824 cpu:       0.0
 (Enter /home/matheus/.gaussian/g09/l301.exe)
 Basis read from rwf:  (5D, 7F)
 No pseudopotential information found on rwf file.
 There are   138 symmetry adapted basis functions of A   symmetry.
 Integral buffers will be    131072 words long.
 Raffenetti 2 integral format.
 Two-electron integral symmetry is turned on.
   138 basis functions,   198 primitive gaussians,   160 cartesian basis functions
     9 alpha electrons        9 beta electrons
       nuclear repulsion energy        36.6600463863 Hartrees.
 IExCor= 4639 DFT=T Ex+Corr=wB97XD ExCW=0 ScaHFX=  1.000000
 ScaDFX=  1.000000  1.000000  1.000000  1.000000 ScalE2=  1.000000  1.000000
 IRadAn=      5 IRanWt=     -1 IRanGd=            0 ICorTp=0
  HFx wShort=  0.000000 wLong=  0.250000 cFull=  0.222036 cShort=  0.000000 cLong=  0.777964
  DFx wShort=  0.000000 wLong=  0.250000 cFull=  0.000000 cShort=  0.000000 cLong=  1.000000
 NAtoms=    5 NActive=    4 NUniq=    4 SFac= 1.00D+00 NAtFMM=   60 NAOKFM=F Big=F
 R6Disp: Dispersion energy =        -0.0002307925 Hartrees.
 Nuclear repulsion after empirical dispersion term =       36.6598155938 Hartrees.
 No density basis found on file   718.
 Leave Link  301 at Sun May  3 10:55:42 2020, MaxMem= 1073741824 cpu:       0.2
 (Enter /home/matheus/.gaussian/g09/l302.exe)
 NPDir=0 NMtPBC=     1 NCelOv=     1 NCel=       1 NClECP=     1 NCelD=      1
         NCelK=      1 NCelE2=     1 NClLst=     1 CellRange=     0.0.
 One-electron integrals computed using PRISM.
 NBasis=   138 RedAO= T  NBF=   138
 NBsUse=   138 1.00D-06 NBFU=   138
 Precomputing XC quadrature grid using
 IXCGrd= 2 IRadAn=           5 IRanWt=          -1 IRanGd=           0 AccXCQ= 0.00D+00.
 NRdTot=     344 NPtTot=       92556 NUsed=       95038 NTot=       95070
 NSgBfM=   160   160   160   160   160 NAtAll=     4     4.
 Leave Link  302 at Sun May  3 10:55:42 2020, MaxMem= 1073741824 cpu:       0.8
 (Enter /home/matheus/.gaussian/g09/l303.exe)
 DipDrv:  MaxL=1.
 Leave Link  303 at Sun May  3 10:55:42 2020, MaxMem= 1073741824 cpu:       0.1
 (Enter /home/matheus/.gaussian/g09/l401.exe)
 Initial guess read from the read-write file.
 Guess basis will be translated and rotated to current coordinates.
 Initial guess orbital symmetries:
       Occupied  (A) (A) (A) (A) (A) (A) (A) (A) (A)
       Virtual   (A) (A) (A) (A) (A) (A) (A) (A) (A) (A) (A) (A)
                 (A) (A) (A) (A) (A) (A) (A) (A) (A) (A) (A) (A)
                 (A) (A) (A) (A) (A) (A) (A) (A) (A) (A) (A) (A)
                 (A) (A) (A) (A) (A) (A) (A) (A) (A) (A) (A) (A)
                 (A) (A) (A) (A) (A) (A) (A) (A) (A) (A) (A) (A)
                 (A) (A) (A) (A) (A) (A) (A) (A) (A) (A) (A) (A)
                 (A) (A) (A) (A) (A) (A) (A) (A) (A) (A) (A) (A)
                 (A) (A) (A) (A) (A) (A) (A) (A) (A) (A) (A) (A)
                 (A) (A) (A) (A) (A) (A) (A) (A) (A) (A) (A) (A)
                 (A) (A) (A) (A) (A) (A) (A) (A) (A) (A) (A) (A)
                 (A) (A) (A) (A) (A) (A) (A) (A) (A)
 The electronic state of the initial guess is 1-A.
 Generating alternative initial guess.
 Harris functional with IExCor= 4639 diagonalized for initial guess.
 ExpMin= 2.53D-02 ExpMax= 1.53D+04 ExpMxC= 5.22D+02 IAcc=3 IRadAn=         5 AccDes= 0.00D+00
 HarFok:  IExCor= 4639 AccDes= 0.00D+00 IRadAn=         5 IDoV= 1
 ScaDFX=  1.000000  1.000000  1.000000  1.000000
 FoFCou: FMM=F IPFlag=           0 FMFlag=      100000 FMFlg1=           0
         NFxFlg=           0 DoJE=T BraDBF=F KetDBF=T FulRan=T
         Omega=  0.000000  0.000000  1.000000  0.000000  0.000000 ICntrl=     500 IOpCl=  0
         NMat0=    1 NMatS0=    1 NMatT0=    0 NMatD0=    1 NMtDS0=    0 NMtDT0=    0
         I1Cent=           4 NGrid=           0.
 Petite list used in FoFCou.
 Harris En= -145.942894066389    
 Leave Link  401 at Sun May  3 10:55:42 2020, MaxMem= 1073741824 cpu:       2.4
 (Enter /home/matheus/.gaussian/g09/l502.exe)
 Closed shell SCF:
 Requested convergence on RMS density matrix=1.00D-08 within 128 cycles.
 Requested convergence on MAX density matrix=1.00D-06.
 Requested convergence on             energy=1.00D-06.
 No special actions if energy rises.
 Using DIIS extrapolation, IDIIS=  1040.
 Integral symmetry usage will be decided dynamically.
        94980 words used for storage of precomputed grid.
 IEnd=      192360 IEndB=      192360 NGot=  1073741824 MDV=  1073591865
 LenX=  1073591865 LenY=  1073565824
 Fock matrices will be formed incrementally for  20 cycles.

 Cycle   1  Pass 1  IDiag  1:
 FoFJK:  IHMeth= 1 ICntrl=     0 DoSepK=T KAlg= 1 I1Cent= 0 FoldK=F
 FoFCou: FMM=F IPFlag=           0 FMFlag=      100000 FMFlg1=           0
         NFxFlg=           0 DoJE=T BraDBF=F KetDBF=F FulRan=T
         Omega=  0.000000  0.000000  1.000000  0.000000  0.000000 ICntrl=     500 IOpCl=  0
         NMat0=    1 NMatS0=    1 NMatT0=    0 NMatD0=    1 NMtDS0=    0 NMtDT0=    0
         I1Cent=           0 NGrid=           0.
 Symmetry not used in FoFCou.
 E= -151.554202899824    
 DIIS: error= 2.59D-06 at cycle   1 NSaved=   1.
 NSaved= 1 IEnMin= 1 EnMin= -151.554202899824     IErMin= 1 ErrMin= 2.59D-06
 ErrMax= 2.59D-06 EMaxC= 1.00D-01 BMatC= 1.19D-09 BMatP= 1.19D-09
 IDIUse=1 WtCom= 1.00D+00 WtEn= 0.00D+00
 Coeff-Com:  0.100D+01
 Coeff:      0.100D+01
 Gap=     0.404 Goal=   None    Shift=    0.000
 RMSDP=2.60D-07 MaxDP=6.27D-06              OVMax= 1.03D-05

 Cycle   2  Pass 1  IDiag  1:
 RMSU=  1.84D-07    CP:  1.00D+00
 FoFJK:  IHMeth= 1 ICntrl=     0 DoSepK=T KAlg= 1 I1Cent= 0 FoldK=F
 E= -151.554202901037     Delta-E=       -0.000000001213 Rises=F Damp=F
 DIIS: error= 4.84D-07 at cycle   2 NSaved=   2.
 NSaved= 2 IEnMin= 2 EnMin= -151.554202901037     IErMin= 2 ErrMin= 4.84D-07
 ErrMax= 4.84D-07 EMaxC= 1.00D-01 BMatC= 4.24D-11 BMatP= 1.19D-09
 IDIUse=1 WtCom= 1.00D+00 WtEn= 0.00D+00
 Coeff-Com: -0.111D+00 0.111D+01
 Coeff:     -0.111D+00 0.111D+01
 Gap=     0.404 Goal=   None    Shift=    0.000
 RMSDP=7.01D-08 MaxDP=2.11D-06 DE=-1.21D-09 OVMax= 3.07D-06

 Cycle   3  Pass 1  IDiag  1:
 RMSU=  2.29D-08    CP:  1.00D+00  1.24D+00
 FoFJK:  IHMeth= 1 ICntrl=     0 DoSepK=T KAlg= 1 I1Cent= 0 FoldK=F
 E= -151.554202901107     Delta-E=       -0.000000000070 Rises=F Damp=F
 DIIS: error= 1.52D-07 at cycle   3 NSaved=   3.
 NSaved= 3 IEnMin= 3 EnMin= -151.554202901107     IErMin= 3 ErrMin= 1.52D-07
 ErrMax= 1.52D-07 EMaxC= 1.00D-01 BMatC= 3.51D-12 BMatP= 4.24D-11
 IDIUse=1 WtCom= 1.00D+00 WtEn= 0.00D+00
 Coeff-Com: -0.269D-01 0.116D+00 0.911D+00
 Coeff:     -0.269D-01 0.116D+00 0.911D+00
 Gap=     0.404 Goal=   None    Shift=    0.000
 RMSDP=1.71D-08 MaxDP=4.26D-07 DE=-7.00D-11 OVMax= 9.84D-07

 Cycle   4  Pass 1  IDiag  1:
 RMSU=  7.54D-09    CP:  1.00D+00  1.29D+00  1.13D+00
 FoFJK:  IHMeth= 1 ICntrl=     0 DoSepK=T KAlg= 1 I1Cent= 0 FoldK=F
 E= -151.554202901112     Delta-E=       -0.000000000005 Rises=F Damp=F
 DIIS: error= 1.46D-07 at cycle   4 NSaved=   4.
 NSaved= 4 IEnMin= 4 EnMin= -151.554202901112     IErMin= 4 ErrMin= 1.46D-07
 ErrMax= 1.46D-07 EMaxC= 1.00D-01 BMatC= 2.38D-12 BMatP= 3.51D-12
 IDIUse=1 WtCom= 1.00D+00 WtEn= 0.00D+00
 Coeff-Com: -0.292D-02-0.482D-01 0.459D+00 0.592D+00
 Coeff:     -0.292D-02-0.482D-01 0.459D+00 0.592D+00
 Gap=     0.404 Goal=   None    Shift=    0.000
 RMSDP=7.89D-09 MaxDP=2.21D-07 DE=-4.83D-12 OVMax= 5.61D-07

 SCF Done:  E(RwB97XD) =  -151.554202901     A.U. after    4 cycles
             Convg  =    0.7895D-08             -V/T =  2.0059
 KE= 1.506632766060D+02 PE=-4.317407473339D+02 EE= 9.286345223291D+01
 Leave Link  502 at Sun May  3 10:55:46 2020, MaxMem= 1073741824 cpu:      29.7
 (Enter /home/matheus/.gaussian/g09/l122.exe)
 Restoring MOs from calculation   5 to rwf.
 Counterpoise: doing MCBS calculation for fragment   2
 Leave Link  122 at Sun May  3 10:55:46 2020, MaxMem= 1073741824 cpu:       0.0
 (Enter /home/matheus/.gaussian/g09/l301.exe)
 Basis read from rwf:  (5D, 7F)
 No pseudopotential information found on rwf file.
 There are    59 symmetry adapted basis functions of A   symmetry.
 Integral buffers will be    131072 words long.
 Raffenetti 2 integral format.
 Two-electron integral symmetry is turned on.
    59 basis functions,   217 primitive gaussians,    69 cartesian basis functions
    18 alpha electrons       18 beta electrons
       nuclear repulsion energy         0.0000000000 Hartrees.
 IExCor= 4639 DFT=T Ex+Corr=wB97XD ExCW=0 ScaHFX=  1.000000
 ScaDFX=  1.000000  1.000000  1.000000  1.000000 ScalE2=  1.000000  1.000000
 IRadAn=      5 IRanWt=     -1 IRanGd=            0 ICorTp=0
  HFx wShort=  0.000000 wLong=  0.250000 cFull=  0.222036 cShort=  0.000000 cLong=  0.777964
  DFx wShort=  0.000000 wLong=  0.250000 cFull=  0.000000 cShort=  0.000000 cLong=  1.000000
 NAtoms=    5 NActive=    1 NUniq=    1 SFac= 1.00D+00 NAtFMM=   60 NAOKFM=F Big=F
 R6Disp: Dispersion energy =         0.0000000000 Hartrees.
 Nuclear repulsion after empirical dispersion term =        0.0000000000 Hartrees.
 No density basis found on file   718.
 Leave Link  301 at Sun May  3 10:55:46 2020, MaxMem= 1073741824 cpu:       0.2
 (Enter /home/matheus/.gaussian/g09/l302.exe)
 NPDir=0 NMtPBC=     1 NCelOv=     1 NCel=       1 NClECP=     1 NCelD=      1
         NCelK=      1 NCelE2=     1 NClLst=     1 CellRange=     0.0.
 One-electron integrals computed using PRISM.
 NBasis=    59 RedAO= T  NBF=    59
 NBsUse=    59 1.00D-06 NBFU=    59
 Precomputing XC quadrature grid using
 IXCGrd= 2 IRadAn=           5 IRanWt=          -1 IRanGd=           0 AccXCQ= 0.00D+00.
 NRdTot=      81 NPtTot=       30352 NUsed=       30981 NTot=       31013
 NSgBfM=    69    69    69    69    69 NAtAll=     1     1.
 Leave Link  302 at Sun May  3 10:55:46 2020, MaxMem= 1073741824 cpu:       0.7
 (Enter /home/matheus/.gaussian/g09/l303.exe)
 DipDrv:  MaxL=1.
 Leave Link  303 at Sun May  3 10:55:46 2020, MaxMem= 1073741824 cpu:       0.1
 (Enter /home/matheus/.gaussian/g09/l401.exe)
 Initial guess read from the read-write file.
 Guess basis will be translated and rotated to current coordinates.
 Initial guess orbital symmetries:
       Occupied  (A) (A) (A) (A) (A) (A) (A) (A) (A) (A) (A) (A)
                 (A) (A) (A) (A) (A) (A)
       Virtual   (A) (A) (A) (A) (A) (A) (A) (A) (A) (A) (A) (A)
                 (A) (A) (A) (A) (A) (A) (A) (A) (A) (A) (A) (A)
                 (A) (A) (A) (A) (A) (A) (A) (A) (A) (A) (A) (A)
                 (A) (A) (A) (A) (A)
 The electronic state of the initial guess is 1-A.
 Generating alternative initial guess.
 Harris functional with IExCor= 4639 diagonalized for initial guess.
 ExpMin= 4.00D-02 ExpMax= 1.17D+07 ExpMxC= 1.33D+04 IAcc=3 IRadAn=         5 AccDes= 0.00D+00
 HarFok:  IExCor= 4639 AccDes= 0.00D+00 IRadAn=         5 IDoV= 1
 ScaDFX=  1.000000  1.000000  1.000000  1.000000
 FoFCou: FMM=F IPFlag=           0 FMFlag=      100000 FMFlg1=           0
         NFxFlg=           0 DoJE=T BraDBF=F KetDBF=T FulRan=T
         Omega=  0.000000  0.000000  1.000000  0.000000  0.000000 ICntrl=     500 IOpCl=  0
         NMat0=    1 NMatS0=    1 NMatT0=    0 NMatD0=    1 NMtDS0=    0 NMtDT0=    0
         I1Cent=           4 NGrid=           0.
 Petite list used in FoFCou.
 Harris En= -2729.45839233129    
 Leave Link  401 at Sun May  3 10:55:46 2020, MaxMem= 1073741824 cpu:       1.0
 (Enter /home/matheus/.gaussian/g09/l502.exe)
 Closed shell SCF:
 Requested convergence on RMS density matrix=1.00D-08 within 128 cycles.
 Requested convergence on MAX density matrix=1.00D-06.
 Requested convergence on             energy=1.00D-06.
 No special actions if energy rises.
 Using DIIS extrapolation, IDIIS=  1040.
 Integral symmetry usage will be decided dynamically.
        30923 words used for storage of precomputed grid.
 IEnd=       64406 IEndB=       64406 NGot=  1073741824 MDV=  1073698889
 LenX=  1073698889 LenY=  1073693687
 Fock matrices will be formed incrementally for  20 cycles.

 Cycle   1  Pass 1  IDiag  1:
 FoFJK:  IHMeth= 1 ICntrl=     0 DoSepK=T KAlg= 1 I1Cent= 0 FoldK=F
 FoFCou: FMM=F IPFlag=           0 FMFlag=      100000 FMFlg1=           0
         NFxFlg=           0 DoJE=T BraDBF=F KetDBF=F FulRan=T
         Omega=  0.000000  0.000000  1.000000  0.000000  0.000000 ICntrl=     500 IOpCl=  0
         NMat0=    1 NMatS0=    1 NMatT0=    0 NMatD0=    1 NMtDS0=    0 NMtDT0=    0
         I1Cent=           0 NGrid=           0.
 Symmetry not used in FoFCou.
 E= -2753.87011063501    
 DIIS: error= 9.60D-14 at cycle   1 NSaved=   1.
 NSaved= 1 IEnMin= 1 EnMin= -2753.87011063501     IErMin= 1 ErrMin= 9.60D-14
 ErrMax= 9.60D-14 EMaxC= 1.00D-01 BMatC= 3.80D-25 BMatP= 3.80D-25
 IDIUse=1 WtCom= 1.00D+00 WtEn= 0.00D+00
 Coeff-Com:  0.100D+01
 Coeff:      0.100D+01
 Gap=     0.578 Goal=   None    Shift=    0.000
 DSYEVD returned Info=          89 IAlg= 4 N=    59 NDim=    59 NE2=    18198197 trying DSYEV.
 RMSDP=7.39D-15 MaxDP=1.51D-13              OVMax= 6.97D-14

 SCF Done:  E(RwB97XD) =  -2753.87011064     A.U. after    1 cycles
             Convg  =    0.7390D-14             -V/T =  2.0013
 KE= 2.750289370128D+03 PE=-6.580200885036D+03 EE= 1.076041404273D+03
 Leave Link  502 at Sun May  3 10:55:48 2020, MaxMem= 1073741824 cpu:      11.4
 (Enter /home/matheus/.gaussian/g09/l122.exe)
 Restoring MOs from calculation   1 to rwf.
 Counterpoise: corrected energy =   -2905.424761042060
 Counterpoise: BSSE energy =       0.000021158139
 Leave Link  122 at Sun May  3 10:55:48 2020, MaxMem= 1073741824 cpu:       0.0
 (Enter /home/matheus/.gaussian/g09/l108.exe)
 Scan completed.

 Summary of the potential surface scan:
   N      R1          SCF    
 ----  ---------  -----------
    1     3.0000  -2753.87011
    2     3.1000  -2753.87011
    3     3.2000  -2753.87011
    4     3.3000  -2753.87011
    5     3.4000  -2753.87011
    6     3.5000  -2753.87011
    7     3.6000  -2753.87011
    8     3.7000  -2753.87011
    9     3.8000  -2753.87011
   10     3.9000  -2753.87011
   11     4.0000  -2753.87011
   12     4.1000  -2753.87011
   13     4.2000  -2753.87011
   14     4.3000  -2753.87011
   15     4.4000  -2753.87011
   16     4.5000  -2753.87011
   17     4.6000  -2753.87011
   18     4.7000  -2753.87011
   19     4.8000  -2753.87011
   20     4.9000  -2753.87011
   21     5.0000  -2753.87011
 ----  ---------  -----------
  
 Leave Link  108 at Sun May  3 10:55:48 2020, MaxMem= 1073741824 cpu:       0.0
 (Enter /home/matheus/.gaussian/g09/l9999.exe)

 Test job not archived.
 1\1\GINC-REDGIANT\Scan\RwB97XD\Aug-CC-pVTZ\H2Kr1O2\ROOT\03-May-2020\1\
 \#p wb97xd/aug-cc-PVTz iop(3/107=0250000000) iop(3/108=0250000000) int
 =ultrafine counterpoise=2 Scan\\TCC\\0,1\O,0,0.,0.,0.725\O,0,0.,0.,-0.
 725\H,0,0.4593602974,0.795635374,1.0235104166\H,0,0.,0.9187205947,-1.0
 235104166\Kr,0,0.,R1,0.\\R1=3.,s,20,0.1\\Version=EM64L-G09RevC.01\Stat
 e=1-A\HF=-2753.8701106,-2753.8701106,-2753.8701106,-2753.8701106,-2753
 .8701106,-2753.8701106,-2753.8701106,-2753.8701106,-2753.8701106,-2753
 .8701106,-2753.8701106,-2753.8701106,-2753.8701106,-2753.8701106,-2753
 .8701106,-2753.8701106,-2753.8701106,-2753.8701106,-2753.8701106,-2753
 .8701106,-2753.8701106\RMSD=9.654e-09,1.847e-10,5.406e-11,3.458e-11,1.
 948e-11,1.188e-11,7.097e-12,4.279e-12,2.568e-12,1.547e-12,9.307e-13,5.
 629e-13,3.330e-13,1.983e-13,1.239e-13,7.208e-14,4.238e-14,2.915e-14,1.
 408e-14,9.098e-15,7.390e-15\PG=C01 [X(H2Kr1O2)]\\@


 I (ERNEST RUTHERFORD) CAME INTO THE ROOM, WHICH WAS HALF DARK, AND PRESENTLY
 SPOTTED LORD KELVIN IN THE AUDIENCE AND REALIZED I WAS IN TROUBLE AT
 THE LAST PART OF MY SPEECH DEALING THE AGE OF THE EARTH, WHERE MY VIEWS
 CONFLICTED WITH HIS.  TO MY RELIEF KELVIN FELL FAST ASLEEP, BUT AS I CAME
 TO THE IMPORTANT POINT, I SAW THE OLD BIRD SIT UP AND COCK A BALEFUL GLANCE
 AT ME! THEN A SUDDEN INSPIRATION CAME AND I SAID LORD KELVIN HAD LIMITED
 THE AGE OF THE EARTH PROVIDED NO NEW SOURCE WAS DISCOVERED. THAT
 PROPHETIC UTTERANCE REFERS TO WHAT WE ARE NOW CONSIDERING TONIGHT, RADIUM!
 BEHOLD!  THE OLD BOY BEAMED UPON ME.
 Job cpu time:  0 days  3 hours 16 minutes 43.5 seconds.
 File lengths (MBytes):  RWF=     33 Int=      0 D2E=      0 Chk=      8 Scr=      1
 Normal termination of Gaussian 09 at Sun May  3 10:55:48 2020.
