 Entering Gaussian System, Link 0=g09
 Input=/home/matheus/.tcc/Inputs-wb97xd/H2O2-Kr_22.com
 Output=/home/matheus/.tcc/Logs-wb97xd/H2O2-Kr_22.log
 Initial command:
 /home/matheus/.gaussian/g09/l1.exe /home/matheus/.gaussian/g09/scratch/Gau-7505.inp -scrdir=/home/matheus/.gaussian/g09/scratch/
 Entering Link 1 = /home/matheus/.gaussian/g09/l1.exe PID=      7508.
  
 Copyright (c) 1988,1990,1992,1993,1995,1998,2003,2009,2011,
            Gaussian, Inc.  All Rights Reserved.
  
 This is part of the Gaussian(R) 09 program.  It is based on
 the Gaussian(R) 03 system (copyright 2003, Gaussian, Inc.),
 the Gaussian(R) 98 system (copyright 1998, Gaussian, Inc.),
 the Gaussian(R) 94 system (copyright 1995, Gaussian, Inc.),
 the Gaussian 92(TM) system (copyright 1992, Gaussian, Inc.),
 the Gaussian 90(TM) system (copyright 1990, Gaussian, Inc.),
 the Gaussian 88(TM) system (copyright 1988, Gaussian, Inc.),
 the Gaussian 86(TM) system (copyright 1986, Carnegie Mellon
 University), and the Gaussian 82(TM) system (copyright 1983,
 Carnegie Mellon University). Gaussian is a federally registered
 trademark of Gaussian, Inc.
  
 This software contains proprietary and confidential information,
 including trade secrets, belonging to Gaussian, Inc.
  
 This software is provided under written license and may be
 used, copied, transmitted, or stored only in accord with that
 written license.
  
 The following legend is applicable only to US Government
 contracts under FAR:
  
                    RESTRICTED RIGHTS LEGEND
  
 Use, reproduction and disclosure by the US Government is
 subject to restrictions as set forth in subparagraphs (a)
 and (c) of the Commercial Computer Software - Restricted
 Rights clause in FAR 52.227-19.
  
 Gaussian, Inc.
 340 Quinnipiac St., Bldg. 40, Wallingford CT 06492
  
  
 ---------------------------------------------------------------
 Warning -- This program may not be used in any manner that
 competes with the business of Gaussian, Inc. or will provide
 assistance to any competitor of Gaussian, Inc.  The licensee
 of this program is prohibited from giving any competitor of
 Gaussian, Inc. access to this program.  By using this program,
 the user acknowledges that Gaussian, Inc. is engaged in the
 business of creating and licensing software in the field of
 computational chemistry and represents and warrants to the
 licensee that it is not a competitor of Gaussian, Inc. and that
 it will not use this program in any manner prohibited above.
 ---------------------------------------------------------------
  

 Cite this work as:
 Gaussian 09, Revision C.01,
 M. J. Frisch, G. W. Trucks, H. B. Schlegel, G. E. Scuseria, 
 M. A. Robb, J. R. Cheeseman, G. Scalmani, V. Barone, B. Mennucci, 
 G. A. Petersson, H. Nakatsuji, M. Caricato, X. Li, H. P. Hratchian, 
 A. F. Izmaylov, J. Bloino, G. Zheng, J. L. Sonnenberg, M. Hada, 
 M. Ehara, K. Toyota, R. Fukuda, J. Hasegawa, M. Ishida, T. Nakajima, 
 Y. Honda, O. Kitao, H. Nakai, T. Vreven, J. A. Montgomery, Jr., 
 J. E. Peralta, F. Ogliaro, M. Bearpark, J. J. Heyd, E. Brothers, 
 K. N. Kudin, V. N. Staroverov, T. Keith, R. Kobayashi, J. Normand, 
 K. Raghavachari, A. Rendell, J. C. Burant, S. S. Iyengar, J. Tomasi, 
 M. Cossi, N. Rega, J. M. Millam, M. Klene, J. E. Knox, J. B. Cross, 
 V. Bakken, C. Adamo, J. Jaramillo, R. Gomperts, R. E. Stratmann, 
 O. Yazyev, A. J. Austin, R. Cammi, C. Pomelli, J. W. Ochterski, 
 R. L. Martin, K. Morokuma, V. G. Zakrzewski, G. A. Voth, 
 P. Salvador, J. J. Dannenberg, S. Dapprich, A. D. Daniels, 
 O. Farkas, J. B. Foresman, J. V. Ortiz, J. Cioslowski, 
 and D. J. Fox, Gaussian, Inc., Wallingford CT, 2010.
 
 ******************************************
 Gaussian 09:  EM64L-G09RevC.01 23-Sep-2011
                 3-May-2020 
 ******************************************
 %mem=8GB
 %nproc=8
 Will use up to    8 processors via shared memory.
 ----------------------------------------------------------------------
 #p wb97xd/aug-cc-PVTz iop(3/107=0250000000) iop(3/108=0250000000) int=
 ultrafine counterpoise=2 Scan
 ----------------------------------------------------------------------
 1/38=1,60=1,62=2/1,8;
 2/12=2,17=6,18=5,29=3,40=1/2;
 1/38=1,53=5172,62=2/22;
 3/5=16,6=1,7=10,11=2,16=1,25=1,30=1,74=-58,75=-5,107=250000000,108=250000000/1,2,3;
 4//1;
 5/5=2,38=5/2;
 6/7=2,8=2,9=2,10=2,18=1,28=1/1;
 1/53=4052,62=2,63=1/22;
 3/5=7,6=11,7=10,11=2,16=1,25=1,30=1,74=-58,75=-5,82=7,107=250000000,108=250000000/1,2,3;
 4//1;
 5/5=2,38=5/2;
 6/7=2,8=2,9=2,10=2,18=1,28=1/1;
 1/53=3042,62=2,63=2/22;
 3/5=7,6=11,7=10,11=2,16=1,25=1,30=1,74=-58,75=-5,82=7,107=250000000,108=250000000/1,2,3;
 4//1;
 5/5=2,38=5/2;
 6/7=2,8=2,9=2,10=2,18=1,28=1/1;
 1/53=2032,62=2,63=3/22;
 3/5=7,6=11,7=10,11=2,16=1,25=1,30=1,74=-58,75=-5,82=7,107=250000000,108=250000000/1,2,3;
 4//1;
 5/5=2,38=5/2;
 6/7=2,8=2,9=2,10=2,18=1,28=1/1;
 1/53=1022,62=2,63=4/22;
 3/5=7,6=11,7=10,11=2,16=1,25=1,30=1,74=-58,75=-5,82=7,107=250000000,108=250000000/1,2,3;
 4//1;
 5/5=2,38=5/2;
 6/7=2,8=2,9=2,10=2,18=1,28=1/1;
 1/53=5014,62=2,63=5/22;
 1/60=1,62=2/8(1);
 99/9=1/99;
 2/29=3/2;
 1/53=5173,62=2/22;
 3/5=7,6=11,7=10,11=2,16=1,25=1,30=1,74=-58,75=-5,82=7,107=250000000,108=250000000/1,2,3;
 4/5=5,16=3/1;
 5/5=2,38=5/2;
 1/53=4053,62=2,63=1/22;
 3/5=7,6=11,7=10,11=2,16=1,25=1,30=1,74=-58,75=-5,82=7,107=250000000,108=250000000/1,2,3;
 4/5=5,16=3/1;
 5/5=2,38=5/2;
 1/53=3043,62=2,63=2/22;
 3/5=7,6=11,7=10,11=2,16=1,25=1,30=1,74=-58,75=-5,82=7,107=250000000,108=250000000/1,2,3;
 4/5=5,16=3/1;
 5/5=2,38=5/2;
 1/53=2033,62=2,63=3/22;
 3/5=7,6=11,7=10,11=2,16=1,25=1,30=1,74=-58,75=-5,82=7,107=250000000,108=250000000/1,2,3;
 4/5=5,16=3/1;
 5/5=2,38=5/2;
 1/53=1024,62=2,63=4/22;
 3/5=7,6=11,7=10,11=2,16=1,25=1,30=1,74=-58,75=-5,82=7,107=250000000,108=250000000/1,2,3;
 4/5=5,16=3/1;
 5/5=2,38=5/2;
 1/53=5014,62=2,63=5/22;
 1/60=1,62=2/8(-22);
 99/9=1/99;
 Leave Link    1 at Sun May  3 18:46:28 2020, MaxMem= 1073741824 cpu:       0.1
 (Enter /home/matheus/.gaussian/g09/l101.exe)
 ---
 TCC
 ---
 Charge =  0 Multiplicity = 1 in supermolecule
 Charge =  0 Multiplicity = 1 in fragment  1.
 Charge =  0 Multiplicity = 1 in fragment  2.
 Symbolic Z-Matrix:
 O(Fragment=1)         0.        0.        0.725 
 O(Fragment=1)         0.        0.       -0.725 
 H(Fragment=1)        -0.59054  -0.70378   1.02351 
 H(Fragment=1)         0.        0.91872  -1.02351 
 Kr(Fragment=2)        0.       R1        0. 
       Variables:
  R1                    3.     Scan 20    0.1    
 
 NAtoms=      5 NQM=        0 NQMF=       0 NMMI=      5 NMMIF=      0
                NMic=       0 NMicF=      0.
                    Isotopes and Nuclear Properties:
 (Nuclear quadrupole moments (NQMom) in fm**2, nuclear magnetic moments (NMagM)
  in nuclear magnetons)

  Atom         1           2           3           4           5
 IAtWgt=          16          16           1           1          84
 AtmWgt=  15.9949146  15.9949146   1.0078250   1.0078250  83.9115064
 NucSpn=           0           0           1           1           0
 AtZEff=   0.0000000   0.0000000   0.0000000   0.0000000   0.0000000
 NQMom=    0.0000000   0.0000000   0.0000000   0.0000000   0.0000000
 NMagM=    0.0000000   0.0000000   2.7928460   2.7928460   0.0000000
 Leave Link  101 at Sun May  3 18:46:28 2020, MaxMem= 1073741824 cpu:       0.3
 (Enter /home/matheus/.gaussian/g09/l108.exe)
 Scan the potential surface.
 Variable   Value     No. Steps Step-Size
 -------- ----------- --------- ---------
     1       3.000000      20      0.1000
 A total of     21 points will be computed.
 Leave Link  108 at Sun May  3 18:46:28 2020, MaxMem= 1073741824 cpu:       0.0
 (Enter /home/matheus/.gaussian/g09/l202.exe)
 ---------------------------------------------------------------------------------------------------
                            Z-MATRIX (ANGSTROMS AND DEGREES)
   CD    Cent   Atom    N1       Length/X        N2       Alpha/Y        N3        Beta/Z          J
 ---------------------------------------------------------------------------------------------------
      1      1  O        0   0.000000          0.000000          0.725000
      2      2  O        0   0.000000          0.000000         -0.725000
      3      3  H        0  -0.590542         -0.703781          1.023510
      4      4  H        0   0.000000          0.918721         -1.023510
      5      5  Kr       0   0.000000          3.000000          0.000000
 ---------------------------------------------------------------------------------------------------
                         Z-Matrix orientation:                         
 ---------------------------------------------------------------------
 Center     Atomic      Atomic             Coordinates (Angstroms)
 Number     Number       Type             X           Y           Z
 ---------------------------------------------------------------------
      1          8           0        0.000000    0.000000    0.725000
      2          8           0        0.000000    0.000000   -0.725000
      3          1           0       -0.590542   -0.703781    1.023510
      4          1           0        0.000000    0.918721   -1.023510
      5         36           0        0.000000    3.000000    0.000000
 ---------------------------------------------------------------------
                    Distance matrix (angstroms):
                    1          2          3          4          5
     1  O    0.000000
     2  O    1.450000   0.000000
     3  H    0.966000   1.975180   0.000000
     4  H    1.975180   0.966000   2.677974   0.000000
     5  Kr   3.086361   3.086361   3.887712   2.319331   0.000000
 Stoichiometry    H2KrO2
 Framework group  C1[X(H2KrO2)]
 Deg. of freedom     9
 Full point group                 C1      NOp   1
 Largest Abelian subgroup         C1      NOp   1
 Largest concise Abelian subgroup C1      NOp   1
                         Standard orientation:                         
 ---------------------------------------------------------------------
 Center     Atomic      Atomic             Coordinates (Angstroms)
 Number     Number       Type             X           Y           Z
 ---------------------------------------------------------------------
      1          8           0       -2.015651   -0.687348   -0.079909
      2          8           0       -1.990960    0.760101    0.002433
      3          1           0       -2.733117   -1.006163    0.482902
      4          1           0       -1.067391    1.041693    0.032139
      5         36           0        0.995928   -0.017154    0.002910
 ---------------------------------------------------------------------
 Rotational constants (GHZ):     26.2569855      2.3123407      2.1308521
 Leave Link  202 at Sun May  3 18:46:28 2020, MaxMem= 1073741824 cpu:       0.0
 (Enter /home/matheus/.gaussian/g09/l122.exe)
 Leave Link  122 at Sun May  3 18:46:28 2020, MaxMem= 1073741824 cpu:       0.0
 (Enter /home/matheus/.gaussian/g09/l301.exe)
 Standard basis: Aug-CC-pVTZ (5D, 7F)
 Ernie: Thresh=  0.10000D-02 Tol=  0.10000D-05 Strict=F.
 Ernie:  38 primitive shells out of 205 were deleted.
 There are   197 symmetry adapted basis functions of A   symmetry.
 Integral buffers will be    131072 words long.
 Raffenetti 2 integral format.
 Two-electron integral symmetry is turned on.
   197 basis functions,   415 primitive gaussians,   229 cartesian basis functions
    27 alpha electrons       27 beta electrons
       nuclear repulsion energy       148.4787781510 Hartrees.
 IExCor= 4639 DFT=T Ex+Corr=wB97XD ExCW=0 ScaHFX=  1.000000
 ScaDFX=  1.000000  1.000000  1.000000  1.000000 ScalE2=  1.000000  1.000000
 IRadAn=      5 IRanWt=     -1 IRanGd=            0 ICorTp=0
  HFx wShort=  0.000000 wLong=  0.250000 cFull=  0.222036 cShort=  0.000000 cLong=  0.777964
  DFx wShort=  0.000000 wLong=  0.250000 cFull=  0.000000 cShort=  0.000000 cLong=  1.000000
 NAtoms=    5 NActive=    5 NUniq=    5 SFac= 1.00D+00 NAtFMM=   60 NAOKFM=F Big=F
 R6Disp: Dispersion energy =        -0.0008029767 Hartrees.
 Nuclear repulsion after empirical dispersion term =      148.4779751743 Hartrees.
 Leave Link  301 at Sun May  3 18:46:28 2020, MaxMem= 1073741824 cpu:       0.2
 (Enter /home/matheus/.gaussian/g09/l302.exe)
 NPDir=0 NMtPBC=     1 NCelOv=     1 NCel=       1 NClECP=     1 NCelD=      1
         NCelK=      1 NCelE2=     1 NClLst=     1 CellRange=     0.0.
 One-electron integrals computed using PRISM.
 NBasis=   197 RedAO= T  NBF=   197
 NBsUse=   197 1.00D-06 NBFU=   197
 Precomputing XC quadrature grid using
 IXCGrd= 2 IRadAn=           5 IRanWt=          -1 IRanGd=           0 AccXCQ= 0.00D+00.
 NRdTot=     427 NPtTot=      123814 NUsed=      126881 NTot=      126913
 NSgBfM=   229   229   229   229   229 NAtAll=     5     5.
 Leave Link  302 at Sun May  3 18:46:28 2020, MaxMem= 1073741824 cpu:       0.9
 (Enter /home/matheus/.gaussian/g09/l303.exe)
 DipDrv:  MaxL=1.
 Leave Link  303 at Sun May  3 18:46:28 2020, MaxMem= 1073741824 cpu:       0.2
 (Enter /home/matheus/.gaussian/g09/l401.exe)
 Harris functional with IExCor= 4639 diagonalized for initial guess.
 ExpMin= 2.53D-02 ExpMax= 1.17D+07 ExpMxC= 1.33D+04 IAcc=3 IRadAn=         5 AccDes= 0.00D+00
 HarFok:  IExCor= 4639 AccDes= 0.00D+00 IRadAn=         5 IDoV= 1
 ScaDFX=  1.000000  1.000000  1.000000  1.000000
 FoFCou: FMM=F IPFlag=           0 FMFlag=      100000 FMFlg1=           0
         NFxFlg=           0 DoJE=T BraDBF=F KetDBF=T FulRan=T
         Omega=  0.000000  0.000000  1.000000  0.000000  0.000000 ICntrl=     500 IOpCl=  0
         NMat0=    1 NMatS0=    1 NMatT0=    0 NMatD0=    1 NMtDS0=    0 NMtDT0=    0
         I1Cent=           4 NGrid=           0.
 Petite list used in FoFCou.
 Harris En= -2875.39532902522    
 Initial guess orbital symmetries:
       Occupied  (A) (A) (A) (A) (A) (A) (A) (A) (A) (A) (A) (A)
                 (A) (A) (A) (A) (A) (A) (A) (A) (A) (A) (A) (A)
                 (A) (A) (A)
       Virtual   (A) (A) (A) (A) (A) (A) (A) (A) (A) (A) (A) (A)
                 (A) (A) (A) (A) (A) (A) (A) (A) (A) (A) (A) (A)
                 (A) (A) (A) (A) (A) (A) (A) (A) (A) (A) (A) (A)
                 (A) (A) (A) (A) (A) (A) (A) (A) (A) (A) (A) (A)
                 (A) (A) (A) (A) (A) (A) (A) (A) (A) (A) (A) (A)
                 (A) (A) (A) (A) (A) (A) (A) (A) (A) (A) (A) (A)
                 (A) (A) (A) (A) (A) (A) (A) (A) (A) (A) (A) (A)
                 (A) (A) (A) (A) (A) (A) (A) (A) (A) (A) (A) (A)
                 (A) (A) (A) (A) (A) (A) (A) (A) (A) (A) (A) (A)
                 (A) (A) (A) (A) (A) (A) (A) (A) (A) (A) (A) (A)
                 (A) (A) (A) (A) (A) (A) (A) (A) (A) (A) (A) (A)
                 (A) (A) (A) (A) (A) (A) (A) (A) (A) (A) (A) (A)
                 (A) (A) (A) (A) (A) (A) (A) (A) (A) (A) (A) (A)
                 (A) (A) (A) (A) (A) (A) (A) (A) (A) (A) (A) (A)
                 (A) (A)
 The electronic state of the initial guess is 1-A.
 Leave Link  401 at Sun May  3 18:46:29 2020, MaxMem= 1073741824 cpu:       4.6
 (Enter /home/matheus/.gaussian/g09/l502.exe)
 Closed shell SCF:
 Requested convergence on RMS density matrix=1.00D-08 within 128 cycles.
 Requested convergence on MAX density matrix=1.00D-06.
 Requested convergence on             energy=1.00D-06.
 No special actions if energy rises.
 Using DIIS extrapolation, IDIIS=  1040.
 Integral symmetry usage will be decided dynamically.
       126823 words used for storage of precomputed grid.
 IEnd=      305770 IEndB=      305770 NGot=  1073741824 MDV=  1073505365
 LenX=  1073505365 LenY=  1073452483
 Fock matrices will be formed incrementally for  20 cycles.

 Cycle   1  Pass 1  IDiag  1:
 FoFJK:  IHMeth= 1 ICntrl=     0 DoSepK=T KAlg= 1 I1Cent= 0 FoldK=F
 FoFCou: FMM=F IPFlag=           0 FMFlag=      100000 FMFlg1=           0
         NFxFlg=           0 DoJE=T BraDBF=F KetDBF=F FulRan=T
         Omega=  0.000000  0.000000  1.000000  0.000000  0.000000 ICntrl=     500 IOpCl=  0
         NMat0=    1 NMatS0=    1 NMatT0=    0 NMatD0=    1 NMtDS0=    0 NMtDT0=    0
         I1Cent=           0 NGrid=           0.
 Symmetry not used in FoFCou.
 E= -2904.90221139581    
 DIIS: error= 7.37D-02 at cycle   1 NSaved=   1.
 NSaved= 1 IEnMin= 1 EnMin= -2904.90221139581     IErMin= 1 ErrMin= 7.37D-02
 ErrMax= 7.37D-02 EMaxC= 1.00D-01 BMatC= 2.21D+00 BMatP= 2.21D+00
 IDIUse=3 WtCom= 2.63D-01 WtEn= 7.37D-01
 Coeff-Com:  0.100D+01
 Coeff-En:   0.100D+01
 Coeff:      0.100D+01
 Gap=     0.538 Goal=   None    Shift=    0.000
 GapD=    0.538 DampG=2.000 DampE=0.500 DampFc=1.0000 IDamp=-1.
 RMSDP=6.12D-03 MaxDP=3.66D-01              OVMax= 1.80D-01

 Cycle   2  Pass 1  IDiag  1:
 RMSU=  4.30D-03    CP:  1.03D+00
 FoFJK:  IHMeth= 1 ICntrl=     0 DoSepK=T KAlg= 1 I1Cent= 0 FoldK=F
 E= -2905.22139227716     Delta-E=       -0.319180881355 Rises=F Damp=F
 DIIS: error= 3.55D-02 at cycle   2 NSaved=   2.
 NSaved= 2 IEnMin= 2 EnMin= -2905.22139227716     IErMin= 2 ErrMin= 3.55D-02
 ErrMax= 3.55D-02 EMaxC= 1.00D-01 BMatC= 5.65D-01 BMatP= 2.21D+00
 IDIUse=3 WtCom= 6.45D-01 WtEn= 3.55D-01
 Coeff-Com:  0.328D+00 0.672D+00
 Coeff-En:   0.199D+00 0.801D+00
 Coeff:      0.282D+00 0.718D+00
 Gap=     0.479 Goal=   None    Shift=    0.000
 RMSDP=2.69D-03 MaxDP=1.58D-01 DE=-3.19D-01 OVMax= 7.43D-02

 Cycle   3  Pass 1  IDiag  1:
 RMSU=  5.74D-04    CP:  1.02D+00  5.80D-01
 FoFJK:  IHMeth= 1 ICntrl=     0 DoSepK=T KAlg= 1 I1Cent= 0 FoldK=F
 E= -2905.41547576226     Delta-E=       -0.194083485091 Rises=F Damp=F
 DIIS: error= 6.75D-03 at cycle   3 NSaved=   3.
 NSaved= 3 IEnMin= 3 EnMin= -2905.41547576226     IErMin= 3 ErrMin= 6.75D-03
 ErrMax= 6.75D-03 EMaxC= 1.00D-01 BMatC= 1.99D-02 BMatP= 5.65D-01
 IDIUse=3 WtCom= 9.33D-01 WtEn= 6.75D-02
 Coeff-Com:  0.333D-01 0.193D+00 0.774D+00
 Coeff-En:   0.000D+00 0.000D+00 0.100D+01
 Coeff:      0.310D-01 0.180D+00 0.789D+00
 Gap=     0.430 Goal=   None    Shift=    0.000
 RMSDP=4.87D-04 MaxDP=1.89D-02 DE=-1.94D-01 OVMax= 2.68D-02

 Cycle   4  Pass 1  IDiag  1:
 RMSU=  2.29D-04    CP:  1.02D+00  6.38D-01  9.03D-01
 FoFJK:  IHMeth= 1 ICntrl=     0 DoSepK=T KAlg= 1 I1Cent= 0 FoldK=F
 E= -2905.42448624009     Delta-E=       -0.009010477834 Rises=F Damp=F
 DIIS: error= 2.60D-03 at cycle   4 NSaved=   4.
 NSaved= 4 IEnMin= 4 EnMin= -2905.42448624009     IErMin= 4 ErrMin= 2.60D-03
 ErrMax= 2.60D-03 EMaxC= 1.00D-01 BMatC= 1.77D-03 BMatP= 1.99D-02
 IDIUse=3 WtCom= 9.74D-01 WtEn= 2.60D-02
 Coeff-Com: -0.254D-02 0.504D-01 0.368D+00 0.584D+00
 Coeff-En:   0.000D+00 0.000D+00 0.000D+00 0.100D+01
 Coeff:     -0.247D-02 0.491D-01 0.358D+00 0.595D+00
 Gap=     0.415 Goal=   None    Shift=    0.000
 RMSDP=1.14D-04 MaxDP=6.49D-03 DE=-9.01D-03 OVMax= 6.94D-03

 Cycle   5  Pass 1  IDiag  1:
 RMSU=  4.10D-05    CP:  1.02D+00  6.37D-01  9.49D-01  7.22D-01
 FoFJK:  IHMeth= 1 ICntrl=     0 DoSepK=T KAlg= 1 I1Cent= 0 FoldK=F
 E= -2905.42554838074     Delta-E=       -0.001062140650 Rises=F Damp=F
 DIIS: error= 2.76D-04 at cycle   5 NSaved=   5.
 NSaved= 5 IEnMin= 5 EnMin= -2905.42554838074     IErMin= 5 ErrMin= 2.76D-04
 ErrMax= 2.76D-04 EMaxC= 1.00D-01 BMatC= 2.67D-05 BMatP= 1.77D-03
 IDIUse=3 WtCom= 9.97D-01 WtEn= 2.76D-03
 Coeff-Com: -0.154D-02 0.116D-01 0.103D+00 0.189D+00 0.697D+00
 Coeff-En:   0.000D+00 0.000D+00 0.000D+00 0.000D+00 0.100D+01
 Coeff:     -0.154D-02 0.116D-01 0.103D+00 0.189D+00 0.698D+00
 Gap=     0.414 Goal=   None    Shift=    0.000
 RMSDP=2.35D-05 MaxDP=9.88D-04 DE=-1.06D-03 OVMax= 1.63D-03

 Cycle   6  Pass 1  IDiag  1:
 RMSU=  1.49D-05    CP:  1.02D+00  6.37D-01  9.57D-01  7.44D-01  1.07D+00
 FoFJK:  IHMeth= 1 ICntrl=     0 DoSepK=T KAlg= 1 I1Cent= 0 FoldK=F
 E= -2905.42556236487     Delta-E=       -0.000013984130 Rises=F Damp=F
 DIIS: error= 1.89D-04 at cycle   6 NSaved=   6.
 NSaved= 6 IEnMin= 6 EnMin= -2905.42556236487     IErMin= 6 ErrMin= 1.89D-04
 ErrMax= 1.89D-04 EMaxC= 1.00D-01 BMatC= 1.03D-05 BMatP= 2.67D-05
 IDIUse=3 WtCom= 9.98D-01 WtEn= 1.89D-03
 Coeff-Com: -0.238D-03-0.654D-02-0.350D-01-0.467D-01 0.389D+00 0.700D+00
 Coeff-En:   0.000D+00 0.000D+00 0.000D+00 0.000D+00 0.181D+00 0.819D+00
 Coeff:     -0.237D-03-0.653D-02-0.349D-01-0.466D-01 0.388D+00 0.700D+00
 Gap=     0.414 Goal=   None    Shift=    0.000
 RMSDP=1.34D-05 MaxDP=4.48D-04 DE=-1.40D-05 OVMax= 7.64D-04

 Cycle   7  Pass 1  IDiag  1:
 RMSU=  3.78D-06    CP:  1.02D+00  6.37D-01  9.65D-01  7.55D-01  1.24D+00
                    CP:  8.68D-01
 FoFJK:  IHMeth= 1 ICntrl=     0 DoSepK=T KAlg= 1 I1Cent= 0 FoldK=F
 E= -2905.42556994313     Delta-E=       -0.000007578263 Rises=F Damp=F
 DIIS: error= 1.21D-05 at cycle   7 NSaved=   7.
 NSaved= 7 IEnMin= 7 EnMin= -2905.42556994313     IErMin= 7 ErrMin= 1.21D-05
 ErrMax= 1.21D-05 EMaxC= 1.00D-01 BMatC= 5.88D-08 BMatP= 1.03D-05
 IDIUse=1 WtCom= 1.00D+00 WtEn= 0.00D+00
 Coeff-Com:  0.369D-04-0.835D-03-0.595D-02-0.885D-02-0.158D-01 0.324D-01
 Coeff-Com:  0.999D+00
 Coeff:      0.369D-04-0.835D-03-0.595D-02-0.885D-02-0.158D-01 0.324D-01
 Coeff:      0.999D+00
 Gap=     0.414 Goal=   None    Shift=    0.000
 RMSDP=2.81D-06 MaxDP=8.64D-05 DE=-7.58D-06 OVMax= 2.02D-04

 Cycle   8  Pass 1  IDiag  1:
 RMSU=  8.31D-07    CP:  1.02D+00  6.37D-01  9.66D-01  7.58D-01  1.26D+00
                    CP:  9.23D-01  1.21D+00
 FoFJK:  IHMeth= 1 ICntrl=     0 DoSepK=T KAlg= 1 I1Cent= 0 FoldK=F
 E= -2905.42557007664     Delta-E=       -0.000000133507 Rises=F Damp=F
 DIIS: error= 3.10D-06 at cycle   8 NSaved=   8.
 NSaved= 8 IEnMin= 8 EnMin= -2905.42557007664     IErMin= 8 ErrMin= 3.10D-06
 ErrMax= 3.10D-06 EMaxC= 1.00D-01 BMatC= 3.39D-09 BMatP= 5.88D-08
 IDIUse=1 WtCom= 1.00D+00 WtEn= 0.00D+00
 Coeff-Com:  0.111D-04 0.212D-03 0.107D-02 0.108D-02-0.185D-01-0.283D-01
 Coeff-Com:  0.414D-01 0.100D+01
 Coeff:      0.111D-04 0.212D-03 0.107D-02 0.108D-02-0.185D-01-0.283D-01
 Coeff:      0.414D-01 0.100D+01
 Gap=     0.414 Goal=   None    Shift=    0.000
 RMSDP=6.54D-07 MaxDP=1.71D-05 DE=-1.34D-07 OVMax= 5.69D-05

 Cycle   9  Pass 1  IDiag  1:
 RMSU=  1.92D-07    CP:  1.02D+00  6.37D-01  9.66D-01  7.58D-01  1.27D+00
                    CP:  9.33D-01  1.28D+00  1.25D+00
 FoFJK:  IHMeth= 1 ICntrl=     0 DoSepK=T KAlg= 1 I1Cent= 0 FoldK=F
 E= -2905.42557008562     Delta-E=       -0.000000008983 Rises=F Damp=F
 DIIS: error= 9.52D-07 at cycle   9 NSaved=   9.
 NSaved= 9 IEnMin= 9 EnMin= -2905.42557008562     IErMin= 9 ErrMin= 9.52D-07
 ErrMax= 9.52D-07 EMaxC= 1.00D-01 BMatC= 2.95D-10 BMatP= 3.39D-09
 IDIUse=1 WtCom= 1.00D+00 WtEn= 0.00D+00
 Coeff-Com: -0.192D-05 0.633D-04 0.431D-03 0.477D-03 0.425D-03-0.206D-02
 Coeff-Com: -0.614D-01-0.291D-03 0.106D+01
 Coeff:     -0.192D-05 0.633D-04 0.431D-03 0.477D-03 0.425D-03-0.206D-02
 Coeff:     -0.614D-01-0.291D-03 0.106D+01
 Gap=     0.414 Goal=   None    Shift=    0.000
 RMSDP=1.86D-07 MaxDP=4.96D-06 DE=-8.98D-09 OVMax= 2.17D-05

 Cycle  10  Pass 1  IDiag  1:
 RMSU=  6.80D-08    CP:  1.02D+00  6.37D-01  9.66D-01  7.58D-01  1.27D+00
                    CP:  9.34D-01  1.30D+00  1.33D+00  1.33D+00
 FoFJK:  IHMeth= 1 ICntrl=     0 DoSepK=T KAlg= 1 I1Cent= 0 FoldK=F
 E= -2905.42557008657     Delta-E=       -0.000000000949 Rises=F Damp=F
 DIIS: error= 3.57D-07 at cycle  10 NSaved=  10.
 NSaved=10 IEnMin=10 EnMin= -2905.42557008657     IErMin=10 ErrMin= 3.57D-07
 ErrMax= 3.57D-07 EMaxC= 1.00D-01 BMatC= 3.11D-11 BMatP= 2.95D-10
 IDIUse=1 WtCom= 1.00D+00 WtEn= 0.00D+00
 Coeff-Com: -0.349D-06-0.121D-04-0.693D-04-0.543D-04 0.139D-02 0.220D-02
 Coeff-Com: -0.648D-03-0.959D-01 0.533D-01 0.104D+01
 Coeff:     -0.349D-06-0.121D-04-0.693D-04-0.543D-04 0.139D-02 0.220D-02
 Coeff:     -0.648D-03-0.959D-01 0.533D-01 0.104D+01
 Gap=     0.414 Goal=   None    Shift=    0.000
 RMSDP=6.33D-08 MaxDP=1.29D-06 DE=-9.49D-10 OVMax= 9.16D-06

 Cycle  11  Pass 1  IDiag  1:
 RMSU=  1.93D-08    CP:  1.02D+00  6.37D-01  9.66D-01  7.58D-01  1.27D+00
                    CP:  9.34D-01  1.30D+00  1.35D+00  1.48D+00  1.35D+00
 FoFJK:  IHMeth= 1 ICntrl=     0 DoSepK=T KAlg= 1 I1Cent= 0 FoldK=F
 E= -2905.42557008668     Delta-E=       -0.000000000111 Rises=F Damp=F
 DIIS: error= 1.43D-07 at cycle  11 NSaved=  11.
 NSaved=11 IEnMin=11 EnMin= -2905.42557008668     IErMin=11 ErrMin= 1.43D-07
 ErrMax= 1.43D-07 EMaxC= 1.00D-01 BMatC= 4.46D-12 BMatP= 3.11D-11
 IDIUse=1 WtCom= 1.00D+00 WtEn= 0.00D+00
 Coeff-Com:  0.389D-06-0.586D-05-0.443D-04-0.353D-04-0.262D-03-0.621D-04
 Coeff-Com:  0.846D-02 0.305D-02-0.109D+00-0.135D+00 0.123D+01
 Coeff:      0.389D-06-0.586D-05-0.443D-04-0.353D-04-0.262D-03-0.621D-04
 Coeff:      0.846D-02 0.305D-02-0.109D+00-0.135D+00 0.123D+01
 Gap=     0.414 Goal=   None    Shift=    0.000
 RMSDP=3.05D-08 MaxDP=6.82D-07 DE=-1.11D-10 OVMax= 4.72D-06

 Cycle  12  Pass 1  IDiag  1:
 RMSU=  6.85D-09    CP:  1.02D+00  6.37D-01  9.66D-01  7.58D-01  1.27D+00
                    CP:  9.34D-01  1.30D+00  1.35D+00  1.53D+00  1.56D+00
                    CP:  1.53D+00
 FoFJK:  IHMeth= 1 ICntrl=     0 DoSepK=T KAlg= 1 I1Cent= 0 FoldK=F
 E= -2905.42557008670     Delta-E=       -0.000000000018 Rises=F Damp=F
 DIIS: error= 5.32D-08 at cycle  12 NSaved=  12.
 NSaved=12 IEnMin=12 EnMin= -2905.42557008670     IErMin=12 ErrMin= 5.32D-08
 ErrMax= 5.32D-08 EMaxC= 1.00D-01 BMatC= 3.58D-13 BMatP= 4.46D-12
 IDIUse=1 WtCom= 1.00D+00 WtEn= 0.00D+00
 Coeff-Com: -0.449D-07 0.103D-05 0.780D-05-0.140D-05-0.115D-03-0.182D-03
 Coeff-Com: -0.320D-03 0.721D-02 0.975D-02-0.857D-01-0.180D+00 0.125D+01
 Coeff:     -0.449D-07 0.103D-05 0.780D-05-0.140D-05-0.115D-03-0.182D-03
 Coeff:     -0.320D-03 0.721D-02 0.975D-02-0.857D-01-0.180D+00 0.125D+01
 Gap=     0.414 Goal=   None    Shift=    0.000
 RMSDP=1.14D-08 MaxDP=2.40D-07 DE=-1.77D-11 OVMax= 1.66D-06

 Cycle  13  Pass 1  IDiag  1:
 RMSU=  1.94D-09    CP:  1.02D+00  6.37D-01  9.66D-01  7.58D-01  1.27D+00
                    CP:  9.34D-01  1.30D+00  1.35D+00  1.55D+00  1.61D+00
                    CP:  1.75D+00  1.63D+00
 FoFJK:  IHMeth= 1 ICntrl=     0 DoSepK=T KAlg= 1 I1Cent= 0 FoldK=F
 E= -2905.42557008670     Delta-E=       -0.000000000002 Rises=F Damp=F
 DIIS: error= 1.03D-08 at cycle  13 NSaved=  13.
 NSaved=13 IEnMin=13 EnMin= -2905.42557008670     IErMin=13 ErrMin= 1.03D-08
 ErrMax= 1.03D-08 EMaxC= 1.00D-01 BMatC= 2.77D-14 BMatP= 3.58D-13
 IDIUse=1 WtCom= 1.00D+00 WtEn= 0.00D+00
 Coeff-Com: -0.385D-07 0.451D-06 0.361D-05 0.683D-06 0.161D-04 0.833D-05
 Coeff-Com: -0.585D-03-0.267D-03 0.932D-02 0.708D-02-0.116D+00 0.940D-01
 Coeff-Com:  0.101D+01
 Coeff:     -0.385D-07 0.451D-06 0.361D-05 0.683D-06 0.161D-04 0.833D-05
 Coeff:     -0.585D-03-0.267D-03 0.932D-02 0.708D-02-0.116D+00 0.940D-01
 Coeff:      0.101D+01
 Gap=     0.414 Goal=   None    Shift=    0.000
 RMSDP=2.71D-09 MaxDP=6.37D-08 DE=-1.82D-12 OVMax= 2.98D-07

 SCF Done:  E(RwB97XD) =  -2905.42557009     A.U. after   13 cycles
             Convg  =    0.2710D-08             -V/T =  2.0015
 KE= 2.900929623529D+03 PE=-7.235294922972D+03 EE= 1.280461754182D+03
 Leave Link  502 at Sun May  3 18:47:11 2020, MaxMem= 1073741824 cpu:     332.6
 (Enter /home/matheus/.gaussian/g09/l601.exe)
 Copying SCF densities to generalized density rwf, IOpCl= 0 IROHF=0.

 **********************************************************************

            Population analysis using the SCF density.

 **********************************************************************

 Orbital symmetries:
       Occupied  (A) (A) (A) (A) (A) (A) (A) (A) (A) (A) (A) (A)
                 (A) (A) (A) (A) (A) (A) (A) (A) (A) (A) (A) (A)
                 (A) (A) (A)
       Virtual   (A) (A) (A) (A) (A) (A) (A) (A) (A) (A) (A) (A)
                 (A) (A) (A) (A) (A) (A) (A) (A) (A) (A) (A) (A)
                 (A) (A) (A) (A) (A) (A) (A) (A) (A) (A) (A) (A)
                 (A) (A) (A) (A) (A) (A) (A) (A) (A) (A) (A) (A)
                 (A) (A) (A) (A) (A) (A) (A) (A) (A) (A) (A) (A)
                 (A) (A) (A) (A) (A) (A) (A) (A) (A) (A) (A) (A)
                 (A) (A) (A) (A) (A) (A) (A) (A) (A) (A) (A) (A)
                 (A) (A) (A) (A) (A) (A) (A) (A) (A) (A) (A) (A)
                 (A) (A) (A) (A) (A) (A) (A) (A) (A) (A) (A) (A)
                 (A) (A) (A) (A) (A) (A) (A) (A) (A) (A) (A) (A)
                 (A) (A) (A) (A) (A) (A) (A) (A) (A) (A) (A) (A)
                 (A) (A) (A) (A) (A) (A) (A) (A) (A) (A) (A) (A)
                 (A) (A) (A) (A) (A) (A) (A) (A) (A) (A) (A) (A)
                 (A) (A) (A) (A) (A) (A) (A) (A) (A) (A) (A) (A)
                 (A) (A)
 The electronic state is 1-A.
 Alpha  occ. eigenvalues -- -513.08982 -67.35809 -60.90690 -60.90676 -60.90668
 Alpha  occ. eigenvalues --  -19.33831 -19.33435  -9.81136  -7.50474  -7.50427
 Alpha  occ. eigenvalues --   -7.50404  -3.37154  -3.37145  -3.37127  -3.37089
 Alpha  occ. eigenvalues --   -3.37087  -1.24351  -1.03299  -1.01802  -0.65410
 Alpha  occ. eigenvalues --   -0.61224  -0.52592  -0.49649  -0.49116  -0.48480
 Alpha  occ. eigenvalues --   -0.44418  -0.37781
 Alpha virt. eigenvalues --    0.03629   0.04339   0.08178   0.10006   0.10721
 Alpha virt. eigenvalues --    0.11725   0.13623   0.14322   0.16859   0.17794
 Alpha virt. eigenvalues --    0.18596   0.19228   0.20733   0.22616   0.23675
 Alpha virt. eigenvalues --    0.24460   0.26084   0.28557   0.31223   0.33473
 Alpha virt. eigenvalues --    0.33823   0.34697   0.36135   0.38827   0.39758
 Alpha virt. eigenvalues --    0.41149   0.41534   0.47762   0.51816   0.54941
 Alpha virt. eigenvalues --    0.56240   0.58345   0.62035   0.65562   0.67668
 Alpha virt. eigenvalues --    0.70298   0.70632   0.71907   0.72880   0.74996
 Alpha virt. eigenvalues --    0.75442   0.77243   0.77874   0.79415   0.81524
 Alpha virt. eigenvalues --    0.83872   0.84786   0.86661   0.88806   0.89723
 Alpha virt. eigenvalues --    0.92133   0.93472   0.95696   0.96657   0.98112
 Alpha virt. eigenvalues --    1.01260   1.01939   1.03731   1.06688   1.09104
 Alpha virt. eigenvalues --    1.10111   1.12311   1.14552   1.17199   1.21053
 Alpha virt. eigenvalues --    1.25963   1.30758   1.33174   1.37083   1.39408
 Alpha virt. eigenvalues --    1.41699   1.49401   1.52327   1.54696   1.60289
 Alpha virt. eigenvalues --    1.61986   1.74577   1.82399   1.82836   1.92689
 Alpha virt. eigenvalues --    1.97149   1.99779   2.04592   2.12362   2.13925
 Alpha virt. eigenvalues --    2.14872   2.18435   2.19944   2.21938   2.22778
 Alpha virt. eigenvalues --    2.24295   2.29460   2.29997   2.31030   2.33470
 Alpha virt. eigenvalues --    2.35749   2.38105   2.43526   2.45956   2.47583
 Alpha virt. eigenvalues --    2.47683   2.50438   2.51965   2.54021   2.57083
 Alpha virt. eigenvalues --    2.58030   2.60372   2.64038   2.64733   2.69154
 Alpha virt. eigenvalues --    2.72170   2.73732   2.81024   2.83293   2.87120
 Alpha virt. eigenvalues --    2.92633   3.04333   3.08849   3.13282   3.60293
 Alpha virt. eigenvalues --    3.66062   3.86155   3.98930   4.00448   4.03269
 Alpha virt. eigenvalues --    4.08391   4.14480   4.18476   4.22883   4.25688
 Alpha virt. eigenvalues --    4.44792   4.47779   4.51900   4.53659   4.71675
 Alpha virt. eigenvalues --    4.90867   4.99257   5.01509   5.07939   5.10893
 Alpha virt. eigenvalues --    5.27467   5.43064   5.83370   6.04437   6.06448
 Alpha virt. eigenvalues --    6.11151   6.31802   6.35015   6.39651   6.51313
 Alpha virt. eigenvalues --    6.65189   6.73542   6.76086   6.82234   6.85377
 Alpha virt. eigenvalues --    6.85612   6.90283   6.91696   6.96079   7.01779
 Alpha virt. eigenvalues --    7.03606   7.21449   7.25596   7.38932   7.72776
 Alpha virt. eigenvalues --    7.80795   8.05983   8.12056  14.00327  14.64078
          Condensed to atoms (all electrons):
              1          2          3          4          5
     1  O    8.144958  -0.159402   0.231605   0.001350  -0.023268
     2  O   -0.159402   8.229055   0.007587   0.210624  -0.017190
     3  H    0.231605   0.007587   0.544123   0.003333   0.003073
     4  H    0.001350   0.210624   0.003333   0.539977  -0.004189
     5  Kr  -0.023268  -0.017190   0.003073  -0.004189  36.034842
 Mulliken atomic charges:
              1
     1  O   -0.195243
     2  O   -0.270674
     3  H    0.210279
     4  H    0.248906
     5  Kr   0.006732
 Sum of Mulliken atomic charges =   0.00000
 Mulliken charges with hydrogens summed into heavy atoms:
              1
     1  O    0.015036
     2  O   -0.021768
     5  Kr   0.006732
 Sum of Mulliken charges with hydrogens summed into heavy atoms =   0.00000
          Condensed to fragments (all electrons):
     1      -0.006732
     2       0.006732
 Electronic spatial extent (au):  <R**2>=            490.5739
 Charge=              0.0000 electrons
 Dipole moment (field-independent basis, Debye):
    X=              0.5226    Y=             -0.3452    Z=              0.9950  Tot=              1.1757
 Quadrupole moment (field-independent basis, Debye-Ang):
   XX=            -28.4751   YY=            -28.1988   ZZ=            -30.0168
   XY=              3.6041   XZ=             -2.9873   YZ=             -1.0952
 Traceless Quadrupole moment (field-independent basis, Debye-Ang):
   XX=              0.4218   YY=              0.6981   ZZ=             -1.1199
   XY=              3.6041   XZ=             -2.9873   YZ=             -1.0952
 Octapole moment (field-independent basis, Debye-Ang**2):
  XXX=              9.7271  YYY=             -0.8262  ZZZ=              0.5274  XYY=              4.2182
  XXY=            -14.4000  XXZ=              8.4770  XZZ=              7.0032  YZZ=             -0.9291
  YYZ=              1.3022  XYZ=              3.2100
 Hexadecapole moment (field-independent basis, Debye-Ang**3):
 XXXX=           -378.0285 YYYY=            -63.6997 ZZZZ=            -29.9735 XXXY=             42.4521
 XXXZ=            -24.5783 YYYX=              5.5676 YYYZ=             -1.4177 ZZZX=             -1.7452
 ZZZY=             -0.7955 XXYY=            -75.7337 XXZZ=            -75.5042 YYZZ=            -16.9852
 XXYZ=             -9.2023 YYXZ=             -3.6362 ZZXY=              1.9898
 N-N= 1.484779751743D+02 E-N=-7.235294922581D+03  KE= 2.900929623529D+03
 No NMR shielding tensors so no spin-rotation constants.
 Leave Link  601 at Sun May  3 18:47:11 2020, MaxMem= 1073741824 cpu:       0.7
 (Enter /home/matheus/.gaussian/g09/l122.exe)
 Counterpoise: doing DCBS calculation for fragment   1 NewBq=T
 Leave Link  122 at Sun May  3 18:47:11 2020, MaxMem= 1073741824 cpu:       0.0
 (Enter /home/matheus/.gaussian/g09/l301.exe)
 Basis read from rwf:  (5D, 7F)
 No pseudopotential information found on rwf file.
 There are   197 symmetry adapted basis functions of A   symmetry.
 Integral buffers will be    131072 words long.
 Raffenetti 2 integral format.
 Two-electron integral symmetry is turned on.
   197 basis functions,   415 primitive gaussians,   229 cartesian basis functions
     9 alpha electrons        9 beta electrons
       nuclear repulsion energy        36.6058450489 Hartrees.
 IExCor= 4639 DFT=T Ex+Corr=wB97XD ExCW=0 ScaHFX=  1.000000
 ScaDFX=  1.000000  1.000000  1.000000  1.000000 ScalE2=  1.000000  1.000000
 IRadAn=      5 IRanWt=     -1 IRanGd=            0 ICorTp=0
  HFx wShort=  0.000000 wLong=  0.250000 cFull=  0.222036 cShort=  0.000000 cLong=  0.777964
  DFx wShort=  0.000000 wLong=  0.250000 cFull=  0.000000 cShort=  0.000000 cLong=  1.000000
 NAtoms=    5 NActive=    5 NUniq=    5 SFac= 1.00D+00 NAtFMM=   60 NAOKFM=F Big=F
 R6Disp: Dispersion energy =        -0.0002107748 Hartrees.
 Nuclear repulsion after empirical dispersion term =       36.6056342741 Hartrees.
 No density basis found on file   718.
 Leave Link  301 at Sun May  3 18:47:11 2020, MaxMem= 1073741824 cpu:       0.2
 (Enter /home/matheus/.gaussian/g09/l302.exe)
 NPDir=0 NMtPBC=     1 NCelOv=     1 NCel=       1 NClECP=     1 NCelD=      1
         NCelK=      1 NCelE2=     1 NClLst=     1 CellRange=     0.0.
 One-electron integrals computed using PRISM.
 NBasis=   197 RedAO= T  NBF=   197
 NBsUse=   197 1.00D-06 NBFU=   197
 Precomputing XC quadrature grid using
 IXCGrd= 2 IRadAn=           5 IRanWt=          -1 IRanGd=           0 AccXCQ= 0.00D+00.
 NRdTot=     427 NPtTot=      123814 NUsed=      126881 NTot=      126913
 NSgBfM=   229   229   229   229   229 NAtAll=     5     5.
 Leave Link  302 at Sun May  3 18:47:11 2020, MaxMem= 1073741824 cpu:       1.0
 (Enter /home/matheus/.gaussian/g09/l303.exe)
 DipDrv:  MaxL=1.
 Leave Link  303 at Sun May  3 18:47:11 2020, MaxMem= 1073741824 cpu:       0.2
 (Enter /home/matheus/.gaussian/g09/l401.exe)
 Harris functional with IExCor= 4639 diagonalized for initial guess.
 ExpMin= 2.53D-02 ExpMax= 1.17D+07 ExpMxC= 1.33D+04 IAcc=3 IRadAn=         5 AccDes= 0.00D+00
 HarFok:  IExCor= 4639 AccDes= 0.00D+00 IRadAn=         5 IDoV= 1
 ScaDFX=  1.000000  1.000000  1.000000  1.000000
 FoFCou: FMM=F IPFlag=           0 FMFlag=      100000 FMFlg1=           0
         NFxFlg=           0 DoJE=T BraDBF=F KetDBF=T FulRan=T
         Omega=  0.000000  0.000000  1.000000  0.000000  0.000000 ICntrl=     500 IOpCl=  0
         NMat0=    1 NMatS0=    1 NMatT0=    0 NMatD0=    1 NMtDS0=    0 NMtDT0=    0
         I1Cent=           4 NGrid=           0.
 Petite list used in FoFCou.
 Harris En= -145.944374735792    
 Initial guess orbital symmetries:
       Occupied  (A) (A) (A) (A) (A) (A) (A) (A) (A)
       Virtual   (A) (A) (A) (A) (A) (A) (A) (A) (A) (A) (A) (A)
                 (A) (A) (A) (A) (A) (A) (A) (A) (A) (A) (A) (A)
                 (A) (A) (A) (A) (A) (A) (A) (A) (A) (A) (A) (A)
                 (A) (A) (A) (A) (A) (A) (A) (A) (A) (A) (A) (A)
                 (A) (A) (A) (A) (A) (A) (A) (A) (A) (A) (A) (A)
                 (A) (A) (A) (A) (A) (A) (A) (A) (A) (A) (A) (A)
                 (A) (A) (A) (A) (A) (A) (A) (A) (A) (A) (A) (A)
                 (A) (A) (A) (A) (A) (A) (A) (A) (A) (A) (A) (A)
                 (A) (A) (A) (A) (A) (A) (A) (A) (A) (A) (A) (A)
                 (A) (A) (A) (A) (A) (A) (A) (A) (A) (A) (A) (A)
                 (A) (A) (A) (A) (A) (A) (A) (A) (A) (A) (A) (A)
                 (A) (A) (A) (A) (A) (A) (A) (A) (A) (A) (A) (A)
                 (A) (A) (A) (A) (A) (A) (A) (A) (A) (A) (A) (A)
                 (A) (A) (A) (A) (A) (A) (A) (A) (A) (A) (A) (A)
                 (A) (A) (A) (A) (A) (A) (A) (A) (A) (A) (A) (A)
                 (A) (A) (A) (A) (A) (A) (A) (A)
 The electronic state of the initial guess is 1-A.
 Leave Link  401 at Sun May  3 18:47:11 2020, MaxMem= 1073741824 cpu:       3.9
 (Enter /home/matheus/.gaussian/g09/l502.exe)
 Closed shell SCF:
 Requested convergence on RMS density matrix=1.00D-08 within 128 cycles.
 Requested convergence on MAX density matrix=1.00D-06.
 Requested convergence on             energy=1.00D-06.
 No special actions if energy rises.
 Using DIIS extrapolation, IDIIS=  1040.
 Integral symmetry usage will be decided dynamically.
       126823 words used for storage of precomputed grid.
 IEnd=      305770 IEndB=      305770 NGot=  1073741824 MDV=  1073505365
 LenX=  1073505365 LenY=  1073452483
 Fock matrices will be formed incrementally for  20 cycles.

 Cycle   1  Pass 1  IDiag  1:
 FoFJK:  IHMeth= 1 ICntrl=     0 DoSepK=T KAlg= 1 I1Cent= 0 FoldK=F
 FoFCou: FMM=F IPFlag=           0 FMFlag=      100000 FMFlg1=           0
         NFxFlg=           0 DoJE=T BraDBF=F KetDBF=F FulRan=T
         Omega=  0.000000  0.000000  1.000000  0.000000  0.000000 ICntrl=     500 IOpCl=  0
         NMat0=    1 NMatS0=    1 NMatT0=    0 NMatD0=    1 NMtDS0=    0 NMtDT0=    0
         I1Cent=           0 NGrid=           0.
 Symmetry not used in FoFCou.
 E= -151.460265061716    
 DIIS: error= 2.99D-02 at cycle   1 NSaved=   1.
 NSaved= 1 IEnMin= 1 EnMin= -151.460265061716     IErMin= 1 ErrMin= 2.99D-02
 ErrMax= 2.99D-02 EMaxC= 1.00D-01 BMatC= 3.20D-01 BMatP= 3.20D-01
 IDIUse=3 WtCom= 7.01D-01 WtEn= 2.99D-01
 Coeff-Com:  0.100D+01
 Coeff-En:   0.100D+01
 Coeff:      0.100D+01
 Gap=     0.537 Goal=   None    Shift=    0.000
 GapD=    0.537 DampG=2.000 DampE=0.500 DampFc=1.0000 IDamp=-1.
 RMSDP=2.39D-03 MaxDP=9.63D-02              OVMax= 1.24D-01

 Cycle   2  Pass 1  IDiag  1:
 RMSU=  1.67D-03    CP:  9.57D-01
 FoFJK:  IHMeth= 1 ICntrl=     0 DoSepK=T KAlg= 1 I1Cent= 0 FoldK=F
 E= -151.498849236235     Delta-E=       -0.038584174519 Rises=F Damp=F
 DIIS: error= 1.75D-02 at cycle   2 NSaved=   2.
 NSaved= 2 IEnMin= 2 EnMin= -151.498849236235     IErMin= 2 ErrMin= 1.75D-02
 ErrMax= 1.75D-02 EMaxC= 1.00D-01 BMatC= 1.03D-01 BMatP= 3.20D-01
 IDIUse=3 WtCom= 8.25D-01 WtEn= 1.75D-01
 Coeff-Com:  0.342D+00 0.658D+00
 Coeff-En:   0.349D+00 0.651D+00
 Coeff:      0.343D+00 0.657D+00
 Gap=     0.476 Goal=   None    Shift=    0.000
 RMSDP=9.81D-04 MaxDP=4.73D-02 DE=-3.86D-02 OVMax= 5.98D-02

 Cycle   3  Pass 1  IDiag  1:
 RMSU=  3.78D-04    CP:  9.76D-01  6.60D-01
 FoFJK:  IHMeth= 1 ICntrl=     0 DoSepK=T KAlg= 1 I1Cent= 0 FoldK=F
 E= -151.555150418099     Delta-E=       -0.056301181864 Rises=F Damp=F
 DIIS: error= 4.44D-03 at cycle   3 NSaved=   3.
 NSaved= 3 IEnMin= 3 EnMin= -151.555150418099     IErMin= 3 ErrMin= 4.44D-03
 ErrMax= 4.44D-03 EMaxC= 1.00D-01 BMatC= 5.40D-03 BMatP= 1.03D-01
 IDIUse=3 WtCom= 9.56D-01 WtEn= 4.44D-02
 Coeff-Com:  0.794D-02 0.191D+00 0.801D+00
 Coeff-En:   0.000D+00 0.000D+00 0.100D+01
 Coeff:      0.759D-02 0.183D+00 0.810D+00
 Gap=     0.415 Goal=   None    Shift=    0.000
 RMSDP=2.56D-04 MaxDP=1.00D-02 DE=-5.63D-02 OVMax= 1.61D-02

 Cycle   4  Pass 1  IDiag  1:
 RMSU=  7.20D-05    CP:  9.71D-01  7.53D-01  8.82D-01
 FoFJK:  IHMeth= 1 ICntrl=     0 DoSepK=T KAlg= 1 I1Cent= 0 FoldK=F
 E= -151.558627500599     Delta-E=       -0.003477082500 Rises=F Damp=F
 DIIS: error= 4.02D-04 at cycle   4 NSaved=   4.
 NSaved= 4 IEnMin= 4 EnMin= -151.558627500599     IErMin= 4 ErrMin= 4.02D-04
 ErrMax= 4.02D-04 EMaxC= 1.00D-01 BMatC= 4.67D-05 BMatP= 5.40D-03
 IDIUse=3 WtCom= 9.96D-01 WtEn= 4.02D-03
 Coeff-Com: -0.159D-02-0.651D-02 0.595D-01 0.949D+00
 Coeff-En:   0.000D+00 0.000D+00 0.000D+00 0.100D+01
 Coeff:     -0.158D-02-0.648D-02 0.593D-01 0.949D+00
 Gap=     0.412 Goal=   None    Shift=    0.000
 RMSDP=3.83D-05 MaxDP=1.94D-03 DE=-3.48D-03 OVMax= 1.58D-03

 Cycle   5  Pass 1  IDiag  1:
 RMSU=  1.24D-05    CP:  9.71D-01  7.50D-01  9.32D-01  1.18D+00
 FoFJK:  IHMeth= 1 ICntrl=     0 DoSepK=T KAlg= 1 I1Cent= 0 FoldK=F
 E= -151.558666114488     Delta-E=       -0.000038613889 Rises=F Damp=F
 DIIS: error= 4.72D-05 at cycle   5 NSaved=   5.
 NSaved= 5 IEnMin= 5 EnMin= -151.558666114488     IErMin= 5 ErrMin= 4.72D-05
 ErrMax= 4.72D-05 EMaxC= 1.00D-01 BMatC= 6.27D-07 BMatP= 4.67D-05
 IDIUse=1 WtCom= 1.00D+00 WtEn= 0.00D+00
 Coeff-Com: -0.411D-03-0.100D-01-0.416D-01-0.291D-01 0.108D+01
 Coeff:     -0.411D-03-0.100D-01-0.416D-01-0.291D-01 0.108D+01
 Gap=     0.412 Goal=   None    Shift=    0.000
 RMSDP=1.15D-05 MaxDP=4.97D-04 DE=-3.86D-05 OVMax= 8.15D-04

 Cycle   6  Pass 1  IDiag  1:
 RMSU=  2.54D-06    CP:  9.71D-01  7.51D-01  9.43D-01  1.26D+00  1.26D+00
 FoFJK:  IHMeth= 1 ICntrl=     0 DoSepK=T KAlg= 1 I1Cent= 0 FoldK=F
 E= -151.558667851623     Delta-E=       -0.000001737135 Rises=F Damp=F
 DIIS: error= 1.05D-05 at cycle   6 NSaved=   6.
 NSaved= 6 IEnMin= 6 EnMin= -151.558667851623     IErMin= 6 ErrMin= 1.05D-05
 ErrMax= 1.05D-05 EMaxC= 1.00D-01 BMatC= 2.65D-08 BMatP= 6.27D-07
 IDIUse=1 WtCom= 1.00D+00 WtEn= 0.00D+00
 Coeff-Com:  0.365D-04-0.449D-04-0.297D-02-0.256D-01 0.271D-01 0.100D+01
 Coeff:      0.365D-04-0.449D-04-0.297D-02-0.256D-01 0.271D-01 0.100D+01
 Gap=     0.412 Goal=   None    Shift=    0.000
 RMSDP=1.68D-06 MaxDP=6.40D-05 DE=-1.74D-06 OVMax= 1.60D-04

 Cycle   7  Pass 1  IDiag  1:
 RMSU=  4.53D-07    CP:  9.71D-01  7.51D-01  9.43D-01  1.26D+00  1.31D+00
                    CP:  1.29D+00
 FoFJK:  IHMeth= 1 ICntrl=     0 DoSepK=T KAlg= 1 I1Cent= 0 FoldK=F
 E= -151.558667919152     Delta-E=       -0.000000067529 Rises=F Damp=F
 DIIS: error= 5.09D-06 at cycle   7 NSaved=   7.
 NSaved= 7 IEnMin= 7 EnMin= -151.558667919152     IErMin= 7 ErrMin= 5.09D-06
 ErrMax= 5.09D-06 EMaxC= 1.00D-01 BMatC= 6.99D-09 BMatP= 2.65D-08
 IDIUse=1 WtCom= 1.00D+00 WtEn= 0.00D+00
 Coeff-Com:  0.287D-04 0.473D-03 0.127D-02-0.670D-02-0.481D-01 0.278D+00
 Coeff-Com:  0.775D+00
 Coeff:      0.287D-04 0.473D-03 0.127D-02-0.670D-02-0.481D-01 0.278D+00
 Coeff:      0.775D+00
 Gap=     0.412 Goal=   None    Shift=    0.000
 RMSDP=4.78D-07 MaxDP=2.23D-05 DE=-6.75D-08 OVMax= 4.77D-05

 Cycle   8  Pass 1  IDiag  1:
 RMSU=  2.42D-07    CP:  9.71D-01  7.51D-01  9.43D-01  1.26D+00  1.32D+00
                    CP:  1.36D+00  1.01D+00
 FoFJK:  IHMeth= 1 ICntrl=     0 DoSepK=T KAlg= 1 I1Cent= 0 FoldK=F
 E= -151.558667926674     Delta-E=       -0.000000007522 Rises=F Damp=F
 DIIS: error= 3.50D-06 at cycle   8 NSaved=   8.
 NSaved= 8 IEnMin= 8 EnMin= -151.558667926674     IErMin= 8 ErrMin= 3.50D-06
 ErrMax= 3.50D-06 EMaxC= 1.00D-01 BMatC= 3.50D-09 BMatP= 6.99D-09
 IDIUse=1 WtCom= 1.00D+00 WtEn= 0.00D+00
 Coeff-Com:  0.415D-05 0.233D-03 0.136D-02 0.254D-02-0.289D-01-0.127D+00
 Coeff-Com:  0.451D+00 0.700D+00
 Coeff:      0.415D-05 0.233D-03 0.136D-02 0.254D-02-0.289D-01-0.127D+00
 Coeff:      0.451D+00 0.700D+00
 Gap=     0.412 Goal=   None    Shift=    0.000
 RMSDP=2.41D-07 MaxDP=1.10D-05 DE=-7.52D-09 OVMax= 2.99D-05

 Cycle   9  Pass 1  IDiag  1:
 RMSU=  9.17D-08    CP:  9.71D-01  7.51D-01  9.43D-01  1.26D+00  1.33D+00
                    CP:  1.38D+00  1.27D+00  9.62D-01
 FoFJK:  IHMeth= 1 ICntrl=     0 DoSepK=T KAlg= 1 I1Cent= 0 FoldK=F
 E= -151.558667930155     Delta-E=       -0.000000003481 Rises=F Damp=F
 DIIS: error= 5.01D-07 at cycle   9 NSaved=   9.
 NSaved= 9 IEnMin= 9 EnMin= -151.558667930155     IErMin= 9 ErrMin= 5.01D-07
 ErrMax= 5.01D-07 EMaxC= 1.00D-01 BMatC= 6.58D-11 BMatP= 3.50D-09
 IDIUse=1 WtCom= 1.00D+00 WtEn= 0.00D+00
 Coeff-Com: -0.130D-05-0.497D-04-0.243D-03-0.213D-03 0.943D-02-0.221D-01
 Coeff-Com: -0.788D-01-0.342D-01 0.113D+01
 Coeff:     -0.130D-05-0.497D-04-0.243D-03-0.213D-03 0.943D-02-0.221D-01
 Coeff:     -0.788D-01-0.342D-01 0.113D+01
 Gap=     0.412 Goal=   None    Shift=    0.000
 RMSDP=9.60D-08 MaxDP=1.98D-06 DE=-3.48D-09 OVMax= 1.42D-05

 Cycle  10  Pass 1  IDiag  1:
 RMSU=  2.05D-08    CP:  9.71D-01  7.51D-01  9.43D-01  1.26D+00  1.33D+00
                    CP:  1.38D+00  1.33D+00  1.12D+00  1.46D+00
 FoFJK:  IHMeth= 1 ICntrl=     0 DoSepK=T KAlg= 1 I1Cent= 0 FoldK=F
 E= -151.558667930410     Delta-E=       -0.000000000255 Rises=F Damp=F
 DIIS: error= 2.07D-07 at cycle  10 NSaved=  10.
 NSaved=10 IEnMin=10 EnMin= -151.558667930410     IErMin=10 ErrMin= 2.07D-07
 ErrMax= 2.07D-07 EMaxC= 1.00D-01 BMatC= 8.96D-12 BMatP= 6.58D-11
 IDIUse=1 WtCom= 1.00D+00 WtEn= 0.00D+00
 Coeff-Com: -0.397D-08-0.140D-04-0.112D-03-0.370D-03 0.244D-02 0.100D-01
 Coeff-Com: -0.257D-01-0.524D-01-0.258D+00 0.132D+01
 Coeff:     -0.397D-08-0.140D-04-0.112D-03-0.370D-03 0.244D-02 0.100D-01
 Coeff:     -0.257D-01-0.524D-01-0.258D+00 0.132D+01
 Gap=     0.412 Goal=   None    Shift=    0.000
 RMSDP=4.75D-08 MaxDP=1.06D-06 DE=-2.55D-10 OVMax= 7.48D-06

 Cycle  11  Pass 1  IDiag  1:
 RMSU=  8.32D-09    CP:  9.71D-01  7.51D-01  9.43D-01  1.26D+00  1.33D+00
                    CP:  1.38D+00  1.36D+00  1.18D+00  1.69D+00  1.74D+00
 FoFJK:  IHMeth= 1 ICntrl=     0 DoSepK=T KAlg= 1 I1Cent= 0 FoldK=F
 E= -151.558667930455     Delta-E=       -0.000000000044 Rises=F Damp=F
 DIIS: error= 6.29D-08 at cycle  11 NSaved=  11.
 NSaved=11 IEnMin=11 EnMin= -151.558667930455     IErMin=11 ErrMin= 6.29D-08
 ErrMax= 6.29D-08 EMaxC= 1.00D-01 BMatC= 6.67D-13 BMatP= 8.96D-12
 IDIUse=1 WtCom= 1.00D+00 WtEn= 0.00D+00
 Coeff-Com: -0.112D-06 0.210D-05 0.230D-04 0.245D-04-0.690D-03-0.517D-03
 Coeff-Com:  0.119D-01 0.123D-01-0.901D-01-0.116D+00 0.118D+01
 Coeff:     -0.112D-06 0.210D-05 0.230D-04 0.245D-04-0.690D-03-0.517D-03
 Coeff:      0.119D-01 0.123D-01-0.901D-01-0.116D+00 0.118D+01
 Gap=     0.412 Goal=   None    Shift=    0.000
 RMSDP=1.47D-08 MaxDP=3.22D-07 DE=-4.42D-11 OVMax= 2.00D-06

 Cycle  12  Pass 1  IDiag  1:
 RMSU=  2.19D-09    CP:  9.71D-01  7.51D-01  9.43D-01  1.26D+00  1.33D+00
                    CP:  1.38D+00  1.36D+00  1.19D+00  1.73D+00  2.04D+00
                    CP:  1.54D+00
 FoFJK:  IHMeth= 1 ICntrl=     0 DoSepK=T KAlg= 1 I1Cent= 0 FoldK=F
 E= -151.558667930459     Delta-E=       -0.000000000004 Rises=F Damp=F
 DIIS: error= 1.42D-08 at cycle  12 NSaved=  12.
 NSaved=12 IEnMin=12 EnMin= -151.558667930459     IErMin=12 ErrMin= 1.42D-08
 ErrMax= 1.42D-08 EMaxC= 1.00D-01 BMatC= 5.11D-14 BMatP= 6.67D-13
 IDIUse=1 WtCom= 1.00D+00 WtEn= 0.00D+00
 Coeff-Com: -0.447D-07 0.889D-06 0.986D-05 0.244D-04-0.186D-03-0.103D-02
 Coeff-Com:  0.282D-02 0.509D-02 0.123D-01-0.110D+00 0.349D-01 0.106D+01
 Coeff:     -0.447D-07 0.889D-06 0.986D-05 0.244D-04-0.186D-03-0.103D-02
 Coeff:      0.282D-02 0.509D-02 0.123D-01-0.110D+00 0.349D-01 0.106D+01
 Gap=     0.412 Goal=   None    Shift=    0.000
 RMSDP=3.99D-09 MaxDP=9.25D-08 DE=-3.95D-12 OVMax= 4.41D-07

 SCF Done:  E(RwB97XD) =  -151.558667930     A.U. after   12 cycles
             Convg  =    0.3992D-08             -V/T =  2.0061
 KE= 1.506348783259D+02 PE=-4.316730688199D+02 EE= 9.287388828938D+01
 Leave Link  502 at Sun May  3 18:47:48 2020, MaxMem= 1073741824 cpu:     294.2
 (Enter /home/matheus/.gaussian/g09/l601.exe)
 Copying SCF densities to generalized density rwf, IOpCl= 0 IROHF=0.

 **********************************************************************

            Population analysis using the SCF density.

 **********************************************************************

 Orbital symmetries:
       Occupied  (A) (A) (A) (A) (A) (A) (A) (A) (A)
       Virtual   (A) (A) (A) (A) (A) (A) (A) (A) (A) (A) (A) (A)
                 (A) (A) (A) (A) (A) (A) (A) (A) (A) (A) (A) (A)
                 (A) (A) (A) (A) (A) (A) (A) (A) (A) (A) (A) (A)
                 (A) (A) (A) (A) (A) (A) (A) (A) (A) (A) (A) (A)
                 (A) (A) (A) (A) (A) (A) (A) (A) (A) (A) (A) (A)
                 (A) (A) (A) (A) (A) (A) (A) (A) (A) (A) (A) (A)
                 (A) (A) (A) (A) (A) (A) (A) (A) (A) (A) (A) (A)
                 (A) (A) (A) (A) (A) (A) (A) (A) (A) (A) (A) (A)
                 (A) (A) (A) (A) (A) (A) (A) (A) (A) (A) (A) (A)
                 (A) (A) (A) (A) (A) (A) (A) (A) (A) (A) (A) (A)
                 (A) (A) (A) (A) (A) (A) (A) (A) (A) (A) (A) (A)
                 (A) (A) (A) (A) (A) (A) (A) (A) (A) (A) (A) (A)
                 (A) (A) (A) (A) (A) (A) (A) (A) (A) (A) (A) (A)
                 (A) (A) (A) (A) (A) (A) (A) (A) (A) (A) (A) (A)
                 (A) (A) (A) (A) (A) (A) (A) (A) (A) (A) (A) (A)
                 (A) (A) (A) (A) (A) (A) (A) (A)
 The electronic state is 1-A.
 Alpha  occ. eigenvalues --  -19.33956 -19.33952  -1.24539  -1.03381  -0.65523
 Alpha  occ. eigenvalues --   -0.60770  -0.52514  -0.44833  -0.38008
 Alpha virt. eigenvalues --    0.03207   0.03845   0.07254   0.09179   0.09775
 Alpha virt. eigenvalues --    0.10750   0.11279   0.14177   0.16978   0.17321
 Alpha virt. eigenvalues --    0.18689   0.19824   0.21408   0.23429   0.25534
 Alpha virt. eigenvalues --    0.27362   0.30648   0.31827   0.32749   0.33707
 Alpha virt. eigenvalues --    0.35608   0.38628   0.38879   0.39814   0.40948
 Alpha virt. eigenvalues --    0.42898   0.44520   0.47260   0.49150   0.50040
 Alpha virt. eigenvalues --    0.54859   0.57959   0.59154   0.62893   0.67712
 Alpha virt. eigenvalues --    0.69733   0.73283   0.73703   0.74950   0.76166
 Alpha virt. eigenvalues --    0.78798   0.81413   0.86421   0.88549   0.89899
 Alpha virt. eigenvalues --    0.91011   0.93051   0.95309   0.97019   0.99124
 Alpha virt. eigenvalues --    0.99633   1.04024   1.05633   1.07662   1.11898
 Alpha virt. eigenvalues --    1.12633   1.15718   1.18310   1.22542   1.22693
 Alpha virt. eigenvalues --    1.25355   1.31053   1.32046   1.32902   1.33984
 Alpha virt. eigenvalues --    1.35036   1.36077   1.36924   1.37675   1.39526
 Alpha virt. eigenvalues --    1.46293   1.50196   1.52624   1.53706   1.55056
 Alpha virt. eigenvalues --    1.56987   1.63739   1.68375   1.69017   1.79437
 Alpha virt. eigenvalues --    1.82237   1.83110   1.87164   1.95200   2.00141
 Alpha virt. eigenvalues --    2.05961   2.07706   2.14182   2.16706   2.21320
 Alpha virt. eigenvalues --    2.25860   2.27771   2.30032   2.34103   2.42433
 Alpha virt. eigenvalues --    2.46429   2.51705   2.52588   2.60607   2.63982
 Alpha virt. eigenvalues --    2.68271   2.72506   2.81397   2.83030   2.90297
 Alpha virt. eigenvalues --    3.03617   3.07951   3.09421   3.27046   3.31383
 Alpha virt. eigenvalues --    3.41283   3.57094   3.58119   3.68480   3.79653
 Alpha virt. eigenvalues --    3.79889   3.82136   3.83570   3.83626   3.84151
 Alpha virt. eigenvalues --    3.87860   3.90406   3.91602   3.94730   3.96661
 Alpha virt. eigenvalues --    4.00444   4.01445   4.04655   4.08020   4.11734
 Alpha virt. eigenvalues --    4.15538   4.18545   4.23148   4.29822   4.35463
 Alpha virt. eigenvalues --    4.45688   4.52387   4.53342   4.71891   4.91362
 Alpha virt. eigenvalues --    4.99118   5.01612   5.07922   5.11074   5.27796
 Alpha virt. eigenvalues --    5.42912   5.83168   6.04335   6.06380   6.10852
 Alpha virt. eigenvalues --    6.31786   6.35002   6.39543   6.51217   6.65046
 Alpha virt. eigenvalues --    6.73337   6.75871   6.82092   6.85165   6.85298
 Alpha virt. eigenvalues --    6.90019   6.91512   6.95976   7.01571   7.03491
 Alpha virt. eigenvalues --    7.21283   7.25361   7.38817   7.72627   7.80548
 Alpha virt. eigenvalues --    8.05813   8.11509  10.90131  14.00298  14.62293
 Alpha virt. eigenvalues --   14.84654  14.89824  15.11925  29.04398  29.04875
 Alpha virt. eigenvalues --   29.09309  29.14834  29.24367  49.11573 148.32695
 Alpha virt. eigenvalues --  148.39985 148.72460 752.50935
          Condensed to atoms (all electrons):
              1          2          3          4          5
     1  O    8.157028  -0.154194   0.218970  -0.001926  -0.000392
     2  O   -0.154194   8.170900   0.007937   0.220988  -0.001343
     3  H    0.218970   0.007937   0.546709   0.004569  -0.000026
     4  H   -0.001926   0.220988   0.004569   0.544312  -0.004645
     5  Kr  -0.000392  -0.001343  -0.000026  -0.004645   0.001174
 Mulliken atomic charges:
              1
     1  O   -0.219486
     2  O   -0.244288
     3  H    0.221841
     4  H    0.236702
     5  Kr   0.005231
 Sum of Mulliken atomic charges =   0.00000
 Mulliken charges with hydrogens summed into heavy atoms:
              1
     1  O    0.002355
     2  O   -0.007586
     5  Kr   0.005231
 Sum of Mulliken charges with hydrogens summed into heavy atoms =   0.00000
          Condensed to fragments (all electrons):
     1      -0.005231
     2       0.005231
 Electronic spatial extent (au):  <R**2>=            323.7267
 Charge=              0.0000 electrons
 Dipole moment (field-independent basis, Debye):
    X=              0.3578    Y=             -0.0643    Z=              1.0267  Tot=              1.0892
 Quadrupole moment (field-independent basis, Debye-Ang):
   XX=            -10.8231   YY=            -10.5679   ZZ=            -12.4468
   XY=              3.7714   XZ=             -2.9627   YZ=             -1.0936
 Traceless Quadrupole moment (field-independent basis, Debye-Ang):
   XX=              0.4562   YY=              0.7114   ZZ=             -1.1675
   XY=              3.7714   XZ=             -2.9627   YZ=             -1.0936
 Octapole moment (field-independent basis, Debye-Ang**2):
  XXX=             61.3938  YYY=             -1.3382  ZZZ=              0.7383  XYY=             21.6199
  XXY=            -14.3241  XXZ=              8.5732  XZZ=             24.4504  YZZ=             -1.0975
  YYZ=              1.3713  XYZ=              3.2096
 Hexadecapole moment (field-independent basis, Debye-Ang**3):
 XXXX=           -253.6489 YYYY=            -45.3510 ZZZZ=            -11.7565 XXXY=             41.7652
 XXXZ=            -24.3849 YYYX=              5.0287 YYYZ=             -1.4172 ZZZX=             -1.5450
 ZZZY=             -0.7954 XXYY=            -52.0088 XXZZ=            -51.9153 YYZZ=            -10.8829
 XXYZ=             -9.2098 YYXZ=             -3.5653 ZZXY=              1.7685
 N-N= 3.660563427413D+01 E-N=-4.316730680702D+02  KE= 1.506348783259D+02
 No NMR shielding tensors so no spin-rotation constants.
 Leave Link  601 at Sun May  3 18:47:49 2020, MaxMem= 1073741824 cpu:       0.7
 (Enter /home/matheus/.gaussian/g09/l122.exe)
 Counterpoise: doing DCBS calculation for fragment   2 NewBq=T
 Leave Link  122 at Sun May  3 18:47:49 2020, MaxMem= 1073741824 cpu:       0.0
 (Enter /home/matheus/.gaussian/g09/l301.exe)
 Basis read from rwf:  (5D, 7F)
 No pseudopotential information found on rwf file.
 There are   197 symmetry adapted basis functions of A   symmetry.
 Integral buffers will be    131072 words long.
 Raffenetti 2 integral format.
 Two-electron integral symmetry is turned on.
   197 basis functions,   415 primitive gaussians,   229 cartesian basis functions
    18 alpha electrons       18 beta electrons
       nuclear repulsion energy         0.0000000000 Hartrees.
 IExCor= 4639 DFT=T Ex+Corr=wB97XD ExCW=0 ScaHFX=  1.000000
 ScaDFX=  1.000000  1.000000  1.000000  1.000000 ScalE2=  1.000000  1.000000
 IRadAn=      5 IRanWt=     -1 IRanGd=            0 ICorTp=0
  HFx wShort=  0.000000 wLong=  0.250000 cFull=  0.222036 cShort=  0.000000 cLong=  0.777964
  DFx wShort=  0.000000 wLong=  0.250000 cFull=  0.000000 cShort=  0.000000 cLong=  1.000000
 NAtoms=    5 NActive=    5 NUniq=    5 SFac= 1.00D+00 NAtFMM=   60 NAOKFM=F Big=F
 R6Disp: Dispersion energy =         0.0000000000 Hartrees.
 Nuclear repulsion after empirical dispersion term =        0.0000000000 Hartrees.
 No density basis found on file   718.
 Leave Link  301 at Sun May  3 18:47:49 2020, MaxMem= 1073741824 cpu:       0.2
 (Enter /home/matheus/.gaussian/g09/l302.exe)
 NPDir=0 NMtPBC=     1 NCelOv=     1 NCel=       1 NClECP=     1 NCelD=      1
         NCelK=      1 NCelE2=     1 NClLst=     1 CellRange=     0.0.
 One-electron integrals computed using PRISM.
 NBasis=   197 RedAO= T  NBF=   197
 NBsUse=   197 1.00D-06 NBFU=   197
 Precomputing XC quadrature grid using
 IXCGrd= 2 IRadAn=           5 IRanWt=          -1 IRanGd=           0 AccXCQ= 0.00D+00.
 NRdTot=     427 NPtTot=      123814 NUsed=      126881 NTot=      126913
 NSgBfM=   229   229   229   229   229 NAtAll=     5     5.
 Leave Link  302 at Sun May  3 18:47:49 2020, MaxMem= 1073741824 cpu:       1.0
 (Enter /home/matheus/.gaussian/g09/l303.exe)
 DipDrv:  MaxL=1.
 Leave Link  303 at Sun May  3 18:47:49 2020, MaxMem= 1073741824 cpu:       0.2
 (Enter /home/matheus/.gaussian/g09/l401.exe)
 Harris functional with IExCor= 4639 diagonalized for initial guess.
 ExpMin= 2.53D-02 ExpMax= 1.17D+07 ExpMxC= 1.33D+04 IAcc=3 IRadAn=         5 AccDes= 0.00D+00
 HarFok:  IExCor= 4639 AccDes= 0.00D+00 IRadAn=         5 IDoV= 1
 ScaDFX=  1.000000  1.000000  1.000000  1.000000
 FoFCou: FMM=F IPFlag=           0 FMFlag=      100000 FMFlg1=           0
         NFxFlg=           0 DoJE=T BraDBF=F KetDBF=T FulRan=T
         Omega=  0.000000  0.000000  1.000000  0.000000  0.000000 ICntrl=     500 IOpCl=  0
         NMat0=    1 NMatS0=    1 NMatT0=    0 NMatD0=    1 NMtDS0=    0 NMtDT0=    0
         I1Cent=           4 NGrid=           0.
 Petite list used in FoFCou.
 Harris En= -2729.46037480139    
 Initial guess orbital symmetries:
       Occupied  (A) (A) (A) (A) (A) (A) (A) (A) (A) (A) (A) (A)
                 (A) (A) (A) (A) (A) (A)
       Virtual   (A) (A) (A) (A) (A) (A) (A) (A) (A) (A) (A) (A)
                 (A) (A) (A) (A) (A) (A) (A) (A) (A) (A) (A) (A)
                 (A) (A) (A) (A) (A) (A) (A) (A) (A) (A) (A) (A)
                 (A) (A) (A) (A) (A) (A) (A) (A) (A) (A) (A) (A)
                 (A) (A) (A) (A) (A) (A) (A) (A) (A) (A) (A) (A)
                 (A) (A) (A) (A) (A) (A) (A) (A) (A) (A) (A) (A)
                 (A) (A) (A) (A) (A) (A) (A) (A) (A) (A) (A) (A)
                 (A) (A) (A) (A) (A) (A) (A) (A) (A) (A) (A) (A)
                 (A) (A) (A) (A) (A) (A) (A) (A) (A) (A) (A) (A)
                 (A) (A) (A) (A) (A) (A) (A) (A) (A) (A) (A) (A)
                 (A) (A) (A) (A) (A) (A) (A) (A) (A) (A) (A) (A)
                 (A) (A) (A) (A) (A) (A) (A) (A) (A) (A) (A) (A)
                 (A) (A) (A) (A) (A) (A) (A) (A) (A) (A) (A) (A)
                 (A) (A) (A) (A) (A) (A) (A) (A) (A) (A) (A) (A)
                 (A) (A) (A) (A) (A) (A) (A) (A) (A) (A) (A)
 The electronic state of the initial guess is 1-A.
 Leave Link  401 at Sun May  3 18:47:49 2020, MaxMem= 1073741824 cpu:       4.0
 (Enter /home/matheus/.gaussian/g09/l502.exe)
 Closed shell SCF:
 Requested convergence on RMS density matrix=1.00D-08 within 128 cycles.
 Requested convergence on MAX density matrix=1.00D-06.
 Requested convergence on             energy=1.00D-06.
 No special actions if energy rises.
 Using DIIS extrapolation, IDIIS=  1040.
 Integral symmetry usage will be decided dynamically.
       126823 words used for storage of precomputed grid.
 IEnd=      305770 IEndB=      305770 NGot=  1073741824 MDV=  1073505365
 LenX=  1073505365 LenY=  1073452483
 Fock matrices will be formed incrementally for  20 cycles.

 Cycle   1  Pass 1  IDiag  1:
 FoFJK:  IHMeth= 1 ICntrl=     0 DoSepK=T KAlg= 1 I1Cent= 0 FoldK=F
 FoFCou: FMM=F IPFlag=           0 FMFlag=      100000 FMFlg1=           0
         NFxFlg=           0 DoJE=T BraDBF=F KetDBF=F FulRan=T
         Omega=  0.000000  0.000000  1.000000  0.000000  0.000000 ICntrl=     500 IOpCl=  0
         NMat0=    1 NMatS0=    1 NMatT0=    0 NMatD0=    1 NMtDS0=    0 NMtDT0=    0
         I1Cent=           0 NGrid=           0.
 Symmetry not used in FoFCou.
 E= -2753.44670395005    
 DIIS: error= 7.39D-02 at cycle   1 NSaved=   1.
 NSaved= 1 IEnMin= 1 EnMin= -2753.44670395005     IErMin= 1 ErrMin= 7.39D-02
 ErrMax= 7.39D-02 EMaxC= 1.00D-01 BMatC= 1.90D+00 BMatP= 1.90D+00
 IDIUse=3 WtCom= 2.61D-01 WtEn= 7.39D-01
 Coeff-Com:  0.100D+01
 Coeff-En:   0.100D+01
 Coeff:      0.100D+01
 Gap=     0.654 Goal=   None    Shift=    0.000
 GapD=    0.654 DampG=2.000 DampE=0.500 DampFc=1.0000 IDamp=-1.
 RMSDP=5.62D-03 MaxDP=3.67D-01              OVMax= 1.83D-01

 Cycle   2  Pass 1  IDiag  1:
 RMSU=  3.91D-03    CP:  1.04D+00
 FoFJK:  IHMeth= 1 ICntrl=     0 DoSepK=T KAlg= 1 I1Cent= 0 FoldK=F
 E= -2753.72378233759     Delta-E=       -0.277078387533 Rises=F Damp=F
 DIIS: error= 3.57D-02 at cycle   2 NSaved=   2.
 NSaved= 2 IEnMin= 2 EnMin= -2753.72378233759     IErMin= 2 ErrMin= 3.57D-02
 ErrMax= 3.57D-02 EMaxC= 1.00D-01 BMatC= 4.66D-01 BMatP= 1.90D+00
 IDIUse=3 WtCom= 6.43D-01 WtEn= 3.57D-01
 Coeff-Com:  0.326D+00 0.674D+00
 Coeff-En:   0.160D+00 0.840D+00
 Coeff:      0.267D+00 0.733D+00
 Gap=     0.489 Goal=   None    Shift=    0.000
 RMSDP=2.54D-03 MaxDP=1.61D-01 DE=-2.77D-01 OVMax= 7.74D-02

 Cycle   3  Pass 1  IDiag  1:
 RMSU=  3.69D-04    CP:  1.03D+00  5.56D-01
 FoFJK:  IHMeth= 1 ICntrl=     0 DoSepK=T KAlg= 1 I1Cent= 0 FoldK=F
 E= -2753.86649505116     Delta-E=       -0.142712713569 Rises=F Damp=F
 DIIS: error= 5.50D-03 at cycle   3 NSaved=   3.
 NSaved= 3 IEnMin= 3 EnMin= -2753.86649505116     IErMin= 3 ErrMin= 5.50D-03
 ErrMax= 5.50D-03 EMaxC= 1.00D-01 BMatC= 1.21D-02 BMatP= 4.66D-01
 IDIUse=3 WtCom= 9.45D-01 WtEn= 5.50D-02
 Coeff-Com: -0.832D-02 0.126D+00 0.883D+00
 Coeff-En:   0.000D+00 0.000D+00 0.100D+01
 Coeff:     -0.786D-02 0.119D+00 0.889D+00
 Gap=     0.517 Goal=   None    Shift=    0.000
 RMSDP=3.24D-04 MaxDP=1.91D-02 DE=-1.43D-01 OVMax= 1.29D-02

 Cycle   4  Pass 1  IDiag  1:
 RMSU=  4.28D-05    CP:  1.03D+00  6.13D-01  9.64D-01
 FoFJK:  IHMeth= 1 ICntrl=     0 DoSepK=T KAlg= 1 I1Cent= 0 FoldK=F
 E= -2753.87021552743     Delta-E=       -0.003720476273 Rises=F Damp=F
 DIIS: error= 2.70D-04 at cycle   4 NSaved=   4.
 NSaved= 4 IEnMin= 4 EnMin= -2753.87021552743     IErMin= 4 ErrMin= 2.70D-04
 ErrMax= 2.70D-04 EMaxC= 1.00D-01 BMatC= 2.22D-05 BMatP= 1.21D-02
 IDIUse=3 WtCom= 9.97D-01 WtEn= 2.70D-03
 Coeff-Com: -0.235D-03-0.181D-01-0.651D-01 0.108D+01
 Coeff-En:   0.000D+00 0.000D+00 0.000D+00 0.100D+01
 Coeff:     -0.234D-03-0.180D-01-0.649D-01 0.108D+01
 Gap=     0.515 Goal=   None    Shift=    0.000
 RMSDP=2.49D-05 MaxDP=8.89D-04 DE=-3.72D-03 OVMax= 9.51D-04

 Cycle   5  Pass 1  IDiag  1:
 RMSU=  9.08D-06    CP:  1.03D+00  6.10D-01  9.85D-01  1.22D+00
 FoFJK:  IHMeth= 1 ICntrl=     0 DoSepK=T KAlg= 1 I1Cent= 0 FoldK=F
 E= -2753.87022648068     Delta-E=       -0.000010953252 Rises=F Damp=F
 DIIS: error= 1.39D-05 at cycle   5 NSaved=   5.
 NSaved= 5 IEnMin= 5 EnMin= -2753.87022648068     IErMin= 5 ErrMin= 1.39D-05
 ErrMax= 1.39D-05 EMaxC= 1.00D-01 BMatC= 5.48D-08 BMatP= 2.22D-05
 IDIUse=1 WtCom= 1.00D+00 WtEn= 0.00D+00
 Coeff-Com:  0.683D-04 0.135D-02 0.345D-03-0.202D+00 0.120D+01
 Coeff:      0.683D-04 0.135D-02 0.345D-03-0.202D+00 0.120D+01
 Gap=     0.514 Goal=   None    Shift=    0.000
 RMSDP=3.97D-06 MaxDP=1.54D-04 DE=-1.10D-05 OVMax= 2.18D-04

 Cycle   6  Pass 1  IDiag  1:
 RMSU=  7.73D-07    CP:  1.03D+00  6.10D-01  9.88D-01  1.26D+00  1.19D+00
 FoFJK:  IHMeth= 1 ICntrl=     0 DoSepK=T KAlg= 1 I1Cent= 0 FoldK=F
 E= -2753.87022663537     Delta-E=       -0.000000154690 Rises=F Damp=F
 DIIS: error= 1.35D-06 at cycle   6 NSaved=   6.
 NSaved= 6 IEnMin= 6 EnMin= -2753.87022663537     IErMin= 6 ErrMin= 1.35D-06
 ErrMax= 1.35D-06 EMaxC= 1.00D-01 BMatC= 5.12D-10 BMatP= 5.48D-08
 IDIUse=1 WtCom= 1.00D+00 WtEn= 0.00D+00
 Coeff-Com:  0.616D-05 0.324D-03 0.494D-03-0.407D-01 0.190D+00 0.850D+00
 Coeff:      0.616D-05 0.324D-03 0.494D-03-0.407D-01 0.190D+00 0.850D+00
 Gap=     0.514 Goal=   None    Shift=    0.000
 RMSDP=2.08D-07 MaxDP=7.52D-06 DE=-1.55D-07 OVMax= 9.49D-06

 Cycle   7  Pass 1  IDiag  1:
 RMSU=  6.81D-08    CP:  1.03D+00  6.10D-01  9.88D-01  1.26D+00  1.20D+00
                    CP:  1.11D+00
 FoFJK:  IHMeth= 1 ICntrl=     0 DoSepK=T KAlg= 1 I1Cent= 0 FoldK=F
 E= -2753.87022663593     Delta-E=       -0.000000000555 Rises=F Damp=F
 DIIS: error= 1.66D-07 at cycle   7 NSaved=   7.
 NSaved= 7 IEnMin= 7 EnMin= -2753.87022663593     IErMin= 7 ErrMin= 1.66D-07
 ErrMax= 1.66D-07 EMaxC= 1.00D-01 BMatC= 2.22D-11 BMatP= 5.12D-10
 IDIUse=1 WtCom= 1.00D+00 WtEn= 0.00D+00
 Coeff-Com: -0.167D-05 0.830D-05 0.124D-03 0.198D-02-0.203D-01 0.105D+00
 Coeff-Com:  0.913D+00
 Coeff:     -0.167D-05 0.830D-05 0.124D-03 0.198D-02-0.203D-01 0.105D+00
 Coeff:      0.913D+00
 Gap=     0.514 Goal=   None    Shift=    0.000
 RMSDP=5.32D-08 MaxDP=2.12D-06 DE=-5.55D-10 OVMax= 1.99D-06

 Cycle   8  Pass 1  IDiag  1:
 RMSU=  1.55D-08    CP:  1.03D+00  6.10D-01  9.88D-01  1.26D+00  1.20D+00
                    CP:  1.15D+00  1.10D+00
 FoFJK:  IHMeth= 1 ICntrl=     0 DoSepK=T KAlg= 1 I1Cent= 0 FoldK=F
 E= -2753.87022663596     Delta-E=       -0.000000000031 Rises=F Damp=F
 DIIS: error= 4.38D-08 at cycle   8 NSaved=   8.
 NSaved= 8 IEnMin= 8 EnMin= -2753.87022663596     IErMin= 8 ErrMin= 4.38D-08
 ErrMax= 4.38D-08 EMaxC= 1.00D-01 BMatC= 1.29D-12 BMatP= 2.22D-11
 IDIUse=1 WtCom= 1.00D+00 WtEn= 0.00D+00
 Coeff-Com: -0.510D-07-0.471D-05 0.137D-04 0.144D-02-0.765D-02-0.141D-01
 Coeff-Com:  0.112D+00 0.909D+00
 Coeff:     -0.510D-07-0.471D-05 0.137D-04 0.144D-02-0.765D-02-0.141D-01
 Coeff:      0.112D+00 0.909D+00
 Gap=     0.514 Goal=   None    Shift=    0.000
 RMSDP=1.18D-08 MaxDP=4.40D-07 DE=-3.14D-11 OVMax= 3.43D-07

 Cycle   9  Pass 1  IDiag  1:
 RMSU=  2.32D-09    CP:  1.03D+00  6.10D-01  9.88D-01  1.26D+00  1.20D+00
                    CP:  1.16D+00  1.14D+00  1.09D+00
 FoFJK:  IHMeth= 1 ICntrl=     0 DoSepK=T KAlg= 1 I1Cent= 0 FoldK=F
 E= -2753.87022663596     Delta-E=       -0.000000000007 Rises=F Damp=F
 DIIS: error= 7.87D-09 at cycle   9 NSaved=   9.
 NSaved= 9 IEnMin= 9 EnMin= -2753.87022663596     IErMin= 9 ErrMin= 7.87D-09
 ErrMax= 7.87D-09 EMaxC= 1.00D-01 BMatC= 8.76D-15 BMatP= 1.29D-12
 IDIUse=1 WtCom= 1.00D+00 WtEn= 0.00D+00
 Coeff-Com:  0.104D-07 0.933D-07-0.239D-05-0.124D-03 0.654D-03 0.727D-04
 Coeff-Com: -0.231D-01-0.871D-01 0.111D+01
 Coeff:      0.104D-07 0.933D-07-0.239D-05-0.124D-03 0.654D-03 0.727D-04
 Coeff:     -0.231D-01-0.871D-01 0.111D+01
 Gap=     0.514 Goal=   None    Shift=    0.000
 RMSDP=1.64D-09 MaxDP=6.39D-08 DE=-7.28D-12 OVMax= 9.56D-08

 SCF Done:  E(RwB97XD) =  -2753.87022664     A.U. after    9 cycles
             Convg  =    0.1644D-08             -V/T =  2.0013
 KE= 2.750247542634D+03 PE=-6.580156278709D+03 EE= 1.076038509439D+03
 Leave Link  502 at Sun May  3 18:48:18 2020, MaxMem= 1073741824 cpu:     231.9
 (Enter /home/matheus/.gaussian/g09/l601.exe)
 Copying SCF densities to generalized density rwf, IOpCl= 0 IROHF=0.

 **********************************************************************

            Population analysis using the SCF density.

 **********************************************************************

 Orbital symmetries:
       Occupied  (A) (A) (A) (A) (A) (A) (A) (A) (A) (A) (A) (A)
                 (A) (A) (A) (A) (A) (A)
       Virtual   (A) (A) (A) (A) (A) (A) (A) (A) (A) (A) (A) (A)
                 (A) (A) (A) (A) (A) (A) (A) (A) (A) (A) (A) (A)
                 (A) (A) (A) (A) (A) (A) (A) (A) (A) (A) (A) (A)
                 (A) (A) (A) (A) (A) (A) (A) (A) (A) (A) (A) (A)
                 (A) (A) (A) (A) (A) (A) (A) (A) (A) (A) (A) (A)
                 (A) (A) (A) (A) (A) (A) (A) (A) (A) (A) (A) (A)
                 (A) (A) (A) (A) (A) (A) (A) (A) (A) (A) (A) (A)
                 (A) (A) (A) (A) (A) (A) (A) (A) (A) (A) (A) (A)
                 (A) (A) (A) (A) (A) (A) (A) (A) (A) (A) (A) (A)
                 (A) (A) (A) (A) (A) (A) (A) (A) (A) (A) (A) (A)
                 (A) (A) (A) (A) (A) (A) (A) (A) (A) (A) (A) (A)
                 (A) (A) (A) (A) (A) (A) (A) (A) (A) (A) (A) (A)
                 (A) (A) (A) (A) (A) (A) (A) (A) (A) (A) (A) (A)
                 (A) (A) (A) (A) (A) (A) (A) (A) (A) (A) (A) (A)
                 (A) (A) (A) (A) (A) (A) (A) (A) (A) (A) (A)
 The electronic state is 1-A.
 Alpha  occ. eigenvalues -- -513.08049 -67.34865 -60.89737 -60.89735 -60.89735
 Alpha  occ. eigenvalues --   -9.80180  -7.49479  -7.49478  -7.49478  -3.36164
 Alpha  occ. eigenvalues --   -3.36164  -3.36164  -3.36163  -3.36163  -1.00829
 Alpha  occ. eigenvalues --   -0.48267  -0.48264  -0.48263
 Alpha virt. eigenvalues --    0.03181   0.05141   0.08699   0.10039   0.11519
 Alpha virt. eigenvalues --    0.12573   0.13412   0.14563   0.16666   0.17382
 Alpha virt. eigenvalues --    0.18025   0.19786   0.21102   0.25492   0.26628
 Alpha virt. eigenvalues --    0.27103   0.28210   0.31668   0.33362   0.35076
 Alpha virt. eigenvalues --    0.35693   0.37183   0.38044   0.39096   0.41763
 Alpha virt. eigenvalues --    0.41987   0.43218   0.52503   0.54472   0.57584
 Alpha virt. eigenvalues --    0.58480   0.66479   0.67282   0.70195   0.72098
 Alpha virt. eigenvalues --    0.74239   0.74957   0.75961   0.76606   0.78250
 Alpha virt. eigenvalues --    0.79657   0.80075   0.83720   0.85080   0.85658
 Alpha virt. eigenvalues --    0.86988   0.88218   0.89275   0.91408   0.94258
 Alpha virt. eigenvalues --    0.97646   0.98300   1.00377   1.02353   1.02877
 Alpha virt. eigenvalues --    1.04799   1.06597   1.07793   1.11855   1.13134
 Alpha virt. eigenvalues --    1.14457   1.17944   1.20205   1.24113   1.27941
 Alpha virt. eigenvalues --    1.32565   1.35622   1.41304   1.43764   1.44113
 Alpha virt. eigenvalues --    1.57908   1.58972   1.60196   1.72396   1.78810
 Alpha virt. eigenvalues --    1.82031   1.85489   1.87366   1.91559   2.15777
 Alpha virt. eigenvalues --    2.19617   2.26129   2.27728   2.30296   2.30432
 Alpha virt. eigenvalues --    2.32110   2.32771   2.36052   2.37465   2.40051
 Alpha virt. eigenvalues --    2.44383   2.47555   2.47804   2.48625   2.48956
 Alpha virt. eigenvalues --    2.50630   2.53484   2.55340   2.55773   2.59608
 Alpha virt. eigenvalues --    2.62113   2.63007   2.64427   2.65119   2.67920
 Alpha virt. eigenvalues --    2.71739   2.75638   2.79179   2.83684   2.88370
 Alpha virt. eigenvalues --    2.92330   2.96424   3.04731   3.13295   3.17101
 Alpha virt. eigenvalues --    3.22730   3.28310   3.33603   3.36120   3.51796
 Alpha virt. eigenvalues --    3.61462   3.66959   3.83432   3.87780   4.04070
 Alpha virt. eigenvalues --    4.36796   4.50603   4.53328   4.54871   4.58901
 Alpha virt. eigenvalues --    4.72472   4.88561   4.88818   4.94915   5.04243
 Alpha virt. eigenvalues --    5.14497   5.17617   5.59995   5.63728   5.83486
 Alpha virt. eigenvalues --    5.98739   6.06158   6.11911   6.79851   6.86845
 Alpha virt. eigenvalues --    7.33562   7.40135   7.63745   7.65942   7.70425
 Alpha virt. eigenvalues --    7.85426   8.01101   8.11187   8.18537   8.22829
 Alpha virt. eigenvalues --    8.38512   8.41418   8.64770   8.89482   9.62873
 Alpha virt. eigenvalues --    9.71823   9.80837   9.88986   9.97656  10.03788
 Alpha virt. eigenvalues --   10.16769  10.27301  10.46942  10.94988  11.51193
 Alpha virt. eigenvalues --   11.60905  11.65011  12.06482  12.06589  13.26096
 Alpha virt. eigenvalues --   13.63660  14.54363  62.74083  64.58820
          Condensed to atoms (all electrons):
              1          2          3          4          5
     1  O    0.002719  -0.002038  -0.001460   0.001239  -0.011143
     2  O   -0.002038   0.005357   0.000631  -0.003322  -0.003214
     3  H   -0.001460   0.000631   0.001022  -0.000391   0.003247
     4  H    0.001239  -0.003322  -0.000391   0.003196  -0.019272
     5  Kr  -0.011143  -0.003214   0.003247  -0.019272  36.059153
 Mulliken atomic charges:
              1
     1  O    0.010682
     2  O    0.002586
     3  H   -0.003049
     4  H    0.018550
     5  Kr  -0.028770
 Sum of Mulliken atomic charges =   0.00000
 Mulliken charges with hydrogens summed into heavy atoms:
              1
     1  O    0.007634
     2  O    0.021136
     5  Kr  -0.028770
 Sum of Mulliken charges with hydrogens summed into heavy atoms =   0.00000
          Condensed to fragments (all electrons):
     1       0.028770
     2      -0.028770
 Electronic spatial extent (au):  <R**2>=            166.9253
 Charge=              0.0000 electrons
 Dipole moment (field-independent basis, Debye):
    X=             -0.0009    Y=              0.0006    Z=              0.0001  Tot=              0.0011
 Quadrupole moment (field-independent basis, Debye-Ang):
   XX=            -17.6433   YY=            -17.6540   ZZ=            -17.6606
   XY=             -0.0044   XZ=              0.0002   YZ=              0.0004
 Traceless Quadrupole moment (field-independent basis, Debye-Ang):
   XX=              0.0094   YY=             -0.0014   ZZ=             -0.0080
   XY=             -0.0044   XZ=              0.0002   YZ=              0.0004
 Octapole moment (field-independent basis, Debye-Ang**2):
  XXX=            -52.7122  YYY=              0.9100  ZZZ=             -0.1531  XYY=            -17.5830
  XXY=              0.2935  XXZ=             -0.0512  XZZ=            -17.5867  YZZ=              0.3040
  YYZ=             -0.0506  XYZ=              0.0004
 Hexadecapole moment (field-independent basis, Debye-Ang**3):
 XXXX=           -123.4522 YYYY=            -18.5060 ZZZZ=            -18.4956 XXXY=              0.8830
 XXXZ=             -0.1531 YYYX=              0.8913 YYYZ=              0.0017 ZZZX=             -0.1528
 ZZZY=              0.0036 XXYY=            -23.6708 XXZZ=            -23.6710 YYZZ=             -6.1646
 XXYZ=              0.0013 YYXZ=             -0.0510 ZZXY=              0.2956
 N-N= 0.000000000000D+00 E-N=-6.580156277483D+03  KE= 2.750247542634D+03
 No NMR shielding tensors so no spin-rotation constants.
 Leave Link  601 at Sun May  3 18:48:18 2020, MaxMem= 1073741824 cpu:       0.9
 (Enter /home/matheus/.gaussian/g09/l122.exe)
 Counterpoise: doing MCBS calculation for fragment   1
 Leave Link  122 at Sun May  3 18:48:18 2020, MaxMem= 1073741824 cpu:       0.0
 (Enter /home/matheus/.gaussian/g09/l301.exe)
 Basis read from rwf:  (5D, 7F)
 No pseudopotential information found on rwf file.
 There are   138 symmetry adapted basis functions of A   symmetry.
 Integral buffers will be    131072 words long.
 Raffenetti 2 integral format.
 Two-electron integral symmetry is turned on.
   138 basis functions,   198 primitive gaussians,   160 cartesian basis functions
     9 alpha electrons        9 beta electrons
       nuclear repulsion energy        36.6058450489 Hartrees.
 IExCor= 4639 DFT=T Ex+Corr=wB97XD ExCW=0 ScaHFX=  1.000000
 ScaDFX=  1.000000  1.000000  1.000000  1.000000 ScalE2=  1.000000  1.000000
 IRadAn=      5 IRanWt=     -1 IRanGd=            0 ICorTp=0
  HFx wShort=  0.000000 wLong=  0.250000 cFull=  0.222036 cShort=  0.000000 cLong=  0.777964
  DFx wShort=  0.000000 wLong=  0.250000 cFull=  0.000000 cShort=  0.000000 cLong=  1.000000
 NAtoms=    5 NActive=    4 NUniq=    4 SFac= 1.00D+00 NAtFMM=   60 NAOKFM=F Big=F
 R6Disp: Dispersion energy =        -0.0002107748 Hartrees.
 Nuclear repulsion after empirical dispersion term =       36.6056342741 Hartrees.
 No density basis found on file   718.
 Leave Link  301 at Sun May  3 18:48:19 2020, MaxMem= 1073741824 cpu:       0.2
 (Enter /home/matheus/.gaussian/g09/l302.exe)
 NPDir=0 NMtPBC=     1 NCelOv=     1 NCel=       1 NClECP=     1 NCelD=      1
         NCelK=      1 NCelE2=     1 NClLst=     1 CellRange=     0.0.
 One-electron integrals computed using PRISM.
 NBasis=   138 RedAO= T  NBF=   138
 NBsUse=   138 1.00D-06 NBFU=   138
 Precomputing XC quadrature grid using
 IXCGrd= 2 IRadAn=           5 IRanWt=          -1 IRanGd=           0 AccXCQ= 0.00D+00.
 NRdTot=     344 NPtTot=       92556 NUsed=       95038 NTot=       95070
 NSgBfM=   160   160   160   160   160 NAtAll=     4     4.
 Leave Link  302 at Sun May  3 18:48:19 2020, MaxMem= 1073741824 cpu:       0.8
 (Enter /home/matheus/.gaussian/g09/l303.exe)
 DipDrv:  MaxL=1.
 Leave Link  303 at Sun May  3 18:48:19 2020, MaxMem= 1073741824 cpu:       0.1
 (Enter /home/matheus/.gaussian/g09/l401.exe)
 Harris functional with IExCor= 4639 diagonalized for initial guess.
 ExpMin= 2.53D-02 ExpMax= 1.53D+04 ExpMxC= 5.22D+02 IAcc=3 IRadAn=         5 AccDes= 0.00D+00
 HarFok:  IExCor= 4639 AccDes= 0.00D+00 IRadAn=         5 IDoV= 1
 ScaDFX=  1.000000  1.000000  1.000000  1.000000
 FoFCou: FMM=F IPFlag=           0 FMFlag=      100000 FMFlg1=           0
         NFxFlg=           0 DoJE=T BraDBF=F KetDBF=T FulRan=T
         Omega=  0.000000  0.000000  1.000000  0.000000  0.000000 ICntrl=     500 IOpCl=  0
         NMat0=    1 NMatS0=    1 NMatT0=    0 NMatD0=    1 NMtDS0=    0 NMtDT0=    0
         I1Cent=           4 NGrid=           0.
 Petite list used in FoFCou.
 Harris En= -145.944301342093    
 Initial guess orbital symmetries:
       Occupied  (A) (A) (A) (A) (A) (A) (A) (A) (A)
       Virtual   (A) (A) (A) (A) (A) (A) (A) (A) (A) (A) (A) (A)
                 (A) (A) (A) (A) (A) (A) (A) (A) (A) (A) (A) (A)
                 (A) (A) (A) (A) (A) (A) (A) (A) (A) (A) (A) (A)
                 (A) (A) (A) (A) (A) (A) (A) (A) (A) (A) (A) (A)
                 (A) (A) (A) (A) (A) (A) (A) (A) (A) (A) (A) (A)
                 (A) (A) (A) (A) (A) (A) (A) (A) (A) (A) (A) (A)
                 (A) (A) (A) (A) (A) (A) (A) (A) (A) (A) (A) (A)
                 (A) (A) (A) (A) (A) (A) (A) (A) (A) (A) (A) (A)
                 (A) (A) (A) (A) (A) (A) (A) (A) (A) (A) (A) (A)
                 (A) (A) (A) (A) (A) (A) (A) (A) (A) (A) (A) (A)
                 (A) (A) (A) (A) (A) (A) (A) (A) (A)
 The electronic state of the initial guess is 1-A.
 Leave Link  401 at Sun May  3 18:48:19 2020, MaxMem= 1073741824 cpu:       2.4
 (Enter /home/matheus/.gaussian/g09/l502.exe)
 Closed shell SCF:
 Requested convergence on RMS density matrix=1.00D-08 within 128 cycles.
 Requested convergence on MAX density matrix=1.00D-06.
 Requested convergence on             energy=1.00D-06.
 No special actions if energy rises.
 Using DIIS extrapolation, IDIIS=  1040.
 Integral symmetry usage will be decided dynamically.
        94980 words used for storage of precomputed grid.
[...]
 RMSDP=2.17D-07 MaxDP=8.09D-06 DE=-6.75D-09 OVMax= 9.99D-06

 Cycle   4  Pass 1  IDiag  1:
 RMSU=  5.52D-08    CP:  1.00D+00  1.09D+00  1.21D+00
 FoFJK:  IHMeth= 1 ICntrl=     0 DoSepK=T KAlg= 1 I1Cent= 0 FoldK=F
 E= -2753.87012705721     Delta-E=       -0.000000000194 Rises=F Damp=F
 DIIS: error= 2.73D-07 at cycle   4 NSaved=   4.
 NSaved= 4 IEnMin= 4 EnMin= -2753.87012705721     IErMin= 4 ErrMin= 2.73D-07
 ErrMax= 2.73D-07 EMaxC= 1.00D-01 BMatC= 7.32D-12 BMatP= 9.18D-11
 IDIUse=1 WtCom= 1.00D+00 WtEn= 0.00D+00
 Coeff-Com:  0.199D-03-0.467D-01 0.285D+00 0.762D+00
 Coeff:      0.199D-03-0.467D-01 0.285D+00 0.762D+00
 Gap=     0.512 Goal=   None    Shift=    0.000
 RMSDP=1.94D-08 MaxDP=9.84D-07 DE=-1.94D-10 OVMax= 1.10D-06

 Cycle   5  Pass 1  IDiag  1:
 RMSU=  7.76D-09    CP:  1.00D+00  1.09D+00  1.23D+00  1.12D+00
 FoFJK:  IHMeth= 1 ICntrl=     0 DoSepK=T KAlg= 1 I1Cent= 0 FoldK=F
 E= -2753.87012705722     Delta-E=       -0.000000000012 Rises=F Damp=F
 DIIS: error= 2.97D-08 at cycle   5 NSaved=   5.
 NSaved= 5 IEnMin= 5 EnMin= -2753.87012705722     IErMin= 5 ErrMin= 2.97D-08
 ErrMax= 2.97D-08 EMaxC= 1.00D-01 BMatC= 1.26D-13 BMatP= 7.32D-12
 IDIUse=1 WtCom= 1.00D+00 WtEn= 0.00D+00
 Coeff-Com: -0.288D-04 0.951D-02-0.732D-01-0.562D-01 0.112D+01
 Coeff:     -0.288D-04 0.951D-02-0.732D-01-0.562D-01 0.112D+01
 Gap=     0.512 Goal=   None    Shift=    0.000
 RMSDP=1.01D-08 MaxDP=6.18D-07 DE=-1.18D-11 OVMax= 4.19D-07

 Cycle   6  Pass 1  IDiag  1:
 RMSU=  1.36D-09    CP:  1.00D+00  1.09D+00  1.23D+00  1.20D+00  1.16D+00
 FoFJK:  IHMeth= 1 ICntrl=     0 DoSepK=T KAlg= 1 I1Cent= 0 FoldK=F
 E= -2753.87012705723     Delta-E=       -0.000000000006 Rises=F Damp=F
 DIIS: error= 2.86D-09 at cycle   6 NSaved=   6.
 NSaved= 6 IEnMin= 6 EnMin= -2753.87012705723     IErMin= 6 ErrMin= 2.86D-09
 ErrMax= 2.86D-09 EMaxC= 1.00D-01 BMatC= 2.83D-15 BMatP= 1.26D-13
 IDIUse=1 WtCom= 1.00D+00 WtEn= 0.00D+00
 Coeff-Com: -0.441D-05 0.109D-02-0.713D-02-0.127D-01 0.420D-01 0.977D+00
 Coeff:     -0.441D-05 0.109D-02-0.713D-02-0.127D-01 0.420D-01 0.977D+00
 Gap=     0.512 Goal=   None    Shift=    0.000
 RMSDP=5.34D-10 MaxDP=2.83D-08 DE=-5.91D-12 OVMax= 4.59D-08

 SCF Done:  E(RwB97XD) =  -2753.87012706     A.U. after    6 cycles
             Convg  =    0.5340D-09             -V/T =  2.0013
 KE= 2.750283324564D+03 PE=-6.580194617504D+03 EE= 1.076041165883D+03
 Leave Link  502 at Sun May  3 19:12:15 2020, MaxMem= 1073741824 cpu:     117.5
 (Enter /home/matheus/.gaussian/g09/l122.exe)
 Restoring MOs from calculation   4 to rwf.
 Counterpoise: doing MCBS calculation for fragment   1
 Leave Link  122 at Sun May  3 19:12:15 2020, MaxMem= 1073741824 cpu:       0.0
 (Enter /home/matheus/.gaussian/g09/l301.exe)
 Basis read from rwf:  (5D, 7F)
 No pseudopotential information found on rwf file.
 There are   138 symmetry adapted basis functions of A   symmetry.
 Integral buffers will be    131072 words long.
 Raffenetti 2 integral format.
 Two-electron integral symmetry is turned on.
   138 basis functions,   198 primitive gaussians,   160 cartesian basis functions
     9 alpha electrons        9 beta electrons
       nuclear repulsion energy        36.6058450489 Hartrees.
 IExCor= 4639 DFT=T Ex+Corr=wB97XD ExCW=0 ScaHFX=  1.000000
 ScaDFX=  1.000000  1.000000  1.000000  1.000000 ScalE2=  1.000000  1.000000
 IRadAn=      5 IRanWt=     -1 IRanGd=            0 ICorTp=0
  HFx wShort=  0.000000 wLong=  0.250000 cFull=  0.222036 cShort=  0.000000 cLong=  0.777964
  DFx wShort=  0.000000 wLong=  0.250000 cFull=  0.000000 cShort=  0.000000 cLong=  1.000000
 NAtoms=    5 NActive=    4 NUniq=    4 SFac= 1.00D+00 NAtFMM=   60 NAOKFM=F Big=F
 R6Disp: Dispersion energy =        -0.0002107748 Hartrees.
 Nuclear repulsion after empirical dispersion term =       36.6056342741 Hartrees.
 No density basis found on file   718.
 Leave Link  301 at Sun May  3 19:12:15 2020, MaxMem= 1073741824 cpu:       0.2
 (Enter /home/matheus/.gaussian/g09/l302.exe)
 NPDir=0 NMtPBC=     1 NCelOv=     1 NCel=       1 NClECP=     1 NCelD=      1
         NCelK=      1 NCelE2=     1 NClLst=     1 CellRange=     0.0.
 One-electron integrals computed using PRISM.
 NBasis=   138 RedAO= T  NBF=   138
 NBsUse=   138 1.00D-06 NBFU=   138
 Precomputing XC quadrature grid using
 IXCGrd= 2 IRadAn=           5 IRanWt=          -1 IRanGd=           0 AccXCQ= 0.00D+00.
 NRdTot=     344 NPtTot=       92556 NUsed=       95038 NTot=       95070
 NSgBfM=   160   160   160   160   160 NAtAll=     4     4.
 Leave Link  302 at Sun May  3 19:12:15 2020, MaxMem= 1073741824 cpu:       0.8
 (Enter /home/matheus/.gaussian/g09/l303.exe)
 DipDrv:  MaxL=1.
 Leave Link  303 at Sun May  3 19:12:15 2020, MaxMem= 1073741824 cpu:       0.2
 (Enter /home/matheus/.gaussian/g09/l401.exe)
 Initial guess read from the read-write file.
 Guess basis will be translated and rotated to current coordinates.
 Initial guess orbital symmetries:
       Occupied  (A) (A) (A) (A) (A) (A) (A) (A) (A)
       Virtual   (A) (A) (A) (A) (A) (A) (A) (A) (A) (A) (A) (A)
                 (A) (A) (A) (A) (A) (A) (A) (A) (A) (A) (A) (A)
                 (A) (A) (A) (A) (A) (A) (A) (A) (A) (A) (A) (A)
                 (A) (A) (A) (A) (A) (A) (A) (A) (A) (A) (A) (A)
                 (A) (A) (A) (A) (A) (A) (A) (A) (A) (A) (A) (A)
                 (A) (A) (A) (A) (A) (A) (A) (A) (A) (A) (A) (A)
                 (A) (A) (A) (A) (A) (A) (A) (A) (A) (A) (A) (A)
                 (A) (A) (A) (A) (A) (A) (A) (A) (A) (A) (A) (A)
                 (A) (A) (A) (A) (A) (A) (A) (A) (A) (A) (A) (A)
                 (A) (A) (A) (A) (A) (A) (A) (A) (A) (A) (A) (A)
                 (A) (A) (A) (A) (A) (A) (A) (A) (A)
 The electronic state of the initial guess is 1-A.
 Generating alternative initial guess.
 Harris functional with IExCor= 4639 diagonalized for initial guess.
 ExpMin= 2.53D-02 ExpMax= 1.53D+04 ExpMxC= 5.22D+02 IAcc=3 IRadAn=         5 AccDes= 0.00D+00
 HarFok:  IExCor= 4639 AccDes= 0.00D+00 IRadAn=         5 IDoV= 1
 ScaDFX=  1.000000  1.000000  1.000000  1.000000
 FoFCou: FMM=F IPFlag=           0 FMFlag=      100000 FMFlg1=           0
         NFxFlg=           0 DoJE=T BraDBF=F KetDBF=T FulRan=T
         Omega=  0.000000  0.000000  1.000000  0.000000  0.000000 ICntrl=     500 IOpCl=  0
         NMat0=    1 NMatS0=    1 NMatT0=    0 NMatD0=    1 NMtDS0=    0 NMtDT0=    0
         I1Cent=           4 NGrid=           0.
 Petite list used in FoFCou.
 Harris En= -145.944301375218    
 Leave Link  401 at Sun May  3 19:12:16 2020, MaxMem= 1073741824 cpu:       2.5
 (Enter /home/matheus/.gaussian/g09/l502.exe)
 Closed shell SCF:
 Requested convergence on RMS density matrix=1.00D-08 within 128 cycles.
 Requested convergence on MAX density matrix=1.00D-06.
 Requested convergence on             energy=1.00D-06.
 No special actions if energy rises.
 Using DIIS extrapolation, IDIIS=  1040.
 Integral symmetry usage will be decided dynamically.
        94980 words used for storage of precomputed grid.
 IEnd=      192360 IEndB=      192360 NGot=  1073741824 MDV=  1073591865
 LenX=  1073591865 LenY=  1073565824
 Fock matrices will be formed incrementally for  20 cycles.

 Cycle   1  Pass 1  IDiag  1:
 FoFJK:  IHMeth= 1 ICntrl=     0 DoSepK=T KAlg= 1 I1Cent= 0 FoldK=F
 FoFCou: FMM=F IPFlag=           0 FMFlag=      100000 FMFlg1=           0
         NFxFlg=           0 DoJE=T BraDBF=F KetDBF=F FulRan=T
         Omega=  0.000000  0.000000  1.000000  0.000000  0.000000 ICntrl=     500 IOpCl=  0
         NMat0=    1 NMatS0=    1 NMatT0=    0 NMatD0=    1 NMtDS0=    0 NMtDT0=    0
         I1Cent=           0 NGrid=           0.
 Symmetry not used in FoFCou.
 E= -151.558613812272    
 DIIS: error= 1.98D-05 at cycle   1 NSaved=   1.
 NSaved= 1 IEnMin= 1 EnMin= -151.558613812272     IErMin= 1 ErrMin= 1.98D-05
 ErrMax= 1.98D-05 EMaxC= 1.00D-01 BMatC= 4.26D-08 BMatP= 4.26D-08
 IDIUse=1 WtCom= 1.00D+00 WtEn= 0.00D+00
 Coeff-Com:  0.100D+01
 Coeff:      0.100D+01
 Gap=     0.416 Goal=   None    Shift=    0.000
 RMSDP=1.17D-06 MaxDP=2.02D-05              OVMax= 8.25D-05

 Cycle   2  Pass 1  IDiag  1:
 RMSU=  8.31D-07    CP:  1.00D+00
 FoFJK:  IHMeth= 1 ICntrl=     0 DoSepK=T KAlg= 1 I1Cent= 0 FoldK=F
 E= -151.558613856052     Delta-E=       -0.000000043779 Rises=F Damp=F
 DIIS: error= 3.40D-06 at cycle   2 NSaved=   2.
 NSaved= 2 IEnMin= 2 EnMin= -151.558613856052     IErMin= 2 ErrMin= 3.40D-06
 ErrMax= 3.40D-06 EMaxC= 1.00D-01 BMatC= 1.45D-09 BMatP= 4.26D-08
 IDIUse=1 WtCom= 1.00D+00 WtEn= 0.00D+00
 Coeff-Com: -0.122D+00 0.112D+01
 Coeff:     -0.122D+00 0.112D+01
 Gap=     0.416 Goal=   None    Shift=    0.000
 RMSDP=3.85D-07 MaxDP=6.55D-06 DE=-4.38D-08 OVMax= 3.13D-05

 Cycle   3  Pass 1  IDiag  1:
 RMSU=  1.64D-07    CP:  1.00D+00  1.26D+00
 FoFJK:  IHMeth= 1 ICntrl=     0 DoSepK=T KAlg= 1 I1Cent= 0 FoldK=F
 E= -151.558613859382     Delta-E=       -0.000000003330 Rises=F Damp=F
 DIIS: error= 9.56D-07 at cycle   3 NSaved=   3.
 NSaved= 3 IEnMin= 3 EnMin= -151.558613859382     IErMin= 3 ErrMin= 9.56D-07
 ErrMax= 9.56D-07 EMaxC= 1.00D-01 BMatC= 1.76D-10 BMatP= 1.45D-09
 IDIUse=1 WtCom= 1.00D+00 WtEn= 0.00D+00
 Coeff-Com: -0.287D-01 0.104D+00 0.925D+00
 Coeff:     -0.287D-01 0.104D+00 0.925D+00
 Gap=     0.416 Goal=   None    Shift=    0.000
 RMSDP=1.21D-07 MaxDP=3.34D-06 DE=-3.33D-09 OVMax= 8.56D-06

 Cycle   4  Pass 1  IDiag  1:
 RMSU=  6.34D-08    CP:  1.00D+00  1.32D+00  1.21D+00
 FoFJK:  IHMeth= 1 ICntrl=     0 DoSepK=T KAlg= 1 I1Cent= 0 FoldK=F
 E= -151.558613859601     Delta-E=       -0.000000000219 Rises=F Damp=F
 DIIS: error= 9.36D-07 at cycle   4 NSaved=   4.
 NSaved= 4 IEnMin= 4 EnMin= -151.558613859601     IErMin= 4 ErrMin= 9.36D-07
 ErrMax= 9.36D-07 EMaxC= 1.00D-01 BMatC= 1.51D-10 BMatP= 1.76D-10
 IDIUse=1 WtCom= 1.00D+00 WtEn= 0.00D+00
 Coeff-Com:  0.516D-02-0.145D+00 0.536D+00 0.604D+00
 Coeff:      0.516D-02-0.145D+00 0.536D+00 0.604D+00
 Gap=     0.416 Goal=   None    Shift=    0.000
 RMSDP=5.92D-08 MaxDP=1.87D-06 DE=-2.19D-10 OVMax= 3.48D-06

 Cycle   5  Pass 1  IDiag  1:
 RMSU=  1.78D-08    CP:  1.00D+00  1.33D+00  1.39D+00  7.14D-01
 FoFJK:  IHMeth= 1 ICntrl=     0 DoSepK=T KAlg= 1 I1Cent= 0 FoldK=F
 E= -151.558613859724     Delta-E=       -0.000000000123 Rises=F Damp=F
 DIIS: error= 1.74D-07 at cycle   5 NSaved=   5.
 NSaved= 5 IEnMin= 5 EnMin= -151.558613859724     IErMin= 5 ErrMin= 1.74D-07
 ErrMax= 1.74D-07 EMaxC= 1.00D-01 BMatC= 4.88D-12 BMatP= 1.51D-10
 IDIUse=1 WtCom= 1.00D+00 WtEn= 0.00D+00
 Coeff-Com:  0.456D-02-0.511D-01 0.194D-01 0.142D+00 0.886D+00
 Coeff:      0.456D-02-0.511D-01 0.194D-01 0.142D+00 0.886D+00
 Gap=     0.416 Goal=   None    Shift=    0.000
 RMSDP=2.02D-08 MaxDP=3.37D-07 DE=-1.23D-10 OVMax= 1.72D-06

 Cycle   6  Pass 1  IDiag  1:
 RMSU=  7.21D-09    CP:  1.00D+00  1.34D+00  1.44D+00  8.20D-01  1.25D+00
 FoFJK:  IHMeth= 1 ICntrl=     0 DoSepK=T KAlg= 1 I1Cent= 0 FoldK=F
 E= -151.558613859732     Delta-E=       -0.000000000009 Rises=F Damp=F
 DIIS: error= 7.67D-08 at cycle   6 NSaved=   6.
 NSaved= 6 IEnMin= 6 EnMin= -151.558613859732     IErMin= 6 ErrMin= 7.67D-08
 ErrMax= 7.67D-08 EMaxC= 1.00D-01 BMatC= 6.71D-13 BMatP= 4.88D-12
 IDIUse=1 WtCom= 1.00D+00 WtEn= 0.00D+00
 Coeff-Com:  0.766D-03-0.178D-03-0.422D-01-0.164D-01 0.240D+00 0.818D+00
 Coeff:      0.766D-03-0.178D-03-0.422D-01-0.164D-01 0.240D+00 0.818D+00
 Gap=     0.416 Goal=   None    Shift=    0.000
 RMSDP=7.92D-09 MaxDP=1.79D-07 DE=-8.75D-12 OVMax= 7.59D-07

 SCF Done:  E(RwB97XD) =  -151.558613860     A.U. after    6 cycles
             Convg  =    0.7922D-08             -V/T =  2.0061
 KE= 1.506346085725D+02 PE=-4.316718212688D+02 EE= 9.287296456240D+01
 Leave Link  502 at Sun May  3 19:12:22 2020, MaxMem= 1073741824 cpu:      47.7
 (Enter /home/matheus/.gaussian/g09/l122.exe)
 Restoring MOs from calculation   5 to rwf.
 Counterpoise: doing MCBS calculation for fragment   2
 Leave Link  122 at Sun May  3 19:12:22 2020, MaxMem= 1073741824 cpu:       0.0
 (Enter /home/matheus/.gaussian/g09/l301.exe)
 Basis read from rwf:  (5D, 7F)
 No pseudopotential information found on rwf file.
 There are    59 symmetry adapted basis functions of A   symmetry.
 Integral buffers will be    131072 words long.
 Raffenetti 2 integral format.
 Two-electron integral symmetry is turned on.
    59 basis functions,   217 primitive gaussians,    69 cartesian basis functions
    18 alpha electrons       18 beta electrons
       nuclear repulsion energy         0.0000000000 Hartrees.
 IExCor= 4639 DFT=T Ex+Corr=wB97XD ExCW=0 ScaHFX=  1.000000
 ScaDFX=  1.000000  1.000000  1.000000  1.000000 ScalE2=  1.000000  1.000000
 IRadAn=      5 IRanWt=     -1 IRanGd=            0 ICorTp=0
  HFx wShort=  0.000000 wLong=  0.250000 cFull=  0.222036 cShort=  0.000000 cLong=  0.777964
  DFx wShort=  0.000000 wLong=  0.250000 cFull=  0.000000 cShort=  0.000000 cLong=  1.000000
 NAtoms=    5 NActive=    1 NUniq=    1 SFac= 1.00D+00 NAtFMM=   60 NAOKFM=F Big=F
 R6Disp: Dispersion energy =         0.0000000000 Hartrees.
 Nuclear repulsion after empirical dispersion term =        0.0000000000 Hartrees.
 No density basis found on file   718.
 Leave Link  301 at Sun May  3 19:12:22 2020, MaxMem= 1073741824 cpu:       0.2
 (Enter /home/matheus/.gaussian/g09/l302.exe)
 NPDir=0 NMtPBC=     1 NCelOv=     1 NCel=       1 NClECP=     1 NCelD=      1
         NCelK=      1 NCelE2=     1 NClLst=     1 CellRange=     0.0.
 One-electron integrals computed using PRISM.
 NBasis=    59 RedAO= T  NBF=    59
 NBsUse=    59 1.00D-06 NBFU=    59
 Precomputing XC quadrature grid using
 IXCGrd= 2 IRadAn=           5 IRanWt=          -1 IRanGd=           0 AccXCQ= 0.00D+00.
 NRdTot=      81 NPtTot=       30352 NUsed=       30981 NTot=       31013
 NSgBfM=    69    69    69    69    69 NAtAll=     1     1.
 Leave Link  302 at Sun May  3 19:12:22 2020, MaxMem= 1073741824 cpu:       0.6
 (Enter /home/matheus/.gaussian/g09/l303.exe)
 DipDrv:  MaxL=1.
 Leave Link  303 at Sun May  3 19:12:22 2020, MaxMem= 1073741824 cpu:       0.1
 (Enter /home/matheus/.gaussian/g09/l401.exe)
 Initial guess read from the read-write file.
 Guess basis will be translated and rotated to current coordinates.
 Initial guess orbital symmetries:
       Occupied  (A) (A) (A) (A) (A) (A) (A) (A) (A) (A) (A) (A)
                 (A) (A) (A) (A) (A) (A)
       Virtual   (A) (A) (A) (A) (A) (A) (A) (A) (A) (A) (A) (A)
                 (A) (A) (A) (A) (A) (A) (A) (A) (A) (A) (A) (A)
                 (A) (A) (A) (A) (A) (A) (A) (A) (A) (A) (A) (A)
                 (A) (A) (A) (A) (A)
 The electronic state of the initial guess is 1-A.
 Generating alternative initial guess.
 Harris functional with IExCor= 4639 diagonalized for initial guess.
 ExpMin= 4.00D-02 ExpMax= 1.17D+07 ExpMxC= 1.33D+04 IAcc=3 IRadAn=         5 AccDes= 0.00D+00
 HarFok:  IExCor= 4639 AccDes= 0.00D+00 IRadAn=         5 IDoV= 1
 ScaDFX=  1.000000  1.000000  1.000000  1.000000
 FoFCou: FMM=F IPFlag=           0 FMFlag=      100000 FMFlg1=           0
         NFxFlg=           0 DoJE=T BraDBF=F KetDBF=T FulRan=T
         Omega=  0.000000  0.000000  1.000000  0.000000  0.000000 ICntrl=     500 IOpCl=  0
         NMat0=    1 NMatS0=    1 NMatT0=    0 NMatD0=    1 NMtDS0=    0 NMtDT0=    0
         I1Cent=           4 NGrid=           0.
 Petite list used in FoFCou.
 Harris En= -2729.45839233129    
 Leave Link  401 at Sun May  3 19:12:22 2020, MaxMem= 1073741824 cpu:       1.0
 (Enter /home/matheus/.gaussian/g09/l502.exe)
 Closed shell SCF:
 Requested convergence on RMS density matrix=1.00D-08 within 128 cycles.
 Requested convergence on MAX density matrix=1.00D-06.
 Requested convergence on             energy=1.00D-06.
 No special actions if energy rises.
 Using DIIS extrapolation, IDIIS=  1040.
 Integral symmetry usage will be decided dynamically.
        30923 words used for storage of precomputed grid.
 IEnd=       64406 IEndB=       64406 NGot=  1073741824 MDV=  1073698889
 LenX=  1073698889 LenY=  1073693687
 Fock matrices will be formed incrementally for  20 cycles.

 Cycle   1  Pass 1  IDiag  1:
 FoFJK:  IHMeth= 1 ICntrl=     0 DoSepK=T KAlg= 1 I1Cent= 0 FoldK=F
 FoFCou: FMM=F IPFlag=           0 FMFlag=      100000 FMFlg1=           0
         NFxFlg=           0 DoJE=T BraDBF=F KetDBF=F FulRan=T
         Omega=  0.000000  0.000000  1.000000  0.000000  0.000000 ICntrl=     500 IOpCl=  0
         NMat0=    1 NMatS0=    1 NMatT0=    0 NMatD0=    1 NMtDS0=    0 NMtDT0=    0
         I1Cent=           0 NGrid=           0.
 Symmetry not used in FoFCou.
 E= -2753.87011063501    
 DIIS: error= 6.98D-14 at cycle   1 NSaved=   1.
 NSaved= 1 IEnMin= 1 EnMin= -2753.87011063501     IErMin= 1 ErrMin= 6.98D-14
 ErrMax= 6.98D-14 EMaxC= 1.00D-01 BMatC= 4.60D-25 BMatP= 4.60D-25
 IDIUse=1 WtCom= 1.00D+00 WtEn= 0.00D+00
 Coeff-Com:  0.100D+01
 Coeff:      0.100D+01
 Gap=     0.578 Goal=   None    Shift=    0.000
 RMSDP=8.39D-15 MaxDP=9.42D-14              OVMax= 1.29D-13

 SCF Done:  E(RwB97XD) =  -2753.87011064     A.U. after    1 cycles
             Convg  =    0.8390D-14             -V/T =  2.0013
 KE= 2.750289370128D+03 PE=-6.580200885036D+03 EE= 1.076041404273D+03
 Leave Link  502 at Sun May  3 19:12:23 2020, MaxMem= 1073741824 cpu:      12.3
 (Enter /home/matheus/.gaussian/g09/l122.exe)
 Restoring MOs from calculation   1 to rwf.
 Counterpoise: corrected energy =   -2905.429022139684
 Counterpoise: BSSE energy =       0.000020101323
 Leave Link  122 at Sun May  3 19:12:23 2020, MaxMem= 1073741824 cpu:       0.0
 (Enter /home/matheus/.gaussian/g09/l108.exe)
 Scan completed.

 Summary of the potential surface scan:
   N      R1          SCF    
 ----  ---------  -----------
    1     3.0000  -2753.87011
    2     3.1000  -2753.87011
    3     3.2000  -2753.87011
    4     3.3000  -2753.87011
    5     3.4000  -2753.87011
    6     3.5000  -2753.87011
    7     3.6000  -2753.87011
    8     3.7000  -2753.87011
    9     3.8000  -2753.87011
   10     3.9000  -2753.87011
   11     4.0000  -2753.87011
   12     4.1000  -2753.87011
   13     4.2000  -2753.87011
   14     4.3000  -2753.87011
   15     4.4000  -2753.87011
   16     4.5000  -2753.87011
   17     4.6000  -2753.87011
   18     4.7000  -2753.87011
   19     4.8000  -2753.87011
   20     4.9000  -2753.87011
   21     5.0000  -2753.87011
 ----  ---------  -----------
  
 Leave Link  108 at Sun May  3 19:12:23 2020, MaxMem= 1073741824 cpu:       0.0
 (Enter /home/matheus/.gaussian/g09/l9999.exe)

 Test job not archived.
 1\1\GINC-REDGIANT\Scan\RwB97XD\Aug-CC-pVTZ\H2Kr1O2\ROOT\03-May-2020\1\
 \#p wb97xd/aug-cc-PVTz iop(3/107=0250000000) iop(3/108=0250000000) int
 =ultrafine counterpoise=2 Scan\\TCC\\0,1\O,0,0.,0.,0.725\O,0,0.,0.,-0.
 725\H,0,-0.5905422151,-0.7037808064,1.0235104166\H,0,0.,0.9187205947,-
 1.0235104166\Kr,0,0.,R1,0.\\R1=3.,s,20,0.1\\Version=EM64L-G09RevC.01\S
 tate=1-A\HF=-2753.8701106,-2753.8701106,-2753.8701106,-2753.8701106,-2
 753.8701106,-2753.8701106,-2753.8701106,-2753.8701106,-2753.8701106,-2
 753.8701106,-2753.8701106,-2753.8701106,-2753.8701106,-2753.8701106,-2
 753.8701106,-2753.8701106,-2753.8701106,-2753.8701106,-2753.8701106,-2
 753.8701106,-2753.8701106\RMSD=9.654e-09,1.847e-10,5.406e-11,3.458e-11
 ,1.948e-11,1.188e-11,7.103e-12,4.280e-12,2.566e-12,1.544e-12,9.338e-13
 ,5.623e-13,3.322e-13,2.013e-13,1.236e-13,7.482e-14,4.764e-14,3.170e-14
 ,2.122e-14,1.453e-14,8.390e-15\PG=C01 [X(H2Kr1O2)]\\@


 IF YOU BELIEVE CERTAIN WORDS, YOU BELIEVE THEIR HIDDEN ARGUMENTS.
 WHEN YOU BELIEVE SOMETHING IS RIGHT OR WRONG, TRUE OR FALSE, 
 YOU BELIEVE THE ASSUMPTIONS IN THE WORDS WHICH EXPRESS THE ARGUMENTS.
 SUCH ASSUMPTIONS ARE OFTEN FULL OF HOLES, BUT REMAIN MOST PRECIOUS 
 TO THE CONVINCED.

                 -- THE OPEN-ENDED PROOF FROM THE PANOPLIA PROPHETICA
                    CHILDREN OF DUNE BY FRANK HERBERT
 Job cpu time:  0 days  3 hours 26 minutes  4.5 seconds.
 File lengths (MBytes):  RWF=     33 Int=      0 D2E=      0 Chk=      8 Scr=      1
 Normal termination of Gaussian 09 at Sun May  3 19:12:23 2020.
