 Entering Gaussian System, Link 0=g09
 Input=/home/matheus/.tcc/Inputs-wb97xd/H2O2-Kr_6.com
 Output=/home/matheus/.tcc/Logs-wb97xd/H2O2-Kr_6.log
 Initial command:
 /home/matheus/.gaussian/g09/l1.exe /home/matheus/.gaussian/g09/scratch/Gau-8734.inp -scrdir=/home/matheus/.gaussian/g09/scratch/
 Entering Link 1 = /home/matheus/.gaussian/g09/l1.exe PID=      8737.
  
 Copyright (c) 1988,1990,1992,1993,1995,1998,2003,2009,2011,
            Gaussian, Inc.  All Rights Reserved.
  
 This is part of the Gaussian(R) 09 program.  It is based on
 the Gaussian(R) 03 system (copyright 2003, Gaussian, Inc.),
 the Gaussian(R) 98 system (copyright 1998, Gaussian, Inc.),
 the Gaussian(R) 94 system (copyright 1995, Gaussian, Inc.),
 the Gaussian 92(TM) system (copyright 1992, Gaussian, Inc.),
 the Gaussian 90(TM) system (copyright 1990, Gaussian, Inc.),
 the Gaussian 88(TM) system (copyright 1988, Gaussian, Inc.),
 the Gaussian 86(TM) system (copyright 1986, Carnegie Mellon
 University), and the Gaussian 82(TM) system (copyright 1983,
 Carnegie Mellon University). Gaussian is a federally registered
 trademark of Gaussian, Inc.
  
 This software contains proprietary and confidential information,
 including trade secrets, belonging to Gaussian, Inc.
  
 This software is provided under written license and may be
 used, copied, transmitted, or stored only in accord with that
 written license.
  
 The following legend is applicable only to US Government
 contracts under FAR:
  
                    RESTRICTED RIGHTS LEGEND
  
 Use, reproduction and disclosure by the US Government is
 subject to restrictions as set forth in subparagraphs (a)
 and (c) of the Commercial Computer Software - Restricted
 Rights clause in FAR 52.227-19.
  
 Gaussian, Inc.
 340 Quinnipiac St., Bldg. 40, Wallingford CT 06492
  
  
 ---------------------------------------------------------------
 Warning -- This program may not be used in any manner that
 competes with the business of Gaussian, Inc. or will provide
 assistance to any competitor of Gaussian, Inc.  The licensee
 of this program is prohibited from giving any competitor of
 Gaussian, Inc. access to this program.  By using this program,
 the user acknowledges that Gaussian, Inc. is engaged in the
 business of creating and licensing software in the field of
 computational chemistry and represents and warrants to the
 licensee that it is not a competitor of Gaussian, Inc. and that
 it will not use this program in any manner prohibited above.
 ---------------------------------------------------------------
  

 Cite this work as:
 Gaussian 09, Revision C.01,
 M. J. Frisch, G. W. Trucks, H. B. Schlegel, G. E. Scuseria, 
 M. A. Robb, J. R. Cheeseman, G. Scalmani, V. Barone, B. Mennucci, 
 G. A. Petersson, H. Nakatsuji, M. Caricato, X. Li, H. P. Hratchian, 
 A. F. Izmaylov, J. Bloino, G. Zheng, J. L. Sonnenberg, M. Hada, 
 M. Ehara, K. Toyota, R. Fukuda, J. Hasegawa, M. Ishida, T. Nakajima, 
 Y. Honda, O. Kitao, H. Nakai, T. Vreven, J. A. Montgomery, Jr., 
 J. E. Peralta, F. Ogliaro, M. Bearpark, J. J. Heyd, E. Brothers, 
 K. N. Kudin, V. N. Staroverov, T. Keith, R. Kobayashi, J. Normand, 
 K. Raghavachari, A. Rendell, J. C. Burant, S. S. Iyengar, J. Tomasi, 
 M. Cossi, N. Rega, J. M. Millam, M. Klene, J. E. Knox, J. B. Cross, 
 V. Bakken, C. Adamo, J. Jaramillo, R. Gomperts, R. E. Stratmann, 
 O. Yazyev, A. J. Austin, R. Cammi, C. Pomelli, J. W. Ochterski, 
 R. L. Martin, K. Morokuma, V. G. Zakrzewski, G. A. Voth, 
 P. Salvador, J. J. Dannenberg, S. Dapprich, A. D. Daniels, 
 O. Farkas, J. B. Foresman, J. V. Ortiz, J. Cioslowski, 
 and D. J. Fox, Gaussian, Inc., Wallingford CT, 2010.
 
 ******************************************
 Gaussian 09:  EM64L-G09RevC.01 23-Sep-2011
                 3-May-2020 
 ******************************************
 %mem=8GB
 %nproc=8
 Will use up to    8 processors via shared memory.
 ----------------------------------------------------------------------
 #p wb97xd/aug-cc-PVTz iop(3/107=0250000000) iop(3/108=0250000000) int=
 ultrafine counterpoise=2 Scan
 ----------------------------------------------------------------------
 1/38=1,60=1,62=2/1,8;
 2/12=2,17=6,18=5,29=3,40=1/2;
 1/38=1,53=5172,62=2/22;
 3/5=16,6=1,7=10,11=2,16=1,25=1,30=1,74=-58,75=-5,107=250000000,108=250000000/1,2,3;
 4//1;
 5/5=2,38=5/2;
 6/7=2,8=2,9=2,10=2,18=1,28=1/1;
 1/53=4052,62=2,63=1/22;
 3/5=7,6=11,7=10,11=2,16=1,25=1,30=1,74=-58,75=-5,82=7,107=250000000,108=250000000/1,2,3;
 4//1;
 5/5=2,38=5/2;
 6/7=2,8=2,9=2,10=2,18=1,28=1/1;
 1/53=3042,62=2,63=2/22;
 3/5=7,6=11,7=10,11=2,16=1,25=1,30=1,74=-58,75=-5,82=7,107=250000000,108=250000000/1,2,3;
 4//1;
 5/5=2,38=5/2;
 6/7=2,8=2,9=2,10=2,18=1,28=1/1;
 1/53=2032,62=2,63=3/22;
 3/5=7,6=11,7=10,11=2,16=1,25=1,30=1,74=-58,75=-5,82=7,107=250000000,108=250000000/1,2,3;
 4//1;
 5/5=2,38=5/2;
 6/7=2,8=2,9=2,10=2,18=1,28=1/1;
 1/53=1022,62=2,63=4/22;
 3/5=7,6=11,7=10,11=2,16=1,25=1,30=1,74=-58,75=-5,82=7,107=250000000,108=250000000/1,2,3;
 4//1;
 5/5=2,38=5/2;
 6/7=2,8=2,9=2,10=2,18=1,28=1/1;
 1/53=5014,62=2,63=5/22;
 1/60=1,62=2/8(1);
 99/9=1/99;
 2/29=3/2;
 1/53=5173,62=2/22;
 3/5=7,6=11,7=10,11=2,16=1,25=1,30=1,74=-58,75=-5,82=7,107=250000000,108=250000000/1,2,3;
 4/5=5,16=3/1;
 5/5=2,38=5/2;
 1/53=4053,62=2,63=1/22;
 3/5=7,6=11,7=10,11=2,16=1,25=1,30=1,74=-58,75=-5,82=7,107=250000000,108=250000000/1,2,3;
 4/5=5,16=3/1;
 5/5=2,38=5/2;
 1/53=3043,62=2,63=2/22;
 3/5=7,6=11,7=10,11=2,16=1,25=1,30=1,74=-58,75=-5,82=7,107=250000000,108=250000000/1,2,3;
 4/5=5,16=3/1;
 5/5=2,38=5/2;
 1/53=2033,62=2,63=3/22;
 3/5=7,6=11,7=10,11=2,16=1,25=1,30=1,74=-58,75=-5,82=7,107=250000000,108=250000000/1,2,3;
 4/5=5,16=3/1;
 5/5=2,38=5/2;
 1/53=1024,62=2,63=4/22;
 3/5=7,6=11,7=10,11=2,16=1,25=1,30=1,74=-58,75=-5,82=7,107=250000000,108=250000000/1,2,3;
 4/5=5,16=3/1;
 5/5=2,38=5/2;
 1/53=5014,62=2,63=5/22;
 1/60=1,62=2/8(-22);
 99/9=1/99;
 Leave Link    1 at Sun May  3 11:43:22 2020, MaxMem= 1073741824 cpu:       0.1
 (Enter /home/matheus/.gaussian/g09/l101.exe)
 ---
 TCC
 ---
 Charge =  0 Multiplicity = 1 in supermolecule
 Charge =  0 Multiplicity = 1 in fragment  1.
 Charge =  0 Multiplicity = 1 in fragment  2.
 Symbolic Z-Matrix:
 O(Fragment=1)         0.        0.        0.725 
 O(Fragment=1)         0.        0.       -0.725 
 H(Fragment=1)         0.79564   0.45936   1.02351 
 H(Fragment=1)         0.        0.91872  -1.02351 
 Kr(Fragment=2)        0.       R1        0. 
       Variables:
  R1                    3.     Scan 20    0.1    
 
 NAtoms=      5 NQM=        0 NQMF=       0 NMMI=      5 NMMIF=      0
                NMic=       0 NMicF=      0.
                    Isotopes and Nuclear Properties:
 (Nuclear quadrupole moments (NQMom) in fm**2, nuclear magnetic moments (NMagM)
  in nuclear magnetons)

  Atom         1           2           3           4           5
 IAtWgt=          16          16           1           1          84
 AtmWgt=  15.9949146  15.9949146   1.0078250   1.0078250  83.9115064
 NucSpn=           0           0           1           1           0
 AtZEff=   0.0000000   0.0000000   0.0000000   0.0000000   0.0000000
 NQMom=    0.0000000   0.0000000   0.0000000   0.0000000   0.0000000
 NMagM=    0.0000000   0.0000000   2.7928460   2.7928460   0.0000000
 Leave Link  101 at Sun May  3 11:43:22 2020, MaxMem= 1073741824 cpu:       0.3
 (Enter /home/matheus/.gaussian/g09/l108.exe)
 Scan the potential surface.
 Variable   Value     No. Steps Step-Size
 -------- ----------- --------- ---------
     1       3.000000      20      0.1000
 A total of     21 points will be computed.
 Leave Link  108 at Sun May  3 11:43:22 2020, MaxMem= 1073741824 cpu:       0.0
 (Enter /home/matheus/.gaussian/g09/l202.exe)
 ---------------------------------------------------------------------------------------------------
                            Z-MATRIX (ANGSTROMS AND DEGREES)
   CD    Cent   Atom    N1       Length/X        N2       Alpha/Y        N3        Beta/Z          J
 ---------------------------------------------------------------------------------------------------
      1      1  O        0   0.000000          0.000000          0.725000
      2      2  O        0   0.000000          0.000000         -0.725000
      3      3  H        0   0.795635          0.459360          1.023510
      4      4  H        0   0.000000          0.918721         -1.023510
      5      5  Kr       0   0.000000          3.000000          0.000000
 ---------------------------------------------------------------------------------------------------
                         Z-Matrix orientation:                         
 ---------------------------------------------------------------------
 Center     Atomic      Atomic             Coordinates (Angstroms)
 Number     Number       Type             X           Y           Z
 ---------------------------------------------------------------------
      1          8           0        0.000000    0.000000    0.725000
      2          8           0        0.000000    0.000000   -0.725000
      3          1           0        0.795635    0.459360    1.023510
      4          1           0        0.000000    0.918721   -1.023510
      5         36           0        0.000000    3.000000    0.000000
 ---------------------------------------------------------------------
                    Distance matrix (angstroms):
                    1          2          3          4          5
     1  O    0.000000
     2  O    1.450000   0.000000
     3  H    0.966000   1.975180   0.000000
     4  H    1.975180   0.966000   2.243734   0.000000
     5  Kr   3.086361   3.086361   2.852273   2.319331   0.000000
 Stoichiometry    H2KrO2
 Framework group  C1[X(H2KrO2)]
 Deg. of freedom     9
 Full point group                 C1      NOp   1
 Largest Abelian subgroup         C1      NOp   1
 Largest concise Abelian subgroup C1      NOp   1
                         Standard orientation:                         
 ---------------------------------------------------------------------
 Center     Atomic      Atomic             Coordinates (Angstroms)
 Number     Number       Type             X           Y           Z
 ---------------------------------------------------------------------
      1          8           0        2.028906   -0.709015   -0.097019
      2          8           0        2.021423    0.736213    0.020285
      3          1           0        1.580792   -1.073669    0.677176
      4          1           0        1.101242    1.028113    0.055175
      5         36           0       -0.974574   -0.004779   -0.003291
 ---------------------------------------------------------------------
 Rotational constants (GHZ):     25.8520084      2.3670759      2.1795084
 Leave Link  202 at Sun May  3 11:43:22 2020, MaxMem= 1073741824 cpu:       0.0
 (Enter /home/matheus/.gaussian/g09/l122.exe)
 Leave Link  122 at Sun May  3 11:43:22 2020, MaxMem= 1073741824 cpu:       0.0
 (Enter /home/matheus/.gaussian/g09/l301.exe)
 Standard basis: Aug-CC-pVTZ (5D, 7F)
 Ernie: Thresh=  0.10000D-02 Tol=  0.10000D-05 Strict=F.
 Ernie:  38 primitive shells out of 205 were deleted.
 There are   197 symmetry adapted basis functions of A   symmetry.
 Integral buffers will be    131072 words long.
 Raffenetti 2 integral format.
 Two-electron integral symmetry is turned on.
   197 basis functions,   415 primitive gaussians,   229 cartesian basis functions
    27 alpha electrons       27 beta electrons
       nuclear repulsion energy       150.2958872335 Hartrees.
 IExCor= 4639 DFT=T Ex+Corr=wB97XD ExCW=0 ScaHFX=  1.000000
 ScaDFX=  1.000000  1.000000  1.000000  1.000000 ScalE2=  1.000000  1.000000
 IRadAn=      5 IRanWt=     -1 IRanGd=            0 ICorTp=0
  HFx wShort=  0.000000 wLong=  0.250000 cFull=  0.222036 cShort=  0.000000 cLong=  0.777964
  DFx wShort=  0.000000 wLong=  0.250000 cFull=  0.000000 cShort=  0.000000 cLong=  1.000000
 NAtoms=    5 NActive=    5 NUniq=    5 SFac= 1.00D+00 NAtFMM=   60 NAOKFM=F Big=F
 R6Disp: Dispersion energy =        -0.0009174342 Hartrees.
 Nuclear repulsion after empirical dispersion term =      150.2949697994 Hartrees.
 Leave Link  301 at Sun May  3 11:43:22 2020, MaxMem= 1073741824 cpu:       0.2
 (Enter /home/matheus/.gaussian/g09/l302.exe)
 NPDir=0 NMtPBC=     1 NCelOv=     1 NCel=       1 NClECP=     1 NCelD=      1
         NCelK=      1 NCelE2=     1 NClLst=     1 CellRange=     0.0.
 One-electron integrals computed using PRISM.
 NBasis=   197 RedAO= T  NBF=   197
 NBsUse=   197 1.00D-06 NBFU=   197
 Precomputing XC quadrature grid using
 IXCGrd= 2 IRadAn=           5 IRanWt=          -1 IRanGd=           0 AccXCQ= 0.00D+00.
 NRdTot=     427 NPtTot=      123512 NUsed=      126579 NTot=      126611
 NSgBfM=   229   229   229   229   229 NAtAll=     5     5.
 Leave Link  302 at Sun May  3 11:43:22 2020, MaxMem= 1073741824 cpu:       1.0
 (Enter /home/matheus/.gaussian/g09/l303.exe)
 DipDrv:  MaxL=1.
 Leave Link  303 at Sun May  3 11:43:22 2020, MaxMem= 1073741824 cpu:       0.2
 (Enter /home/matheus/.gaussian/g09/l401.exe)
 Harris functional with IExCor= 4639 diagonalized for initial guess.
 ExpMin= 2.53D-02 ExpMax= 1.17D+07 ExpMxC= 1.33D+04 IAcc=3 IRadAn=         5 AccDes= 0.00D+00
 HarFok:  IExCor= 4639 AccDes= 0.00D+00 IRadAn=         5 IDoV= 1
 ScaDFX=  1.000000  1.000000  1.000000  1.000000
 FoFCou: FMM=F IPFlag=           0 FMFlag=      100000 FMFlg1=           0
         NFxFlg=           0 DoJE=T BraDBF=F KetDBF=T FulRan=T
         Omega=  0.000000  0.000000  1.000000  0.000000  0.000000 ICntrl=     500 IOpCl=  0
         NMat0=    1 NMatS0=    1 NMatT0=    0 NMatD0=    1 NMtDS0=    0 NMtDT0=    0
         I1Cent=           4 NGrid=           0.
 Petite list used in FoFCou.
 Harris En= -2875.39510699427    
 Initial guess orbital symmetries:
       Occupied  (A) (A) (A) (A) (A) (A) (A) (A) (A) (A) (A) (A)
                 (A) (A) (A) (A) (A) (A) (A) (A) (A) (A) (A) (A)
                 (A) (A) (A)
       Virtual   (A) (A) (A) (A) (A) (A) (A) (A) (A) (A) (A) (A)
                 (A) (A) (A) (A) (A) (A) (A) (A) (A) (A) (A) (A)
                 (A) (A) (A) (A) (A) (A) (A) (A) (A) (A) (A) (A)
                 (A) (A) (A) (A) (A) (A) (A) (A) (A) (A) (A) (A)
                 (A) (A) (A) (A) (A) (A) (A) (A) (A) (A) (A) (A)
                 (A) (A) (A) (A) (A) (A) (A) (A) (A) (A) (A) (A)
                 (A) (A) (A) (A) (A) (A) (A) (A) (A) (A) (A) (A)
                 (A) (A) (A) (A) (A) (A) (A) (A) (A) (A) (A) (A)
                 (A) (A) (A) (A) (A) (A) (A) (A) (A) (A) (A) (A)
                 (A) (A) (A) (A) (A) (A) (A) (A) (A) (A) (A) (A)
                 (A) (A) (A) (A) (A) (A) (A) (A) (A) (A) (A) (A)
                 (A) (A) (A) (A) (A) (A) (A) (A) (A) (A) (A) (A)
                 (A) (A) (A) (A) (A) (A) (A) (A) (A) (A) (A) (A)
                 (A) (A) (A) (A) (A) (A) (A) (A) (A) (A) (A) (A)
                 (A) (A)
 The electronic state of the initial guess is 1-A.
 Leave Link  401 at Sun May  3 11:43:23 2020, MaxMem= 1073741824 cpu:       3.9
 (Enter /home/matheus/.gaussian/g09/l502.exe)
 Closed shell SCF:
 Requested convergence on RMS density matrix=1.00D-08 within 128 cycles.
 Requested convergence on MAX density matrix=1.00D-06.
 Requested convergence on             energy=1.00D-06.
 No special actions if energy rises.
 Using DIIS extrapolation, IDIIS=  1040.
 Integral symmetry usage will be decided dynamically.
       126521 words used for storage of precomputed grid.
 IEnd=      305468 IEndB=      305468 NGot=  1073741824 MDV=  1073505667
 LenX=  1073505667 LenY=  1073452785
 Fock matrices will be formed incrementally for  20 cycles.

 Cycle   1  Pass 1  IDiag  1:
 FoFJK:  IHMeth= 1 ICntrl=     0 DoSepK=T KAlg= 1 I1Cent= 0 FoldK=F
 FoFCou: FMM=F IPFlag=           0 FMFlag=      100000 FMFlg1=           0
         NFxFlg=           0 DoJE=T BraDBF=F KetDBF=F FulRan=T
         Omega=  0.000000  0.000000  1.000000  0.000000  0.000000 ICntrl=     500 IOpCl=  0
         NMat0=    1 NMatS0=    1 NMatT0=    0 NMatD0=    1 NMtDS0=    0 NMtDT0=    0
         I1Cent=           0 NGrid=           0.
 Symmetry not used in FoFCou.
 E= -2904.89882162876    
 DIIS: error= 7.33D-02 at cycle   1 NSaved=   1.
 NSaved= 1 IEnMin= 1 EnMin= -2904.89882162876     IErMin= 1 ErrMin= 7.33D-02
 ErrMax= 7.33D-02 EMaxC= 1.00D-01 BMatC= 2.22D+00 BMatP= 2.22D+00
 IDIUse=3 WtCom= 2.67D-01 WtEn= 7.33D-01
 Coeff-Com:  0.100D+01
 Coeff-En:   0.100D+01
 Coeff:      0.100D+01
 Gap=     0.543 Goal=   None    Shift=    0.000
 GapD=    0.543 DampG=2.000 DampE=0.500 DampFc=1.0000 IDamp=-1.
 RMSDP=6.17D-03 MaxDP=3.70D-01              OVMax= 1.82D-01

 Cycle   2  Pass 1  IDiag  1:
 RMSU=  4.33D-03    CP:  1.03D+00
 FoFJK:  IHMeth= 1 ICntrl=     0 DoSepK=T KAlg= 1 I1Cent= 0 FoldK=F
 E= -2905.22223020332     Delta-E=       -0.323408574558 Rises=F Damp=F
 DIIS: error= 3.08D-02 at cycle   2 NSaved=   2.
 NSaved= 2 IEnMin= 2 EnMin= -2905.22223020332     IErMin= 2 ErrMin= 3.08D-02
 ErrMax= 3.08D-02 EMaxC= 1.00D-01 BMatC= 5.64D-01 BMatP= 2.22D+00
 IDIUse=3 WtCom= 6.92D-01 WtEn= 3.08D-01
 Coeff-Com:  0.327D+00 0.673D+00
 Coeff-En:   0.194D+00 0.806D+00
 Coeff:      0.286D+00 0.714D+00
 Gap=     0.490 Goal=   None    Shift=    0.000
 RMSDP=2.69D-03 MaxDP=1.58D-01 DE=-3.23D-01 OVMax= 7.41D-02

 Cycle   3  Pass 1  IDiag  1:
 RMSU=  5.67D-04    CP:  1.02D+00  5.83D-01
 FoFJK:  IHMeth= 1 ICntrl=     0 DoSepK=T KAlg= 1 I1Cent= 0 FoldK=F
 E= -2905.41519436140     Delta-E=       -0.192964158079 Rises=F Damp=F
 DIIS: error= 5.33D-03 at cycle   3 NSaved=   3.
 NSaved= 3 IEnMin= 3 EnMin= -2905.41519436140     IErMin= 3 ErrMin= 5.33D-03
 ErrMax= 5.33D-03 EMaxC= 1.00D-01 BMatC= 1.84D-02 BMatP= 5.64D-01
 IDIUse=3 WtCom= 9.47D-01 WtEn= 5.33D-02
 Coeff-Com:  0.335D-01 0.188D+00 0.778D+00
 Coeff-En:   0.000D+00 0.000D+00 0.100D+01
 Coeff:      0.317D-01 0.178D+00 0.790D+00
 Gap=     0.439 Goal=   None    Shift=    0.000
 RMSDP=4.85D-04 MaxDP=1.83D-02 DE=-1.93D-01 OVMax= 2.60D-02

 Cycle   4  Pass 1  IDiag  1:
 RMSU=  2.33D-04    CP:  1.02D+00  6.39D-01  9.12D-01
 FoFJK:  IHMeth= 1 ICntrl=     0 DoSepK=T KAlg= 1 I1Cent= 0 FoldK=F
 E= -2905.42354430448     Delta-E=       -0.008349943089 Rises=F Damp=F
 DIIS: error= 2.20D-03 at cycle   4 NSaved=   4.
 NSaved= 4 IEnMin= 4 EnMin= -2905.42354430448     IErMin= 4 ErrMin= 2.20D-03
 ErrMax= 2.20D-03 EMaxC= 1.00D-01 BMatC= 1.77D-03 BMatP= 1.84D-02
 IDIUse=3 WtCom= 9.78D-01 WtEn= 2.20D-02
 Coeff-Com: -0.256D-02 0.486D-01 0.369D+00 0.585D+00
 Coeff-En:   0.000D+00 0.000D+00 0.000D+00 0.100D+01
 Coeff:     -0.250D-02 0.475D-01 0.361D+00 0.594D+00
 Gap=     0.424 Goal=   None    Shift=    0.000
 RMSDP=1.23D-04 MaxDP=6.70D-03 DE=-8.35D-03 OVMax= 6.65D-03

 Cycle   5  Pass 1  IDiag  1:
 RMSU=  4.04D-05    CP:  1.02D+00  6.37D-01  9.54D-01  6.93D-01
 FoFJK:  IHMeth= 1 ICntrl=     0 DoSepK=T KAlg= 1 I1Cent= 0 FoldK=F
 E= -2905.42461974761     Delta-E=       -0.001075443124 Rises=F Damp=F
 DIIS: error= 1.81D-04 at cycle   5 NSaved=   5.
 NSaved= 5 IEnMin= 5 EnMin= -2905.42461974761     IErMin= 5 ErrMin= 1.81D-04
 ErrMax= 1.81D-04 EMaxC= 1.00D-01 BMatC= 1.47D-05 BMatP= 1.77D-03
 IDIUse=3 WtCom= 9.98D-01 WtEn= 1.81D-03
 Coeff-Com: -0.120D-02 0.524D-02 0.593D-01 0.113D+00 0.823D+00
 Coeff-En:   0.000D+00 0.000D+00 0.000D+00 0.000D+00 0.100D+01
 Coeff:     -0.120D-02 0.523D-02 0.592D-01 0.113D+00 0.824D+00
 Gap=     0.423 Goal=   None    Shift=    0.000
 RMSDP=2.21D-05 MaxDP=9.39D-04 DE=-1.08D-03 OVMax= 1.32D-03

 Cycle   6  Pass 1  IDiag  1:
 RMSU=  1.26D-05    CP:  1.02D+00  6.37D-01  9.65D-01  7.09D-01  1.15D+00
 FoFJK:  IHMeth= 1 ICntrl=     0 DoSepK=T KAlg= 1 I1Cent= 0 FoldK=F
 E= -2905.42462699710     Delta-E=       -0.000007249494 Rises=F Damp=F
 DIIS: error= 1.59D-04 at cycle   6 NSaved=   6.
 NSaved= 6 IEnMin= 6 EnMin= -2905.42462699710     IErMin= 6 ErrMin= 1.59D-04
 ErrMax= 1.59D-04 EMaxC= 1.00D-01 BMatC= 1.01D-05 BMatP= 1.47D-05
 IDIUse=3 WtCom= 9.98D-01 WtEn= 1.59D-03
 Coeff-Com: -0.267D-03-0.578D-02-0.309D-01-0.409D-01 0.480D+00 0.598D+00
 Coeff-En:   0.000D+00 0.000D+00 0.000D+00 0.000D+00 0.238D+00 0.762D+00
 Coeff:     -0.266D-03-0.577D-02-0.308D-01-0.409D-01 0.479D+00 0.598D+00
 Gap=     0.423 Goal=   None    Shift=    0.000
 RMSDP=1.08D-05 MaxDP=4.33D-04 DE=-7.25D-06 OVMax= 7.35D-04

 Cycle   7  Pass 1  IDiag  1:
 RMSU=  3.64D-06    CP:  1.02D+00  6.37D-01  9.70D-01  7.15D-01  1.27D+00
                    CP:  7.38D-01
 FoFJK:  IHMeth= 1 ICntrl=     0 DoSepK=T KAlg= 1 I1Cent= 0 FoldK=F
 E= -2905.42463407035     Delta-E=       -0.000007073248 Rises=F Damp=F
 DIIS: error= 2.32D-05 at cycle   7 NSaved=   7.
 NSaved= 7 IEnMin= 7 EnMin= -2905.42463407035     IErMin= 7 ErrMin= 2.32D-05
 ErrMax= 2.32D-05 EMaxC= 1.00D-01 BMatC= 1.24D-07 BMatP= 1.01D-05
 IDIUse=1 WtCom= 1.00D+00 WtEn= 0.00D+00
 Coeff-Com:  0.230D-04-0.138D-02-0.931D-02-0.138D-01 0.128D-01 0.988D-01
 Coeff-Com:  0.913D+00
 Coeff:      0.230D-04-0.138D-02-0.931D-02-0.138D-01 0.128D-01 0.988D-01
 Coeff:      0.913D+00
 Gap=     0.423 Goal=   None    Shift=    0.000
 RMSDP=2.60D-06 MaxDP=7.77D-05 DE=-7.07D-06 OVMax= 2.05D-04

 Cycle   8  Pass 1  IDiag  1:
 RMSU=  8.69D-07    CP:  1.02D+00  6.37D-01  9.71D-01  7.16D-01  1.29D+00
                    CP:  8.03D-01  1.18D+00
 FoFJK:  IHMeth= 1 ICntrl=     0 DoSepK=T KAlg= 1 I1Cent= 0 FoldK=F
 E= -2905.42463426854     Delta-E=       -0.000000198188 Rises=F Damp=F
 DIIS: error= 5.43D-06 at cycle   8 NSaved=   8.
 NSaved= 8 IEnMin= 8 EnMin= -2905.42463426854     IErMin= 8 ErrMin= 5.43D-06
 ErrMax= 5.43D-06 EMaxC= 1.00D-01 BMatC= 5.92D-09 BMatP= 1.24D-07
 IDIUse=1 WtCom= 1.00D+00 WtEn= 0.00D+00
 Coeff-Com:  0.181D-04 0.247D-03 0.119D-02 0.127D-02-0.290D-01-0.297D-01
 Coeff-Com:  0.341D-01 0.102D+01
 Coeff:      0.181D-04 0.247D-03 0.119D-02 0.127D-02-0.290D-01-0.297D-01
 Coeff:      0.341D-01 0.102D+01
 Gap=     0.423 Goal=   None    Shift=    0.000
 RMSDP=8.21D-07 MaxDP=2.03D-05 DE=-1.98D-07 OVMax= 8.51D-05

 Cycle   9  Pass 1  IDiag  1:
 RMSU=  2.75D-07    CP:  1.02D+00  6.37D-01  9.71D-01  7.16D-01  1.30D+00
                    CP:  8.16D-01  1.26D+00  1.31D+00
 FoFJK:  IHMeth= 1 ICntrl=     0 DoSepK=T KAlg= 1 I1Cent= 0 FoldK=F
 E= -2905.42463428525     Delta-E=       -0.000000016709 Rises=F Damp=F
 DIIS: error= 1.89D-06 at cycle   9 NSaved=   9.
 NSaved= 9 IEnMin= 9 EnMin= -2905.42463428525     IErMin= 9 ErrMin= 1.89D-06
 ErrMax= 1.89D-06 EMaxC= 1.00D-01 BMatC= 5.19D-10 BMatP= 5.92D-09
 IDIUse=1 WtCom= 1.00D+00 WtEn= 0.00D+00
 Coeff-Com: -0.173D-05 0.881D-04 0.601D-03 0.675D-03-0.214D-03-0.431D-02
 Coeff-Com: -0.537D-01-0.677D-01 0.112D+01
 Coeff:     -0.173D-05 0.881D-04 0.601D-03 0.675D-03-0.214D-03-0.431D-02
 Coeff:     -0.537D-01-0.677D-01 0.112D+01
 Gap=     0.423 Goal=   None    Shift=    0.000
 RMSDP=2.81D-07 MaxDP=7.74D-06 DE=-1.67D-08 OVMax= 3.45D-05

 Cycle  10  Pass 1  IDiag  1:
 RMSU=  8.63D-08    CP:  1.02D+00  6.37D-01  9.71D-01  7.16D-01  1.30D+00
                    CP:  8.18D-01  1.27D+00  1.43D+00  1.38D+00
 FoFJK:  IHMeth= 1 ICntrl=     0 DoSepK=T KAlg= 1 I1Cent= 0 FoldK=F
 E= -2905.42463428699     Delta-E=       -0.000000001742 Rises=F Damp=F
 DIIS: error= 4.26D-07 at cycle  10 NSaved=  10.
 NSaved=10 IEnMin=10 EnMin= -2905.42463428699     IErMin=10 ErrMin= 4.26D-07
 ErrMax= 4.26D-07 EMaxC= 1.00D-01 BMatC= 5.49D-11 BMatP= 5.19D-10
 IDIUse=1 WtCom= 1.00D+00 WtEn= 0.00D+00
 Coeff-Com: -0.107D-05-0.127D-04-0.588D-04-0.646D-04 0.249D-02 0.263D-02
 Coeff-Com: -0.272D-02-0.116D+00 0.135D+00 0.978D+00
 Coeff:     -0.107D-05-0.127D-04-0.588D-04-0.646D-04 0.249D-02 0.263D-02
 Coeff:     -0.272D-02-0.116D+00 0.135D+00 0.978D+00
 Gap=     0.423 Goal=   None    Shift=    0.000
 RMSDP=8.06D-08 MaxDP=1.60D-06 DE=-1.74D-09 OVMax= 1.06D-05

 Cycle  11  Pass 1  IDiag  1:
 RMSU=  2.16D-08    CP:  1.02D+00  6.37D-01  9.71D-01  7.16D-01  1.30D+00
                    CP:  8.18D-01  1.27D+00  1.45D+00  1.53D+00  1.26D+00
 FoFJK:  IHMeth= 1 ICntrl=     0 DoSepK=T KAlg= 1 I1Cent= 0 FoldK=F
 E= -2905.42463428715     Delta-E=       -0.000000000160 Rises=F Damp=F
 DIIS: error= 1.33D-07 at cycle  11 NSaved=  11.
 NSaved=11 IEnMin=11 EnMin= -2905.42463428715     IErMin=11 ErrMin= 1.33D-07
 ErrMax= 1.33D-07 EMaxC= 1.00D-01 BMatC= 4.40D-12 BMatP= 5.49D-11
 IDIUse=1 WtCom= 1.00D+00 WtEn= 0.00D+00
 Coeff-Com:  0.464D-06-0.567D-05-0.469D-04-0.313D-04-0.346D-03 0.411D-04
 Coeff-Com:  0.619D-02 0.125D-01-0.105D+00-0.115D+00 0.120D+01
 Coeff:      0.464D-06-0.567D-05-0.469D-04-0.313D-04-0.346D-03 0.411D-04
 Coeff:      0.619D-02 0.125D-01-0.105D+00-0.115D+00 0.120D+01
 Gap=     0.423 Goal=   None    Shift=    0.000
 RMSDP=2.78D-08 MaxDP=5.41D-07 DE=-1.60D-10 OVMax= 3.82D-06

 Cycle  12  Pass 1  IDiag  1:
 RMSU=  5.84D-09    CP:  1.02D+00  6.37D-01  9.71D-01  7.16D-01  1.30D+00
                    CP:  8.18D-01  1.27D+00  1.45D+00  1.57D+00  1.41D+00
                    CP:  1.34D+00
 FoFJK:  IHMeth= 1 ICntrl=     0 DoSepK=T KAlg= 1 I1Cent= 0 FoldK=F
 E= -2905.42463428717     Delta-E=       -0.000000000021 Rises=F Damp=F
 DIIS: error= 3.55D-08 at cycle  12 NSaved=  12.
 NSaved=12 IEnMin=12 EnMin= -2905.42463428717     IErMin=12 ErrMin= 3.55D-08
 ErrMax= 3.55D-08 EMaxC= 1.00D-01 BMatC= 1.79D-13 BMatP= 4.40D-12
 IDIUse=1 WtCom= 1.00D+00 WtEn= 0.00D+00
 Coeff-Com: -0.403D-07 0.670D-06 0.571D-05-0.209D-05-0.893D-04-0.113D-03
 Coeff-Com: -0.253D-03 0.408D-02 0.618D-02-0.299D-01-0.165D+00 0.119D+01
 Coeff:     -0.403D-07 0.670D-06 0.571D-05-0.209D-05-0.893D-04-0.113D-03
 Coeff:     -0.253D-03 0.408D-02 0.618D-02-0.299D-01-0.165D+00 0.119D+01
 Gap=     0.423 Goal=   None    Shift=    0.000
 RMSDP=5.57D-09 MaxDP=1.78D-07 DE=-2.14D-11 OVMax= 6.65D-07

 SCF Done:  E(RwB97XD) =  -2905.42463429     A.U. after   12 cycles
             Convg  =    0.5570D-08             -V/T =  2.0015
 KE= 2.900951111920D+03 PE=-7.238392509281D+03 EE= 1.281721793275D+03
 Leave Link  502 at Sun May  3 11:43:59 2020, MaxMem= 1073741824 cpu:     291.9
 (Enter /home/matheus/.gaussian/g09/l601.exe)
 Copying SCF densities to generalized density rwf, IOpCl= 0 IROHF=0.

 **********************************************************************

            Population analysis using the SCF density.

 **********************************************************************

 Orbital symmetries:
       Occupied  (A) (A) (A) (A) (A) (A) (A) (A) (A) (A) (A) (A)
                 (A) (A) (A) (A) (A) (A) (A) (A) (A) (A) (A) (A)
                 (A) (A) (A)
       Virtual   (A) (A) (A) (A) (A) (A) (A) (A) (A) (A) (A) (A)
                 (A) (A) (A) (A) (A) (A) (A) (A) (A) (A) (A) (A)
                 (A) (A) (A) (A) (A) (A) (A) (A) (A) (A) (A) (A)
                 (A) (A) (A) (A) (A) (A) (A) (A) (A) (A) (A) (A)
                 (A) (A) (A) (A) (A) (A) (A) (A) (A) (A) (A) (A)
                 (A) (A) (A) (A) (A) (A) (A) (A) (A) (A) (A) (A)
                 (A) (A) (A) (A) (A) (A) (A) (A) (A) (A) (A) (A)
                 (A) (A) (A) (A) (A) (A) (A) (A) (A) (A) (A) (A)
                 (A) (A) (A) (A) (A) (A) (A) (A) (A) (A) (A) (A)
                 (A) (A) (A) (A) (A) (A) (A) (A) (A) (A) (A) (A)
                 (A) (A) (A) (A) (A) (A) (A) (A) (A) (A) (A) (A)
                 (A) (A) (A) (A) (A) (A) (A) (A) (A) (A) (A) (A)
                 (A) (A) (A) (A) (A) (A) (A) (A) (A) (A) (A) (A)
                 (A) (A) (A) (A) (A) (A) (A) (A) (A) (A) (A) (A)
                 (A) (A)
 The electronic state is 1-A.
 Alpha  occ. eigenvalues -- -513.10445 -67.37269 -60.92148 -60.92138 -60.92130
 Alpha  occ. eigenvalues --  -19.34041 -19.33721  -9.82596  -7.51924  -7.51893
 Alpha  occ. eigenvalues --   -7.51865  -3.38608  -3.38603  -3.38580  -3.38556
 Alpha  occ. eigenvalues --   -3.38552  -1.24690  -1.03543  -1.02964  -0.68260
 Alpha  occ. eigenvalues --   -0.56958  -0.54285  -0.50984  -0.50578  -0.49596
 Alpha  occ. eigenvalues --   -0.44191  -0.38887
 Alpha virt. eigenvalues --    0.03423   0.04395   0.08473   0.09352   0.10112
 Alpha virt. eigenvalues --    0.11836   0.12855   0.14481   0.17322   0.17735
 Alpha virt. eigenvalues --    0.18128   0.19169   0.20255   0.22173   0.23287
 Alpha virt. eigenvalues --    0.24180   0.25035   0.27974   0.30245   0.32257
 Alpha virt. eigenvalues --    0.33801   0.34996   0.36809   0.38430   0.39669
 Alpha virt. eigenvalues --    0.40881   0.42102   0.47032   0.52004   0.53911
 Alpha virt. eigenvalues --    0.55172   0.58756   0.60960   0.63173   0.67150
 Alpha virt. eigenvalues --    0.68928   0.70256   0.72719   0.74458   0.74762
 Alpha virt. eigenvalues --    0.75892   0.76516   0.78173   0.79153   0.82656
 Alpha virt. eigenvalues --    0.83579   0.85751   0.87651   0.88486   0.89883
 Alpha virt. eigenvalues --    0.90534   0.93883   0.95088   0.97000   0.97983
 Alpha virt. eigenvalues --    0.98703   1.01774   1.03982   1.06505   1.09285
 Alpha virt. eigenvalues --    1.09490   1.13604   1.16939   1.21264   1.23459
 Alpha virt. eigenvalues --    1.26475   1.32027   1.36423   1.37688   1.39868
 Alpha virt. eigenvalues --    1.42490   1.46743   1.49244   1.53626   1.58543
 Alpha virt. eigenvalues --    1.66722   1.68306   1.82408   1.90241   1.92041
 Alpha virt. eigenvalues --    1.99667   2.03693   2.06094   2.09042   2.13390
 Alpha virt. eigenvalues --    2.15224   2.16936   2.18504   2.21179   2.24561
 Alpha virt. eigenvalues --    2.26576   2.28434   2.29235   2.30479   2.31926
 Alpha virt. eigenvalues --    2.35821   2.37506   2.43449   2.46518   2.46781
 Alpha virt. eigenvalues --    2.48216   2.50303   2.52474   2.55243   2.56068
 Alpha virt. eigenvalues --    2.58041   2.60775   2.64458   2.68117   2.70729
 Alpha virt. eigenvalues --    2.71630   2.74427   2.80593   2.85157   2.88097
 Alpha virt. eigenvalues --    2.93487   3.00232   3.08589   3.11160   3.59594
 Alpha virt. eigenvalues --    3.68189   3.94254   3.95902   3.98857   4.04764
 Alpha virt. eigenvalues --    4.09489   4.11251   4.23414   4.24177   4.27194
 Alpha virt. eigenvalues --    4.38929   4.46979   4.55138   4.59680   4.70971
 Alpha virt. eigenvalues --    4.94845   4.97993   4.99480   5.09985   5.16364
 Alpha virt. eigenvalues --    5.17062   5.43593   5.84857   6.01361   6.13427
 Alpha virt. eigenvalues --    6.16335   6.27859   6.35345   6.40654   6.51162
 Alpha virt. eigenvalues --    6.63741   6.75192   6.77697   6.82734   6.85139
 Alpha virt. eigenvalues --    6.89732   6.90317   6.93064   6.94308   7.03067
 Alpha virt. eigenvalues --    7.08887   7.15016   7.24339   7.48113   7.50047
 Alpha virt. eigenvalues --    7.83173   8.07196   8.14458  14.10669  14.67119
          Condensed to atoms (all electrons):
              1          2          3          4          5
     1  O    8.218700  -0.186064   0.192824   0.014536  -0.020208
     2  O   -0.186064   8.256479   0.022172   0.182247  -0.019942
     3  H    0.192824   0.022172   0.563534  -0.003739   0.001757
     4  H    0.014536   0.182247  -0.003739   0.572571  -0.006710
     5  Kr  -0.020208  -0.019942   0.001757  -0.006710  36.034969
 Mulliken atomic charges:
              1
     1  O   -0.219788
     2  O   -0.254892
     3  H    0.223451
     4  H    0.241095
     5  Kr   0.010134
 Sum of Mulliken atomic charges =   0.00000
 Mulliken charges with hydrogens summed into heavy atoms:
              1
     1  O    0.003663
     2  O   -0.013797
     5  Kr   0.010134
 Sum of Mulliken charges with hydrogens summed into heavy atoms =   0.00000
          Condensed to fragments (all electrons):
     1      -0.010134
     2       0.010134
 Electronic spatial extent (au):  <R**2>=            479.6548
 Charge=              0.0000 electrons
 Dipole moment (field-independent basis, Debye):
    X=             -2.6320    Y=             -0.2795    Z=              1.2153  Tot=              2.9125
 Quadrupole moment (field-independent basis, Debye-Ang):
   XX=            -37.2591   YY=            -27.9213   ZZ=            -29.3611
   XY=             -1.1487   XZ=              1.9666   YZ=             -1.5779
 Traceless Quadrupole moment (field-independent basis, Debye-Ang):
   XX=             -5.7453   YY=              3.5925   ZZ=              2.1527
   XY=             -1.1487   XZ=              1.9666   YZ=             -1.5779
 Octapole moment (field-independent basis, Debye-Ang**2):
  XXX=            -41.6089  YYY=             -0.7484  ZZZ=              0.6825  XYY=             -6.3700
  XXY=             -3.0328  XXZ=              2.2493  XZZ=             -6.6410  YZZ=             -1.4161
  YYZ=              1.9185  XYZ=             -2.5233
 Hexadecapole moment (field-independent basis, Debye-Ang**3):
 XXXX=           -460.7198 YYYY=            -62.9806 ZZZZ=            -29.7917 XXXY=             -4.7022
 XXXZ=              3.0011 YYYX=             -2.1847 YYYZ=             -2.2908 ZZZX=              1.5068
 ZZZY=             -1.4992 XXYY=            -83.7038 XXZZ=            -73.7968 YYZZ=            -16.2296
 XXYZ=             -4.1114 YYXZ=              3.0336 ZZXY=             -2.2592
 N-N= 1.502949697994D+02 E-N=-7.238392507654D+03  KE= 2.900951111920D+03
 No NMR shielding tensors so no spin-rotation constants.
 Leave Link  601 at Sun May  3 11:43:59 2020, MaxMem= 1073741824 cpu:       0.8
 (Enter /home/matheus/.gaussian/g09/l122.exe)
 Counterpoise: doing DCBS calculation for fragment   1 NewBq=T
 Leave Link  122 at Sun May  3 11:43:59 2020, MaxMem= 1073741824 cpu:       0.0
 (Enter /home/matheus/.gaussian/g09/l301.exe)
 Basis read from rwf:  (5D, 7F)
 No pseudopotential information found on rwf file.
 There are   197 symmetry adapted basis functions of A   symmetry.
 Integral buffers will be    131072 words long.
 Raffenetti 2 integral format.
 Two-electron integral symmetry is turned on.
   197 basis functions,   415 primitive gaussians,   229 cartesian basis functions
     9 alpha electrons        9 beta electrons
       nuclear repulsion energy        36.6440881780 Hartrees.
 IExCor= 4639 DFT=T Ex+Corr=wB97XD ExCW=0 ScaHFX=  1.000000
 ScaDFX=  1.000000  1.000000  1.000000  1.000000 ScalE2=  1.000000  1.000000
 IRadAn=      5 IRanWt=     -1 IRanGd=            0 ICorTp=0
  HFx wShort=  0.000000 wLong=  0.250000 cFull=  0.222036 cShort=  0.000000 cLong=  0.777964
  DFx wShort=  0.000000 wLong=  0.250000 cFull=  0.000000 cShort=  0.000000 cLong=  1.000000
 NAtoms=    5 NActive=    5 NUniq=    5 SFac= 1.00D+00 NAtFMM=   60 NAOKFM=F Big=F
 R6Disp: Dispersion energy =        -0.0002538791 Hartrees.
 Nuclear repulsion after empirical dispersion term =       36.6438342990 Hartrees.
 No density basis found on file   718.
 Leave Link  301 at Sun May  3 11:43:59 2020, MaxMem= 1073741824 cpu:       0.2
 (Enter /home/matheus/.gaussian/g09/l302.exe)
 NPDir=0 NMtPBC=     1 NCelOv=     1 NCel=       1 NClECP=     1 NCelD=      1
         NCelK=      1 NCelE2=     1 NClLst=     1 CellRange=     0.0.
 One-electron integrals computed using PRISM.
 NBasis=   197 RedAO= T  NBF=   197
 NBsUse=   197 1.00D-06 NBFU=   197
 Precomputing XC quadrature grid using
 IXCGrd= 2 IRadAn=           5 IRanWt=          -1 IRanGd=           0 AccXCQ= 0.00D+00.
 NRdTot=     427 NPtTot=      123512 NUsed=      126579 NTot=      126611
 NSgBfM=   229   229   229   229   229 NAtAll=     5     5.
 Leave Link  302 at Sun May  3 11:44:00 2020, MaxMem= 1073741824 cpu:       0.9
 (Enter /home/matheus/.gaussian/g09/l303.exe)
 DipDrv:  MaxL=1.
 Leave Link  303 at Sun May  3 11:44:00 2020, MaxMem= 1073741824 cpu:       0.2
 (Enter /home/matheus/.gaussian/g09/l401.exe)
 Harris functional with IExCor= 4639 diagonalized for initial guess.
 ExpMin= 2.53D-02 ExpMax= 1.17D+07 ExpMxC= 1.33D+04 IAcc=3 IRadAn=         5 AccDes= 0.00D+00
 HarFok:  IExCor= 4639 AccDes= 0.00D+00 IRadAn=         5 IDoV= 1
 ScaDFX=  1.000000  1.000000  1.000000  1.000000
 FoFCou: FMM=F IPFlag=           0 FMFlag=      100000 FMFlg1=           0
         NFxFlg=           0 DoJE=T BraDBF=F KetDBF=T FulRan=T
         Omega=  0.000000  0.000000  1.000000  0.000000  0.000000 ICntrl=     500 IOpCl=  0
         NMat0=    1 NMatS0=    1 NMatT0=    0 NMatD0=    1 NMtDS0=    0 NMtDT0=    0
         I1Cent=           4 NGrid=           0.
 Petite list used in FoFCou.
 Harris En= -145.945740313501    
 Initial guess orbital symmetries:
       Occupied  (A) (A) (A) (A) (A) (A) (A) (A) (A)
       Virtual   (A) (A) (A) (A) (A) (A) (A) (A) (A) (A) (A) (A)
                 (A) (A) (A) (A) (A) (A) (A) (A) (A) (A) (A) (A)
                 (A) (A) (A) (A) (A) (A) (A) (A) (A) (A) (A) (A)
                 (A) (A) (A) (A) (A) (A) (A) (A) (A) (A) (A) (A)
                 (A) (A) (A) (A) (A) (A) (A) (A) (A) (A) (A) (A)
                 (A) (A) (A) (A) (A) (A) (A) (A) (A) (A) (A) (A)
                 (A) (A) (A) (A) (A) (A) (A) (A) (A) (A) (A) (A)
                 (A) (A) (A) (A) (A) (A) (A) (A) (A) (A) (A) (A)
                 (A) (A) (A) (A) (A) (A) (A) (A) (A) (A) (A) (A)
                 (A) (A) (A) (A) (A) (A) (A) (A) (A) (A) (A) (A)
                 (A) (A) (A) (A) (A) (A) (A) (A) (A) (A) (A) (A)
                 (A) (A) (A) (A) (A) (A) (A) (A) (A) (A) (A) (A)
                 (A) (A) (A) (A) (A) (A) (A) (A) (A) (A) (A) (A)
                 (A) (A) (A) (A) (A) (A) (A) (A) (A) (A) (A) (A)
                 (A) (A) (A) (A) (A) (A) (A) (A) (A) (A) (A) (A)
                 (A) (A) (A) (A) (A) (A) (A) (A)
 The electronic state of the initial guess is 1-A.
 Leave Link  401 at Sun May  3 11:44:00 2020, MaxMem= 1073741824 cpu:       3.9
 (Enter /home/matheus/.gaussian/g09/l502.exe)
 Closed shell SCF:
 Requested convergence on RMS density matrix=1.00D-08 within 128 cycles.
 Requested convergence on MAX density matrix=1.00D-06.
 Requested convergence on             energy=1.00D-06.
 No special actions if energy rises.
 Using DIIS extrapolation, IDIIS=  1040.
 Integral symmetry usage will be decided dynamically.
       126521 words used for storage of precomputed grid.
 IEnd=      305468 IEndB=      305468 NGot=  1073741824 MDV=  1073505667
 LenX=  1073505667 LenY=  1073452785
 Fock matrices will be formed incrementally for  20 cycles.

 Cycle   1  Pass 1  IDiag  1:
 FoFJK:  IHMeth= 1 ICntrl=     0 DoSepK=T KAlg= 1 I1Cent= 0 FoldK=F
 FoFCou: FMM=F IPFlag=           0 FMFlag=      100000 FMFlg1=           0
         NFxFlg=           0 DoJE=T BraDBF=F KetDBF=F FulRan=T
         Omega=  0.000000  0.000000  1.000000  0.000000  0.000000 ICntrl=     500 IOpCl=  0
         NMat0=    1 NMatS0=    1 NMatT0=    0 NMatD0=    1 NMtDS0=    0 NMtDT0=    0
         I1Cent=           0 NGrid=           0.
 Symmetry not used in FoFCou.
 E= -151.458479726252    
 DIIS: error= 3.14D-02 at cycle   1 NSaved=   1.
 NSaved= 1 IEnMin= 1 EnMin= -151.458479726252     IErMin= 1 ErrMin= 3.14D-02
 ErrMax= 3.14D-02 EMaxC= 1.00D-01 BMatC= 3.21D-01 BMatP= 3.21D-01
 IDIUse=3 WtCom= 6.86D-01 WtEn= 3.14D-01
 Coeff-Com:  0.100D+01
 Coeff-En:   0.100D+01
 Coeff:      0.100D+01
 Gap=     0.542 Goal=   None    Shift=    0.000
 GapD=    0.542 DampG=2.000 DampE=0.500 DampFc=1.0000 IDamp=-1.
 RMSDP=2.50D-03 MaxDP=1.00D-01              OVMax= 1.21D-01

 Cycle   2  Pass 1  IDiag  1:
 RMSU=  1.73D-03    CP:  9.50D-01
 FoFJK:  IHMeth= 1 ICntrl=     0 DoSepK=T KAlg= 1 I1Cent= 0 FoldK=F
 E= -151.499505966904     Delta-E=       -0.041026240652 Rises=F Damp=F
 DIIS: error= 1.53D-02 at cycle   2 NSaved=   2.
 NSaved= 2 IEnMin= 2 EnMin= -151.499505966904     IErMin= 2 ErrMin= 1.53D-02
 ErrMax= 1.53D-02 EMaxC= 1.00D-01 BMatC= 1.01D-01 BMatP= 3.21D-01
 IDIUse=3 WtCom= 8.47D-01 WtEn= 1.53D-01
 Coeff-Com:  0.339D+00 0.661D+00
 Coeff-En:   0.336D+00 0.664D+00
 Coeff:      0.338D+00 0.662D+00
 Gap=     0.489 Goal=   None    Shift=    0.000
 RMSDP=1.02D-03 MaxDP=4.79D-02 DE=-4.10D-02 OVMax= 6.13D-02

 Cycle   3  Pass 1  IDiag  1:
 RMSU=  3.86D-04    CP:  9.71D-01  6.58D-01
 FoFJK:  IHMeth= 1 ICntrl=     0 DoSepK=T KAlg= 1 I1Cent= 0 FoldK=F
 E= -151.554121446939     Delta-E=       -0.054615480035 Rises=F Damp=F
 DIIS: error= 4.01D-03 at cycle   3 NSaved=   3.
 NSaved= 3 IEnMin= 3 EnMin= -151.554121446939     IErMin= 3 ErrMin= 4.01D-03
 ErrMax= 4.01D-03 EMaxC= 1.00D-01 BMatC= 6.14D-03 BMatP= 1.01D-01
 IDIUse=3 WtCom= 9.60D-01 WtEn= 4.01D-02
 Coeff-Com:  0.130D-01 0.205D+00 0.782D+00
 Coeff-En:   0.000D+00 0.000D+00 0.100D+01
 Coeff:      0.125D-01 0.197D+00 0.791D+00
 Gap=     0.421 Goal=   None    Shift=    0.000
 RMSDP=2.72D-04 MaxDP=9.20D-03 DE=-5.46D-02 OVMax= 1.66D-02

 Cycle   4  Pass 1  IDiag  1:
 RMSU=  7.69D-05    CP:  9.65D-01  7.53D-01  8.62D-01
 FoFJK:  IHMeth= 1 ICntrl=     0 DoSepK=T KAlg= 1 I1Cent= 0 FoldK=F
 E= -151.558127201492     Delta-E=       -0.004005754553 Rises=F Damp=F
 DIIS: error= 4.39D-04 at cycle   4 NSaved=   4.
 NSaved= 4 IEnMin= 4 EnMin= -151.558127201492     IErMin= 4 ErrMin= 4.39D-04
 ErrMax= 4.39D-04 EMaxC= 1.00D-01 BMatC= 7.32D-05 BMatP= 6.14D-03
 IDIUse=3 WtCom= 9.96D-01 WtEn= 4.39D-03
 Coeff-Com: -0.983D-03 0.178D-01 0.153D+00 0.830D+00
 Coeff-En:   0.000D+00 0.000D+00 0.000D+00 0.100D+01
 Coeff:     -0.979D-03 0.178D-01 0.153D+00 0.831D+00
 Gap=     0.418 Goal=   None    Shift=    0.000
 RMSDP=4.08D-05 MaxDP=2.18D-03 DE=-4.01D-03 OVMax= 1.93D-03

 Cycle   5  Pass 1  IDiag  1:
 RMSU=  1.45D-05    CP:  9.66D-01  7.48D-01  9.14D-01  1.13D+00
 FoFJK:  IHMeth= 1 ICntrl=     0 DoSepK=T KAlg= 1 I1Cent= 0 FoldK=F
 E= -151.558182818671     Delta-E=       -0.000055617180 Rises=F Damp=F
 DIIS: error= 6.26D-05 at cycle   5 NSaved=   5.
 NSaved= 5 IEnMin= 5 EnMin= -151.558182818671     IErMin= 5 ErrMin= 6.26D-05
 ErrMax= 6.26D-05 EMaxC= 1.00D-01 BMatC= 1.17D-06 BMatP= 7.32D-05
 IDIUse=1 WtCom= 1.00D+00 WtEn= 0.00D+00
 Coeff-Com: -0.574D-03-0.122D-01-0.480D-01-0.953D-01 0.116D+01
 Coeff:     -0.574D-03-0.122D-01-0.480D-01-0.953D-01 0.116D+01
 Gap=     0.418 Goal=   None    Shift=    0.000
 RMSDP=1.53D-05 MaxDP=6.17D-04 DE=-5.56D-05 OVMax= 9.26D-04

 Cycle   6  Pass 1  IDiag  1:
 RMSU=  3.14D-06    CP:  9.66D-01  7.48D-01  9.30D-01  1.22D+00  1.29D+00
 FoFJK:  IHMeth= 1 ICntrl=     0 DoSepK=T KAlg= 1 I1Cent= 0 FoldK=F
 E= -151.558185885784     Delta-E=       -0.000003067113 Rises=F Damp=F
 DIIS: error= 1.23D-05 at cycle   6 NSaved=   6.
 NSaved= 6 IEnMin= 6 EnMin= -151.558185885784     IErMin= 6 ErrMin= 1.23D-05
 ErrMax= 1.23D-05 EMaxC= 1.00D-01 BMatC= 4.08D-08 BMatP= 1.17D-06
 IDIUse=1 WtCom= 1.00D+00 WtEn= 0.00D+00
 Coeff-Com:  0.569D-04 0.398D-04-0.281D-02-0.173D-01-0.357D-01 0.106D+01
 Coeff:      0.569D-04 0.398D-04-0.281D-02-0.173D-01-0.357D-01 0.106D+01
 Gap=     0.418 Goal=   None    Shift=    0.000
 RMSDP=2.17D-06 MaxDP=7.82D-05 DE=-3.07D-06 OVMax= 2.10D-04

 Cycle   7  Pass 1  IDiag  1:
 RMSU=  7.19D-07    CP:  9.67D-01  7.48D-01  9.31D-01  1.23D+00  1.34D+00
                    CP:  1.31D+00
 FoFJK:  IHMeth= 1 ICntrl=     0 DoSepK=T KAlg= 1 I1Cent= 0 FoldK=F
 E= -151.558186000637     Delta-E=       -0.000000114852 Rises=F Damp=F
 DIIS: error= 6.39D-06 at cycle   7 NSaved=   7.
 NSaved= 7 IEnMin= 7 EnMin= -151.558186000637     IErMin= 7 ErrMin= 6.39D-06
 ErrMax= 6.39D-06 EMaxC= 1.00D-01 BMatC= 1.75D-08 BMatP= 4.08D-08
 IDIUse=1 WtCom= 1.00D+00 WtEn= 0.00D+00
 Coeff-Com:  0.553D-04 0.682D-03 0.150D-02-0.291D-02-0.806D-01 0.448D+00
 Coeff-Com:  0.634D+00
 Coeff:      0.553D-04 0.682D-03 0.150D-02-0.291D-02-0.806D-01 0.448D+00
 Coeff:      0.634D+00
 Gap=     0.418 Goal=   None    Shift=    0.000
 RMSDP=5.48D-07 MaxDP=2.57D-05 DE=-1.15D-07 OVMax= 5.61D-05

 Cycle   8  Pass 1  IDiag  1:
 RMSU=  3.23D-07    CP:  9.67D-01  7.48D-01  9.31D-01  1.23D+00  1.34D+00
                    CP:  1.36D+00  1.01D+00
 FoFJK:  IHMeth= 1 ICntrl=     0 DoSepK=T KAlg= 1 I1Cent= 0 FoldK=F
 E= -151.558186017322     Delta-E=       -0.000000016685 Rises=F Damp=F
 DIIS: error= 2.95D-06 at cycle   8 NSaved=   8.
 NSaved= 8 IEnMin= 8 EnMin= -151.558186017322     IErMin= 8 ErrMin= 2.95D-06
 ErrMax= 2.95D-06 EMaxC= 1.00D-01 BMatC= 3.60D-09 BMatP= 1.75D-08
 IDIUse=1 WtCom= 1.00D+00 WtEn= 0.00D+00
 Coeff-Com: -0.658D-06 0.187D-03 0.134D-02 0.329D-02-0.135D-01-0.186D+00
 Coeff-Com:  0.275D+00 0.920D+00
 Coeff:     -0.658D-06 0.187D-03 0.134D-02 0.329D-02-0.135D-01-0.186D+00
 Coeff:      0.275D+00 0.920D+00
 Gap=     0.418 Goal=   None    Shift=    0.000
 RMSDP=4.04D-07 MaxDP=1.37D-05 DE=-1.67D-08 OVMax= 5.06D-05

 Cycle   9  Pass 1  IDiag  1:
 RMSU=  1.12D-07    CP:  9.67D-01  7.48D-01  9.31D-01  1.23D+00  1.35D+00
                    CP:  1.40D+00  1.28D+00  1.15D+00
 FoFJK:  IHMeth= 1 ICntrl=     0 DoSepK=T KAlg= 1 I1Cent= 0 FoldK=F
 E= -151.558186022661     Delta-E=       -0.000000005339 Rises=F Damp=F
 DIIS: error= 4.72D-07 at cycle   9 NSaved=   9.
 NSaved= 9 IEnMin= 9 EnMin= -151.558186022661     IErMin= 9 ErrMin= 4.72D-07
 ErrMax= 4.72D-07 EMaxC= 1.00D-01 BMatC= 6.61D-11 BMatP= 3.60D-09
 IDIUse=1 WtCom= 1.00D+00 WtEn= 0.00D+00
 Coeff-Com: -0.137D-06-0.404D-04-0.260D-03-0.722D-03 0.733D-02-0.147D-02
 Coeff-Com: -0.628D-01-0.105D+00 0.116D+01
 Coeff:     -0.137D-06-0.404D-04-0.260D-03-0.722D-03 0.733D-02-0.147D-02
 Coeff:     -0.628D-01-0.105D+00 0.116D+01
 Gap=     0.418 Goal=   None    Shift=    0.000
 RMSDP=1.07D-07 MaxDP=2.16D-06 DE=-5.34D-09 OVMax= 1.29D-05

 Cycle  10  Pass 1  IDiag  1:
 RMSU=  1.93D-08    CP:  9.67D-01  7.48D-01  9.31D-01  1.23D+00  1.34D+00
                    CP:  1.39D+00  1.33D+00  1.27D+00  1.39D+00
 FoFJK:  IHMeth= 1 ICntrl=     0 DoSepK=T KAlg= 1 I1Cent= 0 FoldK=F
 E= -151.558186022899     Delta-E=       -0.000000000238 Rises=F Damp=F
 DIIS: error= 1.27D-07 at cycle  10 NSaved=  10.
 NSaved=10 IEnMin=10 EnMin= -151.558186022899     IErMin=10 ErrMin= 1.27D-07
 ErrMax= 1.27D-07 EMaxC= 1.00D-01 BMatC= 6.03D-12 BMatP= 6.61D-11
 IDIUse=1 WtCom= 1.00D+00 WtEn= 0.00D+00
 Coeff-Com:  0.256D-06-0.156D-04-0.131D-03-0.392D-03 0.166D-02 0.152D-01
 Coeff-Com: -0.276D-01-0.858D-01 0.239D-01 0.107D+01
 Coeff:      0.256D-06-0.156D-04-0.131D-03-0.392D-03 0.166D-02 0.152D-01
 Coeff:     -0.276D-01-0.858D-01 0.239D-01 0.107D+01
 Gap=     0.418 Goal=   None    Shift=    0.000
 RMSDP=3.03D-08 MaxDP=5.80D-07 DE=-2.38D-10 OVMax= 4.19D-06

 Cycle  11  Pass 1  IDiag  1:
 RMSU=  5.52D-09    CP:  9.67D-01  7.48D-01  9.31D-01  1.23D+00  1.34D+00
                    CP:  1.39D+00  1.34D+00  1.30D+00  1.50D+00  1.42D+00
 FoFJK:  IHMeth= 1 ICntrl=     0 DoSepK=T KAlg= 1 I1Cent= 0 FoldK=F
 E= -151.558186022918     Delta-E=       -0.000000000019 Rises=F Damp=F
 DIIS: error= 3.86D-08 at cycle  11 NSaved=  11.
 NSaved=11 IEnMin=11 EnMin= -151.558186022918     IErMin=11 ErrMin= 3.86D-08
 ErrMax= 3.86D-08 EMaxC= 1.00D-01 BMatC= 3.37D-13 BMatP= 6.03D-12
 IDIUse=1 WtCom= 1.00D+00 WtEn= 0.00D+00
 Coeff-Com: -0.153D-06 0.112D-05 0.187D-04 0.448D-04-0.434D-03-0.712D-03
 Coeff-Com:  0.615D-02 0.129D-01-0.779D-01-0.768D-01 0.114D+01
 Coeff:     -0.153D-06 0.112D-05 0.187D-04 0.448D-04-0.434D-03-0.712D-03
 Coeff:      0.615D-02 0.129D-01-0.779D-01-0.768D-01 0.114D+01
 Gap=     0.418 Goal=   None    Shift=    0.000
 RMSDP=7.80D-09 MaxDP=2.97D-07 DE=-1.90D-11 OVMax= 8.84D-07

 SCF Done:  E(RwB97XD) =  -151.558186023     A.U. after   11 cycles
             Convg  =    0.7796D-08             -V/T =  2.0060
 KE= 1.506544052696D+02 PE=-4.317154313581D+02 EE= 9.285900576664D+01
 Leave Link  502 at Sun May  3 11:44:32 2020, MaxMem= 1073741824 cpu:     256.0
 (Enter /home/matheus/.gaussian/g09/l601.exe)
 Copying SCF densities to generalized density rwf, IOpCl= 0 IROHF=0.

 **********************************************************************

            Population analysis using the SCF density.

 **********************************************************************

 Orbital symmetries:
       Occupied  (A) (A) (A) (A) (A) (A) (A) (A) (A)
       Virtual   (A) (A) (A) (A) (A) (A) (A) (A) (A) (A) (A) (A)
                 (A) (A) (A) (A) (A) (A) (A) (A) (A) (A) (A) (A)
                 (A) (A) (A) (A) (A) (A) (A) (A) (A) (A) (A) (A)
                 (A) (A) (A) (A) (A) (A) (A) (A) (A) (A) (A) (A)
                 (A) (A) (A) (A) (A) (A) (A) (A) (A) (A) (A) (A)
                 (A) (A) (A) (A) (A) (A) (A) (A) (A) (A) (A) (A)
                 (A) (A) (A) (A) (A) (A) (A) (A) (A) (A) (A) (A)
                 (A) (A) (A) (A) (A) (A) (A) (A) (A) (A) (A) (A)
                 (A) (A) (A) (A) (A) (A) (A) (A) (A) (A) (A) (A)
                 (A) (A) (A) (A) (A) (A) (A) (A) (A) (A) (A) (A)
                 (A) (A) (A) (A) (A) (A) (A) (A) (A) (A) (A) (A)
                 (A) (A) (A) (A) (A) (A) (A) (A) (A) (A) (A) (A)
                 (A) (A) (A) (A) (A) (A) (A) (A) (A) (A) (A) (A)
                 (A) (A) (A) (A) (A) (A) (A) (A) (A) (A) (A) (A)
                 (A) (A) (A) (A) (A) (A) (A) (A) (A) (A) (A) (A)
                 (A) (A) (A) (A) (A) (A) (A) (A)
 The electronic state is 1-A.
 Alpha  occ. eigenvalues --  -19.34347 -19.34342  -1.25003  -1.03433  -0.68349
 Alpha  occ. eigenvalues --   -0.56646  -0.54034  -0.44705  -0.39256
 Alpha virt. eigenvalues --    0.02537   0.03971   0.07302   0.08470   0.09475
 Alpha virt. eigenvalues --    0.10217   0.10737   0.14770   0.17603   0.17950
 Alpha virt. eigenvalues --    0.18653   0.19201   0.20817   0.22666   0.25435
 Alpha virt. eigenvalues --    0.27277   0.29874   0.30550   0.33465   0.34223
 Alpha virt. eigenvalues --    0.35127   0.36927   0.38107   0.39567   0.39989
 Alpha virt. eigenvalues --    0.43293   0.45330   0.46176   0.48098   0.50924
 Alpha virt. eigenvalues --    0.52773   0.57851   0.59532   0.61699   0.65965
 Alpha virt. eigenvalues --    0.69383   0.73526   0.75816   0.76778   0.78457
 Alpha virt. eigenvalues --    0.80245   0.81577   0.86202   0.89765   0.89954
 Alpha virt. eigenvalues --    0.91335   0.92978   0.95463   0.95674   0.98648
 Alpha virt. eigenvalues --    1.01392   1.02401   1.03433   1.08122   1.10283
 Alpha virt. eigenvalues --    1.13465   1.16273   1.19757   1.20388   1.22583
 Alpha virt. eigenvalues --    1.27649   1.29904   1.30804   1.31415   1.32861
 Alpha virt. eigenvalues --    1.34057   1.35398   1.37953   1.39850   1.40219
 Alpha virt. eigenvalues --    1.46620   1.48303   1.51862   1.53492   1.56545
 Alpha virt. eigenvalues --    1.59311   1.63139   1.66376   1.73846   1.76642
 Alpha virt. eigenvalues --    1.81908   1.85396   1.91307   1.97550   2.01779
 Alpha virt. eigenvalues --    2.04979   2.09026   2.13933   2.17893   2.21478
 Alpha virt. eigenvalues --    2.27226   2.28381   2.31558   2.35436   2.36020
 Alpha virt. eigenvalues --    2.49018   2.54197   2.56199   2.60329   2.61092
 Alpha virt. eigenvalues --    2.64933   2.74696   2.82519   2.85146   2.92304
 Alpha virt. eigenvalues --    2.97557   3.07531   3.09380   3.26073   3.30543
 Alpha virt. eigenvalues --    3.40805   3.56534   3.64311   3.66252   3.78006
 Alpha virt. eigenvalues --    3.78791   3.81550   3.82332   3.82546   3.85292
 Alpha virt. eigenvalues --    3.87396   3.89717   3.91894   3.95356   3.97060
 Alpha virt. eigenvalues --    3.98625   4.01486   4.06081   4.10970   4.11233
 Alpha virt. eigenvalues --    4.14647   4.23914   4.25268   4.28657   4.35363
 Alpha virt. eigenvalues --    4.40740   4.49419   4.60347   4.71184   4.94608
 Alpha virt. eigenvalues --    4.98171   4.99528   5.10153   5.16277   5.17290
 Alpha virt. eigenvalues --    5.43227   5.84599   6.00712   6.13236   6.16148
 Alpha virt. eigenvalues --    6.27735   6.35179   6.40457   6.51016   6.63463
 Alpha virt. eigenvalues --    6.74807   6.77446   6.82222   6.84834   6.89383
 Alpha virt. eigenvalues --    6.89992   6.92764   6.94044   7.02738   7.08577
 Alpha virt. eigenvalues --    7.14707   7.24047   7.47765   7.49780   7.82771
 Alpha virt. eigenvalues --    8.06869   8.13185  10.96528  14.10361  14.65301
 Alpha virt. eigenvalues --   14.83521  14.89543  15.11205  29.03119  29.03463
 Alpha virt. eigenvalues --   29.07949  29.14862  29.23238  49.15128 148.31770
 Alpha virt. eigenvalues --  148.40578 148.71901 752.64647
          Condensed to atoms (all electrons):
              1          2          3          4          5
     1  O    8.180272  -0.178466   0.203590   0.012380   0.001560
     2  O   -0.178466   8.200152   0.020608   0.196340  -0.001908
     3  H    0.203590   0.020608   0.557703  -0.000314  -0.001835
     4  H    0.012380   0.196340  -0.000314   0.565714  -0.004391
     5  Kr   0.001560  -0.001908  -0.001835  -0.004391   0.001032
 Mulliken atomic charges:
              1
     1  O   -0.219336
     2  O   -0.236726
     3  H    0.220249
     4  H    0.230271
     5  Kr   0.005542
 Sum of Mulliken atomic charges =   0.00000
 Mulliken charges with hydrogens summed into heavy atoms:
              1
     1  O    0.000913
     2  O   -0.006455
     5  Kr   0.005542
 Sum of Mulliken charges with hydrogens summed into heavy atoms =   0.00000
          Condensed to fragments (all electrons):
     1      -0.005542
     2       0.005542
 Electronic spatial extent (au):  <R**2>=            318.4067
 Charge=              0.0000 electrons
 Dipole moment (field-independent basis, Debye):
    X=             -2.3218    Y=             -0.1232    Z=              1.3722  Tot=              2.6998
 Quadrupole moment (field-independent basis, Debye-Ang):
   XX=            -19.7992   YY=            -10.2889   ZZ=            -11.8091
   XY=             -1.2225   XZ=              1.8544   YZ=             -1.6082
 Traceless Quadrupole moment (field-independent basis, Debye-Ang):
   XX=             -5.8335   YY=              3.6768   ZZ=              2.1566
   XY=             -1.2225   XZ=              1.8544   YZ=             -1.6082
 Octapole moment (field-independent basis, Debye-Ang**2):
  XXX=            -91.4185  YYY=             -0.8152  ZZZ=              0.7823  XYY=            -23.2712
  XXY=             -2.8802  XXZ=              2.3427  XZZ=            -23.5941  YZZ=             -1.4446
  YYZ=              1.9558  XYZ=             -2.5280
 Hexadecapole moment (field-independent basis, Debye-Ang**3):
 XXXX=           -341.6186 YYYY=            -44.6728 ZZZZ=            -11.6477 XXXY=             -4.4467
 XXXZ=              2.8339 YYYX=             -2.1206 YYYZ=             -2.3453 ZZZX=              1.4839
 ZZZY=             -1.5510 XXYY=            -60.8477 XXZZ=            -51.1073 YYZZ=            -10.1416
 XXYZ=             -4.1254 YYXZ=              3.0101 ZZXY=             -2.2067
 N-N= 3.664383429896D+01 E-N=-4.317154300042D+02  KE= 1.506544052696D+02
 No NMR shielding tensors so no spin-rotation constants.
 Leave Link  601 at Sun May  3 11:44:32 2020, MaxMem= 1073741824 cpu:       0.7
 (Enter /home/matheus/.gaussian/g09/l122.exe)
 Counterpoise: doing DCBS calculation for fragment   2 NewBq=T
 Leave Link  122 at Sun May  3 11:44:32 2020, MaxMem= 1073741824 cpu:       0.0
 (Enter /home/matheus/.gaussian/g09/l301.exe)
 Basis read from rwf:  (5D, 7F)
 No pseudopotential information found on rwf file.
 There are   197 symmetry adapted basis functions of A   symmetry.
 Integral buffers will be    131072 words long.
 Raffenetti 2 integral format.
 Two-electron integral symmetry is turned on.
   197 basis functions,   415 primitive gaussians,   229 cartesian basis functions
    18 alpha electrons       18 beta electrons
       nuclear repulsion energy         0.0000000000 Hartrees.
 IExCor= 4639 DFT=T Ex+Corr=wB97XD ExCW=0 ScaHFX=  1.000000
 ScaDFX=  1.000000  1.000000  1.000000  1.000000 ScalE2=  1.000000  1.000000
 IRadAn=      5 IRanWt=     -1 IRanGd=            0 ICorTp=0
  HFx wShort=  0.000000 wLong=  0.250000 cFull=  0.222036 cShort=  0.000000 cLong=  0.777964
  DFx wShort=  0.000000 wLong=  0.250000 cFull=  0.000000 cShort=  0.000000 cLong=  1.000000
 NAtoms=    5 NActive=    5 NUniq=    5 SFac= 1.00D+00 NAtFMM=   60 NAOKFM=F Big=F
 R6Disp: Dispersion energy =         0.0000000000 Hartrees.
 Nuclear repulsion after empirical dispersion term =        0.0000000000 Hartrees.
 No density basis found on file   718.
 Leave Link  301 at Sun May  3 11:44:32 2020, MaxMem= 1073741824 cpu:       0.2
 (Enter /home/matheus/.gaussian/g09/l302.exe)
 NPDir=0 NMtPBC=     1 NCelOv=     1 NCel=       1 NClECP=     1 NCelD=      1
         NCelK=      1 NCelE2=     1 NClLst=     1 CellRange=     0.0.
 One-electron integrals computed using PRISM.
 NBasis=   197 RedAO= T  NBF=   197
 NBsUse=   197 1.00D-06 NBFU=   197
 Precomputing XC quadrature grid using
 IXCGrd= 2 IRadAn=           5 IRanWt=          -1 IRanGd=           0 AccXCQ= 0.00D+00.
 NRdTot=     427 NPtTot=      123512 NUsed=      126579 NTot=      126611
 NSgBfM=   229   229   229   229   229 NAtAll=     5     5.
 Leave Link  302 at Sun May  3 11:44:32 2020, MaxMem= 1073741824 cpu:       1.0
 (Enter /home/matheus/.gaussian/g09/l303.exe)
 DipDrv:  MaxL=1.
 Leave Link  303 at Sun May  3 11:44:32 2020, MaxMem= 1073741824 cpu:       0.2
 (Enter /home/matheus/.gaussian/g09/l401.exe)
 Harris functional with IExCor= 4639 diagonalized for initial guess.
 ExpMin= 2.53D-02 ExpMax= 1.17D+07 ExpMxC= 1.33D+04 IAcc=3 IRadAn=         5 AccDes= 0.00D+00
 HarFok:  IExCor= 4639 AccDes= 0.00D+00 IRadAn=         5 IDoV= 1
 ScaDFX=  1.000000  1.000000  1.000000  1.000000
 FoFCou: FMM=F IPFlag=           0 FMFlag=      100000 FMFlg1=           0
         NFxFlg=           0 DoJE=T BraDBF=F KetDBF=T FulRan=T
         Omega=  0.000000  0.000000  1.000000  0.000000  0.000000 ICntrl=     500 IOpCl=  0
         NMat0=    1 NMatS0=    1 NMatT0=    0 NMatD0=    1 NMtDS0=    0 NMtDT0=    0
         I1Cent=           4 NGrid=           0.
 Petite list used in FoFCou.
 Harris En= -2729.46051322033    
 Initial guess orbital symmetries:
       Occupied  (A) (A) (A) (A) (A) (A) (A) (A) (A) (A) (A) (A)
                 (A) (A) (A) (A) (A) (A)
       Virtual   (A) (A) (A) (A) (A) (A) (A) (A) (A) (A) (A) (A)
                 (A) (A) (A) (A) (A) (A) (A) (A) (A) (A) (A) (A)
                 (A) (A) (A) (A) (A) (A) (A) (A) (A) (A) (A) (A)
                 (A) (A) (A) (A) (A) (A) (A) (A) (A) (A) (A) (A)
                 (A) (A) (A) (A) (A) (A) (A) (A) (A) (A) (A) (A)
                 (A) (A) (A) (A) (A) (A) (A) (A) (A) (A) (A) (A)
                 (A) (A) (A) (A) (A) (A) (A) (A) (A) (A) (A) (A)
                 (A) (A) (A) (A) (A) (A) (A) (A) (A) (A) (A) (A)
                 (A) (A) (A) (A) (A) (A) (A) (A) (A) (A) (A) (A)
                 (A) (A) (A) (A) (A) (A) (A) (A) (A) (A) (A) (A)
                 (A) (A) (A) (A) (A) (A) (A) (A) (A) (A) (A) (A)
                 (A) (A) (A) (A) (A) (A) (A) (A) (A) (A) (A) (A)
                 (A) (A) (A) (A) (A) (A) (A) (A) (A) (A) (A) (A)
                 (A) (A) (A) (A) (A) (A) (A) (A) (A) (A) (A) (A)
                 (A) (A) (A) (A) (A) (A) (A) (A) (A) (A) (A)
 The electronic state of the initial guess is 1-A.
 Leave Link  401 at Sun May  3 11:44:33 2020, MaxMem= 1073741824 cpu:       3.8
 (Enter /home/matheus/.gaussian/g09/l502.exe)
 Closed shell SCF:
 Requested convergence on RMS density matrix=1.00D-08 within 128 cycles.
 Requested convergence on MAX density matrix=1.00D-06.
 Requested convergence on             energy=1.00D-06.
 No special actions if energy rises.
 Using DIIS extrapolation, IDIIS=  1040.
 Integral symmetry usage will be decided dynamically.
       126521 words used for storage of precomputed grid.
 IEnd=      305468 IEndB=      305468 NGot=  1073741824 MDV=  1073505667
 LenX=  1073505667 LenY=  1073452785
 Fock matrices will be formed incrementally for  20 cycles.

 Cycle   1  Pass 1  IDiag  1:
 FoFJK:  IHMeth= 1 ICntrl=     0 DoSepK=T KAlg= 1 I1Cent= 0 FoldK=F
 FoFCou: FMM=F IPFlag=           0 FMFlag=      100000 FMFlg1=           0
         NFxFlg=           0 DoJE=T BraDBF=F KetDBF=F FulRan=T
         Omega=  0.000000  0.000000  1.000000  0.000000  0.000000 ICntrl=     500 IOpCl=  0
         NMat0=    1 NMatS0=    1 NMatT0=    0 NMatD0=    1 NMtDS0=    0 NMtDT0=    0
         I1Cent=           0 NGrid=           0.
 Symmetry not used in FoFCou.
 E= -2753.44650910922    
 DIIS: error= 7.41D-02 at cycle   1 NSaved=   1.
 NSaved= 1 IEnMin= 1 EnMin= -2753.44650910922     IErMin= 1 ErrMin= 7.41D-02
 ErrMax= 7.41D-02 EMaxC= 1.00D-01 BMatC= 1.90D+00 BMatP= 1.90D+00
 IDIUse=3 WtCom= 2.59D-01 WtEn= 7.41D-01
 Coeff-Com:  0.100D+01
 Coeff-En:   0.100D+01
 Coeff:      0.100D+01
 Gap=     0.654 Goal=   None    Shift=    0.000
 GapD=    0.654 DampG=2.000 DampE=0.500 DampFc=1.0000 IDamp=-1.
 RMSDP=5.61D-03 MaxDP=3.70D-01              OVMax= 1.83D-01

 Cycle   2  Pass 1  IDiag  1:
 RMSU=  3.91D-03    CP:  1.04D+00
 FoFJK:  IHMeth= 1 ICntrl=     0 DoSepK=T KAlg= 1 I1Cent= 0 FoldK=F
 E= -2753.72366418804     Delta-E=       -0.277155078820 Rises=F Damp=F
 DIIS: error= 3.08D-02 at cycle   2 NSaved=   2.
 NSaved= 2 IEnMin= 2 EnMin= -2753.72366418804     IErMin= 2 ErrMin= 3.08D-02
 ErrMax= 3.08D-02 EMaxC= 1.00D-01 BMatC= 4.67D-01 BMatP= 1.90D+00
 IDIUse=3 WtCom= 6.92D-01 WtEn= 3.08D-01
 Coeff-Com:  0.326D+00 0.674D+00
 Coeff-En:   0.160D+00 0.840D+00
 Coeff:      0.275D+00 0.725D+00
 Gap=     0.492 Goal=   None    Shift=    0.000
 RMSDP=2.51D-03 MaxDP=1.61D-01 DE=-2.77D-01 OVMax= 7.65D-02

 Cycle   3  Pass 1  IDiag  1:
 RMSU=  3.66D-04    CP:  1.03D+00  5.61D-01
 FoFJK:  IHMeth= 1 ICntrl=     0 DoSepK=T KAlg= 1 I1Cent= 0 FoldK=F
 E= -2753.86711052196     Delta-E=       -0.143446333916 Rises=F Damp=F
 DIIS: error= 4.09D-03 at cycle   3 NSaved=   3.
 NSaved= 3 IEnMin= 3 EnMin= -2753.86711052196     IErMin= 3 ErrMin= 4.09D-03
 ErrMax= 4.09D-03 EMaxC= 1.00D-01 BMatC= 1.00D-02 BMatP= 4.67D-01
 IDIUse=3 WtCom= 9.59D-01 WtEn= 4.09D-02
 Coeff-Com: -0.772D-02 0.116D+00 0.892D+00
 Coeff-En:   0.000D+00 0.000D+00 0.100D+01
 Coeff:     -0.741D-02 0.111D+00 0.897D+00
 Gap=     0.518 Goal=   None    Shift=    0.000
 RMSDP=2.92D-04 MaxDP=1.73D-02 DE=-1.43D-01 OVMax= 1.19D-02

 Cycle   4  Pass 1  IDiag  1:
 RMSU=  4.01D-05    CP:  1.03D+00  6.11D-01  9.68D-01
 FoFJK:  IHMeth= 1 ICntrl=     0 DoSepK=T KAlg= 1 I1Cent= 0 FoldK=F
 E= -2753.87022599442     Delta-E=       -0.003115472463 Rises=F Damp=F
 DIIS: error= 1.80D-04 at cycle   4 NSaved=   4.
 NSaved= 4 IEnMin= 4 EnMin= -2753.87022599442     IErMin= 4 ErrMin= 1.80D-04
 ErrMax= 1.80D-04 EMaxC= 1.00D-01 BMatC= 1.32D-05 BMatP= 1.00D-02
 IDIUse=3 WtCom= 9.98D-01 WtEn= 1.80D-03
 Coeff-Com: -0.255D-03-0.173D-01-0.778D-01 0.110D+01
 Coeff-En:   0.000D+00 0.000D+00 0.000D+00 0.100D+01
 Coeff:     -0.254D-03-0.172D-01-0.777D-01 0.110D+01
 Gap=     0.516 Goal=   None    Shift=    0.000
 RMSDP=2.25D-05 MaxDP=8.64D-04 DE=-3.12D-03 OVMax= 9.55D-04

 Cycle   5  Pass 1  IDiag  1:
 RMSU=  8.69D-06    CP:  1.03D+00  6.10D-01  9.87D-01  1.23D+00
 FoFJK:  IHMeth= 1 ICntrl=     0 DoSepK=T KAlg= 1 I1Cent= 0 FoldK=F
 E= -2753.87023427176     Delta-E=       -0.000008277335 Rises=F Damp=F
 DIIS: error= 1.64D-05 at cycle   5 NSaved=   5.
 NSaved= 5 IEnMin= 5 EnMin= -2753.87023427176     IErMin= 5 ErrMin= 1.64D-05
 ErrMax= 1.64D-05 EMaxC= 1.00D-01 BMatC= 4.71D-08 BMatP= 1.32D-05
 IDIUse=1 WtCom= 1.00D+00 WtEn= 0.00D+00
 Coeff-Com:  0.759D-04 0.116D-02 0.153D-02-0.190D+00 0.119D+01
 Coeff:      0.759D-04 0.116D-02 0.153D-02-0.190D+00 0.119D+01
 Gap=     0.516 Goal=   None    Shift=    0.000
 RMSDP=3.62D-06 MaxDP=1.45D-04 DE=-8.28D-06 OVMax= 2.09D-04

 Cycle   6  Pass 1  IDiag  1:
 RMSU=  7.19D-07    CP:  1.03D+00  6.10D-01  9.89D-01  1.27D+00  1.18D+00
 FoFJK:  IHMeth= 1 ICntrl=     0 DoSepK=T KAlg= 1 I1Cent= 0 FoldK=F
 E= -2753.87023441176     Delta-E=       -0.000000140008 Rises=F Damp=F
 DIIS: error= 1.76D-06 at cycle   6 NSaved=   6.
 NSaved= 6 IEnMin= 6 EnMin= -2753.87023441176     IErMin= 6 ErrMin= 1.76D-06
 ErrMax= 1.76D-06 EMaxC= 1.00D-01 BMatC= 6.89D-10 BMatP= 4.71D-08
 IDIUse=1 WtCom= 1.00D+00 WtEn= 0.00D+00
 Coeff-Com:  0.713D-05 0.306D-03 0.850D-03-0.417D-01 0.193D+00 0.848D+00
 Coeff:      0.713D-05 0.306D-03 0.850D-03-0.417D-01 0.193D+00 0.848D+00
 Gap=     0.516 Goal=   None    Shift=    0.000
 RMSDP=2.30D-07 MaxDP=8.78D-06 DE=-1.40D-07 OVMax= 1.05D-05

 Cycle   7  Pass 1  IDiag  1:
 RMSU=  6.97D-08    CP:  1.03D+00  6.10D-01  9.90D-01  1.27D+00  1.19D+00
                    CP:  1.11D+00
 FoFJK:  IHMeth= 1 ICntrl=     0 DoSepK=T KAlg= 1 I1Cent= 0 FoldK=F
 E= -2753.87023441249     Delta-E=       -0.000000000722 Rises=F Damp=F
 DIIS: error= 2.13D-07 at cycle   7 NSaved=   7.
 NSaved= 7 IEnMin= 7 EnMin= -2753.87023441249     IErMin= 7 ErrMin= 2.13D-07
 ErrMax= 2.13D-07 EMaxC= 1.00D-01 BMatC= 2.03D-11 BMatP= 6.89D-10
 IDIUse=1 WtCom= 1.00D+00 WtEn= 0.00D+00
 Coeff-Com: -0.137D-05 0.205D-04 0.143D-03-0.110D-03-0.107D-01 0.108D+00
 Coeff-Com:  0.903D+00
 Coeff:     -0.137D-05 0.205D-04 0.143D-03-0.110D-03-0.107D-01 0.108D+00
 Coeff:      0.903D+00
 Gap=     0.516 Goal=   None    Shift=    0.000
 RMSDP=4.96D-08 MaxDP=2.04D-06 DE=-7.22D-10 OVMax= 2.01D-06

 Cycle   8  Pass 1  IDiag  1:
 RMSU=  1.52D-08    CP:  1.03D+00  6.10D-01  9.89D-01  1.27D+00  1.20D+00
                    CP:  1.15D+00  1.09D+00
 FoFJK:  IHMeth= 1 ICntrl=     0 DoSepK=T KAlg= 1 I1Cent= 0 FoldK=F
 E= -2753.87023441252     Delta-E=       -0.000000000029 Rises=F Damp=F
 DIIS: error= 6.01D-08 at cycle   8 NSaved=   8.
 NSaved= 8 IEnMin= 8 EnMin= -2753.87023441252     IErMin= 8 ErrMin= 6.01D-08
 ErrMax= 6.01D-08 EMaxC= 1.00D-01 BMatC= 1.51D-12 BMatP= 2.03D-11
 IDIUse=1 WtCom= 1.00D+00 WtEn= 0.00D+00
 Coeff-Com: -0.106D-06-0.517D-05 0.430D-06 0.159D-02-0.831D-02-0.209D-01
 Coeff-Com:  0.108D+00 0.920D+00
 Coeff:     -0.106D-06-0.517D-05 0.430D-06 0.159D-02-0.831D-02-0.209D-01
 Coeff:      0.108D+00 0.920D+00
 Gap=     0.516 Goal=   None    Shift=    0.000
 RMSDP=1.26D-08 MaxDP=5.13D-07 DE=-2.91D-11 OVMax= 3.73D-07

 Cycle   9  Pass 1  IDiag  1:
 RMSU=  2.37D-09    CP:  1.03D+00  6.10D-01  9.89D-01  1.27D+00  1.20D+00
                    CP:  1.16D+00  1.14D+00  1.09D+00
 FoFJK:  IHMeth= 1 ICntrl=     0 DoSepK=T KAlg= 1 I1Cent= 0 FoldK=F
 E= -2753.87023441251     Delta-E=        0.000000000008 Rises=F Damp=F
 DIIS: error= 9.94D-09 at cycle   9 NSaved=   9.
 NSaved= 9 IEnMin= 8 EnMin= -2753.87023441252     IErMin= 9 ErrMin= 9.94D-09
 ErrMax= 9.94D-09 EMaxC= 1.00D-01 BMatC= 7.55D-15 BMatP= 1.51D-12
 IDIUse=1 WtCom= 1.00D+00 WtEn= 0.00D+00
 Coeff-Com:  0.111D-07 0.831D-07-0.147D-05-0.130D-03 0.657D-03 0.139D-02
 Coeff-Com: -0.210D-01-0.105D+00 0.112D+01
 Coeff:      0.111D-07 0.831D-07-0.147D-05-0.130D-03 0.657D-03 0.139D-02
 Coeff:     -0.210D-01-0.105D+00 0.112D+01
 Gap=     0.516 Goal=   None    Shift=    0.000
 RMSDP=1.54D-09 MaxDP=6.33D-08 DE= 8.19D-12 OVMax= 9.66D-08

 SCF Done:  E(RwB97XD) =  -2753.87023441     A.U. after    9 cycles
             Convg  =    0.1537D-08             -V/T =  2.0013
 KE= 2.750244204723D+03 PE=-6.580152783474D+03 EE= 1.076038344339D+03
 Leave Link  502 at Sun May  3 11:45:00 2020, MaxMem= 1073741824 cpu:     214.7
 (Enter /home/matheus/.gaussian/g09/l601.exe)
 Copying SCF densities to generalized density rwf, IOpCl= 0 IROHF=0.

 **********************************************************************

            Population analysis using the SCF density.

 **********************************************************************

 Orbital symmetries:
       Occupied  (A) (A) (A) (A) (A) (A) (A) (A) (A) (A) (A) (A)
                 (A) (A) (A) (A) (A) (A)
       Virtual   (A) (A) (A) (A) (A) (A) (A) (A) (A) (A) (A) (A)
                 (A) (A) (A) (A) (A) (A) (A) (A) (A) (A) (A) (A)
                 (A) (A) (A) (A) (A) (A) (A) (A) (A) (A) (A) (A)
                 (A) (A) (A) (A) (A) (A) (A) (A) (A) (A) (A) (A)
                 (A) (A) (A) (A) (A) (A) (A) (A) (A) (A) (A) (A)
                 (A) (A) (A) (A) (A) (A) (A) (A) (A) (A) (A) (A)
                 (A) (A) (A) (A) (A) (A) (A) (A) (A) (A) (A) (A)
                 (A) (A) (A) (A) (A) (A) (A) (A) (A) (A) (A) (A)
                 (A) (A) (A) (A) (A) (A) (A) (A) (A) (A) (A) (A)
                 (A) (A) (A) (A) (A) (A) (A) (A) (A) (A) (A) (A)
                 (A) (A) (A) (A) (A) (A) (A) (A) (A) (A) (A) (A)
                 (A) (A) (A) (A) (A) (A) (A) (A) (A) (A) (A) (A)
                 (A) (A) (A) (A) (A) (A) (A) (A) (A) (A) (A) (A)
                 (A) (A) (A) (A) (A) (A) (A) (A) (A) (A) (A) (A)
                 (A) (A) (A) (A) (A) (A) (A) (A) (A) (A) (A)
 The electronic state is 1-A.
 Alpha  occ. eigenvalues -- -513.08055 -67.34867 -60.89739 -60.89738 -60.89738
 Alpha  occ. eigenvalues --   -9.80180  -7.49479  -7.49478  -7.49478  -3.36164
 Alpha  occ. eigenvalues --   -3.36163  -3.36163  -3.36162  -3.36162  -1.00828
 Alpha  occ. eigenvalues --   -0.48267  -0.48264  -0.48262
 Alpha virt. eigenvalues --    0.03335   0.05269   0.08808   0.09693   0.12505
 Alpha virt. eigenvalues --    0.12856   0.13717   0.13897   0.16339   0.17417
 Alpha virt. eigenvalues --    0.18089   0.19538   0.20919   0.25544   0.26473
 Alpha virt. eigenvalues --    0.26894   0.29026   0.31033   0.32746   0.35046
 Alpha virt. eigenvalues --    0.35988   0.37766   0.38524   0.39863   0.41479
 Alpha virt. eigenvalues --    0.42186   0.44266   0.52504   0.55149   0.57692
 Alpha virt. eigenvalues --    0.59545   0.66324   0.68194   0.69263   0.71608
 Alpha virt. eigenvalues --    0.72857   0.74012   0.75795   0.77043   0.78121
 Alpha virt. eigenvalues --    0.79186   0.80889   0.84374   0.85001   0.87686
 Alpha virt. eigenvalues --    0.88256   0.89761   0.90699   0.91971   0.95642
 Alpha virt. eigenvalues --    0.97083   0.98047   0.99590   0.99837   1.02694
 Alpha virt. eigenvalues --    1.04332   1.06877   1.07464   1.12269   1.15340
 Alpha virt. eigenvalues --    1.16577   1.22066   1.23494   1.28715   1.32277
 Alpha virt. eigenvalues --    1.32539   1.40121   1.44041   1.47509   1.49089
 Alpha virt. eigenvalues --    1.55892   1.57096   1.58699   1.70600   1.79219
 Alpha virt. eigenvalues --    1.81860   1.83172   1.85991   1.95100   2.16057
 Alpha virt. eigenvalues --    2.20456   2.24569   2.28250   2.28969   2.30269
 Alpha virt. eigenvalues --    2.32125   2.34112   2.35152   2.38370   2.41245
 Alpha virt. eigenvalues --    2.42935   2.44768   2.46100   2.49092   2.50123
 Alpha virt. eigenvalues --    2.51393   2.53826   2.56429   2.58913   2.60741
 Alpha virt. eigenvalues --    2.62388   2.63053   2.66712   2.70007   2.72133
 Alpha virt. eigenvalues --    2.74356   2.78430   2.85937   2.86752   2.90039
 Alpha virt. eigenvalues --    2.95945   2.99883   3.06594   3.08637   3.18523
 Alpha virt. eigenvalues --    3.20075   3.28755   3.32202   3.40559   3.45152
 Alpha virt. eigenvalues --    3.61680   3.67118   3.82434   3.87334   4.03744
 Alpha virt. eigenvalues --    4.38556   4.50090   4.51594   4.59010   4.67808
 Alpha virt. eigenvalues --    4.72331   4.85612   4.86665   4.98075   5.09376
 Alpha virt. eigenvalues --    5.10305   5.27646   5.55800   5.70026   5.85381
 Alpha virt. eigenvalues --    5.88761   5.96015   6.16717   6.80626   6.82594
 Alpha virt. eigenvalues --    7.38570   7.45483   7.57539   7.67795   7.73034
 Alpha virt. eigenvalues --    7.81629   7.98239   8.16896   8.17927   8.24614
 Alpha virt. eigenvalues --    8.35177   8.50674   8.60092   8.90506   9.60881
 Alpha virt. eigenvalues --    9.75479   9.84577   9.87128   9.95400   9.98863
 Alpha virt. eigenvalues --   10.17632  10.25149  10.51294  10.95417  11.57208
 Alpha virt. eigenvalues --   11.61083  11.80547  12.01692  12.08316  13.20438
 Alpha virt. eigenvalues --   13.71735  14.52554  62.78135  64.68400
          Condensed to atoms (all electrons):
              1          2          3          4          5
     1  O    0.000787  -0.000981  -0.000322   0.000715  -0.006136
     2  O   -0.000981   0.004274   0.000338  -0.003145  -0.003572
     3  H   -0.000322   0.000338   0.000364  -0.000177  -0.004005
     4  H    0.000715  -0.003145  -0.000177   0.003298  -0.017972
     5  Kr  -0.006136  -0.003572  -0.004005  -0.017972  36.061789
 Mulliken atomic charges:
              1
     1  O    0.005937
     2  O    0.003085
     3  H    0.003801
     4  H    0.017282
     5  Kr  -0.030105
 Sum of Mulliken atomic charges =   0.00000
 Mulliken charges with hydrogens summed into heavy atoms:
              1
     1  O    0.009738
     2  O    0.020367
     5  Kr  -0.030105
 Sum of Mulliken charges with hydrogens summed into heavy atoms =   0.00000
          Condensed to fragments (all electrons):
     1       0.030105
     2      -0.030105
 Electronic spatial extent (au):  <R**2>=            161.4807
 Charge=              0.0000 electrons
 Dipole moment (field-independent basis, Debye):
    X=              0.0009    Y=              0.0004    Z=              0.0001  Tot=              0.0010
 Quadrupole moment (field-independent basis, Debye-Ang):
   XX=            -17.6406   YY=            -17.6545   ZZ=            -17.6620
   XY=              0.0021   XZ=              0.0024   YZ=             -0.0012
 Traceless Quadrupole moment (field-independent basis, Debye-Ang):
   XX=              0.0118   YY=             -0.0021   ZZ=             -0.0096
   XY=              0.0021   XZ=              0.0024   YZ=             -0.0012
 Octapole moment (field-independent basis, Debye-Ang**2):
  XXX=             51.5734  YYY=              0.2543  ZZZ=              0.1735  XYY=             17.2064
  XXY=              0.0793  XXZ=              0.0543  XZZ=             17.2109  YZZ=              0.0848
  YYZ=              0.0586  XYZ=              0.0002
 Hexadecapole moment (field-independent basis, Debye-Ang**3):
 XXXX=           -118.9656 YYYY=            -18.4856 ZZZZ=            -18.5068 XXXY=             -0.2381
 XXXZ=             -0.1618 YYYX=             -0.2393 YYYZ=             -0.0012 ZZZX=             -0.1650
 ZZZY=             -0.0012 XXYY=            -22.9206 XXZZ=            -22.9265 YYZZ=             -6.1643
 XXYZ=             -0.0018 YYXZ=             -0.0547 ZZXY=             -0.0789
 N-N= 0.000000000000D+00 E-N=-6.580152782703D+03  KE= 2.750244204723D+03
 No NMR shielding tensors so no spin-rotation constants.
 Leave Link  601 at Sun May  3 11:45:00 2020, MaxMem= 1073741824 cpu:       0.8
 (Enter /home/matheus/.gaussian/g09/l122.exe)
 Counterpoise: doing MCBS calculation for fragment   1
 Leave Link  122 at Sun May  3 11:45:00 2020, MaxMem= 1073741824 cpu:       0.0
 (Enter /home/matheus/.gaussian/g09/l301.exe)
 Basis read from rwf:  (5D, 7F)
 No pseudopotential information found on rwf file.
 There are   138 symmetry adapted basis functions of A   symmetry.
 Integral buffers will be    131072 words long.
 Raffenetti 2 integral format.
 Two-electron integral symmetry is turned on.
   138 basis functions,   198 primitive gaussians,   160 cartesian basis functions
     9 alpha electrons        9 beta electrons
       nuclear repulsion energy        36.6440881780 Hartrees.
 IExCor= 4639 DFT=T Ex+Corr=wB97XD ExCW=0 ScaHFX=  1.000000
 ScaDFX=  1.000000  1.000000  1.000000  1.000000 ScalE2=  1.000000  1.000000
 IRadAn=      5 IRanWt=     -1 IRanGd=            0 ICorTp=0
  HFx wShort=  0.000000 wLong=  0.250000 cFull=  0.222036 cShort=  0.000000 cLong=  0.777964
  DFx wShort=  0.000000 wLong=  0.250000 cFull=  0.000000 cShort=  0.000000 cLong=  1.000000
 NAtoms=    5 NActive=    4 NUniq=    4 SFac= 1.00D+00 NAtFMM=   60 NAOKFM=F Big=F
 R6Disp: Dispersion energy =        -0.0002538791 Hartrees.
 Nuclear repulsion after empirical dispersion term =       36.6438342990 Hartrees.
 No density basis found on file   718.
 Leave Link  301 at Sun May  3 11:45:00 2020, MaxMem= 1073741824 cpu:       0.2
 (Enter /home/matheus/.gaussian/g09/l302.exe)
 NPDir=0 NMtPBC=     1 NCelOv=     1 NCel=       1 NClECP=     1 NCelD=      1
         NCelK=      1 NCelE2=     1 NClLst=     1 CellRange=     0.0.
 One-electron integrals computed using PRISM.
 NBasis=   138 RedAO= T  NBF=   138
 NBsUse=   138 1.00D-06 NBFU=   138
 Precomputing XC quadrature grid using
 IXCGrd= 2 IRadAn=           5 IRanWt=          -1 IRanGd=           0 AccXCQ= 0.00D+00.
 NRdTot=     344 NPtTot=       92556 NUsed=       95038 NTot=       95070
 NSgBfM=   160   160   160   160   160 NAtAll=     4     4.
 Leave Link  302 at Sun May  3 11:45:00 2020, MaxMem= 1073741824 cpu:       0.8
 (Enter /home/matheus/.gaussian/g09/l303.exe)
 DipDrv:  MaxL=1.
 Leave Link  303 at Sun May  3 11:45:00 2020, MaxMem= 1073741824 cpu:       0.2
 (Enter /home/matheus/.gaussian/g09/l401.exe)
 Harris functional with IExCor= 4639 diagonalized for initial guess.
 ExpMin= 2.53D-02 ExpMax= 1.53D+04 ExpMxC= 5.22D+02 IAcc=3 IRadAn=         5 AccDes= 0.00D+00
 HarFok:  IExCor= 4639 AccDes= 0.00D+00 IRadAn=         5 IDoV= 1
 ScaDFX=  1.000000  1.000000  1.000000  1.000000
 FoFCou: FMM=F IPFlag=           0 FMFlag=      100000 FMFlg1=           0
         NFxFlg=           0 DoJE=T BraDBF=F KetDBF=T FulRan=T
         Omega=  0.000000  0.000000  1.000000  0.000000  0.000000 ICntrl=     500 IOpCl=  0
         NMat0=    1 NMatS0=    1 NMatT0=    0 NMatD0=    1 NMtDS0=    0 NMtDT0=    0
         I1Cent=           4 NGrid=           0.
 Petite list used in FoFCou.
 Harris En= -145.945652807806    
 Initial guess orbital symmetries:
       Occupied  (A) (A) (A) (A) (A) (A) (A) (A) (A)
       Virtual   (A) (A) (A) (A) (A) (A) (A) (A) (A) (A) (A) (A)
                 (A) (A) (A) (A) (A) (A) (A) (A) (A) (A) (A) (A)
                 (A) (A) (A) (A) (A) (A) (A) (A) (A) (A) (A) (A)
                 (A) (A) (A) (A) (A) (A) (A) (A) (A) (A) (A) (A)
                 (A) (A) (A) (A) (A) (A) (A) (A) (A) (A) (A) (A)
                 (A) (A) (A) (A) (A) (A) (A) (A) (A) (A) (A) (A)
                 (A) (A) (A) (A) (A) (A) (A) (A) (A) (A) (A) (A)
                 (A) (A) (A) (A) (A) (A) (A) (A) (A) (A) (A) (A)
                 (A) (A) (A) (A) (A) (A) (A) (A) (A) (A) (A) (A)
                 (A) (A) (A) (A) (A) (A) (A) (A) (A) (A) (A) (A)
                 (A) (A) (A) (A) (A) (A) (A) (A) (A)
 The electronic state of the initial guess is 1-A.
 Leave Link  401 at Sun May  3 11:45:00 2020, MaxMem= 1073741824 cpu:       2.1
 (Enter /home/matheus/.gaussian/g09/l502.exe)
 Closed shell SCF:
 Requested convergence on RMS density matrix=1.00D-08 within 128 cycles.
 Requested convergence on MAX density matrix=1.00D-06.
 Requested convergence on             energy=1.00D-06.
 No special actions if energy rises.
 Using DIIS extrapolation, IDIIS=  1040.
 Integral symmetry usage will be decided dynamically.
        94980 words used for storage of precomputed grid.
 IEnd=      192360 IEndB=      192360 NGot=  1073741824 MDV=  1073591865
 LenX=  1073591865 LenY=  1073565824
 Fock matrices will be formed incrementally for  20 cycles.

 Cycle   1  Pass 1  IDiag  1:
 FoFJK:  IHMeth= 1 ICntrl=     0 DoSepK=T KAlg= 1 I1Cent= 0 FoldK=F
 FoFCou: FMM=F IPFlag=           0 FMFlag=      100000 FMFlg1=           0
         NFxFlg=           0 DoJE=T BraDBF=F KetDBF=F FulRan=T
         Omega=  0.000000  0.000000  1.000000  0.000000  0.000000 ICntrl=     500 IOpCl=  0
         NMat0=    1 NMatS0=    1 NMatT0=    0 NMatD0=    1 NMtDS0=    0 NMtDT0=    0
         I1Cent=           0 NGrid=           0.
 Symmetry not used in FoFCou.
 E= -151.458585244551    
 DIIS: error= 4.75D-02 at cycle   1 NSaved=   1.
 NSaved= 1 IEnMin= 1 EnMin= -151.458585244551     IErMin= 1 ErrMin= 4.75D-02
 ErrMax= 4.75D-02 EMaxC= 1.00D-01 BMatC= 3.20D-01 BMatP= 3.20D-01
 IDIUse=3 WtCom= 5.25D-01 WtEn= 4.75D-01
 Coeff-Com:  0.100D+01
 Coeff-En:   0.100D+01
 Coeff:      0.100D+01
 Gap=     0.543 Goal=   None    Shift=    0.000
 GapD=    0.543 DampG=2.000 DampE=0.500 DampFc=1.0000 IDamp=-1.
 RMSDP=3.44D-03 MaxDP=9.76D-02              OVMax= 1.21D-01

 Cycle   2  Pass 1  IDiag  1:
 RMSU=  2.39D-03    CP:  9.55D-01
 FoFJK:  IHMeth= 1 ICntrl=     0 DoSepK=T KAlg= 1 I1Cent= 0 FoldK=F
 E= -151.499518411011     Delta-E=       -0.040933166460 Rises=F Damp=F
 DIIS: error= 2.65D-02 at cycle   2 NSaved=   2.
 NSaved= 2 IEnMin= 2 EnMin= -151.499518411011     IErMin= 2 ErrMin= 2.65D-02
 ErrMax= 2.65D-02 EMaxC= 1.00D-01 BMatC= 1.01D-01 BMatP= 3.20D-01
 IDIUse=3 WtCom= 7.35D-01 WtEn= 2.65D-01
 Coeff-Com:  0.339D+00 0.661D+00
 Coeff-En:   0.336D+00 0.664D+00
 Coeff:      0.338D+00 0.662D+00
 Gap=     0.489 Goal=   None    Shift=    0.000
 RMSDP=1.43D-03 MaxDP=4.73D-02 DE=-4.09D-02 OVMax= 6.13D-02

 Cycle   3  Pass 1  IDiag  1:
 RMSU=  5.39D-04    CP:  9.75D-01  6.51D-01
 FoFJK:  IHMeth= 1 ICntrl=     0 DoSepK=T KAlg= 1 I1Cent= 0 FoldK=F
 E= -151.554078485439     Delta-E=       -0.054560074427 Rises=F Damp=F
 DIIS: error= 7.03D-03 at cycle   3 NSaved=   3.
[...]
 NSaved= 1 IEnMin= 1 EnMin= -2753.87012716213     IErMin= 1 ErrMin= 1.76D-04
 ErrMax= 1.76D-04 EMaxC= 1.00D-01 BMatC= 3.69D-06 BMatP= 3.69D-06
 IDIUse=3 WtCom= 9.98D-01 WtEn= 1.76D-03
 Coeff-Com:  0.100D+01
 Coeff-En:   0.100D+01
 Coeff:      0.100D+01
 Gap=     0.514 Goal=   None    Shift=    0.000
 RMSDP=1.44D-05 MaxDP=7.78D-04              OVMax= 3.35D-04

 Cycle   2  Pass 1  IDiag  1:
 RMSU=  1.02D-05    CP:  1.00D+00
 FoFJK:  IHMeth= 1 ICntrl=     0 DoSepK=T KAlg= 1 I1Cent= 0 FoldK=F
 E= -2753.87012770202     Delta-E=       -0.000000539882 Rises=F Damp=F
 DIIS: error= 3.90D-06 at cycle   2 NSaved=   2.
 NSaved= 2 IEnMin= 2 EnMin= -2753.87012770202     IErMin= 2 ErrMin= 3.90D-06
 ErrMax= 3.90D-06 EMaxC= 1.00D-01 BMatC= 4.04D-09 BMatP= 3.69D-06
 IDIUse=1 WtCom= 1.00D+00 WtEn= 0.00D+00
 Coeff-Com: -0.102D-01 0.101D+01
 Coeff:     -0.102D-01 0.101D+01
 Gap=     0.513 Goal=   None    Shift=    0.000
 RMSDP=1.57D-06 MaxDP=6.88D-05 DE=-5.40D-07 OVMax= 5.12D-05

 Cycle   3  Pass 1  IDiag  1:
 RMSU=  5.36D-07    CP:  1.00D+00  1.10D+00
 FoFJK:  IHMeth= 1 ICntrl=     0 DoSepK=T KAlg= 1 I1Cent= 0 FoldK=F
 E= -2753.87012770946     Delta-E=       -0.000000007444 Rises=F Damp=F
 DIIS: error= 6.06D-07 at cycle   3 NSaved=   3.
 NSaved= 3 IEnMin= 3 EnMin= -2753.87012770946     IErMin= 3 ErrMin= 6.06D-07
 ErrMax= 6.06D-07 EMaxC= 1.00D-01 BMatC= 1.03D-10 BMatP= 4.04D-09
 IDIUse=1 WtCom= 1.00D+00 WtEn= 0.00D+00
 Coeff-Com:  0.242D-03-0.124D+00 0.112D+01
 Coeff:      0.242D-03-0.124D+00 0.112D+01
 Gap=     0.513 Goal=   None    Shift=    0.000
 RMSDP=2.29D-07 MaxDP=1.10D-05 DE=-7.44D-09 OVMax= 1.04D-05

 Cycle   4  Pass 1  IDiag  1:
 RMSU=  4.99D-08    CP:  1.00D+00  1.10D+00  1.23D+00
 FoFJK:  IHMeth= 1 ICntrl=     0 DoSepK=T KAlg= 1 I1Cent= 0 FoldK=F
 E= -2753.87012770967     Delta-E=       -0.000000000216 Rises=F Damp=F
 DIIS: error= 3.35D-07 at cycle   4 NSaved=   4.
 NSaved= 4 IEnMin= 4 EnMin= -2753.87012770967     IErMin= 4 ErrMin= 3.35D-07
 ErrMax= 3.35D-07 EMaxC= 1.00D-01 BMatC= 9.18D-12 BMatP= 1.03D-10
 IDIUse=1 WtCom= 1.00D+00 WtEn= 0.00D+00
 Coeff-Com:  0.219D-03-0.475D-01 0.290D+00 0.758D+00
 Coeff:      0.219D-03-0.475D-01 0.290D+00 0.758D+00
 Gap=     0.513 Goal=   None    Shift=    0.000
 RMSDP=2.09D-08 MaxDP=8.42D-07 DE=-2.16D-10 OVMax= 1.24D-06

 Cycle   5  Pass 1  IDiag  1:
 RMSU=  8.42D-09    CP:  1.00D+00  1.10D+00  1.25D+00  1.10D+00
 FoFJK:  IHMeth= 1 ICntrl=     0 DoSepK=T KAlg= 1 I1Cent= 0 FoldK=F
 E= -2753.87012770968     Delta-E=       -0.000000000003 Rises=F Damp=F
 DIIS: error= 2.96D-08 at cycle   5 NSaved=   5.
 NSaved= 5 IEnMin= 5 EnMin= -2753.87012770968     IErMin= 5 ErrMin= 2.96D-08
 ErrMax= 2.96D-08 EMaxC= 1.00D-01 BMatC= 1.53D-13 BMatP= 9.18D-12
 IDIUse=1 WtCom= 1.00D+00 WtEn= 0.00D+00
 Coeff-Com: -0.292D-04 0.900D-02-0.705D-01-0.508D-01 0.111D+01
 Coeff:     -0.292D-04 0.900D-02-0.705D-01-0.508D-01 0.111D+01
 Gap=     0.513 Goal=   None    Shift=    0.000
 RMSDP=9.26D-09 MaxDP=5.10D-07 DE=-3.18D-12 OVMax= 4.33D-07

 SCF Done:  E(RwB97XD) =  -2753.87012771     A.U. after    5 cycles
             Convg  =    0.9264D-08             -V/T =  2.0013
 KE= 2.750283674499D+03 PE=-6.580194992175D+03 EE= 1.076041189967D+03
 Leave Link  502 at Sun May  3 12:06:02 2020, MaxMem= 1073741824 cpu:      89.0
 (Enter /home/matheus/.gaussian/g09/l122.exe)
 Restoring MOs from calculation   4 to rwf.
 Counterpoise: doing MCBS calculation for fragment   1
 Leave Link  122 at Sun May  3 12:06:02 2020, MaxMem= 1073741824 cpu:       0.0
 (Enter /home/matheus/.gaussian/g09/l301.exe)
 Basis read from rwf:  (5D, 7F)
 No pseudopotential information found on rwf file.
 There are   138 symmetry adapted basis functions of A   symmetry.
 Integral buffers will be    131072 words long.
 Raffenetti 2 integral format.
 Two-electron integral symmetry is turned on.
   138 basis functions,   198 primitive gaussians,   160 cartesian basis functions
     9 alpha electrons        9 beta electrons
       nuclear repulsion energy        36.6440881780 Hartrees.
 IExCor= 4639 DFT=T Ex+Corr=wB97XD ExCW=0 ScaHFX=  1.000000
 ScaDFX=  1.000000  1.000000  1.000000  1.000000 ScalE2=  1.000000  1.000000
 IRadAn=      5 IRanWt=     -1 IRanGd=            0 ICorTp=0
  HFx wShort=  0.000000 wLong=  0.250000 cFull=  0.222036 cShort=  0.000000 cLong=  0.777964
  DFx wShort=  0.000000 wLong=  0.250000 cFull=  0.000000 cShort=  0.000000 cLong=  1.000000
 NAtoms=    5 NActive=    4 NUniq=    4 SFac= 1.00D+00 NAtFMM=   60 NAOKFM=F Big=F
 R6Disp: Dispersion energy =        -0.0002538791 Hartrees.
 Nuclear repulsion after empirical dispersion term =       36.6438342990 Hartrees.
 No density basis found on file   718.
 Leave Link  301 at Sun May  3 12:06:03 2020, MaxMem= 1073741824 cpu:       0.2
 (Enter /home/matheus/.gaussian/g09/l302.exe)
 NPDir=0 NMtPBC=     1 NCelOv=     1 NCel=       1 NClECP=     1 NCelD=      1
         NCelK=      1 NCelE2=     1 NClLst=     1 CellRange=     0.0.
 One-electron integrals computed using PRISM.
 NBasis=   138 RedAO= T  NBF=   138
 NBsUse=   138 1.00D-06 NBFU=   138
 Precomputing XC quadrature grid using
 IXCGrd= 2 IRadAn=           5 IRanWt=          -1 IRanGd=           0 AccXCQ= 0.00D+00.
 NRdTot=     344 NPtTot=       92556 NUsed=       95038 NTot=       95070
 NSgBfM=   160   160   160   160   160 NAtAll=     4     4.
 Leave Link  302 at Sun May  3 12:06:03 2020, MaxMem= 1073741824 cpu:       0.8
 (Enter /home/matheus/.gaussian/g09/l303.exe)
 DipDrv:  MaxL=1.
 Leave Link  303 at Sun May  3 12:06:03 2020, MaxMem= 1073741824 cpu:       0.2
 (Enter /home/matheus/.gaussian/g09/l401.exe)
 Initial guess read from the read-write file.
 Guess basis will be translated and rotated to current coordinates.
 Initial guess orbital symmetries:
       Occupied  (A) (A) (A) (A) (A) (A) (A) (A) (A)
       Virtual   (A) (A) (A) (A) (A) (A) (A) (A) (A) (A) (A) (A)
                 (A) (A) (A) (A) (A) (A) (A) (A) (A) (A) (A) (A)
                 (A) (A) (A) (A) (A) (A) (A) (A) (A) (A) (A) (A)
                 (A) (A) (A) (A) (A) (A) (A) (A) (A) (A) (A) (A)
                 (A) (A) (A) (A) (A) (A) (A) (A) (A) (A) (A) (A)
                 (A) (A) (A) (A) (A) (A) (A) (A) (A) (A) (A) (A)
                 (A) (A) (A) (A) (A) (A) (A) (A) (A) (A) (A) (A)
                 (A) (A) (A) (A) (A) (A) (A) (A) (A) (A) (A) (A)
                 (A) (A) (A) (A) (A) (A) (A) (A) (A) (A) (A) (A)
                 (A) (A) (A) (A) (A) (A) (A) (A) (A) (A) (A) (A)
                 (A) (A) (A) (A) (A) (A) (A) (A) (A)
 The electronic state of the initial guess is 1-A.
 Generating alternative initial guess.
 Harris functional with IExCor= 4639 diagonalized for initial guess.
 ExpMin= 2.53D-02 ExpMax= 1.53D+04 ExpMxC= 5.22D+02 IAcc=3 IRadAn=         5 AccDes= 0.00D+00
 HarFok:  IExCor= 4639 AccDes= 0.00D+00 IRadAn=         5 IDoV= 1
 ScaDFX=  1.000000  1.000000  1.000000  1.000000
 FoFCou: FMM=F IPFlag=           0 FMFlag=      100000 FMFlg1=           0
         NFxFlg=           0 DoJE=T BraDBF=F KetDBF=T FulRan=T
         Omega=  0.000000  0.000000  1.000000  0.000000  0.000000 ICntrl=     500 IOpCl=  0
         NMat0=    1 NMatS0=    1 NMatT0=    0 NMatD0=    1 NMtDS0=    0 NMtDT0=    0
         I1Cent=           4 NGrid=           0.
 Petite list used in FoFCou.
 Harris En= -145.945652794396    
 Leave Link  401 at Sun May  3 12:06:03 2020, MaxMem= 1073741824 cpu:       2.3
 (Enter /home/matheus/.gaussian/g09/l502.exe)
 Closed shell SCF:
 Requested convergence on RMS density matrix=1.00D-08 within 128 cycles.
 Requested convergence on MAX density matrix=1.00D-06.
 Requested convergence on             energy=1.00D-06.
 No special actions if energy rises.
 Using DIIS extrapolation, IDIIS=  1040.
 Integral symmetry usage will be decided dynamically.
        94980 words used for storage of precomputed grid.
 IEnd=      192360 IEndB=      192360 NGot=  1073741824 MDV=  1073591865
 LenX=  1073591865 LenY=  1073565824
 Fock matrices will be formed incrementally for  20 cycles.

 Cycle   1  Pass 1  IDiag  1:
 FoFJK:  IHMeth= 1 ICntrl=     0 DoSepK=T KAlg= 1 I1Cent= 0 FoldK=F
 FoFCou: FMM=F IPFlag=           0 FMFlag=      100000 FMFlg1=           0
         NFxFlg=           0 DoJE=T BraDBF=F KetDBF=F FulRan=T
         Omega=  0.000000  0.000000  1.000000  0.000000  0.000000 ICntrl=     500 IOpCl=  0
         NMat0=    1 NMatS0=    1 NMatT0=    0 NMatD0=    1 NMtDS0=    0 NMtDT0=    0
         I1Cent=           0 NGrid=           0.
 Symmetry not used in FoFCou.
 E= -151.558130003297    
 DIIS: error= 5.71D-06 at cycle   1 NSaved=   1.
 NSaved= 1 IEnMin= 1 EnMin= -151.558130003297     IErMin= 1 ErrMin= 5.71D-06
 ErrMax= 5.71D-06 EMaxC= 1.00D-01 BMatC= 8.40D-09 BMatP= 8.40D-09
 IDIUse=1 WtCom= 1.00D+00 WtEn= 0.00D+00
 Coeff-Com:  0.100D+01
 Coeff:      0.100D+01
 Gap=     0.422 Goal=   None    Shift=    0.000
 RMSDP=6.24D-07 MaxDP=1.40D-05              OVMax= 2.57D-05

 Cycle   2  Pass 1  IDiag  1:
 RMSU=  4.41D-07    CP:  1.00D+00
 FoFJK:  IHMeth= 1 ICntrl=     0 DoSepK=T KAlg= 1 I1Cent= 0 FoldK=F
 E= -151.558130011940     Delta-E=       -0.000000008642 Rises=F Damp=F
 DIIS: error= 1.20D-06 at cycle   2 NSaved=   2.
 NSaved= 2 IEnMin= 2 EnMin= -151.558130011940     IErMin= 2 ErrMin= 1.20D-06
 ErrMax= 1.20D-06 EMaxC= 1.00D-01 BMatC= 2.78D-10 BMatP= 8.40D-09
 IDIUse=1 WtCom= 1.00D+00 WtEn= 0.00D+00
 Coeff-Com: -0.117D+00 0.112D+01
 Coeff:     -0.117D+00 0.112D+01
 Gap=     0.422 Goal=   None    Shift=    0.000
 RMSDP=1.80D-07 MaxDP=5.02D-06 DE=-8.64D-09 OVMax= 8.54D-06

 Cycle   3  Pass 1  IDiag  1:
 RMSU=  6.61D-08    CP:  1.00D+00  1.25D+00
 FoFJK:  IHMeth= 1 ICntrl=     0 DoSepK=T KAlg= 1 I1Cent= 0 FoldK=F
 E= -151.558130012523     Delta-E=       -0.000000000583 Rises=F Damp=F
 DIIS: error= 3.19D-07 at cycle   3 NSaved=   3.
 NSaved= 3 IEnMin= 3 EnMin= -151.558130012523     IErMin= 3 ErrMin= 3.19D-07
 ErrMax= 3.19D-07 EMaxC= 1.00D-01 BMatC= 1.51D-11 BMatP= 2.78D-10
 IDIUse=1 WtCom= 1.00D+00 WtEn= 0.00D+00
 Coeff-Com: -0.121D-01-0.341D-01 0.105D+01
 Coeff:     -0.121D-01-0.341D-01 0.105D+01
 Gap=     0.422 Goal=   None    Shift=    0.000
 RMSDP=4.85D-08 MaxDP=1.12D-06 DE=-5.83D-10 OVMax= 2.90D-06

 Cycle   4  Pass 1  IDiag  1:
 RMSU=  1.25D-08    CP:  1.00D+00  1.30D+00  1.33D+00
 FoFJK:  IHMeth= 1 ICntrl=     0 DoSepK=T KAlg= 1 I1Cent= 0 FoldK=F
 E= -151.558130012566     Delta-E=       -0.000000000043 Rises=F Damp=F
 DIIS: error= 1.20D-07 at cycle   4 NSaved=   4.
 NSaved= 4 IEnMin= 4 EnMin= -151.558130012566     IErMin= 4 ErrMin= 1.20D-07
 ErrMax= 1.20D-07 EMaxC= 1.00D-01 BMatC= 2.84D-12 BMatP= 1.51D-11
 IDIUse=1 WtCom= 1.00D+00 WtEn= 0.00D+00
 Coeff-Com:  0.600D-02-0.888D-01 0.133D+00 0.949D+00
 Coeff:      0.600D-02-0.888D-01 0.133D+00 0.949D+00
 Gap=     0.422 Goal=   None    Shift=    0.000
 RMSDP=1.68D-08 MaxDP=2.74D-07 DE=-4.31D-11 OVMax= 1.17D-06

 Cycle   5  Pass 1  IDiag  1:
 RMSU=  7.16D-09    CP:  1.00D+00  1.31D+00  1.44D+00  1.16D+00
 FoFJK:  IHMeth= 1 ICntrl=     0 DoSepK=T KAlg= 1 I1Cent= 0 FoldK=F
 E= -151.558130012571     Delta-E=       -0.000000000006 Rises=F Damp=F
 DIIS: error= 1.27D-07 at cycle   5 NSaved=   5.
 NSaved= 5 IEnMin= 5 EnMin= -151.558130012571     IErMin= 4 ErrMin= 1.20D-07
 ErrMax= 1.27D-07 EMaxC= 1.00D-01 BMatC= 1.65D-12 BMatP= 2.84D-12
 IDIUse=1 WtCom= 1.00D+00 WtEn= 0.00D+00
 Coeff-Com:  0.465D-02-0.445D-01-0.543D-01 0.534D+00 0.560D+00
 Coeff:      0.465D-02-0.445D-01-0.543D-01 0.534D+00 0.560D+00
 Gap=     0.422 Goal=   None    Shift=    0.000
 RMSDP=6.04D-09 MaxDP=1.74D-07 DE=-5.71D-12 OVMax= 4.57D-07

 SCF Done:  E(RwB97XD) =  -151.558130013     A.U. after    5 cycles
             Convg  =    0.6038D-08             -V/T =  2.0060
 KE= 1.506535753951D+02 PE=-4.317135378920D+02 EE= 9.285799818539D+01
 Leave Link  502 at Sun May  3 12:06:08 2020, MaxMem= 1073741824 cpu:      36.6
 (Enter /home/matheus/.gaussian/g09/l122.exe)
 Restoring MOs from calculation   5 to rwf.
 Counterpoise: doing MCBS calculation for fragment   2
 Leave Link  122 at Sun May  3 12:06:08 2020, MaxMem= 1073741824 cpu:       0.0
 (Enter /home/matheus/.gaussian/g09/l301.exe)
 Basis read from rwf:  (5D, 7F)
 No pseudopotential information found on rwf file.
 There are    59 symmetry adapted basis functions of A   symmetry.
 Integral buffers will be    131072 words long.
 Raffenetti 2 integral format.
 Two-electron integral symmetry is turned on.
    59 basis functions,   217 primitive gaussians,    69 cartesian basis functions
    18 alpha electrons       18 beta electrons
       nuclear repulsion energy         0.0000000000 Hartrees.
 IExCor= 4639 DFT=T Ex+Corr=wB97XD ExCW=0 ScaHFX=  1.000000
 ScaDFX=  1.000000  1.000000  1.000000  1.000000 ScalE2=  1.000000  1.000000
 IRadAn=      5 IRanWt=     -1 IRanGd=            0 ICorTp=0
  HFx wShort=  0.000000 wLong=  0.250000 cFull=  0.222036 cShort=  0.000000 cLong=  0.777964
  DFx wShort=  0.000000 wLong=  0.250000 cFull=  0.000000 cShort=  0.000000 cLong=  1.000000
 NAtoms=    5 NActive=    1 NUniq=    1 SFac= 1.00D+00 NAtFMM=   60 NAOKFM=F Big=F
 R6Disp: Dispersion energy =         0.0000000000 Hartrees.
 Nuclear repulsion after empirical dispersion term =        0.0000000000 Hartrees.
 No density basis found on file   718.
 Leave Link  301 at Sun May  3 12:06:08 2020, MaxMem= 1073741824 cpu:       0.2
 (Enter /home/matheus/.gaussian/g09/l302.exe)
 NPDir=0 NMtPBC=     1 NCelOv=     1 NCel=       1 NClECP=     1 NCelD=      1
         NCelK=      1 NCelE2=     1 NClLst=     1 CellRange=     0.0.
 One-electron integrals computed using PRISM.
 NBasis=    59 RedAO= T  NBF=    59
 NBsUse=    59 1.00D-06 NBFU=    59
 Precomputing XC quadrature grid using
 IXCGrd= 2 IRadAn=           5 IRanWt=          -1 IRanGd=           0 AccXCQ= 0.00D+00.
 NRdTot=      81 NPtTot=       30352 NUsed=       30981 NTot=       31013
 NSgBfM=    69    69    69    69    69 NAtAll=     1     1.
 Leave Link  302 at Sun May  3 12:06:08 2020, MaxMem= 1073741824 cpu:       0.7
 (Enter /home/matheus/.gaussian/g09/l303.exe)
 DipDrv:  MaxL=1.
 Leave Link  303 at Sun May  3 12:06:08 2020, MaxMem= 1073741824 cpu:       0.1
 (Enter /home/matheus/.gaussian/g09/l401.exe)
 Initial guess read from the read-write file.
 Guess basis will be translated and rotated to current coordinates.
 Initial guess orbital symmetries:
       Occupied  (A) (A) (A) (A) (A) (A) (A) (A) (A) (A) (A) (A)
                 (A) (A) (A) (A) (A) (A)
       Virtual   (A) (A) (A) (A) (A) (A) (A) (A) (A) (A) (A) (A)
                 (A) (A) (A) (A) (A) (A) (A) (A) (A) (A) (A) (A)
                 (A) (A) (A) (A) (A) (A) (A) (A) (A) (A) (A) (A)
                 (A) (A) (A) (A) (A)
 The electronic state of the initial guess is 1-A.
 Generating alternative initial guess.
 Harris functional with IExCor= 4639 diagonalized for initial guess.
 ExpMin= 4.00D-02 ExpMax= 1.17D+07 ExpMxC= 1.33D+04 IAcc=3 IRadAn=         5 AccDes= 0.00D+00
 HarFok:  IExCor= 4639 AccDes= 0.00D+00 IRadAn=         5 IDoV= 1
 ScaDFX=  1.000000  1.000000  1.000000  1.000000
 FoFCou: FMM=F IPFlag=           0 FMFlag=      100000 FMFlg1=           0
         NFxFlg=           0 DoJE=T BraDBF=F KetDBF=T FulRan=T
         Omega=  0.000000  0.000000  1.000000  0.000000  0.000000 ICntrl=     500 IOpCl=  0
         NMat0=    1 NMatS0=    1 NMatT0=    0 NMatD0=    1 NMtDS0=    0 NMtDT0=    0
         I1Cent=           4 NGrid=           0.
 Petite list used in FoFCou.
 Harris En= -2729.45839233129    
 Leave Link  401 at Sun May  3 12:06:08 2020, MaxMem= 1073741824 cpu:       1.0
 (Enter /home/matheus/.gaussian/g09/l502.exe)
 Closed shell SCF:
 Requested convergence on RMS density matrix=1.00D-08 within 128 cycles.
 Requested convergence on MAX density matrix=1.00D-06.
 Requested convergence on             energy=1.00D-06.
 No special actions if energy rises.
 Using DIIS extrapolation, IDIIS=  1040.
 Integral symmetry usage will be decided dynamically.
        30923 words used for storage of precomputed grid.
 IEnd=       64406 IEndB=       64406 NGot=  1073741824 MDV=  1073698889
 LenX=  1073698889 LenY=  1073693687
 Fock matrices will be formed incrementally for  20 cycles.

 Cycle   1  Pass 1  IDiag  1:
 FoFJK:  IHMeth= 1 ICntrl=     0 DoSepK=T KAlg= 1 I1Cent= 0 FoldK=F
 FoFCou: FMM=F IPFlag=           0 FMFlag=      100000 FMFlg1=           0
         NFxFlg=           0 DoJE=T BraDBF=F KetDBF=F FulRan=T
         Omega=  0.000000  0.000000  1.000000  0.000000  0.000000 ICntrl=     500 IOpCl=  0
         NMat0=    1 NMatS0=    1 NMatT0=    0 NMatD0=    1 NMtDS0=    0 NMtDT0=    0
         I1Cent=           0 NGrid=           0.
 Symmetry not used in FoFCou.
 E= -2753.87011063501    
 DIIS: error= 1.51D-13 at cycle   1 NSaved=   1.
 NSaved= 1 IEnMin= 1 EnMin= -2753.87011063501     IErMin= 1 ErrMin= 1.51D-13
 ErrMax= 1.51D-13 EMaxC= 1.00D-01 BMatC= 5.20D-25 BMatP= 5.20D-25
 IDIUse=1 WtCom= 1.00D+00 WtEn= 0.00D+00
 Coeff-Com:  0.100D+01
 Coeff:      0.100D+01
 Gap=     0.578 Goal=   None    Shift=    0.000
 DSYEVD returned Info=          89 IAlg= 4 N=    59 NDim=    59 NE2=    18198197 trying DSYEV.
 RMSDP=8.30D-15 MaxDP=2.16D-13              OVMax= 6.20D-14

 SCF Done:  E(RwB97XD) =  -2753.87011064     A.U. after    1 cycles
             Convg  =    0.8296D-14             -V/T =  2.0013
 KE= 2.750289370128D+03 PE=-6.580200885036D+03 EE= 1.076041404273D+03
 Leave Link  502 at Sun May  3 12:06:09 2020, MaxMem= 1073741824 cpu:      11.3
 (Enter /home/matheus/.gaussian/g09/l122.exe)
 Restoring MOs from calculation   1 to rwf.
 Counterpoise: corrected energy =   -2905.428613219061
 Counterpoise: BSSE energy =       0.000020463927
 Leave Link  122 at Sun May  3 12:06:09 2020, MaxMem= 1073741824 cpu:       0.0
 (Enter /home/matheus/.gaussian/g09/l108.exe)
 Scan completed.

 Summary of the potential surface scan:
   N      R1          SCF    
 ----  ---------  -----------
    1     3.0000  -2753.87011
    2     3.1000  -2753.87011
    3     3.2000  -2753.87011
    4     3.3000  -2753.87011
    5     3.4000  -2753.87011
    6     3.5000  -2753.87011
    7     3.6000  -2753.87011
    8     3.7000  -2753.87011
    9     3.8000  -2753.87011
   10     3.9000  -2753.87011
   11     4.0000  -2753.87011
   12     4.1000  -2753.87011
   13     4.2000  -2753.87011
   14     4.3000  -2753.87011
   15     4.4000  -2753.87011
   16     4.5000  -2753.87011
   17     4.6000  -2753.87011
   18     4.7000  -2753.87011
   19     4.8000  -2753.87011
   20     4.9000  -2753.87011
   21     5.0000  -2753.87011
 ----  ---------  -----------
  
 Leave Link  108 at Sun May  3 12:06:09 2020, MaxMem= 1073741824 cpu:       0.0
 (Enter /home/matheus/.gaussian/g09/l9999.exe)

 Test job not archived.
 1\1\GINC-REDGIANT\Scan\RwB97XD\Aug-CC-pVTZ\H2Kr1O2\ROOT\03-May-2020\1\
 \#p wb97xd/aug-cc-PVTz iop(3/107=0250000000) iop(3/108=0250000000) int
 =ultrafine counterpoise=2 Scan\\TCC\\0,1\O,0,0.,0.,0.725\O,0,0.,0.,-0.
 725\H,0,0.795635374,0.4593602974,1.0235104166\H,0,0.,0.9187205947,-1.0
 235104166\Kr,0,0.,R1,0.\\R1=3.,s,20,0.1\\Version=EM64L-G09RevC.01\Stat
 e=1-A\HF=-2753.8701106,-2753.8701106,-2753.8701106,-2753.8701106,-2753
 .8701106,-2753.8701106,-2753.8701106,-2753.8701106,-2753.8701106,-2753
 .8701106,-2753.8701106,-2753.8701106,-2753.8701106,-2753.8701106,-2753
 .8701106,-2753.8701106,-2753.8701106,-2753.8701106,-2753.8701106,-2753
 .8701106,-2753.8701106\RMSD=9.654e-09,1.848e-10,5.406e-11,3.457e-11,1.
 948e-11,1.188e-11,7.095e-12,4.276e-12,2.567e-12,1.545e-12,9.282e-13,5.
 585e-13,3.345e-13,1.982e-13,1.181e-13,7.316e-14,4.286e-14,2.574e-14,1.
 779e-14,1.157e-14,8.296e-15\PG=C01 [X(H2Kr1O2)]\\@


 FROM AN ANONYMOUS WRITER, ON PERSPECTIVE:

 MAN, DESPITE HIS ARTISTIC PRETENSIONS, HIS SOPHISTICATION AND MANY 
 ACCOMPLISHMENTS, OWES THE FACT OF HIS EXISTENCE TO A SIX-INCH LAYER OF 
 TOPSOIL AND THE FACT THAT IT RAINS.
 Job cpu time:  0 days  3 hours  1 minutes 15.2 seconds.
 File lengths (MBytes):  RWF=     33 Int=      0 D2E=      0 Chk=      8 Scr=      1
 Normal termination of Gaussian 09 at Sun May  3 12:06:09 2020.
