 Entering Gaussian System, Link 0=g09
 Input=/home/matheus/.tcc/Inputs-wb97xd/H2O2-Kr_24.com
 Output=/home/matheus/.tcc/Logs-wb97xd/H2O2-Kr_24.log
 Initial command:
 /home/matheus/.gaussian/g09/l1.exe /home/matheus/.gaussian/g09/scratch/Gau-14408.inp -scrdir=/home/matheus/.gaussian/g09/scratch/
 Entering Link 1 = /home/matheus/.gaussian/g09/l1.exe PID=     14411.
  
 Copyright (c) 1988,1990,1992,1993,1995,1998,2003,2009,2011,
            Gaussian, Inc.  All Rights Reserved.
  
 This is part of the Gaussian(R) 09 program.  It is based on
 the Gaussian(R) 03 system (copyright 2003, Gaussian, Inc.),
 the Gaussian(R) 98 system (copyright 1998, Gaussian, Inc.),
 the Gaussian(R) 94 system (copyright 1995, Gaussian, Inc.),
 the Gaussian 92(TM) system (copyright 1992, Gaussian, Inc.),
 the Gaussian 90(TM) system (copyright 1990, Gaussian, Inc.),
 the Gaussian 88(TM) system (copyright 1988, Gaussian, Inc.),
 the Gaussian 86(TM) system (copyright 1986, Carnegie Mellon
 University), and the Gaussian 82(TM) system (copyright 1983,
 Carnegie Mellon University). Gaussian is a federally registered
 trademark of Gaussian, Inc.
  
 This software contains proprietary and confidential information,
 including trade secrets, belonging to Gaussian, Inc.
  
 This software is provided under written license and may be
 used, copied, transmitted, or stored only in accord with that
 written license.
  
 The following legend is applicable only to US Government
 contracts under FAR:
  
                    RESTRICTED RIGHTS LEGEND
  
 Use, reproduction and disclosure by the US Government is
 subject to restrictions as set forth in subparagraphs (a)
 and (c) of the Commercial Computer Software - Restricted
 Rights clause in FAR 52.227-19.
  
 Gaussian, Inc.
 340 Quinnipiac St., Bldg. 40, Wallingford CT 06492
  
  
 ---------------------------------------------------------------
 Warning -- This program may not be used in any manner that
 competes with the business of Gaussian, Inc. or will provide
 assistance to any competitor of Gaussian, Inc.  The licensee
 of this program is prohibited from giving any competitor of
 Gaussian, Inc. access to this program.  By using this program,
 the user acknowledges that Gaussian, Inc. is engaged in the
 business of creating and licensing software in the field of
 computational chemistry and represents and warrants to the
 licensee that it is not a competitor of Gaussian, Inc. and that
 it will not use this program in any manner prohibited above.
 ---------------------------------------------------------------
  

 Cite this work as:
 Gaussian 09, Revision C.01,
 M. J. Frisch, G. W. Trucks, H. B. Schlegel, G. E. Scuseria, 
 M. A. Robb, J. R. Cheeseman, G. Scalmani, V. Barone, B. Mennucci, 
 G. A. Petersson, H. Nakatsuji, M. Caricato, X. Li, H. P. Hratchian, 
 A. F. Izmaylov, J. Bloino, G. Zheng, J. L. Sonnenberg, M. Hada, 
 M. Ehara, K. Toyota, R. Fukuda, J. Hasegawa, M. Ishida, T. Nakajima, 
 Y. Honda, O. Kitao, H. Nakai, T. Vreven, J. A. Montgomery, Jr., 
 J. E. Peralta, F. Ogliaro, M. Bearpark, J. J. Heyd, E. Brothers, 
 K. N. Kudin, V. N. Staroverov, T. Keith, R. Kobayashi, J. Normand, 
 K. Raghavachari, A. Rendell, J. C. Burant, S. S. Iyengar, J. Tomasi, 
 M. Cossi, N. Rega, J. M. Millam, M. Klene, J. E. Knox, J. B. Cross, 
 V. Bakken, C. Adamo, J. Jaramillo, R. Gomperts, R. E. Stratmann, 
 O. Yazyev, A. J. Austin, R. Cammi, C. Pomelli, J. W. Ochterski, 
 R. L. Martin, K. Morokuma, V. G. Zakrzewski, G. A. Voth, 
 P. Salvador, J. J. Dannenberg, S. Dapprich, A. D. Daniels, 
 O. Farkas, J. B. Foresman, J. V. Ortiz, J. Cioslowski, 
 and D. J. Fox, Gaussian, Inc., Wallingford CT, 2010.
 
 ******************************************
 Gaussian 09:  EM64L-G09RevC.01 23-Sep-2011
                 4-May-2020 
 ******************************************
 %mem=8GB
 %nproc=8
 Will use up to    8 processors via shared memory.
 ----------------------------------------------------------------------
 #p wb97xd/aug-cc-PVTz iop(3/107=0250000000) iop(3/108=0250000000) int=
 ultrafine counterpoise=2 Scan
 ----------------------------------------------------------------------
 1/38=1,60=1,62=2/1,8;
 2/12=2,17=6,18=5,29=3,40=1/2;
 1/38=1,53=5172,62=2/22;
 3/5=16,6=1,7=10,11=2,16=1,25=1,30=1,74=-58,75=-5,107=250000000,108=250000000/1,2,3;
 4//1;
 5/5=2,38=5/2;
 6/7=2,8=2,9=2,10=2,18=1,28=1/1;
 1/53=4052,62=2,63=1/22;
 3/5=7,6=11,7=10,11=2,16=1,25=1,30=1,74=-58,75=-5,82=7,107=250000000,108=250000000/1,2,3;
 4//1;
 5/5=2,38=5/2;
 6/7=2,8=2,9=2,10=2,18=1,28=1/1;
 1/53=3042,62=2,63=2/22;
 3/5=7,6=11,7=10,11=2,16=1,25=1,30=1,74=-58,75=-5,82=7,107=250000000,108=250000000/1,2,3;
 4//1;
 5/5=2,38=5/2;
 6/7=2,8=2,9=2,10=2,18=1,28=1/1;
 1/53=2032,62=2,63=3/22;
 3/5=7,6=11,7=10,11=2,16=1,25=1,30=1,74=-58,75=-5,82=7,107=250000000,108=250000000/1,2,3;
 4//1;
 5/5=2,38=5/2;
 6/7=2,8=2,9=2,10=2,18=1,28=1/1;
 1/53=1022,62=2,63=4/22;
 3/5=7,6=11,7=10,11=2,16=1,25=1,30=1,74=-58,75=-5,82=7,107=250000000,108=250000000/1,2,3;
 4//1;
 5/5=2,38=5/2;
 6/7=2,8=2,9=2,10=2,18=1,28=1/1;
 1/53=5014,62=2,63=5/22;
 1/60=1,62=2/8(1);
 99/9=1/99;
 2/29=3/2;
 1/53=5173,62=2/22;
 3/5=7,6=11,7=10,11=2,16=1,25=1,30=1,74=-58,75=-5,82=7,107=250000000,108=250000000/1,2,3;
 4/5=5,16=3/1;
 5/5=2,38=5/2;
 1/53=4053,62=2,63=1/22;
 3/5=7,6=11,7=10,11=2,16=1,25=1,30=1,74=-58,75=-5,82=7,107=250000000,108=250000000/1,2,3;
 4/5=5,16=3/1;
 5/5=2,38=5/2;
 1/53=3043,62=2,63=2/22;
 3/5=7,6=11,7=10,11=2,16=1,25=1,30=1,74=-58,75=-5,82=7,107=250000000,108=250000000/1,2,3;
 4/5=5,16=3/1;
 5/5=2,38=5/2;
 1/53=2033,62=2,63=3/22;
 3/5=7,6=11,7=10,11=2,16=1,25=1,30=1,74=-58,75=-5,82=7,107=250000000,108=250000000/1,2,3;
 4/5=5,16=3/1;
 5/5=2,38=5/2;
 1/53=1024,62=2,63=4/22;
 3/5=7,6=11,7=10,11=2,16=1,25=1,30=1,74=-58,75=-5,82=7,107=250000000,108=250000000/1,2,3;
 4/5=5,16=3/1;
 5/5=2,38=5/2;
 1/53=5014,62=2,63=5/22;
 1/60=1,62=2/8(-22);
 99/9=1/99;
 Leave Link    1 at Mon May  4 10:33:56 2020, MaxMem= 1073741824 cpu:       0.3
 (Enter /home/matheus/.gaussian/g09/l101.exe)
 ---
 TCC
 ---
 Charge =  0 Multiplicity = 1 in supermolecule
 Charge =  0 Multiplicity = 1 in fragment  1.
 Charge =  0 Multiplicity = 1 in fragment  2.
 Symbolic Z-Matrix:
 O(Fragment=1)         0.        0.        0.725 
 O(Fragment=1)         0.        0.       -0.725 
 H(Fragment=1)        -0.79564  -0.45936   1.02351 
 H(Fragment=1)         0.        0.91872  -1.02351 
 Kr(Fragment=2)        0.       R1        0. 
       Variables:
  R1                    3.     Scan 20    0.1    
 
 NAtoms=      5 NQM=        0 NQMF=       0 NMMI=      5 NMMIF=      0
                NMic=       0 NMicF=      0.
                    Isotopes and Nuclear Properties:
 (Nuclear quadrupole moments (NQMom) in fm**2, nuclear magnetic moments (NMagM)
  in nuclear magnetons)

  Atom         1           2           3           4           5
 IAtWgt=          16          16           1           1          84
 AtmWgt=  15.9949146  15.9949146   1.0078250   1.0078250  83.9115064
 NucSpn=           0           0           1           1           0
 AtZEff=   0.0000000   0.0000000   0.0000000   0.0000000   0.0000000
 NQMom=    0.0000000   0.0000000   0.0000000   0.0000000   0.0000000
 NMagM=    0.0000000   0.0000000   2.7928460   2.7928460   0.0000000
 Leave Link  101 at Mon May  4 10:33:56 2020, MaxMem= 1073741824 cpu:       0.3
 (Enter /home/matheus/.gaussian/g09/l108.exe)
 Scan the potential surface.
 Variable   Value     No. Steps Step-Size
 -------- ----------- --------- ---------
     1       3.000000      20      0.1000
 A total of     21 points will be computed.
 Leave Link  108 at Mon May  4 10:33:56 2020, MaxMem= 1073741824 cpu:       0.0
 (Enter /home/matheus/.gaussian/g09/l202.exe)
 ---------------------------------------------------------------------------------------------------
                            Z-MATRIX (ANGSTROMS AND DEGREES)
   CD    Cent   Atom    N1       Length/X        N2       Alpha/Y        N3        Beta/Z          J
 ---------------------------------------------------------------------------------------------------
      1      1  O        0   0.000000          0.000000          0.725000
      2      2  O        0   0.000000          0.000000         -0.725000
      3      3  H        0  -0.795635         -0.459360          1.023510
      4      4  H        0   0.000000          0.918721         -1.023510
      5      5  Kr       0   0.000000          3.000000          0.000000
 ---------------------------------------------------------------------------------------------------
                         Z-Matrix orientation:                         
 ---------------------------------------------------------------------
 Center     Atomic      Atomic             Coordinates (Angstroms)
 Number     Number       Type             X           Y           Z
 ---------------------------------------------------------------------
      1          8           0        0.000000    0.000000    0.725000
      2          8           0        0.000000    0.000000   -0.725000
      3          1           0       -0.795635   -0.459360    1.023510
      4          1           0        0.000000    0.918721   -1.023510
      5         36           0        0.000000    3.000000    0.000000
 ---------------------------------------------------------------------
                    Distance matrix (angstroms):
                    1          2          3          4          5
     1  O    0.000000
     2  O    1.450000   0.000000
     3  H    0.966000   1.975180   0.000000
     4  H    1.975180   0.966000   2.592766   0.000000
     5  Kr   3.086361   3.086361   3.694291   2.319331   0.000000
 Stoichiometry    H2KrO2
 Framework group  C1[X(H2KrO2)]
 Deg. of freedom     9
 Full point group                 C1      NOp   1
 Largest Abelian subgroup         C1      NOp   1
 Largest concise Abelian subgroup C1      NOp   1
                         Standard orientation:                         
 ---------------------------------------------------------------------
 Center     Atomic      Atomic             Coordinates (Angstroms)
 Number     Number       Type             X           Y           Z
 ---------------------------------------------------------------------
      1          8           0       -2.018349   -0.689087   -0.106614
      2          8           0       -1.996994    0.756239    0.007743
      3          1           0       -2.496711   -1.041750    0.654934
      4          1           0       -1.074134    1.038958    0.047181
      5         36           0        0.991489   -0.014845    0.002468
 ---------------------------------------------------------------------
 Rotational constants (GHZ):     25.8792574      2.3237795      2.1427447
 Leave Link  202 at Mon May  4 10:33:56 2020, MaxMem= 1073741824 cpu:       0.0
 (Enter /home/matheus/.gaussian/g09/l122.exe)
 Leave Link  122 at Mon May  4 10:33:56 2020, MaxMem= 1073741824 cpu:       0.0
 (Enter /home/matheus/.gaussian/g09/l301.exe)
 Standard basis: Aug-CC-pVTZ (5D, 7F)
 Ernie: Thresh=  0.10000D-02 Tol=  0.10000D-05 Strict=F.
 Ernie:  38 primitive shells out of 205 were deleted.
 There are   197 symmetry adapted basis functions of A   symmetry.
 Integral buffers will be    131072 words long.
 Raffenetti 2 integral format.
 Two-electron integral symmetry is turned on.
   197 basis functions,   415 primitive gaussians,   229 cartesian basis functions
    27 alpha electrons       27 beta electrons
       nuclear repulsion energy       148.7418288716 Hartrees.
 IExCor= 4639 DFT=T Ex+Corr=wB97XD ExCW=0 ScaHFX=  1.000000
 ScaDFX=  1.000000  1.000000  1.000000  1.000000 ScalE2=  1.000000  1.000000
 IRadAn=      5 IRanWt=     -1 IRanGd=            0 ICorTp=0
  HFx wShort=  0.000000 wLong=  0.250000 cFull=  0.222036 cShort=  0.000000 cLong=  0.777964
  DFx wShort=  0.000000 wLong=  0.250000 cFull=  0.000000 cShort=  0.000000 cLong=  1.000000
 NAtoms=    5 NActive=    5 NUniq=    5 SFac= 1.00D+00 NAtFMM=   60 NAOKFM=F Big=F
 R6Disp: Dispersion energy =        -0.0008550556 Hartrees.
 Nuclear repulsion after empirical dispersion term =      148.7409738160 Hartrees.
 Leave Link  301 at Mon May  4 10:33:56 2020, MaxMem= 1073741824 cpu:       0.2
 (Enter /home/matheus/.gaussian/g09/l302.exe)
 NPDir=0 NMtPBC=     1 NCelOv=     1 NCel=       1 NClECP=     1 NCelD=      1
         NCelK=      1 NCelE2=     1 NClLst=     1 CellRange=     0.0.
 One-electron integrals computed using PRISM.
 NBasis=   197 RedAO= T  NBF=   197
 NBsUse=   197 1.00D-06 NBFU=   197
 Precomputing XC quadrature grid using
 IXCGrd= 2 IRadAn=           5 IRanWt=          -1 IRanGd=           0 AccXCQ= 0.00D+00.
 NRdTot=     427 NPtTot=      123512 NUsed=      126579 NTot=      126611
 NSgBfM=   229   229   229   229   229 NAtAll=     5     5.
 Leave Link  302 at Mon May  4 10:33:56 2020, MaxMem= 1073741824 cpu:       0.9
 (Enter /home/matheus/.gaussian/g09/l303.exe)
 DipDrv:  MaxL=1.
 Leave Link  303 at Mon May  4 10:33:56 2020, MaxMem= 1073741824 cpu:       0.2
 (Enter /home/matheus/.gaussian/g09/l401.exe)
 Harris functional with IExCor= 4639 diagonalized for initial guess.
 ExpMin= 2.53D-02 ExpMax= 1.17D+07 ExpMxC= 1.33D+04 IAcc=3 IRadAn=         5 AccDes= 0.00D+00
 HarFok:  IExCor= 4639 AccDes= 0.00D+00 IRadAn=         5 IDoV= 1
 ScaDFX=  1.000000  1.000000  1.000000  1.000000
 FoFCou: FMM=F IPFlag=           0 FMFlag=      100000 FMFlg1=           0
         NFxFlg=           0 DoJE=T BraDBF=F KetDBF=T FulRan=T
         Omega=  0.000000  0.000000  1.000000  0.000000  0.000000 ICntrl=     500 IOpCl=  0
         NMat0=    1 NMatS0=    1 NMatT0=    0 NMatD0=    1 NMtDS0=    0 NMtDT0=    0
         I1Cent=           4 NGrid=           0.
 Petite list used in FoFCou.
 Harris En= -2875.39705884099    
 Initial guess orbital symmetries:
       Occupied  (A) (A) (A) (A) (A) (A) (A) (A) (A) (A) (A) (A)
                 (A) (A) (A) (A) (A) (A) (A) (A) (A) (A) (A) (A)
                 (A) (A) (A)
       Virtual   (A) (A) (A) (A) (A) (A) (A) (A) (A) (A) (A) (A)
                 (A) (A) (A) (A) (A) (A) (A) (A) (A) (A) (A) (A)
                 (A) (A) (A) (A) (A) (A) (A) (A) (A) (A) (A) (A)
                 (A) (A) (A) (A) (A) (A) (A) (A) (A) (A) (A) (A)
                 (A) (A) (A) (A) (A) (A) (A) (A) (A) (A) (A) (A)
                 (A) (A) (A) (A) (A) (A) (A) (A) (A) (A) (A) (A)
                 (A) (A) (A) (A) (A) (A) (A) (A) (A) (A) (A) (A)
                 (A) (A) (A) (A) (A) (A) (A) (A) (A) (A) (A) (A)
                 (A) (A) (A) (A) (A) (A) (A) (A) (A) (A) (A) (A)
                 (A) (A) (A) (A) (A) (A) (A) (A) (A) (A) (A) (A)
                 (A) (A) (A) (A) (A) (A) (A) (A) (A) (A) (A) (A)
                 (A) (A) (A) (A) (A) (A) (A) (A) (A) (A) (A) (A)
                 (A) (A) (A) (A) (A) (A) (A) (A) (A) (A) (A) (A)
                 (A) (A) (A) (A) (A) (A) (A) (A) (A) (A) (A) (A)
                 (A) (A)
 The electronic state of the initial guess is 1-A.
 Leave Link  401 at Mon May  4 10:33:57 2020, MaxMem= 1073741824 cpu:       3.9
 (Enter /home/matheus/.gaussian/g09/l502.exe)
 Closed shell SCF:
 Requested convergence on RMS density matrix=1.00D-08 within 128 cycles.
 Requested convergence on MAX density matrix=1.00D-06.
 Requested convergence on             energy=1.00D-06.
 No special actions if energy rises.
 Using DIIS extrapolation, IDIIS=  1040.
 Integral symmetry usage will be decided dynamically.
       126521 words used for storage of precomputed grid.
 IEnd=      305468 IEndB=      305468 NGot=  1073741824 MDV=  1073505667
 LenX=  1073505667 LenY=  1073452785
 Fock matrices will be formed incrementally for  20 cycles.

 Cycle   1  Pass 1  IDiag  1:
 FoFJK:  IHMeth= 1 ICntrl=     0 DoSepK=T KAlg= 1 I1Cent= 0 FoldK=F
 FoFCou: FMM=F IPFlag=           0 FMFlag=      100000 FMFlg1=           0
         NFxFlg=           0 DoJE=T BraDBF=F KetDBF=F FulRan=T
         Omega=  0.000000  0.000000  1.000000  0.000000  0.000000 ICntrl=     500 IOpCl=  0
         NMat0=    1 NMatS0=    1 NMatT0=    0 NMatD0=    1 NMtDS0=    0 NMtDT0=    0
         I1Cent=           0 NGrid=           0.
 Symmetry not used in FoFCou.
 E= -2904.90294153408    
 DIIS: error= 6.13D-02 at cycle   1 NSaved=   1.
 NSaved= 1 IEnMin= 1 EnMin= -2904.90294153408     IErMin= 1 ErrMin= 6.13D-02
 ErrMax= 6.13D-02 EMaxC= 1.00D-01 BMatC= 2.22D+00 BMatP= 2.22D+00
 IDIUse=3 WtCom= 3.87D-01 WtEn= 6.13D-01
 Coeff-Com:  0.100D+01
 Coeff-En:   0.100D+01
 Coeff:      0.100D+01
 Gap=     0.549 Goal=   None    Shift=    0.000
 GapD=    0.549 DampG=2.000 DampE=0.500 DampFc=1.0000 IDamp=-1.
 RMSDP=6.15D-03 MaxDP=3.67D-01              OVMax= 1.81D-01

 Cycle   2  Pass 1  IDiag  1:
 RMSU=  4.32D-03    CP:  1.03D+00
 FoFJK:  IHMeth= 1 ICntrl=     0 DoSepK=T KAlg= 1 I1Cent= 0 FoldK=F
 E= -2905.22245731299     Delta-E=       -0.319515778917 Rises=F Damp=F
 DIIS: error= 2.97D-02 at cycle   2 NSaved=   2.
 NSaved= 2 IEnMin= 2 EnMin= -2905.22245731299     IErMin= 2 ErrMin= 2.97D-02
 ErrMax= 2.97D-02 EMaxC= 1.00D-01 BMatC= 5.66D-01 BMatP= 2.22D+00
 IDIUse=3 WtCom= 7.03D-01 WtEn= 2.97D-01
 Coeff-Com:  0.328D+00 0.672D+00
 Coeff-En:   0.199D+00 0.801D+00
 Coeff:      0.290D+00 0.710D+00
 Gap=     0.492 Goal=   None    Shift=    0.000
 RMSDP=2.68D-03 MaxDP=1.56D-01 DE=-3.20D-01 OVMax= 7.37D-02

 Cycle   3  Pass 1  IDiag  1:
 RMSU=  5.66D-04    CP:  1.02D+00  5.84D-01
 FoFJK:  IHMeth= 1 ICntrl=     0 DoSepK=T KAlg= 1 I1Cent= 0 FoldK=F
 E= -2905.41776157583     Delta-E=       -0.195304262840 Rises=F Damp=F
 DIIS: error= 6.39D-03 at cycle   3 NSaved=   3.
 NSaved= 3 IEnMin= 3 EnMin= -2905.41776157583     IErMin= 3 ErrMin= 6.39D-03
 ErrMax= 6.39D-03 EMaxC= 1.00D-01 BMatC= 1.77D-02 BMatP= 5.66D-01
 IDIUse=3 WtCom= 9.36D-01 WtEn= 6.39D-02
 Coeff-Com:  0.344D-01 0.186D+00 0.779D+00
 Coeff-En:   0.000D+00 0.000D+00 0.100D+01
 Coeff:      0.322D-01 0.174D+00 0.793D+00
 Gap=     0.442 Goal=   None    Shift=    0.000
 RMSDP=4.69D-04 MaxDP=1.90D-02 DE=-1.95D-01 OVMax= 2.61D-02

 Cycle   4  Pass 1  IDiag  1:
 RMSU=  2.29D-04    CP:  1.02D+00  6.38D-01  9.06D-01
 FoFJK:  IHMeth= 1 ICntrl=     0 DoSepK=T KAlg= 1 I1Cent= 0 FoldK=F
 E= -2905.42587589808     Delta-E=       -0.008114322246 Rises=F Damp=F
 DIIS: error= 2.43D-03 at cycle   4 NSaved=   4.
 NSaved= 4 IEnMin= 4 EnMin= -2905.42587589808     IErMin= 4 ErrMin= 2.43D-03
 ErrMax= 2.43D-03 EMaxC= 1.00D-01 BMatC= 1.78D-03 BMatP= 1.77D-02
 IDIUse=3 WtCom= 9.76D-01 WtEn= 2.43D-02
 Coeff-Com: -0.237D-02 0.469D-01 0.370D+00 0.586D+00
 Coeff-En:   0.000D+00 0.000D+00 0.000D+00 0.100D+01
 Coeff:     -0.231D-02 0.457D-01 0.361D+00 0.596D+00
 Gap=     0.427 Goal=   None    Shift=    0.000
 RMSDP=1.17D-04 MaxDP=6.72D-03 DE=-8.11D-03 OVMax= 6.86D-03

 Cycle   5  Pass 1  IDiag  1:
 RMSU=  4.09D-05    CP:  1.02D+00  6.37D-01  9.54D-01  7.13D-01
 FoFJK:  IHMeth= 1 ICntrl=     0 DoSepK=T KAlg= 1 I1Cent= 0 FoldK=F
 E= -2905.42694088649     Delta-E=       -0.001064988406 Rises=F Damp=F
 DIIS: error= 2.43D-04 at cycle   5 NSaved=   5.
 NSaved= 5 IEnMin= 5 EnMin= -2905.42694088649     IErMin= 5 ErrMin= 2.43D-04
 ErrMax= 2.43D-04 EMaxC= 1.00D-01 BMatC= 2.54D-05 BMatP= 1.78D-03
 IDIUse=3 WtCom= 9.98D-01 WtEn= 2.43D-03
 Coeff-Com: -0.148D-02 0.106D-01 0.103D+00 0.187D+00 0.701D+00
 Coeff-En:   0.000D+00 0.000D+00 0.000D+00 0.000D+00 0.100D+01
 Coeff:     -0.147D-02 0.105D-01 0.103D+00 0.186D+00 0.702D+00
 Gap=     0.426 Goal=   None    Shift=    0.000
 RMSDP=2.28D-05 MaxDP=9.96D-04 DE=-1.06D-03 OVMax= 1.53D-03

 Cycle   6  Pass 1  IDiag  1:
 RMSU=  1.45D-05    CP:  1.02D+00  6.37D-01  9.62D-01  7.32D-01  1.08D+00
 FoFJK:  IHMeth= 1 ICntrl=     0 DoSepK=T KAlg= 1 I1Cent= 0 FoldK=F
 E= -2905.42695421503     Delta-E=       -0.000013328541 Rises=F Damp=F
 DIIS: error= 1.70D-04 at cycle   6 NSaved=   6.
 NSaved= 6 IEnMin= 6 EnMin= -2905.42695421503     IErMin= 6 ErrMin= 1.70D-04
 ErrMax= 1.70D-04 EMaxC= 1.00D-01 BMatC= 1.00D-05 BMatP= 2.54D-05
 IDIUse=3 WtCom= 9.98D-01 WtEn= 1.70D-03
 Coeff-Com: -0.252D-03-0.622D-02-0.353D-01-0.481D-01 0.391D+00 0.699D+00
 Coeff-En:   0.000D+00 0.000D+00 0.000D+00 0.000D+00 0.180D+00 0.820D+00
 Coeff:     -0.251D-03-0.621D-02-0.352D-01-0.481D-01 0.391D+00 0.699D+00
 Gap=     0.426 Goal=   None    Shift=    0.000
 RMSDP=1.30D-05 MaxDP=4.52D-04 DE=-1.33D-05 OVMax= 7.32D-04

 Cycle   7  Pass 1  IDiag  1:
 RMSU=  3.77D-06    CP:  1.02D+00  6.37D-01  9.69D-01  7.42D-01  1.24D+00
                    CP:  8.54D-01
 FoFJK:  IHMeth= 1 ICntrl=     0 DoSepK=T KAlg= 1 I1Cent= 0 FoldK=F
 E= -2905.42696163786     Delta-E=       -0.000007422836 Rises=F Damp=F
 DIIS: error= 1.29D-05 at cycle   7 NSaved=   7.
 NSaved= 7 IEnMin= 7 EnMin= -2905.42696163786     IErMin= 7 ErrMin= 1.29D-05
 ErrMax= 1.29D-05 EMaxC= 1.00D-01 BMatC= 6.78D-08 BMatP= 1.00D-05
 IDIUse=1 WtCom= 1.00D+00 WtEn= 0.00D+00
 Coeff-Com:  0.314D-04-0.965D-03-0.718D-02-0.107D-01-0.711D-02 0.528D-01
 Coeff-Com:  0.973D+00
 Coeff:      0.314D-04-0.965D-03-0.718D-02-0.107D-01-0.711D-02 0.528D-01
 Coeff:      0.973D+00
 Gap=     0.426 Goal=   None    Shift=    0.000
 RMSDP=2.63D-06 MaxDP=7.80D-05 DE=-7.42D-06 OVMax= 2.03D-04

 Cycle   8  Pass 1  IDiag  1:
 RMSU=  8.38D-07    CP:  1.02D+00  6.37D-01  9.70D-01  7.44D-01  1.26D+00
                    CP:  9.07D-01  1.20D+00
 FoFJK:  IHMeth= 1 ICntrl=     0 DoSepK=T KAlg= 1 I1Cent= 0 FoldK=F
 E= -2905.42696178270     Delta-E=       -0.000000144834 Rises=F Damp=F
 DIIS: error= 3.25D-06 at cycle   8 NSaved=   8.
 NSaved= 8 IEnMin= 8 EnMin= -2905.42696178270     IErMin= 8 ErrMin= 3.25D-06
 ErrMax= 3.25D-06 EMaxC= 1.00D-01 BMatC= 4.14D-09 BMatP= 6.78D-08
 IDIUse=1 WtCom= 1.00D+00 WtEn= 0.00D+00
 Coeff-Com:  0.132D-04 0.238D-03 0.128D-02 0.146D-02-0.207D-01-0.315D-01
 Coeff-Com:  0.327D-01 0.102D+01
 Coeff:      0.132D-04 0.238D-03 0.128D-02 0.146D-02-0.207D-01-0.315D-01
 Coeff:      0.327D-01 0.102D+01
 Gap=     0.426 Goal=   None    Shift=    0.000
 RMSDP=6.97D-07 MaxDP=1.68D-05 DE=-1.45D-07 OVMax= 6.88D-05

 Cycle   9  Pass 1  IDiag  1:
 RMSU=  2.17D-07    CP:  1.02D+00  6.37D-01  9.70D-01  7.44D-01  1.27D+00
                    CP:  9.16D-01  1.28D+00  1.28D+00
 FoFJK:  IHMeth= 1 ICntrl=     0 DoSepK=T KAlg= 1 I1Cent= 0 FoldK=F
 E= -2905.42696179455     Delta-E=       -0.000000011848 Rises=F Damp=F
 DIIS: error= 1.21D-06 at cycle   9 NSaved=   9.
 NSaved= 9 IEnMin= 9 EnMin= -2905.42696179455     IErMin= 9 ErrMin= 1.21D-06
 ErrMax= 1.21D-06 EMaxC= 1.00D-01 BMatC= 3.70D-10 BMatP= 4.14D-09
 IDIUse=1 WtCom= 1.00D+00 WtEn= 0.00D+00
 Coeff-Com: -0.201D-05 0.637D-04 0.473D-03 0.545D-03 0.492D-03-0.213D-02
 Coeff-Com: -0.588D-01-0.569D-01 0.112D+01
 Coeff:     -0.201D-05 0.637D-04 0.473D-03 0.545D-03 0.492D-03-0.213D-02
 Coeff:     -0.588D-01-0.569D-01 0.112D+01
 Gap=     0.426 Goal=   None    Shift=    0.000
 RMSDP=2.31D-07 MaxDP=6.05D-06 DE=-1.18D-08 OVMax= 2.97D-05

 Cycle  10  Pass 1  IDiag  1:
 RMSU=  7.92D-08    CP:  1.02D+00  6.37D-01  9.70D-01  7.44D-01  1.27D+00
                    CP:  9.18D-01  1.29D+00  1.38D+00  1.42D+00
 FoFJK:  IHMeth= 1 ICntrl=     0 DoSepK=T KAlg= 1 I1Cent= 0 FoldK=F
 E= -2905.42696179597     Delta-E=       -0.000000001425 Rises=F Damp=F
 DIIS: error= 4.20D-07 at cycle  10 NSaved=  10.
 NSaved=10 IEnMin=10 EnMin= -2905.42696179597     IErMin=10 ErrMin= 4.20D-07
 ErrMax= 4.20D-07 EMaxC= 1.00D-01 BMatC= 4.62D-11 BMatP= 3.70D-10
 IDIUse=1 WtCom= 1.00D+00 WtEn= 0.00D+00
 Coeff-Com: -0.534D-06-0.160D-04-0.968D-04-0.973D-04 0.169D-02 0.275D-02
 Coeff-Com:  0.101D-02-0.112D+00 0.741D-01 0.103D+01
 Coeff:     -0.534D-06-0.160D-04-0.968D-04-0.973D-04 0.169D-02 0.275D-02
 Coeff:      0.101D-02-0.112D+00 0.741D-01 0.103D+01
 Gap=     0.426 Goal=   None    Shift=    0.000
 RMSDP=7.98D-08 MaxDP=1.71D-06 DE=-1.43D-09 OVMax= 1.16D-05

 Cycle  11  Pass 1  IDiag  1:
 RMSU=  2.13D-08    CP:  1.02D+00  6.37D-01  9.70D-01  7.44D-01  1.27D+00
                    CP:  9.17D-01  1.29D+00  1.39D+00  1.60D+00  1.35D+00
 FoFJK:  IHMeth= 1 ICntrl=     0 DoSepK=T KAlg= 1 I1Cent= 0 FoldK=F
 E= -2905.42696179616     Delta-E=       -0.000000000191 Rises=F Damp=F
 DIIS: error= 1.56D-07 at cycle  11 NSaved=  11.
 NSaved=11 IEnMin=11 EnMin= -2905.42696179616     IErMin=11 ErrMin= 1.56D-07
 ErrMax= 1.56D-07 EMaxC= 1.00D-01 BMatC= 6.04D-12 BMatP= 4.62D-11
 IDIUse=1 WtCom= 1.00D+00 WtEn= 0.00D+00
 Coeff-Com:  0.450D-06-0.683D-05-0.565D-04-0.491D-04-0.266D-03 0.114D-04
 Coeff-Com:  0.920D-02 0.666D-02-0.129D+00-0.111D+00 0.122D+01
 Coeff:      0.450D-06-0.683D-05-0.565D-04-0.491D-04-0.266D-03 0.114D-04
 Coeff:      0.920D-02 0.666D-02-0.129D+00-0.111D+00 0.122D+01
 Gap=     0.426 Goal=   None    Shift=    0.000
 RMSDP=3.68D-08 MaxDP=7.96D-07 DE=-1.91D-10 OVMax= 5.58D-06

 Cycle  12  Pass 1  IDiag  1:
 RMSU=  7.50D-09    CP:  1.02D+00  6.37D-01  9.70D-01  7.44D-01  1.27D+00
                    CP:  9.17D-01  1.29D+00  1.40D+00  1.67D+00  1.57D+00
                    CP:  1.47D+00
 FoFJK:  IHMeth= 1 ICntrl=     0 DoSepK=T KAlg= 1 I1Cent= 0 FoldK=F
 E= -2905.42696179619     Delta-E=       -0.000000000023 Rises=F Damp=F
 DIIS: error= 4.65D-08 at cycle  12 NSaved=  12.
 NSaved=12 IEnMin=12 EnMin= -2905.42696179619     IErMin=12 ErrMin= 4.65D-08
 ErrMax= 4.65D-08 EMaxC= 1.00D-01 BMatC= 3.69D-13 BMatP= 6.04D-12
 IDIUse=1 WtCom= 1.00D+00 WtEn= 0.00D+00
 Coeff-Com: -0.419D-07 0.103D-05 0.852D-05 0.966D-07-0.122D-03-0.197D-03
 Coeff-Com: -0.319D-03 0.693D-02 0.885D-02-0.730D-01-0.139D+00 0.120D+01
 Coeff:     -0.419D-07 0.103D-05 0.852D-05 0.966D-07-0.122D-03-0.197D-03
 Coeff:     -0.319D-03 0.693D-02 0.885D-02-0.730D-01-0.139D+00 0.120D+01
 Gap=     0.426 Goal=   None    Shift=    0.000
 RMSDP=1.07D-08 MaxDP=2.40D-07 DE=-2.32D-11 OVMax= 1.43D-06

 Cycle  13  Pass 1  IDiag  1:
 RMSU=  1.95D-09    CP:  1.02D+00  6.37D-01  9.70D-01  7.44D-01  1.27D+00
                    CP:  9.17D-01  1.29D+00  1.40D+00  1.68D+00  1.60D+00
                    CP:  1.63D+00  1.54D+00
 FoFJK:  IHMeth= 1 ICntrl=     0 DoSepK=T KAlg= 1 I1Cent= 0 FoldK=F
 E= -2905.42696179618     Delta-E=        0.000000000005 Rises=F Damp=F
 DIIS: error= 8.04D-09 at cycle  13 NSaved=  13.
 NSaved=13 IEnMin=12 EnMin= -2905.42696179619     IErMin=13 ErrMin= 8.04D-09
 ErrMax= 8.04D-09 EMaxC= 1.00D-01 BMatC= 2.52D-14 BMatP= 3.69D-13
 IDIUse=1 WtCom= 1.00D+00 WtEn= 0.00D+00
 Coeff-Com: -0.366D-07 0.442D-06 0.387D-05 0.110D-05 0.111D-04-0.680D-06
 Coeff-Com: -0.516D-03-0.327D-03 0.879D-02 0.300D-02-0.912D-01 0.892D-01
 Coeff-Com:  0.991D+00
 Coeff:     -0.366D-07 0.442D-06 0.387D-05 0.110D-05 0.111D-04-0.680D-06
 Coeff:     -0.516D-03-0.327D-03 0.879D-02 0.300D-02-0.912D-01 0.892D-01
 Coeff:      0.991D+00
 Gap=     0.426 Goal=   None    Shift=    0.000
 RMSDP=2.45D-09 MaxDP=6.46D-08 DE= 5.00D-12 OVMax= 2.30D-07

 SCF Done:  E(RwB97XD) =  -2905.42696180     A.U. after   13 cycles
             Convg  =    0.2453D-08             -V/T =  2.0015
 KE= 2.900933334677D+03 PE=-7.235766468189D+03 EE= 1.280665197900D+03
 Leave Link  502 at Mon May  4 10:34:38 2020, MaxMem= 1073741824 cpu:     326.5
 (Enter /home/matheus/.gaussian/g09/l601.exe)
 Copying SCF densities to generalized density rwf, IOpCl= 0 IROHF=0.

 **********************************************************************

            Population analysis using the SCF density.

 **********************************************************************

 Orbital symmetries:
       Occupied  (A) (A) (A) (A) (A) (A) (A) (A) (A) (A) (A) (A)
                 (A) (A) (A) (A) (A) (A) (A) (A) (A) (A) (A) (A)
                 (A) (A) (A)
       Virtual   (A) (A) (A) (A) (A) (A) (A) (A) (A) (A) (A) (A)
                 (A) (A) (A) (A) (A) (A) (A) (A) (A) (A) (A) (A)
                 (A) (A) (A) (A) (A) (A) (A) (A) (A) (A) (A) (A)
                 (A) (A) (A) (A) (A) (A) (A) (A) (A) (A) (A) (A)
                 (A) (A) (A) (A) (A) (A) (A) (A) (A) (A) (A) (A)
                 (A) (A) (A) (A) (A) (A) (A) (A) (A) (A) (A) (A)
                 (A) (A) (A) (A) (A) (A) (A) (A) (A) (A) (A) (A)
                 (A) (A) (A) (A) (A) (A) (A) (A) (A) (A) (A) (A)
                 (A) (A) (A) (A) (A) (A) (A) (A) (A) (A) (A) (A)
                 (A) (A) (A) (A) (A) (A) (A) (A) (A) (A) (A) (A)
                 (A) (A) (A) (A) (A) (A) (A) (A) (A) (A) (A) (A)
                 (A) (A) (A) (A) (A) (A) (A) (A) (A) (A) (A) (A)
                 (A) (A) (A) (A) (A) (A) (A) (A) (A) (A) (A) (A)
                 (A) (A) (A) (A) (A) (A) (A) (A) (A) (A) (A) (A)
                 (A) (A)
 The electronic state is 1-A.
 Alpha  occ. eigenvalues -- -513.09105 -67.35931 -60.90812 -60.90799 -60.90791
 Alpha  occ. eigenvalues --  -19.33964 -19.33581  -9.81260  -7.50596  -7.50552
 Alpha  occ. eigenvalues --   -7.50526  -3.37277  -3.37269  -3.37249  -3.37213
 Alpha  occ. eigenvalues --   -3.37211  -1.24459  -1.03320  -1.01931  -0.66039
 Alpha  occ. eigenvalues --   -0.60573  -0.53142  -0.49693  -0.49273  -0.48519
 Alpha  occ. eigenvalues --   -0.43190  -0.39027
 Alpha virt. eigenvalues --    0.03561   0.04343   0.08238   0.09867   0.10598
 Alpha virt. eigenvalues --    0.11794   0.13635   0.14039   0.16954   0.17915
 Alpha virt. eigenvalues --    0.18474   0.19048   0.20602   0.22211   0.23656
 Alpha virt. eigenvalues --    0.24359   0.25767   0.28216   0.31267   0.33198
 Alpha virt. eigenvalues --    0.34099   0.34846   0.35703   0.38538   0.39375
 Alpha virt. eigenvalues --    0.40732   0.42098   0.47494   0.51829   0.55072
 Alpha virt. eigenvalues --    0.55684   0.58342   0.60975   0.65751   0.67004
 Alpha virt. eigenvalues --    0.69619   0.70859   0.71538   0.74028   0.74827
 Alpha virt. eigenvalues --    0.75167   0.77207   0.77353   0.79501   0.81389
 Alpha virt. eigenvalues --    0.84424   0.85048   0.87261   0.88861   0.89423
 Alpha virt. eigenvalues --    0.91920   0.93113   0.94626   0.95976   0.99635
 Alpha virt. eigenvalues --    1.00347   1.01779   1.03833   1.05733   1.07131
 Alpha virt. eigenvalues --    1.08670   1.14270   1.14800   1.17274   1.22064
 Alpha virt. eigenvalues --    1.24316   1.30257   1.32109   1.36494   1.40232
 Alpha virt. eigenvalues --    1.41828   1.48871   1.51457   1.52785   1.58326
 Alpha virt. eigenvalues --    1.64999   1.72328   1.81733   1.86007   1.92730
 Alpha virt. eigenvalues --    1.96684   1.99796   2.09309   2.11224   2.14333
 Alpha virt. eigenvalues --    2.14391   2.16936   2.18682   2.20562   2.23889
 Alpha virt. eigenvalues --    2.25593   2.29051   2.30276   2.30694   2.34929
 Alpha virt. eigenvalues --    2.36686   2.38257   2.42668   2.43565   2.47117
 Alpha virt. eigenvalues --    2.47525   2.48553   2.53420   2.53942   2.56602
 Alpha virt. eigenvalues --    2.58718   2.60936   2.62479   2.65823   2.70652
 Alpha virt. eigenvalues --    2.71703   2.75737   2.78097   2.85099   2.86984
 Alpha virt. eigenvalues --    2.89519   3.03819   3.09764   3.13034   3.60298
 Alpha virt. eigenvalues --    3.66326   3.87418   3.94633   4.01356   4.06856
 Alpha virt. eigenvalues --    4.10137   4.15324   4.21178   4.25039   4.27237
 Alpha virt. eigenvalues --    4.41575   4.49682   4.50351   4.54038   4.68477
 Alpha virt. eigenvalues --    4.87768   4.95996   5.04747   5.11228   5.11944
 Alpha virt. eigenvalues --    5.21443   5.43409   5.83526   6.05772   6.10186
 Alpha virt. eigenvalues --    6.12269   6.30351   6.34109   6.42455   6.54118
 Alpha virt. eigenvalues --    6.59043   6.77135   6.78128   6.81253   6.83606
 Alpha virt. eigenvalues --    6.86885   6.87955   6.88706   6.97098   7.01623
 Alpha virt. eigenvalues --    7.05117   7.17571   7.25369   7.42582   7.72449
 Alpha virt. eigenvalues --    7.80725   8.07594   8.11686  13.96644  14.66944
          Condensed to atoms (all electrons):
              1          2          3          4          5
     1  O    8.156906  -0.163285   0.229994   0.001245  -0.021947
     2  O   -0.163285   8.237013   0.008453   0.202114  -0.016869
     3  H    0.229994   0.008453   0.542597   0.002697   0.002183
     4  H    0.001245   0.202114   0.002697   0.550184  -0.004273
     5  Kr  -0.021947  -0.016869   0.002183  -0.004273  36.032677
 Mulliken atomic charges:
              1
     1  O   -0.202913
     2  O   -0.267426
     3  H    0.214077
     4  H    0.248034
     5  Kr   0.008229
 Sum of Mulliken atomic charges =   0.00000
 Mulliken charges with hydrogens summed into heavy atoms:
              1
     1  O    0.011163
     2  O   -0.019392
     5  Kr   0.008229
 Sum of Mulliken charges with hydrogens summed into heavy atoms =   0.00000
          Condensed to fragments (all electrons):
     1      -0.008229
     2       0.008229
 Electronic spatial extent (au):  <R**2>=            488.3353
 Charge=              0.0000 electrons
 Dipole moment (field-independent basis, Debye):
    X=              0.9317    Y=             -0.3913    Z=              1.3199  Tot=              1.6623
 Quadrupole moment (field-independent basis, Debye-Ang):
   XX=            -30.9181   YY=            -28.0428   ZZ=            -29.4548
   XY=              3.2185   XZ=             -3.5959   YZ=             -1.5286
 Traceless Quadrupole moment (field-independent basis, Debye-Ang):
   XX=             -1.4462   YY=              1.4291   ZZ=              0.0171
   XY=              3.2185   XZ=             -3.5959   YZ=             -1.5286
 Octapole moment (field-independent basis, Debye-Ang**2):
  XXX=             20.0985  YYY=             -1.0058  ZZZ=              0.9128  XYY=              4.3060
  XXY=            -11.8713  XXZ=              9.2251  XZZ=              5.7809  YZZ=             -1.4721
  YYZ=              1.8634  XYZ=              4.0564
 Hexadecapole moment (field-independent basis, Debye-Ang**3):
 XXXX=           -412.6562 YYYY=            -63.3627 ZZZZ=            -29.9708 XXXY=             31.8247
 XXXZ=            -24.7279 YYYX=              5.3655 YYYZ=             -2.1017 ZZZX=             -2.7819
 ZZZY=             -1.4034 XXYY=            -76.9926 XXZZ=            -72.4452 YYZZ=            -16.4140
 XXYZ=            -10.6633 YYXZ=             -4.7285 ZZXY=              3.2077
 N-N= 1.487409738160D+02 E-N=-7.235766467865D+03  KE= 2.900933334677D+03
 No NMR shielding tensors so no spin-rotation constants.
 Leave Link  601 at Mon May  4 10:34:38 2020, MaxMem= 1073741824 cpu:       0.9
 (Enter /home/matheus/.gaussian/g09/l122.exe)
 Counterpoise: doing DCBS calculation for fragment   1 NewBq=T
 Leave Link  122 at Mon May  4 10:34:38 2020, MaxMem= 1073741824 cpu:       0.0
 (Enter /home/matheus/.gaussian/g09/l301.exe)
 Basis read from rwf:  (5D, 7F)
 No pseudopotential information found on rwf file.
 There are   197 symmetry adapted basis functions of A   symmetry.
 Integral buffers will be    131072 words long.
 Raffenetti 2 integral format.
 Two-electron integral symmetry is turned on.
   197 basis functions,   415 primitive gaussians,   229 cartesian basis functions
     9 alpha electrons        9 beta electrons
       nuclear repulsion energy        36.6123390277 Hartrees.
 IExCor= 4639 DFT=T Ex+Corr=wB97XD ExCW=0 ScaHFX=  1.000000
 ScaDFX=  1.000000  1.000000  1.000000  1.000000 ScalE2=  1.000000  1.000000
 IRadAn=      5 IRanWt=     -1 IRanGd=            0 ICorTp=0
  HFx wShort=  0.000000 wLong=  0.250000 cFull=  0.222036 cShort=  0.000000 cLong=  0.777964
  DFx wShort=  0.000000 wLong=  0.250000 cFull=  0.000000 cShort=  0.000000 cLong=  1.000000
 NAtoms=    5 NActive=    5 NUniq=    5 SFac= 1.00D+00 NAtFMM=   60 NAOKFM=F Big=F
 R6Disp: Dispersion energy =        -0.0002268130 Hartrees.
 Nuclear repulsion after empirical dispersion term =       36.6121122147 Hartrees.
 No density basis found on file   718.
 Leave Link  301 at Mon May  4 10:34:38 2020, MaxMem= 1073741824 cpu:       0.2
 (Enter /home/matheus/.gaussian/g09/l302.exe)
 NPDir=0 NMtPBC=     1 NCelOv=     1 NCel=       1 NClECP=     1 NCelD=      1
         NCelK=      1 NCelE2=     1 NClLst=     1 CellRange=     0.0.
 One-electron integrals computed using PRISM.
 NBasis=   197 RedAO= T  NBF=   197
 NBsUse=   197 1.00D-06 NBFU=   197
 Precomputing XC quadrature grid using
 IXCGrd= 2 IRadAn=           5 IRanWt=          -1 IRanGd=           0 AccXCQ= 0.00D+00.
 NRdTot=     427 NPtTot=      123512 NUsed=      126579 NTot=      126611
 NSgBfM=   229   229   229   229   229 NAtAll=     5     5.
 Leave Link  302 at Mon May  4 10:34:38 2020, MaxMem= 1073741824 cpu:       1.0
 (Enter /home/matheus/.gaussian/g09/l303.exe)
 DipDrv:  MaxL=1.
 Leave Link  303 at Mon May  4 10:34:38 2020, MaxMem= 1073741824 cpu:       0.2
 (Enter /home/matheus/.gaussian/g09/l401.exe)
 Harris functional with IExCor= 4639 diagonalized for initial guess.
 ExpMin= 2.53D-02 ExpMax= 1.17D+07 ExpMxC= 1.33D+04 IAcc=3 IRadAn=         5 AccDes= 0.00D+00
 HarFok:  IExCor= 4639 AccDes= 0.00D+00 IRadAn=         5 IDoV= 1
 ScaDFX=  1.000000  1.000000  1.000000  1.000000
 FoFCou: FMM=F IPFlag=           0 FMFlag=      100000 FMFlg1=           0
         NFxFlg=           0 DoJE=T BraDBF=F KetDBF=T FulRan=T
         Omega=  0.000000  0.000000  1.000000  0.000000  0.000000 ICntrl=     500 IOpCl=  0
         NMat0=    1 NMatS0=    1 NMatT0=    0 NMatD0=    1 NMtDS0=    0 NMtDT0=    0
         I1Cent=           4 NGrid=           0.
 Petite list used in FoFCou.
 Harris En= -145.945969079051    
 Initial guess orbital symmetries:
       Occupied  (A) (A) (A) (A) (A) (A) (A) (A) (A)
       Virtual   (A) (A) (A) (A) (A) (A) (A) (A) (A) (A) (A) (A)
                 (A) (A) (A) (A) (A) (A) (A) (A) (A) (A) (A) (A)
                 (A) (A) (A) (A) (A) (A) (A) (A) (A) (A) (A) (A)
                 (A) (A) (A) (A) (A) (A) (A) (A) (A) (A) (A) (A)
                 (A) (A) (A) (A) (A) (A) (A) (A) (A) (A) (A) (A)
                 (A) (A) (A) (A) (A) (A) (A) (A) (A) (A) (A) (A)
                 (A) (A) (A) (A) (A) (A) (A) (A) (A) (A) (A) (A)
                 (A) (A) (A) (A) (A) (A) (A) (A) (A) (A) (A) (A)
                 (A) (A) (A) (A) (A) (A) (A) (A) (A) (A) (A) (A)
                 (A) (A) (A) (A) (A) (A) (A) (A) (A) (A) (A) (A)
                 (A) (A) (A) (A) (A) (A) (A) (A) (A) (A) (A) (A)
                 (A) (A) (A) (A) (A) (A) (A) (A) (A) (A) (A) (A)
                 (A) (A) (A) (A) (A) (A) (A) (A) (A) (A) (A) (A)
                 (A) (A) (A) (A) (A) (A) (A) (A) (A) (A) (A) (A)
                 (A) (A) (A) (A) (A) (A) (A) (A) (A) (A) (A) (A)
                 (A) (A) (A) (A) (A) (A) (A) (A)
 The electronic state of the initial guess is 1-A.
 Leave Link  401 at Mon May  4 10:34:38 2020, MaxMem= 1073741824 cpu:       3.8
 (Enter /home/matheus/.gaussian/g09/l502.exe)
 Closed shell SCF:
 Requested convergence on RMS density matrix=1.00D-08 within 128 cycles.
 Requested convergence on MAX density matrix=1.00D-06.
 Requested convergence on             energy=1.00D-06.
 No special actions if energy rises.
 Using DIIS extrapolation, IDIIS=  1040.
 Integral symmetry usage will be decided dynamically.
       126521 words used for storage of precomputed grid.
 IEnd=      305468 IEndB=      305468 NGot=  1073741824 MDV=  1073505667
 LenX=  1073505667 LenY=  1073452785
 Fock matrices will be formed incrementally for  20 cycles.

 Cycle   1  Pass 1  IDiag  1:
 FoFJK:  IHMeth= 1 ICntrl=     0 DoSepK=T KAlg= 1 I1Cent= 0 FoldK=F
 FoFCou: FMM=F IPFlag=           0 FMFlag=      100000 FMFlg1=           0
         NFxFlg=           0 DoJE=T BraDBF=F KetDBF=F FulRan=T
         Omega=  0.000000  0.000000  1.000000  0.000000  0.000000 ICntrl=     500 IOpCl=  0
         NMat0=    1 NMatS0=    1 NMatT0=    0 NMatD0=    1 NMtDS0=    0 NMtDT0=    0
         I1Cent=           0 NGrid=           0.
 Symmetry not used in FoFCou.
 E= -151.460782031702    
 DIIS: error= 2.45D-02 at cycle   1 NSaved=   1.
 NSaved= 1 IEnMin= 1 EnMin= -151.460782031702     IErMin= 1 ErrMin= 2.45D-02
 ErrMax= 2.45D-02 EMaxC= 1.00D-01 BMatC= 3.21D-01 BMatP= 3.21D-01
 IDIUse=3 WtCom= 7.55D-01 WtEn= 2.45D-01
 Coeff-Com:  0.100D+01
 Coeff-En:   0.100D+01
 Coeff:      0.100D+01
 Gap=     0.547 Goal=   None    Shift=    0.000
 GapD=    0.547 DampG=2.000 DampE=0.500 DampFc=1.0000 IDamp=-1.
 RMSDP=2.44D-03 MaxDP=1.02D-01              OVMax= 1.23D-01

 Cycle   2  Pass 1  IDiag  1:
 RMSU=  1.69D-03    CP:  9.54D-01
 FoFJK:  IHMeth= 1 ICntrl=     0 DoSepK=T KAlg= 1 I1Cent= 0 FoldK=F
 E= -151.499779626344     Delta-E=       -0.038997594642 Rises=F Damp=F
 DIIS: error= 1.59D-02 at cycle   2 NSaved=   2.
 NSaved= 2 IEnMin= 2 EnMin= -151.499779626344     IErMin= 2 ErrMin= 1.59D-02
 ErrMax= 1.59D-02 EMaxC= 1.00D-01 BMatC= 1.04D-01 BMatP= 3.21D-01
 IDIUse=3 WtCom= 8.41D-01 WtEn= 1.59D-01
 Coeff-Com:  0.342D+00 0.658D+00
 Coeff-En:   0.348D+00 0.652D+00
 Coeff:      0.343D+00 0.657D+00
 Gap=     0.489 Goal=   None    Shift=    0.000
 RMSDP=9.99D-04 MaxDP=4.88D-02 DE=-3.90D-02 OVMax= 6.00D-02

 Cycle   3  Pass 1  IDiag  1:
 RMSU=  3.77D-04    CP:  9.74D-01  6.57D-01
 FoFJK:  IHMeth= 1 ICntrl=     0 DoSepK=T KAlg= 1 I1Cent= 0 FoldK=F
 E= -151.556465465802     Delta-E=       -0.056685839459 Rises=F Damp=F
 DIIS: error= 4.68D-03 at cycle   3 NSaved=   3.
 NSaved= 3 IEnMin= 3 EnMin= -151.556465465802     IErMin= 3 ErrMin= 4.68D-03
 ErrMax= 4.68D-03 EMaxC= 1.00D-01 BMatC= 5.53D-03 BMatP= 1.04D-01
 IDIUse=3 WtCom= 9.53D-01 WtEn= 4.68D-02
 Coeff-Com:  0.892D-02 0.193D+00 0.798D+00
 Coeff-En:   0.000D+00 0.000D+00 0.100D+01
 Coeff:      0.850D-02 0.184D+00 0.808D+00
 Gap=     0.427 Goal=   None    Shift=    0.000
 RMSDP=2.59D-04 MaxDP=1.00D-02 DE=-5.67D-02 OVMax= 1.62D-02

 Cycle   4  Pass 1  IDiag  1:
 RMSU=  7.25D-05    CP:  9.69D-01  7.50D-01  8.78D-01
 FoFJK:  IHMeth= 1 ICntrl=     0 DoSepK=T KAlg= 1 I1Cent= 0 FoldK=F
 E= -151.560035556147     Delta-E=       -0.003570090345 Rises=F Damp=F
 DIIS: error= 3.97D-04 at cycle   4 NSaved=   4.
 NSaved= 4 IEnMin= 4 EnMin= -151.560035556147     IErMin= 4 ErrMin= 3.97D-04
 ErrMax= 3.97D-04 EMaxC= 1.00D-01 BMatC= 5.45D-05 BMatP= 5.53D-03
 IDIUse=3 WtCom= 9.96D-01 WtEn= 3.97D-03
 Coeff-Com: -0.139D-02 0.173D-02 0.948D-01 0.905D+00
 Coeff-En:   0.000D+00 0.000D+00 0.000D+00 0.100D+01
 Coeff:     -0.138D-02 0.173D-02 0.944D-01 0.905D+00
 Gap=     0.424 Goal=   None    Shift=    0.000
 RMSDP=3.82D-05 MaxDP=2.03D-03 DE=-3.57D-03 OVMax= 1.62D-03

 Cycle   5  Pass 1  IDiag  1:
 RMSU=  1.26D-05    CP:  9.69D-01  7.46D-01  9.29D-01  1.16D+00
 FoFJK:  IHMeth= 1 ICntrl=     0 DoSepK=T KAlg= 1 I1Cent= 0 FoldK=F
 E= -151.560078798439     Delta-E=       -0.000043242292 Rises=F Damp=F
 DIIS: error= 4.95D-05 at cycle   5 NSaved=   5.
 NSaved= 5 IEnMin= 5 EnMin= -151.560078798439     IErMin= 5 ErrMin= 4.95D-05
 ErrMax= 4.95D-05 EMaxC= 1.00D-01 BMatC= 7.91D-07 BMatP= 5.45D-05
 IDIUse=1 WtCom= 1.00D+00 WtEn= 0.00D+00
 Coeff-Com: -0.472D-03-0.109D-01-0.446D-01-0.445D-01 0.110D+01
 Coeff:     -0.472D-03-0.109D-01-0.446D-01-0.445D-01 0.110D+01
 Gap=     0.424 Goal=   None    Shift=    0.000
 RMSDP=1.24D-05 MaxDP=5.17D-04 DE=-4.32D-05 OVMax= 8.73D-04

 Cycle   6  Pass 1  IDiag  1:
 RMSU=  2.69D-06    CP:  9.69D-01  7.46D-01  9.41D-01  1.24D+00  1.27D+00
 FoFJK:  IHMeth= 1 ICntrl=     0 DoSepK=T KAlg= 1 I1Cent= 0 FoldK=F
 E= -151.560080936355     Delta-E=       -0.000002137916 Rises=F Damp=F
 DIIS: error= 1.04D-05 at cycle   6 NSaved=   6.
 NSaved= 6 IEnMin= 6 EnMin= -151.560080936355     IErMin= 6 ErrMin= 1.04D-05
 ErrMax= 1.04D-05 EMaxC= 1.00D-01 BMatC= 2.82D-08 BMatP= 7.91D-07
 IDIUse=1 WtCom= 1.00D+00 WtEn= 0.00D+00
 Coeff-Com:  0.511D-04 0.183D-03-0.224D-02-0.234D-01-0.125D-01 0.104D+01
 Coeff:      0.511D-04 0.183D-03-0.224D-02-0.234D-01-0.125D-01 0.104D+01
 Gap=     0.424 Goal=   None    Shift=    0.000
 RMSDP=1.78D-06 MaxDP=6.83D-05 DE=-2.14D-06 OVMax= 1.89D-04

 Cycle   7  Pass 1  IDiag  1:
 RMSU=  4.64D-07    CP:  9.70D-01  7.46D-01  9.41D-01  1.25D+00  1.32D+00
                    CP:  1.31D+00
 FoFJK:  IHMeth= 1 ICntrl=     0 DoSepK=T KAlg= 1 I1Cent= 0 FoldK=F
 E= -151.560081025177     Delta-E=       -0.000000088822 Rises=F Damp=F
 DIIS: error= 3.72D-06 at cycle   7 NSaved=   7.
 NSaved= 7 IEnMin= 7 EnMin= -151.560081025177     IErMin= 7 ErrMin= 3.72D-06
 ErrMax= 3.72D-06 EMaxC= 1.00D-01 BMatC= 2.33D-09 BMatP= 2.82D-08
 IDIUse=1 WtCom= 1.00D+00 WtEn= 0.00D+00
 Coeff-Com:  0.864D-05 0.427D-03 0.244D-02 0.432D-02-0.474D-01-0.212D+00
 Coeff-Com:  0.125D+01
 Coeff:      0.864D-05 0.427D-03 0.244D-02 0.432D-02-0.474D-01-0.212D+00
 Coeff:      0.125D+01
 Gap=     0.424 Goal=   None    Shift=    0.000
 RMSDP=6.13D-07 MaxDP=1.83D-05 DE=-8.88D-08 OVMax= 8.24D-05

 Cycle   8  Pass 1  IDiag  1:
 RMSU=  1.72D-07    CP:  9.70D-01  7.46D-01  9.42D-01  1.25D+00  1.34D+00
                    CP:  1.40D+00  1.51D+00
 FoFJK:  IHMeth= 1 ICntrl=     0 DoSepK=T KAlg= 1 I1Cent= 0 FoldK=F
 E= -151.560081035238     Delta-E=       -0.000000010061 Rises=F Damp=F
 DIIS: error= 9.21D-07 at cycle   8 NSaved=   8.
 NSaved= 8 IEnMin= 8 EnMin= -151.560081035238     IErMin= 8 ErrMin= 9.21D-07
 ErrMax= 9.21D-07 EMaxC= 1.00D-01 BMatC= 2.34D-10 BMatP= 2.33D-09
 IDIUse=1 WtCom= 1.00D+00 WtEn= 0.00D+00
 Coeff-Com: -0.356D-06 0.222D-04 0.207D-03 0.598D-03 0.189D-02-0.751D-01
 Coeff-Com:  0.120D+00 0.952D+00
 Coeff:     -0.356D-06 0.222D-04 0.207D-03 0.598D-03 0.189D-02-0.751D-01
 Coeff:      0.120D+00 0.952D+00
 Gap=     0.424 Goal=   None    Shift=    0.000
 RMSDP=1.44D-07 MaxDP=3.67D-06 DE=-1.01D-08 OVMax= 2.02D-05

 Cycle   9  Pass 1  IDiag  1:
 RMSU=  4.78D-08    CP:  9.70D-01  7.46D-01  9.42D-01  1.25D+00  1.34D+00
                    CP:  1.40D+00  1.64D+00  1.37D+00
 FoFJK:  IHMeth= 1 ICntrl=     0 DoSepK=T KAlg= 1 I1Cent= 0 FoldK=F
 E= -151.560081035835     Delta-E=       -0.000000000597 Rises=F Damp=F
 DIIS: error= 6.94D-07 at cycle   9 NSaved=   9.
 NSaved= 9 IEnMin= 9 EnMin= -151.560081035835     IErMin= 9 ErrMin= 6.94D-07
 ErrMax= 6.94D-07 EMaxC= 1.00D-01 BMatC= 1.45D-10 BMatP= 2.34D-10
 IDIUse=1 WtCom= 1.00D+00 WtEn= 0.00D+00
 Coeff-Com: -0.137D-05-0.602D-04-0.324D-03-0.592D-03 0.105D-01-0.111D-01
 Coeff-Com: -0.143D+00 0.522D+00 0.622D+00
 Coeff:     -0.137D-05-0.602D-04-0.324D-03-0.592D-03 0.105D-01-0.111D-01
 Coeff:     -0.143D+00 0.522D+00 0.622D+00
 Gap=     0.424 Goal=   None    Shift=    0.000
 RMSDP=6.50D-08 MaxDP=1.88D-06 DE=-5.97D-10 OVMax= 8.93D-06

 Cycle  10  Pass 1  IDiag  1:
 RMSU=  2.13D-08    CP:  9.70D-01  7.46D-01  9.42D-01  1.25D+00  1.34D+00
                    CP:  1.40D+00  1.69D+00  1.56D+00  9.06D-01
 FoFJK:  IHMeth= 1 ICntrl=     0 DoSepK=T KAlg= 1 I1Cent= 0 FoldK=F
 E= -151.560081036025     Delta-E=       -0.000000000190 Rises=F Damp=F
 DIIS: error= 2.30D-07 at cycle  10 NSaved=  10.
 NSaved=10 IEnMin=10 EnMin= -151.560081036025     IErMin=10 ErrMin= 2.30D-07
 ErrMax= 2.30D-07 EMaxC= 1.00D-01 BMatC= 1.33D-11 BMatP= 1.45D-10
 IDIUse=1 WtCom= 1.00D+00 WtEn= 0.00D+00
 Coeff-Com: -0.153D-07-0.150D-04-0.120D-03-0.392D-03 0.211D-02 0.125D-01
 Coeff-Com: -0.446D-01-0.185D+00 0.861D-01 0.113D+01
 Coeff:     -0.153D-07-0.150D-04-0.120D-03-0.392D-03 0.211D-02 0.125D-01
 Coeff:     -0.446D-01-0.185D+00 0.861D-01 0.113D+01
 Gap=     0.424 Goal=   None    Shift=    0.000
 RMSDP=4.79D-08 MaxDP=1.01D-06 DE=-1.90D-10 OVMax= 7.34D-06

 Cycle  11  Pass 1  IDiag  1:
 RMSU=  8.20D-09    CP:  9.70D-01  7.46D-01  9.42D-01  1.25D+00  1.34D+00
                    CP:  1.40D+00  1.72D+00  1.69D+00  1.20D+00  1.49D+00
 FoFJK:  IHMeth= 1 ICntrl=     0 DoSepK=T KAlg= 1 I1Cent= 0 FoldK=F
 E= -151.560081036070     Delta-E=       -0.000000000045 Rises=F Damp=F
 DIIS: error= 4.87D-08 at cycle  11 NSaved=  11.
 NSaved=11 IEnMin=11 EnMin= -151.560081036070     IErMin=11 ErrMin= 4.87D-08
 ErrMax= 4.87D-08 EMaxC= 1.00D-01 BMatC= 6.78D-13 BMatP= 1.33D-11
 IDIUse=1 WtCom= 1.00D+00 WtEn= 0.00D+00
 Coeff-Com: -0.114D-06 0.200D-05 0.229D-04 0.304D-04-0.617D-03-0.787D-03
 Coeff-Com:  0.173D-01-0.378D-01-0.619D-01-0.357D-01 0.112D+01
 Coeff:     -0.114D-06 0.200D-05 0.229D-04 0.304D-04-0.617D-03-0.787D-03
 Coeff:      0.173D-01-0.378D-01-0.619D-01-0.357D-01 0.112D+01
 Gap=     0.424 Goal=   None    Shift=    0.000
 RMSDP=1.33D-08 MaxDP=3.69D-07 DE=-4.53D-11 OVMax= 1.63D-06

 Cycle  12  Pass 1  IDiag  1:
 RMSU=  2.15D-09    CP:  9.70D-01  7.46D-01  9.42D-01  1.25D+00  1.34D+00
                    CP:  1.40D+00  1.73D+00  1.71D+00  1.26D+00  1.72D+00
                    CP:  1.45D+00
 FoFJK:  IHMeth= 1 ICntrl=     0 DoSepK=T KAlg= 1 I1Cent= 0 FoldK=F
 E= -151.560081036072     Delta-E=       -0.000000000002 Rises=F Damp=F
 DIIS: error= 1.37D-08 at cycle  12 NSaved=  12.
 NSaved=12 IEnMin=12 EnMin= -151.560081036072     IErMin=12 ErrMin= 1.37D-08
 ErrMax= 1.37D-08 EMaxC= 1.00D-01 BMatC= 4.70D-14 BMatP= 6.78D-13
 IDIUse=1 WtCom= 1.00D+00 WtEn= 0.00D+00
 Coeff-Com: -0.429D-07 0.853D-06 0.952D-05 0.230D-04-0.147D-03-0.106D-02
 Coeff-Com:  0.420D-02 0.930D-02-0.104D-01-0.802D-01 0.321D-01 0.105D+01
 Coeff:     -0.429D-07 0.853D-06 0.952D-05 0.230D-04-0.147D-03-0.106D-02
 Coeff:      0.420D-02 0.930D-02-0.104D-01-0.802D-01 0.321D-01 0.105D+01
 Gap=     0.424 Goal=   None    Shift=    0.000
 RMSDP=3.62D-09 MaxDP=8.91D-08 DE=-2.05D-12 OVMax= 3.67D-07

 SCF Done:  E(RwB97XD) =  -151.560081036     A.U. after   12 cycles
             Convg  =    0.3619D-08             -V/T =  2.0061
 KE= 1.506375753234D+02 PE=-4.316762114170D+02 EE= 9.286644284280D+01
 Leave Link  502 at Mon May  4 10:35:14 2020, MaxMem= 1073741824 cpu:     280.3
 (Enter /home/matheus/.gaussian/g09/l601.exe)
 Copying SCF densities to generalized density rwf, IOpCl= 0 IROHF=0.

 **********************************************************************

            Population analysis using the SCF density.

 **********************************************************************

 Orbital symmetries:
       Occupied  (A) (A) (A) (A) (A) (A) (A) (A) (A)
       Virtual   (A) (A) (A) (A) (A) (A) (A) (A) (A) (A) (A) (A)
                 (A) (A) (A) (A) (A) (A) (A) (A) (A) (A) (A) (A)
                 (A) (A) (A) (A) (A) (A) (A) (A) (A) (A) (A) (A)
                 (A) (A) (A) (A) (A) (A) (A) (A) (A) (A) (A) (A)
                 (A) (A) (A) (A) (A) (A) (A) (A) (A) (A) (A) (A)
                 (A) (A) (A) (A) (A) (A) (A) (A) (A) (A) (A) (A)
                 (A) (A) (A) (A) (A) (A) (A) (A) (A) (A) (A) (A)
                 (A) (A) (A) (A) (A) (A) (A) (A) (A) (A) (A) (A)
                 (A) (A) (A) (A) (A) (A) (A) (A) (A) (A) (A) (A)
                 (A) (A) (A) (A) (A) (A) (A) (A) (A) (A) (A) (A)
                 (A) (A) (A) (A) (A) (A) (A) (A) (A) (A) (A) (A)
                 (A) (A) (A) (A) (A) (A) (A) (A) (A) (A) (A) (A)
                 (A) (A) (A) (A) (A) (A) (A) (A) (A) (A) (A) (A)
                 (A) (A) (A) (A) (A) (A) (A) (A) (A) (A) (A) (A)
                 (A) (A) (A) (A) (A) (A) (A) (A) (A) (A) (A) (A)
                 (A) (A) (A) (A) (A) (A) (A) (A)
 The electronic state is 1-A.
 Alpha  occ. eigenvalues --  -19.34092 -19.34087  -1.24641  -1.03399  -0.66131
 Alpha  occ. eigenvalues --   -0.60127  -0.52990  -0.43522  -0.39267
 Alpha virt. eigenvalues --    0.03098   0.03872   0.07280   0.09001   0.09752
 Alpha virt. eigenvalues --    0.10770   0.11177   0.14057   0.17026   0.17427
 Alpha virt. eigenvalues --    0.18653   0.19486   0.21310   0.23358   0.25205
 Alpha virt. eigenvalues --    0.27085   0.30949   0.31787   0.33236   0.33531
 Alpha virt. eigenvalues --    0.34659   0.37919   0.38799   0.39635   0.40832
 Alpha virt. eigenvalues --    0.43089   0.44646   0.47136   0.48747   0.50041
 Alpha virt. eigenvalues --    0.54149   0.57674   0.59460   0.61669   0.66986
 Alpha virt. eigenvalues --    0.70533   0.72226   0.73529   0.76110   0.77413
 Alpha virt. eigenvalues --    0.79543   0.80955   0.87135   0.89012   0.90010
 Alpha virt. eigenvalues --    0.90152   0.92799   0.94102   0.96351   0.97990
 Alpha virt. eigenvalues --    0.99503   1.02522   1.04794   1.08544   1.10664
 Alpha virt. eigenvalues --    1.13338   1.15650   1.18278   1.22099   1.25192
 Alpha virt. eigenvalues --    1.25596   1.29504   1.30496   1.33057   1.33860
 Alpha virt. eigenvalues --    1.34415   1.35834   1.37313   1.38092   1.39065
 Alpha virt. eigenvalues --    1.44828   1.49825   1.50516   1.52274   1.55724
 Alpha virt. eigenvalues --    1.58281   1.64280   1.66022   1.68497   1.78325
 Alpha virt. eigenvalues --    1.81851   1.85285   1.88092   1.94435   2.00431
 Alpha virt. eigenvalues --    2.06870   2.11042   2.14453   2.16280   2.20291
 Alpha virt. eigenvalues --    2.26685   2.29519   2.31120   2.35637   2.42160
 Alpha virt. eigenvalues --    2.43708   2.50287   2.52170   2.61263   2.63731
 Alpha virt. eigenvalues --    2.64731   2.72695   2.82439   2.85175   2.88137
 Alpha virt. eigenvalues --    3.03101   3.07710   3.10735   3.26990   3.31257
 Alpha virt. eigenvalues --    3.40932   3.55139   3.62623   3.67238   3.79602
 Alpha virt. eigenvalues --    3.79641   3.82339   3.83309   3.83569   3.83928
 Alpha virt. eigenvalues --    3.87317   3.88175   3.92043   3.94307   3.96476
 Alpha virt. eigenvalues --    3.99301   4.01199   4.07811   4.09082   4.10976
 Alpha virt. eigenvalues --    4.17361   4.23199   4.26001   4.27959   4.34133
 Alpha virt. eigenvalues --    4.45342   4.50550   4.55161   4.68526   4.88274
 Alpha virt. eigenvalues --    4.96043   5.04620   5.11337   5.12052   5.21779
 Alpha virt. eigenvalues --    5.43227   5.83363   6.05730   6.10069   6.12013
 Alpha virt. eigenvalues --    6.30384   6.34117   6.42384   6.54054   6.58904
 Alpha virt. eigenvalues --    6.76950   6.77808   6.81156   6.83180   6.86614
 Alpha virt. eigenvalues --    6.87867   6.88521   6.96917   7.01573   7.04968
 Alpha virt. eigenvalues --    7.17407   7.25011   7.42480   7.72252   7.80561
 Alpha virt. eigenvalues --    8.07464   8.10952  10.90941  13.96473  14.65285
 Alpha virt. eigenvalues --   14.84540  14.89511  15.11403  29.04343  29.04723
 Alpha virt. eigenvalues --   29.09253  29.14876  29.24291  49.11942 148.32597
 Alpha virt. eigenvalues --  148.39423 148.71629 752.52656
          Condensed to atoms (all electrons):
              1          2          3          4          5
     1  O    8.155343  -0.156723   0.219720  -0.001008   0.000805
     2  O   -0.156723   8.181986   0.008465   0.212844  -0.001534
     3  H    0.219720   0.008465   0.548133   0.004046  -0.000869
     4  H   -0.001008   0.212844   0.004046   0.551148  -0.004675
     5  Kr   0.000805  -0.001534  -0.000869  -0.004675   0.001248
 Mulliken atomic charges:
              1
     1  O   -0.218136
     2  O   -0.245038
     3  H    0.220505
     4  H    0.237645
     5  Kr   0.005025
 Sum of Mulliken atomic charges =   0.00000
 Mulliken charges with hydrogens summed into heavy atoms:
              1
     1  O    0.002368
     2  O   -0.007393
     5  Kr   0.005025
 Sum of Mulliken charges with hydrogens summed into heavy atoms =   0.00000
          Condensed to fragments (all electrons):
     1      -0.005025
     2       0.005025
 Electronic spatial extent (au):  <R**2>=            322.6319
 Charge=              0.0000 electrons
 Dipole moment (field-independent basis, Debye):
    X=              0.7668    Y=             -0.1206    Z=              1.3798  Tot=              1.5831
 Quadrupole moment (field-independent basis, Debye-Ang):
   XX=            -13.2712   YY=            -10.4108   ZZ=            -11.8804
   XY=              3.3770   XZ=             -3.5510   YZ=             -1.5315
 Traceless Quadrupole moment (field-independent basis, Debye-Ang):
   XX=             -1.4171   YY=              1.4433   ZZ=             -0.0262
   XY=              3.3770   XZ=             -3.5510   YZ=             -1.5315
 Octapole moment (field-independent basis, Debye-Ang**2):
  XXX=             71.5258  YYY=             -1.4160  ZZZ=              1.1504  XYY=             21.6329
  XXY=            -11.7756  XXZ=              9.3462  XZZ=             23.1489  YZZ=             -1.6079
  YYZ=              1.9415  XYZ=              4.0588
 Hexadecapole moment (field-independent basis, Debye-Ang**3):
 XXXX=           -289.2722 YYYY=            -45.0254 ZZZZ=            -11.7412 XXXY=             31.2515
 XXXZ=            -24.5066 YYYX=              4.9343 YYYZ=             -2.1098 ZZZX=             -2.5690
 ZZZY=             -1.4114 XXYY=            -53.4345 XXZZ=            -49.0135 YYZZ=            -10.3110
 XXYZ=            -10.6784 YYXZ=             -4.6510 ZZXY=              3.0243
 N-N= 3.661211221474D+01 E-N=-4.316762106358D+02  KE= 1.506375753234D+02
 No NMR shielding tensors so no spin-rotation constants.
 Leave Link  601 at Mon May  4 10:35:14 2020, MaxMem= 1073741824 cpu:       0.8
 (Enter /home/matheus/.gaussian/g09/l122.exe)
 Counterpoise: doing DCBS calculation for fragment   2 NewBq=T
 Leave Link  122 at Mon May  4 10:35:14 2020, MaxMem= 1073741824 cpu:       0.0
 (Enter /home/matheus/.gaussian/g09/l301.exe)
 Basis read from rwf:  (5D, 7F)
 No pseudopotential information found on rwf file.
 There are   197 symmetry adapted basis functions of A   symmetry.
 Integral buffers will be    131072 words long.
 Raffenetti 2 integral format.
 Two-electron integral symmetry is turned on.
   197 basis functions,   415 primitive gaussians,   229 cartesian basis functions
    18 alpha electrons       18 beta electrons
       nuclear repulsion energy         0.0000000000 Hartrees.
 IExCor= 4639 DFT=T Ex+Corr=wB97XD ExCW=0 ScaHFX=  1.000000
 ScaDFX=  1.000000  1.000000  1.000000  1.000000 ScalE2=  1.000000  1.000000
 IRadAn=      5 IRanWt=     -1 IRanGd=            0 ICorTp=0
  HFx wShort=  0.000000 wLong=  0.250000 cFull=  0.222036 cShort=  0.000000 cLong=  0.777964
  DFx wShort=  0.000000 wLong=  0.250000 cFull=  0.000000 cShort=  0.000000 cLong=  1.000000
 NAtoms=    5 NActive=    5 NUniq=    5 SFac= 1.00D+00 NAtFMM=   60 NAOKFM=F Big=F
 R6Disp: Dispersion energy =         0.0000000000 Hartrees.
 Nuclear repulsion after empirical dispersion term =        0.0000000000 Hartrees.
 No density basis found on file   718.
 Leave Link  301 at Mon May  4 10:35:14 2020, MaxMem= 1073741824 cpu:       0.2
 (Enter /home/matheus/.gaussian/g09/l302.exe)
 NPDir=0 NMtPBC=     1 NCelOv=     1 NCel=       1 NClECP=     1 NCelD=      1
         NCelK=      1 NCelE2=     1 NClLst=     1 CellRange=     0.0.
 One-electron integrals computed using PRISM.
 NBasis=   197 RedAO= T  NBF=   197
 NBsUse=   197 1.00D-06 NBFU=   197
 Precomputing XC quadrature grid using
 IXCGrd= 2 IRadAn=           5 IRanWt=          -1 IRanGd=           0 AccXCQ= 0.00D+00.
 NRdTot=     427 NPtTot=      123512 NUsed=      126579 NTot=      126611
 NSgBfM=   229   229   229   229   229 NAtAll=     5     5.
 Leave Link  302 at Mon May  4 10:35:14 2020, MaxMem= 1073741824 cpu:       1.0
 (Enter /home/matheus/.gaussian/g09/l303.exe)
 DipDrv:  MaxL=1.
 Leave Link  303 at Mon May  4 10:35:14 2020, MaxMem= 1073741824 cpu:       0.2
 (Enter /home/matheus/.gaussian/g09/l401.exe)
 Harris functional with IExCor= 4639 diagonalized for initial guess.
 ExpMin= 2.53D-02 ExpMax= 1.17D+07 ExpMxC= 1.33D+04 IAcc=3 IRadAn=         5 AccDes= 0.00D+00
 HarFok:  IExCor= 4639 AccDes= 0.00D+00 IRadAn=         5 IDoV= 1
 ScaDFX=  1.000000  1.000000  1.000000  1.000000
 FoFCou: FMM=F IPFlag=           0 FMFlag=      100000 FMFlg1=           0
         NFxFlg=           0 DoJE=T BraDBF=F KetDBF=T FulRan=T
         Omega=  0.000000  0.000000  1.000000  0.000000  0.000000 ICntrl=     500 IOpCl=  0
         NMat0=    1 NMatS0=    1 NMatT0=    0 NMatD0=    1 NMtDS0=    0 NMtDT0=    0
         I1Cent=           4 NGrid=           0.
 Petite list used in FoFCou.
 Harris En= -2729.46036865324    
 Initial guess orbital symmetries:
       Occupied  (A) (A) (A) (A) (A) (A) (A) (A) (A) (A) (A) (A)
                 (A) (A) (A) (A) (A) (A)
       Virtual   (A) (A) (A) (A) (A) (A) (A) (A) (A) (A) (A) (A)
                 (A) (A) (A) (A) (A) (A) (A) (A) (A) (A) (A) (A)
                 (A) (A) (A) (A) (A) (A) (A) (A) (A) (A) (A) (A)
                 (A) (A) (A) (A) (A) (A) (A) (A) (A) (A) (A) (A)
                 (A) (A) (A) (A) (A) (A) (A) (A) (A) (A) (A) (A)
                 (A) (A) (A) (A) (A) (A) (A) (A) (A) (A) (A) (A)
                 (A) (A) (A) (A) (A) (A) (A) (A) (A) (A) (A) (A)
                 (A) (A) (A) (A) (A) (A) (A) (A) (A) (A) (A) (A)
                 (A) (A) (A) (A) (A) (A) (A) (A) (A) (A) (A) (A)
                 (A) (A) (A) (A) (A) (A) (A) (A) (A) (A) (A) (A)
                 (A) (A) (A) (A) (A) (A) (A) (A) (A) (A) (A) (A)
                 (A) (A) (A) (A) (A) (A) (A) (A) (A) (A) (A) (A)
                 (A) (A) (A) (A) (A) (A) (A) (A) (A) (A) (A) (A)
                 (A) (A) (A) (A) (A) (A) (A) (A) (A) (A) (A) (A)
                 (A) (A) (A) (A) (A) (A) (A) (A) (A) (A) (A)
 The electronic state of the initial guess is 1-A.
 Leave Link  401 at Mon May  4 10:35:14 2020, MaxMem= 1073741824 cpu:       3.7
 (Enter /home/matheus/.gaussian/g09/l502.exe)
 Closed shell SCF:
 Requested convergence on RMS density matrix=1.00D-08 within 128 cycles.
 Requested convergence on MAX density matrix=1.00D-06.
 Requested convergence on             energy=1.00D-06.
 No special actions if energy rises.
 Using DIIS extrapolation, IDIIS=  1040.
 Integral symmetry usage will be decided dynamically.
       126521 words used for storage of precomputed grid.
 IEnd=      305468 IEndB=      305468 NGot=  1073741824 MDV=  1073505667
 LenX=  1073505667 LenY=  1073452785
 Fock matrices will be formed incrementally for  20 cycles.

 Cycle   1  Pass 1  IDiag  1:
 FoFJK:  IHMeth= 1 ICntrl=     0 DoSepK=T KAlg= 1 I1Cent= 0 FoldK=F
 FoFCou: FMM=F IPFlag=           0 FMFlag=      100000 FMFlg1=           0
         NFxFlg=           0 DoJE=T BraDBF=F KetDBF=F FulRan=T
         Omega=  0.000000  0.000000  1.000000  0.000000  0.000000 ICntrl=     500 IOpCl=  0
         NMat0=    1 NMatS0=    1 NMatT0=    0 NMatD0=    1 NMtDS0=    0 NMtDT0=    0
         I1Cent=           0 NGrid=           0.
 Symmetry not used in FoFCou.
 E= -2753.44671898718    
 DIIS: error= 6.13D-02 at cycle   1 NSaved=   1.
 NSaved= 1 IEnMin= 1 EnMin= -2753.44671898718     IErMin= 1 ErrMin= 6.13D-02
 ErrMax= 6.13D-02 EMaxC= 1.00D-01 BMatC= 1.90D+00 BMatP= 1.90D+00
 IDIUse=3 WtCom= 3.87D-01 WtEn= 6.13D-01
 Coeff-Com:  0.100D+01
 Coeff-En:   0.100D+01
 Coeff:      0.100D+01
 Gap=     0.654 Goal=   None    Shift=    0.000
 GapD=    0.654 DampG=2.000 DampE=0.500 DampFc=1.0000 IDamp=-1.
 RMSDP=5.64D-03 MaxDP=3.67D-01              OVMax= 1.83D-01

 Cycle   2  Pass 1  IDiag  1:
 RMSU=  3.92D-03    CP:  1.04D+00
 FoFJK:  IHMeth= 1 ICntrl=     0 DoSepK=T KAlg= 1 I1Cent= 0 FoldK=F
 E= -2753.72379195544     Delta-E=       -0.277072968265 Rises=F Damp=F
 DIIS: error= 2.97D-02 at cycle   2 NSaved=   2.
 NSaved= 2 IEnMin= 2 EnMin= -2753.72379195544     IErMin= 2 ErrMin= 2.97D-02
 ErrMax= 2.97D-02 EMaxC= 1.00D-01 BMatC= 4.66D-01 BMatP= 1.90D+00
 IDIUse=3 WtCom= 7.03D-01 WtEn= 2.97D-01
 Coeff-Com:  0.326D+00 0.674D+00
 Coeff-En:   0.160D+00 0.840D+00
 Coeff:      0.277D+00 0.723D+00
 Gap=     0.492 Goal=   None    Shift=    0.000
 RMSDP=2.51D-03 MaxDP=1.59D-01 DE=-2.77D-01 OVMax= 7.63D-02

 Cycle   3  Pass 1  IDiag  1:
 RMSU=  3.68D-04    CP:  1.03D+00  5.62D-01
 FoFJK:  IHMeth= 1 ICntrl=     0 DoSepK=T KAlg= 1 I1Cent= 0 FoldK=F
 E= -2753.86723190345     Delta-E=       -0.143439948010 Rises=F Damp=F
 DIIS: error= 4.21D-03 at cycle   3 NSaved=   3.
 NSaved= 3 IEnMin= 3 EnMin= -2753.86723190345     IErMin= 3 ErrMin= 4.21D-03
 ErrMax= 4.21D-03 EMaxC= 1.00D-01 BMatC= 9.60D-03 BMatP= 4.66D-01
 IDIUse=3 WtCom= 9.58D-01 WtEn= 4.21D-02
 Coeff-Com: -0.765D-02 0.113D+00 0.894D+00
 Coeff-En:   0.000D+00 0.000D+00 0.100D+01
 Coeff:     -0.732D-02 0.108D+00 0.899D+00
 Gap=     0.517 Goal=   None    Shift=    0.000
 RMSDP=2.89D-04 MaxDP=1.68D-02 DE=-1.43D-01 OVMax= 1.18D-02

 Cycle   4  Pass 1  IDiag  1:
 RMSU=  4.30D-05    CP:  1.03D+00  6.12D-01  9.73D-01
 FoFJK:  IHMeth= 1 ICntrl=     0 DoSepK=T KAlg= 1 I1Cent= 0 FoldK=F
 E= -2753.87021744180     Delta-E=       -0.002985538350 Rises=F Damp=F
 DIIS: error= 1.77D-04 at cycle   4 NSaved=   4.
 NSaved= 4 IEnMin= 4 EnMin= -2753.87021744180     IErMin= 4 ErrMin= 1.77D-04
 ErrMax= 1.77D-04 EMaxC= 1.00D-01 BMatC= 1.34D-05 BMatP= 9.60D-03
 IDIUse=3 WtCom= 9.98D-01 WtEn= 1.77D-03
 Coeff-Com: -0.255D-03-0.173D-01-0.792D-01 0.110D+01
 Coeff-En:   0.000D+00 0.000D+00 0.000D+00 0.100D+01
 Coeff:     -0.254D-03-0.172D-01-0.790D-01 0.110D+01
 Gap=     0.515 Goal=   None    Shift=    0.000
 RMSDP=2.34D-05 MaxDP=8.66D-04 DE=-2.99D-03 OVMax= 9.53D-04

 Cycle   5  Pass 1  IDiag  1:
 RMSU=  8.64D-06    CP:  1.03D+00  6.11D-01  9.94D-01  1.23D+00
 FoFJK:  IHMeth= 1 ICntrl=     0 DoSepK=T KAlg= 1 I1Cent= 0 FoldK=F
 E= -2753.87022574572     Delta-E=       -0.000008303923 Rises=F Damp=F
 DIIS: error= 1.20D-05 at cycle   5 NSaved=   5.
 NSaved= 5 IEnMin= 5 EnMin= -2753.87022574572     IErMin= 5 ErrMin= 1.20D-05
 ErrMax= 1.20D-05 EMaxC= 1.00D-01 BMatC= 4.56D-08 BMatP= 1.34D-05
 IDIUse=1 WtCom= 1.00D+00 WtEn= 0.00D+00
 Coeff-Com:  0.769D-04 0.115D-02 0.146D-02-0.187D+00 0.118D+01
 Coeff:      0.769D-04 0.115D-02 0.146D-02-0.187D+00 0.118D+01
 Gap=     0.515 Goal=   None    Shift=    0.000
 RMSDP=3.66D-06 MaxDP=1.44D-04 DE=-8.30D-06 OVMax= 2.07D-04

 Cycle   6  Pass 1  IDiag  1:
 RMSU=  7.89D-07    CP:  1.03D+00  6.11D-01  9.96D-01  1.27D+00  1.18D+00
 FoFJK:  IHMeth= 1 ICntrl=     0 DoSepK=T KAlg= 1 I1Cent= 0 FoldK=F
 E= -2753.87022588292     Delta-E=       -0.000000137197 Rises=F Damp=F
 DIIS: error= 1.49D-06 at cycle   6 NSaved=   6.
 NSaved= 6 IEnMin= 6 EnMin= -2753.87022588292     IErMin= 6 ErrMin= 1.49D-06
 ErrMax= 1.49D-06 EMaxC= 1.00D-01 BMatC= 6.88D-10 BMatP= 4.56D-08
 IDIUse=1 WtCom= 1.00D+00 WtEn= 0.00D+00
 Coeff-Com:  0.686D-05 0.301D-03 0.851D-03-0.408D-01 0.188D+00 0.852D+00
 Coeff:      0.686D-05 0.301D-03 0.851D-03-0.408D-01 0.188D+00 0.852D+00
 Gap=     0.515 Goal=   None    Shift=    0.000
 RMSDP=2.32D-07 MaxDP=8.60D-06 DE=-1.37D-07 OVMax= 1.05D-05

 Cycle   7  Pass 1  IDiag  1:
 RMSU=  6.95D-08    CP:  1.03D+00  6.11D-01  9.96D-01  1.27D+00  1.19D+00
                    CP:  1.10D+00
 FoFJK:  IHMeth= 1 ICntrl=     0 DoSepK=T KAlg= 1 I1Cent= 0 FoldK=F
 E= -2753.87022588365     Delta-E=       -0.000000000730 Rises=F Damp=F
 DIIS: error= 1.68D-07 at cycle   7 NSaved=   7.
 NSaved= 7 IEnMin= 7 EnMin= -2753.87022588365     IErMin= 7 ErrMin= 1.68D-07
 ErrMax= 1.68D-07 EMaxC= 1.00D-01 BMatC= 1.98D-11 BMatP= 6.88D-10
 IDIUse=1 WtCom= 1.00D+00 WtEn= 0.00D+00
 Coeff-Com: -0.131D-05 0.220D-04 0.149D-03-0.353D-03-0.961D-02 0.109D+00
 Coeff-Com:  0.901D+00
 Coeff:     -0.131D-05 0.220D-04 0.149D-03-0.353D-03-0.961D-02 0.109D+00
 Coeff:      0.901D+00
 Gap=     0.515 Goal=   None    Shift=    0.000
 RMSDP=5.06D-08 MaxDP=1.97D-06 DE=-7.30D-10 OVMax= 1.97D-06

 Cycle   8  Pass 1  IDiag  1:
 RMSU=  1.55D-08    CP:  1.03D+00  6.11D-01  9.96D-01  1.27D+00  1.19D+00
                    CP:  1.14D+00  1.10D+00
 FoFJK:  IHMeth= 1 ICntrl=     0 DoSepK=T KAlg= 1 I1Cent= 0 FoldK=F
 E= -2753.87022588366     Delta-E=       -0.000000000009 Rises=F Damp=F
 DIIS: error= 5.22D-08 at cycle   8 NSaved=   8.
 NSaved= 8 IEnMin= 8 EnMin= -2753.87022588366     IErMin= 8 ErrMin= 5.22D-08
 ErrMax= 5.22D-08 EMaxC= 1.00D-01 BMatC= 1.49D-12 BMatP= 1.98D-11
 IDIUse=1 WtCom= 1.00D+00 WtEn= 0.00D+00
 Coeff-Com: -0.112D-06-0.530D-05 0.460D-06 0.160D-02-0.839D-02-0.220D-01
 Coeff-Com:  0.110D+00 0.919D+00
 Coeff:     -0.112D-06-0.530D-05 0.460D-06 0.160D-02-0.839D-02-0.220D-01
 Coeff:      0.110D+00 0.919D+00
 Gap=     0.515 Goal=   None    Shift=    0.000
 RMSDP=1.33D-08 MaxDP=5.06D-07 DE=-9.09D-12 OVMax= 3.67D-07

 Cycle   9  Pass 1  IDiag  1:
 RMSU=  2.44D-09    CP:  1.03D+00  6.11D-01  9.96D-01  1.27D+00  1.19D+00
                    CP:  1.15D+00  1.15D+00  1.10D+00
 FoFJK:  IHMeth= 1 ICntrl=     0 DoSepK=T KAlg= 1 I1Cent= 0 FoldK=F
 E= -2753.87022588366     Delta-E=       -0.000000000001 Rises=F Damp=F
 DIIS: error= 6.22D-09 at cycle   9 NSaved=   9.
 NSaved= 9 IEnMin= 9 EnMin= -2753.87022588366     IErMin= 9 ErrMin= 6.22D-09
 ErrMax= 6.22D-09 EMaxC= 1.00D-01 BMatC= 6.73D-15 BMatP= 1.49D-12
 IDIUse=1 WtCom= 1.00D+00 WtEn= 0.00D+00
 Coeff-Com:  0.106D-07 0.840D-07-0.146D-05-0.126D-03 0.632D-03 0.156D-02
 Coeff-Com: -0.202D-01-0.102D+00 0.112D+01
 Coeff:      0.106D-07 0.840D-07-0.146D-05-0.126D-03 0.632D-03 0.156D-02
 Coeff:     -0.202D-01-0.102D+00 0.112D+01
 Gap=     0.515 Goal=   None    Shift=    0.000
 RMSDP=1.48D-09 MaxDP=5.73D-08 DE=-9.09D-13 OVMax= 9.13D-08

 SCF Done:  E(RwB97XD) =  -2753.87022588     A.U. after    9 cycles
             Convg  =    0.1478D-08             -V/T =  2.0013
 KE= 2.750247290482D+03 PE=-6.580155919155D+03 EE= 1.076038402789D+03
 Leave Link  502 at Mon May  4 10:35:46 2020, MaxMem= 1073741824 cpu:     253.3
 (Enter /home/matheus/.gaussian/g09/l601.exe)
 Copying SCF densities to generalized density rwf, IOpCl= 0 IROHF=0.

 **********************************************************************

            Population analysis using the SCF density.

 **********************************************************************

 Orbital symmetries:
       Occupied  (A) (A) (A) (A) (A) (A) (A) (A) (A) (A) (A) (A)
                 (A) (A) (A) (A) (A) (A)
       Virtual   (A) (A) (A) (A) (A) (A) (A) (A) (A) (A) (A) (A)
                 (A) (A) (A) (A) (A) (A) (A) (A) (A) (A) (A) (A)
                 (A) (A) (A) (A) (A) (A) (A) (A) (A) (A) (A) (A)
                 (A) (A) (A) (A) (A) (A) (A) (A) (A) (A) (A) (A)
                 (A) (A) (A) (A) (A) (A) (A) (A) (A) (A) (A) (A)
                 (A) (A) (A) (A) (A) (A) (A) (A) (A) (A) (A) (A)
                 (A) (A) (A) (A) (A) (A) (A) (A) (A) (A) (A) (A)
                 (A) (A) (A) (A) (A) (A) (A) (A) (A) (A) (A) (A)
                 (A) (A) (A) (A) (A) (A) (A) (A) (A) (A) (A) (A)
                 (A) (A) (A) (A) (A) (A) (A) (A) (A) (A) (A) (A)
                 (A) (A) (A) (A) (A) (A) (A) (A) (A) (A) (A) (A)
                 (A) (A) (A) (A) (A) (A) (A) (A) (A) (A) (A) (A)
                 (A) (A) (A) (A) (A) (A) (A) (A) (A) (A) (A) (A)
                 (A) (A) (A) (A) (A) (A) (A) (A) (A) (A) (A) (A)
                 (A) (A) (A) (A) (A) (A) (A) (A) (A) (A) (A)
 The electronic state is 1-A.
 Alpha  occ. eigenvalues -- -513.08050 -67.34865 -60.89737 -60.89736 -60.89736
 Alpha  occ. eigenvalues --   -9.80180  -7.49480  -7.49479  -7.49478  -3.36164
 Alpha  occ. eigenvalues --   -3.36164  -3.36164  -3.36163  -3.36163  -1.00829
 Alpha  occ. eigenvalues --   -0.48267  -0.48264  -0.48263
 Alpha virt. eigenvalues --    0.03219   0.05167   0.08746   0.09775   0.11798
 Alpha virt. eigenvalues --    0.12576   0.13501   0.14294   0.16612   0.17331
 Alpha virt. eigenvalues --    0.18012   0.19833   0.20889   0.25392   0.26632
 Alpha virt. eigenvalues --    0.26934   0.28371   0.31097   0.32993   0.34555
 Alpha virt. eigenvalues --    0.35957   0.37266   0.38163   0.39194   0.41628
 Alpha virt. eigenvalues --    0.41814   0.42905   0.52573   0.53216   0.57356
 Alpha virt. eigenvalues --    0.58724   0.66527   0.67506   0.70179   0.71968
 Alpha virt. eigenvalues --    0.74470   0.74587   0.76072   0.76644   0.79048
 Alpha virt. eigenvalues --    0.79536   0.80015   0.83443   0.85892   0.86382
 Alpha virt. eigenvalues --    0.87576   0.88627   0.89431   0.91397   0.94829
 Alpha virt. eigenvalues --    0.96573   0.98628   0.99208   1.01270   1.01800
 Alpha virt. eigenvalues --    1.04423   1.06171   1.07744   1.10372   1.11500
 Alpha virt. eigenvalues --    1.14802   1.19749   1.21942   1.23438   1.28986
 Alpha virt. eigenvalues --    1.32817   1.35024   1.39901   1.43505   1.44224
 Alpha virt. eigenvalues --    1.53895   1.58207   1.58908   1.73163   1.78857
 Alpha virt. eigenvalues --    1.79136   1.84185   1.86956   1.96438   2.15860
 Alpha virt. eigenvalues --    2.19345   2.24978   2.27479   2.30205   2.30456
 Alpha virt. eigenvalues --    2.31639   2.32798   2.35921   2.38044   2.41440
 Alpha virt. eigenvalues --    2.44056   2.46963   2.47287   2.47926   2.48576
 Alpha virt. eigenvalues --    2.51863   2.53045   2.54726   2.56063   2.57586
 Alpha virt. eigenvalues --    2.62003   2.63190   2.63474   2.67065   2.69865
 Alpha virt. eigenvalues --    2.72942   2.76407   2.85182   2.87002   2.88873
 Alpha virt. eigenvalues --    2.93322   2.96513   3.04347   3.13446   3.21226
 Alpha virt. eigenvalues --    3.23218   3.27087   3.31970   3.34950   3.50486
 Alpha virt. eigenvalues --    3.61863   3.66434   3.83150   3.87803   4.04384
 Alpha virt. eigenvalues --    4.35963   4.45751   4.53209   4.57889   4.63397
 Alpha virt. eigenvalues --    4.72955   4.87921   4.89666   4.94635   5.00844
 Alpha virt. eigenvalues --    5.16827   5.18718   5.59120   5.65857   5.75696
 Alpha virt. eigenvalues --    5.93488   6.01760   6.19118   6.74761   6.90381
 Alpha virt. eigenvalues --    7.37555   7.41485   7.62107   7.65286   7.72935
 Alpha virt. eigenvalues --    7.89052   7.92688   8.11667   8.18011   8.22240
 Alpha virt. eigenvalues --    8.40214   8.44914   8.61056   8.87926   9.64742
 Alpha virt. eigenvalues --    9.74104   9.83950   9.89750   9.94636  10.01786
 Alpha virt. eigenvalues --   10.15960  10.31031  10.41734  10.97223  11.52197
 Alpha virt. eigenvalues --   11.65843  11.72293  12.05318  12.10705  13.27612
 Alpha virt. eigenvalues --   13.61658  14.54284  62.71192  64.65097
          Condensed to atoms (all electrons):
              1          2          3          4          5
     1  O    0.003141  -0.001950  -0.002102   0.001256  -0.010861
     2  O   -0.001950   0.005166   0.000644  -0.003360  -0.001772
     3  H   -0.002102   0.000644   0.001720  -0.000446   0.003864
     4  H    0.001256  -0.003360  -0.000446   0.003270  -0.019640
     5  Kr  -0.010861  -0.001772   0.003864  -0.019640  36.055439
 Mulliken atomic charges:
              1
     1  O    0.010517
     2  O    0.001273
     3  H   -0.003680
     4  H    0.018920
     5  Kr  -0.027030
 Sum of Mulliken atomic charges =   0.00000
 Mulliken charges with hydrogens summed into heavy atoms:
              1
     1  O    0.006837
     2  O    0.020193
     5  Kr  -0.027030
 Sum of Mulliken charges with hydrogens summed into heavy atoms =   0.00000
          Condensed to fragments (all electrons):
     1       0.027030
     2      -0.027030
 Electronic spatial extent (au):  <R**2>=            165.7812
 Charge=              0.0000 electrons
 Dipole moment (field-independent basis, Debye):
    X=             -0.0007    Y=              0.0006    Z=              0.0001  Tot=              0.0009
 Quadrupole moment (field-independent basis, Debye-Ang):
   XX=            -17.6429   YY=            -17.6541   ZZ=            -17.6609
   XY=             -0.0044   XZ=              0.0001   YZ=              0.0004
 Traceless Quadrupole moment (field-independent basis, Debye-Ang):
   XX=              0.0097   YY=             -0.0014   ZZ=             -0.0082
   XY=             -0.0044   XZ=              0.0001   YZ=              0.0004
 Octapole moment (field-independent basis, Debye-Ang**2):
  XXX=            -52.4755  YYY=              0.7864  ZZZ=             -0.1293  XYY=            -17.5045
  XXY=              0.2532  XXZ=             -0.0436  XZZ=            -17.5084  YZZ=              0.2632
  YYZ=             -0.0428  XYZ=              0.0002
 Hexadecapole moment (field-independent basis, Debye-Ang**3):
 XXXX=           -122.5089 YYYY=            -18.4977 ZZZZ=            -18.4972 XXXY=              0.7599
 XXXZ=             -0.1293 YYYX=              0.7663 YYYZ=              0.0013 ZZZX=             -0.1292
 ZZZY=              0.0031 XXYY=            -23.5136 XXZZ=            -23.5150 YYZZ=             -6.1646
 XXYZ=              0.0013 YYXZ=             -0.0428 ZZXY=              0.2537
 N-N= 0.000000000000D+00 E-N=-6.580155918465D+03  KE= 2.750247290482D+03
 No NMR shielding tensors so no spin-rotation constants.
 Leave Link  601 at Mon May  4 10:35:46 2020, MaxMem= 1073741824 cpu:       0.8
 (Enter /home/matheus/.gaussian/g09/l122.exe)
 Counterpoise: doing MCBS calculation for fragment   1
 Leave Link  122 at Mon May  4 10:35:46 2020, MaxMem= 1073741824 cpu:       0.0
 (Enter /home/matheus/.gaussian/g09/l301.exe)
 Basis read from rwf:  (5D, 7F)
 No pseudopotential information found on rwf file.
 There are   138 symmetry adapted basis functions of A   symmetry.
 Integral buffers will be    131072 words long.
 Raffenetti 2 integral format.
 Two-electron integral symmetry is turned on.
   138 basis functions,   198 primitive gaussians,   160 cartesian basis functions
     9 alpha electrons        9 beta electrons
       nuclear repulsion energy        36.6123390277 Hartrees.
 IExCor= 4639 DFT=T Ex+Corr=wB97XD ExCW=0 ScaHFX=  1.000000
 ScaDFX=  1.000000  1.000000  1.000000  1.000000 ScalE2=  1.000000  1.000000
 IRadAn=      5 IRanWt=     -1 IRanGd=            0 ICorTp=0
  HFx wShort=  0.000000 wLong=  0.250000 cFull=  0.222036 cShort=  0.000000 cLong=  0.777964
  DFx wShort=  0.000000 wLong=  0.250000 cFull=  0.000000 cShort=  0.000000 cLong=  1.000000
 NAtoms=    5 NActive=    4 NUniq=    4 SFac= 1.00D+00 NAtFMM=   60 NAOKFM=F Big=F
 R6Disp: Dispersion energy =        -0.0002268130 Hartrees.
 Nuclear repulsion after empirical dispersion term =       36.6121122147 Hartrees.
 No density basis found on file   718.
 Leave Link  301 at Mon May  4 10:35:46 2020, MaxMem= 1073741824 cpu:       0.2
 (Enter /home/matheus/.gaussian/g09/l302.exe)
 NPDir=0 NMtPBC=     1 NCelOv=     1 NCel=       1 NClECP=     1 NCelD=      1
         NCelK=      1 NCelE2=     1 NClLst=     1 CellRange=     0.0.
 One-electron integrals computed using PRISM.
 NBasis=   138 RedAO= T  NBF=   138
 NBsUse=   138 1.00D-06 NBFU=   138
 Precomputing XC quadrature grid using
 IXCGrd= 2 IRadAn=           5 IRanWt=          -1 IRanGd=           0 AccXCQ= 0.00D+00.
 NRdTot=     344 NPtTot=       92556 NUsed=       95038 NTot=       95070
 NSgBfM=   160   160   160   160   160 NAtAll=     4     4.
 Leave Link  302 at Mon May  4 10:35:46 2020, MaxMem= 1073741824 cpu:       0.8
 (Enter /home/matheus/.gaussian/g09/l303.exe)
 DipDrv:  MaxL=1.
 Leave Link  303 at Mon May  4 10:35:46 2020, MaxMem= 1073741824 cpu:       0.2
 (Enter /home/matheus/.gaussian/g09/l401.exe)
 Harris functional with IExCor= 4639 diagonalized for initial guess.
 ExpMin= 2.53D-02 ExpMax= 1.53D+04 ExpMxC= 5.22D+02 IAcc=3 IRadAn=         5 AccDes= 0.00D+00
 HarFok:  IExCor= 4639 AccDes= 0.00D+00 IRadAn=         5 IDoV= 1
 ScaDFX=  1.000000  1.000000  1.000000  1.000000
 FoFCou: FMM=F IPFlag=           0 FMFlag=      100000 FMFlg1=           0
         NFxFlg=           0 DoJE=T BraDBF=F KetDBF=T FulRan=T
         Omega=  0.000000  0.000000  1.000000  0.000000  0.000000 ICntrl=     500 IOpCl=  0
         NMat0=    1 NMatS0=    1 NMatT0=    0 NMatD0=    1 NMtDS0=    0 NMtDT0=    0
         I1Cent=           4 NGrid=           0.
 Petite list used in FoFCou.
 Harris En= -145.945875444831    
 Initial guess orbital symmetries:
       Occupied  (A) (A) (A) (A) (A) (A) (A) (A) (A)
       Virtual   (A) (A) (A) (A) (A) (A) (A) (A) (A) (A) (A) (A)
                 (A) (A) (A) (A) (A) (A) (A) (A) (A) (A) (A) (A)
                 (A) (A) (A) (A) (A) (A) (A) (A) (A) (A) (A) (A)
                 (A) (A) (A) (A) (A) (A) (A) (A) (A) (A) (A) (A)
                 (A) (A) (A) (A) (A) (A) (A) (A) (A) (A) (A) (A)
                 (A) (A) (A) (A) (A) (A) (A) (A) (A) (A) (A) (A)
                 (A) (A) (A) (A) (A) (A) (A) (A) (A) (A) (A) (A)
                 (A) (A) (A) (A) (A) (A) (A) (A) (A) (A) (A) (A)
                 (A) (A) (A) (A) (A) (A) (A) (A) (A) (A) (A) (A)
                 (A) (A) (A) (A) (A) (A) (A) (A) (A) (A) (A) (A)
                 (A) (A) (A) (A) (A) (A) (A) (A) (A)
 The electronic state of the initial guess is 1-A.
 Leave Link  401 at Mon May  4 10:35:47 2020, MaxMem= 1073741824 cpu:       2.3
 (Enter /home/matheus/.gaussian/g09/l502.exe)
 Closed shell SCF:
 Requested convergence on RMS density matrix=1.00D-08 within 128 cycles.
 Requested convergence on MAX density matrix=1.00D-06.
 Requested convergence on             energy=1.00D-06.
 No special actions if energy rises.
 Using DIIS extrapolation, IDIIS=  1040.
 Integral symmetry usage will be decided dynamically.
        94980 words used for storage of precomputed grid.
[...]
 E= -2753.87012698554     Delta-E=       -0.000000495032 Rises=F Damp=F
 DIIS: error= 3.32D-06 at cycle   2 NSaved=   2.
 NSaved= 2 IEnMin= 2 EnMin= -2753.87012698554     IErMin= 2 ErrMin= 3.32D-06
 ErrMax= 3.32D-06 EMaxC= 1.00D-01 BMatC= 3.64D-09 BMatP= 3.67D-06
 IDIUse=1 WtCom= 1.00D+00 WtEn= 0.00D+00
 Coeff-Com: -0.939D-02 0.101D+01
 Coeff:     -0.939D-02 0.101D+01
 Gap=     0.512 Goal=   None    Shift=    0.000
 RMSDP=1.92D-06 MaxDP=7.37D-05 DE=-4.95D-07 OVMax= 4.86D-05

 Cycle   3  Pass 1  IDiag  1:
 RMSU=  5.01D-07    CP:  1.00D+00  1.09D+00
 FoFJK:  IHMeth= 1 ICntrl=     0 DoSepK=T KAlg= 1 I1Cent= 0 FoldK=F
 E= -2753.87012699222     Delta-E=       -0.000000006683 Rises=F Damp=F
 DIIS: error= 5.66D-07 at cycle   3 NSaved=   3.
 NSaved= 3 IEnMin= 3 EnMin= -2753.87012699222     IErMin= 3 ErrMin= 5.66D-07
 ErrMax= 5.66D-07 EMaxC= 1.00D-01 BMatC= 8.99D-11 BMatP= 3.64D-09
 IDIUse=1 WtCom= 1.00D+00 WtEn= 0.00D+00
 Coeff-Com:  0.293D-03-0.129D+00 0.113D+01
 Coeff:      0.293D-03-0.129D+00 0.113D+01
 Gap=     0.512 Goal=   None    Shift=    0.000
 RMSDP=2.29D-07 MaxDP=8.39D-06 DE=-6.68D-09 OVMax= 9.86D-06

 Cycle   4  Pass 1  IDiag  1:
 RMSU=  5.30D-08    CP:  1.00D+00  1.10D+00  1.20D+00
 FoFJK:  IHMeth= 1 ICntrl=     0 DoSepK=T KAlg= 1 I1Cent= 0 FoldK=F
 E= -2753.87012699241     Delta-E=       -0.000000000193 Rises=F Damp=F
 DIIS: error= 2.78D-07 at cycle   4 NSaved=   4.
 NSaved= 4 IEnMin= 4 EnMin= -2753.87012699241     IErMin= 4 ErrMin= 2.78D-07
 ErrMax= 2.78D-07 EMaxC= 1.00D-01 BMatC= 7.19D-12 BMatP= 8.99D-11
 IDIUse=1 WtCom= 1.00D+00 WtEn= 0.00D+00
 Coeff-Com:  0.199D-03-0.466D-01 0.286D+00 0.761D+00
 Coeff:      0.199D-03-0.466D-01 0.286D+00 0.761D+00
 Gap=     0.512 Goal=   None    Shift=    0.000
 RMSDP=1.81D-08 MaxDP=8.49D-07 DE=-1.93D-10 OVMax= 1.08D-06

 Cycle   5  Pass 1  IDiag  1:
 RMSU=  7.66D-09    CP:  1.00D+00  1.10D+00  1.22D+00  1.12D+00
 FoFJK:  IHMeth= 1 ICntrl=     0 DoSepK=T KAlg= 1 I1Cent= 0 FoldK=F
 E= -2753.87012699241     Delta-E=        0.000000000000 Rises=F Damp=F
 DIIS: error= 2.41D-08 at cycle   5 NSaved=   5.
 NSaved= 5 IEnMin= 4 EnMin= -2753.87012699241     IErMin= 5 ErrMin= 2.41D-08
 ErrMax= 2.41D-08 EMaxC= 1.00D-01 BMatC= 1.24D-13 BMatP= 7.19D-12
 IDIUse=1 WtCom= 1.00D+00 WtEn= 0.00D+00
 Coeff-Com: -0.282D-04 0.935D-02-0.724D-01-0.553D-01 0.112D+01
 Coeff:     -0.282D-04 0.935D-02-0.724D-01-0.553D-01 0.112D+01
 Gap=     0.512 Goal=   None    Shift=    0.000
 RMSDP=9.43D-09 MaxDP=5.72D-07 DE= 0.00D+00 OVMax= 4.18D-07

 SCF Done:  E(RwB97XD) =  -2753.87012699     A.U. after    5 cycles
             Convg  =    0.9434D-08             -V/T =  2.0013
 KE= 2.750283400602D+03 PE=-6.580194708372D+03 EE= 1.076041180777D+03
 Leave Link  502 at Mon May  4 10:59:25 2020, MaxMem= 1073741824 cpu:      89.9
 (Enter /home/matheus/.gaussian/g09/l122.exe)
 Restoring MOs from calculation   4 to rwf.
 Counterpoise: doing MCBS calculation for fragment   1
 Leave Link  122 at Mon May  4 10:59:25 2020, MaxMem= 1073741824 cpu:       0.0
 (Enter /home/matheus/.gaussian/g09/l301.exe)
 Basis read from rwf:  (5D, 7F)
 No pseudopotential information found on rwf file.
 There are   138 symmetry adapted basis functions of A   symmetry.
 Integral buffers will be    131072 words long.
 Raffenetti 2 integral format.
 Two-electron integral symmetry is turned on.
   138 basis functions,   198 primitive gaussians,   160 cartesian basis functions
     9 alpha electrons        9 beta electrons
       nuclear repulsion energy        36.6123390277 Hartrees.
 IExCor= 4639 DFT=T Ex+Corr=wB97XD ExCW=0 ScaHFX=  1.000000
 ScaDFX=  1.000000  1.000000  1.000000  1.000000 ScalE2=  1.000000  1.000000
 IRadAn=      5 IRanWt=     -1 IRanGd=            0 ICorTp=0
  HFx wShort=  0.000000 wLong=  0.250000 cFull=  0.222036 cShort=  0.000000 cLong=  0.777964
  DFx wShort=  0.000000 wLong=  0.250000 cFull=  0.000000 cShort=  0.000000 cLong=  1.000000
 NAtoms=    5 NActive=    4 NUniq=    4 SFac= 1.00D+00 NAtFMM=   60 NAOKFM=F Big=F
 R6Disp: Dispersion energy =        -0.0002268130 Hartrees.
 Nuclear repulsion after empirical dispersion term =       36.6121122147 Hartrees.
 No density basis found on file   718.
 Leave Link  301 at Mon May  4 10:59:25 2020, MaxMem= 1073741824 cpu:       0.2
 (Enter /home/matheus/.gaussian/g09/l302.exe)
 NPDir=0 NMtPBC=     1 NCelOv=     1 NCel=       1 NClECP=     1 NCelD=      1
         NCelK=      1 NCelE2=     1 NClLst=     1 CellRange=     0.0.
 One-electron integrals computed using PRISM.
 NBasis=   138 RedAO= T  NBF=   138
 NBsUse=   138 1.00D-06 NBFU=   138
 Precomputing XC quadrature grid using
 IXCGrd= 2 IRadAn=           5 IRanWt=          -1 IRanGd=           0 AccXCQ= 0.00D+00.
 NRdTot=     344 NPtTot=       92556 NUsed=       95038 NTot=       95070
 NSgBfM=   160   160   160   160   160 NAtAll=     4     4.
 Leave Link  302 at Mon May  4 10:59:25 2020, MaxMem= 1073741824 cpu:       0.8
 (Enter /home/matheus/.gaussian/g09/l303.exe)
 DipDrv:  MaxL=1.
 Leave Link  303 at Mon May  4 10:59:25 2020, MaxMem= 1073741824 cpu:       0.1
 (Enter /home/matheus/.gaussian/g09/l401.exe)
 Initial guess read from the read-write file.
 Guess basis will be translated and rotated to current coordinates.
 Initial guess orbital symmetries:
       Occupied  (A) (A) (A) (A) (A) (A) (A) (A) (A)
       Virtual   (A) (A) (A) (A) (A) (A) (A) (A) (A) (A) (A) (A)
                 (A) (A) (A) (A) (A) (A) (A) (A) (A) (A) (A) (A)
                 (A) (A) (A) (A) (A) (A) (A) (A) (A) (A) (A) (A)
                 (A) (A) (A) (A) (A) (A) (A) (A) (A) (A) (A) (A)
                 (A) (A) (A) (A) (A) (A) (A) (A) (A) (A) (A) (A)
                 (A) (A) (A) (A) (A) (A) (A) (A) (A) (A) (A) (A)
                 (A) (A) (A) (A) (A) (A) (A) (A) (A) (A) (A) (A)
                 (A) (A) (A) (A) (A) (A) (A) (A) (A) (A) (A) (A)
                 (A) (A) (A) (A) (A) (A) (A) (A) (A) (A) (A) (A)
                 (A) (A) (A) (A) (A) (A) (A) (A) (A) (A) (A) (A)
                 (A) (A) (A) (A) (A) (A) (A) (A) (A)
 The electronic state of the initial guess is 1-A.
 Generating alternative initial guess.
 Harris functional with IExCor= 4639 diagonalized for initial guess.
 ExpMin= 2.53D-02 ExpMax= 1.53D+04 ExpMxC= 5.22D+02 IAcc=3 IRadAn=         5 AccDes= 0.00D+00
 HarFok:  IExCor= 4639 AccDes= 0.00D+00 IRadAn=         5 IDoV= 1
 ScaDFX=  1.000000  1.000000  1.000000  1.000000
 FoFCou: FMM=F IPFlag=           0 FMFlag=      100000 FMFlg1=           0
         NFxFlg=           0 DoJE=T BraDBF=F KetDBF=T FulRan=T
         Omega=  0.000000  0.000000  1.000000  0.000000  0.000000 ICntrl=     500 IOpCl=  0
         NMat0=    1 NMatS0=    1 NMatT0=    0 NMatD0=    1 NMtDS0=    0 NMtDT0=    0
         I1Cent=           4 NGrid=           0.
 Petite list used in FoFCou.
 Harris En= -145.945875443508    
 Leave Link  401 at Mon May  4 10:59:26 2020, MaxMem= 1073741824 cpu:       2.3
 (Enter /home/matheus/.gaussian/g09/l502.exe)
 Closed shell SCF:
 Requested convergence on RMS density matrix=1.00D-08 within 128 cycles.
 Requested convergence on MAX density matrix=1.00D-06.
 Requested convergence on             energy=1.00D-06.
 No special actions if energy rises.
 Using DIIS extrapolation, IDIIS=  1040.
 Integral symmetry usage will be decided dynamically.
        94980 words used for storage of precomputed grid.
 IEnd=      192360 IEndB=      192360 NGot=  1073741824 MDV=  1073591865
 LenX=  1073591865 LenY=  1073565824
 Fock matrices will be formed incrementally for  20 cycles.

 Cycle   1  Pass 1  IDiag  1:
 FoFJK:  IHMeth= 1 ICntrl=     0 DoSepK=T KAlg= 1 I1Cent= 0 FoldK=F
 FoFCou: FMM=F IPFlag=           0 FMFlag=      100000 FMFlg1=           0
         NFxFlg=           0 DoJE=T BraDBF=F KetDBF=F FulRan=T
         Omega=  0.000000  0.000000  1.000000  0.000000  0.000000 ICntrl=     500 IOpCl=  0
         NMat0=    1 NMatS0=    1 NMatT0=    0 NMatD0=    1 NMtDS0=    0 NMtDT0=    0
         I1Cent=           0 NGrid=           0.
 Symmetry not used in FoFCou.
 E= -151.560016085330    
 DIIS: error= 1.55D-05 at cycle   1 NSaved=   1.
 NSaved= 1 IEnMin= 1 EnMin= -151.560016085330     IErMin= 1 ErrMin= 1.55D-05
 ErrMax= 1.55D-05 EMaxC= 1.00D-01 BMatC= 3.90D-08 BMatP= 3.90D-08
 IDIUse=1 WtCom= 1.00D+00 WtEn= 0.00D+00
 Coeff-Com:  0.100D+01
 Coeff:      0.100D+01
 Gap=     0.427 Goal=   None    Shift=    0.000
 RMSDP=1.20D-06 MaxDP=2.36D-05              OVMax= 7.06D-05

 Cycle   2  Pass 1  IDiag  1:
 RMSU=  8.50D-07    CP:  1.00D+00
 FoFJK:  IHMeth= 1 ICntrl=     0 DoSepK=T KAlg= 1 I1Cent= 0 FoldK=F
 E= -151.560016126119     Delta-E=       -0.000000040789 Rises=F Damp=F
 DIIS: error= 2.74D-06 at cycle   2 NSaved=   2.
 NSaved= 2 IEnMin= 2 EnMin= -151.560016126119     IErMin= 2 ErrMin= 2.74D-06
 ErrMax= 2.74D-06 EMaxC= 1.00D-01 BMatC= 1.38D-09 BMatP= 3.90D-08
 IDIUse=1 WtCom= 1.00D+00 WtEn= 0.00D+00
 Coeff-Com: -0.117D+00 0.112D+01
 Coeff:     -0.117D+00 0.112D+01
 Gap=     0.427 Goal=   None    Shift=    0.000
 RMSDP=3.86D-07 MaxDP=8.28D-06 DE=-4.08D-08 OVMax= 2.69D-05

 Cycle   3  Pass 1  IDiag  1:
 RMSU=  1.62D-07    CP:  1.00D+00  1.26D+00
 FoFJK:  IHMeth= 1 ICntrl=     0 DoSepK=T KAlg= 1 I1Cent= 0 FoldK=F
 E= -151.560016129161     Delta-E=       -0.000000003042 Rises=F Damp=F
 DIIS: error= 1.32D-06 at cycle   3 NSaved=   3.
 NSaved= 3 IEnMin= 3 EnMin= -151.560016129161     IErMin= 3 ErrMin= 1.32D-06
 ErrMax= 1.32D-06 EMaxC= 1.00D-01 BMatC= 2.73D-10 BMatP= 1.38D-09
 IDIUse=1 WtCom= 1.00D+00 WtEn= 0.00D+00
 Coeff-Com: -0.435D-01 0.246D+00 0.797D+00
 Coeff:     -0.435D-01 0.246D+00 0.797D+00
 Gap=     0.427 Goal=   None    Shift=    0.000
 RMSDP=1.22D-07 MaxDP=3.77D-06 DE=-3.04D-09 OVMax= 7.17D-06

 Cycle   4  Pass 1  IDiag  1:
 RMSU=  7.34D-08    CP:  1.00D+00  1.31D+00  1.11D+00
 FoFJK:  IHMeth= 1 ICntrl=     0 DoSepK=T KAlg= 1 I1Cent= 0 FoldK=F
 E= -151.560016129409     Delta-E=       -0.000000000248 Rises=F Damp=F
 DIIS: error= 9.62D-07 at cycle   4 NSaved=   4.
 NSaved= 4 IEnMin= 4 EnMin= -151.560016129409     IErMin= 4 ErrMin= 9.62D-07
 ErrMax= 9.62D-07 EMaxC= 1.00D-01 BMatC= 1.75D-10 BMatP= 2.73D-10
 IDIUse=1 WtCom= 1.00D+00 WtEn= 0.00D+00
 Coeff-Com:  0.390D-02-0.137D+00 0.466D+00 0.667D+00
 Coeff:      0.390D-02-0.137D+00 0.466D+00 0.667D+00
 Gap=     0.427 Goal=   None    Shift=    0.000
 RMSDP=6.82D-08 MaxDP=1.60D-06 DE=-2.48D-10 OVMax= 4.19D-06

 Cycle   5  Pass 1  IDiag  1:
 RMSU=  1.85D-08    CP:  1.00D+00  1.33D+00  1.34D+00  7.99D-01
 FoFJK:  IHMeth= 1 ICntrl=     0 DoSepK=T KAlg= 1 I1Cent= 0 FoldK=F
 E= -151.560016129567     Delta-E=       -0.000000000158 Rises=F Damp=F
 DIIS: error= 1.77D-07 at cycle   5 NSaved=   5.
 NSaved= 5 IEnMin= 5 EnMin= -151.560016129567     IErMin= 5 ErrMin= 1.77D-07
 ErrMax= 1.77D-07 EMaxC= 1.00D-01 BMatC= 3.92D-12 BMatP= 1.75D-10
 IDIUse=1 WtCom= 1.00D+00 WtEn= 0.00D+00
 Coeff-Com:  0.461D-02-0.436D-01-0.344D-01 0.700D-01 0.100D+01
 Coeff:      0.461D-02-0.436D-01-0.344D-01 0.700D-01 0.100D+01
 Gap=     0.427 Goal=   None    Shift=    0.000
 RMSDP=2.39D-08 MaxDP=4.10D-07 DE=-1.58D-10 OVMax= 2.19D-06

 Cycle   6  Pass 1  IDiag  1:
 RMSU=  6.52D-09    CP:  1.00D+00  1.34D+00  1.40D+00  9.03D-01  1.41D+00
 FoFJK:  IHMeth= 1 ICntrl=     0 DoSepK=T KAlg= 1 I1Cent= 0 FoldK=F
 E= -151.560016129578     Delta-E=       -0.000000000011 Rises=F Damp=F
 DIIS: error= 5.63D-08 at cycle   6 NSaved=   6.
 NSaved= 6 IEnMin= 6 EnMin= -151.560016129578     IErMin= 6 ErrMin= 5.63D-08
 ErrMax= 5.63D-08 EMaxC= 1.00D-01 BMatC= 3.70D-13 BMatP= 3.92D-12
 IDIUse=1 WtCom= 1.00D+00 WtEn= 0.00D+00
 Coeff-Com:  0.373D-05 0.733D-02-0.323D-01-0.403D-01 0.563D-01 0.101D+01
 Coeff:      0.373D-05 0.733D-02-0.323D-01-0.403D-01 0.563D-01 0.101D+01
 Gap=     0.427 Goal=   None    Shift=    0.000
 RMSDP=8.73D-09 MaxDP=1.74D-07 DE=-1.11D-11 OVMax= 8.66D-07

 SCF Done:  E(RwB97XD) =  -151.560016130     A.U. after    6 cycles
             Convg  =    0.8733D-08             -V/T =  2.0061
 KE= 1.506370270004D+02 PE=-4.316743893168D+02 EE= 9.286523397206D+01
 Leave Link  502 at Mon May  4 10:59:31 2020, MaxMem= 1073741824 cpu:      45.1
 (Enter /home/matheus/.gaussian/g09/l122.exe)
 Restoring MOs from calculation   5 to rwf.
 Counterpoise: doing MCBS calculation for fragment   2
 Leave Link  122 at Mon May  4 10:59:31 2020, MaxMem= 1073741824 cpu:       0.0
 (Enter /home/matheus/.gaussian/g09/l301.exe)
 Basis read from rwf:  (5D, 7F)
 No pseudopotential information found on rwf file.
 There are    59 symmetry adapted basis functions of A   symmetry.
 Integral buffers will be    131072 words long.
 Raffenetti 2 integral format.
 Two-electron integral symmetry is turned on.
    59 basis functions,   217 primitive gaussians,    69 cartesian basis functions
    18 alpha electrons       18 beta electrons
       nuclear repulsion energy         0.0000000000 Hartrees.
 IExCor= 4639 DFT=T Ex+Corr=wB97XD ExCW=0 ScaHFX=  1.000000
 ScaDFX=  1.000000  1.000000  1.000000  1.000000 ScalE2=  1.000000  1.000000
 IRadAn=      5 IRanWt=     -1 IRanGd=            0 ICorTp=0
  HFx wShort=  0.000000 wLong=  0.250000 cFull=  0.222036 cShort=  0.000000 cLong=  0.777964
  DFx wShort=  0.000000 wLong=  0.250000 cFull=  0.000000 cShort=  0.000000 cLong=  1.000000
 NAtoms=    5 NActive=    1 NUniq=    1 SFac= 1.00D+00 NAtFMM=   60 NAOKFM=F Big=F
 R6Disp: Dispersion energy =         0.0000000000 Hartrees.
 Nuclear repulsion after empirical dispersion term =        0.0000000000 Hartrees.
 No density basis found on file   718.
 Leave Link  301 at Mon May  4 10:59:31 2020, MaxMem= 1073741824 cpu:       0.2
 (Enter /home/matheus/.gaussian/g09/l302.exe)
 NPDir=0 NMtPBC=     1 NCelOv=     1 NCel=       1 NClECP=     1 NCelD=      1
         NCelK=      1 NCelE2=     1 NClLst=     1 CellRange=     0.0.
 One-electron integrals computed using PRISM.
 NBasis=    59 RedAO= T  NBF=    59
 NBsUse=    59 1.00D-06 NBFU=    59
 Precomputing XC quadrature grid using
 IXCGrd= 2 IRadAn=           5 IRanWt=          -1 IRanGd=           0 AccXCQ= 0.00D+00.
 NRdTot=      81 NPtTot=       30352 NUsed=       30981 NTot=       31013
 NSgBfM=    69    69    69    69    69 NAtAll=     1     1.
 Leave Link  302 at Mon May  4 10:59:32 2020, MaxMem= 1073741824 cpu:       0.6
 (Enter /home/matheus/.gaussian/g09/l303.exe)
 DipDrv:  MaxL=1.
 Leave Link  303 at Mon May  4 10:59:32 2020, MaxMem= 1073741824 cpu:       0.1
 (Enter /home/matheus/.gaussian/g09/l401.exe)
 Initial guess read from the read-write file.
 Guess basis will be translated and rotated to current coordinates.
 Initial guess orbital symmetries:
       Occupied  (A) (A) (A) (A) (A) (A) (A) (A) (A) (A) (A) (A)
                 (A) (A) (A) (A) (A) (A)
       Virtual   (A) (A) (A) (A) (A) (A) (A) (A) (A) (A) (A) (A)
                 (A) (A) (A) (A) (A) (A) (A) (A) (A) (A) (A) (A)
                 (A) (A) (A) (A) (A) (A) (A) (A) (A) (A) (A) (A)
                 (A) (A) (A) (A) (A)
 The electronic state of the initial guess is 1-A.
 Generating alternative initial guess.
 Harris functional with IExCor= 4639 diagonalized for initial guess.
 ExpMin= 4.00D-02 ExpMax= 1.17D+07 ExpMxC= 1.33D+04 IAcc=3 IRadAn=         5 AccDes= 0.00D+00
 HarFok:  IExCor= 4639 AccDes= 0.00D+00 IRadAn=         5 IDoV= 1
 ScaDFX=  1.000000  1.000000  1.000000  1.000000
 FoFCou: FMM=F IPFlag=           0 FMFlag=      100000 FMFlg1=           0
         NFxFlg=           0 DoJE=T BraDBF=F KetDBF=T FulRan=T
         Omega=  0.000000  0.000000  1.000000  0.000000  0.000000 ICntrl=     500 IOpCl=  0
         NMat0=    1 NMatS0=    1 NMatT0=    0 NMatD0=    1 NMtDS0=    0 NMtDT0=    0
         I1Cent=           4 NGrid=           0.
 Petite list used in FoFCou.
 Harris En= -2729.45839233129    
 Leave Link  401 at Mon May  4 10:59:32 2020, MaxMem= 1073741824 cpu:       1.0
 (Enter /home/matheus/.gaussian/g09/l502.exe)
 Closed shell SCF:
 Requested convergence on RMS density matrix=1.00D-08 within 128 cycles.
 Requested convergence on MAX density matrix=1.00D-06.
 Requested convergence on             energy=1.00D-06.
 No special actions if energy rises.
 Using DIIS extrapolation, IDIIS=  1040.
 Integral symmetry usage will be decided dynamically.
        30923 words used for storage of precomputed grid.
 IEnd=       64406 IEndB=       64406 NGot=  1073741824 MDV=  1073698889
 LenX=  1073698889 LenY=  1073693687
 Fock matrices will be formed incrementally for  20 cycles.

 Cycle   1  Pass 1  IDiag  1:
 FoFJK:  IHMeth= 1 ICntrl=     0 DoSepK=T KAlg= 1 I1Cent= 0 FoldK=F
 FoFCou: FMM=F IPFlag=           0 FMFlag=      100000 FMFlg1=           0
         NFxFlg=           0 DoJE=T BraDBF=F KetDBF=F FulRan=T
         Omega=  0.000000  0.000000  1.000000  0.000000  0.000000 ICntrl=     500 IOpCl=  0
         NMat0=    1 NMatS0=    1 NMatT0=    0 NMatD0=    1 NMtDS0=    0 NMtDT0=    0
         I1Cent=           0 NGrid=           0.
 Symmetry not used in FoFCou.
 E= -2753.87011063501    
 DIIS: error= 1.32D-13 at cycle   1 NSaved=   1.
 NSaved= 1 IEnMin= 1 EnMin= -2753.87011063501     IErMin= 1 ErrMin= 1.32D-13
 ErrMax= 1.32D-13 EMaxC= 1.00D-01 BMatC= 3.87D-25 BMatP= 3.87D-25
 IDIUse=1 WtCom= 1.00D+00 WtEn= 0.00D+00
 Coeff-Com:  0.100D+01
 Coeff:      0.100D+01
 Gap=     0.578 Goal=   None    Shift=    0.000
 RMSDP=1.25D-14 MaxDP=2.40D-13              OVMax= 2.25D-13

 SCF Done:  E(RwB97XD) =  -2753.87011064     A.U. after    1 cycles
             Convg  =    0.1247D-13             -V/T =  2.0013
 KE= 2.750289370128D+03 PE=-6.580200885036D+03 EE= 1.076041404273D+03
 Leave Link  502 at Mon May  4 10:59:33 2020, MaxMem= 1073741824 cpu:      11.7
 (Enter /home/matheus/.gaussian/g09/l122.exe)
 Restoring MOs from calculation   1 to rwf.
 Counterpoise: corrected energy =   -2905.430431139167
 Counterpoise: BSSE energy =       0.000019982231
 Leave Link  122 at Mon May  4 10:59:33 2020, MaxMem= 1073741824 cpu:       0.0
 (Enter /home/matheus/.gaussian/g09/l108.exe)
 Scan completed.

 Summary of the potential surface scan:
   N      R1          SCF    
 ----  ---------  -----------
    1     3.0000  -2753.87011
    2     3.1000  -2753.87011
    3     3.2000  -2753.87011
    4     3.3000  -2753.87011
    5     3.4000  -2753.87011
    6     3.5000  -2753.87011
    7     3.6000  -2753.87011
    8     3.7000  -2753.87011
    9     3.8000  -2753.87011
   10     3.9000  -2753.87011
   11     4.0000  -2753.87011
   12     4.1000  -2753.87011
   13     4.2000  -2753.87011
   14     4.3000  -2753.87011
   15     4.4000  -2753.87011
   16     4.5000  -2753.87011
   17     4.6000  -2753.87011
   18     4.7000  -2753.87011
   19     4.8000  -2753.87011
   20     4.9000  -2753.87011
   21     5.0000  -2753.87011
 ----  ---------  -----------
  
 Leave Link  108 at Mon May  4 10:59:33 2020, MaxMem= 1073741824 cpu:       0.0
 (Enter /home/matheus/.gaussian/g09/l9999.exe)

 Test job not archived.
 1\1\GINC-REDGIANT\Scan\RwB97XD\Aug-CC-pVTZ\H2Kr1O2\ROOT\04-May-2020\1\
 \#p wb97xd/aug-cc-PVTz iop(3/107=0250000000) iop(3/108=0250000000) int
 =ultrafine counterpoise=2 Scan\\TCC\\0,1\O,0,0.,0.,0.725\O,0,0.,0.,-0.
 725\H,0,-0.795635374,-0.4593602974,1.0235104166\H,0,0.,0.9187205947,-1
 .0235104166\Kr,0,0.,R1,0.\\R1=3.,s,20,0.1\\Version=EM64L-G09RevC.01\St
 ate=1-A\HF=-2753.8701106,-2753.8701106,-2753.8701106,-2753.8701106,-27
 53.8701106,-2753.8701106,-2753.8701106,-2753.8701106,-2753.8701106,-27
 53.8701106,-2753.8701106,-2753.8701106,-2753.8701106,-2753.8701106,-27
 53.8701106,-2753.8701106,-2753.8701106,-2753.8701106,-2753.8701106,-27
 53.8701106,-2753.8701106\RMSD=9.654e-09,1.847e-10,5.406e-11,3.458e-11,
 1.948e-11,1.188e-11,7.099e-12,4.284e-12,2.574e-12,1.550e-12,9.313e-13,
 5.610e-13,3.353e-13,2.002e-13,1.199e-13,7.296e-14,4.242e-14,2.817e-14,
 1.745e-14,1.191e-14,1.247e-14\PG=C01 [X(H2Kr1O2)]\\@


 THOSE WHO ARE UNABLE TO LEARN FROM PAST MEETINGS
 ARE CONDEMNED TO REPEAT THEM.
 Job cpu time:  0 days  3 hours 23 minutes 43.4 seconds.
 File lengths (MBytes):  RWF=     33 Int=      0 D2E=      0 Chk=      8 Scr=      1
 Normal termination of Gaussian 09 at Mon May  4 10:59:33 2020.
