 Entering Gaussian System, Link 0=g09
 Input=/home/matheus/.tcc/Inputs-wb97xd/H2O2-Kr_34.com
 Output=/home/matheus/.tcc/Logs-wb97xd/H2O2-Kr_34.log
 Initial command:
 /home/matheus/.gaussian/g09/l1.exe /home/matheus/.gaussian/g09/scratch/Gau-9572.inp -scrdir=/home/matheus/.gaussian/g09/scratch/
 Entering Link 1 = /home/matheus/.gaussian/g09/l1.exe PID=      9575.
  
 Copyright (c) 1988,1990,1992,1993,1995,1998,2003,2009,2011,
            Gaussian, Inc.  All Rights Reserved.
  
 This is part of the Gaussian(R) 09 program.  It is based on
 the Gaussian(R) 03 system (copyright 2003, Gaussian, Inc.),
 the Gaussian(R) 98 system (copyright 1998, Gaussian, Inc.),
 the Gaussian(R) 94 system (copyright 1995, Gaussian, Inc.),
 the Gaussian 92(TM) system (copyright 1992, Gaussian, Inc.),
 the Gaussian 90(TM) system (copyright 1990, Gaussian, Inc.),
 the Gaussian 88(TM) system (copyright 1988, Gaussian, Inc.),
 the Gaussian 86(TM) system (copyright 1986, Carnegie Mellon
 University), and the Gaussian 82(TM) system (copyright 1983,
 Carnegie Mellon University). Gaussian is a federally registered
 trademark of Gaussian, Inc.
  
 This software contains proprietary and confidential information,
 including trade secrets, belonging to Gaussian, Inc.
  
 This software is provided under written license and may be
 used, copied, transmitted, or stored only in accord with that
 written license.
  
 The following legend is applicable only to US Government
 contracts under FAR:
  
                    RESTRICTED RIGHTS LEGEND
  
 Use, reproduction and disclosure by the US Government is
 subject to restrictions as set forth in subparagraphs (a)
 and (c) of the Commercial Computer Software - Restricted
 Rights clause in FAR 52.227-19.
  
 Gaussian, Inc.
 340 Quinnipiac St., Bldg. 40, Wallingford CT 06492
  
  
 ---------------------------------------------------------------
 Warning -- This program may not be used in any manner that
 competes with the business of Gaussian, Inc. or will provide
 assistance to any competitor of Gaussian, Inc.  The licensee
 of this program is prohibited from giving any competitor of
 Gaussian, Inc. access to this program.  By using this program,
 the user acknowledges that Gaussian, Inc. is engaged in the
 business of creating and licensing software in the field of
 computational chemistry and represents and warrants to the
 licensee that it is not a competitor of Gaussian, Inc. and that
 it will not use this program in any manner prohibited above.
 ---------------------------------------------------------------
  

 Cite this work as:
 Gaussian 09, Revision C.01,
 M. J. Frisch, G. W. Trucks, H. B. Schlegel, G. E. Scuseria, 
 M. A. Robb, J. R. Cheeseman, G. Scalmani, V. Barone, B. Mennucci, 
 G. A. Petersson, H. Nakatsuji, M. Caricato, X. Li, H. P. Hratchian, 
 A. F. Izmaylov, J. Bloino, G. Zheng, J. L. Sonnenberg, M. Hada, 
 M. Ehara, K. Toyota, R. Fukuda, J. Hasegawa, M. Ishida, T. Nakajima, 
 Y. Honda, O. Kitao, H. Nakai, T. Vreven, J. A. Montgomery, Jr., 
 J. E. Peralta, F. Ogliaro, M. Bearpark, J. J. Heyd, E. Brothers, 
 K. N. Kudin, V. N. Staroverov, T. Keith, R. Kobayashi, J. Normand, 
 K. Raghavachari, A. Rendell, J. C. Burant, S. S. Iyengar, J. Tomasi, 
 M. Cossi, N. Rega, J. M. Millam, M. Klene, J. E. Knox, J. B. Cross, 
 V. Bakken, C. Adamo, J. Jaramillo, R. Gomperts, R. E. Stratmann, 
 O. Yazyev, A. J. Austin, R. Cammi, C. Pomelli, J. W. Ochterski, 
 R. L. Martin, K. Morokuma, V. G. Zakrzewski, G. A. Voth, 
 P. Salvador, J. J. Dannenberg, S. Dapprich, A. D. Daniels, 
 O. Farkas, J. B. Foresman, J. V. Ortiz, J. Cioslowski, 
 and D. J. Fox, Gaussian, Inc., Wallingford CT, 2010.
 
 ******************************************
 Gaussian 09:  EM64L-G09RevC.01 23-Sep-2011
                 4-May-2020 
 ******************************************
 %mem=8GB
 %nproc=8
 Will use up to    8 processors via shared memory.
 ----------------------------------------------------------------------
 #p wb97xd/aug-cc-PVTz iop(3/107=0250000000) iop(3/108=0250000000) int=
 ultrafine counterpoise=2 Scan
 ----------------------------------------------------------------------
 1/38=1,60=1,62=2/1,8;
 2/12=2,17=6,18=5,29=3,40=1/2;
 1/38=1,53=5172,62=2/22;
 3/5=16,6=1,7=10,11=2,16=1,25=1,30=1,74=-58,75=-5,107=250000000,108=250000000/1,2,3;
 4//1;
 5/5=2,38=5/2;
 6/7=2,8=2,9=2,10=2,18=1,28=1/1;
 1/53=4052,62=2,63=1/22;
 3/5=7,6=11,7=10,11=2,16=1,25=1,30=1,74=-58,75=-5,82=7,107=250000000,108=250000000/1,2,3;
 4//1;
 5/5=2,38=5/2;
 6/7=2,8=2,9=2,10=2,18=1,28=1/1;
 1/53=3042,62=2,63=2/22;
 3/5=7,6=11,7=10,11=2,16=1,25=1,30=1,74=-58,75=-5,82=7,107=250000000,108=250000000/1,2,3;
 4//1;
 5/5=2,38=5/2;
 6/7=2,8=2,9=2,10=2,18=1,28=1/1;
 1/53=2032,62=2,63=3/22;
 3/5=7,6=11,7=10,11=2,16=1,25=1,30=1,74=-58,75=-5,82=7,107=250000000,108=250000000/1,2,3;
 4//1;
 5/5=2,38=5/2;
 6/7=2,8=2,9=2,10=2,18=1,28=1/1;
 1/53=1022,62=2,63=4/22;
 3/5=7,6=11,7=10,11=2,16=1,25=1,30=1,74=-58,75=-5,82=7,107=250000000,108=250000000/1,2,3;
 4//1;
 5/5=2,38=5/2;
 6/7=2,8=2,9=2,10=2,18=1,28=1/1;
 1/53=5014,62=2,63=5/22;
 1/60=1,62=2/8(1);
 99/9=1/99;
 2/29=3/2;
 1/53=5173,62=2/22;
 3/5=7,6=11,7=10,11=2,16=1,25=1,30=1,74=-58,75=-5,82=7,107=250000000,108=250000000/1,2,3;
 4/5=5,16=3/1;
 5/5=2,38=5/2;
 1/53=4053,62=2,63=1/22;
 3/5=7,6=11,7=10,11=2,16=1,25=1,30=1,74=-58,75=-5,82=7,107=250000000,108=250000000/1,2,3;
 4/5=5,16=3/1;
 5/5=2,38=5/2;
 1/53=3043,62=2,63=2/22;
 3/5=7,6=11,7=10,11=2,16=1,25=1,30=1,74=-58,75=-5,82=7,107=250000000,108=250000000/1,2,3;
 4/5=5,16=3/1;
 5/5=2,38=5/2;
 1/53=2033,62=2,63=3/22;
 3/5=7,6=11,7=10,11=2,16=1,25=1,30=1,74=-58,75=-5,82=7,107=250000000,108=250000000/1,2,3;
 4/5=5,16=3/1;
 5/5=2,38=5/2;
 1/53=1024,62=2,63=4/22;
 3/5=7,6=11,7=10,11=2,16=1,25=1,30=1,74=-58,75=-5,82=7,107=250000000,108=250000000/1,2,3;
 4/5=5,16=3/1;
 5/5=2,38=5/2;
 1/53=5014,62=2,63=5/22;
 1/60=1,62=2/8(-22);
 99/9=1/99;
 Leave Link    1 at Mon May  4 15:01:26 2020, MaxMem= 1073741824 cpu:       0.1
 (Enter /home/matheus/.gaussian/g09/l101.exe)
 ---
 TCC
 ---
 Charge =  0 Multiplicity = 1 in supermolecule
 Charge =  0 Multiplicity = 1 in fragment  1.
 Charge =  0 Multiplicity = 1 in fragment  2.
 Symbolic Z-Matrix:
 O(Fragment=1)         0.        0.        0.725 
 O(Fragment=1)         0.        0.       -0.725 
 H(Fragment=1)        -0.31422   0.86331   1.02351 
 H(Fragment=1)         0.        0.91872  -1.02351 
 Kr(Fragment=2)        0.       R1        0. 
       Variables:
  R1                    3.     Scan 20    0.1    
 
 NAtoms=      5 NQM=        0 NQMF=       0 NMMI=      5 NMMIF=      0
                NMic=       0 NMicF=      0.
                    Isotopes and Nuclear Properties:
 (Nuclear quadrupole moments (NQMom) in fm**2, nuclear magnetic moments (NMagM)
  in nuclear magnetons)

  Atom         1           2           3           4           5
 IAtWgt=          16          16           1           1          84
 AtmWgt=  15.9949146  15.9949146   1.0078250   1.0078250  83.9115064
 NucSpn=           0           0           1           1           0
 AtZEff=   0.0000000   0.0000000   0.0000000   0.0000000   0.0000000
 NQMom=    0.0000000   0.0000000   0.0000000   0.0000000   0.0000000
 NMagM=    0.0000000   0.0000000   2.7928460   2.7928460   0.0000000
 Leave Link  101 at Mon May  4 15:01:27 2020, MaxMem= 1073741824 cpu:       0.3
 (Enter /home/matheus/.gaussian/g09/l108.exe)
 Scan the potential surface.
 Variable   Value     No. Steps Step-Size
 -------- ----------- --------- ---------
     1       3.000000      20      0.1000
 A total of     21 points will be computed.
 Leave Link  108 at Mon May  4 15:01:27 2020, MaxMem= 1073741824 cpu:       0.0
 (Enter /home/matheus/.gaussian/g09/l202.exe)
 ---------------------------------------------------------------------------------------------------
                            Z-MATRIX (ANGSTROMS AND DEGREES)
   CD    Cent   Atom    N1       Length/X        N2       Alpha/Y        N3        Beta/Z          J
 ---------------------------------------------------------------------------------------------------
      1      1  O        0   0.000000          0.000000          0.725000
      2      2  O        0   0.000000          0.000000         -0.725000
      3      3  H        0  -0.314221          0.863315          1.023510
      4      4  H        0   0.000000          0.918721         -1.023510
      5      5  Kr       0   0.000000          3.000000          0.000000
 ---------------------------------------------------------------------------------------------------
                         Z-Matrix orientation:                         
 ---------------------------------------------------------------------
 Center     Atomic      Atomic             Coordinates (Angstroms)
 Number     Number       Type             X           Y           Z
 ---------------------------------------------------------------------
      1          8           0        0.000000    0.000000    0.725000
      2          8           0        0.000000    0.000000   -0.725000
      3          1           0       -0.314221    0.863315    1.023510
      4          1           0        0.000000    0.918721   -1.023510
      5         36           0        0.000000    3.000000    0.000000
 ---------------------------------------------------------------------
                    Distance matrix (angstroms):
                    1          2          3          4          5
     1  O    0.000000
     2  O    1.450000   0.000000
     3  H    0.966000   1.975180   0.000000
     4  H    1.975180   0.966000   2.071738   0.000000
     5  Kr   3.086361   3.086361   2.389923   2.319331   0.000000
 Stoichiometry    H2KrO2
 Framework group  C1[X(H2KrO2)]
 Deg. of freedom     9
 Full point group                 C1      NOp   1
 Largest Abelian subgroup         C1      NOp   1
 Largest concise Abelian subgroup C1      NOp   1
                         Standard orientation:                         
 ---------------------------------------------------------------------
 Center     Atomic      Atomic             Coordinates (Angstroms)
 Number     Number       Type             X           Y           Z
 ---------------------------------------------------------------------
      1          8           0       -2.033423   -0.722971   -0.035434
      2          8           0       -2.032510    0.726339    0.009272
      3          1           0       -1.171431   -1.031666    0.272517
      4          1           0       -1.113607    1.024028    0.021759
      5         36           0        0.967014   -0.000536   -0.002361
 ---------------------------------------------------------------------
 Rotational constants (GHZ):     26.5652681      2.3862430      2.1913165
 Leave Link  202 at Mon May  4 15:01:27 2020, MaxMem= 1073741824 cpu:       0.0
 (Enter /home/matheus/.gaussian/g09/l122.exe)
 Leave Link  122 at Mon May  4 15:01:27 2020, MaxMem= 1073741824 cpu:       0.0
 (Enter /home/matheus/.gaussian/g09/l301.exe)
 Standard basis: Aug-CC-pVTZ (5D, 7F)
 Ernie: Thresh=  0.10000D-02 Tol=  0.10000D-05 Strict=F.
 Ernie:  38 primitive shells out of 205 were deleted.
 There are   197 symmetry adapted basis functions of A   symmetry.
 Integral buffers will be    131072 words long.
 Raffenetti 2 integral format.
 Two-electron integral symmetry is turned on.
   197 basis functions,   415 primitive gaussians,   229 cartesian basis functions
    27 alpha electrons       27 beta electrons
       nuclear repulsion energy       151.6075768884 Hartrees.
 IExCor= 4639 DFT=T Ex+Corr=wB97XD ExCW=0 ScaHFX=  1.000000
 ScaDFX=  1.000000  1.000000  1.000000  1.000000 ScalE2=  1.000000  1.000000
 IRadAn=      5 IRanWt=     -1 IRanGd=            0 ICorTp=0
  HFx wShort=  0.000000 wLong=  0.250000 cFull=  0.222036 cShort=  0.000000 cLong=  0.777964
  DFx wShort=  0.000000 wLong=  0.250000 cFull=  0.000000 cShort=  0.000000 cLong=  1.000000
 NAtoms=    5 NActive=    5 NUniq=    5 SFac= 1.00D+00 NAtFMM=   60 NAOKFM=F Big=F
 R6Disp: Dispersion energy =        -0.0007717585 Hartrees.
 Nuclear repulsion after empirical dispersion term =      151.6068051300 Hartrees.
 Leave Link  301 at Mon May  4 15:01:27 2020, MaxMem= 1073741824 cpu:       0.2
 (Enter /home/matheus/.gaussian/g09/l302.exe)
 NPDir=0 NMtPBC=     1 NCelOv=     1 NCel=       1 NClECP=     1 NCelD=      1
         NCelK=      1 NCelE2=     1 NClLst=     1 CellRange=     0.0.
 One-electron integrals computed using PRISM.
 NBasis=   197 RedAO= T  NBF=   197
 NBsUse=   197 1.00D-06 NBFU=   197
 Precomputing XC quadrature grid using
 IXCGrd= 2 IRadAn=           5 IRanWt=          -1 IRanGd=           0 AccXCQ= 0.00D+00.
 NRdTot=     427 NPtTot=      123512 NUsed=      126579 NTot=      126611
 NSgBfM=   229   229   229   229   229 NAtAll=     5     5.
 Leave Link  302 at Mon May  4 15:01:27 2020, MaxMem= 1073741824 cpu:       0.9
 (Enter /home/matheus/.gaussian/g09/l303.exe)
 DipDrv:  MaxL=1.
 Leave Link  303 at Mon May  4 15:01:27 2020, MaxMem= 1073741824 cpu:       0.2
 (Enter /home/matheus/.gaussian/g09/l401.exe)
 Harris functional with IExCor= 4639 diagonalized for initial guess.
 ExpMin= 2.53D-02 ExpMax= 1.17D+07 ExpMxC= 1.33D+04 IAcc=3 IRadAn=         5 AccDes= 0.00D+00
 HarFok:  IExCor= 4639 AccDes= 0.00D+00 IRadAn=         5 IDoV= 1
 ScaDFX=  1.000000  1.000000  1.000000  1.000000
 FoFCou: FMM=F IPFlag=           0 FMFlag=      100000 FMFlg1=           0
         NFxFlg=           0 DoJE=T BraDBF=F KetDBF=T FulRan=T
         Omega=  0.000000  0.000000  1.000000  0.000000  0.000000 ICntrl=     500 IOpCl=  0
         NMat0=    1 NMatS0=    1 NMatT0=    0 NMatD0=    1 NMtDS0=    0 NMtDT0=    0
         I1Cent=           4 NGrid=           0.
 Petite list used in FoFCou.
 Harris En= -2875.38753328395    
 Initial guess orbital symmetries:
       Occupied  (A) (A) (A) (A) (A) (A) (A) (A) (A) (A) (A) (A)
                 (A) (A) (A) (A) (A) (A) (A) (A) (A) (A) (A) (A)
                 (A) (A) (A)
       Virtual   (A) (A) (A) (A) (A) (A) (A) (A) (A) (A) (A) (A)
                 (A) (A) (A) (A) (A) (A) (A) (A) (A) (A) (A) (A)
                 (A) (A) (A) (A) (A) (A) (A) (A) (A) (A) (A) (A)
                 (A) (A) (A) (A) (A) (A) (A) (A) (A) (A) (A) (A)
                 (A) (A) (A) (A) (A) (A) (A) (A) (A) (A) (A) (A)
                 (A) (A) (A) (A) (A) (A) (A) (A) (A) (A) (A) (A)
                 (A) (A) (A) (A) (A) (A) (A) (A) (A) (A) (A) (A)
                 (A) (A) (A) (A) (A) (A) (A) (A) (A) (A) (A) (A)
                 (A) (A) (A) (A) (A) (A) (A) (A) (A) (A) (A) (A)
                 (A) (A) (A) (A) (A) (A) (A) (A) (A) (A) (A) (A)
                 (A) (A) (A) (A) (A) (A) (A) (A) (A) (A) (A) (A)
                 (A) (A) (A) (A) (A) (A) (A) (A) (A) (A) (A) (A)
                 (A) (A) (A) (A) (A) (A) (A) (A) (A) (A) (A) (A)
                 (A) (A) (A) (A) (A) (A) (A) (A) (A) (A) (A) (A)
                 (A) (A)
 The electronic state of the initial guess is 1-A.
 Leave Link  401 at Mon May  4 15:01:27 2020, MaxMem= 1073741824 cpu:       3.9
 (Enter /home/matheus/.gaussian/g09/l502.exe)
 Closed shell SCF:
 Requested convergence on RMS density matrix=1.00D-08 within 128 cycles.
 Requested convergence on MAX density matrix=1.00D-06.
 Requested convergence on             energy=1.00D-06.
 No special actions if energy rises.
 Using DIIS extrapolation, IDIIS=  1040.
 Integral symmetry usage will be decided dynamically.
       126521 words used for storage of precomputed grid.
 IEnd=      305468 IEndB=      305468 NGot=  1073741824 MDV=  1073505667
 LenX=  1073505667 LenY=  1073452785
 Fock matrices will be formed incrementally for  20 cycles.

 Cycle   1  Pass 1  IDiag  1:
 FoFJK:  IHMeth= 1 ICntrl=     0 DoSepK=T KAlg= 1 I1Cent= 0 FoldK=F
 FoFCou: FMM=F IPFlag=           0 FMFlag=      100000 FMFlg1=           0
         NFxFlg=           0 DoJE=T BraDBF=F KetDBF=F FulRan=T
         Omega=  0.000000  0.000000  1.000000  0.000000  0.000000 ICntrl=     500 IOpCl=  0
         NMat0=    1 NMatS0=    1 NMatT0=    0 NMatD0=    1 NMtDS0=    0 NMtDT0=    0
         I1Cent=           0 NGrid=           0.
 Symmetry not used in FoFCou.
 E= -2904.88856237593    
 DIIS: error= 8.83D-02 at cycle   1 NSaved=   1.
 NSaved= 1 IEnMin= 1 EnMin= -2904.88856237593     IErMin= 1 ErrMin= 8.83D-02
 ErrMax= 8.83D-02 EMaxC= 1.00D-01 BMatC= 2.24D+00 BMatP= 2.24D+00
 IDIUse=3 WtCom= 1.17D-01 WtEn= 8.83D-01
 Coeff-Com:  0.100D+01
 Coeff-En:   0.100D+01
 Coeff:      0.100D+01
 Gap=     0.519 Goal=   None    Shift=    0.000
 GapD=    0.519 DampG=2.000 DampE=0.500 DampFc=1.0000 IDamp=-1.
 RMSDP=6.38D-03 MaxDP=3.78D-01              OVMax= 1.89D-01

 Cycle   2  Pass 1  IDiag  1:
 RMSU=  4.49D-03    CP:  1.02D+00
 FoFJK:  IHMeth= 1 ICntrl=     0 DoSepK=T KAlg= 1 I1Cent= 0 FoldK=F
 E= -2905.21809458199     Delta-E=       -0.329532206059 Rises=F Damp=F
 DIIS: error= 3.51D-02 at cycle   2 NSaved=   2.
 NSaved= 2 IEnMin= 2 EnMin= -2905.21809458199     IErMin= 2 ErrMin= 3.51D-02
 ErrMax= 3.51D-02 EMaxC= 1.00D-01 BMatC= 5.66D-01 BMatP= 2.24D+00
 IDIUse=3 WtCom= 6.49D-01 WtEn= 3.51D-01
 Coeff-Com:  0.327D+00 0.673D+00
 Coeff-En:   0.187D+00 0.813D+00
 Coeff:      0.278D+00 0.722D+00
 Gap=     0.469 Goal=   None    Shift=    0.000
 RMSDP=2.80D-03 MaxDP=1.64D-01 DE=-3.30D-01 OVMax= 7.52D-02

 Cycle   3  Pass 1  IDiag  1:
 RMSU=  5.85D-04    CP:  1.02D+00  5.81D-01
 FoFJK:  IHMeth= 1 ICntrl=     0 DoSepK=T KAlg= 1 I1Cent= 0 FoldK=F
 E= -2905.40865799852     Delta-E=       -0.190563416529 Rises=F Damp=F
 DIIS: error= 5.82D-03 at cycle   3 NSaved=   3.
 NSaved= 3 IEnMin= 3 EnMin= -2905.40865799852     IErMin= 3 ErrMin= 5.82D-03
 ErrMax= 5.82D-03 EMaxC= 1.00D-01 BMatC= 2.02D-02 BMatP= 5.66D-01
 IDIUse=3 WtCom= 9.42D-01 WtEn= 5.82D-02
 Coeff-Com:  0.297D-01 0.190D+00 0.780D+00
 Coeff-En:   0.000D+00 0.000D+00 0.100D+01
 Coeff:      0.280D-01 0.179D+00 0.793D+00
 Gap=     0.420 Goal=   None    Shift=    0.000
 RMSDP=5.23D-04 MaxDP=1.64D-02 DE=-1.91D-01 OVMax= 2.62D-02

 Cycle   4  Pass 1  IDiag  1:
 RMSU=  2.38D-04    CP:  1.02D+00  6.43D-01  9.31D-01
 FoFJK:  IHMeth= 1 ICntrl=     0 DoSepK=T KAlg= 1 I1Cent= 0 FoldK=F
 E= -2905.41748497953     Delta-E=       -0.008826981010 Rises=F Damp=F
 DIIS: error= 2.16D-03 at cycle   4 NSaved=   4.
 NSaved= 4 IEnMin= 4 EnMin= -2905.41748497953     IErMin= 4 ErrMin= 2.16D-03
 ErrMax= 2.16D-03 EMaxC= 1.00D-01 BMatC= 1.73D-03 BMatP= 2.02D-02
 IDIUse=3 WtCom= 9.78D-01 WtEn= 2.16D-02
 Coeff-Com: -0.301D-02 0.521D-01 0.373D+00 0.578D+00
 Coeff-En:   0.000D+00 0.000D+00 0.000D+00 0.100D+01
 Coeff:     -0.295D-02 0.510D-01 0.365D+00 0.587D+00
 Gap=     0.404 Goal=   None    Shift=    0.000
 RMSDP=1.28D-04 MaxDP=5.83D-03 DE=-8.83D-03 OVMax= 7.12D-03

 Cycle   5  Pass 1  IDiag  1:
 RMSU=  4.16D-05    CP:  1.02D+00  6.40D-01  9.64D-01  6.81D-01
 FoFJK:  IHMeth= 1 ICntrl=     0 DoSepK=T KAlg= 1 I1Cent= 0 FoldK=F
 E= -2905.41855889046     Delta-E=       -0.001073910927 Rises=F Damp=F
 DIIS: error= 1.08D-04 at cycle   5 NSaved=   5.
 NSaved= 5 IEnMin= 5 EnMin= -2905.41855889046     IErMin= 5 ErrMin= 1.08D-04
 ErrMax= 1.08D-04 EMaxC= 1.00D-01 BMatC= 4.67D-06 BMatP= 1.73D-03
 IDIUse=3 WtCom= 9.99D-01 WtEn= 1.08D-03
 Coeff-Com: -0.656D-03-0.546D-02-0.193D-01-0.128D-01 0.104D+01
 Coeff-En:   0.000D+00 0.000D+00 0.000D+00 0.000D+00 0.100D+01
 Coeff:     -0.656D-03-0.546D-02-0.193D-01-0.128D-01 0.104D+01
 Gap=     0.404 Goal=   None    Shift=    0.000
 RMSDP=2.31D-05 MaxDP=7.22D-04 DE=-1.07D-03 OVMax= 1.31D-03

 Cycle   6  Pass 1  IDiag  1:
 RMSU=  6.97D-06    CP:  1.02D+00  6.40D-01  9.78D-01  7.00D-01  1.27D+00
 FoFJK:  IHMeth= 1 ICntrl=     0 DoSepK=T KAlg= 1 I1Cent= 0 FoldK=F
 E= -2905.41856590826     Delta-E=       -0.000007017799 Rises=F Damp=F
 DIIS: error= 6.79D-05 at cycle   6 NSaved=   6.
 NSaved= 6 IEnMin= 6 EnMin= -2905.41856590826     IErMin= 6 ErrMin= 6.79D-05
 ErrMax= 6.79D-05 EMaxC= 1.00D-01 BMatC= 1.51D-06 BMatP= 4.67D-06
 IDIUse=1 WtCom= 1.00D+00 WtEn= 0.00D+00
 Coeff-Com: -0.150D-03-0.454D-02-0.238D-01-0.302D-01 0.389D+00 0.670D+00
 Coeff:     -0.150D-03-0.454D-02-0.238D-01-0.302D-01 0.389D+00 0.670D+00
 Gap=     0.404 Goal=   None    Shift=    0.000
 RMSDP=5.88D-06 MaxDP=2.13D-04 DE=-7.02D-06 OVMax= 3.58D-04

 Cycle   7  Pass 1  IDiag  1:
 RMSU=  3.11D-06    CP:  1.02D+00  6.40D-01  9.80D-01  7.03D-01  1.33D+00
                    CP:  9.52D-01
 FoFJK:  IHMeth= 1 ICntrl=     0 DoSepK=T KAlg= 1 I1Cent= 0 FoldK=F
 E= -2905.41856695702     Delta-E=       -0.000001048758 Rises=F Damp=F
 DIIS: error= 4.08D-05 at cycle   7 NSaved=   7.
 NSaved= 7 IEnMin= 7 EnMin= -2905.41856695702     IErMin= 7 ErrMin= 4.08D-05
 ErrMax= 4.08D-05 EMaxC= 1.00D-01 BMatC= 3.99D-07 BMatP= 1.51D-06
 IDIUse=1 WtCom= 1.00D+00 WtEn= 0.00D+00
 Coeff-Com:  0.221D-04-0.150D-02-0.927D-02-0.135D-01 0.232D-01 0.352D+00
 Coeff-Com:  0.649D+00
 Coeff:      0.221D-04-0.150D-02-0.927D-02-0.135D-01 0.232D-01 0.352D+00
 Coeff:      0.649D+00
 Gap=     0.404 Goal=   None    Shift=    0.000
 RMSDP=2.47D-06 MaxDP=8.84D-05 DE=-1.05D-06 OVMax= 1.66D-04

 Cycle   8  Pass 1  IDiag  1:
 RMSU=  9.00D-07    CP:  1.02D+00  6.40D-01  9.81D-01  7.04D-01  1.35D+00
                    CP:  1.10D+00  9.05D-01
 FoFJK:  IHMeth= 1 ICntrl=     0 DoSepK=T KAlg= 1 I1Cent= 0 FoldK=F
 E= -2905.41856727248     Delta-E=       -0.000000315459 Rises=F Damp=F
 DIIS: error= 6.13D-06 at cycle   8 NSaved=   8.
 NSaved= 8 IEnMin= 8 EnMin= -2905.41856727248     IErMin= 8 ErrMin= 6.13D-06
 ErrMax= 6.13D-06 EMaxC= 1.00D-01 BMatC= 8.17D-09 BMatP= 3.99D-07
 IDIUse=1 WtCom= 1.00D+00 WtEn= 0.00D+00
 Coeff-Com:  0.189D-04 0.215D-03 0.928D-03 0.595D-03-0.363D-01-0.183D-01
 Coeff-Com:  0.783D-01 0.975D+00
 Coeff:      0.189D-04 0.215D-03 0.928D-03 0.595D-03-0.363D-01-0.183D-01
 Coeff:      0.783D-01 0.975D+00
 Gap=     0.404 Goal=   None    Shift=    0.000
 RMSDP=9.74D-07 MaxDP=2.56D-05 DE=-3.15D-07 OVMax= 7.16D-05

 Cycle   9  Pass 1  IDiag  1:
 RMSU=  2.92D-07    CP:  1.02D+00  6.40D-01  9.81D-01  7.03D-01  1.36D+00
                    CP:  1.14D+00  1.01D+00  1.25D+00
 FoFJK:  IHMeth= 1 ICntrl=     0 DoSepK=T KAlg= 1 I1Cent= 0 FoldK=F
 E= -2905.41856728986     Delta-E=       -0.000000017384 Rises=F Damp=F
 DIIS: error= 2.42D-06 at cycle   9 NSaved=   9.
 NSaved= 9 IEnMin= 9 EnMin= -2905.41856728986     IErMin= 9 ErrMin= 2.42D-06
 ErrMax= 2.42D-06 EMaxC= 1.00D-01 BMatC= 5.62D-10 BMatP= 8.17D-09
 IDIUse=1 WtCom= 1.00D+00 WtEn= 0.00D+00
 Coeff-Com: -0.729D-06 0.108D-03 0.642D-03 0.647D-03-0.179D-02-0.201D-01
 Coeff-Com: -0.387D-01-0.140D-01 0.107D+01
 Coeff:     -0.729D-06 0.108D-03 0.642D-03 0.647D-03-0.179D-02-0.201D-01
 Coeff:     -0.387D-01-0.140D-01 0.107D+01
 Gap=     0.404 Goal=   None    Shift=    0.000
 RMSDP=2.87D-07 MaxDP=7.74D-06 DE=-1.74D-08 OVMax= 2.70D-05

 Cycle  10  Pass 1  IDiag  1:
 RMSU=  8.09D-08    CP:  1.02D+00  6.40D-01  9.81D-01  7.03D-01  1.36D+00
                    CP:  1.15D+00  1.03D+00  1.35D+00  1.31D+00
 FoFJK:  IHMeth= 1 ICntrl=     0 DoSepK=T KAlg= 1 I1Cent= 0 FoldK=F
 E= -2905.41856729131     Delta-E=       -0.000000001451 Rises=F Damp=F
 DIIS: error= 6.02D-07 at cycle  10 NSaved=  10.
 NSaved=10 IEnMin=10 EnMin= -2905.41856729131     IErMin=10 ErrMin= 6.02D-07
 ErrMax= 6.02D-07 EMaxC= 1.00D-01 BMatC= 4.41D-11 BMatP= 5.62D-10
 IDIUse=1 WtCom= 1.00D+00 WtEn= 0.00D+00
 Coeff-Com: -0.113D-05-0.741D-05-0.238D-04-0.104D-04 0.295D-02 0.155D-02
 Coeff-Com: -0.794D-02-0.989D-01 0.124D+00 0.978D+00
 Coeff:     -0.113D-05-0.741D-05-0.238D-04-0.104D-04 0.295D-02 0.155D-02
 Coeff:     -0.794D-02-0.989D-01 0.124D+00 0.978D+00
 Gap=     0.404 Goal=   None    Shift=    0.000
 RMSDP=7.36D-08 MaxDP=1.94D-06 DE=-1.45D-09 OVMax= 7.86D-06

 Cycle  11  Pass 1  IDiag  1:
 RMSU=  2.02D-08    CP:  1.02D+00  6.40D-01  9.81D-01  7.03D-01  1.36D+00
                    CP:  1.15D+00  1.03D+00  1.37D+00  1.43D+00  1.22D+00
 FoFJK:  IHMeth= 1 ICntrl=     0 DoSepK=T KAlg= 1 I1Cent= 0 FoldK=F
 E= -2905.41856729144     Delta-E=       -0.000000000125 Rises=F Damp=F
 DIIS: error= 1.55D-07 at cycle  11 NSaved=  11.
 NSaved=11 IEnMin=11 EnMin= -2905.41856729144     IErMin=11 ErrMin= 1.55D-07
 ErrMax= 1.55D-07 EMaxC= 1.00D-01 BMatC= 2.84D-12 BMatP= 4.41D-11
 IDIUse=1 WtCom= 1.00D+00 WtEn= 0.00D+00
 Coeff-Com:  0.369D-06-0.516D-05-0.370D-04-0.168D-04-0.388D-03 0.131D-02
 Coeff-Com:  0.386D-02 0.966D-02-0.768D-01-0.123D+00 0.119D+01
 Coeff:      0.369D-06-0.516D-05-0.370D-04-0.168D-04-0.388D-03 0.131D-02
 Coeff:      0.386D-02 0.966D-02-0.768D-01-0.123D+00 0.119D+01
 Gap=     0.404 Goal=   None    Shift=    0.000
 RMSDP=2.12D-08 MaxDP=4.97D-07 DE=-1.25D-10 OVMax= 2.27D-06

 Cycle  12  Pass 1  IDiag  1:
 RMSU=  5.00D-09    CP:  1.02D+00  6.40D-01  9.81D-01  7.03D-01  1.36D+00
                    CP:  1.15D+00  1.03D+00  1.37D+00  1.45D+00  1.33D+00
                    CP:  1.33D+00
 FoFJK:  IHMeth= 1 ICntrl=     0 DoSepK=T KAlg= 1 I1Cent= 0 FoldK=F
 E= -2905.41856729143     Delta-E=        0.000000000010 Rises=F Damp=F
 DIIS: error= 2.81D-08 at cycle  12 NSaved=  12.
 NSaved=12 IEnMin=11 EnMin= -2905.41856729144     IErMin=12 ErrMin= 2.81D-08
 ErrMax= 2.81D-08 EMaxC= 1.00D-01 BMatC= 9.41D-14 BMatP= 2.84D-12
 IDIUse=1 WtCom= 1.00D+00 WtEn= 0.00D+00
 Coeff-Com: -0.415D-07 0.735D-06 0.526D-05-0.367D-05-0.422D-04-0.192D-03
 Coeff-Com: -0.202D-03 0.191D-02 0.782D-02-0.884D-02-0.237D+00 0.124D+01
 Coeff:     -0.415D-07 0.735D-06 0.526D-05-0.367D-05-0.422D-04-0.192D-03
 Coeff:     -0.202D-03 0.191D-02 0.782D-02-0.884D-02-0.237D+00 0.124D+01
 Gap=     0.404 Goal=   None    Shift=    0.000
 RMSDP=4.71D-09 MaxDP=1.66D-07 DE= 1.00D-11 OVMax= 4.05D-07

 SCF Done:  E(RwB97XD) =  -2905.41856729     A.U. after   12 cycles
             Convg  =    0.4707D-08             -V/T =  2.0015
 KE= 2.900964247751D+03 PE=-7.240541154137D+03 EE= 1.282551533965D+03
 Leave Link  502 at Mon May  4 15:02:06 2020, MaxMem= 1073741824 cpu:     307.4
 (Enter /home/matheus/.gaussian/g09/l601.exe)
 Copying SCF densities to generalized density rwf, IOpCl= 0 IROHF=0.

 **********************************************************************

            Population analysis using the SCF density.

 **********************************************************************

 Orbital symmetries:
       Occupied  (A) (A) (A) (A) (A) (A) (A) (A) (A) (A) (A) (A)
                 (A) (A) (A) (A) (A) (A) (A) (A) (A) (A) (A) (A)
                 (A) (A) (A)
       Virtual   (A) (A) (A) (A) (A) (A) (A) (A) (A) (A) (A) (A)
                 (A) (A) (A) (A) (A) (A) (A) (A) (A) (A) (A) (A)
                 (A) (A) (A) (A) (A) (A) (A) (A) (A) (A) (A) (A)
                 (A) (A) (A) (A) (A) (A) (A) (A) (A) (A) (A) (A)
                 (A) (A) (A) (A) (A) (A) (A) (A) (A) (A) (A) (A)
                 (A) (A) (A) (A) (A) (A) (A) (A) (A) (A) (A) (A)
                 (A) (A) (A) (A) (A) (A) (A) (A) (A) (A) (A) (A)
                 (A) (A) (A) (A) (A) (A) (A) (A) (A) (A) (A) (A)
                 (A) (A) (A) (A) (A) (A) (A) (A) (A) (A) (A) (A)
                 (A) (A) (A) (A) (A) (A) (A) (A) (A) (A) (A) (A)
                 (A) (A) (A) (A) (A) (A) (A) (A) (A) (A) (A) (A)
                 (A) (A) (A) (A) (A) (A) (A) (A) (A) (A) (A) (A)
                 (A) (A) (A) (A) (A) (A) (A) (A) (A) (A) (A) (A)
                 (A) (A) (A) (A) (A) (A) (A) (A) (A) (A) (A) (A)
                 (A) (A)
 The electronic state is 1-A.
 Alpha  occ. eigenvalues -- -513.11905 -67.38719 -60.93597 -60.93591 -60.93582
 Alpha  occ. eigenvalues --  -19.33565 -19.33488  -9.84040  -7.53365  -7.53341
 Alpha  occ. eigenvalues --   -7.53311  -3.40050  -3.40048  -3.40022  -3.40004
 Alpha  occ. eigenvalues --   -3.40000  -1.24546  -1.04893  -1.02794  -0.69175
 Alpha  occ. eigenvalues --   -0.54925  -0.53716  -0.52432  -0.51513  -0.50676
 Alpha  occ. eigenvalues --   -0.47524  -0.36852
 Alpha virt. eigenvalues --    0.03527   0.04494   0.08687   0.09263   0.09725
 Alpha virt. eigenvalues --    0.11935   0.12625   0.15976   0.16976   0.17790
 Alpha virt. eigenvalues --    0.18475   0.19201   0.20176   0.21465   0.22772
 Alpha virt. eigenvalues --    0.23760   0.24243   0.26479   0.29924   0.33116
 Alpha virt. eigenvalues --    0.35274   0.36331   0.38027   0.38187   0.39711
 Alpha virt. eigenvalues --    0.42114   0.44655   0.48068   0.51389   0.53176
 Alpha virt. eigenvalues --    0.57751   0.60768   0.61035   0.63111   0.64410
 Alpha virt. eigenvalues --    0.68175   0.68587   0.71122   0.71971   0.73476
 Alpha virt. eigenvalues --    0.74441   0.76398   0.79449   0.81560   0.84659
 Alpha virt. eigenvalues --    0.85284   0.85754   0.87433   0.87689   0.90278
 Alpha virt. eigenvalues --    0.92404   0.94274   0.95932   0.97489   0.99239
 Alpha virt. eigenvalues --    1.02100   1.03602   1.05244   1.07423   1.09116
 Alpha virt. eigenvalues --    1.12151   1.17956   1.20843   1.23984   1.25700
 Alpha virt. eigenvalues --    1.30228   1.30855   1.36999   1.38312   1.46097
 Alpha virt. eigenvalues --    1.48032   1.51773   1.53211   1.54735   1.57127
 Alpha virt. eigenvalues --    1.61527   1.65497   1.80829   1.88586   1.93053
 Alpha virt. eigenvalues --    1.96852   2.03327   2.06621   2.12119   2.12304
 Alpha virt. eigenvalues --    2.15626   2.19864   2.20402   2.20628   2.27060
 Alpha virt. eigenvalues --    2.28719   2.30468   2.31577   2.32537   2.34202
 Alpha virt. eigenvalues --    2.36955   2.39040   2.41897   2.45752   2.46789
 Alpha virt. eigenvalues --    2.48285   2.48916   2.55016   2.56392   2.58880
 Alpha virt. eigenvalues --    2.62273   2.65422   2.66559   2.69803   2.71330
 Alpha virt. eigenvalues --    2.71975   2.76004   2.79366   2.87969   2.88227
 Alpha virt. eigenvalues --    2.93410   3.08138   3.11140   3.12993   3.54813
 Alpha virt. eigenvalues --    3.71975   3.87060   3.97092   4.01827   4.08472
 Alpha virt. eigenvalues --    4.13927   4.15075   4.18306   4.19732   4.23539
 Alpha virt. eigenvalues --    4.40106   4.49468   4.54795   4.68247   4.72506
 Alpha virt. eigenvalues --    4.96358   4.99860   5.03635   5.08204   5.10707
 Alpha virt. eigenvalues --    5.14667   5.51082   5.81939   6.01777   6.04927
 Alpha virt. eigenvalues --    6.12325   6.35004   6.37166   6.47459   6.56953
 Alpha virt. eigenvalues --    6.68756   6.71270   6.77448   6.80922   6.82877
 Alpha virt. eigenvalues --    6.86024   6.88771   6.89893   6.91839   7.09870
 Alpha virt. eigenvalues --    7.16299   7.17317   7.26772   7.33413   7.59242
 Alpha virt. eigenvalues --    7.98179   8.02478   8.17813  13.84329  14.73622
          Condensed to atoms (all electrons):
              1          2          3          4          5
     1  O    8.256977  -0.212145   0.168646   0.034954  -0.021054
     2  O   -0.212145   8.256750   0.038177   0.176211  -0.017980
     3  H    0.168646   0.038177   0.592764  -0.017914  -0.004175
     4  H    0.034954   0.176211  -0.017914   0.584861  -0.010470
     5  Kr  -0.021054  -0.017980  -0.004175  -0.010470  36.040148
 Mulliken atomic charges:
              1
     1  O   -0.227379
     2  O   -0.241013
     3  H    0.222502
     4  H    0.232358
     5  Kr   0.013531
 Sum of Mulliken atomic charges =   0.00000
 Mulliken charges with hydrogens summed into heavy atoms:
              1
     1  O   -0.004877
     2  O   -0.008654
     5  Kr   0.013531
 Sum of Mulliken charges with hydrogens summed into heavy atoms =   0.00000
          Condensed to fragments (all electrons):
     1      -0.013531
     2       0.013531
 Electronic spatial extent (au):  <R**2>=            475.6814
 Charge=              0.0000 electrons
 Dipole moment (field-independent basis, Debye):
    X=              3.5658    Y=             -0.0454    Z=              0.4403  Tot=              3.5932
 Quadrupole moment (field-independent basis, Debye-Ang):
   XX=            -38.5456   YY=            -28.1203   ZZ=            -30.3582
   XY=              0.1352   XZ=             -0.4993   YZ=             -0.5934
 Traceless Quadrupole moment (field-independent basis, Debye-Ang):
   XX=             -6.2042   YY=              4.2211   ZZ=              1.9832
   XY=              0.1352   XZ=             -0.4993   YZ=             -0.5934
 Octapole moment (field-independent basis, Debye-Ang**2):
  XXX=             44.3525  YYY=             -0.1082  ZZZ=             -0.0119  XYY=              7.8772
  XXY=             -0.3106  XXZ=             -0.0656  XZZ=              8.7179  YZZ=             -0.2164
  YYZ=              0.6763  XYZ=              0.6606
 Hexadecapole moment (field-independent basis, Debye-Ang**3):
 XXXX=           -454.5217 YYYY=            -63.3314 ZZZZ=            -29.3608 XXXY=              0.2926
 XXXZ=              1.0561 YYYX=              0.2468 YYYZ=             -0.8028 ZZZX=             -0.1777
 ZZZY=             -0.3368 XXYY=            -85.9308 XXZZ=            -76.1825 YYZZ=            -17.2659
 XXYZ=             -0.6792 YYXZ=             -0.7773 ZZXY=              0.2851
 N-N= 1.516068051300D+02 E-N=-7.240541153904D+03  KE= 2.900964247751D+03
 No NMR shielding tensors so no spin-rotation constants.
 Leave Link  601 at Mon May  4 15:02:06 2020, MaxMem= 1073741824 cpu:       0.7
 (Enter /home/matheus/.gaussian/g09/l122.exe)
 Counterpoise: doing DCBS calculation for fragment   1 NewBq=T
 Leave Link  122 at Mon May  4 15:02:06 2020, MaxMem= 1073741824 cpu:       0.0
 (Enter /home/matheus/.gaussian/g09/l301.exe)
 Basis read from rwf:  (5D, 7F)
 No pseudopotential information found on rwf file.
 There are   197 symmetry adapted basis functions of A   symmetry.
 Integral buffers will be    131072 words long.
 Raffenetti 2 integral format.
 Two-electron integral symmetry is turned on.
   197 basis functions,   415 primitive gaussians,   229 cartesian basis functions
     9 alpha electrons        9 beta electrons
       nuclear repulsion energy        36.6636681782 Hartrees.
 IExCor= 4639 DFT=T Ex+Corr=wB97XD ExCW=0 ScaHFX=  1.000000
 ScaDFX=  1.000000  1.000000  1.000000  1.000000 ScalE2=  1.000000  1.000000
 IRadAn=      5 IRanWt=     -1 IRanGd=            0 ICorTp=0
  HFx wShort=  0.000000 wLong=  0.250000 cFull=  0.222036 cShort=  0.000000 cLong=  0.777964
  DFx wShort=  0.000000 wLong=  0.250000 cFull=  0.000000 cShort=  0.000000 cLong=  1.000000
 NAtoms=    5 NActive=    5 NUniq=    5 SFac= 1.00D+00 NAtFMM=   60 NAOKFM=F Big=F
 R6Disp: Dispersion energy =        -0.0002240145 Hartrees.
 Nuclear repulsion after empirical dispersion term =       36.6634441638 Hartrees.
 No density basis found on file   718.
 Leave Link  301 at Mon May  4 15:02:06 2020, MaxMem= 1073741824 cpu:       0.2
 (Enter /home/matheus/.gaussian/g09/l302.exe)
 NPDir=0 NMtPBC=     1 NCelOv=     1 NCel=       1 NClECP=     1 NCelD=      1
         NCelK=      1 NCelE2=     1 NClLst=     1 CellRange=     0.0.
 One-electron integrals computed using PRISM.
 NBasis=   197 RedAO= T  NBF=   197
 NBsUse=   197 1.00D-06 NBFU=   197
 Precomputing XC quadrature grid using
 IXCGrd= 2 IRadAn=           5 IRanWt=          -1 IRanGd=           0 AccXCQ= 0.00D+00.
 NRdTot=     427 NPtTot=      123512 NUsed=      126579 NTot=      126611
 NSgBfM=   229   229   229   229   229 NAtAll=     5     5.
 Leave Link  302 at Mon May  4 15:02:06 2020, MaxMem= 1073741824 cpu:       1.0
 (Enter /home/matheus/.gaussian/g09/l303.exe)
 DipDrv:  MaxL=1.
 Leave Link  303 at Mon May  4 15:02:06 2020, MaxMem= 1073741824 cpu:       0.2
 (Enter /home/matheus/.gaussian/g09/l401.exe)
 Harris functional with IExCor= 4639 diagonalized for initial guess.
 ExpMin= 2.53D-02 ExpMax= 1.17D+07 ExpMxC= 1.33D+04 IAcc=3 IRadAn=         5 AccDes= 0.00D+00
 HarFok:  IExCor= 4639 AccDes= 0.00D+00 IRadAn=         5 IDoV= 1
 ScaDFX=  1.000000  1.000000  1.000000  1.000000
 FoFCou: FMM=F IPFlag=           0 FMFlag=      100000 FMFlg1=           0
         NFxFlg=           0 DoJE=T BraDBF=F KetDBF=T FulRan=T
         Omega=  0.000000  0.000000  1.000000  0.000000  0.000000 ICntrl=     500 IOpCl=  0
         NMat0=    1 NMatS0=    1 NMatT0=    0 NMatD0=    1 NMtDS0=    0 NMtDT0=    0
         I1Cent=           4 NGrid=           0.
 Petite list used in FoFCou.
 Harris En= -145.942228371334    
 Initial guess orbital symmetries:
       Occupied  (A) (A) (A) (A) (A) (A) (A) (A) (A)
       Virtual   (A) (A) (A) (A) (A) (A) (A) (A) (A) (A) (A) (A)
                 (A) (A) (A) (A) (A) (A) (A) (A) (A) (A) (A) (A)
                 (A) (A) (A) (A) (A) (A) (A) (A) (A) (A) (A) (A)
                 (A) (A) (A) (A) (A) (A) (A) (A) (A) (A) (A) (A)
                 (A) (A) (A) (A) (A) (A) (A) (A) (A) (A) (A) (A)
                 (A) (A) (A) (A) (A) (A) (A) (A) (A) (A) (A) (A)
                 (A) (A) (A) (A) (A) (A) (A) (A) (A) (A) (A) (A)
                 (A) (A) (A) (A) (A) (A) (A) (A) (A) (A) (A) (A)
                 (A) (A) (A) (A) (A) (A) (A) (A) (A) (A) (A) (A)
                 (A) (A) (A) (A) (A) (A) (A) (A) (A) (A) (A) (A)
                 (A) (A) (A) (A) (A) (A) (A) (A) (A) (A) (A) (A)
                 (A) (A) (A) (A) (A) (A) (A) (A) (A) (A) (A) (A)
                 (A) (A) (A) (A) (A) (A) (A) (A) (A) (A) (A) (A)
                 (A) (A) (A) (A) (A) (A) (A) (A) (A) (A) (A) (A)
                 (A) (A) (A) (A) (A) (A) (A) (A) (A) (A) (A) (A)
                 (A) (A) (A) (A) (A) (A) (A) (A)
 The electronic state of the initial guess is 1-A.
 Leave Link  401 at Mon May  4 15:02:07 2020, MaxMem= 1073741824 cpu:       3.8
 (Enter /home/matheus/.gaussian/g09/l502.exe)
 Closed shell SCF:
 Requested convergence on RMS density matrix=1.00D-08 within 128 cycles.
 Requested convergence on MAX density matrix=1.00D-06.
 Requested convergence on             energy=1.00D-06.
 No special actions if energy rises.
 Using DIIS extrapolation, IDIIS=  1040.
 Integral symmetry usage will be decided dynamically.
       126521 words used for storage of precomputed grid.
 IEnd=      305468 IEndB=      305468 NGot=  1073741824 MDV=  1073505667
 LenX=  1073505667 LenY=  1073452785
 Fock matrices will be formed incrementally for  20 cycles.

 Cycle   1  Pass 1  IDiag  1:
 FoFJK:  IHMeth= 1 ICntrl=     0 DoSepK=T KAlg= 1 I1Cent= 0 FoldK=F
 FoFCou: FMM=F IPFlag=           0 FMFlag=      100000 FMFlg1=           0
         NFxFlg=           0 DoJE=T BraDBF=F KetDBF=F FulRan=T
         Omega=  0.000000  0.000000  1.000000  0.000000  0.000000 ICntrl=     500 IOpCl=  0
         NMat0=    1 NMatS0=    1 NMatT0=    0 NMatD0=    1 NMtDS0=    0 NMtDT0=    0
         I1Cent=           0 NGrid=           0.
 Symmetry not used in FoFCou.
 E= -151.454537103520    
 DIIS: error= 3.70D-02 at cycle   1 NSaved=   1.
 NSaved= 1 IEnMin= 1 EnMin= -151.454537103520     IErMin= 1 ErrMin= 3.70D-02
 ErrMax= 3.70D-02 EMaxC= 1.00D-01 BMatC= 3.19D-01 BMatP= 3.19D-01
 IDIUse=3 WtCom= 6.30D-01 WtEn= 3.70D-01
 Coeff-Com:  0.100D+01
 Coeff-En:   0.100D+01
 Coeff:      0.100D+01
 Gap=     0.519 Goal=   None    Shift=    0.000
 GapD=    0.519 DampG=2.000 DampE=0.500 DampFc=1.0000 IDamp=-1.
 RMSDP=2.60D-03 MaxDP=9.79D-02              OVMax= 1.23D-01

 Cycle   2  Pass 1  IDiag  1:
 RMSU=  1.79D-03    CP:  9.42D-01
 FoFJK:  IHMeth= 1 ICntrl=     0 DoSepK=T KAlg= 1 I1Cent= 0 FoldK=F
 E= -151.496814041477     Delta-E=       -0.042276937957 Rises=F Damp=F
 DIIS: error= 1.65D-02 at cycle   2 NSaved=   2.
 NSaved= 2 IEnMin= 2 EnMin= -151.496814041477     IErMin= 2 ErrMin= 1.65D-02
 ErrMax= 1.65D-02 EMaxC= 1.00D-01 BMatC= 9.72D-02 BMatP= 3.19D-01
 IDIUse=3 WtCom= 8.35D-01 WtEn= 1.65D-01
 Coeff-Com:  0.334D+00 0.666D+00
 Coeff-En:   0.324D+00 0.676D+00
 Coeff:      0.333D+00 0.667D+00
 Gap=     0.470 Goal=   None    Shift=    0.000
 RMSDP=1.05D-03 MaxDP=4.73D-02 DE=-4.23D-02 OVMax= 6.24D-02

 Cycle   3  Pass 1  IDiag  1:
 RMSU=  4.01D-04    CP:  9.65D-01  6.66D-01
 FoFJK:  IHMeth= 1 ICntrl=     0 DoSepK=T KAlg= 1 I1Cent= 0 FoldK=F
 E= -151.548895906070     Delta-E=       -0.052081864592 Rises=F Damp=F
 DIIS: error= 4.56D-03 at cycle   3 NSaved=   3.
 NSaved= 3 IEnMin= 3 EnMin= -151.548895906070     IErMin= 3 ErrMin= 4.56D-03
 ErrMax= 4.56D-03 EMaxC= 1.00D-01 BMatC= 6.49D-03 BMatP= 9.72D-02
 IDIUse=3 WtCom= 9.54D-01 WtEn= 4.56D-02
 Coeff-Com:  0.149D-01 0.214D+00 0.771D+00
 Coeff-En:   0.000D+00 0.000D+00 0.100D+01
 Coeff:      0.142D-01 0.204D+00 0.782D+00
 Gap=     0.400 Goal=   None    Shift=    0.000
 RMSDP=2.92D-04 MaxDP=8.82D-03 DE=-5.21D-02 OVMax= 1.73D-02

 Cycle   4  Pass 1  IDiag  1:
 RMSU=  8.15D-05    CP:  9.59D-01  7.63D-01  8.56D-01
 FoFJK:  IHMeth= 1 ICntrl=     0 DoSepK=T KAlg= 1 I1Cent= 0 FoldK=F
 E= -151.553147248240     Delta-E=       -0.004251342170 Rises=F Damp=F
 DIIS: error= 6.41D-04 at cycle   4 NSaved=   4.
 NSaved= 4 IEnMin= 4 EnMin= -151.553147248240     IErMin= 4 ErrMin= 6.41D-04
 ErrMax= 6.41D-04 EMaxC= 1.00D-01 BMatC= 9.19D-05 BMatP= 6.49D-03
 IDIUse=3 WtCom= 9.94D-01 WtEn= 6.41D-03
 Coeff-Com: -0.884D-03 0.210D-01 0.167D+00 0.813D+00
 Coeff-En:   0.000D+00 0.000D+00 0.000D+00 0.100D+01
 Coeff:     -0.878D-03 0.209D-01 0.166D+00 0.814D+00
 Gap=     0.397 Goal=   None    Shift=    0.000
 RMSDP=4.63D-05 MaxDP=2.37D-03 DE=-4.25D-03 OVMax= 2.20D-03

 Cycle   5  Pass 1  IDiag  1:
 RMSU=  1.65D-05    CP:  9.60D-01  7.58D-01  9.14D-01  1.12D+00
 FoFJK:  IHMeth= 1 ICntrl=     0 DoSepK=T KAlg= 1 I1Cent= 0 FoldK=F
 E= -151.553215392539     Delta-E=       -0.000068144299 Rises=F Damp=F
 DIIS: error= 6.72D-05 at cycle   5 NSaved=   5.
 NSaved= 5 IEnMin= 5 EnMin= -151.553215392539     IErMin= 5 ErrMin= 6.72D-05
 ErrMax= 6.72D-05 EMaxC= 1.00D-01 BMatC= 1.29D-06 BMatP= 9.19D-05
 IDIUse=1 WtCom= 1.00D+00 WtEn= 0.00D+00
 Coeff-Com: -0.621D-03-0.127D-01-0.487D-01-0.105D+00 0.117D+01
 Coeff:     -0.621D-03-0.127D-01-0.487D-01-0.105D+00 0.117D+01
 Gap=     0.397 Goal=   None    Shift=    0.000
 RMSDP=1.78D-05 MaxDP=7.12D-04 DE=-6.81D-05 OVMax= 1.02D-03

 Cycle   6  Pass 1  IDiag  1:
 RMSU=  3.75D-06    CP:  9.60D-01  7.58D-01  9.32D-01  1.22D+00  1.30D+00
 FoFJK:  IHMeth= 1 ICntrl=     0 DoSepK=T KAlg= 1 I1Cent= 0 FoldK=F
 E= -151.553218727462     Delta-E=       -0.000003334923 Rises=F Damp=F
 DIIS: error= 1.58D-05 at cycle   6 NSaved=   6.
 NSaved= 6 IEnMin= 6 EnMin= -151.553218727462     IErMin= 6 ErrMin= 1.58D-05
 ErrMax= 1.58D-05 EMaxC= 1.00D-01 BMatC= 3.65D-08 BMatP= 1.29D-06
 IDIUse=1 WtCom= 1.00D+00 WtEn= 0.00D+00
 Coeff-Com:  0.781D-04 0.379D-03-0.160D-02-0.122D-01-0.775D-01 0.109D+01
 Coeff:      0.781D-04 0.379D-03-0.160D-02-0.122D-01-0.775D-01 0.109D+01
 Gap=     0.397 Goal=   None    Shift=    0.000
 RMSDP=2.59D-06 MaxDP=9.24D-05 DE=-3.33D-06 OVMax= 1.90D-04

 Cycle   7  Pass 1  IDiag  1:
 RMSU=  7.24D-07    CP:  9.60D-01  7.58D-01  9.34D-01  1.23D+00  1.35D+00
                    CP:  1.31D+00
 FoFJK:  IHMeth= 1 ICntrl=     0 DoSepK=T KAlg= 1 I1Cent= 0 FoldK=F
 E= -151.553218837493     Delta-E=       -0.000000110030 Rises=F Damp=F
 DIIS: error= 6.56D-06 at cycle   7 NSaved=   7.
 NSaved= 7 IEnMin= 7 EnMin= -151.553218837493     IErMin= 7 ErrMin= 6.56D-06
 ErrMax= 6.56D-06 EMaxC= 1.00D-01 BMatC= 1.07D-08 BMatP= 3.65D-08
 IDIUse=1 WtCom= 1.00D+00 WtEn= 0.00D+00
 Coeff-Com:  0.501D-04 0.618D-03 0.144D-02-0.687D-03-0.752D-01 0.381D+00
 Coeff-Com:  0.692D+00
 Coeff:      0.501D-04 0.618D-03 0.144D-02-0.687D-03-0.752D-01 0.381D+00
 Coeff:      0.692D+00
 Gap=     0.397 Goal=   None    Shift=    0.000
 RMSDP=5.12D-07 MaxDP=2.19D-05 DE=-1.10D-07 OVMax= 4.61D-05

 Cycle   8  Pass 1  IDiag  1:
 RMSU=  2.73D-07    CP:  9.60D-01  7.58D-01  9.34D-01  1.23D+00  1.36D+00
                    CP:  1.35D+00  1.08D+00
 FoFJK:  IHMeth= 1 ICntrl=     0 DoSepK=T KAlg= 1 I1Cent= 0 FoldK=F
 E= -151.553218847140     Delta-E=       -0.000000009648 Rises=F Damp=F
 DIIS: error= 3.02D-06 at cycle   8 NSaved=   8.
 NSaved= 8 IEnMin= 8 EnMin= -151.553218847140     IErMin= 8 ErrMin= 3.02D-06
 ErrMax= 3.02D-06 EMaxC= 1.00D-01 BMatC= 3.55D-09 BMatP= 1.07D-08
 IDIUse=1 WtCom= 1.00D+00 WtEn= 0.00D+00
 Coeff-Com: -0.271D-05 0.146D-03 0.117D-02 0.290D-02-0.899D-02-0.172D+00
 Coeff-Com:  0.369D+00 0.808D+00
 Coeff:     -0.271D-05 0.146D-03 0.117D-02 0.290D-02-0.899D-02-0.172D+00
 Coeff:      0.369D+00 0.808D+00
 Gap=     0.397 Goal=   None    Shift=    0.000
 RMSDP=3.34D-07 MaxDP=1.19D-05 DE=-9.65D-09 OVMax= 3.59D-05

 Cycle   9  Pass 1  IDiag  1:
 RMSU=  9.68D-08    CP:  9.60D-01  7.58D-01  9.34D-01  1.23D+00  1.36D+00
                    CP:  1.38D+00  1.29D+00  9.72D-01
 FoFJK:  IHMeth= 1 ICntrl=     0 DoSepK=T KAlg= 1 I1Cent= 0 FoldK=F
 E= -151.553218850923     Delta-E=       -0.000000003783 Rises=F Damp=F
 DIIS: error= 6.31D-07 at cycle   9 NSaved=   9.
 NSaved= 9 IEnMin= 9 EnMin= -151.553218850923     IErMin= 9 ErrMin= 6.31D-07
 ErrMax= 6.31D-07 EMaxC= 1.00D-01 BMatC= 4.30D-11 BMatP= 3.55D-09
 IDIUse=1 WtCom= 1.00D+00 WtEn= 0.00D+00
 Coeff-Com:  0.445D-06-0.220D-04-0.165D-03-0.498D-03 0.490D-02-0.349D-02
 Coeff-Com: -0.551D-01-0.524D-01 0.111D+01
 Coeff:      0.445D-06-0.220D-04-0.165D-03-0.498D-03 0.490D-02-0.349D-02
 Coeff:     -0.551D-01-0.524D-01 0.111D+01
 Gap=     0.397 Goal=   None    Shift=    0.000
 RMSDP=8.04D-08 MaxDP=1.84D-06 DE=-3.78D-09 OVMax= 8.48D-06

 Cycle  10  Pass 1  IDiag  1:
 RMSU=  1.71D-08    CP:  9.60D-01  7.58D-01  9.34D-01  1.23D+00  1.36D+00
                    CP:  1.37D+00  1.33D+00  1.06D+00  1.32D+00
 FoFJK:  IHMeth= 1 ICntrl=     0 DoSepK=T KAlg= 1 I1Cent= 0 FoldK=F
 E= -151.553218851047     Delta-E=       -0.000000000124 Rises=F Damp=F
 DIIS: error= 2.20D-07 at cycle  10 NSaved=  10.
 NSaved=10 IEnMin=10 EnMin= -151.553218851047     IErMin=10 ErrMin= 2.20D-07
 ErrMax= 2.20D-07 EMaxC= 1.00D-01 BMatC= 4.46D-12 BMatP= 4.30D-11
 IDIUse=1 WtCom= 1.00D+00 WtEn= 0.00D+00
 Coeff-Com:  0.540D-06-0.131D-04-0.126D-03-0.371D-03 0.140D-02 0.151D-01
 Coeff-Com: -0.425D-01-0.837D-01 0.109D+00 0.100D+01
 Coeff:      0.540D-06-0.131D-04-0.126D-03-0.371D-03 0.140D-02 0.151D-01
 Coeff:     -0.425D-01-0.837D-01 0.109D+00 0.100D+01
 Gap=     0.397 Goal=   None    Shift=    0.000
 RMSDP=2.28D-08 MaxDP=5.38D-07 DE=-1.24D-10 OVMax= 2.79D-06

 Cycle  11  Pass 1  IDiag  1:
 RMSU=  4.37D-09    CP:  9.60D-01  7.58D-01  9.34D-01  1.23D+00  1.36D+00
                    CP:  1.37D+00  1.34D+00  1.08D+00  1.41D+00  1.36D+00
 FoFJK:  IHMeth= 1 ICntrl=     0 DoSepK=T KAlg= 1 I1Cent= 0 FoldK=F
 E= -151.553218851058     Delta-E=       -0.000000000011 Rises=F Damp=F
 DIIS: error= 3.27D-08 at cycle  11 NSaved=  11.
 NSaved=11 IEnMin=11 EnMin= -151.553218851058     IErMin=11 ErrMin= 3.27D-08
 ErrMax= 3.27D-08 EMaxC= 1.00D-01 BMatC= 2.02D-13 BMatP= 4.46D-12
 IDIUse=1 WtCom= 1.00D+00 WtEn= 0.00D+00
 Coeff-Com: -0.212D-06 0.871D-06 0.205D-04 0.547D-04-0.349D-03-0.155D-02
 Coeff-Com:  0.840D-02 0.138D-01-0.651D-01-0.185D+00 0.123D+01
 Coeff:     -0.212D-06 0.871D-06 0.205D-04 0.547D-04-0.349D-03-0.155D-02
 Coeff:      0.840D-02 0.138D-01-0.651D-01-0.185D+00 0.123D+01
 Gap=     0.397 Goal=   None    Shift=    0.000
 RMSDP=6.71D-09 MaxDP=2.81D-07 DE=-1.13D-11 OVMax= 6.02D-07

 SCF Done:  E(RwB97XD) =  -151.553218851     A.U. after   11 cycles
             Convg  =    0.6710D-08             -V/T =  2.0059
 KE= 1.506662518733D+02 PE=-4.317493635871D+02 EE= 9.286644869899D+01
 Leave Link  502 at Mon May  4 15:02:41 2020, MaxMem= 1073741824 cpu:     271.0
 (Enter /home/matheus/.gaussian/g09/l601.exe)
 Copying SCF densities to generalized density rwf, IOpCl= 0 IROHF=0.

 **********************************************************************

            Population analysis using the SCF density.

 **********************************************************************

 Orbital symmetries:
       Occupied  (A) (A) (A) (A) (A) (A) (A) (A) (A)
       Virtual   (A) (A) (A) (A) (A) (A) (A) (A) (A) (A) (A) (A)
                 (A) (A) (A) (A) (A) (A) (A) (A) (A) (A) (A) (A)
                 (A) (A) (A) (A) (A) (A) (A) (A) (A) (A) (A) (A)
                 (A) (A) (A) (A) (A) (A) (A) (A) (A) (A) (A) (A)
                 (A) (A) (A) (A) (A) (A) (A) (A) (A) (A) (A) (A)
                 (A) (A) (A) (A) (A) (A) (A) (A) (A) (A) (A) (A)
                 (A) (A) (A) (A) (A) (A) (A) (A) (A) (A) (A) (A)
                 (A) (A) (A) (A) (A) (A) (A) (A) (A) (A) (A) (A)
                 (A) (A) (A) (A) (A) (A) (A) (A) (A) (A) (A) (A)
                 (A) (A) (A) (A) (A) (A) (A) (A) (A) (A) (A) (A)
                 (A) (A) (A) (A) (A) (A) (A) (A) (A) (A) (A) (A)
                 (A) (A) (A) (A) (A) (A) (A) (A) (A) (A) (A) (A)
                 (A) (A) (A) (A) (A) (A) (A) (A) (A) (A) (A) (A)
                 (A) (A) (A) (A) (A) (A) (A) (A) (A) (A) (A) (A)
                 (A) (A) (A) (A) (A) (A) (A) (A) (A) (A) (A) (A)
                 (A) (A) (A) (A) (A) (A) (A) (A)
 The electronic state is 1-A.
 Alpha  occ. eigenvalues --  -19.34336 -19.34332  -1.25165  -1.03424  -0.69342
 Alpha  occ. eigenvalues --   -0.54302  -0.53365  -0.48677  -0.37502
 Alpha virt. eigenvalues --    0.02164   0.03994   0.07530   0.08152   0.09253
 Alpha virt. eigenvalues --    0.09363   0.10681   0.16812   0.17439   0.18292
 Alpha virt. eigenvalues --    0.18802   0.19561   0.20650   0.21678   0.25970
 Alpha virt. eigenvalues --    0.26974   0.28555   0.29226   0.32406   0.35409
 Alpha virt. eigenvalues --    0.35969   0.36344   0.38082   0.41265   0.42078
 Alpha virt. eigenvalues --    0.44724   0.45311   0.47010   0.49112   0.52987
 Alpha virt. eigenvalues --    0.54819   0.57573   0.58877   0.62263   0.65424
 Alpha virt. eigenvalues --    0.68902   0.70754   0.75774   0.76508   0.79245
 Alpha virt. eigenvalues --    0.81622   0.82868   0.85764   0.87261   0.88787
 Alpha virt. eigenvalues --    0.93017   0.95821   0.96731   0.98516   0.99713
 Alpha virt. eigenvalues --    1.01040   1.03210   1.05592   1.09038   1.09448
 Alpha virt. eigenvalues --    1.12579   1.17479   1.20586   1.22942   1.25243
 Alpha virt. eigenvalues --    1.26507   1.29516   1.31517   1.32403   1.34213
 Alpha virt. eigenvalues --    1.34370   1.37702   1.38048   1.43726   1.45322
 Alpha virt. eigenvalues --    1.49383   1.50124   1.53083   1.54893   1.59578
 Alpha virt. eigenvalues --    1.62652   1.63928   1.69544   1.72692   1.78410
 Alpha virt. eigenvalues --    1.83422   1.84033   1.93245   1.95941   2.01677
 Alpha virt. eigenvalues --    2.05300   2.13354   2.16964   2.21208   2.23593
 Alpha virt. eigenvalues --    2.26884   2.32177   2.32662   2.32812   2.40446
 Alpha virt. eigenvalues --    2.46400   2.51636   2.54510   2.64037   2.65814
 Alpha virt. eigenvalues --    2.68186   2.70164   2.84993   2.86198   2.90657
 Alpha virt. eigenvalues --    3.05654   3.09754   3.11216   3.24842   3.34481
 Alpha virt. eigenvalues --    3.38824   3.55178   3.63161   3.67642   3.78420
 Alpha virt. eigenvalues --    3.79199   3.80201   3.82210   3.83251   3.86896
 Alpha virt. eigenvalues --    3.90717   3.91803   3.93460   3.94828   3.97632
 Alpha virt. eigenvalues --    3.99252   4.02735   4.07632   4.10992   4.13841
 Alpha virt. eigenvalues --    4.17666   4.20261   4.23283   4.25462   4.29674
 Alpha virt. eigenvalues --    4.48678   4.56767   4.57676   4.68676   4.95996
 Alpha virt. eigenvalues --    4.99611   5.03755   5.08184   5.10449   5.14493
 Alpha virt. eigenvalues --    5.50913   5.81476   6.01143   6.04531   6.11404
 Alpha virt. eigenvalues --    6.34552   6.36653   6.47010   6.56400   6.68214
 Alpha virt. eigenvalues --    6.70527   6.76618   6.80383   6.82292   6.85427
 Alpha virt. eigenvalues --    6.88171   6.89321   6.91219   7.09410   7.15678
 Alpha virt. eigenvalues --    7.16902   7.26113   7.32698   7.58762   7.97390
 Alpha virt. eigenvalues --    8.01788   8.17215  11.08725  13.83377  14.72638
 Alpha virt. eigenvalues --   14.82118  14.94661  15.10949  29.02662  29.03347
 Alpha virt. eigenvalues --   29.07173  29.20984  29.24289  49.23548 148.30142
 Alpha virt. eigenvalues --  148.48997 148.72653 752.96867
          Condensed to atoms (all electrons):
              1          2          3          4          5
     1  O    8.201826  -0.199827   0.183708   0.028824   0.002120
     2  O   -0.199827   8.195465   0.032167   0.191909  -0.000261
     3  H    0.183708   0.032167   0.579594  -0.007847  -0.003290
     4  H    0.028824   0.191909  -0.007847   0.574459  -0.004450
     5  Kr   0.002120  -0.000261  -0.003290  -0.004450   0.002552
 Mulliken atomic charges:
              1
     1  O   -0.216650
     2  O   -0.219453
     3  H    0.215668
     4  H    0.217106
     5  Kr   0.003329
 Sum of Mulliken atomic charges =   0.00000
 Mulliken charges with hydrogens summed into heavy atoms:
              1
     1  O   -0.000982
     2  O   -0.002347
     5  Kr   0.003329
 Sum of Mulliken charges with hydrogens summed into heavy atoms =   0.00000
          Condensed to fragments (all electrons):
     1      -0.003329
     2       0.003329
 Electronic spatial extent (au):  <R**2>=            316.5182
 Charge=              0.0000 electrons
 Dipole moment (field-independent basis, Debye):
    X=              3.0075    Y=             -0.0189    Z=              0.5408  Tot=              3.0558
 Quadrupole moment (field-independent basis, Debye-Ang):
   XX=            -21.2512   YY=            -10.4985   ZZ=            -12.8914
   XY=              0.1446   XZ=             -0.4262   YZ=             -0.6151
 Traceless Quadrupole moment (field-independent basis, Debye-Ang):
   XX=             -6.3708   YY=              4.3819   ZZ=              1.9890
   XY=              0.1446   XZ=             -0.4262   YZ=             -0.6151
 Octapole moment (field-independent basis, Debye-Ang**2):
  XXX=             92.5260  YYY=             -0.1112  ZZZ=              0.0165  XYY=             24.4097
  XXY=             -0.2688  XXZ=             -0.0178  XZZ=             25.3511  YZZ=             -0.2211
  YYZ=              0.6952  XYZ=              0.6602
 Hexadecapole moment (field-independent basis, Debye-Ang**3):
 XXXX=           -337.2581 YYYY=            -45.0878 ZZZZ=            -11.4861 XXXY=              0.2403
 XXXZ=              1.1544 YYYX=              0.2503 YYYZ=             -0.8346 ZZZX=             -0.1771
 ZZZY=             -0.3605 XXYY=            -63.3731 XXZZ=            -53.8975 YYZZ=            -11.2303
 XXYZ=             -0.6753 YYXZ=             -0.7659 ZZXY=              0.2774
 N-N= 3.666344416378D+01 E-N=-4.317493620457D+02  KE= 1.506662518733D+02
 No NMR shielding tensors so no spin-rotation constants.
 Leave Link  601 at Mon May  4 15:02:41 2020, MaxMem= 1073741824 cpu:       0.8
 (Enter /home/matheus/.gaussian/g09/l122.exe)
 Counterpoise: doing DCBS calculation for fragment   2 NewBq=T
 Leave Link  122 at Mon May  4 15:02:41 2020, MaxMem= 1073741824 cpu:       0.0
 (Enter /home/matheus/.gaussian/g09/l301.exe)
 Basis read from rwf:  (5D, 7F)
 No pseudopotential information found on rwf file.
 There are   197 symmetry adapted basis functions of A   symmetry.
 Integral buffers will be    131072 words long.
 Raffenetti 2 integral format.
 Two-electron integral symmetry is turned on.
   197 basis functions,   415 primitive gaussians,   229 cartesian basis functions
    18 alpha electrons       18 beta electrons
       nuclear repulsion energy         0.0000000000 Hartrees.
 IExCor= 4639 DFT=T Ex+Corr=wB97XD ExCW=0 ScaHFX=  1.000000
 ScaDFX=  1.000000  1.000000  1.000000  1.000000 ScalE2=  1.000000  1.000000
 IRadAn=      5 IRanWt=     -1 IRanGd=            0 ICorTp=0
  HFx wShort=  0.000000 wLong=  0.250000 cFull=  0.222036 cShort=  0.000000 cLong=  0.777964
  DFx wShort=  0.000000 wLong=  0.250000 cFull=  0.000000 cShort=  0.000000 cLong=  1.000000
 NAtoms=    5 NActive=    5 NUniq=    5 SFac= 1.00D+00 NAtFMM=   60 NAOKFM=F Big=F
 R6Disp: Dispersion energy =         0.0000000000 Hartrees.
 Nuclear repulsion after empirical dispersion term =        0.0000000000 Hartrees.
 No density basis found on file   718.
 Leave Link  301 at Mon May  4 15:02:41 2020, MaxMem= 1073741824 cpu:       0.2
 (Enter /home/matheus/.gaussian/g09/l302.exe)
 NPDir=0 NMtPBC=     1 NCelOv=     1 NCel=       1 NClECP=     1 NCelD=      1
         NCelK=      1 NCelE2=     1 NClLst=     1 CellRange=     0.0.
 One-electron integrals computed using PRISM.
 NBasis=   197 RedAO= T  NBF=   197
 NBsUse=   197 1.00D-06 NBFU=   197
 Precomputing XC quadrature grid using
 IXCGrd= 2 IRadAn=           5 IRanWt=          -1 IRanGd=           0 AccXCQ= 0.00D+00.
 NRdTot=     427 NPtTot=      123512 NUsed=      126579 NTot=      126611
 NSgBfM=   229   229   229   229   229 NAtAll=     5     5.
 Leave Link  302 at Mon May  4 15:02:41 2020, MaxMem= 1073741824 cpu:       1.0
 (Enter /home/matheus/.gaussian/g09/l303.exe)
 DipDrv:  MaxL=1.
 Leave Link  303 at Mon May  4 15:02:41 2020, MaxMem= 1073741824 cpu:       0.2
 (Enter /home/matheus/.gaussian/g09/l401.exe)
 Harris functional with IExCor= 4639 diagonalized for initial guess.
 ExpMin= 2.53D-02 ExpMax= 1.17D+07 ExpMxC= 1.33D+04 IAcc=3 IRadAn=         5 AccDes= 0.00D+00
 HarFok:  IExCor= 4639 AccDes= 0.00D+00 IRadAn=         5 IDoV= 1
 ScaDFX=  1.000000  1.000000  1.000000  1.000000
 FoFCou: FMM=F IPFlag=           0 FMFlag=      100000 FMFlg1=           0
         NFxFlg=           0 DoJE=T BraDBF=F KetDBF=T FulRan=T
         Omega=  0.000000  0.000000  1.000000  0.000000  0.000000 ICntrl=     500 IOpCl=  0
         NMat0=    1 NMatS0=    1 NMatT0=    0 NMatD0=    1 NMtDS0=    0 NMtDT0=    0
         I1Cent=           4 NGrid=           0.
 Petite list used in FoFCou.
 Harris En= -2729.46093746692    
 Initial guess orbital symmetries:
       Occupied  (A) (A) (A) (A) (A) (A) (A) (A) (A) (A) (A) (A)
                 (A) (A) (A) (A) (A) (A)
       Virtual   (A) (A) (A) (A) (A) (A) (A) (A) (A) (A) (A) (A)
                 (A) (A) (A) (A) (A) (A) (A) (A) (A) (A) (A) (A)
                 (A) (A) (A) (A) (A) (A) (A) (A) (A) (A) (A) (A)
                 (A) (A) (A) (A) (A) (A) (A) (A) (A) (A) (A) (A)
                 (A) (A) (A) (A) (A) (A) (A) (A) (A) (A) (A) (A)
                 (A) (A) (A) (A) (A) (A) (A) (A) (A) (A) (A) (A)
                 (A) (A) (A) (A) (A) (A) (A) (A) (A) (A) (A) (A)
                 (A) (A) (A) (A) (A) (A) (A) (A) (A) (A) (A) (A)
                 (A) (A) (A) (A) (A) (A) (A) (A) (A) (A) (A) (A)
                 (A) (A) (A) (A) (A) (A) (A) (A) (A) (A) (A) (A)
                 (A) (A) (A) (A) (A) (A) (A) (A) (A) (A) (A) (A)
                 (A) (A) (A) (A) (A) (A) (A) (A) (A) (A) (A) (A)
                 (A) (A) (A) (A) (A) (A) (A) (A) (A) (A) (A) (A)
                 (A) (A) (A) (A) (A) (A) (A) (A) (A) (A) (A) (A)
                 (A) (A) (A) (A) (A) (A) (A) (A) (A) (A) (A)
 The electronic state of the initial guess is 1-A.
 Leave Link  401 at Mon May  4 15:02:41 2020, MaxMem= 1073741824 cpu:       3.9
 (Enter /home/matheus/.gaussian/g09/l502.exe)
 Closed shell SCF:
 Requested convergence on RMS density matrix=1.00D-08 within 128 cycles.
 Requested convergence on MAX density matrix=1.00D-06.
 Requested convergence on             energy=1.00D-06.
 No special actions if energy rises.
 Using DIIS extrapolation, IDIIS=  1040.
 Integral symmetry usage will be decided dynamically.
       126521 words used for storage of precomputed grid.
 IEnd=      305468 IEndB=      305468 NGot=  1073741824 MDV=  1073505667
 LenX=  1073505667 LenY=  1073452785
 Fock matrices will be formed incrementally for  20 cycles.

 Cycle   1  Pass 1  IDiag  1:
 FoFJK:  IHMeth= 1 ICntrl=     0 DoSepK=T KAlg= 1 I1Cent= 0 FoldK=F
 FoFCou: FMM=F IPFlag=           0 FMFlag=      100000 FMFlg1=           0
         NFxFlg=           0 DoJE=T BraDBF=F KetDBF=F FulRan=T
         Omega=  0.000000  0.000000  1.000000  0.000000  0.000000 ICntrl=     500 IOpCl=  0
         NMat0=    1 NMatS0=    1 NMatT0=    0 NMatD0=    1 NMtDS0=    0 NMtDT0=    0
         I1Cent=           0 NGrid=           0.
 Symmetry not used in FoFCou.
 E= -2753.44585859895    
 DIIS: error= 8.78D-02 at cycle   1 NSaved=   1.
 NSaved= 1 IEnMin= 1 EnMin= -2753.44585859895     IErMin= 1 ErrMin= 8.78D-02
 ErrMax= 8.78D-02 EMaxC= 1.00D-01 BMatC= 1.91D+00 BMatP= 1.91D+00
 IDIUse=3 WtCom= 1.22D-01 WtEn= 8.78D-01
 Coeff-Com:  0.100D+01
 Coeff-En:   0.100D+01
 Coeff:      0.100D+01
 Gap=     0.654 Goal=   None    Shift=    0.000
 GapD=    0.654 DampG=2.000 DampE=0.500 DampFc=1.0000 IDamp=-1.
 RMSDP=5.79D-03 MaxDP=3.78D-01              OVMax= 1.83D-01

 Cycle   2  Pass 1  IDiag  1:
 RMSU=  4.04D-03    CP:  1.04D+00
 FoFJK:  IHMeth= 1 ICntrl=     0 DoSepK=T KAlg= 1 I1Cent= 0 FoldK=F
 E= -2753.72321203704     Delta-E=       -0.277353438088 Rises=F Damp=F
 DIIS: error= 3.46D-02 at cycle   2 NSaved=   2.
 NSaved= 2 IEnMin= 2 EnMin= -2753.72321203704     IErMin= 2 ErrMin= 3.46D-02
 ErrMax= 3.46D-02 EMaxC= 1.00D-01 BMatC= 4.71D-01 BMatP= 1.91D+00
 IDIUse=3 WtCom= 6.54D-01 WtEn= 3.46D-01
 Coeff-Com:  0.327D+00 0.673D+00
 Coeff-En:   0.160D+00 0.840D+00
 Coeff:      0.269D+00 0.731D+00
 Gap=     0.491 Goal=   None    Shift=    0.000
 RMSDP=2.60D-03 MaxDP=1.65D-01 DE=-2.77D-01 OVMax= 7.72D-02

 Cycle   3  Pass 1  IDiag  1:
 RMSU=  3.75D-04    CP:  1.03D+00  5.59D-01
 FoFJK:  IHMeth= 1 ICntrl=     0 DoSepK=T KAlg= 1 I1Cent= 0 FoldK=F
 E= -2753.86666378372     Delta-E=       -0.143451746686 Rises=F Damp=F
 DIIS: error= 4.93D-03 at cycle   3 NSaved=   3.
 NSaved= 3 IEnMin= 3 EnMin= -2753.86666378372     IErMin= 3 ErrMin= 4.93D-03
 ErrMax= 4.93D-03 EMaxC= 1.00D-01 BMatC= 1.17D-02 BMatP= 4.71D-01
 IDIUse=3 WtCom= 9.51D-01 WtEn= 4.93D-02
 Coeff-Com: -0.804D-02 0.123D+00 0.885D+00
 Coeff-En:   0.000D+00 0.000D+00 0.100D+01
 Coeff:     -0.764D-02 0.117D+00 0.890D+00
 Gap=     0.518 Goal=   None    Shift=    0.000
 RMSDP=3.23D-04 MaxDP=1.91D-02 DE=-1.43D-01 OVMax= 1.27D-02

 Cycle   4  Pass 1  IDiag  1:
 RMSU=  4.02D-05    CP:  1.03D+00  6.13D-01  9.60D-01
 FoFJK:  IHMeth= 1 ICntrl=     0 DoSepK=T KAlg= 1 I1Cent= 0 FoldK=F
 E= -2753.87024786196     Delta-E=       -0.003584078240 Rises=F Damp=F
 DIIS: error= 2.15D-04 at cycle   4 NSaved=   4.
 NSaved= 4 IEnMin= 4 EnMin= -2753.87024786196     IErMin= 4 ErrMin= 2.15D-04
 ErrMax= 2.15D-04 EMaxC= 1.00D-01 BMatC= 1.87D-05 BMatP= 1.17D-02
 IDIUse=3 WtCom= 9.98D-01 WtEn= 2.15D-03
 Coeff-Com: -0.241D-03-0.177D-01-0.683D-01 0.109D+01
 Coeff-En:   0.000D+00 0.000D+00 0.000D+00 0.100D+01
 Coeff:     -0.240D-03-0.176D-01-0.681D-01 0.109D+01
 Gap=     0.517 Goal=   None    Shift=    0.000
 RMSDP=2.37D-05 MaxDP=8.85D-04 DE=-3.58D-03 OVMax= 9.52D-04

 Cycle   5  Pass 1  IDiag  1:
 RMSU=  9.05D-06    CP:  1.03D+00  6.11D-01  9.80D-01  1.22D+00
 FoFJK:  IHMeth= 1 ICntrl=     0 DoSepK=T KAlg= 1 I1Cent= 0 FoldK=F
 E= -2753.87025775892     Delta-E=       -0.000009896951 Rises=F Damp=F
 DIIS: error= 1.77D-05 at cycle   5 NSaved=   5.
 NSaved= 5 IEnMin= 5 EnMin= -2753.87025775892     IErMin= 5 ErrMin= 1.77D-05
 ErrMax= 1.77D-05 EMaxC= 1.00D-01 BMatC= 5.44D-08 BMatP= 1.87D-05
 IDIUse=1 WtCom= 1.00D+00 WtEn= 0.00D+00
 Coeff-Com:  0.681D-04 0.120D-02 0.453D-03-0.195D+00 0.119D+01
 Coeff:      0.681D-04 0.120D-02 0.453D-03-0.195D+00 0.119D+01
 Gap=     0.516 Goal=   None    Shift=    0.000
 RMSDP=3.83D-06 MaxDP=1.52D-04 DE=-9.90D-06 OVMax= 2.16D-04

 Cycle   6  Pass 1  IDiag  1:
 RMSU=  7.09D-07    CP:  1.03D+00  6.11D-01  9.82D-01  1.26D+00  1.19D+00
 FoFJK:  IHMeth= 1 ICntrl=     0 DoSepK=T KAlg= 1 I1Cent= 0 FoldK=F
 E= -2753.87025791190     Delta-E=       -0.000000152987 Rises=F Damp=F
 DIIS: error= 1.63D-06 at cycle   6 NSaved=   6.
 NSaved= 6 IEnMin= 6 EnMin= -2753.87025791190     IErMin= 6 ErrMin= 1.63D-06
 ErrMax= 1.63D-06 EMaxC= 1.00D-01 BMatC= 8.86D-10 BMatP= 5.44D-08
 IDIUse=1 WtCom= 1.00D+00 WtEn= 0.00D+00
 Coeff-Com:  0.989D-05 0.378D-03 0.643D-03-0.506D-01 0.245D+00 0.805D+00
 Coeff:      0.989D-05 0.378D-03 0.643D-03-0.506D-01 0.245D+00 0.805D+00
 Gap=     0.516 Goal=   None    Shift=    0.000
 RMSDP=2.23D-07 MaxDP=8.43D-06 DE=-1.53D-07 OVMax= 1.17D-05

 Cycle   7  Pass 1  IDiag  1:
 RMSU=  8.39D-08    CP:  1.03D+00  6.11D-01  9.82D-01  1.26D+00  1.20D+00
                    CP:  1.10D+00
 FoFJK:  IHMeth= 1 ICntrl=     0 DoSepK=T KAlg= 1 I1Cent= 0 FoldK=F
 E= -2753.87025791281     Delta-E=       -0.000000000908 Rises=F Damp=F
 DIIS: error= 2.83D-07 at cycle   7 NSaved=   7.
 NSaved= 7 IEnMin= 7 EnMin= -2753.87025791281     IErMin= 7 ErrMin= 2.83D-07
 ErrMax= 2.83D-07 EMaxC= 1.00D-01 BMatC= 2.20D-11 BMatP= 8.86D-10
 IDIUse=1 WtCom= 1.00D+00 WtEn= 0.00D+00
 Coeff-Com: -0.177D-05 0.116D-04 0.127D-03 0.145D-02-0.187D-01 0.792D-01
 Coeff-Com:  0.938D+00
 Coeff:     -0.177D-05 0.116D-04 0.127D-03 0.145D-02-0.187D-01 0.792D-01
 Coeff:      0.938D+00
 Gap=     0.516 Goal=   None    Shift=    0.000
 RMSDP=5.71D-08 MaxDP=2.39D-06 DE=-9.08D-10 OVMax= 2.22D-06

 Cycle   8  Pass 1  IDiag  1:
 RMSU=  1.69D-08    CP:  1.03D+00  6.11D-01  9.82D-01  1.26D+00  1.20D+00
                    CP:  1.15D+00  1.09D+00
 FoFJK:  IHMeth= 1 ICntrl=     0 DoSepK=T KAlg= 1 I1Cent= 0 FoldK=F
 E= -2753.87025791282     Delta-E=       -0.000000000012 Rises=F Damp=F
 DIIS: error= 6.36D-08 at cycle   8 NSaved=   8.
 NSaved= 8 IEnMin= 8 EnMin= -2753.87025791282     IErMin= 8 ErrMin= 6.36D-08
 ErrMax= 6.36D-08 EMaxC= 1.00D-01 BMatC= 1.48D-12 BMatP= 2.20D-11
 IDIUse=1 WtCom= 1.00D+00 WtEn= 0.00D+00
 Coeff-Com: -0.509D-07-0.442D-05 0.102D-04 0.144D-02-0.760D-02-0.146D-01
 Coeff-Com:  0.884D-01 0.932D+00
 Coeff:     -0.509D-07-0.442D-05 0.102D-04 0.144D-02-0.760D-02-0.146D-01
 Coeff:      0.884D-01 0.932D+00
 Gap=     0.516 Goal=   None    Shift=    0.000
 RMSDP=1.23D-08 MaxDP=5.00D-07 DE=-1.23D-11 OVMax= 3.50D-07

 Cycle   9  Pass 1  IDiag  1:
 RMSU=  2.52D-09    CP:  1.03D+00  6.11D-01  9.82D-01  1.26D+00  1.20D+00
                    CP:  1.16D+00  1.13D+00  1.11D+00
 FoFJK:  IHMeth= 1 ICntrl=     0 DoSepK=T KAlg= 1 I1Cent= 0 FoldK=F
 E= -2753.87025791285     Delta-E=       -0.000000000024 Rises=F Damp=F
 DIIS: error= 9.80D-09 at cycle   9 NSaved=   9.
 NSaved= 9 IEnMin= 9 EnMin= -2753.87025791285     IErMin= 9 ErrMin= 9.80D-09
 ErrMax= 9.80D-09 EMaxC= 1.00D-01 BMatC= 8.68D-15 BMatP= 1.48D-12
 IDIUse=1 WtCom= 1.00D+00 WtEn= 0.00D+00
 Coeff-Com:  0.103D-07 0.862D-07-0.196D-05-0.122D-03 0.639D-03 0.351D-03
 Coeff-Com: -0.194D-01-0.981D-01 0.112D+01
 Coeff:      0.103D-07 0.862D-07-0.196D-05-0.122D-03 0.639D-03 0.351D-03
 Coeff:     -0.194D-01-0.981D-01 0.112D+01
 Gap=     0.516 Goal=   None    Shift=    0.000
 RMSDP=1.73D-09 MaxDP=7.39D-08 DE=-2.41D-11 OVMax= 9.42D-08

 SCF Done:  E(RwB97XD) =  -2753.87025791     A.U. after    9 cycles
             Convg  =    0.1728D-08             -V/T =  2.0013
 KE= 2.750236340101D+03 PE=-6.580144305464D+03 EE= 1.076037707450D+03
 Leave Link  502 at Mon May  4 15:03:10 2020, MaxMem= 1073741824 cpu:     226.3
 (Enter /home/matheus/.gaussian/g09/l601.exe)
 Copying SCF densities to generalized density rwf, IOpCl= 0 IROHF=0.

 **********************************************************************

            Population analysis using the SCF density.

 **********************************************************************

 Orbital symmetries:
       Occupied  (A) (A) (A) (A) (A) (A) (A) (A) (A) (A) (A) (A)
                 (A) (A) (A) (A) (A) (A)
       Virtual   (A) (A) (A) (A) (A) (A) (A) (A) (A) (A) (A) (A)
                 (A) (A) (A) (A) (A) (A) (A) (A) (A) (A) (A) (A)
                 (A) (A) (A) (A) (A) (A) (A) (A) (A) (A) (A) (A)
                 (A) (A) (A) (A) (A) (A) (A) (A) (A) (A) (A) (A)
                 (A) (A) (A) (A) (A) (A) (A) (A) (A) (A) (A) (A)
                 (A) (A) (A) (A) (A) (A) (A) (A) (A) (A) (A) (A)
                 (A) (A) (A) (A) (A) (A) (A) (A) (A) (A) (A) (A)
                 (A) (A) (A) (A) (A) (A) (A) (A) (A) (A) (A) (A)
                 (A) (A) (A) (A) (A) (A) (A) (A) (A) (A) (A) (A)
                 (A) (A) (A) (A) (A) (A) (A) (A) (A) (A) (A) (A)
                 (A) (A) (A) (A) (A) (A) (A) (A) (A) (A) (A) (A)
                 (A) (A) (A) (A) (A) (A) (A) (A) (A) (A) (A) (A)
                 (A) (A) (A) (A) (A) (A) (A) (A) (A) (A) (A) (A)
                 (A) (A) (A) (A) (A) (A) (A) (A) (A) (A) (A) (A)
                 (A) (A) (A) (A) (A) (A) (A) (A) (A) (A) (A)
 The electronic state is 1-A.
 Alpha  occ. eigenvalues -- -513.08071 -67.34873 -60.89747 -60.89745 -60.89745
 Alpha  occ. eigenvalues --   -9.80179  -7.49479  -7.49478  -7.49478  -3.36163
 Alpha  occ. eigenvalues --   -3.36163  -3.36163  -3.36162  -3.36162  -1.00827
 Alpha  occ. eigenvalues --   -0.48265  -0.48263  -0.48261
 Alpha virt. eigenvalues --    0.03371   0.05250   0.08800   0.10139   0.12468
 Alpha virt. eigenvalues --    0.13397   0.13962   0.14323   0.16144   0.17452
 Alpha virt. eigenvalues --    0.17958   0.18592   0.21194   0.25813   0.26411
 Alpha virt. eigenvalues --    0.26558   0.29506   0.31160   0.33346   0.37248
 Alpha virt. eigenvalues --    0.37568   0.39036   0.39553   0.40350   0.42069
 Alpha virt. eigenvalues --    0.42211   0.45704   0.52939   0.56258   0.57811
 Alpha virt. eigenvalues --    0.61574   0.64370   0.69773   0.70282   0.71785
 Alpha virt. eigenvalues --    0.72216   0.73668   0.74992   0.75514   0.77428
 Alpha virt. eigenvalues --    0.77973   0.83303   0.84797   0.86127   0.88242
 Alpha virt. eigenvalues --    0.89130   0.90014   0.91393   0.93779   0.97111
 Alpha virt. eigenvalues --    0.98413   0.98765   0.99572   1.01203   1.02777
 Alpha virt. eigenvalues --    1.04233   1.08758   1.11007   1.13791   1.14973
 Alpha virt. eigenvalues --    1.18579   1.23501   1.28203   1.32852   1.38727
 Alpha virt. eigenvalues --    1.40331   1.42256   1.44289   1.47880   1.52487
 Alpha virt. eigenvalues --    1.56314   1.60262   1.63995   1.75052   1.76113
 Alpha virt. eigenvalues --    1.81279   1.84658   1.87194   1.93089   2.16118
 Alpha virt. eigenvalues --    2.23049   2.25129   2.25588   2.28407   2.32207
 Alpha virt. eigenvalues --    2.33549   2.34994   2.37217   2.38712   2.41763
 Alpha virt. eigenvalues --    2.46237   2.47719   2.49163   2.51017   2.51287
 Alpha virt. eigenvalues --    2.53689   2.55145   2.59227   2.60022   2.61292
 Alpha virt. eigenvalues --    2.62445   2.65147   2.67691   2.69021   2.71646
 Alpha virt. eigenvalues --    2.76908   2.78550   2.82218   2.89333   2.91719
 Alpha virt. eigenvalues --    2.96570   3.00196   3.06696   3.13823   3.20105
 Alpha virt. eigenvalues --    3.26834   3.28090   3.30156   3.41377   3.52454
 Alpha virt. eigenvalues --    3.62400   3.65797   3.87667   3.88943   4.03014
 Alpha virt. eigenvalues --    4.42984   4.46848   4.52604   4.60448   4.69650
 Alpha virt. eigenvalues --    4.72736   4.86246   4.89173   4.97264   5.03551
 Alpha virt. eigenvalues --    5.13667   5.28218   5.55779   5.65314   5.70739
 Alpha virt. eigenvalues --    5.97596   6.01450   6.22383   6.73450   6.93466
 Alpha virt. eigenvalues --    7.30771   7.37953   7.66640   7.68142   7.79666
 Alpha virt. eigenvalues --    7.87786   8.02930   8.13992   8.18416   8.28030
 Alpha virt. eigenvalues --    8.28612   8.40008   8.70723   9.00640   9.51190
 Alpha virt. eigenvalues --    9.73968   9.80346   9.90964   9.92527   9.95278
 Alpha virt. eigenvalues --   10.21314  10.23151  10.70233  10.89286  11.49498
 Alpha virt. eigenvalues --   11.63967  11.69989  11.95496  12.05174  13.28207
 Alpha virt. eigenvalues --   13.61176  14.55903  62.37301  64.77698
          Condensed to atoms (all electrons):
              1          2          3          4          5
     1  O    0.001578  -0.000145  -0.001418   0.000386  -0.006438
     2  O   -0.000145   0.002517   0.000199  -0.002225  -0.004003
     3  H   -0.001418   0.000199   0.002023  -0.000180  -0.013767
     4  H    0.000386  -0.002225  -0.000180   0.002844  -0.017264
     5  Kr  -0.006438  -0.004003  -0.013767  -0.017264  36.080748
 Mulliken atomic charges:
              1
     1  O    0.006037
     2  O    0.003656
     3  H    0.013144
     4  H    0.016439
     5  Kr  -0.039276
 Sum of Mulliken atomic charges =   0.00000
 Mulliken charges with hydrogens summed into heavy atoms:
              1
     1  O    0.019180
     2  O    0.020096
     5  Kr  -0.039276
 Sum of Mulliken charges with hydrogens summed into heavy atoms =   0.00000
          Condensed to fragments (all electrons):
     1       0.039276
     2      -0.039276
 Electronic spatial extent (au):  <R**2>=            159.5890
 Charge=              0.0000 electrons
 Dipole moment (field-independent basis, Debye):
    X=             -0.0014    Y=              0.0001    Z=             -0.0001  Tot=              0.0014
 Quadrupole moment (field-independent basis, Debye-Ang):
   XX=            -17.6424   YY=            -17.6520   ZZ=            -17.6615
   XY=             -0.0005   XZ=             -0.0021   YZ=             -0.0011
 Traceless Quadrupole moment (field-independent basis, Debye-Ang):
   XX=              0.0095   YY=              0.0000   ZZ=             -0.0095
   XY=             -0.0005   XZ=             -0.0021   YZ=             -0.0011
 Octapole moment (field-independent basis, Debye-Ang**2):
  XXX=            -51.1777  YYY=              0.0280  ZZZ=              0.1236  XYY=            -17.0734
  XXY=              0.0083  XXZ=              0.0381  XZZ=            -17.0796  YZZ=              0.0098
  YYZ=              0.0412  XYZ=             -0.0004
 Hexadecapole moment (field-independent basis, Debye-Ang**3):
 XXXX=           -117.4285 YYYY=            -18.4827 ZZZZ=            -18.5085 XXXY=              0.0250
 XXXZ=              0.1136 YYYX=              0.0258 YYYZ=              0.0001 ZZZX=              0.1141
 ZZZY=             -0.0024 XXYY=            -22.6630 XXZZ=            -22.6715 YYZZ=             -6.1631
 XXYZ=             -0.0005 YYXZ=              0.0387 ZZXY=              0.0081
 N-N= 0.000000000000D+00 E-N=-6.580144304265D+03  KE= 2.750236340101D+03
 No NMR shielding tensors so no spin-rotation constants.
 Leave Link  601 at Mon May  4 15:03:10 2020, MaxMem= 1073741824 cpu:       0.7
 (Enter /home/matheus/.gaussian/g09/l122.exe)
 Counterpoise: doing MCBS calculation for fragment   1
 Leave Link  122 at Mon May  4 15:03:10 2020, MaxMem= 1073741824 cpu:       0.0
 (Enter /home/matheus/.gaussian/g09/l301.exe)
 Basis read from rwf:  (5D, 7F)
 No pseudopotential information found on rwf file.
 There are   138 symmetry adapted basis functions of A   symmetry.
 Integral buffers will be    131072 words long.
 Raffenetti 2 integral format.
 Two-electron integral symmetry is turned on.
   138 basis functions,   198 primitive gaussians,   160 cartesian basis functions
     9 alpha electrons        9 beta electrons
       nuclear repulsion energy        36.6636681782 Hartrees.
 IExCor= 4639 DFT=T Ex+Corr=wB97XD ExCW=0 ScaHFX=  1.000000
 ScaDFX=  1.000000  1.000000  1.000000  1.000000 ScalE2=  1.000000  1.000000
 IRadAn=      5 IRanWt=     -1 IRanGd=            0 ICorTp=0
  HFx wShort=  0.000000 wLong=  0.250000 cFull=  0.222036 cShort=  0.000000 cLong=  0.777964
  DFx wShort=  0.000000 wLong=  0.250000 cFull=  0.000000 cShort=  0.000000 cLong=  1.000000
 NAtoms=    5 NActive=    4 NUniq=    4 SFac= 1.00D+00 NAtFMM=   60 NAOKFM=F Big=F
 R6Disp: Dispersion energy =        -0.0002240145 Hartrees.
 Nuclear repulsion after empirical dispersion term =       36.6634441638 Hartrees.
 No density basis found on file   718.
 Leave Link  301 at Mon May  4 15:03:10 2020, MaxMem= 1073741824 cpu:       0.2
 (Enter /home/matheus/.gaussian/g09/l302.exe)
 NPDir=0 NMtPBC=     1 NCelOv=     1 NCel=       1 NClECP=     1 NCelD=      1
         NCelK=      1 NCelE2=     1 NClLst=     1 CellRange=     0.0.
 One-electron integrals computed using PRISM.
 NBasis=   138 RedAO= T  NBF=   138
 NBsUse=   138 1.00D-06 NBFU=   138
 Precomputing XC quadrature grid using
 IXCGrd= 2 IRadAn=           5 IRanWt=          -1 IRanGd=           0 AccXCQ= 0.00D+00.
 NRdTot=     344 NPtTot=       92556 NUsed=       95038 NTot=       95070
 NSgBfM=   160   160   160   160   160 NAtAll=     4     4.
 Leave Link  302 at Mon May  4 15:03:10 2020, MaxMem= 1073741824 cpu:       0.7
 (Enter /home/matheus/.gaussian/g09/l303.exe)
 DipDrv:  MaxL=1.
 Leave Link  303 at Mon May  4 15:03:10 2020, MaxMem= 1073741824 cpu:       0.1
 (Enter /home/matheus/.gaussian/g09/l401.exe)
 Harris functional with IExCor= 4639 diagonalized for initial guess.
 ExpMin= 2.53D-02 ExpMax= 1.53D+04 ExpMxC= 5.22D+02 IAcc=3 IRadAn=         5 AccDes= 0.00D+00
 HarFok:  IExCor= 4639 AccDes= 0.00D+00 IRadAn=         5 IDoV= 1
 ScaDFX=  1.000000  1.000000  1.000000  1.000000
 FoFCou: FMM=F IPFlag=           0 FMFlag=      100000 FMFlg1=           0
         NFxFlg=           0 DoJE=T BraDBF=F KetDBF=T FulRan=T
         Omega=  0.000000  0.000000  1.000000  0.000000  0.000000 ICntrl=     500 IOpCl=  0
         NMat0=    1 NMatS0=    1 NMatT0=    0 NMatD0=    1 NMtDS0=    0 NMtDT0=    0
         I1Cent=           4 NGrid=           0.
 Petite list used in FoFCou.
 Harris En= -145.942131470170    
 Initial guess orbital symmetries:
       Occupied  (A) (A) (A) (A) (A) (A) (A) (A) (A)
       Virtual   (A) (A) (A) (A) (A) (A) (A) (A) (A) (A) (A) (A)
                 (A) (A) (A) (A) (A) (A) (A) (A) (A) (A) (A) (A)
                 (A) (A) (A) (A) (A) (A) (A) (A) (A) (A) (A) (A)
                 (A) (A) (A) (A) (A) (A) (A) (A) (A) (A) (A) (A)
                 (A) (A) (A) (A) (A) (A) (A) (A) (A) (A) (A) (A)
                 (A) (A) (A) (A) (A) (A) (A) (A) (A) (A) (A) (A)
                 (A) (A) (A) (A) (A) (A) (A) (A) (A) (A) (A) (A)
                 (A) (A) (A) (A) (A) (A) (A) (A) (A) (A) (A) (A)
                 (A) (A) (A) (A) (A) (A) (A) (A) (A) (A) (A) (A)
                 (A) (A) (A) (A) (A) (A) (A) (A) (A) (A) (A) (A)
                 (A) (A) (A) (A) (A) (A) (A) (A) (A)
 The electronic state of the initial guess is 1-A.
 Leave Link  401 at Mon May  4 15:03:10 2020, MaxMem= 1073741824 cpu:       2.2
 (Enter /home/matheus/.gaussian/g09/l502.exe)
 Closed shell SCF:
 Requested convergence on RMS density matrix=1.00D-08 within 128 cycles.
 Requested convergence on MAX density matrix=1.00D-06.
 Requested convergence on             energy=1.00D-06.
 No special actions if energy rises.
 Using DIIS extrapolation, IDIIS=  1040.
 Integral symmetry usage will be decided dynamically.
        94980 words used for storage of precomputed grid.
 IEnd=      192360 IEndB=      192360 NGot=  1073741824 MDV=  1073591865
 LenX=  1073591865 LenY=  1073565824
 Fock matrices will be formed incrementally for  20 cycles.

 Cycle   1  Pass 1  IDiag  1:
 FoFJK:  IHMeth= 1 ICntrl=     0 DoSepK=T KAlg= 1 I1Cent= 0 FoldK=F
 FoFCou: FMM=F IPFlag=           0 FMFlag=      100000 FMFlg1=           0
         NFxFlg=           0 DoJE=T BraDBF=F KetDBF=F FulRan=T
         Omega=  0.000000  0.000000  1.000000  0.000000  0.000000 ICntrl=     500 IOpCl=  0
         NMat0=    1 NMatS0=    1 NMatT0=    0 NMatD0=    1 NMtDS0=    0 NMtDT0=    0
         I1Cent=           0 NGrid=           0.
 Symmetry not used in FoFCou.
 E= -151.454610813019    
 DIIS: error= 5.60D-02 at cycle   1 NSaved=   1.
 NSaved= 1 IEnMin= 1 EnMin= -151.454610813019     IErMin= 1 ErrMin= 5.60D-02
 ErrMax= 5.60D-02 EMaxC= 1.00D-01 BMatC= 3.17D-01 BMatP= 3.17D-01
 IDIUse=3 WtCom= 4.40D-01 WtEn= 5.60D-01
 Coeff-Com:  0.100D+01
 Coeff-En:   0.100D+01
 Coeff:      0.100D+01
 Gap=     0.521 Goal=   None    Shift=    0.000
 GapD=    0.521 DampG=2.000 DampE=0.500 DampFc=1.0000 IDamp=-1.
 RMSDP=3.48D-03 MaxDP=9.52D-02              OVMax= 1.23D-01

 Cycle   2  Pass 1  IDiag  1:
 RMSU=  2.41D-03    CP:  9.52D-01
 FoFJK:  IHMeth= 1 ICntrl=     0 DoSepK=T KAlg= 1 I1Cent= 0 FoldK=F
 E= -151.496797571224     Delta-E=       -0.042186758204 Rises=F Damp=F
 DIIS: error= 2.98D-02 at cycle   2 NSaved=   2.
 NSaved= 2 IEnMin= 2 EnMin= -151.496797571224     IErMin= 2 ErrMin= 2.98D-02
 ErrMax= 2.98D-02 EMaxC= 1.00D-01 BMatC= 9.71D-02 BMatP= 3.17D-01
 IDIUse=3 WtCom= 7.02D-01 WtEn= 2.98D-01
 Coeff-Com:  0.335D+00 0.665D+00
 Coeff-En:   0.325D+00 0.675D+00
 Coeff:      0.332D+00 0.668D+00
 Gap=     0.470 Goal=   None    Shift=    0.000
 RMSDP=1.48D-03 MaxDP=4.73D-02 DE=-4.22D-02 OVMax= 6.25D-02

 Cycle   3  Pass 1  IDiag  1:
 RMSU=  5.65D-04    CP:  9.74D-01  6.47D-01
 FoFJK:  IHMeth= 1 ICntrl=     0 DoSepK=T KAlg= 1 I1Cent= 0 FoldK=F
 E= -151.548781164132     Delta-E=       -0.051983592909 Rises=F Damp=F
 DIIS: error= 7.81D-03 at cycle   3 NSaved=   3.
 NSaved= 3 IEnMin= 3 EnMin= -151.548781164132     IErMin= 3 ErrMin= 7.81D-03
[...]
 E= -2753.87012788637    
 DIIS: error= 1.61D-04 at cycle   1 NSaved=   1.
 NSaved= 1 IEnMin= 1 EnMin= -2753.87012788637     IErMin= 1 ErrMin= 1.61D-04
 ErrMax= 1.61D-04 EMaxC= 1.00D-01 BMatC= 3.91D-06 BMatP= 3.91D-06
 IDIUse=3 WtCom= 9.98D-01 WtEn= 1.61D-03
 Coeff-Com:  0.100D+01
 Coeff-En:   0.100D+01
 Coeff:      0.100D+01
 Gap=     0.514 Goal=   None    Shift=    0.000
 RMSDP=1.49D-05 MaxDP=6.75D-04              OVMax= 3.66D-04

 Cycle   2  Pass 1  IDiag  1:
 RMSU=  1.05D-05    CP:  1.00D+00
 FoFJK:  IHMeth= 1 ICntrl=     0 DoSepK=T KAlg= 1 I1Cent= 0 FoldK=F
 E= -2753.87012853590     Delta-E=       -0.000000649533 Rises=F Damp=F
 DIIS: error= 6.68D-06 at cycle   2 NSaved=   2.
 NSaved= 2 IEnMin= 2 EnMin= -2753.87012853590     IErMin= 2 ErrMin= 6.68D-06
 ErrMax= 6.68D-06 EMaxC= 1.00D-01 BMatC= 5.30D-09 BMatP= 3.91D-06
 IDIUse=1 WtCom= 1.00D+00 WtEn= 0.00D+00
 Coeff-Com: -0.119D-01 0.101D+01
 Coeff:     -0.119D-01 0.101D+01
 Gap=     0.514 Goal=   None    Shift=    0.000
 RMSDP=1.38D-06 MaxDP=5.05D-05 DE=-6.50D-07 OVMax= 5.67D-05

 Cycle   3  Pass 1  IDiag  1:
 RMSU=  4.82D-07    CP:  1.00D+00  1.08D+00
 FoFJK:  IHMeth= 1 ICntrl=     0 DoSepK=T KAlg= 1 I1Cent= 0 FoldK=F
 E= -2753.87012854537     Delta-E=       -0.000000009463 Rises=F Damp=F
 DIIS: error= 9.44D-07 at cycle   3 NSaved=   3.
 NSaved= 3 IEnMin= 3 EnMin= -2753.87012854537     IErMin= 3 ErrMin= 9.44D-07
 ErrMax= 9.44D-07 EMaxC= 1.00D-01 BMatC= 1.59D-10 BMatP= 5.30D-09
 IDIUse=1 WtCom= 1.00D+00 WtEn= 0.00D+00
 Coeff-Com: -0.759D-04-0.979D-01 0.110D+01
 Coeff:     -0.759D-04-0.979D-01 0.110D+01
 Gap=     0.514 Goal=   None    Shift=    0.000
 RMSDP=1.83D-07 MaxDP=6.23D-06 DE=-9.46D-09 OVMax= 1.13D-05

 Cycle   4  Pass 1  IDiag  1:
 RMSU=  5.52D-08    CP:  1.00D+00  1.08D+00  1.23D+00
 FoFJK:  IHMeth= 1 ICntrl=     0 DoSepK=T KAlg= 1 I1Cent= 0 FoldK=F
 E= -2753.87012854562     Delta-E=       -0.000000000256 Rises=F Damp=F
 DIIS: error= 4.56D-07 at cycle   4 NSaved=   4.
 NSaved= 4 IEnMin= 4 EnMin= -2753.87012854562     IErMin= 4 ErrMin= 4.56D-07
 ErrMax= 4.56D-07 EMaxC= 1.00D-01 BMatC= 2.52D-11 BMatP= 1.59D-10
 IDIUse=1 WtCom= 1.00D+00 WtEn= 0.00D+00
 Coeff-Com:  0.269D-03-0.544D-01 0.329D+00 0.725D+00
 Coeff:      0.269D-03-0.544D-01 0.329D+00 0.725D+00
 Gap=     0.514 Goal=   None    Shift=    0.000
 RMSDP=2.64D-08 MaxDP=8.81D-07 DE=-2.56D-10 OVMax= 1.61D-06

 Cycle   5  Pass 1  IDiag  1:
 RMSU=  1.22D-08    CP:  1.00D+00  1.08D+00  1.25D+00  1.04D+00
 FoFJK:  IHMeth= 1 ICntrl=     0 DoSepK=T KAlg= 1 I1Cent= 0 FoldK=F
 E= -2753.87012854565     Delta-E=       -0.000000000023 Rises=F Damp=F
 DIIS: error= 4.65D-08 at cycle   5 NSaved=   5.
 NSaved= 5 IEnMin= 5 EnMin= -2753.87012854565     IErMin= 5 ErrMin= 4.65D-08
 ErrMax= 4.65D-08 EMaxC= 1.00D-01 BMatC= 2.69D-13 BMatP= 2.52D-11
 IDIUse=1 WtCom= 1.00D+00 WtEn= 0.00D+00
 Coeff-Com:  0.249D-05 0.239D-02-0.302D-01 0.881D-02 0.102D+01
 Coeff:      0.249D-05 0.239D-02-0.302D-01 0.881D-02 0.102D+01
 Gap=     0.514 Goal=   None    Shift=    0.000
 RMSDP=1.06D-08 MaxDP=4.54D-07 DE=-2.32D-11 OVMax= 4.39D-07

 Cycle   6  Pass 1  IDiag  1:
 RMSU=  1.45D-09    CP:  1.00D+00  1.08D+00  1.26D+00  1.11D+00  1.15D+00
 FoFJK:  IHMeth= 1 ICntrl=     0 DoSepK=T KAlg= 1 I1Cent= 0 FoldK=F
 E= -2753.87012854566     Delta-E=       -0.000000000015 Rises=F Damp=F
 DIIS: error= 1.49D-08 at cycle   6 NSaved=   6.
 NSaved= 6 IEnMin= 6 EnMin= -2753.87012854566     IErMin= 6 ErrMin= 1.49D-08
 ErrMax= 1.49D-08 EMaxC= 1.00D-01 BMatC= 3.12D-14 BMatP= 2.69D-13
 IDIUse=1 WtCom= 1.00D+00 WtEn= 0.00D+00
 Coeff-Com: -0.135D-04 0.356D-02-0.258D-01-0.332D-01 0.276D+00 0.780D+00
 Coeff:     -0.135D-04 0.356D-02-0.258D-01-0.332D-01 0.276D+00 0.780D+00
 Gap=     0.514 Goal=   None    Shift=    0.000
 RMSDP=1.61D-09 MaxDP=6.86D-08 DE=-1.50D-11 OVMax= 9.01D-08

 SCF Done:  E(RwB97XD) =  -2753.87012855     A.U. after    6 cycles
             Convg  =    0.1612D-08             -V/T =  2.0013
 KE= 2.750283554363D+03 PE=-6.580194867438D+03 EE= 1.076041184529D+03
 Leave Link  502 at Mon May  4 15:25:23 2020, MaxMem= 1073741824 cpu:     112.9
 (Enter /home/matheus/.gaussian/g09/l122.exe)
 Restoring MOs from calculation   4 to rwf.
 Counterpoise: doing MCBS calculation for fragment   1
 Leave Link  122 at Mon May  4 15:25:23 2020, MaxMem= 1073741824 cpu:       0.0
 (Enter /home/matheus/.gaussian/g09/l301.exe)
 Basis read from rwf:  (5D, 7F)
 No pseudopotential information found on rwf file.
 There are   138 symmetry adapted basis functions of A   symmetry.
 Integral buffers will be    131072 words long.
 Raffenetti 2 integral format.
 Two-electron integral symmetry is turned on.
   138 basis functions,   198 primitive gaussians,   160 cartesian basis functions
     9 alpha electrons        9 beta electrons
       nuclear repulsion energy        36.6636681782 Hartrees.
 IExCor= 4639 DFT=T Ex+Corr=wB97XD ExCW=0 ScaHFX=  1.000000
 ScaDFX=  1.000000  1.000000  1.000000  1.000000 ScalE2=  1.000000  1.000000
 IRadAn=      5 IRanWt=     -1 IRanGd=            0 ICorTp=0
  HFx wShort=  0.000000 wLong=  0.250000 cFull=  0.222036 cShort=  0.000000 cLong=  0.777964
  DFx wShort=  0.000000 wLong=  0.250000 cFull=  0.000000 cShort=  0.000000 cLong=  1.000000
 NAtoms=    5 NActive=    4 NUniq=    4 SFac= 1.00D+00 NAtFMM=   60 NAOKFM=F Big=F
 R6Disp: Dispersion energy =        -0.0002240145 Hartrees.
 Nuclear repulsion after empirical dispersion term =       36.6634441638 Hartrees.
 No density basis found on file   718.
 Leave Link  301 at Mon May  4 15:25:23 2020, MaxMem= 1073741824 cpu:       0.2
 (Enter /home/matheus/.gaussian/g09/l302.exe)
 NPDir=0 NMtPBC=     1 NCelOv=     1 NCel=       1 NClECP=     1 NCelD=      1
         NCelK=      1 NCelE2=     1 NClLst=     1 CellRange=     0.0.
 One-electron integrals computed using PRISM.
 NBasis=   138 RedAO= T  NBF=   138
 NBsUse=   138 1.00D-06 NBFU=   138
 Precomputing XC quadrature grid using
 IXCGrd= 2 IRadAn=           5 IRanWt=          -1 IRanGd=           0 AccXCQ= 0.00D+00.
 NRdTot=     344 NPtTot=       92556 NUsed=       95038 NTot=       95070
 NSgBfM=   160   160   160   160   160 NAtAll=     4     4.
 Leave Link  302 at Mon May  4 15:25:24 2020, MaxMem= 1073741824 cpu:       0.8
 (Enter /home/matheus/.gaussian/g09/l303.exe)
 DipDrv:  MaxL=1.
 Leave Link  303 at Mon May  4 15:25:24 2020, MaxMem= 1073741824 cpu:       0.1
 (Enter /home/matheus/.gaussian/g09/l401.exe)
 Initial guess read from the read-write file.
 Guess basis will be translated and rotated to current coordinates.
 Initial guess orbital symmetries:
       Occupied  (A) (A) (A) (A) (A) (A) (A) (A) (A)
       Virtual   (A) (A) (A) (A) (A) (A) (A) (A) (A) (A) (A) (A)
                 (A) (A) (A) (A) (A) (A) (A) (A) (A) (A) (A) (A)
                 (A) (A) (A) (A) (A) (A) (A) (A) (A) (A) (A) (A)
                 (A) (A) (A) (A) (A) (A) (A) (A) (A) (A) (A) (A)
                 (A) (A) (A) (A) (A) (A) (A) (A) (A) (A) (A) (A)
                 (A) (A) (A) (A) (A) (A) (A) (A) (A) (A) (A) (A)
                 (A) (A) (A) (A) (A) (A) (A) (A) (A) (A) (A) (A)
                 (A) (A) (A) (A) (A) (A) (A) (A) (A) (A) (A) (A)
                 (A) (A) (A) (A) (A) (A) (A) (A) (A) (A) (A) (A)
                 (A) (A) (A) (A) (A) (A) (A) (A) (A) (A) (A) (A)
                 (A) (A) (A) (A) (A) (A) (A) (A) (A)
 The electronic state of the initial guess is 1-A.
 Generating alternative initial guess.
 Harris functional with IExCor= 4639 diagonalized for initial guess.
 ExpMin= 2.53D-02 ExpMax= 1.53D+04 ExpMxC= 5.22D+02 IAcc=3 IRadAn=         5 AccDes= 0.00D+00
 HarFok:  IExCor= 4639 AccDes= 0.00D+00 IRadAn=         5 IDoV= 1
 ScaDFX=  1.000000  1.000000  1.000000  1.000000
 FoFCou: FMM=F IPFlag=           0 FMFlag=      100000 FMFlg1=           0
         NFxFlg=           0 DoJE=T BraDBF=F KetDBF=T FulRan=T
         Omega=  0.000000  0.000000  1.000000  0.000000  0.000000 ICntrl=     500 IOpCl=  0
         NMat0=    1 NMatS0=    1 NMatT0=    0 NMatD0=    1 NMtDS0=    0 NMtDT0=    0
         I1Cent=           4 NGrid=           0.
 Petite list used in FoFCou.
 Harris En= -145.942131469343    
 Leave Link  401 at Mon May  4 15:25:24 2020, MaxMem= 1073741824 cpu:       2.7
 (Enter /home/matheus/.gaussian/g09/l502.exe)
 Closed shell SCF:
 Requested convergence on RMS density matrix=1.00D-08 within 128 cycles.
 Requested convergence on MAX density matrix=1.00D-06.
 Requested convergence on             energy=1.00D-06.
 No special actions if energy rises.
 Using DIIS extrapolation, IDIIS=  1040.
 Integral symmetry usage will be decided dynamically.
        94980 words used for storage of precomputed grid.
 IEnd=      192360 IEndB=      192360 NGot=  1073741824 MDV=  1073591865
 LenX=  1073591865 LenY=  1073565824
 Fock matrices will be formed incrementally for  20 cycles.

 Cycle   1  Pass 1  IDiag  1:
 FoFJK:  IHMeth= 1 ICntrl=     0 DoSepK=T KAlg= 1 I1Cent= 0 FoldK=F
 FoFCou: FMM=F IPFlag=           0 FMFlag=      100000 FMFlg1=           0
         NFxFlg=           0 DoJE=T BraDBF=F KetDBF=F FulRan=T
         Omega=  0.000000  0.000000  1.000000  0.000000  0.000000 ICntrl=     500 IOpCl=  0
         NMat0=    1 NMatS0=    1 NMatT0=    0 NMatD0=    1 NMtDS0=    0 NMtDT0=    0
         I1Cent=           0 NGrid=           0.
 Symmetry not used in FoFCou.
 E= -151.553156170560    
 DIIS: error= 1.70D-06 at cycle   1 NSaved=   1.
 NSaved= 1 IEnMin= 1 EnMin= -151.553156170560     IErMin= 1 ErrMin= 1.70D-06
 ErrMax= 1.70D-06 EMaxC= 1.00D-01 BMatC= 4.29D-10 BMatP= 4.29D-10
 IDIUse=1 WtCom= 1.00D+00 WtEn= 0.00D+00
 Coeff-Com:  0.100D+01
 Coeff:      0.100D+01
 Gap=     0.401 Goal=   None    Shift=    0.000
 RMSDP=1.63D-07 MaxDP=4.04D-06              OVMax= 6.68D-06

 Cycle   2  Pass 1  IDiag  1:
 RMSU=  1.15D-07    CP:  1.00D+00
 FoFJK:  IHMeth= 1 ICntrl=     0 DoSepK=T KAlg= 1 I1Cent= 0 FoldK=F
 E= -151.553156170999     Delta-E=       -0.000000000438 Rises=F Damp=F
 DIIS: error= 2.97D-07 at cycle   2 NSaved=   2.
 NSaved= 2 IEnMin= 2 EnMin= -151.553156170999     IErMin= 2 ErrMin= 2.97D-07
 ErrMax= 2.97D-07 EMaxC= 1.00D-01 BMatC= 1.59D-11 BMatP= 4.29D-10
 IDIUse=1 WtCom= 1.00D+00 WtEn= 0.00D+00
 Coeff-Com: -0.107D+00 0.111D+01
 Coeff:     -0.107D+00 0.111D+01
 Gap=     0.401 Goal=   None    Shift=    0.000
 RMSDP=4.26D-08 MaxDP=1.34D-06 DE=-4.38D-10 OVMax= 1.97D-06

 Cycle   3  Pass 1  IDiag  1:
 RMSU=  1.21D-08    CP:  1.00D+00  1.24D+00
 FoFJK:  IHMeth= 1 ICntrl=     0 DoSepK=T KAlg= 1 I1Cent= 0 FoldK=F
 E= -151.553156171024     Delta-E=       -0.000000000026 Rises=F Damp=F
 DIIS: error= 1.00D-07 at cycle   3 NSaved=   3.
 NSaved= 3 IEnMin= 3 EnMin= -151.553156171024     IErMin= 3 ErrMin= 1.00D-07
 ErrMax= 1.00D-07 EMaxC= 1.00D-01 BMatC= 8.92D-13 BMatP= 1.59D-11
 IDIUse=1 WtCom= 1.00D+00 WtEn= 0.00D+00
 Coeff-Com: -0.234D-01 0.864D-01 0.937D+00
 Coeff:     -0.234D-01 0.864D-01 0.937D+00
 Gap=     0.401 Goal=   None    Shift=    0.000
 RMSDP=1.09D-08 MaxDP=2.85D-07 DE=-2.58D-11 OVMax= 6.35D-07

 Cycle   4  Pass 1  IDiag  1:
 RMSU=  3.98D-09    CP:  1.00D+00  1.29D+00  1.20D+00
 FoFJK:  IHMeth= 1 ICntrl=     0 DoSepK=T KAlg= 1 I1Cent= 0 FoldK=F
 E= -151.553156171025     Delta-E=        0.000000000000 Rises=F Damp=F
 DIIS: error= 6.43D-08 at cycle   4 NSaved=   4.
 NSaved= 4 IEnMin= 4 EnMin= -151.553156171025     IErMin= 4 ErrMin= 6.43D-08
 ErrMax= 6.43D-08 EMaxC= 1.00D-01 BMatC= 4.66D-13 BMatP= 8.92D-13
 IDIUse=1 WtCom= 1.00D+00 WtEn= 0.00D+00
 Coeff-Com: -0.252D-02-0.429D-01 0.396D+00 0.649D+00
 Coeff:     -0.252D-02-0.429D-01 0.396D+00 0.649D+00
 Gap=     0.401 Goal=   None    Shift=    0.000
 RMSDP=3.70D-09 MaxDP=6.30D-08 DE=-3.69D-13 OVMax= 2.25D-07

 SCF Done:  E(RwB97XD) =  -151.553156171     A.U. after    4 cycles
             Convg  =    0.3701D-08             -V/T =  2.0059
 KE= 1.506656115488D+02 PE=-4.317473247062D+02 EE= 9.286511282262D+01
 Leave Link  502 at Mon May  4 15:25:28 2020, MaxMem= 1073741824 cpu:      30.4
 (Enter /home/matheus/.gaussian/g09/l122.exe)
 Restoring MOs from calculation   5 to rwf.
 Counterpoise: doing MCBS calculation for fragment   2
 Leave Link  122 at Mon May  4 15:25:28 2020, MaxMem= 1073741824 cpu:       0.0
 (Enter /home/matheus/.gaussian/g09/l301.exe)
 Basis read from rwf:  (5D, 7F)
 No pseudopotential information found on rwf file.
 There are    59 symmetry adapted basis functions of A   symmetry.
 Integral buffers will be    131072 words long.
 Raffenetti 2 integral format.
 Two-electron integral symmetry is turned on.
    59 basis functions,   217 primitive gaussians,    69 cartesian basis functions
    18 alpha electrons       18 beta electrons
       nuclear repulsion energy         0.0000000000 Hartrees.
 IExCor= 4639 DFT=T Ex+Corr=wB97XD ExCW=0 ScaHFX=  1.000000
 ScaDFX=  1.000000  1.000000  1.000000  1.000000 ScalE2=  1.000000  1.000000
 IRadAn=      5 IRanWt=     -1 IRanGd=            0 ICorTp=0
  HFx wShort=  0.000000 wLong=  0.250000 cFull=  0.222036 cShort=  0.000000 cLong=  0.777964
  DFx wShort=  0.000000 wLong=  0.250000 cFull=  0.000000 cShort=  0.000000 cLong=  1.000000
 NAtoms=    5 NActive=    1 NUniq=    1 SFac= 1.00D+00 NAtFMM=   60 NAOKFM=F Big=F
 R6Disp: Dispersion energy =         0.0000000000 Hartrees.
 Nuclear repulsion after empirical dispersion term =        0.0000000000 Hartrees.
 No density basis found on file   718.
 Leave Link  301 at Mon May  4 15:25:28 2020, MaxMem= 1073741824 cpu:       0.2
 (Enter /home/matheus/.gaussian/g09/l302.exe)
 NPDir=0 NMtPBC=     1 NCelOv=     1 NCel=       1 NClECP=     1 NCelD=      1
         NCelK=      1 NCelE2=     1 NClLst=     1 CellRange=     0.0.
 One-electron integrals computed using PRISM.
 NBasis=    59 RedAO= T  NBF=    59
 NBsUse=    59 1.00D-06 NBFU=    59
 Precomputing XC quadrature grid using
 IXCGrd= 2 IRadAn=           5 IRanWt=          -1 IRanGd=           0 AccXCQ= 0.00D+00.
 NRdTot=      81 NPtTot=       30352 NUsed=       30981 NTot=       31013
 NSgBfM=    69    69    69    69    69 NAtAll=     1     1.
 Leave Link  302 at Mon May  4 15:25:28 2020, MaxMem= 1073741824 cpu:       0.6
 (Enter /home/matheus/.gaussian/g09/l303.exe)
 DipDrv:  MaxL=1.
 Leave Link  303 at Mon May  4 15:25:28 2020, MaxMem= 1073741824 cpu:       0.1
 (Enter /home/matheus/.gaussian/g09/l401.exe)
 Initial guess read from the read-write file.
 Guess basis will be translated and rotated to current coordinates.
 Initial guess orbital symmetries:
       Occupied  (A) (A) (A) (A) (A) (A) (A) (A) (A) (A) (A) (A)
                 (A) (A) (A) (A) (A) (A)
       Virtual   (A) (A) (A) (A) (A) (A) (A) (A) (A) (A) (A) (A)
                 (A) (A) (A) (A) (A) (A) (A) (A) (A) (A) (A) (A)
                 (A) (A) (A) (A) (A) (A) (A) (A) (A) (A) (A) (A)
                 (A) (A) (A) (A) (A)
 The electronic state of the initial guess is 1-A.
 Generating alternative initial guess.
 Harris functional with IExCor= 4639 diagonalized for initial guess.
 ExpMin= 4.00D-02 ExpMax= 1.17D+07 ExpMxC= 1.33D+04 IAcc=3 IRadAn=         5 AccDes= 0.00D+00
 HarFok:  IExCor= 4639 AccDes= 0.00D+00 IRadAn=         5 IDoV= 1
 ScaDFX=  1.000000  1.000000  1.000000  1.000000
 FoFCou: FMM=F IPFlag=           0 FMFlag=      100000 FMFlg1=           0
         NFxFlg=           0 DoJE=T BraDBF=F KetDBF=T FulRan=T
         Omega=  0.000000  0.000000  1.000000  0.000000  0.000000 ICntrl=     500 IOpCl=  0
         NMat0=    1 NMatS0=    1 NMatT0=    0 NMatD0=    1 NMtDS0=    0 NMtDT0=    0
         I1Cent=           4 NGrid=           0.
 Petite list used in FoFCou.
 Harris En= -2729.45839233129    
 Leave Link  401 at Mon May  4 15:25:28 2020, MaxMem= 1073741824 cpu:       1.0
 (Enter /home/matheus/.gaussian/g09/l502.exe)
 Closed shell SCF:
 Requested convergence on RMS density matrix=1.00D-08 within 128 cycles.
 Requested convergence on MAX density matrix=1.00D-06.
 Requested convergence on             energy=1.00D-06.
 No special actions if energy rises.
 Using DIIS extrapolation, IDIIS=  1040.
 Integral symmetry usage will be decided dynamically.
        30923 words used for storage of precomputed grid.
 IEnd=       64406 IEndB=       64406 NGot=  1073741824 MDV=  1073698889
 LenX=  1073698889 LenY=  1073693687
 Fock matrices will be formed incrementally for  20 cycles.

 Cycle   1  Pass 1  IDiag  1:
 FoFJK:  IHMeth= 1 ICntrl=     0 DoSepK=T KAlg= 1 I1Cent= 0 FoldK=F
 FoFCou: FMM=F IPFlag=           0 FMFlag=      100000 FMFlg1=           0
         NFxFlg=           0 DoJE=T BraDBF=F KetDBF=F FulRan=T
         Omega=  0.000000  0.000000  1.000000  0.000000  0.000000 ICntrl=     500 IOpCl=  0
         NMat0=    1 NMatS0=    1 NMatT0=    0 NMatD0=    1 NMtDS0=    0 NMtDT0=    0
         I1Cent=           0 NGrid=           0.
 Symmetry not used in FoFCou.
 E= -2753.87011063501    
 DIIS: error= 8.38D-14 at cycle   1 NSaved=   1.
 NSaved= 1 IEnMin= 1 EnMin= -2753.87011063501     IErMin= 1 ErrMin= 8.38D-14
 ErrMax= 8.38D-14 EMaxC= 1.00D-01 BMatC= 3.43D-25 BMatP= 3.43D-25
 IDIUse=1 WtCom= 1.00D+00 WtEn= 0.00D+00
 Coeff-Com:  0.100D+01
 Coeff:      0.100D+01
 Gap=     0.578 Goal=   None    Shift=    0.000
 RMSDP=9.57D-15 MaxDP=1.39D-13              OVMax= 1.67D-13

 SCF Done:  E(RwB97XD) =  -2753.87011064     A.U. after    1 cycles
             Convg  =    0.9568D-14             -V/T =  2.0013
 KE= 2.750289370128D+03 PE=-6.580200885036D+03 EE= 1.076041404273D+03
 Leave Link  502 at Mon May  4 15:25:30 2020, MaxMem= 1073741824 cpu:      12.0
 (Enter /home/matheus/.gaussian/g09/l122.exe)
 Restoring MOs from calculation   1 to rwf.
 Counterpoise: corrected energy =   -2905.423737425582
 Counterpoise: BSSE energy =       0.000021539217
 Leave Link  122 at Mon May  4 15:25:30 2020, MaxMem= 1073741824 cpu:       0.0
 (Enter /home/matheus/.gaussian/g09/l108.exe)
 Scan completed.

 Summary of the potential surface scan:
   N      R1          SCF    
 ----  ---------  -----------
    1     3.0000  -2753.87011
    2     3.1000  -2753.87011
    3     3.2000  -2753.87011
    4     3.3000  -2753.87011
    5     3.4000  -2753.87011
    6     3.5000  -2753.87011
    7     3.6000  -2753.87011
    8     3.7000  -2753.87011
    9     3.8000  -2753.87011
   10     3.9000  -2753.87011
   11     4.0000  -2753.87011
   12     4.1000  -2753.87011
   13     4.2000  -2753.87011
   14     4.3000  -2753.87011
   15     4.4000  -2753.87011
   16     4.5000  -2753.87011
   17     4.6000  -2753.87011
   18     4.7000  -2753.87011
   19     4.8000  -2753.87011
   20     4.9000  -2753.87011
   21     5.0000  -2753.87011
 ----  ---------  -----------
  
 Leave Link  108 at Mon May  4 15:25:30 2020, MaxMem= 1073741824 cpu:       0.0
 (Enter /home/matheus/.gaussian/g09/l9999.exe)

 Test job not archived.
 1\1\GINC-REDGIANT\Scan\RwB97XD\Aug-CC-pVTZ\H2Kr1O2\ROOT\04-May-2020\1\
 \#p wb97xd/aug-cc-PVTz iop(3/107=0250000000) iop(3/108=0250000000) int
 =ultrafine counterpoise=2 Scan\\TCC\\0,1\O,0,0.,0.,0.725\O,0,0.,0.,-0.
 725\H,0,-0.3142209495,0.8633149634,1.0235104166\H,0,0.,0.9187205947,-1
 .0235104166\Kr,0,0.,R1,0.\\R1=3.,s,20,0.1\\Version=EM64L-G09RevC.01\St
 ate=1-A\HF=-2753.8701106,-2753.8701106,-2753.8701106,-2753.8701106,-27
 53.8701106,-2753.8701106,-2753.8701106,-2753.8701106,-2753.8701106,-27
 53.8701106,-2753.8701106,-2753.8701106,-2753.8701106,-2753.8701106,-27
 53.8701106,-2753.8701106,-2753.8701106,-2753.8701106,-2753.8701106,-27
 53.8701106,-2753.8701106\RMSD=9.654e-09,1.848e-10,5.406e-11,3.457e-11,
 1.948e-11,1.188e-11,7.095e-12,4.284e-12,2.573e-12,1.544e-12,9.251e-13,
 5.538e-13,3.326e-13,2.018e-13,1.208e-13,7.397e-14,4.530e-14,2.678e-14,
 1.536e-14,1.464e-14,9.568e-15\PG=C01 [X(H2Kr1O2)]\\@


 THE MOST SERIOUS THREAT TO THE SURVIVAL OF MANKIND IS NOT NOW
 IGNORANCE IN THE TRADITIONAL SENSE,
 BUT A MORALLY NEUTRAL, AN INSENSITIVE OR INHIBITED HUMAN INTELLIGENCE.

                     -- MARGO JEFFERSON IN NEWSWEEK, SEPTEMBER 2, 1974
 Job cpu time:  0 days  3 hours 11 minutes  9.8 seconds.
 File lengths (MBytes):  RWF=     33 Int=      0 D2E=      0 Chk=      8 Scr=      1
 Normal termination of Gaussian 09 at Mon May  4 15:25:30 2020.
