 Entering Gaussian System, Link 0=g09
 Input=/home/matheus/.tcc/Inputs-wb97xd/H2O2-Kr_18.com
 Output=/home/matheus/.tcc/Logs-wb97xd/H2O2-Kr_18.log
 Initial command:
 /home/matheus/.gaussian/g09/l1.exe /home/matheus/.gaussian/g09/scratch/Gau-11350.inp -scrdir=/home/matheus/.gaussian/g09/scratch/
 Entering Link 1 = /home/matheus/.gaussian/g09/l1.exe PID=     11353.
  
 Copyright (c) 1988,1990,1992,1993,1995,1998,2003,2009,2011,
            Gaussian, Inc.  All Rights Reserved.
  
 This is part of the Gaussian(R) 09 program.  It is based on
 the Gaussian(R) 03 system (copyright 2003, Gaussian, Inc.),
 the Gaussian(R) 98 system (copyright 1998, Gaussian, Inc.),
 the Gaussian(R) 94 system (copyright 1995, Gaussian, Inc.),
 the Gaussian 92(TM) system (copyright 1992, Gaussian, Inc.),
 the Gaussian 90(TM) system (copyright 1990, Gaussian, Inc.),
 the Gaussian 88(TM) system (copyright 1988, Gaussian, Inc.),
 the Gaussian 86(TM) system (copyright 1986, Carnegie Mellon
 University), and the Gaussian 82(TM) system (copyright 1983,
 Carnegie Mellon University). Gaussian is a federally registered
 trademark of Gaussian, Inc.
  
 This software contains proprietary and confidential information,
 including trade secrets, belonging to Gaussian, Inc.
  
 This software is provided under written license and may be
 used, copied, transmitted, or stored only in accord with that
 written license.
  
 The following legend is applicable only to US Government
 contracts under FAR:
  
                    RESTRICTED RIGHTS LEGEND
  
 Use, reproduction and disclosure by the US Government is
 subject to restrictions as set forth in subparagraphs (a)
 and (c) of the Commercial Computer Software - Restricted
 Rights clause in FAR 52.227-19.
  
 Gaussian, Inc.
 340 Quinnipiac St., Bldg. 40, Wallingford CT 06492
  
  
 ---------------------------------------------------------------
 Warning -- This program may not be used in any manner that
 competes with the business of Gaussian, Inc. or will provide
 assistance to any competitor of Gaussian, Inc.  The licensee
 of this program is prohibited from giving any competitor of
 Gaussian, Inc. access to this program.  By using this program,
 the user acknowledges that Gaussian, Inc. is engaged in the
 business of creating and licensing software in the field of
 computational chemistry and represents and warrants to the
 licensee that it is not a competitor of Gaussian, Inc. and that
 it will not use this program in any manner prohibited above.
 ---------------------------------------------------------------
  

 Cite this work as:
 Gaussian 09, Revision C.01,
 M. J. Frisch, G. W. Trucks, H. B. Schlegel, G. E. Scuseria, 
 M. A. Robb, J. R. Cheeseman, G. Scalmani, V. Barone, B. Mennucci, 
 G. A. Petersson, H. Nakatsuji, M. Caricato, X. Li, H. P. Hratchian, 
 A. F. Izmaylov, J. Bloino, G. Zheng, J. L. Sonnenberg, M. Hada, 
 M. Ehara, K. Toyota, R. Fukuda, J. Hasegawa, M. Ishida, T. Nakajima, 
 Y. Honda, O. Kitao, H. Nakai, T. Vreven, J. A. Montgomery, Jr., 
 J. E. Peralta, F. Ogliaro, M. Bearpark, J. J. Heyd, E. Brothers, 
 K. N. Kudin, V. N. Staroverov, T. Keith, R. Kobayashi, J. Normand, 
 K. Raghavachari, A. Rendell, J. C. Burant, S. S. Iyengar, J. Tomasi, 
 M. Cossi, N. Rega, J. M. Millam, M. Klene, J. E. Knox, J. B. Cross, 
 V. Bakken, C. Adamo, J. Jaramillo, R. Gomperts, R. E. Stratmann, 
 O. Yazyev, A. J. Austin, R. Cammi, C. Pomelli, J. W. Ochterski, 
 R. L. Martin, K. Morokuma, V. G. Zakrzewski, G. A. Voth, 
 P. Salvador, J. J. Dannenberg, S. Dapprich, A. D. Daniels, 
 O. Farkas, J. B. Foresman, J. V. Ortiz, J. Cioslowski, 
 and D. J. Fox, Gaussian, Inc., Wallingford CT, 2010.
 
 ******************************************
 Gaussian 09:  EM64L-G09RevC.01 23-Sep-2011
                 3-May-2020 
 ******************************************
 %mem=8GB
 %nproc=8
 Will use up to    8 processors via shared memory.
 ----------------------------------------------------------------------
 #p wb97xd/aug-cc-PVTz iop(3/107=0250000000) iop(3/108=0250000000) int=
 ultrafine counterpoise=2 Scan
 ----------------------------------------------------------------------
 1/38=1,60=1,62=2/1,8;
 2/12=2,17=6,18=5,29=3,40=1/2;
 1/38=1,53=5172,62=2/22;
 3/5=16,6=1,7=10,11=2,16=1,25=1,30=1,74=-58,75=-5,107=250000000,108=250000000/1,2,3;
 4//1;
 5/5=2,38=5/2;
 6/7=2,8=2,9=2,10=2,18=1,28=1/1;
 1/53=4052,62=2,63=1/22;
 3/5=7,6=11,7=10,11=2,16=1,25=1,30=1,74=-58,75=-5,82=7,107=250000000,108=250000000/1,2,3;
 4//1;
 5/5=2,38=5/2;
 6/7=2,8=2,9=2,10=2,18=1,28=1/1;
 1/53=3042,62=2,63=2/22;
 3/5=7,6=11,7=10,11=2,16=1,25=1,30=1,74=-58,75=-5,82=7,107=250000000,108=250000000/1,2,3;
 4//1;
 5/5=2,38=5/2;
 6/7=2,8=2,9=2,10=2,18=1,28=1/1;
 1/53=2032,62=2,63=3/22;
 3/5=7,6=11,7=10,11=2,16=1,25=1,30=1,74=-58,75=-5,82=7,107=250000000,108=250000000/1,2,3;
 4//1;
 5/5=2,38=5/2;
 6/7=2,8=2,9=2,10=2,18=1,28=1/1;
 1/53=1022,62=2,63=4/22;
 3/5=7,6=11,7=10,11=2,16=1,25=1,30=1,74=-58,75=-5,82=7,107=250000000,108=250000000/1,2,3;
 4//1;
 5/5=2,38=5/2;
 6/7=2,8=2,9=2,10=2,18=1,28=1/1;
 1/53=5014,62=2,63=5/22;
 1/60=1,62=2/8(1);
 99/9=1/99;
 2/29=3/2;
 1/53=5173,62=2/22;
 3/5=7,6=11,7=10,11=2,16=1,25=1,30=1,74=-58,75=-5,82=7,107=250000000,108=250000000/1,2,3;
 4/5=5,16=3/1;
 5/5=2,38=5/2;
 1/53=4053,62=2,63=1/22;
 3/5=7,6=11,7=10,11=2,16=1,25=1,30=1,74=-58,75=-5,82=7,107=250000000,108=250000000/1,2,3;
 4/5=5,16=3/1;
 5/5=2,38=5/2;
 1/53=3043,62=2,63=2/22;
 3/5=7,6=11,7=10,11=2,16=1,25=1,30=1,74=-58,75=-5,82=7,107=250000000,108=250000000/1,2,3;
 4/5=5,16=3/1;
 5/5=2,38=5/2;
 1/53=2033,62=2,63=3/22;
 3/5=7,6=11,7=10,11=2,16=1,25=1,30=1,74=-58,75=-5,82=7,107=250000000,108=250000000/1,2,3;
 4/5=5,16=3/1;
 5/5=2,38=5/2;
 1/53=1024,62=2,63=4/22;
 3/5=7,6=11,7=10,11=2,16=1,25=1,30=1,74=-58,75=-5,82=7,107=250000000,108=250000000/1,2,3;
 4/5=5,16=3/1;
 5/5=2,38=5/2;
 1/53=5014,62=2,63=5/22;
 1/60=1,62=2/8(-22);
 99/9=1/99;
 Leave Link    1 at Sun May  3 17:03:21 2020, MaxMem= 1073741824 cpu:       0.2
 (Enter /home/matheus/.gaussian/g09/l101.exe)
 ---
 TCC
 ---
 Charge =  0 Multiplicity = 1 in supermolecule
 Charge =  0 Multiplicity = 1 in fragment  1.
 Charge =  0 Multiplicity = 1 in fragment  2.
 Symbolic Z-Matrix:
 O(Fragment=1)         0.        0.        0.725 
 O(Fragment=1)         0.        0.       -0.725 
 H(Fragment=1)         0.       -0.91872   1.02351 
 H(Fragment=1)         0.        0.91872  -1.02351 
 Kr(Fragment=2)        0.       R1        0. 
       Variables:
  R1                    3.     Scan 20    0.1    
 
 NAtoms=      5 NQM=        0 NQMF=       0 NMMI=      5 NMMIF=      0
                NMic=       0 NMicF=      0.
                    Isotopes and Nuclear Properties:
 (Nuclear quadrupole moments (NQMom) in fm**2, nuclear magnetic moments (NMagM)
  in nuclear magnetons)

  Atom         1           2           3           4           5
 IAtWgt=          16          16           1           1          84
 AtmWgt=  15.9949146  15.9949146   1.0078250   1.0078250  83.9115064
 NucSpn=           0           0           1           1           0
 AtZEff=   0.0000000   0.0000000   0.0000000   0.0000000   0.0000000
 NQMom=    0.0000000   0.0000000   0.0000000   0.0000000   0.0000000
 NMagM=    0.0000000   0.0000000   2.7928460   2.7928460   0.0000000
 Leave Link  101 at Sun May  3 17:03:21 2020, MaxMem= 1073741824 cpu:       0.3
 (Enter /home/matheus/.gaussian/g09/l108.exe)
 Scan the potential surface.
 Variable   Value     No. Steps Step-Size
 -------- ----------- --------- ---------
     1       3.000000      20      0.1000
 A total of     21 points will be computed.
 Leave Link  108 at Sun May  3 17:03:21 2020, MaxMem= 1073741824 cpu:       0.0
 (Enter /home/matheus/.gaussian/g09/l202.exe)
 ---------------------------------------------------------------------------------------------------
                            Z-MATRIX (ANGSTROMS AND DEGREES)
   CD    Cent   Atom    N1       Length/X        N2       Alpha/Y        N3        Beta/Z          J
 ---------------------------------------------------------------------------------------------------
      1      1  O        0   0.000000          0.000000          0.725000
      2      2  O        0   0.000000          0.000000         -0.725000
      3      3  H        0   0.000000         -0.918721          1.023510
      4      4  H        0   0.000000          0.918721         -1.023510
      5      5  Kr       0   0.000000          3.000000          0.000000
 ---------------------------------------------------------------------------------------------------
                         Z-Matrix orientation:                         
 ---------------------------------------------------------------------
 Center     Atomic      Atomic             Coordinates (Angstroms)
 Number     Number       Type             X           Y           Z
 ---------------------------------------------------------------------
      1          8           0        0.000000    0.000000    0.725000
      2          8           0        0.000000    0.000000   -0.725000
      3          1           0        0.000000   -0.918721    1.023510
      4          1           0        0.000000    0.918721   -1.023510
      5         36           0        0.000000    3.000000    0.000000
 ---------------------------------------------------------------------
                    Distance matrix (angstroms):
                    1          2          3          4          5
     1  O    0.000000
     2  O    1.450000   0.000000
     3  H    0.966000   1.975180   0.000000
     4  H    1.975180   0.966000   2.750724   0.000000
     5  Kr   3.086361   3.086361   4.050178   2.319331   0.000000
 Stoichiometry    H2KrO2
 Framework group  CS[SG(H2KrO2)]
 Deg. of freedom     7
 Full point group                 CS      NOp   2
 Largest Abelian subgroup         CS      NOp   2
 Largest concise Abelian subgroup C1      NOp   1
                         Standard orientation:                         
 ---------------------------------------------------------------------
 Center     Atomic      Atomic             Coordinates (Angstroms)
 Number     Number       Type             X           Y           Z
 ---------------------------------------------------------------------
      1          8           0        0.725000   -2.000000    0.000000
      2          8           0       -0.725000   -2.000000    0.000000
      3          1           0        1.023510   -2.918721    0.000000
      4          1           0       -1.023510   -1.081279    0.000000
      5         36           0        0.000000    1.000000    0.000000
 ---------------------------------------------------------------------
 Rotational constants (GHZ):     26.7279120      2.3023206      2.1197289
 Leave Link  202 at Sun May  3 17:03:21 2020, MaxMem= 1073741824 cpu:       0.0
 (Enter /home/matheus/.gaussian/g09/l122.exe)
 Leave Link  122 at Sun May  3 17:03:21 2020, MaxMem= 1073741824 cpu:       0.0
 (Enter /home/matheus/.gaussian/g09/l301.exe)
 Standard basis: Aug-CC-pVTZ (5D, 7F)
 Ernie: Thresh=  0.10000D-02 Tol=  0.10000D-05 Strict=F.
 Ernie:  38 primitive shells out of 205 were deleted.
 There are   131 symmetry adapted basis functions of A'  symmetry.
 There are    66 symmetry adapted basis functions of A"  symmetry.
 Integral buffers will be    131072 words long.
 Raffenetti 2 integral format.
 Two-electron integral symmetry is turned on.
   197 basis functions,   415 primitive gaussians,   229 cartesian basis functions
    27 alpha electrons       27 beta electrons
       nuclear repulsion energy       148.2769905491 Hartrees.
 IExCor= 4639 DFT=T Ex+Corr=wB97XD ExCW=0 ScaHFX=  1.000000
 ScaDFX=  1.000000  1.000000  1.000000  1.000000 ScalE2=  1.000000  1.000000
 IRadAn=      5 IRanWt=     -1 IRanGd=            0 ICorTp=0
  HFx wShort=  0.000000 wLong=  0.250000 cFull=  0.222036 cShort=  0.000000 cLong=  0.777964
  DFx wShort=  0.000000 wLong=  0.250000 cFull=  0.000000 cShort=  0.000000 cLong=  1.000000
 NAtoms=    5 NActive=    5 NUniq=    5 SFac= 1.00D+00 NAtFMM=   60 NAOKFM=F Big=F
 R6Disp: Dispersion energy =        -0.0007639909 Hartrees.
 Nuclear repulsion after empirical dispersion term =      148.2762265582 Hartrees.
 Leave Link  301 at Sun May  3 17:03:21 2020, MaxMem= 1073741824 cpu:       0.2
 (Enter /home/matheus/.gaussian/g09/l302.exe)
 NPDir=0 NMtPBC=     1 NCelOv=     1 NCel=       1 NClECP=     1 NCelD=      1
         NCelK=      1 NCelE2=     1 NClLst=     1 CellRange=     0.0.
 One-electron integrals computed using PRISM.
 NBasis=   197 RedAO= T  NBF=   131    66
 NBsUse=   197 1.00D-06 NBFU=   131    66
 Precomputing XC quadrature grid using
 IXCGrd= 2 IRadAn=           5 IRanWt=          -1 IRanGd=           0 AccXCQ= 0.00D+00.
 NRdTot=     427 NPtTot=      123814 NUsed=      126881 NTot=      126913
 NSgBfM=   229   229   229   229   229 NAtAll=     5     5.
 Leave Link  302 at Sun May  3 17:03:21 2020, MaxMem= 1073741824 cpu:       0.9
 (Enter /home/matheus/.gaussian/g09/l303.exe)
 DipDrv:  MaxL=1.
 Leave Link  303 at Sun May  3 17:03:21 2020, MaxMem= 1073741824 cpu:       0.2
 (Enter /home/matheus/.gaussian/g09/l401.exe)
 Harris functional with IExCor= 4639 diagonalized for initial guess.
 ExpMin= 2.53D-02 ExpMax= 1.17D+07 ExpMxC= 1.33D+04 IAcc=3 IRadAn=         5 AccDes= 0.00D+00
 HarFok:  IExCor= 4639 AccDes= 0.00D+00 IRadAn=         5 IDoV= 1
 ScaDFX=  1.000000  1.000000  1.000000  1.000000
 FoFCou: FMM=F IPFlag=           0 FMFlag=      100000 FMFlg1=           0
         NFxFlg=           0 DoJE=T BraDBF=F KetDBF=T FulRan=T
         Omega=  0.000000  0.000000  1.000000  0.000000  0.000000 ICntrl=     500 IOpCl=  0
         NMat0=    1 NMatS0=    1 NMatT0=    0 NMatD0=    1 NMtDS0=    0 NMtDT0=    0
         I1Cent=           4 NGrid=           0.
 Petite list used in FoFCou.
 Harris En= -2875.39312900961    
 Initial guess orbital symmetries:
       Occupied  (A') (A') (A') (A') (A") (A') (A') (A') (A') (A')
                 (A") (A') (A') (A") (A') (A") (A') (A') (A') (A')
                 (A') (A") (A') (A") (A') (A') (A")
       Virtual   (A') (A') (A') (A") (A') (A') (A') (A') (A") (A')
                 (A") (A') (A') (A") (A') (A') (A") (A') (A') (A')
                 (A") (A') (A') (A") (A') (A') (A') (A') (A") (A')
                 (A') (A') (A") (A') (A") (A') (A") (A') (A") (A')
                 (A") (A') (A') (A') (A") (A') (A') (A") (A") (A')
                 (A') (A') (A") (A') (A") (A") (A') (A') (A') (A')
                 (A") (A') (A") (A') (A") (A') (A') (A') (A") (A')
                 (A') (A") (A") (A') (A') (A') (A') (A") (A') (A')
                 (A") (A') (A') (A") (A") (A') (A') (A") (A') (A")
                 (A') (A') (A") (A') (A') (A') (A") (A") (A') (A")
                 (A') (A') (A") (A") (A') (A') (A") (A') (A") (A')
                 (A') (A") (A') (A') (A') (A') (A') (A") (A') (A')
                 (A') (A") (A") (A') (A") (A") (A') (A") (A') (A")
                 (A') (A') (A') (A') (A') (A') (A') (A') (A") (A")
                 (A') (A') (A') (A") (A') (A') (A") (A') (A") (A')
                 (A") (A") (A') (A") (A") (A") (A") (A') (A') (A')
                 (A') (A") (A') (A') (A') (A') (A') (A') (A') (A')
 The electronic state of the initial guess is 1-A'.
 Leave Link  401 at Sun May  3 17:03:22 2020, MaxMem= 1073741824 cpu:       2.7
 (Enter /home/matheus/.gaussian/g09/l502.exe)
 Closed shell SCF:
 Requested convergence on RMS density matrix=1.00D-08 within 128 cycles.
 Requested convergence on MAX density matrix=1.00D-06.
 Requested convergence on             energy=1.00D-06.
 No special actions if energy rises.
 Using DIIS extrapolation, IDIIS=  1040.
 Integral symmetry usage will be decided dynamically.
       126823 words used for storage of precomputed grid.
 IEnd=      305835 IEndB=      305835 NGot=  1073741824 MDV=  1073505300
 LenX=  1073505300 LenY=  1073452418
 Fock matrices will be formed incrementally for  20 cycles.

 Cycle   1  Pass 1  IDiag  1:
 FoFJK:  IHMeth= 1 ICntrl=     0 DoSepK=T KAlg= 1 I1Cent= 0 FoldK=F
 FoFCou: FMM=F IPFlag=           0 FMFlag=      100000 FMFlg1=           0
         NFxFlg=           0 DoJE=T BraDBF=F KetDBF=F FulRan=T
         Omega=  0.000000  0.000000  1.000000  0.000000  0.000000 ICntrl=     500 IOpCl=  0
         NMat0=    1 NMatS0=    1 NMatT0=    0 NMatD0=    1 NMtDS0=    0 NMtDT0=    0
         I1Cent=           0 NGrid=           0.
 Petite list used in FoFCou.
 E= -2904.90104252757    
 DIIS: error= 7.72D-02 at cycle   1 NSaved=   1.
 NSaved= 1 IEnMin= 1 EnMin= -2904.90104252757     IErMin= 1 ErrMin= 7.72D-02
 ErrMax= 7.72D-02 EMaxC= 1.00D-01 BMatC= 2.21D+00 BMatP= 2.21D+00
 IDIUse=3 WtCom= 2.28D-01 WtEn= 7.72D-01
 Coeff-Com:  0.100D+01
 Coeff-En:   0.100D+01
 Coeff:      0.100D+01
 Gap=     0.528 Goal=   None    Shift=    0.000
 GapD=    0.528 DampG=2.000 DampE=0.500 DampFc=1.0000 IDamp=-1.
 RMSDP=6.18D-03 MaxDP=3.67D-01              OVMax= 1.78D-01

 Cycle   2  Pass 1  IDiag  1:
 RMSU=  4.34D-03    CP:  1.03D+00
 FoFJK:  IHMeth= 1 ICntrl=     0 DoSepK=T KAlg= 1 I1Cent= 0 FoldK=F
 E= -2905.22013178195     Delta-E=       -0.319089254384 Rises=F Damp=F
 DIIS: error= 3.80D-02 at cycle   2 NSaved=   2.
 NSaved= 2 IEnMin= 2 EnMin= -2905.22013178195     IErMin= 2 ErrMin= 3.80D-02
 ErrMax= 3.80D-02 EMaxC= 1.00D-01 BMatC= 5.65D-01 BMatP= 2.21D+00
 IDIUse=3 WtCom= 6.20D-01 WtEn= 3.80D-01
 Coeff-Com:  0.328D+00 0.672D+00
 Coeff-En:   0.199D+00 0.801D+00
 Coeff:      0.279D+00 0.721D+00
 Gap=     0.434 Goal=   None    Shift=    0.000
 RMSDP=2.72D-03 MaxDP=1.59D-01 DE=-3.19D-01 OVMax= 7.45D-02

 Cycle   3  Pass 1  IDiag  1:
 RMSU=  5.84D-04    CP:  1.02D+00  5.80D-01
 FoFJK:  IHMeth= 1 ICntrl=     0 DoSepK=T KAlg= 1 I1Cent= 0 FoldK=F
 E= -2905.41330898515     Delta-E=       -0.193177203201 Rises=F Damp=F
 DIIS: error= 7.92D-03 at cycle   3 NSaved=   3.
 NSaved= 3 IEnMin= 3 EnMin= -2905.41330898515     IErMin= 3 ErrMin= 7.92D-03
 ErrMax= 7.92D-03 EMaxC= 1.00D-01 BMatC= 2.09D-02 BMatP= 5.65D-01
 IDIUse=3 WtCom= 9.21D-01 WtEn= 7.92D-02
 Coeff-Com:  0.320D-01 0.195D+00 0.773D+00
 Coeff-En:   0.000D+00 0.000D+00 0.100D+01
 Coeff:      0.295D-01 0.180D+00 0.791D+00
 Gap=     0.420 Goal=   None    Shift=    0.000
 RMSDP=5.02D-04 MaxDP=1.84D-02 DE=-1.93D-01 OVMax= 2.70D-02

 Cycle   4  Pass 1  IDiag  1:
 RMSU=  2.31D-04    CP:  1.02D+00  6.40D-01  8.98D-01
 FoFJK:  IHMeth= 1 ICntrl=     0 DoSepK=T KAlg= 1 I1Cent= 0 FoldK=F
 E= -2905.42261263017     Delta-E=       -0.009303645020 Rises=F Damp=F
 DIIS: error= 2.92D-03 at cycle   4 NSaved=   4.
 NSaved= 4 IEnMin= 4 EnMin= -2905.42261263017     IErMin= 4 ErrMin= 2.92D-03
 ErrMax= 2.92D-03 EMaxC= 1.00D-01 BMatC= 1.78D-03 BMatP= 2.09D-02
 IDIUse=3 WtCom= 9.71D-01 WtEn= 2.92D-02
 Coeff-Com: -0.260D-02 0.518D-01 0.370D+00 0.581D+00
 Coeff-En:   0.000D+00 0.000D+00 0.000D+00 0.100D+01
 Coeff:     -0.253D-02 0.503D-01 0.359D+00 0.593D+00
 Gap=     0.405 Goal=   None    Shift=    0.000
 RMSDP=1.14D-04 MaxDP=6.30D-03 DE=-9.30D-03 OVMax= 7.07D-03

 Cycle   5  Pass 1  IDiag  1:
 RMSU=  4.13D-05    CP:  1.02D+00  6.39D-01  9.45D-01  7.27D-01
 FoFJK:  IHMeth= 1 ICntrl=     0 DoSepK=T KAlg= 1 I1Cent= 0 FoldK=F
 E= -2905.42368490052     Delta-E=       -0.001072270341 Rises=F Damp=F
 DIIS: error= 3.12D-04 at cycle   5 NSaved=   5.
 NSaved= 5 IEnMin= 5 EnMin= -2905.42368490052     IErMin= 5 ErrMin= 3.12D-04
 ErrMax= 3.12D-04 EMaxC= 1.00D-01 BMatC= 2.76D-05 BMatP= 1.78D-03
 IDIUse=3 WtCom= 9.97D-01 WtEn= 3.12D-03
 Coeff-Com: -0.157D-02 0.120D-01 0.104D+00 0.192D+00 0.694D+00
 Coeff-En:   0.000D+00 0.000D+00 0.000D+00 0.000D+00 0.100D+01
 Coeff:     -0.156D-02 0.120D-01 0.104D+00 0.191D+00 0.695D+00
 Gap=     0.404 Goal=   None    Shift=    0.000
 RMSDP=2.41D-05 MaxDP=9.46D-04 DE=-1.07D-03 OVMax= 1.72D-03

 Cycle   6  Pass 1  IDiag  1:
 RMSU=  1.51D-05    CP:  1.02D+00  6.39D-01  9.53D-01  7.53D-01  1.07D+00
 FoFJK:  IHMeth= 1 ICntrl=     0 DoSepK=T KAlg= 1 I1Cent= 0 FoldK=F
 E= -2905.42369946226     Delta-E=       -0.000014561749 Rises=F Damp=F
 DIIS: error= 1.86D-04 at cycle   6 NSaved=   6.
 NSaved= 6 IEnMin= 6 EnMin= -2905.42369946226     IErMin= 6 ErrMin= 1.86D-04
 ErrMax= 1.86D-04 EMaxC= 1.00D-01 BMatC= 1.04D-05 BMatP= 2.76D-05
 IDIUse=3 WtCom= 9.98D-01 WtEn= 1.86D-03
 Coeff-Com: -0.226D-03-0.673D-02-0.357D-01-0.459D-01 0.386D+00 0.702D+00
 Coeff-En:   0.000D+00 0.000D+00 0.000D+00 0.000D+00 0.178D+00 0.822D+00
 Coeff:     -0.226D-03-0.672D-02-0.356D-01-0.458D-01 0.386D+00 0.702D+00
 Gap=     0.404 Goal=   None    Shift=    0.000
 RMSDP=1.36D-05 MaxDP=4.51D-04 DE=-1.46D-05 OVMax= 7.94D-04

 Cycle   7  Pass 1  IDiag  1:
 RMSU=  3.71D-06    CP:  1.02D+00  6.39D-01  9.60D-01  7.66D-01  1.23D+00
                    CP:  8.78D-01
 FoFJK:  IHMeth= 1 ICntrl=     0 DoSepK=T KAlg= 1 I1Cent= 0 FoldK=F
 E= -2905.42370708368     Delta-E=       -0.000007621414 Rises=F Damp=F
 DIIS: error= 1.84D-05 at cycle   7 NSaved=   7.
 NSaved= 7 IEnMin= 7 EnMin= -2905.42370708368     IErMin= 7 ErrMin= 1.84D-05
 ErrMax= 1.84D-05 EMaxC= 1.00D-01 BMatC= 4.95D-08 BMatP= 1.04D-05
 IDIUse=1 WtCom= 1.00D+00 WtEn= 0.00D+00
 Coeff-Com:  0.407D-04-0.660D-03-0.484D-02-0.722D-02-0.238D-01 0.128D-01
 Coeff-Com:  0.102D+01
 Coeff:      0.407D-04-0.660D-03-0.484D-02-0.722D-02-0.238D-01 0.128D-01
 Coeff:      0.102D+01
 Gap=     0.404 Goal=   None    Shift=    0.000
 RMSDP=2.89D-06 MaxDP=1.24D-04 DE=-7.62D-06 OVMax= 1.99D-04

 Cycle   8  Pass 1  IDiag  1:
 RMSU=  7.92D-07    CP:  1.02D+00  6.39D-01  9.61D-01  7.69D-01  1.26D+00
                    CP:  9.35D-01  1.21D+00
 FoFJK:  IHMeth= 1 ICntrl=     0 DoSepK=T KAlg= 1 I1Cent= 0 FoldK=F
 E= -2905.42370720325     Delta-E=       -0.000000119574 Rises=F Damp=F
 DIIS: error= 2.96D-06 at cycle   8 NSaved=   8.
 NSaved= 8 IEnMin= 8 EnMin= -2905.42370720325     IErMin= 8 ErrMin= 2.96D-06
 ErrMax= 2.96D-06 EMaxC= 1.00D-01 BMatC= 2.56D-09 BMatP= 4.95D-08
 IDIUse=1 WtCom= 1.00D+00 WtEn= 0.00D+00
 Coeff-Com:  0.879D-05 0.184D-03 0.932D-03 0.780D-03-0.158D-01-0.248D-01
 Coeff-Com:  0.382D-01 0.100D+01
 Coeff:      0.879D-05 0.184D-03 0.932D-03 0.780D-03-0.158D-01-0.248D-01
 Coeff:      0.382D-01 0.100D+01
 Gap=     0.404 Goal=   None    Shift=    0.000
 RMSDP=5.76D-07 MaxDP=2.35D-05 DE=-1.20D-07 OVMax= 4.26D-05

 Cycle   9  Pass 1  IDiag  1:
 RMSU=  1.66D-07    CP:  1.02D+00  6.39D-01  9.62D-01  7.69D-01  1.26D+00
                    CP:  9.45D-01  1.27D+00  1.21D+00
 FoFJK:  IHMeth= 1 ICntrl=     0 DoSepK=T KAlg= 1 I1Cent= 0 FoldK=F
 E= -2905.42370720931     Delta-E=       -0.000000006060 Rises=F Damp=F
 DIIS: error= 1.00D-06 at cycle   9 NSaved=   9.
 NSaved= 9 IEnMin= 9 EnMin= -2905.42370720931     IErMin= 9 ErrMin= 1.00D-06
 ErrMax= 1.00D-06 EMaxC= 1.00D-01 BMatC= 2.18D-10 BMatP= 2.56D-09
 IDIUse=1 WtCom= 1.00D+00 WtEn= 0.00D+00
 Coeff-Com: -0.166D-05 0.632D-04 0.413D-03 0.429D-03 0.544D-04-0.257D-02
 Coeff-Com: -0.633D-01 0.951D-01 0.970D+00
 Coeff:     -0.166D-05 0.632D-04 0.413D-03 0.429D-03 0.544D-04-0.257D-02
 Coeff:     -0.633D-01 0.951D-01 0.970D+00
 Gap=     0.404 Goal=   None    Shift=    0.000
 RMSDP=1.24D-07 MaxDP=3.78D-06 DE=-6.06D-09 OVMax= 1.01D-05

 Cycle  10  Pass 1  IDiag  1:
 RMSU=  4.61D-08    CP:  1.02D+00  6.39D-01  9.62D-01  7.69D-01  1.26D+00
                    CP:  9.47D-01  1.28D+00  1.27D+00  1.17D+00
 FoFJK:  IHMeth= 1 ICntrl=     0 DoSepK=T KAlg= 1 I1Cent= 0 FoldK=F
 E= -2905.42370720974     Delta-E=       -0.000000000432 Rises=F Damp=F
 DIIS: error= 1.85D-07 at cycle  10 NSaved=  10.
 NSaved=10 IEnMin=10 EnMin= -2905.42370720974     IErMin=10 ErrMin= 1.85D-07
 ErrMax= 1.85D-07 EMaxC= 1.00D-01 BMatC= 9.69D-12 BMatP= 2.18D-10
 IDIUse=1 WtCom= 1.00D+00 WtEn= 0.00D+00
 Coeff-Com: -0.242D-06-0.427D-05-0.227D-04 0.987D-06 0.971D-03 0.135D-02
 Coeff-Com: -0.473D-02-0.596D-01 0.529D-01 0.101D+01
 Coeff:     -0.242D-06-0.427D-05-0.227D-04 0.987D-06 0.971D-03 0.135D-02
 Coeff:     -0.473D-02-0.596D-01 0.529D-01 0.101D+01
 Gap=     0.404 Goal=   None    Shift=    0.000
 RMSDP=2.87D-08 MaxDP=7.11D-07 DE=-4.32D-10 OVMax= 2.73D-06

 Cycle  11  Pass 1  IDiag  1:
 RMSU=  1.00D-08    CP:  1.02D+00  6.39D-01  9.62D-01  7.69D-01  1.26D+00
                    CP:  9.47D-01  1.28D+00  1.28D+00  1.24D+00  1.18D+00
 FoFJK:  IHMeth= 1 ICntrl=     0 DoSepK=T KAlg= 1 I1Cent= 0 FoldK=F
 E= -2905.42370720977     Delta-E=       -0.000000000029 Rises=F Damp=F
 DIIS: error= 6.03D-08 at cycle  11 NSaved=  11.
 NSaved=11 IEnMin=11 EnMin= -2905.42370720977     IErMin=11 ErrMin= 6.03D-08
 ErrMax= 6.03D-08 EMaxC= 1.00D-01 BMatC= 5.13D-13 BMatP= 9.69D-12
 IDIUse=1 WtCom= 1.00D+00 WtEn= 0.00D+00
 Coeff-Com:  0.140D-06-0.194D-05-0.144D-04-0.329D-05-0.349D-04 0.161D-04
 Coeff-Com:  0.249D-02-0.301D-02-0.343D-01-0.120D-01 0.105D+01
 Coeff:      0.140D-06-0.194D-05-0.144D-04-0.329D-05-0.349D-04 0.161D-04
 Coeff:      0.249D-02-0.301D-02-0.343D-01-0.120D-01 0.105D+01
 Gap=     0.404 Goal=   None    Shift=    0.000
 RMSDP=6.44D-09 MaxDP=1.71D-07 DE=-2.91D-11 OVMax= 5.37D-07

 SCF Done:  E(RwB97XD) =  -2905.42370721     A.U. after   11 cycles
             Convg  =    0.6437D-08             -V/T =  2.0016
 KE= 2.900926405323D+03 PE=-7.234921511724D+03 EE= 1.280295172633D+03
 Leave Link  502 at Sun May  3 17:03:55 2020, MaxMem= 1073741824 cpu:     269.6
 (Enter /home/matheus/.gaussian/g09/l601.exe)
 Copying SCF densities to generalized density rwf, IOpCl= 0 IROHF=0.

 **********************************************************************

            Population analysis using the SCF density.

 **********************************************************************

 Orbital symmetries:
       Occupied  (A') (A') (A') (A") (A') (A') (A') (A') (A') (A")
                 (A') (A') (A") (A') (A") (A') (A') (A') (A') (A')
                 (A') (A") (A') (A") (A') (A') (A")
       Virtual   (A') (A') (A') (A') (A") (A') (A') (A') (A") (A')
                 (A') (A") (A') (A') (A") (A') (A") (A') (A') (A')
                 (A') (A") (A') (A") (A') (A') (A') (A') (A") (A')
                 (A') (A') (A") (A') (A") (A') (A") (A') (A") (A')
                 (A") (A') (A') (A') (A") (A') (A') (A") (A") (A')
                 (A') (A') (A") (A') (A") (A') (A") (A') (A') (A')
                 (A") (A') (A") (A') (A") (A') (A') (A') (A") (A')
                 (A') (A") (A") (A') (A') (A') (A') (A") (A') (A')
                 (A') (A") (A') (A") (A") (A") (A') (A') (A') (A")
                 (A') (A') (A") (A') (A') (A") (A') (A') (A") (A")
                 (A') (A') (A") (A') (A") (A') (A") (A') (A') (A")
                 (A') (A") (A') (A') (A') (A') (A') (A") (A') (A')
                 (A') (A") (A") (A') (A") (A") (A') (A") (A') (A")
                 (A') (A') (A') (A') (A') (A') (A') (A') (A") (A")
                 (A') (A') (A') (A") (A') (A') (A") (A') (A") (A')
                 (A") (A') (A") (A") (A") (A") (A") (A') (A') (A')
                 (A') (A") (A') (A') (A') (A') (A') (A') (A') (A')
 The electronic state is 1-A'.
 Alpha  occ. eigenvalues -- -513.08934 -67.35760 -60.90641 -60.90626 -60.90620
 Alpha  occ. eigenvalues --  -19.33675 -19.33264  -9.81086  -7.50424  -7.50376
 Alpha  occ. eigenvalues --   -7.50355  -3.37104  -3.37094  -3.37078  -3.37039
 Alpha  occ. eigenvalues --   -3.37038  -1.24240  -1.03270  -1.01743  -0.64834
 Alpha  occ. eigenvalues --   -0.61729  -0.51844  -0.49799  -0.48996  -0.48593
 Alpha  occ. eigenvalues --   -0.45549  -0.36691
 Alpha virt. eigenvalues --    0.03677   0.04341   0.08121   0.10150   0.10811
 Alpha virt. eigenvalues --    0.11680   0.13587   0.14445   0.17262   0.17342
 Alpha virt. eigenvalues --    0.18675   0.19543   0.20718   0.23283   0.23631
 Alpha virt. eigenvalues --    0.24611   0.26833   0.28304   0.30180   0.33729
 Alpha virt. eigenvalues --    0.34249   0.34509   0.36673   0.38792   0.39711
 Alpha virt. eigenvalues --    0.40465   0.42922   0.48269   0.51592   0.54197
 Alpha virt. eigenvalues --    0.56579   0.59156   0.64000   0.64902   0.68149
 Alpha virt. eigenvalues --    0.70467   0.71008   0.72911   0.74009   0.75256
 Alpha virt. eigenvalues --    0.75693   0.75907   0.77735   0.79322   0.79799
 Alpha virt. eigenvalues --    0.81596   0.85056   0.86642   0.88309   0.89932
 Alpha virt. eigenvalues --    0.90943   0.93360   0.95327   0.97901   0.98763
 Alpha virt. eigenvalues --    1.02418   1.03484   1.04270   1.05199   1.07416
 Alpha virt. eigenvalues --    1.11400   1.12756   1.14753   1.17959   1.18626
 Alpha virt. eigenvalues --    1.26121   1.30584   1.34743   1.39426   1.40422
 Alpha virt. eigenvalues --    1.49227   1.50958   1.53071   1.55022   1.56826
 Alpha virt. eigenvalues --    1.61043   1.77328   1.78389   1.84953   1.93291
 Alpha virt. eigenvalues --    1.97758   1.98182   2.03918   2.12377   2.14268
 Alpha virt. eigenvalues --    2.14936   2.15451   2.16613   2.19160   2.25927
 Alpha virt. eigenvalues --    2.26343   2.28033   2.29904   2.32678   2.34202
 Alpha virt. eigenvalues --    2.36838   2.38684   2.43729   2.45118   2.47405
 Alpha virt. eigenvalues --    2.47661   2.48678   2.50715   2.55187   2.57280
 Alpha virt. eigenvalues --    2.58297   2.61131   2.64946   2.68147   2.69068
 Alpha virt. eigenvalues --    2.70094   2.74165   2.74367   2.78252   2.88519
 Alpha virt. eigenvalues --    2.96071   3.06970   3.08446   3.14836   3.50797
 Alpha virt. eigenvalues --    3.75440   3.82636   3.89623   4.04967   4.06123
 Alpha virt. eigenvalues --    4.10771   4.13760   4.20651   4.22871   4.26953
 Alpha virt. eigenvalues --    4.36598   4.41823   4.52403   4.54590   4.73289
 Alpha virt. eigenvalues --    4.88738   5.01989   5.03118   5.06371   5.08371
 Alpha virt. eigenvalues --    5.37013   5.44236   5.82873   5.96933   6.08865
 Alpha virt. eigenvalues --    6.13839   6.29197   6.36391   6.44603   6.45949
 Alpha virt. eigenvalues --    6.70195   6.71972   6.73451   6.80297   6.86010
 Alpha virt. eigenvalues --    6.89592   6.92408   6.94285   6.94697   6.97504
 Alpha virt. eigenvalues --    7.01016   7.21633   7.24910   7.38965   7.61597
 Alpha virt. eigenvalues --    7.83956   8.12365   8.14960  14.17191  14.59464
          Condensed to atoms (all electrons):
              1          2          3          4          5
     1  O    8.160874  -0.152146   0.192819   0.005007  -0.028844
     2  O   -0.152146   8.221336   0.005829   0.220058  -0.017642
     3  H    0.192819   0.005829   0.601640   0.002955   0.002717
     4  H    0.005007   0.220058   0.002955   0.524552  -0.003731
     5  Kr  -0.028844  -0.017642   0.002717  -0.003731  36.037553
 Mulliken atomic charges:
              1
     1  O   -0.177710
     2  O   -0.277435
     3  H    0.194040
     4  H    0.251159
     5  Kr   0.009947
 Sum of Mulliken atomic charges =   0.00000
 Mulliken charges with hydrogens summed into heavy atoms:
              1
     1  O    0.016330
     2  O   -0.026277
     5  Kr   0.009947
 Sum of Mulliken charges with hydrogens summed into heavy atoms =   0.00000
          Condensed to fragments (all electrons):
     1      -0.009947
     2       0.009947
 Electronic spatial extent (au):  <R**2>=            492.5171
 Charge=              0.0000 electrons
 Dipole moment (field-independent basis, Debye):
    X=              0.2808    Y=              0.1802    Z=              0.0000  Tot=              0.3337
 Quadrupole moment (field-independent basis, Debye-Ang):
   XX=            -28.2166   YY=            -26.2304   ZZ=            -30.6927
   XY=             -3.9100   XZ=              0.0000   YZ=              0.0000
 Traceless Quadrupole moment (field-independent basis, Debye-Ang):
   XX=              0.1633   YY=              2.1495   ZZ=             -2.3128
   XY=             -3.9100   XZ=              0.0000   YZ=              0.0000
 Octapole moment (field-independent basis, Debye-Ang**2):
  XXX=              0.3911  YYY=             -0.2709  ZZZ=              0.0000  XYY=             16.7109
  XXY=              3.6931  XXZ=              0.0000  XZZ=              0.1336  YZZ=              8.7515
  YYZ=              0.0000  XYZ=              0.0000
 Hexadecapole moment (field-independent basis, Debye-Ang**3):
 XXXX=            -63.7227 YYYY=           -341.5002 ZZZZ=            -29.6783 XXXY=             -2.5166
 XXXZ=              0.0000 YYYX=            -50.3457 YYYZ=              0.0000 ZZZX=              0.0000
 ZZZY=              0.0000 XXYY=            -73.2535 XXZZ=            -17.5990 YYZZ=            -80.4726
 XXYZ=              0.0000 YYXZ=              0.0000 ZZXY=              0.8633
 N-N= 1.482762265582D+02 E-N=-7.234921512953D+03  KE= 2.900926405323D+03
 Symmetry A'   KE= 2.485159292916D+03
 Symmetry A"   KE= 4.157671124072D+02
 No NMR shielding tensors so no spin-rotation constants.
 Leave Link  601 at Sun May  3 17:03:55 2020, MaxMem= 1073741824 cpu:       0.9
 (Enter /home/matheus/.gaussian/g09/l122.exe)
 Counterpoise: doing DCBS calculation for fragment   1 NewBq=T
 Leave Link  122 at Sun May  3 17:03:56 2020, MaxMem= 1073741824 cpu:       0.0
 (Enter /home/matheus/.gaussian/g09/l301.exe)
 Basis read from rwf:  (5D, 7F)
 No pseudopotential information found on rwf file.
 There are   131 symmetry adapted basis functions of A'  symmetry.
 There are    66 symmetry adapted basis functions of A"  symmetry.
 Integral buffers will be    131072 words long.
 Raffenetti 2 integral format.
 Two-electron integral symmetry is turned on.
   197 basis functions,   415 primitive gaussians,   229 cartesian basis functions
     9 alpha electrons        9 beta electrons
       nuclear repulsion energy        36.6006188945 Hartrees.
 IExCor= 4639 DFT=T Ex+Corr=wB97XD ExCW=0 ScaHFX=  1.000000
 ScaDFX=  1.000000  1.000000  1.000000  1.000000 ScalE2=  1.000000  1.000000
 IRadAn=      5 IRanWt=     -1 IRanGd=            0 ICorTp=0
  HFx wShort=  0.000000 wLong=  0.250000 cFull=  0.222036 cShort=  0.000000 cLong=  0.777964
  DFx wShort=  0.000000 wLong=  0.250000 cFull=  0.000000 cShort=  0.000000 cLong=  1.000000
 NAtoms=    5 NActive=    5 NUniq=    5 SFac= 1.00D+00 NAtFMM=   60 NAOKFM=F Big=F
 R6Disp: Dispersion energy =        -0.0001972383 Hartrees.
 Nuclear repulsion after empirical dispersion term =       36.6004216562 Hartrees.
 No density basis found on file   718.
 Leave Link  301 at Sun May  3 17:03:56 2020, MaxMem= 1073741824 cpu:       0.2
 (Enter /home/matheus/.gaussian/g09/l302.exe)
 NPDir=0 NMtPBC=     1 NCelOv=     1 NCel=       1 NClECP=     1 NCelD=      1
         NCelK=      1 NCelE2=     1 NClLst=     1 CellRange=     0.0.
 One-electron integrals computed using PRISM.
 NBasis=   197 RedAO= T  NBF=   131    66
 NBsUse=   197 1.00D-06 NBFU=   131    66
 Precomputing XC quadrature grid using
 IXCGrd= 2 IRadAn=           5 IRanWt=          -1 IRanGd=           0 AccXCQ= 0.00D+00.
 NRdTot=     427 NPtTot=      123814 NUsed=      126881 NTot=      126913
 NSgBfM=   229   229   229   229   229 NAtAll=     5     5.
 Leave Link  302 at Sun May  3 17:03:56 2020, MaxMem= 1073741824 cpu:       0.9
 (Enter /home/matheus/.gaussian/g09/l303.exe)
 DipDrv:  MaxL=1.
 Leave Link  303 at Sun May  3 17:03:56 2020, MaxMem= 1073741824 cpu:       0.2
 (Enter /home/matheus/.gaussian/g09/l401.exe)
 Harris functional with IExCor= 4639 diagonalized for initial guess.
 ExpMin= 2.53D-02 ExpMax= 1.17D+07 ExpMxC= 1.33D+04 IAcc=3 IRadAn=         5 AccDes= 0.00D+00
 HarFok:  IExCor= 4639 AccDes= 0.00D+00 IRadAn=         5 IDoV= 1
 ScaDFX=  1.000000  1.000000  1.000000  1.000000
 FoFCou: FMM=F IPFlag=           0 FMFlag=      100000 FMFlg1=           0
         NFxFlg=           0 DoJE=T BraDBF=F KetDBF=T FulRan=T
         Omega=  0.000000  0.000000  1.000000  0.000000  0.000000 ICntrl=     500 IOpCl=  0
         NMat0=    1 NMatS0=    1 NMatT0=    0 NMatD0=    1 NMtDS0=    0 NMtDT0=    0
         I1Cent=           4 NGrid=           0.
 Petite list used in FoFCou.
 Harris En= -145.942444644248    
 Initial guess orbital symmetries:
       Occupied  (A') (A') (A') (A') (A') (A') (A") (A') (A")
       Virtual   (A') (A') (A') (A") (A') (A') (A') (A') (A") (A')
                 (A") (A') (A') (A') (A") (A') (A') (A') (A") (A')
                 (A') (A") (A') (A') (A') (A') (A") (A') (A") (A')
                 (A') (A') (A') (A") (A") (A') (A') (A") (A') (A")
                 (A') (A') (A") (A') (A") (A') (A') (A") (A') (A')
                 (A') (A") (A') (A') (A') (A") (A") (A") (A') (A')
                 (A') (A") (A') (A') (A") (A') (A') (A") (A") (A')
                 (A') (A') (A") (A') (A") (A') (A') (A") (A') (A")
                 (A') (A') (A') (A') (A") (A') (A') (A") (A") (A')
                 (A') (A") (A') (A') (A') (A") (A') (A") (A') (A')
                 (A") (A") (A') (A') (A') (A') (A") (A') (A") (A')
                 (A') (A') (A') (A') (A") (A") (A') (A") (A') (A")
                 (A") (A") (A') (A') (A') (A") (A") (A') (A') (A")
                 (A') (A') (A") (A") (A') (A') (A') (A') (A') (A')
                 (A') (A') (A") (A") (A') (A') (A') (A") (A') (A')
                 (A") (A') (A") (A') (A") (A") (A') (A") (A") (A")
                 (A") (A') (A') (A') (A') (A") (A') (A') (A') (A')
                 (A') (A') (A') (A') (A') (A") (A') (A') (A") (A')
                 (A") (A') (A') (A') (A") (A') (A') (A')
 The electronic state of the initial guess is 1-A'.
 Leave Link  401 at Sun May  3 17:03:56 2020, MaxMem= 1073741824 cpu:       2.8
 (Enter /home/matheus/.gaussian/g09/l502.exe)
 Closed shell SCF:
 Requested convergence on RMS density matrix=1.00D-08 within 128 cycles.
 Requested convergence on MAX density matrix=1.00D-06.
 Requested convergence on             energy=1.00D-06.
 No special actions if energy rises.
 Using DIIS extrapolation, IDIIS=  1040.
 Integral symmetry usage will be decided dynamically.
       126823 words used for storage of precomputed grid.
 IEnd=      305835 IEndB=      305835 NGot=  1073741824 MDV=  1073505300
 LenX=  1073505300 LenY=  1073452418
 Fock matrices will be formed incrementally for  20 cycles.

 Cycle   1  Pass 1  IDiag  1:
 FoFJK:  IHMeth= 1 ICntrl=     0 DoSepK=T KAlg= 1 I1Cent= 0 FoldK=F
 FoFCou: FMM=F IPFlag=           0 FMFlag=      100000 FMFlg1=           0
         NFxFlg=           0 DoJE=T BraDBF=F KetDBF=F FulRan=T
         Omega=  0.000000  0.000000  1.000000  0.000000  0.000000 ICntrl=     500 IOpCl=  0
         NMat0=    1 NMatS0=    1 NMatT0=    0 NMatD0=    1 NMtDS0=    0 NMtDT0=    0
         I1Cent=           0 NGrid=           0.
 Petite list used in FoFCou.
 E= -151.459477084679    
 DIIS: error= 3.53D-02 at cycle   1 NSaved=   1.
 NSaved= 1 IEnMin= 1 EnMin= -151.459477084679     IErMin= 1 ErrMin= 3.53D-02
 ErrMax= 3.53D-02 EMaxC= 1.00D-01 BMatC= 3.18D-01 BMatP= 3.18D-01
 IDIUse=3 WtCom= 6.47D-01 WtEn= 3.53D-01
 Coeff-Com:  0.100D+01
 Coeff-En:   0.100D+01
 Coeff:      0.100D+01
 Gap=     0.527 Goal=   None    Shift=    0.000
 GapD=    0.527 DampG=2.000 DampE=0.500 DampFc=1.0000 IDamp=-1.
 RMSDP=2.35D-03 MaxDP=9.12D-02              OVMax= 1.24D-01

 Cycle   2  Pass 1  IDiag  1:
 RMSU=  1.64D-03    CP:  9.59D-01
 FoFJK:  IHMeth= 1 ICntrl=     0 DoSepK=T KAlg= 1 I1Cent= 0 FoldK=F
 E= -151.497751623977     Delta-E=       -0.038274539299 Rises=F Damp=F
 DIIS: error= 1.93D-02 at cycle   2 NSaved=   2.
 NSaved= 2 IEnMin= 2 EnMin= -151.497751623977     IErMin= 2 ErrMin= 1.93D-02
 ErrMax= 1.93D-02 EMaxC= 1.00D-01 BMatC= 1.01D-01 BMatP= 3.18D-01
 IDIUse=3 WtCom= 8.07D-01 WtEn= 1.93D-01
 Coeff-Com:  0.340D+00 0.660D+00
 Coeff-En:   0.348D+00 0.652D+00
 Coeff:      0.342D+00 0.658D+00
 Gap=     0.435 Goal=   None    Shift=    0.000
 RMSDP=9.62D-04 MaxDP=4.59D-02 DE=-3.83D-02 OVMax= 5.95D-02

 Cycle   3  Pass 1  IDiag  1:
 RMSU=  3.78D-04    CP:  9.77D-01  6.63D-01
 FoFJK:  IHMeth= 1 ICntrl=     0 DoSepK=T KAlg= 1 I1Cent= 0 FoldK=F
 E= -151.553352456433     Delta-E=       -0.055600832456 Rises=F Damp=F
 DIIS: error= 4.82D-03 at cycle   3 NSaved=   3.
 NSaved= 3 IEnMin= 3 EnMin= -151.553352456433     IErMin= 3 ErrMin= 4.82D-03
 ErrMax= 4.82D-03 EMaxC= 1.00D-01 BMatC= 5.30D-03 BMatP= 1.01D-01
 IDIUse=3 WtCom= 9.52D-01 WtEn= 4.82D-02
 Coeff-Com:  0.715D-02 0.190D+00 0.803D+00
 Coeff-En:   0.000D+00 0.000D+00 0.100D+01
 Coeff:      0.680D-02 0.181D+00 0.812D+00
 Gap=     0.405 Goal=   None    Shift=    0.000
 RMSDP=2.55D-04 MaxDP=1.01D-02 DE=-5.56D-02 OVMax= 1.61D-02

 Cycle   4  Pass 1  IDiag  1:
 RMSU=  7.29D-05    CP:  9.72D-01  7.58D-01  8.79D-01
 FoFJK:  IHMeth= 1 ICntrl=     0 DoSepK=T KAlg= 1 I1Cent= 0 FoldK=F
 E= -151.556756599945     Delta-E=       -0.003404143512 Rises=F Damp=F
 DIIS: error= 4.26D-04 at cycle   4 NSaved=   4.
 NSaved= 4 IEnMin= 4 EnMin= -151.556756599945     IErMin= 4 ErrMin= 4.26D-04
 ErrMax= 4.26D-04 EMaxC= 1.00D-01 BMatC= 4.48D-05 BMatP= 5.30D-03
 IDIUse=3 WtCom= 9.96D-01 WtEn= 4.26D-03
 Coeff-Com: -0.186D-02-0.183D-01 0.151D-01 0.100D+01
 Coeff-En:   0.000D+00 0.000D+00 0.000D+00 0.100D+01
 Coeff:     -0.185D-02-0.182D-01 0.151D-01 0.100D+01
 Gap=     0.402 Goal=   None    Shift=    0.000
 RMSDP=3.96D-05 MaxDP=1.88D-03 DE=-3.40D-03 OVMax= 1.64D-03

 Cycle   5  Pass 1  IDiag  1:
 RMSU=  1.24D-05    CP:  9.72D-01  7.55D-01  9.31D-01  1.20D+00
 FoFJK:  IHMeth= 1 ICntrl=     0 DoSepK=T KAlg= 1 I1Cent= 0 FoldK=F
 E= -151.556794241313     Delta-E=       -0.000037641368 Rises=F Damp=F
 DIIS: error= 4.54D-05 at cycle   5 NSaved=   5.
 NSaved= 5 IEnMin= 5 EnMin= -151.556794241313     IErMin= 5 ErrMin= 4.54D-05
 ErrMax= 4.54D-05 EMaxC= 1.00D-01 BMatC= 4.16D-07 BMatP= 4.48D-05
 IDIUse=1 WtCom= 1.00D+00 WtEn= 0.00D+00
 Coeff-Com: -0.270D-03-0.773D-02-0.357D-01-0.420D-01 0.109D+01
 Coeff:     -0.270D-03-0.773D-02-0.357D-01-0.420D-01 0.109D+01
 Gap=     0.402 Goal=   None    Shift=    0.000
 RMSDP=1.04D-05 MaxDP=4.70D-04 DE=-3.76D-05 OVMax= 7.27D-04

 Cycle   6  Pass 1  IDiag  1:
 RMSU=  2.44D-06    CP:  9.72D-01  7.56D-01  9.39D-01  1.27D+00  1.23D+00
 FoFJK:  IHMeth= 1 ICntrl=     0 DoSepK=T KAlg= 1 I1Cent= 0 FoldK=F
 E= -151.556795505815     Delta-E=       -0.000001264502 Rises=F Damp=F
 DIIS: error= 1.32D-05 at cycle   6 NSaved=   6.
 NSaved= 6 IEnMin= 6 EnMin= -151.556795505815     IErMin= 6 ErrMin= 1.32D-05
 ErrMax= 1.32D-05 EMaxC= 1.00D-01 BMatC= 3.88D-08 BMatP= 4.16D-07
 IDIUse=1 WtCom= 1.00D+00 WtEn= 0.00D+00
 Coeff-Com: -0.999D-05-0.106D-02-0.702D-02-0.273D-01 0.186D+00 0.849D+00
 Coeff:     -0.999D-05-0.106D-02-0.702D-02-0.273D-01 0.186D+00 0.849D+00
 Gap=     0.402 Goal=   None    Shift=    0.000
 RMSDP=1.45D-06 MaxDP=5.78D-05 DE=-1.26D-06 OVMax= 1.09D-04

 Cycle   7  Pass 1  IDiag  1:
 RMSU=  6.50D-07    CP:  9.72D-01  7.56D-01  9.40D-01  1.27D+00  1.27D+00
                    CP:  1.19D+00
 FoFJK:  IHMeth= 1 ICntrl=     0 DoSepK=T KAlg= 1 I1Cent= 0 FoldK=F
 E= -151.556795544924     Delta-E=       -0.000000039109 Rises=F Damp=F
 DIIS: error= 1.04D-05 at cycle   7 NSaved=   7.
 NSaved= 7 IEnMin= 7 EnMin= -151.556795544924     IErMin= 7 ErrMin= 1.04D-05
 ErrMax= 1.04D-05 EMaxC= 1.00D-01 BMatC= 2.71D-08 BMatP= 3.88D-08
 IDIUse=1 WtCom= 1.00D+00 WtEn= 0.00D+00
 Coeff-Com:  0.366D-04 0.668D-03 0.200D-02-0.801D-02-0.811D-01 0.482D+00
 Coeff-Com:  0.604D+00
 Coeff:      0.366D-04 0.668D-03 0.200D-02-0.801D-02-0.811D-01 0.482D+00
 Coeff:      0.604D+00
 Gap=     0.402 Goal=   None    Shift=    0.000
 RMSDP=5.90D-07 MaxDP=2.72D-05 DE=-3.91D-08 OVMax= 4.60D-05

 Cycle   8  Pass 1  IDiag  1:
 RMSU=  1.96D-07    CP:  9.72D-01  7.56D-01  9.40D-01  1.28D+00  1.29D+00
                    CP:  1.29D+00  7.36D-01
 FoFJK:  IHMeth= 1 ICntrl=     0 DoSepK=T KAlg= 1 I1Cent= 0 FoldK=F
 E= -151.556795565798     Delta-E=       -0.000000020874 Rises=F Damp=F
 DIIS: error= 2.08D-06 at cycle   8 NSaved=   8.
 NSaved= 8 IEnMin= 8 EnMin= -151.556795565798     IErMin= 8 ErrMin= 2.08D-06
 ErrMax= 2.08D-06 EMaxC= 1.00D-01 BMatC= 7.20D-10 BMatP= 2.71D-08
 IDIUse=1 WtCom= 1.00D+00 WtEn= 0.00D+00
 Coeff-Com:  0.376D-05 0.205D-03 0.117D-02 0.195D-02-0.351D-01-0.349D-01
 Coeff-Com:  0.102D+00 0.965D+00
 Coeff:      0.376D-05 0.205D-03 0.117D-02 0.195D-02-0.351D-01-0.349D-01
 Coeff:      0.102D+00 0.965D+00
 Gap=     0.402 Goal=   None    Shift=    0.000
 RMSDP=1.57D-07 MaxDP=5.37D-06 DE=-2.09D-08 OVMax= 1.91D-05

 Cycle   9  Pass 1  IDiag  1:
 RMSU=  5.50D-08    CP:  9.72D-01  7.56D-01  9.40D-01  1.28D+00  1.29D+00
                    CP:  1.31D+00  8.28D-01  1.14D+00
 FoFJK:  IHMeth= 1 ICntrl=     0 DoSepK=T KAlg= 1 I1Cent= 0 FoldK=F
 E= -151.556795566892     Delta-E=       -0.000000001094 Rises=F Damp=F
 DIIS: error= 2.93D-07 at cycle   9 NSaved=   9.
 NSaved= 9 IEnMin= 9 EnMin= -151.556795566892     IErMin= 9 ErrMin= 2.93D-07
 ErrMax= 2.93D-07 EMaxC= 1.00D-01 BMatC= 1.76D-11 BMatP= 7.20D-10
 IDIUse=1 WtCom= 1.00D+00 WtEn= 0.00D+00
 Coeff-Com: -0.400D-06-0.122D-04-0.357D-04 0.298D-03 0.288D-02-0.245D-01
 Coeff-Com: -0.215D-01 0.627D-01 0.980D+00
 Coeff:     -0.400D-06-0.122D-04-0.357D-04 0.298D-03 0.288D-02-0.245D-01
 Coeff:     -0.215D-01 0.627D-01 0.980D+00
 Gap=     0.402 Goal=   None    Shift=    0.000
 RMSDP=3.59D-08 MaxDP=9.84D-07 DE=-1.09D-09 OVMax= 3.87D-06

 Cycle  10  Pass 1  IDiag  1:
 RMSU=  9.91D-09    CP:  9.72D-01  7.56D-01  9.40D-01  1.28D+00  1.29D+00
                    CP:  1.30D+00  8.36D-01  1.21D+00  1.24D+00
 FoFJK:  IHMeth= 1 ICntrl=     0 DoSepK=T KAlg= 1 I1Cent= 0 FoldK=F
 E= -151.556795566925     Delta-E=       -0.000000000033 Rises=F Damp=F
 DIIS: error= 1.05D-07 at cycle  10 NSaved=  10.
 NSaved=10 IEnMin=10 EnMin= -151.556795566925     IErMin=10 ErrMin= 1.05D-07
 ErrMax= 1.05D-07 EMaxC= 1.00D-01 BMatC= 1.32D-12 BMatP= 1.76D-11
 IDIUse=1 WtCom= 1.00D+00 WtEn= 0.00D+00
 Coeff-Com:  0.221D-06-0.428D-05-0.492D-04-0.134D-03 0.145D-02 0.248D-02
 Coeff-Com: -0.358D-02-0.453D-01-0.757D-01 0.112D+01
 Coeff:      0.221D-06-0.428D-05-0.492D-04-0.134D-03 0.145D-02 0.248D-02
 Coeff:     -0.358D-02-0.453D-01-0.757D-01 0.112D+01
 Gap=     0.402 Goal=   None    Shift=    0.000
 RMSDP=1.23D-08 MaxDP=4.05D-07 DE=-3.33D-11 OVMax= 1.17D-06

 Cycle  11  Pass 1  IDiag  1:
 RMSU=  2.55D-09    CP:  9.72D-01  7.56D-01  9.40D-01  1.28D+00  1.29D+00
                    CP:  1.30D+00  8.38D-01  1.22D+00  1.31D+00  1.30D+00
 FoFJK:  IHMeth= 1 ICntrl=     0 DoSepK=T KAlg= 1 I1Cent= 0 FoldK=F
 E= -151.556795566929     Delta-E=       -0.000000000003 Rises=F Damp=F
 DIIS: error= 1.40D-08 at cycle  11 NSaved=  11.
 NSaved=11 IEnMin=11 EnMin= -151.556795566929     IErMin=11 ErrMin= 1.40D-08
 ErrMax= 1.40D-08 EMaxC= 1.00D-01 BMatC= 2.17D-14 BMatP= 1.32D-12
 IDIUse=1 WtCom= 1.00D+00 WtEn= 0.00D+00
 Coeff-Com: -0.904D-07 0.309D-06 0.889D-05 0.210D-04-0.326D-03 0.818D-05
 Coeff-Com:  0.121D-02 0.832D-02-0.912D-02-0.247D+00 0.125D+01
 Coeff:     -0.904D-07 0.309D-06 0.889D-05 0.210D-04-0.326D-03 0.818D-05
 Coeff:      0.121D-02 0.832D-02-0.912D-02-0.247D+00 0.125D+01
 Gap=     0.402 Goal=   None    Shift=    0.000
 RMSDP=2.09D-09 MaxDP=1.18D-07 DE=-3.24D-12 OVMax= 2.34D-07

 SCF Done:  E(RwB97XD) =  -151.556795567     A.U. after   11 cycles
             Convg  =    0.2090D-08             -V/T =  2.0061
 KE= 1.506334434614D+02 PE=-4.316736766536D+02 EE= 9.288301596904D+01
 Leave Link  502 at Sun May  3 17:04:27 2020, MaxMem= 1073741824 cpu:     244.1
 (Enter /home/matheus/.gaussian/g09/l601.exe)
 Copying SCF densities to generalized density rwf, IOpCl= 0 IROHF=0.

 **********************************************************************

            Population analysis using the SCF density.

 **********************************************************************

 Orbital symmetries:
       Occupied  (A') (A') (A') (A') (A') (A') (A") (A') (A")
       Virtual   (A') (A') (A') (A") (A') (A') (A') (A') (A') (A")
                 (A') (A") (A') (A') (A") (A') (A') (A') (A") (A')
                 (A') (A") (A') (A') (A') (A') (A") (A') (A") (A')
                 (A') (A') (A') (A") (A') (A") (A') (A') (A") (A")
                 (A') (A') (A") (A') (A') (A") (A') (A") (A') (A')
                 (A') (A") (A') (A') (A") (A') (A") (A') (A") (A')
                 (A') (A") (A') (A') (A") (A') (A') (A") (A") (A')
                 (A') (A') (A") (A') (A") (A') (A') (A") (A') (A")
                 (A') (A') (A') (A') (A") (A') (A') (A") (A") (A')
                 (A') (A") (A') (A') (A') (A") (A') (A") (A') (A')
                 (A") (A") (A') (A') (A') (A') (A") (A') (A") (A')
                 (A') (A') (A') (A') (A") (A') (A") (A") (A') (A")
                 (A") (A") (A') (A') (A') (A") (A") (A') (A') (A")
                 (A') (A') (A") (A") (A') (A') (A') (A') (A') (A')
                 (A') (A') (A") (A") (A') (A') (A') (A") (A') (A')
                 (A") (A') (A") (A') (A") (A') (A") (A") (A") (A")
                 (A") (A') (A') (A') (A') (A") (A') (A') (A') (A')
                 (A') (A') (A') (A') (A') (A") (A') (A') (A") (A')
                 (A") (A') (A') (A') (A") (A') (A') (A')
 The electronic state is 1-A'.
 Alpha  occ. eigenvalues --  -19.33806 -19.33802  -1.24444  -1.03359  -0.64970
 Alpha  occ. eigenvalues --   -0.61276  -0.51923  -0.46150  -0.36920
 Alpha virt. eigenvalues --    0.03287   0.03819   0.07215   0.09441   0.09699
 Alpha virt. eigenvalues --    0.10738   0.11329   0.14181   0.16829   0.17625
 Alpha virt. eigenvalues --    0.18644   0.20227   0.21306   0.23249   0.27381
 Alpha virt. eigenvalues --    0.27429   0.29658   0.31430   0.31988   0.33711
 Alpha virt. eigenvalues --    0.37285   0.38167   0.38743   0.39583   0.42095
 Alpha virt. eigenvalues --    0.43417   0.44172   0.47556   0.49339   0.50143
 Alpha virt. eigenvalues --    0.54662   0.58026   0.60611   0.65506   0.67309
 Alpha virt. eigenvalues --    0.68464   0.72478   0.74939   0.74939   0.75671
 Alpha virt. eigenvalues --    0.77956   0.82302   0.83729   0.87055   0.90276
 Alpha virt. eigenvalues --    0.90953   0.92021   0.95333   0.97182   0.99470
 Alpha virt. eigenvalues --    1.01134   1.03734   1.05371   1.09658   1.14236
 Alpha virt. eigenvalues --    1.14764   1.15234   1.17161   1.17487   1.24357
 Alpha virt. eigenvalues --    1.26203   1.30034   1.33109   1.33380   1.34241
 Alpha virt. eigenvalues --    1.34535   1.35319   1.37118   1.37371   1.46099
 Alpha virt. eigenvalues --    1.48528   1.51028   1.52576   1.53237   1.56798
 Alpha virt. eigenvalues --    1.57803   1.64945   1.66611   1.72773   1.78503
 Alpha virt. eigenvalues --    1.79919   1.83569   1.89004   1.97262   1.99715
 Alpha virt. eigenvalues --    2.01396   2.06204   2.12647   2.14939   2.18290
 Alpha virt. eigenvalues --    2.24763   2.28800   2.29085   2.37089   2.42379
 Alpha virt. eigenvalues --    2.47393   2.54652   2.56602   2.57211   2.66019
 Alpha virt. eigenvalues --    2.67382   2.69035   2.72250   2.84874   2.93510
 Alpha virt. eigenvalues --    3.06247   3.08205   3.11632   3.27012   3.31191
 Alpha virt. eigenvalues --    3.39066   3.49678   3.62009   3.70532   3.78590
 Alpha virt. eigenvalues --    3.80505   3.80926   3.82872   3.83684   3.84536
 Alpha virt. eigenvalues --    3.88297   3.89906   3.91281   3.93075   3.95421
 Alpha virt. eigenvalues --    3.97075   4.07921   4.08727   4.11560   4.11649
 Alpha virt. eigenvalues --    4.12598   4.19833   4.22066   4.27407   4.33211
 Alpha virt. eigenvalues --    4.40334   4.45037   4.57192   4.73929   4.88767
 Alpha virt. eigenvalues --    5.02124   5.03794   5.06331   5.08234   5.37255
 Alpha virt. eigenvalues --    5.44145   5.82851   5.96779   6.08660   6.13605
 Alpha virt. eigenvalues --    6.29140   6.36357   6.44474   6.45782   6.69975
 Alpha virt. eigenvalues --    6.71835   6.73255   6.80171   6.85885   6.89429
 Alpha virt. eigenvalues --    6.92181   6.93697   6.94350   6.97299   7.00846
 Alpha virt. eigenvalues --    7.21414   7.24870   7.38714   7.61291   7.83764
 Alpha virt. eigenvalues --    8.12148   8.14595  10.91184  14.17212  14.57856
 Alpha virt. eigenvalues --   14.84545  14.89750  15.12590  29.04308  29.04950
 Alpha virt. eigenvalues --   29.09200  29.15305  29.24640  49.12480 148.32497
 Alpha virt. eigenvalues --  148.40228 148.73353 752.53991
          Condensed to atoms (all electrons):
              1          2          3          4          5
     1  O    8.180837  -0.147640   0.182250  -0.001104  -0.008551
     2  O   -0.147640   8.159264   0.005918   0.232701  -0.000074
     3  H    0.182250   0.005918   0.598701   0.004531   0.001502
     4  H   -0.001104   0.232701   0.004531   0.528463  -0.003928
     5  Kr  -0.008551  -0.000074   0.001502  -0.003928   0.001524
 Mulliken atomic charges:
              1
     1  O   -0.205793
     2  O   -0.250169
     3  H    0.207098
     4  H    0.239337
     5  Kr   0.009527
 Sum of Mulliken atomic charges =   0.00000
 Mulliken charges with hydrogens summed into heavy atoms:
              1
     1  O    0.001306
     2  O   -0.010833
     5  Kr   0.009527
 Sum of Mulliken charges with hydrogens summed into heavy atoms =   0.00000
          Condensed to fragments (all electrons):
     1      -0.009527
     2       0.009527
 Electronic spatial extent (au):  <R**2>=            324.6747
 Charge=              0.0000 electrons
 Dipole moment (field-independent basis, Debye):
    X=             -0.0004    Y=              0.0004    Z=              0.0000  Tot=              0.0005
 Quadrupole moment (field-independent basis, Debye-Ang):
   XX=            -10.5796   YY=             -8.5930   ZZ=            -13.1287
   XY=             -4.0810   XZ=              0.0000   YZ=              0.0000
 Traceless Quadrupole moment (field-independent basis, Debye-Ang):
   XX=              0.1875   YY=              2.1741   ZZ=             -2.3616
   XY=             -4.0810   XZ=              0.0000   YZ=              0.0000
 Octapole moment (field-independent basis, Debye-Ang**2):
  XXX=             -0.0030  YYY=             51.5567  ZZZ=              0.0000  XYY=             16.3268
  XXY=             21.1602  XXZ=              0.0000  XZZ=             -0.0011  YZZ=             26.2586
  YYZ=              0.0000  XYZ=              0.0000
 Hexadecapole moment (field-independent basis, Debye-Ang**3):
 XXXX=            -45.3682 YYYY=           -216.3010 ZZZZ=            -11.4834 XXXY=             -2.8971
 XXXZ=              0.0000 YYYX=            -50.5576 YYYZ=              0.0000 ZZZX=              0.0000
 ZZZY=              0.0000 XXYY=            -49.3926 XXZZ=            -11.5003 YYZZ=            -56.7446
 XXYZ=              0.0000 YYXZ=              0.0000 ZZXY=              0.7791
 N-N= 3.660042165621D+01 E-N=-4.316736761856D+02  KE= 1.506334434614D+02
 Symmetry A'   KE= 1.409164685972D+02
 Symmetry A"   KE= 9.716974864248D+00
 No NMR shielding tensors so no spin-rotation constants.
 Leave Link  601 at Sun May  3 17:04:27 2020, MaxMem= 1073741824 cpu:       0.9
 (Enter /home/matheus/.gaussian/g09/l122.exe)
 Counterpoise: doing DCBS calculation for fragment   2 NewBq=T
 Leave Link  122 at Sun May  3 17:04:27 2020, MaxMem= 1073741824 cpu:       0.0
 (Enter /home/matheus/.gaussian/g09/l301.exe)
 Basis read from rwf:  (5D, 7F)
 No pseudopotential information found on rwf file.
 There are   131 symmetry adapted basis functions of A'  symmetry.
 There are    66 symmetry adapted basis functions of A"  symmetry.
 Integral buffers will be    131072 words long.
 Raffenetti 2 integral format.
 Two-electron integral symmetry is turned on.
   197 basis functions,   415 primitive gaussians,   229 cartesian basis functions
    18 alpha electrons       18 beta electrons
       nuclear repulsion energy         0.0000000000 Hartrees.
 IExCor= 4639 DFT=T Ex+Corr=wB97XD ExCW=0 ScaHFX=  1.000000
 ScaDFX=  1.000000  1.000000  1.000000  1.000000 ScalE2=  1.000000  1.000000
 IRadAn=      5 IRanWt=     -1 IRanGd=            0 ICorTp=0
  HFx wShort=  0.000000 wLong=  0.250000 cFull=  0.222036 cShort=  0.000000 cLong=  0.777964
  DFx wShort=  0.000000 wLong=  0.250000 cFull=  0.000000 cShort=  0.000000 cLong=  1.000000
 NAtoms=    5 NActive=    5 NUniq=    5 SFac= 1.00D+00 NAtFMM=   60 NAOKFM=F Big=F
 R6Disp: Dispersion energy =         0.0000000000 Hartrees.
 Nuclear repulsion after empirical dispersion term =        0.0000000000 Hartrees.
 No density basis found on file   718.
 Leave Link  301 at Sun May  3 17:04:27 2020, MaxMem= 1073741824 cpu:       0.2
 (Enter /home/matheus/.gaussian/g09/l302.exe)
 NPDir=0 NMtPBC=     1 NCelOv=     1 NCel=       1 NClECP=     1 NCelD=      1
         NCelK=      1 NCelE2=     1 NClLst=     1 CellRange=     0.0.
 One-electron integrals computed using PRISM.
 NBasis=   197 RedAO= T  NBF=   131    66
 NBsUse=   197 1.00D-06 NBFU=   131    66
 Precomputing XC quadrature grid using
 IXCGrd= 2 IRadAn=           5 IRanWt=          -1 IRanGd=           0 AccXCQ= 0.00D+00.
 NRdTot=     427 NPtTot=      123814 NUsed=      126881 NTot=      126913
 NSgBfM=   229   229   229   229   229 NAtAll=     5     5.
 Leave Link  302 at Sun May  3 17:04:27 2020, MaxMem= 1073741824 cpu:       1.0
 (Enter /home/matheus/.gaussian/g09/l303.exe)
 DipDrv:  MaxL=1.
 Leave Link  303 at Sun May  3 17:04:27 2020, MaxMem= 1073741824 cpu:       0.2
 (Enter /home/matheus/.gaussian/g09/l401.exe)
 Harris functional with IExCor= 4639 diagonalized for initial guess.
 ExpMin= 2.53D-02 ExpMax= 1.17D+07 ExpMxC= 1.33D+04 IAcc=3 IRadAn=         5 AccDes= 0.00D+00
 HarFok:  IExCor= 4639 AccDes= 0.00D+00 IRadAn=         5 IDoV= 1
 ScaDFX=  1.000000  1.000000  1.000000  1.000000
 FoFCou: FMM=F IPFlag=           0 FMFlag=      100000 FMFlg1=           0
         NFxFlg=           0 DoJE=T BraDBF=F KetDBF=T FulRan=T
         Omega=  0.000000  0.000000  1.000000  0.000000  0.000000 ICntrl=     500 IOpCl=  0
         NMat0=    1 NMatS0=    1 NMatT0=    0 NMatD0=    1 NMtDS0=    0 NMtDT0=    0
         I1Cent=           4 NGrid=           0.
 Petite list used in FoFCou.
 Harris En= -2729.46040333796    
 Initial guess orbital symmetries:
       Occupied  (A') (A') (A') (A') (A") (A') (A') (A') (A") (A')
                 (A') (A") (A') (A") (A') (A') (A') (A")
       Virtual   (A') (A') (A') (A") (A') (A') (A') (A") (A') (A')
                 (A") (A') (A') (A") (A') (A") (A') (A') (A') (A')
                 (A") (A') (A") (A') (A') (A') (A') (A") (A') (A')
                 (A") (A') (A') (A") (A') (A') (A") (A') (A') (A")
                 (A') (A") (A") (A') (A') (A') (A") (A') (A') (A")
                 (A') (A') (A") (A") (A') (A") (A') (A') (A') (A")
                 (A') (A") (A') (A') (A") (A') (A') (A') (A") (A')
                 (A') (A') (A') (A") (A") (A') (A') (A') (A') (A")
                 (A') (A") (A') (A') (A') (A") (A") (A') (A') (A")
                 (A") (A') (A") (A') (A") (A') (A") (A') (A") (A')
                 (A") (A') (A') (A") (A') (A") (A') (A') (A') (A")
                 (A') (A") (A') (A') (A') (A') (A") (A") (A') (A')
                 (A') (A') (A') (A") (A') (A') (A") (A') (A') (A")
                 (A') (A") (A') (A") (A') (A') (A') (A") (A") (A')
                 (A') (A') (A') (A') (A') (A") (A') (A") (A') (A')
                 (A") (A") (A') (A") (A") (A') (A') (A') (A') (A')
                 (A') (A") (A") (A") (A') (A') (A") (A') (A') (A")
                 (A') (A") (A') (A') (A') (A') (A') (A') (A')
 The electronic state of the initial guess is 1-A'.
 Leave Link  401 at Sun May  3 17:04:27 2020, MaxMem= 1073741824 cpu:       2.8
 (Enter /home/matheus/.gaussian/g09/l502.exe)
 Closed shell SCF:
 Requested convergence on RMS density matrix=1.00D-08 within 128 cycles.
 Requested convergence on MAX density matrix=1.00D-06.
 Requested convergence on             energy=1.00D-06.
 No special actions if energy rises.
 Using DIIS extrapolation, IDIIS=  1040.
 Integral symmetry usage will be decided dynamically.
       126823 words used for storage of precomputed grid.
 IEnd=      305835 IEndB=      305835 NGot=  1073741824 MDV=  1073505300
 LenX=  1073505300 LenY=  1073452418
 Fock matrices will be formed incrementally for  20 cycles.

 Cycle   1  Pass 1  IDiag  1:
 FoFJK:  IHMeth= 1 ICntrl=     0 DoSepK=T KAlg= 1 I1Cent= 0 FoldK=F
 FoFCou: FMM=F IPFlag=           0 FMFlag=      100000 FMFlg1=           0
         NFxFlg=           0 DoJE=T BraDBF=F KetDBF=F FulRan=T
         Omega=  0.000000  0.000000  1.000000  0.000000  0.000000 ICntrl=     500 IOpCl=  0
         NMat0=    1 NMatS0=    1 NMatT0=    0 NMatD0=    1 NMtDS0=    0 NMtDT0=    0
         I1Cent=           0 NGrid=           0.
 Petite list used in FoFCou.
 E= -2753.44666075750    
 DIIS: error= 7.72D-02 at cycle   1 NSaved=   1.
 NSaved= 1 IEnMin= 1 EnMin= -2753.44666075750     IErMin= 1 ErrMin= 7.72D-02
 ErrMax= 7.72D-02 EMaxC= 1.00D-01 BMatC= 1.90D+00 BMatP= 1.90D+00
 IDIUse=3 WtCom= 2.28D-01 WtEn= 7.72D-01
 Coeff-Com:  0.100D+01
 Coeff-En:   0.100D+01
 Coeff:      0.100D+01
 Gap=     0.654 Goal=   None    Shift=    0.000
 GapD=    0.654 DampG=2.000 DampE=0.500 DampFc=1.0000 IDamp=-1.
 RMSDP=5.70D-03 MaxDP=3.67D-01              OVMax= 1.83D-01

 Cycle   2  Pass 1  IDiag  1:
 RMSU=  3.97D-03    CP:  1.04D+00
 FoFJK:  IHMeth= 1 ICntrl=     0 DoSepK=T KAlg= 1 I1Cent= 0 FoldK=F
 E= -2753.72375510789     Delta-E=       -0.277094350393 Rises=F Damp=F
 DIIS: error= 3.79D-02 at cycle   2 NSaved=   2.
 NSaved= 2 IEnMin= 2 EnMin= -2753.72375510789     IErMin= 2 ErrMin= 3.79D-02
 ErrMax= 3.79D-02 EMaxC= 1.00D-01 BMatC= 4.66D-01 BMatP= 1.90D+00
 IDIUse=3 WtCom= 6.21D-01 WtEn= 3.79D-01
 Coeff-Com:  0.326D+00 0.674D+00
 Coeff-En:   0.160D+00 0.840D+00
 Coeff:      0.263D+00 0.737D+00
 Gap=     0.488 Goal=   None    Shift=    0.000
 RMSDP=2.57D-03 MaxDP=1.62D-01 DE=-2.77D-01 OVMax= 7.78D-02

 Cycle   3  Pass 1  IDiag  1:
 RMSU=  3.80D-04    CP:  1.03D+00  5.57D-01
 FoFJK:  IHMeth= 1 ICntrl=     0 DoSepK=T KAlg= 1 I1Cent= 0 FoldK=F
 E= -2753.86620301163     Delta-E=       -0.142447903737 Rises=F Damp=F
 DIIS: error= 6.00D-03 at cycle   3 NSaved=   3.
 NSaved= 3 IEnMin= 3 EnMin= -2753.86620301163     IErMin= 3 ErrMin= 6.00D-03
 ErrMax= 6.00D-03 EMaxC= 1.00D-01 BMatC= 1.31D-02 BMatP= 4.66D-01
 IDIUse=3 WtCom= 9.40D-01 WtEn= 6.00D-02
 Coeff-Com: -0.856D-02 0.130D+00 0.878D+00
 Coeff-En:   0.000D+00 0.000D+00 0.100D+01
 Coeff:     -0.804D-02 0.122D+00 0.886D+00
 Gap=     0.516 Goal=   None    Shift=    0.000
 RMSDP=3.41D-04 MaxDP=1.99D-02 DE=-1.42D-01 OVMax= 1.34D-02

 Cycle   4  Pass 1  IDiag  1:
 RMSU=  4.34D-05    CP:  1.03D+00  6.16D-01  9.57D-01
 FoFJK:  IHMeth= 1 ICntrl=     0 DoSepK=T KAlg= 1 I1Cent= 0 FoldK=F
 E= -2753.87021469244     Delta-E=       -0.004011680809 Rises=F Damp=F
 DIIS: error= 3.03D-04 at cycle   4 NSaved=   4.
 NSaved= 4 IEnMin= 4 EnMin= -2753.87021469244     IErMin= 4 ErrMin= 3.03D-04
 ErrMax= 3.03D-04 EMaxC= 1.00D-01 BMatC= 2.68D-05 BMatP= 1.31D-02
 IDIUse=3 WtCom= 9.97D-01 WtEn= 3.03D-03
 Coeff-Com: -0.228D-03-0.183D-01-0.600D-01 0.108D+01
 Coeff-En:   0.000D+00 0.000D+00 0.000D+00 0.100D+01
 Coeff:     -0.228D-03-0.183D-01-0.598D-01 0.108D+01
 Gap=     0.514 Goal=   None    Shift=    0.000
 RMSDP=2.58D-05 MaxDP=9.63D-04 DE=-4.01D-03 OVMax= 9.54D-04

 Cycle   5  Pass 1  IDiag  1:
 RMSU=  9.31D-06    CP:  1.03D+00  6.13D-01  9.78D-01  1.22D+00
 FoFJK:  IHMeth= 1 ICntrl=     0 DoSepK=T KAlg= 1 I1Cent= 0 FoldK=F
 E= -2753.87022700263     Delta-E=       -0.000012310196 Rises=F Damp=F
 DIIS: error= 1.51D-05 at cycle   5 NSaved=   5.
 NSaved= 5 IEnMin= 5 EnMin= -2753.87022700263     IErMin= 5 ErrMin= 1.51D-05
 ErrMax= 1.51D-05 EMaxC= 1.00D-01 BMatC= 5.83D-08 BMatP= 2.68D-05
 IDIUse=1 WtCom= 1.00D+00 WtEn= 0.00D+00
 Coeff-Com:  0.648D-04 0.142D-02-0.209D-03-0.207D+00 0.121D+01
 Coeff:      0.648D-04 0.142D-02-0.209D-03-0.207D+00 0.121D+01
 Gap=     0.514 Goal=   None    Shift=    0.000
 RMSDP=4.09D-06 MaxDP=1.57D-04 DE=-1.23D-05 OVMax= 2.22D-04

 Cycle   6  Pass 1  IDiag  1:
 RMSU=  8.12D-07    CP:  1.03D+00  6.13D-01  9.80D-01  1.26D+00  1.19D+00
 FoFJK:  IHMeth= 1 ICntrl=     0 DoSepK=T KAlg= 1 I1Cent= 0 FoldK=F
 E= -2753.87022716388     Delta-E=       -0.000000161250 Rises=F Damp=F
 DIIS: error= 1.53D-06 at cycle   6 NSaved=   6.
 NSaved= 6 IEnMin= 6 EnMin= -2753.87022716388     IErMin= 6 ErrMin= 1.53D-06
 ErrMax= 1.53D-06 EMaxC= 1.00D-01 BMatC= 4.73D-10 BMatP= 5.83D-08
 IDIUse=1 WtCom= 1.00D+00 WtEn= 0.00D+00
 Coeff-Com:  0.599D-05 0.334D-03 0.361D-03-0.407D-01 0.191D+00 0.850D+00
 Coeff:      0.599D-05 0.334D-03 0.361D-03-0.407D-01 0.191D+00 0.850D+00
 Gap=     0.514 Goal=   None    Shift=    0.000
 RMSDP=2.02D-07 MaxDP=7.17D-06 DE=-1.61D-07 OVMax= 9.26D-06

 Cycle   7  Pass 1  IDiag  1:
 RMSU=  6.81D-08    CP:  1.03D+00  6.13D-01  9.80D-01  1.26D+00  1.20D+00
                    CP:  1.11D+00
 FoFJK:  IHMeth= 1 ICntrl=     0 DoSepK=T KAlg= 1 I1Cent= 0 FoldK=F
 E= -2753.87022716443     Delta-E=       -0.000000000543 Rises=F Damp=F
 DIIS: error= 2.53D-07 at cycle   7 NSaved=   7.
 NSaved= 7 IEnMin= 7 EnMin= -2753.87022716443     IErMin= 7 ErrMin= 2.53D-07
 ErrMax= 2.53D-07 EMaxC= 1.00D-01 BMatC= 2.35D-11 BMatP= 4.73D-10
 IDIUse=1 WtCom= 1.00D+00 WtEn= 0.00D+00
 Coeff-Com: -0.177D-05 0.274D-05 0.127D-03 0.287D-02-0.245D-01 0.106D+00
 Coeff-Com:  0.915D+00
 Coeff:     -0.177D-05 0.274D-05 0.127D-03 0.287D-02-0.245D-01 0.106D+00
 Coeff:      0.915D+00
 Gap=     0.514 Goal=   None    Shift=    0.000
 RMSDP=5.64D-08 MaxDP=2.17D-06 DE=-5.43D-10 OVMax= 2.02D-06

 Cycle   8  Pass 1  IDiag  1:
 RMSU=  1.56D-08    CP:  1.03D+00  6.13D-01  9.80D-01  1.26D+00  1.20D+00
                    CP:  1.15D+00  1.09D+00
 FoFJK:  IHMeth= 1 ICntrl=     0 DoSepK=T KAlg= 1 I1Cent= 0 FoldK=F
 E= -2753.87022716443     Delta-E=       -0.000000000005 Rises=F Damp=F
 DIIS: error= 6.85D-08 at cycle   8 NSaved=   8.
 NSaved= 8 IEnMin= 8 EnMin= -2753.87022716443     IErMin= 8 ErrMin= 6.85D-08
 ErrMax= 6.85D-08 EMaxC= 1.00D-01 BMatC= 1.17D-12 BMatP= 2.35D-11
 IDIUse=1 WtCom= 1.00D+00 WtEn= 0.00D+00
 Coeff-Com: -0.182D-07-0.432D-05 0.176D-04 0.134D-02-0.714D-02-0.113D-01
 Coeff-Com:  0.106D+00 0.911D+00
 Coeff:     -0.182D-07-0.432D-05 0.176D-04 0.134D-02-0.714D-02-0.113D-01
 Coeff:      0.106D+00 0.911D+00
 Gap=     0.514 Goal=   None    Shift=    0.000
 RMSDP=1.16D-08 MaxDP=4.14D-07 DE=-4.55D-12 OVMax= 3.33D-07

 Cycle   9  Pass 1  IDiag  1:
 RMSU=  2.27D-09    CP:  1.03D+00  6.13D-01  9.80D-01  1.26D+00  1.20D+00
                    CP:  1.16D+00  1.13D+00  1.09D+00
 FoFJK:  IHMeth= 1 ICntrl=     0 DoSepK=T KAlg= 1 I1Cent= 0 FoldK=F
 E= -2753.87022716443     Delta-E=       -0.000000000003 Rises=F Damp=F
 DIIS: error= 7.57D-09 at cycle   9 NSaved=   9.
 NSaved= 9 IEnMin= 9 EnMin= -2753.87022716443     IErMin= 9 ErrMin= 7.57D-09
 ErrMax= 7.57D-09 EMaxC= 1.00D-01 BMatC= 9.78D-15 BMatP= 1.17D-12
 IDIUse=1 WtCom= 1.00D+00 WtEn= 0.00D+00
 Coeff-Com:  0.103D-07 0.101D-06-0.272D-05-0.123D-03 0.659D-03-0.602D-03
 Coeff-Com: -0.235D-01-0.781D-01 0.110D+01
 Coeff:      0.103D-07 0.101D-06-0.272D-05-0.123D-03 0.659D-03-0.602D-03
 Coeff:     -0.235D-01-0.781D-01 0.110D+01
 Gap=     0.514 Goal=   None    Shift=    0.000
 RMSDP=1.70D-09 MaxDP=6.47D-08 DE=-2.73D-12 OVMax= 9.62D-08

 SCF Done:  E(RwB97XD) =  -2753.87022716     A.U. after    9 cycles
             Convg  =    0.1700D-08             -V/T =  2.0013
 KE= 2.750246930382D+03 PE=-6.580155620901D+03 EE= 1.076038463354D+03
 Leave Link  502 at Sun May  3 17:04:56 2020, MaxMem= 1073741824 cpu:     224.8
 (Enter /home/matheus/.gaussian/g09/l601.exe)
 Copying SCF densities to generalized density rwf, IOpCl= 0 IROHF=0.

 **********************************************************************

            Population analysis using the SCF density.

 **********************************************************************

 Orbital symmetries:
       Occupied  (A') (A') (A') (A') (A") (A') (A') (A') (A") (A')
                 (A') (A") (A") (A') (A') (A') (A') (A")
       Virtual   (A') (A') (A') (A") (A') (A') (A') (A") (A') (A')
                 (A") (A') (A') (A") (A') (A") (A') (A') (A') (A')
                 (A") (A') (A') (A") (A') (A') (A') (A") (A') (A')
                 (A") (A') (A') (A") (A') (A') (A") (A') (A') (A")
                 (A') (A") (A") (A') (A') (A') (A") (A') (A') (A")
                 (A') (A') (A") (A") (A') (A') (A") (A') (A") (A')
                 (A') (A") (A') (A') (A") (A') (A') (A') (A') (A")
                 (A') (A') (A') (A") (A") (A') (A') (A') (A') (A")
                 (A') (A") (A') (A') (A") (A') (A") (A') (A') (A")
                 (A") (A') (A") (A') (A") (A') (A") (A') (A") (A')
                 (A") (A') (A") (A') (A') (A") (A') (A') (A') (A")
                 (A') (A") (A') (A') (A') (A') (A") (A") (A') (A')
                 (A') (A') (A') (A") (A') (A') (A") (A') (A') (A")
                 (A') (A') (A") (A") (A') (A') (A') (A") (A") (A')
                 (A') (A') (A') (A') (A') (A") (A') (A") (A') (A')
                 (A") (A") (A') (A") (A") (A') (A') (A') (A') (A')
                 (A') (A") (A") (A") (A') (A') (A") (A') (A') (A")
                 (A') (A") (A') (A') (A') (A') (A') (A') (A')
 The electronic state is 1-A'.
 Alpha  occ. eigenvalues -- -513.08051 -67.34865 -60.89737 -60.89736 -60.89736
 Alpha  occ. eigenvalues --   -9.80180  -7.49479  -7.49478  -7.49478  -3.36164
 Alpha  occ. eigenvalues --   -3.36164  -3.36164  -3.36163  -3.36163  -1.00829
 Alpha  occ. eigenvalues --   -0.48267  -0.48264  -0.48263
 Alpha virt. eigenvalues --    0.03136   0.05124   0.08644   0.10428   0.11158
 Alpha virt. eigenvalues --    0.12578   0.13308   0.14883   0.16700   0.17267
 Alpha virt. eigenvalues --    0.18205   0.19658   0.21061   0.25875   0.26583
 Alpha virt. eigenvalues --    0.27626   0.27688   0.32097   0.34074   0.35324
 Alpha virt. eigenvalues --    0.35646   0.37001   0.38115   0.38948   0.41520
 Alpha virt. eigenvalues --    0.43309   0.43499   0.52332   0.54584   0.57009
 Alpha virt. eigenvalues --    0.62969   0.64163   0.67501   0.68522   0.70818
 Alpha virt. eigenvalues --    0.74098   0.74746   0.75206   0.76790   0.76985
 Alpha virt. eigenvalues --    0.80795   0.81753   0.83197   0.84185   0.84807
 Alpha virt. eigenvalues --    0.86603   0.88248   0.89024   0.91598   0.94157
 Alpha virt. eigenvalues --    0.97482   0.99614   1.00320   1.02235   1.03869
 Alpha virt. eigenvalues --    1.05892   1.06270   1.08020   1.12540   1.12976
 Alpha virt. eigenvalues --    1.16236   1.17394   1.18632   1.25768   1.28890
 Alpha virt. eigenvalues --    1.32190   1.34627   1.42299   1.42866   1.43774
 Alpha virt. eigenvalues --    1.56753   1.59620   1.72534   1.74395   1.77875
 Alpha virt. eigenvalues --    1.82929   1.85867   1.87214   1.88638   2.15497
 Alpha virt. eigenvalues --    2.20255   2.25272   2.27549   2.30571   2.30657
 Alpha virt. eigenvalues --    2.32948   2.33127   2.37014   2.40034   2.40356
 Alpha virt. eigenvalues --    2.42399   2.44885   2.48113   2.48283   2.49699
 Alpha virt. eigenvalues --    2.52604   2.54165   2.54733   2.57146   2.59488
 Alpha virt. eigenvalues --    2.61027   2.62182   2.63173   2.64175   2.67559
 Alpha virt. eigenvalues --    2.68401   2.70022   2.76451   2.79199   2.88250
 Alpha virt. eigenvalues --    2.89472   3.02838   3.05476   3.11700   3.15830
 Alpha virt. eigenvalues --    3.25560   3.26236   3.29006   3.35076   3.53078
 Alpha virt. eigenvalues --    3.60132   3.64824   3.85873   3.88130   4.04052
 Alpha virt. eigenvalues --    4.34450   4.43180   4.56825   4.57989   4.62801
 Alpha virt. eigenvalues --    4.74284   4.91971   4.92149   4.93311   5.02696
 Alpha virt. eigenvalues --    5.11905   5.14945   5.60115   5.66854   5.84610
 Alpha virt. eigenvalues --    5.87274   5.95706   6.23212   6.84943   6.96361
 Alpha virt. eigenvalues --    7.26465   7.43498   7.60758   7.66538   7.76376
 Alpha virt. eigenvalues --    7.78668   8.10489   8.10607   8.17256   8.26719
 Alpha virt. eigenvalues --    8.33772   8.38427   8.69956   8.90680   9.65409
 Alpha virt. eigenvalues --    9.71799   9.77604   9.83769   9.96344  10.07206
 Alpha virt. eigenvalues --   10.19234  10.20505  10.50617  10.94096  11.42577
 Alpha virt. eigenvalues --   11.57163  11.62304  12.03887  12.15242  13.22356
 Alpha virt. eigenvalues --   13.70687  14.53940  62.97077  64.52781
          Condensed to atoms (all electrons):
              1          2          3          4          5
     1  O    0.002972  -0.002590  -0.001432   0.001317  -0.008288
     2  O   -0.002590   0.005980   0.001032  -0.003609  -0.005289
     3  H   -0.001432   0.001032   0.000864  -0.000450   0.000877
     4  H    0.001317  -0.003609  -0.000450   0.003444  -0.018850
     5  Kr  -0.008288  -0.005289   0.000877  -0.018850  36.061303
 Mulliken atomic charges:
              1
     1  O    0.008021
     2  O    0.004476
     3  H   -0.000892
     4  H    0.018148
     5  Kr  -0.029753
 Sum of Mulliken atomic charges =   0.00000
 Mulliken charges with hydrogens summed into heavy atoms:
              1
     1  O    0.007129
     2  O    0.022624
     5  Kr  -0.029753
 Sum of Mulliken charges with hydrogens summed into heavy atoms =   0.00000
          Condensed to fragments (all electrons):
     1       0.029753
     2      -0.029753
 Electronic spatial extent (au):  <R**2>=            167.9313
 Charge=              0.0000 electrons
 Dipole moment (field-independent basis, Debye):
    X=             -0.0007    Y=             -0.0010    Z=              0.0000  Tot=              0.0012
 Quadrupole moment (field-independent basis, Debye-Ang):
   XX=            -17.6541   YY=            -17.6440   ZZ=            -17.6600
   XY=              0.0045   XZ=              0.0000   YZ=              0.0000
 Traceless Quadrupole moment (field-independent basis, Debye-Ang):
   XX=             -0.0014   YY=              0.0087   ZZ=             -0.0073
   XY=              0.0045   XZ=              0.0000   YZ=              0.0000
 Octapole moment (field-independent basis, Debye-Ang**2):
  XXX=             -0.0031  YYY=            -52.9313  ZZZ=              0.0000  XYY=              0.0099
  XXY=            -17.6552  XXZ=              0.0000  XZZ=             -0.0012  YZZ=            -17.6584
  YYZ=              0.0000  XYZ=              0.0000
 Hexadecapole moment (field-independent basis, Debye-Ang**3):
 XXXX=            -18.4764 YYYY=           -124.3261 ZZZZ=            -18.4908 XXXY=              0.0144
 XXXZ=              0.0000 YYYX=              0.0239 YYYZ=              0.0000 ZZZX=              0.0000
 ZZZY=              0.0000 XXYY=            -23.8093 XXZZ=             -6.1576 YYZZ=            -23.8138
 XXYZ=              0.0000 YYXZ=              0.0000 ZZXY=              0.0060
 N-N= 0.000000000000D+00 E-N=-6.580155619407D+03  KE= 2.750246930382D+03
 Symmetry A'   KE= 2.344189528456D+03
 Symmetry A"   KE= 4.060574019264D+02
 No NMR shielding tensors so no spin-rotation constants.
 Leave Link  601 at Sun May  3 17:04:56 2020, MaxMem= 1073741824 cpu:       0.9
 (Enter /home/matheus/.gaussian/g09/l122.exe)
 Counterpoise: doing MCBS calculation for fragment   1
 Leave Link  122 at Sun May  3 17:04:56 2020, MaxMem= 1073741824 cpu:       0.0
 (Enter /home/matheus/.gaussian/g09/l301.exe)
 Basis read from rwf:  (5D, 7F)
 No pseudopotential information found on rwf file.
 There are    92 symmetry adapted basis functions of A'  symmetry.
 There are    46 symmetry adapted basis functions of A"  symmetry.
 Integral buffers will be    131072 words long.
 Raffenetti 2 integral format.
 Two-electron integral symmetry is turned on.
   138 basis functions,   198 primitive gaussians,   160 cartesian basis functions
     9 alpha electrons        9 beta electrons
       nuclear repulsion energy        36.6006188945 Hartrees.
 IExCor= 4639 DFT=T Ex+Corr=wB97XD ExCW=0 ScaHFX=  1.000000
 ScaDFX=  1.000000  1.000000  1.000000  1.000000 ScalE2=  1.000000  1.000000
 IRadAn=      5 IRanWt=     -1 IRanGd=            0 ICorTp=0
  HFx wShort=  0.000000 wLong=  0.250000 cFull=  0.222036 cShort=  0.000000 cLong=  0.777964
  DFx wShort=  0.000000 wLong=  0.250000 cFull=  0.000000 cShort=  0.000000 cLong=  1.000000
 NAtoms=    5 NActive=    4 NUniq=    4 SFac= 1.00D+00 NAtFMM=   60 NAOKFM=F Big=F
 R6Disp: Dispersion energy =        -0.0001972383 Hartrees.
 Nuclear repulsion after empirical dispersion term =       36.6004216562 Hartrees.
 No density basis found on file   718.
 Leave Link  301 at Sun May  3 17:04:56 2020, MaxMem= 1073741824 cpu:       0.2
 (Enter /home/matheus/.gaussian/g09/l302.exe)
 NPDir=0 NMtPBC=     1 NCelOv=     1 NCel=       1 NClECP=     1 NCelD=      1
         NCelK=      1 NCelE2=     1 NClLst=     1 CellRange=     0.0.
 One-electron integrals computed using PRISM.
 NBasis=   138 RedAO= T  NBF=    92    46
 NBsUse=   138 1.00D-06 NBFU=    92    46
 Precomputing XC quadrature grid using
 IXCGrd= 2 IRadAn=           5 IRanWt=          -1 IRanGd=           0 AccXCQ= 0.00D+00.
 NRdTot=     344 NPtTot=       92556 NUsed=       95038 NTot=       95070
 NSgBfM=   160   160   160   160   160 NAtAll=     4     4.
 Leave Link  302 at Sun May  3 17:04:56 2020, MaxMem= 1073741824 cpu:       0.7
 (Enter /home/matheus/.gaussian/g09/l303.exe)
 DipDrv:  MaxL=1.
 Leave Link  303 at Sun May  3 17:04:56 2020, MaxMem= 1073741824 cpu:       0.1
 (Enter /home/matheus/.gaussian/g09/l401.exe)
 Harris functional with IExCor= 4639 diagonalized for initial guess.
 ExpMin= 2.53D-02 ExpMax= 1.53D+04 ExpMxC= 5.22D+02 IAcc=3 IRadAn=         5 AccDes= 0.00D+00
 HarFok:  IExCor= 4639 AccDes= 0.00D+00 IRadAn=         5 IDoV= 1
 ScaDFX=  1.000000  1.000000  1.000000  1.000000
 FoFCou: FMM=F IPFlag=           0 FMFlag=      100000 FMFlg1=           0
         NFxFlg=           0 DoJE=T BraDBF=F KetDBF=T FulRan=T
         Omega=  0.000000  0.000000  1.000000  0.000000  0.000000 ICntrl=     500 IOpCl=  0
         NMat0=    1 NMatS0=    1 NMatT0=    0 NMatD0=    1 NMtDS0=    0 NMtDT0=    0
         I1Cent=           4 NGrid=           0.
 Petite list used in FoFCou.
 Harris En= -145.942379259986    
 Initial guess orbital symmetries:
       Occupied  (A') (A') (A') (A') (A') (A') (A") (A') (A")
       Virtual   (A') (A') (A') (A') (A") (A') (A') (A') (A") (A')
                 (A") (A') (A') (A') (A") (A') (A') (A') (A') (A')
                 (A') (A") (A") (A') (A') (A") (A") (A') (A') (A")
                 (A') (A') (A") (A') (A') (A") (A") (A') (A') (A')
                 (A') (A') (A") (A") (A') (A') (A') (A") (A") (A')
                 (A') (A') (A") (A') (A') (A") (A') (A') (A") (A")
                 (A') (A') (A") (A') (A') (A') (A") (A') (A') (A")
                 (A") (A') (A") (A') (A') (A') (A') (A') (A") (A')
                 (A') (A") (A") (A') (A") (A") (A') (A") (A') (A")
                 (A') (A') (A') (A') (A') (A') (A') (A") (A") (A')
                 (A') (A') (A") (A') (A') (A") (A') (A") (A') (A')
                 (A") (A") (A") (A") (A") (A') (A") (A') (A') (A')
                 (A") (A') (A') (A') (A') (A') (A') (A') (A')
 The electronic state of the initial guess is 1-A'.
 Leave Link  401 at Sun May  3 17:04:56 2020, MaxMem= 1073741824 cpu:       1.6
 (Enter /home/matheus/.gaussian/g09/l502.exe)
 Closed shell SCF:
 Requested convergence on RMS density matrix=1.00D-08 within 128 cycles.
 Requested convergence on MAX density matrix=1.00D-06.
 Requested convergence on             energy=1.00D-06.
 No special actions if energy rises.
 Using DIIS extrapolation, IDIIS=  1040.
 Integral symmetry usage will be decided dynamically.
        94980 words used for storage of precomputed grid.
 IEnd=      192406 IEndB=      192406 NGot=  1073741824 MDV=  1073591819
 LenX=  1073591819 LenY=  1073565778
 Fock matrices will be formed incrementally for  20 cycles.

 Cycle   1  Pass 1  IDiag  1:
 FoFJK:  IHMeth= 1 ICntrl=     0 DoSepK=T KAlg= 1 I1Cent= 0 FoldK=F
 FoFCou: FMM=F IPFlag=           0 FMFlag=      100000 FMFlg1=           0
         NFxFlg=           0 DoJE=T BraDBF=F KetDBF=F FulRan=T
         Omega=  0.000000  0.000000  1.000000  0.000000  0.000000 ICntrl=     500 IOpCl=  0
         NMat0=    1 NMatS0=    1 NMatT0=    0 NMatD0=    1 NMtDS0=    0 NMtDT0=    0
         I1Cent=           0 NGrid=           0.
 Petite list used in FoFCou.
 E= -151.459510125658    
 DIIS: error= 5.22D-02 at cycle   1 NSaved=   1.
 NSaved= 1 IEnMin= 1 EnMin= -151.459510125658     IErMin= 1 ErrMin= 5.22D-02
 ErrMax= 5.22D-02 EMaxC= 1.00D-01 BMatC= 3.18D-01 BMatP= 3.18D-01
[...]
         I1Cent=           4 NGrid=           0.
 Petite list used in FoFCou.
 Harris En= -2729.45866193586    
 Leave Link  401 at Sun May  3 17:23:51 2020, MaxMem= 1073741824 cpu:       2.8
 (Enter /home/matheus/.gaussian/g09/l502.exe)
 Closed shell SCF:
 Requested convergence on RMS density matrix=1.00D-08 within 128 cycles.
 Requested convergence on MAX density matrix=1.00D-06.
 Requested convergence on             energy=1.00D-06.
 No special actions if energy rises.
 Using DIIS extrapolation, IDIIS=  1040.
 Integral symmetry usage will be decided dynamically.
       127132 words used for storage of precomputed grid.
 IEnd=      306144 IEndB=      306144 NGot=  1073741824 MDV=  1073504991
 LenX=  1073504991 LenY=  1073452109
 Fock matrices will be formed incrementally for  20 cycles.

 Cycle   1  Pass 1  IDiag  1:
 FoFJK:  IHMeth= 1 ICntrl=     0 DoSepK=T KAlg= 1 I1Cent= 0 FoldK=F
 FoFCou: FMM=F IPFlag=           0 FMFlag=      100000 FMFlg1=           0
         NFxFlg=           0 DoJE=T BraDBF=F KetDBF=F FulRan=T
         Omega=  0.000000  0.000000  1.000000  0.000000  0.000000 ICntrl=     500 IOpCl=  0
         NMat0=    1 NMatS0=    1 NMatT0=    0 NMatD0=    1 NMtDS0=    0 NMtDT0=    0
         I1Cent=           0 NGrid=           0.
 Petite list used in FoFCou.
 E= -2753.87012678552    
 DIIS: error= 1.72D-04 at cycle   1 NSaved=   1.
 NSaved= 1 IEnMin= 1 EnMin= -2753.87012678552     IErMin= 1 ErrMin= 1.72D-04
 ErrMax= 1.72D-04 EMaxC= 1.00D-01 BMatC= 3.96D-06 BMatP= 3.96D-06
 IDIUse=3 WtCom= 9.98D-01 WtEn= 1.72D-03
 Coeff-Com:  0.100D+01
 Coeff-En:   0.100D+01
 Coeff:      0.100D+01
 Gap=     0.512 Goal=   None    Shift=    0.000
 RMSDP=2.13D-05 MaxDP=9.17D-04              OVMax= 3.23D-04

 Cycle   2  Pass 1  IDiag  1:
 RMSU=  1.50D-05    CP:  1.00D+00
 FoFJK:  IHMeth= 1 ICntrl=     0 DoSepK=T KAlg= 1 I1Cent= 0 FoldK=F
 E= -2753.87012730507     Delta-E=       -0.000000519555 Rises=F Damp=F
 DIIS: error= 3.43D-06 at cycle   2 NSaved=   2.
 NSaved= 2 IEnMin= 2 EnMin= -2753.87012730507     IErMin= 2 ErrMin= 3.43D-06
 ErrMax= 3.43D-06 EMaxC= 1.00D-01 BMatC= 3.81D-09 BMatP= 3.96D-06
 IDIUse=1 WtCom= 1.00D+00 WtEn= 0.00D+00
 Coeff-Com: -0.921D-02 0.101D+01
 Coeff:     -0.921D-02 0.101D+01
 Gap=     0.512 Goal=   None    Shift=    0.000
 RMSDP=1.80D-06 MaxDP=6.78D-05 DE=-5.20D-07 OVMax= 4.96D-05

 Cycle   3  Pass 1  IDiag  1:
 RMSU=  5.68D-07    CP:  1.00D+00  1.08D+00
 FoFJK:  IHMeth= 1 ICntrl=     0 DoSepK=T KAlg= 1 I1Cent= 0 FoldK=F
 E= -2753.87012731206     Delta-E=       -0.000000006990 Rises=F Damp=F
 DIIS: error= 5.40D-07 at cycle   3 NSaved=   3.
 NSaved= 3 IEnMin= 3 EnMin= -2753.87012731206     IErMin= 3 ErrMin= 5.40D-07
 ErrMax= 5.40D-07 EMaxC= 1.00D-01 BMatC= 9.64D-11 BMatP= 3.81D-09
 IDIUse=1 WtCom= 1.00D+00 WtEn= 0.00D+00
 Coeff-Com:  0.284D-03-0.129D+00 0.113D+01
 Coeff:      0.284D-03-0.129D+00 0.113D+01
 Gap=     0.512 Goal=   None    Shift=    0.000
 RMSDP=2.16D-07 MaxDP=7.91D-06 DE=-6.99D-09 OVMax= 1.02D-05

 Cycle   4  Pass 1  IDiag  1:
 RMSU=  6.07D-08    CP:  1.00D+00  1.08D+00  1.21D+00
 FoFJK:  IHMeth= 1 ICntrl=     0 DoSepK=T KAlg= 1 I1Cent= 0 FoldK=F
 E= -2753.87012731228     Delta-E=       -0.000000000218 Rises=F Damp=F
 DIIS: error= 3.91D-07 at cycle   4 NSaved=   4.
 NSaved= 4 IEnMin= 4 EnMin= -2753.87012731228     IErMin= 4 ErrMin= 3.91D-07
 ErrMax= 3.91D-07 EMaxC= 1.00D-01 BMatC= 7.71D-12 BMatP= 9.64D-11
 IDIUse=1 WtCom= 1.00D+00 WtEn= 0.00D+00
 Coeff-Com:  0.201D-03-0.465D-01 0.281D+00 0.765D+00
 Coeff:      0.201D-03-0.465D-01 0.281D+00 0.765D+00
 Gap=     0.512 Goal=   None    Shift=    0.000
 RMSDP=2.23D-08 MaxDP=1.16D-06 DE=-2.18D-10 OVMax= 1.14D-06

 Cycle   5  Pass 1  IDiag  1:
 RMSU=  8.24D-09    CP:  1.00D+00  1.08D+00  1.23D+00  1.13D+00
 FoFJK:  IHMeth= 1 ICntrl=     0 DoSepK=T KAlg= 1 I1Cent= 0 FoldK=F
 E= -2753.87012731228     Delta-E=        0.000000000003 Rises=F Damp=F
 DIIS: error= 3.10D-08 at cycle   5 NSaved=   5.
 NSaved= 5 IEnMin= 4 EnMin= -2753.87012731228     IErMin= 5 ErrMin= 3.10D-08
 ErrMax= 3.10D-08 EMaxC= 1.00D-01 BMatC= 1.36D-13 BMatP= 7.71D-12
 IDIUse=1 WtCom= 1.00D+00 WtEn= 0.00D+00
 Coeff-Com: -0.319D-04 0.998D-02-0.763D-01-0.599D-01 0.113D+01
 Coeff:     -0.319D-04 0.998D-02-0.763D-01-0.599D-01 0.113D+01
 Gap=     0.512 Goal=   None    Shift=    0.000
 RMSDP=1.12D-08 MaxDP=6.90D-07 DE= 2.73D-12 OVMax= 4.18D-07

 Cycle   6  Pass 1  IDiag  1:
 RMSU=  1.44D-09    CP:  1.00D+00  1.08D+00  1.23D+00  1.22D+00  1.17D+00
 FoFJK:  IHMeth= 1 ICntrl=     0 DoSepK=T KAlg= 1 I1Cent= 0 FoldK=F
 E= -2753.87012731228     Delta-E=       -0.000000000005 Rises=F Damp=F
 DIIS: error= 2.94D-09 at cycle   6 NSaved=   6.
 NSaved= 6 IEnMin= 6 EnMin= -2753.87012731228     IErMin= 6 ErrMin= 2.94D-09
 ErrMax= 2.94D-09 EMaxC= 1.00D-01 BMatC= 1.97D-15 BMatP= 1.36D-13
 IDIUse=1 WtCom= 1.00D+00 WtEn= 0.00D+00
 Coeff-Com:  0.412D-06-0.268D-03 0.295D-02-0.307D-02-0.843D-01 0.108D+01
 Coeff:      0.412D-06-0.268D-03 0.295D-02-0.307D-02-0.843D-01 0.108D+01
 Gap=     0.512 Goal=   None    Shift=    0.000
 RMSDP=5.14D-10 MaxDP=2.46D-08 DE=-4.55D-12 OVMax= 4.51D-08

 SCF Done:  E(RwB97XD) =  -2753.87012731     A.U. after    6 cycles
             Convg  =    0.5145D-09             -V/T =  2.0013
 KE= 2.750283246002D+03 PE=-6.580194521795D+03 EE= 1.076041148480D+03
 Leave Link  502 at Sun May  3 17:24:04 2020, MaxMem= 1073741824 cpu:     101.2
 (Enter /home/matheus/.gaussian/g09/l122.exe)
 Restoring MOs from calculation   4 to rwf.
 Counterpoise: doing MCBS calculation for fragment   1
 Leave Link  122 at Sun May  3 17:24:04 2020, MaxMem= 1073741824 cpu:       0.0
 (Enter /home/matheus/.gaussian/g09/l301.exe)
 Basis read from rwf:  (5D, 7F)
 No pseudopotential information found on rwf file.
 There are    92 symmetry adapted basis functions of A'  symmetry.
 There are    46 symmetry adapted basis functions of A"  symmetry.
 Integral buffers will be    131072 words long.
 Raffenetti 2 integral format.
 Two-electron integral symmetry is turned on.
   138 basis functions,   198 primitive gaussians,   160 cartesian basis functions
     9 alpha electrons        9 beta electrons
       nuclear repulsion energy        36.6006188945 Hartrees.
 IExCor= 4639 DFT=T Ex+Corr=wB97XD ExCW=0 ScaHFX=  1.000000
 ScaDFX=  1.000000  1.000000  1.000000  1.000000 ScalE2=  1.000000  1.000000
 IRadAn=      5 IRanWt=     -1 IRanGd=            0 ICorTp=0
  HFx wShort=  0.000000 wLong=  0.250000 cFull=  0.222036 cShort=  0.000000 cLong=  0.777964
  DFx wShort=  0.000000 wLong=  0.250000 cFull=  0.000000 cShort=  0.000000 cLong=  1.000000
 NAtoms=    5 NActive=    4 NUniq=    4 SFac= 1.00D+00 NAtFMM=   60 NAOKFM=F Big=F
 R6Disp: Dispersion energy =        -0.0001972383 Hartrees.
 Nuclear repulsion after empirical dispersion term =       36.6004216562 Hartrees.
 No density basis found on file   718.
 Leave Link  301 at Sun May  3 17:24:04 2020, MaxMem= 1073741824 cpu:       0.2
 (Enter /home/matheus/.gaussian/g09/l302.exe)
 NPDir=0 NMtPBC=     1 NCelOv=     1 NCel=       1 NClECP=     1 NCelD=      1
         NCelK=      1 NCelE2=     1 NClLst=     1 CellRange=     0.0.
 One-electron integrals computed using PRISM.
 NBasis=   138 RedAO= T  NBF=    92    46
 NBsUse=   138 1.00D-06 NBFU=    92    46
 Precomputing XC quadrature grid using
 IXCGrd= 2 IRadAn=           5 IRanWt=          -1 IRanGd=           0 AccXCQ= 0.00D+00.
 NRdTot=     344 NPtTot=       92556 NUsed=       95038 NTot=       95070
 NSgBfM=   160   160   160   160   160 NAtAll=     4     4.
 Leave Link  302 at Sun May  3 17:24:04 2020, MaxMem= 1073741824 cpu:       0.8
 (Enter /home/matheus/.gaussian/g09/l303.exe)
 DipDrv:  MaxL=1.
 Leave Link  303 at Sun May  3 17:24:04 2020, MaxMem= 1073741824 cpu:       0.1
 (Enter /home/matheus/.gaussian/g09/l401.exe)
 Initial guess read from the read-write file.
 Guess basis will be translated and rotated to current coordinates.
 Initial guess orbital symmetries:
       Occupied  (A') (A') (A') (A') (A') (A') (A") (A') (A")
       Virtual   (A') (A') (A') (A') (A') (A") (A') (A') (A') (A")
                 (A") (A') (A') (A') (A") (A') (A') (A') (A') (A')
                 (A') (A") (A") (A') (A') (A") (A") (A') (A') (A")
                 (A') (A') (A") (A') (A') (A") (A') (A") (A') (A')
                 (A') (A') (A") (A") (A') (A') (A') (A") (A") (A')
                 (A') (A') (A") (A') (A') (A") (A') (A') (A") (A")
                 (A') (A') (A') (A") (A') (A') (A") (A') (A') (A")
                 (A") (A') (A') (A") (A') (A') (A') (A') (A") (A')
                 (A') (A") (A") (A') (A") (A") (A') (A") (A') (A")
                 (A') (A') (A') (A') (A') (A') (A') (A") (A") (A')
                 (A') (A') (A") (A') (A') (A") (A') (A") (A') (A")
                 (A') (A") (A") (A") (A') (A") (A") (A') (A') (A')
                 (A') (A") (A') (A') (A') (A') (A') (A') (A')
 The electronic state of the initial guess is 1-A'.
 Generating alternative initial guess.
 Harris functional with IExCor= 4639 diagonalized for initial guess.
 ExpMin= 2.53D-02 ExpMax= 1.53D+04 ExpMxC= 5.22D+02 IAcc=3 IRadAn=         5 AccDes= 0.00D+00
 HarFok:  IExCor= 4639 AccDes= 0.00D+00 IRadAn=         5 IDoV= 1
 ScaDFX=  1.000000  1.000000  1.000000  1.000000
 FoFCou: FMM=F IPFlag=           0 FMFlag=      100000 FMFlg1=           0
         NFxFlg=           0 DoJE=T BraDBF=F KetDBF=T FulRan=T
         Omega=  0.000000  0.000000  1.000000  0.000000  0.000000 ICntrl=     500 IOpCl=  0
         NMat0=    1 NMatS0=    1 NMatT0=    0 NMatD0=    1 NMtDS0=    0 NMtDT0=    0
         I1Cent=           4 NGrid=           0.
 Petite list used in FoFCou.
 Harris En= -145.942379259986    
 Leave Link  401 at Sun May  3 17:24:04 2020, MaxMem= 1073741824 cpu:       1.9
 (Enter /home/matheus/.gaussian/g09/l502.exe)
 Closed shell SCF:
 Requested convergence on RMS density matrix=1.00D-08 within 128 cycles.
 Requested convergence on MAX density matrix=1.00D-06.
 Requested convergence on             energy=1.00D-06.
 No special actions if energy rises.
 Using DIIS extrapolation, IDIIS=  1040.
 Integral symmetry usage will be decided dynamically.
        94980 words used for storage of precomputed grid.
 IEnd=      192406 IEndB=      192406 NGot=  1073741824 MDV=  1073591819
 LenX=  1073591819 LenY=  1073565778
 Fock matrices will be formed incrementally for  20 cycles.

 Cycle   1  Pass 1  IDiag  1:
 FoFJK:  IHMeth= 1 ICntrl=     0 DoSepK=T KAlg= 1 I1Cent= 0 FoldK=F
 FoFCou: FMM=F IPFlag=           0 FMFlag=      100000 FMFlg1=           0
         NFxFlg=           0 DoJE=T BraDBF=F KetDBF=F FulRan=T
         Omega=  0.000000  0.000000  1.000000  0.000000  0.000000 ICntrl=     500 IOpCl=  0
         NMat0=    1 NMatS0=    1 NMatT0=    0 NMatD0=    1 NMtDS0=    0 NMtDT0=    0
         I1Cent=           0 NGrid=           0.
 Petite list used in FoFCou.
 E= -151.556739916865    
 DIIS: error= 3.24D-11 at cycle   1 NSaved=   1.
 NSaved= 1 IEnMin= 1 EnMin= -151.556739916865     IErMin= 1 ErrMin= 3.24D-11
 ErrMax= 3.24D-11 EMaxC= 1.00D-01 BMatC= 1.84D-19 BMatP= 1.84D-19
 IDIUse=1 WtCom= 1.00D+00 WtEn= 0.00D+00
 Coeff-Com:  0.100D+01
 Coeff:      0.100D+01
 Gap=     0.405 Goal=   None    Shift=    0.000
 RMSDP=3.14D-12 MaxDP=1.40D-10              OVMax= 1.75D-10

 SCF Done:  E(RwB97XD) =  -151.556739917     A.U. after    1 cycles
             Convg  =    0.3140D-11             -V/T =  2.0061
 KE= 1.506331434479D+02 PE=-4.316724834548D+02 EE= 9.288217843391D+01
 Leave Link  502 at Sun May  3 17:24:05 2020, MaxMem= 1073741824 cpu:       7.3
 (Enter /home/matheus/.gaussian/g09/l122.exe)
 Restoring MOs from calculation   5 to rwf.
 Counterpoise: doing MCBS calculation for fragment   2
 Leave Link  122 at Sun May  3 17:24:05 2020, MaxMem= 1073741824 cpu:       0.0
 (Enter /home/matheus/.gaussian/g09/l301.exe)
 Basis read from rwf:  (5D, 7F)
 No pseudopotential information found on rwf file.
 There are    39 symmetry adapted basis functions of A'  symmetry.
 There are    20 symmetry adapted basis functions of A"  symmetry.
 Integral buffers will be    131072 words long.
 Raffenetti 2 integral format.
 Two-electron integral symmetry is turned on.
    59 basis functions,   217 primitive gaussians,    69 cartesian basis functions
    18 alpha electrons       18 beta electrons
       nuclear repulsion energy         0.0000000000 Hartrees.
 IExCor= 4639 DFT=T Ex+Corr=wB97XD ExCW=0 ScaHFX=  1.000000
 ScaDFX=  1.000000  1.000000  1.000000  1.000000 ScalE2=  1.000000  1.000000
 IRadAn=      5 IRanWt=     -1 IRanGd=            0 ICorTp=0
  HFx wShort=  0.000000 wLong=  0.250000 cFull=  0.222036 cShort=  0.000000 cLong=  0.777964
  DFx wShort=  0.000000 wLong=  0.250000 cFull=  0.000000 cShort=  0.000000 cLong=  1.000000
 NAtoms=    5 NActive=    1 NUniq=    1 SFac= 1.00D+00 NAtFMM=   60 NAOKFM=F Big=F
 R6Disp: Dispersion energy =         0.0000000000 Hartrees.
 Nuclear repulsion after empirical dispersion term =        0.0000000000 Hartrees.
 No density basis found on file   718.
 Leave Link  301 at Sun May  3 17:24:05 2020, MaxMem= 1073741824 cpu:       0.2
 (Enter /home/matheus/.gaussian/g09/l302.exe)
 NPDir=0 NMtPBC=     1 NCelOv=     1 NCel=       1 NClECP=     1 NCelD=      1
         NCelK=      1 NCelE2=     1 NClLst=     1 CellRange=     0.0.
 One-electron integrals computed using PRISM.
 NBasis=    59 RedAO= T  NBF=    39    20
 NBsUse=    59 1.00D-06 NBFU=    39    20
 Precomputing XC quadrature grid using
 IXCGrd= 2 IRadAn=           5 IRanWt=          -1 IRanGd=           0 AccXCQ= 0.00D+00.
 NRdTot=      81 NPtTot=       30352 NUsed=       30981 NTot=       31013
 NSgBfM=    69    69    69    69    69 NAtAll=     1     1.
 Leave Link  302 at Sun May  3 17:24:05 2020, MaxMem= 1073741824 cpu:       0.7
 (Enter /home/matheus/.gaussian/g09/l303.exe)
 DipDrv:  MaxL=1.
 Leave Link  303 at Sun May  3 17:24:05 2020, MaxMem= 1073741824 cpu:       0.1
 (Enter /home/matheus/.gaussian/g09/l401.exe)
 Initial guess read from the read-write file.
 Guess basis will be translated and rotated to current coordinates.
 Initial guess orbital symmetries:
       Occupied  (A') (A') (A') (A") (A') (A') (A") (A') (A') (A')
                 (A") (A") (A') (A') (A') (A') (A') (A")
       Virtual   (A') (A') (A') (A") (A") (A') (A") (A') (A') (A')
                 (A') (A") (A') (A") (A') (A") (A') (A') (A') (A")
                 (A') (A") (A") (A') (A') (A') (A') (A") (A") (A")
                 (A') (A') (A') (A") (A') (A') (A") (A') (A') (A")
                 (A')
 The electronic state of the initial guess is 1-A'.
 Generating alternative initial guess.
 Harris functional with IExCor= 4639 diagonalized for initial guess.
 ExpMin= 4.00D-02 ExpMax= 1.17D+07 ExpMxC= 1.33D+04 IAcc=3 IRadAn=         5 AccDes= 0.00D+00
 HarFok:  IExCor= 4639 AccDes= 0.00D+00 IRadAn=         5 IDoV= 1
 ScaDFX=  1.000000  1.000000  1.000000  1.000000
 FoFCou: FMM=F IPFlag=           0 FMFlag=      100000 FMFlg1=           0
         NFxFlg=           0 DoJE=T BraDBF=F KetDBF=T FulRan=T
         Omega=  0.000000  0.000000  1.000000  0.000000  0.000000 ICntrl=     500 IOpCl=  0
         NMat0=    1 NMatS0=    1 NMatT0=    0 NMatD0=    1 NMtDS0=    0 NMtDT0=    0
         I1Cent=           4 NGrid=           0.
 Petite list used in FoFCou.
 DSYEVD returned Info=          79 IAlg= 4 N=    39 NDim=    59 NE2=    18198841 trying DSYEV.
 Harris En= -2729.45839233129    
 Leave Link  401 at Sun May  3 17:24:05 2020, MaxMem= 1073741824 cpu:       1.0
 (Enter /home/matheus/.gaussian/g09/l502.exe)
 Closed shell SCF:
 Requested convergence on RMS density matrix=1.00D-08 within 128 cycles.
 Requested convergence on MAX density matrix=1.00D-06.
 Requested convergence on             energy=1.00D-06.
 No special actions if energy rises.
 Using DIIS extrapolation, IDIIS=  1040.
 Integral symmetry usage will be decided dynamically.
        30923 words used for storage of precomputed grid.
 IEnd=       64425 IEndB=       64425 NGot=  1073741824 MDV=  1073698870
 LenX=  1073698870 LenY=  1073693668
 Fock matrices will be formed incrementally for  20 cycles.

 Cycle   1  Pass 1  IDiag  1:
 FoFJK:  IHMeth= 1 ICntrl=     0 DoSepK=T KAlg= 1 I1Cent= 0 FoldK=F
 FoFCou: FMM=F IPFlag=           0 FMFlag=      100000 FMFlg1=           0
         NFxFlg=           0 DoJE=T BraDBF=F KetDBF=F FulRan=T
         Omega=  0.000000  0.000000  1.000000  0.000000  0.000000 ICntrl=     500 IOpCl=  0
         NMat0=    1 NMatS0=    1 NMatT0=    0 NMatD0=    1 NMtDS0=    0 NMtDT0=    0
         I1Cent=           0 NGrid=           0.
 Petite list used in FoFCou.
 E= -2753.87011063501    
 DIIS: error= 1.78D-13 at cycle   1 NSaved=   1.
 NSaved= 1 IEnMin= 1 EnMin= -2753.87011063501     IErMin= 1 ErrMin= 1.78D-13
 ErrMax= 1.78D-13 EMaxC= 1.00D-01 BMatC= 6.55D-25 BMatP= 6.55D-25
 IDIUse=1 WtCom= 1.00D+00 WtEn= 0.00D+00
 Coeff-Com:  0.100D+01
 Coeff:      0.100D+01
 Gap=     0.578 Goal=   None    Shift=    0.000
 RMSDP=1.10D-14 MaxDP=1.83D-13              OVMax= 7.62D-14

 SCF Done:  E(RwB97XD) =  -2753.87011064     A.U. after    1 cycles
             Convg  =    0.1095D-13             -V/T =  2.0013
 KE= 2.750289370128D+03 PE=-6.580200885036D+03 EE= 1.076041404273D+03
 Leave Link  502 at Sun May  3 17:24:07 2020, MaxMem= 1073741824 cpu:      11.6
 (Enter /home/matheus/.gaussian/g09/l122.exe)
 Restoring MOs from calculation   1 to rwf.
 Counterpoise: corrected energy =   -2905.427143523405
 Counterpoise: BSSE energy =       0.000021205744
 Leave Link  122 at Sun May  3 17:24:07 2020, MaxMem= 1073741824 cpu:       0.0
 (Enter /home/matheus/.gaussian/g09/l108.exe)
 Scan completed.

 Summary of the potential surface scan:
   N      R1          SCF    
 ----  ---------  -----------
    1     3.0000  -2753.87011
    2     3.1000  -2753.87011
    3     3.2000  -2753.87011
    4     3.3000  -2753.87011
    5     3.4000  -2753.87011
    6     3.5000  -2753.87011
    7     3.6000  -2753.87011
    8     3.7000  -2753.87011
    9     3.8000  -2753.87011
   10     3.9000  -2753.87011
   11     4.0000  -2753.87011
   12     4.1000  -2753.87011
   13     4.2000  -2753.87011
   14     4.3000  -2753.87011
   15     4.4000  -2753.87011
   16     4.5000  -2753.87011
   17     4.6000  -2753.87011
   18     4.7000  -2753.87011
   19     4.8000  -2753.87011
   20     4.9000  -2753.87011
   21     5.0000  -2753.87011
 ----  ---------  -----------
  
 Leave Link  108 at Sun May  3 17:24:07 2020, MaxMem= 1073741824 cpu:       0.0
 (Enter /home/matheus/.gaussian/g09/l9999.exe)

 Test job not archived.
 1\1\GINC-REDGIANT\Scan\RwB97XD\Aug-CC-pVTZ\H2Kr1O2\ROOT\03-May-2020\1\
 \#p wb97xd/aug-cc-PVTz iop(3/107=0250000000) iop(3/108=0250000000) int
 =ultrafine counterpoise=2 Scan\\TCC\\0,1\O,0,0.,0.,0.725\O,0,0.,0.,-0.
 725\H,0,0.,-0.9187205947,1.0235104166\H,0,0.,0.9187205947,-1.023510416
 6\Kr,0,0.,R1,0.\\R1=3.,s,20,0.1\\Version=EM64L-G09RevC.01\State=1-A'\H
 F=-2753.8701106,-2753.8701106,-2753.8701106,-2753.8701106,-2753.870110
 6,-2753.8701106,-2753.8701106,-2753.8701106,-2753.8701106,-2753.870110
 6,-2753.8701106,-2753.8701106,-2753.8701106,-2753.8701106,-2753.870110
 6,-2753.8701106,-2753.8701106,-2753.8701106,-2753.8701106,-2753.870110
 6,-2753.8701106\RMSD=9.767e-09,1.813e-10,5.264e-11,3.362e-11,1.892e-11
 ,1.154e-11,6.893e-12,4.156e-12,2.492e-12,1.501e-12,9.102e-13,5.462e-13
 ,3.263e-13,2.021e-13,1.170e-13,6.909e-14,4.140e-14,2.681e-14,1.854e-14
 ,1.324e-14,1.095e-14\PG=CS [SG(H2Kr1O2)]\\@


 ADAM SMITH SAID, "THE REAL PRICE OF ANYTHING IS THE TOIL AND TROUBLE
 OF ACQUIRING IT."  BUT IN ALL UNDERTAKINGS WITH NATURE WE SHOULD FIRST
 READ CAREFULLY THE SMALL PRINT IN THE CONTRACT. THIS MIGHT DISCLOSE
 THAT THE REAL PRICE IS TO BE PAID BY THOSE WHO INHERIT THE DEPLETION
 AND DESPOILATION THAT FOLLOWS.
                               -- E. R. HARRISON IN "COSMOLOGY" (1980)
 Job cpu time:  0 days  2 hours 44 minutes 55.7 seconds.
 File lengths (MBytes):  RWF=     33 Int=      0 D2E=      0 Chk=      8 Scr=      1
 Normal termination of Gaussian 09 at Sun May  3 17:24:07 2020.
