 Entering Gaussian System, Link 0=g09
 Input=/home/matheus/.tcc/Inputs-wb97xd/H2O2-Kr_26.com
 Output=/home/matheus/.tcc/Logs-wb97xd/H2O2-Kr_26.log
 Initial command:
 /home/matheus/.gaussian/g09/l1.exe /home/matheus/.gaussian/g09/scratch/Gau-25191.inp -scrdir=/home/matheus/.gaussian/g09/scratch/
 Entering Link 1 = /home/matheus/.gaussian/g09/l1.exe PID=     25194.
  
 Copyright (c) 1988,1990,1992,1993,1995,1998,2003,2009,2011,
            Gaussian, Inc.  All Rights Reserved.
  
 This is part of the Gaussian(R) 09 program.  It is based on
 the Gaussian(R) 03 system (copyright 2003, Gaussian, Inc.),
 the Gaussian(R) 98 system (copyright 1998, Gaussian, Inc.),
 the Gaussian(R) 94 system (copyright 1995, Gaussian, Inc.),
 the Gaussian 92(TM) system (copyright 1992, Gaussian, Inc.),
 the Gaussian 90(TM) system (copyright 1990, Gaussian, Inc.),
 the Gaussian 88(TM) system (copyright 1988, Gaussian, Inc.),
 the Gaussian 86(TM) system (copyright 1986, Carnegie Mellon
 University), and the Gaussian 82(TM) system (copyright 1983,
 Carnegie Mellon University). Gaussian is a federally registered
 trademark of Gaussian, Inc.
  
 This software contains proprietary and confidential information,
 including trade secrets, belonging to Gaussian, Inc.
  
 This software is provided under written license and may be
 used, copied, transmitted, or stored only in accord with that
 written license.
  
 The following legend is applicable only to US Government
 contracts under FAR:
  
                    RESTRICTED RIGHTS LEGEND
  
 Use, reproduction and disclosure by the US Government is
 subject to restrictions as set forth in subparagraphs (a)
 and (c) of the Commercial Computer Software - Restricted
 Rights clause in FAR 52.227-19.
  
 Gaussian, Inc.
 340 Quinnipiac St., Bldg. 40, Wallingford CT 06492
  
  
 ---------------------------------------------------------------
 Warning -- This program may not be used in any manner that
 competes with the business of Gaussian, Inc. or will provide
 assistance to any competitor of Gaussian, Inc.  The licensee
 of this program is prohibited from giving any competitor of
 Gaussian, Inc. access to this program.  By using this program,
 the user acknowledges that Gaussian, Inc. is engaged in the
 business of creating and licensing software in the field of
 computational chemistry and represents and warrants to the
 licensee that it is not a competitor of Gaussian, Inc. and that
 it will not use this program in any manner prohibited above.
 ---------------------------------------------------------------
  

 Cite this work as:
 Gaussian 09, Revision C.01,
 M. J. Frisch, G. W. Trucks, H. B. Schlegel, G. E. Scuseria, 
 M. A. Robb, J. R. Cheeseman, G. Scalmani, V. Barone, B. Mennucci, 
 G. A. Petersson, H. Nakatsuji, M. Caricato, X. Li, H. P. Hratchian, 
 A. F. Izmaylov, J. Bloino, G. Zheng, J. L. Sonnenberg, M. Hada, 
 M. Ehara, K. Toyota, R. Fukuda, J. Hasegawa, M. Ishida, T. Nakajima, 
 Y. Honda, O. Kitao, H. Nakai, T. Vreven, J. A. Montgomery, Jr., 
 J. E. Peralta, F. Ogliaro, M. Bearpark, J. J. Heyd, E. Brothers, 
 K. N. Kudin, V. N. Staroverov, T. Keith, R. Kobayashi, J. Normand, 
 K. Raghavachari, A. Rendell, J. C. Burant, S. S. Iyengar, J. Tomasi, 
 M. Cossi, N. Rega, J. M. Millam, M. Klene, J. E. Knox, J. B. Cross, 
 V. Bakken, C. Adamo, J. Jaramillo, R. Gomperts, R. E. Stratmann, 
 O. Yazyev, A. J. Austin, R. Cammi, C. Pomelli, J. W. Ochterski, 
 R. L. Martin, K. Morokuma, V. G. Zakrzewski, G. A. Voth, 
 P. Salvador, J. J. Dannenberg, S. Dapprich, A. D. Daniels, 
 O. Farkas, J. B. Foresman, J. V. Ortiz, J. Cioslowski, 
 and D. J. Fox, Gaussian, Inc., Wallingford CT, 2010.
 
 ******************************************
 Gaussian 09:  EM64L-G09RevC.01 23-Sep-2011
                 4-May-2020 
 ******************************************
 %mem=8GB
 %nproc=8
 Will use up to    8 processors via shared memory.
 ----------------------------------------------------------------------
 #p wb97xd/aug-cc-PVTz iop(3/107=0250000000) iop(3/108=0250000000) int=
 ultrafine counterpoise=2 Scan
 ----------------------------------------------------------------------
 1/38=1,60=1,62=2/1,8;
 2/12=2,17=6,18=5,29=3,40=1/2;
 1/38=1,53=5172,62=2/22;
 3/5=16,6=1,7=10,11=2,16=1,25=1,30=1,74=-58,75=-5,107=250000000,108=250000000/1,2,3;
 4//1;
 5/5=2,38=5/2;
 6/7=2,8=2,9=2,10=2,18=1,28=1/1;
 1/53=4052,62=2,63=1/22;
 3/5=7,6=11,7=10,11=2,16=1,25=1,30=1,74=-58,75=-5,82=7,107=250000000,108=250000000/1,2,3;
 4//1;
 5/5=2,38=5/2;
 6/7=2,8=2,9=2,10=2,18=1,28=1/1;
 1/53=3042,62=2,63=2/22;
 3/5=7,6=11,7=10,11=2,16=1,25=1,30=1,74=-58,75=-5,82=7,107=250000000,108=250000000/1,2,3;
 4//1;
 5/5=2,38=5/2;
 6/7=2,8=2,9=2,10=2,18=1,28=1/1;
 1/53=2032,62=2,63=3/22;
 3/5=7,6=11,7=10,11=2,16=1,25=1,30=1,74=-58,75=-5,82=7,107=250000000,108=250000000/1,2,3;
 4//1;
 5/5=2,38=5/2;
 6/7=2,8=2,9=2,10=2,18=1,28=1/1;
 1/53=1022,62=2,63=4/22;
 3/5=7,6=11,7=10,11=2,16=1,25=1,30=1,74=-58,75=-5,82=7,107=250000000,108=250000000/1,2,3;
 4//1;
 5/5=2,38=5/2;
 6/7=2,8=2,9=2,10=2,18=1,28=1/1;
 1/53=5014,62=2,63=5/22;
 1/60=1,62=2/8(1);
 99/9=1/99;
 2/29=3/2;
 1/53=5173,62=2/22;
 3/5=7,6=11,7=10,11=2,16=1,25=1,30=1,74=-58,75=-5,82=7,107=250000000,108=250000000/1,2,3;
 4/5=5,16=3/1;
 5/5=2,38=5/2;
 1/53=4053,62=2,63=1/22;
 3/5=7,6=11,7=10,11=2,16=1,25=1,30=1,74=-58,75=-5,82=7,107=250000000,108=250000000/1,2,3;
 4/5=5,16=3/1;
 5/5=2,38=5/2;
 1/53=3043,62=2,63=2/22;
 3/5=7,6=11,7=10,11=2,16=1,25=1,30=1,74=-58,75=-5,82=7,107=250000000,108=250000000/1,2,3;
 4/5=5,16=3/1;
 5/5=2,38=5/2;
 1/53=2033,62=2,63=3/22;
 3/5=7,6=11,7=10,11=2,16=1,25=1,30=1,74=-58,75=-5,82=7,107=250000000,108=250000000/1,2,3;
 4/5=5,16=3/1;
 5/5=2,38=5/2;
 1/53=1024,62=2,63=4/22;
 3/5=7,6=11,7=10,11=2,16=1,25=1,30=1,74=-58,75=-5,82=7,107=250000000,108=250000000/1,2,3;
 4/5=5,16=3/1;
 5/5=2,38=5/2;
 1/53=5014,62=2,63=5/22;
 1/60=1,62=2/8(-22);
 99/9=1/99;
 Leave Link    1 at Mon May  4 11:25:52 2020, MaxMem= 1073741824 cpu:       0.1
 (Enter /home/matheus/.gaussian/g09/l101.exe)
 ---
 TCC
 ---
 Charge =  0 Multiplicity = 1 in supermolecule
 Charge =  0 Multiplicity = 1 in fragment  1.
 Charge =  0 Multiplicity = 1 in fragment  2.
 Symbolic Z-Matrix:
 O(Fragment=1)         0.        0.        0.725 
 O(Fragment=1)         0.        0.       -0.725 
 H(Fragment=1)        -0.90476  -0.15953   1.02351 
 H(Fragment=1)         0.        0.91872  -1.02351 
 Kr(Fragment=2)        0.       R1        0. 
       Variables:
  R1                    3.     Scan 20    0.1    
 
 NAtoms=      5 NQM=        0 NQMF=       0 NMMI=      5 NMMIF=      0
                NMic=       0 NMicF=      0.
                    Isotopes and Nuclear Properties:
 (Nuclear quadrupole moments (NQMom) in fm**2, nuclear magnetic moments (NMagM)
  in nuclear magnetons)

  Atom         1           2           3           4           5
 IAtWgt=          16          16           1           1          84
 AtmWgt=  15.9949146  15.9949146   1.0078250   1.0078250  83.9115064
 NucSpn=           0           0           1           1           0
 AtZEff=   0.0000000   0.0000000   0.0000000   0.0000000   0.0000000
 NQMom=    0.0000000   0.0000000   0.0000000   0.0000000   0.0000000
 NMagM=    0.0000000   0.0000000   2.7928460   2.7928460   0.0000000
 Leave Link  101 at Mon May  4 11:25:52 2020, MaxMem= 1073741824 cpu:       0.3
 (Enter /home/matheus/.gaussian/g09/l108.exe)
 Scan the potential surface.
 Variable   Value     No. Steps Step-Size
 -------- ----------- --------- ---------
     1       3.000000      20      0.1000
 A total of     21 points will be computed.
 Leave Link  108 at Mon May  4 11:25:52 2020, MaxMem= 1073741824 cpu:       0.0
 (Enter /home/matheus/.gaussian/g09/l202.exe)
 ---------------------------------------------------------------------------------------------------
                            Z-MATRIX (ANGSTROMS AND DEGREES)
   CD    Cent   Atom    N1       Length/X        N2       Alpha/Y        N3        Beta/Z          J
 ---------------------------------------------------------------------------------------------------
      1      1  O        0   0.000000          0.000000          0.725000
      2      2  O        0   0.000000          0.000000         -0.725000
      3      3  H        0  -0.904763         -0.159534          1.023510
      4      4  H        0   0.000000          0.918721         -1.023510
      5      5  Kr       0   0.000000          3.000000          0.000000
 ---------------------------------------------------------------------------------------------------
                         Z-Matrix orientation:                         
 ---------------------------------------------------------------------
 Center     Atomic      Atomic             Coordinates (Angstroms)
 Number     Number       Type             X           Y           Z
 ---------------------------------------------------------------------
      1          8           0        0.000000    0.000000    0.725000
      2          8           0        0.000000    0.000000   -0.725000
      3          1           0       -0.904763   -0.159534    1.023510
      4          1           0        0.000000    0.918721   -1.023510
      5         36           0        0.000000    3.000000    0.000000
 ---------------------------------------------------------------------
                    Distance matrix (angstroms):
                    1          2          3          4          5
     1  O    0.000000
     2  O    1.450000   0.000000
     3  H    0.966000   1.975180   0.000000
     4  H    1.975180   0.966000   2.484255   0.000000
     5  Kr   3.086361   3.086361   3.442212   2.319331   0.000000
 Stoichiometry    H2KrO2
 Framework group  C1[X(H2KrO2)]
 Deg. of freedom     9
 Full point group                 C1      NOp   1
 Largest Abelian subgroup         C1      NOp   1
 Largest concise Abelian subgroup C1      NOp   1
                         Standard orientation:                         
 ---------------------------------------------------------------------
 Center     Atomic      Atomic             Coordinates (Angstroms)
 Number     Number       Type             X           Y           Z
 ---------------------------------------------------------------------
      1          8           0       -2.021768   -0.693300   -0.118861
      2          8           0       -2.004728    0.750466    0.014370
      3          1           0       -2.201795   -1.071309    0.751687
      4          1           0       -1.082725    1.035355    0.058021
      5         36           0        0.986014   -0.011705    0.000728
 ---------------------------------------------------------------------
 Rotational constants (GHZ):     25.6313314      2.3378634      2.1561704
 Leave Link  202 at Mon May  4 11:25:52 2020, MaxMem= 1073741824 cpu:       0.0
 (Enter /home/matheus/.gaussian/g09/l122.exe)
 Leave Link  122 at Mon May  4 11:25:52 2020, MaxMem= 1073741824 cpu:       0.0
 (Enter /home/matheus/.gaussian/g09/l301.exe)
 Standard basis: Aug-CC-pVTZ (5D, 7F)
 Ernie: Thresh=  0.10000D-02 Tol=  0.10000D-05 Strict=F.
 Ernie:  38 primitive shells out of 205 were deleted.
 There are   197 symmetry adapted basis functions of A   symmetry.
 Integral buffers will be    131072 words long.
 Raffenetti 2 integral format.
 Two-electron integral symmetry is turned on.
   197 basis functions,   415 primitive gaussians,   229 cartesian basis functions
    27 alpha electrons       27 beta electrons
       nuclear repulsion energy       149.1283769891 Hartrees.
 IExCor= 4639 DFT=T Ex+Corr=wB97XD ExCW=0 ScaHFX=  1.000000
 ScaDFX=  1.000000  1.000000  1.000000  1.000000 ScalE2=  1.000000  1.000000
 IRadAn=      5 IRanWt=     -1 IRanGd=            0 ICorTp=0
  HFx wShort=  0.000000 wLong=  0.250000 cFull=  0.222036 cShort=  0.000000 cLong=  0.777964
  DFx wShort=  0.000000 wLong=  0.250000 cFull=  0.000000 cShort=  0.000000 cLong=  1.000000
 NAtoms=    5 NActive=    5 NUniq=    5 SFac= 1.00D+00 NAtFMM=   60 NAOKFM=F Big=F
 R6Disp: Dispersion energy =        -0.0009223841 Hartrees.
 Nuclear repulsion after empirical dispersion term =      149.1274546049 Hartrees.
 Leave Link  301 at Mon May  4 11:25:52 2020, MaxMem= 1073741824 cpu:       0.2
 (Enter /home/matheus/.gaussian/g09/l302.exe)
 NPDir=0 NMtPBC=     1 NCelOv=     1 NCel=       1 NClECP=     1 NCelD=      1
         NCelK=      1 NCelE2=     1 NClLst=     1 CellRange=     0.0.
 One-electron integrals computed using PRISM.
 NBasis=   197 RedAO= T  NBF=   197
 NBsUse=   197 1.00D-06 NBFU=   197
 Precomputing XC quadrature grid using
 IXCGrd= 2 IRadAn=           5 IRanWt=          -1 IRanGd=           0 AccXCQ= 0.00D+00.
 NRdTot=     427 NPtTot=      123512 NUsed=      126579 NTot=      126611
 NSgBfM=   229   229   229   229   229 NAtAll=     5     5.
 Leave Link  302 at Mon May  4 11:25:52 2020, MaxMem= 1073741824 cpu:       1.0
 (Enter /home/matheus/.gaussian/g09/l303.exe)
 DipDrv:  MaxL=1.
 Leave Link  303 at Mon May  4 11:25:52 2020, MaxMem= 1073741824 cpu:       0.2
 (Enter /home/matheus/.gaussian/g09/l401.exe)
 Harris functional with IExCor= 4639 diagonalized for initial guess.
 ExpMin= 2.53D-02 ExpMax= 1.17D+07 ExpMxC= 1.33D+04 IAcc=3 IRadAn=         5 AccDes= 0.00D+00
 HarFok:  IExCor= 4639 AccDes= 0.00D+00 IRadAn=         5 IDoV= 1
 ScaDFX=  1.000000  1.000000  1.000000  1.000000
 FoFCou: FMM=F IPFlag=           0 FMFlag=      100000 FMFlg1=           0
         NFxFlg=           0 DoJE=T BraDBF=F KetDBF=T FulRan=T
         Omega=  0.000000  0.000000  1.000000  0.000000  0.000000 ICntrl=     500 IOpCl=  0
         NMat0=    1 NMatS0=    1 NMatT0=    0 NMatD0=    1 NMtDS0=    0 NMtDT0=    0
         I1Cent=           4 NGrid=           0.
 Petite list used in FoFCou.
 Harris En= -2875.39794380182    
 Initial guess orbital symmetries:
       Occupied  (A) (A) (A) (A) (A) (A) (A) (A) (A) (A) (A) (A)
                 (A) (A) (A) (A) (A) (A) (A) (A) (A) (A) (A) (A)
                 (A) (A) (A)
       Virtual   (A) (A) (A) (A) (A) (A) (A) (A) (A) (A) (A) (A)
                 (A) (A) (A) (A) (A) (A) (A) (A) (A) (A) (A) (A)
                 (A) (A) (A) (A) (A) (A) (A) (A) (A) (A) (A) (A)
                 (A) (A) (A) (A) (A) (A) (A) (A) (A) (A) (A) (A)
                 (A) (A) (A) (A) (A) (A) (A) (A) (A) (A) (A) (A)
                 (A) (A) (A) (A) (A) (A) (A) (A) (A) (A) (A) (A)
                 (A) (A) (A) (A) (A) (A) (A) (A) (A) (A) (A) (A)
                 (A) (A) (A) (A) (A) (A) (A) (A) (A) (A) (A) (A)
                 (A) (A) (A) (A) (A) (A) (A) (A) (A) (A) (A) (A)
                 (A) (A) (A) (A) (A) (A) (A) (A) (A) (A) (A) (A)
                 (A) (A) (A) (A) (A) (A) (A) (A) (A) (A) (A) (A)
                 (A) (A) (A) (A) (A) (A) (A) (A) (A) (A) (A) (A)
                 (A) (A) (A) (A) (A) (A) (A) (A) (A) (A) (A) (A)
                 (A) (A) (A) (A) (A) (A) (A) (A) (A) (A) (A) (A)
                 (A) (A)
 The electronic state of the initial guess is 1-A.
 Leave Link  401 at Mon May  4 11:25:53 2020, MaxMem= 1073741824 cpu:       4.4
 (Enter /home/matheus/.gaussian/g09/l502.exe)
 Closed shell SCF:
 Requested convergence on RMS density matrix=1.00D-08 within 128 cycles.
 Requested convergence on MAX density matrix=1.00D-06.
 Requested convergence on             energy=1.00D-06.
 No special actions if energy rises.
 Using DIIS extrapolation, IDIIS=  1040.
 Integral symmetry usage will be decided dynamically.
       126521 words used for storage of precomputed grid.
 IEnd=      305468 IEndB=      305468 NGot=  1073741824 MDV=  1073505667
 LenX=  1073505667 LenY=  1073452785
 Fock matrices will be formed incrementally for  20 cycles.

 Cycle   1  Pass 1  IDiag  1:
 FoFJK:  IHMeth= 1 ICntrl=     0 DoSepK=T KAlg= 1 I1Cent= 0 FoldK=F
 FoFCou: FMM=F IPFlag=           0 FMFlag=      100000 FMFlg1=           0
         NFxFlg=           0 DoJE=T BraDBF=F KetDBF=F FulRan=T
         Omega=  0.000000  0.000000  1.000000  0.000000  0.000000 ICntrl=     500 IOpCl=  0
         NMat0=    1 NMatS0=    1 NMatT0=    0 NMatD0=    1 NMtDS0=    0 NMtDT0=    0
         I1Cent=           0 NGrid=           0.
 Symmetry not used in FoFCou.
 E= -2904.90311295237    
 DIIS: error= 6.04D-02 at cycle   1 NSaved=   1.
 NSaved= 1 IEnMin= 1 EnMin= -2904.90311295237     IErMin= 1 ErrMin= 6.04D-02
 ErrMax= 6.04D-02 EMaxC= 1.00D-01 BMatC= 2.22D+00 BMatP= 2.22D+00
 IDIUse=3 WtCom= 3.96D-01 WtEn= 6.04D-01
 Coeff-Com:  0.100D+01
 Coeff-En:   0.100D+01
 Coeff:      0.100D+01
 Gap=     0.562 Goal=   None    Shift=    0.000
 GapD=    0.562 DampG=2.000 DampE=0.500 DampFc=1.0000 IDamp=-1.
 RMSDP=6.12D-03 MaxDP=3.66D-01              OVMax= 1.82D-01

 Cycle   2  Pass 1  IDiag  1:
 RMSU=  4.30D-03    CP:  1.03D+00
 FoFJK:  IHMeth= 1 ICntrl=     0 DoSepK=T KAlg= 1 I1Cent= 0 FoldK=F
 E= -2905.22329643687     Delta-E=       -0.320183484503 Rises=F Damp=F
 DIIS: error= 2.89D-02 at cycle   2 NSaved=   2.
 NSaved= 2 IEnMin= 2 EnMin= -2905.22329643687     IErMin= 2 ErrMin= 2.89D-02
 ErrMax= 2.89D-02 EMaxC= 1.00D-01 BMatC= 5.66D-01 BMatP= 2.22D+00
 IDIUse=3 WtCom= 7.11D-01 WtEn= 2.89D-01
 Coeff-Com:  0.328D+00 0.672D+00
 Coeff-En:   0.198D+00 0.802D+00
 Coeff:      0.291D+00 0.709D+00
 Gap=     0.509 Goal=   None    Shift=    0.000
 RMSDP=2.67D-03 MaxDP=1.56D-01 DE=-3.20D-01 OVMax= 7.37D-02

 Cycle   3  Pass 1  IDiag  1:
 RMSU=  5.61D-04    CP:  1.02D+00  5.83D-01
 FoFJK:  IHMeth= 1 ICntrl=     0 DoSepK=T KAlg= 1 I1Cent= 0 FoldK=F
 E= -2905.41844510206     Delta-E=       -0.195148665192 Rises=F Damp=F
 DIIS: error= 6.46D-03 at cycle   3 NSaved=   3.
 NSaved= 3 IEnMin= 3 EnMin= -2905.41844510206     IErMin= 3 ErrMin= 6.46D-03
 ErrMax= 6.46D-03 EMaxC= 1.00D-01 BMatC= 1.75D-02 BMatP= 5.66D-01
 IDIUse=3 WtCom= 9.35D-01 WtEn= 6.46D-02
 Coeff-Com:  0.349D-01 0.186D+00 0.779D+00
 Coeff-En:   0.000D+00 0.000D+00 0.100D+01
 Coeff:      0.326D-01 0.174D+00 0.793D+00
 Gap=     0.457 Goal=   None    Shift=    0.000
 RMSDP=4.70D-04 MaxDP=1.89D-02 DE=-1.95D-01 OVMax= 2.58D-02

 Cycle   4  Pass 1  IDiag  1:
 RMSU=  2.30D-04    CP:  1.02D+00  6.38D-01  9.05D-01
 FoFJK:  IHMeth= 1 ICntrl=     0 DoSepK=T KAlg= 1 I1Cent= 0 FoldK=F
 E= -2905.42647567799     Delta-E=       -0.008030575922 Rises=F Damp=F
 DIIS: error= 2.44D-03 at cycle   4 NSaved=   4.
 NSaved= 4 IEnMin= 4 EnMin= -2905.42647567799     IErMin= 4 ErrMin= 2.44D-03
 ErrMax= 2.44D-03 EMaxC= 1.00D-01 BMatC= 1.80D-03 BMatP= 1.75D-02
 IDIUse=3 WtCom= 9.76D-01 WtEn= 2.44D-02
 Coeff-Com: -0.236D-02 0.463D-01 0.370D+00 0.586D+00
 Coeff-En:   0.000D+00 0.000D+00 0.000D+00 0.100D+01
 Coeff:     -0.230D-02 0.452D-01 0.361D+00 0.596D+00
 Gap=     0.442 Goal=   None    Shift=    0.000
 RMSDP=1.20D-04 MaxDP=6.86D-03 DE=-8.03D-03 OVMax= 6.84D-03

 Cycle   5  Pass 1  IDiag  1:
 RMSU=  4.03D-05    CP:  1.02D+00  6.36D-01  9.53D-01  7.04D-01
 FoFJK:  IHMeth= 1 ICntrl=     0 DoSepK=T KAlg= 1 I1Cent= 0 FoldK=F
 E= -2905.42756141439     Delta-E=       -0.001085736408 Rises=F Damp=F
 DIIS: error= 2.32D-04 at cycle   5 NSaved=   5.
 NSaved= 5 IEnMin= 5 EnMin= -2905.42756141439     IErMin= 5 ErrMin= 2.32D-04
 ErrMax= 2.32D-04 EMaxC= 1.00D-01 BMatC= 2.30D-05 BMatP= 1.80D-03
 IDIUse=3 WtCom= 9.98D-01 WtEn= 2.32D-03
 Coeff-Com: -0.142D-02 0.950D-02 0.959D-01 0.175D+00 0.721D+00
 Coeff-En:   0.000D+00 0.000D+00 0.000D+00 0.000D+00 0.100D+01
 Coeff:     -0.142D-02 0.947D-02 0.957D-01 0.174D+00 0.722D+00
 Gap=     0.441 Goal=   None    Shift=    0.000
 RMSDP=2.23D-05 MaxDP=9.92D-04 DE=-1.09D-03 OVMax= 1.42D-03

 Cycle   6  Pass 1  IDiag  1:
 RMSU=  1.41D-05    CP:  1.02D+00  6.36D-01  9.61D-01  7.21D-01  1.09D+00
 FoFJK:  IHMeth= 1 ICntrl=     0 DoSepK=T KAlg= 1 I1Cent= 0 FoldK=F
 E= -2905.42757325411     Delta-E=       -0.000011839717 Rises=F Damp=F
 DIIS: error= 1.55D-04 at cycle   6 NSaved=   6.
 NSaved= 6 IEnMin= 6 EnMin= -2905.42757325411     IErMin= 6 ErrMin= 1.55D-04
 ErrMax= 1.55D-04 EMaxC= 1.00D-01 BMatC= 1.02D-05 BMatP= 2.30D-05
 IDIUse=3 WtCom= 9.98D-01 WtEn= 1.55D-03
 Coeff-Com: -0.262D-03-0.603D-02-0.342D-01-0.462D-01 0.409D+00 0.678D+00
 Coeff-En:   0.000D+00 0.000D+00 0.000D+00 0.000D+00 0.197D+00 0.803D+00
 Coeff:     -0.262D-03-0.602D-02-0.342D-01-0.461D-01 0.409D+00 0.678D+00
 Gap=     0.441 Goal=   None    Shift=    0.000
 RMSDP=1.23D-05 MaxDP=4.62D-04 DE=-1.18D-05 OVMax= 6.90D-04

 Cycle   7  Pass 1  IDiag  1:
 RMSU=  3.67D-06    CP:  1.02D+00  6.36D-01  9.68D-01  7.29D-01  1.24D+00
                    CP:  8.20D-01
 FoFJK:  IHMeth= 1 ICntrl=     0 DoSepK=T KAlg= 1 I1Cent= 0 FoldK=F
 E= -2905.42758073035     Delta-E=       -0.000007476242 Rises=F Damp=F
 DIIS: error= 1.38D-05 at cycle   7 NSaved=   7.
 NSaved= 7 IEnMin= 7 EnMin= -2905.42758073035     IErMin= 7 ErrMin= 1.38D-05
 ErrMax= 1.38D-05 EMaxC= 1.00D-01 BMatC= 8.18D-08 BMatP= 1.02D-05
 IDIUse=1 WtCom= 1.00D+00 WtEn= 0.00D+00
 Coeff-Com:  0.278D-04-0.111D-02-0.816D-02-0.122D-01-0.336D-03 0.694D-01
 Coeff-Com:  0.952D+00
 Coeff:      0.278D-04-0.111D-02-0.816D-02-0.122D-01-0.336D-03 0.694D-01
 Coeff:      0.952D+00
 Gap=     0.441 Goal=   None    Shift=    0.000
 RMSDP=2.47D-06 MaxDP=8.03D-05 DE=-7.48D-06 OVMax= 2.07D-04

 Cycle   8  Pass 1  IDiag  1:
 RMSU=  8.37D-07    CP:  1.02D+00  6.36D-01  9.69D-01  7.31D-01  1.26D+00
                    CP:  8.72D-01  1.19D+00
 FoFJK:  IHMeth= 1 ICntrl=     0 DoSepK=T KAlg= 1 I1Cent= 0 FoldK=F
 E= -2905.42758089255     Delta-E=       -0.000000162195 Rises=F Damp=F
 DIIS: error= 3.86D-06 at cycle   8 NSaved=   8.
 NSaved= 8 IEnMin= 8 EnMin= -2905.42758089255     IErMin= 8 ErrMin= 3.86D-06
 ErrMax= 3.86D-06 EMaxC= 1.00D-01 BMatC= 4.91D-09 BMatP= 8.18D-08
 IDIUse=1 WtCom= 1.00D+00 WtEn= 0.00D+00
 Coeff-Com:  0.152D-04 0.255D-03 0.137D-02 0.158D-02-0.233D-01-0.328D-01
 Coeff-Com:  0.265D-01 0.103D+01
 Coeff:      0.152D-04 0.255D-03 0.137D-02 0.158D-02-0.233D-01-0.328D-01
 Coeff:      0.265D-01 0.103D+01
 Gap=     0.441 Goal=   None    Shift=    0.000
 RMSDP=7.24D-07 MaxDP=1.75D-05 DE=-1.62D-07 OVMax= 7.92D-05

 Cycle   9  Pass 1  IDiag  1:
 RMSU=  2.42D-07    CP:  1.02D+00  6.36D-01  9.69D-01  7.31D-01  1.27D+00
                    CP:  8.81D-01  1.27D+00  1.30D+00
 FoFJK:  IHMeth= 1 ICntrl=     0 DoSepK=T KAlg= 1 I1Cent= 0 FoldK=F
 E= -2905.42758090720     Delta-E=       -0.000000014654 Rises=F Damp=F
 DIIS: error= 1.44D-06 at cycle   9 NSaved=   9.
 NSaved= 9 IEnMin= 9 EnMin= -2905.42758090720     IErMin= 9 ErrMin= 1.44D-06
 ErrMax= 1.44D-06 EMaxC= 1.00D-01 BMatC= 4.46D-10 BMatP= 4.91D-09
 IDIUse=1 WtCom= 1.00D+00 WtEn= 0.00D+00
 Coeff-Com: -0.218D-05 0.682D-04 0.513D-03 0.595D-03 0.566D-03-0.229D-02
 Coeff-Com: -0.568D-01-0.886D-01 0.115D+01
 Coeff:     -0.218D-05 0.682D-04 0.513D-03 0.595D-03 0.566D-03-0.229D-02
 Coeff:     -0.568D-01-0.886D-01 0.115D+01
 Gap=     0.441 Goal=   None    Shift=    0.000
 RMSDP=2.66D-07 MaxDP=7.19D-06 DE=-1.47D-08 OVMax= 3.51D-05

 Cycle  10  Pass 1  IDiag  1:
 RMSU=  8.56D-08    CP:  1.02D+00  6.36D-01  9.69D-01  7.31D-01  1.27D+00
                    CP:  8.83D-01  1.28D+00  1.42D+00  1.45D+00
 FoFJK:  IHMeth= 1 ICntrl=     0 DoSepK=T KAlg= 1 I1Cent= 0 FoldK=F
 E= -2905.42758090900     Delta-E=       -0.000000001795 Rises=F Damp=F
 DIIS: error= 4.13D-07 at cycle  10 NSaved=  10.
 NSaved=10 IEnMin=10 EnMin= -2905.42758090900     IErMin=10 ErrMin= 4.13D-07
 ErrMax= 4.13D-07 EMaxC= 1.00D-01 BMatC= 5.58D-11 BMatP= 4.46D-10
 IDIUse=1 WtCom= 1.00D+00 WtEn= 0.00D+00
 Coeff-Com: -0.742D-06-0.170D-04-0.989D-04-0.105D-03 0.198D-02 0.298D-02
 Coeff-Com:  0.646D-03-0.120D+00 0.103D+00 0.101D+01
 Coeff:     -0.742D-06-0.170D-04-0.989D-04-0.105D-03 0.198D-02 0.298D-02
 Coeff:      0.646D-03-0.120D+00 0.103D+00 0.101D+01
 Gap=     0.441 Goal=   None    Shift=    0.000
 RMSDP=8.68D-08 MaxDP=2.00D-06 DE=-1.79D-09 OVMax= 1.23D-05

 Cycle  11  Pass 1  IDiag  1:
 RMSU=  2.18D-08    CP:  1.02D+00  6.36D-01  9.69D-01  7.31D-01  1.27D+00
                    CP:  8.82D-01  1.28D+00  1.44D+00  1.64D+00  1.32D+00
 FoFJK:  IHMeth= 1 ICntrl=     0 DoSepK=T KAlg= 1 I1Cent= 0 FoldK=F
 E= -2905.42758090917     Delta-E=       -0.000000000171 Rises=F Damp=F
 DIIS: error= 1.48D-07 at cycle  11 NSaved=  11.
 NSaved=11 IEnMin=11 EnMin= -2905.42758090917     IErMin=11 ErrMin= 1.48D-07
 ErrMax= 1.48D-07 EMaxC= 1.00D-01 BMatC= 6.21D-12 BMatP= 5.58D-11
 IDIUse=1 WtCom= 1.00D+00 WtEn= 0.00D+00
 Coeff-Com:  0.482D-06-0.681D-05-0.579D-04-0.494D-04-0.278D-03 0.263D-04
 Coeff-Com:  0.852D-02 0.982D-02-0.129D+00-0.938D-01 0.120D+01
 Coeff:      0.482D-06-0.681D-05-0.579D-04-0.494D-04-0.278D-03 0.263D-04
 Coeff:      0.852D-02 0.982D-02-0.129D+00-0.938D-01 0.120D+01
 Gap=     0.441 Goal=   None    Shift=    0.000
 RMSDP=3.63D-08 MaxDP=7.55D-07 DE=-1.71D-10 OVMax= 5.37D-06

 Cycle  12  Pass 1  IDiag  1:
 RMSU=  7.25D-09    CP:  1.02D+00  6.36D-01  9.69D-01  7.31D-01  1.27D+00
                    CP:  8.82D-01  1.28D+00  1.45D+00  1.70D+00  1.51D+00
                    CP:  1.40D+00
 FoFJK:  IHMeth= 1 ICntrl=     0 DoSepK=T KAlg= 1 I1Cent= 0 FoldK=F
 E= -2905.42758090920     Delta-E=       -0.000000000035 Rises=F Damp=F
 DIIS: error= 3.53D-08 at cycle  12 NSaved=  12.
 NSaved=12 IEnMin=12 EnMin= -2905.42758090920     IErMin=12 ErrMin= 3.53D-08
 ErrMax= 3.53D-08 EMaxC= 1.00D-01 BMatC= 3.17D-13 BMatP= 6.21D-12
 IDIUse=1 WtCom= 1.00D+00 WtEn= 0.00D+00
 Coeff-Com: -0.421D-07 0.896D-06 0.774D-05-0.335D-06-0.116D-03-0.178D-03
 Coeff-Com: -0.288D-03 0.611D-02 0.734D-02-0.572D-01-0.134D+00 0.118D+01
 Coeff:     -0.421D-07 0.896D-06 0.774D-05-0.335D-06-0.116D-03-0.178D-03
 Coeff:     -0.288D-03 0.611D-02 0.734D-02-0.572D-01-0.134D+00 0.118D+01
 Gap=     0.441 Goal=   None    Shift=    0.000
 RMSDP=8.89D-09 MaxDP=2.24D-07 DE=-3.55D-11 OVMax= 1.11D-06

 SCF Done:  E(RwB97XD) =  -2905.42758091     A.U. after   12 cycles
             Convg  =    0.8891D-08             -V/T =  2.0015
 KE= 2.900939518815D+03 PE=-7.236438783176D+03 EE= 1.280944228847D+03
 Leave Link  502 at Mon May  4 11:26:36 2020, MaxMem= 1073741824 cpu:     343.4
 (Enter /home/matheus/.gaussian/g09/l601.exe)
 Copying SCF densities to generalized density rwf, IOpCl= 0 IROHF=0.

 **********************************************************************

            Population analysis using the SCF density.

 **********************************************************************

 Orbital symmetries:
       Occupied  (A) (A) (A) (A) (A) (A) (A) (A) (A) (A) (A) (A)
                 (A) (A) (A) (A) (A) (A) (A) (A) (A) (A) (A) (A)
                 (A) (A) (A)
       Virtual   (A) (A) (A) (A) (A) (A) (A) (A) (A) (A) (A) (A)
                 (A) (A) (A) (A) (A) (A) (A) (A) (A) (A) (A) (A)
                 (A) (A) (A) (A) (A) (A) (A) (A) (A) (A) (A) (A)
                 (A) (A) (A) (A) (A) (A) (A) (A) (A) (A) (A) (A)
                 (A) (A) (A) (A) (A) (A) (A) (A) (A) (A) (A) (A)
                 (A) (A) (A) (A) (A) (A) (A) (A) (A) (A) (A) (A)
                 (A) (A) (A) (A) (A) (A) (A) (A) (A) (A) (A) (A)
                 (A) (A) (A) (A) (A) (A) (A) (A) (A) (A) (A) (A)
                 (A) (A) (A) (A) (A) (A) (A) (A) (A) (A) (A) (A)
                 (A) (A) (A) (A) (A) (A) (A) (A) (A) (A) (A) (A)
                 (A) (A) (A) (A) (A) (A) (A) (A) (A) (A) (A) (A)
                 (A) (A) (A) (A) (A) (A) (A) (A) (A) (A) (A) (A)
                 (A) (A) (A) (A) (A) (A) (A) (A) (A) (A) (A) (A)
                 (A) (A) (A) (A) (A) (A) (A) (A) (A) (A) (A) (A)
                 (A) (A)
 The electronic state is 1-A.
 Alpha  occ. eigenvalues -- -513.09366 -67.36194 -60.91074 -60.91062 -60.91053
 Alpha  occ. eigenvalues --  -19.34069 -19.33697  -9.81523  -7.50858  -7.50817
 Alpha  occ. eigenvalues --   -7.50790  -3.37540  -3.37532  -3.37511  -3.37478
 Alpha  occ. eigenvalues --   -3.37475  -1.24567  -1.03334  -1.02190  -0.66782
 Alpha  occ. eigenvalues --   -0.59639  -0.53622  -0.49915  -0.49552  -0.48713
 Alpha  occ. eigenvalues --   -0.41754  -0.40593
 Alpha virt. eigenvalues --    0.03482   0.04354   0.08304   0.09705   0.10439
 Alpha virt. eigenvalues --    0.11848   0.13454   0.14005   0.17162   0.17958
 Alpha virt. eigenvalues --    0.18296   0.19014   0.20422   0.22210   0.23325
 Alpha virt. eigenvalues --    0.24431   0.25581   0.27905   0.30832   0.32663
 Alpha virt. eigenvalues --    0.34066   0.35201   0.36163   0.38223   0.39068
 Alpha virt. eigenvalues --    0.40420   0.42469   0.47285   0.51720   0.54538
 Alpha virt. eigenvalues --    0.55177   0.59004   0.60579   0.64295   0.67788
 Alpha virt. eigenvalues --    0.69704   0.70655   0.72213   0.74771   0.74874
 Alpha virt. eigenvalues --    0.75747   0.76347   0.77428   0.78994   0.81860
 Alpha virt. eigenvalues --    0.84032   0.85786   0.87678   0.88546   0.89493
 Alpha virt. eigenvalues --    0.91185   0.92399   0.93538   0.95223   0.98332
 Alpha virt. eigenvalues --    1.00012   1.01863   1.04240   1.04358   1.06856
 Alpha virt. eigenvalues --    1.08685   1.14968   1.16779   1.19297   1.21536
 Alpha virt. eigenvalues --    1.24212   1.27906   1.33491   1.36117   1.39387
 Alpha virt. eigenvalues --    1.43518   1.48475   1.49739   1.52055   1.58083
 Alpha virt. eigenvalues --    1.67019   1.70476   1.81348   1.89300   1.93655
 Alpha virt. eigenvalues --    1.97125   2.01538   2.05662   2.10788   2.14205
 Alpha virt. eigenvalues --    2.15913   2.16242   2.17588   2.21394   2.25169
 Alpha virt. eigenvalues --    2.26664   2.28068   2.30160   2.30642   2.32414
 Alpha virt. eigenvalues --    2.37421   2.38781   2.42484   2.44428   2.46019
 Alpha virt. eigenvalues --    2.47578   2.47896   2.51744   2.54654   2.55813
 Alpha virt. eigenvalues --    2.58190   2.60748   2.63058   2.68596   2.68924
 Alpha virt. eigenvalues --    2.72117   2.74483   2.76850   2.84342   2.86182
 Alpha virt. eigenvalues --    2.92342   3.03979   3.10257   3.12987   3.59839
 Alpha virt. eigenvalues --    3.64263   3.88600   3.92176   4.00709   4.09788
 Alpha virt. eigenvalues --    4.13129   4.18723   4.21688   4.24476   4.26066
 Alpha virt. eigenvalues --    4.33471   4.48802   4.51724   4.55283   4.67265
 Alpha virt. eigenvalues --    4.88569   4.95371   4.99043   5.14450   5.15228
 Alpha virt. eigenvalues --    5.20672   5.43797   5.84021   6.04750   6.12502
 Alpha virt. eigenvalues --    6.16818   6.29152   6.31150   6.45409   6.50650
 Alpha virt. eigenvalues --    6.57094   6.77950   6.79632   6.80409   6.83497
 Alpha virt. eigenvalues --    6.87213   6.88687   6.90092   6.97851   7.00643
 Alpha virt. eigenvalues --    7.07229   7.14363   7.23862   7.44800   7.64221
 Alpha virt. eigenvalues --    7.80572   8.09416   8.12520  14.03151  14.67970
          Condensed to atoms (all electrons):
              1          2          3          4          5
     1  O    8.176009  -0.166178   0.220880   0.002600  -0.019341
     2  O   -0.166178   8.244592   0.010183   0.193337  -0.018059
     3  H    0.220880   0.010183   0.545796   0.001657  -0.000374
     4  H    0.002600   0.193337   0.001657   0.559705  -0.004066
     5  Kr  -0.019341  -0.018059  -0.000374  -0.004066  36.032620
 Mulliken atomic charges:
              1
     1  O   -0.213971
     2  O   -0.263875
     3  H    0.221858
     4  H    0.246767
     5  Kr   0.009220
 Sum of Mulliken atomic charges =   0.00000
 Mulliken charges with hydrogens summed into heavy atoms:
              1
     1  O    0.007887
     2  O   -0.017108
     5  Kr   0.009220
 Sum of Mulliken charges with hydrogens summed into heavy atoms =   0.00000
          Condensed to fragments (all electrons):
     1      -0.009220
     2       0.009220
 Electronic spatial extent (au):  <R**2>=            485.5488
 Charge=              0.0000 electrons
 Dipole moment (field-independent basis, Debye):
    X=              1.4559    Y=             -0.4079    Z=              1.4703  Tot=              2.1090
 Quadrupole moment (field-independent basis, Debye-Ang):
   XX=            -33.4941   YY=            -27.9138   ZZ=            -29.0693
   XY=              2.6315   XZ=             -3.4875   YZ=             -1.7900
 Traceless Quadrupole moment (field-independent basis, Debye-Ang):
   XX=             -3.3351   YY=              2.2453   ZZ=              1.0897
   XY=              2.6315   XZ=             -3.4875   YZ=             -1.7900
 Octapole moment (field-independent basis, Debye-Ang**2):
  XXX=             29.9771  YYY=             -1.1046  ZZZ=              1.1623  XYY=              4.7029
  XXY=             -8.7553  XXZ=              7.6430  XZZ=              5.2405  YZZ=             -1.8443
  YYZ=              2.2193  XYZ=              4.1405
 Hexadecapole moment (field-independent basis, Debye-Ang**3):
 XXXX=           -440.8327 YYYY=            -63.0484 ZZZZ=            -29.8181 XXXY=             20.4869
 XXXZ=            -18.2405 YYYX=              4.7131 YYYZ=             -2.5842 ZZZX=             -3.1455
 ZZZY=             -1.8898 XXYY=            -79.0518 XXZZ=            -71.3761 YYZZ=            -15.9626
 XXYZ=             -9.6263 YYXZ=             -4.9442 ZZXY=              3.7545
 N-N= 1.491274546049D+02 E-N=-7.236438781304D+03  KE= 2.900939518815D+03
 No NMR shielding tensors so no spin-rotation constants.
 Leave Link  601 at Mon May  4 11:26:36 2020, MaxMem= 1073741824 cpu:       0.8
 (Enter /home/matheus/.gaussian/g09/l122.exe)
 Counterpoise: doing DCBS calculation for fragment   1 NewBq=T
 Leave Link  122 at Mon May  4 11:26:36 2020, MaxMem= 1073741824 cpu:       0.0
 (Enter /home/matheus/.gaussian/g09/l301.exe)
 Basis read from rwf:  (5D, 7F)
 No pseudopotential information found on rwf file.
 There are   197 symmetry adapted basis functions of A   symmetry.
 Integral buffers will be    131072 words long.
 Raffenetti 2 integral format.
 Two-electron integral symmetry is turned on.
   197 basis functions,   415 primitive gaussians,   229 cartesian basis functions
     9 alpha electrons        9 beta electrons
       nuclear repulsion energy        36.6212539076 Hartrees.
 IExCor= 4639 DFT=T Ex+Corr=wB97XD ExCW=0 ScaHFX=  1.000000
 ScaDFX=  1.000000  1.000000  1.000000  1.000000 ScalE2=  1.000000  1.000000
 IRadAn=      5 IRanWt=     -1 IRanGd=            0 ICorTp=0
  HFx wShort=  0.000000 wLong=  0.250000 cFull=  0.222036 cShort=  0.000000 cLong=  0.777964
  DFx wShort=  0.000000 wLong=  0.250000 cFull=  0.000000 cShort=  0.000000 cLong=  1.000000
 NAtoms=    5 NActive=    5 NUniq=    5 SFac= 1.00D+00 NAtFMM=   60 NAOKFM=F Big=F
 R6Disp: Dispersion energy =        -0.0002449821 Hartrees.
 Nuclear repulsion after empirical dispersion term =       36.6210089255 Hartrees.
 No density basis found on file   718.
 Leave Link  301 at Mon May  4 11:26:36 2020, MaxMem= 1073741824 cpu:       0.2
 (Enter /home/matheus/.gaussian/g09/l302.exe)
 NPDir=0 NMtPBC=     1 NCelOv=     1 NCel=       1 NClECP=     1 NCelD=      1
         NCelK=      1 NCelE2=     1 NClLst=     1 CellRange=     0.0.
 One-electron integrals computed using PRISM.
 NBasis=   197 RedAO= T  NBF=   197
 NBsUse=   197 1.00D-06 NBFU=   197
 Precomputing XC quadrature grid using
 IXCGrd= 2 IRadAn=           5 IRanWt=          -1 IRanGd=           0 AccXCQ= 0.00D+00.
 NRdTot=     427 NPtTot=      123512 NUsed=      126579 NTot=      126611
 NSgBfM=   229   229   229   229   229 NAtAll=     5     5.
 Leave Link  302 at Mon May  4 11:26:36 2020, MaxMem= 1073741824 cpu:       1.1
 (Enter /home/matheus/.gaussian/g09/l303.exe)
 DipDrv:  MaxL=1.
 Leave Link  303 at Mon May  4 11:26:36 2020, MaxMem= 1073741824 cpu:       0.2
 (Enter /home/matheus/.gaussian/g09/l401.exe)
 Harris functional with IExCor= 4639 diagonalized for initial guess.
 ExpMin= 2.53D-02 ExpMax= 1.17D+07 ExpMxC= 1.33D+04 IAcc=3 IRadAn=         5 AccDes= 0.00D+00
 HarFok:  IExCor= 4639 AccDes= 0.00D+00 IRadAn=         5 IDoV= 1
 ScaDFX=  1.000000  1.000000  1.000000  1.000000
 FoFCou: FMM=F IPFlag=           0 FMFlag=      100000 FMFlg1=           0
         NFxFlg=           0 DoJE=T BraDBF=F KetDBF=T FulRan=T
         Omega=  0.000000  0.000000  1.000000  0.000000  0.000000 ICntrl=     500 IOpCl=  0
         NMat0=    1 NMatS0=    1 NMatT0=    0 NMatD0=    1 NMtDS0=    0 NMtDT0=    0
         I1Cent=           4 NGrid=           0.
 Petite list used in FoFCou.
 Harris En= -145.946995870028    
 Initial guess orbital symmetries:
       Occupied  (A) (A) (A) (A) (A) (A) (A) (A) (A)
       Virtual   (A) (A) (A) (A) (A) (A) (A) (A) (A) (A) (A) (A)
                 (A) (A) (A) (A) (A) (A) (A) (A) (A) (A) (A) (A)
                 (A) (A) (A) (A) (A) (A) (A) (A) (A) (A) (A) (A)
                 (A) (A) (A) (A) (A) (A) (A) (A) (A) (A) (A) (A)
                 (A) (A) (A) (A) (A) (A) (A) (A) (A) (A) (A) (A)
                 (A) (A) (A) (A) (A) (A) (A) (A) (A) (A) (A) (A)
                 (A) (A) (A) (A) (A) (A) (A) (A) (A) (A) (A) (A)
                 (A) (A) (A) (A) (A) (A) (A) (A) (A) (A) (A) (A)
                 (A) (A) (A) (A) (A) (A) (A) (A) (A) (A) (A) (A)
                 (A) (A) (A) (A) (A) (A) (A) (A) (A) (A) (A) (A)
                 (A) (A) (A) (A) (A) (A) (A) (A) (A) (A) (A) (A)
                 (A) (A) (A) (A) (A) (A) (A) (A) (A) (A) (A) (A)
                 (A) (A) (A) (A) (A) (A) (A) (A) (A) (A) (A) (A)
                 (A) (A) (A) (A) (A) (A) (A) (A) (A) (A) (A) (A)
                 (A) (A) (A) (A) (A) (A) (A) (A) (A) (A) (A) (A)
                 (A) (A) (A) (A) (A) (A) (A) (A)
 The electronic state of the initial guess is 1-A.
 Leave Link  401 at Mon May  4 11:26:37 2020, MaxMem= 1073741824 cpu:       4.4
 (Enter /home/matheus/.gaussian/g09/l502.exe)
 Closed shell SCF:
 Requested convergence on RMS density matrix=1.00D-08 within 128 cycles.
 Requested convergence on MAX density matrix=1.00D-06.
 Requested convergence on             energy=1.00D-06.
 No special actions if energy rises.
 Using DIIS extrapolation, IDIIS=  1040.
 Integral symmetry usage will be decided dynamically.
       126521 words used for storage of precomputed grid.
 IEnd=      305468 IEndB=      305468 NGot=  1073741824 MDV=  1073505667
 LenX=  1073505667 LenY=  1073452785
 Fock matrices will be formed incrementally for  20 cycles.

 Cycle   1  Pass 1  IDiag  1:
 FoFJK:  IHMeth= 1 ICntrl=     0 DoSepK=T KAlg= 1 I1Cent= 0 FoldK=F
 FoFCou: FMM=F IPFlag=           0 FMFlag=      100000 FMFlg1=           0
         NFxFlg=           0 DoJE=T BraDBF=F KetDBF=F FulRan=T
         Omega=  0.000000  0.000000  1.000000  0.000000  0.000000 ICntrl=     500 IOpCl=  0
         NMat0=    1 NMatS0=    1 NMatT0=    0 NMatD0=    1 NMtDS0=    0 NMtDT0=    0
         I1Cent=           0 NGrid=           0.
 Symmetry not used in FoFCou.
 E= -151.460831874545    
 DIIS: error= 3.78D-02 at cycle   1 NSaved=   1.
 NSaved= 1 IEnMin= 1 EnMin= -151.460831874545     IErMin= 1 ErrMin= 3.78D-02
 ErrMax= 3.78D-02 EMaxC= 1.00D-01 BMatC= 3.22D-01 BMatP= 3.22D-01
 IDIUse=3 WtCom= 6.22D-01 WtEn= 3.78D-01
 Coeff-Com:  0.100D+01
 Coeff-En:   0.100D+01
 Coeff:      0.100D+01
 Gap=     0.561 Goal=   None    Shift=    0.000
 GapD=    0.561 DampG=2.000 DampE=0.500 DampFc=1.0000 IDamp=-1.
 RMSDP=2.46D-03 MaxDP=1.03D-01              OVMax= 1.21D-01

 Cycle   2  Pass 1  IDiag  1:
 RMSU=  1.71D-03    CP:  9.52D-01
 FoFJK:  IHMeth= 1 ICntrl=     0 DoSepK=T KAlg= 1 I1Cent= 0 FoldK=F
 E= -151.500400401685     Delta-E=       -0.039568527140 Rises=F Damp=F
 DIIS: error= 1.61D-02 at cycle   2 NSaved=   2.
 NSaved= 2 IEnMin= 2 EnMin= -151.500400401685     IErMin= 2 ErrMin= 1.61D-02
 ErrMax= 1.61D-02 EMaxC= 1.00D-01 BMatC= 1.04D-01 BMatP= 3.22D-01
 IDIUse=3 WtCom= 8.39D-01 WtEn= 1.61D-01
 Coeff-Com:  0.342D+00 0.658D+00
 Coeff-En:   0.346D+00 0.654D+00
 Coeff:      0.343D+00 0.657D+00
 Gap=     0.506 Goal=   None    Shift=    0.000
 RMSDP=1.01D-03 MaxDP=4.89D-02 DE=-3.96D-02 OVMax= 6.06D-02

 Cycle   3  Pass 1  IDiag  1:
 RMSU=  3.75D-04    CP:  9.73D-01  6.55D-01
 FoFJK:  IHMeth= 1 ICntrl=     0 DoSepK=T KAlg= 1 I1Cent= 0 FoldK=F
 E= -151.557002062333     Delta-E=       -0.056601660648 Rises=F Damp=F
 DIIS: error= 4.81D-03 at cycle   3 NSaved=   3.
 NSaved= 3 IEnMin= 3 EnMin= -151.557002062333     IErMin= 3 ErrMin= 4.81D-03
 ErrMax= 4.81D-03 EMaxC= 1.00D-01 BMatC= 5.70D-03 BMatP= 1.04D-01
 IDIUse=3 WtCom= 9.52D-01 WtEn= 4.81D-02
 Coeff-Com:  0.102D-01 0.196D+00 0.794D+00
 Coeff-En:   0.000D+00 0.000D+00 0.100D+01
 Coeff:      0.971D-02 0.186D+00 0.804D+00
 Gap=     0.442 Goal=   None    Shift=    0.000
 RMSDP=2.63D-04 MaxDP=9.85D-03 DE=-5.66D-02 OVMax= 1.63D-02

 Cycle   4  Pass 1  IDiag  1:
 RMSU=  7.34D-05    CP:  9.68D-01  7.48D-01  8.71D-01
 FoFJK:  IHMeth= 1 ICntrl=     0 DoSepK=T KAlg= 1 I1Cent= 0 FoldK=F
 E= -151.560695587821     Delta-E=       -0.003693525488 Rises=F Damp=F
 DIIS: error= 4.71D-04 at cycle   4 NSaved=   4.
 NSaved= 4 IEnMin= 4 EnMin= -151.560695587821     IErMin= 4 ErrMin= 4.71D-04
 ErrMax= 4.71D-04 EMaxC= 1.00D-01 BMatC= 6.33D-05 BMatP= 5.70D-03
 IDIUse=3 WtCom= 9.95D-01 WtEn= 4.71D-03
 Coeff-Com: -0.121D-02 0.851D-02 0.123D+00 0.870D+00
 Coeff-En:   0.000D+00 0.000D+00 0.000D+00 0.100D+01
 Coeff:     -0.121D-02 0.847D-02 0.123D+00 0.870D+00
 Gap=     0.439 Goal=   None    Shift=    0.000
 RMSDP=3.84D-05 MaxDP=2.09D-03 DE=-3.69D-03 OVMax= 1.74D-03

 Cycle   5  Pass 1  IDiag  1:
 RMSU=  1.30D-05    CP:  9.68D-01  7.43D-01  9.22D-01  1.14D+00
 FoFJK:  IHMeth= 1 ICntrl=     0 DoSepK=T KAlg= 1 I1Cent= 0 FoldK=F
 E= -151.560744353196     Delta-E=       -0.000048765375 Rises=F Damp=F
 DIIS: error= 5.32D-05 at cycle   5 NSaved=   5.
 NSaved= 5 IEnMin= 5 EnMin= -151.560744353196     IErMin= 5 ErrMin= 5.32D-05
 ErrMax= 5.32D-05 EMaxC= 1.00D-01 BMatC= 9.32D-07 BMatP= 6.33D-05
 IDIUse=1 WtCom= 1.00D+00 WtEn= 0.00D+00
 Coeff-Com: -0.511D-03-0.113D-01-0.467D-01-0.656D-01 0.112D+01
 Coeff:     -0.511D-03-0.113D-01-0.467D-01-0.656D-01 0.112D+01
 Gap=     0.438 Goal=   None    Shift=    0.000
 RMSDP=1.31D-05 MaxDP=5.39D-04 DE=-4.88D-05 OVMax= 9.04D-04

 Cycle   6  Pass 1  IDiag  1:
 RMSU=  2.78D-06    CP:  9.68D-01  7.44D-01  9.35D-01  1.23D+00  1.28D+00
 FoFJK:  IHMeth= 1 ICntrl=     0 DoSepK=T KAlg= 1 I1Cent= 0 FoldK=F
 E= -151.560746862990     Delta-E=       -0.000002509794 Rises=F Damp=F
 DIIS: error= 1.19D-05 at cycle   6 NSaved=   6.
 NSaved= 6 IEnMin= 6 EnMin= -151.560746862990     IErMin= 6 ErrMin= 1.19D-05
 ErrMax= 1.19D-05 EMaxC= 1.00D-01 BMatC= 3.20D-08 BMatP= 9.32D-07
 IDIUse=1 WtCom= 1.00D+00 WtEn= 0.00D+00
 Coeff-Com:  0.592D-04 0.265D-03-0.198D-02-0.204D-01-0.348D-01 0.106D+01
 Coeff:      0.592D-04 0.265D-03-0.198D-02-0.204D-01-0.348D-01 0.106D+01
 Gap=     0.438 Goal=   None    Shift=    0.000
 RMSDP=1.85D-06 MaxDP=6.95D-05 DE=-2.51D-06 OVMax= 2.08D-04

 Cycle   7  Pass 1  IDiag  1:
 RMSU=  5.44D-07    CP:  9.68D-01  7.44D-01  9.36D-01  1.23D+00  1.33D+00
                    CP:  1.32D+00
 FoFJK:  IHMeth= 1 ICntrl=     0 DoSepK=T KAlg= 1 I1Cent= 0 FoldK=F
 E= -151.560746968325     Delta-E=       -0.000000105335 Rises=F Damp=F
 DIIS: error= 4.23D-06 at cycle   7 NSaved=   7.
 NSaved= 7 IEnMin= 7 EnMin= -151.560746968325     IErMin= 7 ErrMin= 4.23D-06
 ErrMax= 4.23D-06 EMaxC= 1.00D-01 BMatC= 3.98D-09 BMatP= 3.20D-08
 IDIUse=1 WtCom= 1.00D+00 WtEn= 0.00D+00
 Coeff-Com:  0.184D-04 0.466D-03 0.212D-02 0.160D-02-0.481D-01-0.489D-01
 Coeff-Com:  0.109D+01
 Coeff:      0.184D-04 0.466D-03 0.212D-02 0.160D-02-0.481D-01-0.489D-01
 Coeff:      0.109D+01
 Gap=     0.438 Goal=   None    Shift=    0.000
 RMSDP=6.05D-07 MaxDP=2.42D-05 DE=-1.05D-07 OVMax= 8.14D-05

 Cycle   8  Pass 1  IDiag  1:
 RMSU=  2.43D-07    CP:  9.68D-01  7.44D-01  9.36D-01  1.23D+00  1.34D+00
                    CP:  1.40D+00  1.39D+00
 FoFJK:  IHMeth= 1 ICntrl=     0 DoSepK=T KAlg= 1 I1Cent= 0 FoldK=F
 E= -151.560746978723     Delta-E=       -0.000000010398 Rises=F Damp=F
 DIIS: error= 3.09D-06 at cycle   8 NSaved=   8.
 NSaved= 8 IEnMin= 8 EnMin= -151.560746978723     IErMin= 8 ErrMin= 3.09D-06
 ErrMax= 3.09D-06 EMaxC= 1.00D-01 BMatC= 3.35D-09 BMatP= 3.98D-09
 IDIUse=1 WtCom= 1.00D+00 WtEn= 0.00D+00
 Coeff-Com:  0.236D-05 0.217D-03 0.141D-02 0.312D-02-0.194D-01-0.181D+00
 Coeff-Com:  0.647D+00 0.549D+00
 Coeff:      0.236D-05 0.217D-03 0.141D-02 0.312D-02-0.194D-01-0.181D+00
 Coeff:      0.647D+00 0.549D+00
 Gap=     0.438 Goal=   None    Shift=    0.000
 RMSDP=2.15D-07 MaxDP=9.62D-06 DE=-1.04D-08 OVMax= 2.48D-05

 Cycle   9  Pass 1  IDiag  1:
 RMSU=  9.87D-08    CP:  9.68D-01  7.44D-01  9.36D-01  1.23D+00  1.34D+00
                    CP:  1.41D+00  1.57D+00  9.27D-01
 FoFJK:  IHMeth= 1 ICntrl=     0 DoSepK=T KAlg= 1 I1Cent= 0 FoldK=F
 E= -151.560746981688     Delta-E=       -0.000000002966 Rises=F Damp=F
 DIIS: error= 5.44D-07 at cycle   9 NSaved=   9.
 NSaved= 9 IEnMin= 9 EnMin= -151.560746981688     IErMin= 9 ErrMin= 5.44D-07
 ErrMax= 5.44D-07 EMaxC= 1.00D-01 BMatC= 1.10D-10 BMatP= 3.35D-09
 IDIUse=1 WtCom= 1.00D+00 WtEn= 0.00D+00
 Coeff-Com: -0.122D-05-0.614D-04-0.349D-03-0.786D-03 0.106D-01-0.704D-02
 Coeff-Com: -0.143D+00 0.145D-01 0.113D+01
 Coeff:     -0.122D-05-0.614D-04-0.349D-03-0.786D-03 0.106D-01-0.704D-02
 Coeff:     -0.143D+00 0.145D-01 0.113D+01
 Gap=     0.438 Goal=   None    Shift=    0.000
 RMSDP=1.27D-07 MaxDP=2.63D-06 DE=-2.97D-09 OVMax= 1.76D-05

 Cycle  10  Pass 1  IDiag  1:
 RMSU=  2.28D-08    CP:  9.68D-01  7.44D-01  9.36D-01  1.23D+00  1.34D+00
                    CP:  1.41D+00  1.66D+00  1.16D+00  1.37D+00
 FoFJK:  IHMeth= 1 ICntrl=     0 DoSepK=T KAlg= 1 I1Cent= 0 FoldK=F
 E= -151.560746982050     Delta-E=       -0.000000000362 Rises=F Damp=F
 DIIS: error= 1.78D-07 at cycle  10 NSaved=  10.
 NSaved=10 IEnMin=10 EnMin= -151.560746982050     IErMin=10 ErrMin= 1.78D-07
 ErrMax= 1.78D-07 EMaxC= 1.00D-01 BMatC= 8.82D-12 BMatP= 1.10D-10
 IDIUse=1 WtCom= 1.00D+00 WtEn= 0.00D+00
 Coeff-Com:  0.818D-08-0.154D-04-0.124D-03-0.390D-03 0.189D-02 0.136D-01
 Coeff-Com: -0.462D-01-0.519D-01-0.120D+00 0.120D+01
 Coeff:      0.818D-08-0.154D-04-0.124D-03-0.390D-03 0.189D-02 0.136D-01
 Coeff:     -0.462D-01-0.519D-01-0.120D+00 0.120D+01
 Gap=     0.438 Goal=   None    Shift=    0.000
 RMSDP=4.47D-08 MaxDP=9.14D-07 DE=-3.62D-10 OVMax= 6.68D-06

 Cycle  11  Pass 1  IDiag  1:
 RMSU=  7.38D-09    CP:  9.68D-01  7.44D-01  9.36D-01  1.23D+00  1.34D+00
                    CP:  1.41D+00  1.69D+00  1.22D+00  1.52D+00  1.58D+00
 FoFJK:  IHMeth= 1 ICntrl=     0 DoSepK=T KAlg= 1 I1Cent= 0 FoldK=F
 E= -151.560746982089     Delta-E=       -0.000000000039 Rises=F Damp=F
 DIIS: error= 4.08D-08 at cycle  11 NSaved=  11.
 NSaved=11 IEnMin=11 EnMin= -151.560746982089     IErMin=11 ErrMin= 4.08D-08
 ErrMax= 4.08D-08 EMaxC= 1.00D-01 BMatC= 5.64D-13 BMatP= 8.82D-12
 IDIUse=1 WtCom= 1.00D+00 WtEn= 0.00D+00
 Coeff-Com: -0.120D-06 0.171D-05 0.216D-04 0.361D-04-0.549D-03-0.776D-03
 Coeff-Com:  0.147D-01 0.250D-02-0.836D-01-0.400D-01 0.111D+01
 Coeff:     -0.120D-06 0.171D-05 0.216D-04 0.361D-04-0.549D-03-0.776D-03
 Coeff:      0.147D-01 0.250D-02-0.836D-01-0.400D-01 0.111D+01
 Gap=     0.438 Goal=   None    Shift=    0.000
 RMSDP=1.14D-08 MaxDP=3.40D-07 DE=-3.89D-11 OVMax= 1.33D-06

 Cycle  12  Pass 1  IDiag  1:
 RMSU=  2.00D-09    CP:  9.68D-01  7.44D-01  9.36D-01  1.23D+00  1.34D+00
                    CP:  1.41D+00  1.70D+00  1.23D+00  1.53D+00  1.79D+00
                    CP:  1.43D+00
 FoFJK:  IHMeth= 1 ICntrl=     0 DoSepK=T KAlg= 1 I1Cent= 0 FoldK=F
 E= -151.560746982089     Delta-E=        0.000000000000 Rises=F Damp=F
 DIIS: error= 1.27D-08 at cycle  12 NSaved=  12.
 NSaved=12 IEnMin=12 EnMin= -151.560746982089     IErMin=12 ErrMin= 1.27D-08
 ErrMax= 1.27D-08 EMaxC= 1.00D-01 BMatC= 3.84D-14 BMatP= 5.64D-13
 IDIUse=1 WtCom= 1.00D+00 WtEn= 0.00D+00
 Coeff-Com: -0.406D-07 0.773D-06 0.879D-05 0.212D-04-0.119D-03-0.101D-02
 Coeff-Com:  0.362D-02 0.327D-02 0.158D-02-0.776D-01 0.230D-01 0.105D+01
 Coeff:     -0.406D-07 0.773D-06 0.879D-05 0.212D-04-0.119D-03-0.101D-02
 Coeff:      0.362D-02 0.327D-02 0.158D-02-0.776D-01 0.230D-01 0.105D+01
 Gap=     0.438 Goal=   None    Shift=    0.000
 RMSDP=3.10D-09 MaxDP=7.55D-08 DE=-5.68D-14 OVMax= 3.02D-07

 SCF Done:  E(RwB97XD) =  -151.560746982     A.U. after   12 cycles
             Convg  =    0.3101D-08             -V/T =  2.0061
 KE= 1.506418753159D+02 PE=-4.316841872317D+02 EE= 9.286055600822D+01
 Leave Link  502 at Mon May  4 11:27:18 2020, MaxMem= 1073741824 cpu:     329.5
 (Enter /home/matheus/.gaussian/g09/l601.exe)
 Copying SCF densities to generalized density rwf, IOpCl= 0 IROHF=0.

 **********************************************************************

            Population analysis using the SCF density.

 **********************************************************************

 Orbital symmetries:
       Occupied  (A) (A) (A) (A) (A) (A) (A) (A) (A)
       Virtual   (A) (A) (A) (A) (A) (A) (A) (A) (A) (A) (A) (A)
                 (A) (A) (A) (A) (A) (A) (A) (A) (A) (A) (A) (A)
                 (A) (A) (A) (A) (A) (A) (A) (A) (A) (A) (A) (A)
                 (A) (A) (A) (A) (A) (A) (A) (A) (A) (A) (A) (A)
                 (A) (A) (A) (A) (A) (A) (A) (A) (A) (A) (A) (A)
                 (A) (A) (A) (A) (A) (A) (A) (A) (A) (A) (A) (A)
                 (A) (A) (A) (A) (A) (A) (A) (A) (A) (A) (A) (A)
                 (A) (A) (A) (A) (A) (A) (A) (A) (A) (A) (A) (A)
                 (A) (A) (A) (A) (A) (A) (A) (A) (A) (A) (A) (A)
                 (A) (A) (A) (A) (A) (A) (A) (A) (A) (A) (A) (A)
                 (A) (A) (A) (A) (A) (A) (A) (A) (A) (A) (A) (A)
                 (A) (A) (A) (A) (A) (A) (A) (A) (A) (A) (A) (A)
                 (A) (A) (A) (A) (A) (A) (A) (A) (A) (A) (A) (A)
                 (A) (A) (A) (A) (A) (A) (A) (A) (A) (A) (A) (A)
                 (A) (A) (A) (A) (A) (A) (A) (A) (A) (A) (A) (A)
                 (A) (A) (A) (A) (A) (A) (A) (A)
 The electronic state is 1-A.
 Alpha  occ. eigenvalues --  -19.34218 -19.34212  -1.24760  -1.03416  -0.66861
 Alpha  occ. eigenvalues --   -0.59218  -0.53424  -0.42053  -0.40873
 Alpha virt. eigenvalues --    0.02945   0.03903   0.07288   0.08823   0.09677
 Alpha virt. eigenvalues --    0.10781   0.10984   0.14072   0.17174   0.17646
 Alpha virt. eigenvalues --    0.18591   0.19229   0.21098   0.23201   0.25277
 Alpha virt. eigenvalues --    0.27002   0.31310   0.31517   0.32765   0.33778
 Alpha virt. eigenvalues --    0.34340   0.37622   0.38246   0.39409   0.40757
 Alpha virt. eigenvalues --    0.43428   0.44721   0.46988   0.48350   0.49839
 Alpha virt. eigenvalues --    0.53253   0.57881   0.60194   0.61319   0.65677
 Alpha virt. eigenvalues --    0.70364   0.72703   0.74529   0.77052   0.78010
 Alpha virt. eigenvalues --    0.79899   0.80600   0.87246   0.89194   0.89777
 Alpha virt. eigenvalues --    0.90604   0.91788   0.93631   0.96132   0.96277
 Alpha virt. eigenvalues --    0.99115   1.00636   1.04584   1.08867   1.11659
 Alpha virt. eigenvalues --    1.13829   1.15658   1.19980   1.21600   1.24219
 Alpha virt. eigenvalues --    1.26513   1.28086   1.30390   1.32434   1.33017
 Alpha virt. eigenvalues --    1.34459   1.35253   1.37762   1.38908   1.41453
 Alpha virt. eigenvalues --    1.44351   1.48015   1.48510   1.51003   1.55154
 Alpha virt. eigenvalues --    1.58776   1.65325   1.66923   1.68738   1.77668
 Alpha virt. eigenvalues --    1.81597   1.85116   1.91804   1.94713   2.02665
 Alpha virt. eigenvalues --    2.04585   2.07245   2.15031   2.17412   2.22638
 Alpha virt. eigenvalues --    2.25113   2.29425   2.34060   2.36191   2.38466
 Alpha virt. eigenvalues --    2.44924   2.50338   2.53047   2.58885   2.62891
 Alpha virt. eigenvalues --    2.67373   2.68736   2.81171   2.84291   2.91432
 Alpha virt. eigenvalues --    3.02956   3.08738   3.10899   3.26861   3.30996
 Alpha virt. eigenvalues --    3.40785   3.54899   3.58367   3.66809   3.79201
 Alpha virt. eigenvalues --    3.79534   3.82718   3.82736   3.83328   3.83923
 Alpha virt. eigenvalues --    3.86872   3.89362   3.91924   3.94253   3.96328
 Alpha virt. eigenvalues --    3.98279   4.01572   4.06837   4.10557   4.14761
 Alpha virt. eigenvalues --    4.20120   4.21084   4.25371   4.29197   4.33099
 Alpha virt. eigenvalues --    4.40776   4.50657   4.56724   4.67186   4.88877
 Alpha virt. eigenvalues --    4.95582   4.99084   5.14368   5.15569   5.20956
 Alpha virt. eigenvalues --    5.43657   5.83936   6.04447   6.12467   6.16653
 Alpha virt. eigenvalues --    6.29143   6.31127   6.45378   6.50534   6.56985
 Alpha virt. eigenvalues --    6.77841   6.79250   6.80136   6.83242   6.87124
 Alpha virt. eigenvalues --    6.88431   6.89865   6.97639   7.00530   7.07101
 Alpha virt. eigenvalues --    7.14171   7.23661   7.44677   7.64035   7.80360
 Alpha virt. eigenvalues --    8.09121   8.11857  10.88917  14.02794  14.67118
 Alpha virt. eigenvalues --   14.84437  14.88891  15.10686  29.04208  29.04378
 Alpha virt. eigenvalues --   29.09103  29.14317  29.24013  49.10421 148.32564
 Alpha virt. eigenvalues --  148.39049 148.71235 752.48657
          Condensed to atoms (all electrons):
              1          2          3          4          5
     1  O    8.160710  -0.158731   0.213550   0.000932   0.000345
     2  O   -0.158731   8.190413   0.009868   0.205789  -0.001585
     3  H    0.213550   0.009868   0.555863   0.003168  -0.001240
     4  H    0.000932   0.205789   0.003168   0.556312  -0.004337
     5  Kr   0.000345  -0.001585  -0.001240  -0.004337   0.001185
 Mulliken atomic charges:
              1
     1  O   -0.216806
     2  O   -0.245754
     3  H    0.218791
     4  H    0.238137
     5  Kr   0.005632
 Sum of Mulliken atomic charges =   0.00000
 Mulliken charges with hydrogens summed into heavy atoms:
              1
     1  O    0.001985
     2  O   -0.007617
     5  Kr   0.005632
 Sum of Mulliken charges with hydrogens summed into heavy atoms =   0.00000
          Condensed to fragments (all electrons):
     1      -0.005632
     2       0.005632
 Electronic spatial extent (au):  <R**2>=            321.2682
 Charge=              0.0000 electrons
 Dipole moment (field-independent basis, Debye):
    X=              1.2718    Y=             -0.1596    Z=              1.5652  Tot=              2.0230
 Quadrupole moment (field-independent basis, Debye-Ang):
   XX=            -15.8763   YY=            -10.2802   ZZ=            -11.4937
   XY=              2.7720   XZ=             -3.4173   YZ=             -1.8006
 Traceless Quadrupole moment (field-independent basis, Debye-Ang):
   XX=             -3.3262   YY=              2.2698   ZZ=              1.0564
   XY=              2.7720   XZ=             -3.4173   YZ=             -1.8006
 Octapole moment (field-independent basis, Debye-Ang**2):
  XXX=             81.0192  YYY=             -1.3897  ZZZ=              1.3705  XYY=             21.9185
  XXY=             -8.6329  XXZ=              7.7663  XZZ=             22.4955  YZZ=             -1.9405
  YYZ=              2.2883  XYZ=              4.1455
 Hexadecapole moment (field-independent basis, Debye-Ang**3):
 XXXX=           -318.7558 YYYY=            -44.7202 ZZZZ=            -11.5889 XXXY=             20.0335
 XXXZ=            -18.0240 YYYX=              4.4150 YYYZ=             -2.6066 ZZZX=             -2.9819
 ZZZY=             -1.9110 XXYY=            -55.7077 XXZZ=            -48.1544 YYZZ=             -9.8600
 XXYZ=             -9.6453 YYXZ=             -4.8799 ZZXY=              3.6189
 N-N= 3.662100892547D+01 E-N=-4.316841864975D+02  KE= 1.506418753159D+02
 No NMR shielding tensors so no spin-rotation constants.
 Leave Link  601 at Mon May  4 11:27:18 2020, MaxMem= 1073741824 cpu:       0.8
 (Enter /home/matheus/.gaussian/g09/l122.exe)
 Counterpoise: doing DCBS calculation for fragment   2 NewBq=T
 Leave Link  122 at Mon May  4 11:27:18 2020, MaxMem= 1073741824 cpu:       0.0
 (Enter /home/matheus/.gaussian/g09/l301.exe)
 Basis read from rwf:  (5D, 7F)
 No pseudopotential information found on rwf file.
 There are   197 symmetry adapted basis functions of A   symmetry.
 Integral buffers will be    131072 words long.
 Raffenetti 2 integral format.
 Two-electron integral symmetry is turned on.
   197 basis functions,   415 primitive gaussians,   229 cartesian basis functions
    18 alpha electrons       18 beta electrons
       nuclear repulsion energy         0.0000000000 Hartrees.
 IExCor= 4639 DFT=T Ex+Corr=wB97XD ExCW=0 ScaHFX=  1.000000
 ScaDFX=  1.000000  1.000000  1.000000  1.000000 ScalE2=  1.000000  1.000000
 IRadAn=      5 IRanWt=     -1 IRanGd=            0 ICorTp=0
  HFx wShort=  0.000000 wLong=  0.250000 cFull=  0.222036 cShort=  0.000000 cLong=  0.777964
  DFx wShort=  0.000000 wLong=  0.250000 cFull=  0.000000 cShort=  0.000000 cLong=  1.000000
 NAtoms=    5 NActive=    5 NUniq=    5 SFac= 1.00D+00 NAtFMM=   60 NAOKFM=F Big=F
 R6Disp: Dispersion energy =         0.0000000000 Hartrees.
 Nuclear repulsion after empirical dispersion term =        0.0000000000 Hartrees.
 No density basis found on file   718.
 Leave Link  301 at Mon May  4 11:27:18 2020, MaxMem= 1073741824 cpu:       0.2
 (Enter /home/matheus/.gaussian/g09/l302.exe)
 NPDir=0 NMtPBC=     1 NCelOv=     1 NCel=       1 NClECP=     1 NCelD=      1
         NCelK=      1 NCelE2=     1 NClLst=     1 CellRange=     0.0.
 One-electron integrals computed using PRISM.
 NBasis=   197 RedAO= T  NBF=   197
 NBsUse=   197 1.00D-06 NBFU=   197
 Precomputing XC quadrature grid using
 IXCGrd= 2 IRadAn=           5 IRanWt=          -1 IRanGd=           0 AccXCQ= 0.00D+00.
 NRdTot=     427 NPtTot=      123512 NUsed=      126579 NTot=      126611
 NSgBfM=   229   229   229   229   229 NAtAll=     5     5.
 Leave Link  302 at Mon May  4 11:27:19 2020, MaxMem= 1073741824 cpu:       1.0
 (Enter /home/matheus/.gaussian/g09/l303.exe)
 DipDrv:  MaxL=1.
 Leave Link  303 at Mon May  4 11:27:19 2020, MaxMem= 1073741824 cpu:       0.2
 (Enter /home/matheus/.gaussian/g09/l401.exe)
 Harris functional with IExCor= 4639 diagonalized for initial guess.
 ExpMin= 2.53D-02 ExpMax= 1.17D+07 ExpMxC= 1.33D+04 IAcc=3 IRadAn=         5 AccDes= 0.00D+00
 HarFok:  IExCor= 4639 AccDes= 0.00D+00 IRadAn=         5 IDoV= 1
 ScaDFX=  1.000000  1.000000  1.000000  1.000000
 FoFCou: FMM=F IPFlag=           0 FMFlag=      100000 FMFlg1=           0
         NFxFlg=           0 DoJE=T BraDBF=F KetDBF=T FulRan=T
         Omega=  0.000000  0.000000  1.000000  0.000000  0.000000 ICntrl=     500 IOpCl=  0
         NMat0=    1 NMatS0=    1 NMatT0=    0 NMatD0=    1 NMtDS0=    0 NMtDT0=    0
         I1Cent=           4 NGrid=           0.
 Petite list used in FoFCou.
 Harris En= -2729.46035112526    
 Initial guess orbital symmetries:
       Occupied  (A) (A) (A) (A) (A) (A) (A) (A) (A) (A) (A) (A)
                 (A) (A) (A) (A) (A) (A)
       Virtual   (A) (A) (A) (A) (A) (A) (A) (A) (A) (A) (A) (A)
                 (A) (A) (A) (A) (A) (A) (A) (A) (A) (A) (A) (A)
                 (A) (A) (A) (A) (A) (A) (A) (A) (A) (A) (A) (A)
                 (A) (A) (A) (A) (A) (A) (A) (A) (A) (A) (A) (A)
                 (A) (A) (A) (A) (A) (A) (A) (A) (A) (A) (A) (A)
                 (A) (A) (A) (A) (A) (A) (A) (A) (A) (A) (A) (A)
                 (A) (A) (A) (A) (A) (A) (A) (A) (A) (A) (A) (A)
                 (A) (A) (A) (A) (A) (A) (A) (A) (A) (A) (A) (A)
                 (A) (A) (A) (A) (A) (A) (A) (A) (A) (A) (A) (A)
                 (A) (A) (A) (A) (A) (A) (A) (A) (A) (A) (A) (A)
                 (A) (A) (A) (A) (A) (A) (A) (A) (A) (A) (A) (A)
                 (A) (A) (A) (A) (A) (A) (A) (A) (A) (A) (A) (A)
                 (A) (A) (A) (A) (A) (A) (A) (A) (A) (A) (A) (A)
                 (A) (A) (A) (A) (A) (A) (A) (A) (A) (A) (A) (A)
                 (A) (A) (A) (A) (A) (A) (A) (A) (A) (A) (A)
 The electronic state of the initial guess is 1-A.
 Leave Link  401 at Mon May  4 11:27:19 2020, MaxMem= 1073741824 cpu:       5.2
 (Enter /home/matheus/.gaussian/g09/l502.exe)
 Closed shell SCF:
 Requested convergence on RMS density matrix=1.00D-08 within 128 cycles.
 Requested convergence on MAX density matrix=1.00D-06.
 Requested convergence on             energy=1.00D-06.
 No special actions if energy rises.
 Using DIIS extrapolation, IDIIS=  1040.
 Integral symmetry usage will be decided dynamically.
       126521 words used for storage of precomputed grid.
 IEnd=      305468 IEndB=      305468 NGot=  1073741824 MDV=  1073505667
 LenX=  1073505667 LenY=  1073452785
 Fock matrices will be formed incrementally for  20 cycles.

 Cycle   1  Pass 1  IDiag  1:
 FoFJK:  IHMeth= 1 ICntrl=     0 DoSepK=T KAlg= 1 I1Cent= 0 FoldK=F
 FoFCou: FMM=F IPFlag=           0 FMFlag=      100000 FMFlg1=           0
         NFxFlg=           0 DoJE=T BraDBF=F KetDBF=F FulRan=T
         Omega=  0.000000  0.000000  1.000000  0.000000  0.000000 ICntrl=     500 IOpCl=  0
         NMat0=    1 NMatS0=    1 NMatT0=    0 NMatD0=    1 NMtDS0=    0 NMtDT0=    0
         I1Cent=           0 NGrid=           0.
 Symmetry not used in FoFCou.
 E= -2753.44673878656    
 DIIS: error= 6.03D-02 at cycle   1 NSaved=   1.
 NSaved= 1 IEnMin= 1 EnMin= -2753.44673878656     IErMin= 1 ErrMin= 6.03D-02
 ErrMax= 6.03D-02 EMaxC= 1.00D-01 BMatC= 1.90D+00 BMatP= 1.90D+00
 IDIUse=3 WtCom= 3.97D-01 WtEn= 6.03D-01
 Coeff-Com:  0.100D+01
 Coeff-En:   0.100D+01
 Coeff:      0.100D+01
 Gap=     0.654 Goal=   None    Shift=    0.000
 GapD=    0.654 DampG=2.000 DampE=0.500 DampFc=1.0000 IDamp=-1.
 RMSDP=5.60D-03 MaxDP=3.66D-01              OVMax= 1.83D-01

 Cycle   2  Pass 1  IDiag  1:
 RMSU=  3.90D-03    CP:  1.04D+00
 FoFJK:  IHMeth= 1 ICntrl=     0 DoSepK=T KAlg= 1 I1Cent= 0 FoldK=F
 E= -2753.72380101938     Delta-E=       -0.277062232828 Rises=F Damp=F
 DIIS: error= 2.91D-02 at cycle   2 NSaved=   2.
 NSaved= 2 IEnMin= 2 EnMin= -2753.72380101938     IErMin= 2 ErrMin= 2.91D-02
 ErrMax= 2.91D-02 EMaxC= 1.00D-01 BMatC= 4.66D-01 BMatP= 1.90D+00
 IDIUse=3 WtCom= 7.09D-01 WtEn= 2.91D-01
 Coeff-Com:  0.326D+00 0.674D+00
 Coeff-En:   0.160D+00 0.840D+00
 Coeff:      0.278D+00 0.722D+00
 Gap=     0.493 Goal=   None    Shift=    0.000
 RMSDP=2.50D-03 MaxDP=1.59D-01 DE=-2.77D-01 OVMax= 7.62D-02

 Cycle   3  Pass 1  IDiag  1:
 RMSU=  3.65D-04    CP:  1.03D+00  5.62D-01
 FoFJK:  IHMeth= 1 ICntrl=     0 DoSepK=T KAlg= 1 I1Cent= 0 FoldK=F
 E= -2753.86730733869     Delta-E=       -0.143506319310 Rises=F Damp=F
 DIIS: error= 3.91D-03 at cycle   3 NSaved=   3.
 NSaved= 3 IEnMin= 3 EnMin= -2753.86730733869     IErMin= 3 ErrMin= 3.91D-03
 ErrMax= 3.91D-03 EMaxC= 1.00D-01 BMatC= 9.34D-03 BMatP= 4.66D-01
 IDIUse=3 WtCom= 9.61D-01 WtEn= 3.91D-02
 Coeff-Com: -0.758D-02 0.112D+00 0.896D+00
 Coeff-En:   0.000D+00 0.000D+00 0.100D+01
 Coeff:     -0.729D-02 0.107D+00 0.900D+00
 Gap=     0.517 Goal=   None    Shift=    0.000
 RMSDP=2.83D-04 MaxDP=1.65D-02 DE=-1.44D-01 OVMax= 1.16D-02

 Cycle   4  Pass 1  IDiag  1:
 RMSU=  4.16D-05    CP:  1.03D+00  6.12D-01  9.74D-01
 FoFJK:  IHMeth= 1 ICntrl=     0 DoSepK=T KAlg= 1 I1Cent= 0 FoldK=F
 E= -2753.87021676139     Delta-E=       -0.002909422697 Rises=F Damp=F
 DIIS: error= 1.64D-04 at cycle   4 NSaved=   4.
 NSaved= 4 IEnMin= 4 EnMin= -2753.87021676139     IErMin= 4 ErrMin= 1.64D-04
 ErrMax= 1.64D-04 EMaxC= 1.00D-01 BMatC= 1.20D-05 BMatP= 9.34D-03
 IDIUse=3 WtCom= 9.98D-01 WtEn= 1.64D-03
 Coeff-Com: -0.259D-03-0.171D-01-0.815D-01 0.110D+01
 Coeff-En:   0.000D+00 0.000D+00 0.000D+00 0.100D+01
 Coeff:     -0.258D-03-0.171D-01-0.814D-01 0.110D+01
 Gap=     0.515 Goal=   None    Shift=    0.000
 RMSDP=2.29D-05 MaxDP=8.61D-04 DE=-2.91D-03 OVMax= 9.55D-04

 Cycle   5  Pass 1  IDiag  1:
 RMSU=  8.50D-06    CP:  1.03D+00  6.10D-01  9.95D-01  1.24D+00
 FoFJK:  IHMeth= 1 ICntrl=     0 DoSepK=T KAlg= 1 I1Cent= 0 FoldK=F
 E= -2753.87022466217     Delta-E=       -0.000007900777 Rises=F Damp=F
 DIIS: error= 1.32D-05 at cycle   5 NSaved=   5.
 NSaved= 5 IEnMin= 5 EnMin= -2753.87022466217     IErMin= 5 ErrMin= 1.32D-05
 ErrMax= 1.32D-05 EMaxC= 1.00D-01 BMatC= 4.43D-08 BMatP= 1.20D-05
 IDIUse=1 WtCom= 1.00D+00 WtEn= 0.00D+00
 Coeff-Com:  0.782D-04 0.112D-02 0.168D-02-0.185D+00 0.118D+01
 Coeff:      0.782D-04 0.112D-02 0.168D-02-0.185D+00 0.118D+01
 Gap=     0.515 Goal=   None    Shift=    0.000
 RMSDP=3.58D-06 MaxDP=1.43D-04 DE=-7.90D-06 OVMax= 2.05D-04

 Cycle   6  Pass 1  IDiag  1:
 RMSU=  7.59D-07    CP:  1.03D+00  6.10D-01  9.97D-01  1.28D+00  1.17D+00
 FoFJK:  IHMeth= 1 ICntrl=     0 DoSepK=T KAlg= 1 I1Cent= 0 FoldK=F
 E= -2753.87022479678     Delta-E=       -0.000000134614 Rises=F Damp=F
 DIIS: error= 1.88D-06 at cycle   6 NSaved=   6.
 NSaved= 6 IEnMin= 6 EnMin= -2753.87022479678     IErMin= 6 ErrMin= 1.88D-06
 ErrMax= 1.88D-06 EMaxC= 1.00D-01 BMatC= 7.12D-10 BMatP= 4.43D-08
 IDIUse=1 WtCom= 1.00D+00 WtEn= 0.00D+00
 Coeff-Com:  0.684D-05 0.295D-03 0.915D-03-0.406D-01 0.186D+00 0.854D+00
 Coeff:      0.684D-05 0.295D-03 0.915D-03-0.406D-01 0.186D+00 0.854D+00
 Gap=     0.515 Goal=   None    Shift=    0.000
 RMSDP=2.35D-07 MaxDP=8.71D-06 DE=-1.35D-07 OVMax= 1.06D-05

 Cycle   7  Pass 1  IDiag  1:
 RMSU=  6.81D-08    CP:  1.03D+00  6.10D-01  9.97D-01  1.28D+00  1.19D+00
                    CP:  1.11D+00
 FoFJK:  IHMeth= 1 ICntrl=     0 DoSepK=T KAlg= 1 I1Cent= 0 FoldK=F
 E= -2753.87022479754     Delta-E=       -0.000000000754 Rises=F Damp=F
 DIIS: error= 1.81D-07 at cycle   7 NSaved=   7.
 NSaved= 7 IEnMin= 7 EnMin= -2753.87022479754     IErMin= 7 ErrMin= 1.81D-07
 ErrMax= 1.81D-07 EMaxC= 1.00D-01 BMatC= 1.95D-11 BMatP= 7.12D-10
 IDIUse=1 WtCom= 1.00D+00 WtEn= 0.00D+00
 Coeff-Com: -0.125D-05 0.234D-04 0.155D-03-0.639D-03-0.828D-02 0.110D+00
 Coeff-Com:  0.898D+00
 Coeff:     -0.125D-05 0.234D-04 0.155D-03-0.639D-03-0.828D-02 0.110D+00
 Coeff:      0.898D+00
 Gap=     0.515 Goal=   None    Shift=    0.000
 RMSDP=4.93D-08 MaxDP=1.94D-06 DE=-7.54D-10 OVMax= 1.96D-06

 Cycle   8  Pass 1  IDiag  1:
 RMSU=  1.47D-08    CP:  1.03D+00  6.10D-01  9.97D-01  1.28D+00  1.19D+00
                    CP:  1.15D+00  1.09D+00
 FoFJK:  IHMeth= 1 ICntrl=     0 DoSepK=T KAlg= 1 I1Cent= 0 FoldK=F
 E= -2753.87022479758     Delta-E=       -0.000000000046 Rises=F Damp=F
 DIIS: error= 5.92D-08 at cycle   8 NSaved=   8.
 NSaved= 8 IEnMin= 8 EnMin= -2753.87022479758     IErMin= 8 ErrMin= 5.92D-08
 ErrMax= 5.92D-08 EMaxC= 1.00D-01 BMatC= 1.50D-12 BMatP= 1.95D-11
 IDIUse=1 WtCom= 1.00D+00 WtEn= 0.00D+00
 Coeff-Com: -0.120D-06-0.530D-05-0.239D-05 0.161D-02-0.844D-02-0.231D-01
 Coeff-Com:  0.110D+00 0.920D+00
 Coeff:     -0.120D-06-0.530D-05-0.239D-05 0.161D-02-0.844D-02-0.231D-01
 Coeff:      0.110D+00 0.920D+00
 Gap=     0.515 Goal=   None    Shift=    0.000
 RMSDP=1.32D-08 MaxDP=5.13D-07 DE=-4.64D-11 OVMax= 3.70D-07

 Cycle   9  Pass 1  IDiag  1:
 RMSU=  2.42D-09    CP:  1.03D+00  6.10D-01  9.97D-01  1.28D+00  1.19D+00
                    CP:  1.16D+00  1.14D+00  1.10D+00
 FoFJK:  IHMeth= 1 ICntrl=     0 DoSepK=T KAlg= 1 I1Cent= 0 FoldK=F
 E= -2753.87022479757     Delta-E=        0.000000000011 Rises=F Damp=F
 DIIS: error= 6.83D-09 at cycle   9 NSaved=   9.
 NSaved= 9 IEnMin= 8 EnMin= -2753.87022479758     IErMin= 9 ErrMin= 6.83D-09
 ErrMax= 6.83D-09 EMaxC= 1.00D-01 BMatC= 6.55D-15 BMatP= 1.50D-12
 IDIUse=1 WtCom= 1.00D+00 WtEn= 0.00D+00
 Coeff-Com:  0.108D-07 0.830D-07-0.126D-05-0.127D-03 0.636D-03 0.175D-02
 Coeff-Com: -0.201D-01-0.104D+00 0.112D+01
 Coeff:      0.108D-07 0.830D-07-0.126D-05-0.127D-03 0.636D-03 0.175D-02
 Coeff:     -0.201D-01-0.104D+00 0.112D+01
 Gap=     0.515 Goal=   None    Shift=    0.000
 RMSDP=1.46D-09 MaxDP=5.67D-08 DE= 1.14D-11 OVMax= 9.11D-08

 SCF Done:  E(RwB97XD) =  -2753.87022480     A.U. after    9 cycles
             Convg  =    0.1455D-08             -V/T =  2.0013
 KE= 2.750247989590D+03 PE=-6.580156674174D+03 EE= 1.076038459787D+03
 Leave Link  502 at Mon May  4 11:27:50 2020, MaxMem= 1073741824 cpu:     246.6
 (Enter /home/matheus/.gaussian/g09/l601.exe)
 Copying SCF densities to generalized density rwf, IOpCl= 0 IROHF=0.

 **********************************************************************

            Population analysis using the SCF density.

 **********************************************************************

 Orbital symmetries:
       Occupied  (A) (A) (A) (A) (A) (A) (A) (A) (A) (A) (A) (A)
                 (A) (A) (A) (A) (A) (A)
       Virtual   (A) (A) (A) (A) (A) (A) (A) (A) (A) (A) (A) (A)
                 (A) (A) (A) (A) (A) (A) (A) (A) (A) (A) (A) (A)
                 (A) (A) (A) (A) (A) (A) (A) (A) (A) (A) (A) (A)
                 (A) (A) (A) (A) (A) (A) (A) (A) (A) (A) (A) (A)
                 (A) (A) (A) (A) (A) (A) (A) (A) (A) (A) (A) (A)
                 (A) (A) (A) (A) (A) (A) (A) (A) (A) (A) (A) (A)
                 (A) (A) (A) (A) (A) (A) (A) (A) (A) (A) (A) (A)
                 (A) (A) (A) (A) (A) (A) (A) (A) (A) (A) (A) (A)
                 (A) (A) (A) (A) (A) (A) (A) (A) (A) (A) (A) (A)
                 (A) (A) (A) (A) (A) (A) (A) (A) (A) (A) (A) (A)
                 (A) (A) (A) (A) (A) (A) (A) (A) (A) (A) (A) (A)
                 (A) (A) (A) (A) (A) (A) (A) (A) (A) (A) (A) (A)
                 (A) (A) (A) (A) (A) (A) (A) (A) (A) (A) (A) (A)
                 (A) (A) (A) (A) (A) (A) (A) (A) (A) (A) (A) (A)
                 (A) (A) (A) (A) (A) (A) (A) (A) (A) (A) (A)
 The electronic state is 1-A.
 Alpha  occ. eigenvalues -- -513.08049 -67.34865 -60.89737 -60.89735 -60.89735
 Alpha  occ. eigenvalues --   -9.80180  -7.49480  -7.49479  -7.49478  -3.36164
 Alpha  occ. eigenvalues --   -3.36164  -3.36164  -3.36163  -3.36163  -1.00829
 Alpha  occ. eigenvalues --   -0.48268  -0.48264  -0.48263
 Alpha virt. eigenvalues --    0.03259   0.05205   0.08788   0.09618   0.12095
 Alpha virt. eigenvalues --    0.12595   0.13571   0.14089   0.16509   0.17291
 Alpha virt. eigenvalues --    0.18069   0.19820   0.20780   0.25537   0.26581
 Alpha virt. eigenvalues --    0.26890   0.28522   0.30732   0.32791   0.34312
 Alpha virt. eigenvalues --    0.35894   0.37354   0.38309   0.39521   0.41520
 Alpha virt. eigenvalues --    0.42184   0.42607   0.52568   0.52726   0.57447
 Alpha virt. eigenvalues --    0.58883   0.66808   0.67957   0.69830   0.71896
 Alpha virt. eigenvalues --    0.74148   0.74627   0.75969   0.77202   0.78511
 Alpha virt. eigenvalues --    0.79596   0.80666   0.82897   0.85932   0.86863
 Alpha virt. eigenvalues --    0.88101   0.89139   0.90409   0.91424   0.95338
 Alpha virt. eigenvalues --    0.96604   0.97996   0.98634   0.98884   1.01100
 Alpha virt. eigenvalues --    1.04503   1.06128   1.07688   1.08951   1.11521
 Alpha virt. eigenvalues --    1.15645   1.20182   1.22929   1.26595   1.29155
 Alpha virt. eigenvalues --    1.33174   1.33923   1.39260   1.43955   1.44791
 Alpha virt. eigenvalues --    1.53698   1.57159   1.58721   1.74531   1.77240
 Alpha virt. eigenvalues --    1.79419   1.83504   1.86311   1.99133   2.16014
 Alpha virt. eigenvalues --    2.19266   2.24867   2.27612   2.29727   2.29976
 Alpha virt. eigenvalues --    2.31624   2.32665   2.36346   2.39837   2.40799
 Alpha virt. eigenvalues --    2.43016   2.45810   2.46661   2.48046   2.48609
 Alpha virt. eigenvalues --    2.51580   2.53003   2.54394   2.56478   2.57409
 Alpha virt. eigenvalues --    2.61419   2.62931   2.64042   2.68503   2.71856
 Alpha virt. eigenvalues --    2.73392   2.77897   2.84616   2.88990   2.89401
 Alpha virt. eigenvalues --    2.94434   2.99655   3.04005   3.12048   3.20515
 Alpha virt. eigenvalues --    3.24507   3.25231   3.31182   3.37642   3.48744
 Alpha virt. eigenvalues --    3.61643   3.64413   3.83614   3.87174   4.04674
 Alpha virt. eigenvalues --    4.35600   4.42300   4.51489   4.57281   4.66186
 Alpha virt. eigenvalues --    4.73476   4.88030   4.91509   4.94670   5.00766
 Alpha virt. eigenvalues --    5.13861   5.22376   5.59820   5.65684   5.76251
 Alpha virt. eigenvalues --    5.92490   6.02780   6.12399   6.74833   6.88951
 Alpha virt. eigenvalues --    7.38574   7.46307   7.59284   7.62855   7.76322
 Alpha virt. eigenvalues --    7.83487   7.92493   8.13559   8.17505   8.22714
 Alpha virt. eigenvalues --    8.41224   8.48492   8.57970   8.86728   9.66580
 Alpha virt. eigenvalues --    9.76732   9.85268   9.90162   9.91326  10.00435
 Alpha virt. eigenvalues --   10.15553  10.34837  10.36731  10.98566  11.52637
 Alpha virt. eigenvalues --   11.66901  11.79952  12.07482  12.10934  13.24013
 Alpha virt. eigenvalues --   13.63662  14.52918  62.79427  64.69951
          Condensed to atoms (all electrons):
              1          2          3          4          5
     1  O    0.002012  -0.001670  -0.001262   0.001089  -0.007895
     2  O   -0.001670   0.004982   0.000590  -0.003430  -0.001805
     3  H   -0.001262   0.000590   0.001004  -0.000363   0.001758
     4  H    0.001089  -0.003430  -0.000363   0.003387  -0.019384
     5  Kr  -0.007895  -0.001805   0.001758  -0.019384  36.053360
 Mulliken atomic charges:
              1
     1  O    0.007727
     2  O    0.001333
     3  H   -0.001727
     4  H    0.018701
     5  Kr  -0.026034
 Sum of Mulliken atomic charges =   0.00000
 Mulliken charges with hydrogens summed into heavy atoms:
              1
     1  O    0.006000
     2  O    0.020034
     5  Kr  -0.026034
 Sum of Mulliken charges with hydrogens summed into heavy atoms =   0.00000
          Condensed to fragments (all electrons):
     1       0.026034
     2      -0.026034
 Electronic spatial extent (au):  <R**2>=            164.3779
 Charge=              0.0000 electrons
 Dipole moment (field-independent basis, Debye):
    X=             -0.0007    Y=              0.0005    Z=              0.0001  Tot=              0.0009
 Quadrupole moment (field-independent basis, Debye-Ang):
   XX=            -17.6423   YY=            -17.6542   ZZ=            -17.6613
   XY=             -0.0040   XZ=             -0.0007   YZ=              0.0001
 Traceless Quadrupole moment (field-independent basis, Debye-Ang):
   XX=              0.0103   YY=             -0.0016   ZZ=             -0.0087
   XY=             -0.0040   XZ=             -0.0007   YZ=              0.0001
 Octapole moment (field-independent basis, Debye-Ang**2):
  XXX=            -52.1838  YYY=              0.6200  ZZZ=             -0.0372  XYY=            -17.4079
  XXY=              0.1987  XXZ=             -0.0141  XZZ=            -17.4121  YZZ=              0.2076
  YYZ=             -0.0123  XYZ=              0.0001
 Hexadecapole moment (field-independent basis, Debye-Ang**3):
 XXXX=           -121.3544 YYYY=            -18.4905 ZZZZ=            -18.4992 XXXY=              0.5947
 XXXZ=             -0.0401 YYYX=              0.5991 YYYZ=              0.0003 ZZZX=             -0.0392
 ZZZY=              0.0012 XXYY=            -23.3205 XXZZ=            -23.3230 YYZZ=             -6.1640
 XXYZ=              0.0004 YYXZ=             -0.0126 ZZXY=              0.1984
 N-N= 0.000000000000D+00 E-N=-6.580156673551D+03  KE= 2.750247989590D+03
 No NMR shielding tensors so no spin-rotation constants.
 Leave Link  601 at Mon May  4 11:27:50 2020, MaxMem= 1073741824 cpu:       0.8
 (Enter /home/matheus/.gaussian/g09/l122.exe)
 Counterpoise: doing MCBS calculation for fragment   1
 Leave Link  122 at Mon May  4 11:27:50 2020, MaxMem= 1073741824 cpu:       0.0
 (Enter /home/matheus/.gaussian/g09/l301.exe)
 Basis read from rwf:  (5D, 7F)
 No pseudopotential information found on rwf file.
 There are   138 symmetry adapted basis functions of A   symmetry.
 Integral buffers will be    131072 words long.
 Raffenetti 2 integral format.
 Two-electron integral symmetry is turned on.
   138 basis functions,   198 primitive gaussians,   160 cartesian basis functions
     9 alpha electrons        9 beta electrons
       nuclear repulsion energy        36.6212539076 Hartrees.
 IExCor= 4639 DFT=T Ex+Corr=wB97XD ExCW=0 ScaHFX=  1.000000
 ScaDFX=  1.000000  1.000000  1.000000  1.000000 ScalE2=  1.000000  1.000000
 IRadAn=      5 IRanWt=     -1 IRanGd=            0 ICorTp=0
  HFx wShort=  0.000000 wLong=  0.250000 cFull=  0.222036 cShort=  0.000000 cLong=  0.777964
  DFx wShort=  0.000000 wLong=  0.250000 cFull=  0.000000 cShort=  0.000000 cLong=  1.000000
 NAtoms=    5 NActive=    4 NUniq=    4 SFac= 1.00D+00 NAtFMM=   60 NAOKFM=F Big=F
 R6Disp: Dispersion energy =        -0.0002449821 Hartrees.
 Nuclear repulsion after empirical dispersion term =       36.6210089255 Hartrees.
 No density basis found on file   718.
 Leave Link  301 at Mon May  4 11:27:50 2020, MaxMem= 1073741824 cpu:       0.2
 (Enter /home/matheus/.gaussian/g09/l302.exe)
 NPDir=0 NMtPBC=     1 NCelOv=     1 NCel=       1 NClECP=     1 NCelD=      1
         NCelK=      1 NCelE2=     1 NClLst=     1 CellRange=     0.0.
 One-electron integrals computed using PRISM.
 NBasis=   138 RedAO= T  NBF=   138
 NBsUse=   138 1.00D-06 NBFU=   138
 Precomputing XC quadrature grid using
 IXCGrd= 2 IRadAn=           5 IRanWt=          -1 IRanGd=           0 AccXCQ= 0.00D+00.
 NRdTot=     344 NPtTot=       92556 NUsed=       95038 NTot=       95070
 NSgBfM=   160   160   160   160   160 NAtAll=     4     4.
 Leave Link  302 at Mon May  4 11:27:51 2020, MaxMem= 1073741824 cpu:       0.9
 (Enter /home/matheus/.gaussian/g09/l303.exe)
 DipDrv:  MaxL=1.
 Leave Link  303 at Mon May  4 11:27:51 2020, MaxMem= 1073741824 cpu:       0.2
 (Enter /home/matheus/.gaussian/g09/l401.exe)
 Harris functional with IExCor= 4639 diagonalized for initial guess.
 ExpMin= 2.53D-02 ExpMax= 1.53D+04 ExpMxC= 5.22D+02 IAcc=3 IRadAn=         5 AccDes= 0.00D+00
 HarFok:  IExCor= 4639 AccDes= 0.00D+00 IRadAn=         5 IDoV= 1
 ScaDFX=  1.000000  1.000000  1.000000  1.000000
 FoFCou: FMM=F IPFlag=           0 FMFlag=      100000 FMFlg1=           0
         NFxFlg=           0 DoJE=T BraDBF=F KetDBF=T FulRan=T
         Omega=  0.000000  0.000000  1.000000  0.000000  0.000000 ICntrl=     500 IOpCl=  0
         NMat0=    1 NMatS0=    1 NMatT0=    0 NMatD0=    1 NMtDS0=    0 NMtDT0=    0
         I1Cent=           4 NGrid=           0.
 Petite list used in FoFCou.
 Harris En= -145.946892409102    
 Initial guess orbital symmetries:
       Occupied  (A) (A) (A) (A) (A) (A) (A) (A) (A)
       Virtual   (A) (A) (A) (A) (A) (A) (A) (A) (A) (A) (A) (A)
                 (A) (A) (A) (A) (A) (A) (A) (A) (A) (A) (A) (A)
                 (A) (A) (A) (A) (A) (A) (A) (A) (A) (A) (A) (A)
                 (A) (A) (A) (A) (A) (A) (A) (A) (A) (A) (A) (A)
                 (A) (A) (A) (A) (A) (A) (A) (A) (A) (A) (A) (A)
                 (A) (A) (A) (A) (A) (A) (A) (A) (A) (A) (A) (A)
                 (A) (A) (A) (A) (A) (A) (A) (A) (A) (A) (A) (A)
                 (A) (A) (A) (A) (A) (A) (A) (A) (A) (A) (A) (A)
                 (A) (A) (A) (A) (A) (A) (A) (A) (A) (A) (A) (A)
                 (A) (A) (A) (A) (A) (A) (A) (A) (A) (A) (A) (A)
                 (A) (A) (A) (A) (A) (A) (A) (A) (A)
 The electronic state of the initial guess is 1-A.
 Leave Link  401 at Mon May  4 11:27:51 2020, MaxMem= 1073741824 cpu:       2.3
 (Enter /home/matheus/.gaussian/g09/l502.exe)
 Closed shell SCF:
 Requested convergence on RMS density matrix=1.00D-08 within 128 cycles.
 Requested convergence on MAX density matrix=1.00D-06.
 Requested convergence on             energy=1.00D-06.
 No special actions if energy rises.
 Using DIIS extrapolation, IDIIS=  1040.
 Integral symmetry usage will be decided dynamically.
        94980 words used for storage of precomputed grid.
 IEnd=      192360 IEndB=      192360 NGot=  1073741824 MDV=  1073591865
 LenX=  1073591865 LenY=  1073565824
 Fock matrices will be formed incrementally for  20 cycles.

 Cycle   1  Pass 1  IDiag  1:
 FoFJK:  IHMeth= 1 ICntrl=     0 DoSepK=T KAlg= 1 I1Cent= 0 FoldK=F
 FoFCou: FMM=F IPFlag=           0 FMFlag=      100000 FMFlg1=           0
         NFxFlg=           0 DoJE=T BraDBF=F KetDBF=F FulRan=T
         Omega=  0.000000  0.000000  1.000000  0.000000  0.000000 ICntrl=     500 IOpCl=  0
         NMat0=    1 NMatS0=    1 NMatT0=    0 NMatD0=    1 NMtDS0=    0 NMtDT0=    0
         I1Cent=           0 NGrid=           0.
 Symmetry not used in FoFCou.
 E= -151.460940843856    
 DIIS: error= 4.34D-02 at cycle   1 NSaved=   1.
 NSaved= 1 IEnMin= 1 EnMin= -151.460940843856     IErMin= 1 ErrMin= 4.34D-02
 ErrMax= 4.34D-02 EMaxC= 1.00D-01 BMatC= 3.21D-01 BMatP= 3.21D-01
 IDIUse=3 WtCom= 5.66D-01 WtEn= 4.34D-01
 Coeff-Com:  0.100D+01
 Coeff-En:   0.100D+01
 Coeff:      0.100D+01
 Gap=     0.563 Goal=   None    Shift=    0.000
[...]
 E= -2753.87012685734     Delta-E=       -0.000000490436 Rises=F Damp=F
 DIIS: error= 3.80D-06 at cycle   2 NSaved=   2.
 NSaved= 2 IEnMin= 2 EnMin= -2753.87012685734     IErMin= 2 ErrMin= 3.80D-06
 ErrMax= 3.80D-06 EMaxC= 1.00D-01 BMatC= 3.62D-09 BMatP= 3.53D-06
 IDIUse=1 WtCom= 1.00D+00 WtEn= 0.00D+00
 Coeff-Com: -0.965D-02 0.101D+01
 Coeff:     -0.965D-02 0.101D+01
 Gap=     0.513 Goal=   None    Shift=    0.000
 RMSDP=1.95D-06 MaxDP=7.96D-05 DE=-4.90D-07 OVMax= 4.84D-05

 Cycle   3  Pass 1  IDiag  1:
 RMSU=  5.23D-07    CP:  1.00D+00  1.10D+00
 FoFJK:  IHMeth= 1 ICntrl=     0 DoSepK=T KAlg= 1 I1Cent= 0 FoldK=F
 E= -2753.87012686399     Delta-E=       -0.000000006656 Rises=F Damp=F
 DIIS: error= 6.20D-07 at cycle   3 NSaved=   3.
 NSaved= 3 IEnMin= 3 EnMin= -2753.87012686399     IErMin= 3 ErrMin= 6.20D-07
 ErrMax= 6.20D-07 EMaxC= 1.00D-01 BMatC= 8.83D-11 BMatP= 3.62D-09
 IDIUse=1 WtCom= 1.00D+00 WtEn= 0.00D+00
 Coeff-Com:  0.294D-03-0.129D+00 0.113D+01
 Coeff:      0.294D-03-0.129D+00 0.113D+01
 Gap=     0.513 Goal=   None    Shift=    0.000
 RMSDP=2.38D-07 MaxDP=1.06D-05 DE=-6.66D-09 OVMax= 9.77D-06

 Cycle   4  Pass 1  IDiag  1:
 RMSU=  5.05D-08    CP:  1.00D+00  1.11D+00  1.20D+00
 FoFJK:  IHMeth= 1 ICntrl=     0 DoSepK=T KAlg= 1 I1Cent= 0 FoldK=F
 E= -2753.87012686418     Delta-E=       -0.000000000185 Rises=F Damp=F
 DIIS: error= 3.24D-07 at cycle   4 NSaved=   4.
 NSaved= 4 IEnMin= 4 EnMin= -2753.87012686418     IErMin= 4 ErrMin= 3.24D-07
 ErrMax= 3.24D-07 EMaxC= 1.00D-01 BMatC= 6.97D-12 BMatP= 8.83D-11
 IDIUse=1 WtCom= 1.00D+00 WtEn= 0.00D+00
 Coeff-Com:  0.201D-03-0.462D-01 0.285D+00 0.761D+00
 Coeff:      0.201D-03-0.462D-01 0.285D+00 0.761D+00
 Gap=     0.513 Goal=   None    Shift=    0.000
 RMSDP=1.77D-08 MaxDP=7.79D-07 DE=-1.85D-10 OVMax= 1.08D-06

 Cycle   5  Pass 1  IDiag  1:
 RMSU=  7.53D-09    CP:  1.00D+00  1.11D+00  1.22D+00  1.12D+00
 FoFJK:  IHMeth= 1 ICntrl=     0 DoSepK=T KAlg= 1 I1Cent= 0 FoldK=F
 E= -2753.87012686419     Delta-E=       -0.000000000013 Rises=F Damp=F
 DIIS: error= 2.80D-08 at cycle   5 NSaved=   5.
 NSaved= 5 IEnMin= 5 EnMin= -2753.87012686419     IErMin= 5 ErrMin= 2.80D-08
 ErrMax= 2.80D-08 EMaxC= 1.00D-01 BMatC= 1.20D-13 BMatP= 6.97D-12
 IDIUse=1 WtCom= 1.00D+00 WtEn= 0.00D+00
 Coeff-Com: -0.290D-04 0.945D-02-0.733D-01-0.566D-01 0.112D+01
 Coeff:     -0.290D-04 0.945D-02-0.733D-01-0.566D-01 0.112D+01
 Gap=     0.513 Goal=   None    Shift=    0.000
 RMSDP=9.21D-09 MaxDP=5.55D-07 DE=-1.27D-11 OVMax= 4.19D-07

 SCF Done:  E(RwB97XD) =  -2753.87012686     A.U. after    5 cycles
             Convg  =    0.9214D-08             -V/T =  2.0013
 KE= 2.750283554814D+03 PE=-6.580194886058D+03 EE= 1.076041204380D+03
 Leave Link  502 at Mon May  4 11:52:51 2020, MaxMem= 1073741824 cpu:     102.9
 (Enter /home/matheus/.gaussian/g09/l122.exe)
 Restoring MOs from calculation   4 to rwf.
 Counterpoise: doing MCBS calculation for fragment   1
 Leave Link  122 at Mon May  4 11:52:51 2020, MaxMem= 1073741824 cpu:       0.0
 (Enter /home/matheus/.gaussian/g09/l301.exe)
 Basis read from rwf:  (5D, 7F)
 No pseudopotential information found on rwf file.
 There are   138 symmetry adapted basis functions of A   symmetry.
 Integral buffers will be    131072 words long.
 Raffenetti 2 integral format.
 Two-electron integral symmetry is turned on.
   138 basis functions,   198 primitive gaussians,   160 cartesian basis functions
     9 alpha electrons        9 beta electrons
       nuclear repulsion energy        36.6212539076 Hartrees.
 IExCor= 4639 DFT=T Ex+Corr=wB97XD ExCW=0 ScaHFX=  1.000000
 ScaDFX=  1.000000  1.000000  1.000000  1.000000 ScalE2=  1.000000  1.000000
 IRadAn=      5 IRanWt=     -1 IRanGd=            0 ICorTp=0
  HFx wShort=  0.000000 wLong=  0.250000 cFull=  0.222036 cShort=  0.000000 cLong=  0.777964
  DFx wShort=  0.000000 wLong=  0.250000 cFull=  0.000000 cShort=  0.000000 cLong=  1.000000
 NAtoms=    5 NActive=    4 NUniq=    4 SFac= 1.00D+00 NAtFMM=   60 NAOKFM=F Big=F
 R6Disp: Dispersion energy =        -0.0002449821 Hartrees.
 Nuclear repulsion after empirical dispersion term =       36.6210089255 Hartrees.
 No density basis found on file   718.
 Leave Link  301 at Mon May  4 11:52:51 2020, MaxMem= 1073741824 cpu:       0.2
 (Enter /home/matheus/.gaussian/g09/l302.exe)
 NPDir=0 NMtPBC=     1 NCelOv=     1 NCel=       1 NClECP=     1 NCelD=      1
         NCelK=      1 NCelE2=     1 NClLst=     1 CellRange=     0.0.
 One-electron integrals computed using PRISM.
 NBasis=   138 RedAO= T  NBF=   138
 NBsUse=   138 1.00D-06 NBFU=   138
 Precomputing XC quadrature grid using
 IXCGrd= 2 IRadAn=           5 IRanWt=          -1 IRanGd=           0 AccXCQ= 0.00D+00.
 NRdTot=     344 NPtTot=       92556 NUsed=       95038 NTot=       95070
 NSgBfM=   160   160   160   160   160 NAtAll=     4     4.
 Leave Link  302 at Mon May  4 11:52:52 2020, MaxMem= 1073741824 cpu:       0.8
 (Enter /home/matheus/.gaussian/g09/l303.exe)
 DipDrv:  MaxL=1.
 Leave Link  303 at Mon May  4 11:52:52 2020, MaxMem= 1073741824 cpu:       0.2
 (Enter /home/matheus/.gaussian/g09/l401.exe)
 Initial guess read from the read-write file.
 Guess basis will be translated and rotated to current coordinates.
 Initial guess orbital symmetries:
       Occupied  (A) (A) (A) (A) (A) (A) (A) (A) (A)
       Virtual   (A) (A) (A) (A) (A) (A) (A) (A) (A) (A) (A) (A)
                 (A) (A) (A) (A) (A) (A) (A) (A) (A) (A) (A) (A)
                 (A) (A) (A) (A) (A) (A) (A) (A) (A) (A) (A) (A)
                 (A) (A) (A) (A) (A) (A) (A) (A) (A) (A) (A) (A)
                 (A) (A) (A) (A) (A) (A) (A) (A) (A) (A) (A) (A)
                 (A) (A) (A) (A) (A) (A) (A) (A) (A) (A) (A) (A)
                 (A) (A) (A) (A) (A) (A) (A) (A) (A) (A) (A) (A)
                 (A) (A) (A) (A) (A) (A) (A) (A) (A) (A) (A) (A)
                 (A) (A) (A) (A) (A) (A) (A) (A) (A) (A) (A) (A)
                 (A) (A) (A) (A) (A) (A) (A) (A) (A) (A) (A) (A)
                 (A) (A) (A) (A) (A) (A) (A) (A) (A)
 The electronic state of the initial guess is 1-A.
 Generating alternative initial guess.
 Harris functional with IExCor= 4639 diagonalized for initial guess.
 ExpMin= 2.53D-02 ExpMax= 1.53D+04 ExpMxC= 5.22D+02 IAcc=3 IRadAn=         5 AccDes= 0.00D+00
 HarFok:  IExCor= 4639 AccDes= 0.00D+00 IRadAn=         5 IDoV= 1
 ScaDFX=  1.000000  1.000000  1.000000  1.000000
 FoFCou: FMM=F IPFlag=           0 FMFlag=      100000 FMFlg1=           0
         NFxFlg=           0 DoJE=T BraDBF=F KetDBF=T FulRan=T
         Omega=  0.000000  0.000000  1.000000  0.000000  0.000000 ICntrl=     500 IOpCl=  0
         NMat0=    1 NMatS0=    1 NMatT0=    0 NMatD0=    1 NMtDS0=    0 NMtDT0=    0
         I1Cent=           4 NGrid=           0.
 Petite list used in FoFCou.
 Harris En= -145.946892406578    
 Leave Link  401 at Mon May  4 11:52:52 2020, MaxMem= 1073741824 cpu:       2.7
 (Enter /home/matheus/.gaussian/g09/l502.exe)
 Closed shell SCF:
 Requested convergence on RMS density matrix=1.00D-08 within 128 cycles.
 Requested convergence on MAX density matrix=1.00D-06.
 Requested convergence on             energy=1.00D-06.
 No special actions if energy rises.
 Using DIIS extrapolation, IDIIS=  1040.
 Integral symmetry usage will be decided dynamically.
        94980 words used for storage of precomputed grid.
 IEnd=      192360 IEndB=      192360 NGot=  1073741824 MDV=  1073591865
 LenX=  1073591865 LenY=  1073565824
 Fock matrices will be formed incrementally for  20 cycles.

 Cycle   1  Pass 1  IDiag  1:
 FoFJK:  IHMeth= 1 ICntrl=     0 DoSepK=T KAlg= 1 I1Cent= 0 FoldK=F
 FoFCou: FMM=F IPFlag=           0 FMFlag=      100000 FMFlg1=           0
         NFxFlg=           0 DoJE=T BraDBF=F KetDBF=F FulRan=T
         Omega=  0.000000  0.000000  1.000000  0.000000  0.000000 ICntrl=     500 IOpCl=  0
         NMat0=    1 NMatS0=    1 NMatT0=    0 NMatD0=    1 NMtDS0=    0 NMtDT0=    0
         I1Cent=           0 NGrid=           0.
 Symmetry not used in FoFCou.
 E= -151.560677479333    
 DIIS: error= 1.05D-05 at cycle   1 NSaved=   1.
 NSaved= 1 IEnMin= 1 EnMin= -151.560677479333     IErMin= 1 ErrMin= 1.05D-05
 ErrMax= 1.05D-05 EMaxC= 1.00D-01 BMatC= 2.98D-08 BMatP= 2.98D-08
 IDIUse=1 WtCom= 1.00D+00 WtEn= 0.00D+00
 Coeff-Com:  0.100D+01
 Coeff:      0.100D+01
 Gap=     0.442 Goal=   None    Shift=    0.000
 RMSDP=1.10D-06 MaxDP=2.54D-05              OVMax= 5.38D-05

 Cycle   2  Pass 1  IDiag  1:
 RMSU=  7.78D-07    CP:  1.00D+00
 FoFJK:  IHMeth= 1 ICntrl=     0 DoSepK=T KAlg= 1 I1Cent= 0 FoldK=F
 E= -151.560677510782     Delta-E=       -0.000000031449 Rises=F Damp=F
 DIIS: error= 2.46D-06 at cycle   2 NSaved=   2.
 NSaved= 2 IEnMin= 2 EnMin= -151.560677510782     IErMin= 2 ErrMin= 2.46D-06
 ErrMax= 2.46D-06 EMaxC= 1.00D-01 BMatC= 1.06D-09 BMatP= 2.98D-08
 IDIUse=1 WtCom= 1.00D+00 WtEn= 0.00D+00
 Coeff-Com: -0.116D+00 0.112D+01
 Coeff:     -0.116D+00 0.112D+01
 Gap=     0.442 Goal=   None    Shift=    0.000
 RMSDP=3.45D-07 MaxDP=9.27D-06 DE=-3.14D-08 OVMax= 2.05D-05

 Cycle   3  Pass 1  IDiag  1:
 RMSU=  1.40D-07    CP:  1.00D+00  1.26D+00
 FoFJK:  IHMeth= 1 ICntrl=     0 DoSepK=T KAlg= 1 I1Cent= 0 FoldK=F
 E= -151.560677513104     Delta-E=       -0.000000002321 Rises=F Damp=F
 DIIS: error= 1.16D-06 at cycle   3 NSaved=   3.
 NSaved= 3 IEnMin= 3 EnMin= -151.560677513104     IErMin= 3 ErrMin= 1.16D-06
 ErrMax= 1.16D-06 EMaxC= 1.00D-01 BMatC= 1.97D-10 BMatP= 1.06D-09
 IDIUse=1 WtCom= 1.00D+00 WtEn= 0.00D+00
 Coeff-Com: -0.413D-01 0.231D+00 0.811D+00
 Coeff:     -0.413D-01 0.231D+00 0.811D+00
 Gap=     0.442 Goal=   None    Shift=    0.000
 RMSDP=1.07D-07 MaxDP=3.20D-06 DE=-2.32D-09 OVMax= 6.97D-06

 Cycle   4  Pass 1  IDiag  1:
 RMSU=  6.31D-08    CP:  1.00D+00  1.30D+00  1.14D+00
 FoFJK:  IHMeth= 1 ICntrl=     0 DoSepK=T KAlg= 1 I1Cent= 0 FoldK=F
 E= -151.560677513292     Delta-E=       -0.000000000189 Rises=F Damp=F
 DIIS: error= 8.15D-07 at cycle   4 NSaved=   4.
 NSaved= 4 IEnMin= 4 EnMin= -151.560677513292     IErMin= 4 ErrMin= 8.15D-07
 ErrMax= 8.15D-07 EMaxC= 1.00D-01 BMatC= 1.32D-10 BMatP= 1.97D-10
 IDIUse=1 WtCom= 1.00D+00 WtEn= 0.00D+00
 Coeff-Com:  0.321D-02-0.129D+00 0.472D+00 0.653D+00
 Coeff:      0.321D-02-0.129D+00 0.472D+00 0.653D+00
 Gap=     0.442 Goal=   None    Shift=    0.000
 RMSDP=5.75D-08 MaxDP=1.13D-06 DE=-1.89D-10 OVMax= 3.63D-06

 Cycle   5  Pass 1  IDiag  1:
 RMSU=  1.65D-08    CP:  1.00D+00  1.33D+00  1.35D+00  7.80D-01
 FoFJK:  IHMeth= 1 ICntrl=     0 DoSepK=T KAlg= 1 I1Cent= 0 FoldK=F
 E= -151.560677513410     Delta-E=       -0.000000000118 Rises=F Damp=F
 DIIS: error= 1.54D-07 at cycle   5 NSaved=   5.
 NSaved= 5 IEnMin= 5 EnMin= -151.560677513410     IErMin= 5 ErrMin= 1.54D-07
 ErrMax= 1.54D-07 EMaxC= 1.00D-01 BMatC= 3.19D-12 BMatP= 1.32D-10
 IDIUse=1 WtCom= 1.00D+00 WtEn= 0.00D+00
 Coeff-Com:  0.471D-02-0.427D-01-0.505D-01 0.644D-01 0.102D+01
 Coeff:      0.471D-02-0.427D-01-0.505D-01 0.644D-01 0.102D+01
 Gap=     0.442 Goal=   None    Shift=    0.000
 RMSDP=2.20D-08 MaxDP=4.33D-07 DE=-1.18D-10 OVMax= 1.97D-06

 Cycle   6  Pass 1  IDiag  1:
 RMSU=  5.53D-09    CP:  1.00D+00  1.33D+00  1.42D+00  8.91D-01  1.43D+00
 FoFJK:  IHMeth= 1 ICntrl=     0 DoSepK=T KAlg= 1 I1Cent= 0 FoldK=F
 E= -151.560677513419     Delta-E=       -0.000000000009 Rises=F Damp=F
 DIIS: error= 4.62D-08 at cycle   6 NSaved=   6.
 NSaved= 6 IEnMin= 6 EnMin= -151.560677513419     IErMin= 6 ErrMin= 4.62D-08
 ErrMax= 4.62D-08 EMaxC= 1.00D-01 BMatC= 2.30D-13 BMatP= 3.19D-12
 IDIUse=1 WtCom= 1.00D+00 WtEn= 0.00D+00
 Coeff-Com: -0.437D-03 0.113D-01-0.303D-01-0.461D-01-0.253D-01 0.109D+01
 Coeff:     -0.437D-03 0.113D-01-0.303D-01-0.461D-01-0.253D-01 0.109D+01
 Gap=     0.442 Goal=   None    Shift=    0.000
 RMSDP=7.64D-09 MaxDP=1.61D-07 DE=-8.73D-12 OVMax= 7.29D-07

 SCF Done:  E(RwB97XD) =  -151.560677513     A.U. after    6 cycles
             Convg  =    0.7639D-08             -V/T =  2.0061
 KE= 1.506410935941D+02 PE=-4.316820368911D+02 EE= 9.285925685815D+01
 Leave Link  502 at Mon May  4 11:52:58 2020, MaxMem= 1073741824 cpu:      51.3
 (Enter /home/matheus/.gaussian/g09/l122.exe)
 Restoring MOs from calculation   5 to rwf.
 Counterpoise: doing MCBS calculation for fragment   2
 Leave Link  122 at Mon May  4 11:52:58 2020, MaxMem= 1073741824 cpu:       0.0
 (Enter /home/matheus/.gaussian/g09/l301.exe)
 Basis read from rwf:  (5D, 7F)
 No pseudopotential information found on rwf file.
 There are    59 symmetry adapted basis functions of A   symmetry.
 Integral buffers will be    131072 words long.
 Raffenetti 2 integral format.
 Two-electron integral symmetry is turned on.
    59 basis functions,   217 primitive gaussians,    69 cartesian basis functions
    18 alpha electrons       18 beta electrons
       nuclear repulsion energy         0.0000000000 Hartrees.
 IExCor= 4639 DFT=T Ex+Corr=wB97XD ExCW=0 ScaHFX=  1.000000
 ScaDFX=  1.000000  1.000000  1.000000  1.000000 ScalE2=  1.000000  1.000000
 IRadAn=      5 IRanWt=     -1 IRanGd=            0 ICorTp=0
  HFx wShort=  0.000000 wLong=  0.250000 cFull=  0.222036 cShort=  0.000000 cLong=  0.777964
  DFx wShort=  0.000000 wLong=  0.250000 cFull=  0.000000 cShort=  0.000000 cLong=  1.000000
 NAtoms=    5 NActive=    1 NUniq=    1 SFac= 1.00D+00 NAtFMM=   60 NAOKFM=F Big=F
 R6Disp: Dispersion energy =         0.0000000000 Hartrees.
 Nuclear repulsion after empirical dispersion term =        0.0000000000 Hartrees.
 No density basis found on file   718.
 Leave Link  301 at Mon May  4 11:52:58 2020, MaxMem= 1073741824 cpu:       0.2
 (Enter /home/matheus/.gaussian/g09/l302.exe)
 NPDir=0 NMtPBC=     1 NCelOv=     1 NCel=       1 NClECP=     1 NCelD=      1
         NCelK=      1 NCelE2=     1 NClLst=     1 CellRange=     0.0.
 One-electron integrals computed using PRISM.
 NBasis=    59 RedAO= T  NBF=    59
 NBsUse=    59 1.00D-06 NBFU=    59
 Precomputing XC quadrature grid using
 IXCGrd= 2 IRadAn=           5 IRanWt=          -1 IRanGd=           0 AccXCQ= 0.00D+00.
 NRdTot=      81 NPtTot=       30352 NUsed=       30981 NTot=       31013
 NSgBfM=    69    69    69    69    69 NAtAll=     1     1.
 Leave Link  302 at Mon May  4 11:52:59 2020, MaxMem= 1073741824 cpu:       0.7
 (Enter /home/matheus/.gaussian/g09/l303.exe)
 DipDrv:  MaxL=1.
 Leave Link  303 at Mon May  4 11:52:59 2020, MaxMem= 1073741824 cpu:       0.1
 (Enter /home/matheus/.gaussian/g09/l401.exe)
 Initial guess read from the read-write file.
 Guess basis will be translated and rotated to current coordinates.
 Initial guess orbital symmetries:
       Occupied  (A) (A) (A) (A) (A) (A) (A) (A) (A) (A) (A) (A)
                 (A) (A) (A) (A) (A) (A)
       Virtual   (A) (A) (A) (A) (A) (A) (A) (A) (A) (A) (A) (A)
                 (A) (A) (A) (A) (A) (A) (A) (A) (A) (A) (A) (A)
                 (A) (A) (A) (A) (A) (A) (A) (A) (A) (A) (A) (A)
                 (A) (A) (A) (A) (A)
 The electronic state of the initial guess is 1-A.
 Generating alternative initial guess.
 Harris functional with IExCor= 4639 diagonalized for initial guess.
 ExpMin= 4.00D-02 ExpMax= 1.17D+07 ExpMxC= 1.33D+04 IAcc=3 IRadAn=         5 AccDes= 0.00D+00
 HarFok:  IExCor= 4639 AccDes= 0.00D+00 IRadAn=         5 IDoV= 1
 ScaDFX=  1.000000  1.000000  1.000000  1.000000
 FoFCou: FMM=F IPFlag=           0 FMFlag=      100000 FMFlg1=           0
         NFxFlg=           0 DoJE=T BraDBF=F KetDBF=T FulRan=T
         Omega=  0.000000  0.000000  1.000000  0.000000  0.000000 ICntrl=     500 IOpCl=  0
         NMat0=    1 NMatS0=    1 NMatT0=    0 NMatD0=    1 NMtDS0=    0 NMtDT0=    0
         I1Cent=           4 NGrid=           0.
 Petite list used in FoFCou.
 Harris En= -2729.45839233129    
 Leave Link  401 at Mon May  4 11:52:59 2020, MaxMem= 1073741824 cpu:       1.0
 (Enter /home/matheus/.gaussian/g09/l502.exe)
 Closed shell SCF:
 Requested convergence on RMS density matrix=1.00D-08 within 128 cycles.
 Requested convergence on MAX density matrix=1.00D-06.
 Requested convergence on             energy=1.00D-06.
 No special actions if energy rises.
 Using DIIS extrapolation, IDIIS=  1040.
 Integral symmetry usage will be decided dynamically.
        30923 words used for storage of precomputed grid.
 IEnd=       64406 IEndB=       64406 NGot=  1073741824 MDV=  1073698889
 LenX=  1073698889 LenY=  1073693687
 Fock matrices will be formed incrementally for  20 cycles.

 Cycle   1  Pass 1  IDiag  1:
 FoFJK:  IHMeth= 1 ICntrl=     0 DoSepK=T KAlg= 1 I1Cent= 0 FoldK=F
 FoFCou: FMM=F IPFlag=           0 FMFlag=      100000 FMFlg1=           0
         NFxFlg=           0 DoJE=T BraDBF=F KetDBF=F FulRan=T
         Omega=  0.000000  0.000000  1.000000  0.000000  0.000000 ICntrl=     500 IOpCl=  0
         NMat0=    1 NMatS0=    1 NMatT0=    0 NMatD0=    1 NMtDS0=    0 NMtDT0=    0
         I1Cent=           0 NGrid=           0.
 Symmetry not used in FoFCou.
 E= -2753.87011063501    
 DIIS: error= 9.42D-14 at cycle   1 NSaved=   1.
 NSaved= 1 IEnMin= 1 EnMin= -2753.87011063501     IErMin= 1 ErrMin= 9.42D-14
 ErrMax= 9.42D-14 EMaxC= 1.00D-01 BMatC= 3.27D-25 BMatP= 3.27D-25
 IDIUse=1 WtCom= 1.00D+00 WtEn= 0.00D+00
 Coeff-Com:  0.100D+01
 Coeff:      0.100D+01
 Gap=     0.578 Goal=   None    Shift=    0.000
 RMSDP=7.24D-15 MaxDP=1.63D-13              OVMax= 8.95D-14

 SCF Done:  E(RwB97XD) =  -2753.87011064     A.U. after    1 cycles
             Convg  =    0.7242D-14             -V/T =  2.0013
 KE= 2.750289370128D+03 PE=-6.580200885036D+03 EE= 1.076041404273D+03
 Leave Link  502 at Mon May  4 11:53:00 2020, MaxMem= 1073741824 cpu:      12.0
 (Enter /home/matheus/.gaussian/g09/l122.exe)
 Restoring MOs from calculation   1 to rwf.
 Counterpoise: corrected energy =   -2905.431104638827
 Counterpoise: BSSE energy =       0.000019866368
 Leave Link  122 at Mon May  4 11:53:00 2020, MaxMem= 1073741824 cpu:       0.0
 (Enter /home/matheus/.gaussian/g09/l108.exe)
 Scan completed.

 Summary of the potential surface scan:
   N      R1          SCF    
 ----  ---------  -----------
    1     3.0000  -2753.87011
    2     3.1000  -2753.87011
    3     3.2000  -2753.87011
    4     3.3000  -2753.87011
    5     3.4000  -2753.87011
    6     3.5000  -2753.87011
    7     3.6000  -2753.87011
    8     3.7000  -2753.87011
    9     3.8000  -2753.87011
   10     3.9000  -2753.87011
   11     4.0000  -2753.87011
   12     4.1000  -2753.87011
   13     4.2000  -2753.87011
   14     4.3000  -2753.87011
   15     4.4000  -2753.87011
   16     4.5000  -2753.87011
   17     4.6000  -2753.87011
   18     4.7000  -2753.87011
   19     4.8000  -2753.87011
   20     4.9000  -2753.87011
   21     5.0000  -2753.87011
 ----  ---------  -----------
  
 Leave Link  108 at Mon May  4 11:53:00 2020, MaxMem= 1073741824 cpu:       0.0
 (Enter /home/matheus/.gaussian/g09/l9999.exe)

 Test job not archived.
 1\1\GINC-REDGIANT\Scan\RwB97XD\Aug-CC-pVTZ\H2Kr1O2\ROOT\04-May-2020\1\
 \#p wb97xd/aug-cc-PVTz iop(3/107=0250000000) iop(3/108=0250000000) int
 =ultrafine counterpoise=2 Scan\\TCC\\0,1\O,0,0.,0.,0.725\O,0,0.,0.,-0.
 725\H,0,-0.9047631646,-0.1595341571,1.0235104166\H,0,0.,0.9187205947,-
 1.0235104166\Kr,0,0.,R1,0.\\R1=3.,s,20,0.1\\Version=EM64L-G09RevC.01\S
 tate=1-A\HF=-2753.8701106,-2753.8701106,-2753.8701106,-2753.8701106,-2
 753.8701106,-2753.8701106,-2753.8701106,-2753.8701106,-2753.8701106,-2
 753.8701106,-2753.8701106,-2753.8701106,-2753.8701106,-2753.8701106,-2
 753.8701106,-2753.8701106,-2753.8701106,-2753.8701106,-2753.8701106,-2
 753.8701106,-2753.8701106\RMSD=9.654e-09,1.847e-10,5.405e-11,3.457e-11
 ,1.948e-11,1.188e-11,7.095e-12,4.276e-12,2.571e-12,1.550e-12,9.273e-13
 ,5.539e-13,3.310e-13,2.018e-13,1.225e-13,7.294e-14,4.039e-14,2.333e-14
 ,1.697e-14,1.510e-14,7.242e-15\PG=C01 [X(H2Kr1O2)]\\@


 MOM AND DAD WENT TO ALPHA CENTAURI AND ALL
 I GOT WAS THIS DUMB T-SHIRT.
 Job cpu time:  0 days  3 hours 35 minutes 39.1 seconds.
 File lengths (MBytes):  RWF=     33 Int=      0 D2E=      0 Chk=      8 Scr=      1
 Normal termination of Gaussian 09 at Mon May  4 11:53:00 2020.
