 Entering Gaussian System, Link 0=g09
 Input=/home/matheus/.tcc/Inputs-wb97xd/H2O2-Kr_25.com
 Output=/home/matheus/.tcc/Logs-wb97xd/H2O2-Kr_25.log
 Initial command:
 /home/matheus/.gaussian/g09/l1.exe /home/matheus/.gaussian/g09/scratch/Gau-19737.inp -scrdir=/home/matheus/.gaussian/g09/scratch/
 Entering Link 1 = /home/matheus/.gaussian/g09/l1.exe PID=     19740.
  
 Copyright (c) 1988,1990,1992,1993,1995,1998,2003,2009,2011,
            Gaussian, Inc.  All Rights Reserved.
  
 This is part of the Gaussian(R) 09 program.  It is based on
 the Gaussian(R) 03 system (copyright 2003, Gaussian, Inc.),
 the Gaussian(R) 98 system (copyright 1998, Gaussian, Inc.),
 the Gaussian(R) 94 system (copyright 1995, Gaussian, Inc.),
 the Gaussian 92(TM) system (copyright 1992, Gaussian, Inc.),
 the Gaussian 90(TM) system (copyright 1990, Gaussian, Inc.),
 the Gaussian 88(TM) system (copyright 1988, Gaussian, Inc.),
 the Gaussian 86(TM) system (copyright 1986, Carnegie Mellon
 University), and the Gaussian 82(TM) system (copyright 1983,
 Carnegie Mellon University). Gaussian is a federally registered
 trademark of Gaussian, Inc.
  
 This software contains proprietary and confidential information,
 including trade secrets, belonging to Gaussian, Inc.
  
 This software is provided under written license and may be
 used, copied, transmitted, or stored only in accord with that
 written license.
  
 The following legend is applicable only to US Government
 contracts under FAR:
  
                    RESTRICTED RIGHTS LEGEND
  
 Use, reproduction and disclosure by the US Government is
 subject to restrictions as set forth in subparagraphs (a)
 and (c) of the Commercial Computer Software - Restricted
 Rights clause in FAR 52.227-19.
  
 Gaussian, Inc.
 340 Quinnipiac St., Bldg. 40, Wallingford CT 06492
  
  
 ---------------------------------------------------------------
 Warning -- This program may not be used in any manner that
 competes with the business of Gaussian, Inc. or will provide
 assistance to any competitor of Gaussian, Inc.  The licensee
 of this program is prohibited from giving any competitor of
 Gaussian, Inc. access to this program.  By using this program,
 the user acknowledges that Gaussian, Inc. is engaged in the
 business of creating and licensing software in the field of
 computational chemistry and represents and warrants to the
 licensee that it is not a competitor of Gaussian, Inc. and that
 it will not use this program in any manner prohibited above.
 ---------------------------------------------------------------
  

 Cite this work as:
 Gaussian 09, Revision C.01,
 M. J. Frisch, G. W. Trucks, H. B. Schlegel, G. E. Scuseria, 
 M. A. Robb, J. R. Cheeseman, G. Scalmani, V. Barone, B. Mennucci, 
 G. A. Petersson, H. Nakatsuji, M. Caricato, X. Li, H. P. Hratchian, 
 A. F. Izmaylov, J. Bloino, G. Zheng, J. L. Sonnenberg, M. Hada, 
 M. Ehara, K. Toyota, R. Fukuda, J. Hasegawa, M. Ishida, T. Nakajima, 
 Y. Honda, O. Kitao, H. Nakai, T. Vreven, J. A. Montgomery, Jr., 
 J. E. Peralta, F. Ogliaro, M. Bearpark, J. J. Heyd, E. Brothers, 
 K. N. Kudin, V. N. Staroverov, T. Keith, R. Kobayashi, J. Normand, 
 K. Raghavachari, A. Rendell, J. C. Burant, S. S. Iyengar, J. Tomasi, 
 M. Cossi, N. Rega, J. M. Millam, M. Klene, J. E. Knox, J. B. Cross, 
 V. Bakken, C. Adamo, J. Jaramillo, R. Gomperts, R. E. Stratmann, 
 O. Yazyev, A. J. Austin, R. Cammi, C. Pomelli, J. W. Ochterski, 
 R. L. Martin, K. Morokuma, V. G. Zakrzewski, G. A. Voth, 
 P. Salvador, J. J. Dannenberg, S. Dapprich, A. D. Daniels, 
 O. Farkas, J. B. Foresman, J. V. Ortiz, J. Cioslowski, 
 and D. J. Fox, Gaussian, Inc., Wallingford CT, 2010.
 
 ******************************************
 Gaussian 09:  EM64L-G09RevC.01 23-Sep-2011
                 4-May-2020 
 ******************************************
 %mem=8GB
 %nproc=8
 Will use up to    8 processors via shared memory.
 ----------------------------------------------------------------------
 #p wb97xd/aug-cc-PVTz iop(3/107=0250000000) iop(3/108=0250000000) int=
 ultrafine counterpoise=2 Scan
 ----------------------------------------------------------------------
 1/38=1,60=1,62=2/1,8;
 2/12=2,17=6,18=5,29=3,40=1/2;
 1/38=1,53=5172,62=2/22;
 3/5=16,6=1,7=10,11=2,16=1,25=1,30=1,74=-58,75=-5,107=250000000,108=250000000/1,2,3;
 4//1;
 5/5=2,38=5/2;
 6/7=2,8=2,9=2,10=2,18=1,28=1/1;
 1/53=4052,62=2,63=1/22;
 3/5=7,6=11,7=10,11=2,16=1,25=1,30=1,74=-58,75=-5,82=7,107=250000000,108=250000000/1,2,3;
 4//1;
 5/5=2,38=5/2;
 6/7=2,8=2,9=2,10=2,18=1,28=1/1;
 1/53=3042,62=2,63=2/22;
 3/5=7,6=11,7=10,11=2,16=1,25=1,30=1,74=-58,75=-5,82=7,107=250000000,108=250000000/1,2,3;
 4//1;
 5/5=2,38=5/2;
 6/7=2,8=2,9=2,10=2,18=1,28=1/1;
 1/53=2032,62=2,63=3/22;
 3/5=7,6=11,7=10,11=2,16=1,25=1,30=1,74=-58,75=-5,82=7,107=250000000,108=250000000/1,2,3;
 4//1;
 5/5=2,38=5/2;
 6/7=2,8=2,9=2,10=2,18=1,28=1/1;
 1/53=1022,62=2,63=4/22;
 3/5=7,6=11,7=10,11=2,16=1,25=1,30=1,74=-58,75=-5,82=7,107=250000000,108=250000000/1,2,3;
 4//1;
 5/5=2,38=5/2;
 6/7=2,8=2,9=2,10=2,18=1,28=1/1;
 1/53=5014,62=2,63=5/22;
 1/60=1,62=2/8(1);
 99/9=1/99;
 2/29=3/2;
 1/53=5173,62=2/22;
 3/5=7,6=11,7=10,11=2,16=1,25=1,30=1,74=-58,75=-5,82=7,107=250000000,108=250000000/1,2,3;
 4/5=5,16=3/1;
 5/5=2,38=5/2;
 1/53=4053,62=2,63=1/22;
 3/5=7,6=11,7=10,11=2,16=1,25=1,30=1,74=-58,75=-5,82=7,107=250000000,108=250000000/1,2,3;
 4/5=5,16=3/1;
 5/5=2,38=5/2;
 1/53=3043,62=2,63=2/22;
 3/5=7,6=11,7=10,11=2,16=1,25=1,30=1,74=-58,75=-5,82=7,107=250000000,108=250000000/1,2,3;
 4/5=5,16=3/1;
 5/5=2,38=5/2;
 1/53=2033,62=2,63=3/22;
 3/5=7,6=11,7=10,11=2,16=1,25=1,30=1,74=-58,75=-5,82=7,107=250000000,108=250000000/1,2,3;
 4/5=5,16=3/1;
 5/5=2,38=5/2;
 1/53=1024,62=2,63=4/22;
 3/5=7,6=11,7=10,11=2,16=1,25=1,30=1,74=-58,75=-5,82=7,107=250000000,108=250000000/1,2,3;
 4/5=5,16=3/1;
 5/5=2,38=5/2;
 1/53=5014,62=2,63=5/22;
 1/60=1,62=2/8(-22);
 99/9=1/99;
 Leave Link    1 at Mon May  4 10:59:45 2020, MaxMem= 1073741824 cpu:       0.4
 (Enter /home/matheus/.gaussian/g09/l101.exe)
 ---
 TCC
 ---
 Charge =  0 Multiplicity = 1 in supermolecule
 Charge =  0 Multiplicity = 1 in fragment  1.
 Charge =  0 Multiplicity = 1 in fragment  2.
 Symbolic Z-Matrix:
 O(Fragment=1)         0.        0.        0.725 
 O(Fragment=1)         0.        0.       -0.725 
 H(Fragment=1)        -0.86331  -0.31422   1.02351 
 H(Fragment=1)         0.        0.91872  -1.02351 
 Kr(Fragment=2)        0.       R1        0. 
       Variables:
  R1                    3.     Scan 20    0.1    
 
 NAtoms=      5 NQM=        0 NQMF=       0 NMMI=      5 NMMIF=      0
                NMic=       0 NMicF=      0.
                    Isotopes and Nuclear Properties:
 (Nuclear quadrupole moments (NQMom) in fm**2, nuclear magnetic moments (NMagM)
  in nuclear magnetons)

  Atom         1           2           3           4           5
 IAtWgt=          16          16           1           1          84
 AtmWgt=  15.9949146  15.9949146   1.0078250   1.0078250  83.9115064
 NucSpn=           0           0           1           1           0
 AtZEff=   0.0000000   0.0000000   0.0000000   0.0000000   0.0000000
 NQMom=    0.0000000   0.0000000   0.0000000   0.0000000   0.0000000
 NMagM=    0.0000000   0.0000000   2.7928460   2.7928460   0.0000000
 Leave Link  101 at Mon May  4 10:59:45 2020, MaxMem= 1073741824 cpu:       0.3
 (Enter /home/matheus/.gaussian/g09/l108.exe)
 Scan the potential surface.
 Variable   Value     No. Steps Step-Size
 -------- ----------- --------- ---------
     1       3.000000      20      0.1000
 A total of     21 points will be computed.
 Leave Link  108 at Mon May  4 10:59:45 2020, MaxMem= 1073741824 cpu:       0.0
 (Enter /home/matheus/.gaussian/g09/l202.exe)
 ---------------------------------------------------------------------------------------------------
                            Z-MATRIX (ANGSTROMS AND DEGREES)
   CD    Cent   Atom    N1       Length/X        N2       Alpha/Y        N3        Beta/Z          J
 ---------------------------------------------------------------------------------------------------
      1      1  O        0   0.000000          0.000000          0.725000
      2      2  O        0   0.000000          0.000000         -0.725000
      3      3  H        0  -0.863315         -0.314221          1.023510
      4      4  H        0   0.000000          0.918721         -1.023510
      5      5  Kr       0   0.000000          3.000000          0.000000
 ---------------------------------------------------------------------------------------------------
                         Z-Matrix orientation:                         
 ---------------------------------------------------------------------
 Center     Atomic      Atomic             Coordinates (Angstroms)
 Number     Number       Type             X           Y           Z
 ---------------------------------------------------------------------
      1          8           0        0.000000    0.000000    0.725000
      2          8           0        0.000000    0.000000   -0.725000
      3          1           0       -0.863315   -0.314221    1.023510
      4          1           0        0.000000    0.918721   -1.023510
      5         36           0        0.000000    3.000000    0.000000
 ---------------------------------------------------------------------
                    Distance matrix (angstroms):
                    1          2          3          4          5
     1  O    0.000000
     2  O    1.450000   0.000000
     3  H    0.966000   1.975180   0.000000
     4  H    1.975180   0.966000   2.540817   0.000000
     5  Kr   3.086361   3.086361   3.574486   2.319331   0.000000
 Stoichiometry    H2KrO2
 Framework group  C1[X(H2KrO2)]
 Deg. of freedom     9
 Full point group                 C1      NOp   1
 Largest Abelian subgroup         C1      NOp   1
 Largest concise Abelian subgroup C1      NOp   1
                         Standard orientation:                         
 ---------------------------------------------------------------------
 Center     Atomic      Atomic             Coordinates (Angstroms)
 Number     Number       Type             X           Y           Z
 ---------------------------------------------------------------------
      1          8           0       -2.019994   -0.690833   -0.114713
      2          8           0       -2.000697    0.753572    0.011068
      3          1           0       -2.354569   -1.058170    0.713707
      4          1           0       -1.078253    1.037233    0.053361
      5         36           0        0.988843   -0.013360    0.001725
 ---------------------------------------------------------------------
 Rotational constants (GHZ):     25.7302436      2.3305908      2.1494082
 Leave Link  202 at Mon May  4 10:59:45 2020, MaxMem= 1073741824 cpu:       0.0
 (Enter /home/matheus/.gaussian/g09/l122.exe)
 Leave Link  122 at Mon May  4 10:59:45 2020, MaxMem= 1073741824 cpu:       0.0
 (Enter /home/matheus/.gaussian/g09/l301.exe)
 Standard basis: Aug-CC-pVTZ (5D, 7F)
 Ernie: Thresh=  0.10000D-02 Tol=  0.10000D-05 Strict=F.
 Ernie:  38 primitive shells out of 205 were deleted.
 There are   197 symmetry adapted basis functions of A   symmetry.
 Integral buffers will be    131072 words long.
 Raffenetti 2 integral format.
 Two-electron integral symmetry is turned on.
   197 basis functions,   415 primitive gaussians,   229 cartesian basis functions
    27 alpha electrons       27 beta electrons
       nuclear repulsion energy       148.9188377957 Hartrees.
 IExCor= 4639 DFT=T Ex+Corr=wB97XD ExCW=0 ScaHFX=  1.000000
 ScaDFX=  1.000000  1.000000  1.000000  1.000000 ScalE2=  1.000000  1.000000
 IRadAn=      5 IRanWt=     -1 IRanGd=            0 ICorTp=0
  HFx wShort=  0.000000 wLong=  0.250000 cFull=  0.222036 cShort=  0.000000 cLong=  0.777964
  DFx wShort=  0.000000 wLong=  0.250000 cFull=  0.000000 cShort=  0.000000 cLong=  1.000000
 NAtoms=    5 NActive=    5 NUniq=    5 SFac= 1.00D+00 NAtFMM=   60 NAOKFM=F Big=F
 R6Disp: Dispersion energy =        -0.0008883210 Hartrees.
 Nuclear repulsion after empirical dispersion term =      148.9179494746 Hartrees.
 Leave Link  301 at Mon May  4 10:59:45 2020, MaxMem= 1073741824 cpu:       0.2
 (Enter /home/matheus/.gaussian/g09/l302.exe)
 NPDir=0 NMtPBC=     1 NCelOv=     1 NCel=       1 NClECP=     1 NCelD=      1
         NCelK=      1 NCelE2=     1 NClLst=     1 CellRange=     0.0.
 One-electron integrals computed using PRISM.
 NBasis=   197 RedAO= T  NBF=   197
 NBsUse=   197 1.00D-06 NBFU=   197
 Precomputing XC quadrature grid using
 IXCGrd= 2 IRadAn=           5 IRanWt=          -1 IRanGd=           0 AccXCQ= 0.00D+00.
 NRdTot=     427 NPtTot=      123512 NUsed=      126579 NTot=      126611
 NSgBfM=   229   229   229   229   229 NAtAll=     5     5.
 Leave Link  302 at Mon May  4 10:59:46 2020, MaxMem= 1073741824 cpu:       0.9
 (Enter /home/matheus/.gaussian/g09/l303.exe)
 DipDrv:  MaxL=1.
 Leave Link  303 at Mon May  4 10:59:46 2020, MaxMem= 1073741824 cpu:       0.3
 (Enter /home/matheus/.gaussian/g09/l401.exe)
 Harris functional with IExCor= 4639 diagonalized for initial guess.
 ExpMin= 2.53D-02 ExpMax= 1.17D+07 ExpMxC= 1.33D+04 IAcc=3 IRadAn=         5 AccDes= 0.00D+00
 HarFok:  IExCor= 4639 AccDes= 0.00D+00 IRadAn=         5 IDoV= 1
 ScaDFX=  1.000000  1.000000  1.000000  1.000000
 FoFCou: FMM=F IPFlag=           0 FMFlag=      100000 FMFlg1=           0
         NFxFlg=           0 DoJE=T BraDBF=F KetDBF=T FulRan=T
         Omega=  0.000000  0.000000  1.000000  0.000000  0.000000 ICntrl=     500 IOpCl=  0
         NMat0=    1 NMatS0=    1 NMatT0=    0 NMatD0=    1 NMtDS0=    0 NMtDT0=    0
         I1Cent=           4 NGrid=           0.
 Petite list used in FoFCou.
 Harris En= -2875.39765341077    
 Initial guess orbital symmetries:
       Occupied  (A) (A) (A) (A) (A) (A) (A) (A) (A) (A) (A) (A)
                 (A) (A) (A) (A) (A) (A) (A) (A) (A) (A) (A) (A)
                 (A) (A) (A)
       Virtual   (A) (A) (A) (A) (A) (A) (A) (A) (A) (A) (A) (A)
                 (A) (A) (A) (A) (A) (A) (A) (A) (A) (A) (A) (A)
                 (A) (A) (A) (A) (A) (A) (A) (A) (A) (A) (A) (A)
                 (A) (A) (A) (A) (A) (A) (A) (A) (A) (A) (A) (A)
                 (A) (A) (A) (A) (A) (A) (A) (A) (A) (A) (A) (A)
                 (A) (A) (A) (A) (A) (A) (A) (A) (A) (A) (A) (A)
                 (A) (A) (A) (A) (A) (A) (A) (A) (A) (A) (A) (A)
                 (A) (A) (A) (A) (A) (A) (A) (A) (A) (A) (A) (A)
                 (A) (A) (A) (A) (A) (A) (A) (A) (A) (A) (A) (A)
                 (A) (A) (A) (A) (A) (A) (A) (A) (A) (A) (A) (A)
                 (A) (A) (A) (A) (A) (A) (A) (A) (A) (A) (A) (A)
                 (A) (A) (A) (A) (A) (A) (A) (A) (A) (A) (A) (A)
                 (A) (A) (A) (A) (A) (A) (A) (A) (A) (A) (A) (A)
                 (A) (A) (A) (A) (A) (A) (A) (A) (A) (A) (A) (A)
                 (A) (A)
 The electronic state of the initial guess is 1-A.
 Leave Link  401 at Mon May  4 10:59:46 2020, MaxMem= 1073741824 cpu:       4.0
 (Enter /home/matheus/.gaussian/g09/l502.exe)
 Closed shell SCF:
 Requested convergence on RMS density matrix=1.00D-08 within 128 cycles.
 Requested convergence on MAX density matrix=1.00D-06.
 Requested convergence on             energy=1.00D-06.
 No special actions if energy rises.
 Using DIIS extrapolation, IDIIS=  1040.
 Integral symmetry usage will be decided dynamically.
       126521 words used for storage of precomputed grid.
 IEnd=      305468 IEndB=      305468 NGot=  1073741824 MDV=  1073505667
 LenX=  1073505667 LenY=  1073452785
 Fock matrices will be formed incrementally for  20 cycles.

 Cycle   1  Pass 1  IDiag  1:
 FoFJK:  IHMeth= 1 ICntrl=     0 DoSepK=T KAlg= 1 I1Cent= 0 FoldK=F
 FoFCou: FMM=F IPFlag=           0 FMFlag=      100000 FMFlg1=           0
         NFxFlg=           0 DoJE=T BraDBF=F KetDBF=F FulRan=T
         Omega=  0.000000  0.000000  1.000000  0.000000  0.000000 ICntrl=     500 IOpCl=  0
         NMat0=    1 NMatS0=    1 NMatT0=    0 NMatD0=    1 NMtDS0=    0 NMtDT0=    0
         I1Cent=           0 NGrid=           0.
 Symmetry not used in FoFCou.
 E= -2904.90313253594    
 DIIS: error= 7.19D-02 at cycle   1 NSaved=   1.
 NSaved= 1 IEnMin= 1 EnMin= -2904.90313253594     IErMin= 1 ErrMin= 7.19D-02
 ErrMax= 7.19D-02 EMaxC= 1.00D-01 BMatC= 2.22D+00 BMatP= 2.22D+00
 IDIUse=3 WtCom= 2.81D-01 WtEn= 7.19D-01
 Coeff-Com:  0.100D+01
 Coeff-En:   0.100D+01
 Coeff:      0.100D+01
 Gap=     0.556 Goal=   None    Shift=    0.000
 GapD=    0.556 DampG=2.000 DampE=0.500 DampFc=1.0000 IDamp=-1.
 RMSDP=6.14D-03 MaxDP=3.66D-01              OVMax= 1.82D-01

 Cycle   2  Pass 1  IDiag  1:
 RMSU=  4.31D-03    CP:  1.03D+00
 FoFJK:  IHMeth= 1 ICntrl=     0 DoSepK=T KAlg= 1 I1Cent= 0 FoldK=F
 E= -2905.22293256332     Delta-E=       -0.319800027381 Rises=F Damp=F
 DIIS: error= 2.99D-02 at cycle   2 NSaved=   2.
 NSaved= 2 IEnMin= 2 EnMin= -2905.22293256332     IErMin= 2 ErrMin= 2.99D-02
 ErrMax= 2.99D-02 EMaxC= 1.00D-01 BMatC= 5.66D-01 BMatP= 2.22D+00
 IDIUse=3 WtCom= 7.01D-01 WtEn= 2.99D-01
 Coeff-Com:  0.328D+00 0.672D+00
 Coeff-En:   0.199D+00 0.801D+00
 Coeff:      0.289D+00 0.711D+00
 Gap=     0.500 Goal=   None    Shift=    0.000
 RMSDP=2.68D-03 MaxDP=1.56D-01 DE=-3.20D-01 OVMax= 7.38D-02

 Cycle   3  Pass 1  IDiag  1:
 RMSU=  5.64D-04    CP:  1.02D+00  5.83D-01
 FoFJK:  IHMeth= 1 ICntrl=     0 DoSepK=T KAlg= 1 I1Cent= 0 FoldK=F
 E= -2905.41813801030     Delta-E=       -0.195205446983 Rises=F Damp=F
 DIIS: error= 6.55D-03 at cycle   3 NSaved=   3.
 NSaved= 3 IEnMin= 3 EnMin= -2905.41813801030     IErMin= 3 ErrMin= 6.55D-03
 ErrMax= 6.55D-03 EMaxC= 1.00D-01 BMatC= 1.78D-02 BMatP= 5.66D-01
 IDIUse=3 WtCom= 9.35D-01 WtEn= 6.55D-02
 Coeff-Com:  0.347D-01 0.187D+00 0.778D+00
 Coeff-En:   0.000D+00 0.000D+00 0.100D+01
 Coeff:      0.324D-01 0.175D+00 0.793D+00
 Gap=     0.449 Goal=   None    Shift=    0.000
 RMSDP=4.72D-04 MaxDP=1.91D-02 DE=-1.95D-01 OVMax= 2.61D-02

 Cycle   4  Pass 1  IDiag  1:
 RMSU=  2.30D-04    CP:  1.02D+00  6.38D-01  9.04D-01
 FoFJK:  IHMeth= 1 ICntrl=     0 DoSepK=T KAlg= 1 I1Cent= 0 FoldK=F
 E= -2905.42631205447     Delta-E=       -0.008174044172 Rises=F Damp=F
 DIIS: error= 2.41D-03 at cycle   4 NSaved=   4.
 NSaved= 4 IEnMin= 4 EnMin= -2905.42631205447     IErMin= 4 ErrMin= 2.41D-03
 ErrMax= 2.41D-03 EMaxC= 1.00D-01 BMatC= 1.80D-03 BMatP= 1.78D-02
 IDIUse=3 WtCom= 9.76D-01 WtEn= 2.41D-02
 Coeff-Com: -0.238D-02 0.469D-01 0.370D+00 0.586D+00
 Coeff-En:   0.000D+00 0.000D+00 0.000D+00 0.100D+01
 Coeff:     -0.232D-02 0.458D-01 0.361D+00 0.596D+00
 Gap=     0.434 Goal=   None    Shift=    0.000
 RMSDP=1.19D-04 MaxDP=6.83D-03 DE=-8.17D-03 OVMax= 6.86D-03

 Cycle   5  Pass 1  IDiag  1:
 RMSU=  4.07D-05    CP:  1.02D+00  6.36D-01  9.52D-01  7.08D-01
 FoFJK:  IHMeth= 1 ICntrl=     0 DoSepK=T KAlg= 1 I1Cent= 0 FoldK=F
 E= -2905.42739317479     Delta-E=       -0.001081120317 Rises=F Damp=F
 DIIS: error= 2.56D-04 at cycle   5 NSaved=   5.
 NSaved= 5 IEnMin= 5 EnMin= -2905.42739317479     IErMin= 5 ErrMin= 2.56D-04
 ErrMax= 2.56D-04 EMaxC= 1.00D-01 BMatC= 2.44D-05 BMatP= 1.80D-03
 IDIUse=3 WtCom= 9.97D-01 WtEn= 2.56D-03
 Coeff-Com: -0.146D-02 0.102D-01 0.999D-01 0.181D+00 0.710D+00
 Coeff-En:   0.000D+00 0.000D+00 0.000D+00 0.000D+00 0.100D+01
 Coeff:     -0.145D-02 0.101D-01 0.996D-01 0.181D+00 0.711D+00
 Gap=     0.433 Goal=   None    Shift=    0.000
 RMSDP=2.26D-05 MaxDP=9.97D-04 DE=-1.08D-03 OVMax= 1.48D-03

 Cycle   6  Pass 1  IDiag  1:
 RMSU=  1.44D-05    CP:  1.02D+00  6.36D-01  9.60D-01  7.26D-01  1.08D+00
 FoFJK:  IHMeth= 1 ICntrl=     0 DoSepK=T KAlg= 1 I1Cent= 0 FoldK=F
 E= -2905.42740583617     Delta-E=       -0.000012661384 Rises=F Damp=F
 DIIS: error= 1.57D-04 at cycle   6 NSaved=   6.
 NSaved= 6 IEnMin= 6 EnMin= -2905.42740583617     IErMin= 6 ErrMin= 1.57D-04
 ErrMax= 1.57D-04 EMaxC= 1.00D-01 BMatC= 1.02D-05 BMatP= 2.44D-05
 IDIUse=3 WtCom= 9.98D-01 WtEn= 1.57D-03
 Coeff-Com: -0.257D-03-0.614D-02-0.346D-01-0.471D-01 0.399D+00 0.689D+00
 Coeff-En:   0.000D+00 0.000D+00 0.000D+00 0.000D+00 0.188D+00 0.812D+00
 Coeff:     -0.256D-03-0.614D-02-0.346D-01-0.470D-01 0.399D+00 0.689D+00
 Gap=     0.433 Goal=   None    Shift=    0.000
 RMSDP=1.27D-05 MaxDP=4.58D-04 DE=-1.27D-05 OVMax= 7.11D-04

 Cycle   7  Pass 1  IDiag  1:
 RMSU=  3.73D-06    CP:  1.02D+00  6.36D-01  9.67D-01  7.35D-01  1.24D+00
                    CP:  8.38D-01
 FoFJK:  IHMeth= 1 ICntrl=     0 DoSepK=T KAlg= 1 I1Cent= 0 FoldK=F
 E= -2905.42741331895     Delta-E=       -0.000007482773 Rises=F Damp=F
 DIIS: error= 1.32D-05 at cycle   7 NSaved=   7.
 NSaved= 7 IEnMin= 7 EnMin= -2905.42741331895     IErMin= 7 ErrMin= 1.32D-05
 ErrMax= 1.32D-05 EMaxC= 1.00D-01 BMatC= 7.46D-08 BMatP= 1.02D-05
 IDIUse=1 WtCom= 1.00D+00 WtEn= 0.00D+00
 Coeff-Com:  0.300D-04-0.104D-02-0.766D-02-0.114D-01-0.394D-02 0.608D-01
 Coeff-Com:  0.963D+00
 Coeff:      0.300D-04-0.104D-02-0.766D-02-0.114D-01-0.394D-02 0.608D-01
 Coeff:      0.963D+00
 Gap=     0.433 Goal=   None    Shift=    0.000
 RMSDP=2.55D-06 MaxDP=7.55D-05 DE=-7.48D-06 OVMax= 2.05D-04

 Cycle   8  Pass 1  IDiag  1:
 RMSU=  8.40D-07    CP:  1.02D+00  6.36D-01  9.68D-01  7.37D-01  1.26D+00
                    CP:  8.89D-01  1.20D+00
 FoFJK:  IHMeth= 1 ICntrl=     0 DoSepK=T KAlg= 1 I1Cent= 0 FoldK=F
 E= -2905.42741347310     Delta-E=       -0.000000154149 Rises=F Damp=F
 DIIS: error= 3.58D-06 at cycle   8 NSaved=   8.
 NSaved= 8 IEnMin= 8 EnMin= -2905.42741347310     IErMin= 8 ErrMin= 3.58D-06
 ErrMax= 3.58D-06 EMaxC= 1.00D-01 BMatC= 4.55D-09 BMatP= 7.46D-08
 IDIUse=1 WtCom= 1.00D+00 WtEn= 0.00D+00
 Coeff-Com:  0.142D-04 0.248D-03 0.132D-02 0.152D-02-0.220D-01-0.323D-01
 Coeff-Com:  0.297D-01 0.102D+01
 Coeff:      0.142D-04 0.248D-03 0.132D-02 0.152D-02-0.220D-01-0.323D-01
 Coeff:      0.297D-01 0.102D+01
 Gap=     0.433 Goal=   None    Shift=    0.000
 RMSDP=7.11D-07 MaxDP=1.67D-05 DE=-1.54D-07 OVMax= 7.43D-05

 Cycle   9  Pass 1  IDiag  1:
 RMSU=  2.30D-07    CP:  1.02D+00  6.36D-01  9.68D-01  7.37D-01  1.27D+00
                    CP:  8.99D-01  1.27D+00  1.29D+00
 FoFJK:  IHMeth= 1 ICntrl=     0 DoSepK=T KAlg= 1 I1Cent= 0 FoldK=F
 E= -2905.42741348646     Delta-E=       -0.000000013361 Rises=F Damp=F
 DIIS: error= 1.28D-06 at cycle   9 NSaved=   9.
 NSaved= 9 IEnMin= 9 EnMin= -2905.42741348646     IErMin= 9 ErrMin= 1.28D-06
 ErrMax= 1.28D-06 EMaxC= 1.00D-01 BMatC= 4.11D-10 BMatP= 4.55D-09
 IDIUse=1 WtCom= 1.00D+00 WtEn= 0.00D+00
 Coeff-Com: -0.214D-05 0.656D-04 0.488D-03 0.563D-03 0.591D-03-0.209D-02
 Coeff-Com: -0.578D-01-0.768D-01 0.113D+01
 Coeff:     -0.214D-05 0.656D-04 0.488D-03 0.563D-03 0.591D-03-0.209D-02
 Coeff:     -0.578D-01-0.768D-01 0.113D+01
 Gap=     0.433 Goal=   None    Shift=    0.000
 RMSDP=2.51D-07 MaxDP=6.71D-06 DE=-1.34D-08 OVMax= 3.28D-05

 Cycle  10  Pass 1  IDiag  1:
 RMSU=  8.32D-08    CP:  1.02D+00  6.36D-01  9.68D-01  7.36D-01  1.27D+00
                    CP:  9.00D-01  1.29D+00  1.40D+00  1.44D+00
 FoFJK:  IHMeth= 1 ICntrl=     0 DoSepK=T KAlg= 1 I1Cent= 0 FoldK=F
 E= -2905.42741348809     Delta-E=       -0.000000001638 Rises=F Damp=F
 DIIS: error= 4.26D-07 at cycle  10 NSaved=  10.
 NSaved=10 IEnMin=10 EnMin= -2905.42741348809     IErMin=10 ErrMin= 4.26D-07
 ErrMax= 4.26D-07 EMaxC= 1.00D-01 BMatC= 5.19D-11 BMatP= 4.11D-10
 IDIUse=1 WtCom= 1.00D+00 WtEn= 0.00D+00
 Coeff-Com: -0.629D-06-0.167D-04-0.989D-04-0.102D-03 0.184D-02 0.289D-02
 Coeff-Com:  0.931D-03-0.117D+00 0.888D-01 0.102D+01
 Coeff:     -0.629D-06-0.167D-04-0.989D-04-0.102D-03 0.184D-02 0.289D-02
 Coeff:      0.931D-03-0.117D+00 0.888D-01 0.102D+01
 Gap=     0.433 Goal=   None    Shift=    0.000
 RMSDP=8.45D-08 MaxDP=1.85D-06 DE=-1.64D-09 OVMax= 1.21D-05

 Cycle  11  Pass 1  IDiag  1:
 RMSU=  2.17D-08    CP:  1.02D+00  6.36D-01  9.68D-01  7.36D-01  1.27D+00
                    CP:  9.00D-01  1.29D+00  1.42D+00  1.63D+00  1.34D+00
 FoFJK:  IHMeth= 1 ICntrl=     0 DoSepK=T KAlg= 1 I1Cent= 0 FoldK=F
 E= -2905.42741348828     Delta-E=       -0.000000000181 Rises=F Damp=F
 DIIS: error= 1.58D-07 at cycle  11 NSaved=  11.
 NSaved=11 IEnMin=11 EnMin= -2905.42741348828     IErMin=11 ErrMin= 1.58D-07
 ErrMax= 1.58D-07 EMaxC= 1.00D-01 BMatC= 6.30D-12 BMatP= 5.19D-11
 IDIUse=1 WtCom= 1.00D+00 WtEn= 0.00D+00
 Coeff-Com:  0.473D-06-0.697D-05-0.580D-04-0.500D-04-0.274D-03 0.202D-04
 Coeff-Com:  0.899D-02 0.827D-02-0.131D+00-0.993D-01 0.121D+01
 Coeff:      0.473D-06-0.697D-05-0.580D-04-0.500D-04-0.274D-03 0.202D-04
 Coeff:      0.899D-02 0.827D-02-0.131D+00-0.993D-01 0.121D+01
 Gap=     0.433 Goal=   None    Shift=    0.000
 RMSDP=3.73D-08 MaxDP=7.90D-07 DE=-1.81D-10 OVMax= 5.57D-06

 Cycle  12  Pass 1  IDiag  1:
 RMSU=  7.48D-09    CP:  1.02D+00  6.36D-01  9.68D-01  7.36D-01  1.27D+00
                    CP:  9.00D-01  1.28D+00  1.42D+00  1.70D+00  1.54D+00
                    CP:  1.43D+00
 FoFJK:  IHMeth= 1 ICntrl=     0 DoSepK=T KAlg= 1 I1Cent= 0 FoldK=F
 E= -2905.42741348829     Delta-E=       -0.000000000016 Rises=F Damp=F
 DIIS: error= 4.14D-08 at cycle  12 NSaved=  12.
 NSaved=12 IEnMin=12 EnMin= -2905.42741348829     IErMin=12 ErrMin= 4.14D-08
 ErrMax= 4.14D-08 EMaxC= 1.00D-01 BMatC= 3.50D-13 BMatP= 6.30D-12
 IDIUse=1 WtCom= 1.00D+00 WtEn= 0.00D+00
 Coeff-Com: -0.431D-07 0.967D-06 0.813D-05-0.219D-06-0.119D-03-0.189D-03
 Coeff-Com: -0.307D-03 0.652D-02 0.820D-02-0.652D-01-0.135D+00 0.119D+01
 Coeff:     -0.431D-07 0.967D-06 0.813D-05-0.219D-06-0.119D-03-0.189D-03
 Coeff:     -0.307D-03 0.652D-02 0.820D-02-0.652D-01-0.135D+00 0.119D+01
 Gap=     0.433 Goal=   None    Shift=    0.000
 RMSDP=9.87D-09 MaxDP=2.38D-07 DE=-1.64D-11 OVMax= 1.27D-06

 SCF Done:  E(RwB97XD) =  -2905.42741349     A.U. after   12 cycles
             Convg  =    0.9867D-08             -V/T =  2.0015
 KE= 2.900936246595D+03 PE=-7.236076886116D+03 EE= 1.280795276558D+03
 Leave Link  502 at Mon May  4 11:00:23 2020, MaxMem= 1073741824 cpu:     296.3
 (Enter /home/matheus/.gaussian/g09/l601.exe)
 Copying SCF densities to generalized density rwf, IOpCl= 0 IROHF=0.

 **********************************************************************

            Population analysis using the SCF density.

 **********************************************************************

 Orbital symmetries:
       Occupied  (A) (A) (A) (A) (A) (A) (A) (A) (A) (A) (A) (A)
                 (A) (A) (A) (A) (A) (A) (A) (A) (A) (A) (A) (A)
                 (A) (A) (A)
       Virtual   (A) (A) (A) (A) (A) (A) (A) (A) (A) (A) (A) (A)
                 (A) (A) (A) (A) (A) (A) (A) (A) (A) (A) (A) (A)
                 (A) (A) (A) (A) (A) (A) (A) (A) (A) (A) (A) (A)
                 (A) (A) (A) (A) (A) (A) (A) (A) (A) (A) (A) (A)
                 (A) (A) (A) (A) (A) (A) (A) (A) (A) (A) (A) (A)
                 (A) (A) (A) (A) (A) (A) (A) (A) (A) (A) (A) (A)
                 (A) (A) (A) (A) (A) (A) (A) (A) (A) (A) (A) (A)
                 (A) (A) (A) (A) (A) (A) (A) (A) (A) (A) (A) (A)
                 (A) (A) (A) (A) (A) (A) (A) (A) (A) (A) (A) (A)
                 (A) (A) (A) (A) (A) (A) (A) (A) (A) (A) (A) (A)
                 (A) (A) (A) (A) (A) (A) (A) (A) (A) (A) (A) (A)
                 (A) (A) (A) (A) (A) (A) (A) (A) (A) (A) (A) (A)
                 (A) (A) (A) (A) (A) (A) (A) (A) (A) (A) (A) (A)
                 (A) (A) (A) (A) (A) (A) (A) (A) (A) (A) (A) (A)
                 (A) (A)
 The electronic state is 1-A.
 Alpha  occ. eigenvalues -- -513.09215 -67.36042 -60.90923 -60.90910 -60.90901
 Alpha  occ. eigenvalues --  -19.34023 -19.33646  -9.81371  -7.50707  -7.50664
 Alpha  occ. eigenvalues --   -7.50638  -3.37388  -3.37380  -3.37360  -3.37325
 Alpha  occ. eigenvalues --   -3.37322  -1.24515  -1.03328  -1.02042  -0.66402
 Alpha  occ. eigenvalues --   -0.60142  -0.53394  -0.49780  -0.49394  -0.48595
 Alpha  occ. eigenvalues --   -0.42487  -0.39778
 Alpha virt. eigenvalues --    0.03521   0.04348   0.08270   0.09789   0.10521
 Alpha virt. eigenvalues --    0.11828   0.13582   0.13970   0.17054   0.17943
 Alpha virt. eigenvalues --    0.18392   0.19012   0.20509   0.22169   0.23493
 Alpha virt. eigenvalues --    0.24395   0.25655   0.28042   0.31058   0.32941
 Alpha virt. eigenvalues --    0.34180   0.35059   0.35767   0.38375   0.39220
 Alpha virt. eigenvalues --    0.40529   0.42355   0.47386   0.51779   0.54877
 Alpha virt. eigenvalues --    0.55401   0.58593   0.60690   0.64979   0.67513
 Alpha virt. eigenvalues --    0.69462   0.70756   0.71955   0.74503   0.74917
 Alpha virt. eigenvalues --    0.75180   0.76756   0.77307   0.79195   0.81740
 Alpha virt. eigenvalues --    0.84362   0.85368   0.87568   0.88594   0.89463
 Alpha virt. eigenvalues --    0.91494   0.93247   0.93582   0.95535   0.99294
 Alpha virt. eigenvalues --    1.00211   1.01773   1.04000   1.04661   1.06915
 Alpha virt. eigenvalues --    1.08502   1.14880   1.15698   1.17816   1.21769
 Alpha virt. eigenvalues --    1.24291   1.29004   1.32753   1.36206   1.39890
 Alpha virt. eigenvalues --    1.43282   1.49132   1.49769   1.52167   1.58085
 Alpha virt. eigenvalues --    1.66210   1.71301   1.81457   1.87818   1.93008
 Alpha virt. eigenvalues --    1.96913   2.00557   2.07847   2.12432   2.13558
 Alpha virt. eigenvalues --    2.14711   2.16369   2.17693   2.20913   2.24600
 Alpha virt. eigenvalues --    2.26312   2.28542   2.30306   2.30632   2.33921
 Alpha virt. eigenvalues --    2.37120   2.39190   2.42025   2.43449   2.46523
 Alpha virt. eigenvalues --    2.47536   2.48174   2.52980   2.54343   2.56270
 Alpha virt. eigenvalues --    2.58005   2.60841   2.61907   2.67244   2.70343
 Alpha virt. eigenvalues --    2.72076   2.75473   2.77138   2.85287   2.86206
 Alpha virt. eigenvalues --    2.90636   3.03983   3.10040   3.13282   3.59475
 Alpha virt. eigenvalues --    3.65619   3.87878   3.92847   4.01127   4.09700
 Alpha virt. eigenvalues --    4.10261   4.17695   4.22181   4.25107   4.26466
 Alpha virt. eigenvalues --    4.37134   4.48899   4.51519   4.54665   4.67169
 Alpha virt. eigenvalues --    4.87724   4.95264   5.01647   5.13314   5.13851
 Alpha virt. eigenvalues --    5.20868   5.43693   5.83686   6.05430   6.11435
 Alpha virt. eigenvalues --    6.14475   6.29782   6.32756   6.44127   6.54590
 Alpha virt. eigenvalues --    6.55914   6.78037   6.79387   6.80852   6.82772
 Alpha virt. eigenvalues --    6.86875   6.88244   6.88718   6.97510   7.00987
 Alpha virt. eigenvalues --    7.06357   7.15850   7.24587   7.43992   7.68106
 Alpha virt. eigenvalues --    7.81346   8.08588   8.12118  13.98999  14.67548
          Condensed to atoms (all electrons):
              1          2          3          4          5
     1  O    8.166298  -0.164443   0.225660   0.001687  -0.020905
     2  O   -0.164443   8.240865   0.009000   0.197623  -0.017220
     3  H    0.225660   0.009000   0.544548   0.002228   0.001036
     4  H    0.001687   0.197623   0.002228   0.555085  -0.004229
     5  Kr  -0.020905  -0.017220   0.001036  -0.004229  36.032330
 Mulliken atomic charges:
              1
     1  O   -0.208297
     2  O   -0.265824
     3  H    0.217528
     4  H    0.247606
     5  Kr   0.008988
 Sum of Mulliken atomic charges =   0.00000
 Mulliken charges with hydrogens summed into heavy atoms:
              1
     1  O    0.009231
     2  O   -0.018219
     5  Kr   0.008988
 Sum of Mulliken charges with hydrogens summed into heavy atoms =   0.00000
          Condensed to fragments (all electrons):
     1      -0.008988
     2       0.008988
 Electronic spatial extent (au):  <R**2>=            486.9919
 Charge=              0.0000 electrons
 Dipole moment (field-independent basis, Debye):
    X=              1.1824    Y=             -0.4051    Z=              1.4184  Tot=              1.8905
 Quadrupole moment (field-independent basis, Debye-Ang):
   XX=            -32.2240   YY=            -27.9707   ZZ=            -29.2262
   XY=              2.9489   XZ=             -3.6243   YZ=             -1.6858
 Traceless Quadrupole moment (field-independent basis, Debye-Ang):
   XX=             -2.4170   YY=              1.8363   ZZ=              0.5807
   XY=              2.9489   XZ=             -3.6243   YZ=             -1.6858
 Octapole moment (field-independent basis, Debye-Ang**2):
  XXX=             25.2587  YYY=             -1.0728  ZZZ=              1.0694  XYY=              4.4592
  XXY=            -10.3553  XXZ=              8.6651  XZZ=              5.3982  YZZ=             -1.6955
  YYZ=              2.0760  XYZ=              4.1959
 Hexadecapole moment (field-independent basis, Debye-Ang**3):
 XXXX=           -428.1051 YYYY=            -63.1929 ZZZZ=            -29.8987 XXXY=             26.0739
 XXXZ=            -22.0361 YYYX=              5.1058 YYYZ=             -2.3817 ZZZX=             -3.0827
 ZZZY=             -1.6838 XXYY=            -77.9348 XXZZ=            -71.6300 YYZZ=            -16.1555
 XXYZ=            -10.4200 YYXZ=             -4.9564 ZZXY=              3.5976
 N-N= 1.489179494746D+02 E-N=-7.236076884388D+03  KE= 2.900936246595D+03
 No NMR shielding tensors so no spin-rotation constants.
 Leave Link  601 at Mon May  4 11:00:23 2020, MaxMem= 1073741824 cpu:       0.8
 (Enter /home/matheus/.gaussian/g09/l122.exe)
 Counterpoise: doing DCBS calculation for fragment   1 NewBq=T
 Leave Link  122 at Mon May  4 11:00:23 2020, MaxMem= 1073741824 cpu:       0.0
 (Enter /home/matheus/.gaussian/g09/l301.exe)
 Basis read from rwf:  (5D, 7F)
 No pseudopotential information found on rwf file.
 There are   197 symmetry adapted basis functions of A   symmetry.
 Integral buffers will be    131072 words long.
 Raffenetti 2 integral format.
 Two-electron integral symmetry is turned on.
   197 basis functions,   415 primitive gaussians,   229 cartesian basis functions
     9 alpha electrons        9 beta electrons
       nuclear repulsion energy        36.6165119696 Hartrees.
 IExCor= 4639 DFT=T Ex+Corr=wB97XD ExCW=0 ScaHFX=  1.000000
 ScaDFX=  1.000000  1.000000  1.000000  1.000000 ScalE2=  1.000000  1.000000
 IRadAn=      5 IRanWt=     -1 IRanGd=            0 ICorTp=0
  HFx wShort=  0.000000 wLong=  0.250000 cFull=  0.222036 cShort=  0.000000 cLong=  0.777964
  DFx wShort=  0.000000 wLong=  0.250000 cFull=  0.000000 cShort=  0.000000 cLong=  1.000000
 NAtoms=    5 NActive=    5 NUniq=    5 SFac= 1.00D+00 NAtFMM=   60 NAOKFM=F Big=F
 R6Disp: Dispersion energy =        -0.0002360568 Hartrees.
 Nuclear repulsion after empirical dispersion term =       36.6162759129 Hartrees.
 No density basis found on file   718.
 Leave Link  301 at Mon May  4 11:00:23 2020, MaxMem= 1073741824 cpu:       0.2
 (Enter /home/matheus/.gaussian/g09/l302.exe)
 NPDir=0 NMtPBC=     1 NCelOv=     1 NCel=       1 NClECP=     1 NCelD=      1
         NCelK=      1 NCelE2=     1 NClLst=     1 CellRange=     0.0.
 One-electron integrals computed using PRISM.
 NBasis=   197 RedAO= T  NBF=   197
 NBsUse=   197 1.00D-06 NBFU=   197
 Precomputing XC quadrature grid using
 IXCGrd= 2 IRadAn=           5 IRanWt=          -1 IRanGd=           0 AccXCQ= 0.00D+00.
 NRdTot=     427 NPtTot=      123512 NUsed=      126579 NTot=      126611
 NSgBfM=   229   229   229   229   229 NAtAll=     5     5.
 Leave Link  302 at Mon May  4 11:00:24 2020, MaxMem= 1073741824 cpu:       1.0
 (Enter /home/matheus/.gaussian/g09/l303.exe)
 DipDrv:  MaxL=1.
 Leave Link  303 at Mon May  4 11:00:24 2020, MaxMem= 1073741824 cpu:       0.2
 (Enter /home/matheus/.gaussian/g09/l401.exe)
 Harris functional with IExCor= 4639 diagonalized for initial guess.
 ExpMin= 2.53D-02 ExpMax= 1.17D+07 ExpMxC= 1.33D+04 IAcc=3 IRadAn=         5 AccDes= 0.00D+00
 HarFok:  IExCor= 4639 AccDes= 0.00D+00 IRadAn=         5 IDoV= 1
 ScaDFX=  1.000000  1.000000  1.000000  1.000000
 FoFCou: FMM=F IPFlag=           0 FMFlag=      100000 FMFlg1=           0
         NFxFlg=           0 DoJE=T BraDBF=F KetDBF=T FulRan=T
         Omega=  0.000000  0.000000  1.000000  0.000000  0.000000 ICntrl=     500 IOpCl=  0
         NMat0=    1 NMatS0=    1 NMatT0=    0 NMatD0=    1 NMtDS0=    0 NMtDT0=    0
         I1Cent=           4 NGrid=           0.
 Petite list used in FoFCou.
 Harris En= -145.946596459070    
 Initial guess orbital symmetries:
       Occupied  (A) (A) (A) (A) (A) (A) (A) (A) (A)
       Virtual   (A) (A) (A) (A) (A) (A) (A) (A) (A) (A) (A) (A)
                 (A) (A) (A) (A) (A) (A) (A) (A) (A) (A) (A) (A)
                 (A) (A) (A) (A) (A) (A) (A) (A) (A) (A) (A) (A)
                 (A) (A) (A) (A) (A) (A) (A) (A) (A) (A) (A) (A)
                 (A) (A) (A) (A) (A) (A) (A) (A) (A) (A) (A) (A)
                 (A) (A) (A) (A) (A) (A) (A) (A) (A) (A) (A) (A)
                 (A) (A) (A) (A) (A) (A) (A) (A) (A) (A) (A) (A)
                 (A) (A) (A) (A) (A) (A) (A) (A) (A) (A) (A) (A)
                 (A) (A) (A) (A) (A) (A) (A) (A) (A) (A) (A) (A)
                 (A) (A) (A) (A) (A) (A) (A) (A) (A) (A) (A) (A)
                 (A) (A) (A) (A) (A) (A) (A) (A) (A) (A) (A) (A)
                 (A) (A) (A) (A) (A) (A) (A) (A) (A) (A) (A) (A)
                 (A) (A) (A) (A) (A) (A) (A) (A) (A) (A) (A) (A)
                 (A) (A) (A) (A) (A) (A) (A) (A) (A) (A) (A) (A)
                 (A) (A) (A) (A) (A) (A) (A) (A) (A) (A) (A) (A)
                 (A) (A) (A) (A) (A) (A) (A) (A)
 The electronic state of the initial guess is 1-A.
 Leave Link  401 at Mon May  4 11:00:24 2020, MaxMem= 1073741824 cpu:       4.1
 (Enter /home/matheus/.gaussian/g09/l502.exe)
 Closed shell SCF:
 Requested convergence on RMS density matrix=1.00D-08 within 128 cycles.
 Requested convergence on MAX density matrix=1.00D-06.
 Requested convergence on             energy=1.00D-06.
 No special actions if energy rises.
 Using DIIS extrapolation, IDIIS=  1040.
 Integral symmetry usage will be decided dynamically.
       126521 words used for storage of precomputed grid.
 IEnd=      305468 IEndB=      305468 NGot=  1073741824 MDV=  1073505667
 LenX=  1073505667 LenY=  1073452785
 Fock matrices will be formed incrementally for  20 cycles.

 Cycle   1  Pass 1  IDiag  1:
 FoFJK:  IHMeth= 1 ICntrl=     0 DoSepK=T KAlg= 1 I1Cent= 0 FoldK=F
 FoFCou: FMM=F IPFlag=           0 FMFlag=      100000 FMFlg1=           0
         NFxFlg=           0 DoJE=T BraDBF=F KetDBF=F FulRan=T
         Omega=  0.000000  0.000000  1.000000  0.000000  0.000000 ICntrl=     500 IOpCl=  0
         NMat0=    1 NMatS0=    1 NMatT0=    0 NMatD0=    1 NMtDS0=    0 NMtDT0=    0
         I1Cent=           0 NGrid=           0.
 Symmetry not used in FoFCou.
 E= -151.460889687983    
 DIIS: error= 3.36D-02 at cycle   1 NSaved=   1.
 NSaved= 1 IEnMin= 1 EnMin= -151.460889687983     IErMin= 1 ErrMin= 3.36D-02
 ErrMax= 3.36D-02 EMaxC= 1.00D-01 BMatC= 3.22D-01 BMatP= 3.22D-01
 IDIUse=3 WtCom= 6.64D-01 WtEn= 3.36D-01
 Coeff-Com:  0.100D+01
 Coeff-En:   0.100D+01
 Coeff:      0.100D+01
 Gap=     0.554 Goal=   None    Shift=    0.000
 GapD=    0.554 DampG=2.000 DampE=0.500 DampFc=1.0000 IDamp=-1.
 RMSDP=2.45D-03 MaxDP=1.03D-01              OVMax= 1.22D-01

 Cycle   2  Pass 1  IDiag  1:
 RMSU=  1.70D-03    CP:  9.53D-01
 FoFJK:  IHMeth= 1 ICntrl=     0 DoSepK=T KAlg= 1 I1Cent= 0 FoldK=F
 E= -151.500155300308     Delta-E=       -0.039265612325 Rises=F Damp=F
 DIIS: error= 1.61D-02 at cycle   2 NSaved=   2.
 NSaved= 2 IEnMin= 2 EnMin= -151.500155300308     IErMin= 2 ErrMin= 1.61D-02
 ErrMax= 1.61D-02 EMaxC= 1.00D-01 BMatC= 1.04D-01 BMatP= 3.22D-01
 IDIUse=3 WtCom= 8.39D-01 WtEn= 1.61D-01
 Coeff-Com:  0.342D+00 0.658D+00
 Coeff-En:   0.347D+00 0.653D+00
 Coeff:      0.343D+00 0.657D+00
 Gap=     0.497 Goal=   None    Shift=    0.000
 RMSDP=1.01D-03 MaxDP=4.90D-02 DE=-3.93D-02 OVMax= 6.02D-02

 Cycle   3  Pass 1  IDiag  1:
 RMSU=  3.76D-04    CP:  9.73D-01  6.56D-01
 FoFJK:  IHMeth= 1 ICntrl=     0 DoSepK=T KAlg= 1 I1Cent= 0 FoldK=F
 E= -151.556876170120     Delta-E=       -0.056720869811 Rises=F Damp=F
 DIIS: error= 4.81D-03 at cycle   3 NSaved=   3.
 NSaved= 3 IEnMin= 3 EnMin= -151.556876170120     IErMin= 3 ErrMin= 4.81D-03
 ErrMax= 4.81D-03 EMaxC= 1.00D-01 BMatC= 5.61D-03 BMatP= 1.04D-01
 IDIUse=3 WtCom= 9.52D-01 WtEn= 4.81D-02
 Coeff-Com:  0.953D-02 0.194D+00 0.796D+00
 Coeff-En:   0.000D+00 0.000D+00 0.100D+01
 Coeff:      0.907D-02 0.185D+00 0.806D+00
 Gap=     0.434 Goal=   None    Shift=    0.000
 RMSDP=2.61D-04 MaxDP=9.98D-03 DE=-5.67D-02 OVMax= 1.62D-02

 Cycle   4  Pass 1  IDiag  1:
 RMSU=  7.29D-05    CP:  9.68D-01  7.49D-01  8.75D-01
 FoFJK:  IHMeth= 1 ICntrl=     0 DoSepK=T KAlg= 1 I1Cent= 0 FoldK=F
 E= -151.560503280677     Delta-E=       -0.003627110557 Rises=F Damp=F
 DIIS: error= 4.44D-04 at cycle   4 NSaved=   4.
 NSaved= 4 IEnMin= 4 EnMin= -151.560503280677     IErMin= 4 ErrMin= 4.44D-04
 ErrMax= 4.44D-04 EMaxC= 1.00D-01 BMatC= 5.93D-05 BMatP= 5.61D-03
 IDIUse=3 WtCom= 9.96D-01 WtEn= 4.44D-03
 Coeff-Com: -0.129D-02 0.530D-02 0.110D+00 0.886D+00
 Coeff-En:   0.000D+00 0.000D+00 0.000D+00 0.100D+01
 Coeff:     -0.129D-02 0.528D-02 0.110D+00 0.886D+00
 Gap=     0.431 Goal=   None    Shift=    0.000
 RMSDP=3.83D-05 MaxDP=2.07D-03 DE=-3.63D-03 OVMax= 1.68D-03

 Cycle   5  Pass 1  IDiag  1:
 RMSU=  1.28D-05    CP:  9.69D-01  7.44D-01  9.25D-01  1.15D+00
 FoFJK:  IHMeth= 1 ICntrl=     0 DoSepK=T KAlg= 1 I1Cent= 0 FoldK=F
 E= -151.560549472189     Delta-E=       -0.000046191512 Rises=F Damp=F
 DIIS: error= 5.21D-05 at cycle   5 NSaved=   5.
 NSaved= 5 IEnMin= 5 EnMin= -151.560549472189     IErMin= 5 ErrMin= 5.21D-05
 ErrMax= 5.21D-05 EMaxC= 1.00D-01 BMatC= 8.64D-07 BMatP= 5.93D-05
 IDIUse=1 WtCom= 1.00D+00 WtEn= 0.00D+00
 Coeff-Com: -0.493D-03-0.111D-01-0.458D-01-0.551D-01 0.111D+01
 Coeff:     -0.493D-03-0.111D-01-0.458D-01-0.551D-01 0.111D+01
 Gap=     0.431 Goal=   None    Shift=    0.000
 RMSDP=1.28D-05 MaxDP=5.28D-04 DE=-4.62D-05 OVMax= 8.92D-04

 Cycle   6  Pass 1  IDiag  1:
 RMSU=  2.74D-06    CP:  9.69D-01  7.45D-01  9.38D-01  1.23D+00  1.28D+00
 FoFJK:  IHMeth= 1 ICntrl=     0 DoSepK=T KAlg= 1 I1Cent= 0 FoldK=F
 E= -151.560551802387     Delta-E=       -0.000002330198 Rises=F Damp=F
 DIIS: error= 1.08D-05 at cycle   6 NSaved=   6.
 NSaved= 6 IEnMin= 6 EnMin= -151.560551802387     IErMin= 6 ErrMin= 1.08D-05
 ErrMax= 1.08D-05 EMaxC= 1.00D-01 BMatC= 3.01D-08 BMatP= 8.64D-07
 IDIUse=1 WtCom= 1.00D+00 WtEn= 0.00D+00
 Coeff-Com:  0.554D-04 0.231D-03-0.210D-02-0.220D-01-0.245D-01 0.105D+01
 Coeff:      0.554D-04 0.231D-03-0.210D-02-0.220D-01-0.245D-01 0.105D+01
 Gap=     0.431 Goal=   None    Shift=    0.000
 RMSDP=1.81D-06 MaxDP=6.89D-05 DE=-2.33D-06 OVMax= 1.99D-04

 Cycle   7  Pass 1  IDiag  1:
 RMSU=  5.03D-07    CP:  9.69D-01  7.45D-01  9.39D-01  1.24D+00  1.33D+00
                    CP:  1.32D+00
 FoFJK:  IHMeth= 1 ICntrl=     0 DoSepK=T KAlg= 1 I1Cent= 0 FoldK=F
 E= -151.560551900075     Delta-E=       -0.000000097688 Rises=F Damp=F
 DIIS: error= 4.02D-06 at cycle   7 NSaved=   7.
 NSaved= 7 IEnMin= 7 EnMin= -151.560551900075     IErMin= 7 ErrMin= 4.02D-06
 ErrMax= 4.02D-06 EMaxC= 1.00D-01 BMatC= 2.82D-09 BMatP= 3.01D-08
 IDIUse=1 WtCom= 1.00D+00 WtEn= 0.00D+00
 Coeff-Com:  0.106D-04 0.433D-03 0.238D-02 0.376D-02-0.456D-01-0.182D+00
 Coeff-Com:  0.122D+01
 Coeff:      0.106D-04 0.433D-03 0.238D-02 0.376D-02-0.456D-01-0.182D+00
 Coeff:      0.122D+01
 Gap=     0.431 Goal=   None    Shift=    0.000
 RMSDP=6.26D-07 MaxDP=2.18D-05 DE=-9.77D-08 OVMax= 8.61D-05

 Cycle   8  Pass 1  IDiag  1:
 RMSU=  1.99D-07    CP:  9.69D-01  7.45D-01  9.39D-01  1.24D+00  1.34D+00
                    CP:  1.40D+00  1.49D+00
 FoFJK:  IHMeth= 1 ICntrl=     0 DoSepK=T KAlg= 1 I1Cent= 0 FoldK=F
 E= -151.560551910789     Delta-E=       -0.000000010714 Rises=F Damp=F
 DIIS: error= 1.78D-06 at cycle   8 NSaved=   8.
 NSaved= 8 IEnMin= 8 EnMin= -151.560551910789     IErMin= 8 ErrMin= 1.78D-06
 ErrMax= 1.78D-06 EMaxC= 1.00D-01 BMatC= 1.17D-09 BMatP= 2.82D-09
 IDIUse=1 WtCom= 1.00D+00 WtEn= 0.00D+00
 Coeff-Com:  0.234D-05 0.187D-03 0.119D-02 0.257D-02-0.170D-01-0.156D+00
 Coeff-Com:  0.594D+00 0.576D+00
 Coeff:      0.234D-05 0.187D-03 0.119D-02 0.257D-02-0.170D-01-0.156D+00
 Coeff:      0.594D+00 0.576D+00
 Gap=     0.431 Goal=   None    Shift=    0.000
 RMSDP=1.41D-07 MaxDP=5.93D-06 DE=-1.07D-08 OVMax= 1.67D-05

 Cycle   9  Pass 1  IDiag  1:
 RMSU=  7.61D-08    CP:  9.69D-01  7.45D-01  9.39D-01  1.24D+00  1.34D+00
                    CP:  1.41D+00  1.60D+00  1.07D+00
 FoFJK:  IHMeth= 1 ICntrl=     0 DoSepK=T KAlg= 1 I1Cent= 0 FoldK=F
 E= -151.560551911949     Delta-E=       -0.000000001160 Rises=F Damp=F
 DIIS: error= 7.16D-07 at cycle   9 NSaved=   9.
 NSaved= 9 IEnMin= 9 EnMin= -151.560551911949     IErMin= 9 ErrMin= 7.16D-07
 ErrMax= 7.16D-07 EMaxC= 1.00D-01 BMatC= 1.59D-10 BMatP= 1.17D-09
 IDIUse=1 WtCom= 1.00D+00 WtEn= 0.00D+00
 Coeff-Com: -0.139D-05-0.634D-04-0.349D-03-0.713D-03 0.110D-01-0.970D-02
 Coeff-Com: -0.152D+00 0.193D+00 0.959D+00
 Coeff:     -0.139D-05-0.634D-04-0.349D-03-0.713D-03 0.110D-01-0.970D-02
 Coeff:     -0.152D+00 0.193D+00 0.959D+00
 Gap=     0.431 Goal=   None    Shift=    0.000
 RMSDP=1.17D-07 MaxDP=2.30D-06 DE=-1.16D-09 OVMax= 1.64D-05

 Cycle  10  Pass 1  IDiag  1:
 RMSU=  2.31D-08    CP:  9.69D-01  7.45D-01  9.39D-01  1.24D+00  1.34D+00
                    CP:  1.41D+00  1.69D+00  1.37D+00  1.20D+00
 FoFJK:  IHMeth= 1 ICntrl=     0 DoSepK=T KAlg= 1 I1Cent= 0 FoldK=F
 E= -151.560551912307     Delta-E=       -0.000000000359 Rises=F Damp=F
 DIIS: error= 2.08D-07 at cycle  10 NSaved=  10.
 NSaved=10 IEnMin=10 EnMin= -151.560551912307     IErMin=10 ErrMin= 2.08D-07
 ErrMax= 2.08D-07 EMaxC= 1.00D-01 BMatC= 9.83D-12 BMatP= 1.59D-10
 IDIUse=1 WtCom= 1.00D+00 WtEn= 0.00D+00
 Coeff-Com: -0.923D-08-0.152D-04-0.122D-03-0.392D-03 0.198D-02 0.131D-01
 Coeff-Com: -0.465D-01-0.855D-01-0.112D+00 0.123D+01
 Coeff:     -0.923D-08-0.152D-04-0.122D-03-0.392D-03 0.198D-02 0.131D-01
 Coeff:     -0.465D-01-0.855D-01-0.112D+00 0.123D+01
 Gap=     0.431 Goal=   None    Shift=    0.000
 RMSDP=4.82D-08 MaxDP=1.01D-06 DE=-3.59D-10 OVMax= 7.30D-06

 Cycle  11  Pass 1  IDiag  1:
 RMSU=  7.88D-09    CP:  9.69D-01  7.45D-01  9.39D-01  1.24D+00  1.34D+00
                    CP:  1.41D+00  1.73D+00  1.47D+00  1.36D+00  1.61D+00
 FoFJK:  IHMeth= 1 ICntrl=     0 DoSepK=T KAlg= 1 I1Cent= 0 FoldK=F
 E= -151.560551912351     Delta-E=       -0.000000000044 Rises=F Damp=F
 DIIS: error= 4.48D-08 at cycle  11 NSaved=  11.
 NSaved=11 IEnMin=11 EnMin= -151.560551912351     IErMin=11 ErrMin= 4.48D-08
 ErrMax= 4.48D-08 EMaxC= 1.00D-01 BMatC= 6.17D-13 BMatP= 9.83D-12
 IDIUse=1 WtCom= 1.00D+00 WtEn= 0.00D+00
 Coeff-Com: -0.116D-06 0.187D-05 0.224D-04 0.336D-04-0.583D-03-0.805D-03
 Coeff-Com:  0.165D-01-0.103D-01-0.736D-01-0.440D-01 0.111D+01
 Coeff:     -0.116D-06 0.187D-05 0.224D-04 0.336D-04-0.583D-03-0.805D-03
 Coeff:      0.165D-01-0.103D-01-0.736D-01-0.440D-01 0.111D+01
 Gap=     0.431 Goal=   None    Shift=    0.000
 RMSDP=1.24D-08 MaxDP=3.48D-07 DE=-4.36D-11 OVMax= 1.47D-06

 Cycle  12  Pass 1  IDiag  1:
 RMSU=  2.08D-09    CP:  9.69D-01  7.45D-01  9.39D-01  1.24D+00  1.34D+00
                    CP:  1.41D+00  1.74D+00  1.48D+00  1.38D+00  1.83D+00
                    CP:  1.44D+00
 FoFJK:  IHMeth= 1 ICntrl=     0 DoSepK=T KAlg= 1 I1Cent= 0 FoldK=F
 E= -151.560551912352     Delta-E=       -0.000000000001 Rises=F Damp=F
 DIIS: error= 1.28D-08 at cycle  12 NSaved=  12.
 NSaved=12 IEnMin=12 EnMin= -151.560551912352     IErMin=12 ErrMin= 1.28D-08
 ErrMax= 1.28D-08 EMaxC= 1.00D-01 BMatC= 4.32D-14 BMatP= 6.17D-13
 IDIUse=1 WtCom= 1.00D+00 WtEn= 0.00D+00
 Coeff-Com: -0.417D-07 0.816D-06 0.920D-05 0.221D-04-0.133D-03-0.104D-02
 Coeff-Com:  0.401D-02 0.462D-02 0.161D-02-0.833D-01 0.284D-01 0.105D+01
 Coeff:     -0.417D-07 0.816D-06 0.920D-05 0.221D-04-0.133D-03-0.104D-02
 Coeff:      0.401D-02 0.462D-02 0.161D-02-0.833D-01 0.284D-01 0.105D+01
 Gap=     0.431 Goal=   None    Shift=    0.000
 RMSDP=3.37D-09 MaxDP=8.35D-08 DE=-6.54D-13 OVMax= 3.34D-07

 SCF Done:  E(RwB97XD) =  -151.560551912     A.U. after   12 cycles
             Convg  =    0.3373D-08             -V/T =  2.0061
 KE= 1.506395266896D+02 PE=-4.316795290746D+02 EE= 9.286317455982D+01
 Leave Link  502 at Mon May  4 11:01:01 2020, MaxMem= 1073741824 cpu:     296.7
 (Enter /home/matheus/.gaussian/g09/l601.exe)
 Copying SCF densities to generalized density rwf, IOpCl= 0 IROHF=0.

 **********************************************************************

            Population analysis using the SCF density.

 **********************************************************************

 Orbital symmetries:
       Occupied  (A) (A) (A) (A) (A) (A) (A) (A) (A)
       Virtual   (A) (A) (A) (A) (A) (A) (A) (A) (A) (A) (A) (A)
                 (A) (A) (A) (A) (A) (A) (A) (A) (A) (A) (A) (A)
                 (A) (A) (A) (A) (A) (A) (A) (A) (A) (A) (A) (A)
                 (A) (A) (A) (A) (A) (A) (A) (A) (A) (A) (A) (A)
                 (A) (A) (A) (A) (A) (A) (A) (A) (A) (A) (A) (A)
                 (A) (A) (A) (A) (A) (A) (A) (A) (A) (A) (A) (A)
                 (A) (A) (A) (A) (A) (A) (A) (A) (A) (A) (A) (A)
                 (A) (A) (A) (A) (A) (A) (A) (A) (A) (A) (A) (A)
                 (A) (A) (A) (A) (A) (A) (A) (A) (A) (A) (A) (A)
                 (A) (A) (A) (A) (A) (A) (A) (A) (A) (A) (A) (A)
                 (A) (A) (A) (A) (A) (A) (A) (A) (A) (A) (A) (A)
                 (A) (A) (A) (A) (A) (A) (A) (A) (A) (A) (A) (A)
                 (A) (A) (A) (A) (A) (A) (A) (A) (A) (A) (A) (A)
                 (A) (A) (A) (A) (A) (A) (A) (A) (A) (A) (A) (A)
                 (A) (A) (A) (A) (A) (A) (A) (A) (A) (A) (A) (A)
                 (A) (A) (A) (A) (A) (A) (A) (A)
 The electronic state is 1-A.
 Alpha  occ. eigenvalues --  -19.34158 -19.34153  -1.24699  -1.03408  -0.66486
 Alpha  occ. eigenvalues --   -0.59705  -0.53216  -0.42797  -0.40033
 Alpha virt. eigenvalues --    0.03027   0.03888   0.07286   0.08912   0.09719
 Alpha virt. eigenvalues --    0.10778   0.11095   0.14037   0.17087   0.17534
 Alpha virt. eigenvalues --    0.18618   0.19341   0.21210   0.23281   0.25222
 Alpha virt. eigenvalues --    0.27001   0.31174   0.31617   0.33186   0.33514
 Alpha virt. eigenvalues --    0.34422   0.37657   0.38588   0.39540   0.40844
 Alpha virt. eigenvalues --    0.43266   0.44678   0.47077   0.48552   0.49941
 Alpha virt. eigenvalues --    0.53661   0.57744   0.59780   0.61396   0.66321
 Alpha virt. eigenvalues --    0.70668   0.72139   0.73951   0.76827   0.77664
 Alpha virt. eigenvalues --    0.79802   0.80785   0.86933   0.89315   0.89894
 Alpha virt. eigenvalues --    0.90384   0.91984   0.93830   0.96178   0.97077
 Alpha virt. eigenvalues --    0.99277   1.01401   1.04771   1.08850   1.10940
 Alpha virt. eigenvalues --    1.13643   1.15654   1.18868   1.21915   1.24879
 Alpha virt. eigenvalues --    1.26591   1.28185   1.30388   1.32927   1.33296
 Alpha virt. eigenvalues --    1.34396   1.35497   1.37499   1.38631   1.40367
 Alpha virt. eigenvalues --    1.44447   1.48670   1.49956   1.51184   1.55506
 Alpha virt. eigenvalues --    1.58536   1.64988   1.66309   1.68277   1.77896
 Alpha virt. eigenvalues --    1.81729   1.85201   1.90011   1.94356   2.01510
 Alpha virt. eigenvalues --    2.05997   2.09455   2.15495   2.16104   2.21315
 Alpha virt. eigenvalues --    2.25809   2.29761   2.32760   2.36235   2.40689
 Alpha virt. eigenvalues --    2.43728   2.49988   2.52519   2.59383   2.63391
 Alpha virt. eigenvalues --    2.65666   2.71028   2.82891   2.83814   2.89845
 Alpha virt. eigenvalues --    3.03176   3.08145   3.11121   3.26941   3.31160
 Alpha virt. eigenvalues --    3.40815   3.54841   3.60885   3.66912   3.79347
 Alpha virt. eigenvalues --    3.79635   3.82515   3.82992   3.83454   3.83878
 Alpha virt. eigenvalues --    3.87240   3.88382   3.92972   3.93155   3.96198
 Alpha virt. eigenvalues --    3.98642   4.01406   4.07966   4.10609   4.11676
 Alpha virt. eigenvalues --    4.19231   4.23090   4.25173   4.29952   4.32414
 Alpha virt. eigenvalues --    4.42657   4.50574   4.56193   4.67135   4.88152
 Alpha virt. eigenvalues --    4.95441   5.01582   5.13225   5.14179   5.21178
 Alpha virt. eigenvalues --    5.43540   5.83580   6.05281   6.11329   6.14283
 Alpha virt. eigenvalues --    6.29810   6.32754   6.44078   6.54473   6.55827
 Alpha virt. eigenvalues --    6.77884   6.78989   6.80720   6.82428   6.86750
 Alpha virt. eigenvalues --    6.87982   6.88551   6.97310   7.00919   7.06228
 Alpha virt. eigenvalues --    7.15679   7.24300   7.43888   7.67921   7.81169
 Alpha virt. eigenvalues --    8.08404   8.11401  10.89934  13.98736  14.66291
 Alpha virt. eigenvalues --   14.84490  14.89184  15.11049  29.04289  29.04575
 Alpha virt. eigenvalues --   29.09198  29.14648  29.24168  49.11221 148.32580
 Alpha virt. eigenvalues --  148.39168 148.71373 752.50819
          Condensed to atoms (all electrons):
              1          2          3          4          5
     1  O    8.157905  -0.157342   0.216553  -0.000250   0.000549
     2  O   -0.157342   8.186601   0.008835   0.209171  -0.001544
     3  H    0.216553   0.008835   0.552545   0.003665  -0.001119
     4  H   -0.000250   0.209171   0.003665   0.553736  -0.004529
     5  Kr   0.000549  -0.001544  -0.001119  -0.004529   0.001239
 Mulliken atomic charges:
              1
     1  O   -0.217414
     2  O   -0.245720
     3  H    0.219522
     4  H    0.238208
     5  Kr   0.005404
 Sum of Mulliken atomic charges =   0.00000
 Mulliken charges with hydrogens summed into heavy atoms:
              1
     1  O    0.002108
     2  O   -0.007512
     5  Kr   0.005404
 Sum of Mulliken charges with hydrogens summed into heavy atoms =   0.00000
          Condensed to fragments (all electrons):
     1      -0.005404
     2       0.005404
 Electronic spatial extent (au):  <R**2>=            321.9742
 Charge=              0.0000 electrons
 Dipole moment (field-independent basis, Debye):
    X=              1.0109    Y=             -0.1439    Z=              1.4952  Tot=              1.8106
 Quadrupole moment (field-independent basis, Debye-Ang):
   XX=            -14.5879   YY=            -10.3380   ZZ=            -11.6506
   XY=              3.0997   XZ=             -3.5671   YZ=             -1.6922
 Traceless Quadrupole moment (field-independent basis, Debye-Ang):
   XX=             -2.3958   YY=              1.8542   ZZ=              0.5416
   XY=              3.0997   XZ=             -3.5671   YZ=             -1.6922
 Octapole moment (field-independent basis, Debye-Ang**2):
  XXX=             76.5129  YYY=             -1.4222  ZZZ=              1.2981  XYY=             21.7349
  XXY=            -10.2467  XXZ=              8.7900  XZZ=             22.7136  YZZ=             -1.8120
  YYZ=              2.1513  XYZ=              4.1997
 Hexadecapole moment (field-independent basis, Debye-Ang**3):
 XXXX=           -305.3432 YYYY=            -44.8606 ZZZZ=            -11.6671 XXXY=             25.5612
 XXXZ=            -21.8142 YYYX=              4.7394 YYYZ=             -2.3964 ZZZX=             -2.8881
 ZZZY=             -1.6978 XXYY=            -54.4788 XXZZ=            -48.2967 YYZZ=            -10.0523
 XXYZ=            -10.4378 YYXZ=             -4.8835 ZZXY=              3.4376
 N-N= 3.661627591288D+01 E-N=-4.316795283096D+02  KE= 1.506395266896D+02
 No NMR shielding tensors so no spin-rotation constants.
 Leave Link  601 at Mon May  4 11:01:01 2020, MaxMem= 1073741824 cpu:       0.8
 (Enter /home/matheus/.gaussian/g09/l122.exe)
 Counterpoise: doing DCBS calculation for fragment   2 NewBq=T
 Leave Link  122 at Mon May  4 11:01:01 2020, MaxMem= 1073741824 cpu:       0.0
 (Enter /home/matheus/.gaussian/g09/l301.exe)
 Basis read from rwf:  (5D, 7F)
 No pseudopotential information found on rwf file.
 There are   197 symmetry adapted basis functions of A   symmetry.
 Integral buffers will be    131072 words long.
 Raffenetti 2 integral format.
 Two-electron integral symmetry is turned on.
   197 basis functions,   415 primitive gaussians,   229 cartesian basis functions
    18 alpha electrons       18 beta electrons
       nuclear repulsion energy         0.0000000000 Hartrees.
 IExCor= 4639 DFT=T Ex+Corr=wB97XD ExCW=0 ScaHFX=  1.000000
 ScaDFX=  1.000000  1.000000  1.000000  1.000000 ScalE2=  1.000000  1.000000
 IRadAn=      5 IRanWt=     -1 IRanGd=            0 ICorTp=0
  HFx wShort=  0.000000 wLong=  0.250000 cFull=  0.222036 cShort=  0.000000 cLong=  0.777964
  DFx wShort=  0.000000 wLong=  0.250000 cFull=  0.000000 cShort=  0.000000 cLong=  1.000000
 NAtoms=    5 NActive=    5 NUniq=    5 SFac= 1.00D+00 NAtFMM=   60 NAOKFM=F Big=F
 R6Disp: Dispersion energy =         0.0000000000 Hartrees.
 Nuclear repulsion after empirical dispersion term =        0.0000000000 Hartrees.
 No density basis found on file   718.
 Leave Link  301 at Mon May  4 11:01:01 2020, MaxMem= 1073741824 cpu:       0.2
 (Enter /home/matheus/.gaussian/g09/l302.exe)
 NPDir=0 NMtPBC=     1 NCelOv=     1 NCel=       1 NClECP=     1 NCelD=      1
         NCelK=      1 NCelE2=     1 NClLst=     1 CellRange=     0.0.
 One-electron integrals computed using PRISM.
 NBasis=   197 RedAO= T  NBF=   197
 NBsUse=   197 1.00D-06 NBFU=   197
 Precomputing XC quadrature grid using
 IXCGrd= 2 IRadAn=           5 IRanWt=          -1 IRanGd=           0 AccXCQ= 0.00D+00.
 NRdTot=     427 NPtTot=      123512 NUsed=      126579 NTot=      126611
 NSgBfM=   229   229   229   229   229 NAtAll=     5     5.
 Leave Link  302 at Mon May  4 11:01:02 2020, MaxMem= 1073741824 cpu:       0.9
 (Enter /home/matheus/.gaussian/g09/l303.exe)
 DipDrv:  MaxL=1.
 Leave Link  303 at Mon May  4 11:01:02 2020, MaxMem= 1073741824 cpu:       0.2
 (Enter /home/matheus/.gaussian/g09/l401.exe)
 Harris functional with IExCor= 4639 diagonalized for initial guess.
 ExpMin= 2.53D-02 ExpMax= 1.17D+07 ExpMxC= 1.33D+04 IAcc=3 IRadAn=         5 AccDes= 0.00D+00
 HarFok:  IExCor= 4639 AccDes= 0.00D+00 IRadAn=         5 IDoV= 1
 ScaDFX=  1.000000  1.000000  1.000000  1.000000
 FoFCou: FMM=F IPFlag=           0 FMFlag=      100000 FMFlg1=           0
         NFxFlg=           0 DoJE=T BraDBF=F KetDBF=T FulRan=T
         Omega=  0.000000  0.000000  1.000000  0.000000  0.000000 ICntrl=     500 IOpCl=  0
         NMat0=    1 NMatS0=    1 NMatT0=    0 NMatD0=    1 NMtDS0=    0 NMtDT0=    0
         I1Cent=           4 NGrid=           0.
 Petite list used in FoFCou.
 Harris En= -2729.46035785395    
 Initial guess orbital symmetries:
       Occupied  (A) (A) (A) (A) (A) (A) (A) (A) (A) (A) (A) (A)
                 (A) (A) (A) (A) (A) (A)
       Virtual   (A) (A) (A) (A) (A) (A) (A) (A) (A) (A) (A) (A)
                 (A) (A) (A) (A) (A) (A) (A) (A) (A) (A) (A) (A)
                 (A) (A) (A) (A) (A) (A) (A) (A) (A) (A) (A) (A)
                 (A) (A) (A) (A) (A) (A) (A) (A) (A) (A) (A) (A)
                 (A) (A) (A) (A) (A) (A) (A) (A) (A) (A) (A) (A)
                 (A) (A) (A) (A) (A) (A) (A) (A) (A) (A) (A) (A)
                 (A) (A) (A) (A) (A) (A) (A) (A) (A) (A) (A) (A)
                 (A) (A) (A) (A) (A) (A) (A) (A) (A) (A) (A) (A)
                 (A) (A) (A) (A) (A) (A) (A) (A) (A) (A) (A) (A)
                 (A) (A) (A) (A) (A) (A) (A) (A) (A) (A) (A) (A)
                 (A) (A) (A) (A) (A) (A) (A) (A) (A) (A) (A) (A)
                 (A) (A) (A) (A) (A) (A) (A) (A) (A) (A) (A) (A)
                 (A) (A) (A) (A) (A) (A) (A) (A) (A) (A) (A) (A)
                 (A) (A) (A) (A) (A) (A) (A) (A) (A) (A) (A) (A)
                 (A) (A) (A) (A) (A) (A) (A) (A) (A) (A) (A)
 The electronic state of the initial guess is 1-A.
 Leave Link  401 at Mon May  4 11:01:02 2020, MaxMem= 1073741824 cpu:       3.8
 (Enter /home/matheus/.gaussian/g09/l502.exe)
 Closed shell SCF:
 Requested convergence on RMS density matrix=1.00D-08 within 128 cycles.
 Requested convergence on MAX density matrix=1.00D-06.
 Requested convergence on             energy=1.00D-06.
 No special actions if energy rises.
 Using DIIS extrapolation, IDIIS=  1040.
 Integral symmetry usage will be decided dynamically.
       126521 words used for storage of precomputed grid.
 IEnd=      305468 IEndB=      305468 NGot=  1073741824 MDV=  1073505667
 LenX=  1073505667 LenY=  1073452785
 Fock matrices will be formed incrementally for  20 cycles.

 Cycle   1  Pass 1  IDiag  1:
 FoFJK:  IHMeth= 1 ICntrl=     0 DoSepK=T KAlg= 1 I1Cent= 0 FoldK=F
 FoFCou: FMM=F IPFlag=           0 FMFlag=      100000 FMFlg1=           0
         NFxFlg=           0 DoJE=T BraDBF=F KetDBF=F FulRan=T
         Omega=  0.000000  0.000000  1.000000  0.000000  0.000000 ICntrl=     500 IOpCl=  0
         NMat0=    1 NMatS0=    1 NMatT0=    0 NMatD0=    1 NMtDS0=    0 NMtDT0=    0
         I1Cent=           0 NGrid=           0.
 Symmetry not used in FoFCou.
 E= -2753.44673205875    
 DIIS: error= 7.20D-02 at cycle   1 NSaved=   1.
 NSaved= 1 IEnMin= 1 EnMin= -2753.44673205875     IErMin= 1 ErrMin= 7.20D-02
 ErrMax= 7.20D-02 EMaxC= 1.00D-01 BMatC= 1.90D+00 BMatP= 1.90D+00
 IDIUse=3 WtCom= 2.80D-01 WtEn= 7.20D-01
 Coeff-Com:  0.100D+01
 Coeff-En:   0.100D+01
 Coeff:      0.100D+01
 Gap=     0.654 Goal=   None    Shift=    0.000
 GapD=    0.654 DampG=2.000 DampE=0.500 DampFc=1.0000 IDamp=-1.
 RMSDP=5.62D-03 MaxDP=3.67D-01              OVMax= 1.83D-01

 Cycle   2  Pass 1  IDiag  1:
 RMSU=  3.91D-03    CP:  1.04D+00
 FoFJK:  IHMeth= 1 ICntrl=     0 DoSepK=T KAlg= 1 I1Cent= 0 FoldK=F
 E= -2753.72379835056     Delta-E=       -0.277066291804 Rises=F Damp=F
 DIIS: error= 2.89D-02 at cycle   2 NSaved=   2.
 NSaved= 2 IEnMin= 2 EnMin= -2753.72379835056     IErMin= 2 ErrMin= 2.89D-02
 ErrMax= 2.89D-02 EMaxC= 1.00D-01 BMatC= 4.66D-01 BMatP= 1.90D+00
 IDIUse=3 WtCom= 7.11D-01 WtEn= 2.89D-01
 Coeff-Com:  0.326D+00 0.674D+00
 Coeff-En:   0.160D+00 0.840D+00
 Coeff:      0.278D+00 0.722D+00
 Gap=     0.492 Goal=   None    Shift=    0.000
 RMSDP=2.50D-03 MaxDP=1.59D-01 DE=-2.77D-01 OVMax= 7.62D-02

 Cycle   3  Pass 1  IDiag  1:
 RMSU=  3.66D-04    CP:  1.03D+00  5.63D-01
 FoFJK:  IHMeth= 1 ICntrl=     0 DoSepK=T KAlg= 1 I1Cent= 0 FoldK=F
 E= -2753.86732247924     Delta-E=       -0.143524128687 Rises=F Damp=F
 DIIS: error= 4.17D-03 at cycle   3 NSaved=   3.
 NSaved= 3 IEnMin= 3 EnMin= -2753.86732247924     IErMin= 3 ErrMin= 4.17D-03
 ErrMax= 4.17D-03 EMaxC= 1.00D-01 BMatC= 9.29D-03 BMatP= 4.66D-01
 IDIUse=3 WtCom= 9.58D-01 WtEn= 4.17D-02
 Coeff-Com: -0.756D-02 0.112D+00 0.896D+00
 Coeff-En:   0.000D+00 0.000D+00 0.100D+01
 Coeff:     -0.725D-02 0.107D+00 0.900D+00
 Gap=     0.517 Goal=   None    Shift=    0.000
 RMSDP=2.84D-04 MaxDP=1.65D-02 DE=-1.44D-01 OVMax= 1.16D-02

 Cycle   4  Pass 1  IDiag  1:
 RMSU=  4.25D-05    CP:  1.03D+00  6.12D-01  9.75D-01
 FoFJK:  IHMeth= 1 ICntrl=     0 DoSepK=T KAlg= 1 I1Cent= 0 FoldK=F
 E= -2753.87021677786     Delta-E=       -0.002894298621 Rises=F Damp=F
 DIIS: error= 1.69D-04 at cycle   4 NSaved=   4.
 NSaved= 4 IEnMin= 4 EnMin= -2753.87021677786     IErMin= 4 ErrMin= 1.69D-04
 ErrMax= 1.69D-04 EMaxC= 1.00D-01 BMatC= 1.30D-05 BMatP= 9.29D-03
 IDIUse=3 WtCom= 9.98D-01 WtEn= 1.69D-03
 Coeff-Com: -0.257D-03-0.172D-01-0.806D-01 0.110D+01
 Coeff-En:   0.000D+00 0.000D+00 0.000D+00 0.100D+01
 Coeff:     -0.256D-03-0.172D-01-0.805D-01 0.110D+01
 Gap=     0.515 Goal=   None    Shift=    0.000
 RMSDP=2.33D-05 MaxDP=8.65D-04 DE=-2.89D-03 OVMax= 9.53D-04

 Cycle   5  Pass 1  IDiag  1:
 RMSU=  8.54D-06    CP:  1.03D+00  6.11D-01  9.95D-01  1.24D+00
 FoFJK:  IHMeth= 1 ICntrl=     0 DoSepK=T KAlg= 1 I1Cent= 0 FoldK=F
 E= -2753.87022494814     Delta-E=       -0.000008170276 Rises=F Damp=F
 DIIS: error= 1.19D-05 at cycle   5 NSaved=   5.
 NSaved= 5 IEnMin= 5 EnMin= -2753.87022494814     IErMin= 5 ErrMin= 1.19D-05
 ErrMax= 1.19D-05 EMaxC= 1.00D-01 BMatC= 4.45D-08 BMatP= 1.30D-05
 IDIUse=1 WtCom= 1.00D+00 WtEn= 0.00D+00
 Coeff-Com:  0.777D-04 0.113D-02 0.149D-02-0.185D+00 0.118D+01
 Coeff:      0.777D-04 0.113D-02 0.149D-02-0.185D+00 0.118D+01
 Gap=     0.515 Goal=   None    Shift=    0.000
 RMSDP=3.61D-06 MaxDP=1.43D-04 DE=-8.17D-06 OVMax= 2.05D-04

 Cycle   6  Pass 1  IDiag  1:
 RMSU=  7.86D-07    CP:  1.03D+00  6.11D-01  9.98D-01  1.27D+00  1.17D+00
 FoFJK:  IHMeth= 1 ICntrl=     0 DoSepK=T KAlg= 1 I1Cent= 0 FoldK=F
 E= -2753.87022508330     Delta-E=       -0.000000135157 Rises=F Damp=F
 DIIS: error= 1.64D-06 at cycle   6 NSaved=   6.
 NSaved= 6 IEnMin= 6 EnMin= -2753.87022508330     IErMin= 6 ErrMin= 1.64D-06
 ErrMax= 1.64D-06 EMaxC= 1.00D-01 BMatC= 7.06D-10 BMatP= 4.45D-08
 IDIUse=1 WtCom= 1.00D+00 WtEn= 0.00D+00
 Coeff-Com:  0.685D-05 0.297D-03 0.876D-03-0.406D-01 0.187D+00 0.853D+00
 Coeff:      0.685D-05 0.297D-03 0.876D-03-0.406D-01 0.187D+00 0.853D+00
 Gap=     0.515 Goal=   None    Shift=    0.000
 RMSDP=2.34D-07 MaxDP=8.70D-06 DE=-1.35D-07 OVMax= 1.06D-05

 Cycle   7  Pass 1  IDiag  1:
 RMSU=  6.91D-08    CP:  1.03D+00  6.11D-01  9.98D-01  1.28D+00  1.19D+00
                    CP:  1.11D+00
 FoFJK:  IHMeth= 1 ICntrl=     0 DoSepK=T KAlg= 1 I1Cent= 0 FoldK=F
 E= -2753.87022508405     Delta-E=       -0.000000000754 Rises=F Damp=F
 DIIS: error= 1.77D-07 at cycle   7 NSaved=   7.
 NSaved= 7 IEnMin= 7 EnMin= -2753.87022508405     IErMin= 7 ErrMin= 1.77D-07
 ErrMax= 1.77D-07 EMaxC= 1.00D-01 BMatC= 1.96D-11 BMatP= 7.06D-10
 IDIUse=1 WtCom= 1.00D+00 WtEn= 0.00D+00
 Coeff-Com: -0.127D-05 0.232D-04 0.154D-03-0.582D-03-0.858D-02 0.110D+00
 Coeff-Com:  0.899D+00
 Coeff:     -0.127D-05 0.232D-04 0.154D-03-0.582D-03-0.858D-02 0.110D+00
 Coeff:      0.899D+00
 Gap=     0.515 Goal=   None    Shift=    0.000
 RMSDP=5.00D-08 MaxDP=1.95D-06 DE=-7.54D-10 OVMax= 1.96D-06

 Cycle   8  Pass 1  IDiag  1:
 RMSU=  1.53D-08    CP:  1.03D+00  6.11D-01  9.98D-01  1.28D+00  1.19D+00
                    CP:  1.14D+00  1.10D+00
 FoFJK:  IHMeth= 1 ICntrl=     0 DoSepK=T KAlg= 1 I1Cent= 0 FoldK=F
 E= -2753.87022508408     Delta-E=       -0.000000000026 Rises=F Damp=F
 DIIS: error= 5.64D-08 at cycle   8 NSaved=   8.
 NSaved= 8 IEnMin= 8 EnMin= -2753.87022508408     IErMin= 8 ErrMin= 5.64D-08
 ErrMax= 5.64D-08 EMaxC= 1.00D-01 BMatC= 1.49D-12 BMatP= 1.96D-11
 IDIUse=1 WtCom= 1.00D+00 WtEn= 0.00D+00
 Coeff-Com: -0.117D-06-0.536D-05-0.620D-06 0.161D-02-0.843D-02-0.228D-01
 Coeff-Com:  0.109D+00 0.920D+00
 Coeff:     -0.117D-06-0.536D-05-0.620D-06 0.161D-02-0.843D-02-0.228D-01
 Coeff:      0.109D+00 0.920D+00
 Gap=     0.515 Goal=   None    Shift=    0.000
 RMSDP=1.33D-08 MaxDP=5.12D-07 DE=-2.64D-11 OVMax= 3.68D-07

 Cycle   9  Pass 1  IDiag  1:
 RMSU=  2.44D-09    CP:  1.03D+00  6.11D-01  9.98D-01  1.28D+00  1.19D+00
                    CP:  1.15D+00  1.15D+00  1.10D+00
 FoFJK:  IHMeth= 1 ICntrl=     0 DoSepK=T KAlg= 1 I1Cent= 0 FoldK=F
 E= -2753.87022508407     Delta-E=        0.000000000006 Rises=F Damp=F
 DIIS: error= 6.05D-09 at cycle   9 NSaved=   9.
 NSaved= 9 IEnMin= 8 EnMin= -2753.87022508408     IErMin= 9 ErrMin= 6.05D-09
 ErrMax= 6.05D-09 EMaxC= 1.00D-01 BMatC= 6.57D-15 BMatP= 1.49D-12
 IDIUse=1 WtCom= 1.00D+00 WtEn= 0.00D+00
 Coeff-Com:  0.106D-07 0.855D-07-0.140D-05-0.126D-03 0.631D-03 0.169D-02
 Coeff-Com: -0.200D-01-0.103D+00 0.112D+01
 Coeff:      0.106D-07 0.855D-07-0.140D-05-0.126D-03 0.631D-03 0.169D-02
 Coeff:     -0.200D-01-0.103D+00 0.112D+01
 Gap=     0.515 Goal=   None    Shift=    0.000
 RMSDP=1.46D-09 MaxDP=5.64D-08 DE= 6.37D-12 OVMax= 9.07D-08

 SCF Done:  E(RwB97XD) =  -2753.87022508     A.U. after    9 cycles
             Convg  =    0.1455D-08             -V/T =  2.0013
 KE= 2.750247629168D+03 PE=-6.580156265151D+03 EE= 1.076038410899D+03
 Leave Link  502 at Mon May  4 11:01:29 2020, MaxMem= 1073741824 cpu:     217.1
 (Enter /home/matheus/.gaussian/g09/l601.exe)
 Copying SCF densities to generalized density rwf, IOpCl= 0 IROHF=0.

 **********************************************************************

            Population analysis using the SCF density.

 **********************************************************************

 Orbital symmetries:
       Occupied  (A) (A) (A) (A) (A) (A) (A) (A) (A) (A) (A) (A)
                 (A) (A) (A) (A) (A) (A)
       Virtual   (A) (A) (A) (A) (A) (A) (A) (A) (A) (A) (A) (A)
                 (A) (A) (A) (A) (A) (A) (A) (A) (A) (A) (A) (A)
                 (A) (A) (A) (A) (A) (A) (A) (A) (A) (A) (A) (A)
                 (A) (A) (A) (A) (A) (A) (A) (A) (A) (A) (A) (A)
                 (A) (A) (A) (A) (A) (A) (A) (A) (A) (A) (A) (A)
                 (A) (A) (A) (A) (A) (A) (A) (A) (A) (A) (A) (A)
                 (A) (A) (A) (A) (A) (A) (A) (A) (A) (A) (A) (A)
                 (A) (A) (A) (A) (A) (A) (A) (A) (A) (A) (A) (A)
                 (A) (A) (A) (A) (A) (A) (A) (A) (A) (A) (A) (A)
                 (A) (A) (A) (A) (A) (A) (A) (A) (A) (A) (A) (A)
                 (A) (A) (A) (A) (A) (A) (A) (A) (A) (A) (A) (A)
                 (A) (A) (A) (A) (A) (A) (A) (A) (A) (A) (A) (A)
                 (A) (A) (A) (A) (A) (A) (A) (A) (A) (A) (A) (A)
                 (A) (A) (A) (A) (A) (A) (A) (A) (A) (A) (A) (A)
                 (A) (A) (A) (A) (A) (A) (A) (A) (A) (A) (A)
 The electronic state is 1-A.
 Alpha  occ. eigenvalues -- -513.08049 -67.34865 -60.89737 -60.89736 -60.89735
 Alpha  occ. eigenvalues --   -9.80180  -7.49480  -7.49479  -7.49479  -3.36164
 Alpha  occ. eigenvalues --   -3.36164  -3.36164  -3.36163  -3.36163  -1.00829
 Alpha  occ. eigenvalues --   -0.48268  -0.48264  -0.48263
 Alpha virt. eigenvalues --    0.03239   0.05186   0.08769   0.09679   0.11946
 Alpha virt. eigenvalues --    0.12583   0.13539   0.14179   0.16566   0.17298
 Alpha virt. eigenvalues --    0.18038   0.19834   0.20808   0.25452   0.26612
 Alpha virt. eigenvalues --    0.26894   0.28443   0.30866   0.32881   0.34379
 Alpha virt. eigenvalues --    0.35956   0.37313   0.38252   0.39345   0.41652
 Alpha virt. eigenvalues --    0.41851   0.42733   0.52612   0.52768   0.57377
 Alpha virt. eigenvalues --    0.58829   0.66720   0.67682   0.70016   0.71844
 Alpha virt. eigenvalues --    0.74304   0.74654   0.75995   0.76881   0.78787
 Alpha virt. eigenvalues --    0.79550   0.80395   0.83227   0.86122   0.86472
 Alpha virt. eigenvalues --    0.87981   0.88932   0.89805   0.91425   0.95328
 Alpha virt. eigenvalues --    0.96160   0.98361   0.98827   1.00235   1.01320
 Alpha virt. eigenvalues --    1.04386   1.06072   1.07594   1.09462   1.11427
 Alpha virt. eigenvalues --    1.15131   1.20397   1.21924   1.24970   1.29156
 Alpha virt. eigenvalues --    1.33178   1.34198   1.39416   1.43583   1.44486
 Alpha virt. eigenvalues --    1.53385   1.57586   1.58629   1.74487   1.77711
 Alpha virt. eigenvalues --    1.78911   1.83810   1.86609   1.98200   2.15925
 Alpha virt. eigenvalues --    2.19264   2.24791   2.27495   2.30054   2.30158
 Alpha virt. eigenvalues --    2.31536   2.32686   2.36275   2.39137   2.41074
 Alpha virt. eigenvalues --    2.43449   2.46521   2.46723   2.47880   2.48565
 Alpha virt. eigenvalues --    2.52133   2.53443   2.54016   2.56255   2.56986
 Alpha virt. eigenvalues --    2.61808   2.62947   2.63721   2.67919   2.70789
 Alpha virt. eigenvalues --    2.73165   2.77245   2.85240   2.87951   2.89271
 Alpha virt. eigenvalues --    2.94075   2.98214   3.04126   3.13427   3.21104
 Alpha virt. eigenvalues --    3.23723   3.26100   3.31227   3.36110   3.49821
 Alpha virt. eigenvalues --    3.61886   3.65166   3.83427   3.87561   4.04567
 Alpha virt. eigenvalues --    4.35798   4.43452   4.52138   4.57185   4.65784
 Alpha virt. eigenvalues --    4.73298   4.87726   4.91335   4.94313   5.00231
 Alpha virt. eigenvalues --    5.15346   5.20360   5.59252   5.66611   5.74762
 Alpha virt. eigenvalues --    5.91599   6.01892   6.16904   6.74312   6.90378
 Alpha virt. eigenvalues --    7.38193   7.43779   7.60949   7.63965   7.74815
 Alpha virt. eigenvalues --    7.87670   7.91122   8.12413   8.17753   8.22528
 Alpha virt. eigenvalues --    8.40887   8.46686   8.59374   8.87189   9.65927
 Alpha virt. eigenvalues --    9.75496   9.85120   9.90147   9.92430  10.00938
 Alpha virt. eigenvalues --   10.15669  10.33222  10.38746  10.98137  11.52315
 Alpha virt. eigenvalues --   11.66796  11.76589  12.06191  12.11412  13.26155
 Alpha virt. eigenvalues --   13.62010  14.53629  62.74768  64.67896
          Condensed to atoms (all electrons):
              1          2          3          4          5
     1  O    0.002736  -0.001841  -0.001845   0.001196  -0.009571
     2  O   -0.001841   0.005087   0.000637  -0.003408  -0.001551
     3  H   -0.001845   0.000637   0.001519  -0.000428   0.003170
     4  H    0.001196  -0.003408  -0.000428   0.003341  -0.019632
     5  Kr  -0.009571  -0.001551   0.003170  -0.019632  36.053859
 Mulliken atomic charges:
              1
     1  O    0.009324
     2  O    0.001075
     3  H   -0.003054
     4  H    0.018930
     5  Kr  -0.026275
 Sum of Mulliken atomic charges =   0.00000
 Mulliken charges with hydrogens summed into heavy atoms:
              1
     1  O    0.006270
     2  O    0.020005
     5  Kr  -0.026275
 Sum of Mulliken charges with hydrogens summed into heavy atoms =   0.00000
          Condensed to fragments (all electrons):
     1       0.026275
     2      -0.026275
 Electronic spatial extent (au):  <R**2>=            165.1019
 Charge=              0.0000 electrons
 Dipole moment (field-independent basis, Debye):
    X=             -0.0007    Y=              0.0006    Z=              0.0001  Tot=              0.0009
 Quadrupole moment (field-independent basis, Debye-Ang):
   XX=            -17.6427   YY=            -17.6541   ZZ=            -17.6611
   XY=             -0.0043   XZ=             -0.0002   YZ=              0.0003
 Traceless Quadrupole moment (field-independent basis, Debye-Ang):
   XX=              0.0100   YY=             -0.0015   ZZ=             -0.0084
   XY=             -0.0043   XZ=             -0.0002   YZ=              0.0003
 Octapole moment (field-independent basis, Debye-Ang**2):
  XXX=            -52.3345  YYY=              0.7076  ZZZ=             -0.0900  XYY=            -17.4578
  XXY=              0.2274  XXZ=             -0.0310  XZZ=            -17.4618  YZZ=              0.2370
  YYZ=             -0.0298  XYZ=              0.0002
 Hexadecapole moment (field-independent basis, Debye-Ang**3):
 XXXX=           -121.9500 YYYY=            -18.4938 ZZZZ=            -18.4981 XXXY=              0.6814
 XXXZ=             -0.0910 YYYX=              0.6868 YYYZ=              0.0009 ZZZX=             -0.0906
 ZZZY=              0.0023 XXYY=            -23.4202 XXZZ=            -23.4220 YYZZ=             -6.1643
 XXYZ=              0.0009 YYXZ=             -0.0298 ZZXY=              0.2274
 N-N= 0.000000000000D+00 E-N=-6.580156264504D+03  KE= 2.750247629168D+03
 No NMR shielding tensors so no spin-rotation constants.
 Leave Link  601 at Mon May  4 11:01:29 2020, MaxMem= 1073741824 cpu:       0.7
 (Enter /home/matheus/.gaussian/g09/l122.exe)
 Counterpoise: doing MCBS calculation for fragment   1
 Leave Link  122 at Mon May  4 11:01:29 2020, MaxMem= 1073741824 cpu:       0.0
 (Enter /home/matheus/.gaussian/g09/l301.exe)
 Basis read from rwf:  (5D, 7F)
 No pseudopotential information found on rwf file.
 There are   138 symmetry adapted basis functions of A   symmetry.
 Integral buffers will be    131072 words long.
 Raffenetti 2 integral format.
 Two-electron integral symmetry is turned on.
   138 basis functions,   198 primitive gaussians,   160 cartesian basis functions
     9 alpha electrons        9 beta electrons
       nuclear repulsion energy        36.6165119696 Hartrees.
 IExCor= 4639 DFT=T Ex+Corr=wB97XD ExCW=0 ScaHFX=  1.000000
 ScaDFX=  1.000000  1.000000  1.000000  1.000000 ScalE2=  1.000000  1.000000
 IRadAn=      5 IRanWt=     -1 IRanGd=            0 ICorTp=0
  HFx wShort=  0.000000 wLong=  0.250000 cFull=  0.222036 cShort=  0.000000 cLong=  0.777964
  DFx wShort=  0.000000 wLong=  0.250000 cFull=  0.000000 cShort=  0.000000 cLong=  1.000000
 NAtoms=    5 NActive=    4 NUniq=    4 SFac= 1.00D+00 NAtFMM=   60 NAOKFM=F Big=F
 R6Disp: Dispersion energy =        -0.0002360568 Hartrees.
 Nuclear repulsion after empirical dispersion term =       36.6162759129 Hartrees.
 No density basis found on file   718.
 Leave Link  301 at Mon May  4 11:01:29 2020, MaxMem= 1073741824 cpu:       0.2
 (Enter /home/matheus/.gaussian/g09/l302.exe)
 NPDir=0 NMtPBC=     1 NCelOv=     1 NCel=       1 NClECP=     1 NCelD=      1
         NCelK=      1 NCelE2=     1 NClLst=     1 CellRange=     0.0.
 One-electron integrals computed using PRISM.
 NBasis=   138 RedAO= T  NBF=   138
 NBsUse=   138 1.00D-06 NBFU=   138
 Precomputing XC quadrature grid using
 IXCGrd= 2 IRadAn=           5 IRanWt=          -1 IRanGd=           0 AccXCQ= 0.00D+00.
 NRdTot=     344 NPtTot=       92556 NUsed=       95038 NTot=       95070
 NSgBfM=   160   160   160   160   160 NAtAll=     4     4.
 Leave Link  302 at Mon May  4 11:01:30 2020, MaxMem= 1073741824 cpu:       0.8
 (Enter /home/matheus/.gaussian/g09/l303.exe)
 DipDrv:  MaxL=1.
 Leave Link  303 at Mon May  4 11:01:30 2020, MaxMem= 1073741824 cpu:       0.2
 (Enter /home/matheus/.gaussian/g09/l401.exe)
 Harris functional with IExCor= 4639 diagonalized for initial guess.
 ExpMin= 2.53D-02 ExpMax= 1.53D+04 ExpMxC= 5.22D+02 IAcc=3 IRadAn=         5 AccDes= 0.00D+00
 HarFok:  IExCor= 4639 AccDes= 0.00D+00 IRadAn=         5 IDoV= 1
 ScaDFX=  1.000000  1.000000  1.000000  1.000000
 FoFCou: FMM=F IPFlag=           0 FMFlag=      100000 FMFlg1=           0
         NFxFlg=           0 DoJE=T BraDBF=F KetDBF=T FulRan=T
         Omega=  0.000000  0.000000  1.000000  0.000000  0.000000 ICntrl=     500 IOpCl=  0
         NMat0=    1 NMatS0=    1 NMatT0=    0 NMatD0=    1 NMtDS0=    0 NMtDT0=    0
         I1Cent=           4 NGrid=           0.
 Petite list used in FoFCou.
 Harris En= -145.946495179526    
 Initial guess orbital symmetries:
       Occupied  (A) (A) (A) (A) (A) (A) (A) (A) (A)
       Virtual   (A) (A) (A) (A) (A) (A) (A) (A) (A) (A) (A) (A)
                 (A) (A) (A) (A) (A) (A) (A) (A) (A) (A) (A) (A)
                 (A) (A) (A) (A) (A) (A) (A) (A) (A) (A) (A) (A)
                 (A) (A) (A) (A) (A) (A) (A) (A) (A) (A) (A) (A)
                 (A) (A) (A) (A) (A) (A) (A) (A) (A) (A) (A) (A)
                 (A) (A) (A) (A) (A) (A) (A) (A) (A) (A) (A) (A)
                 (A) (A) (A) (A) (A) (A) (A) (A) (A) (A) (A) (A)
                 (A) (A) (A) (A) (A) (A) (A) (A) (A) (A) (A) (A)
                 (A) (A) (A) (A) (A) (A) (A) (A) (A) (A) (A) (A)
                 (A) (A) (A) (A) (A) (A) (A) (A) (A) (A) (A) (A)
                 (A) (A) (A) (A) (A) (A) (A) (A) (A)
 The electronic state of the initial guess is 1-A.
 Leave Link  401 at Mon May  4 11:01:30 2020, MaxMem= 1073741824 cpu:       2.0
 (Enter /home/matheus/.gaussian/g09/l502.exe)
 Closed shell SCF:
 Requested convergence on RMS density matrix=1.00D-08 within 128 cycles.
 Requested convergence on MAX density matrix=1.00D-06.
 Requested convergence on             energy=1.00D-06.
 No special actions if energy rises.
 Using DIIS extrapolation, IDIIS=  1040.
 Integral symmetry usage will be decided dynamically.
        94980 words used for storage of precomputed grid.
 IEnd=      192360 IEndB=      192360 NGot=  1073741824 MDV=  1073591865
 LenX=  1073591865 LenY=  1073565824
 Fock matrices will be formed incrementally for  20 cycles.

 Cycle   1  Pass 1  IDiag  1:
 FoFJK:  IHMeth= 1 ICntrl=     0 DoSepK=T KAlg= 1 I1Cent= 0 FoldK=F
 FoFCou: FMM=F IPFlag=           0 FMFlag=      100000 FMFlg1=           0
         NFxFlg=           0 DoJE=T BraDBF=F KetDBF=F FulRan=T
         Omega=  0.000000  0.000000  1.000000  0.000000  0.000000 ICntrl=     500 IOpCl=  0
         NMat0=    1 NMatS0=    1 NMatT0=    0 NMatD0=    1 NMtDS0=    0 NMtDT0=    0
         I1Cent=           0 NGrid=           0.
 Symmetry not used in FoFCou.
 E= -151.461000398887    
 DIIS: error= 4.15D-02 at cycle   1 NSaved=   1.
 NSaved= 1 IEnMin= 1 EnMin= -151.461000398887     IErMin= 1 ErrMin= 4.15D-02
 ErrMax= 4.15D-02 EMaxC= 1.00D-01 BMatC= 3.20D-01 BMatP= 3.20D-01
 IDIUse=3 WtCom= 5.85D-01 WtEn= 4.15D-01
 Coeff-Com:  0.100D+01
 Coeff-En:   0.100D+01
 Coeff:      0.100D+01
 Gap=     0.556 Goal=   None    Shift=    0.000
[...]
 DIIS: error= 3.85D-06 at cycle   2 NSaved=   2.
 NSaved= 2 IEnMin= 2 EnMin= -2753.87012691699     IErMin= 2 ErrMin= 3.85D-06
 ErrMax= 3.85D-06 EMaxC= 1.00D-01 BMatC= 3.63D-09 BMatP= 3.60D-06
 IDIUse=1 WtCom= 1.00D+00 WtEn= 0.00D+00
 Coeff-Com: -0.952D-02 0.101D+01
 Coeff:     -0.952D-02 0.101D+01
 Gap=     0.513 Goal=   None    Shift=    0.000
 RMSDP=1.95D-06 MaxDP=7.66D-05 DE=-4.93D-07 OVMax= 4.85D-05

 Cycle   3  Pass 1  IDiag  1:
 RMSU=  5.18D-07    CP:  1.00D+00  1.10D+00
 FoFJK:  IHMeth= 1 ICntrl=     0 DoSepK=T KAlg= 1 I1Cent= 0 FoldK=F
 E= -2753.87012692368     Delta-E=       -0.000000006690 Rises=F Damp=F
 DIIS: error= 5.95D-07 at cycle   3 NSaved=   3.
 NSaved= 3 IEnMin= 3 EnMin= -2753.87012692368     IErMin= 3 ErrMin= 5.95D-07
 ErrMax= 5.95D-07 EMaxC= 1.00D-01 BMatC= 8.91D-11 BMatP= 3.63D-09
 IDIUse=1 WtCom= 1.00D+00 WtEn= 0.00D+00
 Coeff-Com:  0.292D-03-0.129D+00 0.113D+01
 Coeff:      0.292D-03-0.129D+00 0.113D+01
 Gap=     0.513 Goal=   None    Shift=    0.000
 RMSDP=2.35D-07 MaxDP=9.74D-06 DE=-6.69D-09 OVMax= 9.81D-06

 Cycle   4  Pass 1  IDiag  1:
 RMSU=  5.18D-08    CP:  1.00D+00  1.11D+00  1.20D+00
 FoFJK:  IHMeth= 1 ICntrl=     0 DoSepK=T KAlg= 1 I1Cent= 0 FoldK=F
 E= -2753.87012692386     Delta-E=       -0.000000000182 Rises=F Damp=F
 DIIS: error= 3.01D-07 at cycle   4 NSaved=   4.
 NSaved= 4 IEnMin= 4 EnMin= -2753.87012692386     IErMin= 4 ErrMin= 3.01D-07
 ErrMax= 3.01D-07 EMaxC= 1.00D-01 BMatC= 7.08D-12 BMatP= 8.91D-11
 IDIUse=1 WtCom= 1.00D+00 WtEn= 0.00D+00
 Coeff-Com:  0.200D-03-0.464D-01 0.285D+00 0.761D+00
 Coeff:      0.200D-03-0.464D-01 0.285D+00 0.761D+00
 Gap=     0.513 Goal=   None    Shift=    0.000
 RMSDP=1.78D-08 MaxDP=8.05D-07 DE=-1.82D-10 OVMax= 1.08D-06

 Cycle   5  Pass 1  IDiag  1:
 RMSU=  7.60D-09    CP:  1.00D+00  1.10D+00  1.22D+00  1.12D+00
 FoFJK:  IHMeth= 1 ICntrl=     0 DoSepK=T KAlg= 1 I1Cent= 0 FoldK=F
 E= -2753.87012692387     Delta-E=       -0.000000000005 Rises=F Damp=F
 DIIS: error= 2.87D-08 at cycle   5 NSaved=   5.
 NSaved= 5 IEnMin= 5 EnMin= -2753.87012692387     IErMin= 5 ErrMin= 2.87D-08
 ErrMax= 2.87D-08 EMaxC= 1.00D-01 BMatC= 1.21D-13 BMatP= 7.08D-12
 IDIUse=1 WtCom= 1.00D+00 WtEn= 0.00D+00
 Coeff-Com: -0.287D-04 0.942D-02-0.730D-01-0.566D-01 0.112D+01
 Coeff:     -0.287D-04 0.942D-02-0.730D-01-0.566D-01 0.112D+01
 Gap=     0.513 Goal=   None    Shift=    0.000
 RMSDP=9.29D-09 MaxDP=5.61D-07 DE=-5.46D-12 OVMax= 4.18D-07

 SCF Done:  E(RwB97XD) =  -2753.87012692     A.U. after    5 cycles
             Convg  =    0.9295D-08             -V/T =  2.0013
 KE= 2.750283471716D+03 PE=-6.580194790524D+03 EE= 1.076041191884D+03
 Leave Link  502 at Mon May  4 11:25:31 2020, MaxMem= 1073741824 cpu:      98.7
 (Enter /home/matheus/.gaussian/g09/l122.exe)
 Restoring MOs from calculation   4 to rwf.
 Counterpoise: doing MCBS calculation for fragment   1
 Leave Link  122 at Mon May  4 11:25:31 2020, MaxMem= 1073741824 cpu:       0.0
 (Enter /home/matheus/.gaussian/g09/l301.exe)
 Basis read from rwf:  (5D, 7F)
 No pseudopotential information found on rwf file.
 There are   138 symmetry adapted basis functions of A   symmetry.
 Integral buffers will be    131072 words long.
 Raffenetti 2 integral format.
 Two-electron integral symmetry is turned on.
   138 basis functions,   198 primitive gaussians,   160 cartesian basis functions
     9 alpha electrons        9 beta electrons
       nuclear repulsion energy        36.6165119696 Hartrees.
 IExCor= 4639 DFT=T Ex+Corr=wB97XD ExCW=0 ScaHFX=  1.000000
 ScaDFX=  1.000000  1.000000  1.000000  1.000000 ScalE2=  1.000000  1.000000
 IRadAn=      5 IRanWt=     -1 IRanGd=            0 ICorTp=0
  HFx wShort=  0.000000 wLong=  0.250000 cFull=  0.222036 cShort=  0.000000 cLong=  0.777964
  DFx wShort=  0.000000 wLong=  0.250000 cFull=  0.000000 cShort=  0.000000 cLong=  1.000000
 NAtoms=    5 NActive=    4 NUniq=    4 SFac= 1.00D+00 NAtFMM=   60 NAOKFM=F Big=F
 R6Disp: Dispersion energy =        -0.0002360568 Hartrees.
 Nuclear repulsion after empirical dispersion term =       36.6162759129 Hartrees.
 No density basis found on file   718.
 Leave Link  301 at Mon May  4 11:25:31 2020, MaxMem= 1073741824 cpu:       0.2
 (Enter /home/matheus/.gaussian/g09/l302.exe)
 NPDir=0 NMtPBC=     1 NCelOv=     1 NCel=       1 NClECP=     1 NCelD=      1
         NCelK=      1 NCelE2=     1 NClLst=     1 CellRange=     0.0.
 One-electron integrals computed using PRISM.
 NBasis=   138 RedAO= T  NBF=   138
 NBsUse=   138 1.00D-06 NBFU=   138
 Precomputing XC quadrature grid using
 IXCGrd= 2 IRadAn=           5 IRanWt=          -1 IRanGd=           0 AccXCQ= 0.00D+00.
 NRdTot=     344 NPtTot=       92556 NUsed=       95038 NTot=       95070
 NSgBfM=   160   160   160   160   160 NAtAll=     4     4.
 Leave Link  302 at Mon May  4 11:25:32 2020, MaxMem= 1073741824 cpu:       0.8
 (Enter /home/matheus/.gaussian/g09/l303.exe)
 DipDrv:  MaxL=1.
 Leave Link  303 at Mon May  4 11:25:32 2020, MaxMem= 1073741824 cpu:       0.2
 (Enter /home/matheus/.gaussian/g09/l401.exe)
 Initial guess read from the read-write file.
 Guess basis will be translated and rotated to current coordinates.
 Initial guess orbital symmetries:
       Occupied  (A) (A) (A) (A) (A) (A) (A) (A) (A)
       Virtual   (A) (A) (A) (A) (A) (A) (A) (A) (A) (A) (A) (A)
                 (A) (A) (A) (A) (A) (A) (A) (A) (A) (A) (A) (A)
                 (A) (A) (A) (A) (A) (A) (A) (A) (A) (A) (A) (A)
                 (A) (A) (A) (A) (A) (A) (A) (A) (A) (A) (A) (A)
                 (A) (A) (A) (A) (A) (A) (A) (A) (A) (A) (A) (A)
                 (A) (A) (A) (A) (A) (A) (A) (A) (A) (A) (A) (A)
                 (A) (A) (A) (A) (A) (A) (A) (A) (A) (A) (A) (A)
                 (A) (A) (A) (A) (A) (A) (A) (A) (A) (A) (A) (A)
                 (A) (A) (A) (A) (A) (A) (A) (A) (A) (A) (A) (A)
                 (A) (A) (A) (A) (A) (A) (A) (A) (A) (A) (A) (A)
                 (A) (A) (A) (A) (A) (A) (A) (A) (A)
 The electronic state of the initial guess is 1-A.
 Generating alternative initial guess.
 Harris functional with IExCor= 4639 diagonalized for initial guess.
 ExpMin= 2.53D-02 ExpMax= 1.53D+04 ExpMxC= 5.22D+02 IAcc=3 IRadAn=         5 AccDes= 0.00D+00
 HarFok:  IExCor= 4639 AccDes= 0.00D+00 IRadAn=         5 IDoV= 1
 ScaDFX=  1.000000  1.000000  1.000000  1.000000
 FoFCou: FMM=F IPFlag=           0 FMFlag=      100000 FMFlg1=           0
         NFxFlg=           0 DoJE=T BraDBF=F KetDBF=T FulRan=T
         Omega=  0.000000  0.000000  1.000000  0.000000  0.000000 ICntrl=     500 IOpCl=  0
         NMat0=    1 NMatS0=    1 NMatT0=    0 NMatD0=    1 NMtDS0=    0 NMtDT0=    0
         I1Cent=           4 NGrid=           0.
 Petite list used in FoFCou.
 Harris En= -145.946495149424    
 Leave Link  401 at Mon May  4 11:25:32 2020, MaxMem= 1073741824 cpu:       2.6
 (Enter /home/matheus/.gaussian/g09/l502.exe)
 Closed shell SCF:
 Requested convergence on RMS density matrix=1.00D-08 within 128 cycles.
 Requested convergence on MAX density matrix=1.00D-06.
 Requested convergence on             energy=1.00D-06.
 No special actions if energy rises.
 Using DIIS extrapolation, IDIIS=  1040.
 Integral symmetry usage will be decided dynamically.
        94980 words used for storage of precomputed grid.
 IEnd=      192360 IEndB=      192360 NGot=  1073741824 MDV=  1073591865
 LenX=  1073591865 LenY=  1073565824
 Fock matrices will be formed incrementally for  20 cycles.

 Cycle   1  Pass 1  IDiag  1:
 FoFJK:  IHMeth= 1 ICntrl=     0 DoSepK=T KAlg= 1 I1Cent= 0 FoldK=F
 FoFCou: FMM=F IPFlag=           0 FMFlag=      100000 FMFlg1=           0
         NFxFlg=           0 DoJE=T BraDBF=F KetDBF=F FulRan=T
         Omega=  0.000000  0.000000  1.000000  0.000000  0.000000 ICntrl=     500 IOpCl=  0
         NMat0=    1 NMatS0=    1 NMatT0=    0 NMatD0=    1 NMtDS0=    0 NMtDT0=    0
         I1Cent=           0 NGrid=           0.
 Symmetry not used in FoFCou.
 E= -151.560483081735    
 DIIS: error= 1.30D-05 at cycle   1 NSaved=   1.
 NSaved= 1 IEnMin= 1 EnMin= -151.560483081735     IErMin= 1 ErrMin= 1.30D-05
 ErrMax= 1.30D-05 EMaxC= 1.00D-01 BMatC= 3.50D-08 BMatP= 3.50D-08
 IDIUse=1 WtCom= 1.00D+00 WtEn= 0.00D+00
 Coeff-Com:  0.100D+01
 Coeff:      0.100D+01
 Gap=     0.434 Goal=   None    Shift=    0.000
 RMSDP=1.17D-06 MaxDP=2.54D-05              OVMax= 6.27D-05

 Cycle   2  Pass 1  IDiag  1:
 RMSU=  8.25D-07    CP:  1.00D+00
 FoFJK:  IHMeth= 1 ICntrl=     0 DoSepK=T KAlg= 1 I1Cent= 0 FoldK=F
 E= -151.560483118531     Delta-E=       -0.000000036796 Rises=F Damp=F
 DIIS: error= 2.60D-06 at cycle   2 NSaved=   2.
 NSaved= 2 IEnMin= 2 EnMin= -151.560483118531     IErMin= 2 ErrMin= 2.60D-06
 ErrMax= 2.60D-06 EMaxC= 1.00D-01 BMatC= 1.25D-09 BMatP= 3.50D-08
 IDIUse=1 WtCom= 1.00D+00 WtEn= 0.00D+00
 Coeff-Com: -0.116D+00 0.112D+01
 Coeff:     -0.116D+00 0.112D+01
 Gap=     0.434 Goal=   None    Shift=    0.000
 RMSDP=3.71D-07 MaxDP=9.06D-06 DE=-3.68D-08 OVMax= 2.39D-05

 Cycle   3  Pass 1  IDiag  1:
 RMSU=  1.54D-07    CP:  1.00D+00  1.26D+00
 FoFJK:  IHMeth= 1 ICntrl=     0 DoSepK=T KAlg= 1 I1Cent= 0 FoldK=F
 E= -151.560483121260     Delta-E=       -0.000000002729 Rises=F Damp=F
 DIIS: error= 1.32D-06 at cycle   3 NSaved=   3.
 NSaved= 3 IEnMin= 3 EnMin= -151.560483121260     IErMin= 3 ErrMin= 1.32D-06
 ErrMax= 1.32D-06 EMaxC= 1.00D-01 BMatC= 2.59D-10 BMatP= 1.25D-09
 IDIUse=1 WtCom= 1.00D+00 WtEn= 0.00D+00
 Coeff-Com: -0.446D-01 0.259D+00 0.785D+00
 Coeff:     -0.446D-01 0.259D+00 0.785D+00
 Gap=     0.434 Goal=   None    Shift=    0.000
 RMSDP=1.17D-07 MaxDP=3.58D-06 DE=-2.73D-09 OVMax= 7.31D-06

 Cycle   4  Pass 1  IDiag  1:
 RMSU=  7.06D-08    CP:  1.00D+00  1.30D+00  1.11D+00
 FoFJK:  IHMeth= 1 ICntrl=     0 DoSepK=T KAlg= 1 I1Cent= 0 FoldK=F
 E= -151.560483121493     Delta-E=       -0.000000000233 Rises=F Damp=F
 DIIS: error= 8.66D-07 at cycle   4 NSaved=   4.
 NSaved= 4 IEnMin= 4 EnMin= -151.560483121493     IErMin= 4 ErrMin= 8.66D-07
 ErrMax= 8.66D-07 EMaxC= 1.00D-01 BMatC= 1.59D-10 BMatP= 2.59D-10
 IDIUse=1 WtCom= 1.00D+00 WtEn= 0.00D+00
 Coeff-Com:  0.352D-02-0.133D+00 0.456D+00 0.673D+00
 Coeff:      0.352D-02-0.133D+00 0.456D+00 0.673D+00
 Gap=     0.434 Goal=   None    Shift=    0.000
 RMSDP=6.51D-08 MaxDP=1.37D-06 DE=-2.33D-10 OVMax= 4.11D-06

 Cycle   5  Pass 1  IDiag  1:
 RMSU=  1.78D-08    CP:  1.00D+00  1.33D+00  1.34D+00  8.06D-01
 FoFJK:  IHMeth= 1 ICntrl=     0 DoSepK=T KAlg= 1 I1Cent= 0 FoldK=F
 E= -151.560483121637     Delta-E=       -0.000000000144 Rises=F Damp=F
 DIIS: error= 1.69D-07 at cycle   5 NSaved=   5.
 NSaved= 5 IEnMin= 5 EnMin= -151.560483121637     IErMin= 5 ErrMin= 1.69D-07
 ErrMax= 1.69D-07 EMaxC= 1.00D-01 BMatC= 3.58D-12 BMatP= 1.59D-10
 IDIUse=1 WtCom= 1.00D+00 WtEn= 0.00D+00
 Coeff-Com:  0.468D-02-0.429D-01-0.439D-01 0.607D-01 0.102D+01
 Coeff:      0.468D-02-0.429D-01-0.439D-01 0.607D-01 0.102D+01
 Gap=     0.434 Goal=   None    Shift=    0.000
 RMSDP=2.36D-08 MaxDP=4.40D-07 DE=-1.44D-10 OVMax= 2.16D-06

 Cycle   6  Pass 1  IDiag  1:
 RMSU=  6.13D-09    CP:  1.00D+00  1.34D+00  1.40D+00  9.12D-01  1.43D+00
 FoFJK:  IHMeth= 1 ICntrl=     0 DoSepK=T KAlg= 1 I1Cent= 0 FoldK=F
 E= -151.560483121647     Delta-E=       -0.000000000010 Rises=F Damp=F
 DIIS: error= 5.26D-08 at cycle   6 NSaved=   6.
 NSaved= 6 IEnMin= 6 EnMin= -151.560483121647     IErMin= 6 ErrMin= 5.26D-08
 ErrMax= 5.26D-08 EMaxC= 1.00D-01 BMatC= 2.96D-13 BMatP= 3.58D-12
 IDIUse=1 WtCom= 1.00D+00 WtEn= 0.00D+00
 Coeff-Com: -0.259D-03 0.970D-02-0.299D-01-0.445D-01 0.326D-02 0.106D+01
 Coeff:     -0.259D-03 0.970D-02-0.299D-01-0.445D-01 0.326D-02 0.106D+01
 Gap=     0.434 Goal=   None    Shift=    0.000
 RMSDP=8.42D-09 MaxDP=1.67D-07 DE=-1.01D-11 OVMax= 8.25D-07

 SCF Done:  E(RwB97XD) =  -151.560483122     A.U. after    6 cycles
             Convg  =    0.8422D-08             -V/T =  2.0061
 KE= 1.506388386882D+02 PE=-4.316774778502D+02 EE= 9.286188012747D+01
 Leave Link  502 at Mon May  4 11:25:38 2020, MaxMem= 1073741824 cpu:      49.5
 (Enter /home/matheus/.gaussian/g09/l122.exe)
 Restoring MOs from calculation   5 to rwf.
 Counterpoise: doing MCBS calculation for fragment   2
 Leave Link  122 at Mon May  4 11:25:38 2020, MaxMem= 1073741824 cpu:       0.0
 (Enter /home/matheus/.gaussian/g09/l301.exe)
 Basis read from rwf:  (5D, 7F)
 No pseudopotential information found on rwf file.
 There are    59 symmetry adapted basis functions of A   symmetry.
 Integral buffers will be    131072 words long.
 Raffenetti 2 integral format.
 Two-electron integral symmetry is turned on.
    59 basis functions,   217 primitive gaussians,    69 cartesian basis functions
    18 alpha electrons       18 beta electrons
       nuclear repulsion energy         0.0000000000 Hartrees.
 IExCor= 4639 DFT=T Ex+Corr=wB97XD ExCW=0 ScaHFX=  1.000000
 ScaDFX=  1.000000  1.000000  1.000000  1.000000 ScalE2=  1.000000  1.000000
 IRadAn=      5 IRanWt=     -1 IRanGd=            0 ICorTp=0
  HFx wShort=  0.000000 wLong=  0.250000 cFull=  0.222036 cShort=  0.000000 cLong=  0.777964
  DFx wShort=  0.000000 wLong=  0.250000 cFull=  0.000000 cShort=  0.000000 cLong=  1.000000
 NAtoms=    5 NActive=    1 NUniq=    1 SFac= 1.00D+00 NAtFMM=   60 NAOKFM=F Big=F
 R6Disp: Dispersion energy =         0.0000000000 Hartrees.
 Nuclear repulsion after empirical dispersion term =        0.0000000000 Hartrees.
 No density basis found on file   718.
 Leave Link  301 at Mon May  4 11:25:38 2020, MaxMem= 1073741824 cpu:       0.2
 (Enter /home/matheus/.gaussian/g09/l302.exe)
 NPDir=0 NMtPBC=     1 NCelOv=     1 NCel=       1 NClECP=     1 NCelD=      1
         NCelK=      1 NCelE2=     1 NClLst=     1 CellRange=     0.0.
 One-electron integrals computed using PRISM.
 NBasis=    59 RedAO= T  NBF=    59
 NBsUse=    59 1.00D-06 NBFU=    59
 Precomputing XC quadrature grid using
 IXCGrd= 2 IRadAn=           5 IRanWt=          -1 IRanGd=           0 AccXCQ= 0.00D+00.
 NRdTot=      81 NPtTot=       30352 NUsed=       30981 NTot=       31013
 NSgBfM=    69    69    69    69    69 NAtAll=     1     1.
 Leave Link  302 at Mon May  4 11:25:38 2020, MaxMem= 1073741824 cpu:       0.7
 (Enter /home/matheus/.gaussian/g09/l303.exe)
 DipDrv:  MaxL=1.
 Leave Link  303 at Mon May  4 11:25:38 2020, MaxMem= 1073741824 cpu:       0.2
 (Enter /home/matheus/.gaussian/g09/l401.exe)
 Initial guess read from the read-write file.
 Guess basis will be translated and rotated to current coordinates.
 Initial guess orbital symmetries:
       Occupied  (A) (A) (A) (A) (A) (A) (A) (A) (A) (A) (A) (A)
                 (A) (A) (A) (A) (A) (A)
       Virtual   (A) (A) (A) (A) (A) (A) (A) (A) (A) (A) (A) (A)
                 (A) (A) (A) (A) (A) (A) (A) (A) (A) (A) (A) (A)
                 (A) (A) (A) (A) (A) (A) (A) (A) (A) (A) (A) (A)
                 (A) (A) (A) (A) (A)
 The electronic state of the initial guess is 1-A.
 Generating alternative initial guess.
 Harris functional with IExCor= 4639 diagonalized for initial guess.
 ExpMin= 4.00D-02 ExpMax= 1.17D+07 ExpMxC= 1.33D+04 IAcc=3 IRadAn=         5 AccDes= 0.00D+00
 HarFok:  IExCor= 4639 AccDes= 0.00D+00 IRadAn=         5 IDoV= 1
 ScaDFX=  1.000000  1.000000  1.000000  1.000000
 FoFCou: FMM=F IPFlag=           0 FMFlag=      100000 FMFlg1=           0
         NFxFlg=           0 DoJE=T BraDBF=F KetDBF=T FulRan=T
         Omega=  0.000000  0.000000  1.000000  0.000000  0.000000 ICntrl=     500 IOpCl=  0
         NMat0=    1 NMatS0=    1 NMatT0=    0 NMatD0=    1 NMtDS0=    0 NMtDT0=    0
         I1Cent=           4 NGrid=           0.
 Petite list used in FoFCou.
 Harris En= -2729.45839233129    
 Leave Link  401 at Mon May  4 11:25:38 2020, MaxMem= 1073741824 cpu:       1.0
 (Enter /home/matheus/.gaussian/g09/l502.exe)
 Closed shell SCF:
 Requested convergence on RMS density matrix=1.00D-08 within 128 cycles.
 Requested convergence on MAX density matrix=1.00D-06.
 Requested convergence on             energy=1.00D-06.
 No special actions if energy rises.
 Using DIIS extrapolation, IDIIS=  1040.
 Integral symmetry usage will be decided dynamically.
        30923 words used for storage of precomputed grid.
 IEnd=       64406 IEndB=       64406 NGot=  1073741824 MDV=  1073698889
 LenX=  1073698889 LenY=  1073693687
 Fock matrices will be formed incrementally for  20 cycles.

 Cycle   1  Pass 1  IDiag  1:
 FoFJK:  IHMeth= 1 ICntrl=     0 DoSepK=T KAlg= 1 I1Cent= 0 FoldK=F
 FoFCou: FMM=F IPFlag=           0 FMFlag=      100000 FMFlg1=           0
         NFxFlg=           0 DoJE=T BraDBF=F KetDBF=F FulRan=T
         Omega=  0.000000  0.000000  1.000000  0.000000  0.000000 ICntrl=     500 IOpCl=  0
         NMat0=    1 NMatS0=    1 NMatT0=    0 NMatD0=    1 NMtDS0=    0 NMtDT0=    0
         I1Cent=           0 NGrid=           0.
 Symmetry not used in FoFCou.
 E= -2753.87011063501    
 DIIS: error= 9.64D-14 at cycle   1 NSaved=   1.
 NSaved= 1 IEnMin= 1 EnMin= -2753.87011063501     IErMin= 1 ErrMin= 9.64D-14
 ErrMax= 9.64D-14 EMaxC= 1.00D-01 BMatC= 3.94D-25 BMatP= 3.94D-25
 IDIUse=1 WtCom= 1.00D+00 WtEn= 0.00D+00
 Coeff-Com:  0.100D+01
 Coeff:      0.100D+01
 Gap=     0.578 Goal=   None    Shift=    0.000
 RMSDP=8.97D-15 MaxDP=9.80D-14              OVMax= 8.65D-14

 SCF Done:  E(RwB97XD) =  -2753.87011064     A.U. after    1 cycles
             Convg  =    0.8971D-14             -V/T =  2.0013
 KE= 2.750289370128D+03 PE=-6.580200885036D+03 EE= 1.076041404273D+03
 Leave Link  502 at Mon May  4 11:25:40 2020, MaxMem= 1073741824 cpu:      12.1
 (Enter /home/matheus/.gaussian/g09/l122.exe)
 Restoring MOs from calculation   1 to rwf.
 Counterpoise: corrected energy =   -2905.430903309392
 Counterpoise: BSSE energy =       0.000019942908
 Leave Link  122 at Mon May  4 11:25:40 2020, MaxMem= 1073741824 cpu:       0.0
 (Enter /home/matheus/.gaussian/g09/l108.exe)
 Scan completed.

 Summary of the potential surface scan:
   N      R1          SCF    
 ----  ---------  -----------
    1     3.0000  -2753.87011
    2     3.1000  -2753.87011
    3     3.2000  -2753.87011
    4     3.3000  -2753.87011
    5     3.4000  -2753.87011
    6     3.5000  -2753.87011
    7     3.6000  -2753.87011
    8     3.7000  -2753.87011
    9     3.8000  -2753.87011
   10     3.9000  -2753.87011
   11     4.0000  -2753.87011
   12     4.1000  -2753.87011
   13     4.2000  -2753.87011
   14     4.3000  -2753.87011
   15     4.4000  -2753.87011
   16     4.5000  -2753.87011
   17     4.6000  -2753.87011
   18     4.7000  -2753.87011
   19     4.8000  -2753.87011
   20     4.9000  -2753.87011
   21     5.0000  -2753.87011
 ----  ---------  -----------
  
 Leave Link  108 at Mon May  4 11:25:40 2020, MaxMem= 1073741824 cpu:       0.0
 (Enter /home/matheus/.gaussian/g09/l9999.exe)

 Test job not archived.
 1\1\GINC-REDGIANT\Scan\RwB97XD\Aug-CC-pVTZ\H2Kr1O2\ROOT\04-May-2020\1\
 \#p wb97xd/aug-cc-PVTz iop(3/107=0250000000) iop(3/108=0250000000) int
 =ultrafine counterpoise=2 Scan\\TCC\\0,1\O,0,0.,0.,0.725\O,0,0.,0.,-0.
 725\H,0,-0.8633149634,-0.3142209495,1.0235104166\H,0,0.,0.9187205947,-
 1.0235104166\Kr,0,0.,R1,0.\\R1=3.,s,20,0.1\\Version=EM64L-G09RevC.01\S
 tate=1-A\HF=-2753.8701106,-2753.8701106,-2753.8701106,-2753.8701106,-2
 753.8701106,-2753.8701106,-2753.8701106,-2753.8701106,-2753.8701106,-2
 753.8701106,-2753.8701106,-2753.8701106,-2753.8701106,-2753.8701106,-2
 753.8701106,-2753.8701106,-2753.8701106,-2753.8701106,-2753.8701106,-2
 753.8701106,-2753.8701106\RMSD=9.654e-09,1.847e-10,5.406e-11,3.458e-11
 ,1.948e-11,1.188e-11,7.100e-12,4.283e-12,2.573e-12,1.551e-12,9.314e-13
 ,5.576e-13,3.329e-13,1.966e-13,1.148e-13,6.941e-14,3.912e-14,2.257e-14
 ,1.662e-14,1.280e-14,8.971e-15\PG=C01 [X(H2Kr1O2)]\\@


 NATURE GIVES TO EVERY TIME AND SEASON SOME BEAUTY OF ITS OWN.

                                                    --DICKENS
 Job cpu time:  0 days  3 hours 25 minutes 59.3 seconds.
 File lengths (MBytes):  RWF=     33 Int=      0 D2E=      0 Chk=      8 Scr=      1
 Normal termination of Gaussian 09 at Mon May  4 11:25:40 2020.
