 Entering Gaussian System, Link 0=g09
 Input=/home/matheus/.tcc/Inputs-wb97xd/H2O2-Kr_28.com
 Output=/home/matheus/.tcc/Logs-wb97xd/H2O2-Kr_28.log
 Initial command:
 /home/matheus/.gaussian/g09/l1.exe /home/matheus/.gaussian/g09/scratch/Gau-4607.inp -scrdir=/home/matheus/.gaussian/g09/scratch/
 Entering Link 1 = /home/matheus/.gaussian/g09/l1.exe PID=      4610.
  
 Copyright (c) 1988,1990,1992,1993,1995,1998,2003,2009,2011,
            Gaussian, Inc.  All Rights Reserved.
  
 This is part of the Gaussian(R) 09 program.  It is based on
 the Gaussian(R) 03 system (copyright 2003, Gaussian, Inc.),
 the Gaussian(R) 98 system (copyright 1998, Gaussian, Inc.),
 the Gaussian(R) 94 system (copyright 1995, Gaussian, Inc.),
 the Gaussian 92(TM) system (copyright 1992, Gaussian, Inc.),
 the Gaussian 90(TM) system (copyright 1990, Gaussian, Inc.),
 the Gaussian 88(TM) system (copyright 1988, Gaussian, Inc.),
 the Gaussian 86(TM) system (copyright 1986, Carnegie Mellon
 University), and the Gaussian 82(TM) system (copyright 1983,
 Carnegie Mellon University). Gaussian is a federally registered
 trademark of Gaussian, Inc.
  
 This software contains proprietary and confidential information,
 including trade secrets, belonging to Gaussian, Inc.
  
 This software is provided under written license and may be
 used, copied, transmitted, or stored only in accord with that
 written license.
  
 The following legend is applicable only to US Government
 contracts under FAR:
  
                    RESTRICTED RIGHTS LEGEND
  
 Use, reproduction and disclosure by the US Government is
 subject to restrictions as set forth in subparagraphs (a)
 and (c) of the Commercial Computer Software - Restricted
 Rights clause in FAR 52.227-19.
  
 Gaussian, Inc.
 340 Quinnipiac St., Bldg. 40, Wallingford CT 06492
  
  
 ---------------------------------------------------------------
 Warning -- This program may not be used in any manner that
 competes with the business of Gaussian, Inc. or will provide
 assistance to any competitor of Gaussian, Inc.  The licensee
 of this program is prohibited from giving any competitor of
 Gaussian, Inc. access to this program.  By using this program,
 the user acknowledges that Gaussian, Inc. is engaged in the
 business of creating and licensing software in the field of
 computational chemistry and represents and warrants to the
 licensee that it is not a competitor of Gaussian, Inc. and that
 it will not use this program in any manner prohibited above.
 ---------------------------------------------------------------
  

 Cite this work as:
 Gaussian 09, Revision C.01,
 M. J. Frisch, G. W. Trucks, H. B. Schlegel, G. E. Scuseria, 
 M. A. Robb, J. R. Cheeseman, G. Scalmani, V. Barone, B. Mennucci, 
 G. A. Petersson, H. Nakatsuji, M. Caricato, X. Li, H. P. Hratchian, 
 A. F. Izmaylov, J. Bloino, G. Zheng, J. L. Sonnenberg, M. Hada, 
 M. Ehara, K. Toyota, R. Fukuda, J. Hasegawa, M. Ishida, T. Nakajima, 
 Y. Honda, O. Kitao, H. Nakai, T. Vreven, J. A. Montgomery, Jr., 
 J. E. Peralta, F. Ogliaro, M. Bearpark, J. J. Heyd, E. Brothers, 
 K. N. Kudin, V. N. Staroverov, T. Keith, R. Kobayashi, J. Normand, 
 K. Raghavachari, A. Rendell, J. C. Burant, S. S. Iyengar, J. Tomasi, 
 M. Cossi, N. Rega, J. M. Millam, M. Klene, J. E. Knox, J. B. Cross, 
 V. Bakken, C. Adamo, J. Jaramillo, R. Gomperts, R. E. Stratmann, 
 O. Yazyev, A. J. Austin, R. Cammi, C. Pomelli, J. W. Ochterski, 
 R. L. Martin, K. Morokuma, V. G. Zakrzewski, G. A. Voth, 
 P. Salvador, J. J. Dannenberg, S. Dapprich, A. D. Daniels, 
 O. Farkas, J. B. Foresman, J. V. Ortiz, J. Cioslowski, 
 and D. J. Fox, Gaussian, Inc., Wallingford CT, 2010.
 
 ******************************************
 Gaussian 09:  EM64L-G09RevC.01 23-Sep-2011
                 4-May-2020 
 ******************************************
 %mem=8GB
 %nproc=8
 Will use up to    8 processors via shared memory.
 ----------------------------------------------------------------------
 #p wb97xd/aug-cc-PVTz iop(3/107=0250000000) iop(3/108=0250000000) int=
 ultrafine counterpoise=2 Scan
 ----------------------------------------------------------------------
 1/38=1,60=1,62=2/1,8;
 2/12=2,17=6,18=5,29=3,40=1/2;
 1/38=1,53=5172,62=2/22;
 3/5=16,6=1,7=10,11=2,16=1,25=1,30=1,74=-58,75=-5,107=250000000,108=250000000/1,2,3;
 4//1;
 5/5=2,38=5/2;
 6/7=2,8=2,9=2,10=2,18=1,28=1/1;
 1/53=4052,62=2,63=1/22;
 3/5=7,6=11,7=10,11=2,16=1,25=1,30=1,74=-58,75=-5,82=7,107=250000000,108=250000000/1,2,3;
 4//1;
 5/5=2,38=5/2;
 6/7=2,8=2,9=2,10=2,18=1,28=1/1;
 1/53=3042,62=2,63=2/22;
 3/5=7,6=11,7=10,11=2,16=1,25=1,30=1,74=-58,75=-5,82=7,107=250000000,108=250000000/1,2,3;
 4//1;
 5/5=2,38=5/2;
 6/7=2,8=2,9=2,10=2,18=1,28=1/1;
 1/53=2032,62=2,63=3/22;
 3/5=7,6=11,7=10,11=2,16=1,25=1,30=1,74=-58,75=-5,82=7,107=250000000,108=250000000/1,2,3;
 4//1;
 5/5=2,38=5/2;
 6/7=2,8=2,9=2,10=2,18=1,28=1/1;
 1/53=1022,62=2,63=4/22;
 3/5=7,6=11,7=10,11=2,16=1,25=1,30=1,74=-58,75=-5,82=7,107=250000000,108=250000000/1,2,3;
 4//1;
 5/5=2,38=5/2;
 6/7=2,8=2,9=2,10=2,18=1,28=1/1;
 1/53=5014,62=2,63=5/22;
 1/60=1,62=2/8(1);
 99/9=1/99;
 2/29=3/2;
 1/53=5173,62=2/22;
 3/5=7,6=11,7=10,11=2,16=1,25=1,30=1,74=-58,75=-5,82=7,107=250000000,108=250000000/1,2,3;
 4/5=5,16=3/1;
 5/5=2,38=5/2;
 1/53=4053,62=2,63=1/22;
 3/5=7,6=11,7=10,11=2,16=1,25=1,30=1,74=-58,75=-5,82=7,107=250000000,108=250000000/1,2,3;
 4/5=5,16=3/1;
 5/5=2,38=5/2;
 1/53=3043,62=2,63=2/22;
 3/5=7,6=11,7=10,11=2,16=1,25=1,30=1,74=-58,75=-5,82=7,107=250000000,108=250000000/1,2,3;
 4/5=5,16=3/1;
 5/5=2,38=5/2;
 1/53=2033,62=2,63=3/22;
 3/5=7,6=11,7=10,11=2,16=1,25=1,30=1,74=-58,75=-5,82=7,107=250000000,108=250000000/1,2,3;
 4/5=5,16=3/1;
 5/5=2,38=5/2;
 1/53=1024,62=2,63=4/22;
 3/5=7,6=11,7=10,11=2,16=1,25=1,30=1,74=-58,75=-5,82=7,107=250000000,108=250000000/1,2,3;
 4/5=5,16=3/1;
 5/5=2,38=5/2;
 1/53=5014,62=2,63=5/22;
 1/60=1,62=2/8(-22);
 99/9=1/99;
 Leave Link    1 at Mon May  4 12:20:04 2020, MaxMem= 1073741824 cpu:       0.1
 (Enter /home/matheus/.gaussian/g09/l101.exe)
 ---
 TCC
 ---
 Charge =  0 Multiplicity = 1 in supermolecule
 Charge =  0 Multiplicity = 1 in fragment  1.
 Charge =  0 Multiplicity = 1 in fragment  2.
 Symbolic Z-Matrix:
 O(Fragment=1)         0.        0.        0.725 
 O(Fragment=1)         0.        0.       -0.725 
 H(Fragment=1)        -0.90476   0.15953   1.02351 
 H(Fragment=1)         0.        0.91872  -1.02351 
 Kr(Fragment=2)        0.       R1        0. 
       Variables:
  R1                    3.     Scan 20    0.1    
 
 NAtoms=      5 NQM=        0 NQMF=       0 NMMI=      5 NMMIF=      0
                NMic=       0 NMicF=      0.
                    Isotopes and Nuclear Properties:
 (Nuclear quadrupole moments (NQMom) in fm**2, nuclear magnetic moments (NMagM)
  in nuclear magnetons)

  Atom         1           2           3           4           5
 IAtWgt=          16          16           1           1          84
 AtmWgt=  15.9949146  15.9949146   1.0078250   1.0078250  83.9115064
 NucSpn=           0           0           1           1           0
 AtZEff=   0.0000000   0.0000000   0.0000000   0.0000000   0.0000000
 NQMom=    0.0000000   0.0000000   0.0000000   0.0000000   0.0000000
 NMagM=    0.0000000   0.0000000   2.7928460   2.7928460   0.0000000
 Leave Link  101 at Mon May  4 12:20:04 2020, MaxMem= 1073741824 cpu:       0.3
 (Enter /home/matheus/.gaussian/g09/l108.exe)
 Scan the potential surface.
 Variable   Value     No. Steps Step-Size
 -------- ----------- --------- ---------
     1       3.000000      20      0.1000
 A total of     21 points will be computed.
 Leave Link  108 at Mon May  4 12:20:04 2020, MaxMem= 1073741824 cpu:       0.0
 (Enter /home/matheus/.gaussian/g09/l202.exe)
 ---------------------------------------------------------------------------------------------------
                            Z-MATRIX (ANGSTROMS AND DEGREES)
   CD    Cent   Atom    N1       Length/X        N2       Alpha/Y        N3        Beta/Z          J
 ---------------------------------------------------------------------------------------------------
      1      1  O        0   0.000000          0.000000          0.725000
      2      2  O        0   0.000000          0.000000         -0.725000
      3      3  H        0  -0.904763          0.159534          1.023510
      4      4  H        0   0.000000          0.918721         -1.023510
      5      5  Kr       0   0.000000          3.000000          0.000000
 ---------------------------------------------------------------------------------------------------
                         Z-Matrix orientation:                         
 ---------------------------------------------------------------------
 Center     Atomic      Atomic             Coordinates (Angstroms)
 Number     Number       Type             X           Y           Z
 ---------------------------------------------------------------------
      1          8           0        0.000000    0.000000    0.725000
      2          8           0        0.000000    0.000000   -0.725000
      3          1           0       -0.904763    0.159534    1.023510
      4          1           0        0.000000    0.918721   -1.023510
      5         36           0        0.000000    3.000000    0.000000
 ---------------------------------------------------------------------
                    Distance matrix (angstroms):
                    1          2          3          4          5
     1  O    0.000000
     2  O    1.450000   0.000000
     3  H    0.966000   1.975180   0.000000
     4  H    1.975180   0.966000   2.363314   0.000000
     5  Kr   3.086361   3.086361   3.151891   2.319331   0.000000
 Stoichiometry    H2KrO2
 Framework group  C1[X(H2KrO2)]
 Deg. of freedom     9
 Full point group                 C1      NOp   1
 Largest Abelian subgroup         C1      NOp   1
 Largest concise Abelian subgroup C1      NOp   1
                         Standard orientation:                         
 ---------------------------------------------------------------------
 Center     Atomic      Atomic             Coordinates (Angstroms)
 Number     Number       Type             X           Y           Z
 ---------------------------------------------------------------------
      1          8           0       -2.025459   -0.700316   -0.115097
      2          8           0       -2.013251    0.743386    0.019343
      3          1           0       -1.883208   -1.082864    0.760447
      4          1           0       -1.092171    1.031511    0.061209
      5         36           0        0.980140   -0.008145   -0.001545
 ---------------------------------------------------------------------
 Rotational constants (GHZ):     25.6204873      2.3529019      2.1689661
 Leave Link  202 at Mon May  4 12:20:04 2020, MaxMem= 1073741824 cpu:       0.0
 (Enter /home/matheus/.gaussian/g09/l122.exe)
 Leave Link  122 at Mon May  4 12:20:04 2020, MaxMem= 1073741824 cpu:       0.0
 (Enter /home/matheus/.gaussian/g09/l301.exe)
 Standard basis: Aug-CC-pVTZ (5D, 7F)
 Ernie: Thresh=  0.10000D-02 Tol=  0.10000D-05 Strict=F.
 Ernie:  38 primitive shells out of 205 were deleted.
 There are   197 symmetry adapted basis functions of A   symmetry.
 Integral buffers will be    131072 words long.
 Raffenetti 2 integral format.
 Two-electron integral symmetry is turned on.
   197 basis functions,   415 primitive gaussians,   229 cartesian basis functions
    27 alpha electrons       27 beta electrons
       nuclear repulsion energy       149.6490473971 Hartrees.
 IExCor= 4639 DFT=T Ex+Corr=wB97XD ExCW=0 ScaHFX=  1.000000
 ScaDFX=  1.000000  1.000000  1.000000  1.000000 ScalE2=  1.000000  1.000000
 IRadAn=      5 IRanWt=     -1 IRanGd=            0 ICorTp=0
  HFx wShort=  0.000000 wLong=  0.250000 cFull=  0.222036 cShort=  0.000000 cLong=  0.777964
  DFx wShort=  0.000000 wLong=  0.250000 cFull=  0.000000 cShort=  0.000000 cLong=  1.000000
 NAtoms=    5 NActive=    5 NUniq=    5 SFac= 1.00D+00 NAtFMM=   60 NAOKFM=F Big=F
 R6Disp: Dispersion energy =        -0.0009616899 Hartrees.
 Nuclear repulsion after empirical dispersion term =      149.6480857072 Hartrees.
 Leave Link  301 at Mon May  4 12:20:04 2020, MaxMem= 1073741824 cpu:       0.2
 (Enter /home/matheus/.gaussian/g09/l302.exe)
 NPDir=0 NMtPBC=     1 NCelOv=     1 NCel=       1 NClECP=     1 NCelD=      1
         NCelK=      1 NCelE2=     1 NClLst=     1 CellRange=     0.0.
 One-electron integrals computed using PRISM.
 NBasis=   197 RedAO= T  NBF=   197
 NBsUse=   197 1.00D-06 NBFU=   197
 Precomputing XC quadrature grid using
 IXCGrd= 2 IRadAn=           5 IRanWt=          -1 IRanGd=           0 AccXCQ= 0.00D+00.
 NRdTot=     427 NPtTot=      123512 NUsed=      126579 NTot=      126611
 NSgBfM=   229   229   229   229   229 NAtAll=     5     5.
 Leave Link  302 at Mon May  4 12:20:04 2020, MaxMem= 1073741824 cpu:       0.9
 (Enter /home/matheus/.gaussian/g09/l303.exe)
 DipDrv:  MaxL=1.
 Leave Link  303 at Mon May  4 12:20:05 2020, MaxMem= 1073741824 cpu:       0.2
 (Enter /home/matheus/.gaussian/g09/l401.exe)
 Harris functional with IExCor= 4639 diagonalized for initial guess.
 ExpMin= 2.53D-02 ExpMax= 1.17D+07 ExpMxC= 1.33D+04 IAcc=3 IRadAn=         5 AccDes= 0.00D+00
 HarFok:  IExCor= 4639 AccDes= 0.00D+00 IRadAn=         5 IDoV= 1
 ScaDFX=  1.000000  1.000000  1.000000  1.000000
 FoFCou: FMM=F IPFlag=           0 FMFlag=      100000 FMFlg1=           0
         NFxFlg=           0 DoJE=T BraDBF=F KetDBF=T FulRan=T
         Omega=  0.000000  0.000000  1.000000  0.000000  0.000000 ICntrl=     500 IOpCl=  0
         NMat0=    1 NMatS0=    1 NMatT0=    0 NMatD0=    1 NMtDS0=    0 NMtDT0=    0
         I1Cent=           4 NGrid=           0.
 Petite list used in FoFCou.
 Harris En= -2875.39739829731    
 Initial guess orbital symmetries:
       Occupied  (A) (A) (A) (A) (A) (A) (A) (A) (A) (A) (A) (A)
                 (A) (A) (A) (A) (A) (A) (A) (A) (A) (A) (A) (A)
                 (A) (A) (A)
       Virtual   (A) (A) (A) (A) (A) (A) (A) (A) (A) (A) (A) (A)
                 (A) (A) (A) (A) (A) (A) (A) (A) (A) (A) (A) (A)
                 (A) (A) (A) (A) (A) (A) (A) (A) (A) (A) (A) (A)
                 (A) (A) (A) (A) (A) (A) (A) (A) (A) (A) (A) (A)
                 (A) (A) (A) (A) (A) (A) (A) (A) (A) (A) (A) (A)
                 (A) (A) (A) (A) (A) (A) (A) (A) (A) (A) (A) (A)
                 (A) (A) (A) (A) (A) (A) (A) (A) (A) (A) (A) (A)
                 (A) (A) (A) (A) (A) (A) (A) (A) (A) (A) (A) (A)
                 (A) (A) (A) (A) (A) (A) (A) (A) (A) (A) (A) (A)
                 (A) (A) (A) (A) (A) (A) (A) (A) (A) (A) (A) (A)
                 (A) (A) (A) (A) (A) (A) (A) (A) (A) (A) (A) (A)
                 (A) (A) (A) (A) (A) (A) (A) (A) (A) (A) (A) (A)
                 (A) (A) (A) (A) (A) (A) (A) (A) (A) (A) (A) (A)
                 (A) (A) (A) (A) (A) (A) (A) (A) (A) (A) (A) (A)
                 (A) (A)
 The electronic state of the initial guess is 1-A.
 Leave Link  401 at Mon May  4 12:20:05 2020, MaxMem= 1073741824 cpu:       3.9
 (Enter /home/matheus/.gaussian/g09/l502.exe)
 Closed shell SCF:
 Requested convergence on RMS density matrix=1.00D-08 within 128 cycles.
 Requested convergence on MAX density matrix=1.00D-06.
 Requested convergence on             energy=1.00D-06.
 No special actions if energy rises.
 Using DIIS extrapolation, IDIIS=  1040.
 Integral symmetry usage will be decided dynamically.
       126521 words used for storage of precomputed grid.
 IEnd=      305468 IEndB=      305468 NGot=  1073741824 MDV=  1073505667
 LenX=  1073505667 LenY=  1073452785
 Fock matrices will be formed incrementally for  20 cycles.

 Cycle   1  Pass 1  IDiag  1:
 FoFJK:  IHMeth= 1 ICntrl=     0 DoSepK=T KAlg= 1 I1Cent= 0 FoldK=F
 FoFCou: FMM=F IPFlag=           0 FMFlag=      100000 FMFlg1=           0
         NFxFlg=           0 DoJE=T BraDBF=F KetDBF=F FulRan=T
         Omega=  0.000000  0.000000  1.000000  0.000000  0.000000 ICntrl=     500 IOpCl=  0
         NMat0=    1 NMatS0=    1 NMatT0=    0 NMatD0=    1 NMtDS0=    0 NMtDT0=    0
         I1Cent=           0 NGrid=           0.
 Symmetry not used in FoFCou.
 E= -2904.90198419810    
 DIIS: error= 6.00D-02 at cycle   1 NSaved=   1.
 NSaved= 1 IEnMin= 1 EnMin= -2904.90198419810     IErMin= 1 ErrMin= 6.00D-02
 ErrMax= 6.00D-02 EMaxC= 1.00D-01 BMatC= 2.22D+00 BMatP= 2.22D+00
 IDIUse=3 WtCom= 4.00D-01 WtEn= 6.00D-01
 Coeff-Com:  0.100D+01
 Coeff-En:   0.100D+01
 Coeff:      0.100D+01
 Gap=     0.559 Goal=   None    Shift=    0.000
 GapD=    0.559 DampG=2.000 DampE=0.500 DampFc=1.0000 IDamp=-1.
 RMSDP=6.12D-03 MaxDP=3.66D-01              OVMax= 1.83D-01

 Cycle   2  Pass 1  IDiag  1:
 RMSU=  4.30D-03    CP:  1.03D+00
 FoFJK:  IHMeth= 1 ICntrl=     0 DoSepK=T KAlg= 1 I1Cent= 0 FoldK=F
 E= -2905.22336393831     Delta-E=       -0.321379740206 Rises=F Damp=F
 DIIS: error= 2.79D-02 at cycle   2 NSaved=   2.
 NSaved= 2 IEnMin= 2 EnMin= -2905.22336393831     IErMin= 2 ErrMin= 2.79D-02
 ErrMax= 2.79D-02 EMaxC= 1.00D-01 BMatC= 5.65D-01 BMatP= 2.22D+00
 IDIUse=3 WtCom= 7.21D-01 WtEn= 2.79D-01
 Coeff-Com:  0.328D+00 0.672D+00
 Coeff-En:   0.196D+00 0.804D+00
 Coeff:      0.291D+00 0.709D+00
 Gap=     0.505 Goal=   None    Shift=    0.000
 RMSDP=2.66D-03 MaxDP=1.56D-01 DE=-3.21D-01 OVMax= 7.37D-02

 Cycle   3  Pass 1  IDiag  1:
 RMSU=  5.59D-04    CP:  1.02D+00  5.84D-01
 FoFJK:  IHMeth= 1 ICntrl=     0 DoSepK=T KAlg= 1 I1Cent= 0 FoldK=F
 E= -2905.41786228379     Delta-E=       -0.194498345480 Rises=F Damp=F
 DIIS: error= 5.94D-03 at cycle   3 NSaved=   3.
 NSaved= 3 IEnMin= 3 EnMin= -2905.41786228379     IErMin= 3 ErrMin= 5.94D-03
 ErrMax= 5.94D-03 EMaxC= 1.00D-01 BMatC= 1.71D-02 BMatP= 5.65D-01
 IDIUse=3 WtCom= 9.41D-01 WtEn= 5.94D-02
 Coeff-Com:  0.347D-01 0.185D+00 0.781D+00
 Coeff-En:   0.000D+00 0.000D+00 0.100D+01
 Coeff:      0.326D-01 0.174D+00 0.794D+00
 Gap=     0.453 Goal=   None    Shift=    0.000
 RMSDP=4.70D-04 MaxDP=1.85D-02 DE=-1.94D-01 OVMax= 2.58D-02

 Cycle   4  Pass 1  IDiag  1:
 RMSU=  2.31D-04    CP:  1.02D+00  6.38D-01  9.10D-01
 FoFJK:  IHMeth= 1 ICntrl=     0 DoSepK=T KAlg= 1 I1Cent= 0 FoldK=F
 E= -2905.42574353447     Delta-E=       -0.007881250678 Rises=F Damp=F
 DIIS: error= 2.12D-03 at cycle   4 NSaved=   4.
 NSaved= 4 IEnMin= 4 EnMin= -2905.42574353447     IErMin= 4 ErrMin= 2.12D-03
 ErrMax= 2.12D-03 EMaxC= 1.00D-01 BMatC= 1.79D-03 BMatP= 1.71D-02
 IDIUse=3 WtCom= 9.79D-01 WtEn= 2.12D-02
 Coeff-Com: -0.237D-02 0.461D-01 0.370D+00 0.586D+00
 Coeff-En:   0.000D+00 0.000D+00 0.000D+00 0.100D+01
 Coeff:     -0.232D-02 0.451D-01 0.363D+00 0.595D+00
 Gap=     0.438 Goal=   None    Shift=    0.000
 RMSDP=1.21D-04 MaxDP=6.80D-03 DE=-7.88D-03 OVMax= 6.73D-03

 Cycle   5  Pass 1  IDiag  1:
 RMSU=  3.99D-05    CP:  1.02D+00  6.36D-01  9.55D-01  6.99D-01
 FoFJK:  IHMeth= 1 ICntrl=     0 DoSepK=T KAlg= 1 I1Cent= 0 FoldK=F
 E= -2905.42682541603     Delta-E=       -0.001081881559 Rises=F Damp=F
 DIIS: error= 2.39D-04 at cycle   5 NSaved=   5.
 NSaved= 5 IEnMin= 5 EnMin= -2905.42682541603     IErMin= 5 ErrMin= 2.39D-04
 ErrMax= 2.39D-04 EMaxC= 1.00D-01 BMatC= 1.92D-05 BMatP= 1.79D-03
 IDIUse=3 WtCom= 9.98D-01 WtEn= 2.39D-03
 Coeff-Com: -0.133D-02 0.783D-02 0.831D-01 0.151D+00 0.759D+00
 Coeff-En:   0.000D+00 0.000D+00 0.000D+00 0.000D+00 0.100D+01
 Coeff:     -0.133D-02 0.781D-02 0.829D-01 0.151D+00 0.760D+00
 Gap=     0.437 Goal=   None    Shift=    0.000
 RMSDP=2.20D-05 MaxDP=9.85D-04 DE=-1.08D-03 OVMax= 1.41D-03

 Cycle   6  Pass 1  IDiag  1:
 RMSU=  1.35D-05    CP:  1.02D+00  6.36D-01  9.64D-01  7.16D-01  1.11D+00
 FoFJK:  IHMeth= 1 ICntrl=     0 DoSepK=T KAlg= 1 I1Cent= 0 FoldK=F
 E= -2905.42683501625     Delta-E=       -0.000009600229 Rises=F Damp=F
 DIIS: error= 1.72D-04 at cycle   6 NSaved=   6.
 NSaved= 6 IEnMin= 6 EnMin= -2905.42683501625     IErMin= 6 ErrMin= 1.72D-04
 ErrMax= 1.72D-04 EMaxC= 1.00D-01 BMatC= 1.03D-05 BMatP= 1.92D-05
 IDIUse=3 WtCom= 9.98D-01 WtEn= 1.72D-03
 Coeff-Com: -0.269D-03-0.584D-02-0.329D-01-0.450D-01 0.438D+00 0.646D+00
 Coeff-En:   0.000D+00 0.000D+00 0.000D+00 0.000D+00 0.220D+00 0.780D+00
 Coeff:     -0.269D-03-0.583D-02-0.329D-01-0.449D-01 0.438D+00 0.646D+00
 Gap=     0.437 Goal=   None    Shift=    0.000
 RMSDP=1.16D-05 MaxDP=4.57D-04 DE=-9.60D-06 OVMax= 7.19D-04

 Cycle   7  Pass 1  IDiag  1:
 RMSU=  3.60D-06    CP:  1.02D+00  6.36D-01  9.71D-01  7.22D-01  1.25D+00
                    CP:  7.82D-01
 FoFJK:  IHMeth= 1 ICntrl=     0 DoSepK=T KAlg= 1 I1Cent= 0 FoldK=F
 E= -2905.42684243418     Delta-E=       -0.000007417929 Rises=F Damp=F
 DIIS: error= 1.57D-05 at cycle   7 NSaved=   7.
 NSaved= 7 IEnMin= 7 EnMin= -2905.42684243418     IErMin= 7 ErrMin= 1.57D-05
 ErrMax= 1.57D-05 EMaxC= 1.00D-01 BMatC= 9.88D-08 BMatP= 1.03D-05
 IDIUse=1 WtCom= 1.00D+00 WtEn= 0.00D+00
 Coeff-Com:  0.240D-04-0.124D-02-0.897D-02-0.133D-01 0.673D-02 0.847D-01
 Coeff-Com:  0.932D+00
 Coeff:      0.240D-04-0.124D-02-0.897D-02-0.133D-01 0.673D-02 0.847D-01
 Coeff:      0.932D+00
 Gap=     0.437 Goal=   None    Shift=    0.000
 RMSDP=2.45D-06 MaxDP=8.34D-05 DE=-7.42D-06 OVMax= 2.09D-04

 Cycle   8  Pass 1  IDiag  1:
 RMSU=  8.44D-07    CP:  1.02D+00  6.36D-01  9.72D-01  7.24D-01  1.27D+00
                    CP:  8.37D-01  1.18D+00
 FoFJK:  IHMeth= 1 ICntrl=     0 DoSepK=T KAlg= 1 I1Cent= 0 FoldK=F
 E= -2905.42684261214     Delta-E=       -0.000000177954 Rises=F Damp=F
 DIIS: error= 4.01D-06 at cycle   8 NSaved=   8.
 NSaved= 8 IEnMin= 8 EnMin= -2905.42684261214     IErMin= 8 ErrMin= 4.01D-06
 ErrMax= 4.01D-06 EMaxC= 1.00D-01 BMatC= 5.47D-09 BMatP= 9.88D-08
 IDIUse=1 WtCom= 1.00D+00 WtEn= 0.00D+00
 Coeff-Com:  0.169D-04 0.258D-03 0.136D-02 0.161D-02-0.260D-01-0.324D-01
 Coeff-Com:  0.251D-01 0.103D+01
 Coeff:      0.169D-04 0.258D-03 0.136D-02 0.161D-02-0.260D-01-0.324D-01
 Coeff:      0.251D-01 0.103D+01
 Gap=     0.437 Goal=   None    Shift=    0.000
 RMSDP=7.63D-07 MaxDP=1.91D-05 DE=-1.78D-07 OVMax= 8.54D-05

 Cycle   9  Pass 1  IDiag  1:
 RMSU=  2.60D-07    CP:  1.02D+00  6.36D-01  9.72D-01  7.24D-01  1.28D+00
                    CP:  8.47D-01  1.26D+00  1.32D+00
 FoFJK:  IHMeth= 1 ICntrl=     0 DoSepK=T KAlg= 1 I1Cent= 0 FoldK=F
 E= -2905.42684262839     Delta-E=       -0.000000016256 Rises=F Damp=F
 DIIS: error= 1.56D-06 at cycle   9 NSaved=   9.
 NSaved= 9 IEnMin= 9 EnMin= -2905.42684262839     IErMin= 9 ErrMin= 1.56D-06
 ErrMax= 1.56D-06 EMaxC= 1.00D-01 BMatC= 4.94D-10 BMatP= 5.47D-09
 IDIUse=1 WtCom= 1.00D+00 WtEn= 0.00D+00
 Coeff-Com: -0.203D-05 0.767D-04 0.569D-03 0.658D-03 0.258D-03-0.313D-02
 Coeff-Com: -0.552D-01-0.887D-01 0.115D+01
 Coeff:     -0.203D-05 0.767D-04 0.569D-03 0.658D-03 0.258D-03-0.313D-02
 Coeff:     -0.552D-01-0.887D-01 0.115D+01
 Gap=     0.437 Goal=   None    Shift=    0.000
 RMSDP=2.81D-07 MaxDP=7.62D-06 DE=-1.63D-08 OVMax= 3.66D-05

 Cycle  10  Pass 1  IDiag  1:
 RMSU=  8.71D-08    CP:  1.02D+00  6.36D-01  9.72D-01  7.23D-01  1.28D+00
                    CP:  8.49D-01  1.27D+00  1.44D+00  1.43D+00
 FoFJK:  IHMeth= 1 ICntrl=     0 DoSepK=T KAlg= 1 I1Cent= 0 FoldK=F
 E= -2905.42684263027     Delta-E=       -0.000000001877 Rises=F Damp=F
 DIIS: error= 3.51D-07 at cycle  10 NSaved=  10.
 NSaved=10 IEnMin=10 EnMin= -2905.42684263027     IErMin=10 ErrMin= 3.51D-07
 ErrMax= 3.51D-07 EMaxC= 1.00D-01 BMatC= 5.81D-11 BMatP= 4.94D-10
 IDIUse=1 WtCom= 1.00D+00 WtEn= 0.00D+00
 Coeff-Com: -0.952D-06-0.157D-04-0.852D-04-0.996D-04 0.225D-02 0.295D-02
 Coeff-Com: -0.659D-03-0.121D+00 0.126D+00 0.992D+00
 Coeff:     -0.952D-06-0.157D-04-0.852D-04-0.996D-04 0.225D-02 0.295D-02
 Coeff:     -0.659D-03-0.121D+00 0.126D+00 0.992D+00
 Gap=     0.437 Goal=   None    Shift=    0.000
 RMSDP=8.54D-08 MaxDP=1.87D-06 DE=-1.88D-09 OVMax= 1.18D-05

 Cycle  11  Pass 1  IDiag  1:
 RMSU=  2.18D-08    CP:  1.02D+00  6.36D-01  9.72D-01  7.23D-01  1.28D+00
                    CP:  8.49D-01  1.27D+00  1.46D+00  1.60D+00  1.29D+00
 FoFJK:  IHMeth= 1 ICntrl=     0 DoSepK=T KAlg= 1 I1Cent= 0 FoldK=F
 E= -2905.42684263046     Delta-E=       -0.000000000195 Rises=F Damp=F
 DIIS: error= 1.41D-07 at cycle  11 NSaved=  11.
 NSaved=11 IEnMin=11 EnMin= -2905.42684263046     IErMin=11 ErrMin= 1.41D-07
 ErrMax= 1.41D-07 EMaxC= 1.00D-01 BMatC= 5.42D-12 BMatP= 5.81D-11
 IDIUse=1 WtCom= 1.00D+00 WtEn= 0.00D+00
 Coeff-Com:  0.480D-06-0.616D-05-0.539D-04-0.420D-04-0.302D-03 0.206D-04
 Coeff-Com:  0.730D-02 0.121D-01-0.120D+00-0.999D-01 0.120D+01
 Coeff:      0.480D-06-0.616D-05-0.539D-04-0.420D-04-0.302D-03 0.206D-04
 Coeff:      0.730D-02 0.121D-01-0.120D+00-0.999D-01 0.120D+01
 Gap=     0.437 Goal=   None    Shift=    0.000
 RMSDP=3.23D-08 MaxDP=6.24D-07 DE=-1.95D-10 OVMax= 4.66D-06

 Cycle  12  Pass 1  IDiag  1:
 RMSU=  6.49D-09    CP:  1.02D+00  6.36D-01  9.72D-01  7.23D-01  1.28D+00
                    CP:  8.49D-01  1.27D+00  1.47D+00  1.65D+00  1.45D+00
                    CP:  1.35D+00
 FoFJK:  IHMeth= 1 ICntrl=     0 DoSepK=T KAlg= 1 I1Cent= 0 FoldK=F
 E= -2905.42684263047     Delta-E=       -0.000000000001 Rises=F Damp=F
 DIIS: error= 3.64D-08 at cycle  12 NSaved=  12.
 NSaved=12 IEnMin=12 EnMin= -2905.42684263047     IErMin=12 ErrMin= 3.64D-08
 ErrMax= 3.64D-08 EMaxC= 1.00D-01 BMatC= 2.42D-13 BMatP= 5.42D-12
 IDIUse=1 WtCom= 1.00D+00 WtEn= 0.00D+00
 Coeff-Com: -0.394D-07 0.755D-06 0.672D-05-0.648D-06-0.106D-03-0.148D-03
 Coeff-Com: -0.254D-03 0.519D-02 0.606D-02-0.425D-01-0.142D+00 0.117D+01
 Coeff:     -0.394D-07 0.755D-06 0.672D-05-0.648D-06-0.106D-03-0.148D-03
 Coeff:     -0.254D-03 0.519D-02 0.606D-02-0.425D-01-0.142D+00 0.117D+01
 Gap=     0.437 Goal=   None    Shift=    0.000
 RMSDP=6.95D-09 MaxDP=1.89D-07 DE=-9.09D-13 OVMax= 8.42D-07

 SCF Done:  E(RwB97XD) =  -2905.42684263     A.U. after   12 cycles
             Convg  =    0.6946D-08             -V/T =  2.0015
 KE= 2.900945789273D+03 PE=-7.237319581453D+03 EE= 1.281298863842D+03
 Leave Link  502 at Mon May  4 12:20:42 2020, MaxMem= 1073741824 cpu:     293.2
 (Enter /home/matheus/.gaussian/g09/l601.exe)
 Copying SCF densities to generalized density rwf, IOpCl= 0 IROHF=0.

 **********************************************************************

            Population analysis using the SCF density.

 **********************************************************************

 Orbital symmetries:
       Occupied  (A) (A) (A) (A) (A) (A) (A) (A) (A) (A) (A) (A)
                 (A) (A) (A) (A) (A) (A) (A) (A) (A) (A) (A) (A)
                 (A) (A) (A)
       Virtual   (A) (A) (A) (A) (A) (A) (A) (A) (A) (A) (A) (A)
                 (A) (A) (A) (A) (A) (A) (A) (A) (A) (A) (A) (A)
                 (A) (A) (A) (A) (A) (A) (A) (A) (A) (A) (A) (A)
                 (A) (A) (A) (A) (A) (A) (A) (A) (A) (A) (A) (A)
                 (A) (A) (A) (A) (A) (A) (A) (A) (A) (A) (A) (A)
                 (A) (A) (A) (A) (A) (A) (A) (A) (A) (A) (A) (A)
                 (A) (A) (A) (A) (A) (A) (A) (A) (A) (A) (A) (A)
                 (A) (A) (A) (A) (A) (A) (A) (A) (A) (A) (A) (A)
                 (A) (A) (A) (A) (A) (A) (A) (A) (A) (A) (A) (A)
                 (A) (A) (A) (A) (A) (A) (A) (A) (A) (A) (A) (A)
                 (A) (A) (A) (A) (A) (A) (A) (A) (A) (A) (A) (A)
                 (A) (A) (A) (A) (A) (A) (A) (A) (A) (A) (A) (A)
                 (A) (A) (A) (A) (A) (A) (A) (A) (A) (A) (A) (A)
                 (A) (A) (A) (A) (A) (A) (A) (A) (A) (A) (A) (A)
                 (A) (A)
 The electronic state is 1-A.
 Alpha  occ. eigenvalues -- -513.09810 -67.36637 -60.91517 -60.91506 -60.91497
 Alpha  occ. eigenvalues --  -19.34105 -19.33748  -9.81966  -7.51299  -7.51262
 Alpha  occ. eigenvalues --   -7.51234  -3.37981  -3.37974  -3.37953  -3.37923
 Alpha  occ. eigenvalues --   -3.37920  -1.24653  -1.03350  -1.02594  -0.67551
 Alpha  occ. eigenvalues --   -0.58424  -0.54004  -0.50342  -0.49989  -0.49078
 Alpha  occ. eigenvalues --   -0.42356  -0.40274
 Alpha virt. eigenvalues --    0.03427   0.04368   0.08379   0.09526   0.10274
 Alpha virt. eigenvalues --    0.11846   0.13136   0.14198   0.17319   0.17921
 Alpha virt. eigenvalues --    0.18120   0.19082   0.20304   0.22308   0.23207
 Alpha virt. eigenvalues --    0.24381   0.25438   0.27810   0.30484   0.32221
 Alpha virt. eigenvalues --    0.33806   0.35152   0.36876   0.38422   0.38819
 Alpha virt. eigenvalues --    0.40368   0.42364   0.47105   0.51816   0.53911
 Alpha virt. eigenvalues --    0.54819   0.59326   0.61021   0.63331   0.67433
 Alpha virt. eigenvalues --    0.70161   0.70826   0.72566   0.74603   0.74702
 Alpha virt. eigenvalues --    0.75830   0.76397   0.78060   0.79629   0.81928
 Alpha virt. eigenvalues --    0.82936   0.85788   0.87678   0.89182   0.90022
 Alpha virt. eigenvalues --    0.91139   0.91643   0.94543   0.94849   0.97255
 Alpha virt. eigenvalues --    0.98843   1.02213   1.04323   1.05786   1.07105
 Alpha virt. eigenvalues --    1.09322   1.14126   1.17074   1.21549   1.23422
 Alpha virt. eigenvalues --    1.24509   1.28268   1.34239   1.36176   1.39011
 Alpha virt. eigenvalues --    1.42522   1.47294   1.49363   1.53454   1.58420
 Alpha virt. eigenvalues --    1.67696   1.69251   1.81755   1.90958   1.93528
 Alpha virt. eigenvalues --    1.98705   2.01760   2.03655   2.08580   2.13949
 Alpha virt. eigenvalues --    2.15736   2.17052   2.19798   2.22748   2.24056
 Alpha virt. eigenvalues --    2.25675   2.28432   2.29414   2.30158   2.31343
 Alpha virt. eigenvalues --    2.35795   2.37768   2.44366   2.46316   2.46984
 Alpha virt. eigenvalues --    2.47525   2.48735   2.50750   2.55030   2.55971
 Alpha virt. eigenvalues --    2.58579   2.61652   2.64574   2.68573   2.70487
 Alpha virt. eigenvalues --    2.71282   2.73774   2.75327   2.82811   2.87344
 Alpha virt. eigenvalues --    2.94145   3.02774   3.09670   3.11566   3.60704
 Alpha virt. eigenvalues --    3.65393   3.91421   3.93573   3.99571   4.08475
 Alpha virt. eigenvalues --    4.12332   4.15253   4.21212   4.23821   4.28439
 Alpha virt. eigenvalues --    4.33352   4.49360   4.50404   4.56764   4.70394
 Alpha virt. eigenvalues --    4.91941   4.95922   4.98608   5.14737   5.15212
 Alpha virt. eigenvalues --    5.19292   5.43577   5.84802   6.02768   6.13946
 Alpha virt. eigenvalues --    6.21207   6.25515   6.30412   6.43418   6.48482
 Alpha virt. eigenvalues --    6.60374   6.76958   6.77517   6.81676   6.84716
 Alpha virt. eigenvalues --    6.88884   6.90234   6.93097   6.97448   7.00868
 Alpha virt. eigenvalues --    7.07675   7.13016   7.23688   7.46050   7.57497
 Alpha virt. eigenvalues --    7.79430   8.10240   8.12855  14.11570  14.67900
          Condensed to atoms (all electrons):
              1          2          3          4          5
     1  O    8.196526  -0.173644   0.208512   0.006515  -0.017171
     2  O   -0.173644   8.251574   0.015031   0.186506  -0.020180
     3  H    0.208512   0.015031   0.550944  -0.000041  -0.001500
     4  H    0.006515   0.186506  -0.000041   0.567312  -0.004053
     5  Kr  -0.017171  -0.020180  -0.001500  -0.004053  36.033693
 Mulliken atomic charges:
              1
     1  O   -0.220737
     2  O   -0.259287
     3  H    0.227053
     4  H    0.243760
     5  Kr   0.009211
 Sum of Mulliken atomic charges =   0.00000
 Mulliken charges with hydrogens summed into heavy atoms:
              1
     1  O    0.006316
     2  O   -0.015526
     5  Kr   0.009211
 Sum of Mulliken charges with hydrogens summed into heavy atoms =   0.00000
          Condensed to fragments (all electrons):
     1      -0.009211
     2       0.009211
 Electronic spatial extent (au):  <R**2>=            482.5358
 Charge=              0.0000 electrons
 Dipole moment (field-independent basis, Debye):
    X=              2.0427    Y=             -0.3713    Z=              1.4317  Tot=              2.5220
 Quadrupole moment (field-independent basis, Debye-Ang):
   XX=            -35.7046   YY=            -27.8694   ZZ=            -29.0330
   XY=              1.8976   XZ=             -2.8435   YZ=             -1.8115
 Traceless Quadrupole moment (field-independent basis, Debye-Ang):
   XX=             -4.8356   YY=              2.9996   ZZ=              1.8360
   XY=              1.8976   XZ=             -2.8435   YZ=             -1.8115
 Octapole moment (field-independent basis, Debye-Ang**2):
  XXX=             37.3261  YYY=             -1.0214  ZZZ=              1.0813  XYY=              5.4430
  XXY=             -5.6177  XXZ=              4.8875  XZZ=              5.6134  YZZ=             -1.8361
  YYZ=              2.2459  XYZ=              3.5284
 Hexadecapole moment (field-independent basis, Debye-Ang**3):
 XXXX=           -456.5464 YYYY=            -62.9065 ZZZZ=            -29.7509 XXXY=             10.9681
 XXXZ=             -9.7485 YYYX=              3.5615 YYYZ=             -2.6668 ZZZX=             -2.5666
 ZZZY=             -1.9401 XXYY=            -81.5182 XXZZ=            -72.1944 YYZZ=            -15.8827
 XXYZ=             -6.9975 YYXZ=             -4.2598 ZZXY=              3.3375
 N-N= 1.496480857072D+02 E-N=-7.237319579488D+03  KE= 2.900945789273D+03
 No NMR shielding tensors so no spin-rotation constants.
 Leave Link  601 at Mon May  4 12:20:42 2020, MaxMem= 1073741824 cpu:       0.8
 (Enter /home/matheus/.gaussian/g09/l122.exe)
 Counterpoise: doing DCBS calculation for fragment   1 NewBq=T
 Leave Link  122 at Mon May  4 12:20:42 2020, MaxMem= 1073741824 cpu:       0.0
 (Enter /home/matheus/.gaussian/g09/l301.exe)
 Basis read from rwf:  (5D, 7F)
 No pseudopotential information found on rwf file.
 There are   197 symmetry adapted basis functions of A   symmetry.
 Integral buffers will be    131072 words long.
 Raffenetti 2 integral format.
 Two-electron integral symmetry is turned on.
   197 basis functions,   415 primitive gaussians,   229 cartesian basis functions
     9 alpha electrons        9 beta electrons
       nuclear repulsion energy        36.6321546607 Hartrees.
 IExCor= 4639 DFT=T Ex+Corr=wB97XD ExCW=0 ScaHFX=  1.000000
 ScaDFX=  1.000000  1.000000  1.000000  1.000000 ScalE2=  1.000000  1.000000
 IRadAn=      5 IRanWt=     -1 IRanGd=            0 ICorTp=0
  HFx wShort=  0.000000 wLong=  0.250000 cFull=  0.222036 cShort=  0.000000 cLong=  0.777964
  DFx wShort=  0.000000 wLong=  0.250000 cFull=  0.000000 cShort=  0.000000 cLong=  1.000000
 NAtoms=    5 NActive=    5 NUniq=    5 SFac= 1.00D+00 NAtFMM=   60 NAOKFM=F Big=F
 R6Disp: Dispersion energy =        -0.0002567696 Hartrees.
 Nuclear repulsion after empirical dispersion term =       36.6318978911 Hartrees.
 No density basis found on file   718.
 Leave Link  301 at Mon May  4 12:20:42 2020, MaxMem= 1073741824 cpu:       0.2
 (Enter /home/matheus/.gaussian/g09/l302.exe)
 NPDir=0 NMtPBC=     1 NCelOv=     1 NCel=       1 NClECP=     1 NCelD=      1
         NCelK=      1 NCelE2=     1 NClLst=     1 CellRange=     0.0.
 One-electron integrals computed using PRISM.
 NBasis=   197 RedAO= T  NBF=   197
 NBsUse=   197 1.00D-06 NBFU=   197
 Precomputing XC quadrature grid using
 IXCGrd= 2 IRadAn=           5 IRanWt=          -1 IRanGd=           0 AccXCQ= 0.00D+00.
 NRdTot=     427 NPtTot=      123512 NUsed=      126579 NTot=      126611
 NSgBfM=   229   229   229   229   229 NAtAll=     5     5.
 Leave Link  302 at Mon May  4 12:20:42 2020, MaxMem= 1073741824 cpu:       0.9
 (Enter /home/matheus/.gaussian/g09/l303.exe)
 DipDrv:  MaxL=1.
 Leave Link  303 at Mon May  4 12:20:42 2020, MaxMem= 1073741824 cpu:       0.2
 (Enter /home/matheus/.gaussian/g09/l401.exe)
 Harris functional with IExCor= 4639 diagonalized for initial guess.
 ExpMin= 2.53D-02 ExpMax= 1.17D+07 ExpMxC= 1.33D+04 IAcc=3 IRadAn=         5 AccDes= 0.00D+00
 HarFok:  IExCor= 4639 AccDes= 0.00D+00 IRadAn=         5 IDoV= 1
 ScaDFX=  1.000000  1.000000  1.000000  1.000000
 FoFCou: FMM=F IPFlag=           0 FMFlag=      100000 FMFlg1=           0
         NFxFlg=           0 DoJE=T BraDBF=F KetDBF=T FulRan=T
         Omega=  0.000000  0.000000  1.000000  0.000000  0.000000 ICntrl=     500 IOpCl=  0
         NMat0=    1 NMatS0=    1 NMatT0=    0 NMatD0=    1 NMtDS0=    0 NMtDT0=    0
         I1Cent=           4 NGrid=           0.
 Petite list used in FoFCou.
 Harris En= -145.946928914548    
 Initial guess orbital symmetries:
       Occupied  (A) (A) (A) (A) (A) (A) (A) (A) (A)
       Virtual   (A) (A) (A) (A) (A) (A) (A) (A) (A) (A) (A) (A)
                 (A) (A) (A) (A) (A) (A) (A) (A) (A) (A) (A) (A)
                 (A) (A) (A) (A) (A) (A) (A) (A) (A) (A) (A) (A)
                 (A) (A) (A) (A) (A) (A) (A) (A) (A) (A) (A) (A)
                 (A) (A) (A) (A) (A) (A) (A) (A) (A) (A) (A) (A)
                 (A) (A) (A) (A) (A) (A) (A) (A) (A) (A) (A) (A)
                 (A) (A) (A) (A) (A) (A) (A) (A) (A) (A) (A) (A)
                 (A) (A) (A) (A) (A) (A) (A) (A) (A) (A) (A) (A)
                 (A) (A) (A) (A) (A) (A) (A) (A) (A) (A) (A) (A)
                 (A) (A) (A) (A) (A) (A) (A) (A) (A) (A) (A) (A)
                 (A) (A) (A) (A) (A) (A) (A) (A) (A) (A) (A) (A)
                 (A) (A) (A) (A) (A) (A) (A) (A) (A) (A) (A) (A)
                 (A) (A) (A) (A) (A) (A) (A) (A) (A) (A) (A) (A)
                 (A) (A) (A) (A) (A) (A) (A) (A) (A) (A) (A) (A)
                 (A) (A) (A) (A) (A) (A) (A) (A) (A) (A) (A) (A)
                 (A) (A) (A) (A) (A) (A) (A) (A)
 The electronic state of the initial guess is 1-A.
 Leave Link  401 at Mon May  4 12:20:43 2020, MaxMem= 1073741824 cpu:       4.1
 (Enter /home/matheus/.gaussian/g09/l502.exe)
 Closed shell SCF:
 Requested convergence on RMS density matrix=1.00D-08 within 128 cycles.
 Requested convergence on MAX density matrix=1.00D-06.
 Requested convergence on             energy=1.00D-06.
 No special actions if energy rises.
 Using DIIS extrapolation, IDIIS=  1040.
 Integral symmetry usage will be decided dynamically.
       126521 words used for storage of precomputed grid.
 IEnd=      305468 IEndB=      305468 NGot=  1073741824 MDV=  1073505667
 LenX=  1073505667 LenY=  1073452785
 Fock matrices will be formed incrementally for  20 cycles.

 Cycle   1  Pass 1  IDiag  1:
 FoFJK:  IHMeth= 1 ICntrl=     0 DoSepK=T KAlg= 1 I1Cent= 0 FoldK=F
 FoFCou: FMM=F IPFlag=           0 FMFlag=      100000 FMFlg1=           0
         NFxFlg=           0 DoJE=T BraDBF=F KetDBF=F FulRan=T
         Omega=  0.000000  0.000000  1.000000  0.000000  0.000000 ICntrl=     500 IOpCl=  0
         NMat0=    1 NMatS0=    1 NMatT0=    0 NMatD0=    1 NMtDS0=    0 NMtDT0=    0
         I1Cent=           0 NGrid=           0.
 Symmetry not used in FoFCou.
 E= -151.460087744939    
 DIIS: error= 4.38D-02 at cycle   1 NSaved=   1.
 NSaved= 1 IEnMin= 1 EnMin= -151.460087744939     IErMin= 1 ErrMin= 4.38D-02
 ErrMax= 4.38D-02 EMaxC= 1.00D-01 BMatC= 3.22D-01 BMatP= 3.22D-01
 IDIUse=3 WtCom= 5.62D-01 WtEn= 4.38D-01
 Coeff-Com:  0.100D+01
 Coeff-En:   0.100D+01
 Coeff:      0.100D+01
 Gap=     0.557 Goal=   None    Shift=    0.000
 GapD=    0.557 DampG=2.000 DampE=0.500 DampFc=1.0000 IDamp=-1.
 RMSDP=2.48D-03 MaxDP=1.01D-01              OVMax= 1.20D-01

 Cycle   2  Pass 1  IDiag  1:
 RMSU=  1.72D-03    CP:  9.51D-01
 FoFJK:  IHMeth= 1 ICntrl=     0 DoSepK=T KAlg= 1 I1Cent= 0 FoldK=F
 E= -151.500350606989     Delta-E=       -0.040262862050 Rises=F Damp=F
 DIIS: error= 1.52D-02 at cycle   2 NSaved=   2.
 NSaved= 2 IEnMin= 2 EnMin= -151.500350606989     IErMin= 2 ErrMin= 1.52D-02
 ErrMax= 1.52D-02 EMaxC= 1.00D-01 BMatC= 1.03D-01 BMatP= 3.22D-01
 IDIUse=3 WtCom= 8.48D-01 WtEn= 1.52D-01
 Coeff-Com:  0.341D+00 0.659D+00
 Coeff-En:   0.342D+00 0.658D+00
 Coeff:      0.341D+00 0.659D+00
 Gap=     0.503 Goal=   None    Shift=    0.000
 RMSDP=1.02D-03 MaxDP=4.83D-02 DE=-4.03D-02 OVMax= 6.12D-02

 Cycle   3  Pass 1  IDiag  1:
 RMSU=  3.78D-04    CP:  9.72D-01  6.55D-01
 FoFJK:  IHMeth= 1 ICntrl=     0 DoSepK=T KAlg= 1 I1Cent= 0 FoldK=F
 E= -151.556218833853     Delta-E=       -0.055868226864 Rises=F Damp=F
 DIIS: error= 4.55D-03 at cycle   3 NSaved=   3.
 NSaved= 3 IEnMin= 3 EnMin= -151.556218833853     IErMin= 3 ErrMin= 4.55D-03
 ErrMax= 4.55D-03 EMaxC= 1.00D-01 BMatC= 5.91D-03 BMatP= 1.03D-01
 IDIUse=3 WtCom= 9.55D-01 WtEn= 4.55D-02
 Coeff-Com:  0.116D-01 0.200D+00 0.788D+00
 Coeff-En:   0.000D+00 0.000D+00 0.100D+01
 Coeff:      0.111D-01 0.191D+00 0.798D+00
 Gap=     0.437 Goal=   None    Shift=    0.000
 RMSDP=2.67D-04 MaxDP=9.53D-03 DE=-5.59D-02 OVMax= 1.63D-02

 Cycle   4  Pass 1  IDiag  1:
 RMSU=  7.49D-05    CP:  9.67D-01  7.49D-01  8.65D-01
 FoFJK:  IHMeth= 1 ICntrl=     0 DoSepK=T KAlg= 1 I1Cent= 0 FoldK=F
 E= -151.560064739222     Delta-E=       -0.003845905369 Rises=F Damp=F
 DIIS: error= 4.80D-04 at cycle   4 NSaved=   4.
 NSaved= 4 IEnMin= 4 EnMin= -151.560064739222     IErMin= 4 ErrMin= 4.80D-04
 ErrMax= 4.80D-04 EMaxC= 1.00D-01 BMatC= 6.97D-05 BMatP= 5.91D-03
 IDIUse=3 WtCom= 9.95D-01 WtEn= 4.80D-03
 Coeff-Com: -0.108D-02 0.138D-01 0.142D+00 0.845D+00
 Coeff-En:   0.000D+00 0.000D+00 0.000D+00 0.100D+01
 Coeff:     -0.107D-02 0.137D-01 0.141D+00 0.846D+00
 Gap=     0.434 Goal=   None    Shift=    0.000
 RMSDP=3.92D-05 MaxDP=2.14D-03 DE=-3.85D-03 OVMax= 1.84D-03

 Cycle   5  Pass 1  IDiag  1:
 RMSU=  1.36D-05    CP:  9.68D-01  7.43D-01  9.15D-01  1.13D+00
 FoFJK:  IHMeth= 1 ICntrl=     0 DoSepK=T KAlg= 1 I1Cent= 0 FoldK=F
 E= -151.560117750282     Delta-E=       -0.000053011060 Rises=F Damp=F
 DIIS: error= 5.39D-05 at cycle   5 NSaved=   5.
 NSaved= 5 IEnMin= 5 EnMin= -151.560117750282     IErMin= 5 ErrMin= 5.39D-05
 ErrMax= 5.39D-05 EMaxC= 1.00D-01 BMatC= 1.06D-06 BMatP= 6.97D-05
 IDIUse=1 WtCom= 1.00D+00 WtEn= 0.00D+00
 Coeff-Com: -0.543D-03-0.117D-01-0.477D-01-0.833D-01 0.114D+01
 Coeff:     -0.543D-03-0.117D-01-0.477D-01-0.833D-01 0.114D+01
 Gap=     0.433 Goal=   None    Shift=    0.000
 RMSDP=1.40D-05 MaxDP=5.71D-04 DE=-5.30D-05 OVMax= 9.06D-04

 Cycle   6  Pass 1  IDiag  1:
 RMSU=  2.91D-06    CP:  9.68D-01  7.44D-01  9.30D-01  1.22D+00  1.28D+00
 FoFJK:  IHMeth= 1 ICntrl=     0 DoSepK=T KAlg= 1 I1Cent= 0 FoldK=F
 E= -151.560120572796     Delta-E=       -0.000002822514 Rises=F Damp=F
 DIIS: error= 1.22D-05 at cycle   6 NSaved=   6.
 NSaved= 6 IEnMin= 6 EnMin= -151.560120572796     IErMin= 6 ErrMin= 1.22D-05
 ErrMax= 1.22D-05 EMaxC= 1.00D-01 BMatC= 3.58D-08 BMatP= 1.06D-06
 IDIUse=1 WtCom= 1.00D+00 WtEn= 0.00D+00
 Coeff-Com:  0.641D-04 0.273D-03-0.195D-02-0.177D-01-0.480D-01 0.107D+01
 Coeff:      0.641D-04 0.273D-03-0.195D-02-0.177D-01-0.480D-01 0.107D+01
 Gap=     0.433 Goal=   None    Shift=    0.000
 RMSDP=1.98D-06 MaxDP=7.25D-05 DE=-2.82D-06 OVMax= 2.16D-04

 Cycle   7  Pass 1  IDiag  1:
 RMSU=  6.25D-07    CP:  9.68D-01  7.44D-01  9.31D-01  1.23D+00  1.33D+00
                    CP:  1.32D+00
 FoFJK:  IHMeth= 1 ICntrl=     0 DoSepK=T KAlg= 1 I1Cent= 0 FoldK=F
 E= -151.560120688056     Delta-E=       -0.000000115260 Rises=F Damp=F
 DIIS: error= 5.02D-06 at cycle   7 NSaved=   7.
 NSaved= 7 IEnMin= 7 EnMin= -151.560120688056     IErMin= 7 ErrMin= 5.02D-06
 ErrMax= 5.02D-06 EMaxC= 1.00D-01 BMatC= 8.08D-09 BMatP= 3.58D-08
 IDIUse=1 WtCom= 1.00D+00 WtEn= 0.00D+00
 Coeff-Com:  0.375D-04 0.574D-03 0.173D-02-0.159D-02-0.629D-01 0.233D+00
 Coeff-Com:  0.829D+00
 Coeff:      0.375D-04 0.574D-03 0.173D-02-0.159D-02-0.629D-01 0.233D+00
 Coeff:      0.829D+00
 Gap=     0.433 Goal=   None    Shift=    0.000
 RMSDP=5.52D-07 MaxDP=2.49D-05 DE=-1.15D-07 OVMax= 6.67D-05

 Cycle   8  Pass 1  IDiag  1:
 RMSU=  2.94D-07    CP:  9.68D-01  7.44D-01  9.31D-01  1.23D+00  1.33D+00
                    CP:  1.38D+00  1.18D+00
 FoFJK:  IHMeth= 1 ICntrl=     0 DoSepK=T KAlg= 1 I1Cent= 0 FoldK=F
 E= -151.560120699252     Delta-E=       -0.000000011196 Rises=F Damp=F
 DIIS: error= 3.99D-06 at cycle   8 NSaved=   8.
 NSaved= 8 IEnMin= 8 EnMin= -151.560120699252     IErMin= 8 ErrMin= 3.99D-06
 ErrMax= 3.99D-06 EMaxC= 1.00D-01 BMatC= 4.96D-09 BMatP= 8.08D-09
 IDIUse=1 WtCom= 1.00D+00 WtEn= 0.00D+00
 Coeff-Com:  0.996D-06 0.208D-03 0.142D-02 0.335D-02-0.168D-01-0.191D+00
 Coeff-Com:  0.505D+00 0.698D+00
 Coeff:      0.996D-06 0.208D-03 0.142D-02 0.335D-02-0.168D-01-0.191D+00
 Coeff:      0.505D+00 0.698D+00
 Gap=     0.433 Goal=   None    Shift=    0.000
 RMSDP=3.38D-07 MaxDP=1.36D-05 DE=-1.12D-08 OVMax= 4.19D-05

 Cycle   9  Pass 1  IDiag  1:
 RMSU=  1.12D-07    CP:  9.68D-01  7.44D-01  9.31D-01  1.23D+00  1.34D+00
                    CP:  1.41D+00  1.45D+00  9.74D-01
 FoFJK:  IHMeth= 1 ICntrl=     0 DoSepK=T KAlg= 1 I1Cent= 0 FoldK=F
 E= -151.560120704510     Delta-E=       -0.000000005258 Rises=F Damp=F
 DIIS: error= 4.77D-07 at cycle   9 NSaved=   9.
 NSaved= 9 IEnMin= 9 EnMin= -151.560120704510     IErMin= 9 ErrMin= 4.77D-07
 ErrMax= 4.77D-07 EMaxC= 1.00D-01 BMatC= 8.35D-11 BMatP= 4.96D-09
 IDIUse=1 WtCom= 1.00D+00 WtEn= 0.00D+00
 Coeff-Com: -0.698D-06-0.519D-04-0.314D-03-0.804D-03 0.905D-02-0.332D-02
 Coeff-Com: -0.108D+00-0.658D-01 0.117D+01
 Coeff:     -0.698D-06-0.519D-04-0.314D-03-0.804D-03 0.905D-02-0.332D-02
 Coeff:     -0.108D+00-0.658D-01 0.117D+01
 Gap=     0.433 Goal=   None    Shift=    0.000
 RMSDP=1.20D-07 MaxDP=2.50D-06 DE=-5.26D-09 OVMax= 1.57D-05

 Cycle  10  Pass 1  IDiag  1:
 RMSU=  2.12D-08    CP:  9.68D-01  7.44D-01  9.31D-01  1.22D+00  1.34D+00
                    CP:  1.41D+00  1.53D+00  1.13D+00  1.40D+00
 FoFJK:  IHMeth= 1 ICntrl=     0 DoSepK=T KAlg= 1 I1Cent= 0 FoldK=F
 E= -151.560120704813     Delta-E=       -0.000000000303 Rises=F Damp=F
 DIIS: error= 1.21D-07 at cycle  10 NSaved=  10.
 NSaved=10 IEnMin=10 EnMin= -151.560120704813     IErMin=10 ErrMin= 1.21D-07
 ErrMax= 1.21D-07 EMaxC= 1.00D-01 BMatC= 7.15D-12 BMatP= 8.35D-11
 IDIUse=1 WtCom= 1.00D+00 WtEn= 0.00D+00
 Coeff-Com:  0.940D-07-0.158D-04-0.128D-03-0.390D-03 0.178D-02 0.144D-01
 Coeff-Com: -0.416D-01-0.584D-01-0.485D-01 0.113D+01
 Coeff:      0.940D-07-0.158D-04-0.128D-03-0.390D-03 0.178D-02 0.144D-01
 Coeff:     -0.416D-01-0.584D-01-0.485D-01 0.113D+01
 Gap=     0.433 Goal=   None    Shift=    0.000
 RMSDP=3.66D-08 MaxDP=7.39D-07 DE=-3.03D-10 OVMax= 5.30D-06

 Cycle  11  Pass 1  IDiag  1:
 RMSU=  6.34D-09    CP:  9.68D-01  7.44D-01  9.31D-01  1.22D+00  1.34D+00
                    CP:  1.41D+00  1.55D+00  1.17D+00  1.53D+00  1.49D+00
 FoFJK:  IHMeth= 1 ICntrl=     0 DoSepK=T KAlg= 1 I1Cent= 0 FoldK=F
 E= -151.560120704840     Delta-E=       -0.000000000027 Rises=F Damp=F
 DIIS: error= 4.09D-08 at cycle  11 NSaved=  11.
 NSaved=11 IEnMin=11 EnMin= -151.560120704840     IErMin=11 ErrMin= 4.09D-08
 ErrMax= 4.09D-08 EMaxC= 1.00D-01 BMatC= 4.41D-13 BMatP= 7.15D-12
 IDIUse=1 WtCom= 1.00D+00 WtEn= 0.00D+00
 Coeff-Com: -0.132D-06 0.135D-05 0.197D-04 0.397D-04-0.483D-03-0.670D-03
 Coeff-Com:  0.105D-01 0.858D-02-0.832D-01-0.465D-01 0.111D+01
 Coeff:     -0.132D-06 0.135D-05 0.197D-04 0.397D-04-0.483D-03-0.670D-03
 Coeff:      0.105D-01 0.858D-02-0.832D-01-0.465D-01 0.111D+01
 Gap=     0.433 Goal=   None    Shift=    0.000
 RMSDP=9.39D-09 MaxDP=3.19D-07 DE=-2.72D-11 OVMax= 1.09D-06

 SCF Done:  E(RwB97XD) =  -151.560120705     A.U. after   11 cycles
             Convg  =    0.9387D-08             -V/T =  2.0061
 KE= 1.506476546451D+02 PE=-4.316976329115D+02 EE= 9.285795967043D+01
 Leave Link  502 at Mon May  4 12:21:16 2020, MaxMem= 1073741824 cpu:     268.4
 (Enter /home/matheus/.gaussian/g09/l601.exe)
 Copying SCF densities to generalized density rwf, IOpCl= 0 IROHF=0.

 **********************************************************************

            Population analysis using the SCF density.

 **********************************************************************

 Orbital symmetries:
       Occupied  (A) (A) (A) (A) (A) (A) (A) (A) (A)
       Virtual   (A) (A) (A) (A) (A) (A) (A) (A) (A) (A) (A) (A)
                 (A) (A) (A) (A) (A) (A) (A) (A) (A) (A) (A) (A)
                 (A) (A) (A) (A) (A) (A) (A) (A) (A) (A) (A) (A)
                 (A) (A) (A) (A) (A) (A) (A) (A) (A) (A) (A) (A)
                 (A) (A) (A) (A) (A) (A) (A) (A) (A) (A) (A) (A)
                 (A) (A) (A) (A) (A) (A) (A) (A) (A) (A) (A) (A)
                 (A) (A) (A) (A) (A) (A) (A) (A) (A) (A) (A) (A)
                 (A) (A) (A) (A) (A) (A) (A) (A) (A) (A) (A) (A)
                 (A) (A) (A) (A) (A) (A) (A) (A) (A) (A) (A) (A)
                 (A) (A) (A) (A) (A) (A) (A) (A) (A) (A) (A) (A)
                 (A) (A) (A) (A) (A) (A) (A) (A) (A) (A) (A) (A)
                 (A) (A) (A) (A) (A) (A) (A) (A) (A) (A) (A) (A)
                 (A) (A) (A) (A) (A) (A) (A) (A) (A) (A) (A) (A)
                 (A) (A) (A) (A) (A) (A) (A) (A) (A) (A) (A) (A)
                 (A) (A) (A) (A) (A) (A) (A) (A) (A) (A) (A) (A)
                 (A) (A) (A) (A) (A) (A) (A) (A)
 The electronic state is 1-A.
 Alpha  occ. eigenvalues --  -19.34305 -19.34301  -1.24886  -1.03429  -0.67628
 Alpha  occ. eigenvalues --   -0.58050  -0.53775  -0.42719  -0.40585
 Alpha virt. eigenvalues --    0.02754   0.03937   0.07285   0.08646   0.09577
 Alpha virt. eigenvalues --    0.10653   0.10774   0.14306   0.17399   0.17815
 Alpha virt. eigenvalues --    0.18605   0.19116   0.20903   0.23004   0.25382
 Alpha virt. eigenvalues --    0.27169   0.30637   0.31519   0.32607   0.34145
 Alpha virt. eigenvalues --    0.34567   0.37456   0.37957   0.39131   0.40347
 Alpha virt. eigenvalues --    0.43439   0.44956   0.46638   0.48013   0.50057
 Alpha virt. eigenvalues --    0.52766   0.58103   0.60126   0.61930   0.65063
 Alpha virt. eigenvalues --    0.69658   0.74334   0.75651   0.76057   0.78322
 Alpha virt. eigenvalues --    0.80055   0.80673   0.87427   0.89024   0.90434
 Alpha virt. eigenvalues --    0.90701   0.93112   0.94179   0.95336   0.96957
 Alpha virt. eigenvalues --    0.99488   0.99938   1.03683   1.08729   1.12216
 Alpha virt. eigenvalues --    1.14043   1.16136   1.20289   1.21722   1.22831
 Alpha virt. eigenvalues --    1.25643   1.29821   1.30314   1.31468   1.33538
 Alpha virt. eigenvalues --    1.34198   1.34988   1.38248   1.38402   1.40933
 Alpha virt. eigenvalues --    1.44393   1.47447   1.50064   1.51967   1.54872
 Alpha virt. eigenvalues --    1.58954   1.64847   1.66369   1.71798   1.77374
 Alpha virt. eigenvalues --    1.81773   1.85205   1.92996   1.96751   2.01612
 Alpha virt. eigenvalues --    2.02780   2.06430   2.14373   2.19737   2.21212
 Alpha virt. eigenvalues --    2.26773   2.27849   2.32736   2.35622   2.36803
 Alpha virt. eigenvalues --    2.47434   2.52398   2.54841   2.60301   2.63125
 Alpha virt. eigenvalues --    2.65128   2.72298   2.77438   2.85010   2.92965
 Alpha virt. eigenvalues --    3.01120   3.08794   3.09551   3.26592   3.30720
 Alpha virt. eigenvalues --    3.40505   3.54552   3.59987   3.66784   3.78674
 Alpha virt. eigenvalues --    3.79062   3.82079   3.82575   3.83173   3.84018
 Alpha virt. eigenvalues --    3.86851   3.89654   3.93326   3.94967   3.96356
 Alpha virt. eigenvalues --    3.97634   4.01561   4.06089   4.10287   4.15240
 Alpha virt. eigenvalues --    4.16546   4.22255   4.24472   4.31508   4.34893
 Alpha virt. eigenvalues --    4.38398   4.49975   4.57660   4.70414   4.91836
 Alpha virt. eigenvalues --    4.96205   4.98783   5.14648   5.15504   5.19559
 Alpha virt. eigenvalues --    5.43344   5.84630   6.02237   6.13961   6.21078
 Alpha virt. eigenvalues --    6.25455   6.30284   6.43288   6.48448   6.60182
 Alpha virt. eigenvalues --    6.76690   6.77346   6.81279   6.84467   6.88732
 Alpha virt. eigenvalues --    6.89941   6.92874   6.97261   7.00583   7.07469
 Alpha virt. eigenvalues --    7.12778   7.23512   7.45815   7.57286   7.79130
 Alpha virt. eigenvalues --    8.09969   8.11887  10.89869  14.11137  14.67195
 Alpha virt. eigenvalues --   14.84144  14.88954  15.10591  29.03777  29.03950
 Alpha virt. eigenvalues --   29.08591  29.14243  29.23725  49.10749 148.32359
 Alpha virt. eigenvalues --  148.39594 148.71535 752.50160
          Condensed to atoms (all electrons):
              1          2          3          4          5
     1  O    8.167581  -0.165965   0.208940   0.004997   0.000621
     2  O   -0.165965   8.196237   0.014297   0.200232  -0.001794
     3  H    0.208940   0.014297   0.558117   0.001855  -0.001393
     4  H    0.004997   0.200232   0.001855   0.561614  -0.004097
     5  Kr   0.000621  -0.001794  -0.001393  -0.004097   0.001066
 Mulliken atomic charges:
              1
     1  O   -0.216174
     2  O   -0.243007
     3  H    0.218184
     4  H    0.235399
     5  Kr   0.005597
 Sum of Mulliken atomic charges =   0.00000
 Mulliken charges with hydrogens summed into heavy atoms:
              1
     1  O    0.002010
     2  O   -0.007607
     5  Kr   0.005597
 Sum of Mulliken charges with hydrogens summed into heavy atoms =   0.00000
          Condensed to fragments (all electrons):
     1      -0.005597
     2       0.005597
 Electronic spatial extent (au):  <R**2>=            319.7990
 Charge=              0.0000 electrons
 Dipole moment (field-independent basis, Debye):
    X=              1.8123    Y=             -0.1608    Z=              1.5623  Tot=              2.3981
 Quadrupole moment (field-independent basis, Debye-Ang):
   XX=            -18.1496   YY=            -10.2350   ZZ=            -11.4631
   XY=              2.0091   XZ=             -2.7485   YZ=             -1.8321
 Traceless Quadrupole moment (field-independent basis, Debye-Ang):
   XX=             -4.8671   YY=              3.0476   ZZ=              1.8195
   XY=              2.0091   XZ=             -2.7485   YZ=             -1.8321
 Octapole moment (field-independent basis, Debye-Ang**2):
  XXX=             87.8266  YYY=             -1.1824  ZZZ=              1.2325  XYY=             22.5141
  XXY=             -5.4711  XXZ=              4.9977  XZZ=             22.7275  YZZ=             -1.8933
  YYZ=              2.2973  XYZ=              3.5345
 Hexadecapole moment (field-independent basis, Debye-Ang**3):
 XXXX=           -335.9575 YYYY=            -44.5849 ZZZZ=            -11.5438 XXXY=             10.6227
 XXXZ=             -9.5551 YYYX=              3.3959 YYYZ=             -2.7065 ZZZX=             -2.4813
 ZZZY=             -1.9780 XXYY=            -58.4171 XXZZ=            -49.2292 YYZZ=             -9.7839
 XXYZ=             -7.0153 YYXZ=             -4.2178 ZZXY=              3.2486
 N-N= 3.663189789110D+01 E-N=-4.316976315355D+02  KE= 1.506476546451D+02
 No NMR shielding tensors so no spin-rotation constants.
 Leave Link  601 at Mon May  4 12:21:16 2020, MaxMem= 1073741824 cpu:       0.8
 (Enter /home/matheus/.gaussian/g09/l122.exe)
 Counterpoise: doing DCBS calculation for fragment   2 NewBq=T
 Leave Link  122 at Mon May  4 12:21:16 2020, MaxMem= 1073741824 cpu:       0.0
 (Enter /home/matheus/.gaussian/g09/l301.exe)
 Basis read from rwf:  (5D, 7F)
 No pseudopotential information found on rwf file.
 There are   197 symmetry adapted basis functions of A   symmetry.
 Integral buffers will be    131072 words long.
 Raffenetti 2 integral format.
 Two-electron integral symmetry is turned on.
   197 basis functions,   415 primitive gaussians,   229 cartesian basis functions
    18 alpha electrons       18 beta electrons
       nuclear repulsion energy         0.0000000000 Hartrees.
 IExCor= 4639 DFT=T Ex+Corr=wB97XD ExCW=0 ScaHFX=  1.000000
 ScaDFX=  1.000000  1.000000  1.000000  1.000000 ScalE2=  1.000000  1.000000
 IRadAn=      5 IRanWt=     -1 IRanGd=            0 ICorTp=0
  HFx wShort=  0.000000 wLong=  0.250000 cFull=  0.222036 cShort=  0.000000 cLong=  0.777964
  DFx wShort=  0.000000 wLong=  0.250000 cFull=  0.000000 cShort=  0.000000 cLong=  1.000000
 NAtoms=    5 NActive=    5 NUniq=    5 SFac= 1.00D+00 NAtFMM=   60 NAOKFM=F Big=F
 R6Disp: Dispersion energy =         0.0000000000 Hartrees.
 Nuclear repulsion after empirical dispersion term =        0.0000000000 Hartrees.
 No density basis found on file   718.
 Leave Link  301 at Mon May  4 12:21:16 2020, MaxMem= 1073741824 cpu:       0.2
 (Enter /home/matheus/.gaussian/g09/l302.exe)
 NPDir=0 NMtPBC=     1 NCelOv=     1 NCel=       1 NClECP=     1 NCelD=      1
         NCelK=      1 NCelE2=     1 NClLst=     1 CellRange=     0.0.
 One-electron integrals computed using PRISM.
 NBasis=   197 RedAO= T  NBF=   197
 NBsUse=   197 1.00D-06 NBFU=   197
 Precomputing XC quadrature grid using
 IXCGrd= 2 IRadAn=           5 IRanWt=          -1 IRanGd=           0 AccXCQ= 0.00D+00.
 NRdTot=     427 NPtTot=      123512 NUsed=      126579 NTot=      126611
 NSgBfM=   229   229   229   229   229 NAtAll=     5     5.
 Leave Link  302 at Mon May  4 12:21:17 2020, MaxMem= 1073741824 cpu:       1.0
 (Enter /home/matheus/.gaussian/g09/l303.exe)
 DipDrv:  MaxL=1.
 Leave Link  303 at Mon May  4 12:21:17 2020, MaxMem= 1073741824 cpu:       0.2
 (Enter /home/matheus/.gaussian/g09/l401.exe)
 Harris functional with IExCor= 4639 diagonalized for initial guess.
 ExpMin= 2.53D-02 ExpMax= 1.17D+07 ExpMxC= 1.33D+04 IAcc=3 IRadAn=         5 AccDes= 0.00D+00
 HarFok:  IExCor= 4639 AccDes= 0.00D+00 IRadAn=         5 IDoV= 1
 ScaDFX=  1.000000  1.000000  1.000000  1.000000
 FoFCou: FMM=F IPFlag=           0 FMFlag=      100000 FMFlg1=           0
         NFxFlg=           0 DoJE=T BraDBF=F KetDBF=T FulRan=T
         Omega=  0.000000  0.000000  1.000000  0.000000  0.000000 ICntrl=     500 IOpCl=  0
         NMat0=    1 NMatS0=    1 NMatT0=    0 NMatD0=    1 NMtDS0=    0 NMtDT0=    0
         I1Cent=           4 NGrid=           0.
 Petite list used in FoFCou.
 Harris En= -2729.46039203372    
 Initial guess orbital symmetries:
       Occupied  (A) (A) (A) (A) (A) (A) (A) (A) (A) (A) (A) (A)
                 (A) (A) (A) (A) (A) (A)
       Virtual   (A) (A) (A) (A) (A) (A) (A) (A) (A) (A) (A) (A)
                 (A) (A) (A) (A) (A) (A) (A) (A) (A) (A) (A) (A)
                 (A) (A) (A) (A) (A) (A) (A) (A) (A) (A) (A) (A)
                 (A) (A) (A) (A) (A) (A) (A) (A) (A) (A) (A) (A)
                 (A) (A) (A) (A) (A) (A) (A) (A) (A) (A) (A) (A)
                 (A) (A) (A) (A) (A) (A) (A) (A) (A) (A) (A) (A)
                 (A) (A) (A) (A) (A) (A) (A) (A) (A) (A) (A) (A)
                 (A) (A) (A) (A) (A) (A) (A) (A) (A) (A) (A) (A)
                 (A) (A) (A) (A) (A) (A) (A) (A) (A) (A) (A) (A)
                 (A) (A) (A) (A) (A) (A) (A) (A) (A) (A) (A) (A)
                 (A) (A) (A) (A) (A) (A) (A) (A) (A) (A) (A) (A)
                 (A) (A) (A) (A) (A) (A) (A) (A) (A) (A) (A) (A)
                 (A) (A) (A) (A) (A) (A) (A) (A) (A) (A) (A) (A)
                 (A) (A) (A) (A) (A) (A) (A) (A) (A) (A) (A) (A)
                 (A) (A) (A) (A) (A) (A) (A) (A) (A) (A) (A)
 The electronic state of the initial guess is 1-A.
 Leave Link  401 at Mon May  4 12:21:17 2020, MaxMem= 1073741824 cpu:       3.8
 (Enter /home/matheus/.gaussian/g09/l502.exe)
 Closed shell SCF:
 Requested convergence on RMS density matrix=1.00D-08 within 128 cycles.
 Requested convergence on MAX density matrix=1.00D-06.
 Requested convergence on             energy=1.00D-06.
 No special actions if energy rises.
 Using DIIS extrapolation, IDIIS=  1040.
 Integral symmetry usage will be decided dynamically.
       126521 words used for storage of precomputed grid.
 IEnd=      305468 IEndB=      305468 NGot=  1073741824 MDV=  1073505667
 LenX=  1073505667 LenY=  1073452785
 Fock matrices will be formed incrementally for  20 cycles.

 Cycle   1  Pass 1  IDiag  1:
 FoFJK:  IHMeth= 1 ICntrl=     0 DoSepK=T KAlg= 1 I1Cent= 0 FoldK=F
 FoFCou: FMM=F IPFlag=           0 FMFlag=      100000 FMFlg1=           0
         NFxFlg=           0 DoJE=T BraDBF=F KetDBF=F FulRan=T
         Omega=  0.000000  0.000000  1.000000  0.000000  0.000000 ICntrl=     500 IOpCl=  0
         NMat0=    1 NMatS0=    1 NMatT0=    0 NMatD0=    1 NMtDS0=    0 NMtDT0=    0
         I1Cent=           0 NGrid=           0.
 Symmetry not used in FoFCou.
 E= -2753.44667753700    
 DIIS: error= 6.11D-02 at cycle   1 NSaved=   1.
 NSaved= 1 IEnMin= 1 EnMin= -2753.44667753700     IErMin= 1 ErrMin= 6.11D-02
 ErrMax= 6.11D-02 EMaxC= 1.00D-01 BMatC= 1.90D+00 BMatP= 1.90D+00
 IDIUse=3 WtCom= 3.89D-01 WtEn= 6.11D-01
 Coeff-Com:  0.100D+01
 Coeff-En:   0.100D+01
 Coeff:      0.100D+01
 Gap=     0.654 Goal=   None    Shift=    0.000
 GapD=    0.654 DampG=2.000 DampE=0.500 DampFc=1.0000 IDamp=-1.
 RMSDP=5.57D-03 MaxDP=3.67D-01              OVMax= 1.83D-01

 Cycle   2  Pass 1  IDiag  1:
 RMSU=  3.88D-03    CP:  1.05D+00
 FoFJK:  IHMeth= 1 ICntrl=     0 DoSepK=T KAlg= 1 I1Cent= 0 FoldK=F
 E= -2753.72376287465     Delta-E=       -0.277085337645 Rises=F Damp=F
 DIIS: error= 2.73D-02 at cycle   2 NSaved=   2.
 NSaved= 2 IEnMin= 2 EnMin= -2753.72376287465     IErMin= 2 ErrMin= 2.73D-02
 ErrMax= 2.73D-02 EMaxC= 1.00D-01 BMatC= 4.66D-01 BMatP= 1.90D+00
 IDIUse=3 WtCom= 7.27D-01 WtEn= 2.73D-01
 Coeff-Com:  0.326D+00 0.674D+00
 Coeff-En:   0.160D+00 0.840D+00
 Coeff:      0.281D+00 0.719D+00
 Gap=     0.494 Goal=   None    Shift=    0.000
 RMSDP=2.48D-03 MaxDP=1.59D-01 DE=-2.77D-01 OVMax= 7.59D-02

 Cycle   3  Pass 1  IDiag  1:
 RMSU=  3.62D-04    CP:  1.03D+00  5.63D-01
 FoFJK:  IHMeth= 1 ICntrl=     0 DoSepK=T KAlg= 1 I1Cent= 0 FoldK=F
 E= -2753.86750488004     Delta-E=       -0.143742005393 Rises=F Damp=F
 DIIS: error= 3.86D-03 at cycle   3 NSaved=   3.
 NSaved= 3 IEnMin= 3 EnMin= -2753.86750488004     IErMin= 3 ErrMin= 3.86D-03
 ErrMax= 3.86D-03 EMaxC= 1.00D-01 BMatC= 8.69D-03 BMatP= 4.66D-01
 IDIUse=3 WtCom= 9.61D-01 WtEn= 3.86D-02
 Coeff-Com: -0.738D-02 0.108D+00 0.899D+00
 Coeff-En:   0.000D+00 0.000D+00 0.100D+01
 Coeff:     -0.709D-02 0.104D+00 0.903D+00
 Gap=     0.518 Goal=   None    Shift=    0.000
 RMSDP=2.71D-04 MaxDP=1.59D-02 DE=-1.44D-01 OVMax= 1.13D-02

 Cycle   4  Pass 1  IDiag  1:
 RMSU=  3.99D-05    CP:  1.03D+00  6.11D-01  9.75D-01
 FoFJK:  IHMeth= 1 ICntrl=     0 DoSepK=T KAlg= 1 I1Cent= 0 FoldK=F
 E= -2753.87021965012     Delta-E=       -0.002714770078 Rises=F Damp=F
 DIIS: error= 1.54D-04 at cycle   4 NSaved=   4.
 NSaved= 4 IEnMin= 4 EnMin= -2753.87021965012     IErMin= 4 ErrMin= 1.54D-04
 ErrMax= 1.54D-04 EMaxC= 1.00D-01 BMatC= 1.14D-05 BMatP= 8.69D-03
 IDIUse=3 WtCom= 9.98D-01 WtEn= 1.54D-03
 Coeff-Com: -0.263D-03-0.170D-01-0.845D-01 0.110D+01
 Coeff-En:   0.000D+00 0.000D+00 0.000D+00 0.100D+01
 Coeff:     -0.262D-03-0.170D-01-0.843D-01 0.110D+01
 Gap=     0.516 Goal=   None    Shift=    0.000
 RMSDP=2.23D-05 MaxDP=8.61D-04 DE=-2.71D-03 OVMax= 9.56D-04

 Cycle   5  Pass 1  IDiag  1:
 RMSU=  8.43D-06    CP:  1.03D+00  6.09D-01  9.95D-01  1.24D+00
 FoFJK:  IHMeth= 1 ICntrl=     0 DoSepK=T KAlg= 1 I1Cent= 0 FoldK=F
 E= -2753.87022735558     Delta-E=       -0.000007705462 Rises=F Damp=F
 DIIS: error= 1.48D-05 at cycle   5 NSaved=   5.
 NSaved= 5 IEnMin= 5 EnMin= -2753.87022735558     IErMin= 5 ErrMin= 1.48D-05
 ErrMax= 1.48D-05 EMaxC= 1.00D-01 BMatC= 4.23D-08 BMatP= 1.14D-05
 IDIUse=1 WtCom= 1.00D+00 WtEn= 0.00D+00
 Coeff-Com:  0.798D-04 0.107D-02 0.167D-02-0.180D+00 0.118D+01
 Coeff:      0.798D-04 0.107D-02 0.167D-02-0.180D+00 0.118D+01
 Gap=     0.516 Goal=   None    Shift=    0.000
 RMSDP=3.47D-06 MaxDP=1.40D-04 DE=-7.71D-06 OVMax= 2.02D-04

 Cycle   6  Pass 1  IDiag  1:
 RMSU=  7.08D-07    CP:  1.03D+00  6.09D-01  9.97D-01  1.28D+00  1.17D+00
 FoFJK:  IHMeth= 1 ICntrl=     0 DoSepK=T KAlg= 1 I1Cent= 0 FoldK=F
 E= -2753.87022748634     Delta-E=       -0.000000130758 Rises=F Damp=F
 DIIS: error= 1.88D-06 at cycle   6 NSaved=   6.
 NSaved= 6 IEnMin= 6 EnMin= -2753.87022748634     IErMin= 6 ErrMin= 1.88D-06
 ErrMax= 1.88D-06 EMaxC= 1.00D-01 BMatC= 7.59D-10 BMatP= 4.23D-08
 IDIUse=1 WtCom= 1.00D+00 WtEn= 0.00D+00
 Coeff-Com:  0.694D-05 0.290D-03 0.961D-03-0.403D-01 0.184D+00 0.855D+00
 Coeff:      0.694D-05 0.290D-03 0.961D-03-0.403D-01 0.184D+00 0.855D+00
 Gap=     0.516 Goal=   None    Shift=    0.000
 RMSDP=2.40D-07 MaxDP=9.01D-06 DE=-1.31D-07 OVMax= 1.09D-05

 Cycle   7  Pass 1  IDiag  1:
 RMSU=  6.80D-08    CP:  1.03D+00  6.09D-01  9.97D-01  1.28D+00  1.18D+00
                    CP:  1.11D+00
 FoFJK:  IHMeth= 1 ICntrl=     0 DoSepK=T KAlg= 1 I1Cent= 0 FoldK=F
 E= -2753.87022748715     Delta-E=       -0.000000000806 Rises=F Damp=F
 DIIS: error= 1.75D-07 at cycle   7 NSaved=   7.
 NSaved= 7 IEnMin= 7 EnMin= -2753.87022748715     IErMin= 7 ErrMin= 1.75D-07
 ErrMax= 1.75D-07 EMaxC= 1.00D-01 BMatC= 1.92D-11 BMatP= 7.59D-10
 IDIUse=1 WtCom= 1.00D+00 WtEn= 0.00D+00
 Coeff-Com: -0.116D-05 0.260D-04 0.167D-03-0.112D-02-0.615D-02 0.113D+00
 Coeff-Com:  0.894D+00
 Coeff:     -0.116D-05 0.260D-04 0.167D-03-0.112D-02-0.615D-02 0.113D+00
 Coeff:      0.894D+00
 Gap=     0.516 Goal=   None    Shift=    0.000
 RMSDP=4.76D-08 MaxDP=1.92D-06 DE=-8.06D-10 OVMax= 1.96D-06

 Cycle   8  Pass 1  IDiag  1:
 RMSU=  1.42D-08    CP:  1.03D+00  6.09D-01  9.97D-01  1.28D+00  1.18D+00
                    CP:  1.15D+00  1.08D+00
 FoFJK:  IHMeth= 1 ICntrl=     0 DoSepK=T KAlg= 1 I1Cent= 0 FoldK=F
 E= -2753.87022748717     Delta-E=       -0.000000000019 Rises=F Damp=F
 DIIS: error= 5.83D-08 at cycle   8 NSaved=   8.
 NSaved= 8 IEnMin= 8 EnMin= -2753.87022748717     IErMin= 8 ErrMin= 5.83D-08
 ErrMax= 5.83D-08 EMaxC= 1.00D-01 BMatC= 1.51D-12 BMatP= 1.92D-11
 IDIUse=1 WtCom= 1.00D+00 WtEn= 0.00D+00
 Coeff-Com: -0.127D-06-0.548D-05-0.466D-05 0.164D-02-0.852D-02-0.249D-01
 Coeff-Com:  0.106D+00 0.925D+00
 Coeff:     -0.127D-06-0.548D-05-0.466D-05 0.164D-02-0.852D-02-0.249D-01
 Coeff:      0.106D+00 0.925D+00
 Gap=     0.516 Goal=   None    Shift=    0.000
 RMSDP=1.32D-08 MaxDP=5.32D-07 DE=-1.86D-11 OVMax= 3.79D-07

 Cycle   9  Pass 1  IDiag  1:
 RMSU=  2.31D-09    CP:  1.03D+00  6.09D-01  9.97D-01  1.28D+00  1.18D+00
                    CP:  1.16D+00  1.14D+00  1.08D+00
 FoFJK:  IHMeth= 1 ICntrl=     0 DoSepK=T KAlg= 1 I1Cent= 0 FoldK=F
 E= -2753.87022748716     Delta-E=        0.000000000008 Rises=F Damp=F
 DIIS: error= 8.55D-09 at cycle   9 NSaved=   9.
 NSaved= 9 IEnMin= 8 EnMin= -2753.87022748717     IErMin= 9 ErrMin= 8.55D-09
 ErrMax= 8.55D-09 EMaxC= 1.00D-01 BMatC= 6.52D-15 BMatP= 1.51D-12
 IDIUse=1 WtCom= 1.00D+00 WtEn= 0.00D+00
 Coeff-Com:  0.109D-07 0.879D-07-0.120D-05-0.129D-03 0.642D-03 0.201D-02
 Coeff-Com: -0.196D-01-0.106D+00 0.112D+01
 Coeff:      0.109D-07 0.879D-07-0.120D-05-0.129D-03 0.642D-03 0.201D-02
 Coeff:     -0.196D-01-0.106D+00 0.112D+01
 Gap=     0.516 Goal=   None    Shift=    0.000
 RMSDP=1.43D-09 MaxDP=5.64D-08 DE= 8.19D-12 OVMax= 9.20D-08

 SCF Done:  E(RwB97XD) =  -2753.87022749     A.U. after    9 cycles
             Convg  =    0.1425D-08             -V/T =  2.0013
 KE= 2.750247359878D+03 PE=-6.580156074561D+03 EE= 1.076038487195D+03
 Leave Link  502 at Mon May  4 12:21:45 2020, MaxMem= 1073741824 cpu:     225.9
 (Enter /home/matheus/.gaussian/g09/l601.exe)
 Copying SCF densities to generalized density rwf, IOpCl= 0 IROHF=0.

 **********************************************************************

            Population analysis using the SCF density.

 **********************************************************************

 Orbital symmetries:
       Occupied  (A) (A) (A) (A) (A) (A) (A) (A) (A) (A) (A) (A)
                 (A) (A) (A) (A) (A) (A)
       Virtual   (A) (A) (A) (A) (A) (A) (A) (A) (A) (A) (A) (A)
                 (A) (A) (A) (A) (A) (A) (A) (A) (A) (A) (A) (A)
                 (A) (A) (A) (A) (A) (A) (A) (A) (A) (A) (A) (A)
                 (A) (A) (A) (A) (A) (A) (A) (A) (A) (A) (A) (A)
                 (A) (A) (A) (A) (A) (A) (A) (A) (A) (A) (A) (A)
                 (A) (A) (A) (A) (A) (A) (A) (A) (A) (A) (A) (A)
                 (A) (A) (A) (A) (A) (A) (A) (A) (A) (A) (A) (A)
                 (A) (A) (A) (A) (A) (A) (A) (A) (A) (A) (A) (A)
                 (A) (A) (A) (A) (A) (A) (A) (A) (A) (A) (A) (A)
                 (A) (A) (A) (A) (A) (A) (A) (A) (A) (A) (A) (A)
                 (A) (A) (A) (A) (A) (A) (A) (A) (A) (A) (A) (A)
                 (A) (A) (A) (A) (A) (A) (A) (A) (A) (A) (A) (A)
                 (A) (A) (A) (A) (A) (A) (A) (A) (A) (A) (A) (A)
                 (A) (A) (A) (A) (A) (A) (A) (A) (A) (A) (A) (A)
                 (A) (A) (A) (A) (A) (A) (A) (A) (A) (A) (A)
 The electronic state is 1-A.
 Alpha  occ. eigenvalues -- -513.08050 -67.34865 -60.89737 -60.89736 -60.89736
 Alpha  occ. eigenvalues --   -9.80180  -7.49479  -7.49478  -7.49478  -3.36164
 Alpha  occ. eigenvalues --   -3.36164  -3.36164  -3.36163  -3.36163  -1.00829
 Alpha  occ. eigenvalues --   -0.48267  -0.48264  -0.48263
 Alpha virt. eigenvalues --    0.03299   0.05241   0.08810   0.09594   0.12371
 Alpha virt. eigenvalues --    0.12655   0.13629   0.13968   0.16401   0.17346
 Alpha virt. eigenvalues --    0.18107   0.19738   0.20816   0.25608   0.26514
 Alpha virt. eigenvalues --    0.26944   0.28732   0.30757   0.32669   0.34504
 Alpha virt. eigenvalues --    0.35770   0.37502   0.38367   0.39769   0.41347
 Alpha virt. eigenvalues --    0.42321   0.43262   0.52513   0.53505   0.57622
 Alpha virt. eigenvalues --    0.58952   0.66692   0.68530   0.69353   0.72001
 Alpha virt. eigenvalues --    0.74028   0.74065   0.75999   0.77450   0.78263
 Alpha virt. eigenvalues --    0.79244   0.81113   0.83079   0.85330   0.87375
 Alpha virt. eigenvalues --    0.88101   0.89476   0.91023   0.91237   0.95856
 Alpha virt. eigenvalues --    0.96822   0.97534   0.98512   0.99028   1.01249
 Alpha virt. eigenvalues --    1.04604   1.06915   1.07659   1.10064   1.12005
 Alpha virt. eigenvalues --    1.16754   1.19915   1.24220   1.27591   1.30908
 Alpha virt. eigenvalues --    1.32421   1.37895   1.39955   1.44414   1.46236
 Alpha virt. eigenvalues --    1.54970   1.56967   1.58785   1.74157   1.75167
 Alpha virt. eigenvalues --    1.81918   1.82968   1.85970   1.98540   2.16112
 Alpha virt. eigenvalues --    2.19667   2.25135   2.27983   2.28956   2.30047
 Alpha virt. eigenvalues --    2.32116   2.33233   2.35139   2.38198   2.41568
 Alpha virt. eigenvalues --    2.42532   2.45475   2.46544   2.48523   2.49335
 Alpha virt. eigenvalues --    2.51345   2.52367   2.56376   2.58235   2.58305
 Alpha virt. eigenvalues --    2.60900   2.62987   2.64746   2.69204   2.72708
 Alpha virt. eigenvalues --    2.74700   2.78105   2.84737   2.88343   2.90155
 Alpha virt. eigenvalues --    2.95168   2.99808   3.05165   3.09169   3.18905
 Alpha virt. eigenvalues --    3.21758   3.28908   3.31033   3.39580   3.45990
 Alpha virt. eigenvalues --    3.61410   3.65531   3.82882   3.87028   4.04445
 Alpha virt. eigenvalues --    4.34608   4.44441   4.56135   4.58076   4.63389
 Alpha virt. eigenvalues --    4.72859   4.87723   4.89538   4.97325   5.03531
 Alpha virt. eigenvalues --    5.11623   5.27191   5.60424   5.64585   5.82259
 Alpha virt. eigenvalues --    5.91171   6.01362   6.11398   6.78008   6.84342
 Alpha virt. eigenvalues --    7.38965   7.50929   7.54436   7.63021   7.76513
 Alpha virt. eigenvalues --    7.79266   7.95283   8.16596   8.17331   8.22161
 Alpha virt. eigenvalues --    8.39697   8.51877   8.56701   8.87315   9.65283
 Alpha virt. eigenvalues --    9.77381   9.84223   9.87731   9.93865  10.00053
 Alpha virt. eigenvalues --   10.16164  10.29730  10.42840  10.97760  11.54302
 Alpha virt. eigenvalues --   11.64654  11.82892  12.06801  12.10072  13.20867
 Alpha virt. eigenvalues --   13.69574  14.52253  62.85364  64.70318
          Condensed to atoms (all electrons):
              1          2          3          4          5
     1  O    0.001020  -0.001314  -0.000469   0.000859  -0.005214
     2  O   -0.001314   0.004697   0.000459  -0.003346  -0.003123
     3  H   -0.000469   0.000459   0.000365  -0.000218  -0.001759
     4  H    0.000859  -0.003346  -0.000218   0.003358  -0.018395
     5  Kr  -0.005214  -0.003123  -0.001759  -0.018395  36.055598
 Mulliken atomic charges:
              1
     1  O    0.005119
     2  O    0.002627
     3  H    0.001621
     4  H    0.017741
     5  Kr  -0.027107
 Sum of Mulliken atomic charges =   0.00000
 Mulliken charges with hydrogens summed into heavy atoms:
              1
     1  O    0.006740
     2  O    0.020368
     5  Kr  -0.027107
 Sum of Mulliken charges with hydrogens summed into heavy atoms =   0.00000
          Condensed to fragments (all electrons):
     1       0.027107
     2      -0.027107
 Electronic spatial extent (au):  <R**2>=            162.8843
 Charge=              0.0000 electrons
 Dipole moment (field-independent basis, Debye):
    X=             -0.0008    Y=              0.0005    Z=              0.0002  Tot=              0.0009
 Quadrupole moment (field-independent basis, Debye-Ang):
   XX=            -17.6413   YY=            -17.6545   ZZ=            -17.6617
   XY=             -0.0031   XZ=             -0.0016   YZ=             -0.0005
 Traceless Quadrupole moment (field-independent basis, Debye-Ang):
   XX=              0.0112   YY=             -0.0020   ZZ=             -0.0092
   XY=             -0.0031   XZ=             -0.0016   YZ=             -0.0005
 Octapole moment (field-independent basis, Debye-Ang**2):
  XXX=            -51.8702  YYY=              0.4323  ZZZ=              0.0827  XYY=            -17.3043
  XXY=              0.1374  XXZ=              0.0246  XZZ=            -17.3087  YZZ=              0.1445
  YYZ=              0.0277  XYZ=             -0.0001
 Hexadecapole moment (field-independent basis, Debye-Ang**3):
 XXXX=           -120.1232 YYYY=            -18.4869 ZZZZ=            -18.5026 XXXY=              0.4108
 XXXZ=              0.0747 YYYX=              0.4128 YYYZ=             -0.0008 ZZZX=              0.0775
 ZZZY=             -0.0006 XXYY=            -23.1143 XXZZ=            -23.1185 YYZZ=             -6.1636
 XXYZ=             -0.0011 YYXZ=              0.0260 ZZXY=              0.1368
 N-N= 0.000000000000D+00 E-N=-6.580156073997D+03  KE= 2.750247359878D+03
 No NMR shielding tensors so no spin-rotation constants.
 Leave Link  601 at Mon May  4 12:21:46 2020, MaxMem= 1073741824 cpu:       0.7
 (Enter /home/matheus/.gaussian/g09/l122.exe)
 Counterpoise: doing MCBS calculation for fragment   1
 Leave Link  122 at Mon May  4 12:21:46 2020, MaxMem= 1073741824 cpu:       0.0
 (Enter /home/matheus/.gaussian/g09/l301.exe)
 Basis read from rwf:  (5D, 7F)
 No pseudopotential information found on rwf file.
 There are   138 symmetry adapted basis functions of A   symmetry.
 Integral buffers will be    131072 words long.
 Raffenetti 2 integral format.
 Two-electron integral symmetry is turned on.
   138 basis functions,   198 primitive gaussians,   160 cartesian basis functions
     9 alpha electrons        9 beta electrons
       nuclear repulsion energy        36.6321546607 Hartrees.
 IExCor= 4639 DFT=T Ex+Corr=wB97XD ExCW=0 ScaHFX=  1.000000
 ScaDFX=  1.000000  1.000000  1.000000  1.000000 ScalE2=  1.000000  1.000000
 IRadAn=      5 IRanWt=     -1 IRanGd=            0 ICorTp=0
  HFx wShort=  0.000000 wLong=  0.250000 cFull=  0.222036 cShort=  0.000000 cLong=  0.777964
  DFx wShort=  0.000000 wLong=  0.250000 cFull=  0.000000 cShort=  0.000000 cLong=  1.000000
 NAtoms=    5 NActive=    4 NUniq=    4 SFac= 1.00D+00 NAtFMM=   60 NAOKFM=F Big=F
 R6Disp: Dispersion energy =        -0.0002567696 Hartrees.
 Nuclear repulsion after empirical dispersion term =       36.6318978911 Hartrees.
 No density basis found on file   718.
 Leave Link  301 at Mon May  4 12:21:46 2020, MaxMem= 1073741824 cpu:       0.2
 (Enter /home/matheus/.gaussian/g09/l302.exe)
 NPDir=0 NMtPBC=     1 NCelOv=     1 NCel=       1 NClECP=     1 NCelD=      1
         NCelK=      1 NCelE2=     1 NClLst=     1 CellRange=     0.0.
 One-electron integrals computed using PRISM.
 NBasis=   138 RedAO= T  NBF=   138
 NBsUse=   138 1.00D-06 NBFU=   138
 Precomputing XC quadrature grid using
 IXCGrd= 2 IRadAn=           5 IRanWt=          -1 IRanGd=           0 AccXCQ= 0.00D+00.
 NRdTot=     344 NPtTot=       92556 NUsed=       95038 NTot=       95070
 NSgBfM=   160   160   160   160   160 NAtAll=     4     4.
 Leave Link  302 at Mon May  4 12:21:46 2020, MaxMem= 1073741824 cpu:       0.8
 (Enter /home/matheus/.gaussian/g09/l303.exe)
 DipDrv:  MaxL=1.
 Leave Link  303 at Mon May  4 12:21:46 2020, MaxMem= 1073741824 cpu:       0.2
 (Enter /home/matheus/.gaussian/g09/l401.exe)
 Harris functional with IExCor= 4639 diagonalized for initial guess.
 ExpMin= 2.53D-02 ExpMax= 1.53D+04 ExpMxC= 5.22D+02 IAcc=3 IRadAn=         5 AccDes= 0.00D+00
 HarFok:  IExCor= 4639 AccDes= 0.00D+00 IRadAn=         5 IDoV= 1
 ScaDFX=  1.000000  1.000000  1.000000  1.000000
 FoFCou: FMM=F IPFlag=           0 FMFlag=      100000 FMFlg1=           0
         NFxFlg=           0 DoJE=T BraDBF=F KetDBF=T FulRan=T
         Omega=  0.000000  0.000000  1.000000  0.000000  0.000000 ICntrl=     500 IOpCl=  0
         NMat0=    1 NMatS0=    1 NMatT0=    0 NMatD0=    1 NMtDS0=    0 NMtDT0=    0
         I1Cent=           4 NGrid=           0.
 Petite list used in FoFCou.
 Harris En= -145.946833415222    
 Initial guess orbital symmetries:
       Occupied  (A) (A) (A) (A) (A) (A) (A) (A) (A)
       Virtual   (A) (A) (A) (A) (A) (A) (A) (A) (A) (A) (A) (A)
                 (A) (A) (A) (A) (A) (A) (A) (A) (A) (A) (A) (A)
                 (A) (A) (A) (A) (A) (A) (A) (A) (A) (A) (A) (A)
                 (A) (A) (A) (A) (A) (A) (A) (A) (A) (A) (A) (A)
                 (A) (A) (A) (A) (A) (A) (A) (A) (A) (A) (A) (A)
                 (A) (A) (A) (A) (A) (A) (A) (A) (A) (A) (A) (A)
                 (A) (A) (A) (A) (A) (A) (A) (A) (A) (A) (A) (A)
                 (A) (A) (A) (A) (A) (A) (A) (A) (A) (A) (A) (A)
                 (A) (A) (A) (A) (A) (A) (A) (A) (A) (A) (A) (A)
                 (A) (A) (A) (A) (A) (A) (A) (A) (A) (A) (A) (A)
                 (A) (A) (A) (A) (A) (A) (A) (A) (A)
 The electronic state of the initial guess is 1-A.
 Leave Link  401 at Mon May  4 12:21:46 2020, MaxMem= 1073741824 cpu:       2.3
 (Enter /home/matheus/.gaussian/g09/l502.exe)
 Closed shell SCF:
 Requested convergence on RMS density matrix=1.00D-08 within 128 cycles.
 Requested convergence on MAX density matrix=1.00D-06.
 Requested convergence on             energy=1.00D-06.
 No special actions if energy rises.
 Using DIIS extrapolation, IDIIS=  1040.
 Integral symmetry usage will be decided dynamically.
        94980 words used for storage of precomputed grid.
 IEnd=      192360 IEndB=      192360 NGot=  1073741824 MDV=  1073591865
 LenX=  1073591865 LenY=  1073565824
 Fock matrices will be formed incrementally for  20 cycles.

 Cycle   1  Pass 1  IDiag  1:
 FoFJK:  IHMeth= 1 ICntrl=     0 DoSepK=T KAlg= 1 I1Cent= 0 FoldK=F
 FoFCou: FMM=F IPFlag=           0 FMFlag=      100000 FMFlg1=           0
         NFxFlg=           0 DoJE=T BraDBF=F KetDBF=F FulRan=T
         Omega=  0.000000  0.000000  1.000000  0.000000  0.000000 ICntrl=     500 IOpCl=  0
         NMat0=    1 NMatS0=    1 NMatT0=    0 NMatD0=    1 NMtDS0=    0 NMtDT0=    0
         I1Cent=           0 NGrid=           0.
 Symmetry not used in FoFCou.
 E= -151.460190616896    
 DIIS: error= 4.42D-02 at cycle   1 NSaved=   1.
 NSaved= 1 IEnMin= 1 EnMin= -151.460190616896     IErMin= 1 ErrMin= 4.42D-02
 ErrMax= 4.42D-02 EMaxC= 1.00D-01 BMatC= 3.21D-01 BMatP= 3.21D-01
 IDIUse=3 WtCom= 5.58D-01 WtEn= 4.42D-01
 Coeff-Com:  0.100D+01
 Coeff-En:   0.100D+01
 Coeff:      0.100D+01
 Gap=     0.559 Goal=   None    Shift=    0.000
 GapD=    0.559 DampG=2.000 DampE=0.500 DampFc=1.0000 IDamp=-1.
 RMSDP=3.45D-03 MaxDP=9.84D-02              OVMax= 1.19D-01

 Cycle   2  Pass 1  IDiag  1:
 RMSU=  2.40D-03    CP:  9.55D-01
 FoFJK:  IHMeth= 1 ICntrl=     0 DoSepK=T KAlg= 1 I1Cent= 0 FoldK=F
 E= -151.500355362131     Delta-E=       -0.040164745236 Rises=F Damp=F
 DIIS: error= 2.35D-02 at cycle   2 NSaved=   2.
 NSaved= 2 IEnMin= 2 EnMin= -151.500355362131     IErMin= 2 ErrMin= 2.35D-02
 ErrMax= 2.35D-02 EMaxC= 1.00D-01 BMatC= 1.03D-01 BMatP= 3.21D-01
 IDIUse=3 WtCom= 7.65D-01 WtEn= 2.35D-01
 Coeff-Com:  0.341D+00 0.659D+00
 Coeff-En:   0.342D+00 0.658D+00
 Coeff:      0.341D+00 0.659D+00
 Gap=     0.503 Goal=   None    Shift=    0.000
 RMSDP=1.42D-03 MaxDP=4.74D-02 DE=-4.02D-02 OVMax= 6.11D-02

 Cycle   3  Pass 1  IDiag  1:
 RMSU=  5.31D-04    CP:  9.75D-01  6.53D-01
 FoFJK:  IHMeth= 1 ICntrl=     0 DoSepK=T KAlg= 1 I1Cent= 0 FoldK=F
 E= -151.556190595390     Delta-E=       -0.055835233259 Rises=F Damp=F
 DIIS: error= 5.57D-03 at cycle   3 NSaved=   3.
[...]
 DIIS: error= 4.48D-06 at cycle   2 NSaved=   2.
 NSaved= 2 IEnMin= 2 EnMin= -2753.87012694462     IErMin= 2 ErrMin= 4.48D-06
 ErrMax= 4.48D-06 EMaxC= 1.00D-01 BMatC= 3.67D-09 BMatP= 3.51D-06
 IDIUse=1 WtCom= 1.00D+00 WtEn= 0.00D+00
 Coeff-Com: -0.984D-02 0.101D+01
 Coeff:     -0.984D-02 0.101D+01
 Gap=     0.513 Goal=   None    Shift=    0.000
 RMSDP=1.83D-06 MaxDP=7.66D-05 DE=-4.98D-07 OVMax= 4.87D-05

 Cycle   3  Pass 1  IDiag  1:
 RMSU=  5.13D-07    CP:  1.00D+00  1.10D+00
 FoFJK:  IHMeth= 1 ICntrl=     0 DoSepK=T KAlg= 1 I1Cent= 0 FoldK=F
 E= -2753.87012695138     Delta-E=       -0.000000006761 Rises=F Damp=F
 DIIS: error= 7.52D-07 at cycle   3 NSaved=   3.
 NSaved= 3 IEnMin= 3 EnMin= -2753.87012695138     IErMin= 3 ErrMin= 7.52D-07
 ErrMax= 7.52D-07 EMaxC= 1.00D-01 BMatC= 8.94D-11 BMatP= 3.67D-09
 IDIUse=1 WtCom= 1.00D+00 WtEn= 0.00D+00
 Coeff-Com:  0.296D-03-0.129D+00 0.113D+01
 Coeff:      0.296D-03-0.129D+00 0.113D+01
 Gap=     0.513 Goal=   None    Shift=    0.000
 RMSDP=2.35D-07 MaxDP=1.13D-05 DE=-6.76D-09 OVMax= 9.83D-06

 Cycle   4  Pass 1  IDiag  1:
 RMSU=  4.91D-08    CP:  1.00D+00  1.11D+00  1.22D+00
 FoFJK:  IHMeth= 1 ICntrl=     0 DoSepK=T KAlg= 1 I1Cent= 0 FoldK=F
 E= -2753.87012695157     Delta-E=       -0.000000000185 Rises=F Damp=F
 DIIS: error= 2.90D-07 at cycle   4 NSaved=   4.
 NSaved= 4 IEnMin= 4 EnMin= -2753.87012695157     IErMin= 4 ErrMin= 2.90D-07
 ErrMax= 2.90D-07 EMaxC= 1.00D-01 BMatC= 7.02D-12 BMatP= 8.94D-11
 IDIUse=1 WtCom= 1.00D+00 WtEn= 0.00D+00
 Coeff-Com:  0.204D-03-0.459D-01 0.283D+00 0.763D+00
 Coeff:      0.204D-03-0.459D-01 0.283D+00 0.763D+00
 Gap=     0.513 Goal=   None    Shift=    0.000
 RMSDP=1.82D-08 MaxDP=7.88D-07 DE=-1.85D-10 OVMax= 1.10D-06

 Cycle   5  Pass 1  IDiag  1:
 RMSU=  7.55D-09    CP:  1.00D+00  1.11D+00  1.23D+00  1.12D+00
 FoFJK:  IHMeth= 1 ICntrl=     0 DoSepK=T KAlg= 1 I1Cent= 0 FoldK=F
 E= -2753.87012695157     Delta-E=       -0.000000000002 Rises=F Damp=F
 DIIS: error= 2.89D-08 at cycle   5 NSaved=   5.
 NSaved= 5 IEnMin= 5 EnMin= -2753.87012695157     IErMin= 5 ErrMin= 2.89D-08
 ErrMax= 2.89D-08 EMaxC= 1.00D-01 BMatC= 1.25D-13 BMatP= 7.02D-12
 IDIUse=1 WtCom= 1.00D+00 WtEn= 0.00D+00
 Coeff-Com: -0.303D-04 0.965D-02-0.749D-01-0.581D-01 0.112D+01
 Coeff:     -0.303D-04 0.965D-02-0.749D-01-0.581D-01 0.112D+01
 Gap=     0.513 Goal=   None    Shift=    0.000
 RMSDP=9.19D-09 MaxDP=5.45D-07 DE=-1.82D-12 OVMax= 4.29D-07

 SCF Done:  E(RwB97XD) =  -2753.87012695     A.U. after    5 cycles
             Convg  =    0.9191D-08             -V/T =  2.0013
 KE= 2.750283667868D+03 PE=-6.580195006894D+03 EE= 1.076041212075D+03
 Leave Link  502 at Mon May  4 12:44:19 2020, MaxMem= 1073741824 cpu:     101.3
 (Enter /home/matheus/.gaussian/g09/l122.exe)
 Restoring MOs from calculation   4 to rwf.
 Counterpoise: doing MCBS calculation for fragment   1
 Leave Link  122 at Mon May  4 12:44:19 2020, MaxMem= 1073741824 cpu:       0.0
 (Enter /home/matheus/.gaussian/g09/l301.exe)
 Basis read from rwf:  (5D, 7F)
 No pseudopotential information found on rwf file.
 There are   138 symmetry adapted basis functions of A   symmetry.
 Integral buffers will be    131072 words long.
 Raffenetti 2 integral format.
 Two-electron integral symmetry is turned on.
   138 basis functions,   198 primitive gaussians,   160 cartesian basis functions
     9 alpha electrons        9 beta electrons
       nuclear repulsion energy        36.6321546607 Hartrees.
 IExCor= 4639 DFT=T Ex+Corr=wB97XD ExCW=0 ScaHFX=  1.000000
 ScaDFX=  1.000000  1.000000  1.000000  1.000000 ScalE2=  1.000000  1.000000
 IRadAn=      5 IRanWt=     -1 IRanGd=            0 ICorTp=0
  HFx wShort=  0.000000 wLong=  0.250000 cFull=  0.222036 cShort=  0.000000 cLong=  0.777964
  DFx wShort=  0.000000 wLong=  0.250000 cFull=  0.000000 cShort=  0.000000 cLong=  1.000000
 NAtoms=    5 NActive=    4 NUniq=    4 SFac= 1.00D+00 NAtFMM=   60 NAOKFM=F Big=F
 R6Disp: Dispersion energy =        -0.0002567696 Hartrees.
 Nuclear repulsion after empirical dispersion term =       36.6318978911 Hartrees.
 No density basis found on file   718.
 Leave Link  301 at Mon May  4 12:44:19 2020, MaxMem= 1073741824 cpu:       0.2
 (Enter /home/matheus/.gaussian/g09/l302.exe)
 NPDir=0 NMtPBC=     1 NCelOv=     1 NCel=       1 NClECP=     1 NCelD=      1
         NCelK=      1 NCelE2=     1 NClLst=     1 CellRange=     0.0.
 One-electron integrals computed using PRISM.
 NBasis=   138 RedAO= T  NBF=   138
 NBsUse=   138 1.00D-06 NBFU=   138
 Precomputing XC quadrature grid using
 IXCGrd= 2 IRadAn=           5 IRanWt=          -1 IRanGd=           0 AccXCQ= 0.00D+00.
 NRdTot=     344 NPtTot=       92556 NUsed=       95038 NTot=       95070
 NSgBfM=   160   160   160   160   160 NAtAll=     4     4.
 Leave Link  302 at Mon May  4 12:44:19 2020, MaxMem= 1073741824 cpu:       0.8
 (Enter /home/matheus/.gaussian/g09/l303.exe)
 DipDrv:  MaxL=1.
 Leave Link  303 at Mon May  4 12:44:19 2020, MaxMem= 1073741824 cpu:       0.1
 (Enter /home/matheus/.gaussian/g09/l401.exe)
 Initial guess read from the read-write file.
 Guess basis will be translated and rotated to current coordinates.
 Initial guess orbital symmetries:
       Occupied  (A) (A) (A) (A) (A) (A) (A) (A) (A)
       Virtual   (A) (A) (A) (A) (A) (A) (A) (A) (A) (A) (A) (A)
                 (A) (A) (A) (A) (A) (A) (A) (A) (A) (A) (A) (A)
                 (A) (A) (A) (A) (A) (A) (A) (A) (A) (A) (A) (A)
                 (A) (A) (A) (A) (A) (A) (A) (A) (A) (A) (A) (A)
                 (A) (A) (A) (A) (A) (A) (A) (A) (A) (A) (A) (A)
                 (A) (A) (A) (A) (A) (A) (A) (A) (A) (A) (A) (A)
                 (A) (A) (A) (A) (A) (A) (A) (A) (A) (A) (A) (A)
                 (A) (A) (A) (A) (A) (A) (A) (A) (A) (A) (A) (A)
                 (A) (A) (A) (A) (A) (A) (A) (A) (A) (A) (A) (A)
                 (A) (A) (A) (A) (A) (A) (A) (A) (A) (A) (A) (A)
                 (A) (A) (A) (A) (A) (A) (A) (A) (A)
 The electronic state of the initial guess is 1-A.
 Generating alternative initial guess.
 Harris functional with IExCor= 4639 diagonalized for initial guess.
 ExpMin= 2.53D-02 ExpMax= 1.53D+04 ExpMxC= 5.22D+02 IAcc=3 IRadAn=         5 AccDes= 0.00D+00
 HarFok:  IExCor= 4639 AccDes= 0.00D+00 IRadAn=         5 IDoV= 1
 ScaDFX=  1.000000  1.000000  1.000000  1.000000
 FoFCou: FMM=F IPFlag=           0 FMFlag=      100000 FMFlg1=           0
         NFxFlg=           0 DoJE=T BraDBF=F KetDBF=T FulRan=T
         Omega=  0.000000  0.000000  1.000000  0.000000  0.000000 ICntrl=     500 IOpCl=  0
         NMat0=    1 NMatS0=    1 NMatT0=    0 NMatD0=    1 NMtDS0=    0 NMtDT0=    0
         I1Cent=           4 NGrid=           0.
 Petite list used in FoFCou.
 Harris En= -145.946833422357    
 Leave Link  401 at Mon May  4 12:44:20 2020, MaxMem= 1073741824 cpu:       2.3
 (Enter /home/matheus/.gaussian/g09/l502.exe)
 Closed shell SCF:
 Requested convergence on RMS density matrix=1.00D-08 within 128 cycles.
 Requested convergence on MAX density matrix=1.00D-06.
 Requested convergence on             energy=1.00D-06.
 No special actions if energy rises.
 Using DIIS extrapolation, IDIIS=  1040.
 Integral symmetry usage will be decided dynamically.
        94980 words used for storage of precomputed grid.
 IEnd=      192360 IEndB=      192360 NGot=  1073741824 MDV=  1073591865
 LenX=  1073591865 LenY=  1073565824
 Fock matrices will be formed incrementally for  20 cycles.

 Cycle   1  Pass 1  IDiag  1:
 FoFJK:  IHMeth= 1 ICntrl=     0 DoSepK=T KAlg= 1 I1Cent= 0 FoldK=F
 FoFCou: FMM=F IPFlag=           0 FMFlag=      100000 FMFlg1=           0
         NFxFlg=           0 DoJE=T BraDBF=F KetDBF=F FulRan=T
         Omega=  0.000000  0.000000  1.000000  0.000000  0.000000 ICntrl=     500 IOpCl=  0
         NMat0=    1 NMatS0=    1 NMatT0=    0 NMatD0=    1 NMtDS0=    0 NMtDT0=    0
         I1Cent=           0 NGrid=           0.
 Symmetry not used in FoFCou.
 E= -151.560057043913    
 DIIS: error= 8.11D-06 at cycle   1 NSaved=   1.
 NSaved= 1 IEnMin= 1 EnMin= -151.560057043913     IErMin= 1 ErrMin= 8.11D-06
 ErrMax= 8.11D-06 EMaxC= 1.00D-01 BMatC= 1.83D-08 BMatP= 1.83D-08
 IDIUse=1 WtCom= 1.00D+00 WtEn= 0.00D+00
 Coeff-Com:  0.100D+01
 Coeff:      0.100D+01
 Gap=     0.437 Goal=   None    Shift=    0.000
 RMSDP=8.89D-07 MaxDP=2.11D-05              OVMax= 3.89D-05

 Cycle   2  Pass 1  IDiag  1:
 RMSU=  6.28D-07    CP:  1.00D+00
 FoFJK:  IHMeth= 1 ICntrl=     0 DoSepK=T KAlg= 1 I1Cent= 0 FoldK=F
 E= -151.560057063014     Delta-E=       -0.000000019101 Rises=F Damp=F
 DIIS: error= 1.92D-06 at cycle   2 NSaved=   2.
 NSaved= 2 IEnMin= 2 EnMin= -151.560057063014     IErMin= 2 ErrMin= 1.92D-06
 ErrMax= 1.92D-06 EMaxC= 1.00D-01 BMatC= 6.18D-10 BMatP= 1.83D-08
 IDIUse=1 WtCom= 1.00D+00 WtEn= 0.00D+00
 Coeff-Com: -0.118D+00 0.112D+01
 Coeff:     -0.118D+00 0.112D+01
 Gap=     0.437 Goal=   None    Shift=    0.000
 RMSDP=2.69D-07 MaxDP=7.92D-06 DE=-1.91D-08 OVMax= 1.37D-05

 Cycle   3  Pass 1  IDiag  1:
 RMSU=  1.03D-07    CP:  1.00D+00  1.25D+00
 FoFJK:  IHMeth= 1 ICntrl=     0 DoSepK=T KAlg= 1 I1Cent= 0 FoldK=F
 E= -151.560057064387     Delta-E=       -0.000000001374 Rises=F Damp=F
 DIIS: error= 6.24D-07 at cycle   3 NSaved=   3.
 NSaved= 3 IEnMin= 3 EnMin= -151.560057064387     IErMin= 3 ErrMin= 6.24D-07
 ErrMax= 6.24D-07 EMaxC= 1.00D-01 BMatC= 6.01D-11 BMatP= 6.18D-10
 IDIUse=1 WtCom= 1.00D+00 WtEn= 0.00D+00
 Coeff-Com: -0.226D-01 0.591D-01 0.964D+00
 Coeff:     -0.226D-01 0.591D-01 0.964D+00
 Gap=     0.437 Goal=   None    Shift=    0.000
 RMSDP=7.97D-08 MaxDP=2.04D-06 DE=-1.37D-09 OVMax= 4.99D-06

 Cycle   4  Pass 1  IDiag  1:
 RMSU=  3.60D-08    CP:  1.00D+00  1.31D+00  1.28D+00
 FoFJK:  IHMeth= 1 ICntrl=     0 DoSepK=T KAlg= 1 I1Cent= 0 FoldK=F
 E= -151.560057064485     Delta-E=       -0.000000000098 Rises=F Damp=F
 DIIS: error= 5.72D-07 at cycle   4 NSaved=   4.
 NSaved= 4 IEnMin= 4 EnMin= -151.560057064485     IErMin= 4 ErrMin= 5.72D-07
 ErrMax= 5.72D-07 EMaxC= 1.00D-01 BMatC= 4.89D-11 BMatP= 6.01D-11
 IDIUse=1 WtCom= 1.00D+00 WtEn= 0.00D+00
 Coeff-Com:  0.257D-02-0.113D+00 0.520D+00 0.591D+00
 Coeff:      0.257D-02-0.113D+00 0.520D+00 0.591D+00
 Gap=     0.437 Goal=   None    Shift=    0.000
 RMSDP=3.30D-08 MaxDP=6.47D-07 DE=-9.75D-11 OVMax= 2.06D-06

 Cycle   5  Pass 1  IDiag  1:
 RMSU=  1.27D-08    CP:  1.00D+00  1.32D+00  1.41D+00  6.93D-01
 FoFJK:  IHMeth= 1 ICntrl=     0 DoSepK=T KAlg= 1 I1Cent= 0 FoldK=F
 E= -151.560057064525     Delta-E=       -0.000000000040 Rises=F Damp=F
 DIIS: error= 1.24D-07 at cycle   5 NSaved=   5.
 NSaved= 5 IEnMin= 5 EnMin= -151.560057064525     IErMin= 5 ErrMin= 1.24D-07
 ErrMax= 1.24D-07 EMaxC= 1.00D-01 BMatC= 2.85D-12 BMatP= 4.89D-11
 IDIUse=1 WtCom= 1.00D+00 WtEn= 0.00D+00
 Coeff-Com:  0.478D-02-0.440D-01-0.591D-01 0.157D+00 0.942D+00
 Coeff:      0.478D-02-0.440D-01-0.591D-01 0.157D+00 0.942D+00
 Gap=     0.437 Goal=   None    Shift=    0.000
 RMSDP=1.62D-08 MaxDP=3.15D-07 DE=-4.03D-11 OVMax= 1.31D-06

 Cycle   6  Pass 1  IDiag  1:
 RMSU=  4.00D-09    CP:  1.00D+00  1.33D+00  1.48D+00  8.57D-01  1.31D+00
 FoFJK:  IHMeth= 1 ICntrl=     0 DoSepK=T KAlg= 1 I1Cent= 0 FoldK=F
 E= -151.560057064531     Delta-E=       -0.000000000006 Rises=F Damp=F
 DIIS: error= 2.92D-08 at cycle   6 NSaved=   6.
 NSaved= 6 IEnMin= 6 EnMin= -151.560057064531     IErMin= 6 ErrMin= 2.92D-08
 ErrMax= 2.92D-08 EMaxC= 1.00D-01 BMatC= 1.13D-13 BMatP= 2.85D-12
 IDIUse=1 WtCom= 1.00D+00 WtEn= 0.00D+00
 Coeff-Com: -0.744D-03 0.139D-01-0.349D-01-0.550D-01-0.638D-01 0.114D+01
 Coeff:     -0.744D-03 0.139D-01-0.349D-01-0.550D-01-0.638D-01 0.114D+01
 Gap=     0.437 Goal=   None    Shift=    0.000
 RMSDP=5.49D-09 MaxDP=1.27D-07 DE=-5.80D-12 OVMax= 4.83D-07

 SCF Done:  E(RwB97XD) =  -151.560057065     A.U. after    6 cycles
             Convg  =    0.5486D-08             -V/T =  2.0061
 KE= 1.506468138750D+02 PE=-4.316955730982D+02 EE= 9.285680426754D+01
 Leave Link  502 at Mon May  4 12:44:25 2020, MaxMem= 1073741824 cpu:      43.9
 (Enter /home/matheus/.gaussian/g09/l122.exe)
 Restoring MOs from calculation   5 to rwf.
 Counterpoise: doing MCBS calculation for fragment   2
 Leave Link  122 at Mon May  4 12:44:25 2020, MaxMem= 1073741824 cpu:       0.0
 (Enter /home/matheus/.gaussian/g09/l301.exe)
 Basis read from rwf:  (5D, 7F)
 No pseudopotential information found on rwf file.
 There are    59 symmetry adapted basis functions of A   symmetry.
 Integral buffers will be    131072 words long.
 Raffenetti 2 integral format.
 Two-electron integral symmetry is turned on.
    59 basis functions,   217 primitive gaussians,    69 cartesian basis functions
    18 alpha electrons       18 beta electrons
       nuclear repulsion energy         0.0000000000 Hartrees.
 IExCor= 4639 DFT=T Ex+Corr=wB97XD ExCW=0 ScaHFX=  1.000000
 ScaDFX=  1.000000  1.000000  1.000000  1.000000 ScalE2=  1.000000  1.000000
 IRadAn=      5 IRanWt=     -1 IRanGd=            0 ICorTp=0
  HFx wShort=  0.000000 wLong=  0.250000 cFull=  0.222036 cShort=  0.000000 cLong=  0.777964
  DFx wShort=  0.000000 wLong=  0.250000 cFull=  0.000000 cShort=  0.000000 cLong=  1.000000
 NAtoms=    5 NActive=    1 NUniq=    1 SFac= 1.00D+00 NAtFMM=   60 NAOKFM=F Big=F
 R6Disp: Dispersion energy =         0.0000000000 Hartrees.
 Nuclear repulsion after empirical dispersion term =        0.0000000000 Hartrees.
 No density basis found on file   718.
 Leave Link  301 at Mon May  4 12:44:25 2020, MaxMem= 1073741824 cpu:       0.2
 (Enter /home/matheus/.gaussian/g09/l302.exe)
 NPDir=0 NMtPBC=     1 NCelOv=     1 NCel=       1 NClECP=     1 NCelD=      1
         NCelK=      1 NCelE2=     1 NClLst=     1 CellRange=     0.0.
 One-electron integrals computed using PRISM.
 NBasis=    59 RedAO= T  NBF=    59
 NBsUse=    59 1.00D-06 NBFU=    59
 Precomputing XC quadrature grid using
 IXCGrd= 2 IRadAn=           5 IRanWt=          -1 IRanGd=           0 AccXCQ= 0.00D+00.
 NRdTot=      81 NPtTot=       30352 NUsed=       30981 NTot=       31013
 NSgBfM=    69    69    69    69    69 NAtAll=     1     1.
 Leave Link  302 at Mon May  4 12:44:25 2020, MaxMem= 1073741824 cpu:       0.6
 (Enter /home/matheus/.gaussian/g09/l303.exe)
 DipDrv:  MaxL=1.
 Leave Link  303 at Mon May  4 12:44:25 2020, MaxMem= 1073741824 cpu:       0.1
 (Enter /home/matheus/.gaussian/g09/l401.exe)
 Initial guess read from the read-write file.
 Guess basis will be translated and rotated to current coordinates.
 Initial guess orbital symmetries:
       Occupied  (A) (A) (A) (A) (A) (A) (A) (A) (A) (A) (A) (A)
                 (A) (A) (A) (A) (A) (A)
       Virtual   (A) (A) (A) (A) (A) (A) (A) (A) (A) (A) (A) (A)
                 (A) (A) (A) (A) (A) (A) (A) (A) (A) (A) (A) (A)
                 (A) (A) (A) (A) (A) (A) (A) (A) (A) (A) (A) (A)
                 (A) (A) (A) (A) (A)
 The electronic state of the initial guess is 1-A.
 Generating alternative initial guess.
 Harris functional with IExCor= 4639 diagonalized for initial guess.
 ExpMin= 4.00D-02 ExpMax= 1.17D+07 ExpMxC= 1.33D+04 IAcc=3 IRadAn=         5 AccDes= 0.00D+00
 HarFok:  IExCor= 4639 AccDes= 0.00D+00 IRadAn=         5 IDoV= 1
 ScaDFX=  1.000000  1.000000  1.000000  1.000000
 FoFCou: FMM=F IPFlag=           0 FMFlag=      100000 FMFlg1=           0
         NFxFlg=           0 DoJE=T BraDBF=F KetDBF=T FulRan=T
         Omega=  0.000000  0.000000  1.000000  0.000000  0.000000 ICntrl=     500 IOpCl=  0
         NMat0=    1 NMatS0=    1 NMatT0=    0 NMatD0=    1 NMtDS0=    0 NMtDT0=    0
         I1Cent=           4 NGrid=           0.
 Petite list used in FoFCou.
 Harris En= -2729.45839233129    
 Leave Link  401 at Mon May  4 12:44:25 2020, MaxMem= 1073741824 cpu:       1.0
 (Enter /home/matheus/.gaussian/g09/l502.exe)
 Closed shell SCF:
 Requested convergence on RMS density matrix=1.00D-08 within 128 cycles.
 Requested convergence on MAX density matrix=1.00D-06.
 Requested convergence on             energy=1.00D-06.
 No special actions if energy rises.
 Using DIIS extrapolation, IDIIS=  1040.
 Integral symmetry usage will be decided dynamically.
        30923 words used for storage of precomputed grid.
 IEnd=       64406 IEndB=       64406 NGot=  1073741824 MDV=  1073698889
 LenX=  1073698889 LenY=  1073693687
 Fock matrices will be formed incrementally for  20 cycles.

 Cycle   1  Pass 1  IDiag  1:
 FoFJK:  IHMeth= 1 ICntrl=     0 DoSepK=T KAlg= 1 I1Cent= 0 FoldK=F
 FoFCou: FMM=F IPFlag=           0 FMFlag=      100000 FMFlg1=           0
         NFxFlg=           0 DoJE=T BraDBF=F KetDBF=F FulRan=T
         Omega=  0.000000  0.000000  1.000000  0.000000  0.000000 ICntrl=     500 IOpCl=  0
         NMat0=    1 NMatS0=    1 NMatT0=    0 NMatD0=    1 NMtDS0=    0 NMtDT0=    0
         I1Cent=           0 NGrid=           0.
 Symmetry not used in FoFCou.
 E= -2753.87011063501    
 DIIS: error= 1.06D-13 at cycle   1 NSaved=   1.
 NSaved= 1 IEnMin= 1 EnMin= -2753.87011063501     IErMin= 1 ErrMin= 1.06D-13
 ErrMax= 1.06D-13 EMaxC= 1.00D-01 BMatC= 3.95D-25 BMatP= 3.95D-25
 IDIUse=1 WtCom= 1.00D+00 WtEn= 0.00D+00
 Coeff-Com:  0.100D+01
 Coeff:      0.100D+01
 Gap=     0.578 Goal=   None    Shift=    0.000
 DSYEVD returned Info=          89 IAlg= 4 N=    59 NDim=    59 NE2=    18198197 trying DSYEV.
 RMSDP=7.71D-15 MaxDP=1.11D-13              OVMax= 6.14D-14

 SCF Done:  E(RwB97XD) =  -2753.87011064     A.U. after    1 cycles
             Convg  =    0.7711D-14             -V/T =  2.0013
 KE= 2.750289370128D+03 PE=-6.580200885036D+03 EE= 1.076041404273D+03
 Leave Link  502 at Mon May  4 12:44:27 2020, MaxMem= 1073741824 cpu:      11.2
 (Enter /home/matheus/.gaussian/g09/l122.exe)
 Restoring MOs from calculation   1 to rwf.
 Counterpoise: corrected energy =   -2905.430505378682
 Counterpoise: BSSE energy =       0.000019787254
 Leave Link  122 at Mon May  4 12:44:27 2020, MaxMem= 1073741824 cpu:       0.0
 (Enter /home/matheus/.gaussian/g09/l108.exe)
 Scan completed.

 Summary of the potential surface scan:
   N      R1          SCF    
 ----  ---------  -----------
    1     3.0000  -2753.87011
    2     3.1000  -2753.87011
    3     3.2000  -2753.87011
    4     3.3000  -2753.87011
    5     3.4000  -2753.87011
    6     3.5000  -2753.87011
    7     3.6000  -2753.87011
    8     3.7000  -2753.87011
    9     3.8000  -2753.87011
   10     3.9000  -2753.87011
   11     4.0000  -2753.87011
   12     4.1000  -2753.87011
   13     4.2000  -2753.87011
   14     4.3000  -2753.87011
   15     4.4000  -2753.87011
   16     4.5000  -2753.87011
   17     4.6000  -2753.87011
   18     4.7000  -2753.87011
   19     4.8000  -2753.87011
   20     4.9000  -2753.87011
   21     5.0000  -2753.87011
 ----  ---------  -----------
  
 Leave Link  108 at Mon May  4 12:44:27 2020, MaxMem= 1073741824 cpu:       0.0
 (Enter /home/matheus/.gaussian/g09/l9999.exe)

 Test job not archived.
 1\1\GINC-REDGIANT\Scan\RwB97XD\Aug-CC-pVTZ\H2Kr1O2\ROOT\04-May-2020\1\
 \#p wb97xd/aug-cc-PVTz iop(3/107=0250000000) iop(3/108=0250000000) int
 =ultrafine counterpoise=2 Scan\\TCC\\0,1\O,0,0.,0.,0.725\O,0,0.,0.,-0.
 725\H,0,-0.9047631646,0.1595341571,1.0235104166\H,0,0.,0.9187205947,-1
 .0235104166\Kr,0,0.,R1,0.\\R1=3.,s,20,0.1\\Version=EM64L-G09RevC.01\St
 ate=1-A\HF=-2753.8701106,-2753.8701106,-2753.8701106,-2753.8701106,-27
 53.8701106,-2753.8701106,-2753.8701106,-2753.8701106,-2753.8701106,-27
 53.8701106,-2753.8701106,-2753.8701106,-2753.8701106,-2753.8701106,-27
 53.8701106,-2753.8701106,-2753.8701106,-2753.8701106,-2753.8701106,-27
 53.8701106,-2753.8701106\RMSD=9.654e-09,1.848e-10,5.406e-11,3.458e-11,
 1.948e-11,1.188e-11,7.096e-12,4.283e-12,2.571e-12,1.542e-12,9.249e-13,
 5.553e-13,3.342e-13,2.025e-13,1.207e-13,7.408e-14,4.895e-14,3.221e-14,
 1.699e-14,1.484e-14,7.711e-15\PG=C01 [X(H2Kr1O2)]\\@


 YOU CAN WIPE THE SLATE CLEAN, BUT YOU'LL STILL
 HAVE TO EAT A LITTLE CHALK DUST.
 Job cpu time:  0 days  3 hours 13 minutes 47.5 seconds.
 File lengths (MBytes):  RWF=     33 Int=      0 D2E=      0 Chk=      8 Scr=      1
 Normal termination of Gaussian 09 at Mon May  4 12:44:27 2020.
