 Entering Gaussian System, Link 0=g09
 Input=/home/matheus/.tcc/Inputs-wb97xd/H2O2-Kr_35.com
 Output=/home/matheus/.tcc/Logs-wb97xd/H2O2-Kr_35.log
 Initial command:
 /home/matheus/.gaussian/g09/l1.exe /home/matheus/.gaussian/g09/scratch/Gau-17580.inp -scrdir=/home/matheus/.gaussian/g09/scratch/
 Entering Link 1 = /home/matheus/.gaussian/g09/l1.exe PID=     17583.
  
 Copyright (c) 1988,1990,1992,1993,1995,1998,2003,2009,2011,
            Gaussian, Inc.  All Rights Reserved.
  
 This is part of the Gaussian(R) 09 program.  It is based on
 the Gaussian(R) 03 system (copyright 2003, Gaussian, Inc.),
 the Gaussian(R) 98 system (copyright 1998, Gaussian, Inc.),
 the Gaussian(R) 94 system (copyright 1995, Gaussian, Inc.),
 the Gaussian 92(TM) system (copyright 1992, Gaussian, Inc.),
 the Gaussian 90(TM) system (copyright 1990, Gaussian, Inc.),
 the Gaussian 88(TM) system (copyright 1988, Gaussian, Inc.),
 the Gaussian 86(TM) system (copyright 1986, Carnegie Mellon
 University), and the Gaussian 82(TM) system (copyright 1983,
 Carnegie Mellon University). Gaussian is a federally registered
 trademark of Gaussian, Inc.
  
 This software contains proprietary and confidential information,
 including trade secrets, belonging to Gaussian, Inc.
  
 This software is provided under written license and may be
 used, copied, transmitted, or stored only in accord with that
 written license.
  
 The following legend is applicable only to US Government
 contracts under FAR:
  
                    RESTRICTED RIGHTS LEGEND
  
 Use, reproduction and disclosure by the US Government is
 subject to restrictions as set forth in subparagraphs (a)
 and (c) of the Commercial Computer Software - Restricted
 Rights clause in FAR 52.227-19.
  
 Gaussian, Inc.
 340 Quinnipiac St., Bldg. 40, Wallingford CT 06492
  
  
 ---------------------------------------------------------------
 Warning -- This program may not be used in any manner that
 competes with the business of Gaussian, Inc. or will provide
 assistance to any competitor of Gaussian, Inc.  The licensee
 of this program is prohibited from giving any competitor of
 Gaussian, Inc. access to this program.  By using this program,
 the user acknowledges that Gaussian, Inc. is engaged in the
 business of creating and licensing software in the field of
 computational chemistry and represents and warrants to the
 licensee that it is not a competitor of Gaussian, Inc. and that
 it will not use this program in any manner prohibited above.
 ---------------------------------------------------------------
  

 Cite this work as:
 Gaussian 09, Revision C.01,
 M. J. Frisch, G. W. Trucks, H. B. Schlegel, G. E. Scuseria, 
 M. A. Robb, J. R. Cheeseman, G. Scalmani, V. Barone, B. Mennucci, 
 G. A. Petersson, H. Nakatsuji, M. Caricato, X. Li, H. P. Hratchian, 
 A. F. Izmaylov, J. Bloino, G. Zheng, J. L. Sonnenberg, M. Hada, 
 M. Ehara, K. Toyota, R. Fukuda, J. Hasegawa, M. Ishida, T. Nakajima, 
 Y. Honda, O. Kitao, H. Nakai, T. Vreven, J. A. Montgomery, Jr., 
 J. E. Peralta, F. Ogliaro, M. Bearpark, J. J. Heyd, E. Brothers, 
 K. N. Kudin, V. N. Staroverov, T. Keith, R. Kobayashi, J. Normand, 
 K. Raghavachari, A. Rendell, J. C. Burant, S. S. Iyengar, J. Tomasi, 
 M. Cossi, N. Rega, J. M. Millam, M. Klene, J. E. Knox, J. B. Cross, 
 V. Bakken, C. Adamo, J. Jaramillo, R. Gomperts, R. E. Stratmann, 
 O. Yazyev, A. J. Austin, R. Cammi, C. Pomelli, J. W. Ochterski, 
 R. L. Martin, K. Morokuma, V. G. Zakrzewski, G. A. Voth, 
 P. Salvador, J. J. Dannenberg, S. Dapprich, A. D. Daniels, 
 O. Farkas, J. B. Foresman, J. V. Ortiz, J. Cioslowski, 
 and D. J. Fox, Gaussian, Inc., Wallingford CT, 2010.
 
 ******************************************
 Gaussian 09:  EM64L-G09RevC.01 23-Sep-2011
                 4-May-2020 
 ******************************************
 %mem=8GB
 %nproc=8
 Will use up to    8 processors via shared memory.
 ----------------------------------------------------------------------
 #p wb97xd/aug-cc-PVTz iop(3/107=0250000000) iop(3/108=0250000000) int=
 ultrafine counterpoise=2 Scan
 ----------------------------------------------------------------------
 1/38=1,60=1,62=2/1,8;
 2/12=2,17=6,18=5,29=3,40=1/2;
 1/38=1,53=5172,62=2/22;
 3/5=16,6=1,7=10,11=2,16=1,25=1,30=1,74=-58,75=-5,107=250000000,108=250000000/1,2,3;
 4//1;
 5/5=2,38=5/2;
 6/7=2,8=2,9=2,10=2,18=1,28=1/1;
 1/53=4052,62=2,63=1/22;
 3/5=7,6=11,7=10,11=2,16=1,25=1,30=1,74=-58,75=-5,82=7,107=250000000,108=250000000/1,2,3;
 4//1;
 5/5=2,38=5/2;
 6/7=2,8=2,9=2,10=2,18=1,28=1/1;
 1/53=3042,62=2,63=2/22;
 3/5=7,6=11,7=10,11=2,16=1,25=1,30=1,74=-58,75=-5,82=7,107=250000000,108=250000000/1,2,3;
 4//1;
 5/5=2,38=5/2;
 6/7=2,8=2,9=2,10=2,18=1,28=1/1;
 1/53=2032,62=2,63=3/22;
 3/5=7,6=11,7=10,11=2,16=1,25=1,30=1,74=-58,75=-5,82=7,107=250000000,108=250000000/1,2,3;
 4//1;
 5/5=2,38=5/2;
 6/7=2,8=2,9=2,10=2,18=1,28=1/1;
 1/53=1022,62=2,63=4/22;
 3/5=7,6=11,7=10,11=2,16=1,25=1,30=1,74=-58,75=-5,82=7,107=250000000,108=250000000/1,2,3;
 4//1;
 5/5=2,38=5/2;
 6/7=2,8=2,9=2,10=2,18=1,28=1/1;
 1/53=5014,62=2,63=5/22;
 1/60=1,62=2/8(1);
 99/9=1/99;
 2/29=3/2;
 1/53=5173,62=2/22;
 3/5=7,6=11,7=10,11=2,16=1,25=1,30=1,74=-58,75=-5,82=7,107=250000000,108=250000000/1,2,3;
 4/5=5,16=3/1;
 5/5=2,38=5/2;
 1/53=4053,62=2,63=1/22;
 3/5=7,6=11,7=10,11=2,16=1,25=1,30=1,74=-58,75=-5,82=7,107=250000000,108=250000000/1,2,3;
 4/5=5,16=3/1;
 5/5=2,38=5/2;
 1/53=3043,62=2,63=2/22;
 3/5=7,6=11,7=10,11=2,16=1,25=1,30=1,74=-58,75=-5,82=7,107=250000000,108=250000000/1,2,3;
 4/5=5,16=3/1;
 5/5=2,38=5/2;
 1/53=2033,62=2,63=3/22;
 3/5=7,6=11,7=10,11=2,16=1,25=1,30=1,74=-58,75=-5,82=7,107=250000000,108=250000000/1,2,3;
 4/5=5,16=3/1;
 5/5=2,38=5/2;
 1/53=1024,62=2,63=4/22;
 3/5=7,6=11,7=10,11=2,16=1,25=1,30=1,74=-58,75=-5,82=7,107=250000000,108=250000000/1,2,3;
 4/5=5,16=3/1;
 5/5=2,38=5/2;
 1/53=5014,62=2,63=5/22;
 1/60=1,62=2/8(-22);
 99/9=1/99;
 Leave Link    1 at Mon May  4 15:25:42 2020, MaxMem= 1073741824 cpu:       0.2
 (Enter /home/matheus/.gaussian/g09/l101.exe)
 ---
 TCC
 ---
 Charge =  0 Multiplicity = 1 in supermolecule
 Charge =  0 Multiplicity = 1 in fragment  1.
 Charge =  0 Multiplicity = 1 in fragment  2.
 Symbolic Z-Matrix:
 O(Fragment=1)         0.        0.        0.725 
 O(Fragment=1)         0.        0.       -0.725 
 H(Fragment=1)        -0.15953   0.90476   1.02351 
 H(Fragment=1)         0.        0.91872  -1.02351 
 Kr(Fragment=2)        0.       R1        0. 
       Variables:
  R1                    3.     Scan 20    0.1    
 
 NAtoms=      5 NQM=        0 NQMF=       0 NMMI=      5 NMMIF=      0
                NMic=       0 NMicF=      0.
                    Isotopes and Nuclear Properties:
 (Nuclear quadrupole moments (NQMom) in fm**2, nuclear magnetic moments (NMagM)
  in nuclear magnetons)

  Atom         1           2           3           4           5
 IAtWgt=          16          16           1           1          84
 AtmWgt=  15.9949146  15.9949146   1.0078250   1.0078250  83.9115064
 NucSpn=           0           0           1           1           0
 AtZEff=   0.0000000   0.0000000   0.0000000   0.0000000   0.0000000
 NQMom=    0.0000000   0.0000000   0.0000000   0.0000000   0.0000000
 NMagM=    0.0000000   0.0000000   2.7928460   2.7928460   0.0000000
 Leave Link  101 at Mon May  4 15:25:42 2020, MaxMem= 1073741824 cpu:       0.4
 (Enter /home/matheus/.gaussian/g09/l108.exe)
 Scan the potential surface.
 Variable   Value     No. Steps Step-Size
 -------- ----------- --------- ---------
     1       3.000000      20      0.1000
 A total of     21 points will be computed.
 Leave Link  108 at Mon May  4 15:25:42 2020, MaxMem= 1073741824 cpu:       0.0
 (Enter /home/matheus/.gaussian/g09/l202.exe)
 ---------------------------------------------------------------------------------------------------
                            Z-MATRIX (ANGSTROMS AND DEGREES)
   CD    Cent   Atom    N1       Length/X        N2       Alpha/Y        N3        Beta/Z          J
 ---------------------------------------------------------------------------------------------------
      1      1  O        0   0.000000          0.000000          0.725000
      2      2  O        0   0.000000          0.000000         -0.725000
      3      3  H        0  -0.159534          0.904763          1.023510
      4      4  H        0   0.000000          0.918721         -1.023510
      5      5  Kr       0   0.000000          3.000000          0.000000
 ---------------------------------------------------------------------------------------------------
                         Z-Matrix orientation:                         
 ---------------------------------------------------------------------
 Center     Atomic      Atomic             Coordinates (Angstroms)
 Number     Number       Type             X           Y           Z
 ---------------------------------------------------------------------
      1          8           0        0.000000    0.000000    0.725000
      2          8           0        0.000000    0.000000   -0.725000
      3          1           0       -0.159534    0.904763    1.023510
      4          1           0        0.000000    0.918721   -1.023510
      5         36           0        0.000000    3.000000    0.000000
 ---------------------------------------------------------------------
                    Distance matrix (angstroms):
                    1          2          3          4          5
     1  O    0.000000
     2  O    1.450000   0.000000
     3  H    0.966000   1.975180   0.000000
     4  H    1.975180   0.966000   2.053275   0.000000
     5  Kr   3.086361   3.086361   2.337315   2.319331   0.000000
 Stoichiometry    H2KrO2
 Framework group  C1[X(H2KrO2)]
 Deg. of freedom     9
 Full point group                 C1      NOp   1
 Largest Abelian subgroup         C1      NOp   1
 Largest concise Abelian subgroup C1      NOp   1
                         Standard orientation:                         
 ---------------------------------------------------------------------
 Center     Atomic      Atomic             Coordinates (Angstroms)
 Number     Number       Type             X           Y           Z
 ---------------------------------------------------------------------
      1          8           0       -2.033875   -0.724487   -0.017820
      2          8           0       -2.033645    0.725337    0.004759
      3          1           0       -1.129442   -1.025614    0.138637
      4          1           0       -1.114878    1.023640    0.011023
      5         36           0        0.966235   -0.000134   -0.001255
 ---------------------------------------------------------------------
 Rotational constants (GHZ):     26.6670558      2.3882151      2.1923671
 Leave Link  202 at Mon May  4 15:25:42 2020, MaxMem= 1073741824 cpu:       0.0
 (Enter /home/matheus/.gaussian/g09/l122.exe)
 Leave Link  122 at Mon May  4 15:25:42 2020, MaxMem= 1073741824 cpu:       0.0
 (Enter /home/matheus/.gaussian/g09/l301.exe)
 Standard basis: Aug-CC-pVTZ (5D, 7F)
 Ernie: Thresh=  0.10000D-02 Tol=  0.10000D-05 Strict=F.
 Ernie:  38 primitive shells out of 205 were deleted.
 There are   197 symmetry adapted basis functions of A   symmetry.
 Integral buffers will be    131072 words long.
 Raffenetti 2 integral format.
 Two-electron integral symmetry is turned on.
   197 basis functions,   415 primitive gaussians,   229 cartesian basis functions
    27 alpha electrons       27 beta electrons
       nuclear repulsion energy       151.7892858201 Hartrees.
 IExCor= 4639 DFT=T Ex+Corr=wB97XD ExCW=0 ScaHFX=  1.000000
 ScaDFX=  1.000000  1.000000  1.000000  1.000000 ScalE2=  1.000000  1.000000
 IRadAn=      5 IRanWt=     -1 IRanGd=            0 ICorTp=0
  HFx wShort=  0.000000 wLong=  0.250000 cFull=  0.222036 cShort=  0.000000 cLong=  0.777964
  DFx wShort=  0.000000 wLong=  0.250000 cFull=  0.000000 cShort=  0.000000 cLong=  1.000000
 NAtoms=    5 NActive=    5 NUniq=    5 SFac= 1.00D+00 NAtFMM=   60 NAOKFM=F Big=F
 R6Disp: Dispersion energy =        -0.0007570347 Hartrees.
 Nuclear repulsion after empirical dispersion term =      151.7885287854 Hartrees.
 Leave Link  301 at Mon May  4 15:25:42 2020, MaxMem= 1073741824 cpu:       0.2
 (Enter /home/matheus/.gaussian/g09/l302.exe)
 NPDir=0 NMtPBC=     1 NCelOv=     1 NCel=       1 NClECP=     1 NCelD=      1
         NCelK=      1 NCelE2=     1 NClLst=     1 CellRange=     0.0.
 One-electron integrals computed using PRISM.
 NBasis=   197 RedAO= T  NBF=   197
 NBsUse=   197 1.00D-06 NBFU=   197
 Precomputing XC quadrature grid using
 IXCGrd= 2 IRadAn=           5 IRanWt=          -1 IRanGd=           0 AccXCQ= 0.00D+00.
 NRdTot=     427 NPtTot=      123512 NUsed=      126579 NTot=      126611
 NSgBfM=   229   229   229   229   229 NAtAll=     5     5.
 Leave Link  302 at Mon May  4 15:25:42 2020, MaxMem= 1073741824 cpu:       1.0
 (Enter /home/matheus/.gaussian/g09/l303.exe)
 DipDrv:  MaxL=1.
 Leave Link  303 at Mon May  4 15:25:42 2020, MaxMem= 1073741824 cpu:       0.2
 (Enter /home/matheus/.gaussian/g09/l401.exe)
 Harris functional with IExCor= 4639 diagonalized for initial guess.
 ExpMin= 2.53D-02 ExpMax= 1.17D+07 ExpMxC= 1.33D+04 IAcc=3 IRadAn=         5 AccDes= 0.00D+00
 HarFok:  IExCor= 4639 AccDes= 0.00D+00 IRadAn=         5 IDoV= 1
 ScaDFX=  1.000000  1.000000  1.000000  1.000000
 FoFCou: FMM=F IPFlag=           0 FMFlag=      100000 FMFlg1=           0
         NFxFlg=           0 DoJE=T BraDBF=F KetDBF=T FulRan=T
         Omega=  0.000000  0.000000  1.000000  0.000000  0.000000 ICntrl=     500 IOpCl=  0
         NMat0=    1 NMatS0=    1 NMatT0=    0 NMatD0=    1 NMtDS0=    0 NMtDT0=    0
         I1Cent=           4 NGrid=           0.
 Petite list used in FoFCou.
 Harris En= -2875.38633007773    
 Initial guess orbital symmetries:
       Occupied  (A) (A) (A) (A) (A) (A) (A) (A) (A) (A) (A) (A)
                 (A) (A) (A) (A) (A) (A) (A) (A) (A) (A) (A) (A)
                 (A) (A) (A)
       Virtual   (A) (A) (A) (A) (A) (A) (A) (A) (A) (A) (A) (A)
                 (A) (A) (A) (A) (A) (A) (A) (A) (A) (A) (A) (A)
                 (A) (A) (A) (A) (A) (A) (A) (A) (A) (A) (A) (A)
                 (A) (A) (A) (A) (A) (A) (A) (A) (A) (A) (A) (A)
                 (A) (A) (A) (A) (A) (A) (A) (A) (A) (A) (A) (A)
                 (A) (A) (A) (A) (A) (A) (A) (A) (A) (A) (A) (A)
                 (A) (A) (A) (A) (A) (A) (A) (A) (A) (A) (A) (A)
                 (A) (A) (A) (A) (A) (A) (A) (A) (A) (A) (A) (A)
                 (A) (A) (A) (A) (A) (A) (A) (A) (A) (A) (A) (A)
                 (A) (A) (A) (A) (A) (A) (A) (A) (A) (A) (A) (A)
                 (A) (A) (A) (A) (A) (A) (A) (A) (A) (A) (A) (A)
                 (A) (A) (A) (A) (A) (A) (A) (A) (A) (A) (A) (A)
                 (A) (A) (A) (A) (A) (A) (A) (A) (A) (A) (A) (A)
                 (A) (A) (A) (A) (A) (A) (A) (A) (A) (A) (A) (A)
                 (A) (A)
 The electronic state of the initial guess is 1-A.
 Leave Link  401 at Mon May  4 15:25:42 2020, MaxMem= 1073741824 cpu:       4.2
 (Enter /home/matheus/.gaussian/g09/l502.exe)
 Closed shell SCF:
 Requested convergence on RMS density matrix=1.00D-08 within 128 cycles.
 Requested convergence on MAX density matrix=1.00D-06.
 Requested convergence on             energy=1.00D-06.
 No special actions if energy rises.
 Using DIIS extrapolation, IDIIS=  1040.
 Integral symmetry usage will be decided dynamically.
       126521 words used for storage of precomputed grid.
 IEnd=      305468 IEndB=      305468 NGot=  1073741824 MDV=  1073505667
 LenX=  1073505667 LenY=  1073452785
 Fock matrices will be formed incrementally for  20 cycles.

 Cycle   1  Pass 1  IDiag  1:
 FoFJK:  IHMeth= 1 ICntrl=     0 DoSepK=T KAlg= 1 I1Cent= 0 FoldK=F
 FoFCou: FMM=F IPFlag=           0 FMFlag=      100000 FMFlg1=           0
         NFxFlg=           0 DoJE=T BraDBF=F KetDBF=F FulRan=T
         Omega=  0.000000  0.000000  1.000000  0.000000  0.000000 ICntrl=     500 IOpCl=  0
         NMat0=    1 NMatS0=    1 NMatT0=    0 NMatD0=    1 NMtDS0=    0 NMtDT0=    0
         I1Cent=           0 NGrid=           0.
 Symmetry not used in FoFCou.
 E= -2904.88683379073    
 DIIS: error= 9.64D-02 at cycle   1 NSaved=   1.
 NSaved= 1 IEnMin= 1 EnMin= -2904.88683379073     IErMin= 1 ErrMin= 9.64D-02
 ErrMax= 9.64D-02 EMaxC= 1.00D-01 BMatC= 2.24D+00 BMatP= 2.24D+00
 IDIUse=3 WtCom= 3.56D-02 WtEn= 9.64D-01
 Coeff-Com:  0.100D+01
 Coeff-En:   0.100D+01
 Coeff:      0.100D+01
 Gap=     0.516 Goal=   None    Shift=    0.000
 GapD=    0.516 DampG=2.000 DampE=0.500 DampFc=1.0000 IDamp=-1.
 RMSDP=6.49D-03 MaxDP=3.79D-01              OVMax= 1.89D-01

 Cycle   2  Pass 1  IDiag  1:
 RMSU=  4.57D-03    CP:  1.02D+00
 FoFJK:  IHMeth= 1 ICntrl=     0 DoSepK=T KAlg= 1 I1Cent= 0 FoldK=F
 E= -2905.21742380736     Delta-E=       -0.330590016622 Rises=F Damp=F
 DIIS: error= 3.69D-02 at cycle   2 NSaved=   2.
 NSaved= 2 IEnMin= 2 EnMin= -2905.21742380736     IErMin= 2 ErrMin= 3.69D-02
 ErrMax= 3.69D-02 EMaxC= 1.00D-01 BMatC= 5.67D-01 BMatP= 2.24D+00
 IDIUse=3 WtCom= 6.31D-01 WtEn= 3.69D-01
 Coeff-Com:  0.327D+00 0.673D+00
 Coeff-En:   0.186D+00 0.814D+00
 Coeff:      0.275D+00 0.725D+00
 Gap=     0.466 Goal=   None    Shift=    0.000
 RMSDP=2.84D-03 MaxDP=1.65D-01 DE=-3.31D-01 OVMax= 7.69D-02

 Cycle   3  Pass 1  IDiag  1:
 RMSU=  5.91D-04    CP:  1.01D+00  5.81D-01
 FoFJK:  IHMeth= 1 ICntrl=     0 DoSepK=T KAlg= 1 I1Cent= 0 FoldK=F
 E= -2905.40743464802     Delta-E=       -0.190010840661 Rises=F Damp=F
 DIIS: error= 9.17D-03 at cycle   3 NSaved=   3.
 NSaved= 3 IEnMin= 3 EnMin= -2905.40743464802     IErMin= 3 ErrMin= 9.17D-03
 ErrMax= 9.17D-03 EMaxC= 1.00D-01 BMatC= 2.11D-02 BMatP= 5.67D-01
 IDIUse=3 WtCom= 9.08D-01 WtEn= 9.17D-02
 Coeff-Com:  0.289D-01 0.192D+00 0.779D+00
 Coeff-En:   0.000D+00 0.000D+00 0.100D+01
 Coeff:      0.263D-01 0.175D+00 0.799D+00
 Gap=     0.418 Goal=   None    Shift=    0.000
 RMSDP=5.48D-04 MaxDP=1.63D-02 DE=-1.90D-01 OVMax= 2.67D-02

 Cycle   4  Pass 1  IDiag  1:
 RMSU=  2.43D-04    CP:  1.01D+00  6.46D-01  9.29D-01
 FoFJK:  IHMeth= 1 ICntrl=     0 DoSepK=T KAlg= 1 I1Cent= 0 FoldK=F
 E= -2905.41646489243     Delta-E=       -0.009030244415 Rises=F Damp=F
 DIIS: error= 3.42D-03 at cycle   4 NSaved=   4.
 NSaved= 4 IEnMin= 4 EnMin= -2905.41646489243     IErMin= 4 ErrMin= 3.42D-03
 ErrMax= 3.42D-03 EMaxC= 1.00D-01 BMatC= 1.86D-03 BMatP= 2.11D-02
 IDIUse=3 WtCom= 9.66D-01 WtEn= 3.42D-02
 Coeff-Com: -0.309D-02 0.525D-01 0.379D+00 0.572D+00
 Coeff-En:   0.000D+00 0.000D+00 0.000D+00 0.100D+01
 Coeff:     -0.299D-02 0.507D-01 0.366D+00 0.586D+00
 Gap=     0.401 Goal=   None    Shift=    0.000
 RMSDP=1.36D-04 MaxDP=5.92D-03 DE=-9.03D-03 OVMax= 7.73D-03

 Cycle   5  Pass 1  IDiag  1:
 RMSU=  4.21D-05    CP:  1.01D+00  6.42D-01  9.62D-01  6.69D-01
 FoFJK:  IHMeth= 1 ICntrl=     0 DoSepK=T KAlg= 1 I1Cent= 0 FoldK=F
 E= -2905.41763269696     Delta-E=       -0.001167804527 Rises=F Damp=F
 DIIS: error= 1.22D-04 at cycle   5 NSaved=   5.
 NSaved= 5 IEnMin= 5 EnMin= -2905.41763269696     IErMin= 5 ErrMin= 1.22D-04
 ErrMax= 1.22D-04 EMaxC= 1.00D-01 BMatC= 4.60D-06 BMatP= 1.86D-03
 IDIUse=3 WtCom= 9.99D-01 WtEn= 1.22D-03
 Coeff-Com: -0.610D-03-0.629D-02-0.256D-01-0.913D-02 0.104D+01
 Coeff-En:   0.000D+00 0.000D+00 0.000D+00 0.000D+00 0.100D+01
 Coeff:     -0.609D-03-0.629D-02-0.255D-01-0.912D-02 0.104D+01
 Gap=     0.402 Goal=   None    Shift=    0.000
 RMSDP=2.28D-05 MaxDP=7.68D-04 DE=-1.17D-03 OVMax= 1.36D-03

 Cycle   6  Pass 1  IDiag  1:
 RMSU=  6.18D-06    CP:  1.01D+00  6.41D-01  9.76D-01  6.91D-01  1.26D+00
 FoFJK:  IHMeth= 1 ICntrl=     0 DoSepK=T KAlg= 1 I1Cent= 0 FoldK=F
 E= -2905.41764033848     Delta-E=       -0.000007641516 Rises=F Damp=F
 DIIS: error= 5.40D-05 at cycle   6 NSaved=   6.
 NSaved= 6 IEnMin= 6 EnMin= -2905.41764033848     IErMin= 6 ErrMin= 5.40D-05
 ErrMax= 5.40D-05 EMaxC= 1.00D-01 BMatC= 3.78D-07 BMatP= 4.60D-06
 IDIUse=1 WtCom= 1.00D+00 WtEn= 0.00D+00
 Coeff-Com: -0.260D-04-0.330D-02-0.191D-01-0.234D-01 0.163D+00 0.883D+00
 Coeff:     -0.260D-04-0.330D-02-0.191D-01-0.234D-01 0.163D+00 0.883D+00
 Gap=     0.402 Goal=   None    Shift=    0.000
 RMSDP=5.24D-06 MaxDP=1.76D-04 DE=-7.64D-06 OVMax= 3.39D-04

 Cycle   7  Pass 1  IDiag  1:
 RMSU=  1.99D-06    CP:  1.01D+00  6.41D-01  9.79D-01  6.94D-01  1.32D+00
                    CP:  1.17D+00
 FoFJK:  IHMeth= 1 ICntrl=     0 DoSepK=T KAlg= 1 I1Cent= 0 FoldK=F
 E= -2905.41764086671     Delta-E=       -0.000000528231 Rises=F Damp=F
 DIIS: error= 2.71D-05 at cycle   7 NSaved=   7.
 NSaved= 7 IEnMin= 7 EnMin= -2905.41764086671     IErMin= 7 ErrMin= 2.71D-05
 ErrMax= 2.71D-05 EMaxC= 1.00D-01 BMatC= 1.27D-07 BMatP= 3.78D-07
 IDIUse=1 WtCom= 1.00D+00 WtEn= 0.00D+00
 Coeff-Com:  0.247D-04-0.112D-02-0.708D-02-0.102D-01 0.472D-02 0.393D+00
 Coeff-Com:  0.621D+00
 Coeff:      0.247D-04-0.112D-02-0.708D-02-0.102D-01 0.472D-02 0.393D+00
 Coeff:      0.621D+00
 Gap=     0.402 Goal=   None    Shift=    0.000
 RMSDP=1.54D-06 MaxDP=6.14D-05 DE=-5.28D-07 OVMax= 1.04D-04

 Cycle   8  Pass 1  IDiag  1:
 RMSU=  7.80D-07    CP:  1.01D+00  6.41D-01  9.79D-01  6.94D-01  1.34D+00
                    CP:  1.25D+00  9.39D-01
 FoFJK:  IHMeth= 1 ICntrl=     0 DoSepK=T KAlg= 1 I1Cent= 0 FoldK=F
 E= -2905.41764096551     Delta-E=       -0.000000098807 Rises=F Damp=F
 DIIS: error= 1.02D-05 at cycle   8 NSaved=   8.
 NSaved= 8 IEnMin= 8 EnMin= -2905.41764096551     IErMin= 8 ErrMin= 1.02D-05
 ErrMax= 1.02D-05 EMaxC= 1.00D-01 BMatC= 1.96D-08 BMatP= 1.27D-07
 IDIUse=1 WtCom= 1.00D+00 WtEn= 0.00D+00
 Coeff-Com:  0.187D-04 0.210D-03 0.906D-03 0.749D-04-0.360D-01-0.135D-01
 Coeff-Com:  0.280D+00 0.768D+00
 Coeff:      0.187D-04 0.210D-03 0.906D-03 0.749D-04-0.360D-01-0.135D-01
 Coeff:      0.280D+00 0.768D+00
 Gap=     0.402 Goal=   None    Shift=    0.000
 RMSDP=8.34D-07 MaxDP=2.85D-05 DE=-9.88D-08 OVMax= 5.87D-05

 Cycle   9  Pass 1  IDiag  1:
 RMSU=  2.86D-07    CP:  1.01D+00  6.41D-01  9.79D-01  6.94D-01  1.34D+00
                    CP:  1.29D+00  1.10D+00  1.04D+00
 FoFJK:  IHMeth= 1 ICntrl=     0 DoSepK=T KAlg= 1 I1Cent= 0 FoldK=F
 E= -2905.41764098617     Delta-E=       -0.000000020655 Rises=F Damp=F
 DIIS: error= 2.59D-06 at cycle   9 NSaved=   9.
 NSaved= 9 IEnMin= 9 EnMin= -2905.41764098617     IErMin= 9 ErrMin= 2.59D-06
 ErrMax= 2.59D-06 EMaxC= 1.00D-01 BMatC= 6.08D-10 BMatP= 1.96D-08
 IDIUse=1 WtCom= 1.00D+00 WtEn= 0.00D+00
 Coeff-Com: -0.655D-06 0.109D-03 0.645D-03 0.600D-03-0.184D-02-0.289D-01
 Coeff-Com: -0.416D-01 0.160D-01 0.106D+01
 Coeff:     -0.655D-06 0.109D-03 0.645D-03 0.600D-03-0.184D-02-0.289D-01
 Coeff:     -0.416D-01 0.160D-01 0.106D+01
 Gap=     0.402 Goal=   None    Shift=    0.000
 RMSDP=2.87D-07 MaxDP=8.43D-06 DE=-2.07D-08 OVMax= 2.61D-05

 Cycle  10  Pass 1  IDiag  1:
 RMSU=  7.97D-08    CP:  1.01D+00  6.41D-01  9.79D-01  6.93D-01  1.34D+00
                    CP:  1.30D+00  1.13D+00  1.15D+00  1.29D+00
 FoFJK:  IHMeth= 1 ICntrl=     0 DoSepK=T KAlg= 1 I1Cent= 0 FoldK=F
 E= -2905.41764098758     Delta-E=       -0.000000001411 Rises=F Damp=F
 DIIS: error= 6.36D-07 at cycle  10 NSaved=  10.
 NSaved=10 IEnMin=10 EnMin= -2905.41764098758     IErMin=10 ErrMin= 6.36D-07
 ErrMax= 6.36D-07 EMaxC= 1.00D-01 BMatC= 4.26D-11 BMatP= 6.08D-10
 IDIUse=1 WtCom= 1.00D+00 WtEn= 0.00D+00
 Coeff-Com: -0.112D-05-0.641D-05-0.195D-04 0.316D-04 0.291D-02 0.105D-02
 Coeff-Com: -0.295D-01-0.744D-01 0.123D+00 0.977D+00
 Coeff:     -0.112D-05-0.641D-05-0.195D-04 0.316D-04 0.291D-02 0.105D-02
 Coeff:     -0.295D-01-0.744D-01 0.123D+00 0.977D+00
 Gap=     0.402 Goal=   None    Shift=    0.000
 RMSDP=7.23D-08 MaxDP=1.98D-06 DE=-1.41D-09 OVMax= 7.52D-06

 Cycle  11  Pass 1  IDiag  1:
 RMSU=  1.97D-08    CP:  1.01D+00  6.41D-01  9.79D-01  6.93D-01  1.34D+00
                    CP:  1.30D+00  1.14D+00  1.17D+00  1.40D+00  1.21D+00
 FoFJK:  IHMeth= 1 ICntrl=     0 DoSepK=T KAlg= 1 I1Cent= 0 FoldK=F
 E= -2905.41764098770     Delta-E=       -0.000000000120 Rises=F Damp=F
 DIIS: error= 1.61D-07 at cycle  11 NSaved=  11.
 NSaved=11 IEnMin=11 EnMin= -2905.41764098770     IErMin=11 ErrMin= 1.61D-07
 ErrMax= 1.61D-07 EMaxC= 1.00D-01 BMatC= 2.66D-12 BMatP= 4.26D-11
 IDIUse=1 WtCom= 1.00D+00 WtEn= 0.00D+00
 Coeff-Com:  0.353D-06-0.513D-05-0.353D-04-0.185D-04-0.373D-03 0.201D-02
 Coeff-Com:  0.549D-02 0.542D-02-0.721D-01-0.116D+00 0.118D+01
 Coeff:      0.353D-06-0.513D-05-0.353D-04-0.185D-04-0.373D-03 0.201D-02
 Coeff:      0.549D-02 0.542D-02-0.721D-01-0.116D+00 0.118D+01
 Gap=     0.402 Goal=   None    Shift=    0.000
 RMSDP=1.95D-08 MaxDP=4.98D-07 DE=-1.20D-10 OVMax= 2.07D-06

 Cycle  12  Pass 1  IDiag  1:
 RMSU=  4.69D-09    CP:  1.01D+00  6.41D-01  9.79D-01  6.93D-01  1.34D+00
                    CP:  1.30D+00  1.13D+00  1.17D+00  1.42D+00  1.32D+00
                    CP:  1.32D+00
 FoFJK:  IHMeth= 1 ICntrl=     0 DoSepK=T KAlg= 1 I1Cent= 0 FoldK=F
 E= -2905.41764098771     Delta-E=       -0.000000000007 Rises=F Damp=F
 DIIS: error= 2.98D-08 at cycle  12 NSaved=  12.
 NSaved=12 IEnMin=12 EnMin= -2905.41764098771     IErMin=12 ErrMin= 2.98D-08
 ErrMax= 2.98D-08 EMaxC= 1.00D-01 BMatC= 7.95D-14 BMatP= 2.66D-12
 IDIUse=1 WtCom= 1.00D+00 WtEn= 0.00D+00
 Coeff-Com: -0.414D-07 0.745D-06 0.501D-05-0.436D-05-0.308D-04-0.262D-03
 Coeff-Com:  0.127D-03 0.142D-02 0.782D-02-0.560D-02-0.249D+00 0.125D+01
 Coeff:     -0.414D-07 0.745D-06 0.501D-05-0.436D-05-0.308D-04-0.262D-03
 Coeff:      0.127D-03 0.142D-02 0.782D-02-0.560D-02-0.249D+00 0.125D+01
 Gap=     0.402 Goal=   None    Shift=    0.000
 RMSDP=4.42D-09 MaxDP=1.67D-07 DE=-7.28D-12 OVMax= 3.70D-07

 SCF Done:  E(RwB97XD) =  -2905.41764099     A.U. after   12 cycles
             Convg  =    0.4417D-08             -V/T =  2.0015
 KE= 2.900966758108D+03 PE=-7.240837557846D+03 EE= 1.282664629964D+03
 Leave Link  502 at Mon May  4 15:26:21 2020, MaxMem= 1073741824 cpu:     310.7
 (Enter /home/matheus/.gaussian/g09/l601.exe)
 Copying SCF densities to generalized density rwf, IOpCl= 0 IROHF=0.

 **********************************************************************

            Population analysis using the SCF density.

 **********************************************************************

 Orbital symmetries:
       Occupied  (A) (A) (A) (A) (A) (A) (A) (A) (A) (A) (A) (A)
                 (A) (A) (A) (A) (A) (A) (A) (A) (A) (A) (A) (A)
                 (A) (A) (A)
       Virtual   (A) (A) (A) (A) (A) (A) (A) (A) (A) (A) (A) (A)
                 (A) (A) (A) (A) (A) (A) (A) (A) (A) (A) (A) (A)
                 (A) (A) (A) (A) (A) (A) (A) (A) (A) (A) (A) (A)
                 (A) (A) (A) (A) (A) (A) (A) (A) (A) (A) (A) (A)
                 (A) (A) (A) (A) (A) (A) (A) (A) (A) (A) (A) (A)
                 (A) (A) (A) (A) (A) (A) (A) (A) (A) (A) (A) (A)
                 (A) (A) (A) (A) (A) (A) (A) (A) (A) (A) (A) (A)
                 (A) (A) (A) (A) (A) (A) (A) (A) (A) (A) (A) (A)
                 (A) (A) (A) (A) (A) (A) (A) (A) (A) (A) (A) (A)
                 (A) (A) (A) (A) (A) (A) (A) (A) (A) (A) (A) (A)
                 (A) (A) (A) (A) (A) (A) (A) (A) (A) (A) (A) (A)
                 (A) (A) (A) (A) (A) (A) (A) (A) (A) (A) (A) (A)
                 (A) (A) (A) (A) (A) (A) (A) (A) (A) (A) (A) (A)
                 (A) (A) (A) (A) (A) (A) (A) (A) (A) (A) (A) (A)
                 (A) (A)
 The electronic state is 1-A.
 Alpha  occ. eigenvalues -- -513.12122 -67.38935 -60.93814 -60.93807 -60.93798
 Alpha  occ. eigenvalues --  -19.33461 -19.33440  -9.84255  -7.53581  -7.53556
 Alpha  occ. eigenvalues --   -7.53526  -3.40266  -3.40263  -3.40238  -3.40218
 Alpha  occ. eigenvalues --   -3.40215  -1.24502  -1.05117  -1.02734  -0.69264
 Alpha  occ. eigenvalues --   -0.54951  -0.53497  -0.52591  -0.51315  -0.50843
 Alpha  occ. eigenvalues --   -0.48108  -0.36612
 Alpha virt. eigenvalues --    0.03541   0.04506   0.08705   0.09347   0.09600
 Alpha virt. eigenvalues --    0.11948   0.12615   0.16480   0.17015   0.17693
 Alpha virt. eigenvalues --    0.18666   0.19187   0.20094   0.21386   0.22536
 Alpha virt. eigenvalues --    0.23704   0.24202   0.26016   0.29796   0.33103
 Alpha virt. eigenvalues --    0.35443   0.36928   0.38306   0.38445   0.39492
 Alpha virt. eigenvalues --    0.42730   0.45162   0.48443   0.50987   0.53072
 Alpha virt. eigenvalues --    0.57955   0.61422   0.61563   0.63064   0.63539
 Alpha virt. eigenvalues --    0.68290   0.68478   0.70255   0.71416   0.73598
 Alpha virt. eigenvalues --    0.74227   0.76577   0.79052   0.82329   0.84383
 Alpha virt. eigenvalues --    0.85614   0.85739   0.87369   0.87706   0.89817
 Alpha virt. eigenvalues --    0.92517   0.95357   0.96343   0.97954   0.99474
 Alpha virt. eigenvalues --    1.02113   1.05024   1.06037   1.08232   1.08670
 Alpha virt. eigenvalues --    1.11137   1.18459   1.21075   1.26022   1.27293
 Alpha virt. eigenvalues --    1.30153   1.30321   1.36530   1.39296   1.45920
 Alpha virt. eigenvalues --    1.47997   1.49593   1.53754   1.55301   1.57668
 Alpha virt. eigenvalues --    1.63284   1.65465   1.78224   1.91400   1.93263
 Alpha virt. eigenvalues --    1.96399   1.99805   2.07190   2.11798   2.12056
 Alpha virt. eigenvalues --    2.17809   2.20378   2.20623   2.21346   2.26447
 Alpha virt. eigenvalues --    2.29772   2.30888   2.31496   2.32497   2.35741
 Alpha virt. eigenvalues --    2.37139   2.39794   2.41687   2.45615   2.46685
 Alpha virt. eigenvalues --    2.47824   2.48271   2.55510   2.56653   2.62801
 Alpha virt. eigenvalues --    2.63298   2.65028   2.67861   2.70943   2.71049
 Alpha virt. eigenvalues --    2.71932   2.75918   2.78475   2.87325   2.88561
 Alpha virt. eigenvalues --    2.94107   3.10014   3.11317   3.16852   3.53461
 Alpha virt. eigenvalues --    3.75501   3.83624   3.95584   4.03702   4.09611
 Alpha virt. eigenvalues --    4.10294   4.12757   4.18929   4.19886   4.25468
 Alpha virt. eigenvalues --    4.35949   4.47571   4.56841   4.70859   4.74338
 Alpha virt. eigenvalues --    4.95696   5.00045   5.01842   5.07179   5.13652
 Alpha virt. eigenvalues --    5.17284   5.53789   5.81246   5.98930   6.06828
 Alpha virt. eigenvalues --    6.12866   6.32466   6.38448   6.48310   6.57790
 Alpha virt. eigenvalues --    6.70311   6.70340   6.76430   6.78524   6.81489
 Alpha virt. eigenvalues --    6.86914   6.87540   6.89702   6.92529   7.11778
 Alpha virt. eigenvalues --    7.16187   7.20142   7.28915   7.29389   7.61897
 Alpha virt. eigenvalues --    7.97050   8.05890   8.20457  13.83485  14.76932
          Condensed to atoms (all electrons):
              1          2          3          4          5
     1  O    8.260099  -0.215964   0.170217   0.038774  -0.019819
     2  O   -0.215964   8.259078   0.039843   0.173177  -0.018755
     3  H    0.170217   0.039843   0.591681  -0.021172  -0.007505
     4  H    0.038774   0.173177  -0.021172   0.588852  -0.009494
     5  Kr  -0.019819  -0.018755  -0.007505  -0.009494  36.041686
 Mulliken atomic charges:
              1
     1  O   -0.233307
     2  O   -0.237378
     3  H    0.226935
     4  H    0.229863
     5  Kr   0.013887
 Sum of Mulliken atomic charges =   0.00000
 Mulliken charges with hydrogens summed into heavy atoms:
              1
     1  O   -0.006372
     2  O   -0.007515
     5  Kr   0.013887
 Sum of Mulliken charges with hydrogens summed into heavy atoms =   0.00000
          Condensed to fragments (all electrons):
     1      -0.013887
     2       0.013887
 Electronic spatial extent (au):  <R**2>=            475.2675
 Charge=              0.0000 electrons
 Dipole moment (field-independent basis, Debye):
    X=              3.6814    Y=             -0.0118    Z=              0.2206  Tot=              3.6880
 Quadrupole moment (field-independent basis, Debye-Ang):
   XX=            -38.6289   YY=            -28.1481   ZZ=            -30.4937
   XY=              0.0339   XZ=             -0.2397   YZ=             -0.2991
 Traceless Quadrupole moment (field-independent basis, Debye-Ang):
   XX=             -6.2053   YY=              4.2755   ZZ=              1.9298
   XY=              0.0339   XZ=             -0.2397   YZ=             -0.2991
 Octapole moment (field-independent basis, Debye-Ang**2):
  XXX=             44.5211  YYY=             -0.0275  ZZZ=             -0.0255  XYY=              8.0522
  XXY=             -0.0773  XXZ=             -0.0788  XZZ=              8.9617  YZZ=             -0.0555
  YYZ=              0.3375  XYZ=              0.3176
 Hexadecapole moment (field-independent basis, Debye-Ang**3):
 XXXX=           -453.3218 YYYY=            -63.3794 ZZZZ=            -29.2208 XXXY=              0.0678
 XXXZ=              0.6320 YYYX=              0.0613 YYYZ=             -0.4004 ZZZX=             -0.0714
 ZZZY=             -0.1540 XXYY=            -86.1067 XXZZ=            -76.4222 YYZZ=            -17.3976
 XXYZ=             -0.3020 YYXZ=             -0.3734 ZZXY=              0.0719
 N-N= 1.517885287854D+02 E-N=-7.240837557857D+03  KE= 2.900966758108D+03
 No NMR shielding tensors so no spin-rotation constants.
 Leave Link  601 at Mon May  4 15:26:22 2020, MaxMem= 1073741824 cpu:       0.8
 (Enter /home/matheus/.gaussian/g09/l122.exe)
 Counterpoise: doing DCBS calculation for fragment   1 NewBq=T
 Leave Link  122 at Mon May  4 15:26:22 2020, MaxMem= 1073741824 cpu:       0.0
 (Enter /home/matheus/.gaussian/g09/l301.exe)
 Basis read from rwf:  (5D, 7F)
 No pseudopotential information found on rwf file.
 There are   197 symmetry adapted basis functions of A   symmetry.
 Integral buffers will be    131072 words long.
 Raffenetti 2 integral format.
 Two-electron integral symmetry is turned on.
   197 basis functions,   415 primitive gaussians,   229 cartesian basis functions
     9 alpha electrons        9 beta electrons
       nuclear repulsion energy        36.6659649233 Hartrees.
 IExCor= 4639 DFT=T Ex+Corr=wB97XD ExCW=0 ScaHFX=  1.000000
 ScaDFX=  1.000000  1.000000  1.000000  1.000000 ScalE2=  1.000000  1.000000
 IRadAn=      5 IRanWt=     -1 IRanGd=            0 ICorTp=0
  HFx wShort=  0.000000 wLong=  0.250000 cFull=  0.222036 cShort=  0.000000 cLong=  0.777964
  DFx wShort=  0.000000 wLong=  0.250000 cFull=  0.000000 cShort=  0.000000 cLong=  1.000000
 NAtoms=    5 NActive=    5 NUniq=    5 SFac= 1.00D+00 NAtFMM=   60 NAOKFM=F Big=F
 R6Disp: Dispersion energy =        -0.0002196121 Hartrees.
 Nuclear repulsion after empirical dispersion term =       36.6657453113 Hartrees.
 No density basis found on file   718.
 Leave Link  301 at Mon May  4 15:26:22 2020, MaxMem= 1073741824 cpu:       0.2
 (Enter /home/matheus/.gaussian/g09/l302.exe)
 NPDir=0 NMtPBC=     1 NCelOv=     1 NCel=       1 NClECP=     1 NCelD=      1
         NCelK=      1 NCelE2=     1 NClLst=     1 CellRange=     0.0.
 One-electron integrals computed using PRISM.
 NBasis=   197 RedAO= T  NBF=   197
 NBsUse=   197 1.00D-06 NBFU=   197
 Precomputing XC quadrature grid using
 IXCGrd= 2 IRadAn=           5 IRanWt=          -1 IRanGd=           0 AccXCQ= 0.00D+00.
 NRdTot=     427 NPtTot=      123512 NUsed=      126579 NTot=      126611
 NSgBfM=   229   229   229   229   229 NAtAll=     5     5.
 Leave Link  302 at Mon May  4 15:26:22 2020, MaxMem= 1073741824 cpu:       1.0
 (Enter /home/matheus/.gaussian/g09/l303.exe)
 DipDrv:  MaxL=1.
 Leave Link  303 at Mon May  4 15:26:22 2020, MaxMem= 1073741824 cpu:       0.2
 (Enter /home/matheus/.gaussian/g09/l401.exe)
 Harris functional with IExCor= 4639 diagonalized for initial guess.
 ExpMin= 2.53D-02 ExpMax= 1.17D+07 ExpMxC= 1.33D+04 IAcc=3 IRadAn=         5 AccDes= 0.00D+00
 HarFok:  IExCor= 4639 AccDes= 0.00D+00 IRadAn=         5 IDoV= 1
 ScaDFX=  1.000000  1.000000  1.000000  1.000000
 FoFCou: FMM=F IPFlag=           0 FMFlag=      100000 FMFlg1=           0
         NFxFlg=           0 DoJE=T BraDBF=F KetDBF=T FulRan=T
         Omega=  0.000000  0.000000  1.000000  0.000000  0.000000 ICntrl=     500 IOpCl=  0
         NMat0=    1 NMatS0=    1 NMatT0=    0 NMatD0=    1 NMtDS0=    0 NMtDT0=    0
         I1Cent=           4 NGrid=           0.
 Petite list used in FoFCou.
 Harris En= -145.941725250365    
 Initial guess orbital symmetries:
       Occupied  (A) (A) (A) (A) (A) (A) (A) (A) (A)
       Virtual   (A) (A) (A) (A) (A) (A) (A) (A) (A) (A) (A) (A)
                 (A) (A) (A) (A) (A) (A) (A) (A) (A) (A) (A) (A)
                 (A) (A) (A) (A) (A) (A) (A) (A) (A) (A) (A) (A)
                 (A) (A) (A) (A) (A) (A) (A) (A) (A) (A) (A) (A)
                 (A) (A) (A) (A) (A) (A) (A) (A) (A) (A) (A) (A)
                 (A) (A) (A) (A) (A) (A) (A) (A) (A) (A) (A) (A)
                 (A) (A) (A) (A) (A) (A) (A) (A) (A) (A) (A) (A)
                 (A) (A) (A) (A) (A) (A) (A) (A) (A) (A) (A) (A)
                 (A) (A) (A) (A) (A) (A) (A) (A) (A) (A) (A) (A)
                 (A) (A) (A) (A) (A) (A) (A) (A) (A) (A) (A) (A)
                 (A) (A) (A) (A) (A) (A) (A) (A) (A) (A) (A) (A)
                 (A) (A) (A) (A) (A) (A) (A) (A) (A) (A) (A) (A)
                 (A) (A) (A) (A) (A) (A) (A) (A) (A) (A) (A) (A)
                 (A) (A) (A) (A) (A) (A) (A) (A) (A) (A) (A) (A)
                 (A) (A) (A) (A) (A) (A) (A) (A) (A) (A) (A) (A)
                 (A) (A) (A) (A) (A) (A) (A) (A)
 The electronic state of the initial guess is 1-A.
 Leave Link  401 at Mon May  4 15:26:22 2020, MaxMem= 1073741824 cpu:       4.0
 (Enter /home/matheus/.gaussian/g09/l502.exe)
 Closed shell SCF:
 Requested convergence on RMS density matrix=1.00D-08 within 128 cycles.
 Requested convergence on MAX density matrix=1.00D-06.
 Requested convergence on             energy=1.00D-06.
 No special actions if energy rises.
 Using DIIS extrapolation, IDIIS=  1040.
 Integral symmetry usage will be decided dynamically.
       126521 words used for storage of precomputed grid.
 IEnd=      305468 IEndB=      305468 NGot=  1073741824 MDV=  1073505667
 LenX=  1073505667 LenY=  1073452785
 Fock matrices will be formed incrementally for  20 cycles.

 Cycle   1  Pass 1  IDiag  1:
 FoFJK:  IHMeth= 1 ICntrl=     0 DoSepK=T KAlg= 1 I1Cent= 0 FoldK=F
 FoFCou: FMM=F IPFlag=           0 FMFlag=      100000 FMFlg1=           0
         NFxFlg=           0 DoJE=T BraDBF=F KetDBF=F FulRan=T
         Omega=  0.000000  0.000000  1.000000  0.000000  0.000000 ICntrl=     500 IOpCl=  0
         NMat0=    1 NMatS0=    1 NMatT0=    0 NMatD0=    1 NMtDS0=    0 NMtDT0=    0
         I1Cent=           0 NGrid=           0.
 Symmetry not used in FoFCou.
 E= -151.454005538354    
 DIIS: error= 3.31D-02 at cycle   1 NSaved=   1.
 NSaved= 1 IEnMin= 1 EnMin= -151.454005538354     IErMin= 1 ErrMin= 3.31D-02
 ErrMax= 3.31D-02 EMaxC= 1.00D-01 BMatC= 3.18D-01 BMatP= 3.18D-01
 IDIUse=3 WtCom= 6.69D-01 WtEn= 3.31D-01
 Coeff-Com:  0.100D+01
 Coeff-En:   0.100D+01
 Coeff:      0.100D+01
 Gap=     0.517 Goal=   None    Shift=    0.000
 GapD=    0.517 DampG=2.000 DampE=0.500 DampFc=1.0000 IDamp=-1.
 RMSDP=2.63D-03 MaxDP=9.75D-02              OVMax= 1.23D-01

 Cycle   2  Pass 1  IDiag  1:
 RMSU=  1.81D-03    CP:  9.40D-01
 FoFJK:  IHMeth= 1 ICntrl=     0 DoSepK=T KAlg= 1 I1Cent= 0 FoldK=F
 E= -151.496423889464     Delta-E=       -0.042418351110 Rises=F Damp=F
 DIIS: error= 2.61D-02 at cycle   2 NSaved=   2.
 NSaved= 2 IEnMin= 2 EnMin= -151.496423889464     IErMin= 2 ErrMin= 2.61D-02
 ErrMax= 2.61D-02 EMaxC= 1.00D-01 BMatC= 9.67D-02 BMatP= 3.18D-01
 IDIUse=3 WtCom= 7.39D-01 WtEn= 2.61D-01
 Coeff-Com:  0.334D+00 0.666D+00
 Coeff-En:   0.323D+00 0.677D+00
 Coeff:      0.331D+00 0.669D+00
 Gap=     0.468 Goal=   None    Shift=    0.000
 RMSDP=1.06D-03 MaxDP=4.72D-02 DE=-4.24D-02 OVMax= 6.41D-02

 Cycle   3  Pass 1  IDiag  1:
 RMSU=  4.02D-04    CP:  9.64D-01  6.65D-01
 FoFJK:  IHMeth= 1 ICntrl=     0 DoSepK=T KAlg= 1 I1Cent= 0 FoldK=F
 E= -151.548115002173     Delta-E=       -0.051691112709 Rises=F Damp=F
 DIIS: error= 6.94D-03 at cycle   3 NSaved=   3.
 NSaved= 3 IEnMin= 3 EnMin= -151.548115002173     IErMin= 3 ErrMin= 6.94D-03
 ErrMax= 6.94D-03 EMaxC= 1.00D-01 BMatC= 6.63D-03 BMatP= 9.67D-02
 IDIUse=3 WtCom= 9.31D-01 WtEn= 6.94D-02
 Coeff-Com:  0.151D-01 0.216D+00 0.769D+00
 Coeff-En:   0.000D+00 0.000D+00 0.100D+01
 Coeff:      0.141D-01 0.201D+00 0.785D+00
 Gap=     0.399 Goal=   None    Shift=    0.000
 RMSDP=3.03D-04 MaxDP=9.04D-03 DE=-5.17D-02 OVMax= 1.77D-02

 Cycle   4  Pass 1  IDiag  1:
 RMSU=  8.26D-05    CP:  9.58D-01  7.65D-01  8.47D-01
 FoFJK:  IHMeth= 1 ICntrl=     0 DoSepK=T KAlg= 1 I1Cent= 0 FoldK=F
 E= -151.552439731388     Delta-E=       -0.004324729215 Rises=F Damp=F
 DIIS: error= 7.87D-04 at cycle   4 NSaved=   4.
 NSaved= 4 IEnMin= 4 EnMin= -151.552439731388     IErMin= 4 ErrMin= 7.87D-04
 ErrMax= 7.87D-04 EMaxC= 1.00D-01 BMatC= 1.25D-04 BMatP= 6.63D-03
 IDIUse=3 WtCom= 9.92D-01 WtEn= 7.87D-03
 Coeff-Com: -0.865D-03 0.194D-01 0.176D+00 0.805D+00
 Coeff-En:   0.000D+00 0.000D+00 0.000D+00 0.100D+01
 Coeff:     -0.859D-03 0.192D-01 0.175D+00 0.807D+00
 Gap=     0.395 Goal=   None    Shift=    0.000
 RMSDP=5.01D-05 MaxDP=2.60D-03 DE=-4.32D-03 OVMax= 2.50D-03

 Cycle   5  Pass 1  IDiag  1:
 RMSU=  1.68D-05    CP:  9.59D-01  7.58D-01  9.09D-01  1.11D+00
 FoFJK:  IHMeth= 1 ICntrl=     0 DoSepK=T KAlg= 1 I1Cent= 0 FoldK=F
 E= -151.552528529680     Delta-E=       -0.000088798292 Rises=F Damp=F
 DIIS: error= 7.71D-05 at cycle   5 NSaved=   5.
 NSaved= 5 IEnMin= 5 EnMin= -151.552528529680     IErMin= 5 ErrMin= 7.71D-05
 ErrMax= 7.71D-05 EMaxC= 1.00D-01 BMatC= 1.28D-06 BMatP= 1.25D-04
 IDIUse=1 WtCom= 1.00D+00 WtEn= 0.00D+00
 Coeff-Com: -0.625D-03-0.124D-01-0.499D-01-0.105D+00 0.117D+01
 Coeff:     -0.625D-03-0.124D-01-0.499D-01-0.105D+00 0.117D+01
 Gap=     0.394 Goal=   None    Shift=    0.000
 RMSDP=1.77D-05 MaxDP=7.23D-04 DE=-8.88D-05 OVMax= 1.03D-03

 Cycle   6  Pass 1  IDiag  1:
 RMSU=  3.81D-06    CP:  9.59D-01  7.58D-01  9.27D-01  1.21D+00  1.29D+00
 FoFJK:  IHMeth= 1 ICntrl=     0 DoSepK=T KAlg= 1 I1Cent= 0 FoldK=F
 E= -151.552531873938     Delta-E=       -0.000003344258 Rises=F Damp=F
 DIIS: error= 1.84D-05 at cycle   6 NSaved=   6.
 NSaved= 6 IEnMin= 6 EnMin= -151.552531873938     IErMin= 6 ErrMin= 1.84D-05
 ErrMax= 1.84D-05 EMaxC= 1.00D-01 BMatC= 3.31D-08 BMatP= 1.28D-06
 IDIUse=1 WtCom= 1.00D+00 WtEn= 0.00D+00
 Coeff-Com:  0.913D-04 0.661D-03-0.702D-03-0.977D-02-0.103D+00 0.111D+01
 Coeff:      0.913D-04 0.661D-03-0.702D-03-0.977D-02-0.103D+00 0.111D+01
 Gap=     0.394 Goal=   None    Shift=    0.000
 RMSDP=2.62D-06 MaxDP=9.37D-05 DE=-3.34D-06 OVMax= 1.88D-04

 Cycle   7  Pass 1  IDiag  1:
 RMSU=  6.86D-07    CP:  9.59D-01  7.58D-01  9.28D-01  1.22D+00  1.34D+00
                    CP:  1.32D+00
 FoFJK:  IHMeth= 1 ICntrl=     0 DoSepK=T KAlg= 1 I1Cent= 0 FoldK=F
 E= -151.552531985326     Delta-E=       -0.000000111388 Rises=F Damp=F
 DIIS: error= 5.57D-06 at cycle   7 NSaved=   7.
 NSaved= 7 IEnMin= 7 EnMin= -151.552531985326     IErMin= 7 ErrMin= 5.57D-06
 ErrMax= 5.57D-06 EMaxC= 1.00D-01 BMatC= 3.24D-09 BMatP= 3.31D-08
 IDIUse=1 WtCom= 1.00D+00 WtEn= 0.00D+00
 Coeff-Com:  0.127D-04 0.362D-03 0.187D-02 0.326D-02-0.370D-01-0.613D-01
 Coeff-Com:  0.109D+01
 Coeff:      0.127D-04 0.362D-03 0.187D-02 0.326D-02-0.370D-01-0.613D-01
 Coeff:      0.109D+01
 Gap=     0.394 Goal=   None    Shift=    0.000
 RMSDP=5.88D-07 MaxDP=1.88D-05 DE=-1.11D-07 OVMax= 6.11D-05

 Cycle   8  Pass 1  IDiag  1:
 RMSU=  1.89D-07    CP:  9.59D-01  7.58D-01  9.28D-01  1.22D+00  1.35D+00
                    CP:  1.38D+00  1.28D+00
 FoFJK:  IHMeth= 1 ICntrl=     0 DoSepK=T KAlg= 1 I1Cent= 0 FoldK=F
 E= -151.552531991377     Delta-E=       -0.000000006051 Rises=F Damp=F
 DIIS: error= 3.77D-06 at cycle   8 NSaved=   8.
 NSaved= 8 IEnMin= 8 EnMin= -151.552531991377     IErMin= 8 ErrMin= 3.77D-06
 ErrMax= 3.77D-06 EMaxC= 1.00D-01 BMatC= 2.33D-09 BMatP= 3.24D-09
 IDIUse=1 WtCom= 1.00D+00 WtEn= 0.00D+00
 Coeff-Com: -0.263D-05 0.129D-03 0.112D-02 0.268D-02-0.800D-02-0.164D+00
 Coeff-Com:  0.632D+00 0.535D+00
 Coeff:     -0.263D-05 0.129D-03 0.112D-02 0.268D-02-0.800D-02-0.164D+00
 Coeff:      0.632D+00 0.535D+00
 Gap=     0.394 Goal=   None    Shift=    0.000
 RMSDP=1.61D-07 MaxDP=7.39D-06 DE=-6.05D-09 OVMax= 1.54D-05

 Cycle   9  Pass 1  IDiag  1:
 RMSU=  7.99D-08    CP:  9.59D-01  7.58D-01  9.28D-01  1.22D+00  1.35D+00
                    CP:  1.38D+00  1.37D+00  8.47D-01
 FoFJK:  IHMeth= 1 ICntrl=     0 DoSepK=T KAlg= 1 I1Cent= 0 FoldK=F
 E= -151.552531993126     Delta-E=       -0.000000001749 Rises=F Damp=F
 DIIS: error= 6.35D-07 at cycle   9 NSaved=   9.
 NSaved= 9 IEnMin= 9 EnMin= -151.552531993126     IErMin= 9 ErrMin= 6.35D-07
 ErrMax= 6.35D-07 EMaxC= 1.00D-01 BMatC= 5.78D-11 BMatP= 2.33D-09
 IDIUse=1 WtCom= 1.00D+00 WtEn= 0.00D+00
 Coeff-Com:  0.472D-06-0.191D-04-0.159D-03-0.469D-03 0.468D-02-0.408D-02
 Coeff-Com: -0.819D-01 0.517D-01 0.103D+01
 Coeff:      0.472D-06-0.191D-04-0.159D-03-0.469D-03 0.468D-02-0.408D-02
 Coeff:     -0.819D-01 0.517D-01 0.103D+01
 Gap=     0.394 Goal=   None    Shift=    0.000
 RMSDP=7.39D-08 MaxDP=1.78D-06 DE=-1.75D-09 OVMax= 7.79D-06

 Cycle  10  Pass 1  IDiag  1:
 RMSU=  1.69D-08    CP:  9.59D-01  7.58D-01  9.28D-01  1.22D+00  1.35D+00
                    CP:  1.38D+00  1.41D+00  1.00D+00  1.24D+00
 FoFJK:  IHMeth= 1 ICntrl=     0 DoSepK=T KAlg= 1 I1Cent= 0 FoldK=F
 E= -151.552531993241     Delta-E=       -0.000000000115 Rises=F Damp=F
 DIIS: error= 2.34D-07 at cycle  10 NSaved=  10.
 NSaved=10 IEnMin=10 EnMin= -151.552531993241     IErMin=10 ErrMin= 2.34D-07
 ErrMax= 2.34D-07 EMaxC= 1.00D-01 BMatC= 4.21D-12 BMatP= 5.78D-11
 IDIUse=1 WtCom= 1.00D+00 WtEn= 0.00D+00
 Coeff-Com:  0.553D-06-0.119D-04-0.128D-03-0.363D-03 0.139D-02 0.148D-01
 Coeff-Com: -0.748D-01-0.462D-01 0.119D+00 0.986D+00
 Coeff:      0.553D-06-0.119D-04-0.128D-03-0.363D-03 0.139D-02 0.148D-01
 Coeff:     -0.748D-01-0.462D-01 0.119D+00 0.986D+00
 Gap=     0.394 Goal=   None    Shift=    0.000
 RMSDP=2.15D-08 MaxDP=5.66D-07 DE=-1.15D-10 OVMax= 2.60D-06

 Cycle  11  Pass 1  IDiag  1:
 RMSU=  4.10D-09    CP:  9.59D-01  7.58D-01  9.28D-01  1.22D+00  1.35D+00
                    CP:  1.37D+00  1.42D+00  1.04D+00  1.33D+00  1.35D+00
 FoFJK:  IHMeth= 1 ICntrl=     0 DoSepK=T KAlg= 1 I1Cent= 0 FoldK=F
 E= -151.552531993251     Delta-E=       -0.000000000010 Rises=F Damp=F
 DIIS: error= 3.77D-08 at cycle  11 NSaved=  11.
 NSaved=11 IEnMin=11 EnMin= -151.552531993251     IErMin=11 ErrMin= 3.77D-08
 ErrMax= 3.77D-08 EMaxC= 1.00D-01 BMatC= 1.76D-13 BMatP= 4.21D-12
 IDIUse=1 WtCom= 1.00D+00 WtEn= 0.00D+00
 Coeff-Com: -0.212D-06 0.641D-06 0.203D-04 0.525D-04-0.325D-03-0.161D-02
 Coeff-Com:  0.140D-01 0.486D-02-0.587D-01-0.197D+00 0.124D+01
 Coeff:     -0.212D-06 0.641D-06 0.203D-04 0.525D-04-0.325D-03-0.161D-02
 Coeff:      0.140D-01 0.486D-02-0.587D-01-0.197D+00 0.124D+01
 Gap=     0.394 Goal=   None    Shift=    0.000
 RMSDP=6.63D-09 MaxDP=2.85D-07 DE=-1.02D-11 OVMax= 5.48D-07

 SCF Done:  E(RwB97XD) =  -151.552531993     A.U. after   11 cycles
             Convg  =    0.6630D-08             -V/T =  2.0059
 KE= 1.506676804211D+02 PE=-4.317535591842D+02 EE= 9.286760145857D+01
 Leave Link  502 at Mon May  4 15:26:56 2020, MaxMem= 1073741824 cpu:     272.3
 (Enter /home/matheus/.gaussian/g09/l601.exe)
 Copying SCF densities to generalized density rwf, IOpCl= 0 IROHF=0.

 **********************************************************************

            Population analysis using the SCF density.

 **********************************************************************

 Orbital symmetries:
       Occupied  (A) (A) (A) (A) (A) (A) (A) (A) (A)
       Virtual   (A) (A) (A) (A) (A) (A) (A) (A) (A) (A) (A) (A)
                 (A) (A) (A) (A) (A) (A) (A) (A) (A) (A) (A) (A)
                 (A) (A) (A) (A) (A) (A) (A) (A) (A) (A) (A) (A)
                 (A) (A) (A) (A) (A) (A) (A) (A) (A) (A) (A) (A)
                 (A) (A) (A) (A) (A) (A) (A) (A) (A) (A) (A) (A)
                 (A) (A) (A) (A) (A) (A) (A) (A) (A) (A) (A) (A)
                 (A) (A) (A) (A) (A) (A) (A) (A) (A) (A) (A) (A)
                 (A) (A) (A) (A) (A) (A) (A) (A) (A) (A) (A) (A)
                 (A) (A) (A) (A) (A) (A) (A) (A) (A) (A) (A) (A)
                 (A) (A) (A) (A) (A) (A) (A) (A) (A) (A) (A) (A)
                 (A) (A) (A) (A) (A) (A) (A) (A) (A) (A) (A) (A)
                 (A) (A) (A) (A) (A) (A) (A) (A) (A) (A) (A) (A)
                 (A) (A) (A) (A) (A) (A) (A) (A) (A) (A) (A) (A)
                 (A) (A) (A) (A) (A) (A) (A) (A) (A) (A) (A) (A)
                 (A) (A) (A) (A) (A) (A) (A) (A) (A) (A) (A) (A)
                 (A) (A) (A) (A) (A) (A) (A) (A)
 The electronic state is 1-A.
 Alpha  occ. eigenvalues --  -19.34331 -19.34326  -1.25182  -1.03422  -0.69447
 Alpha  occ. eigenvalues --   -0.54325  -0.52622  -0.49485  -0.37323
 Alpha virt. eigenvalues --    0.02118   0.03987   0.07600   0.08100   0.09153
 Alpha virt. eigenvalues --    0.09307   0.10675   0.17338   0.17571   0.18282
 Alpha virt. eigenvalues --    0.18862   0.19518   0.20246   0.21703   0.26254
 Alpha virt. eigenvalues --    0.26886   0.28204   0.29193   0.32074   0.35520
 Alpha virt. eigenvalues --    0.35693   0.36622   0.37866   0.41263   0.43440
 Alpha virt. eigenvalues --    0.44726   0.45553   0.47605   0.49092   0.53406
 Alpha virt. eigenvalues --    0.55006   0.57943   0.58874   0.63110   0.64702
 Alpha virt. eigenvalues --    0.68619   0.70060   0.76004   0.76437   0.79045
 Alpha virt. eigenvalues --    0.81238   0.82974   0.85051   0.87595   0.88443
 Alpha virt. eigenvalues --    0.93692   0.96311   0.97070   0.98494   0.99640
 Alpha virt. eigenvalues --    1.01553   1.03217   1.05131   1.09468   1.10109
 Alpha virt. eigenvalues --    1.12125   1.18565   1.22197   1.23490   1.24898
 Alpha virt. eigenvalues --    1.27780   1.29257   1.31128   1.32771   1.33878
 Alpha virt. eigenvalues --    1.34545   1.37268   1.38679   1.43394   1.47215
 Alpha virt. eigenvalues --    1.49556   1.50169   1.51690   1.54451   1.60967
 Alpha virt. eigenvalues --    1.63422   1.64356   1.70578   1.71601   1.78856
 Alpha virt. eigenvalues --    1.81429   1.85782   1.94933   1.96647   2.01351
 Alpha virt. eigenvalues --    2.03019   2.12322   2.20584   2.22034   2.25326
 Alpha virt. eigenvalues --    2.26950   2.30564   2.33143   2.33448   2.41987
 Alpha virt. eigenvalues --    2.45555   2.51957   2.52596   2.61805   2.68120
 Alpha virt. eigenvalues --    2.69928   2.72790   2.83140   2.85182   2.91558
 Alpha virt. eigenvalues --    3.07956   3.10303   3.14607   3.24512   3.35559
 Alpha virt. eigenvalues --    3.36596   3.55612   3.64593   3.70249   3.78561
 Alpha virt. eigenvalues --    3.78731   3.79646   3.81958   3.83804   3.85913
 Alpha virt. eigenvalues --    3.90089   3.91145   3.94177   3.95306   3.97576
 Alpha virt. eigenvalues --    3.99747   4.04126   4.09281   4.10119   4.12666
 Alpha virt. eigenvalues --    4.13638   4.16160   4.25518   4.25777   4.29166
 Alpha virt. eigenvalues --    4.44087   4.59816   4.60075   4.70871   4.94948
 Alpha virt. eigenvalues --    4.99630   5.02112   5.07323   5.13228   5.17074
 Alpha virt. eigenvalues --    5.53739   5.80717   5.98329   6.06443   6.11745
 Alpha virt. eigenvalues --    6.32007   6.37902   6.47747   6.57175   6.69585
 Alpha virt. eigenvalues --    6.69821   6.75624   6.77801   6.80843   6.86299
 Alpha virt. eigenvalues --    6.86911   6.89018   6.91877   7.11279   7.15688
 Alpha virt. eigenvalues --    7.19456   7.28209   7.28617   7.61400   7.96200
 Alpha virt. eigenvalues --    8.05155   8.19851  11.09609  13.83017  14.76040
 Alpha virt. eigenvalues --   14.81816  14.96876  15.10745  29.02796  29.03501
 Alpha virt. eigenvalues --   29.07108  29.21265  29.25678  49.24401 148.29743
 Alpha virt. eigenvalues --  148.52244 148.73311 752.99867
          Condensed to atoms (all electrons):
              1          2          3          4          5
     1  O    8.198370  -0.201050   0.186159   0.031304   0.000862
     2  O   -0.201050   8.195525   0.032435   0.189411   0.000118
     3  H    0.186159   0.032435   0.580290  -0.009986  -0.003315
     4  H    0.031304   0.189411  -0.009986   0.578195  -0.003661
     5  Kr   0.000862   0.000118  -0.003315  -0.003661   0.003066
 Mulliken atomic charges:
              1
     1  O   -0.215645
     2  O   -0.216440
     3  H    0.214418
     4  H    0.214737
     5  Kr   0.002931
 Sum of Mulliken atomic charges =   0.00000
 Mulliken charges with hydrogens summed into heavy atoms:
              1
     1  O   -0.001228
     2  O   -0.001703
     5  Kr   0.002931
 Sum of Mulliken charges with hydrogens summed into heavy atoms =   0.00000
          Condensed to fragments (all electrons):
     1      -0.002931
     2       0.002931
 Electronic spatial extent (au):  <R**2>=            316.3238
 Charge=              0.0000 electrons
 Dipole moment (field-independent basis, Debye):
    X=              3.0777    Y=             -0.0049    Z=              0.2744  Tot=              3.0899
 Quadrupole moment (field-independent basis, Debye-Ang):
   XX=            -21.3495   YY=            -10.5280   ZZ=            -13.0444
   XY=              0.0363   XZ=             -0.2002   YZ=             -0.3106
 Traceless Quadrupole moment (field-independent basis, Debye-Ang):
   XX=             -6.3756   YY=              4.4460   ZZ=              1.9296
   XY=              0.0363   XZ=             -0.2002   YZ=             -0.3106
 Octapole moment (field-independent basis, Debye-Ang**2):
  XXX=             92.4263  YYY=             -0.0284  ZZZ=             -0.0122  XYY=             24.5259
  XXY=             -0.0658  XXZ=             -0.0531  XZZ=             25.5485  YZZ=             -0.0569
  YYZ=              0.3478  XYZ=              0.3171
 Hexadecapole moment (field-independent basis, Debye-Ang**3):
 XXXX=           -336.1912 YYYY=            -45.1482 ZZZZ=            -11.3935 XXXY=              0.0539
 XXXZ=              0.6863 YYYX=              0.0628 YYYZ=             -0.4166 ZZZX=             -0.0702
 ZZZY=             -0.1649 XXYY=            -63.5670 XXZZ=            -54.1741 YYZZ=            -11.3731
 XXYZ=             -0.2985 YYXZ=             -0.3668 ZZXY=              0.0699
 N-N= 3.666574531127D+01 E-N=-4.317535576447D+02  KE= 1.506676804211D+02
 No NMR shielding tensors so no spin-rotation constants.
 Leave Link  601 at Mon May  4 15:26:57 2020, MaxMem= 1073741824 cpu:       0.7
 (Enter /home/matheus/.gaussian/g09/l122.exe)
 Counterpoise: doing DCBS calculation for fragment   2 NewBq=T
 Leave Link  122 at Mon May  4 15:26:57 2020, MaxMem= 1073741824 cpu:       0.0
 (Enter /home/matheus/.gaussian/g09/l301.exe)
 Basis read from rwf:  (5D, 7F)
 No pseudopotential information found on rwf file.
 There are   197 symmetry adapted basis functions of A   symmetry.
 Integral buffers will be    131072 words long.
 Raffenetti 2 integral format.
 Two-electron integral symmetry is turned on.
   197 basis functions,   415 primitive gaussians,   229 cartesian basis functions
    18 alpha electrons       18 beta electrons
       nuclear repulsion energy         0.0000000000 Hartrees.
 IExCor= 4639 DFT=T Ex+Corr=wB97XD ExCW=0 ScaHFX=  1.000000
 ScaDFX=  1.000000  1.000000  1.000000  1.000000 ScalE2=  1.000000  1.000000
 IRadAn=      5 IRanWt=     -1 IRanGd=            0 ICorTp=0
  HFx wShort=  0.000000 wLong=  0.250000 cFull=  0.222036 cShort=  0.000000 cLong=  0.777964
  DFx wShort=  0.000000 wLong=  0.250000 cFull=  0.000000 cShort=  0.000000 cLong=  1.000000
 NAtoms=    5 NActive=    5 NUniq=    5 SFac= 1.00D+00 NAtFMM=   60 NAOKFM=F Big=F
 R6Disp: Dispersion energy =         0.0000000000 Hartrees.
 Nuclear repulsion after empirical dispersion term =        0.0000000000 Hartrees.
 No density basis found on file   718.
 Leave Link  301 at Mon May  4 15:26:57 2020, MaxMem= 1073741824 cpu:       0.2
 (Enter /home/matheus/.gaussian/g09/l302.exe)
 NPDir=0 NMtPBC=     1 NCelOv=     1 NCel=       1 NClECP=     1 NCelD=      1
         NCelK=      1 NCelE2=     1 NClLst=     1 CellRange=     0.0.
 One-electron integrals computed using PRISM.
 NBasis=   197 RedAO= T  NBF=   197
 NBsUse=   197 1.00D-06 NBFU=   197
 Precomputing XC quadrature grid using
 IXCGrd= 2 IRadAn=           5 IRanWt=          -1 IRanGd=           0 AccXCQ= 0.00D+00.
 NRdTot=     427 NPtTot=      123512 NUsed=      126579 NTot=      126611
 NSgBfM=   229   229   229   229   229 NAtAll=     5     5.
 Leave Link  302 at Mon May  4 15:26:57 2020, MaxMem= 1073741824 cpu:       0.9
 (Enter /home/matheus/.gaussian/g09/l303.exe)
 DipDrv:  MaxL=1.
 Leave Link  303 at Mon May  4 15:26:57 2020, MaxMem= 1073741824 cpu:       0.2
 (Enter /home/matheus/.gaussian/g09/l401.exe)
 Harris functional with IExCor= 4639 diagonalized for initial guess.
 ExpMin= 2.53D-02 ExpMax= 1.17D+07 ExpMxC= 1.33D+04 IAcc=3 IRadAn=         5 AccDes= 0.00D+00
 HarFok:  IExCor= 4639 AccDes= 0.00D+00 IRadAn=         5 IDoV= 1
 ScaDFX=  1.000000  1.000000  1.000000  1.000000
 FoFCou: FMM=F IPFlag=           0 FMFlag=      100000 FMFlg1=           0
         NFxFlg=           0 DoJE=T BraDBF=F KetDBF=T FulRan=T
         Omega=  0.000000  0.000000  1.000000  0.000000  0.000000 ICntrl=     500 IOpCl=  0
         NMat0=    1 NMatS0=    1 NMatT0=    0 NMatD0=    1 NMtDS0=    0 NMtDT0=    0
         I1Cent=           4 NGrid=           0.
 Petite list used in FoFCou.
 Harris En= -2729.46102990426    
 Initial guess orbital symmetries:
       Occupied  (A) (A) (A) (A) (A) (A) (A) (A) (A) (A) (A) (A)
                 (A) (A) (A) (A) (A) (A)
       Virtual   (A) (A) (A) (A) (A) (A) (A) (A) (A) (A) (A) (A)
                 (A) (A) (A) (A) (A) (A) (A) (A) (A) (A) (A) (A)
                 (A) (A) (A) (A) (A) (A) (A) (A) (A) (A) (A) (A)
                 (A) (A) (A) (A) (A) (A) (A) (A) (A) (A) (A) (A)
                 (A) (A) (A) (A) (A) (A) (A) (A) (A) (A) (A) (A)
                 (A) (A) (A) (A) (A) (A) (A) (A) (A) (A) (A) (A)
                 (A) (A) (A) (A) (A) (A) (A) (A) (A) (A) (A) (A)
                 (A) (A) (A) (A) (A) (A) (A) (A) (A) (A) (A) (A)
                 (A) (A) (A) (A) (A) (A) (A) (A) (A) (A) (A) (A)
                 (A) (A) (A) (A) (A) (A) (A) (A) (A) (A) (A) (A)
                 (A) (A) (A) (A) (A) (A) (A) (A) (A) (A) (A) (A)
                 (A) (A) (A) (A) (A) (A) (A) (A) (A) (A) (A) (A)
                 (A) (A) (A) (A) (A) (A) (A) (A) (A) (A) (A) (A)
                 (A) (A) (A) (A) (A) (A) (A) (A) (A) (A) (A) (A)
                 (A) (A) (A) (A) (A) (A) (A) (A) (A) (A) (A)
 The electronic state of the initial guess is 1-A.
 Leave Link  401 at Mon May  4 15:26:57 2020, MaxMem= 1073741824 cpu:       4.1
 (Enter /home/matheus/.gaussian/g09/l502.exe)
 Closed shell SCF:
 Requested convergence on RMS density matrix=1.00D-08 within 128 cycles.
 Requested convergence on MAX density matrix=1.00D-06.
 Requested convergence on             energy=1.00D-06.
 No special actions if energy rises.
 Using DIIS extrapolation, IDIIS=  1040.
 Integral symmetry usage will be decided dynamically.
       126521 words used for storage of precomputed grid.
 IEnd=      305468 IEndB=      305468 NGot=  1073741824 MDV=  1073505667
 LenX=  1073505667 LenY=  1073452785
 Fock matrices will be formed incrementally for  20 cycles.

 Cycle   1  Pass 1  IDiag  1:
 FoFJK:  IHMeth= 1 ICntrl=     0 DoSepK=T KAlg= 1 I1Cent= 0 FoldK=F
 FoFCou: FMM=F IPFlag=           0 FMFlag=      100000 FMFlg1=           0
         NFxFlg=           0 DoJE=T BraDBF=F KetDBF=F FulRan=T
         Omega=  0.000000  0.000000  1.000000  0.000000  0.000000 ICntrl=     500 IOpCl=  0
         NMat0=    1 NMatS0=    1 NMatT0=    0 NMatD0=    1 NMtDS0=    0 NMtDT0=    0
         I1Cent=           0 NGrid=           0.
 Symmetry not used in FoFCou.
 E= -2753.44570140754    
 DIIS: error= 9.60D-02 at cycle   1 NSaved=   1.
 NSaved= 1 IEnMin= 1 EnMin= -2753.44570140754     IErMin= 1 ErrMin= 9.60D-02
 ErrMax= 9.60D-02 EMaxC= 1.00D-01 BMatC= 1.91D+00 BMatP= 1.91D+00
 IDIUse=3 WtCom= 4.03D-02 WtEn= 9.60D-01
 Coeff-Com:  0.100D+01
 Coeff-En:   0.100D+01
 Coeff:      0.100D+01
 Gap=     0.654 Goal=   None    Shift=    0.000
 GapD=    0.654 DampG=2.000 DampE=0.500 DampFc=1.0000 IDamp=-1.
 RMSDP=5.88D-03 MaxDP=3.78D-01              OVMax= 1.83D-01

 Cycle   2  Pass 1  IDiag  1:
 RMSU=  4.11D-03    CP:  1.04D+00
 FoFJK:  IHMeth= 1 ICntrl=     0 DoSepK=T KAlg= 1 I1Cent= 0 FoldK=F
 E= -2753.72309821564     Delta-E=       -0.277396808103 Rises=F Damp=F
 DIIS: error= 3.67D-02 at cycle   2 NSaved=   2.
 NSaved= 2 IEnMin= 2 EnMin= -2753.72309821564     IErMin= 2 ErrMin= 3.67D-02
 ErrMax= 3.67D-02 EMaxC= 1.00D-01 BMatC= 4.72D-01 BMatP= 1.91D+00
 IDIUse=3 WtCom= 6.33D-01 WtEn= 3.67D-01
 Coeff-Com:  0.327D+00 0.673D+00
 Coeff-En:   0.161D+00 0.839D+00
 Coeff:      0.266D+00 0.734D+00
 Gap=     0.490 Goal=   None    Shift=    0.000
 RMSDP=2.65D-03 MaxDP=1.66D-01 DE=-2.77D-01 OVMax= 7.76D-02

 Cycle   3  Pass 1  IDiag  1:
 RMSU=  3.82D-04    CP:  1.03D+00  5.58D-01
 FoFJK:  IHMeth= 1 ICntrl=     0 DoSepK=T KAlg= 1 I1Cent= 0 FoldK=F
 E= -2753.86639186399     Delta-E=       -0.143293648347 Rises=F Damp=F
 DIIS: error= 5.41D-03 at cycle   3 NSaved=   3.
 NSaved= 3 IEnMin= 3 EnMin= -2753.86639186399     IErMin= 3 ErrMin= 5.41D-03
 ErrMax= 5.41D-03 EMaxC= 1.00D-01 BMatC= 1.26D-02 BMatP= 4.72D-01
 IDIUse=3 WtCom= 9.46D-01 WtEn= 5.41D-02
 Coeff-Com: -0.825D-02 0.128D+00 0.881D+00
 Coeff-En:   0.000D+00 0.000D+00 0.100D+01
 Coeff:     -0.781D-02 0.121D+00 0.887D+00
 Gap=     0.518 Goal=   None    Shift=    0.000
 RMSDP=3.42D-04 MaxDP=1.99D-02 DE=-1.43D-01 OVMax= 1.31D-02

 Cycle   4  Pass 1  IDiag  1:
 RMSU=  4.09D-05    CP:  1.03D+00  6.15D-01  9.57D-01
 FoFJK:  IHMeth= 1 ICntrl=     0 DoSepK=T KAlg= 1 I1Cent= 0 FoldK=F
 E= -2753.87025061007     Delta-E=       -0.003858746083 Rises=F Damp=F
 DIIS: error= 2.44D-04 at cycle   4 NSaved=   4.
 NSaved= 4 IEnMin= 4 EnMin= -2753.87025061007     IErMin= 4 ErrMin= 2.44D-04
 ErrMax= 2.44D-04 EMaxC= 1.00D-01 BMatC= 2.25D-05 BMatP= 1.26D-02
 IDIUse=3 WtCom= 9.98D-01 WtEn= 2.44D-03
 Coeff-Com: -0.234D-03-0.179D-01-0.633D-01 0.108D+01
 Coeff-En:   0.000D+00 0.000D+00 0.000D+00 0.100D+01
 Coeff:     -0.233D-03-0.179D-01-0.632D-01 0.108D+01
 Gap=     0.517 Goal=   None    Shift=    0.000
 RMSDP=2.47D-05 MaxDP=9.01D-04 DE=-3.86D-03 OVMax= 9.53D-04

 Cycle   5  Pass 1  IDiag  1:
 RMSU=  9.29D-06    CP:  1.03D+00  6.13D-01  9.76D-01  1.22D+00
 FoFJK:  IHMeth= 1 ICntrl=     0 DoSepK=T KAlg= 1 I1Cent= 0 FoldK=F
 E= -2753.87026163828     Delta-E=       -0.000011028211 Rises=F Damp=F
 DIIS: error= 1.80D-05 at cycle   5 NSaved=   5.
 NSaved= 5 IEnMin= 5 EnMin= -2753.87026163828     IErMin= 5 ErrMin= 1.80D-05
 ErrMax= 1.80D-05 EMaxC= 1.00D-01 BMatC= 5.81D-08 BMatP= 2.25D-05
 IDIUse=1 WtCom= 1.00D+00 WtEn= 0.00D+00
 Coeff-Com:  0.645D-04 0.125D-02-0.891D-04-0.199D+00 0.120D+01
 Coeff:      0.645D-04 0.125D-02-0.891D-04-0.199D+00 0.120D+01
 Gap=     0.516 Goal=   None    Shift=    0.000
 RMSDP=3.96D-06 MaxDP=1.55D-04 DE=-1.10D-05 OVMax= 2.20D-04

 Cycle   6  Pass 1  IDiag  1:
 RMSU=  7.17D-07    CP:  1.03D+00  6.13D-01  9.79D-01  1.26D+00  1.20D+00
 FoFJK:  IHMeth= 1 ICntrl=     0 DoSepK=T KAlg= 1 I1Cent= 0 FoldK=F
 E= -2753.87026179787     Delta-E=       -0.000000159583 Rises=F Damp=F
 DIIS: error= 1.70D-06 at cycle   6 NSaved=   6.
 NSaved= 6 IEnMin= 6 EnMin= -2753.87026179787     IErMin= 6 ErrMin= 1.70D-06
 ErrMax= 1.70D-06 EMaxC= 1.00D-01 BMatC= 9.12D-10 BMatP= 5.81D-08
 IDIUse=1 WtCom= 1.00D+00 WtEn= 0.00D+00
 Coeff-Com:  0.100D-04 0.399D-03 0.488D-03-0.523D-01 0.255D+00 0.797D+00
 Coeff:      0.100D-04 0.399D-03 0.488D-03-0.523D-01 0.255D+00 0.797D+00
 Gap=     0.516 Goal=   None    Shift=    0.000
 RMSDP=2.18D-07 MaxDP=8.13D-06 DE=-1.60D-07 OVMax= 1.19D-05

 Cycle   7  Pass 1  IDiag  1:
 RMSU=  8.74D-08    CP:  1.03D+00  6.13D-01  9.79D-01  1.26D+00  1.21D+00
                    CP:  1.10D+00
 FoFJK:  IHMeth= 1 ICntrl=     0 DoSepK=T KAlg= 1 I1Cent= 0 FoldK=F
 E= -2753.87026179880     Delta-E=       -0.000000000933 Rises=F Damp=F
 DIIS: error= 2.75D-07 at cycle   7 NSaved=   7.
 NSaved= 7 IEnMin= 7 EnMin= -2753.87026179880     IErMin= 7 ErrMin= 2.75D-07
 ErrMax= 2.75D-07 EMaxC= 1.00D-01 BMatC= 2.26D-11 BMatP= 9.12D-10
 IDIUse=1 WtCom= 1.00D+00 WtEn= 0.00D+00
 Coeff-Com: -0.188D-05 0.564D-05 0.124D-03 0.243D-02-0.233D-01 0.690D-01
 Coeff-Com:  0.952D+00
 Coeff:     -0.188D-05 0.564D-05 0.124D-03 0.243D-02-0.233D-01 0.690D-01
 Coeff:      0.952D+00
 Gap=     0.516 Goal=   None    Shift=    0.000
 RMSDP=5.93D-08 MaxDP=2.51D-06 DE=-9.33D-10 OVMax= 2.25D-06

 Cycle   8  Pass 1  IDiag  1:
 RMSU=  1.76D-08    CP:  1.03D+00  6.13D-01  9.79D-01  1.26D+00  1.21D+00
                    CP:  1.15D+00  1.09D+00
 FoFJK:  IHMeth= 1 ICntrl=     0 DoSepK=T KAlg= 1 I1Cent= 0 FoldK=F
 E= -2753.87026179884     Delta-E=       -0.000000000038 Rises=F Damp=F
 DIIS: error= 6.44D-08 at cycle   8 NSaved=   8.
 NSaved= 8 IEnMin= 8 EnMin= -2753.87026179884     IErMin= 8 ErrMin= 6.44D-08
 ErrMax= 6.44D-08 EMaxC= 1.00D-01 BMatC= 1.36D-12 BMatP= 2.26D-11
 IDIUse=1 WtCom= 1.00D+00 WtEn= 0.00D+00
 Coeff-Com: -0.161D-07-0.395D-05 0.143D-04 0.133D-02-0.706D-02-0.122D-01
 Coeff-Com:  0.860D-01 0.932D+00
 Coeff:     -0.161D-07-0.395D-05 0.143D-04 0.133D-02-0.706D-02-0.122D-01
 Coeff:      0.860D-01 0.932D+00
 Gap=     0.516 Goal=   None    Shift=    0.000
 RMSDP=1.20D-08 MaxDP=4.73D-07 DE=-3.82D-11 OVMax= 3.35D-07

 Cycle   9  Pass 1  IDiag  1:
 RMSU=  2.52D-09    CP:  1.03D+00  6.13D-01  9.79D-01  1.26D+00  1.21D+00
                    CP:  1.16D+00  1.13D+00  1.11D+00
 FoFJK:  IHMeth= 1 ICntrl=     0 DoSepK=T KAlg= 1 I1Cent= 0 FoldK=F
 E= -2753.87026179883     Delta-E=        0.000000000010 Rises=F Damp=F
 DIIS: error= 9.55D-09 at cycle   9 NSaved=   9.
 NSaved= 9 IEnMin= 8 EnMin= -2753.87026179884     IErMin= 9 ErrMin= 9.55D-09
 ErrMax= 9.55D-09 EMaxC= 1.00D-01 BMatC= 9.55D-15 BMatP= 1.36D-12
 IDIUse=1 WtCom= 1.00D+00 WtEn= 0.00D+00
 Coeff-Com:  0.101D-07 0.893D-07-0.225D-05-0.120D-03 0.637D-03-0.983D-04
 Coeff-Com: -0.206D-01-0.883D-01 0.111D+01
 Coeff:      0.101D-07 0.893D-07-0.225D-05-0.120D-03 0.637D-03-0.983D-04
 Coeff:     -0.206D-01-0.883D-01 0.111D+01
 Gap=     0.516 Goal=   None    Shift=    0.000
 RMSDP=1.80D-09 MaxDP=7.69D-08 DE= 1.00D-11 OVMax= 9.31D-08

 SCF Done:  E(RwB97XD) =  -2753.87026180     A.U. after    9 cycles
             Convg  =    0.1802D-08             -V/T =  2.0013
 KE= 2.750235125026D+03 PE=-6.580142986417D+03 EE= 1.076037599592D+03
 Leave Link  502 at Mon May  4 15:27:26 2020, MaxMem= 1073741824 cpu:     227.3
 (Enter /home/matheus/.gaussian/g09/l601.exe)
 Copying SCF densities to generalized density rwf, IOpCl= 0 IROHF=0.

 **********************************************************************

            Population analysis using the SCF density.

 **********************************************************************

 Orbital symmetries:
       Occupied  (A) (A) (A) (A) (A) (A) (A) (A) (A) (A) (A) (A)
                 (A) (A) (A) (A) (A) (A)
       Virtual   (A) (A) (A) (A) (A) (A) (A) (A) (A) (A) (A) (A)
                 (A) (A) (A) (A) (A) (A) (A) (A) (A) (A) (A) (A)
                 (A) (A) (A) (A) (A) (A) (A) (A) (A) (A) (A) (A)
                 (A) (A) (A) (A) (A) (A) (A) (A) (A) (A) (A) (A)
                 (A) (A) (A) (A) (A) (A) (A) (A) (A) (A) (A) (A)
                 (A) (A) (A) (A) (A) (A) (A) (A) (A) (A) (A) (A)
                 (A) (A) (A) (A) (A) (A) (A) (A) (A) (A) (A) (A)
                 (A) (A) (A) (A) (A) (A) (A) (A) (A) (A) (A) (A)
                 (A) (A) (A) (A) (A) (A) (A) (A) (A) (A) (A) (A)
                 (A) (A) (A) (A) (A) (A) (A) (A) (A) (A) (A) (A)
                 (A) (A) (A) (A) (A) (A) (A) (A) (A) (A) (A) (A)
                 (A) (A) (A) (A) (A) (A) (A) (A) (A) (A) (A) (A)
                 (A) (A) (A) (A) (A) (A) (A) (A) (A) (A) (A) (A)
                 (A) (A) (A) (A) (A) (A) (A) (A) (A) (A) (A) (A)
                 (A) (A) (A) (A) (A) (A) (A) (A) (A) (A) (A)
 The electronic state is 1-A.
 Alpha  occ. eigenvalues -- -513.08074 -67.34874 -60.89748 -60.89747 -60.89746
 Alpha  occ. eigenvalues --   -9.80179  -7.49479  -7.49478  -7.49478  -3.36163
 Alpha  occ. eigenvalues --   -3.36163  -3.36163  -3.36162  -3.36162  -1.00827
 Alpha  occ. eigenvalues --   -0.48265  -0.48263  -0.48261
 Alpha virt. eigenvalues --    0.03373   0.05232   0.08796   0.10230   0.12442
 Alpha virt. eigenvalues --    0.13384   0.13997   0.14703   0.15979   0.17530
 Alpha virt. eigenvalues --    0.17958   0.18292   0.21206   0.25938   0.26359
 Alpha virt. eigenvalues --    0.26558   0.29546   0.31113   0.33375   0.37247
 Alpha virt. eigenvalues --    0.38036   0.39405   0.39961   0.40719   0.41964
 Alpha virt. eigenvalues --    0.42425   0.46018   0.53130   0.56024   0.57964
 Alpha virt. eigenvalues --    0.61652   0.63614   0.69870   0.70521   0.71777
 Alpha virt. eigenvalues --    0.72763   0.73575   0.75101   0.75430   0.77371
 Alpha virt. eigenvalues --    0.77926   0.83351   0.84898   0.86929   0.88157
 Alpha virt. eigenvalues --    0.89416   0.89983   0.90268   0.95491   0.97540
 Alpha virt. eigenvalues --    0.98194   0.99016   0.99663   1.00750   1.03333
 Alpha virt. eigenvalues --    1.04186   1.09706   1.11971   1.13705   1.15136
 Alpha virt. eigenvalues --    1.16559   1.24754   1.28734   1.32676   1.40536
 Alpha virt. eigenvalues --    1.40739   1.43240   1.44292   1.49384   1.52499
 Alpha virt. eigenvalues --    1.56027   1.60854   1.66574   1.72422   1.75710
 Alpha virt. eigenvalues --    1.79789   1.84521   1.87823   1.95386   2.15900
 Alpha virt. eigenvalues --    2.23272   2.24071   2.27175   2.28166   2.32850
 Alpha virt. eigenvalues --    2.33553   2.34225   2.37350   2.39376   2.41088
 Alpha virt. eigenvalues --    2.47553   2.48336   2.49478   2.51298   2.51818
 Alpha virt. eigenvalues --    2.53771   2.54842   2.60089   2.61283   2.61372
 Alpha virt. eigenvalues --    2.63153   2.64800   2.66536   2.69113   2.73638
 Alpha virt. eigenvalues --    2.76882   2.77408   2.83171   2.89669   2.91154
 Alpha virt. eigenvalues --    2.96829   3.00316   3.09064   3.15907   3.17418
 Alpha virt. eigenvalues --    3.27933   3.28693   3.29401   3.40417   3.55337
 Alpha virt. eigenvalues --    3.63543   3.66467   3.88889   3.89098   4.03198
 Alpha virt. eigenvalues --    4.43014   4.45145   4.52483   4.61461   4.69128
 Alpha virt. eigenvalues --    4.73452   4.83791   4.88047   4.96438   5.05116
 Alpha virt. eigenvalues --    5.12707   5.31310   5.52643   5.67737   5.70366
 Alpha virt. eigenvalues --    5.93464   6.03722   6.28506   6.71633   6.96114
 Alpha virt. eigenvalues --    7.27940   7.38854   7.65958   7.67659   7.80717
 Alpha virt. eigenvalues --    7.88621   8.03899   8.13070   8.15368   8.29358
 Alpha virt. eigenvalues --    8.31696   8.38499   8.72204   9.02843   9.51463
 Alpha virt. eigenvalues --    9.75315   9.78873   9.89601   9.91942   9.95475
 Alpha virt. eigenvalues --   10.22052  10.23489  10.74165  10.88334  11.45828
 Alpha virt. eigenvalues --   11.64237  11.68731  11.93945  12.07516  13.30666
 Alpha virt. eigenvalues --   13.60736  14.56870  62.38800  64.83393
          Condensed to atoms (all electrons):
              1          2          3          4          5
     1  O    0.002099  -0.000237  -0.001944   0.000447  -0.005362
     2  O   -0.000237   0.002352   0.000388  -0.002163  -0.004557
     3  H   -0.001944   0.000388   0.002576  -0.000234  -0.016108
     4  H    0.000447  -0.002163  -0.000234   0.002798  -0.017146
     5  Kr  -0.005362  -0.004557  -0.016108  -0.017146  36.084007
 Mulliken atomic charges:
              1
     1  O    0.004997
     2  O    0.004217
     3  H    0.015323
     4  H    0.016298
     5  Kr  -0.040835
 Sum of Mulliken atomic charges =   0.00000
 Mulliken charges with hydrogens summed into heavy atoms:
              1
     1  O    0.020320
     2  O    0.020515
     5  Kr  -0.040835
 Sum of Mulliken charges with hydrogens summed into heavy atoms =   0.00000
          Condensed to fragments (all electrons):
     1       0.040835
     2      -0.040835
 Electronic spatial extent (au):  <R**2>=            159.3949
 Charge=              0.0000 electrons
 Dipole moment (field-independent basis, Debye):
    X=             -0.0016    Y=              0.0000    Z=              0.0000  Tot=              0.0016
 Quadrupole moment (field-independent basis, Debye-Ang):
   XX=            -17.6429   YY=            -17.6514   ZZ=            -17.6614
   XY=             -0.0001   XZ=             -0.0012   YZ=             -0.0006
 Traceless Quadrupole moment (field-independent basis, Debye-Ang):
   XX=              0.0090   YY=              0.0005   ZZ=             -0.0095
   XY=             -0.0001   XZ=             -0.0012   YZ=             -0.0006
 Octapole moment (field-independent basis, Debye-Ang**2):
  XXX=            -51.1377  YYY=              0.0069  ZZZ=              0.0657  XYY=            -17.0597
  XXY=              0.0020  XXZ=              0.0201  XZZ=            -17.0665  YZZ=              0.0025
  YYZ=              0.0217  XYZ=             -0.0003
 Hexadecapole moment (field-independent basis, Debye-Ang**3):
 XXXX=           -117.2727 YYYY=            -18.4827 ZZZZ=            -18.5089 XXXY=              0.0061
 XXXZ=              0.0599 YYYX=              0.0064 YYYZ=              0.0001 ZZZX=              0.0602
 ZZZY=             -0.0016 XXYY=            -22.6370 XXZZ=            -22.6460 YYZZ=             -6.1620
 XXYZ=             -0.0003 YYXZ=              0.0205 ZZXY=              0.0020
 N-N= 0.000000000000D+00 E-N=-6.580142984949D+03  KE= 2.750235125026D+03
 No NMR shielding tensors so no spin-rotation constants.
 Leave Link  601 at Mon May  4 15:27:26 2020, MaxMem= 1073741824 cpu:       0.8
 (Enter /home/matheus/.gaussian/g09/l122.exe)
 Counterpoise: doing MCBS calculation for fragment   1
 Leave Link  122 at Mon May  4 15:27:26 2020, MaxMem= 1073741824 cpu:       0.0
 (Enter /home/matheus/.gaussian/g09/l301.exe)
 Basis read from rwf:  (5D, 7F)
 No pseudopotential information found on rwf file.
 There are   138 symmetry adapted basis functions of A   symmetry.
 Integral buffers will be    131072 words long.
 Raffenetti 2 integral format.
 Two-electron integral symmetry is turned on.
   138 basis functions,   198 primitive gaussians,   160 cartesian basis functions
     9 alpha electrons        9 beta electrons
       nuclear repulsion energy        36.6659649233 Hartrees.
 IExCor= 4639 DFT=T Ex+Corr=wB97XD ExCW=0 ScaHFX=  1.000000
 ScaDFX=  1.000000  1.000000  1.000000  1.000000 ScalE2=  1.000000  1.000000
 IRadAn=      5 IRanWt=     -1 IRanGd=            0 ICorTp=0
  HFx wShort=  0.000000 wLong=  0.250000 cFull=  0.222036 cShort=  0.000000 cLong=  0.777964
  DFx wShort=  0.000000 wLong=  0.250000 cFull=  0.000000 cShort=  0.000000 cLong=  1.000000
 NAtoms=    5 NActive=    4 NUniq=    4 SFac= 1.00D+00 NAtFMM=   60 NAOKFM=F Big=F
 R6Disp: Dispersion energy =        -0.0002196121 Hartrees.
 Nuclear repulsion after empirical dispersion term =       36.6657453113 Hartrees.
 No density basis found on file   718.
 Leave Link  301 at Mon May  4 15:27:26 2020, MaxMem= 1073741824 cpu:       0.2
 (Enter /home/matheus/.gaussian/g09/l302.exe)
 NPDir=0 NMtPBC=     1 NCelOv=     1 NCel=       1 NClECP=     1 NCelD=      1
         NCelK=      1 NCelE2=     1 NClLst=     1 CellRange=     0.0.
 One-electron integrals computed using PRISM.
 NBasis=   138 RedAO= T  NBF=   138
 NBsUse=   138 1.00D-06 NBFU=   138
 Precomputing XC quadrature grid using
 IXCGrd= 2 IRadAn=           5 IRanWt=          -1 IRanGd=           0 AccXCQ= 0.00D+00.
 NRdTot=     344 NPtTot=       92556 NUsed=       95038 NTot=       95070
 NSgBfM=   160   160   160   160   160 NAtAll=     4     4.
 Leave Link  302 at Mon May  4 15:27:26 2020, MaxMem= 1073741824 cpu:       0.8
 (Enter /home/matheus/.gaussian/g09/l303.exe)
 DipDrv:  MaxL=1.
 Leave Link  303 at Mon May  4 15:27:26 2020, MaxMem= 1073741824 cpu:       0.2
 (Enter /home/matheus/.gaussian/g09/l401.exe)
 Harris functional with IExCor= 4639 diagonalized for initial guess.
 ExpMin= 2.53D-02 ExpMax= 1.53D+04 ExpMxC= 5.22D+02 IAcc=3 IRadAn=         5 AccDes= 0.00D+00
 HarFok:  IExCor= 4639 AccDes= 0.00D+00 IRadAn=         5 IDoV= 1
 ScaDFX=  1.000000  1.000000  1.000000  1.000000
 FoFCou: FMM=F IPFlag=           0 FMFlag=      100000 FMFlg1=           0
         NFxFlg=           0 DoJE=T BraDBF=F KetDBF=T FulRan=T
         Omega=  0.000000  0.000000  1.000000  0.000000  0.000000 ICntrl=     500 IOpCl=  0
         NMat0=    1 NMatS0=    1 NMatT0=    0 NMatD0=    1 NMtDS0=    0 NMtDT0=    0
         I1Cent=           4 NGrid=           0.
 Petite list used in FoFCou.
 Harris En= -145.941625927697    
 Initial guess orbital symmetries:
       Occupied  (A) (A) (A) (A) (A) (A) (A) (A) (A)
       Virtual   (A) (A) (A) (A) (A) (A) (A) (A) (A) (A) (A) (A)
                 (A) (A) (A) (A) (A) (A) (A) (A) (A) (A) (A) (A)
                 (A) (A) (A) (A) (A) (A) (A) (A) (A) (A) (A) (A)
                 (A) (A) (A) (A) (A) (A) (A) (A) (A) (A) (A) (A)
                 (A) (A) (A) (A) (A) (A) (A) (A) (A) (A) (A) (A)
                 (A) (A) (A) (A) (A) (A) (A) (A) (A) (A) (A) (A)
                 (A) (A) (A) (A) (A) (A) (A) (A) (A) (A) (A) (A)
                 (A) (A) (A) (A) (A) (A) (A) (A) (A) (A) (A) (A)
                 (A) (A) (A) (A) (A) (A) (A) (A) (A) (A) (A) (A)
                 (A) (A) (A) (A) (A) (A) (A) (A) (A) (A) (A) (A)
                 (A) (A) (A) (A) (A) (A) (A) (A) (A)
 The electronic state of the initial guess is 1-A.
 Leave Link  401 at Mon May  4 15:27:26 2020, MaxMem= 1073741824 cpu:       2.2
 (Enter /home/matheus/.gaussian/g09/l502.exe)
 Closed shell SCF:
 Requested convergence on RMS density matrix=1.00D-08 within 128 cycles.
 Requested convergence on MAX density matrix=1.00D-06.
 Requested convergence on             energy=1.00D-06.
 No special actions if energy rises.
 Using DIIS extrapolation, IDIIS=  1040.
 Integral symmetry usage will be decided dynamically.
        94980 words used for storage of precomputed grid.
 IEnd=      192360 IEndB=      192360 NGot=  1073741824 MDV=  1073591865
 LenX=  1073591865 LenY=  1073565824
 Fock matrices will be formed incrementally for  20 cycles.

 Cycle   1  Pass 1  IDiag  1:
 FoFJK:  IHMeth= 1 ICntrl=     0 DoSepK=T KAlg= 1 I1Cent= 0 FoldK=F
 FoFCou: FMM=F IPFlag=           0 FMFlag=      100000 FMFlg1=           0
         NFxFlg=           0 DoJE=T BraDBF=F KetDBF=F FulRan=T
         Omega=  0.000000  0.000000  1.000000  0.000000  0.000000 ICntrl=     500 IOpCl=  0
         NMat0=    1 NMatS0=    1 NMatT0=    0 NMatD0=    1 NMtDS0=    0 NMtDT0=    0
         I1Cent=           0 NGrid=           0.
 Symmetry not used in FoFCou.
 E= -151.454055437294    
 DIIS: error= 5.56D-02 at cycle   1 NSaved=   1.
 NSaved= 1 IEnMin= 1 EnMin= -151.454055437294     IErMin= 1 ErrMin= 5.56D-02
 ErrMax= 5.56D-02 EMaxC= 1.00D-01 BMatC= 3.17D-01 BMatP= 3.17D-01
 IDIUse=3 WtCom= 4.44D-01 WtEn= 5.56D-01
 Coeff-Com:  0.100D+01
 Coeff-En:   0.100D+01
 Coeff:      0.100D+01
 Gap=     0.518 Goal=   None    Shift=    0.000
 GapD=    0.518 DampG=2.000 DampE=0.500 DampFc=1.0000 IDamp=-1.
 RMSDP=3.49D-03 MaxDP=9.49D-02              OVMax= 1.23D-01

 Cycle   2  Pass 1  IDiag  1:
 RMSU=  2.42D-03    CP:  9.51D-01
 FoFJK:  IHMeth= 1 ICntrl=     0 DoSepK=T KAlg= 1 I1Cent= 0 FoldK=F
 E= -151.496388947452     Delta-E=       -0.042333510159 Rises=F Damp=F
 DIIS: error= 3.02D-02 at cycle   2 NSaved=   2.
 NSaved= 2 IEnMin= 2 EnMin= -151.496388947452     IErMin= 2 ErrMin= 3.02D-02
 ErrMax= 3.02D-02 EMaxC= 1.00D-01 BMatC= 9.66D-02 BMatP= 3.17D-01
 IDIUse=3 WtCom= 6.98D-01 WtEn= 3.02D-01
 Coeff-Com:  0.334D+00 0.666D+00
 Coeff-En:   0.323D+00 0.677D+00
 Coeff:      0.331D+00 0.669D+00
 Gap=     0.468 Goal=   None    Shift=    0.000
 RMSDP=1.49D-03 MaxDP=4.73D-02 DE=-4.23D-02 OVMax= 6.40D-02

 Cycle   3  Pass 1  IDiag  1:
 RMSU=  5.71D-04    CP:  9.74D-01  6.46D-01
 FoFJK:  IHMeth= 1 ICntrl=     0 DoSepK=T KAlg= 1 I1Cent= 0 FoldK=F
 E= -151.548052313766     Delta-E=       -0.051663366314 Rises=F Damp=F
 DIIS: error= 7.91D-03 at cycle   3 NSaved=   3.
 NSaved= 3 IEnMin= 3 EnMin= -151.548052313766     IErMin= 3 ErrMin= 7.91D-03
[...]
 FoFCou: FMM=F IPFlag=           0 FMFlag=      100000 FMFlg1=           0
         NFxFlg=           0 DoJE=T BraDBF=F KetDBF=F FulRan=T
         Omega=  0.000000  0.000000  1.000000  0.000000  0.000000 ICntrl=     500 IOpCl=  0
         NMat0=    1 NMatS0=    1 NMatT0=    0 NMatD0=    1 NMtDS0=    0 NMtDT0=    0
         I1Cent=           0 NGrid=           0.
 Symmetry not used in FoFCou.
 E= -2753.87012792624    
 DIIS: error= 1.67D-04 at cycle   1 NSaved=   1.
 NSaved= 1 IEnMin= 1 EnMin= -2753.87012792624     IErMin= 1 ErrMin= 1.67D-04
 ErrMax= 1.67D-04 EMaxC= 1.00D-01 BMatC= 3.98D-06 BMatP= 3.98D-06
 IDIUse=3 WtCom= 9.98D-01 WtEn= 1.67D-03
 Coeff-Com:  0.100D+01
 Coeff-En:   0.100D+01
 Coeff:      0.100D+01
 Gap=     0.514 Goal=   None    Shift=    0.000
 RMSDP=1.53D-05 MaxDP=7.14D-04              OVMax= 3.70D-04

 Cycle   2  Pass 1  IDiag  1:
 RMSU=  1.08D-05    CP:  1.00D+00
 FoFJK:  IHMeth= 1 ICntrl=     0 DoSepK=T KAlg= 1 I1Cent= 0 FoldK=F
 E= -2753.87012859215     Delta-E=       -0.000000665908 Rises=F Damp=F
 DIIS: error= 7.05D-06 at cycle   2 NSaved=   2.
 NSaved= 2 IEnMin= 2 EnMin= -2753.87012859215     IErMin= 2 ErrMin= 7.05D-06
 ErrMax= 7.05D-06 EMaxC= 1.00D-01 BMatC= 5.55D-09 BMatP= 3.98D-06
 IDIUse=1 WtCom= 1.00D+00 WtEn= 0.00D+00
 Coeff-Com: -0.120D-01 0.101D+01
 Coeff:     -0.120D-01 0.101D+01
 Gap=     0.514 Goal=   None    Shift=    0.000
 RMSDP=1.44D-06 MaxDP=5.67D-05 DE=-6.66D-07 OVMax= 5.77D-05

 Cycle   3  Pass 1  IDiag  1:
 RMSU=  4.87D-07    CP:  1.00D+00  1.08D+00
 FoFJK:  IHMeth= 1 ICntrl=     0 DoSepK=T KAlg= 1 I1Cent= 0 FoldK=F
 E= -2753.87012860201     Delta-E=       -0.000000009859 Rises=F Damp=F
 DIIS: error= 1.22D-06 at cycle   3 NSaved=   3.
 NSaved= 3 IEnMin= 3 EnMin= -2753.87012860201     IErMin= 3 ErrMin= 1.22D-06
 ErrMax= 1.22D-06 EMaxC= 1.00D-01 BMatC= 1.73D-10 BMatP= 5.55D-09
 IDIUse=1 WtCom= 1.00D+00 WtEn= 0.00D+00
 Coeff-Com: -0.143D-03-0.935D-01 0.109D+01
 Coeff:     -0.143D-03-0.935D-01 0.109D+01
 Gap=     0.514 Goal=   None    Shift=    0.000
 RMSDP=1.86D-07 MaxDP=5.98D-06 DE=-9.86D-09 OVMax= 1.16D-05

 Cycle   4  Pass 1  IDiag  1:
 RMSU=  5.73D-08    CP:  1.00D+00  1.09D+00  1.22D+00
 FoFJK:  IHMeth= 1 ICntrl=     0 DoSepK=T KAlg= 1 I1Cent= 0 FoldK=F
 E= -2753.87012860229     Delta-E=       -0.000000000286 Rises=F Damp=F
 DIIS: error= 5.10D-07 at cycle   4 NSaved=   4.
 NSaved= 4 IEnMin= 4 EnMin= -2753.87012860229     IErMin= 4 ErrMin= 5.10D-07
 ErrMax= 5.10D-07 EMaxC= 1.00D-01 BMatC= 2.93D-11 BMatP= 1.73D-10
 IDIUse=1 WtCom= 1.00D+00 WtEn= 0.00D+00
 Coeff-Com:  0.275D-03-0.554D-01 0.333D+00 0.722D+00
 Coeff:      0.275D-03-0.554D-01 0.333D+00 0.722D+00
 Gap=     0.514 Goal=   None    Shift=    0.000
 RMSDP=2.74D-08 MaxDP=8.80D-07 DE=-2.86D-10 OVMax= 1.68D-06

 Cycle   5  Pass 1  IDiag  1:
 RMSU=  1.30D-08    CP:  1.00D+00  1.09D+00  1.25D+00  1.03D+00
 FoFJK:  IHMeth= 1 ICntrl=     0 DoSepK=T KAlg= 1 I1Cent= 0 FoldK=F
 E= -2753.87012860232     Delta-E=       -0.000000000026 Rises=F Damp=F
 DIIS: error= 4.83D-08 at cycle   5 NSaved=   5.
 NSaved= 5 IEnMin= 5 EnMin= -2753.87012860232     IErMin= 5 ErrMin= 4.83D-08
 ErrMax= 4.83D-08 EMaxC= 1.00D-01 BMatC= 2.86D-13 BMatP= 2.93D-11
 IDIUse=1 WtCom= 1.00D+00 WtEn= 0.00D+00
 Coeff-Com:  0.659D-05 0.164D-02-0.255D-01 0.130D-01 0.101D+01
 Coeff:      0.659D-05 0.164D-02-0.255D-01 0.130D-01 0.101D+01
 Gap=     0.514 Goal=   None    Shift=    0.000
 RMSDP=1.08D-08 MaxDP=4.58D-07 DE=-2.59D-11 OVMax= 4.43D-07

 Cycle   6  Pass 1  IDiag  1:
 RMSU=  1.50D-09    CP:  1.00D+00  1.09D+00  1.25D+00  1.10D+00  1.15D+00
 FoFJK:  IHMeth= 1 ICntrl=     0 DoSepK=T KAlg= 1 I1Cent= 0 FoldK=F
 E= -2753.87012860232     Delta-E=        0.000000000000 Rises=F Damp=F
 DIIS: error= 1.61D-08 at cycle   6 NSaved=   6.
 NSaved= 6 IEnMin= 5 EnMin= -2753.87012860232     IErMin= 6 ErrMin= 1.61D-08
 ErrMax= 1.61D-08 EMaxC= 1.00D-01 BMatC= 3.35D-14 BMatP= 2.86D-13
 IDIUse=1 WtCom= 1.00D+00 WtEn= 0.00D+00
 Coeff-Com: -0.136D-04 0.356D-02-0.256D-01-0.339D-01 0.266D+00 0.790D+00
 Coeff:     -0.136D-04 0.356D-02-0.256D-01-0.339D-01 0.266D+00 0.790D+00
 Gap=     0.514 Goal=   None    Shift=    0.000
 RMSDP=1.78D-09 MaxDP=7.46D-08 DE= 0.00D+00 OVMax= 9.54D-08

 SCF Done:  E(RwB97XD) =  -2753.87012860     A.U. after    6 cycles
             Convg  =    0.1783D-08             -V/T =  2.0013
 KE= 2.750283480441D+03 PE=-6.580194809280D+03 EE= 1.076041200236D+03
 Leave Link  502 at Mon May  4 15:49:05 2020, MaxMem= 1073741824 cpu:     111.1
 (Enter /home/matheus/.gaussian/g09/l122.exe)
 Restoring MOs from calculation   4 to rwf.
 Counterpoise: doing MCBS calculation for fragment   1
 Leave Link  122 at Mon May  4 15:49:05 2020, MaxMem= 1073741824 cpu:       0.0
 (Enter /home/matheus/.gaussian/g09/l301.exe)
 Basis read from rwf:  (5D, 7F)
 No pseudopotential information found on rwf file.
 There are   138 symmetry adapted basis functions of A   symmetry.
 Integral buffers will be    131072 words long.
 Raffenetti 2 integral format.
 Two-electron integral symmetry is turned on.
   138 basis functions,   198 primitive gaussians,   160 cartesian basis functions
     9 alpha electrons        9 beta electrons
       nuclear repulsion energy        36.6659649233 Hartrees.
 IExCor= 4639 DFT=T Ex+Corr=wB97XD ExCW=0 ScaHFX=  1.000000
 ScaDFX=  1.000000  1.000000  1.000000  1.000000 ScalE2=  1.000000  1.000000
 IRadAn=      5 IRanWt=     -1 IRanGd=            0 ICorTp=0
  HFx wShort=  0.000000 wLong=  0.250000 cFull=  0.222036 cShort=  0.000000 cLong=  0.777964
  DFx wShort=  0.000000 wLong=  0.250000 cFull=  0.000000 cShort=  0.000000 cLong=  1.000000
 NAtoms=    5 NActive=    4 NUniq=    4 SFac= 1.00D+00 NAtFMM=   60 NAOKFM=F Big=F
 R6Disp: Dispersion energy =        -0.0002196121 Hartrees.
 Nuclear repulsion after empirical dispersion term =       36.6657453113 Hartrees.
 No density basis found on file   718.
 Leave Link  301 at Mon May  4 15:49:05 2020, MaxMem= 1073741824 cpu:       0.2
 (Enter /home/matheus/.gaussian/g09/l302.exe)
 NPDir=0 NMtPBC=     1 NCelOv=     1 NCel=       1 NClECP=     1 NCelD=      1
         NCelK=      1 NCelE2=     1 NClLst=     1 CellRange=     0.0.
 One-electron integrals computed using PRISM.
 NBasis=   138 RedAO= T  NBF=   138
 NBsUse=   138 1.00D-06 NBFU=   138
 Precomputing XC quadrature grid using
 IXCGrd= 2 IRadAn=           5 IRanWt=          -1 IRanGd=           0 AccXCQ= 0.00D+00.
 NRdTot=     344 NPtTot=       92556 NUsed=       95038 NTot=       95070
 NSgBfM=   160   160   160   160   160 NAtAll=     4     4.
 Leave Link  302 at Mon May  4 15:49:05 2020, MaxMem= 1073741824 cpu:       0.8
 (Enter /home/matheus/.gaussian/g09/l303.exe)
 DipDrv:  MaxL=1.
 Leave Link  303 at Mon May  4 15:49:05 2020, MaxMem= 1073741824 cpu:       0.1
 (Enter /home/matheus/.gaussian/g09/l401.exe)
 Initial guess read from the read-write file.
 Guess basis will be translated and rotated to current coordinates.
 Initial guess orbital symmetries:
       Occupied  (A) (A) (A) (A) (A) (A) (A) (A) (A)
       Virtual   (A) (A) (A) (A) (A) (A) (A) (A) (A) (A) (A) (A)
                 (A) (A) (A) (A) (A) (A) (A) (A) (A) (A) (A) (A)
                 (A) (A) (A) (A) (A) (A) (A) (A) (A) (A) (A) (A)
                 (A) (A) (A) (A) (A) (A) (A) (A) (A) (A) (A) (A)
                 (A) (A) (A) (A) (A) (A) (A) (A) (A) (A) (A) (A)
                 (A) (A) (A) (A) (A) (A) (A) (A) (A) (A) (A) (A)
                 (A) (A) (A) (A) (A) (A) (A) (A) (A) (A) (A) (A)
                 (A) (A) (A) (A) (A) (A) (A) (A) (A) (A) (A) (A)
                 (A) (A) (A) (A) (A) (A) (A) (A) (A) (A) (A) (A)
                 (A) (A) (A) (A) (A) (A) (A) (A) (A) (A) (A) (A)
                 (A) (A) (A) (A) (A) (A) (A) (A) (A)
 The electronic state of the initial guess is 1-A.
 Generating alternative initial guess.
 Harris functional with IExCor= 4639 diagonalized for initial guess.
 ExpMin= 2.53D-02 ExpMax= 1.53D+04 ExpMxC= 5.22D+02 IAcc=3 IRadAn=         5 AccDes= 0.00D+00
 HarFok:  IExCor= 4639 AccDes= 0.00D+00 IRadAn=         5 IDoV= 1
 ScaDFX=  1.000000  1.000000  1.000000  1.000000
 FoFCou: FMM=F IPFlag=           0 FMFlag=      100000 FMFlg1=           0
         NFxFlg=           0 DoJE=T BraDBF=F KetDBF=T FulRan=T
         Omega=  0.000000  0.000000  1.000000  0.000000  0.000000 ICntrl=     500 IOpCl=  0
         NMat0=    1 NMatS0=    1 NMatT0=    0 NMatD0=    1 NMtDS0=    0 NMtDT0=    0
         I1Cent=           4 NGrid=           0.
 Petite list used in FoFCou.
 Harris En= -145.941625927771    
 Leave Link  401 at Mon May  4 15:49:05 2020, MaxMem= 1073741824 cpu:       2.6
 (Enter /home/matheus/.gaussian/g09/l502.exe)
 Closed shell SCF:
 Requested convergence on RMS density matrix=1.00D-08 within 128 cycles.
 Requested convergence on MAX density matrix=1.00D-06.
 Requested convergence on             energy=1.00D-06.
 No special actions if energy rises.
 Using DIIS extrapolation, IDIIS=  1040.
 Integral symmetry usage will be decided dynamically.
        94980 words used for storage of precomputed grid.
 IEnd=      192360 IEndB=      192360 NGot=  1073741824 MDV=  1073591865
 LenX=  1073591865 LenY=  1073565824
 Fock matrices will be formed incrementally for  20 cycles.

 Cycle   1  Pass 1  IDiag  1:
 FoFJK:  IHMeth= 1 ICntrl=     0 DoSepK=T KAlg= 1 I1Cent= 0 FoldK=F
 FoFCou: FMM=F IPFlag=           0 FMFlag=      100000 FMFlg1=           0
         NFxFlg=           0 DoJE=T BraDBF=F KetDBF=F FulRan=T
         Omega=  0.000000  0.000000  1.000000  0.000000  0.000000 ICntrl=     500 IOpCl=  0
         NMat0=    1 NMatS0=    1 NMatT0=    0 NMatD0=    1 NMtDS0=    0 NMtDT0=    0
         I1Cent=           0 NGrid=           0.
 Symmetry not used in FoFCou.
 E= -151.552467280920    
 DIIS: error= 9.00D-07 at cycle   1 NSaved=   1.
 NSaved= 1 IEnMin= 1 EnMin= -151.552467280920     IErMin= 1 ErrMin= 9.00D-07
 ErrMax= 9.00D-07 EMaxC= 1.00D-01 BMatC= 9.33D-11 BMatP= 9.33D-11
 IDIUse=1 WtCom= 1.00D+00 WtEn= 0.00D+00
 Coeff-Com:  0.100D+01
 Coeff:      0.100D+01
 Gap=     0.399 Goal=   None    Shift=    0.000
 RMSDP=7.99D-08 MaxDP=2.03D-06              OVMax= 3.40D-06

 Cycle   2  Pass 1  IDiag  1:
 RMSU=  5.65D-08    CP:  1.00D+00
 FoFJK:  IHMeth= 1 ICntrl=     0 DoSepK=T KAlg= 1 I1Cent= 0 FoldK=F
 E= -151.552467281016     Delta-E=       -0.000000000097 Rises=F Damp=F
 DIIS: error= 1.58D-07 at cycle   2 NSaved=   2.
 NSaved= 2 IEnMin= 2 EnMin= -151.552467281016     IErMin= 2 ErrMin= 1.58D-07
 ErrMax= 1.58D-07 EMaxC= 1.00D-01 BMatC= 4.57D-12 BMatP= 9.33D-11
 IDIUse=1 WtCom= 1.00D+00 WtEn= 0.00D+00
 Coeff-Com: -0.798D-01 0.108D+01
 Coeff:     -0.798D-01 0.108D+01
 Gap=     0.399 Goal=   None    Shift=    0.000
 RMSDP=2.20D-08 MaxDP=6.48D-07 DE=-9.69D-11 OVMax= 1.02D-06

 Cycle   3  Pass 1  IDiag  1:
 RMSU=  8.39D-09    CP:  1.00D+00  1.23D+00
 FoFJK:  IHMeth= 1 ICntrl=     0 DoSepK=T KAlg= 1 I1Cent= 0 FoldK=F
 E= -151.552467281021     Delta-E=       -0.000000000005 Rises=F Damp=F
 DIIS: error= 1.62D-07 at cycle   3 NSaved=   3.
 NSaved= 3 IEnMin= 3 EnMin= -151.552467281021     IErMin= 2 ErrMin= 1.58D-07
 ErrMax= 1.62D-07 EMaxC= 1.00D-01 BMatC= 2.36D-12 BMatP= 4.57D-12
 IDIUse=1 WtCom= 1.00D+00 WtEn= 0.00D+00
 Coeff-Com: -0.624D-01 0.458D+00 0.604D+00
 Coeff:     -0.624D-01 0.458D+00 0.604D+00
 Gap=     0.399 Goal=   None    Shift=    0.000
 RMSDP=7.38D-09 MaxDP=1.81D-07 DE=-4.77D-12 OVMax= 4.49D-07

 SCF Done:  E(RwB97XD) =  -151.552467281     A.U. after    3 cycles
             Convg  =    0.7383D-08             -V/T =  2.0059
 KE= 1.506671187477D+02 PE=-4.317515636735D+02 EE= 9.286623233358D+01
 Leave Link  502 at Mon May  4 15:49:08 2020, MaxMem= 1073741824 cpu:      22.8
 (Enter /home/matheus/.gaussian/g09/l122.exe)
 Restoring MOs from calculation   5 to rwf.
 Counterpoise: doing MCBS calculation for fragment   2
 Leave Link  122 at Mon May  4 15:49:08 2020, MaxMem= 1073741824 cpu:       0.0
 (Enter /home/matheus/.gaussian/g09/l301.exe)
 Basis read from rwf:  (5D, 7F)
 No pseudopotential information found on rwf file.
 There are    59 symmetry adapted basis functions of A   symmetry.
 Integral buffers will be    131072 words long.
 Raffenetti 2 integral format.
 Two-electron integral symmetry is turned on.
    59 basis functions,   217 primitive gaussians,    69 cartesian basis functions
    18 alpha electrons       18 beta electrons
       nuclear repulsion energy         0.0000000000 Hartrees.
 IExCor= 4639 DFT=T Ex+Corr=wB97XD ExCW=0 ScaHFX=  1.000000
 ScaDFX=  1.000000  1.000000  1.000000  1.000000 ScalE2=  1.000000  1.000000
 IRadAn=      5 IRanWt=     -1 IRanGd=            0 ICorTp=0
  HFx wShort=  0.000000 wLong=  0.250000 cFull=  0.222036 cShort=  0.000000 cLong=  0.777964
  DFx wShort=  0.000000 wLong=  0.250000 cFull=  0.000000 cShort=  0.000000 cLong=  1.000000
 NAtoms=    5 NActive=    1 NUniq=    1 SFac= 1.00D+00 NAtFMM=   60 NAOKFM=F Big=F
 R6Disp: Dispersion energy =         0.0000000000 Hartrees.
 Nuclear repulsion after empirical dispersion term =        0.0000000000 Hartrees.
 No density basis found on file   718.
 Leave Link  301 at Mon May  4 15:49:08 2020, MaxMem= 1073741824 cpu:       0.2
 (Enter /home/matheus/.gaussian/g09/l302.exe)
 NPDir=0 NMtPBC=     1 NCelOv=     1 NCel=       1 NClECP=     1 NCelD=      1
         NCelK=      1 NCelE2=     1 NClLst=     1 CellRange=     0.0.
 One-electron integrals computed using PRISM.
 NBasis=    59 RedAO= T  NBF=    59
 NBsUse=    59 1.00D-06 NBFU=    59
 Precomputing XC quadrature grid using
 IXCGrd= 2 IRadAn=           5 IRanWt=          -1 IRanGd=           0 AccXCQ= 0.00D+00.
 NRdTot=      81 NPtTot=       30352 NUsed=       30981 NTot=       31013
 NSgBfM=    69    69    69    69    69 NAtAll=     1     1.
 Leave Link  302 at Mon May  4 15:49:08 2020, MaxMem= 1073741824 cpu:       0.6
 (Enter /home/matheus/.gaussian/g09/l303.exe)
 DipDrv:  MaxL=1.
 Leave Link  303 at Mon May  4 15:49:08 2020, MaxMem= 1073741824 cpu:       0.1
 (Enter /home/matheus/.gaussian/g09/l401.exe)
 Initial guess read from the read-write file.
 Guess basis will be translated and rotated to current coordinates.
 Initial guess orbital symmetries:
       Occupied  (A) (A) (A) (A) (A) (A) (A) (A) (A) (A) (A) (A)
                 (A) (A) (A) (A) (A) (A)
       Virtual   (A) (A) (A) (A) (A) (A) (A) (A) (A) (A) (A) (A)
                 (A) (A) (A) (A) (A) (A) (A) (A) (A) (A) (A) (A)
                 (A) (A) (A) (A) (A) (A) (A) (A) (A) (A) (A) (A)
                 (A) (A) (A) (A) (A)
 The electronic state of the initial guess is 1-A.
 Generating alternative initial guess.
 Harris functional with IExCor= 4639 diagonalized for initial guess.
 ExpMin= 4.00D-02 ExpMax= 1.17D+07 ExpMxC= 1.33D+04 IAcc=3 IRadAn=         5 AccDes= 0.00D+00
 HarFok:  IExCor= 4639 AccDes= 0.00D+00 IRadAn=         5 IDoV= 1
 ScaDFX=  1.000000  1.000000  1.000000  1.000000
 FoFCou: FMM=F IPFlag=           0 FMFlag=      100000 FMFlg1=           0
         NFxFlg=           0 DoJE=T BraDBF=F KetDBF=T FulRan=T
         Omega=  0.000000  0.000000  1.000000  0.000000  0.000000 ICntrl=     500 IOpCl=  0
         NMat0=    1 NMatS0=    1 NMatT0=    0 NMatD0=    1 NMtDS0=    0 NMtDT0=    0
         I1Cent=           4 NGrid=           0.
 Petite list used in FoFCou.
 Harris En= -2729.45839233129    
 Leave Link  401 at Mon May  4 15:49:08 2020, MaxMem= 1073741824 cpu:       1.0
 (Enter /home/matheus/.gaussian/g09/l502.exe)
 Closed shell SCF:
 Requested convergence on RMS density matrix=1.00D-08 within 128 cycles.
 Requested convergence on MAX density matrix=1.00D-06.
 Requested convergence on             energy=1.00D-06.
 No special actions if energy rises.
 Using DIIS extrapolation, IDIIS=  1040.
 Integral symmetry usage will be decided dynamically.
        30923 words used for storage of precomputed grid.
 IEnd=       64406 IEndB=       64406 NGot=  1073741824 MDV=  1073698889
 LenX=  1073698889 LenY=  1073693687
 Fock matrices will be formed incrementally for  20 cycles.

 Cycle   1  Pass 1  IDiag  1:
 FoFJK:  IHMeth= 1 ICntrl=     0 DoSepK=T KAlg= 1 I1Cent= 0 FoldK=F
 FoFCou: FMM=F IPFlag=           0 FMFlag=      100000 FMFlg1=           0
         NFxFlg=           0 DoJE=T BraDBF=F KetDBF=F FulRan=T
         Omega=  0.000000  0.000000  1.000000  0.000000  0.000000 ICntrl=     500 IOpCl=  0
         NMat0=    1 NMatS0=    1 NMatT0=    0 NMatD0=    1 NMtDS0=    0 NMtDT0=    0
         I1Cent=           0 NGrid=           0.
 Symmetry not used in FoFCou.
 E= -2753.87011063501    
 DIIS: error= 1.24D-13 at cycle   1 NSaved=   1.
 NSaved= 1 IEnMin= 1 EnMin= -2753.87011063501     IErMin= 1 ErrMin= 1.24D-13
 ErrMax= 1.24D-13 EMaxC= 1.00D-01 BMatC= 4.13D-25 BMatP= 4.13D-25
 IDIUse=1 WtCom= 1.00D+00 WtEn= 0.00D+00
 Coeff-Com:  0.100D+01
 Coeff:      0.100D+01
 Gap=     0.578 Goal=   None    Shift=    0.000
 RMSDP=1.39D-14 MaxDP=2.54D-13              OVMax= 7.85D-14

 SCF Done:  E(RwB97XD) =  -2753.87011064     A.U. after    1 cycles
             Convg  =    0.1393D-13             -V/T =  2.0013
 KE= 2.750289370128D+03 PE=-6.580200885036D+03 EE= 1.076041404273D+03
 Leave Link  502 at Mon May  4 15:49:10 2020, MaxMem= 1073741824 cpu:      11.7
 (Enter /home/matheus/.gaussian/g09/l122.exe)
 Restoring MOs from calculation   1 to rwf.
 Counterpoise: corrected energy =   -2905.423064598157
 Counterpoise: BSSE energy =       0.000021756081
 Leave Link  122 at Mon May  4 15:49:10 2020, MaxMem= 1073741824 cpu:       0.0
 (Enter /home/matheus/.gaussian/g09/l108.exe)
 Scan completed.

 Summary of the potential surface scan:
   N      R1          SCF    
 ----  ---------  -----------
    1     3.0000  -2753.87011
    2     3.1000  -2753.87011
    3     3.2000  -2753.87011
    4     3.3000  -2753.87011
    5     3.4000  -2753.87011
    6     3.5000  -2753.87011
    7     3.6000  -2753.87011
    8     3.7000  -2753.87011
    9     3.8000  -2753.87011
   10     3.9000  -2753.87011
   11     4.0000  -2753.87011
   12     4.1000  -2753.87011
   13     4.2000  -2753.87011
   14     4.3000  -2753.87011
   15     4.4000  -2753.87011
   16     4.5000  -2753.87011
   17     4.6000  -2753.87011
   18     4.7000  -2753.87011
   19     4.8000  -2753.87011
   20     4.9000  -2753.87011
   21     5.0000  -2753.87011
 ----  ---------  -----------
  
 Leave Link  108 at Mon May  4 15:49:10 2020, MaxMem= 1073741824 cpu:       0.0
 (Enter /home/matheus/.gaussian/g09/l9999.exe)

 Test job not archived.
 1\1\GINC-REDGIANT\Scan\RwB97XD\Aug-CC-pVTZ\H2Kr1O2\ROOT\04-May-2020\1\
 \#p wb97xd/aug-cc-PVTz iop(3/107=0250000000) iop(3/108=0250000000) int
 =ultrafine counterpoise=2 Scan\\TCC\\0,1\O,0,0.,0.,0.725\O,0,0.,0.,-0.
 725\H,0,-0.1595341571,0.9047631646,1.0235104166\H,0,0.,0.9187205947,-1
 .0235104166\Kr,0,0.,R1,0.\\R1=3.,s,20,0.1\\Version=EM64L-G09RevC.01\St
 ate=1-A\HF=-2753.8701106,-2753.8701106,-2753.8701106,-2753.8701106,-27
 53.8701106,-2753.8701106,-2753.8701106,-2753.8701106,-2753.8701106,-27
 53.8701106,-2753.8701106,-2753.8701106,-2753.8701106,-2753.8701106,-27
 53.8701106,-2753.8701106,-2753.8701106,-2753.8701106,-2753.8701106,-27
 53.8701106,-2753.8701106\RMSD=9.654e-09,1.847e-10,5.406e-11,3.457e-11,
 1.948e-11,1.188e-11,7.097e-12,4.280e-12,2.574e-12,1.549e-12,9.276e-13,
 5.569e-13,3.310e-13,1.981e-13,1.229e-13,7.510e-14,4.402e-14,2.991e-14,
 1.838e-14,9.457e-15,1.393e-14\PG=C01 [X(H2Kr1O2)]\\@


            THE IRISH PIG
 'TWAS AN EVENING IN NOVEMBER,
 AS I VERY WELL REMEMBER
 I WAS STROLLING DOWN THE STREET IN DRUNKEN PRIDE,
 BUT MY KNEES WERE ALL A'FLUTTER
 SO I LANDED IN THE GUTTER,
 AND A PIG CAME UP AND LAY DOWN BY MY SIDE.

 YES, I LAY THERE IN THE GUTTER
 THINKING THOUGHTS I COULD NOT UTTER
 WHEN A COLLEEN PASSING BY DID SOFTLY SAY,
 'YE CAN TELL A MAN THAT BOOZES
 BY THE COMPANY THAT HE CHOOSES.' -
 AT THAT, THE PIG GOT UP AND WALKED AWAY!
     -- THE ECONOMIST, AUGUST 23, 1986
 Job cpu time:  0 days  3 hours  6 minutes 30.6 seconds.
 File lengths (MBytes):  RWF=     33 Int=      0 D2E=      0 Chk=      8 Scr=      1
 Normal termination of Gaussian 09 at Mon May  4 15:49:10 2020.
