 Entering Gaussian System, Link 0=g09
 Input=/home/matheus/.tcc/Inputs-wb97xd/H2O2-Kr_15.com
 Output=/home/matheus/.tcc/Logs-wb97xd/H2O2-Kr_15.log
 Initial command:
 /home/matheus/.gaussian/g09/l1.exe /home/matheus/.gaussian/g09/scratch/Gau-25938.inp -scrdir=/home/matheus/.gaussian/g09/scratch/
 Entering Link 1 = /home/matheus/.gaussian/g09/l1.exe PID=     25941.
  
 Copyright (c) 1988,1990,1992,1993,1995,1998,2003,2009,2011,
            Gaussian, Inc.  All Rights Reserved.
  
 This is part of the Gaussian(R) 09 program.  It is based on
 the Gaussian(R) 03 system (copyright 2003, Gaussian, Inc.),
 the Gaussian(R) 98 system (copyright 1998, Gaussian, Inc.),
 the Gaussian(R) 94 system (copyright 1995, Gaussian, Inc.),
 the Gaussian 92(TM) system (copyright 1992, Gaussian, Inc.),
 the Gaussian 90(TM) system (copyright 1990, Gaussian, Inc.),
 the Gaussian 88(TM) system (copyright 1988, Gaussian, Inc.),
 the Gaussian 86(TM) system (copyright 1986, Carnegie Mellon
 University), and the Gaussian 82(TM) system (copyright 1983,
 Carnegie Mellon University). Gaussian is a federally registered
 trademark of Gaussian, Inc.
  
 This software contains proprietary and confidential information,
 including trade secrets, belonging to Gaussian, Inc.
  
 This software is provided under written license and may be
 used, copied, transmitted, or stored only in accord with that
 written license.
  
 The following legend is applicable only to US Government
 contracts under FAR:
  
                    RESTRICTED RIGHTS LEGEND
  
 Use, reproduction and disclosure by the US Government is
 subject to restrictions as set forth in subparagraphs (a)
 and (c) of the Commercial Computer Software - Restricted
 Rights clause in FAR 52.227-19.
  
 Gaussian, Inc.
 340 Quinnipiac St., Bldg. 40, Wallingford CT 06492
  
  
 ---------------------------------------------------------------
 Warning -- This program may not be used in any manner that
 competes with the business of Gaussian, Inc. or will provide
 assistance to any competitor of Gaussian, Inc.  The licensee
 of this program is prohibited from giving any competitor of
 Gaussian, Inc. access to this program.  By using this program,
 the user acknowledges that Gaussian, Inc. is engaged in the
 business of creating and licensing software in the field of
 computational chemistry and represents and warrants to the
 licensee that it is not a competitor of Gaussian, Inc. and that
 it will not use this program in any manner prohibited above.
 ---------------------------------------------------------------
  

 Cite this work as:
 Gaussian 09, Revision C.01,
 M. J. Frisch, G. W. Trucks, H. B. Schlegel, G. E. Scuseria, 
 M. A. Robb, J. R. Cheeseman, G. Scalmani, V. Barone, B. Mennucci, 
 G. A. Petersson, H. Nakatsuji, M. Caricato, X. Li, H. P. Hratchian, 
 A. F. Izmaylov, J. Bloino, G. Zheng, J. L. Sonnenberg, M. Hada, 
 M. Ehara, K. Toyota, R. Fukuda, J. Hasegawa, M. Ishida, T. Nakajima, 
 Y. Honda, O. Kitao, H. Nakai, T. Vreven, J. A. Montgomery, Jr., 
 J. E. Peralta, F. Ogliaro, M. Bearpark, J. J. Heyd, E. Brothers, 
 K. N. Kudin, V. N. Staroverov, T. Keith, R. Kobayashi, J. Normand, 
 K. Raghavachari, A. Rendell, J. C. Burant, S. S. Iyengar, J. Tomasi, 
 M. Cossi, N. Rega, J. M. Millam, M. Klene, J. E. Knox, J. B. Cross, 
 V. Bakken, C. Adamo, J. Jaramillo, R. Gomperts, R. E. Stratmann, 
 O. Yazyev, A. J. Austin, R. Cammi, C. Pomelli, J. W. Ochterski, 
 R. L. Martin, K. Morokuma, V. G. Zakrzewski, G. A. Voth, 
 P. Salvador, J. J. Dannenberg, S. Dapprich, A. D. Daniels, 
 O. Farkas, J. B. Foresman, J. V. Ortiz, J. Cioslowski, 
 and D. J. Fox, Gaussian, Inc., Wallingford CT, 2010.
 
 ******************************************
 Gaussian 09:  EM64L-G09RevC.01 23-Sep-2011
                 3-May-2020 
 ******************************************
 %mem=8GB
 %nproc=8
 Will use up to    8 processors via shared memory.
 ----------------------------------------------------------------------
 #p wb97xd/aug-cc-PVTz iop(3/107=0250000000) iop(3/108=0250000000) int=
 ultrafine counterpoise=2 Scan
 ----------------------------------------------------------------------
 1/38=1,60=1,62=2/1,8;
 2/12=2,17=6,18=5,29=3,40=1/2;
 1/38=1,53=5172,62=2/22;
 3/5=16,6=1,7=10,11=2,16=1,25=1,30=1,74=-58,75=-5,107=250000000,108=250000000/1,2,3;
 4//1;
 5/5=2,38=5/2;
 6/7=2,8=2,9=2,10=2,18=1,28=1/1;
 1/53=4052,62=2,63=1/22;
 3/5=7,6=11,7=10,11=2,16=1,25=1,30=1,74=-58,75=-5,82=7,107=250000000,108=250000000/1,2,3;
 4//1;
 5/5=2,38=5/2;
 6/7=2,8=2,9=2,10=2,18=1,28=1/1;
 1/53=3042,62=2,63=2/22;
 3/5=7,6=11,7=10,11=2,16=1,25=1,30=1,74=-58,75=-5,82=7,107=250000000,108=250000000/1,2,3;
 4//1;
 5/5=2,38=5/2;
 6/7=2,8=2,9=2,10=2,18=1,28=1/1;
 1/53=2032,62=2,63=3/22;
 3/5=7,6=11,7=10,11=2,16=1,25=1,30=1,74=-58,75=-5,82=7,107=250000000,108=250000000/1,2,3;
 4//1;
 5/5=2,38=5/2;
 6/7=2,8=2,9=2,10=2,18=1,28=1/1;
 1/53=1022,62=2,63=4/22;
 3/5=7,6=11,7=10,11=2,16=1,25=1,30=1,74=-58,75=-5,82=7,107=250000000,108=250000000/1,2,3;
 4//1;
 5/5=2,38=5/2;
 6/7=2,8=2,9=2,10=2,18=1,28=1/1;
 1/53=5014,62=2,63=5/22;
 1/60=1,62=2/8(1);
 99/9=1/99;
 2/29=3/2;
 1/53=5173,62=2/22;
 3/5=7,6=11,7=10,11=2,16=1,25=1,30=1,74=-58,75=-5,82=7,107=250000000,108=250000000/1,2,3;
 4/5=5,16=3/1;
 5/5=2,38=5/2;
 1/53=4053,62=2,63=1/22;
 3/5=7,6=11,7=10,11=2,16=1,25=1,30=1,74=-58,75=-5,82=7,107=250000000,108=250000000/1,2,3;
 4/5=5,16=3/1;
 5/5=2,38=5/2;
 1/53=3043,62=2,63=2/22;
 3/5=7,6=11,7=10,11=2,16=1,25=1,30=1,74=-58,75=-5,82=7,107=250000000,108=250000000/1,2,3;
 4/5=5,16=3/1;
 5/5=2,38=5/2;
 1/53=2033,62=2,63=3/22;
 3/5=7,6=11,7=10,11=2,16=1,25=1,30=1,74=-58,75=-5,82=7,107=250000000,108=250000000/1,2,3;
 4/5=5,16=3/1;
 5/5=2,38=5/2;
 1/53=1024,62=2,63=4/22;
 3/5=7,6=11,7=10,11=2,16=1,25=1,30=1,74=-58,75=-5,82=7,107=250000000,108=250000000/1,2,3;
 4/5=5,16=3/1;
 5/5=2,38=5/2;
 1/53=5014,62=2,63=5/22;
 1/60=1,62=2/8(-22);
 99/9=1/99;
 Leave Link    1 at Sun May  3 15:46:46 2020, MaxMem= 1073741824 cpu:       0.2
 (Enter /home/matheus/.gaussian/g09/l101.exe)
 ---
 TCC
 ---
 Charge =  0 Multiplicity = 1 in supermolecule
 Charge =  0 Multiplicity = 1 in fragment  1.
 Charge =  0 Multiplicity = 1 in fragment  2.
 Symbolic Z-Matrix:
 O(Fragment=1)         0.        0.        0.725 
 O(Fragment=1)         0.        0.       -0.725 
 H(Fragment=1)         0.45936  -0.79564   1.02351 
 H(Fragment=1)         0.        0.91872  -1.02351 
 Kr(Fragment=2)        0.       R1        0. 
       Variables:
  R1                    3.     Scan 20    0.1    
 
 NAtoms=      5 NQM=        0 NQMF=       0 NMMI=      5 NMMIF=      0
                NMic=       0 NMicF=      0.
                    Isotopes and Nuclear Properties:
 (Nuclear quadrupole moments (NQMom) in fm**2, nuclear magnetic moments (NMagM)
  in nuclear magnetons)

  Atom         1           2           3           4           5
 IAtWgt=          16          16           1           1          84
 AtmWgt=  15.9949146  15.9949146   1.0078250   1.0078250  83.9115064
 NucSpn=           0           0           1           1           0
 AtZEff=   0.0000000   0.0000000   0.0000000   0.0000000   0.0000000
 NQMom=    0.0000000   0.0000000   0.0000000   0.0000000   0.0000000
 NMagM=    0.0000000   0.0000000   2.7928460   2.7928460   0.0000000
 Leave Link  101 at Sun May  3 15:46:46 2020, MaxMem= 1073741824 cpu:       0.5
 (Enter /home/matheus/.gaussian/g09/l108.exe)
 Scan the potential surface.
 Variable   Value     No. Steps Step-Size
 -------- ----------- --------- ---------
     1       3.000000      20      0.1000
 A total of     21 points will be computed.
 Leave Link  108 at Sun May  3 15:46:46 2020, MaxMem= 1073741824 cpu:       0.0
 (Enter /home/matheus/.gaussian/g09/l202.exe)
 ---------------------------------------------------------------------------------------------------
                            Z-MATRIX (ANGSTROMS AND DEGREES)
   CD    Cent   Atom    N1       Length/X        N2       Alpha/Y        N3        Beta/Z          J
 ---------------------------------------------------------------------------------------------------
      1      1  O        0   0.000000          0.000000          0.725000
      2      2  O        0   0.000000          0.000000         -0.725000
      3      3  H        0   0.459360         -0.795635          1.023510
      4      4  H        0   0.000000          0.918721         -1.023510
      5      5  Kr       0   0.000000          3.000000          0.000000
 ---------------------------------------------------------------------------------------------------
                         Z-Matrix orientation:                         
 ---------------------------------------------------------------------
 Center     Atomic      Atomic             Coordinates (Angstroms)
 Number     Number       Type             X           Y           Z
 ---------------------------------------------------------------------
      1          8           0        0.000000    0.000000    0.725000
      2          8           0        0.000000    0.000000   -0.725000
      3          1           0        0.459360   -0.795635    1.023510
      4          1           0        0.000000    0.918721   -1.023510
      5         36           0        0.000000    3.000000    0.000000
 ---------------------------------------------------------------------
                    Distance matrix (angstroms):
                    1          2          3          4          5
     1  O    0.000000
     2  O    1.450000   0.000000
     3  H    0.966000   1.975180   0.000000
     4  H    1.975180   0.966000   2.709303   0.000000
     5  Kr   3.086361   3.086361   3.957958   2.319331   0.000000
 Stoichiometry    H2KrO2
 Framework group  C1[X(H2KrO2)]
 Deg. of freedom     9
 Full point group                 C1      NOp   1
 Largest Abelian subgroup         C1      NOp   1
 Largest concise Abelian subgroup C1      NOp   1
                         Standard orientation:                         
 ---------------------------------------------------------------------
 Center     Atomic      Atomic             Coordinates (Angstroms)
 Number     Number       Type             X           Y           Z
 ---------------------------------------------------------------------
      1          8           0        2.014667   -0.687062   -0.062307
      2          8           0        1.988768    0.761329    0.000872
      3          1           0        2.820911   -0.990551    0.374753
      4          1           0        1.064927    1.042640    0.024073
      5         36           0       -0.997592   -0.017951    0.002574
 ---------------------------------------------------------------------
 Rotational constants (GHZ):     26.4417565      2.3080537      2.1261727
 Leave Link  202 at Sun May  3 15:46:46 2020, MaxMem= 1073741824 cpu:       0.0
 (Enter /home/matheus/.gaussian/g09/l122.exe)
 Leave Link  122 at Sun May  3 15:46:46 2020, MaxMem= 1073741824 cpu:       0.0
 (Enter /home/matheus/.gaussian/g09/l301.exe)
 Standard basis: Aug-CC-pVTZ (5D, 7F)
 Ernie: Thresh=  0.10000D-02 Tol=  0.10000D-05 Strict=F.
 Ernie:  38 primitive shells out of 205 were deleted.
 There are   197 symmetry adapted basis functions of A   symmetry.
 Integral buffers will be    131072 words long.
 Raffenetti 2 integral format.
 Two-electron integral symmetry is turned on.
   197 basis functions,   415 primitive gaussians,   229 cartesian basis functions
    27 alpha electrons       27 beta electrons
       nuclear repulsion energy       148.3895250152 Hartrees.
 IExCor= 4639 DFT=T Ex+Corr=wB97XD ExCW=0 ScaHFX=  1.000000
 ScaDFX=  1.000000  1.000000  1.000000  1.000000 ScalE2=  1.000000  1.000000
 IRadAn=      5 IRanWt=     -1 IRanGd=            0 ICorTp=0
  HFx wShort=  0.000000 wLong=  0.250000 cFull=  0.222036 cShort=  0.000000 cLong=  0.777964
  DFx wShort=  0.000000 wLong=  0.250000 cFull=  0.000000 cShort=  0.000000 cLong=  1.000000
 NAtoms=    5 NActive=    5 NUniq=    5 SFac= 1.00D+00 NAtFMM=   60 NAOKFM=F Big=F
 R6Disp: Dispersion energy =        -0.0007854865 Hartrees.
 Nuclear repulsion after empirical dispersion term =      148.3887395288 Hartrees.
 Leave Link  301 at Sun May  3 15:46:46 2020, MaxMem= 1073741824 cpu:       0.2
 (Enter /home/matheus/.gaussian/g09/l302.exe)
 NPDir=0 NMtPBC=     1 NCelOv=     1 NCel=       1 NClECP=     1 NCelD=      1
         NCelK=      1 NCelE2=     1 NClLst=     1 CellRange=     0.0.
 One-electron integrals computed using PRISM.
 NBasis=   197 RedAO= T  NBF=   197
 NBsUse=   197 1.00D-06 NBFU=   197
 Precomputing XC quadrature grid using
 IXCGrd= 2 IRadAn=           5 IRanWt=          -1 IRanGd=           0 AccXCQ= 0.00D+00.
 NRdTot=     427 NPtTot=      123814 NUsed=      126881 NTot=      126913
 NSgBfM=   229   229   229   229   229 NAtAll=     5     5.
 Leave Link  302 at Sun May  3 15:46:46 2020, MaxMem= 1073741824 cpu:       1.1
 (Enter /home/matheus/.gaussian/g09/l303.exe)
 DipDrv:  MaxL=1.
 Leave Link  303 at Sun May  3 15:46:46 2020, MaxMem= 1073741824 cpu:       0.2
 (Enter /home/matheus/.gaussian/g09/l401.exe)
 Harris functional with IExCor= 4639 diagonalized for initial guess.
 ExpMin= 2.53D-02 ExpMax= 1.17D+07 ExpMxC= 1.33D+04 IAcc=3 IRadAn=         5 AccDes= 0.00D+00
 HarFok:  IExCor= 4639 AccDes= 0.00D+00 IRadAn=         5 IDoV= 1
 ScaDFX=  1.000000  1.000000  1.000000  1.000000
 FoFCou: FMM=F IPFlag=           0 FMFlag=      100000 FMFlg1=           0
         NFxFlg=           0 DoJE=T BraDBF=F KetDBF=T FulRan=T
         Omega=  0.000000  0.000000  1.000000  0.000000  0.000000 ICntrl=     500 IOpCl=  0
         NMat0=    1 NMatS0=    1 NMatT0=    0 NMatD0=    1 NMtDS0=    0 NMtDT0=    0
         I1Cent=           4 NGrid=           0.
 Petite list used in FoFCou.
 Harris En= -2875.39445537538    
 Initial guess orbital symmetries:
       Occupied  (A) (A) (A) (A) (A) (A) (A) (A) (A) (A) (A) (A)
                 (A) (A) (A) (A) (A) (A) (A) (A) (A) (A) (A) (A)
                 (A) (A) (A)
       Virtual   (A) (A) (A) (A) (A) (A) (A) (A) (A) (A) (A) (A)
                 (A) (A) (A) (A) (A) (A) (A) (A) (A) (A) (A) (A)
                 (A) (A) (A) (A) (A) (A) (A) (A) (A) (A) (A) (A)
                 (A) (A) (A) (A) (A) (A) (A) (A) (A) (A) (A) (A)
                 (A) (A) (A) (A) (A) (A) (A) (A) (A) (A) (A) (A)
                 (A) (A) (A) (A) (A) (A) (A) (A) (A) (A) (A) (A)
                 (A) (A) (A) (A) (A) (A) (A) (A) (A) (A) (A) (A)
                 (A) (A) (A) (A) (A) (A) (A) (A) (A) (A) (A) (A)
                 (A) (A) (A) (A) (A) (A) (A) (A) (A) (A) (A) (A)
                 (A) (A) (A) (A) (A) (A) (A) (A) (A) (A) (A) (A)
                 (A) (A) (A) (A) (A) (A) (A) (A) (A) (A) (A) (A)
                 (A) (A) (A) (A) (A) (A) (A) (A) (A) (A) (A) (A)
                 (A) (A) (A) (A) (A) (A) (A) (A) (A) (A) (A) (A)
                 (A) (A) (A) (A) (A) (A) (A) (A) (A) (A) (A) (A)
                 (A) (A)
 The electronic state of the initial guess is 1-A.
 Leave Link  401 at Sun May  3 15:46:47 2020, MaxMem= 1073741824 cpu:       5.7
 (Enter /home/matheus/.gaussian/g09/l502.exe)
 Closed shell SCF:
 Requested convergence on RMS density matrix=1.00D-08 within 128 cycles.
 Requested convergence on MAX density matrix=1.00D-06.
 Requested convergence on             energy=1.00D-06.
 No special actions if energy rises.
 Using DIIS extrapolation, IDIIS=  1040.
 Integral symmetry usage will be decided dynamically.
       126823 words used for storage of precomputed grid.
 IEnd=      305770 IEndB=      305770 NGot=  1073741824 MDV=  1073505365
 LenX=  1073505365 LenY=  1073452483
 Fock matrices will be formed incrementally for  20 cycles.

 Cycle   1  Pass 1  IDiag  1:
 FoFJK:  IHMeth= 1 ICntrl=     0 DoSepK=T KAlg= 1 I1Cent= 0 FoldK=F
 FoFCou: FMM=F IPFlag=           0 FMFlag=      100000 FMFlg1=           0
         NFxFlg=           0 DoJE=T BraDBF=F KetDBF=F FulRan=T
         Omega=  0.000000  0.000000  1.000000  0.000000  0.000000 ICntrl=     500 IOpCl=  0
         NMat0=    1 NMatS0=    1 NMatT0=    0 NMatD0=    1 NMtDS0=    0 NMtDT0=    0
         I1Cent=           0 NGrid=           0.
 Symmetry not used in FoFCou.
 E= -2904.90178610745    
 DIIS: error= 6.00D-02 at cycle   1 NSaved=   1.
 NSaved= 1 IEnMin= 1 EnMin= -2904.90178610745     IErMin= 1 ErrMin= 6.00D-02
 ErrMax= 6.00D-02 EMaxC= 1.00D-01 BMatC= 2.21D+00 BMatP= 2.21D+00
 IDIUse=3 WtCom= 4.00D-01 WtEn= 6.00D-01
 Coeff-Com:  0.100D+01
 Coeff-En:   0.100D+01
 Coeff:      0.100D+01
 Gap=     0.534 Goal=   None    Shift=    0.000
 GapD=    0.534 DampG=2.000 DampE=0.500 DampFc=1.0000 IDamp=-1.
 RMSDP=6.11D-03 MaxDP=3.66D-01              OVMax= 1.79D-01

 Cycle   2  Pass 1  IDiag  1:
 RMSU=  4.29D-03    CP:  1.03D+00
 FoFJK:  IHMeth= 1 ICntrl=     0 DoSepK=T KAlg= 1 I1Cent= 0 FoldK=F
 E= -2905.22089542480     Delta-E=       -0.319109317351 Rises=F Damp=F
 DIIS: error= 2.84D-02 at cycle   2 NSaved=   2.
 NSaved= 2 IEnMin= 2 EnMin= -2905.22089542480     IErMin= 2 ErrMin= 2.84D-02
 ErrMax= 2.84D-02 EMaxC= 1.00D-01 BMatC= 5.65D-01 BMatP= 2.21D+00
 IDIUse=3 WtCom= 7.16D-01 WtEn= 2.84D-01
 Coeff-Com:  0.328D+00 0.672D+00
 Coeff-En:   0.199D+00 0.801D+00
 Coeff:      0.291D+00 0.709D+00
 Gap=     0.474 Goal=   None    Shift=    0.000
 RMSDP=2.66D-03 MaxDP=1.56D-01 DE=-3.19D-01 OVMax= 7.32D-02

 Cycle   3  Pass 1  IDiag  1:
 RMSU=  5.70D-04    CP:  1.02D+00  5.85D-01
 FoFJK:  IHMeth= 1 ICntrl=     0 DoSepK=T KAlg= 1 I1Cent= 0 FoldK=F
 E= -2905.41606835145     Delta-E=       -0.195172926650 Rises=F Damp=F
 DIIS: error= 6.25D-03 at cycle   3 NSaved=   3.
 NSaved= 3 IEnMin= 3 EnMin= -2905.41606835145     IErMin= 3 ErrMin= 6.25D-03
 ErrMax= 6.25D-03 EMaxC= 1.00D-01 BMatC= 1.69D-02 BMatP= 5.65D-01
 IDIUse=3 WtCom= 9.38D-01 WtEn= 6.25D-02
 Coeff-Com:  0.333D-01 0.183D+00 0.784D+00
 Coeff-En:   0.000D+00 0.000D+00 0.100D+01
 Coeff:      0.313D-01 0.171D+00 0.798D+00
 Gap=     0.426 Goal=   None    Shift=    0.000
 RMSDP=4.58D-04 MaxDP=1.78D-02 DE=-1.95D-01 OVMax= 2.57D-02

 Cycle   4  Pass 1  IDiag  1:
 RMSU=  2.27D-04    CP:  1.02D+00  6.38D-01  9.15D-01
 FoFJK:  IHMeth= 1 ICntrl=     0 DoSepK=T KAlg= 1 I1Cent= 0 FoldK=F
 E= -2905.42380300684     Delta-E=       -0.007734655389 Rises=F Damp=F
 DIIS: error= 2.61D-03 at cycle   4 NSaved=   4.
 NSaved= 4 IEnMin= 4 EnMin= -2905.42380300684     IErMin= 4 ErrMin= 2.61D-03
 ErrMax= 2.61D-03 EMaxC= 1.00D-01 BMatC= 1.71D-03 BMatP= 1.69D-02
 IDIUse=3 WtCom= 9.74D-01 WtEn= 2.61D-02
 Coeff-Com: -0.232D-02 0.462D-01 0.371D+00 0.585D+00
 Coeff-En:   0.000D+00 0.000D+00 0.000D+00 0.100D+01
 Coeff:     -0.226D-02 0.450D-01 0.361D+00 0.596D+00
 Gap=     0.411 Goal=   None    Shift=    0.000
 RMSDP=1.12D-04 MaxDP=6.25D-03 DE=-7.73D-03 OVMax= 6.84D-03

 Cycle   5  Pass 1  IDiag  1:
 RMSU=  4.09D-05    CP:  1.02D+00  6.37D-01  9.60D-01  7.26D-01
 FoFJK:  IHMeth= 1 ICntrl=     0 DoSepK=T KAlg= 1 I1Cent= 0 FoldK=F
 E= -2905.42482402514     Delta-E=       -0.001021018297 Rises=F Damp=F
 DIIS: error= 2.82D-04 at cycle   5 NSaved=   5.
 NSaved= 5 IEnMin= 5 EnMin= -2905.42482402514     IErMin= 5 ErrMin= 2.82D-04
 ErrMax= 2.82D-04 EMaxC= 1.00D-01 BMatC= 2.68D-05 BMatP= 1.71D-03
 IDIUse=3 WtCom= 9.97D-01 WtEn= 2.82D-03
 Coeff-Com: -0.149D-02 0.110D-01 0.108D+00 0.196D+00 0.686D+00
 Coeff-En:   0.000D+00 0.000D+00 0.000D+00 0.000D+00 0.100D+01
 Coeff:     -0.149D-02 0.110D-01 0.108D+00 0.195D+00 0.687D+00
 Gap=     0.410 Goal=   None    Shift=    0.000
 RMSDP=2.33D-05 MaxDP=9.63D-04 DE=-1.02D-03 OVMax= 1.64D-03

 Cycle   6  Pass 1  IDiag  1:
 RMSU=  1.47D-05    CP:  1.02D+00  6.37D-01  9.68D-01  7.49D-01  1.07D+00
 FoFJK:  IHMeth= 1 ICntrl=     0 DoSepK=T KAlg= 1 I1Cent= 0 FoldK=F
 E= -2905.42483841785     Delta-E=       -0.000014392708 Rises=F Damp=F
 DIIS: error= 1.86D-04 at cycle   6 NSaved=   6.
 NSaved= 6 IEnMin= 6 EnMin= -2905.42483841785     IErMin= 6 ErrMin= 1.86D-04
 ErrMax= 1.86D-04 EMaxC= 1.00D-01 BMatC= 9.69D-06 BMatP= 2.68D-05
 IDIUse=3 WtCom= 9.98D-01 WtEn= 1.86D-03
 Coeff-Com: -0.239D-03-0.635D-02-0.372D-01-0.504D-01 0.378D+00 0.716D+00
 Coeff-En:   0.000D+00 0.000D+00 0.000D+00 0.000D+00 0.165D+00 0.835D+00
 Coeff:     -0.238D-03-0.634D-02-0.371D-01-0.503D-01 0.378D+00 0.716D+00
 Gap=     0.410 Goal=   None    Shift=    0.000
 RMSDP=1.36D-05 MaxDP=4.51D-04 DE=-1.44D-05 OVMax= 7.80D-04

 Cycle   7  Pass 1  IDiag  1:
 RMSU=  3.73D-06    CP:  1.02D+00  6.37D-01  9.76D-01  7.61D-01  1.24D+00
                    CP:  8.85D-01
 FoFJK:  IHMeth= 1 ICntrl=     0 DoSepK=T KAlg= 1 I1Cent= 0 FoldK=F
 E= -2905.42484564806     Delta-E=       -0.000007230215 Rises=F Damp=F
 DIIS: error= 1.43D-05 at cycle   7 NSaved=   7.
 NSaved= 7 IEnMin= 7 EnMin= -2905.42484564806     IErMin= 7 ErrMin= 1.43D-05
 ErrMax= 1.43D-05 EMaxC= 1.00D-01 BMatC= 5.20D-08 BMatP= 9.69D-06
 IDIUse=1 WtCom= 1.00D+00 WtEn= 0.00D+00
 Coeff-Com:  0.348D-04-0.733D-03-0.582D-02-0.870D-02-0.154D-01 0.305D-01
 Coeff-Com:  0.100D+01
 Coeff:      0.348D-04-0.733D-03-0.582D-02-0.870D-02-0.154D-01 0.305D-01
 Coeff:      0.100D+01
 Gap=     0.410 Goal=   None    Shift=    0.000
 RMSDP=2.73D-06 MaxDP=9.41D-05 DE=-7.23D-06 OVMax= 1.93D-04

 Cycle   8  Pass 1  IDiag  1:
 RMSU=  7.98D-07    CP:  1.02D+00  6.37D-01  9.77D-01  7.65D-01  1.26D+00
                    CP:  9.40D-01  1.21D+00
 FoFJK:  IHMeth= 1 ICntrl=     0 DoSepK=T KAlg= 1 I1Cent= 0 FoldK=F
 E= -2905.42484576773     Delta-E=       -0.000000119668 Rises=F Damp=F
 DIIS: error= 2.77D-06 at cycle   8 NSaved=   8.
 NSaved= 8 IEnMin= 8 EnMin= -2905.42484576773     IErMin= 8 ErrMin= 2.77D-06
 ErrMax= 2.77D-06 EMaxC= 1.00D-01 BMatC= 2.95D-09 BMatP= 5.20D-08
 IDIUse=1 WtCom= 1.00D+00 WtEn= 0.00D+00
 Coeff-Com:  0.106D-04 0.203D-03 0.114D-02 0.120D-02-0.173D-01-0.281D-01
 Coeff-Com:  0.378D-01 0.101D+01
 Coeff:      0.106D-04 0.203D-03 0.114D-02 0.120D-02-0.173D-01-0.281D-01
 Coeff:      0.378D-01 0.101D+01
 Gap=     0.410 Goal=   None    Shift=    0.000
 RMSDP=6.20D-07 MaxDP=1.83D-05 DE=-1.20D-07 OVMax= 5.11D-05

 Cycle   9  Pass 1  IDiag  1:
 RMSU=  1.78D-07    CP:  1.02D+00  6.37D-01  9.77D-01  7.65D-01  1.26D+00
                    CP:  9.50D-01  1.28D+00  1.23D+00
 FoFJK:  IHMeth= 1 ICntrl=     0 DoSepK=T KAlg= 1 I1Cent= 0 FoldK=F
 E= -2905.42484577531     Delta-E=       -0.000000007579 Rises=F Damp=F
 DIIS: error= 8.26D-07 at cycle   9 NSaved=   9.
 NSaved= 9 IEnMin= 9 EnMin= -2905.42484577531     IErMin= 9 ErrMin= 8.26D-07
 ErrMax= 8.26D-07 EMaxC= 1.00D-01 BMatC= 2.53D-10 BMatP= 2.95D-09
 IDIUse=1 WtCom= 1.00D+00 WtEn= 0.00D+00
 Coeff-Com: -0.151D-05 0.617D-04 0.456D-03 0.518D-03-0.480D-04-0.286D-02
 Coeff-Com: -0.611D-01 0.368D-01 0.103D+01
 Coeff:     -0.151D-05 0.617D-04 0.456D-03 0.518D-03-0.480D-04-0.286D-02
 Coeff:     -0.611D-01 0.368D-01 0.103D+01
 Gap=     0.410 Goal=   None    Shift=    0.000
 RMSDP=1.60D-07 MaxDP=4.35D-06 DE=-7.58D-09 OVMax= 1.71D-05

 Cycle  10  Pass 1  IDiag  1:
 RMSU=  6.01D-08    CP:  1.02D+00  6.37D-01  9.77D-01  7.65D-01  1.26D+00
                    CP:  9.52D-01  1.29D+00  1.31D+00  1.27D+00
 FoFJK:  IHMeth= 1 ICntrl=     0 DoSepK=T KAlg= 1 I1Cent= 0 FoldK=F
 E= -2905.42484577605     Delta-E=       -0.000000000741 Rises=F Damp=F
 DIIS: error= 2.94D-07 at cycle  10 NSaved=  10.
 NSaved=10 IEnMin=10 EnMin= -2905.42484577605     IErMin=10 ErrMin= 2.94D-07
 ErrMax= 2.94D-07 EMaxC= 1.00D-01 BMatC= 2.25D-11 BMatP= 2.53D-10
 IDIUse=1 WtCom= 1.00D+00 WtEn= 0.00D+00
 Coeff-Com: -0.332D-06-0.103D-04-0.649D-04-0.549D-04 0.123D-02 0.202D-02
 Coeff-Com: -0.127D-02-0.864D-01 0.459D-01 0.104D+01
 Coeff:     -0.332D-06-0.103D-04-0.649D-04-0.549D-04 0.123D-02 0.202D-02
 Coeff:     -0.127D-02-0.864D-01 0.459D-01 0.104D+01
 Gap=     0.410 Goal=   None    Shift=    0.000
 RMSDP=5.25D-08 MaxDP=1.01D-06 DE=-7.41D-10 OVMax= 7.26D-06

 Cycle  11  Pass 1  IDiag  1:
 RMSU=  1.70D-08    CP:  1.02D+00  6.37D-01  9.77D-01  7.65D-01  1.26D+00
                    CP:  9.52D-01  1.29D+00  1.32D+00  1.41D+00  1.32D+00
 FoFJK:  IHMeth= 1 ICntrl=     0 DoSepK=T KAlg= 1 I1Cent= 0 FoldK=F
 E= -2905.42484577613     Delta-E=       -0.000000000082 Rises=F Damp=F
 DIIS: error= 1.19D-07 at cycle  11 NSaved=  11.
 NSaved=11 IEnMin=11 EnMin= -2905.42484577613     IErMin=11 ErrMin= 1.19D-07
 ErrMax= 1.19D-07 EMaxC= 1.00D-01 BMatC= 3.11D-12 BMatP= 2.25D-11
 IDIUse=1 WtCom= 1.00D+00 WtEn= 0.00D+00
 Coeff-Com:  0.300D-06-0.448D-05-0.376D-04-0.299D-04-0.198D-03-0.386D-04
 Coeff-Com:  0.703D-02 0.192D-02-0.902D-01-0.141D+00 0.122D+01
 Coeff:      0.300D-06-0.448D-05-0.376D-04-0.299D-04-0.198D-03-0.386D-04
 Coeff:      0.703D-02 0.192D-02-0.902D-01-0.141D+00 0.122D+01
 Gap=     0.410 Goal=   None    Shift=    0.000
 RMSDP=2.43D-08 MaxDP=5.45D-07 DE=-8.19D-11 OVMax= 3.75D-06

 Cycle  12  Pass 1  IDiag  1:
 RMSU=  6.02D-09    CP:  1.02D+00  6.37D-01  9.77D-01  7.65D-01  1.26D+00
                    CP:  9.52D-01  1.29D+00  1.32D+00  1.45D+00  1.51D+00
                    CP:  1.54D+00
 FoFJK:  IHMeth= 1 ICntrl=     0 DoSepK=T KAlg= 1 I1Cent= 0 FoldK=F
 E= -2905.42484577616     Delta-E=       -0.000000000025 Rises=F Damp=F
 DIIS: error= 5.28D-08 at cycle  12 NSaved=  12.
 NSaved=12 IEnMin=12 EnMin= -2905.42484577616     IErMin=12 ErrMin= 5.28D-08
 ErrMax= 5.28D-08 EMaxC= 1.00D-01 BMatC= 2.96D-13 BMatP= 3.11D-12
 IDIUse=1 WtCom= 1.00D+00 WtEn= 0.00D+00
 Coeff-Com: -0.331D-07 0.987D-06 0.805D-05 0.420D-06-0.109D-03-0.182D-03
 Coeff-Com: -0.275D-03 0.722D-02 0.816D-02-0.898D-01-0.204D+00 0.128D+01
 Coeff:     -0.331D-07 0.987D-06 0.805D-05 0.420D-06-0.109D-03-0.182D-03
 Coeff:     -0.275D-03 0.722D-02 0.816D-02-0.898D-01-0.204D+00 0.128D+01
 Gap=     0.410 Goal=   None    Shift=    0.000
 RMSDP=1.05D-08 MaxDP=2.30D-07 DE=-2.46D-11 OVMax= 1.58D-06

 Cycle  13  Pass 1  IDiag  1:
 RMSU=  1.75D-09    CP:  1.02D+00  6.37D-01  9.77D-01  7.65D-01  1.26D+00
                    CP:  9.52D-01  1.29D+00  1.32D+00  1.46D+00  1.56D+00
                    CP:  1.79D+00  1.68D+00
 FoFJK:  IHMeth= 1 ICntrl=     0 DoSepK=T KAlg= 1 I1Cent= 0 FoldK=F
 E= -2905.42484577615     Delta-E=        0.000000000004 Rises=F Damp=F
 DIIS: error= 1.14D-08 at cycle  13 NSaved=  13.
 NSaved=13 IEnMin=12 EnMin= -2905.42484577616     IErMin=13 ErrMin= 1.14D-08
 ErrMax= 1.14D-08 EMaxC= 1.00D-01 BMatC= 2.67D-14 BMatP= 2.96D-13
 IDIUse=1 WtCom= 1.00D+00 WtEn= 0.00D+00
 Coeff-Com: -0.360D-07 0.419D-06 0.373D-05 0.980D-06 0.150D-04 0.765D-05
 Coeff-Com: -0.594D-03-0.238D-03 0.928D-02 0.106D-01-0.139D+00 0.103D+00
 Coeff-Com:  0.102D+01
 Coeff:     -0.360D-07 0.419D-06 0.373D-05 0.980D-06 0.150D-04 0.765D-05
 Coeff:     -0.594D-03-0.238D-03 0.928D-02 0.106D-01-0.139D+00 0.103D+00
 Coeff:      0.102D+01
 Gap=     0.410 Goal=   None    Shift=    0.000
 RMSDP=2.68D-09 MaxDP=5.95D-08 DE= 3.64D-12 OVMax= 3.24D-07

 SCF Done:  E(RwB97XD) =  -2905.42484578     A.U. after   13 cycles
             Convg  =    0.2685D-08             -V/T =  2.0015
 KE= 2.900928516785D+03 PE=-7.235131372148D+03 EE= 1.280389270058D+03
 Leave Link  502 at Sun May  3 15:47:45 2020, MaxMem= 1073741824 cpu:     464.9
 (Enter /home/matheus/.gaussian/g09/l601.exe)
 Copying SCF densities to generalized density rwf, IOpCl= 0 IROHF=0.

 **********************************************************************

            Population analysis using the SCF density.

 **********************************************************************

 Orbital symmetries:
       Occupied  (A) (A) (A) (A) (A) (A) (A) (A) (A) (A) (A) (A)
                 (A) (A) (A) (A) (A) (A) (A) (A) (A) (A) (A) (A)
                 (A) (A) (A)
       Virtual   (A) (A) (A) (A) (A) (A) (A) (A) (A) (A) (A) (A)
                 (A) (A) (A) (A) (A) (A) (A) (A) (A) (A) (A) (A)
                 (A) (A) (A) (A) (A) (A) (A) (A) (A) (A) (A) (A)
                 (A) (A) (A) (A) (A) (A) (A) (A) (A) (A) (A) (A)
                 (A) (A) (A) (A) (A) (A) (A) (A) (A) (A) (A) (A)
                 (A) (A) (A) (A) (A) (A) (A) (A) (A) (A) (A) (A)
                 (A) (A) (A) (A) (A) (A) (A) (A) (A) (A) (A) (A)
                 (A) (A) (A) (A) (A) (A) (A) (A) (A) (A) (A) (A)
                 (A) (A) (A) (A) (A) (A) (A) (A) (A) (A) (A) (A)
                 (A) (A) (A) (A) (A) (A) (A) (A) (A) (A) (A) (A)
                 (A) (A) (A) (A) (A) (A) (A) (A) (A) (A) (A) (A)
                 (A) (A) (A) (A) (A) (A) (A) (A) (A) (A) (A) (A)
                 (A) (A) (A) (A) (A) (A) (A) (A) (A) (A) (A) (A)
                 (A) (A) (A) (A) (A) (A) (A) (A) (A) (A) (A) (A)
                 (A) (A)
 The electronic state is 1-A.
 Alpha  occ. eigenvalues -- -513.08955 -67.35781 -60.90663 -60.90649 -60.90641
 Alpha  occ. eigenvalues --  -19.33770 -19.33367  -9.81109  -7.50447  -7.50399
 Alpha  occ. eigenvalues --   -7.50377  -3.37127  -3.37117  -3.37100  -3.37062
 Alpha  occ. eigenvalues --   -3.37060  -1.24306  -1.03288  -1.01771  -0.65167
 Alpha  occ. eigenvalues --   -0.61446  -0.52319  -0.49679  -0.49067  -0.48504
 Alpha  occ. eigenvalues --   -0.44896  -0.37315
 Alpha virt. eigenvalues --    0.03652   0.04339   0.08154   0.10064   0.10761
 Alpha virt. eigenvalues --    0.11704   0.13612   0.14415   0.16897   0.17701
 Alpha virt. eigenvalues --    0.18634   0.19341   0.20749   0.22919   0.23583
 Alpha virt. eigenvalues --    0.24539   0.26277   0.28618   0.30895   0.33541
 Alpha virt. eigenvalues --    0.33956   0.34602   0.36432   0.38855   0.40014
 Alpha virt. eigenvalues --    0.40641   0.42002   0.47928   0.51760   0.54711
 Alpha virt. eigenvalues --    0.56436   0.58537   0.62708   0.65112   0.68119
 Alpha virt. eigenvalues --    0.70344   0.71077   0.72121   0.72717   0.74996
 Alpha virt. eigenvalues --    0.75613   0.76974   0.78032   0.78980   0.81582
 Alpha virt. eigenvalues --    0.83634   0.84430   0.86687   0.88590   0.90034
 Alpha virt. eigenvalues --    0.92012   0.93357   0.95391   0.96908   0.98292
 Alpha virt. eigenvalues --    1.01618   1.02428   1.03694   1.06239   1.08930
 Alpha virt. eigenvalues --    1.10810   1.12213   1.15083   1.17211   1.19980
 Alpha virt. eigenvalues --    1.26720   1.30395   1.33843   1.37808   1.39503
 Alpha virt. eigenvalues --    1.43500   1.50140   1.51867   1.55086   1.60107
 Alpha virt. eigenvalues --    1.61674   1.75610   1.80829   1.83599   1.92749
 Alpha virt. eigenvalues --    1.97887   2.00140   2.02206   2.12383   2.13733
 Alpha virt. eigenvalues --    2.14887   2.18634   2.19454   2.20557   2.22957
 Alpha virt. eigenvalues --    2.25808   2.29049   2.29977   2.31163   2.32951
 Alpha virt. eigenvalues --    2.36091   2.38032   2.43798   2.46384   2.47593
 Alpha virt. eigenvalues --    2.47733   2.50588   2.52692   2.53857   2.55790
 Alpha virt. eigenvalues --    2.57809   2.60287   2.64778   2.65030   2.68715
 Alpha virt. eigenvalues --    2.72107   2.73236   2.78573   2.83603   2.87992
 Alpha virt. eigenvalues --    2.94245   3.05171   3.08387   3.13995   3.56557
 Alpha virt. eigenvalues --    3.68529   3.85217   3.95234   4.01952   4.06779
 Alpha virt. eigenvalues --    4.06960   4.15512   4.17358   4.21906   4.24776
 Alpha virt. eigenvalues --    4.42987   4.46877   4.52361   4.53690   4.72574
 Alpha virt. eigenvalues --    4.92342   4.98494   5.01384   5.06213   5.10927
 Alpha virt. eigenvalues --    5.31845   5.43335   5.83203   6.01554   6.06794
 Alpha virt. eigenvalues --    6.11725   6.33032   6.33322   6.40363   6.49867
 Alpha virt. eigenvalues --    6.67583   6.72097   6.75265   6.82045   6.85533
 Alpha virt. eigenvalues --    6.86442   6.91547   6.92750   6.95687   7.00069
 Alpha virt. eigenvalues --    7.03675   7.22830   7.25070   7.38156   7.67645
 Alpha virt. eigenvalues --    7.83058   8.07050   8.12864  14.05590  14.62063
          Condensed to atoms (all electrons):
              1          2          3          4          5
     1  O    8.145719  -0.156518   0.224444   0.001973  -0.024442
     2  O   -0.156518   8.225549   0.006894   0.214312  -0.017467
     3  H    0.224444   0.006894   0.555044   0.003456   0.002986
     4  H    0.001973   0.214312   0.003456   0.534700  -0.004073
     5  Kr  -0.024442  -0.017467   0.002986  -0.004073  36.035856
 Mulliken atomic charges:
              1
     1  O   -0.191176
     2  O   -0.272771
     3  H    0.207175
     4  H    0.249632
     5  Kr   0.007140
 Sum of Mulliken atomic charges =   0.00000
 Mulliken charges with hydrogens summed into heavy atoms:
              1
     1  O    0.015999
     2  O   -0.023139
     5  Kr   0.007140
 Sum of Mulliken charges with hydrogens summed into heavy atoms =   0.00000
          Condensed to fragments (all electrons):
     1      -0.007140
     2       0.007140
 Electronic spatial extent (au):  <R**2>=            491.4073
 Charge=              0.0000 electrons
 Dipole moment (field-independent basis, Debye):
    X=             -0.3728    Y=             -0.3212    Z=              0.7784  Tot=              0.9209
 Quadrupole moment (field-independent basis, Debye-Ang):
   XX=            -27.4800   YY=            -28.2667   ZZ=            -30.2851
   XY=             -3.7260   XZ=              2.4162   YZ=             -0.8387
 Traceless Quadrupole moment (field-independent basis, Debye-Ang):
   XX=              1.1972   YY=              0.4106   ZZ=             -1.6078
   XY=             -3.7260   XZ=              2.4162   YZ=             -0.8387
 Octapole moment (field-independent basis, Debye-Ang**2):
  XXX=             -5.2639  YYY=             -0.7419  ZZZ=              0.3520  XYY=             -4.2399
  XXY=            -15.3284  XXZ=              7.0890  XZZ=             -7.6677  YZZ=             -0.6760
  YYZ=              0.9855  XYZ=             -2.5457
 Hexadecapole moment (field-independent basis, Debye-Ang**3):
 XXXX=           -361.9580 YYYY=            -63.8369 ZZZZ=            -29.8946 XXXY=            -46.6990
 XXXZ=             21.1187 YYYX=             -5.5720 YYYZ=             -1.0565 ZZZX=              1.1942
 ZZZY=             -0.5346 XXYY=            -75.3893 XXZZ=            -77.3329 YYZZ=            -17.2339
 XXYZ=             -7.5201 YYXZ=              2.8475 ZZXY=             -1.3471
 N-N= 1.483887395288D+02 E-N=-7.235131371731D+03  KE= 2.900928516785D+03
 No NMR shielding tensors so no spin-rotation constants.
 Leave Link  601 at Sun May  3 15:47:45 2020, MaxMem= 1073741824 cpu:       0.8
 (Enter /home/matheus/.gaussian/g09/l122.exe)
 Counterpoise: doing DCBS calculation for fragment   1 NewBq=T
 Leave Link  122 at Sun May  3 15:47:45 2020, MaxMem= 1073741824 cpu:       0.0
 (Enter /home/matheus/.gaussian/g09/l301.exe)
 Basis read from rwf:  (5D, 7F)
 No pseudopotential information found on rwf file.
 There are   197 symmetry adapted basis functions of A   symmetry.
 Integral buffers will be    131072 words long.
 Raffenetti 2 integral format.
 Two-electron integral symmetry is turned on.
   197 basis functions,   415 primitive gaussians,   229 cartesian basis functions
     9 alpha electrons        9 beta electrons
       nuclear repulsion energy        36.6035600706 Hartrees.
 IExCor= 4639 DFT=T Ex+Corr=wB97XD ExCW=0 ScaHFX=  1.000000
 ScaDFX=  1.000000  1.000000  1.000000  1.000000 ScalE2=  1.000000  1.000000
 IRadAn=      5 IRanWt=     -1 IRanGd=            0 ICorTp=0
  HFx wShort=  0.000000 wLong=  0.250000 cFull=  0.222036 cShort=  0.000000 cLong=  0.777964
  DFx wShort=  0.000000 wLong=  0.250000 cFull=  0.000000 cShort=  0.000000 cLong=  1.000000
 NAtoms=    5 NActive=    5 NUniq=    5 SFac= 1.00D+00 NAtFMM=   60 NAOKFM=F Big=F
 R6Disp: Dispersion energy =        -0.0002048785 Hartrees.
 Nuclear repulsion after empirical dispersion term =       36.6033551921 Hartrees.
 No density basis found on file   718.
 Leave Link  301 at Sun May  3 15:47:45 2020, MaxMem= 1073741824 cpu:       0.3
 (Enter /home/matheus/.gaussian/g09/l302.exe)
 NPDir=0 NMtPBC=     1 NCelOv=     1 NCel=       1 NClECP=     1 NCelD=      1
         NCelK=      1 NCelE2=     1 NClLst=     1 CellRange=     0.0.
 One-electron integrals computed using PRISM.
 NBasis=   197 RedAO= T  NBF=   197
 NBsUse=   197 1.00D-06 NBFU=   197
 Precomputing XC quadrature grid using
 IXCGrd= 2 IRadAn=           5 IRanWt=          -1 IRanGd=           0 AccXCQ= 0.00D+00.
 NRdTot=     427 NPtTot=      123814 NUsed=      126881 NTot=      126913
 NSgBfM=   229   229   229   229   229 NAtAll=     5     5.
 Leave Link  302 at Sun May  3 15:47:45 2020, MaxMem= 1073741824 cpu:       1.1
 (Enter /home/matheus/.gaussian/g09/l303.exe)
 DipDrv:  MaxL=1.
 Leave Link  303 at Sun May  3 15:47:46 2020, MaxMem= 1073741824 cpu:       0.3
 (Enter /home/matheus/.gaussian/g09/l401.exe)
 Harris functional with IExCor= 4639 diagonalized for initial guess.
 ExpMin= 2.53D-02 ExpMax= 1.17D+07 ExpMxC= 1.33D+04 IAcc=3 IRadAn=         5 AccDes= 0.00D+00
 HarFok:  IExCor= 4639 AccDes= 0.00D+00 IRadAn=         5 IDoV= 1
 ScaDFX=  1.000000  1.000000  1.000000  1.000000
 FoFCou: FMM=F IPFlag=           0 FMFlag=      100000 FMFlg1=           0
         NFxFlg=           0 DoJE=T BraDBF=F KetDBF=T FulRan=T
         Omega=  0.000000  0.000000  1.000000  0.000000  0.000000 ICntrl=     500 IOpCl=  0
         NMat0=    1 NMatS0=    1 NMatT0=    0 NMatD0=    1 NMtDS0=    0 NMtDT0=    0
         I1Cent=           4 NGrid=           0.
 Petite list used in FoFCou.
 Harris En= -145.943607927206    
 Initial guess orbital symmetries:
       Occupied  (A) (A) (A) (A) (A) (A) (A) (A) (A)
       Virtual   (A) (A) (A) (A) (A) (A) (A) (A) (A) (A) (A) (A)
                 (A) (A) (A) (A) (A) (A) (A) (A) (A) (A) (A) (A)
                 (A) (A) (A) (A) (A) (A) (A) (A) (A) (A) (A) (A)
                 (A) (A) (A) (A) (A) (A) (A) (A) (A) (A) (A) (A)
                 (A) (A) (A) (A) (A) (A) (A) (A) (A) (A) (A) (A)
                 (A) (A) (A) (A) (A) (A) (A) (A) (A) (A) (A) (A)
                 (A) (A) (A) (A) (A) (A) (A) (A) (A) (A) (A) (A)
                 (A) (A) (A) (A) (A) (A) (A) (A) (A) (A) (A) (A)
                 (A) (A) (A) (A) (A) (A) (A) (A) (A) (A) (A) (A)
                 (A) (A) (A) (A) (A) (A) (A) (A) (A) (A) (A) (A)
                 (A) (A) (A) (A) (A) (A) (A) (A) (A) (A) (A) (A)
                 (A) (A) (A) (A) (A) (A) (A) (A) (A) (A) (A) (A)
                 (A) (A) (A) (A) (A) (A) (A) (A) (A) (A) (A) (A)
                 (A) (A) (A) (A) (A) (A) (A) (A) (A) (A) (A) (A)
                 (A) (A) (A) (A) (A) (A) (A) (A) (A) (A) (A) (A)
                 (A) (A) (A) (A) (A) (A) (A) (A)
 The electronic state of the initial guess is 1-A.
 Leave Link  401 at Sun May  3 15:47:46 2020, MaxMem= 1073741824 cpu:       5.6
 (Enter /home/matheus/.gaussian/g09/l502.exe)
 Closed shell SCF:
 Requested convergence on RMS density matrix=1.00D-08 within 128 cycles.
 Requested convergence on MAX density matrix=1.00D-06.
 Requested convergence on             energy=1.00D-06.
 No special actions if energy rises.
 Using DIIS extrapolation, IDIIS=  1040.
 Integral symmetry usage will be decided dynamically.
       126823 words used for storage of precomputed grid.
 IEnd=      305770 IEndB=      305770 NGot=  1073741824 MDV=  1073505365
 LenX=  1073505365 LenY=  1073452483
 Fock matrices will be formed incrementally for  20 cycles.

 Cycle   1  Pass 1  IDiag  1:
 FoFJK:  IHMeth= 1 ICntrl=     0 DoSepK=T KAlg= 1 I1Cent= 0 FoldK=F
 FoFCou: FMM=F IPFlag=           0 FMFlag=      100000 FMFlg1=           0
         NFxFlg=           0 DoJE=T BraDBF=F KetDBF=F FulRan=T
         Omega=  0.000000  0.000000  1.000000  0.000000  0.000000 ICntrl=     500 IOpCl=  0
         NMat0=    1 NMatS0=    1 NMatT0=    0 NMatD0=    1 NMtDS0=    0 NMtDT0=    0
         I1Cent=           0 NGrid=           0.
 Symmetry not used in FoFCou.
 E= -151.459964278371    
 DIIS: error= 3.30D-02 at cycle   1 NSaved=   1.
 NSaved= 1 IEnMin= 1 EnMin= -151.459964278371     IErMin= 1 ErrMin= 3.30D-02
 ErrMax= 3.30D-02 EMaxC= 1.00D-01 BMatC= 3.19D-01 BMatP= 3.19D-01
 IDIUse=3 WtCom= 6.70D-01 WtEn= 3.30D-01
 Coeff-Com:  0.100D+01
 Coeff-En:   0.100D+01
 Coeff:      0.100D+01
 Gap=     0.533 Goal=   None    Shift=    0.000
 GapD=    0.533 DampG=2.000 DampE=0.500 DampFc=1.0000 IDamp=-1.
 RMSDP=2.37D-03 MaxDP=9.38D-02              OVMax= 1.24D-01

 Cycle   2  Pass 1  IDiag  1:
 RMSU=  1.65D-03    CP:  9.59D-01
 FoFJK:  IHMeth= 1 ICntrl=     0 DoSepK=T KAlg= 1 I1Cent= 0 FoldK=F
 E= -151.498408862362     Delta-E=       -0.038444583992 Rises=F Damp=F
 DIIS: error= 1.80D-02 at cycle   2 NSaved=   2.
 NSaved= 2 IEnMin= 2 EnMin= -151.498408862362     IErMin= 2 ErrMin= 1.80D-02
 ErrMax= 1.80D-02 EMaxC= 1.00D-01 BMatC= 1.02D-01 BMatP= 3.19D-01
 IDIUse=3 WtCom= 8.20D-01 WtEn= 1.80D-01
 Coeff-Com:  0.341D+00 0.659D+00
 Coeff-En:   0.348D+00 0.652D+00
 Coeff:      0.342D+00 0.658D+00
 Gap=     0.472 Goal=   None    Shift=    0.000
 RMSDP=9.72D-04 MaxDP=4.67D-02 DE=-3.84D-02 OVMax= 5.97D-02

 Cycle   3  Pass 1  IDiag  1:
 RMSU=  3.78D-04    CP:  9.77D-01  6.61D-01
 FoFJK:  IHMeth= 1 ICntrl=     0 DoSepK=T KAlg= 1 I1Cent= 0 FoldK=F
 E= -151.554453111456     Delta-E=       -0.056044249094 Rises=F Damp=F
 DIIS: error= 4.26D-03 at cycle   3 NSaved=   3.
 NSaved= 3 IEnMin= 3 EnMin= -151.554453111456     IErMin= 3 ErrMin= 4.26D-03
 ErrMax= 4.26D-03 EMaxC= 1.00D-01 BMatC= 5.35D-03 BMatP= 1.02D-01
 IDIUse=3 WtCom= 9.57D-01 WtEn= 4.26D-02
 Coeff-Com:  0.759D-02 0.191D+00 0.802D+00
 Coeff-En:   0.000D+00 0.000D+00 0.100D+01
 Coeff:      0.727D-02 0.183D+00 0.810D+00
 Gap=     0.411 Goal=   None    Shift=    0.000
 RMSDP=2.55D-04 MaxDP=1.00D-02 DE=-5.60D-02 OVMax= 1.61D-02

 Cycle   4  Pass 1  IDiag  1:
 RMSU=  7.22D-05    CP:  9.72D-01  7.55D-01  8.82D-01
 FoFJK:  IHMeth= 1 ICntrl=     0 DoSepK=T KAlg= 1 I1Cent= 0 FoldK=F
 E= -151.557900066500     Delta-E=       -0.003446955044 Rises=F Damp=F
 DIIS: error= 3.99D-04 at cycle   4 NSaved=   4.
 NSaved= 4 IEnMin= 4 EnMin= -151.557900066500     IErMin= 4 ErrMin= 3.99D-04
 ErrMax= 3.99D-04 EMaxC= 1.00D-01 BMatC= 4.33D-05 BMatP= 5.35D-03
 IDIUse=3 WtCom= 9.96D-01 WtEn= 3.99D-03
 Coeff-Com: -0.169D-02-0.106D-01 0.415D-01 0.971D+00
 Coeff-En:   0.000D+00 0.000D+00 0.000D+00 0.100D+01
 Coeff:     -0.169D-02-0.106D-01 0.414D-01 0.971D+00
 Gap=     0.408 Goal=   None    Shift=    0.000
 RMSDP=3.85D-05 MaxDP=1.89D-03 DE=-3.45D-03 OVMax= 1.61D-03

 Cycle   5  Pass 1  IDiag  1:
 RMSU=  1.24D-05    CP:  9.72D-01  7.52D-01  9.32D-01  1.19D+00
 FoFJK:  IHMeth= 1 ICntrl=     0 DoSepK=T KAlg= 1 I1Cent= 0 FoldK=F
 E= -151.557936677474     Delta-E=       -0.000036610974 Rises=F Damp=F
 DIIS: error= 4.47D-05 at cycle   5 NSaved=   5.
 NSaved= 5 IEnMin= 5 EnMin= -151.557936677474     IErMin= 5 ErrMin= 4.47D-05
 ErrMax= 4.47D-05 EMaxC= 1.00D-01 BMatC= 5.47D-07 BMatP= 4.33D-05
 IDIUse=1 WtCom= 1.00D+00 WtEn= 0.00D+00
 Coeff-Com: -0.370D-03-0.938D-02-0.397D-01-0.279D-01 0.108D+01
 Coeff:     -0.370D-03-0.938D-02-0.397D-01-0.279D-01 0.108D+01
 Gap=     0.408 Goal=   None    Shift=    0.000
 RMSDP=1.11D-05 MaxDP=4.86D-04 DE=-3.66D-05 OVMax= 7.82D-04

 Cycle   6  Pass 1  IDiag  1:
 RMSU=  2.48D-06    CP:  9.72D-01  7.53D-01  9.42D-01  1.26D+00  1.25D+00
 FoFJK:  IHMeth= 1 ICntrl=     0 DoSepK=T KAlg= 1 I1Cent= 0 FoldK=F
 E= -151.557938229235     Delta-E=       -0.000001551761 Rises=F Damp=F
 DIIS: error= 1.04D-05 at cycle   6 NSaved=   6.
 NSaved= 6 IEnMin= 6 EnMin= -151.557938229235     IErMin= 6 ErrMin= 1.04D-05
 ErrMax= 1.04D-05 EMaxC= 1.00D-01 BMatC= 2.85D-08 BMatP= 5.47D-07
 IDIUse=1 WtCom= 1.00D+00 WtEn= 0.00D+00
 Coeff-Com:  0.227D-04-0.324D-03-0.395D-02-0.260D-01 0.666D-01 0.964D+00
 Coeff:      0.227D-04-0.324D-03-0.395D-02-0.260D-01 0.666D-01 0.964D+00
 Gap=     0.408 Goal=   None    Shift=    0.000
 RMSDP=1.61D-06 MaxDP=5.90D-05 DE=-1.55D-06 OVMax= 1.43D-04

 Cycle   7  Pass 1  IDiag  1:
 RMSU=  5.12D-07    CP:  9.72D-01  7.53D-01  9.43D-01  1.27D+00  1.30D+00
                    CP:  1.26D+00
 FoFJK:  IHMeth= 1 ICntrl=     0 DoSepK=T KAlg= 1 I1Cent= 0 FoldK=F
 E= -151.557938285043     Delta-E=       -0.000000055808 Rises=F Damp=F
 DIIS: error= 7.00D-06 at cycle   7 NSaved=   7.
 NSaved= 7 IEnMin= 7 EnMin= -151.557938285043     IErMin= 7 ErrMin= 7.00D-06
 ErrMax= 7.00D-06 EMaxC= 1.00D-01 BMatC= 1.40D-08 BMatP= 2.85D-08
 IDIUse=1 WtCom= 1.00D+00 WtEn= 0.00D+00
 Coeff-Com:  0.343D-04 0.503D-03 0.105D-02-0.102D-01-0.484D-01 0.430D+00
 Coeff-Com:  0.627D+00
 Coeff:      0.343D-04 0.503D-03 0.105D-02-0.102D-01-0.484D-01 0.430D+00
 Coeff:      0.627D+00
 Gap=     0.408 Goal=   None    Shift=    0.000
 RMSDP=4.85D-07 MaxDP=2.32D-05 DE=-5.58D-08 OVMax= 4.10D-05

 Cycle   8  Pass 1  IDiag  1:
 RMSU=  2.31D-07    CP:  9.72D-01  7.53D-01  9.43D-01  1.27D+00  1.31D+00
                    CP:  1.33D+00  8.11D-01
 FoFJK:  IHMeth= 1 ICntrl=     0 DoSepK=T KAlg= 1 I1Cent= 0 FoldK=F
 E= -151.557938296759     Delta-E=       -0.000000011716 Rises=F Damp=F
 DIIS: error= 2.73D-06 at cycle   8 NSaved=   8.
 NSaved= 8 IEnMin= 8 EnMin= -151.557938296759     IErMin= 8 ErrMin= 2.73D-06
 ErrMax= 2.73D-06 EMaxC= 1.00D-01 BMatC= 2.27D-09 BMatP= 1.40D-08
 IDIUse=1 WtCom= 1.00D+00 WtEn= 0.00D+00
 Coeff-Com:  0.426D-05 0.230D-03 0.131D-02 0.234D-02-0.316D-01-0.100D+00
 Coeff-Com:  0.264D+00 0.864D+00
 Coeff:      0.426D-05 0.230D-03 0.131D-02 0.234D-02-0.316D-01-0.100D+00
 Coeff:      0.264D+00 0.864D+00
 Gap=     0.408 Goal=   None    Shift=    0.000
 RMSDP=2.46D-07 MaxDP=1.02D-05 DE=-1.17D-08 OVMax= 2.93D-05

 Cycle   9  Pass 1  IDiag  1:
 RMSU=  8.22D-08    CP:  9.72D-01  7.53D-01  9.43D-01  1.27D+00  1.32D+00
                    CP:  1.36D+00  1.03D+00  1.11D+00
 FoFJK:  IHMeth= 1 ICntrl=     0 DoSepK=T KAlg= 1 I1Cent= 0 FoldK=F
 E= -151.557938299584     Delta-E=       -0.000000002824 Rises=F Damp=F
 DIIS: error= 4.24D-07 at cycle   9 NSaved=   9.
 NSaved= 9 IEnMin= 9 EnMin= -151.557938299584     IErMin= 9 ErrMin= 4.24D-07
 ErrMax= 4.24D-07 EMaxC= 1.00D-01 BMatC= 4.75D-11 BMatP= 2.27D-09
 IDIUse=1 WtCom= 1.00D+00 WtEn= 0.00D+00
 Coeff-Com: -0.105D-05-0.381D-04-0.175D-03-0.108D-04 0.767D-02-0.255D-01
 Coeff-Com: -0.455D-01-0.279D-01 0.109D+01
 Coeff:     -0.105D-05-0.381D-04-0.175D-03-0.108D-04 0.767D-02-0.255D-01
 Coeff:     -0.455D-01-0.279D-01 0.109D+01
 Gap=     0.408 Goal=   None    Shift=    0.000
 RMSDP=7.74D-08 MaxDP=1.55D-06 DE=-2.82D-09 OVMax= 1.11D-05

 Cycle  10  Pass 1  IDiag  1:
 RMSU=  1.85D-08    CP:  9.72D-01  7.53D-01  9.43D-01  1.27D+00  1.32D+00
                    CP:  1.36D+00  1.06D+00  1.24D+00  1.44D+00
 FoFJK:  IHMeth= 1 ICntrl=     0 DoSepK=T KAlg= 1 I1Cent= 0 FoldK=F
 E= -151.557938299759     Delta-E=       -0.000000000176 Rises=F Damp=F
 DIIS: error= 1.90D-07 at cycle  10 NSaved=  10.
 NSaved=10 IEnMin=10 EnMin= -151.557938299759     IErMin=10 ErrMin= 1.90D-07
 ErrMax= 1.90D-07 EMaxC= 1.00D-01 BMatC= 7.06D-12 BMatP= 4.75D-11
 IDIUse=1 WtCom= 1.00D+00 WtEn= 0.00D+00
 Coeff-Com:  0.244D-07-0.126D-04-0.102D-03-0.328D-03 0.249D-02 0.786D-02
 Coeff-Com: -0.139D-01-0.569D-01-0.257D+00 0.132D+01
 Coeff:      0.244D-07-0.126D-04-0.102D-03-0.328D-03 0.249D-02 0.786D-02
 Coeff:     -0.139D-01-0.569D-01-0.257D+00 0.132D+01
 Gap=     0.408 Goal=   None    Shift=    0.000
 RMSDP=4.02D-08 MaxDP=9.00D-07 DE=-1.76D-10 OVMax= 6.29D-06

 Cycle  11  Pass 1  IDiag  1:
 RMSU=  7.76D-09    CP:  9.72D-01  7.53D-01  9.43D-01  1.27D+00  1.32D+00
                    CP:  1.35D+00  1.07D+00  1.29D+00  1.66D+00  1.75D+00
 FoFJK:  IHMeth= 1 ICntrl=     0 DoSepK=T KAlg= 1 I1Cent= 0 FoldK=F
 E= -151.557938299793     Delta-E=       -0.000000000034 Rises=F Damp=F
 DIIS: error= 6.76D-08 at cycle  11 NSaved=  11.
 NSaved=11 IEnMin=11 EnMin= -151.557938299793     IErMin=11 ErrMin= 6.76D-08
 ErrMax= 6.76D-08 EMaxC= 1.00D-01 BMatC= 6.00D-13 BMatP= 7.06D-12
 IDIUse=1 WtCom= 1.00D+00 WtEn= 0.00D+00
 Coeff-Com: -0.116D-06 0.201D-05 0.224D-04 0.244D-04-0.718D-03-0.275D-03
 Coeff-Com:  0.742D-02 0.170D-01-0.847D-01-0.182D+00 0.124D+01
 Coeff:     -0.116D-06 0.201D-05 0.224D-04 0.244D-04-0.718D-03-0.275D-03
 Coeff:      0.742D-02 0.170D-01-0.847D-01-0.182D+00 0.124D+01
 Gap=     0.408 Goal=   None    Shift=    0.000
 RMSDP=1.45D-08 MaxDP=2.98D-07 DE=-3.40D-11 OVMax= 2.09D-06

 Cycle  12  Pass 1  IDiag  1:
 RMSU=  2.13D-09    CP:  9.72D-01  7.53D-01  9.43D-01  1.27D+00  1.32D+00
                    CP:  1.35D+00  1.08D+00  1.31D+00  1.71D+00  2.09D+00
                    CP:  1.62D+00
 FoFJK:  IHMeth= 1 ICntrl=     0 DoSepK=T KAlg= 1 I1Cent= 0 FoldK=F
 E= -151.557938299796     Delta-E=       -0.000000000003 Rises=F Damp=F
 DIIS: error= 1.57D-08 at cycle  12 NSaved=  12.
 NSaved=12 IEnMin=12 EnMin= -151.557938299796     IErMin=12 ErrMin= 1.57D-08
 ErrMax= 1.57D-08 EMaxC= 1.00D-01 BMatC= 4.93D-14 BMatP= 6.00D-13
 IDIUse=1 WtCom= 1.00D+00 WtEn= 0.00D+00
 Coeff-Com: -0.445D-07 0.885D-06 0.977D-05 0.247D-04-0.208D-03-0.944D-03
 Coeff-Com:  0.166D-02 0.649D-02 0.152D-01-0.124D+00 0.342D-01 0.107D+01
 Coeff:     -0.445D-07 0.885D-06 0.977D-05 0.247D-04-0.208D-03-0.944D-03
 Coeff:      0.166D-02 0.649D-02 0.152D-01-0.124D+00 0.342D-01 0.107D+01
 Gap=     0.408 Goal=   None    Shift=    0.000
 RMSDP=4.00D-09 MaxDP=8.73D-08 DE=-3.18D-12 OVMax= 4.79D-07

 SCF Done:  E(RwB97XD) =  -151.557938300     A.U. after   12 cycles
             Convg  =    0.4003D-08             -V/T =  2.0061
 KE= 1.506341213493D+02 PE=-4.316728549730D+02 EE= 9.287744013187D+01
 Leave Link  502 at Sun May  3 15:48:40 2020, MaxMem= 1073741824 cpu:     425.2
 (Enter /home/matheus/.gaussian/g09/l601.exe)
 Copying SCF densities to generalized density rwf, IOpCl= 0 IROHF=0.

 **********************************************************************

            Population analysis using the SCF density.

 **********************************************************************

 Orbital symmetries:
       Occupied  (A) (A) (A) (A) (A) (A) (A) (A) (A)
       Virtual   (A) (A) (A) (A) (A) (A) (A) (A) (A) (A) (A) (A)
                 (A) (A) (A) (A) (A) (A) (A) (A) (A) (A) (A) (A)
                 (A) (A) (A) (A) (A) (A) (A) (A) (A) (A) (A) (A)
                 (A) (A) (A) (A) (A) (A) (A) (A) (A) (A) (A) (A)
                 (A) (A) (A) (A) (A) (A) (A) (A) (A) (A) (A) (A)
                 (A) (A) (A) (A) (A) (A) (A) (A) (A) (A) (A) (A)
                 (A) (A) (A) (A) (A) (A) (A) (A) (A) (A) (A) (A)
                 (A) (A) (A) (A) (A) (A) (A) (A) (A) (A) (A) (A)
                 (A) (A) (A) (A) (A) (A) (A) (A) (A) (A) (A) (A)
                 (A) (A) (A) (A) (A) (A) (A) (A) (A) (A) (A) (A)
                 (A) (A) (A) (A) (A) (A) (A) (A) (A) (A) (A) (A)
                 (A) (A) (A) (A) (A) (A) (A) (A) (A) (A) (A) (A)
                 (A) (A) (A) (A) (A) (A) (A) (A) (A) (A) (A) (A)
                 (A) (A) (A) (A) (A) (A) (A) (A) (A) (A) (A) (A)
                 (A) (A) (A) (A) (A) (A) (A) (A) (A) (A) (A) (A)
                 (A) (A) (A) (A) (A) (A) (A) (A)
 The electronic state is 1-A.
 Alpha  occ. eigenvalues --  -19.33896 -19.33892  -1.24500  -1.03372  -0.65289
 Alpha  occ. eigenvalues --   -0.60993  -0.52289  -0.45369  -0.37542
 Alpha virt. eigenvalues --    0.03243   0.03834   0.07238   0.09267   0.09764
 Alpha virt. eigenvalues --    0.10744   0.11307   0.14208   0.16942   0.17377
 Alpha virt. eigenvalues --    0.18684   0.19977   0.21397   0.23390   0.25956
 Alpha virt. eigenvalues --    0.27456   0.30478   0.31740   0.32439   0.33723
 Alpha virt. eigenvalues --    0.36196   0.38348   0.39094   0.39821   0.41388
 Alpha virt. eigenvalues --    0.42922   0.44422   0.47349   0.49320   0.49994
 Alpha virt. eigenvalues --    0.54935   0.58201   0.59196   0.63812   0.67615
 Alpha virt. eigenvalues --    0.69378   0.73660   0.73991   0.74746   0.75649
 Alpha virt. eigenvalues --    0.78424   0.81691   0.85504   0.87989   0.90136
 Alpha virt. eigenvalues --    0.91307   0.92794   0.95581   0.97365   0.99193
 Alpha virt. eigenvalues --    0.99798   1.04255   1.05322   1.08383   1.12441
 Alpha virt. eigenvalues --    1.13261   1.15853   1.17974   1.21100   1.23121
 Alpha virt. eigenvalues --    1.25300   1.31098   1.32584   1.33010   1.34009
 Alpha virt. eigenvalues --    1.34878   1.35688   1.36994   1.37817   1.41685
 Alpha virt. eigenvalues --    1.47269   1.50024   1.52812   1.54023   1.55182
 Alpha virt. eigenvalues --    1.56693   1.63992   1.68099   1.70772   1.79723
 Alpha virt. eigenvalues --    1.81415   1.82700   1.87696   1.95682   2.01087
 Alpha virt. eigenvalues --    2.03348   2.06263   2.14164   2.16163   2.21607
 Alpha virt. eigenvalues --    2.24637   2.26750   2.31021   2.34203   2.42437
 Alpha virt. eigenvalues --    2.47277   2.52757   2.53662   2.58555   2.64517
 Alpha virt. eigenvalues --    2.69113   2.71679   2.78416   2.83768   2.91867
 Alpha virt. eigenvalues --    3.04496   3.07827   3.09789   3.27058   3.31405
 Alpha virt. eigenvalues --    3.41172   3.53801   3.58854   3.69076   3.79542
 Alpha virt. eigenvalues --    3.79997   3.81888   3.83346   3.83601   3.84285
 Alpha virt. eigenvalues --    3.88950   3.90527   3.91845   3.94040   3.96133
 Alpha virt. eigenvalues --    3.98195   4.02359   4.07686   4.08474   4.11917
 Alpha virt. eigenvalues --    4.13988   4.17729   4.22208   4.29171   4.35785
 Alpha virt. eigenvalues --    4.44108   4.50543   4.54474   4.72897   4.92614
 Alpha virt. eigenvalues --    4.98755   5.01295   5.06329   5.11129   5.32154
 Alpha virt. eigenvalues --    5.43210   5.83060   6.01430   6.06700   6.11437
 Alpha virt. eigenvalues --    6.32982   6.33276   6.40256   6.49745   6.67440
 Alpha virt. eigenvalues --    6.71888   6.75073   6.81887   6.85378   6.86185
 Alpha virt. eigenvalues --    6.91146   6.92576   6.95624   6.99786   7.03542
 Alpha virt. eigenvalues --    7.22647   7.24970   7.37992   7.67464   7.82815
 Alpha virt. eigenvalues --    8.06889   8.12386  10.89456  14.05601  14.60360
 Alpha virt. eigenvalues --   14.84669  14.89827  15.12159  29.04389  29.04908
 Alpha virt. eigenvalues --   29.09295  29.14879  29.24414  49.11238 148.32702
 Alpha virt. eigenvalues --  148.40140 148.72846 752.49854
          Condensed to atoms (all electrons):
              1          2          3          4          5
     1  O    8.162841  -0.151823   0.211388  -0.002140  -0.002460
     2  O   -0.151823   8.165750   0.007279   0.225247  -0.001034
     3  H    0.211388   0.007279   0.556348   0.004740   0.000467
     4  H   -0.002140   0.225247   0.004740   0.539454  -0.004462
     5  Kr  -0.002460  -0.001034   0.000467  -0.004462   0.001202
 Mulliken atomic charges:
              1
     1  O   -0.217806
     2  O   -0.245419
     3  H    0.219779
     4  H    0.237160
     5  Kr   0.006287
 Sum of Mulliken atomic charges =   0.00000
 Mulliken charges with hydrogens summed into heavy atoms:
              1
     1  O    0.001972
     2  O   -0.008260
     5  Kr   0.006287
 Sum of Mulliken charges with hydrogens summed into heavy atoms =   0.00000
          Condensed to fragments (all electrons):
     1      -0.006287
     2       0.006287
 Electronic spatial extent (au):  <R**2>=            324.1336
 Charge=              0.0000 electrons
 Dipole moment (field-independent basis, Debye):
    X=             -0.2047    Y=             -0.0382    Z=              0.7995  Tot=              0.8262
 Quadrupole moment (field-independent basis, Debye-Ang):
   XX=             -9.8301   YY=            -10.6361   ZZ=            -12.7174
   XY=             -3.8953   XZ=              2.3994   YZ=             -0.8364
 Traceless Quadrupole moment (field-independent basis, Debye-Ang):
   XX=              1.2311   YY=              0.4251   ZZ=             -1.6562
   XY=             -3.8953   XZ=              2.3994   YZ=             -0.8364
 Octapole moment (field-independent basis, Debye-Ang**2):
  XXX=            -57.0070  YYY=             -1.2914  ZZZ=              0.5262  XYY=            -21.6662
  XXY=            -15.2586  XXZ=              7.1653  XZZ=            -25.1415  YZZ=             -0.8566
  YYZ=              1.0426  XYZ=             -2.5446
 Hexadecapole moment (field-independent basis, Debye-Ang**3):
 XXXX=           -237.2265 YYYY=            -45.4826 ZZZZ=            -11.6857 XXXY=            -45.9645
 XXXZ=             20.9569 YYYX=             -4.9939 YYYZ=             -1.0542 ZZZX=              1.0257
 ZZZY=             -0.5327 XXYY=            -51.6031 XXZZ=            -53.6863 YYZZ=            -11.1319
 XXYZ=             -7.5242 YYXZ=              2.7884 ZZXY=             -1.1127
 N-N= 3.660335519209D+01 E-N=-4.316728543066D+02  KE= 1.506341213493D+02
 No NMR shielding tensors so no spin-rotation constants.
 Leave Link  601 at Sun May  3 15:48:40 2020, MaxMem= 1073741824 cpu:       0.9
 (Enter /home/matheus/.gaussian/g09/l122.exe)
 Counterpoise: doing DCBS calculation for fragment   2 NewBq=T
 Leave Link  122 at Sun May  3 15:48:40 2020, MaxMem= 1073741824 cpu:       0.0
 (Enter /home/matheus/.gaussian/g09/l301.exe)
 Basis read from rwf:  (5D, 7F)
 No pseudopotential information found on rwf file.
 There are   197 symmetry adapted basis functions of A   symmetry.
 Integral buffers will be    131072 words long.
 Raffenetti 2 integral format.
 Two-electron integral symmetry is turned on.
   197 basis functions,   415 primitive gaussians,   229 cartesian basis functions
    18 alpha electrons       18 beta electrons
       nuclear repulsion energy         0.0000000000 Hartrees.
 IExCor= 4639 DFT=T Ex+Corr=wB97XD ExCW=0 ScaHFX=  1.000000
 ScaDFX=  1.000000  1.000000  1.000000  1.000000 ScalE2=  1.000000  1.000000
 IRadAn=      5 IRanWt=     -1 IRanGd=            0 ICorTp=0
  HFx wShort=  0.000000 wLong=  0.250000 cFull=  0.222036 cShort=  0.000000 cLong=  0.777964
  DFx wShort=  0.000000 wLong=  0.250000 cFull=  0.000000 cShort=  0.000000 cLong=  1.000000
 NAtoms=    5 NActive=    5 NUniq=    5 SFac= 1.00D+00 NAtFMM=   60 NAOKFM=F Big=F
 R6Disp: Dispersion energy =         0.0000000000 Hartrees.
 Nuclear repulsion after empirical dispersion term =        0.0000000000 Hartrees.
 No density basis found on file   718.
 Leave Link  301 at Sun May  3 15:48:40 2020, MaxMem= 1073741824 cpu:       0.3
 (Enter /home/matheus/.gaussian/g09/l302.exe)
 NPDir=0 NMtPBC=     1 NCelOv=     1 NCel=       1 NClECP=     1 NCelD=      1
         NCelK=      1 NCelE2=     1 NClLst=     1 CellRange=     0.0.
 One-electron integrals computed using PRISM.
 NBasis=   197 RedAO= T  NBF=   197
 NBsUse=   197 1.00D-06 NBFU=   197
 Precomputing XC quadrature grid using
 IXCGrd= 2 IRadAn=           5 IRanWt=          -1 IRanGd=           0 AccXCQ= 0.00D+00.
 NRdTot=     427 NPtTot=      123814 NUsed=      126881 NTot=      126913
 NSgBfM=   229   229   229   229   229 NAtAll=     5     5.
 Leave Link  302 at Sun May  3 15:48:40 2020, MaxMem= 1073741824 cpu:       1.4
 (Enter /home/matheus/.gaussian/g09/l303.exe)
 DipDrv:  MaxL=1.
 Leave Link  303 at Sun May  3 15:48:40 2020, MaxMem= 1073741824 cpu:       0.2
 (Enter /home/matheus/.gaussian/g09/l401.exe)
 Harris functional with IExCor= 4639 diagonalized for initial guess.
 ExpMin= 2.53D-02 ExpMax= 1.17D+07 ExpMxC= 1.33D+04 IAcc=3 IRadAn=         5 AccDes= 0.00D+00
 HarFok:  IExCor= 4639 AccDes= 0.00D+00 IRadAn=         5 IDoV= 1
 ScaDFX=  1.000000  1.000000  1.000000  1.000000
 FoFCou: FMM=F IPFlag=           0 FMFlag=      100000 FMFlg1=           0
         NFxFlg=           0 DoJE=T BraDBF=F KetDBF=T FulRan=T
         Omega=  0.000000  0.000000  1.000000  0.000000  0.000000 ICntrl=     500 IOpCl=  0
         NMat0=    1 NMatS0=    1 NMatT0=    0 NMatD0=    1 NMtDS0=    0 NMtDT0=    0
         I1Cent=           4 NGrid=           0.
 Petite list used in FoFCou.
 Harris En= -2729.46037670061    
 Initial guess orbital symmetries:
       Occupied  (A) (A) (A) (A) (A) (A) (A) (A) (A) (A) (A) (A)
                 (A) (A) (A) (A) (A) (A)
       Virtual   (A) (A) (A) (A) (A) (A) (A) (A) (A) (A) (A) (A)
                 (A) (A) (A) (A) (A) (A) (A) (A) (A) (A) (A) (A)
                 (A) (A) (A) (A) (A) (A) (A) (A) (A) (A) (A) (A)
                 (A) (A) (A) (A) (A) (A) (A) (A) (A) (A) (A) (A)
                 (A) (A) (A) (A) (A) (A) (A) (A) (A) (A) (A) (A)
                 (A) (A) (A) (A) (A) (A) (A) (A) (A) (A) (A) (A)
                 (A) (A) (A) (A) (A) (A) (A) (A) (A) (A) (A) (A)
                 (A) (A) (A) (A) (A) (A) (A) (A) (A) (A) (A) (A)
                 (A) (A) (A) (A) (A) (A) (A) (A) (A) (A) (A) (A)
                 (A) (A) (A) (A) (A) (A) (A) (A) (A) (A) (A) (A)
                 (A) (A) (A) (A) (A) (A) (A) (A) (A) (A) (A) (A)
                 (A) (A) (A) (A) (A) (A) (A) (A) (A) (A) (A) (A)
                 (A) (A) (A) (A) (A) (A) (A) (A) (A) (A) (A) (A)
                 (A) (A) (A) (A) (A) (A) (A) (A) (A) (A) (A) (A)
                 (A) (A) (A) (A) (A) (A) (A) (A) (A) (A) (A)
 The electronic state of the initial guess is 1-A.
 Leave Link  401 at Sun May  3 15:48:41 2020, MaxMem= 1073741824 cpu:       5.2
 (Enter /home/matheus/.gaussian/g09/l502.exe)
 Closed shell SCF:
 Requested convergence on RMS density matrix=1.00D-08 within 128 cycles.
 Requested convergence on MAX density matrix=1.00D-06.
 Requested convergence on             energy=1.00D-06.
 No special actions if energy rises.
 Using DIIS extrapolation, IDIIS=  1040.
 Integral symmetry usage will be decided dynamically.
       126823 words used for storage of precomputed grid.
 IEnd=      305770 IEndB=      305770 NGot=  1073741824 MDV=  1073505365
 LenX=  1073505365 LenY=  1073452483
 Fock matrices will be formed incrementally for  20 cycles.

 Cycle   1  Pass 1  IDiag  1:
 FoFJK:  IHMeth= 1 ICntrl=     0 DoSepK=T KAlg= 1 I1Cent= 0 FoldK=F
 FoFCou: FMM=F IPFlag=           0 FMFlag=      100000 FMFlg1=           0
         NFxFlg=           0 DoJE=T BraDBF=F KetDBF=F FulRan=T
         Omega=  0.000000  0.000000  1.000000  0.000000  0.000000 ICntrl=     500 IOpCl=  0
         NMat0=    1 NMatS0=    1 NMatT0=    0 NMatD0=    1 NMtDS0=    0 NMtDT0=    0
         I1Cent=           0 NGrid=           0.
 Symmetry not used in FoFCou.
 E= -2753.44669744281    
 DIIS: error= 6.02D-02 at cycle   1 NSaved=   1.
 NSaved= 1 IEnMin= 1 EnMin= -2753.44669744281     IErMin= 1 ErrMin= 6.02D-02
 ErrMax= 6.02D-02 EMaxC= 1.00D-01 BMatC= 1.90D+00 BMatP= 1.90D+00
 IDIUse=3 WtCom= 3.98D-01 WtEn= 6.02D-01
 Coeff-Com:  0.100D+01
 Coeff-En:   0.100D+01
 Coeff:      0.100D+01
 Gap=     0.654 Goal=   None    Shift=    0.000
 GapD=    0.654 DampG=2.000 DampE=0.500 DampFc=1.0000 IDamp=-1.
 RMSDP=5.62D-03 MaxDP=3.66D-01              OVMax= 1.83D-01

 Cycle   2  Pass 1  IDiag  1:
 RMSU=  3.91D-03    CP:  1.04D+00
 FoFJK:  IHMeth= 1 ICntrl=     0 DoSepK=T KAlg= 1 I1Cent= 0 FoldK=F
 E= -2753.72377699394     Delta-E=       -0.277079551135 Rises=F Damp=F
 DIIS: error= 2.87D-02 at cycle   2 NSaved=   2.
 NSaved= 2 IEnMin= 2 EnMin= -2753.72377699394     IErMin= 2 ErrMin= 2.87D-02
 ErrMax= 2.87D-02 EMaxC= 1.00D-01 BMatC= 4.66D-01 BMatP= 1.90D+00
 IDIUse=3 WtCom= 7.13D-01 WtEn= 2.87D-01
 Coeff-Com:  0.326D+00 0.674D+00
 Coeff-En:   0.160D+00 0.840D+00
 Coeff:      0.279D+00 0.721D+00
 Gap=     0.492 Goal=   None    Shift=    0.000
 RMSDP=2.50D-03 MaxDP=1.59D-01 DE=-2.77D-01 OVMax= 7.61D-02

 Cycle   3  Pass 1  IDiag  1:
 RMSU=  3.66D-04    CP:  1.03D+00  5.63D-01
 FoFJK:  IHMeth= 1 ICntrl=     0 DoSepK=T KAlg= 1 I1Cent= 0 FoldK=F
 E= -2753.86735474357     Delta-E=       -0.143577749628 Rises=F Damp=F
 DIIS: error= 3.84D-03 at cycle   3 NSaved=   3.
 NSaved= 3 IEnMin= 3 EnMin= -2753.86735474357     IErMin= 3 ErrMin= 3.84D-03
 ErrMax= 3.84D-03 EMaxC= 1.00D-01 BMatC= 9.19D-03 BMatP= 4.66D-01
 IDIUse=3 WtCom= 9.62D-01 WtEn= 3.84D-02
 Coeff-Com: -0.753D-02 0.111D+00 0.897D+00
 Coeff-En:   0.000D+00 0.000D+00 0.100D+01
 Coeff:     -0.724D-02 0.107D+00 0.901D+00
 Gap=     0.516 Goal=   None    Shift=    0.000
 RMSDP=2.82D-04 MaxDP=1.64D-02 DE=-1.44D-01 OVMax= 1.15D-02

 Cycle   4  Pass 1  IDiag  1:
 RMSU=  4.16D-05    CP:  1.03D+00  6.12D-01  9.74D-01
 FoFJK:  IHMeth= 1 ICntrl=     0 DoSepK=T KAlg= 1 I1Cent= 0 FoldK=F
 E= -2753.87021882786     Delta-E=       -0.002864084291 Rises=F Damp=F
 DIIS: error= 1.60D-04 at cycle   4 NSaved=   4.
 NSaved= 4 IEnMin= 4 EnMin= -2753.87021882786     IErMin= 4 ErrMin= 1.60D-04
 ErrMax= 1.60D-04 EMaxC= 1.00D-01 BMatC= 1.17D-05 BMatP= 9.19D-03
 IDIUse=3 WtCom= 9.98D-01 WtEn= 1.60D-03
 Coeff-Com: -0.260D-03-0.171D-01-0.824D-01 0.110D+01
 Coeff-En:   0.000D+00 0.000D+00 0.000D+00 0.100D+01
 Coeff:     -0.260D-03-0.171D-01-0.823D-01 0.110D+01
 Gap=     0.514 Goal=   None    Shift=    0.000
 RMSDP=2.29D-05 MaxDP=8.60D-04 DE=-2.86D-03 OVMax= 9.55D-04

 Cycle   5  Pass 1  IDiag  1:
 RMSU=  8.60D-06    CP:  1.03D+00  6.11D-01  9.95D-01  1.24D+00
 FoFJK:  IHMeth= 1 ICntrl=     0 DoSepK=T KAlg= 1 I1Cent= 0 FoldK=F
 E= -2753.87022662410     Delta-E=       -0.000007796234 Rises=F Damp=F
 DIIS: error= 1.16D-05 at cycle   5 NSaved=   5.
 NSaved= 5 IEnMin= 5 EnMin= -2753.87022662410     IErMin= 5 ErrMin= 1.16D-05
 ErrMax= 1.16D-05 EMaxC= 1.00D-01 BMatC= 4.38D-08 BMatP= 1.17D-05
 IDIUse=1 WtCom= 1.00D+00 WtEn= 0.00D+00
 Coeff-Com:  0.788D-04 0.110D-02 0.171D-02-0.183D+00 0.118D+01
 Coeff:      0.788D-04 0.110D-02 0.171D-02-0.183D+00 0.118D+01
 Gap=     0.514 Goal=   None    Shift=    0.000
 RMSDP=3.62D-06 MaxDP=1.42D-04 DE=-7.80D-06 OVMax= 2.04D-04

 Cycle   6  Pass 1  IDiag  1:
 RMSU=  7.52D-07    CP:  1.03D+00  6.11D-01  9.97D-01  1.28D+00  1.17D+00
 FoFJK:  IHMeth= 1 ICntrl=     0 DoSepK=T KAlg= 1 I1Cent= 0 FoldK=F
 E= -2753.87022675781     Delta-E=       -0.000000133710 Rises=F Damp=F
 DIIS: error= 1.69D-06 at cycle   6 NSaved=   6.
 NSaved= 6 IEnMin= 6 EnMin= -2753.87022675781     IErMin= 6 ErrMin= 1.69D-06
 ErrMax= 1.69D-06 EMaxC= 1.00D-01 BMatC= 7.36D-10 BMatP= 4.38D-08
 IDIUse=1 WtCom= 1.00D+00 WtEn= 0.00D+00
 Coeff-Com:  0.709D-05 0.296D-03 0.941D-03-0.409D-01 0.188D+00 0.852D+00
 Coeff:      0.709D-05 0.296D-03 0.941D-03-0.409D-01 0.188D+00 0.852D+00
 Gap=     0.514 Goal=   None    Shift=    0.000
 RMSDP=2.38D-07 MaxDP=8.79D-06 DE=-1.34D-07 OVMax= 1.07D-05

 Cycle   7  Pass 1  IDiag  1:
 RMSU=  6.89D-08    CP:  1.03D+00  6.11D-01  9.97D-01  1.28D+00  1.18D+00
                    CP:  1.11D+00
 FoFJK:  IHMeth= 1 ICntrl=     0 DoSepK=T KAlg= 1 I1Cent= 0 FoldK=F
 E= -2753.87022675858     Delta-E=       -0.000000000777 Rises=F Damp=F
 DIIS: error= 1.67D-07 at cycle   7 NSaved=   7.
 NSaved= 7 IEnMin= 7 EnMin= -2753.87022675858     IErMin= 7 ErrMin= 1.67D-07
 ErrMax= 1.67D-07 EMaxC= 1.00D-01 BMatC= 1.95D-11 BMatP= 7.36D-10
 IDIUse=1 WtCom= 1.00D+00 WtEn= 0.00D+00
 Coeff-Com: -0.123D-05 0.244D-04 0.159D-03-0.811D-03-0.755D-02 0.111D+00
 Coeff-Com:  0.897D+00
 Coeff:     -0.123D-05 0.244D-04 0.159D-03-0.811D-03-0.755D-02 0.111D+00
 Coeff:      0.897D+00
 Gap=     0.514 Goal=   None    Shift=    0.000
 RMSDP=4.98D-08 MaxDP=1.96D-06 DE=-7.77D-10 OVMax= 1.97D-06

 Cycle   8  Pass 1  IDiag  1:
 RMSU=  1.45D-08    CP:  1.03D+00  6.11D-01  9.97D-01  1.28D+00  1.19D+00
                    CP:  1.15D+00  1.09D+00
 FoFJK:  IHMeth= 1 ICntrl=     0 DoSepK=T KAlg= 1 I1Cent= 0 FoldK=F
 E= -2753.87022675860     Delta-E=       -0.000000000018 Rises=F Damp=F
 DIIS: error= 5.51D-08 at cycle   8 NSaved=   8.
 NSaved= 8 IEnMin= 8 EnMin= -2753.87022675860     IErMin= 8 ErrMin= 5.51D-08
 ErrMax= 5.51D-08 EMaxC= 1.00D-01 BMatC= 1.52D-12 BMatP= 1.95D-11
 IDIUse=1 WtCom= 1.00D+00 WtEn= 0.00D+00
 Coeff-Com: -0.125D-06-0.539D-05-0.349D-05 0.163D-02-0.850D-02-0.237D-01
 Coeff-Com:  0.107D+00 0.923D+00
 Coeff:     -0.125D-06-0.539D-05-0.349D-05 0.163D-02-0.850D-02-0.237D-01
 Coeff:      0.107D+00 0.923D+00
 Gap=     0.514 Goal=   None    Shift=    0.000
 RMSDP=1.35D-08 MaxDP=5.24D-07 DE=-1.82D-11 OVMax= 3.77D-07

 Cycle   9  Pass 1  IDiag  1:
 RMSU=  2.37D-09    CP:  1.03D+00  6.11D-01  9.97D-01  1.28D+00  1.19D+00
                    CP:  1.16D+00  1.14D+00  1.09D+00
 FoFJK:  IHMeth= 1 ICntrl=     0 DoSepK=T KAlg= 1 I1Cent= 0 FoldK=F
 E= -2753.87022675860     Delta-E=        0.000000000001 Rises=F Damp=F
 DIIS: error= 7.46D-09 at cycle   9 NSaved=   9.
 NSaved= 9 IEnMin= 8 EnMin= -2753.87022675860     IErMin= 9 ErrMin= 7.46D-09
 ErrMax= 7.46D-09 EMaxC= 1.00D-01 BMatC= 6.58D-15 BMatP= 1.52D-12
 IDIUse=1 WtCom= 1.00D+00 WtEn= 0.00D+00
 Coeff-Com:  0.110D-07 0.868D-07-0.121D-05-0.129D-03 0.641D-03 0.185D-02
 Coeff-Com: -0.196D-01-0.105D+00 0.112D+01
 Coeff:      0.110D-07 0.868D-07-0.121D-05-0.129D-03 0.641D-03 0.185D-02
 Coeff:     -0.196D-01-0.105D+00 0.112D+01
 Gap=     0.514 Goal=   None    Shift=    0.000
 RMSDP=1.46D-09 MaxDP=5.64D-08 DE= 9.09D-13 OVMax= 9.18D-08

 SCF Done:  E(RwB97XD) =  -2753.87022676     A.U. after    9 cycles
             Convg  =    0.1465D-08             -V/T =  2.0013
 KE= 2.750247703818D+03 PE=-6.580156469198D+03 EE= 1.076038538622D+03
 Leave Link  502 at Sun May  3 15:49:28 2020, MaxMem= 1073741824 cpu:     372.0
 (Enter /home/matheus/.gaussian/g09/l601.exe)
 Copying SCF densities to generalized density rwf, IOpCl= 0 IROHF=0.

 **********************************************************************

            Population analysis using the SCF density.

 **********************************************************************

 Orbital symmetries:
       Occupied  (A) (A) (A) (A) (A) (A) (A) (A) (A) (A) (A) (A)
                 (A) (A) (A) (A) (A) (A)
       Virtual   (A) (A) (A) (A) (A) (A) (A) (A) (A) (A) (A) (A)
                 (A) (A) (A) (A) (A) (A) (A) (A) (A) (A) (A) (A)
                 (A) (A) (A) (A) (A) (A) (A) (A) (A) (A) (A) (A)
                 (A) (A) (A) (A) (A) (A) (A) (A) (A) (A) (A) (A)
                 (A) (A) (A) (A) (A) (A) (A) (A) (A) (A) (A) (A)
                 (A) (A) (A) (A) (A) (A) (A) (A) (A) (A) (A) (A)
                 (A) (A) (A) (A) (A) (A) (A) (A) (A) (A) (A) (A)
                 (A) (A) (A) (A) (A) (A) (A) (A) (A) (A) (A) (A)
                 (A) (A) (A) (A) (A) (A) (A) (A) (A) (A) (A) (A)
                 (A) (A) (A) (A) (A) (A) (A) (A) (A) (A) (A) (A)
                 (A) (A) (A) (A) (A) (A) (A) (A) (A) (A) (A) (A)
                 (A) (A) (A) (A) (A) (A) (A) (A) (A) (A) (A) (A)
                 (A) (A) (A) (A) (A) (A) (A) (A) (A) (A) (A) (A)
                 (A) (A) (A) (A) (A) (A) (A) (A) (A) (A) (A) (A)
                 (A) (A) (A) (A) (A) (A) (A) (A) (A) (A) (A)
 The electronic state is 1-A.
 Alpha  occ. eigenvalues -- -513.08049 -67.34865 -60.89737 -60.89735 -60.89735
 Alpha  occ. eigenvalues --   -9.80180  -7.49479  -7.49478  -7.49478  -3.36164
 Alpha  occ. eigenvalues --   -3.36164  -3.36163  -3.36163  -3.36163  -1.00829
 Alpha  occ. eigenvalues --   -0.48267  -0.48264  -0.48263
 Alpha virt. eigenvalues --    0.03164   0.05133   0.08678   0.10178   0.11392
 Alpha virt. eigenvalues --    0.12575   0.13370   0.14689   0.16682   0.17361
 Alpha virt. eigenvalues --    0.18074   0.19746   0.21137   0.25626   0.26614
 Alpha virt. eigenvalues --    0.27222   0.28100   0.31879   0.33633   0.35249
 Alpha virt. eigenvalues --    0.35517   0.37247   0.38006   0.39086   0.41717
 Alpha virt. eigenvalues --    0.42360   0.43318   0.52456   0.54776   0.57542
 Alpha virt. eigenvalues --    0.58989   0.66621   0.67121   0.69824   0.71667
 Alpha virt. eigenvalues --    0.74338   0.75072   0.75612   0.76696   0.77594
 Alpha virt. eigenvalues --    0.79986   0.80532   0.83507   0.84910   0.85211
 Alpha virt. eigenvalues --    0.86887   0.88076   0.89312   0.91354   0.94464
 Alpha virt. eigenvalues --    0.97714   0.98064   1.00974   1.02598   1.03178
 Alpha virt. eigenvalues --    1.05093   1.06775   1.07632   1.12390   1.13405
 Alpha virt. eigenvalues --    1.14916   1.17334   1.19102   1.25633   1.27311
 Alpha virt. eigenvalues --    1.32484   1.35418   1.41796   1.43691   1.44141
 Alpha virt. eigenvalues --    1.57884   1.59274   1.63259   1.74076   1.78022
 Alpha virt. eigenvalues --    1.82867   1.86280   1.87241   1.89504   2.15722
 Alpha virt. eigenvalues --    2.19801   2.26625   2.27504   2.30310   2.30558
 Alpha virt. eigenvalues --    2.32363   2.32941   2.36024   2.37879   2.39614
 Alpha virt. eigenvalues --    2.43222   2.47669   2.47825   2.48635   2.49436
 Alpha virt. eigenvalues --    2.51161   2.53757   2.54934   2.56279   2.59748
 Alpha virt. eigenvalues --    2.62129   2.62711   2.63834   2.65292   2.67046
 Alpha virt. eigenvalues --    2.71145   2.74719   2.76931   2.80849   2.88437
 Alpha virt. eigenvalues --    2.90873   2.99084   3.05096   3.13232   3.14985
 Alpha virt. eigenvalues --    3.23013   3.28332   3.32632   3.36878   3.52549
 Alpha virt. eigenvalues --    3.61085   3.66118   3.84081   3.87888   4.04003
 Alpha virt. eigenvalues --    4.36504   4.48328   4.52718   4.56156   4.59645
 Alpha virt. eigenvalues --    4.72561   4.88912   4.89420   4.95167   5.05258
 Alpha virt. eigenvalues --    5.13006   5.16309   5.59647   5.65516   5.87690
 Alpha virt. eigenvalues --    5.95254   6.03068   6.13472   6.84398   6.85718
 Alpha virt. eigenvalues --    7.30913   7.40860   7.63941   7.64848   7.71547
 Alpha virt. eigenvalues --    7.83478   8.04751   8.11060   8.18534   8.23803
 Alpha virt. eigenvalues --    8.37384   8.39950   8.66643   8.90030   9.63011
 Alpha virt. eigenvalues --    9.71292   9.79505   9.87991   9.97883  10.04840
 Alpha virt. eigenvalues --   10.17264  10.25440  10.48691  10.94299  11.48935
 Alpha virt. eigenvalues --   11.58300  11.63677  12.04704  12.08880  13.24355
 Alpha virt. eigenvalues --   13.65616  14.54086  62.80870  64.56024
          Condensed to atoms (all electrons):
              1          2          3          4          5
     1  O    0.002519  -0.002153  -0.001176   0.001234  -0.010252
     2  O   -0.002153   0.005532   0.000704  -0.003378  -0.004029
     3  H   -0.001176   0.000704   0.000716  -0.000381   0.002414
     4  H    0.001234  -0.003378  -0.000381   0.003236  -0.019080
     5  Kr  -0.010252  -0.004029   0.002414  -0.019080  36.060189
 Mulliken atomic charges:
              1
     1  O    0.009828
     2  O    0.003323
     3  H   -0.002277
     4  H    0.018369
     5  Kr  -0.029243
 Sum of Mulliken atomic charges =   0.00000
 Mulliken charges with hydrogens summed into heavy atoms:
              1
     1  O    0.007551
     2  O    0.021692
     5  Kr  -0.029243
 Sum of Mulliken charges with hydrogens summed into heavy atoms =   0.00000
          Condensed to fragments (all electrons):
     1       0.029243
     2      -0.029243
 Electronic spatial extent (au):  <R**2>=            167.3552
 Charge=              0.0000 electrons
 Dipole moment (field-independent basis, Debye):
    X=              0.0009    Y=              0.0006    Z=              0.0000  Tot=              0.0011
 Quadrupole moment (field-independent basis, Debye-Ang):
   XX=            -17.6435   YY=            -17.6540   ZZ=            -17.6605
   XY=              0.0044   XZ=             -0.0001   YZ=              0.0002
 Traceless Quadrupole moment (field-independent basis, Debye-Ang):
   XX=              0.0092   YY=             -0.0013   ZZ=             -0.0078
   XY=              0.0044   XZ=             -0.0001   YZ=              0.0002
 Octapole moment (field-independent basis, Debye-Ang**2):
  XXX=             52.8015  YYY=              0.9529  ZZZ=             -0.1357  XYY=             17.6124
  XXY=              0.3072  XXZ=             -0.0455  XZZ=             17.6161  YZZ=              0.3181
  YYZ=             -0.0448  XYZ=             -0.0004
 Hexadecapole moment (field-independent basis, Debye-Ang**3):
 XXXX=           -123.8084 YYYY=            -18.5092 ZZZZ=            -18.4944 XXXY=             -0.9255
 XXXZ=              0.1361 YYYX=             -0.9346 YYYZ=              0.0016 ZZZX=              0.1357
 ZZZY=              0.0031 XXYY=            -23.7298 XXZZ=            -23.7294 YYZZ=             -6.1644
 XXYZ=              0.0010 YYXZ=              0.0454 ZZXY=             -0.3103
 N-N= 0.000000000000D+00 E-N=-6.580156468594D+03  KE= 2.750247703818D+03
 No NMR shielding tensors so no spin-rotation constants.
 Leave Link  601 at Sun May  3 15:49:28 2020, MaxMem= 1073741824 cpu:       0.9
 (Enter /home/matheus/.gaussian/g09/l122.exe)
 Counterpoise: doing MCBS calculation for fragment   1
 Leave Link  122 at Sun May  3 15:49:28 2020, MaxMem= 1073741824 cpu:       0.0
 (Enter /home/matheus/.gaussian/g09/l301.exe)
 Basis read from rwf:  (5D, 7F)
 No pseudopotential information found on rwf file.
 There are   138 symmetry adapted basis functions of A   symmetry.
 Integral buffers will be    131072 words long.
 Raffenetti 2 integral format.
 Two-electron integral symmetry is turned on.
   138 basis functions,   198 primitive gaussians,   160 cartesian basis functions
     9 alpha electrons        9 beta electrons
       nuclear repulsion energy        36.6035600706 Hartrees.
 IExCor= 4639 DFT=T Ex+Corr=wB97XD ExCW=0 ScaHFX=  1.000000
 ScaDFX=  1.000000  1.000000  1.000000  1.000000 ScalE2=  1.000000  1.000000
 IRadAn=      5 IRanWt=     -1 IRanGd=            0 ICorTp=0
  HFx wShort=  0.000000 wLong=  0.250000 cFull=  0.222036 cShort=  0.000000 cLong=  0.777964
  DFx wShort=  0.000000 wLong=  0.250000 cFull=  0.000000 cShort=  0.000000 cLong=  1.000000
 NAtoms=    5 NActive=    4 NUniq=    4 SFac= 1.00D+00 NAtFMM=   60 NAOKFM=F Big=F
 R6Disp: Dispersion energy =        -0.0002048785 Hartrees.
 Nuclear repulsion after empirical dispersion term =       36.6033551921 Hartrees.
 No density basis found on file   718.
 Leave Link  301 at Sun May  3 15:49:28 2020, MaxMem= 1073741824 cpu:       0.3
 (Enter /home/matheus/.gaussian/g09/l302.exe)
 NPDir=0 NMtPBC=     1 NCelOv=     1 NCel=       1 NClECP=     1 NCelD=      1
         NCelK=      1 NCelE2=     1 NClLst=     1 CellRange=     0.0.
 One-electron integrals computed using PRISM.
 NBasis=   138 RedAO= T  NBF=   138
 NBsUse=   138 1.00D-06 NBFU=   138
 Precomputing XC quadrature grid using
 IXCGrd= 2 IRadAn=           5 IRanWt=          -1 IRanGd=           0 AccXCQ= 0.00D+00.
 NRdTot=     344 NPtTot=       92556 NUsed=       95038 NTot=       95070
 NSgBfM=   160   160   160   160   160 NAtAll=     4     4.
 Leave Link  302 at Sun May  3 15:49:28 2020, MaxMem= 1073741824 cpu:       0.9
 (Enter /home/matheus/.gaussian/g09/l303.exe)
 DipDrv:  MaxL=1.
 Leave Link  303 at Sun May  3 15:49:28 2020, MaxMem= 1073741824 cpu:       0.2
 (Enter /home/matheus/.gaussian/g09/l401.exe)
 Harris functional with IExCor= 4639 diagonalized for initial guess.
 ExpMin= 2.53D-02 ExpMax= 1.53D+04 ExpMxC= 5.22D+02 IAcc=3 IRadAn=         5 AccDes= 0.00D+00
 HarFok:  IExCor= 4639 AccDes= 0.00D+00 IRadAn=         5 IDoV= 1
 ScaDFX=  1.000000  1.000000  1.000000  1.000000
 FoFCou: FMM=F IPFlag=           0 FMFlag=      100000 FMFlg1=           0
         NFxFlg=           0 DoJE=T BraDBF=F KetDBF=T FulRan=T
         Omega=  0.000000  0.000000  1.000000  0.000000  0.000000 ICntrl=     500 IOpCl=  0
         NMat0=    1 NMatS0=    1 NMatT0=    0 NMatD0=    1 NMtDS0=    0 NMtDT0=    0
         I1Cent=           4 NGrid=           0.
 Petite list used in FoFCou.
 Harris En= -145.943540573223    
 Initial guess orbital symmetries:
       Occupied  (A) (A) (A) (A) (A) (A) (A) (A) (A)
       Virtual   (A) (A) (A) (A) (A) (A) (A) (A) (A) (A) (A) (A)
                 (A) (A) (A) (A) (A) (A) (A) (A) (A) (A) (A) (A)
                 (A) (A) (A) (A) (A) (A) (A) (A) (A) (A) (A) (A)
                 (A) (A) (A) (A) (A) (A) (A) (A) (A) (A) (A) (A)
                 (A) (A) (A) (A) (A) (A) (A) (A) (A) (A) (A) (A)
                 (A) (A) (A) (A) (A) (A) (A) (A) (A) (A) (A) (A)
                 (A) (A) (A) (A) (A) (A) (A) (A) (A) (A) (A) (A)
                 (A) (A) (A) (A) (A) (A) (A) (A) (A) (A) (A) (A)
                 (A) (A) (A) (A) (A) (A) (A) (A) (A) (A) (A) (A)
                 (A) (A) (A) (A) (A) (A) (A) (A) (A) (A) (A) (A)
                 (A) (A) (A) (A) (A) (A) (A) (A) (A)
 The electronic state of the initial guess is 1-A.
 Leave Link  401 at Sun May  3 15:49:28 2020, MaxMem= 1073741824 cpu:       3.3
 (Enter /home/matheus/.gaussian/g09/l502.exe)
 Closed shell SCF:
 Requested convergence on RMS density matrix=1.00D-08 within 128 cycles.
 Requested convergence on MAX density matrix=1.00D-06.
 Requested convergence on             energy=1.00D-06.
 No special actions if energy rises.
 Using DIIS extrapolation, IDIIS=  1040.
 Integral symmetry usage will be decided dynamically.
        94980 words used for storage of precomputed grid.
[...]
 ErrMax= 4.87D-07 EMaxC= 1.00D-01 BMatC= 9.31D-11 BMatP= 3.71D-09
 IDIUse=1 WtCom= 1.00D+00 WtEn= 0.00D+00
 Coeff-Com:  0.293D-03-0.130D+00 0.113D+01
 Coeff:      0.293D-03-0.130D+00 0.113D+01
 Gap=     0.512 Goal=   None    Shift=    0.000
 RMSDP=2.14D-07 MaxDP=8.08D-06 DE=-6.81D-09 OVMax= 1.01D-05

 Cycle   4  Pass 1  IDiag  1:
 RMSU=  5.67D-08    CP:  1.00D+00  1.09D+00  1.21D+00
 FoFJK:  IHMeth= 1 ICntrl=     0 DoSepK=T KAlg= 1 I1Cent= 0 FoldK=F
 E= -2753.87012708976     Delta-E=       -0.000000000195 Rises=F Damp=F
 DIIS: error= 3.21D-07 at cycle   4 NSaved=   4.
 NSaved= 4 IEnMin= 4 EnMin= -2753.87012708976     IErMin= 4 ErrMin= 3.21D-07
 ErrMax= 3.21D-07 EMaxC= 1.00D-01 BMatC= 7.34D-12 BMatP= 9.31D-11
 IDIUse=1 WtCom= 1.00D+00 WtEn= 0.00D+00
 Coeff-Com:  0.200D-03-0.466D-01 0.283D+00 0.764D+00
 Coeff:      0.200D-03-0.466D-01 0.283D+00 0.764D+00
 Gap=     0.512 Goal=   None    Shift=    0.000
 RMSDP=2.03D-08 MaxDP=1.05D-06 DE=-1.95D-10 OVMax= 1.11D-06

 Cycle   5  Pass 1  IDiag  1:
 RMSU=  7.87D-09    CP:  1.00D+00  1.09D+00  1.23D+00  1.13D+00
 FoFJK:  IHMeth= 1 ICntrl=     0 DoSepK=T KAlg= 1 I1Cent= 0 FoldK=F
 E= -2753.87012708976     Delta-E=        0.000000000001 Rises=F Damp=F
 DIIS: error= 3.05D-08 at cycle   5 NSaved=   5.
 NSaved= 5 IEnMin= 4 EnMin= -2753.87012708976     IErMin= 5 ErrMin= 3.05D-08
 ErrMax= 3.05D-08 EMaxC= 1.00D-01 BMatC= 1.27D-13 BMatP= 7.34D-12
 IDIUse=1 WtCom= 1.00D+00 WtEn= 0.00D+00
 Coeff-Com: -0.305D-04 0.983D-02-0.751D-01-0.594D-01 0.112D+01
 Coeff:     -0.305D-04 0.983D-02-0.751D-01-0.594D-01 0.112D+01
 Gap=     0.512 Goal=   None    Shift=    0.000
 RMSDP=1.05D-08 MaxDP=6.45D-07 DE= 1.36D-12 OVMax= 4.20D-07

 Cycle   6  Pass 1  IDiag  1:
 RMSU=  1.40D-09    CP:  1.00D+00  1.09D+00  1.24D+00  1.21D+00  1.17D+00
 FoFJK:  IHMeth= 1 ICntrl=     0 DoSepK=T KAlg= 1 I1Cent= 0 FoldK=F
 E= -2753.87012708977     Delta-E=       -0.000000000011 Rises=F Damp=F
 DIIS: error= 2.71D-09 at cycle   6 NSaved=   6.
 NSaved= 6 IEnMin= 6 EnMin= -2753.87012708977     IErMin= 6 ErrMin= 2.71D-09
 ErrMax= 2.71D-09 EMaxC= 1.00D-01 BMatC= 1.67D-15 BMatP= 1.27D-13
 IDIUse=1 WtCom= 1.00D+00 WtEn= 0.00D+00
 Coeff-Com:  0.138D-06-0.321D-03 0.350D-02-0.335D-02-0.106D+00 0.111D+01
 Coeff:      0.138D-06-0.321D-03 0.350D-02-0.335D-02-0.106D+00 0.111D+01
 Gap=     0.512 Goal=   None    Shift=    0.000
 RMSDP=5.42D-10 MaxDP=2.94D-08 DE=-1.14D-11 OVMax= 4.79D-08

 SCF Done:  E(RwB97XD) =  -2753.87012709     A.U. after    6 cycles
             Convg  =    0.5419D-09             -V/T =  2.0013
 KE= 2.750283301285D+03 PE=-6.580194590056D+03 EE= 1.076041161682D+03
 Leave Link  502 at Sun May  3 16:13:01 2020, MaxMem= 1073741824 cpu:     110.9
 (Enter /home/matheus/.gaussian/g09/l122.exe)
 Restoring MOs from calculation   4 to rwf.
 Counterpoise: doing MCBS calculation for fragment   1
 Leave Link  122 at Sun May  3 16:13:01 2020, MaxMem= 1073741824 cpu:       0.0
 (Enter /home/matheus/.gaussian/g09/l301.exe)
 Basis read from rwf:  (5D, 7F)
 No pseudopotential information found on rwf file.
 There are   138 symmetry adapted basis functions of A   symmetry.
 Integral buffers will be    131072 words long.
 Raffenetti 2 integral format.
 Two-electron integral symmetry is turned on.
   138 basis functions,   198 primitive gaussians,   160 cartesian basis functions
     9 alpha electrons        9 beta electrons
       nuclear repulsion energy        36.6035600706 Hartrees.
 IExCor= 4639 DFT=T Ex+Corr=wB97XD ExCW=0 ScaHFX=  1.000000
 ScaDFX=  1.000000  1.000000  1.000000  1.000000 ScalE2=  1.000000  1.000000
 IRadAn=      5 IRanWt=     -1 IRanGd=            0 ICorTp=0
  HFx wShort=  0.000000 wLong=  0.250000 cFull=  0.222036 cShort=  0.000000 cLong=  0.777964
  DFx wShort=  0.000000 wLong=  0.250000 cFull=  0.000000 cShort=  0.000000 cLong=  1.000000
 NAtoms=    5 NActive=    4 NUniq=    4 SFac= 1.00D+00 NAtFMM=   60 NAOKFM=F Big=F
 R6Disp: Dispersion energy =        -0.0002048785 Hartrees.
 Nuclear repulsion after empirical dispersion term =       36.6033551921 Hartrees.
 No density basis found on file   718.
 Leave Link  301 at Sun May  3 16:13:01 2020, MaxMem= 1073741824 cpu:       0.2
 (Enter /home/matheus/.gaussian/g09/l302.exe)
 NPDir=0 NMtPBC=     1 NCelOv=     1 NCel=       1 NClECP=     1 NCelD=      1
         NCelK=      1 NCelE2=     1 NClLst=     1 CellRange=     0.0.
 One-electron integrals computed using PRISM.
 NBasis=   138 RedAO= T  NBF=   138
 NBsUse=   138 1.00D-06 NBFU=   138
 Precomputing XC quadrature grid using
 IXCGrd= 2 IRadAn=           5 IRanWt=          -1 IRanGd=           0 AccXCQ= 0.00D+00.
 NRdTot=     344 NPtTot=       92556 NUsed=       95038 NTot=       95070
 NSgBfM=   160   160   160   160   160 NAtAll=     4     4.
 Leave Link  302 at Sun May  3 16:13:01 2020, MaxMem= 1073741824 cpu:       0.8
 (Enter /home/matheus/.gaussian/g09/l303.exe)
 DipDrv:  MaxL=1.
 Leave Link  303 at Sun May  3 16:13:01 2020, MaxMem= 1073741824 cpu:       0.2
 (Enter /home/matheus/.gaussian/g09/l401.exe)
 Initial guess read from the read-write file.
 Guess basis will be translated and rotated to current coordinates.
 Initial guess orbital symmetries:
       Occupied  (A) (A) (A) (A) (A) (A) (A) (A) (A)
       Virtual   (A) (A) (A) (A) (A) (A) (A) (A) (A) (A) (A) (A)
                 (A) (A) (A) (A) (A) (A) (A) (A) (A) (A) (A) (A)
                 (A) (A) (A) (A) (A) (A) (A) (A) (A) (A) (A) (A)
                 (A) (A) (A) (A) (A) (A) (A) (A) (A) (A) (A) (A)
                 (A) (A) (A) (A) (A) (A) (A) (A) (A) (A) (A) (A)
                 (A) (A) (A) (A) (A) (A) (A) (A) (A) (A) (A) (A)
                 (A) (A) (A) (A) (A) (A) (A) (A) (A) (A) (A) (A)
                 (A) (A) (A) (A) (A) (A) (A) (A) (A) (A) (A) (A)
                 (A) (A) (A) (A) (A) (A) (A) (A) (A) (A) (A) (A)
                 (A) (A) (A) (A) (A) (A) (A) (A) (A) (A) (A) (A)
                 (A) (A) (A) (A) (A) (A) (A) (A) (A)
 The electronic state of the initial guess is 1-A.
 Generating alternative initial guess.
 Harris functional with IExCor= 4639 diagonalized for initial guess.
 ExpMin= 2.53D-02 ExpMax= 1.53D+04 ExpMxC= 5.22D+02 IAcc=3 IRadAn=         5 AccDes= 0.00D+00
 HarFok:  IExCor= 4639 AccDes= 0.00D+00 IRadAn=         5 IDoV= 1
 ScaDFX=  1.000000  1.000000  1.000000  1.000000
 FoFCou: FMM=F IPFlag=           0 FMFlag=      100000 FMFlg1=           0
         NFxFlg=           0 DoJE=T BraDBF=F KetDBF=T FulRan=T
         Omega=  0.000000  0.000000  1.000000  0.000000  0.000000 ICntrl=     500 IOpCl=  0
         NMat0=    1 NMatS0=    1 NMatT0=    0 NMatD0=    1 NMtDS0=    0 NMtDT0=    0
         I1Cent=           4 NGrid=           0.
 Petite list used in FoFCou.
 Harris En= -145.943540602096    
 Leave Link  401 at Sun May  3 16:13:01 2020, MaxMem= 1073741824 cpu:       2.3
 (Enter /home/matheus/.gaussian/g09/l502.exe)
 Closed shell SCF:
 Requested convergence on RMS density matrix=1.00D-08 within 128 cycles.
 Requested convergence on MAX density matrix=1.00D-06.
 Requested convergence on             energy=1.00D-06.
 No special actions if energy rises.
 Using DIIS extrapolation, IDIIS=  1040.
 Integral symmetry usage will be decided dynamically.
        94980 words used for storage of precomputed grid.
 IEnd=      192360 IEndB=      192360 NGot=  1073741824 MDV=  1073591865
 LenX=  1073591865 LenY=  1073565824
 Fock matrices will be formed incrementally for  20 cycles.

 Cycle   1  Pass 1  IDiag  1:
 FoFJK:  IHMeth= 1 ICntrl=     0 DoSepK=T KAlg= 1 I1Cent= 0 FoldK=F
 FoFCou: FMM=F IPFlag=           0 FMFlag=      100000 FMFlg1=           0
         NFxFlg=           0 DoJE=T BraDBF=F KetDBF=F FulRan=T
         Omega=  0.000000  0.000000  1.000000  0.000000  0.000000 ICntrl=     500 IOpCl=  0
         NMat0=    1 NMatS0=    1 NMatT0=    0 NMatD0=    1 NMtDS0=    0 NMtDT0=    0
         I1Cent=           0 NGrid=           0.
 Symmetry not used in FoFCou.
 E= -151.557886560633    
 DIIS: error= 2.18D-05 at cycle   1 NSaved=   1.
 NSaved= 1 IEnMin= 1 EnMin= -151.557886560633     IErMin= 1 ErrMin= 2.18D-05
 ErrMax= 2.18D-05 EMaxC= 1.00D-01 BMatC= 4.25D-08 BMatP= 4.25D-08
 IDIUse=1 WtCom= 1.00D+00 WtEn= 0.00D+00
 Coeff-Com:  0.100D+01
 Coeff:      0.100D+01
 Gap=     0.411 Goal=   None    Shift=    0.000
 RMSDP=1.13D-06 MaxDP=2.09D-05              OVMax= 8.64D-05

 Cycle   2  Pass 1  IDiag  1:
 RMSU=  7.96D-07    CP:  1.00D+00
 FoFJK:  IHMeth= 1 ICntrl=     0 DoSepK=T KAlg= 1 I1Cent= 0 FoldK=F
 E= -151.557886603886     Delta-E=       -0.000000043253 Rises=F Damp=F
 DIIS: error= 3.71D-06 at cycle   2 NSaved=   2.
 NSaved= 2 IEnMin= 2 EnMin= -151.557886603886     IErMin= 2 ErrMin= 3.71D-06
 ErrMax= 3.71D-06 EMaxC= 1.00D-01 BMatC= 1.42D-09 BMatP= 4.25D-08
 IDIUse=1 WtCom= 1.00D+00 WtEn= 0.00D+00
 Coeff-Com: -0.124D+00 0.112D+01
 Coeff:     -0.124D+00 0.112D+01
 Gap=     0.411 Goal=   None    Shift=    0.000
 RMSDP=3.75D-07 MaxDP=6.77D-06 DE=-4.33D-08 OVMax= 3.28D-05

 Cycle   3  Pass 1  IDiag  1:
 RMSU=  1.62D-07    CP:  1.00D+00  1.26D+00
 FoFJK:  IHMeth= 1 ICntrl=     0 DoSepK=T KAlg= 1 I1Cent= 0 FoldK=F
 E= -151.557886607217     Delta-E=       -0.000000003331 Rises=F Damp=F
 DIIS: error= 1.04D-06 at cycle   3 NSaved=   3.
 NSaved= 3 IEnMin= 3 EnMin= -151.557886607217     IErMin= 3 ErrMin= 1.04D-06
 ErrMax= 1.04D-06 EMaxC= 1.00D-01 BMatC= 1.29D-10 BMatP= 1.42D-09
 IDIUse=1 WtCom= 1.00D+00 WtEn= 0.00D+00
 Coeff-Com: -0.198D-01 0.181D-01 0.100D+01
 Coeff:     -0.198D-01 0.181D-01 0.100D+01
 Gap=     0.411 Goal=   None    Shift=    0.000
 RMSDP=1.16D-07 MaxDP=2.58D-06 DE=-3.33D-09 OVMax= 9.53D-06

 Cycle   4  Pass 1  IDiag  1:
 RMSU=  5.25D-08    CP:  1.00D+00  1.32D+00  1.26D+00
 FoFJK:  IHMeth= 1 ICntrl=     0 DoSepK=T KAlg= 1 I1Cent= 0 FoldK=F
 E= -151.557886607433     Delta-E=       -0.000000000216 Rises=F Damp=F
 DIIS: error= 7.00D-07 at cycle   4 NSaved=   4.
 NSaved= 4 IEnMin= 4 EnMin= -151.557886607433     IErMin= 4 ErrMin= 7.00D-07
 ErrMax= 7.00D-07 EMaxC= 1.00D-01 BMatC= 9.87D-11 BMatP= 1.29D-10
 IDIUse=1 WtCom= 1.00D+00 WtEn= 0.00D+00
 Coeff-Com:  0.617D-02-0.147D+00 0.533D+00 0.608D+00
 Coeff:      0.617D-02-0.147D+00 0.533D+00 0.608D+00
 Gap=     0.411 Goal=   None    Shift=    0.000
 RMSDP=5.02D-08 MaxDP=1.85D-06 DE=-2.16D-10 OVMax= 3.04D-06

 Cycle   5  Pass 1  IDiag  1:
 RMSU=  1.65D-08    CP:  1.00D+00  1.34D+00  1.41D+00  7.03D-01
 FoFJK:  IHMeth= 1 ICntrl=     0 DoSepK=T KAlg= 1 I1Cent= 0 FoldK=F
 E= -151.557886607512     Delta-E=       -0.000000000078 Rises=F Damp=F
 DIIS: error= 1.71D-07 at cycle   5 NSaved=   5.
 NSaved= 5 IEnMin= 5 EnMin= -151.557886607512     IErMin= 5 ErrMin= 1.71D-07
 ErrMax= 1.71D-07 EMaxC= 1.00D-01 BMatC= 5.86D-12 BMatP= 9.87D-11
 IDIUse=1 WtCom= 1.00D+00 WtEn= 0.00D+00
 Coeff-Com:  0.471D-02-0.594D-01 0.720D-01 0.217D+00 0.766D+00
 Coeff:      0.471D-02-0.594D-01 0.720D-01 0.217D+00 0.766D+00
 Gap=     0.411 Goal=   None    Shift=    0.000
 RMSDP=1.68D-08 MaxDP=4.17D-07 DE=-7.84D-11 OVMax= 1.24D-06

 Cycle   6  Pass 1  IDiag  1:
 RMSU=  7.52D-09    CP:  1.00D+00  1.34D+00  1.45D+00  8.10D-01  1.08D+00
 FoFJK:  IHMeth= 1 ICntrl=     0 DoSepK=T KAlg= 1 I1Cent= 0 FoldK=F
 E= -151.557886607519     Delta-E=       -0.000000000008 Rises=F Damp=F
 DIIS: error= 7.71D-08 at cycle   6 NSaved=   6.
 NSaved= 6 IEnMin= 6 EnMin= -151.557886607519     IErMin= 6 ErrMin= 7.71D-08
 ErrMax= 7.71D-08 EMaxC= 1.00D-01 BMatC= 8.36D-13 BMatP= 5.86D-12
 IDIUse=1 WtCom= 1.00D+00 WtEn= 0.00D+00
 Coeff-Com:  0.831D-03-0.124D-02-0.429D-01-0.311D-02 0.271D+00 0.776D+00
 Coeff:      0.831D-03-0.124D-02-0.429D-01-0.311D-02 0.271D+00 0.776D+00
 Gap=     0.411 Goal=   None    Shift=    0.000
 RMSDP=7.29D-09 MaxDP=1.78D-07 DE=-7.79D-12 OVMax= 6.73D-07

 SCF Done:  E(RwB97XD) =  -151.557886608     A.U. after    6 cycles
             Convg  =    0.7294D-08             -V/T =  2.0061
 KE= 1.506339045272D+02 PE=-4.316717514780D+02 EE= 9.287660515117D+01
 Leave Link  502 at Sun May  3 16:13:07 2020, MaxMem= 1073741824 cpu:      44.8
 (Enter /home/matheus/.gaussian/g09/l122.exe)
 Restoring MOs from calculation   5 to rwf.
 Counterpoise: doing MCBS calculation for fragment   2
 Leave Link  122 at Sun May  3 16:13:07 2020, MaxMem= 1073741824 cpu:       0.0
 (Enter /home/matheus/.gaussian/g09/l301.exe)
 Basis read from rwf:  (5D, 7F)
 No pseudopotential information found on rwf file.
 There are    59 symmetry adapted basis functions of A   symmetry.
 Integral buffers will be    131072 words long.
 Raffenetti 2 integral format.
 Two-electron integral symmetry is turned on.
    59 basis functions,   217 primitive gaussians,    69 cartesian basis functions
    18 alpha electrons       18 beta electrons
       nuclear repulsion energy         0.0000000000 Hartrees.
 IExCor= 4639 DFT=T Ex+Corr=wB97XD ExCW=0 ScaHFX=  1.000000
 ScaDFX=  1.000000  1.000000  1.000000  1.000000 ScalE2=  1.000000  1.000000
 IRadAn=      5 IRanWt=     -1 IRanGd=            0 ICorTp=0
  HFx wShort=  0.000000 wLong=  0.250000 cFull=  0.222036 cShort=  0.000000 cLong=  0.777964
  DFx wShort=  0.000000 wLong=  0.250000 cFull=  0.000000 cShort=  0.000000 cLong=  1.000000
 NAtoms=    5 NActive=    1 NUniq=    1 SFac= 1.00D+00 NAtFMM=   60 NAOKFM=F Big=F
 R6Disp: Dispersion energy =         0.0000000000 Hartrees.
 Nuclear repulsion after empirical dispersion term =        0.0000000000 Hartrees.
 No density basis found on file   718.
 Leave Link  301 at Sun May  3 16:13:07 2020, MaxMem= 1073741824 cpu:       0.2
 (Enter /home/matheus/.gaussian/g09/l302.exe)
 NPDir=0 NMtPBC=     1 NCelOv=     1 NCel=       1 NClECP=     1 NCelD=      1
         NCelK=      1 NCelE2=     1 NClLst=     1 CellRange=     0.0.
 One-electron integrals computed using PRISM.
 NBasis=    59 RedAO= T  NBF=    59
 NBsUse=    59 1.00D-06 NBFU=    59
 Precomputing XC quadrature grid using
 IXCGrd= 2 IRadAn=           5 IRanWt=          -1 IRanGd=           0 AccXCQ= 0.00D+00.
 NRdTot=      81 NPtTot=       30352 NUsed=       30981 NTot=       31013
 NSgBfM=    69    69    69    69    69 NAtAll=     1     1.
 Leave Link  302 at Sun May  3 16:13:07 2020, MaxMem= 1073741824 cpu:       0.7
 (Enter /home/matheus/.gaussian/g09/l303.exe)
 DipDrv:  MaxL=1.
 Leave Link  303 at Sun May  3 16:13:07 2020, MaxMem= 1073741824 cpu:       0.1
 (Enter /home/matheus/.gaussian/g09/l401.exe)
 Initial guess read from the read-write file.
 Guess basis will be translated and rotated to current coordinates.
 Initial guess orbital symmetries:
       Occupied  (A) (A) (A) (A) (A) (A) (A) (A) (A) (A) (A) (A)
                 (A) (A) (A) (A) (A) (A)
       Virtual   (A) (A) (A) (A) (A) (A) (A) (A) (A) (A) (A) (A)
                 (A) (A) (A) (A) (A) (A) (A) (A) (A) (A) (A) (A)
                 (A) (A) (A) (A) (A) (A) (A) (A) (A) (A) (A) (A)
                 (A) (A) (A) (A) (A)
 The electronic state of the initial guess is 1-A.
 Generating alternative initial guess.
 Harris functional with IExCor= 4639 diagonalized for initial guess.
 ExpMin= 4.00D-02 ExpMax= 1.17D+07 ExpMxC= 1.33D+04 IAcc=3 IRadAn=         5 AccDes= 0.00D+00
 HarFok:  IExCor= 4639 AccDes= 0.00D+00 IRadAn=         5 IDoV= 1
 ScaDFX=  1.000000  1.000000  1.000000  1.000000
 FoFCou: FMM=F IPFlag=           0 FMFlag=      100000 FMFlg1=           0
         NFxFlg=           0 DoJE=T BraDBF=F KetDBF=T FulRan=T
         Omega=  0.000000  0.000000  1.000000  0.000000  0.000000 ICntrl=     500 IOpCl=  0
         NMat0=    1 NMatS0=    1 NMatT0=    0 NMatD0=    1 NMtDS0=    0 NMtDT0=    0
         I1Cent=           4 NGrid=           0.
 Petite list used in FoFCou.
 DSYEVD returned Info=         119 IAlg= 4 N=    59 NDim=    59 NE2=    18198841 trying DSYEV.
 Harris En= -2729.45839233129    
 Leave Link  401 at Sun May  3 16:13:07 2020, MaxMem= 1073741824 cpu:       1.1
 (Enter /home/matheus/.gaussian/g09/l502.exe)
 Closed shell SCF:
 Requested convergence on RMS density matrix=1.00D-08 within 128 cycles.
 Requested convergence on MAX density matrix=1.00D-06.
 Requested convergence on             energy=1.00D-06.
 No special actions if energy rises.
 Using DIIS extrapolation, IDIIS=  1040.
 Integral symmetry usage will be decided dynamically.
        30923 words used for storage of precomputed grid.
 IEnd=       64406 IEndB=       64406 NGot=  1073741824 MDV=  1073698889
 LenX=  1073698889 LenY=  1073693687
 Fock matrices will be formed incrementally for  20 cycles.

 Cycle   1  Pass 1  IDiag  1:
 FoFJK:  IHMeth= 1 ICntrl=     0 DoSepK=T KAlg= 1 I1Cent= 0 FoldK=F
 FoFCou: FMM=F IPFlag=           0 FMFlag=      100000 FMFlg1=           0
         NFxFlg=           0 DoJE=T BraDBF=F KetDBF=F FulRan=T
         Omega=  0.000000  0.000000  1.000000  0.000000  0.000000 ICntrl=     500 IOpCl=  0
         NMat0=    1 NMatS0=    1 NMatT0=    0 NMatD0=    1 NMtDS0=    0 NMtDT0=    0
         I1Cent=           0 NGrid=           0.
 Symmetry not used in FoFCou.
 E= -2753.87011063501    
 DIIS: error= 1.49D-13 at cycle   1 NSaved=   1.
 NSaved= 1 IEnMin= 1 EnMin= -2753.87011063501     IErMin= 1 ErrMin= 1.49D-13
 ErrMax= 1.49D-13 EMaxC= 1.00D-01 BMatC= 4.41D-25 BMatP= 4.41D-25
 IDIUse=1 WtCom= 1.00D+00 WtEn= 0.00D+00
 Coeff-Com:  0.100D+01
 Coeff:      0.100D+01
 Gap=     0.578 Goal=   None    Shift=    0.000
 RMSDP=1.05D-14 MaxDP=1.91D-13              OVMax= 8.21D-14

 SCF Done:  E(RwB97XD) =  -2753.87011064     A.U. after    1 cycles
             Convg  =    0.1047D-13             -V/T =  2.0013
 KE= 2.750289370128D+03 PE=-6.580200885036D+03 EE= 1.076041404273D+03
 Leave Link  502 at Sun May  3 16:13:09 2020, MaxMem= 1073741824 cpu:      13.3
 (Enter /home/matheus/.gaussian/g09/l122.exe)
 Restoring MOs from calculation   1 to rwf.
 Counterpoise: corrected energy =   -2905.428292816719
 Counterpoise: BSSE energy =       0.000020331473
 Leave Link  122 at Sun May  3 16:13:09 2020, MaxMem= 1073741824 cpu:       0.0
 (Enter /home/matheus/.gaussian/g09/l108.exe)
 Scan completed.

 Summary of the potential surface scan:
   N      R1          SCF    
 ----  ---------  -----------
    1     3.0000  -2753.87011
    2     3.1000  -2753.87011
    3     3.2000  -2753.87011
    4     3.3000  -2753.87011
    5     3.4000  -2753.87011
    6     3.5000  -2753.87011
    7     3.6000  -2753.87011
    8     3.7000  -2753.87011
    9     3.8000  -2753.87011
   10     3.9000  -2753.87011
   11     4.0000  -2753.87011
   12     4.1000  -2753.87011
   13     4.2000  -2753.87011
   14     4.3000  -2753.87011
   15     4.4000  -2753.87011
   16     4.5000  -2753.87011
   17     4.6000  -2753.87011
   18     4.7000  -2753.87011
   19     4.8000  -2753.87011
   20     4.9000  -2753.87011
   21     5.0000  -2753.87011
 ----  ---------  -----------
  
 Leave Link  108 at Sun May  3 16:13:09 2020, MaxMem= 1073741824 cpu:       0.0
 (Enter /home/matheus/.gaussian/g09/l9999.exe)

 Test job not archived.
 1\1\GINC-REDGIANT\Scan\RwB97XD\Aug-CC-pVTZ\H2Kr1O2\ROOT\03-May-2020\1\
 \#p wb97xd/aug-cc-PVTz iop(3/107=0250000000) iop(3/108=0250000000) int
 =ultrafine counterpoise=2 Scan\\TCC\\0,1\O,0,0.,0.,0.725\O,0,0.,0.,-0.
 725\H,0,0.4593602974,-0.795635374,1.0235104166\H,0,0.,0.9187205947,-1.
 0235104166\Kr,0,0.,R1,0.\\R1=3.,s,20,0.1\\Version=EM64L-G09RevC.01\Sta
 te=1-A\HF=-2753.8701106,-2753.8701106,-2753.8701106,-2753.8701106,-275
 3.8701106,-2753.8701106,-2753.8701106,-2753.8701106,-2753.8701106,-275
 3.8701106,-2753.8701106,-2753.8701106,-2753.8701106,-2753.8701106,-275
 3.8701106,-2753.8701106,-2753.8701106,-2753.8701106,-2753.8701106,-275
 3.8701106,-2753.8701106\RMSD=9.654e-09,1.847e-10,5.405e-11,3.457e-11,1
 .948e-11,1.188e-11,7.098e-12,4.283e-12,2.571e-12,1.543e-12,9.291e-13,5
 .579e-13,3.357e-13,2.065e-13,1.218e-13,7.367e-14,4.779e-14,2.848e-14,1
 .638e-14,1.579e-14,1.047e-14\PG=C01 [X(H2Kr1O2)]\\@


 MANHOOD BEGINS BY TRYING TO SHAVE FACE,
 AND ENDS BY TRYING TO SAVE FACE.
 Job cpu time:  0 days  3 hours 29 minutes 41.6 seconds.
 File lengths (MBytes):  RWF=     33 Int=      0 D2E=      0 Chk=      8 Scr=      1
 Normal termination of Gaussian 09 at Sun May  3 16:13:09 2020.
