 Entering Gaussian System, Link 0=g09
 Input=/home/matheus/.tcc/Inputs-wb97xd/H2O2-Kr_29.com
 Output=/home/matheus/.tcc/Logs-wb97xd/H2O2-Kr_29.log
 Initial command:
 /home/matheus/.gaussian/g09/l1.exe /home/matheus/.gaussian/g09/scratch/Gau-10838.inp -scrdir=/home/matheus/.gaussian/g09/scratch/
 Entering Link 1 = /home/matheus/.gaussian/g09/l1.exe PID=     10841.
  
 Copyright (c) 1988,1990,1992,1993,1995,1998,2003,2009,2011,
            Gaussian, Inc.  All Rights Reserved.
  
 This is part of the Gaussian(R) 09 program.  It is based on
 the Gaussian(R) 03 system (copyright 2003, Gaussian, Inc.),
 the Gaussian(R) 98 system (copyright 1998, Gaussian, Inc.),
 the Gaussian(R) 94 system (copyright 1995, Gaussian, Inc.),
 the Gaussian 92(TM) system (copyright 1992, Gaussian, Inc.),
 the Gaussian 90(TM) system (copyright 1990, Gaussian, Inc.),
 the Gaussian 88(TM) system (copyright 1988, Gaussian, Inc.),
 the Gaussian 86(TM) system (copyright 1986, Carnegie Mellon
 University), and the Gaussian 82(TM) system (copyright 1983,
 Carnegie Mellon University). Gaussian is a federally registered
 trademark of Gaussian, Inc.
  
 This software contains proprietary and confidential information,
 including trade secrets, belonging to Gaussian, Inc.
  
 This software is provided under written license and may be
 used, copied, transmitted, or stored only in accord with that
 written license.
  
 The following legend is applicable only to US Government
 contracts under FAR:
  
                    RESTRICTED RIGHTS LEGEND
  
 Use, reproduction and disclosure by the US Government is
 subject to restrictions as set forth in subparagraphs (a)
 and (c) of the Commercial Computer Software - Restricted
 Rights clause in FAR 52.227-19.
  
 Gaussian, Inc.
 340 Quinnipiac St., Bldg. 40, Wallingford CT 06492
  
  
 ---------------------------------------------------------------
 Warning -- This program may not be used in any manner that
 competes with the business of Gaussian, Inc. or will provide
 assistance to any competitor of Gaussian, Inc.  The licensee
 of this program is prohibited from giving any competitor of
 Gaussian, Inc. access to this program.  By using this program,
 the user acknowledges that Gaussian, Inc. is engaged in the
 business of creating and licensing software in the field of
 computational chemistry and represents and warrants to the
 licensee that it is not a competitor of Gaussian, Inc. and that
 it will not use this program in any manner prohibited above.
 ---------------------------------------------------------------
  

 Cite this work as:
 Gaussian 09, Revision C.01,
 M. J. Frisch, G. W. Trucks, H. B. Schlegel, G. E. Scuseria, 
 M. A. Robb, J. R. Cheeseman, G. Scalmani, V. Barone, B. Mennucci, 
 G. A. Petersson, H. Nakatsuji, M. Caricato, X. Li, H. P. Hratchian, 
 A. F. Izmaylov, J. Bloino, G. Zheng, J. L. Sonnenberg, M. Hada, 
 M. Ehara, K. Toyota, R. Fukuda, J. Hasegawa, M. Ishida, T. Nakajima, 
 Y. Honda, O. Kitao, H. Nakai, T. Vreven, J. A. Montgomery, Jr., 
 J. E. Peralta, F. Ogliaro, M. Bearpark, J. J. Heyd, E. Brothers, 
 K. N. Kudin, V. N. Staroverov, T. Keith, R. Kobayashi, J. Normand, 
 K. Raghavachari, A. Rendell, J. C. Burant, S. S. Iyengar, J. Tomasi, 
 M. Cossi, N. Rega, J. M. Millam, M. Klene, J. E. Knox, J. B. Cross, 
 V. Bakken, C. Adamo, J. Jaramillo, R. Gomperts, R. E. Stratmann, 
 O. Yazyev, A. J. Austin, R. Cammi, C. Pomelli, J. W. Ochterski, 
 R. L. Martin, K. Morokuma, V. G. Zakrzewski, G. A. Voth, 
 P. Salvador, J. J. Dannenberg, S. Dapprich, A. D. Daniels, 
 O. Farkas, J. B. Foresman, J. V. Ortiz, J. Cioslowski, 
 and D. J. Fox, Gaussian, Inc., Wallingford CT, 2010.
 
 ******************************************
 Gaussian 09:  EM64L-G09RevC.01 23-Sep-2011
                 4-May-2020 
 ******************************************
 %mem=8GB
 %nproc=8
 Will use up to    8 processors via shared memory.
 ----------------------------------------------------------------------
 #p wb97xd/aug-cc-PVTz iop(3/107=0250000000) iop(3/108=0250000000) int=
 ultrafine counterpoise=2 Scan
 ----------------------------------------------------------------------
 1/38=1,60=1,62=2/1,8;
 2/12=2,17=6,18=5,29=3,40=1/2;
 1/38=1,53=5172,62=2/22;
 3/5=16,6=1,7=10,11=2,16=1,25=1,30=1,74=-58,75=-5,107=250000000,108=250000000/1,2,3;
 4//1;
 5/5=2,38=5/2;
 6/7=2,8=2,9=2,10=2,18=1,28=1/1;
 1/53=4052,62=2,63=1/22;
 3/5=7,6=11,7=10,11=2,16=1,25=1,30=1,74=-58,75=-5,82=7,107=250000000,108=250000000/1,2,3;
 4//1;
 5/5=2,38=5/2;
 6/7=2,8=2,9=2,10=2,18=1,28=1/1;
 1/53=3042,62=2,63=2/22;
 3/5=7,6=11,7=10,11=2,16=1,25=1,30=1,74=-58,75=-5,82=7,107=250000000,108=250000000/1,2,3;
 4//1;
 5/5=2,38=5/2;
 6/7=2,8=2,9=2,10=2,18=1,28=1/1;
 1/53=2032,62=2,63=3/22;
 3/5=7,6=11,7=10,11=2,16=1,25=1,30=1,74=-58,75=-5,82=7,107=250000000,108=250000000/1,2,3;
 4//1;
 5/5=2,38=5/2;
 6/7=2,8=2,9=2,10=2,18=1,28=1/1;
 1/53=1022,62=2,63=4/22;
 3/5=7,6=11,7=10,11=2,16=1,25=1,30=1,74=-58,75=-5,82=7,107=250000000,108=250000000/1,2,3;
 4//1;
 5/5=2,38=5/2;
 6/7=2,8=2,9=2,10=2,18=1,28=1/1;
 1/53=5014,62=2,63=5/22;
 1/60=1,62=2/8(1);
 99/9=1/99;
 2/29=3/2;
 1/53=5173,62=2/22;
 3/5=7,6=11,7=10,11=2,16=1,25=1,30=1,74=-58,75=-5,82=7,107=250000000,108=250000000/1,2,3;
 4/5=5,16=3/1;
 5/5=2,38=5/2;
 1/53=4053,62=2,63=1/22;
 3/5=7,6=11,7=10,11=2,16=1,25=1,30=1,74=-58,75=-5,82=7,107=250000000,108=250000000/1,2,3;
 4/5=5,16=3/1;
 5/5=2,38=5/2;
 1/53=3043,62=2,63=2/22;
 3/5=7,6=11,7=10,11=2,16=1,25=1,30=1,74=-58,75=-5,82=7,107=250000000,108=250000000/1,2,3;
 4/5=5,16=3/1;
 5/5=2,38=5/2;
 1/53=2033,62=2,63=3/22;
 3/5=7,6=11,7=10,11=2,16=1,25=1,30=1,74=-58,75=-5,82=7,107=250000000,108=250000000/1,2,3;
 4/5=5,16=3/1;
 5/5=2,38=5/2;
 1/53=1024,62=2,63=4/22;
 3/5=7,6=11,7=10,11=2,16=1,25=1,30=1,74=-58,75=-5,82=7,107=250000000,108=250000000/1,2,3;
 4/5=5,16=3/1;
 5/5=2,38=5/2;
 1/53=5014,62=2,63=5/22;
 1/60=1,62=2/8(-22);
 99/9=1/99;
 Leave Link    1 at Mon May  4 12:44:39 2020, MaxMem= 1073741824 cpu:       0.1
 (Enter /home/matheus/.gaussian/g09/l101.exe)
 ---
 TCC
 ---
 Charge =  0 Multiplicity = 1 in supermolecule
 Charge =  0 Multiplicity = 1 in fragment  1.
 Charge =  0 Multiplicity = 1 in fragment  2.
 Symbolic Z-Matrix:
 O(Fragment=1)         0.        0.        0.725 
 O(Fragment=1)         0.        0.       -0.725 
 H(Fragment=1)        -0.86331   0.31422   1.02351 
 H(Fragment=1)         0.        0.91872  -1.02351 
 Kr(Fragment=2)        0.       R1        0. 
       Variables:
  R1                    3.     Scan 20    0.1    
 
 NAtoms=      5 NQM=        0 NQMF=       0 NMMI=      5 NMMIF=      0
                NMic=       0 NMicF=      0.
                    Isotopes and Nuclear Properties:
 (Nuclear quadrupole moments (NQMom) in fm**2, nuclear magnetic moments (NMagM)
  in nuclear magnetons)

  Atom         1           2           3           4           5
 IAtWgt=          16          16           1           1          84
 AtmWgt=  15.9949146  15.9949146   1.0078250   1.0078250  83.9115064
 NucSpn=           0           0           1           1           0
 AtZEff=   0.0000000   0.0000000   0.0000000   0.0000000   0.0000000
 NQMom=    0.0000000   0.0000000   0.0000000   0.0000000   0.0000000
 NMagM=    0.0000000   0.0000000   2.7928460   2.7928460   0.0000000
 Leave Link  101 at Mon May  4 12:44:39 2020, MaxMem= 1073741824 cpu:       0.3
 (Enter /home/matheus/.gaussian/g09/l108.exe)
 Scan the potential surface.
 Variable   Value     No. Steps Step-Size
 -------- ----------- --------- ---------
     1       3.000000      20      0.1000
 A total of     21 points will be computed.
 Leave Link  108 at Mon May  4 12:44:39 2020, MaxMem= 1073741824 cpu:       0.0
 (Enter /home/matheus/.gaussian/g09/l202.exe)
 ---------------------------------------------------------------------------------------------------
                            Z-MATRIX (ANGSTROMS AND DEGREES)
   CD    Cent   Atom    N1       Length/X        N2       Alpha/Y        N3        Beta/Z          J
 ---------------------------------------------------------------------------------------------------
      1      1  O        0   0.000000          0.000000          0.725000
      2      2  O        0   0.000000          0.000000         -0.725000
      3      3  H        0  -0.863315          0.314221          1.023510
      4      4  H        0   0.000000          0.918721         -1.023510
      5      5  Kr       0   0.000000          3.000000          0.000000
 ---------------------------------------------------------------------------------------------------
                         Z-Matrix orientation:                         
 ---------------------------------------------------------------------
 Center     Atomic      Atomic             Coordinates (Angstroms)
 Number     Number       Type             X           Y           Z
 ---------------------------------------------------------------------
      1          8           0        0.000000    0.000000    0.725000
      2          8           0        0.000000    0.000000   -0.725000
      3          1           0       -0.863315    0.314221    1.023510
      4          1           0        0.000000    0.918721   -1.023510
      5         36           0        0.000000    3.000000    0.000000
 ---------------------------------------------------------------------
                    Distance matrix (angstroms):
                    1          2          3          4          5
     1  O    0.000000
     2  O    1.450000   0.000000
     3  H    0.966000   1.975180   0.000000
     4  H    1.975180   0.966000   2.302396   0.000000
     5  Kr   3.086361   3.086361   3.001049   2.319331   0.000000
 Stoichiometry    H2KrO2
 Framework group  C1[X(H2KrO2)]
 Deg. of freedom     9
 Full point group                 C1      NOp   1
 Largest Abelian subgroup         C1      NOp   1
 Largest concise Abelian subgroup C1      NOp   1
                         Standard orientation:                         
 ---------------------------------------------------------------------
 Center     Atomic      Atomic             Coordinates (Angstroms)
 Number     Number       Type             X           Y           Z
 ---------------------------------------------------------------------
      1          8           0       -2.027244   -0.704579   -0.107619
      2          8           0       -2.017454    0.739726    0.020400
      3          1           0       -1.727457   -1.080559    0.730189
      4          1           0       -1.096833    1.029722    0.059329
      5         36           0        0.977274   -0.006398   -0.002549
 ---------------------------------------------------------------------
 Rotational constants (GHZ):     25.7099481      2.3602095      2.1745891
 Leave Link  202 at Mon May  4 12:44:39 2020, MaxMem= 1073741824 cpu:       0.0
 (Enter /home/matheus/.gaussian/g09/l122.exe)
 Leave Link  122 at Mon May  4 12:44:39 2020, MaxMem= 1073741824 cpu:       0.0
 (Enter /home/matheus/.gaussian/g09/l301.exe)
 Standard basis: Aug-CC-pVTZ (5D, 7F)
 Ernie: Thresh=  0.10000D-02 Tol=  0.10000D-05 Strict=F.
 Ernie:  38 primitive shells out of 205 were deleted.
 There are   197 symmetry adapted basis functions of A   symmetry.
 Integral buffers will be    131072 words long.
 Raffenetti 2 integral format.
 Two-electron integral symmetry is turned on.
   197 basis functions,   415 primitive gaussians,   229 cartesian basis functions
    27 alpha electrons       27 beta electrons
       nuclear repulsion energy       149.9587672391 Hartrees.
 IExCor= 4639 DFT=T Ex+Corr=wB97XD ExCW=0 ScaHFX=  1.000000
 ScaDFX=  1.000000  1.000000  1.000000  1.000000 ScalE2=  1.000000  1.000000
 IRadAn=      5 IRanWt=     -1 IRanGd=            0 ICorTp=0
  HFx wShort=  0.000000 wLong=  0.250000 cFull=  0.222036 cShort=  0.000000 cLong=  0.777964
  DFx wShort=  0.000000 wLong=  0.250000 cFull=  0.000000 cShort=  0.000000 cLong=  1.000000
 NAtoms=    5 NActive=    5 NUniq=    5 SFac= 1.00D+00 NAtFMM=   60 NAOKFM=F Big=F
 R6Disp: Dispersion energy =        -0.0009500904 Hartrees.
 Nuclear repulsion after empirical dispersion term =      149.9578171487 Hartrees.
 Leave Link  301 at Mon May  4 12:44:39 2020, MaxMem= 1073741824 cpu:       0.2
 (Enter /home/matheus/.gaussian/g09/l302.exe)
 NPDir=0 NMtPBC=     1 NCelOv=     1 NCel=       1 NClECP=     1 NCelD=      1
         NCelK=      1 NCelE2=     1 NClLst=     1 CellRange=     0.0.
 One-electron integrals computed using PRISM.
 NBasis=   197 RedAO= T  NBF=   197
 NBsUse=   197 1.00D-06 NBFU=   197
 Precomputing XC quadrature grid using
 IXCGrd= 2 IRadAn=           5 IRanWt=          -1 IRanGd=           0 AccXCQ= 0.00D+00.
 NRdTot=     427 NPtTot=      123512 NUsed=      126579 NTot=      126611
 NSgBfM=   229   229   229   229   229 NAtAll=     5     5.
 Leave Link  302 at Mon May  4 12:44:39 2020, MaxMem= 1073741824 cpu:       1.0
 (Enter /home/matheus/.gaussian/g09/l303.exe)
 DipDrv:  MaxL=1.
 Leave Link  303 at Mon May  4 12:44:39 2020, MaxMem= 1073741824 cpu:       0.2
 (Enter /home/matheus/.gaussian/g09/l401.exe)
 Harris functional with IExCor= 4639 diagonalized for initial guess.
 ExpMin= 2.53D-02 ExpMax= 1.17D+07 ExpMxC= 1.33D+04 IAcc=3 IRadAn=         5 AccDes= 0.00D+00
 HarFok:  IExCor= 4639 AccDes= 0.00D+00 IRadAn=         5 IDoV= 1
 ScaDFX=  1.000000  1.000000  1.000000  1.000000
 FoFCou: FMM=F IPFlag=           0 FMFlag=      100000 FMFlg1=           0
         NFxFlg=           0 DoJE=T BraDBF=F KetDBF=T FulRan=T
         Omega=  0.000000  0.000000  1.000000  0.000000  0.000000 ICntrl=     500 IOpCl=  0
         NMat0=    1 NMatS0=    1 NMatT0=    0 NMatD0=    1 NMtDS0=    0 NMtDT0=    0
         I1Cent=           4 NGrid=           0.
 Petite list used in FoFCou.
 Harris En= -2875.39648249372    
 Initial guess orbital symmetries:
       Occupied  (A) (A) (A) (A) (A) (A) (A) (A) (A) (A) (A) (A)
                 (A) (A) (A) (A) (A) (A) (A) (A) (A) (A) (A) (A)
                 (A) (A) (A)
       Virtual   (A) (A) (A) (A) (A) (A) (A) (A) (A) (A) (A) (A)
                 (A) (A) (A) (A) (A) (A) (A) (A) (A) (A) (A) (A)
                 (A) (A) (A) (A) (A) (A) (A) (A) (A) (A) (A) (A)
                 (A) (A) (A) (A) (A) (A) (A) (A) (A) (A) (A) (A)
                 (A) (A) (A) (A) (A) (A) (A) (A) (A) (A) (A) (A)
                 (A) (A) (A) (A) (A) (A) (A) (A) (A) (A) (A) (A)
                 (A) (A) (A) (A) (A) (A) (A) (A) (A) (A) (A) (A)
                 (A) (A) (A) (A) (A) (A) (A) (A) (A) (A) (A) (A)
                 (A) (A) (A) (A) (A) (A) (A) (A) (A) (A) (A) (A)
                 (A) (A) (A) (A) (A) (A) (A) (A) (A) (A) (A) (A)
                 (A) (A) (A) (A) (A) (A) (A) (A) (A) (A) (A) (A)
                 (A) (A) (A) (A) (A) (A) (A) (A) (A) (A) (A) (A)
                 (A) (A) (A) (A) (A) (A) (A) (A) (A) (A) (A) (A)
                 (A) (A) (A) (A) (A) (A) (A) (A) (A) (A) (A) (A)
                 (A) (A)
 The electronic state of the initial guess is 1-A.
 Leave Link  401 at Mon May  4 12:44:40 2020, MaxMem= 1073741824 cpu:       4.0
 (Enter /home/matheus/.gaussian/g09/l502.exe)
 Closed shell SCF:
 Requested convergence on RMS density matrix=1.00D-08 within 128 cycles.
 Requested convergence on MAX density matrix=1.00D-06.
 Requested convergence on             energy=1.00D-06.
 No special actions if energy rises.
 Using DIIS extrapolation, IDIIS=  1040.
 Integral symmetry usage will be decided dynamically.
       126521 words used for storage of precomputed grid.
 IEnd=      305468 IEndB=      305468 NGot=  1073741824 MDV=  1073505667
 LenX=  1073505667 LenY=  1073452785
 Fock matrices will be formed incrementally for  20 cycles.

 Cycle   1  Pass 1  IDiag  1:
 FoFJK:  IHMeth= 1 ICntrl=     0 DoSepK=T KAlg= 1 I1Cent= 0 FoldK=F
 FoFCou: FMM=F IPFlag=           0 FMFlag=      100000 FMFlg1=           0
         NFxFlg=           0 DoJE=T BraDBF=F KetDBF=F FulRan=T
         Omega=  0.000000  0.000000  1.000000  0.000000  0.000000 ICntrl=     500 IOpCl=  0
         NMat0=    1 NMatS0=    1 NMatT0=    0 NMatD0=    1 NMtDS0=    0 NMtDT0=    0
         I1Cent=           0 NGrid=           0.
 Symmetry not used in FoFCou.
 E= -2904.90067975666    
 DIIS: error= 7.22D-02 at cycle   1 NSaved=   1.
 NSaved= 1 IEnMin= 1 EnMin= -2904.90067975666     IErMin= 1 ErrMin= 7.22D-02
 ErrMax= 7.22D-02 EMaxC= 1.00D-01 BMatC= 2.22D+00 BMatP= 2.22D+00
 IDIUse=3 WtCom= 2.78D-01 WtEn= 7.22D-01
 Coeff-Com:  0.100D+01
 Coeff-En:   0.100D+01
 Coeff:      0.100D+01
 Gap=     0.551 Goal=   None    Shift=    0.000
 GapD=    0.551 DampG=2.000 DampE=0.500 DampFc=1.0000 IDamp=-1.
 RMSDP=6.14D-03 MaxDP=3.67D-01              OVMax= 1.83D-01

 Cycle   2  Pass 1  IDiag  1:
 RMSU=  4.31D-03    CP:  1.03D+00
 FoFJK:  IHMeth= 1 ICntrl=     0 DoSepK=T KAlg= 1 I1Cent= 0 FoldK=F
 E= -2905.22294627680     Delta-E=       -0.322266520140 Rises=F Damp=F
 DIIS: error= 3.11D-02 at cycle   2 NSaved=   2.
 NSaved= 2 IEnMin= 2 EnMin= -2905.22294627680     IErMin= 2 ErrMin= 3.11D-02
 ErrMax= 3.11D-02 EMaxC= 1.00D-01 BMatC= 5.64D-01 BMatP= 2.22D+00
 IDIUse=3 WtCom= 6.89D-01 WtEn= 3.11D-01
 Coeff-Com:  0.328D+00 0.672D+00
 Coeff-En:   0.195D+00 0.805D+00
 Coeff:      0.286D+00 0.714D+00
 Gap=     0.497 Goal=   None    Shift=    0.000
 RMSDP=2.68D-03 MaxDP=1.58D-01 DE=-3.22D-01 OVMax= 7.42D-02

 Cycle   3  Pass 1  IDiag  1:
 RMSU=  5.64D-04    CP:  1.02D+00  5.82D-01
 FoFJK:  IHMeth= 1 ICntrl=     0 DoSepK=T KAlg= 1 I1Cent= 0 FoldK=F
 E= -2905.41636823934     Delta-E=       -0.193421962540 Rises=F Damp=F
 DIIS: error= 5.60D-03 at cycle   3 NSaved=   3.
 NSaved= 3 IEnMin= 3 EnMin= -2905.41636823934     IErMin= 3 ErrMin= 5.60D-03
 ErrMax= 5.60D-03 EMaxC= 1.00D-01 BMatC= 1.85D-02 BMatP= 5.64D-01
 IDIUse=3 WtCom= 9.44D-01 WtEn= 5.60D-02
 Coeff-Com:  0.341D-01 0.189D+00 0.777D+00
 Coeff-En:   0.000D+00 0.000D+00 0.100D+01
 Coeff:      0.322D-01 0.179D+00 0.789D+00
 Gap=     0.446 Goal=   None    Shift=    0.000
 RMSDP=4.84D-04 MaxDP=1.87D-02 DE=-1.93D-01 OVMax= 2.60D-02

 Cycle   4  Pass 1  IDiag  1:
 RMSU=  2.33D-04    CP:  1.02D+00  6.39D-01  9.07D-01
 FoFJK:  IHMeth= 1 ICntrl=     0 DoSepK=T KAlg= 1 I1Cent= 0 FoldK=F
 E= -2905.42480561670     Delta-E=       -0.008437377369 Rises=F Damp=F
 DIIS: error= 2.03D-03 at cycle   4 NSaved=   4.
 NSaved= 4 IEnMin= 4 EnMin= -2905.42480561670     IErMin= 4 ErrMin= 2.03D-03
 ErrMax= 2.03D-03 EMaxC= 1.00D-01 BMatC= 1.78D-03 BMatP= 1.85D-02
 IDIUse=3 WtCom= 9.80D-01 WtEn= 2.03D-02
 Coeff-Com: -0.252D-02 0.485D-01 0.369D+00 0.585D+00
 Coeff-En:   0.000D+00 0.000D+00 0.000D+00 0.100D+01
 Coeff:     -0.246D-02 0.475D-01 0.361D+00 0.594D+00
 Gap=     0.430 Goal=   None    Shift=    0.000
 RMSDP=1.22D-04 MaxDP=6.78D-03 DE=-8.44D-03 OVMax= 6.70D-03

 Cycle   5  Pass 1  IDiag  1:
 RMSU=  4.01D-05    CP:  1.02D+00  6.37D-01  9.52D-01  6.97D-01
 FoFJK:  IHMeth= 1 ICntrl=     0 DoSepK=T KAlg= 1 I1Cent= 0 FoldK=F
 E= -2905.42588898726     Delta-E=       -0.001083370556 Rises=F Damp=F
 DIIS: error= 2.08D-04 at cycle   5 NSaved=   5.
 NSaved= 5 IEnMin= 5 EnMin= -2905.42588898726     IErMin= 5 ErrMin= 2.08D-04
 ErrMax= 2.08D-04 EMaxC= 1.00D-01 BMatC= 1.72D-05 BMatP= 1.78D-03
 IDIUse=3 WtCom= 9.98D-01 WtEn= 2.08D-03
 Coeff-Com: -0.129D-02 0.692D-02 0.721D-01 0.133D+00 0.789D+00
 Coeff-En:   0.000D+00 0.000D+00 0.000D+00 0.000D+00 0.100D+01
 Coeff:     -0.129D-02 0.691D-02 0.719D-01 0.133D+00 0.790D+00
 Gap=     0.430 Goal=   None    Shift=    0.000
 RMSDP=2.21D-05 MaxDP=9.77D-04 DE=-1.08D-03 OVMax= 1.39D-03

 Cycle   6  Pass 1  IDiag  1:
 RMSU=  1.32D-05    CP:  1.02D+00  6.37D-01  9.61D-01  7.13D-01  1.13D+00
 FoFJK:  IHMeth= 1 ICntrl=     0 DoSepK=T KAlg= 1 I1Cent= 0 FoldK=F
 E= -2905.42589735778     Delta-E=       -0.000008370518 Rises=F Damp=F
 DIIS: error= 1.70D-04 at cycle   6 NSaved=   6.
 NSaved= 6 IEnMin= 6 EnMin= -2905.42589735778     IErMin= 6 ErrMin= 1.70D-04
 ErrMax= 1.70D-04 EMaxC= 1.00D-01 BMatC= 1.05D-05 BMatP= 1.72D-05
 IDIUse=3 WtCom= 9.98D-01 WtEn= 1.70D-03
 Coeff-Com: -0.268D-03-0.587D-02-0.314D-01-0.428D-01 0.459D+00 0.621D+00
 Coeff-En:   0.000D+00 0.000D+00 0.000D+00 0.000D+00 0.235D+00 0.765D+00
 Coeff:     -0.267D-03-0.586D-02-0.313D-01-0.427D-01 0.458D+00 0.622D+00
 Gap=     0.430 Goal=   None    Shift=    0.000
 RMSDP=1.13D-05 MaxDP=4.48D-04 DE=-8.37D-06 OVMax= 7.37D-04

 Cycle   7  Pass 1  IDiag  1:
 RMSU=  3.63D-06    CP:  1.02D+00  6.37D-01  9.67D-01  7.19D-01  1.26D+00
                    CP:  7.59D-01
 FoFJK:  IHMeth= 1 ICntrl=     0 DoSepK=T KAlg= 1 I1Cent= 0 FoldK=F
 E= -2905.42590476380     Delta-E=       -0.000007406026 Rises=F Damp=F
 DIIS: error= 2.01D-05 at cycle   7 NSaved=   7.
 NSaved= 7 IEnMin= 7 EnMin= -2905.42590476380     IErMin= 7 ErrMin= 2.01D-05
 ErrMax= 2.01D-05 EMaxC= 1.00D-01 BMatC= 1.11D-07 BMatP= 1.05D-05
 IDIUse=1 WtCom= 1.00D+00 WtEn= 0.00D+00
 Coeff-Com:  0.244D-04-0.133D-02-0.905D-02-0.135D-01 0.889D-02 0.898D-01
 Coeff-Com:  0.925D+00
 Coeff:      0.244D-04-0.133D-02-0.905D-02-0.135D-01 0.889D-02 0.898D-01
 Coeff:      0.925D+00
 Gap=     0.430 Goal=   None    Shift=    0.000
 RMSDP=2.53D-06 MaxDP=8.03D-05 DE=-7.41D-06 OVMax= 2.09D-04

 Cycle   8  Pass 1  IDiag  1:
 RMSU=  8.59D-07    CP:  1.02D+00  6.37D-01  9.68D-01  7.21D-01  1.28D+00
                    CP:  8.18D-01  1.18D+00
 FoFJK:  IHMeth= 1 ICntrl=     0 DoSepK=T KAlg= 1 I1Cent= 0 FoldK=F
 E= -2905.42590495292     Delta-E=       -0.000000189111 Rises=F Damp=F
 DIIS: error= 4.60D-06 at cycle   8 NSaved=   8.
 NSaved= 8 IEnMin= 8 EnMin= -2905.42590495292     IErMin= 8 ErrMin= 4.60D-06
 ErrMax= 4.60D-06 EMaxC= 1.00D-01 BMatC= 5.75D-09 BMatP= 1.11D-07
 IDIUse=1 WtCom= 1.00D+00 WtEn= 0.00D+00
 Coeff-Com:  0.175D-04 0.253D-03 0.124D-02 0.143D-02-0.275D-01-0.310D-01
 Coeff-Com:  0.305D-01 0.103D+01
 Coeff:      0.175D-04 0.253D-03 0.124D-02 0.143D-02-0.275D-01-0.310D-01
 Coeff:      0.305D-01 0.103D+01
 Gap=     0.430 Goal=   None    Shift=    0.000
 RMSDP=7.91D-07 MaxDP=1.99D-05 DE=-1.89D-07 OVMax= 8.61D-05

 Cycle   9  Pass 1  IDiag  1:
 RMSU=  2.68D-07    CP:  1.02D+00  6.37D-01  9.68D-01  7.20D-01  1.29D+00
                    CP:  8.29D-01  1.26D+00  1.31D+00
 FoFJK:  IHMeth= 1 ICntrl=     0 DoSepK=T KAlg= 1 I1Cent= 0 FoldK=F
 E= -2905.42590496956     Delta-E=       -0.000000016642 Rises=F Damp=F
 DIIS: error= 1.67D-06 at cycle   9 NSaved=   9.
 NSaved= 9 IEnMin= 9 EnMin= -2905.42590496956     IErMin= 9 ErrMin= 1.67D-06
 ErrMax= 1.67D-06 EMaxC= 1.00D-01 BMatC= 5.12D-10 BMatP= 5.75D-09
 IDIUse=1 WtCom= 1.00D+00 WtEn= 0.00D+00
 Coeff-Com: -0.200D-05 0.828D-04 0.575D-03 0.652D-03 0.184D-03-0.348D-02
 Coeff-Com: -0.548D-01-0.817D-01 0.114D+01
 Coeff:     -0.200D-05 0.828D-04 0.575D-03 0.652D-03 0.184D-03-0.348D-02
 Coeff:     -0.548D-01-0.817D-01 0.114D+01
 Gap=     0.430 Goal=   None    Shift=    0.000
 RMSDP=2.83D-07 MaxDP=7.78D-06 DE=-1.66D-08 OVMax= 3.61D-05

 Cycle  10  Pass 1  IDiag  1:
 RMSU=  8.73D-08    CP:  1.02D+00  6.37D-01  9.68D-01  7.20D-01  1.29D+00
                    CP:  8.31D-01  1.27D+00  1.44D+00  1.41D+00
 FoFJK:  IHMeth= 1 ICntrl=     0 DoSepK=T KAlg= 1 I1Cent= 0 FoldK=F
 E= -2905.42590497139     Delta-E=       -0.000000001829 Rises=F Damp=F
 DIIS: error= 3.81D-07 at cycle  10 NSaved=  10.
 NSaved=10 IEnMin=10 EnMin= -2905.42590497139     IErMin=10 ErrMin= 3.81D-07
 ErrMax= 3.81D-07 EMaxC= 1.00D-01 BMatC= 5.74D-11 BMatP= 5.12D-10
 IDIUse=1 WtCom= 1.00D+00 WtEn= 0.00D+00
 Coeff-Com: -0.101D-05-0.140D-04-0.684D-04-0.795D-04 0.238D-02 0.279D-02
 Coeff-Com: -0.194D-02-0.119D+00 0.133D+00 0.983D+00
 Coeff:     -0.101D-05-0.140D-04-0.684D-04-0.795D-04 0.238D-02 0.279D-02
 Coeff:     -0.194D-02-0.119D+00 0.133D+00 0.983D+00
 Gap=     0.430 Goal=   None    Shift=    0.000
 RMSDP=8.32D-08 MaxDP=1.56D-06 DE=-1.83D-09 OVMax= 1.13D-05

 Cycle  11  Pass 1  IDiag  1:
 RMSU=  2.19D-08    CP:  1.02D+00  6.37D-01  9.68D-01  7.20D-01  1.29D+00
                    CP:  8.31D-01  1.27D+00  1.46D+00  1.57D+00  1.27D+00
 FoFJK:  IHMeth= 1 ICntrl=     0 DoSepK=T KAlg= 1 I1Cent= 0 FoldK=F
 E= -2905.42590497158     Delta-E=       -0.000000000195 Rises=F Damp=F
 DIIS: error= 1.41D-07 at cycle  11 NSaved=  11.
 NSaved=11 IEnMin=11 EnMin= -2905.42590497158     IErMin=11 ErrMin= 1.41D-07
 ErrMax= 1.41D-07 EMaxC= 1.00D-01 BMatC= 4.97D-12 BMatP= 5.74D-11
 IDIUse=1 WtCom= 1.00D+00 WtEn= 0.00D+00
 Coeff-Com:  0.483D-06-0.602D-05-0.499D-04-0.350D-04-0.333D-03 0.121D-04
 Coeff-Com:  0.679D-02 0.124D-01-0.113D+00-0.106D+00 0.120D+01
 Coeff:      0.483D-06-0.602D-05-0.499D-04-0.350D-04-0.333D-03 0.121D-04
 Coeff:      0.679D-02 0.124D-01-0.113D+00-0.106D+00 0.120D+01
 Gap=     0.430 Goal=   None    Shift=    0.000
 RMSDP=3.01D-08 MaxDP=5.85D-07 DE=-1.95D-10 OVMax= 4.26D-06

 Cycle  12  Pass 1  IDiag  1:
 RMSU=  6.14D-09    CP:  1.02D+00  6.37D-01  9.68D-01  7.20D-01  1.29D+00
                    CP:  8.31D-01  1.27D+00  1.46D+00  1.61D+00  1.43D+00
                    CP:  1.34D+00
 FoFJK:  IHMeth= 1 ICntrl=     0 DoSepK=T KAlg= 1 I1Cent= 0 FoldK=F
 E= -2905.42590497159     Delta-E=       -0.000000000013 Rises=F Damp=F
 DIIS: error= 3.60D-08 at cycle  12 NSaved=  12.
 NSaved=12 IEnMin=12 EnMin= -2905.42590497159     IErMin=12 ErrMin= 3.60D-08
 ErrMax= 3.60D-08 EMaxC= 1.00D-01 BMatC= 2.11D-13 BMatP= 4.97D-12
 IDIUse=1 WtCom= 1.00D+00 WtEn= 0.00D+00
 Coeff-Com: -0.415D-07 0.703D-06 0.600D-05-0.166D-05-0.969D-04-0.128D-03
 Coeff-Com: -0.252D-03 0.461D-02 0.619D-02-0.359D-01-0.154D+00 0.118D+01
 Coeff:     -0.415D-07 0.703D-06 0.600D-05-0.166D-05-0.969D-04-0.128D-03
 Coeff:     -0.252D-03 0.461D-02 0.619D-02-0.359D-01-0.154D+00 0.118D+01
 Gap=     0.430 Goal=   None    Shift=    0.000
 RMSDP=6.20D-09 MaxDP=1.84D-07 DE=-1.32D-11 OVMax= 7.51D-07

 SCF Done:  E(RwB97XD) =  -2905.42590497     A.U. after   12 cycles
             Convg  =    0.6196D-08             -V/T =  2.0015
 KE= 2.900948529725D+03 PE=-7.237835310496D+03 EE= 1.281503058650D+03
 Leave Link  502 at Mon May  4 12:45:16 2020, MaxMem= 1073741824 cpu:     291.8
 (Enter /home/matheus/.gaussian/g09/l601.exe)
 Copying SCF densities to generalized density rwf, IOpCl= 0 IROHF=0.

 **********************************************************************

            Population analysis using the SCF density.

 **********************************************************************

 Orbital symmetries:
       Occupied  (A) (A) (A) (A) (A) (A) (A) (A) (A) (A) (A) (A)
                 (A) (A) (A) (A) (A) (A) (A) (A) (A) (A) (A) (A)
                 (A) (A) (A)
       Virtual   (A) (A) (A) (A) (A) (A) (A) (A) (A) (A) (A) (A)
                 (A) (A) (A) (A) (A) (A) (A) (A) (A) (A) (A) (A)
                 (A) (A) (A) (A) (A) (A) (A) (A) (A) (A) (A) (A)
                 (A) (A) (A) (A) (A) (A) (A) (A) (A) (A) (A) (A)
                 (A) (A) (A) (A) (A) (A) (A) (A) (A) (A) (A) (A)
                 (A) (A) (A) (A) (A) (A) (A) (A) (A) (A) (A) (A)
                 (A) (A) (A) (A) (A) (A) (A) (A) (A) (A) (A) (A)
                 (A) (A) (A) (A) (A) (A) (A) (A) (A) (A) (A) (A)
                 (A) (A) (A) (A) (A) (A) (A) (A) (A) (A) (A) (A)
                 (A) (A) (A) (A) (A) (A) (A) (A) (A) (A) (A) (A)
                 (A) (A) (A) (A) (A) (A) (A) (A) (A) (A) (A) (A)
                 (A) (A) (A) (A) (A) (A) (A) (A) (A) (A) (A) (A)
                 (A) (A) (A) (A) (A) (A) (A) (A) (A) (A) (A) (A)
                 (A) (A) (A) (A) (A) (A) (A) (A) (A) (A) (A) (A)
                 (A) (A)
 The electronic state is 1-A.
 Alpha  occ. eigenvalues -- -513.10106 -67.36931 -60.91811 -60.91800 -60.91792
 Alpha  occ. eigenvalues --  -19.34087 -19.33744  -9.82259  -7.51590  -7.51556
 Alpha  occ. eigenvalues --   -7.51528  -3.38273  -3.38267  -3.38245  -3.38218
 Alpha  occ. eigenvalues --   -3.38215  -1.24679  -1.03394  -1.02816  -0.67919
 Alpha  occ. eigenvalues --   -0.57718  -0.54158  -0.50638  -0.50268  -0.49321
 Alpha  occ. eigenvalues --   -0.43272  -0.39561
 Alpha virt. eigenvalues --    0.03417   0.04379   0.08423   0.09436   0.10193
 Alpha virt. eigenvalues --    0.11838   0.12986   0.14324   0.17341   0.17828
 Alpha virt. eigenvalues --    0.18109   0.19127   0.20274   0.22268   0.23251
 Alpha virt. eigenvalues --    0.24293   0.25272   0.27890   0.30350   0.32159
 Alpha virt. eigenvalues --    0.33759   0.35073   0.36835   0.38538   0.39191
 Alpha virt. eigenvalues --    0.40456   0.42227   0.47047   0.51966   0.53877
 Alpha virt. eigenvalues --    0.54732   0.59077   0.61202   0.63093   0.67262
 Alpha virt. eigenvalues --    0.69736   0.70708   0.72709   0.74536   0.74592
 Alpha virt. eigenvalues --    0.76029   0.76327   0.78308   0.79347   0.82246
 Alpha virt. eigenvalues --    0.82962   0.85764   0.87677   0.89078   0.90067
 Alpha virt. eigenvalues --    0.90837   0.92750   0.94485   0.96104   0.97381
 Alpha virt. eigenvalues --    0.98402   1.02119   1.04158   1.06407   1.07920
 Alpha virt. eigenvalues --    1.09589   1.13626   1.16684   1.21641   1.23350
 Alpha virt. eigenvalues --    1.25343   1.30742   1.35026   1.36447   1.39385
 Alpha virt. eigenvalues --    1.42365   1.46812   1.49199   1.53652   1.58537
 Alpha virt. eigenvalues --    1.67735   1.68541   1.82168   1.91053   1.92405
 Alpha virt. eigenvalues --    1.99851   2.01762   2.04734   2.08686   2.13647
 Alpha virt. eigenvalues --    2.15351   2.17063   2.19529   2.21947   2.24878
 Alpha virt. eigenvalues --    2.25065   2.28369   2.29402   2.30209   2.31750
 Alpha virt. eigenvalues --    2.35270   2.37612   2.43737   2.46544   2.46994
 Alpha virt. eigenvalues --    2.47948   2.49878   2.51454   2.55550   2.55920
 Alpha virt. eigenvalues --    2.58485   2.61533   2.63620   2.69482   2.70328
 Alpha virt. eigenvalues --    2.71035   2.74302   2.77298   2.83635   2.87848
 Alpha virt. eigenvalues --    2.93921   3.01545   3.08988   3.11319   3.59880
 Alpha virt. eigenvalues --    3.67636   3.93216   3.94866   3.98936   4.06686
 Alpha virt. eigenvalues --    4.10043   4.12602   4.23544   4.23783   4.28092
 Alpha virt. eigenvalues --    4.35801   4.48069   4.52111   4.57986   4.71434
 Alpha virt. eigenvalues --    4.93483   4.96565   4.99279   5.13006   5.15591
 Alpha virt. eigenvalues --    5.18354   5.43464   5.84952   6.01880   6.13905
 Alpha virt. eigenvalues --    6.20160   6.25372   6.32410   6.41745   6.49690
 Alpha virt. eigenvalues --    6.62129   6.76051   6.77416   6.82217   6.84872
 Alpha virt. eigenvalues --    6.89516   6.90426   6.93667   6.96216   7.01742
 Alpha virt. eigenvalues --    7.07865   7.13724   7.24118   7.46941   7.53992
 Alpha virt. eigenvalues --    7.80527   8.09162   8.13590  14.12853  14.67371
          Condensed to atoms (all electrons):
              1          2          3          4          5
     1  O    8.207693  -0.179442   0.200817   0.009979  -0.018159
     2  O   -0.179442   8.254458   0.018423   0.184134  -0.020485
     3  H    0.200817   0.018423   0.556235  -0.001531  -0.000143
     4  H    0.009979   0.184134  -0.001531   0.570132  -0.004985
     5  Kr  -0.018159  -0.020485  -0.000143  -0.004985  36.034266
 Mulliken atomic charges:
              1
     1  O   -0.220889
     2  O   -0.257087
     3  H    0.226198
     4  H    0.242271
     5  Kr   0.009506
 Sum of Mulliken atomic charges =   0.00000
 Mulliken charges with hydrogens summed into heavy atoms:
              1
     1  O    0.005310
     2  O   -0.014816
     5  Kr   0.009506
 Sum of Mulliken charges with hydrogens summed into heavy atoms =   0.00000
          Condensed to fragments (all electrons):
     1      -0.009506
     2       0.009506
 Electronic spatial extent (au):  <R**2>=            481.0561
 Charge=              0.0000 electrons
 Dipole moment (field-independent basis, Debye):
    X=              2.3409    Y=             -0.3313    Z=              1.3439  Tot=              2.7195
 Quadrupole moment (field-independent basis, Debye-Ang):
   XX=            -36.5711   YY=            -27.8851   ZZ=            -29.1578
   XY=              1.5152   XZ=             -2.4143   YZ=             -1.7247
 Traceless Quadrupole moment (field-independent basis, Debye-Ang):
   XX=             -5.3664   YY=              3.3196   ZZ=              2.0469
   XY=              1.5152   XZ=             -2.4143   YZ=             -1.7247
 Octapole moment (field-independent basis, Debye-Ang**2):
  XXX=             39.8268  YYY=             -0.9039  ZZZ=              0.9098  XYY=              5.8983
  XXY=             -4.2293  XXZ=              3.4868  XZZ=              6.0749  YZZ=             -1.6704
  YYZ=              2.1223  XYZ=              3.0505
 Hexadecapole moment (field-independent basis, Debye-Ang**3):
 XXXX=           -459.8167 YYYY=            -62.9211 ZZZZ=            -29.7714 XXXY=              7.4037
 XXXZ=             -6.0095 YYYX=              2.8745 YYYZ=             -2.5309 ZZZX=             -2.0508
 ZZZY=             -1.7689 XXYY=            -82.6853 XXZZ=            -72.9695 YYZZ=            -16.0109
 XXYZ=             -5.5103 YYXZ=             -3.6813 ZZXY=              2.8454
 N-N= 1.499578171487D+02 E-N=-7.237835308693D+03  KE= 2.900948529725D+03
 No NMR shielding tensors so no spin-rotation constants.
 Leave Link  601 at Mon May  4 12:45:16 2020, MaxMem= 1073741824 cpu:       0.8
 (Enter /home/matheus/.gaussian/g09/l122.exe)
 Counterpoise: doing DCBS calculation for fragment   1 NewBq=T
 Leave Link  122 at Mon May  4 12:45:16 2020, MaxMem= 1073741824 cpu:       0.0
 (Enter /home/matheus/.gaussian/g09/l301.exe)
 Basis read from rwf:  (5D, 7F)
 No pseudopotential information found on rwf file.
 There are   197 symmetry adapted basis functions of A   symmetry.
 Integral buffers will be    131072 words long.
 Raffenetti 2 integral format.
 Two-electron integral symmetry is turned on.
   197 basis functions,   415 primitive gaussians,   229 cartesian basis functions
     9 alpha electrons        9 beta electrons
       nuclear repulsion energy        36.6380791177 Hartrees.
 IExCor= 4639 DFT=T Ex+Corr=wB97XD ExCW=0 ScaHFX=  1.000000
 ScaDFX=  1.000000  1.000000  1.000000  1.000000 ScalE2=  1.000000  1.000000
 IRadAn=      5 IRanWt=     -1 IRanGd=            0 ICorTp=0
  HFx wShort=  0.000000 wLong=  0.250000 cFull=  0.222036 cShort=  0.000000 cLong=  0.777964
  DFx wShort=  0.000000 wLong=  0.250000 cFull=  0.000000 cShort=  0.000000 cLong=  1.000000
 NAtoms=    5 NActive=    5 NUniq=    5 SFac= 1.00D+00 NAtFMM=   60 NAOKFM=F Big=F
 R6Disp: Dispersion energy =        -0.0002573303 Hartrees.
 Nuclear repulsion after empirical dispersion term =       36.6378217874 Hartrees.
 No density basis found on file   718.
 Leave Link  301 at Mon May  4 12:45:16 2020, MaxMem= 1073741824 cpu:       0.2
 (Enter /home/matheus/.gaussian/g09/l302.exe)
 NPDir=0 NMtPBC=     1 NCelOv=     1 NCel=       1 NClECP=     1 NCelD=      1
         NCelK=      1 NCelE2=     1 NClLst=     1 CellRange=     0.0.
 One-electron integrals computed using PRISM.
 NBasis=   197 RedAO= T  NBF=   197
 NBsUse=   197 1.00D-06 NBFU=   197
 Precomputing XC quadrature grid using
 IXCGrd= 2 IRadAn=           5 IRanWt=          -1 IRanGd=           0 AccXCQ= 0.00D+00.
 NRdTot=     427 NPtTot=      123512 NUsed=      126579 NTot=      126611
 NSgBfM=   229   229   229   229   229 NAtAll=     5     5.
 Leave Link  302 at Mon May  4 12:45:17 2020, MaxMem= 1073741824 cpu:       0.9
 (Enter /home/matheus/.gaussian/g09/l303.exe)
 DipDrv:  MaxL=1.
 Leave Link  303 at Mon May  4 12:45:17 2020, MaxMem= 1073741824 cpu:       0.2
 (Enter /home/matheus/.gaussian/g09/l401.exe)
 Harris functional with IExCor= 4639 diagonalized for initial guess.
 ExpMin= 2.53D-02 ExpMax= 1.17D+07 ExpMxC= 1.33D+04 IAcc=3 IRadAn=         5 AccDes= 0.00D+00
 HarFok:  IExCor= 4639 AccDes= 0.00D+00 IRadAn=         5 IDoV= 1
 ScaDFX=  1.000000  1.000000  1.000000  1.000000
 FoFCou: FMM=F IPFlag=           0 FMFlag=      100000 FMFlg1=           0
         NFxFlg=           0 DoJE=T BraDBF=F KetDBF=T FulRan=T
         Omega=  0.000000  0.000000  1.000000  0.000000  0.000000 ICntrl=     500 IOpCl=  0
         NMat0=    1 NMatS0=    1 NMatT0=    0 NMatD0=    1 NMtDS0=    0 NMtDT0=    0
         I1Cent=           4 NGrid=           0.
 Petite list used in FoFCou.
 Harris En= -145.946455983941    
 Initial guess orbital symmetries:
       Occupied  (A) (A) (A) (A) (A) (A) (A) (A) (A)
       Virtual   (A) (A) (A) (A) (A) (A) (A) (A) (A) (A) (A) (A)
                 (A) (A) (A) (A) (A) (A) (A) (A) (A) (A) (A) (A)
                 (A) (A) (A) (A) (A) (A) (A) (A) (A) (A) (A) (A)
                 (A) (A) (A) (A) (A) (A) (A) (A) (A) (A) (A) (A)
                 (A) (A) (A) (A) (A) (A) (A) (A) (A) (A) (A) (A)
                 (A) (A) (A) (A) (A) (A) (A) (A) (A) (A) (A) (A)
                 (A) (A) (A) (A) (A) (A) (A) (A) (A) (A) (A) (A)
                 (A) (A) (A) (A) (A) (A) (A) (A) (A) (A) (A) (A)
                 (A) (A) (A) (A) (A) (A) (A) (A) (A) (A) (A) (A)
                 (A) (A) (A) (A) (A) (A) (A) (A) (A) (A) (A) (A)
                 (A) (A) (A) (A) (A) (A) (A) (A) (A) (A) (A) (A)
                 (A) (A) (A) (A) (A) (A) (A) (A) (A) (A) (A) (A)
                 (A) (A) (A) (A) (A) (A) (A) (A) (A) (A) (A) (A)
                 (A) (A) (A) (A) (A) (A) (A) (A) (A) (A) (A) (A)
                 (A) (A) (A) (A) (A) (A) (A) (A) (A) (A) (A) (A)
                 (A) (A) (A) (A) (A) (A) (A) (A)
 The electronic state of the initial guess is 1-A.
 Leave Link  401 at Mon May  4 12:45:17 2020, MaxMem= 1073741824 cpu:       3.9
 (Enter /home/matheus/.gaussian/g09/l502.exe)
 Closed shell SCF:
 Requested convergence on RMS density matrix=1.00D-08 within 128 cycles.
 Requested convergence on MAX density matrix=1.00D-06.
 Requested convergence on             energy=1.00D-06.
 No special actions if energy rises.
 Using DIIS extrapolation, IDIIS=  1040.
 Integral symmetry usage will be decided dynamically.
       126521 words used for storage of precomputed grid.
 IEnd=      305468 IEndB=      305468 NGot=  1073741824 MDV=  1073505667
 LenX=  1073505667 LenY=  1073452785
 Fock matrices will be formed incrementally for  20 cycles.

 Cycle   1  Pass 1  IDiag  1:
 FoFJK:  IHMeth= 1 ICntrl=     0 DoSepK=T KAlg= 1 I1Cent= 0 FoldK=F
 FoFCou: FMM=F IPFlag=           0 FMFlag=      100000 FMFlg1=           0
         NFxFlg=           0 DoJE=T BraDBF=F KetDBF=F FulRan=T
         Omega=  0.000000  0.000000  1.000000  0.000000  0.000000 ICntrl=     500 IOpCl=  0
         NMat0=    1 NMatS0=    1 NMatT0=    0 NMatD0=    1 NMtDS0=    0 NMtDT0=    0
         I1Cent=           0 NGrid=           0.
 Symmetry not used in FoFCou.
 E= -151.459380601057    
 DIIS: error= 3.29D-02 at cycle   1 NSaved=   1.
 NSaved= 1 IEnMin= 1 EnMin= -151.459380601057     IErMin= 1 ErrMin= 3.29D-02
 ErrMax= 3.29D-02 EMaxC= 1.00D-01 BMatC= 3.22D-01 BMatP= 3.22D-01
 IDIUse=3 WtCom= 6.71D-01 WtEn= 3.29D-01
 Coeff-Com:  0.100D+01
 Coeff-En:   0.100D+01
 Coeff:      0.100D+01
 Gap=     0.549 Goal=   None    Shift=    0.000
 GapD=    0.549 DampG=2.000 DampE=0.500 DampFc=1.0000 IDamp=-1.
 RMSDP=2.48D-03 MaxDP=1.00D-01              OVMax= 1.21D-01

 Cycle   2  Pass 1  IDiag  1:
 RMSU=  1.72D-03    CP:  9.51D-01
 FoFJK:  IHMeth= 1 ICntrl=     0 DoSepK=T KAlg= 1 I1Cent= 0 FoldK=F
 E= -151.500021901459     Delta-E=       -0.040641300401 Rises=F Damp=F
 DIIS: error= 1.51D-02 at cycle   2 NSaved=   2.
 NSaved= 2 IEnMin= 2 EnMin= -151.500021901459     IErMin= 2 ErrMin= 1.51D-02
 ErrMax= 1.51D-02 EMaxC= 1.00D-01 BMatC= 1.02D-01 BMatP= 3.22D-01
 IDIUse=3 WtCom= 8.49D-01 WtEn= 1.51D-01
 Coeff-Com:  0.340D+00 0.660D+00
 Coeff-En:   0.339D+00 0.661D+00
 Coeff:      0.340D+00 0.660D+00
 Gap=     0.496 Goal=   None    Shift=    0.000
 RMSDP=1.02D-03 MaxDP=4.81D-02 DE=-4.06D-02 OVMax= 6.13D-02

 Cycle   3  Pass 1  IDiag  1:
 RMSU=  3.82D-04    CP:  9.72D-01  6.56D-01
 FoFJK:  IHMeth= 1 ICntrl=     0 DoSepK=T KAlg= 1 I1Cent= 0 FoldK=F
 E= -151.555310282225     Delta-E=       -0.055288380766 Rises=F Damp=F
 DIIS: error= 4.26D-03 at cycle   3 NSaved=   3.
 NSaved= 3 IEnMin= 3 EnMin= -151.555310282225     IErMin= 3 ErrMin= 4.26D-03
 ErrMax= 4.26D-03 EMaxC= 1.00D-01 BMatC= 6.03D-03 BMatP= 1.02D-01
 IDIUse=3 WtCom= 9.57D-01 WtEn= 4.26D-02
 Coeff-Com:  0.123D-01 0.203D+00 0.785D+00
 Coeff-En:   0.000D+00 0.000D+00 0.100D+01
 Coeff:      0.118D-01 0.194D+00 0.794D+00
 Gap=     0.429 Goal=   None    Shift=    0.000
 RMSDP=2.69D-04 MaxDP=9.36D-03 DE=-5.53D-02 OVMax= 1.64D-02

 Cycle   4  Pass 1  IDiag  1:
 RMSU=  7.58D-05    CP:  9.66D-01  7.50D-01  8.63D-01
 FoFJK:  IHMeth= 1 ICntrl=     0 DoSepK=T KAlg= 1 I1Cent= 0 FoldK=F
 E= -151.559236415132     Delta-E=       -0.003926132907 Rises=F Damp=F
 DIIS: error= 4.60D-04 at cycle   4 NSaved=   4.
 NSaved= 4 IEnMin= 4 EnMin= -151.559236415132     IErMin= 4 ErrMin= 4.60D-04
 ErrMax= 4.60D-04 EMaxC= 1.00D-01 BMatC= 7.13D-05 BMatP= 6.03D-03
 IDIUse=3 WtCom= 9.95D-01 WtEn= 4.60D-03
 Coeff-Com: -0.103D-02 0.160D-01 0.148D+00 0.837D+00
 Coeff-En:   0.000D+00 0.000D+00 0.000D+00 0.100D+01
 Coeff:     -0.102D-02 0.159D-01 0.148D+00 0.837D+00
 Gap=     0.426 Goal=   None    Shift=    0.000
 RMSDP=3.99D-05 MaxDP=2.16D-03 DE=-3.93D-03 OVMax= 1.88D-03

 Cycle   5  Pass 1  IDiag  1:
 RMSU=  1.41D-05    CP:  9.67D-01  7.45D-01  9.14D-01  1.13D+00
 FoFJK:  IHMeth= 1 ICntrl=     0 DoSepK=T KAlg= 1 I1Cent= 0 FoldK=F
 E= -151.559290644047     Delta-E=       -0.000054228916 Rises=F Damp=F
 DIIS: error= 5.29D-05 at cycle   5 NSaved=   5.
 NSaved= 5 IEnMin= 5 EnMin= -151.559290644047     IErMin= 5 ErrMin= 5.29D-05
 ErrMax= 5.29D-05 EMaxC= 1.00D-01 BMatC= 1.11D-06 BMatP= 7.13D-05
 IDIUse=1 WtCom= 1.00D+00 WtEn= 0.00D+00
 Coeff-Com: -0.559D-03-0.120D-01-0.479D-01-0.900D-01 0.115D+01
 Coeff:     -0.559D-03-0.120D-01-0.479D-01-0.900D-01 0.115D+01
 Gap=     0.425 Goal=   None    Shift=    0.000
 RMSDP=1.46D-05 MaxDP=5.92D-04 DE=-5.42D-05 OVMax= 8.99D-04

 Cycle   6  Pass 1  IDiag  1:
 RMSU=  3.01D-06    CP:  9.67D-01  7.45D-01  9.29D-01  1.22D+00  1.28D+00
 FoFJK:  IHMeth= 1 ICntrl=     0 DoSepK=T KAlg= 1 I1Cent= 0 FoldK=F
 E= -151.559293597684     Delta-E=       -0.000002953637 Rises=F Damp=F
 DIIS: error= 1.19D-05 at cycle   6 NSaved=   6.
 NSaved= 6 IEnMin= 6 EnMin= -151.559293597684     IErMin= 6 ErrMin= 1.19D-05
 ErrMax= 1.19D-05 EMaxC= 1.00D-01 BMatC= 3.79D-08 BMatP= 1.11D-06
 IDIUse=1 WtCom= 1.00D+00 WtEn= 0.00D+00
 Coeff-Com:  0.630D-04 0.203D-03-0.220D-02-0.171D-01-0.466D-01 0.107D+01
 Coeff:      0.630D-04 0.203D-03-0.220D-02-0.171D-01-0.466D-01 0.107D+01
 Gap=     0.425 Goal=   None    Shift=    0.000
 RMSDP=2.07D-06 MaxDP=7.51D-05 DE=-2.95D-06 OVMax= 2.15D-04

 Cycle   7  Pass 1  IDiag  1:
 RMSU=  6.68D-07    CP:  9.67D-01  7.45D-01  9.30D-01  1.23D+00  1.33D+00
                    CP:  1.32D+00
 FoFJK:  IHMeth= 1 ICntrl=     0 DoSepK=T KAlg= 1 I1Cent= 0 FoldK=F
 E= -151.559293714196     Delta-E=       -0.000000116511 Rises=F Damp=F
 DIIS: error= 5.68D-06 at cycle   7 NSaved=   7.
 NSaved= 7 IEnMin= 7 EnMin= -151.559293714196     IErMin= 7 ErrMin= 5.68D-06
 ErrMax= 5.68D-06 EMaxC= 1.00D-01 BMatC= 1.18D-08 BMatP= 3.79D-08
 IDIUse=1 WtCom= 1.00D+00 WtEn= 0.00D+00
 Coeff-Com:  0.470D-04 0.632D-03 0.160D-02-0.245D-02-0.721D-01 0.353D+00
 Coeff-Com:  0.719D+00
 Coeff:      0.470D-04 0.632D-03 0.160D-02-0.245D-02-0.721D-01 0.353D+00
 Coeff:      0.719D+00
 Gap=     0.425 Goal=   None    Shift=    0.000
 RMSDP=5.39D-07 MaxDP=2.49D-05 DE=-1.17D-07 OVMax= 6.02D-05

 Cycle   8  Pass 1  IDiag  1:
 RMSU=  3.09D-07    CP:  9.67D-01  7.45D-01  9.30D-01  1.23D+00  1.34D+00
                    CP:  1.37D+00  1.09D+00
 FoFJK:  IHMeth= 1 ICntrl=     0 DoSepK=T KAlg= 1 I1Cent= 0 FoldK=F
 E= -151.559293727300     Delta-E=       -0.000000013104 Rises=F Damp=F
 DIIS: error= 3.60D-06 at cycle   8 NSaved=   8.
 NSaved= 8 IEnMin= 8 EnMin= -151.559293727300     IErMin= 8 ErrMin= 3.60D-06
 ErrMax= 3.60D-06 EMaxC= 1.00D-01 BMatC= 4.48D-09 BMatP= 1.18D-08
 IDIUse=1 WtCom= 1.00D+00 WtEn= 0.00D+00
 Coeff-Com:  0.162D-06 0.199D-03 0.139D-02 0.335D-02-0.151D-01-0.190D+00
 Coeff-Com:  0.395D+00 0.805D+00
 Coeff:      0.162D-06 0.199D-03 0.139D-02 0.335D-02-0.151D-01-0.190D+00
 Coeff:      0.395D+00 0.805D+00
 Gap=     0.425 Goal=   None    Shift=    0.000
 RMSDP=3.78D-07 MaxDP=1.41D-05 DE=-1.31D-08 OVMax= 4.75D-05

 Cycle   9  Pass 1  IDiag  1:
 RMSU=  1.13D-07    CP:  9.67D-01  7.45D-01  9.30D-01  1.23D+00  1.34D+00
                    CP:  1.41D+00  1.37D+00  1.06D+00
 FoFJK:  IHMeth= 1 ICntrl=     0 DoSepK=T KAlg= 1 I1Cent= 0 FoldK=F
 E= -151.559293732825     Delta-E=       -0.000000005525 Rises=F Damp=F
 DIIS: error= 4.94D-07 at cycle   9 NSaved=   9.
 NSaved= 9 IEnMin= 9 EnMin= -151.559293732825     IErMin= 9 ErrMin= 4.94D-07
 ErrMax= 4.94D-07 EMaxC= 1.00D-01 BMatC= 7.43D-11 BMatP= 4.48D-09
 IDIUse=1 WtCom= 1.00D+00 WtEn= 0.00D+00
 Coeff-Com: -0.407D-06-0.461D-04-0.288D-03-0.771D-03 0.818D-02-0.214D-02
 Coeff-Com: -0.854D-01-0.877D-01 0.117D+01
 Coeff:     -0.407D-06-0.461D-04-0.288D-03-0.771D-03 0.818D-02-0.214D-02
 Coeff:     -0.854D-01-0.877D-01 0.117D+01
 Gap=     0.425 Goal=   None    Shift=    0.000
 RMSDP=1.14D-07 MaxDP=2.20D-06 DE=-5.52D-09 OVMax= 1.43D-05

 Cycle  10  Pass 1  IDiag  1:
 RMSU=  2.02D-08    CP:  9.67D-01  7.45D-01  9.30D-01  1.23D+00  1.34D+00
                    CP:  1.40D+00  1.43D+00  1.19D+00  1.40D+00
 FoFJK:  IHMeth= 1 ICntrl=     0 DoSepK=T KAlg= 1 I1Cent= 0 FoldK=F
 E= -151.559293733096     Delta-E=       -0.000000000271 Rises=F Damp=F
 DIIS: error= 1.29D-07 at cycle  10 NSaved=  10.
 NSaved=10 IEnMin=10 EnMin= -151.559293733096     IErMin=10 ErrMin= 1.29D-07
 ErrMax= 1.29D-07 EMaxC= 1.00D-01 BMatC= 6.51D-12 BMatP= 7.43D-11
 IDIUse=1 WtCom= 1.00D+00 WtEn= 0.00D+00
 Coeff-Com:  0.168D-06-0.158D-04-0.130D-03-0.392D-03 0.173D-02 0.148D-01
 Coeff-Com: -0.359D-01-0.705D-01-0.101D-01 0.110D+01
 Coeff:      0.168D-06-0.158D-04-0.130D-03-0.392D-03 0.173D-02 0.148D-01
 Coeff:     -0.359D-01-0.705D-01-0.101D-01 0.110D+01
 Gap=     0.425 Goal=   None    Shift=    0.000
 RMSDP=3.31D-08 MaxDP=6.61D-07 DE=-2.71D-10 OVMax= 4.70D-06

 Cycle  11  Pass 1  IDiag  1:
 RMSU=  5.89D-09    CP:  9.67D-01  7.45D-01  9.30D-01  1.23D+00  1.34D+00
                    CP:  1.40D+00  1.45D+00  1.23D+00  1.51D+00  1.45D+00
 FoFJK:  IHMeth= 1 ICntrl=     0 DoSepK=T KAlg= 1 I1Cent= 0 FoldK=F
 E= -151.559293733118     Delta-E=       -0.000000000022 Rises=F Damp=F
 DIIS: error= 3.93D-08 at cycle  11 NSaved=  11.
 NSaved=11 IEnMin=11 EnMin= -151.559293733118     IErMin=11 ErrMin= 3.93D-08
 ErrMax= 3.93D-08 EMaxC= 1.00D-01 BMatC= 3.84D-13 BMatP= 6.51D-12
 IDIUse=1 WtCom= 1.00D+00 WtEn= 0.00D+00
 Coeff-Com: -0.141D-06 0.121D-05 0.189D-04 0.417D-04-0.455D-03-0.654D-03
 Coeff-Com:  0.824D-02 0.107D-01-0.807D-01-0.585D-01 0.112D+01
 Coeff:     -0.141D-06 0.121D-05 0.189D-04 0.417D-04-0.455D-03-0.654D-03
 Coeff:      0.824D-02 0.107D-01-0.807D-01-0.585D-01 0.112D+01
 Gap=     0.425 Goal=   None    Shift=    0.000
 RMSDP=8.50D-09 MaxDP=3.08D-07 DE=-2.24D-11 OVMax= 9.82D-07

 SCF Done:  E(RwB97XD) =  -151.559293733     A.U. after   11 cycles
             Convg  =    0.8503D-08             -V/T =  2.0060
 KE= 1.506509540512D+02 PE=-4.317061378876D+02 EE= 9.285806831589D+01
 Leave Link  502 at Mon May  4 12:45:49 2020, MaxMem= 1073741824 cpu:     256.6
 (Enter /home/matheus/.gaussian/g09/l601.exe)
 Copying SCF densities to generalized density rwf, IOpCl= 0 IROHF=0.

 **********************************************************************

            Population analysis using the SCF density.

 **********************************************************************

 Orbital symmetries:
       Occupied  (A) (A) (A) (A) (A) (A) (A) (A) (A)
       Virtual   (A) (A) (A) (A) (A) (A) (A) (A) (A) (A) (A) (A)
                 (A) (A) (A) (A) (A) (A) (A) (A) (A) (A) (A) (A)
                 (A) (A) (A) (A) (A) (A) (A) (A) (A) (A) (A) (A)
                 (A) (A) (A) (A) (A) (A) (A) (A) (A) (A) (A) (A)
                 (A) (A) (A) (A) (A) (A) (A) (A) (A) (A) (A) (A)
                 (A) (A) (A) (A) (A) (A) (A) (A) (A) (A) (A) (A)
                 (A) (A) (A) (A) (A) (A) (A) (A) (A) (A) (A) (A)
                 (A) (A) (A) (A) (A) (A) (A) (A) (A) (A) (A) (A)
                 (A) (A) (A) (A) (A) (A) (A) (A) (A) (A) (A) (A)
                 (A) (A) (A) (A) (A) (A) (A) (A) (A) (A) (A) (A)
                 (A) (A) (A) (A) (A) (A) (A) (A) (A) (A) (A) (A)
                 (A) (A) (A) (A) (A) (A) (A) (A) (A) (A) (A) (A)
                 (A) (A) (A) (A) (A) (A) (A) (A) (A) (A) (A) (A)
                 (A) (A) (A) (A) (A) (A) (A) (A) (A) (A) (A) (A)
                 (A) (A) (A) (A) (A) (A) (A) (A) (A) (A) (A) (A)
                 (A) (A) (A) (A) (A) (A) (A) (A)
 The electronic state is 1-A.
 Alpha  occ. eigenvalues --  -19.34332 -19.34327  -1.24946  -1.03432  -0.67999
 Alpha  occ. eigenvalues --   -0.57376  -0.53916  -0.43701  -0.39895
 Alpha virt. eigenvalues --    0.02647   0.03955   0.07289   0.08558   0.09526
 Alpha virt. eigenvalues --    0.10448   0.10756   0.14506   0.17517   0.17872
 Alpha virt. eigenvalues --    0.18634   0.19130   0.20843   0.22859   0.25411
 Alpha virt. eigenvalues --    0.27247   0.30247   0.31050   0.33056   0.34181
 Alpha virt. eigenvalues --    0.34842   0.37138   0.38089   0.39244   0.40104
 Alpha virt. eigenvalues --    0.43343   0.45130   0.46401   0.47994   0.50442
 Alpha virt. eigenvalues --    0.52675   0.58058   0.59819   0.61930   0.65393
 Alpha virt. eigenvalues --    0.69472   0.74461   0.75428   0.76413   0.78310
 Alpha virt. eigenvalues --    0.80069   0.81114   0.86700   0.89638   0.90353
 Alpha virt. eigenvalues --    0.90899   0.93317   0.94617   0.95451   0.98506
 Alpha virt. eigenvalues --    0.99575   1.00866   1.03357   1.08509   1.11483
 Alpha virt. eigenvalues --    1.13846   1.16392   1.19882   1.21154   1.22573
 Alpha virt. eigenvalues --    1.26312   1.29913   1.30985   1.31354   1.33498
 Alpha virt. eigenvalues --    1.33887   1.35219   1.38096   1.38849   1.39855
 Alpha virt. eigenvalues --    1.45416   1.47757   1.51236   1.52979   1.55298
 Alpha virt. eigenvalues --    1.59045   1.63921   1.66346   1.72938   1.77048
 Alpha virt. eigenvalues --    1.81999   1.85325   1.92234   1.97409   2.01438
 Alpha virt. eigenvalues --    2.03140   2.07713   2.14226   2.18963   2.21158
 Alpha virt. eigenvalues --    2.27141   2.27860   2.31688   2.35428   2.36526
 Alpha virt. eigenvalues --    2.48372   2.53420   2.55803   2.59996   2.62028
 Alpha virt. eigenvalues --    2.66067   2.73407   2.79050   2.85064   2.92705
 Alpha virt. eigenvalues --    2.99434   3.08069   3.09464   3.26365   3.30633
 Alpha virt. eigenvalues --    3.40417   3.55430   3.62674   3.66656   3.78085
 Alpha virt. eigenvalues --    3.78887   3.81751   3.82404   3.82902   3.84331
 Alpha virt. eigenvalues --    3.87143   3.89777   3.92829   3.95627   3.96110
 Alpha virt. eigenvalues --    3.98183   4.01262   4.06189   4.10085   4.13127
 Alpha virt. eigenvalues --    4.15024   4.24191   4.25903   4.30062   4.36337
 Alpha virt. eigenvalues --    4.37322   4.49564   4.58814   4.71539   4.93221
 Alpha virt. eigenvalues --    4.96952   4.99344   5.13185   5.15539   5.18628
 Alpha virt. eigenvalues --    5.43154   5.84724   6.01291   6.13842   6.20015
 Alpha virt. eigenvalues --    6.25301   6.32249   6.41587   6.49618   6.61897
 Alpha virt. eigenvalues --    6.75726   6.77226   6.81776   6.84612   6.89290
 Alpha virt. eigenvalues --    6.90112   6.93410   6.96006   7.01422   7.07599
 Alpha virt. eigenvalues --    7.13470   7.23891   7.46648   7.53757   7.80181
 Alpha virt. eigenvalues --    8.08891   8.12431  10.92490  14.12469  14.66282
 Alpha virt. eigenvalues --   14.83864  14.89222  15.10884  29.03455  29.03699
 Alpha virt. eigenvalues --   29.08237  29.14425  29.23537  49.12428 148.32108
 Alpha virt. eigenvalues --  148.40107 148.71841 752.55683
          Condensed to atoms (all electrons):
              1          2          3          4          5
     1  O    8.173290  -0.171767   0.206652   0.008221   0.001012
     2  O   -0.171767   8.198484   0.017320   0.198116  -0.001896
     3  H    0.206652   0.017320   0.557595   0.000913  -0.001559
     4  H    0.008221   0.198116   0.000913   0.563902  -0.004163
     5  Kr   0.001012  -0.001896  -0.001559  -0.004163   0.001033
 Mulliken atomic charges:
              1
     1  O   -0.217408
     2  O   -0.240255
     3  H    0.219079
     4  H    0.233010
     5  Kr   0.005574
 Sum of Mulliken atomic charges =   0.00000
 Mulliken charges with hydrogens summed into heavy atoms:
              1
     1  O    0.001671
     2  O   -0.007245
     5  Kr   0.005574
 Sum of Mulliken charges with hydrogens summed into heavy atoms =   0.00000
          Condensed to fragments (all electrons):
     1      -0.005574
     2       0.005574
 Electronic spatial extent (au):  <R**2>=            319.0818
 Charge=              0.0000 electrons
 Dipole moment (field-independent basis, Debye):
    X=              2.0751    Y=             -0.1460    Z=              1.4898  Tot=              2.5586
 Quadrupole moment (field-independent basis, Debye-Ang):
   XX=            -19.0606   YY=            -10.2512   ZZ=            -11.5948
   XY=              1.6086   XZ=             -2.3091   YZ=             -1.7505
 Traceless Quadrupole moment (field-independent basis, Debye-Ang):
   XX=             -5.4251   YY=              3.3844   ZZ=              2.0407
   XY=              1.6086   XZ=             -2.3091   YZ=             -1.7505
 Octapole moment (field-independent basis, Debye-Ang**2):
  XXX=             89.9995  YYY=             -1.0126  ZZZ=              1.0333  XYY=             22.8871
  XXY=             -4.0760  XXZ=              3.5886  XZZ=             23.1104  YZZ=             -1.7116
  YYZ=              2.1656  XYZ=              3.0562
 Hexadecapole moment (field-independent basis, Debye-Ang**3):
 XXXX=           -339.9871 YYYY=            -44.6043 ZZZZ=            -11.5890 XXXY=              7.1052
 XXXZ=             -5.8299 YYYX=              2.7652 YYYZ=             -2.5789 ZZZX=             -2.0009
 ZZZY=             -1.8149 XXYY=            -59.7088 XXZZ=            -50.1423 YYZZ=             -9.9162
 XXYZ=             -5.5266 YYXZ=             -3.6498 ZZXY=              2.7762
 N-N= 3.663782178739D+01 E-N=-4.317061365509D+02  KE= 1.506509540512D+02
 No NMR shielding tensors so no spin-rotation constants.
 Leave Link  601 at Mon May  4 12:45:49 2020, MaxMem= 1073741824 cpu:       0.7
 (Enter /home/matheus/.gaussian/g09/l122.exe)
 Counterpoise: doing DCBS calculation for fragment   2 NewBq=T
 Leave Link  122 at Mon May  4 12:45:49 2020, MaxMem= 1073741824 cpu:       0.0
 (Enter /home/matheus/.gaussian/g09/l301.exe)
 Basis read from rwf:  (5D, 7F)
 No pseudopotential information found on rwf file.
 There are   197 symmetry adapted basis functions of A   symmetry.
 Integral buffers will be    131072 words long.
 Raffenetti 2 integral format.
 Two-electron integral symmetry is turned on.
   197 basis functions,   415 primitive gaussians,   229 cartesian basis functions
    18 alpha electrons       18 beta electrons
       nuclear repulsion energy         0.0000000000 Hartrees.
 IExCor= 4639 DFT=T Ex+Corr=wB97XD ExCW=0 ScaHFX=  1.000000
 ScaDFX=  1.000000  1.000000  1.000000  1.000000 ScalE2=  1.000000  1.000000
 IRadAn=      5 IRanWt=     -1 IRanGd=            0 ICorTp=0
  HFx wShort=  0.000000 wLong=  0.250000 cFull=  0.222036 cShort=  0.000000 cLong=  0.777964
  DFx wShort=  0.000000 wLong=  0.250000 cFull=  0.000000 cShort=  0.000000 cLong=  1.000000
 NAtoms=    5 NActive=    5 NUniq=    5 SFac= 1.00D+00 NAtFMM=   60 NAOKFM=F Big=F
 R6Disp: Dispersion energy =         0.0000000000 Hartrees.
 Nuclear repulsion after empirical dispersion term =        0.0000000000 Hartrees.
 No density basis found on file   718.
 Leave Link  301 at Mon May  4 12:45:49 2020, MaxMem= 1073741824 cpu:       0.2
 (Enter /home/matheus/.gaussian/g09/l302.exe)
 NPDir=0 NMtPBC=     1 NCelOv=     1 NCel=       1 NClECP=     1 NCelD=      1
         NCelK=      1 NCelE2=     1 NClLst=     1 CellRange=     0.0.
 One-electron integrals computed using PRISM.
 NBasis=   197 RedAO= T  NBF=   197
 NBsUse=   197 1.00D-06 NBFU=   197
 Precomputing XC quadrature grid using
 IXCGrd= 2 IRadAn=           5 IRanWt=          -1 IRanGd=           0 AccXCQ= 0.00D+00.
 NRdTot=     427 NPtTot=      123512 NUsed=      126579 NTot=      126611
 NSgBfM=   229   229   229   229   229 NAtAll=     5     5.
 Leave Link  302 at Mon May  4 12:45:49 2020, MaxMem= 1073741824 cpu:       1.0
 (Enter /home/matheus/.gaussian/g09/l303.exe)
 DipDrv:  MaxL=1.
 Leave Link  303 at Mon May  4 12:45:50 2020, MaxMem= 1073741824 cpu:       0.2
 (Enter /home/matheus/.gaussian/g09/l401.exe)
 Harris functional with IExCor= 4639 diagonalized for initial guess.
 ExpMin= 2.53D-02 ExpMax= 1.17D+07 ExpMxC= 1.33D+04 IAcc=3 IRadAn=         5 AccDes= 0.00D+00
 HarFok:  IExCor= 4639 AccDes= 0.00D+00 IRadAn=         5 IDoV= 1
 ScaDFX=  1.000000  1.000000  1.000000  1.000000
 FoFCou: FMM=F IPFlag=           0 FMFlag=      100000 FMFlg1=           0
         NFxFlg=           0 DoJE=T BraDBF=F KetDBF=T FulRan=T
         Omega=  0.000000  0.000000  1.000000  0.000000  0.000000 ICntrl=     500 IOpCl=  0
         NMat0=    1 NMatS0=    1 NMatT0=    0 NMatD0=    1 NMtDS0=    0 NMtDT0=    0
         I1Cent=           4 NGrid=           0.
 Petite list used in FoFCou.
 Harris En= -2729.46044415846    
 Initial guess orbital symmetries:
       Occupied  (A) (A) (A) (A) (A) (A) (A) (A) (A) (A) (A) (A)
                 (A) (A) (A) (A) (A) (A)
       Virtual   (A) (A) (A) (A) (A) (A) (A) (A) (A) (A) (A) (A)
                 (A) (A) (A) (A) (A) (A) (A) (A) (A) (A) (A) (A)
                 (A) (A) (A) (A) (A) (A) (A) (A) (A) (A) (A) (A)
                 (A) (A) (A) (A) (A) (A) (A) (A) (A) (A) (A) (A)
                 (A) (A) (A) (A) (A) (A) (A) (A) (A) (A) (A) (A)
                 (A) (A) (A) (A) (A) (A) (A) (A) (A) (A) (A) (A)
                 (A) (A) (A) (A) (A) (A) (A) (A) (A) (A) (A) (A)
                 (A) (A) (A) (A) (A) (A) (A) (A) (A) (A) (A) (A)
                 (A) (A) (A) (A) (A) (A) (A) (A) (A) (A) (A) (A)
                 (A) (A) (A) (A) (A) (A) (A) (A) (A) (A) (A) (A)
                 (A) (A) (A) (A) (A) (A) (A) (A) (A) (A) (A) (A)
                 (A) (A) (A) (A) (A) (A) (A) (A) (A) (A) (A) (A)
                 (A) (A) (A) (A) (A) (A) (A) (A) (A) (A) (A) (A)
                 (A) (A) (A) (A) (A) (A) (A) (A) (A) (A) (A) (A)
                 (A) (A) (A) (A) (A) (A) (A) (A) (A) (A) (A)
 The electronic state of the initial guess is 1-A.
 Leave Link  401 at Mon May  4 12:45:50 2020, MaxMem= 1073741824 cpu:       3.7
 (Enter /home/matheus/.gaussian/g09/l502.exe)
 Closed shell SCF:
 Requested convergence on RMS density matrix=1.00D-08 within 128 cycles.
 Requested convergence on MAX density matrix=1.00D-06.
 Requested convergence on             energy=1.00D-06.
 No special actions if energy rises.
 Using DIIS extrapolation, IDIIS=  1040.
 Integral symmetry usage will be decided dynamically.
       126521 words used for storage of precomputed grid.
 IEnd=      305468 IEndB=      305468 NGot=  1073741824 MDV=  1073505667
 LenX=  1073505667 LenY=  1073452785
 Fock matrices will be formed incrementally for  20 cycles.

 Cycle   1  Pass 1  IDiag  1:
 FoFJK:  IHMeth= 1 ICntrl=     0 DoSepK=T KAlg= 1 I1Cent= 0 FoldK=F
 FoFCou: FMM=F IPFlag=           0 FMFlag=      100000 FMFlg1=           0
         NFxFlg=           0 DoJE=T BraDBF=F KetDBF=F FulRan=T
         Omega=  0.000000  0.000000  1.000000  0.000000  0.000000 ICntrl=     500 IOpCl=  0
         NMat0=    1 NMatS0=    1 NMatT0=    0 NMatD0=    1 NMtDS0=    0 NMtDT0=    0
         I1Cent=           0 NGrid=           0.
 Symmetry not used in FoFCou.
 E= -2753.44660366897    
 DIIS: error= 7.31D-02 at cycle   1 NSaved=   1.
 NSaved= 1 IEnMin= 1 EnMin= -2753.44660366897     IErMin= 1 ErrMin= 7.31D-02
 ErrMax= 7.31D-02 EMaxC= 1.00D-01 BMatC= 1.90D+00 BMatP= 1.90D+00
 IDIUse=3 WtCom= 2.69D-01 WtEn= 7.31D-01
 Coeff-Com:  0.100D+01
 Coeff-En:   0.100D+01
 Coeff:      0.100D+01
 Gap=     0.654 Goal=   None    Shift=    0.000
 GapD=    0.654 DampG=2.000 DampE=0.500 DampFc=1.0000 IDamp=-1.
 RMSDP=5.59D-03 MaxDP=3.68D-01              OVMax= 1.83D-01

 Cycle   2  Pass 1  IDiag  1:
 RMSU=  3.89D-03    CP:  1.04D+00
 FoFJK:  IHMeth= 1 ICntrl=     0 DoSepK=T KAlg= 1 I1Cent= 0 FoldK=F
 E= -2753.72371961089     Delta-E=       -0.277115941917 Rises=F Damp=F
 DIIS: error= 3.12D-02 at cycle   2 NSaved=   2.
 NSaved= 2 IEnMin= 2 EnMin= -2753.72371961089     IErMin= 2 ErrMin= 3.12D-02
 ErrMax= 3.12D-02 EMaxC= 1.00D-01 BMatC= 4.67D-01 BMatP= 1.90D+00
 IDIUse=3 WtCom= 6.88D-01 WtEn= 3.12D-01
 Coeff-Com:  0.326D+00 0.674D+00
 Coeff-En:   0.160D+00 0.840D+00
 Coeff:      0.274D+00 0.726D+00
 Gap=     0.492 Goal=   None    Shift=    0.000
 RMSDP=2.51D-03 MaxDP=1.60D-01 DE=-2.77D-01 OVMax= 7.66D-02

 Cycle   3  Pass 1  IDiag  1:
 RMSU=  3.65D-04    CP:  1.03D+00  5.60D-01
 FoFJK:  IHMeth= 1 ICntrl=     0 DoSepK=T KAlg= 1 I1Cent= 0 FoldK=F
 E= -2753.86706285750     Delta-E=       -0.143343246609 Rises=F Damp=F
 DIIS: error= 4.22D-03 at cycle   3 NSaved=   3.
 NSaved= 3 IEnMin= 3 EnMin= -2753.86706285750     IErMin= 3 ErrMin= 4.22D-03
 ErrMax= 4.22D-03 EMaxC= 1.00D-01 BMatC= 1.02D-02 BMatP= 4.67D-01
 IDIUse=3 WtCom= 9.58D-01 WtEn= 4.22D-02
 Coeff-Com: -0.779D-02 0.116D+00 0.891D+00
 Coeff-En:   0.000D+00 0.000D+00 0.100D+01
 Coeff:     -0.746D-02 0.111D+00 0.896D+00
 Gap=     0.518 Goal=   None    Shift=    0.000
 RMSDP=2.93D-04 MaxDP=1.74D-02 DE=-1.43D-01 OVMax= 1.20D-02

 Cycle   4  Pass 1  IDiag  1:
 RMSU=  4.02D-05    CP:  1.03D+00  6.11D-01  9.68D-01
 FoFJK:  IHMeth= 1 ICntrl=     0 DoSepK=T KAlg= 1 I1Cent= 0 FoldK=F
 E= -2753.87022177245     Delta-E=       -0.003158914955 Rises=F Damp=F
 DIIS: error= 1.90D-04 at cycle   4 NSaved=   4.
 NSaved= 4 IEnMin= 4 EnMin= -2753.87022177245     IErMin= 4 ErrMin= 1.90D-04
 ErrMax= 1.90D-04 EMaxC= 1.00D-01 BMatC= 1.39D-05 BMatP= 1.02D-02
 IDIUse=3 WtCom= 9.98D-01 WtEn= 1.90D-03
 Coeff-Com: -0.252D-03-0.174D-01-0.768D-01 0.109D+01
 Coeff-En:   0.000D+00 0.000D+00 0.000D+00 0.100D+01
 Coeff:     -0.252D-03-0.173D-01-0.767D-01 0.109D+01
 Gap=     0.516 Goal=   None    Shift=    0.000
 RMSDP=2.27D-05 MaxDP=8.66D-04 DE=-3.16D-03 OVMax= 9.54D-04

 Cycle   5  Pass 1  IDiag  1:
 RMSU=  8.67D-06    CP:  1.03D+00  6.09D-01  9.88D-01  1.23D+00
 FoFJK:  IHMeth= 1 ICntrl=     0 DoSepK=T KAlg= 1 I1Cent= 0 FoldK=F
 E= -2753.87023024305     Delta-E=       -0.000008470602 Rises=F Damp=F
 DIIS: error= 1.59D-05 at cycle   5 NSaved=   5.
 NSaved= 5 IEnMin= 5 EnMin= -2753.87023024305     IErMin= 5 ErrMin= 1.59D-05
 ErrMax= 1.59D-05 EMaxC= 1.00D-01 BMatC= 4.76D-08 BMatP= 1.39D-05
 IDIUse=1 WtCom= 1.00D+00 WtEn= 0.00D+00
 Coeff-Com:  0.754D-04 0.118D-02 0.146D-02-0.191D+00 0.119D+01
 Coeff:      0.754D-04 0.118D-02 0.146D-02-0.191D+00 0.119D+01
 Gap=     0.516 Goal=   None    Shift=    0.000
 RMSDP=3.64D-06 MaxDP=1.46D-04 DE=-8.47D-06 OVMax= 2.09D-04

 Cycle   6  Pass 1  IDiag  1:
 RMSU=  7.18D-07    CP:  1.03D+00  6.09D-01  9.90D-01  1.27D+00  1.18D+00
 FoFJK:  IHMeth= 1 ICntrl=     0 DoSepK=T KAlg= 1 I1Cent= 0 FoldK=F
 E= -2753.87023038393     Delta-E=       -0.000000140876 Rises=F Damp=F
 DIIS: error= 1.72D-06 at cycle   6 NSaved=   6.
 NSaved= 6 IEnMin= 6 EnMin= -2753.87023038393     IErMin= 6 ErrMin= 1.72D-06
 ErrMax= 1.72D-06 EMaxC= 1.00D-01 BMatC= 6.56D-10 BMatP= 4.76D-08
 IDIUse=1 WtCom= 1.00D+00 WtEn= 0.00D+00
 Coeff-Com:  0.680D-05 0.304D-03 0.814D-03-0.411D-01 0.189D+00 0.851D+00
 Coeff:      0.680D-05 0.304D-03 0.814D-03-0.411D-01 0.189D+00 0.851D+00
 Gap=     0.516 Goal=   None    Shift=    0.000
 RMSDP=2.26D-07 MaxDP=8.53D-06 DE=-1.41D-07 OVMax= 1.03D-05

 Cycle   7  Pass 1  IDiag  1:
 RMSU=  6.88D-08    CP:  1.03D+00  6.09D-01  9.90D-01  1.27D+00  1.19D+00
                    CP:  1.11D+00
 FoFJK:  IHMeth= 1 ICntrl=     0 DoSepK=T KAlg= 1 I1Cent= 0 FoldK=F
 E= -2753.87023038464     Delta-E=       -0.000000000707 Rises=F Damp=F
 DIIS: error= 1.81D-07 at cycle   7 NSaved=   7.
 NSaved= 7 IEnMin= 7 EnMin= -2753.87023038464     IErMin= 7 ErrMin= 1.81D-07
 ErrMax= 1.81D-07 EMaxC= 1.00D-01 BMatC= 2.03D-11 BMatP= 6.56D-10
 IDIUse=1 WtCom= 1.00D+00 WtEn= 0.00D+00
 Coeff-Com: -0.139D-05 0.194D-04 0.139D-03 0.870D-04-0.116D-01 0.107D+00
 Coeff-Com:  0.904D+00
 Coeff:     -0.139D-05 0.194D-04 0.139D-03 0.870D-04-0.116D-01 0.107D+00
 Coeff:      0.904D+00
 Gap=     0.516 Goal=   None    Shift=    0.000
 RMSDP=4.93D-08 MaxDP=2.02D-06 DE=-7.07D-10 OVMax= 1.99D-06

 Cycle   8  Pass 1  IDiag  1:
 RMSU=  1.50D-08    CP:  1.03D+00  6.09D-01  9.90D-01  1.27D+00  1.20D+00
                    CP:  1.15D+00  1.09D+00
 FoFJK:  IHMeth= 1 ICntrl=     0 DoSepK=T KAlg= 1 I1Cent= 0 FoldK=F
 E= -2753.87023038465     Delta-E=       -0.000000000019 Rises=F Damp=F
 DIIS: error= 5.68D-08 at cycle   8 NSaved=   8.
 NSaved= 8 IEnMin= 8 EnMin= -2753.87023038465     IErMin= 8 ErrMin= 5.68D-08
 ErrMax= 5.68D-08 EMaxC= 1.00D-01 BMatC= 1.48D-12 BMatP= 2.03D-11
 IDIUse=1 WtCom= 1.00D+00 WtEn= 0.00D+00
 Coeff-Com: -0.102D-06-0.514D-05 0.179D-05 0.158D-02-0.827D-02-0.205D-01
 Coeff-Com:  0.111D+00 0.916D+00
 Coeff:     -0.102D-06-0.514D-05 0.179D-05 0.158D-02-0.827D-02-0.205D-01
 Coeff:      0.111D+00 0.916D+00
 Gap=     0.516 Goal=   None    Shift=    0.000
 RMSDP=1.25D-08 MaxDP=5.00D-07 DE=-1.91D-11 OVMax= 3.69D-07

 Cycle   9  Pass 1  IDiag  1:
 RMSU=  2.34D-09    CP:  1.03D+00  6.09D-01  9.90D-01  1.27D+00  1.20D+00
                    CP:  1.16D+00  1.14D+00  1.09D+00
 FoFJK:  IHMeth= 1 ICntrl=     0 DoSepK=T KAlg= 1 I1Cent= 0 FoldK=F
 E= -2753.87023038464     Delta-E=        0.000000000010 Rises=F Damp=F
 DIIS: error= 9.43D-09 at cycle   9 NSaved=   9.
 NSaved= 9 IEnMin= 8 EnMin= -2753.87023038465     IErMin= 9 ErrMin= 9.43D-09
 ErrMax= 9.43D-09 EMaxC= 1.00D-01 BMatC= 7.52D-15 BMatP= 1.48D-12
 IDIUse=1 WtCom= 1.00D+00 WtEn= 0.00D+00
 Coeff-Com:  0.109D-07 0.814D-07-0.156D-05-0.129D-03 0.655D-03 0.131D-02
 Coeff-Com: -0.216D-01-0.102D+00 0.112D+01
 Coeff:      0.109D-07 0.814D-07-0.156D-05-0.129D-03 0.655D-03 0.131D-02
 Coeff:     -0.216D-01-0.102D+00 0.112D+01
 Gap=     0.516 Goal=   None    Shift=    0.000
 RMSDP=1.54D-09 MaxDP=6.23D-08 DE= 1.00D-11 OVMax= 9.61D-08

 SCF Done:  E(RwB97XD) =  -2753.87023038     A.U. after    9 cycles
             Convg  =    0.1543D-08             -V/T =  2.0013
 KE= 2.750246084593D+03 PE=-6.580154752394D+03 EE= 1.076038437416D+03
 Leave Link  502 at Mon May  4 12:46:17 2020, MaxMem= 1073741824 cpu:     218.3
 (Enter /home/matheus/.gaussian/g09/l601.exe)
 Copying SCF densities to generalized density rwf, IOpCl= 0 IROHF=0.

 **********************************************************************

            Population analysis using the SCF density.

 **********************************************************************

 Orbital symmetries:
       Occupied  (A) (A) (A) (A) (A) (A) (A) (A) (A) (A) (A) (A)
                 (A) (A) (A) (A) (A) (A)
       Virtual   (A) (A) (A) (A) (A) (A) (A) (A) (A) (A) (A) (A)
                 (A) (A) (A) (A) (A) (A) (A) (A) (A) (A) (A) (A)
                 (A) (A) (A) (A) (A) (A) (A) (A) (A) (A) (A) (A)
                 (A) (A) (A) (A) (A) (A) (A) (A) (A) (A) (A) (A)
                 (A) (A) (A) (A) (A) (A) (A) (A) (A) (A) (A) (A)
                 (A) (A) (A) (A) (A) (A) (A) (A) (A) (A) (A) (A)
                 (A) (A) (A) (A) (A) (A) (A) (A) (A) (A) (A) (A)
                 (A) (A) (A) (A) (A) (A) (A) (A) (A) (A) (A) (A)
                 (A) (A) (A) (A) (A) (A) (A) (A) (A) (A) (A) (A)
                 (A) (A) (A) (A) (A) (A) (A) (A) (A) (A) (A) (A)
                 (A) (A) (A) (A) (A) (A) (A) (A) (A) (A) (A) (A)
                 (A) (A) (A) (A) (A) (A) (A) (A) (A) (A) (A) (A)
                 (A) (A) (A) (A) (A) (A) (A) (A) (A) (A) (A) (A)
                 (A) (A) (A) (A) (A) (A) (A) (A) (A) (A) (A) (A)
                 (A) (A) (A) (A) (A) (A) (A) (A) (A) (A) (A)
 The electronic state is 1-A.
 Alpha  occ. eigenvalues -- -513.08052 -67.34866 -60.89738 -60.89737 -60.89736
 Alpha  occ. eigenvalues --   -9.80180  -7.49479  -7.49478  -7.49478  -3.36164
 Alpha  occ. eigenvalues --   -3.36164  -3.36163  -3.36162  -3.36162  -1.00829
 Alpha  occ. eigenvalues --   -0.48267  -0.48264  -0.48263
 Alpha virt. eigenvalues --    0.03318   0.05257   0.08811   0.09629   0.12462
 Alpha virt. eigenvalues --    0.12731   0.13667   0.13927   0.16363   0.17386
 Alpha virt. eigenvalues --    0.18105   0.19657   0.20859   0.25578   0.26491
 Alpha virt. eigenvalues --    0.26943   0.28872   0.30881   0.32668   0.34741
 Alpha virt. eigenvalues --    0.35804   0.37627   0.38416   0.39829   0.41374
 Alpha virt. eigenvalues --    0.42248   0.43772   0.52495   0.54260   0.57694
 Alpha virt. eigenvalues --    0.59101   0.66547   0.68621   0.69110   0.71914
 Alpha virt. eigenvalues --    0.73402   0.74054   0.75936   0.77189   0.78287
 Alpha virt. eigenvalues --    0.79193   0.80970   0.83863   0.85070   0.87447
 Alpha virt. eigenvalues --    0.88208   0.89568   0.90773   0.91576   0.95852
 Alpha virt. eigenvalues --    0.96874   0.97680   0.99028   0.99495   1.01958
 Alpha virt. eigenvalues --    1.04436   1.06907   1.07643   1.11207   1.13307
 Alpha virt. eigenvalues --    1.16764   1.20771   1.23906   1.27587   1.31593
 Alpha virt. eigenvalues --    1.32431   1.39789   1.43336   1.44283   1.47342
 Alpha virt. eigenvalues --    1.55596   1.56854   1.58751   1.72188   1.76765
 Alpha virt. eigenvalues --    1.82358   1.82797   1.85947   1.97157   2.16085
 Alpha virt. eigenvalues --    2.20024   2.24985   2.28121   2.28777   2.30200
 Alpha virt. eigenvalues --    2.32342   2.33683   2.34598   2.38235   2.41320
 Alpha virt. eigenvalues --    2.42526   2.45578   2.45795   2.48643   2.49692
 Alpha virt. eigenvalues --    2.51540   2.53216   2.56399   2.58654   2.60393
 Alpha virt. eigenvalues --    2.60891   2.63049   2.65477   2.69555   2.72487
 Alpha virt. eigenvalues --    2.74756   2.78149   2.85149   2.87579   2.90167
 Alpha virt. eigenvalues --    2.95796   2.99643   3.06255   3.08521   3.18541
 Alpha virt. eigenvalues --    3.20366   3.30148   3.30911   3.40040   3.45274
 Alpha virt. eigenvalues --    3.61583   3.66494   3.82461   3.87146   4.04129
 Alpha virt. eigenvalues --    4.35580   4.47372   4.54582   4.58575   4.65578
 Alpha virt. eigenvalues --    4.72586   4.86979   4.87761   4.97852   5.06268
 Alpha virt. eigenvalues --    5.10650   5.28361   5.57650   5.67918   5.85459
 Alpha virt. eigenvalues --    5.88786   5.97081   6.15533   6.79744   6.82759
 Alpha virt. eigenvalues --    7.38893   7.49305   7.55013   7.64891   7.74603
 Alpha virt. eigenvalues --    7.80286   7.96732   8.16813   8.18237   8.22576
 Alpha virt. eigenvalues --    8.37700   8.52101   8.57730   8.88606   9.63343
 Alpha virt. eigenvalues --    9.76542   9.84607   9.86916   9.94847   9.99635
 Alpha virt. eigenvalues --   10.16852  10.27240  10.46869  10.96709  11.55646
 Alpha virt. eigenvalues --   11.62869  11.82303  12.04176  12.09916  13.20293
 Alpha virt. eigenvalues --   13.71712  14.52298  62.83812  64.69167
          Condensed to atoms (all electrons):
              1          2          3          4          5
     1  O    0.000845  -0.001154  -0.000349   0.000780  -0.005212
     2  O   -0.001154   0.004513   0.000402  -0.003260  -0.003546
     3  H   -0.000349   0.000402   0.000316  -0.000185  -0.002985
     4  H    0.000780  -0.003260  -0.000185   0.003326  -0.018061
     5  Kr  -0.005212  -0.003546  -0.002985  -0.018061  36.058140
 Mulliken atomic charges:
              1
     1  O    0.005090
     2  O    0.003044
     3  H    0.002800
     4  H    0.017400
     5  Kr  -0.028335
 Sum of Mulliken atomic charges =   0.00000
 Mulliken charges with hydrogens summed into heavy atoms:
              1
     1  O    0.007890
     2  O    0.020445
     5  Kr  -0.028335
 Sum of Mulliken charges with hydrogens summed into heavy atoms =   0.00000
          Condensed to fragments (all electrons):
     1       0.028335
     2      -0.028335
 Electronic spatial extent (au):  <R**2>=            162.1601
 Charge=              0.0000 electrons
 Dipole moment (field-independent basis, Debye):
    X=             -0.0008    Y=              0.0005    Z=              0.0002  Tot=              0.0010
 Quadrupole moment (field-independent basis, Debye-Ang):
   XX=            -17.6408   YY=            -17.6546   ZZ=            -17.6619
   XY=             -0.0026   XZ=             -0.0020   YZ=             -0.0009
 Traceless Quadrupole moment (field-independent basis, Debye-Ang):
   XX=              0.0116   YY=             -0.0022   ZZ=             -0.0095
   XY=             -0.0026   XZ=             -0.0020   YZ=             -0.0009
 Octapole moment (field-independent basis, Debye-Ang**2):
  XXX=            -51.7171  YYY=              0.3401  ZZZ=              0.1350  XYY=            -17.2539
  XXY=              0.1073  XXZ=              0.0417  XZZ=            -17.2583  YZZ=              0.1135
  YYZ=              0.0455  XYZ=             -0.0002
 Hexadecapole moment (field-independent basis, Debye-Ang**3):
 XXXX=           -119.5253 YYYY=            -18.4862 ZZZZ=            -18.5048 XXXY=              0.3212
 XXXZ=              0.1249 YYYX=              0.3225 YYYZ=             -0.0012 ZZZX=              0.1283
 ZZZY=             -0.0010 XXYY=            -23.0142 XXZZ=            -23.0193 YYZZ=             -6.1639
 XXYZ=             -0.0017 YYXZ=              0.0426 ZZXY=              0.1067
 N-N= 0.000000000000D+00 E-N=-6.580154751603D+03  KE= 2.750246084593D+03
 No NMR shielding tensors so no spin-rotation constants.
 Leave Link  601 at Mon May  4 12:46:17 2020, MaxMem= 1073741824 cpu:       0.8
 (Enter /home/matheus/.gaussian/g09/l122.exe)
 Counterpoise: doing MCBS calculation for fragment   1
 Leave Link  122 at Mon May  4 12:46:17 2020, MaxMem= 1073741824 cpu:       0.0
 (Enter /home/matheus/.gaussian/g09/l301.exe)
 Basis read from rwf:  (5D, 7F)
 No pseudopotential information found on rwf file.
 There are   138 symmetry adapted basis functions of A   symmetry.
 Integral buffers will be    131072 words long.
 Raffenetti 2 integral format.
 Two-electron integral symmetry is turned on.
   138 basis functions,   198 primitive gaussians,   160 cartesian basis functions
     9 alpha electrons        9 beta electrons
       nuclear repulsion energy        36.6380791177 Hartrees.
 IExCor= 4639 DFT=T Ex+Corr=wB97XD ExCW=0 ScaHFX=  1.000000
 ScaDFX=  1.000000  1.000000  1.000000  1.000000 ScalE2=  1.000000  1.000000
 IRadAn=      5 IRanWt=     -1 IRanGd=            0 ICorTp=0
  HFx wShort=  0.000000 wLong=  0.250000 cFull=  0.222036 cShort=  0.000000 cLong=  0.777964
  DFx wShort=  0.000000 wLong=  0.250000 cFull=  0.000000 cShort=  0.000000 cLong=  1.000000
 NAtoms=    5 NActive=    4 NUniq=    4 SFac= 1.00D+00 NAtFMM=   60 NAOKFM=F Big=F
 R6Disp: Dispersion energy =        -0.0002573303 Hartrees.
 Nuclear repulsion after empirical dispersion term =       36.6378217874 Hartrees.
 No density basis found on file   718.
 Leave Link  301 at Mon May  4 12:46:18 2020, MaxMem= 1073741824 cpu:       0.2
 (Enter /home/matheus/.gaussian/g09/l302.exe)
 NPDir=0 NMtPBC=     1 NCelOv=     1 NCel=       1 NClECP=     1 NCelD=      1
         NCelK=      1 NCelE2=     1 NClLst=     1 CellRange=     0.0.
 One-electron integrals computed using PRISM.
 NBasis=   138 RedAO= T  NBF=   138
 NBsUse=   138 1.00D-06 NBFU=   138
 Precomputing XC quadrature grid using
 IXCGrd= 2 IRadAn=           5 IRanWt=          -1 IRanGd=           0 AccXCQ= 0.00D+00.
 NRdTot=     344 NPtTot=       92556 NUsed=       95038 NTot=       95070
 NSgBfM=   160   160   160   160   160 NAtAll=     4     4.
 Leave Link  302 at Mon May  4 12:46:18 2020, MaxMem= 1073741824 cpu:       0.8
 (Enter /home/matheus/.gaussian/g09/l303.exe)
 DipDrv:  MaxL=1.
 Leave Link  303 at Mon May  4 12:46:18 2020, MaxMem= 1073741824 cpu:       0.1
 (Enter /home/matheus/.gaussian/g09/l401.exe)
 Harris functional with IExCor= 4639 diagonalized for initial guess.
 ExpMin= 2.53D-02 ExpMax= 1.53D+04 ExpMxC= 5.22D+02 IAcc=3 IRadAn=         5 AccDes= 0.00D+00
 HarFok:  IExCor= 4639 AccDes= 0.00D+00 IRadAn=         5 IDoV= 1
 ScaDFX=  1.000000  1.000000  1.000000  1.000000
 FoFCou: FMM=F IPFlag=           0 FMFlag=      100000 FMFlg1=           0
         NFxFlg=           0 DoJE=T BraDBF=F KetDBF=T FulRan=T
         Omega=  0.000000  0.000000  1.000000  0.000000  0.000000 ICntrl=     500 IOpCl=  0
         NMat0=    1 NMatS0=    1 NMatT0=    0 NMatD0=    1 NMtDS0=    0 NMtDT0=    0
         I1Cent=           4 NGrid=           0.
 Petite list used in FoFCou.
 Harris En= -145.946365586355    
 Initial guess orbital symmetries:
       Occupied  (A) (A) (A) (A) (A) (A) (A) (A) (A)
       Virtual   (A) (A) (A) (A) (A) (A) (A) (A) (A) (A) (A) (A)
                 (A) (A) (A) (A) (A) (A) (A) (A) (A) (A) (A) (A)
                 (A) (A) (A) (A) (A) (A) (A) (A) (A) (A) (A) (A)
                 (A) (A) (A) (A) (A) (A) (A) (A) (A) (A) (A) (A)
                 (A) (A) (A) (A) (A) (A) (A) (A) (A) (A) (A) (A)
                 (A) (A) (A) (A) (A) (A) (A) (A) (A) (A) (A) (A)
                 (A) (A) (A) (A) (A) (A) (A) (A) (A) (A) (A) (A)
                 (A) (A) (A) (A) (A) (A) (A) (A) (A) (A) (A) (A)
                 (A) (A) (A) (A) (A) (A) (A) (A) (A) (A) (A) (A)
                 (A) (A) (A) (A) (A) (A) (A) (A) (A) (A) (A) (A)
                 (A) (A) (A) (A) (A) (A) (A) (A) (A)
 The electronic state of the initial guess is 1-A.
 Leave Link  401 at Mon May  4 12:46:18 2020, MaxMem= 1073741824 cpu:       2.1
 (Enter /home/matheus/.gaussian/g09/l502.exe)
 Closed shell SCF:
 Requested convergence on RMS density matrix=1.00D-08 within 128 cycles.
 Requested convergence on MAX density matrix=1.00D-06.
 Requested convergence on             energy=1.00D-06.
 No special actions if energy rises.
 Using DIIS extrapolation, IDIIS=  1040.
 Integral symmetry usage will be decided dynamically.
        94980 words used for storage of precomputed grid.
 IEnd=      192360 IEndB=      192360 NGot=  1073741824 MDV=  1073591865
 LenX=  1073591865 LenY=  1073565824
 Fock matrices will be formed incrementally for  20 cycles.

 Cycle   1  Pass 1  IDiag  1:
 FoFJK:  IHMeth= 1 ICntrl=     0 DoSepK=T KAlg= 1 I1Cent= 0 FoldK=F
 FoFCou: FMM=F IPFlag=           0 FMFlag=      100000 FMFlg1=           0
         NFxFlg=           0 DoJE=T BraDBF=F KetDBF=F FulRan=T
         Omega=  0.000000  0.000000  1.000000  0.000000  0.000000 ICntrl=     500 IOpCl=  0
         NMat0=    1 NMatS0=    1 NMatT0=    0 NMatD0=    1 NMtDS0=    0 NMtDT0=    0
         I1Cent=           0 NGrid=           0.
 Symmetry not used in FoFCou.
 E= -151.459483680641    
 DIIS: error= 4.21D-02 at cycle   1 NSaved=   1.
 NSaved= 1 IEnMin= 1 EnMin= -151.459483680641     IErMin= 1 ErrMin= 4.21D-02
 ErrMax= 4.21D-02 EMaxC= 1.00D-01 BMatC= 3.20D-01 BMatP= 3.20D-01
 IDIUse=3 WtCom= 5.79D-01 WtEn= 4.21D-01
 Coeff-Com:  0.100D+01
 Coeff-En:   0.100D+01
 Coeff:      0.100D+01
 Gap=     0.551 Goal=   None    Shift=    0.000
 GapD=    0.551 DampG=2.000 DampE=0.500 DampFc=1.0000 IDamp=-1.
 RMSDP=3.44D-03 MaxDP=9.81D-02              OVMax= 1.20D-01

 Cycle   2  Pass 1  IDiag  1:
 RMSU=  2.39D-03    CP:  9.55D-01
 FoFJK:  IHMeth= 1 ICntrl=     0 DoSepK=T KAlg= 1 I1Cent= 0 FoldK=F
 E= -151.500030460245     Delta-E=       -0.040546779604 Rises=F Damp=F
 DIIS: error= 2.44D-02 at cycle   2 NSaved=   2.
 NSaved= 2 IEnMin= 2 EnMin= -151.500030460245     IErMin= 2 ErrMin= 2.44D-02
 ErrMax= 2.44D-02 EMaxC= 1.00D-01 BMatC= 1.02D-01 BMatP= 3.20D-01
 IDIUse=3 WtCom= 7.56D-01 WtEn= 2.44D-01
 Coeff-Com:  0.340D+00 0.660D+00
 Coeff-En:   0.339D+00 0.661D+00
 Coeff:      0.340D+00 0.660D+00
 Gap=     0.496 Goal=   None    Shift=    0.000
 RMSDP=1.43D-03 MaxDP=4.73D-02 DE=-4.05D-02 OVMax= 6.12D-02

 Cycle   3  Pass 1  IDiag  1:
 RMSU=  5.34D-04    CP:  9.75D-01  6.52D-01
 FoFJK:  IHMeth= 1 ICntrl=     0 DoSepK=T KAlg= 1 I1Cent= 0 FoldK=F
 E= -151.555277564002     Delta-E=       -0.055247103758 Rises=F Damp=F
 DIIS: error= 6.05D-03 at cycle   3 NSaved=   3.
[...]
 DIIS: error= 4.34D-06 at cycle   2 NSaved=   2.
 NSaved= 2 IEnMin= 2 EnMin= -2753.87012724319     IErMin= 2 ErrMin= 4.34D-06
 ErrMax= 4.34D-06 EMaxC= 1.00D-01 BMatC= 3.81D-09 BMatP= 3.59D-06
 IDIUse=1 WtCom= 1.00D+00 WtEn= 0.00D+00
 Coeff-Com: -0.997D-02 0.101D+01
 Coeff:     -0.997D-02 0.101D+01
 Gap=     0.513 Goal=   None    Shift=    0.000
 RMSDP=1.71D-06 MaxDP=7.06D-05 DE=-5.15D-07 OVMax= 4.97D-05

 Cycle   3  Pass 1  IDiag  1:
 RMSU=  5.19D-07    CP:  1.00D+00  1.10D+00
 FoFJK:  IHMeth= 1 ICntrl=     0 DoSepK=T KAlg= 1 I1Cent= 0 FoldK=F
 E= -2753.87012725022     Delta-E=       -0.000000007027 Rises=F Damp=F
 DIIS: error= 7.47D-07 at cycle   3 NSaved=   3.
 NSaved= 3 IEnMin= 3 EnMin= -2753.87012725022     IErMin= 3 ErrMin= 7.47D-07
 ErrMax= 7.47D-07 EMaxC= 1.00D-01 BMatC= 9.38D-11 BMatP= 3.81D-09
 IDIUse=1 WtCom= 1.00D+00 WtEn= 0.00D+00
 Coeff-Com:  0.283D-03-0.127D+00 0.113D+01
 Coeff:      0.283D-03-0.127D+00 0.113D+01
 Gap=     0.513 Goal=   None    Shift=    0.000
 RMSDP=2.33D-07 MaxDP=1.14D-05 DE=-7.03D-09 OVMax= 1.00D-05

 Cycle   4  Pass 1  IDiag  1:
 RMSU=  4.93D-08    CP:  1.00D+00  1.11D+00  1.23D+00
 FoFJK:  IHMeth= 1 ICntrl=     0 DoSepK=T KAlg= 1 I1Cent= 0 FoldK=F
 E= -2753.87012725041     Delta-E=       -0.000000000195 Rises=F Damp=F
 DIIS: error= 2.71D-07 at cycle   4 NSaved=   4.
 NSaved= 4 IEnMin= 4 EnMin= -2753.87012725041     IErMin= 4 ErrMin= 2.71D-07
 ErrMax= 2.71D-07 EMaxC= 1.00D-01 BMatC= 7.49D-12 BMatP= 9.38D-11
 IDIUse=1 WtCom= 1.00D+00 WtEn= 0.00D+00
 Coeff-Com:  0.208D-03-0.460D-01 0.282D+00 0.764D+00
 Coeff:      0.208D-03-0.460D-01 0.282D+00 0.764D+00
 Gap=     0.513 Goal=   None    Shift=    0.000
 RMSDP=1.92D-08 MaxDP=8.10D-07 DE=-1.95D-10 OVMax= 1.15D-06

 Cycle   5  Pass 1  IDiag  1:
 RMSU=  7.78D-09    CP:  1.00D+00  1.11D+00  1.24D+00  1.11D+00
 FoFJK:  IHMeth= 1 ICntrl=     0 DoSepK=T KAlg= 1 I1Cent= 0 FoldK=F
 E= -2753.87012725042     Delta-E=       -0.000000000006 Rises=F Damp=F
 DIIS: error= 3.43D-08 at cycle   5 NSaved=   5.
 NSaved= 5 IEnMin= 5 EnMin= -2753.87012725042     IErMin= 5 ErrMin= 3.43D-08
 ErrMax= 3.43D-08 EMaxC= 1.00D-01 BMatC= 1.30D-13 BMatP= 7.49D-12
 IDIUse=1 WtCom= 1.00D+00 WtEn= 0.00D+00
 Coeff-Com: -0.327D-04 0.100D-01-0.769D-01-0.638D-01 0.113D+01
 Coeff:     -0.327D-04 0.100D-01-0.769D-01-0.638D-01 0.113D+01
 Gap=     0.513 Goal=   None    Shift=    0.000
 RMSDP=9.22D-09 MaxDP=5.32D-07 DE=-5.91D-12 OVMax= 4.36D-07

 SCF Done:  E(RwB97XD) =  -2753.87012725     A.U. after    5 cycles
             Convg  =    0.9216D-08             -V/T =  2.0013
 KE= 2.750283678270D+03 PE=-6.580195007979D+03 EE= 1.076041202459D+03
 Leave Link  502 at Mon May  4 13:07:35 2020, MaxMem= 1073741824 cpu:      89.2
 (Enter /home/matheus/.gaussian/g09/l122.exe)
 Restoring MOs from calculation   4 to rwf.
 Counterpoise: doing MCBS calculation for fragment   1
 Leave Link  122 at Mon May  4 13:07:35 2020, MaxMem= 1073741824 cpu:       0.0
 (Enter /home/matheus/.gaussian/g09/l301.exe)
 Basis read from rwf:  (5D, 7F)
 No pseudopotential information found on rwf file.
 There are   138 symmetry adapted basis functions of A   symmetry.
 Integral buffers will be    131072 words long.
 Raffenetti 2 integral format.
 Two-electron integral symmetry is turned on.
   138 basis functions,   198 primitive gaussians,   160 cartesian basis functions
     9 alpha electrons        9 beta electrons
       nuclear repulsion energy        36.6380791177 Hartrees.
 IExCor= 4639 DFT=T Ex+Corr=wB97XD ExCW=0 ScaHFX=  1.000000
 ScaDFX=  1.000000  1.000000  1.000000  1.000000 ScalE2=  1.000000  1.000000
 IRadAn=      5 IRanWt=     -1 IRanGd=            0 ICorTp=0
  HFx wShort=  0.000000 wLong=  0.250000 cFull=  0.222036 cShort=  0.000000 cLong=  0.777964
  DFx wShort=  0.000000 wLong=  0.250000 cFull=  0.000000 cShort=  0.000000 cLong=  1.000000
 NAtoms=    5 NActive=    4 NUniq=    4 SFac= 1.00D+00 NAtFMM=   60 NAOKFM=F Big=F
 R6Disp: Dispersion energy =        -0.0002573303 Hartrees.
 Nuclear repulsion after empirical dispersion term =       36.6378217874 Hartrees.
 No density basis found on file   718.
 Leave Link  301 at Mon May  4 13:07:35 2020, MaxMem= 1073741824 cpu:       0.2
 (Enter /home/matheus/.gaussian/g09/l302.exe)
 NPDir=0 NMtPBC=     1 NCelOv=     1 NCel=       1 NClECP=     1 NCelD=      1
         NCelK=      1 NCelE2=     1 NClLst=     1 CellRange=     0.0.
 One-electron integrals computed using PRISM.
 NBasis=   138 RedAO= T  NBF=   138
 NBsUse=   138 1.00D-06 NBFU=   138
 Precomputing XC quadrature grid using
 IXCGrd= 2 IRadAn=           5 IRanWt=          -1 IRanGd=           0 AccXCQ= 0.00D+00.
 NRdTot=     344 NPtTot=       92556 NUsed=       95038 NTot=       95070
 NSgBfM=   160   160   160   160   160 NAtAll=     4     4.
 Leave Link  302 at Mon May  4 13:07:35 2020, MaxMem= 1073741824 cpu:       0.8
 (Enter /home/matheus/.gaussian/g09/l303.exe)
 DipDrv:  MaxL=1.
 Leave Link  303 at Mon May  4 13:07:35 2020, MaxMem= 1073741824 cpu:       0.1
 (Enter /home/matheus/.gaussian/g09/l401.exe)
 Initial guess read from the read-write file.
 Guess basis will be translated and rotated to current coordinates.
 Initial guess orbital symmetries:
       Occupied  (A) (A) (A) (A) (A) (A) (A) (A) (A)
       Virtual   (A) (A) (A) (A) (A) (A) (A) (A) (A) (A) (A) (A)
                 (A) (A) (A) (A) (A) (A) (A) (A) (A) (A) (A) (A)
                 (A) (A) (A) (A) (A) (A) (A) (A) (A) (A) (A) (A)
                 (A) (A) (A) (A) (A) (A) (A) (A) (A) (A) (A) (A)
                 (A) (A) (A) (A) (A) (A) (A) (A) (A) (A) (A) (A)
                 (A) (A) (A) (A) (A) (A) (A) (A) (A) (A) (A) (A)
                 (A) (A) (A) (A) (A) (A) (A) (A) (A) (A) (A) (A)
                 (A) (A) (A) (A) (A) (A) (A) (A) (A) (A) (A) (A)
                 (A) (A) (A) (A) (A) (A) (A) (A) (A) (A) (A) (A)
                 (A) (A) (A) (A) (A) (A) (A) (A) (A) (A) (A) (A)
                 (A) (A) (A) (A) (A) (A) (A) (A) (A)
 The electronic state of the initial guess is 1-A.
 Generating alternative initial guess.
 Harris functional with IExCor= 4639 diagonalized for initial guess.
 ExpMin= 2.53D-02 ExpMax= 1.53D+04 ExpMxC= 5.22D+02 IAcc=3 IRadAn=         5 AccDes= 0.00D+00
 HarFok:  IExCor= 4639 AccDes= 0.00D+00 IRadAn=         5 IDoV= 1
 ScaDFX=  1.000000  1.000000  1.000000  1.000000
 FoFCou: FMM=F IPFlag=           0 FMFlag=      100000 FMFlg1=           0
         NFxFlg=           0 DoJE=T BraDBF=F KetDBF=T FulRan=T
         Omega=  0.000000  0.000000  1.000000  0.000000  0.000000 ICntrl=     500 IOpCl=  0
         NMat0=    1 NMatS0=    1 NMatT0=    0 NMatD0=    1 NMtDS0=    0 NMtDT0=    0
         I1Cent=           4 NGrid=           0.
 Petite list used in FoFCou.
 Harris En= -145.946365588048    
 Leave Link  401 at Mon May  4 13:07:35 2020, MaxMem= 1073741824 cpu:       2.4
 (Enter /home/matheus/.gaussian/g09/l502.exe)
 Closed shell SCF:
 Requested convergence on RMS density matrix=1.00D-08 within 128 cycles.
 Requested convergence on MAX density matrix=1.00D-06.
 Requested convergence on             energy=1.00D-06.
 No special actions if energy rises.
 Using DIIS extrapolation, IDIIS=  1040.
 Integral symmetry usage will be decided dynamically.
        94980 words used for storage of precomputed grid.
 IEnd=      192360 IEndB=      192360 NGot=  1073741824 MDV=  1073591865
 LenX=  1073591865 LenY=  1073565824
 Fock matrices will be formed incrementally for  20 cycles.

 Cycle   1  Pass 1  IDiag  1:
 FoFJK:  IHMeth= 1 ICntrl=     0 DoSepK=T KAlg= 1 I1Cent= 0 FoldK=F
 FoFCou: FMM=F IPFlag=           0 FMFlag=      100000 FMFlg1=           0
         NFxFlg=           0 DoJE=T BraDBF=F KetDBF=F FulRan=T
         Omega=  0.000000  0.000000  1.000000  0.000000  0.000000 ICntrl=     500 IOpCl=  0
         NMat0=    1 NMatS0=    1 NMatT0=    0 NMatD0=    1 NMtDS0=    0 NMtDT0=    0
         I1Cent=           0 NGrid=           0.
 Symmetry not used in FoFCou.
 E= -151.559234367926    
 DIIS: error= 6.47D-06 at cycle   1 NSaved=   1.
 NSaved= 1 IEnMin= 1 EnMin= -151.559234367926     IErMin= 1 ErrMin= 6.47D-06
 ErrMax= 6.47D-06 EMaxC= 1.00D-01 BMatC= 1.29D-08 BMatP= 1.29D-08
 IDIUse=1 WtCom= 1.00D+00 WtEn= 0.00D+00
 Coeff-Com:  0.100D+01
 Coeff:      0.100D+01
 Gap=     0.429 Goal=   None    Shift=    0.000
 RMSDP=7.59D-07 MaxDP=1.75D-05              OVMax= 3.24D-05

 Cycle   2  Pass 1  IDiag  1:
 RMSU=  5.37D-07    CP:  1.00D+00
 FoFJK:  IHMeth= 1 ICntrl=     0 DoSepK=T KAlg= 1 I1Cent= 0 FoldK=F
 E= -151.559234381312     Delta-E=       -0.000000013386 Rises=F Damp=F
 DIIS: error= 1.57D-06 at cycle   2 NSaved=   2.
 NSaved= 2 IEnMin= 2 EnMin= -151.559234381312     IErMin= 2 ErrMin= 1.57D-06
 ErrMax= 1.57D-06 EMaxC= 1.00D-01 BMatC= 4.28D-10 BMatP= 1.29D-08
 IDIUse=1 WtCom= 1.00D+00 WtEn= 0.00D+00
 Coeff-Com: -0.118D+00 0.112D+01
 Coeff:     -0.118D+00 0.112D+01
 Gap=     0.429 Goal=   None    Shift=    0.000
 RMSDP=2.24D-07 MaxDP=6.57D-06 DE=-1.34D-08 OVMax= 1.11D-05

 Cycle   3  Pass 1  IDiag  1:
 RMSU=  8.39D-08    CP:  1.00D+00  1.25D+00
 FoFJK:  IHMeth= 1 ICntrl=     0 DoSepK=T KAlg= 1 I1Cent= 0 FoldK=F
 E= -151.559234382247     Delta-E=       -0.000000000935 Rises=F Damp=F
 DIIS: error= 4.18D-07 at cycle   3 NSaved=   3.
 NSaved= 3 IEnMin= 3 EnMin= -151.559234382247     IErMin= 3 ErrMin= 4.18D-07
 ErrMax= 4.18D-07 EMaxC= 1.00D-01 BMatC= 2.79D-11 BMatP= 4.28D-10
 IDIUse=1 WtCom= 1.00D+00 WtEn= 0.00D+00
 Coeff-Com: -0.136D-01-0.231D-01 0.104D+01
 Coeff:     -0.136D-01-0.231D-01 0.104D+01
 Gap=     0.429 Goal=   None    Shift=    0.000
 RMSDP=6.36D-08 MaxDP=1.44D-06 DE=-9.35D-10 OVMax= 3.87D-06

 Cycle   4  Pass 1  IDiag  1:
 RMSU=  2.07D-08    CP:  1.00D+00  1.30D+00  1.33D+00
 FoFJK:  IHMeth= 1 ICntrl=     0 DoSepK=T KAlg= 1 I1Cent= 0 FoldK=F
 E= -151.559234382317     Delta-E=       -0.000000000070 Rises=F Damp=F
 DIIS: error= 2.89D-07 at cycle   4 NSaved=   4.
 NSaved= 4 IEnMin= 4 EnMin= -151.559234382317     IErMin= 4 ErrMin= 2.89D-07
 ErrMax= 2.89D-07 EMaxC= 1.00D-01 BMatC= 1.33D-11 BMatP= 2.79D-11
 IDIUse=1 WtCom= 1.00D+00 WtEn= 0.00D+00
 Coeff-Com:  0.323D-02-0.993D-01 0.411D+00 0.685D+00
 Coeff:      0.323D-02-0.993D-01 0.411D+00 0.685D+00
 Gap=     0.429 Goal=   None    Shift=    0.000
 RMSDP=2.18D-08 MaxDP=3.56D-07 DE=-7.03D-11 OVMax= 1.38D-06

 Cycle   5  Pass 1  IDiag  1:
 RMSU=  1.07D-08    CP:  1.00D+00  1.32D+00  1.43D+00  7.93D-01
 FoFJK:  IHMeth= 1 ICntrl=     0 DoSepK=T KAlg= 1 I1Cent= 0 FoldK=F
 E= -151.559234382330     Delta-E=       -0.000000000013 Rises=F Damp=F
 DIIS: error= 1.62D-07 at cycle   5 NSaved=   5.
 NSaved= 5 IEnMin= 5 EnMin= -151.559234382330     IErMin= 5 ErrMin= 1.62D-07
 ErrMax= 1.62D-07 EMaxC= 1.00D-01 BMatC= 3.29D-12 BMatP= 1.33D-11
 IDIUse=1 WtCom= 1.00D+00 WtEn= 0.00D+00
 Coeff-Com:  0.480D-02-0.451D-01-0.587D-01 0.349D+00 0.750D+00
 Coeff:      0.480D-02-0.451D-01-0.587D-01 0.349D+00 0.750D+00
 Gap=     0.429 Goal=   None    Shift=    0.000
 RMSDP=1.17D-08 MaxDP=2.43D-07 DE=-1.26D-11 OVMax= 8.25D-07

 Cycle   6  Pass 1  IDiag  1:
 RMSU=  3.18D-09    CP:  1.00D+00  1.32D+00  1.48D+00  1.05D+00  1.06D+00
 FoFJK:  IHMeth= 1 ICntrl=     0 DoSepK=T KAlg= 1 I1Cent= 0 FoldK=F
 E= -151.559234382333     Delta-E=       -0.000000000003 Rises=F Damp=F
 DIIS: error= 2.07D-08 at cycle   6 NSaved=   6.
 NSaved= 6 IEnMin= 6 EnMin= -151.559234382333     IErMin= 6 ErrMin= 2.07D-08
 ErrMax= 2.07D-08 EMaxC= 1.00D-01 BMatC= 7.41D-14 BMatP= 3.29D-12
 IDIUse=1 WtCom= 1.00D+00 WtEn= 0.00D+00
 Coeff-Com: -0.857D-03 0.148D-01-0.353D-01-0.842D-01-0.490D-01 0.115D+01
 Coeff:     -0.857D-03 0.148D-01-0.353D-01-0.842D-01-0.490D-01 0.115D+01
 Gap=     0.429 Goal=   None    Shift=    0.000
 RMSDP=4.34D-09 MaxDP=9.84D-08 DE=-3.41D-12 OVMax= 3.63D-07

 SCF Done:  E(RwB97XD) =  -151.559234382     A.U. after    6 cycles
             Convg  =    0.4335D-08             -V/T =  2.0060
 KE= 1.506501208976D+02 PE=-4.317041785714D+02 EE= 9.285700150408D+01
 Leave Link  502 at Mon May  4 13:07:41 2020, MaxMem= 1073741824 cpu:      43.9
 (Enter /home/matheus/.gaussian/g09/l122.exe)
 Restoring MOs from calculation   5 to rwf.
 Counterpoise: doing MCBS calculation for fragment   2
 Leave Link  122 at Mon May  4 13:07:41 2020, MaxMem= 1073741824 cpu:       0.0
 (Enter /home/matheus/.gaussian/g09/l301.exe)
 Basis read from rwf:  (5D, 7F)
 No pseudopotential information found on rwf file.
 There are    59 symmetry adapted basis functions of A   symmetry.
 Integral buffers will be    131072 words long.
 Raffenetti 2 integral format.
 Two-electron integral symmetry is turned on.
    59 basis functions,   217 primitive gaussians,    69 cartesian basis functions
    18 alpha electrons       18 beta electrons
       nuclear repulsion energy         0.0000000000 Hartrees.
 IExCor= 4639 DFT=T Ex+Corr=wB97XD ExCW=0 ScaHFX=  1.000000
 ScaDFX=  1.000000  1.000000  1.000000  1.000000 ScalE2=  1.000000  1.000000
 IRadAn=      5 IRanWt=     -1 IRanGd=            0 ICorTp=0
  HFx wShort=  0.000000 wLong=  0.250000 cFull=  0.222036 cShort=  0.000000 cLong=  0.777964
  DFx wShort=  0.000000 wLong=  0.250000 cFull=  0.000000 cShort=  0.000000 cLong=  1.000000
 NAtoms=    5 NActive=    1 NUniq=    1 SFac= 1.00D+00 NAtFMM=   60 NAOKFM=F Big=F
 R6Disp: Dispersion energy =         0.0000000000 Hartrees.
 Nuclear repulsion after empirical dispersion term =        0.0000000000 Hartrees.
 No density basis found on file   718.
 Leave Link  301 at Mon May  4 13:07:41 2020, MaxMem= 1073741824 cpu:       0.2
 (Enter /home/matheus/.gaussian/g09/l302.exe)
 NPDir=0 NMtPBC=     1 NCelOv=     1 NCel=       1 NClECP=     1 NCelD=      1
         NCelK=      1 NCelE2=     1 NClLst=     1 CellRange=     0.0.
 One-electron integrals computed using PRISM.
 NBasis=    59 RedAO= T  NBF=    59
 NBsUse=    59 1.00D-06 NBFU=    59
 Precomputing XC quadrature grid using
 IXCGrd= 2 IRadAn=           5 IRanWt=          -1 IRanGd=           0 AccXCQ= 0.00D+00.
 NRdTot=      81 NPtTot=       30352 NUsed=       30981 NTot=       31013
 NSgBfM=    69    69    69    69    69 NAtAll=     1     1.
 Leave Link  302 at Mon May  4 13:07:41 2020, MaxMem= 1073741824 cpu:       0.6
 (Enter /home/matheus/.gaussian/g09/l303.exe)
 DipDrv:  MaxL=1.
 Leave Link  303 at Mon May  4 13:07:41 2020, MaxMem= 1073741824 cpu:       0.1
 (Enter /home/matheus/.gaussian/g09/l401.exe)
 Initial guess read from the read-write file.
 Guess basis will be translated and rotated to current coordinates.
 Initial guess orbital symmetries:
       Occupied  (A) (A) (A) (A) (A) (A) (A) (A) (A) (A) (A) (A)
                 (A) (A) (A) (A) (A) (A)
       Virtual   (A) (A) (A) (A) (A) (A) (A) (A) (A) (A) (A) (A)
                 (A) (A) (A) (A) (A) (A) (A) (A) (A) (A) (A) (A)
                 (A) (A) (A) (A) (A) (A) (A) (A) (A) (A) (A) (A)
                 (A) (A) (A) (A) (A)
 The electronic state of the initial guess is 1-A.
 Generating alternative initial guess.
 Harris functional with IExCor= 4639 diagonalized for initial guess.
 ExpMin= 4.00D-02 ExpMax= 1.17D+07 ExpMxC= 1.33D+04 IAcc=3 IRadAn=         5 AccDes= 0.00D+00
 HarFok:  IExCor= 4639 AccDes= 0.00D+00 IRadAn=         5 IDoV= 1
 ScaDFX=  1.000000  1.000000  1.000000  1.000000
 FoFCou: FMM=F IPFlag=           0 FMFlag=      100000 FMFlg1=           0
         NFxFlg=           0 DoJE=T BraDBF=F KetDBF=T FulRan=T
         Omega=  0.000000  0.000000  1.000000  0.000000  0.000000 ICntrl=     500 IOpCl=  0
         NMat0=    1 NMatS0=    1 NMatT0=    0 NMatD0=    1 NMtDS0=    0 NMtDT0=    0
         I1Cent=           4 NGrid=           0.
 Petite list used in FoFCou.
 Harris En= -2729.45839233129    
 Leave Link  401 at Mon May  4 13:07:41 2020, MaxMem= 1073741824 cpu:       1.0
 (Enter /home/matheus/.gaussian/g09/l502.exe)
 Closed shell SCF:
 Requested convergence on RMS density matrix=1.00D-08 within 128 cycles.
 Requested convergence on MAX density matrix=1.00D-06.
 Requested convergence on             energy=1.00D-06.
 No special actions if energy rises.
 Using DIIS extrapolation, IDIIS=  1040.
 Integral symmetry usage will be decided dynamically.
        30923 words used for storage of precomputed grid.
 IEnd=       64406 IEndB=       64406 NGot=  1073741824 MDV=  1073698889
 LenX=  1073698889 LenY=  1073693687
 Fock matrices will be formed incrementally for  20 cycles.

 Cycle   1  Pass 1  IDiag  1:
 FoFJK:  IHMeth= 1 ICntrl=     0 DoSepK=T KAlg= 1 I1Cent= 0 FoldK=F
 FoFCou: FMM=F IPFlag=           0 FMFlag=      100000 FMFlg1=           0
         NFxFlg=           0 DoJE=T BraDBF=F KetDBF=F FulRan=T
         Omega=  0.000000  0.000000  1.000000  0.000000  0.000000 ICntrl=     500 IOpCl=  0
         NMat0=    1 NMatS0=    1 NMatT0=    0 NMatD0=    1 NMtDS0=    0 NMtDT0=    0
         I1Cent=           0 NGrid=           0.
 Symmetry not used in FoFCou.
 E= -2753.87011063501    
 DIIS: error= 1.17D-13 at cycle   1 NSaved=   1.
 NSaved= 1 IEnMin= 1 EnMin= -2753.87011063501     IErMin= 1 ErrMin= 1.17D-13
 ErrMax= 1.17D-13 EMaxC= 1.00D-01 BMatC= 6.39D-25 BMatP= 6.39D-25
 IDIUse=1 WtCom= 1.00D+00 WtEn= 0.00D+00
 Coeff-Com:  0.100D+01
 Coeff:      0.100D+01
 Gap=     0.578 Goal=   None    Shift=    0.000
 DSYEVD returned Info=          89 IAlg= 4 N=    59 NDim=    59 NE2=    18198197 trying DSYEV.
 RMSDP=7.74D-15 MaxDP=8.17D-14              OVMax= 8.29D-14

 SCF Done:  E(RwB97XD) =  -2753.87011064     A.U. after    1 cycles
             Convg  =    0.7743D-14             -V/T =  2.0013
 KE= 2.750289370128D+03 PE=-6.580200885036D+03 EE= 1.076041404273D+03
 Leave Link  502 at Mon May  4 13:07:42 2020, MaxMem= 1073741824 cpu:      11.4
 (Enter /home/matheus/.gaussian/g09/l122.exe)
 Restoring MOs from calculation   1 to rwf.
 Counterpoise: corrected energy =   -2905.429698275583
 Counterpoise: BSSE energy =       0.000020021620
 Leave Link  122 at Mon May  4 13:07:42 2020, MaxMem= 1073741824 cpu:       0.0
 (Enter /home/matheus/.gaussian/g09/l108.exe)
 Scan completed.

 Summary of the potential surface scan:
   N      R1          SCF    
 ----  ---------  -----------
    1     3.0000  -2753.87011
    2     3.1000  -2753.87011
    3     3.2000  -2753.87011
    4     3.3000  -2753.87011
    5     3.4000  -2753.87011
    6     3.5000  -2753.87011
    7     3.6000  -2753.87011
    8     3.7000  -2753.87011
    9     3.8000  -2753.87011
   10     3.9000  -2753.87011
   11     4.0000  -2753.87011
   12     4.1000  -2753.87011
   13     4.2000  -2753.87011
   14     4.3000  -2753.87011
   15     4.4000  -2753.87011
   16     4.5000  -2753.87011
   17     4.6000  -2753.87011
   18     4.7000  -2753.87011
   19     4.8000  -2753.87011
   20     4.9000  -2753.87011
   21     5.0000  -2753.87011
 ----  ---------  -----------
  
 Leave Link  108 at Mon May  4 13:07:42 2020, MaxMem= 1073741824 cpu:       0.0
 (Enter /home/matheus/.gaussian/g09/l9999.exe)

 Test job not archived.
 1\1\GINC-REDGIANT\Scan\RwB97XD\Aug-CC-pVTZ\H2Kr1O2\ROOT\04-May-2020\1\
 \#p wb97xd/aug-cc-PVTz iop(3/107=0250000000) iop(3/108=0250000000) int
 =ultrafine counterpoise=2 Scan\\TCC\\0,1\O,0,0.,0.,0.725\O,0,0.,0.,-0.
 725\H,0,-0.8633149634,0.3142209495,1.0235104166\H,0,0.,0.9187205947,-1
 .0235104166\Kr,0,0.,R1,0.\\R1=3.,s,20,0.1\\Version=EM64L-G09RevC.01\St
 ate=1-A\HF=-2753.8701106,-2753.8701106,-2753.8701106,-2753.8701106,-27
 53.8701106,-2753.8701106,-2753.8701106,-2753.8701106,-2753.8701106,-27
 53.8701106,-2753.8701106,-2753.8701106,-2753.8701106,-2753.8701106,-27
 53.8701106,-2753.8701106,-2753.8701106,-2753.8701106,-2753.8701106,-27
 53.8701106,-2753.8701106\RMSD=9.654e-09,1.847e-10,5.405e-11,3.457e-11,
 1.947e-11,1.187e-11,7.092e-12,4.281e-12,2.572e-12,1.545e-12,9.301e-13,
 5.565e-13,3.297e-13,1.978e-13,1.197e-13,7.452e-14,4.654e-14,3.044e-14,
 1.890e-14,1.224e-14,7.743e-15\PG=C01 [X(H2Kr1O2)]\\@


 SIGN SEEN IN A RESTAURANT-
 WE RESERVE THE RIGHT TO SERVE REFUSE TO ANYONE.
 Job cpu time:  0 days  3 hours  3 minutes 22.8 seconds.
 File lengths (MBytes):  RWF=     33 Int=      0 D2E=      0 Chk=      8 Scr=      1
 Normal termination of Gaussian 09 at Mon May  4 13:07:42 2020.
