 Entering Gaussian System, Link 0=g09
 Input=/home/matheus/.tcc/Inputs-wb97xd/H2O2-Kr_20.com
 Output=/home/matheus/.tcc/Logs-wb97xd/H2O2-Kr_20.log
 Initial command:
 /home/matheus/.gaussian/g09/l1.exe /home/matheus/.gaussian/g09/scratch/Gau-22214.inp -scrdir=/home/matheus/.gaussian/g09/scratch/
 Entering Link 1 = /home/matheus/.gaussian/g09/l1.exe PID=     22217.
  
 Copyright (c) 1988,1990,1992,1993,1995,1998,2003,2009,2011,
            Gaussian, Inc.  All Rights Reserved.
  
 This is part of the Gaussian(R) 09 program.  It is based on
 the Gaussian(R) 03 system (copyright 2003, Gaussian, Inc.),
 the Gaussian(R) 98 system (copyright 1998, Gaussian, Inc.),
 the Gaussian(R) 94 system (copyright 1995, Gaussian, Inc.),
 the Gaussian 92(TM) system (copyright 1992, Gaussian, Inc.),
 the Gaussian 90(TM) system (copyright 1990, Gaussian, Inc.),
 the Gaussian 88(TM) system (copyright 1988, Gaussian, Inc.),
 the Gaussian 86(TM) system (copyright 1986, Carnegie Mellon
 University), and the Gaussian 82(TM) system (copyright 1983,
 Carnegie Mellon University). Gaussian is a federally registered
 trademark of Gaussian, Inc.
  
 This software contains proprietary and confidential information,
 including trade secrets, belonging to Gaussian, Inc.
  
 This software is provided under written license and may be
 used, copied, transmitted, or stored only in accord with that
 written license.
  
 The following legend is applicable only to US Government
 contracts under FAR:
  
                    RESTRICTED RIGHTS LEGEND
  
 Use, reproduction and disclosure by the US Government is
 subject to restrictions as set forth in subparagraphs (a)
 and (c) of the Commercial Computer Software - Restricted
 Rights clause in FAR 52.227-19.
  
 Gaussian, Inc.
 340 Quinnipiac St., Bldg. 40, Wallingford CT 06492
  
  
 ---------------------------------------------------------------
 Warning -- This program may not be used in any manner that
 competes with the business of Gaussian, Inc. or will provide
 assistance to any competitor of Gaussian, Inc.  The licensee
 of this program is prohibited from giving any competitor of
 Gaussian, Inc. access to this program.  By using this program,
 the user acknowledges that Gaussian, Inc. is engaged in the
 business of creating and licensing software in the field of
 computational chemistry and represents and warrants to the
 licensee that it is not a competitor of Gaussian, Inc. and that
 it will not use this program in any manner prohibited above.
 ---------------------------------------------------------------
  

 Cite this work as:
 Gaussian 09, Revision C.01,
 M. J. Frisch, G. W. Trucks, H. B. Schlegel, G. E. Scuseria, 
 M. A. Robb, J. R. Cheeseman, G. Scalmani, V. Barone, B. Mennucci, 
 G. A. Petersson, H. Nakatsuji, M. Caricato, X. Li, H. P. Hratchian, 
 A. F. Izmaylov, J. Bloino, G. Zheng, J. L. Sonnenberg, M. Hada, 
 M. Ehara, K. Toyota, R. Fukuda, J. Hasegawa, M. Ishida, T. Nakajima, 
 Y. Honda, O. Kitao, H. Nakai, T. Vreven, J. A. Montgomery, Jr., 
 J. E. Peralta, F. Ogliaro, M. Bearpark, J. J. Heyd, E. Brothers, 
 K. N. Kudin, V. N. Staroverov, T. Keith, R. Kobayashi, J. Normand, 
 K. Raghavachari, A. Rendell, J. C. Burant, S. S. Iyengar, J. Tomasi, 
 M. Cossi, N. Rega, J. M. Millam, M. Klene, J. E. Knox, J. B. Cross, 
 V. Bakken, C. Adamo, J. Jaramillo, R. Gomperts, R. E. Stratmann, 
 O. Yazyev, A. J. Austin, R. Cammi, C. Pomelli, J. W. Ochterski, 
 R. L. Martin, K. Morokuma, V. G. Zakrzewski, G. A. Voth, 
 P. Salvador, J. J. Dannenberg, S. Dapprich, A. D. Daniels, 
 O. Farkas, J. B. Foresman, J. V. Ortiz, J. Cioslowski, 
 and D. J. Fox, Gaussian, Inc., Wallingford CT, 2010.
 
 ******************************************
 Gaussian 09:  EM64L-G09RevC.01 23-Sep-2011
                 3-May-2020 
 ******************************************
 %mem=8GB
 %nproc=8
 Will use up to    8 processors via shared memory.
 ----------------------------------------------------------------------
 #p wb97xd/aug-cc-PVTz iop(3/107=0250000000) iop(3/108=0250000000) int=
 ultrafine counterpoise=2 Scan
 ----------------------------------------------------------------------
 1/38=1,60=1,62=2/1,8;
 2/12=2,17=6,18=5,29=3,40=1/2;
 1/38=1,53=5172,62=2/22;
 3/5=16,6=1,7=10,11=2,16=1,25=1,30=1,74=-58,75=-5,107=250000000,108=250000000/1,2,3;
 4//1;
 5/5=2,38=5/2;
 6/7=2,8=2,9=2,10=2,18=1,28=1/1;
 1/53=4052,62=2,63=1/22;
 3/5=7,6=11,7=10,11=2,16=1,25=1,30=1,74=-58,75=-5,82=7,107=250000000,108=250000000/1,2,3;
 4//1;
 5/5=2,38=5/2;
 6/7=2,8=2,9=2,10=2,18=1,28=1/1;
 1/53=3042,62=2,63=2/22;
 3/5=7,6=11,7=10,11=2,16=1,25=1,30=1,74=-58,75=-5,82=7,107=250000000,108=250000000/1,2,3;
 4//1;
 5/5=2,38=5/2;
 6/7=2,8=2,9=2,10=2,18=1,28=1/1;
 1/53=2032,62=2,63=3/22;
 3/5=7,6=11,7=10,11=2,16=1,25=1,30=1,74=-58,75=-5,82=7,107=250000000,108=250000000/1,2,3;
 4//1;
 5/5=2,38=5/2;
 6/7=2,8=2,9=2,10=2,18=1,28=1/1;
 1/53=1022,62=2,63=4/22;
 3/5=7,6=11,7=10,11=2,16=1,25=1,30=1,74=-58,75=-5,82=7,107=250000000,108=250000000/1,2,3;
 4//1;
 5/5=2,38=5/2;
 6/7=2,8=2,9=2,10=2,18=1,28=1/1;
 1/53=5014,62=2,63=5/22;
 1/60=1,62=2/8(1);
 99/9=1/99;
 2/29=3/2;
 1/53=5173,62=2/22;
 3/5=7,6=11,7=10,11=2,16=1,25=1,30=1,74=-58,75=-5,82=7,107=250000000,108=250000000/1,2,3;
 4/5=5,16=3/1;
 5/5=2,38=5/2;
 1/53=4053,62=2,63=1/22;
 3/5=7,6=11,7=10,11=2,16=1,25=1,30=1,74=-58,75=-5,82=7,107=250000000,108=250000000/1,2,3;
 4/5=5,16=3/1;
 5/5=2,38=5/2;
 1/53=3043,62=2,63=2/22;
 3/5=7,6=11,7=10,11=2,16=1,25=1,30=1,74=-58,75=-5,82=7,107=250000000,108=250000000/1,2,3;
 4/5=5,16=3/1;
 5/5=2,38=5/2;
 1/53=2033,62=2,63=3/22;
 3/5=7,6=11,7=10,11=2,16=1,25=1,30=1,74=-58,75=-5,82=7,107=250000000,108=250000000/1,2,3;
 4/5=5,16=3/1;
 5/5=2,38=5/2;
 1/53=1024,62=2,63=4/22;
 3/5=7,6=11,7=10,11=2,16=1,25=1,30=1,74=-58,75=-5,82=7,107=250000000,108=250000000/1,2,3;
 4/5=5,16=3/1;
 5/5=2,38=5/2;
 1/53=5014,62=2,63=5/22;
 1/60=1,62=2/8(-22);
 99/9=1/99;
 Leave Link    1 at Sun May  3 17:48:54 2020, MaxMem= 1073741824 cpu:       0.1
 (Enter /home/matheus/.gaussian/g09/l101.exe)
 ---
 TCC
 ---
 Charge =  0 Multiplicity = 1 in supermolecule
 Charge =  0 Multiplicity = 1 in fragment  1.
 Charge =  0 Multiplicity = 1 in fragment  2.
 Symbolic Z-Matrix:
 O(Fragment=1)         0.        0.        0.725 
 O(Fragment=1)         0.        0.       -0.725 
 H(Fragment=1)        -0.31422  -0.86331   1.02351 
 H(Fragment=1)         0.        0.91872  -1.02351 
 Kr(Fragment=2)        0.       R1        0. 
       Variables:
  R1                    3.     Scan 20    0.1    
 
 NAtoms=      5 NQM=        0 NQMF=       0 NMMI=      5 NMMIF=      0
                NMic=       0 NMicF=      0.
                    Isotopes and Nuclear Properties:
 (Nuclear quadrupole moments (NQMom) in fm**2, nuclear magnetic moments (NMagM)
  in nuclear magnetons)

  Atom         1           2           3           4           5
 IAtWgt=          16          16           1           1          84
 AtmWgt=  15.9949146  15.9949146   1.0078250   1.0078250  83.9115064
 NucSpn=           0           0           1           1           0
 AtZEff=   0.0000000   0.0000000   0.0000000   0.0000000   0.0000000
 NQMom=    0.0000000   0.0000000   0.0000000   0.0000000   0.0000000
 NMagM=    0.0000000   0.0000000   2.7928460   2.7928460   0.0000000
 Leave Link  101 at Sun May  3 17:48:54 2020, MaxMem= 1073741824 cpu:       0.3
 (Enter /home/matheus/.gaussian/g09/l108.exe)
 Scan the potential surface.
 Variable   Value     No. Steps Step-Size
 -------- ----------- --------- ---------
     1       3.000000      20      0.1000
 A total of     21 points will be computed.
 Leave Link  108 at Sun May  3 17:48:54 2020, MaxMem= 1073741824 cpu:       0.0
 (Enter /home/matheus/.gaussian/g09/l202.exe)
 ---------------------------------------------------------------------------------------------------
                            Z-MATRIX (ANGSTROMS AND DEGREES)
   CD    Cent   Atom    N1       Length/X        N2       Alpha/Y        N3        Beta/Z          J
 ---------------------------------------------------------------------------------------------------
      1      1  O        0   0.000000          0.000000          0.725000
      2      2  O        0   0.000000          0.000000         -0.725000
      3      3  H        0  -0.314221         -0.863315          1.023510
      4      4  H        0   0.000000          0.918721         -1.023510
      5      5  Kr       0   0.000000          3.000000          0.000000
 ---------------------------------------------------------------------------------------------------
                         Z-Matrix orientation:                         
 ---------------------------------------------------------------------
 Center     Atomic      Atomic             Coordinates (Angstroms)
 Number     Number       Type             X           Y           Z
 ---------------------------------------------------------------------
      1          8           0        0.000000    0.000000    0.725000
      2          8           0        0.000000    0.000000   -0.725000
      3          1           0       -0.314221   -0.863315    1.023510
      4          1           0        0.000000    0.918721   -1.023510
      5         36           0        0.000000    3.000000    0.000000
 ---------------------------------------------------------------------
                    Distance matrix (angstroms):
                    1          2          3          4          5
     1  O    0.000000
     2  O    1.450000   0.000000
     3  H    0.966000   1.975180   0.000000
     4  H    1.975180   0.966000   2.732157   0.000000
     5  Kr   3.086361   3.086361   4.008929   2.319331   0.000000
 Stoichiometry    H2KrO2
 Framework group  C1[X(H2KrO2)]
 Deg. of freedom     9
 Full point group                 C1      NOp   1
 Largest Abelian subgroup         C1      NOp   1
 Largest concise Abelian subgroup C1      NOp   1
                         Standard orientation:                         
 ---------------------------------------------------------------------
 Center     Atomic      Atomic             Coordinates (Angstroms)
 Number     Number       Type             X           Y           Z
 ---------------------------------------------------------------------
      1          8           0       -2.013955   -0.686971   -0.042678
      2          8           0       -1.987181    0.762152    0.000071
      3          1           0       -2.885209   -0.978373    0.255914
      4          1           0       -1.063137    1.043301    0.015982
      5         36           0        0.998818   -0.018511    0.001916
 ---------------------------------------------------------------------
 Rotational constants (GHZ):     26.5935251      2.3048996      2.1226538
 Leave Link  202 at Sun May  3 17:48:54 2020, MaxMem= 1073741824 cpu:       0.0
 (Enter /home/matheus/.gaussian/g09/l122.exe)
 Leave Link  122 at Sun May  3 17:48:54 2020, MaxMem= 1073741824 cpu:       0.0
 (Enter /home/matheus/.gaussian/g09/l301.exe)
 Standard basis: Aug-CC-pVTZ (5D, 7F)
 Ernie: Thresh=  0.10000D-02 Tol=  0.10000D-05 Strict=F.
 Ernie:  38 primitive shells out of 205 were deleted.
 There are   197 symmetry adapted basis functions of A   symmetry.
 Integral buffers will be    131072 words long.
 Raffenetti 2 integral format.
 Two-electron integral symmetry is turned on.
   197 basis functions,   415 primitive gaussians,   229 cartesian basis functions
    27 alpha electrons       27 beta electrons
       nuclear repulsion energy       148.3266950462 Hartrees.
 IExCor= 4639 DFT=T Ex+Corr=wB97XD ExCW=0 ScaHFX=  1.000000
 ScaDFX=  1.000000  1.000000  1.000000  1.000000 ScalE2=  1.000000  1.000000
 IRadAn=      5 IRanWt=     -1 IRanGd=            0 ICorTp=0
  HFx wShort=  0.000000 wLong=  0.250000 cFull=  0.222036 cShort=  0.000000 cLong=  0.777964
  DFx wShort=  0.000000 wLong=  0.250000 cFull=  0.000000 cShort=  0.000000 cLong=  1.000000
 NAtoms=    5 NActive=    5 NUniq=    5 SFac= 1.00D+00 NAtFMM=   60 NAOKFM=F Big=F
 R6Disp: Dispersion energy =        -0.0007733935 Hartrees.
 Nuclear repulsion after empirical dispersion term =      148.3259216527 Hartrees.
 Leave Link  301 at Sun May  3 17:48:54 2020, MaxMem= 1073741824 cpu:       0.2
 (Enter /home/matheus/.gaussian/g09/l302.exe)
 NPDir=0 NMtPBC=     1 NCelOv=     1 NCel=       1 NClECP=     1 NCelD=      1
         NCelK=      1 NCelE2=     1 NClLst=     1 CellRange=     0.0.
 One-electron integrals computed using PRISM.
 NBasis=   197 RedAO= T  NBF=   197
 NBsUse=   197 1.00D-06 NBFU=   197
 Precomputing XC quadrature grid using
 IXCGrd= 2 IRadAn=           5 IRanWt=          -1 IRanGd=           0 AccXCQ= 0.00D+00.
 NRdTot=     427 NPtTot=      123814 NUsed=      126881 NTot=      126913
 NSgBfM=   229   229   229   229   229 NAtAll=     5     5.
 Leave Link  302 at Sun May  3 17:48:54 2020, MaxMem= 1073741824 cpu:       1.0
 (Enter /home/matheus/.gaussian/g09/l303.exe)
 DipDrv:  MaxL=1.
 Leave Link  303 at Sun May  3 17:48:54 2020, MaxMem= 1073741824 cpu:       0.2
 (Enter /home/matheus/.gaussian/g09/l401.exe)
 Harris functional with IExCor= 4639 diagonalized for initial guess.
 ExpMin= 2.53D-02 ExpMax= 1.17D+07 ExpMxC= 1.33D+04 IAcc=3 IRadAn=         5 AccDes= 0.00D+00
 HarFok:  IExCor= 4639 AccDes= 0.00D+00 IRadAn=         5 IDoV= 1
 ScaDFX=  1.000000  1.000000  1.000000  1.000000
 FoFCou: FMM=F IPFlag=           0 FMFlag=      100000 FMFlg1=           0
         NFxFlg=           0 DoJE=T BraDBF=F KetDBF=T FulRan=T
         Omega=  0.000000  0.000000  1.000000  0.000000  0.000000 ICntrl=     500 IOpCl=  0
         NMat0=    1 NMatS0=    1 NMatT0=    0 NMatD0=    1 NMtDS0=    0 NMtDT0=    0
         I1Cent=           4 NGrid=           0.
 Petite list used in FoFCou.
 Harris En= -2875.39374639361    
 Initial guess orbital symmetries:
       Occupied  (A) (A) (A) (A) (A) (A) (A) (A) (A) (A) (A) (A)
                 (A) (A) (A) (A) (A) (A) (A) (A) (A) (A) (A) (A)
                 (A) (A) (A)
       Virtual   (A) (A) (A) (A) (A) (A) (A) (A) (A) (A) (A) (A)
                 (A) (A) (A) (A) (A) (A) (A) (A) (A) (A) (A) (A)
                 (A) (A) (A) (A) (A) (A) (A) (A) (A) (A) (A) (A)
                 (A) (A) (A) (A) (A) (A) (A) (A) (A) (A) (A) (A)
                 (A) (A) (A) (A) (A) (A) (A) (A) (A) (A) (A) (A)
                 (A) (A) (A) (A) (A) (A) (A) (A) (A) (A) (A) (A)
                 (A) (A) (A) (A) (A) (A) (A) (A) (A) (A) (A) (A)
                 (A) (A) (A) (A) (A) (A) (A) (A) (A) (A) (A) (A)
                 (A) (A) (A) (A) (A) (A) (A) (A) (A) (A) (A) (A)
                 (A) (A) (A) (A) (A) (A) (A) (A) (A) (A) (A) (A)
                 (A) (A) (A) (A) (A) (A) (A) (A) (A) (A) (A) (A)
                 (A) (A) (A) (A) (A) (A) (A) (A) (A) (A) (A) (A)
                 (A) (A) (A) (A) (A) (A) (A) (A) (A) (A) (A) (A)
                 (A) (A) (A) (A) (A) (A) (A) (A) (A) (A) (A) (A)
                 (A) (A)
 The electronic state of the initial guess is 1-A.
 Leave Link  401 at Sun May  3 17:48:55 2020, MaxMem= 1073741824 cpu:       3.8
 (Enter /home/matheus/.gaussian/g09/l502.exe)
 Closed shell SCF:
 Requested convergence on RMS density matrix=1.00D-08 within 128 cycles.
 Requested convergence on MAX density matrix=1.00D-06.
 Requested convergence on             energy=1.00D-06.
 No special actions if energy rises.
 Using DIIS extrapolation, IDIIS=  1040.
 Integral symmetry usage will be decided dynamically.
       126823 words used for storage of precomputed grid.
 IEnd=      305770 IEndB=      305770 NGot=  1073741824 MDV=  1073505365
 LenX=  1073505365 LenY=  1073452483
 Fock matrices will be formed incrementally for  20 cycles.

 Cycle   1  Pass 1  IDiag  1:
 FoFJK:  IHMeth= 1 ICntrl=     0 DoSepK=T KAlg= 1 I1Cent= 0 FoldK=F
 FoFCou: FMM=F IPFlag=           0 FMFlag=      100000 FMFlg1=           0
         NFxFlg=           0 DoJE=T BraDBF=F KetDBF=F FulRan=T
         Omega=  0.000000  0.000000  1.000000  0.000000  0.000000 ICntrl=     500 IOpCl=  0
         NMat0=    1 NMatS0=    1 NMatT0=    0 NMatD0=    1 NMtDS0=    0 NMtDT0=    0
         I1Cent=           0 NGrid=           0.
 Symmetry not used in FoFCou.
 E= -2904.90140790357    
 DIIS: error= 7.42D-02 at cycle   1 NSaved=   1.
 NSaved= 1 IEnMin= 1 EnMin= -2904.90140790357     IErMin= 1 ErrMin= 7.42D-02
 ErrMax= 7.42D-02 EMaxC= 1.00D-01 BMatC= 2.21D+00 BMatP= 2.21D+00
 IDIUse=3 WtCom= 2.58D-01 WtEn= 7.42D-01
 Coeff-Com:  0.100D+01
 Coeff-En:   0.100D+01
 Coeff:      0.100D+01
 Gap=     0.530 Goal=   None    Shift=    0.000
 GapD=    0.530 DampG=2.000 DampE=0.500 DampFc=1.0000 IDamp=-1.
 RMSDP=6.13D-03 MaxDP=3.66D-01              OVMax= 1.77D-01

 Cycle   2  Pass 1  IDiag  1:
 RMSU=  4.30D-03    CP:  1.03D+00
 FoFJK:  IHMeth= 1 ICntrl=     0 DoSepK=T KAlg= 1 I1Cent= 0 FoldK=F
 E= -2905.22049086072     Delta-E=       -0.319082957152 Rises=F Damp=F
 DIIS: error= 3.57D-02 at cycle   2 NSaved=   2.
 NSaved= 2 IEnMin= 2 EnMin= -2905.22049086072     IErMin= 2 ErrMin= 3.57D-02
 ErrMax= 3.57D-02 EMaxC= 1.00D-01 BMatC= 5.65D-01 BMatP= 2.21D+00
 IDIUse=3 WtCom= 6.43D-01 WtEn= 3.57D-01
 Coeff-Com:  0.328D+00 0.672D+00
 Coeff-En:   0.199D+00 0.801D+00
 Coeff:      0.282D+00 0.718D+00
 Gap=     0.470 Goal=   None    Shift=    0.000
 RMSDP=2.70D-03 MaxDP=1.58D-01 DE=-3.19D-01 OVMax= 7.41D-02

 Cycle   3  Pass 1  IDiag  1:
 RMSU=  5.78D-04    CP:  1.02D+00  5.80D-01
 FoFJK:  IHMeth= 1 ICntrl=     0 DoSepK=T KAlg= 1 I1Cent= 0 FoldK=F
 E= -2905.41422712355     Delta-E=       -0.193736262824 Rises=F Damp=F
 DIIS: error= 7.02D-03 at cycle   3 NSaved=   3.
 NSaved= 3 IEnMin= 3 EnMin= -2905.41422712355     IErMin= 3 ErrMin= 7.02D-03
 ErrMax= 7.02D-03 EMaxC= 1.00D-01 BMatC= 1.99D-02 BMatP= 5.65D-01
 IDIUse=3 WtCom= 9.30D-01 WtEn= 7.02D-02
 Coeff-Com:  0.325D-01 0.192D+00 0.775D+00
 Coeff-En:   0.000D+00 0.000D+00 0.100D+01
 Coeff:      0.302D-01 0.179D+00 0.791D+00
 Gap=     0.423 Goal=   None    Shift=    0.000
 RMSDP=4.88D-04 MaxDP=1.83D-02 DE=-1.94D-01 OVMax= 2.66D-02

 Cycle   4  Pass 1  IDiag  1:
 RMSU=  2.29D-04    CP:  1.02D+00  6.39D-01  9.03D-01
 FoFJK:  IHMeth= 1 ICntrl=     0 DoSepK=T KAlg= 1 I1Cent= 0 FoldK=F
 E= -2905.42317284206     Delta-E=       -0.008945718510 Rises=F Damp=F
 DIIS: error= 2.70D-03 at cycle   4 NSaved=   4.
 NSaved= 4 IEnMin= 4 EnMin= -2905.42317284206     IErMin= 4 ErrMin= 2.70D-03
 ErrMax= 2.70D-03 EMaxC= 1.00D-01 BMatC= 1.75D-03 BMatP= 1.99D-02
 IDIUse=3 WtCom= 9.73D-01 WtEn= 2.70D-02
 Coeff-Com: -0.254D-02 0.506D-01 0.369D+00 0.583D+00
 Coeff-En:   0.000D+00 0.000D+00 0.000D+00 0.100D+01
 Coeff:     -0.247D-02 0.492D-01 0.359D+00 0.594D+00
 Gap=     0.408 Goal=   None    Shift=    0.000
 RMSDP=1.13D-04 MaxDP=6.26D-03 DE=-8.95D-03 OVMax= 6.96D-03

 Cycle   5  Pass 1  IDiag  1:
 RMSU=  4.10D-05    CP:  1.02D+00  6.38D-01  9.49D-01  7.28D-01
 FoFJK:  IHMeth= 1 ICntrl=     0 DoSepK=T KAlg= 1 I1Cent= 0 FoldK=F
 E= -2905.42422192747     Delta-E=       -0.001049085408 Rises=F Damp=F
 DIIS: error= 3.17D-04 at cycle   5 NSaved=   5.
 NSaved= 5 IEnMin= 5 EnMin= -2905.42422192747     IErMin= 5 ErrMin= 3.17D-04
 ErrMax= 3.17D-04 EMaxC= 1.00D-01 BMatC= 2.72D-05 BMatP= 1.75D-03
 IDIUse=3 WtCom= 9.97D-01 WtEn= 3.17D-03
 Coeff-Com: -0.155D-02 0.118D-01 0.105D+00 0.192D+00 0.693D+00
 Coeff-En:   0.000D+00 0.000D+00 0.000D+00 0.000D+00 0.100D+01
 Coeff:     -0.155D-02 0.118D-01 0.104D+00 0.191D+00 0.694D+00
 Gap=     0.406 Goal=   None    Shift=    0.000
 RMSDP=2.38D-05 MaxDP=9.60D-04 DE=-1.05D-03 OVMax= 1.69D-03

 Cycle   6  Pass 1  IDiag  1:
 RMSU=  1.50D-05    CP:  1.02D+00  6.38D-01  9.57D-01  7.51D-01  1.07D+00
 FoFJK:  IHMeth= 1 ICntrl=     0 DoSepK=T KAlg= 1 I1Cent= 0 FoldK=F
 E= -2905.42423627479     Delta-E=       -0.000014347319 Rises=F Damp=F
 DIIS: error= 2.00D-04 at cycle   6 NSaved=   6.
 NSaved= 6 IEnMin= 6 EnMin= -2905.42423627479     IErMin= 6 ErrMin= 2.00D-04
 ErrMax= 2.00D-04 EMaxC= 1.00D-01 BMatC= 1.02D-05 BMatP= 2.72D-05
 IDIUse=3 WtCom= 9.98D-01 WtEn= 2.00D-03
 Coeff-Com: -0.230D-03-0.664D-02-0.357D-01-0.473D-01 0.386D+00 0.704D+00
 Coeff-En:   0.000D+00 0.000D+00 0.000D+00 0.000D+00 0.177D+00 0.823D+00
 Coeff:     -0.230D-03-0.663D-02-0.357D-01-0.472D-01 0.385D+00 0.705D+00
 Gap=     0.406 Goal=   None    Shift=    0.000
 RMSDP=1.36D-05 MaxDP=4.51D-04 DE=-1.43D-05 OVMax= 7.87D-04

 Cycle   7  Pass 1  IDiag  1:
 RMSU=  3.72D-06    CP:  1.02D+00  6.38D-01  9.65D-01  7.64D-01  1.23D+00
                    CP:  8.78D-01
 FoFJK:  IHMeth= 1 ICntrl=     0 DoSepK=T KAlg= 1 I1Cent= 0 FoldK=F
 E= -2905.42424381025     Delta-E=       -0.000007535469 Rises=F Damp=F
 DIIS: error= 1.66D-05 at cycle   7 NSaved=   7.
 NSaved= 7 IEnMin= 7 EnMin= -2905.42424381025     IErMin= 7 ErrMin= 1.66D-05
 ErrMax= 1.66D-05 EMaxC= 1.00D-01 BMatC= 5.15D-08 BMatP= 1.02D-05
 IDIUse=1 WtCom= 1.00D+00 WtEn= 0.00D+00
 Coeff-Com:  0.390D-04-0.706D-03-0.520D-02-0.773D-02-0.210D-01 0.194D-01
 Coeff-Com:  0.102D+01
 Coeff:      0.390D-04-0.706D-03-0.520D-02-0.773D-02-0.210D-01 0.194D-01
 Coeff:      0.102D+01
 Gap=     0.406 Goal=   None    Shift=    0.000
 RMSDP=2.85D-06 MaxDP=1.11D-04 DE=-7.54D-06 OVMax= 1.98D-04

 Cycle   8  Pass 1  IDiag  1:
 RMSU=  7.98D-07    CP:  1.02D+00  6.38D-01  9.66D-01  7.68D-01  1.26D+00
                    CP:  9.34D-01  1.21D+00
 FoFJK:  IHMeth= 1 ICntrl=     0 DoSepK=T KAlg= 1 I1Cent= 0 FoldK=F
 E= -2905.42424393204     Delta-E=       -0.000000121781 Rises=F Damp=F
 DIIS: error= 2.88D-06 at cycle   8 NSaved=   8.
 NSaved= 8 IEnMin= 8 EnMin= -2905.42424393204     IErMin= 8 ErrMin= 2.88D-06
 ErrMax= 2.88D-06 EMaxC= 1.00D-01 BMatC= 2.76D-09 BMatP= 5.15D-08
 IDIUse=1 WtCom= 1.00D+00 WtEn= 0.00D+00
 Coeff-Com:  0.953D-05 0.192D-03 0.988D-03 0.922D-03-0.166D-01-0.260D-01
 Coeff-Com:  0.402D-01 0.100D+01
 Coeff:      0.953D-05 0.192D-03 0.988D-03 0.922D-03-0.166D-01-0.260D-01
 Coeff:      0.402D-01 0.100D+01
 Gap=     0.406 Goal=   None    Shift=    0.000
 RMSDP=5.99D-07 MaxDP=2.11D-05 DE=-1.22D-07 OVMax= 4.66D-05

 Cycle   9  Pass 1  IDiag  1:
 RMSU=  1.73D-07    CP:  1.02D+00  6.38D-01  9.66D-01  7.68D-01  1.26D+00
                    CP:  9.44D-01  1.28D+00  1.22D+00
 FoFJK:  IHMeth= 1 ICntrl=     0 DoSepK=T KAlg= 1 I1Cent= 0 FoldK=F
 E= -2905.42424393883     Delta-E=       -0.000000006798 Rises=F Damp=F
 DIIS: error= 7.51D-07 at cycle   9 NSaved=   9.
 NSaved= 9 IEnMin= 9 EnMin= -2905.42424393883     IErMin= 9 ErrMin= 7.51D-07
 ErrMax= 7.51D-07 EMaxC= 1.00D-01 BMatC= 2.36D-10 BMatP= 2.76D-09
 IDIUse=1 WtCom= 1.00D+00 WtEn= 0.00D+00
 Coeff-Com: -0.168D-05 0.631D-04 0.423D-03 0.455D-03 0.107D-03-0.252D-02
 Coeff-Com: -0.626D-01 0.652D-01 0.999D+00
 Coeff:     -0.168D-05 0.631D-04 0.423D-03 0.455D-03 0.107D-03-0.252D-02
 Coeff:     -0.626D-01 0.652D-01 0.999D+00
 Gap=     0.406 Goal=   None    Shift=    0.000
 RMSDP=1.42D-07 MaxDP=4.07D-06 DE=-6.80D-09 OVMax= 1.29D-05

 Cycle  10  Pass 1  IDiag  1:
 RMSU=  5.38D-08    CP:  1.02D+00  6.38D-01  9.66D-01  7.68D-01  1.26D+00
                    CP:  9.46D-01  1.29D+00  1.29D+00  1.22D+00
 FoFJK:  IHMeth= 1 ICntrl=     0 DoSepK=T KAlg= 1 I1Cent= 0 FoldK=F
 E= -2905.42424393941     Delta-E=       -0.000000000578 Rises=F Damp=F
 DIIS: error= 2.13D-07 at cycle  10 NSaved=  10.
 NSaved=10 IEnMin=10 EnMin= -2905.42424393941     IErMin=10 ErrMin= 2.13D-07
 ErrMax= 2.13D-07 EMaxC= 1.00D-01 BMatC= 1.58D-11 BMatP= 2.36D-10
 IDIUse=1 WtCom= 1.00D+00 WtEn= 0.00D+00
 Coeff-Com: -0.267D-06-0.714D-05-0.406D-04-0.210D-04 0.110D-02 0.164D-02
 Coeff-Com: -0.309D-02-0.732D-01 0.481D-01 0.103D+01
 Coeff:     -0.267D-06-0.714D-05-0.406D-04-0.210D-04 0.110D-02 0.164D-02
 Coeff:     -0.309D-02-0.732D-01 0.481D-01 0.103D+01
 Gap=     0.406 Goal=   None    Shift=    0.000
 RMSDP=4.14D-08 MaxDP=7.20D-07 DE=-5.78D-10 OVMax= 5.03D-06

 Cycle  11  Pass 1  IDiag  1:
 RMSU=  1.45D-08    CP:  1.02D+00  6.38D-01  9.66D-01  7.68D-01  1.26D+00
                    CP:  9.46D-01  1.29D+00  1.30D+00  1.33D+00  1.27D+00
 FoFJK:  IHMeth= 1 ICntrl=     0 DoSepK=T KAlg= 1 I1Cent= 0 FoldK=F
 E= -2905.42424393944     Delta-E=       -0.000000000032 Rises=F Damp=F
 DIIS: error= 9.22D-08 at cycle  11 NSaved=  11.
 NSaved=11 IEnMin=11 EnMin= -2905.42424393944     IErMin=11 ErrMin= 9.22D-08
 ErrMax= 9.22D-08 EMaxC= 1.00D-01 BMatC= 1.86D-12 BMatP= 1.58D-11
 IDIUse=1 WtCom= 1.00D+00 WtEn= 0.00D+00
 Coeff-Com:  0.242D-06-0.345D-05-0.262D-04-0.163D-04-0.153D-03-0.518D-04
 Coeff-Com:  0.524D-02-0.151D-03-0.663D-01-0.107D+00 0.117D+01
 Coeff:      0.242D-06-0.345D-05-0.262D-04-0.163D-04-0.153D-03-0.518D-04
 Coeff:      0.524D-02-0.151D-03-0.663D-01-0.107D+00 0.117D+01
 Gap=     0.406 Goal=   None    Shift=    0.000
 RMSDP=1.68D-08 MaxDP=3.66D-07 DE=-3.23D-11 OVMax= 2.51D-06

 Cycle  12  Pass 1  IDiag  1:
 RMSU=  4.93D-09    CP:  1.02D+00  6.38D-01  9.66D-01  7.68D-01  1.26D+00
                    CP:  9.46D-01  1.29D+00  1.30D+00  1.35D+00  1.41D+00
                    CP:  1.46D+00
 FoFJK:  IHMeth= 1 ICntrl=     0 DoSepK=T KAlg= 1 I1Cent= 0 FoldK=F
 E= -2905.42424393946     Delta-E=       -0.000000000018 Rises=F Damp=F
 DIIS: error= 4.59D-08 at cycle  12 NSaved=  12.
 NSaved=12 IEnMin=12 EnMin= -2905.42424393946     IErMin=12 ErrMin= 4.59D-08
 ErrMax= 4.59D-08 EMaxC= 1.00D-01 BMatC= 2.07D-13 BMatP= 1.86D-12
 IDIUse=1 WtCom= 1.00D+00 WtEn= 0.00D+00
 Coeff-Com: -0.352D-07 0.774D-06 0.582D-05-0.166D-05-0.848D-04-0.133D-03
 Coeff-Com: -0.245D-03 0.605D-02 0.684D-02-0.820D-01-0.252D+00 0.132D+01
 Coeff:     -0.352D-07 0.774D-06 0.582D-05-0.166D-05-0.848D-04-0.133D-03
 Coeff:     -0.245D-03 0.605D-02 0.684D-02-0.820D-01-0.252D+00 0.132D+01
 Gap=     0.406 Goal=   None    Shift=    0.000
 RMSDP=8.44D-09 MaxDP=1.91D-07 DE=-1.82D-11 OVMax= 1.31D-06

 SCF Done:  E(RwB97XD) =  -2905.42424394     A.U. after   12 cycles
             Convg  =    0.8443D-08             -V/T =  2.0016
 KE= 2.900927529970D+03 PE=-7.235014649397D+03 EE= 1.280336953835D+03
 Leave Link  502 at Sun May  3 17:49:33 2020, MaxMem= 1073741824 cpu:     302.8
 (Enter /home/matheus/.gaussian/g09/l601.exe)
 Copying SCF densities to generalized density rwf, IOpCl= 0 IROHF=0.

 **********************************************************************

            Population analysis using the SCF density.

 **********************************************************************

 Orbital symmetries:
       Occupied  (A) (A) (A) (A) (A) (A) (A) (A) (A) (A) (A) (A)
                 (A) (A) (A) (A) (A) (A) (A) (A) (A) (A) (A) (A)
                 (A) (A) (A)
       Virtual   (A) (A) (A) (A) (A) (A) (A) (A) (A) (A) (A) (A)
                 (A) (A) (A) (A) (A) (A) (A) (A) (A) (A) (A) (A)
                 (A) (A) (A) (A) (A) (A) (A) (A) (A) (A) (A) (A)
                 (A) (A) (A) (A) (A) (A) (A) (A) (A) (A) (A) (A)
                 (A) (A) (A) (A) (A) (A) (A) (A) (A) (A) (A) (A)
                 (A) (A) (A) (A) (A) (A) (A) (A) (A) (A) (A) (A)
                 (A) (A) (A) (A) (A) (A) (A) (A) (A) (A) (A) (A)
                 (A) (A) (A) (A) (A) (A) (A) (A) (A) (A) (A) (A)
                 (A) (A) (A) (A) (A) (A) (A) (A) (A) (A) (A) (A)
                 (A) (A) (A) (A) (A) (A) (A) (A) (A) (A) (A) (A)
                 (A) (A) (A) (A) (A) (A) (A) (A) (A) (A) (A) (A)
                 (A) (A) (A) (A) (A) (A) (A) (A) (A) (A) (A) (A)
                 (A) (A) (A) (A) (A) (A) (A) (A) (A) (A) (A) (A)
                 (A) (A) (A) (A) (A) (A) (A) (A) (A) (A) (A) (A)
                 (A) (A)
 The electronic state is 1-A.
 Alpha  occ. eigenvalues -- -513.08942 -67.35768 -60.90649 -60.90635 -60.90628
 Alpha  occ. eigenvalues --  -19.33719 -19.33312  -9.81095  -7.50433  -7.50385
 Alpha  occ. eigenvalues --   -7.50364  -3.37113  -3.37103  -3.37087  -3.37048
 Alpha  occ. eigenvalues --   -3.37046  -1.24270  -1.03278  -1.01754  -0.64985
 Alpha  occ. eigenvalues --   -0.61603  -0.52079  -0.49729  -0.49030  -0.48543
 Alpha  occ. eigenvalues --   -0.45254  -0.36972
 Alpha virt. eigenvalues --    0.03667   0.04340   0.08136   0.10109   0.10789
 Alpha virt. eigenvalues --    0.11690   0.13601   0.14450   0.16998   0.17589
 Alpha virt. eigenvalues --    0.18659   0.19443   0.20741   0.23187   0.23518
 Alpha virt. eigenvalues --    0.24586   0.26498   0.28554   0.30531   0.33637
 Alpha virt. eigenvalues --    0.34110   0.34519   0.36635   0.38819   0.40159
 Alpha virt. eigenvalues --    0.40255   0.42468   0.48094   0.51685   0.54462
 Alpha virt. eigenvalues --    0.56546   0.58809   0.63377   0.64845   0.68234
 Alpha virt. eigenvalues --    0.70491   0.71432   0.71847   0.73452   0.74868
 Alpha virt. eigenvalues --    0.75773   0.76607   0.78030   0.78822   0.80839
 Alpha virt. eigenvalues --    0.83294   0.84252   0.86809   0.88444   0.90173
 Alpha virt. eigenvalues --    0.91653   0.93109   0.95290   0.97325   0.98532
 Alpha virt. eigenvalues --    1.02304   1.02789   1.03763   1.05700   1.08137
 Alpha virt. eigenvalues --    1.11553   1.12102   1.15423   1.17456   1.19054
 Alpha virt. eigenvalues --    1.26677   1.30371   1.34283   1.38874   1.39666
 Alpha virt. eigenvalues --    1.45968   1.51178   1.51373   1.55231   1.58713
 Alpha virt. eigenvalues --    1.61833   1.76473   1.79561   1.84312   1.92960
 Alpha virt. eigenvalues --    1.98226   1.99112   2.02407   2.12206   2.13767
 Alpha virt. eigenvalues --    2.14861   2.17741   2.18423   2.19379   2.23915
 Alpha virt. eigenvalues --    2.26833   2.28482   2.29982   2.31638   2.33249
 Alpha virt. eigenvalues --    2.36765   2.37830   2.43562   2.46337   2.47527
 Alpha virt. eigenvalues --    2.47683   2.50163   2.52488   2.53377   2.56285
 Alpha virt. eigenvalues --    2.58066   2.60624   2.64925   2.66232   2.68681
 Alpha virt. eigenvalues --    2.71590   2.73123   2.75985   2.82741   2.88168
 Alpha virt. eigenvalues --    2.95372   3.06077   3.08266   3.14507   3.53296
 Alpha virt. eigenvalues --    3.71503   3.84145   3.92210   4.03454   4.05732
 Alpha virt. eigenvalues --    4.10401   4.15351   4.17319   4.21980   4.24864
 Alpha virt. eigenvalues --    4.40500   4.44939   4.52921   4.53610   4.73039
 Alpha virt. eigenvalues --    4.90879   4.99630   5.02796   5.05955   5.09428
 Alpha virt. eigenvalues --    5.35117   5.43752   5.83025   5.99087   6.07627
 Alpha virt. eigenvalues --    6.12628   6.31277   6.34550   6.41824   6.48427
 Alpha virt. eigenvalues --    6.69617   6.71054   6.74547   6.81337   6.85963
 Alpha virt. eigenvalues --    6.87617   6.92146   6.93370   6.95516   6.98630
 Alpha virt. eigenvalues --    7.02765   7.22880   7.24843   7.38272   7.63931
 Alpha virt. eigenvalues --    7.83835   8.09388   8.13805  14.11248  14.60498
          Condensed to atoms (all electrons):
              1          2          3          4          5
     1  O    8.150875  -0.153999   0.211776   0.003128  -0.026219
     2  O   -0.153999   8.223046   0.006285   0.217319  -0.017656
     3  H    0.211776   0.006285   0.573775   0.003350   0.002829
     4  H    0.003128   0.217319   0.003350   0.529744  -0.003871
     5  Kr  -0.026219  -0.017656   0.002829  -0.003871  36.036677
 Mulliken atomic charges:
              1
     1  O   -0.185561
     2  O   -0.274995
     3  H    0.201985
     4  H    0.250331
     5  Kr   0.008240
 Sum of Mulliken atomic charges =   0.00000
 Mulliken charges with hydrogens summed into heavy atoms:
              1
     1  O    0.016424
     2  O   -0.024664
     5  Kr   0.008240
 Sum of Mulliken charges with hydrogens summed into heavy atoms =   0.00000
          Condensed to fragments (all electrons):
     1      -0.008240
     2       0.008240
 Electronic spatial extent (au):  <R**2>=            492.0187
 Charge=              0.0000 electrons
 Dipole moment (field-independent basis, Debye):
    X=              0.2639    Y=             -0.3015    Z=              0.5346  Tot=              0.6681
 Quadrupole moment (field-independent basis, Debye-Ang):
   XX=            -26.7209   YY=            -28.3194   ZZ=            -30.5025
   XY=              3.8076   XZ=             -1.6992   YZ=             -0.5668
 Traceless Quadrupole moment (field-independent basis, Debye-Ang):
   XX=              1.7934   YY=              0.1949   ZZ=             -1.9882
   XY=              3.8076   XZ=             -1.6992   YZ=             -0.5668
 Octapole moment (field-independent basis, Debye-Ang**2):
  XXX=              1.7742  YYY=             -0.6754  ZZZ=              0.2080  XYY=              4.2747
  XXY=            -16.0012  XXZ=              5.1025  XZZ=              8.2341  YZZ=             -0.4740
  YYZ=              0.6596  XYZ=              1.7637
 Hexadecapole moment (field-independent basis, Debye-Ang**3):
 XXXX=           -348.9773 YYYY=            -63.9405 ZZZZ=            -29.7936 XXXY=             49.9003
 XXXZ=            -15.4979 YYYX=              5.5522 YYYZ=             -0.6986 ZZZX=             -0.7161
 ZZZY=             -0.3211 XXYY=            -75.1862 XXZZ=            -78.9595 YYZZ=            -17.4263
 XXYZ=             -5.3223 YYXZ=             -1.9533 ZZXY=              0.8092
 N-N= 1.483259216527D+02 E-N=-7.235014649168D+03  KE= 2.900927529970D+03
 No NMR shielding tensors so no spin-rotation constants.
 Leave Link  601 at Sun May  3 17:49:33 2020, MaxMem= 1073741824 cpu:       0.8
 (Enter /home/matheus/.gaussian/g09/l122.exe)
 Counterpoise: doing DCBS calculation for fragment   1 NewBq=T
 Leave Link  122 at Sun May  3 17:49:33 2020, MaxMem= 1073741824 cpu:       0.0
 (Enter /home/matheus/.gaussian/g09/l301.exe)
 Basis read from rwf:  (5D, 7F)
 No pseudopotential information found on rwf file.
 There are   197 symmetry adapted basis functions of A   symmetry.
 Integral buffers will be    131072 words long.
 Raffenetti 2 integral format.
 Two-electron integral symmetry is turned on.
   197 basis functions,   415 primitive gaussians,   229 cartesian basis functions
     9 alpha electrons        9 beta electrons
       nuclear repulsion energy        36.6019262901 Hartrees.
 IExCor= 4639 DFT=T Ex+Corr=wB97XD ExCW=0 ScaHFX=  1.000000
 ScaDFX=  1.000000  1.000000  1.000000  1.000000 ScalE2=  1.000000  1.000000
 IRadAn=      5 IRanWt=     -1 IRanGd=            0 ICorTp=0
  HFx wShort=  0.000000 wLong=  0.250000 cFull=  0.222036 cShort=  0.000000 cLong=  0.777964
  DFx wShort=  0.000000 wLong=  0.250000 cFull=  0.000000 cShort=  0.000000 cLong=  1.000000
 NAtoms=    5 NActive=    5 NUniq=    5 SFac= 1.00D+00 NAtFMM=   60 NAOKFM=F Big=F
 R6Disp: Dispersion energy =        -0.0002006355 Hartrees.
 Nuclear repulsion after empirical dispersion term =       36.6017256546 Hartrees.
 No density basis found on file   718.
 Leave Link  301 at Sun May  3 17:49:33 2020, MaxMem= 1073741824 cpu:       0.2
 (Enter /home/matheus/.gaussian/g09/l302.exe)
 NPDir=0 NMtPBC=     1 NCelOv=     1 NCel=       1 NClECP=     1 NCelD=      1
         NCelK=      1 NCelE2=     1 NClLst=     1 CellRange=     0.0.
 One-electron integrals computed using PRISM.
 NBasis=   197 RedAO= T  NBF=   197
 NBsUse=   197 1.00D-06 NBFU=   197
 Precomputing XC quadrature grid using
 IXCGrd= 2 IRadAn=           5 IRanWt=          -1 IRanGd=           0 AccXCQ= 0.00D+00.
 NRdTot=     427 NPtTot=      123814 NUsed=      126881 NTot=      126913
 NSgBfM=   229   229   229   229   229 NAtAll=     5     5.
 Leave Link  302 at Sun May  3 17:49:33 2020, MaxMem= 1073741824 cpu:       1.0
 (Enter /home/matheus/.gaussian/g09/l303.exe)
 DipDrv:  MaxL=1.
 Leave Link  303 at Sun May  3 17:49:33 2020, MaxMem= 1073741824 cpu:       0.2
 (Enter /home/matheus/.gaussian/g09/l401.exe)
 Harris functional with IExCor= 4639 diagonalized for initial guess.
 ExpMin= 2.53D-02 ExpMax= 1.17D+07 ExpMxC= 1.33D+04 IAcc=3 IRadAn=         5 AccDes= 0.00D+00
 HarFok:  IExCor= 4639 AccDes= 0.00D+00 IRadAn=         5 IDoV= 1
 ScaDFX=  1.000000  1.000000  1.000000  1.000000
 FoFCou: FMM=F IPFlag=           0 FMFlag=      100000 FMFlg1=           0
         NFxFlg=           0 DoJE=T BraDBF=F KetDBF=T FulRan=T
         Omega=  0.000000  0.000000  1.000000  0.000000  0.000000 ICntrl=     500 IOpCl=  0
         NMat0=    1 NMatS0=    1 NMatT0=    0 NMatD0=    1 NMtDS0=    0 NMtDT0=    0
         I1Cent=           4 NGrid=           0.
 Petite list used in FoFCou.
 Harris En= -145.942987087450    
 Initial guess orbital symmetries:
       Occupied  (A) (A) (A) (A) (A) (A) (A) (A) (A)
       Virtual   (A) (A) (A) (A) (A) (A) (A) (A) (A) (A) (A) (A)
                 (A) (A) (A) (A) (A) (A) (A) (A) (A) (A) (A) (A)
                 (A) (A) (A) (A) (A) (A) (A) (A) (A) (A) (A) (A)
                 (A) (A) (A) (A) (A) (A) (A) (A) (A) (A) (A) (A)
                 (A) (A) (A) (A) (A) (A) (A) (A) (A) (A) (A) (A)
                 (A) (A) (A) (A) (A) (A) (A) (A) (A) (A) (A) (A)
                 (A) (A) (A) (A) (A) (A) (A) (A) (A) (A) (A) (A)
                 (A) (A) (A) (A) (A) (A) (A) (A) (A) (A) (A) (A)
                 (A) (A) (A) (A) (A) (A) (A) (A) (A) (A) (A) (A)
                 (A) (A) (A) (A) (A) (A) (A) (A) (A) (A) (A) (A)
                 (A) (A) (A) (A) (A) (A) (A) (A) (A) (A) (A) (A)
                 (A) (A) (A) (A) (A) (A) (A) (A) (A) (A) (A) (A)
                 (A) (A) (A) (A) (A) (A) (A) (A) (A) (A) (A) (A)
                 (A) (A) (A) (A) (A) (A) (A) (A) (A) (A) (A) (A)
                 (A) (A) (A) (A) (A) (A) (A) (A) (A) (A) (A) (A)
                 (A) (A) (A) (A) (A) (A) (A) (A)
 The electronic state of the initial guess is 1-A.
 Leave Link  401 at Sun May  3 17:49:33 2020, MaxMem= 1073741824 cpu:       3.9
 (Enter /home/matheus/.gaussian/g09/l502.exe)
 Closed shell SCF:
 Requested convergence on RMS density matrix=1.00D-08 within 128 cycles.
 Requested convergence on MAX density matrix=1.00D-06.
 Requested convergence on             energy=1.00D-06.
 No special actions if energy rises.
 Using DIIS extrapolation, IDIIS=  1040.
 Integral symmetry usage will be decided dynamically.
       126823 words used for storage of precomputed grid.
 IEnd=      305770 IEndB=      305770 NGot=  1073741824 MDV=  1073505365
 LenX=  1073505365 LenY=  1073452483
 Fock matrices will be formed incrementally for  20 cycles.

 Cycle   1  Pass 1  IDiag  1:
 FoFJK:  IHMeth= 1 ICntrl=     0 DoSepK=T KAlg= 1 I1Cent= 0 FoldK=F
 FoFCou: FMM=F IPFlag=           0 FMFlag=      100000 FMFlg1=           0
         NFxFlg=           0 DoJE=T BraDBF=F KetDBF=F FulRan=T
         Omega=  0.000000  0.000000  1.000000  0.000000  0.000000 ICntrl=     500 IOpCl=  0
         NMat0=    1 NMatS0=    1 NMatT0=    0 NMatD0=    1 NMtDS0=    0 NMtDT0=    0
         I1Cent=           0 NGrid=           0.
 Symmetry not used in FoFCou.
 E= -151.459707838819    
 DIIS: error= 3.30D-02 at cycle   1 NSaved=   1.
 NSaved= 1 IEnMin= 1 EnMin= -151.459707838819     IErMin= 1 ErrMin= 3.30D-02
 ErrMax= 3.30D-02 EMaxC= 1.00D-01 BMatC= 3.19D-01 BMatP= 3.19D-01
 IDIUse=3 WtCom= 6.70D-01 WtEn= 3.30D-01
 Coeff-Com:  0.100D+01
 Coeff-En:   0.100D+01
 Coeff:      0.100D+01
 Gap=     0.529 Goal=   None    Shift=    0.000
 GapD=    0.529 DampG=2.000 DampE=0.500 DampFc=1.0000 IDamp=-1.
 RMSDP=2.36D-03 MaxDP=9.22D-02              OVMax= 1.24D-01

 Cycle   2  Pass 1  IDiag  1:
 RMSU=  1.64D-03    CP:  9.59D-01
 FoFJK:  IHMeth= 1 ICntrl=     0 DoSepK=T KAlg= 1 I1Cent= 0 FoldK=F
 E= -151.498056345234     Delta-E=       -0.038348506415 Rises=F Damp=F
 DIIS: error= 1.86D-02 at cycle   2 NSaved=   2.
 NSaved= 2 IEnMin= 2 EnMin= -151.498056345234     IErMin= 2 ErrMin= 1.86D-02
 ErrMax= 1.86D-02 EMaxC= 1.00D-01 BMatC= 1.02D-01 BMatP= 3.19D-01
 IDIUse=3 WtCom= 8.14D-01 WtEn= 1.86D-01
 Coeff-Com:  0.341D+00 0.659D+00
 Coeff-En:   0.348D+00 0.652D+00
 Coeff:      0.342D+00 0.658D+00
 Gap=     0.468 Goal=   None    Shift=    0.000
 RMSDP=9.66D-04 MaxDP=4.62D-02 DE=-3.83D-02 OVMax= 5.96D-02

 Cycle   3  Pass 1  IDiag  1:
 RMSU=  3.78D-04    CP:  9.77D-01  6.62D-01
 FoFJK:  IHMeth= 1 ICntrl=     0 DoSepK=T KAlg= 1 I1Cent= 0 FoldK=F
 E= -151.553871183233     Delta-E=       -0.055814837999 Rises=F Damp=F
 DIIS: error= 4.62D-03 at cycle   3 NSaved=   3.
 NSaved= 3 IEnMin= 3 EnMin= -151.553871183233     IErMin= 3 ErrMin= 4.62D-03
 ErrMax= 4.62D-03 EMaxC= 1.00D-01 BMatC= 5.32D-03 BMatP= 1.02D-01
 IDIUse=3 WtCom= 9.54D-01 WtEn= 4.62D-02
 Coeff-Com:  0.734D-02 0.190D+00 0.802D+00
 Coeff-En:   0.000D+00 0.000D+00 0.100D+01
 Coeff:      0.700D-02 0.182D+00 0.811D+00
 Gap=     0.408 Goal=   None    Shift=    0.000
 RMSDP=2.55D-04 MaxDP=1.00D-02 DE=-5.58D-02 OVMax= 1.61D-02

 Cycle   4  Pass 1  IDiag  1:
 RMSU=  7.25D-05    CP:  9.72D-01  7.56D-01  8.80D-01
 FoFJK:  IHMeth= 1 ICntrl=     0 DoSepK=T KAlg= 1 I1Cent= 0 FoldK=F
 E= -151.557294152100     Delta-E=       -0.003422968867 Rises=F Damp=F
 DIIS: error= 4.15D-04 at cycle   4 NSaved=   4.
 NSaved= 4 IEnMin= 4 EnMin= -151.557294152100     IErMin= 4 ErrMin= 4.15D-04
 ErrMax= 4.15D-04 EMaxC= 1.00D-01 BMatC= 4.45D-05 BMatP= 5.32D-03
 IDIUse=3 WtCom= 9.96D-01 WtEn= 4.15D-03
 Coeff-Com: -0.178D-02-0.146D-01 0.281D-01 0.988D+00
 Coeff-En:   0.000D+00 0.000D+00 0.000D+00 0.100D+01
 Coeff:     -0.177D-02-0.146D-01 0.280D-01 0.988D+00
 Gap=     0.405 Goal=   None    Shift=    0.000
 RMSDP=3.91D-05 MaxDP=1.89D-03 DE=-3.42D-03 OVMax= 1.63D-03

 Cycle   5  Pass 1  IDiag  1:
 RMSU=  1.24D-05    CP:  9.72D-01  7.53D-01  9.32D-01  1.20D+00
 FoFJK:  IHMeth= 1 ICntrl=     0 DoSepK=T KAlg= 1 I1Cent= 0 FoldK=F
 E= -151.557331559642     Delta-E=       -0.000037407543 Rises=F Damp=F
 DIIS: error= 4.49D-05 at cycle   5 NSaved=   5.
 NSaved= 5 IEnMin= 5 EnMin= -151.557331559642     IErMin= 5 ErrMin= 4.49D-05
 ErrMax= 4.49D-05 EMaxC= 1.00D-01 BMatC= 4.79D-07 BMatP= 4.45D-05
 IDIUse=1 WtCom= 1.00D+00 WtEn= 0.00D+00
 Coeff-Com: -0.324D-03-0.863D-02-0.378D-01-0.323D-01 0.108D+01
 Coeff:     -0.324D-03-0.863D-02-0.378D-01-0.323D-01 0.108D+01
 Gap=     0.405 Goal=   None    Shift=    0.000
 RMSDP=1.08D-05 MaxDP=4.77D-04 DE=-3.74D-05 OVMax= 7.53D-04

 Cycle   6  Pass 1  IDiag  1:
 RMSU=  2.45D-06    CP:  9.72D-01  7.54D-01  9.41D-01  1.27D+00  1.24D+00
 FoFJK:  IHMeth= 1 ICntrl=     0 DoSepK=T KAlg= 1 I1Cent= 0 FoldK=F
 E= -151.557332960304     Delta-E=       -0.000001400661 Rises=F Damp=F
 DIIS: error= 1.09D-05 at cycle   6 NSaved=   6.
 NSaved= 6 IEnMin= 6 EnMin= -151.557332960304     IErMin= 6 ErrMin= 1.09D-05
 ErrMax= 1.09D-05 EMaxC= 1.00D-01 BMatC= 3.25D-08 BMatP= 4.79D-07
 IDIUse=1 WtCom= 1.00D+00 WtEn= 0.00D+00
 Coeff-Com:  0.682D-05-0.657D-03-0.530D-02-0.263D-01 0.117D+00 0.915D+00
 Coeff:      0.682D-05-0.657D-03-0.530D-02-0.263D-01 0.117D+00 0.915D+00
 Gap=     0.405 Goal=   None    Shift=    0.000
 RMSDP=1.54D-06 MaxDP=5.66D-05 DE=-1.40D-06 OVMax= 1.26D-04

 Cycle   7  Pass 1  IDiag  1:
 RMSU=  5.83D-07    CP:  9.72D-01  7.54D-01  9.41D-01  1.27D+00  1.29D+00
                    CP:  1.22D+00
 FoFJK:  IHMeth= 1 ICntrl=     0 DoSepK=T KAlg= 1 I1Cent= 0 FoldK=F
 E= -151.557333006357     Delta-E=       -0.000000046053 Rises=F Damp=F
 DIIS: error= 9.45D-06 at cycle   7 NSaved=   7.
 NSaved= 7 IEnMin= 7 EnMin= -151.557333006357     IErMin= 7 ErrMin= 9.45D-06
 ErrMax= 9.45D-06 EMaxC= 1.00D-01 BMatC= 2.14D-08 BMatP= 3.25D-08
 IDIUse=1 WtCom= 1.00D+00 WtEn= 0.00D+00
 Coeff-Com:  0.358D-04 0.560D-03 0.128D-02-0.104D-01-0.568D-01 0.478D+00
 Coeff-Com:  0.587D+00
 Coeff:      0.358D-04 0.560D-03 0.128D-02-0.104D-01-0.568D-01 0.478D+00
 Coeff:      0.587D+00
 Gap=     0.405 Goal=   None    Shift=    0.000
 RMSDP=5.29D-07 MaxDP=2.51D-05 DE=-4.61D-08 OVMax= 4.18D-05

 Cycle   8  Pass 1  IDiag  1:
 RMSU=  2.14D-07    CP:  9.72D-01  7.54D-01  9.41D-01  1.27D+00  1.30D+00
                    CP:  1.31D+00  7.39D-01
 FoFJK:  IHMeth= 1 ICntrl=     0 DoSepK=T KAlg= 1 I1Cent= 0 FoldK=F
 E= -151.557333023058     Delta-E=       -0.000000016701 Rises=F Damp=F
 DIIS: error= 2.12D-06 at cycle   8 NSaved=   8.
 NSaved= 8 IEnMin= 8 EnMin= -151.557333023058     IErMin= 8 ErrMin= 2.12D-06
 ErrMax= 2.12D-06 EMaxC= 1.00D-01 BMatC= 1.35D-09 BMatP= 2.14D-08
 IDIUse=1 WtCom= 1.00D+00 WtEn= 0.00D+00
 Coeff-Com:  0.421D-05 0.222D-03 0.126D-02 0.215D-02-0.340D-01-0.706D-01
 Coeff-Com:  0.159D+00 0.942D+00
 Coeff:      0.421D-05 0.222D-03 0.126D-02 0.215D-02-0.340D-01-0.706D-01
 Coeff:      0.159D+00 0.942D+00
 Gap=     0.405 Goal=   None    Shift=    0.000
 RMSDP=2.14D-07 MaxDP=8.23D-06 DE=-1.67D-08 OVMax= 2.28D-05

 Cycle   9  Pass 1  IDiag  1:
 RMSU=  7.01D-08    CP:  9.72D-01  7.54D-01  9.41D-01  1.27D+00  1.31D+00
                    CP:  1.33D+00  8.88D-01  1.17D+00
 FoFJK:  IHMeth= 1 ICntrl=     0 DoSepK=T KAlg= 1 I1Cent= 0 FoldK=F
 E= -151.557333025005     Delta-E=       -0.000000001947 Rises=F Damp=F
 DIIS: error= 3.08D-07 at cycle   9 NSaved=   9.
 NSaved= 9 IEnMin= 9 EnMin= -151.557333025005     IErMin= 9 ErrMin= 3.08D-07
 ErrMax= 3.08D-07 EMaxC= 1.00D-01 BMatC= 3.21D-11 BMatP= 1.35D-09
 IDIUse=1 WtCom= 1.00D+00 WtEn= 0.00D+00
 Coeff-Com: -0.752D-06-0.259D-04-0.109D-03 0.153D-03 0.557D-02-0.266D-01
 Coeff-Com: -0.298D-01 0.706D-02 0.104D+01
 Coeff:     -0.752D-06-0.259D-04-0.109D-03 0.153D-03 0.557D-02-0.266D-01
 Coeff:     -0.298D-01 0.706D-02 0.104D+01
 Gap=     0.405 Goal=   None    Shift=    0.000
 RMSDP=5.84D-08 MaxDP=1.11D-06 DE=-1.95D-09 OVMax= 7.46D-06

 Cycle  10  Pass 1  IDiag  1:
 RMSU=  1.57D-08    CP:  9.72D-01  7.54D-01  9.41D-01  1.27D+00  1.31D+00
                    CP:  1.33D+00  9.05D-01  1.27D+00  1.38D+00
 FoFJK:  IHMeth= 1 ICntrl=     0 DoSepK=T KAlg= 1 I1Cent= 0 FoldK=F
 E= -151.557333025106     Delta-E=       -0.000000000101 Rises=F Damp=F
 DIIS: error= 1.52D-07 at cycle  10 NSaved=  10.
 NSaved=10 IEnMin=10 EnMin= -151.557333025106     IErMin=10 ErrMin= 1.52D-07
 ErrMax= 1.52D-07 EMaxC= 1.00D-01 BMatC= 4.53D-12 BMatP= 3.21D-11
 IDIUse=1 WtCom= 1.00D+00 WtEn= 0.00D+00
 Coeff-Com:  0.767D-07-0.980D-05-0.838D-04-0.256D-03 0.228D-02 0.519D-02
 Coeff-Com: -0.743D-02-0.551D-01-0.210D+00 0.126D+01
 Coeff:      0.767D-07-0.980D-05-0.838D-04-0.256D-03 0.228D-02 0.519D-02
 Coeff:     -0.743D-02-0.551D-01-0.210D+00 0.126D+01
 Gap=     0.405 Goal=   None    Shift=    0.000
 RMSDP=2.93D-08 MaxDP=6.36D-07 DE=-1.01D-10 OVMax= 4.39D-06

 Cycle  11  Pass 1  IDiag  1:
 RMSU=  6.58D-09    CP:  9.72D-01  7.54D-01  9.41D-01  1.27D+00  1.31D+00
                    CP:  1.33D+00  9.11D-01  1.31D+00  1.56D+00  1.69D+00
 FoFJK:  IHMeth= 1 ICntrl=     0 DoSepK=T KAlg= 1 I1Cent= 0 FoldK=F
 E= -151.557333025127     Delta-E=       -0.000000000022 Rises=F Damp=F
 DIIS: error= 6.31D-08 at cycle  11 NSaved=  11.
 NSaved=11 IEnMin=11 EnMin= -151.557333025127     IErMin=11 ErrMin= 6.31D-08
 ErrMax= 6.31D-08 EMaxC= 1.00D-01 BMatC= 4.34D-13 BMatP= 4.53D-12
 IDIUse=1 WtCom= 1.00D+00 WtEn= 0.00D+00
 Coeff-Com: -0.125D-06 0.175D-05 0.215D-04 0.292D-04-0.724D-03-0.796D-04
 Coeff-Com:  0.458D-02 0.184D-01-0.659D-01-0.290D+00 0.133D+01
 Coeff:     -0.125D-06 0.175D-05 0.215D-04 0.292D-04-0.724D-03-0.796D-04
 Coeff:      0.458D-02 0.184D-01-0.659D-01-0.290D+00 0.133D+01
 Gap=     0.405 Goal=   None    Shift=    0.000
 RMSDP=1.26D-08 MaxDP=2.73D-07 DE=-2.15D-11 OVMax= 1.90D-06

 Cycle  12  Pass 1  IDiag  1:
 RMSU=  1.97D-09    CP:  9.72D-01  7.54D-01  9.41D-01  1.27D+00  1.31D+00
                    CP:  1.33D+00  9.12D-01  1.32D+00  1.61D+00  2.05D+00
                    CP:  1.71D+00
 FoFJK:  IHMeth= 1 ICntrl=     0 DoSepK=T KAlg= 1 I1Cent= 0 FoldK=F
 E= -151.557333025130     Delta-E=       -0.000000000003 Rises=F Damp=F
 DIIS: error= 1.59D-08 at cycle  12 NSaved=  12.
 NSaved=12 IEnMin=12 EnMin= -151.557333025130     IErMin=12 ErrMin= 1.59D-08
 ErrMax= 1.59D-08 EMaxC= 1.00D-01 BMatC= 4.12D-14 BMatP= 4.34D-13
 IDIUse=1 WtCom= 1.00D+00 WtEn= 0.00D+00
 Coeff-Com: -0.406D-07 0.831D-06 0.922D-05 0.235D-04-0.219D-03-0.787D-03
 Coeff-Com:  0.914D-03 0.731D-02 0.166D-01-0.141D+00 0.236D-01 0.109D+01
 Coeff:     -0.406D-07 0.831D-06 0.922D-05 0.235D-04-0.219D-03-0.787D-03
 Coeff:      0.914D-03 0.731D-02 0.166D-01-0.141D+00 0.236D-01 0.109D+01
 Gap=     0.405 Goal=   None    Shift=    0.000
 RMSDP=3.71D-09 MaxDP=7.87D-08 DE=-2.79D-12 OVMax= 4.90D-07

 SCF Done:  E(RwB97XD) =  -151.557333025     A.U. after   12 cycles
             Convg  =    0.3714D-08             -V/T =  2.0061
 KE= 1.506336892130D+02 PE=-4.316731218712D+02 EE= 9.288037397849D+01
 Leave Link  502 at Sun May  3 17:50:09 2020, MaxMem= 1073741824 cpu:     286.0
 (Enter /home/matheus/.gaussian/g09/l601.exe)
 Copying SCF densities to generalized density rwf, IOpCl= 0 IROHF=0.

 **********************************************************************

            Population analysis using the SCF density.

 **********************************************************************

 Orbital symmetries:
       Occupied  (A) (A) (A) (A) (A) (A) (A) (A) (A)
       Virtual   (A) (A) (A) (A) (A) (A) (A) (A) (A) (A) (A) (A)
                 (A) (A) (A) (A) (A) (A) (A) (A) (A) (A) (A) (A)
                 (A) (A) (A) (A) (A) (A) (A) (A) (A) (A) (A) (A)
                 (A) (A) (A) (A) (A) (A) (A) (A) (A) (A) (A) (A)
                 (A) (A) (A) (A) (A) (A) (A) (A) (A) (A) (A) (A)
                 (A) (A) (A) (A) (A) (A) (A) (A) (A) (A) (A) (A)
                 (A) (A) (A) (A) (A) (A) (A) (A) (A) (A) (A) (A)
                 (A) (A) (A) (A) (A) (A) (A) (A) (A) (A) (A) (A)
                 (A) (A) (A) (A) (A) (A) (A) (A) (A) (A) (A) (A)
                 (A) (A) (A) (A) (A) (A) (A) (A) (A) (A) (A) (A)
                 (A) (A) (A) (A) (A) (A) (A) (A) (A) (A) (A) (A)
                 (A) (A) (A) (A) (A) (A) (A) (A) (A) (A) (A) (A)
                 (A) (A) (A) (A) (A) (A) (A) (A) (A) (A) (A) (A)
                 (A) (A) (A) (A) (A) (A) (A) (A) (A) (A) (A) (A)
                 (A) (A) (A) (A) (A) (A) (A) (A) (A) (A) (A) (A)
                 (A) (A) (A) (A) (A) (A) (A) (A)
 The electronic state is 1-A.
 Alpha  occ. eigenvalues --  -19.33848 -19.33844  -1.24469  -1.03365  -0.65115
 Alpha  occ. eigenvalues --   -0.61151  -0.52099  -0.45788  -0.37200
 Alpha virt. eigenvalues --    0.03268   0.03826   0.07225   0.09349   0.09740
 Alpha virt. eigenvalues --    0.10740   0.11322   0.14206   0.16890   0.17486
 Alpha virt. eigenvalues --    0.18668   0.20105   0.21361   0.23326   0.26504
 Alpha virt. eigenvalues --    0.27497   0.30213   0.31610   0.32169   0.33724
 Alpha virt. eigenvalues --    0.36769   0.38101   0.39073   0.39736   0.41827
 Alpha virt. eigenvalues --    0.43076   0.44315   0.47447   0.49388   0.50016
 Alpha virt. eigenvalues --    0.54858   0.58185   0.59674   0.64747   0.67356
 Alpha virt. eigenvalues --    0.69027   0.73308   0.74112   0.75065   0.75638
 Alpha virt. eigenvalues --    0.78109   0.81952   0.84586   0.87474   0.90364
 Alpha virt. eigenvalues --    0.91236   0.92439   0.95484   0.97503   0.99274
 Alpha virt. eigenvalues --    1.00175   1.04575   1.04804   1.09062   1.12990
 Alpha virt. eigenvalues --    1.14067   1.15893   1.17575   1.19551   1.23740
 Alpha virt. eigenvalues --    1.25424   1.30716   1.32887   1.33255   1.34105
 Alpha virt. eigenvalues --    1.34642   1.35370   1.37144   1.37661   1.44063
 Alpha virt. eigenvalues --    1.48240   1.49814   1.52862   1.53542   1.55979
 Alpha virt. eigenvalues --    1.57124   1.64341   1.67541   1.72068   1.79394
 Alpha virt. eigenvalues --    1.80413   1.83114   1.88307   1.96355   2.00935
 Alpha virt. eigenvalues --    2.02041   2.05414   2.14306   2.14924   2.20309
 Alpha virt. eigenvalues --    2.24676   2.26726   2.30999   2.35262   2.42394
 Alpha virt. eigenvalues --    2.47593   2.54086   2.55001   2.57035   2.65352
 Alpha virt. eigenvalues --    2.68012   2.70850   2.75682   2.84376   2.92902
 Alpha virt. eigenvalues --    3.05410   3.07808   3.10627   3.27044   3.31357
 Alpha virt. eigenvalues --    3.40505   3.50990   3.60329   3.69625   3.79220
 Alpha virt. eigenvalues --    3.80188   3.81488   3.83118   3.83637   3.84443
 Alpha virt. eigenvalues --    3.89623   3.90239   3.91554   3.92901   3.95646
 Alpha virt. eigenvalues --    3.97502   4.03991   4.08060   4.11511   4.11787
 Alpha virt. eigenvalues --    4.12814   4.18763   4.21149   4.28247   4.35289
 Alpha virt. eigenvalues --    4.42300   4.48131   4.55648   4.73497   4.90975
 Alpha virt. eigenvalues --    4.99970   5.02942   5.06032   5.09582   5.35391
 Alpha virt. eigenvalues --    5.43643   5.82949   5.98951   6.07497   6.12356
 Alpha virt. eigenvalues --    6.31213   6.34494   6.41705   6.48285   6.69470
 Alpha virt. eigenvalues --    6.70838   6.74364   6.81189   6.85807   6.87439
 Alpha virt. eigenvalues --    6.91677   6.93188   6.95352   6.98333   7.02604
 Alpha virt. eigenvalues --    7.22671   7.24814   7.38061   7.63696   7.83616
 Alpha virt. eigenvalues --    8.09222   8.13374  10.89724  14.11271  14.58848
 Alpha virt. eigenvalues --   14.84634  14.89793  15.12369  29.04358  29.04930
 Alpha virt. eigenvalues --   29.09256  29.15039  29.24500  49.11483 148.32638
 Alpha virt. eigenvalues --  148.40203 148.73121 752.50706
          Condensed to atoms (all electrons):
              1          2          3          4          5
     1  O    8.170646  -0.149566   0.199475  -0.001940  -0.005148
     2  O   -0.149566   8.161975   0.006571   0.229063  -0.000618
     3  H    0.199475   0.006571   0.573187   0.004754   0.000951
     4  H   -0.001940   0.229063   0.004754   0.534241  -0.004221
     5  Kr  -0.005148  -0.000618   0.000951  -0.004221   0.001312
 Mulliken atomic charges:
              1
     1  O   -0.213467
     2  O   -0.247424
     3  H    0.215063
     4  H    0.238103
     5  Kr   0.007725
 Sum of Mulliken atomic charges =   0.00000
 Mulliken charges with hydrogens summed into heavy atoms:
              1
     1  O    0.001596
     2  O   -0.009322
     5  Kr   0.007725
 Sum of Mulliken charges with hydrogens summed into heavy atoms =   0.00000
          Condensed to fragments (all electrons):
     1      -0.007725
     2       0.007725
 Electronic spatial extent (au):  <R**2>=            324.4318
 Charge=              0.0000 electrons
 Dipole moment (field-independent basis, Debye):
    X=              0.0923    Y=             -0.0175    Z=              0.5474  Tot=              0.5554
 Quadrupole moment (field-independent basis, Debye-Ang):
   XX=             -9.0737   YY=            -10.6889   ZZ=            -12.9367
   XY=              3.9780   XZ=             -1.6887   YZ=             -0.5646
 Traceless Quadrupole moment (field-independent basis, Debye-Ang):
   XX=              1.8261   YY=              0.2109   ZZ=             -2.0370
   XY=              3.9780   XZ=             -1.6887   YZ=             -0.5646
 Octapole moment (field-independent basis, Debye-Ang**2):
  XXX=             53.5691  YYY=             -1.2522  ZZZ=              0.3324  XYY=             21.7178
  XXY=            -15.9354  XXZ=              5.1554  XZZ=             25.7261  YZZ=             -0.6637
  YYZ=              0.7003  XYZ=              1.7624
 Hexadecapole moment (field-independent basis, Debye-Ang**3):
 XXXX=           -223.9937 YYYY=            -45.5813 ZZZZ=            -11.5921 XXXY=             49.1295
 XXXZ=            -15.3806 YYYX=              4.9461 YYYZ=             -0.6960 ZZZX=             -0.5941
 ZZZY=             -0.3187 XXYY=            -51.3549 XXZZ=            -55.2701 YYZZ=            -11.3245
 XXYZ=             -5.3239 YYXZ=             -1.9108 ZZXY=              0.5659
 N-N= 3.660172565461D+01 E-N=-4.316731213823D+02  KE= 1.506336892130D+02
 No NMR shielding tensors so no spin-rotation constants.
 Leave Link  601 at Sun May  3 17:50:09 2020, MaxMem= 1073741824 cpu:       0.8
 (Enter /home/matheus/.gaussian/g09/l122.exe)
 Counterpoise: doing DCBS calculation for fragment   2 NewBq=T
 Leave Link  122 at Sun May  3 17:50:09 2020, MaxMem= 1073741824 cpu:       0.0
 (Enter /home/matheus/.gaussian/g09/l301.exe)
 Basis read from rwf:  (5D, 7F)
 No pseudopotential information found on rwf file.
 There are   197 symmetry adapted basis functions of A   symmetry.
 Integral buffers will be    131072 words long.
 Raffenetti 2 integral format.
 Two-electron integral symmetry is turned on.
   197 basis functions,   415 primitive gaussians,   229 cartesian basis functions
    18 alpha electrons       18 beta electrons
       nuclear repulsion energy         0.0000000000 Hartrees.
 IExCor= 4639 DFT=T Ex+Corr=wB97XD ExCW=0 ScaHFX=  1.000000
 ScaDFX=  1.000000  1.000000  1.000000  1.000000 ScalE2=  1.000000  1.000000
 IRadAn=      5 IRanWt=     -1 IRanGd=            0 ICorTp=0
  HFx wShort=  0.000000 wLong=  0.250000 cFull=  0.222036 cShort=  0.000000 cLong=  0.777964
  DFx wShort=  0.000000 wLong=  0.250000 cFull=  0.000000 cShort=  0.000000 cLong=  1.000000
 NAtoms=    5 NActive=    5 NUniq=    5 SFac= 1.00D+00 NAtFMM=   60 NAOKFM=F Big=F
 R6Disp: Dispersion energy =         0.0000000000 Hartrees.
 Nuclear repulsion after empirical dispersion term =        0.0000000000 Hartrees.
 No density basis found on file   718.
 Leave Link  301 at Sun May  3 17:50:09 2020, MaxMem= 1073741824 cpu:       0.2
 (Enter /home/matheus/.gaussian/g09/l302.exe)
 NPDir=0 NMtPBC=     1 NCelOv=     1 NCel=       1 NClECP=     1 NCelD=      1
         NCelK=      1 NCelE2=     1 NClLst=     1 CellRange=     0.0.
 One-electron integrals computed using PRISM.
 NBasis=   197 RedAO= T  NBF=   197
 NBsUse=   197 1.00D-06 NBFU=   197
 Precomputing XC quadrature grid using
 IXCGrd= 2 IRadAn=           5 IRanWt=          -1 IRanGd=           0 AccXCQ= 0.00D+00.
 NRdTot=     427 NPtTot=      123814 NUsed=      126881 NTot=      126913
 NSgBfM=   229   229   229   229   229 NAtAll=     5     5.
 Leave Link  302 at Sun May  3 17:50:10 2020, MaxMem= 1073741824 cpu:       1.0
 (Enter /home/matheus/.gaussian/g09/l303.exe)
 DipDrv:  MaxL=1.
 Leave Link  303 at Sun May  3 17:50:10 2020, MaxMem= 1073741824 cpu:       0.2
 (Enter /home/matheus/.gaussian/g09/l401.exe)
 Harris functional with IExCor= 4639 diagonalized for initial guess.
 ExpMin= 2.53D-02 ExpMax= 1.17D+07 ExpMxC= 1.33D+04 IAcc=3 IRadAn=         5 AccDes= 0.00D+00
 HarFok:  IExCor= 4639 AccDes= 0.00D+00 IRadAn=         5 IDoV= 1
 ScaDFX=  1.000000  1.000000  1.000000  1.000000
 FoFCou: FMM=F IPFlag=           0 FMFlag=      100000 FMFlg1=           0
         NFxFlg=           0 DoJE=T BraDBF=F KetDBF=T FulRan=T
         Omega=  0.000000  0.000000  1.000000  0.000000  0.000000 ICntrl=     500 IOpCl=  0
         NMat0=    1 NMatS0=    1 NMatT0=    0 NMatD0=    1 NMtDS0=    0 NMtDT0=    0
         I1Cent=           4 NGrid=           0.
 Petite list used in FoFCou.
 Harris En= -2729.46038498824    
 Initial guess orbital symmetries:
       Occupied  (A) (A) (A) (A) (A) (A) (A) (A) (A) (A) (A) (A)
                 (A) (A) (A) (A) (A) (A)
       Virtual   (A) (A) (A) (A) (A) (A) (A) (A) (A) (A) (A) (A)
                 (A) (A) (A) (A) (A) (A) (A) (A) (A) (A) (A) (A)
                 (A) (A) (A) (A) (A) (A) (A) (A) (A) (A) (A) (A)
                 (A) (A) (A) (A) (A) (A) (A) (A) (A) (A) (A) (A)
                 (A) (A) (A) (A) (A) (A) (A) (A) (A) (A) (A) (A)
                 (A) (A) (A) (A) (A) (A) (A) (A) (A) (A) (A) (A)
                 (A) (A) (A) (A) (A) (A) (A) (A) (A) (A) (A) (A)
                 (A) (A) (A) (A) (A) (A) (A) (A) (A) (A) (A) (A)
                 (A) (A) (A) (A) (A) (A) (A) (A) (A) (A) (A) (A)
                 (A) (A) (A) (A) (A) (A) (A) (A) (A) (A) (A) (A)
                 (A) (A) (A) (A) (A) (A) (A) (A) (A) (A) (A) (A)
                 (A) (A) (A) (A) (A) (A) (A) (A) (A) (A) (A) (A)
                 (A) (A) (A) (A) (A) (A) (A) (A) (A) (A) (A) (A)
                 (A) (A) (A) (A) (A) (A) (A) (A) (A) (A) (A) (A)
                 (A) (A) (A) (A) (A) (A) (A) (A) (A) (A) (A)
 The electronic state of the initial guess is 1-A.
 Leave Link  401 at Sun May  3 17:50:10 2020, MaxMem= 1073741824 cpu:       4.0
 (Enter /home/matheus/.gaussian/g09/l502.exe)
 Closed shell SCF:
 Requested convergence on RMS density matrix=1.00D-08 within 128 cycles.
 Requested convergence on MAX density matrix=1.00D-06.
 Requested convergence on             energy=1.00D-06.
 No special actions if energy rises.
 Using DIIS extrapolation, IDIIS=  1040.
 Integral symmetry usage will be decided dynamically.
       126823 words used for storage of precomputed grid.
 IEnd=      305770 IEndB=      305770 NGot=  1073741824 MDV=  1073505365
 LenX=  1073505365 LenY=  1073452483
 Fock matrices will be formed incrementally for  20 cycles.

 Cycle   1  Pass 1  IDiag  1:
 FoFJK:  IHMeth= 1 ICntrl=     0 DoSepK=T KAlg= 1 I1Cent= 0 FoldK=F
 FoFCou: FMM=F IPFlag=           0 FMFlag=      100000 FMFlg1=           0
         NFxFlg=           0 DoJE=T BraDBF=F KetDBF=F FulRan=T
         Omega=  0.000000  0.000000  1.000000  0.000000  0.000000 ICntrl=     500 IOpCl=  0
         NMat0=    1 NMatS0=    1 NMatT0=    0 NMatD0=    1 NMtDS0=    0 NMtDT0=    0
         I1Cent=           0 NGrid=           0.
 Symmetry not used in FoFCou.
 E= -2753.44668489565    
 DIIS: error= 7.43D-02 at cycle   1 NSaved=   1.
 NSaved= 1 IEnMin= 1 EnMin= -2753.44668489565     IErMin= 1 ErrMin= 7.43D-02
 ErrMax= 7.43D-02 EMaxC= 1.00D-01 BMatC= 1.90D+00 BMatP= 1.90D+00
 IDIUse=3 WtCom= 2.57D-01 WtEn= 7.43D-01
 Coeff-Com:  0.100D+01
 Coeff-En:   0.100D+01
 Coeff:      0.100D+01
 Gap=     0.654 Goal=   None    Shift=    0.000
 GapD=    0.654 DampG=2.000 DampE=0.500 DampFc=1.0000 IDamp=-1.
 RMSDP=5.65D-03 MaxDP=3.67D-01              OVMax= 1.83D-01

 Cycle   2  Pass 1  IDiag  1:
 RMSU=  3.93D-03    CP:  1.04D+00
 FoFJK:  IHMeth= 1 ICntrl=     0 DoSepK=T KAlg= 1 I1Cent= 0 FoldK=F
 E= -2753.72376891259     Delta-E=       -0.277084016936 Rises=F Damp=F
 DIIS: error= 3.59D-02 at cycle   2 NSaved=   2.
 NSaved= 2 IEnMin= 2 EnMin= -2753.72376891259     IErMin= 2 ErrMin= 3.59D-02
 ErrMax= 3.59D-02 EMaxC= 1.00D-01 BMatC= 4.66D-01 BMatP= 1.90D+00
 IDIUse=3 WtCom= 6.41D-01 WtEn= 3.59D-01
 Coeff-Com:  0.326D+00 0.674D+00
 Coeff-En:   0.160D+00 0.840D+00
 Coeff:      0.267D+00 0.733D+00
 Gap=     0.489 Goal=   None    Shift=    0.000
 RMSDP=2.55D-03 MaxDP=1.61D-01 DE=-2.77D-01 OVMax= 7.74D-02

 Cycle   3  Pass 1  IDiag  1:
 RMSU=  3.72D-04    CP:  1.03D+00  5.57D-01
 FoFJK:  IHMeth= 1 ICntrl=     0 DoSepK=T KAlg= 1 I1Cent= 0 FoldK=F
 E= -2753.86647159699     Delta-E=       -0.142702684407 Rises=F Damp=F
 DIIS: error= 5.56D-03 at cycle   3 NSaved=   3.
 NSaved= 3 IEnMin= 3 EnMin= -2753.86647159699     IErMin= 3 ErrMin= 5.56D-03
 ErrMax= 5.56D-03 EMaxC= 1.00D-01 BMatC= 1.21D-02 BMatP= 4.66D-01
 IDIUse=3 WtCom= 9.44D-01 WtEn= 5.56D-02
 Coeff-Com: -0.834D-02 0.126D+00 0.882D+00
 Coeff-En:   0.000D+00 0.000D+00 0.100D+01
 Coeff:     -0.788D-02 0.119D+00 0.889D+00
 Gap=     0.516 Goal=   None    Shift=    0.000
 RMSDP=3.26D-04 MaxDP=1.91D-02 DE=-1.43D-01 OVMax= 1.30D-02

 Cycle   4  Pass 1  IDiag  1:
 RMSU=  4.25D-05    CP:  1.03D+00  6.14D-01  9.62D-01
 FoFJK:  IHMeth= 1 ICntrl=     0 DoSepK=T KAlg= 1 I1Cent= 0 FoldK=F
 E= -2753.87021583236     Delta-E=       -0.003744235371 Rises=F Damp=F
 DIIS: error= 2.73D-04 at cycle   4 NSaved=   4.
 NSaved= 4 IEnMin= 4 EnMin= -2753.87021583236     IErMin= 4 ErrMin= 2.73D-04
 ErrMax= 2.73D-04 EMaxC= 1.00D-01 BMatC= 2.27D-05 BMatP= 1.21D-02
 IDIUse=3 WtCom= 9.97D-01 WtEn= 2.73D-03
 Coeff-Com: -0.234D-03-0.181D-01-0.646D-01 0.108D+01
 Coeff-En:   0.000D+00 0.000D+00 0.000D+00 0.100D+01
 Coeff:     -0.233D-03-0.180D-01-0.644D-01 0.108D+01
 Gap=     0.514 Goal=   None    Shift=    0.000
 RMSDP=2.50D-05 MaxDP=8.90D-04 DE=-3.74D-03 OVMax= 9.51D-04

 Cycle   5  Pass 1  IDiag  1:
 RMSU=  9.13D-06    CP:  1.03D+00  6.12D-01  9.83D-01  1.22D+00
 FoFJK:  IHMeth= 1 ICntrl=     0 DoSepK=T KAlg= 1 I1Cent= 0 FoldK=F
 E= -2753.87022692088     Delta-E=       -0.000011088511 Rises=F Damp=F
 DIIS: error= 1.32D-05 at cycle   5 NSaved=   5.
 NSaved= 5 IEnMin= 5 EnMin= -2753.87022692088     IErMin= 5 ErrMin= 1.32D-05
 ErrMax= 1.32D-05 EMaxC= 1.00D-01 BMatC= 5.51D-08 BMatP= 2.27D-05
 IDIUse=1 WtCom= 1.00D+00 WtEn= 0.00D+00
 Coeff-Com:  0.680D-04 0.136D-02 0.283D-03-0.203D+00 0.120D+01
 Coeff:      0.680D-04 0.136D-02 0.283D-03-0.203D+00 0.120D+01
 Gap=     0.514 Goal=   None    Shift=    0.000
 RMSDP=3.99D-06 MaxDP=1.54D-04 DE=-1.11D-05 OVMax= 2.19D-04

 Cycle   6  Pass 1  IDiag  1:
 RMSU=  7.80D-07    CP:  1.03D+00  6.12D-01  9.86D-01  1.27D+00  1.19D+00
 FoFJK:  IHMeth= 1 ICntrl=     0 DoSepK=T KAlg= 1 I1Cent= 0 FoldK=F
 E= -2753.87022707619     Delta-E=       -0.000000155310 Rises=F Damp=F
 DIIS: error= 1.32D-06 at cycle   6 NSaved=   6.
 NSaved= 6 IEnMin= 6 EnMin= -2753.87022707619     IErMin= 6 ErrMin= 1.32D-06
 ErrMax= 1.32D-06 EMaxC= 1.00D-01 BMatC= 5.12D-10 BMatP= 5.51D-08
 IDIUse=1 WtCom= 1.00D+00 WtEn= 0.00D+00
 Coeff-Com:  0.622D-05 0.326D-03 0.481D-03-0.409D-01 0.191D+00 0.849D+00
 Coeff:      0.622D-05 0.326D-03 0.481D-03-0.409D-01 0.191D+00 0.849D+00
 Gap=     0.514 Goal=   None    Shift=    0.000
 RMSDP=2.07D-07 MaxDP=7.46D-06 DE=-1.55D-07 OVMax= 9.48D-06

 Cycle   7  Pass 1  IDiag  1:
 RMSU=  6.79D-08    CP:  1.03D+00  6.12D-01  9.86D-01  1.27D+00  1.20D+00
                    CP:  1.11D+00
 FoFJK:  IHMeth= 1 ICntrl=     0 DoSepK=T KAlg= 1 I1Cent= 0 FoldK=F
 E= -2753.87022707675     Delta-E=       -0.000000000568 Rises=F Damp=F
 DIIS: error= 2.04D-07 at cycle   7 NSaved=   7.
 NSaved= 7 IEnMin= 7 EnMin= -2753.87022707675     IErMin= 7 ErrMin= 2.04D-07
 ErrMax= 2.04D-07 EMaxC= 1.00D-01 BMatC= 2.23D-11 BMatP= 5.12D-10
 IDIUse=1 WtCom= 1.00D+00 WtEn= 0.00D+00
 Coeff-Com: -0.168D-05 0.775D-05 0.125D-03 0.207D-02-0.208D-01 0.105D+00
 Coeff-Com:  0.914D+00
 Coeff:     -0.168D-05 0.775D-05 0.125D-03 0.207D-02-0.208D-01 0.105D+00
 Coeff:      0.914D+00
 Gap=     0.514 Goal=   None    Shift=    0.000
 RMSDP=5.43D-08 MaxDP=2.13D-06 DE=-5.68D-10 OVMax= 2.00D-06

 Cycle   8  Pass 1  IDiag  1:
 RMSU=  1.52D-08    CP:  1.03D+00  6.12D-01  9.86D-01  1.27D+00  1.20D+00
                    CP:  1.15D+00  1.09D+00
 FoFJK:  IHMeth= 1 ICntrl=     0 DoSepK=T KAlg= 1 I1Cent= 0 FoldK=F
 E= -2753.87022707677     Delta-E=       -0.000000000016 Rises=F Damp=F
 DIIS: error= 5.64D-08 at cycle   8 NSaved=   8.
 NSaved= 8 IEnMin= 8 EnMin= -2753.87022707677     IErMin= 8 ErrMin= 5.64D-08
 ErrMax= 5.64D-08 EMaxC= 1.00D-01 BMatC= 1.28D-12 BMatP= 2.23D-11
 IDIUse=1 WtCom= 1.00D+00 WtEn= 0.00D+00
 Coeff-Com: -0.486D-07-0.470D-05 0.142D-04 0.143D-02-0.762D-02-0.138D-01
 Coeff-Com:  0.111D+00 0.909D+00
 Coeff:     -0.486D-07-0.470D-05 0.142D-04 0.143D-02-0.762D-02-0.138D-01
 Coeff:      0.111D+00 0.909D+00
 Gap=     0.514 Goal=   None    Shift=    0.000
 RMSDP=1.19D-08 MaxDP=4.38D-07 DE=-1.59D-11 OVMax= 3.43D-07

 Cycle   9  Pass 1  IDiag  1:
 RMSU=  2.30D-09    CP:  1.03D+00  6.12D-01  9.86D-01  1.27D+00  1.20D+00
                    CP:  1.16D+00  1.13D+00  1.09D+00
 FoFJK:  IHMeth= 1 ICntrl=     0 DoSepK=T KAlg= 1 I1Cent= 0 FoldK=F
 E= -2753.87022707678     Delta-E=       -0.000000000012 Rises=F Damp=F
 DIIS: error= 7.57D-09 at cycle   9 NSaved=   9.
 NSaved= 9 IEnMin= 9 EnMin= -2753.87022707678     IErMin= 9 ErrMin= 7.57D-09
 ErrMax= 7.57D-09 EMaxC= 1.00D-01 BMatC= 8.88D-15 BMatP= 1.28D-12
 IDIUse=1 WtCom= 1.00D+00 WtEn= 0.00D+00
 Coeff-Com:  0.105D-07 0.959D-07-0.244D-05-0.125D-03 0.658D-03 0.193D-04
 Coeff-Com: -0.231D-01-0.869D-01 0.111D+01
 Coeff:      0.105D-07 0.959D-07-0.244D-05-0.125D-03 0.658D-03 0.193D-04
 Coeff:     -0.231D-01-0.869D-01 0.111D+01
 Gap=     0.514 Goal=   None    Shift=    0.000
 RMSDP=1.66D-09 MaxDP=6.39D-08 DE=-1.18D-11 OVMax= 9.60D-08

 SCF Done:  E(RwB97XD) =  -2753.87022708     A.U. after    9 cycles
             Convg  =    0.1658D-08             -V/T =  2.0013
 KE= 2.750247531132D+03 PE=-6.580156281093D+03 EE= 1.076038522883D+03
 Leave Link  502 at Sun May  3 17:50:38 2020, MaxMem= 1073741824 cpu:     223.7
 (Enter /home/matheus/.gaussian/g09/l601.exe)
 Copying SCF densities to generalized density rwf, IOpCl= 0 IROHF=0.

 **********************************************************************

            Population analysis using the SCF density.

 **********************************************************************

 Orbital symmetries:
       Occupied  (A) (A) (A) (A) (A) (A) (A) (A) (A) (A) (A) (A)
                 (A) (A) (A) (A) (A) (A)
       Virtual   (A) (A) (A) (A) (A) (A) (A) (A) (A) (A) (A) (A)
                 (A) (A) (A) (A) (A) (A) (A) (A) (A) (A) (A) (A)
                 (A) (A) (A) (A) (A) (A) (A) (A) (A) (A) (A) (A)
                 (A) (A) (A) (A) (A) (A) (A) (A) (A) (A) (A) (A)
                 (A) (A) (A) (A) (A) (A) (A) (A) (A) (A) (A) (A)
                 (A) (A) (A) (A) (A) (A) (A) (A) (A) (A) (A) (A)
                 (A) (A) (A) (A) (A) (A) (A) (A) (A) (A) (A) (A)
                 (A) (A) (A) (A) (A) (A) (A) (A) (A) (A) (A) (A)
                 (A) (A) (A) (A) (A) (A) (A) (A) (A) (A) (A) (A)
                 (A) (A) (A) (A) (A) (A) (A) (A) (A) (A) (A) (A)
                 (A) (A) (A) (A) (A) (A) (A) (A) (A) (A) (A) (A)
                 (A) (A) (A) (A) (A) (A) (A) (A) (A) (A) (A) (A)
                 (A) (A) (A) (A) (A) (A) (A) (A) (A) (A) (A) (A)
                 (A) (A) (A) (A) (A) (A) (A) (A) (A) (A) (A) (A)
                 (A) (A) (A) (A) (A) (A) (A) (A) (A) (A) (A)
 The electronic state is 1-A.
 Alpha  occ. eigenvalues -- -513.08049 -67.34865 -60.89737 -60.89736 -60.89735
 Alpha  occ. eigenvalues --   -9.80180  -7.49479  -7.49478  -7.49478  -3.36164
 Alpha  occ. eigenvalues --   -3.36164  -3.36163  -3.36163  -3.36163  -1.00829
 Alpha  occ. eigenvalues --   -0.48267  -0.48264  -0.48263
 Alpha virt. eigenvalues --    0.03149   0.05128   0.08660   0.10301   0.11279
 Alpha virt. eigenvalues --    0.12577   0.13337   0.14791   0.16693   0.17321
 Alpha virt. eigenvalues --    0.18135   0.19705   0.21117   0.25754   0.26599
 Alpha virt. eigenvalues --    0.27356   0.27967   0.32010   0.33888   0.35350
 Alpha virt. eigenvalues --    0.35410   0.37276   0.37998   0.39045   0.41622
 Alpha virt. eigenvalues --    0.42830   0.43387   0.52399   0.54775   0.57299
 Alpha virt. eigenvalues --    0.60179   0.66287   0.67182   0.69188   0.71245
 Alpha virt. eigenvalues --    0.74497   0.74857   0.75279   0.76740   0.77229
 Alpha virt. eigenvalues --    0.80417   0.81049   0.83261   0.84711   0.84914
 Alpha virt. eigenvalues --    0.86825   0.87966   0.89331   0.91354   0.94635
 Alpha virt. eigenvalues --    0.97258   0.98455   1.01446   1.02236   1.03543
 Alpha virt. eigenvalues --    1.05467   1.06627   1.07752   1.12747   1.13045
 Alpha virt. eigenvalues --    1.15783   1.17109   1.18505   1.26351   1.27478
 Alpha virt. eigenvalues --    1.32361   1.35093   1.42095   1.43496   1.43900
 Alpha virt. eigenvalues --    1.57335   1.59338   1.67312   1.75900   1.76907
 Alpha virt. eigenvalues --    1.83132   1.86392   1.87102   1.88595   2.15641
 Alpha virt. eigenvalues --    2.20004   2.26354   2.27311   2.30330   2.30838
 Alpha virt. eigenvalues --    2.32263   2.34000   2.35582   2.38852   2.39686
 Alpha virt. eigenvalues --    2.42117   2.47223   2.47882   2.48507   2.49588
 Alpha virt. eigenvalues --    2.52284   2.53761   2.54648   2.56719   2.59603
 Alpha virt. eigenvalues --    2.61869   2.62424   2.63228   2.65203   2.66749
 Alpha virt. eigenvalues --    2.70400   2.72247   2.77523   2.78428   2.88422
 Alpha virt. eigenvalues --    2.89837   3.01595   3.05341   3.11961   3.14952
 Alpha virt. eigenvalues --    3.23584   3.28430   3.31076   3.36178   3.53035
 Alpha virt. eigenvalues --    3.60620   3.65309   3.84890   3.88037   4.03994
 Alpha virt. eigenvalues --    4.35462   4.45793   4.53933   4.56769   4.61724
 Alpha virt. eigenvalues --    4.73055   4.89576   4.90449   4.95008   5.04970
 Alpha virt. eigenvalues --    5.12178   5.15238   5.59528   5.67321   5.89774
 Alpha virt. eigenvalues --    5.91277   5.95548   6.18873   6.84579   6.90527
 Alpha virt. eigenvalues --    7.28616   7.41985   7.62341   7.65595   7.73276
 Alpha virt. eigenvalues --    7.81590   8.07774   8.10848   8.18135   8.24999
 Alpha virt. eigenvalues --    8.35921   8.39003   8.68317   8.90396   9.63851
 Alpha virt. eigenvalues --    9.71231   9.78479   9.86420   9.97366  10.05944
 Alpha virt. eigenvalues --   10.17854  10.23465  10.49803  10.94049  11.45823
 Alpha virt. eigenvalues --   11.57365  11.62884  12.03859  12.11822  13.23104
 Alpha virt. eigenvalues --   13.67907  14.53932  62.88659  64.54057
          Condensed to atoms (all electrons):
              1          2          3          4          5
     1  O    0.002605  -0.002336  -0.001175   0.001259  -0.009250
     2  O   -0.002336   0.005738   0.000838  -0.003474  -0.004696
     3  H   -0.001175   0.000838   0.000674  -0.000401   0.001620
     4  H    0.001259  -0.003474  -0.000401   0.003319  -0.018946
     5  Kr  -0.009250  -0.004696   0.001620  -0.018946  36.060786
 Mulliken atomic charges:
              1
     1  O    0.008897
     2  O    0.003930
     3  H   -0.001557
     4  H    0.018243
     5  Kr  -0.029514
 Sum of Mulliken atomic charges =   0.00000
 Mulliken charges with hydrogens summed into heavy atoms:
              1
     1  O    0.007341
     2  O    0.022173
     5  Kr  -0.029514
 Sum of Mulliken charges with hydrogens summed into heavy atoms =   0.00000
          Condensed to fragments (all electrons):
     1       0.029514
     2      -0.029514
 Electronic spatial extent (au):  <R**2>=            167.6720
 Charge=              0.0000 electrons
 Dipole moment (field-independent basis, Debye):
    X=             -0.0009    Y=              0.0007    Z=              0.0000  Tot=              0.0012
 Quadrupole moment (field-independent basis, Debye-Ang):
   XX=            -17.6437   YY=            -17.6540   ZZ=            -17.6603
   XY=             -0.0045   XZ=              0.0000   YZ=              0.0001
 Traceless Quadrupole moment (field-independent basis, Debye-Ang):
   XX=              0.0089   YY=             -0.0013   ZZ=             -0.0076
   XY=             -0.0045   XZ=              0.0000   YZ=              0.0001
 Octapole moment (field-independent basis, Debye-Ang**2):
  XXX=            -52.8677  YYY=              0.9831  ZZZ=             -0.1012  XYY=            -17.6340
  XXY=              0.3167  XXZ=             -0.0341  XZZ=            -17.6376  YZZ=              0.3280
  YYZ=             -0.0334  XYZ=              0.0003
 Hexadecapole moment (field-independent basis, Debye-Ang**3):
 XXXX=           -124.0723 YYYY=            -18.5115 ZZZZ=            -18.4928 XXXY=              0.9552
 XXXZ=             -0.1019 YYYX=              0.9650 YYYZ=              0.0013 ZZZX=             -0.1013
 ZZZY=              0.0023 XXYY=            -23.7732 XXZZ=            -23.7724 YYZZ=             -6.1641
 XXYZ=              0.0007 YYXZ=             -0.0339 ZZXY=              0.3206
 N-N= 0.000000000000D+00 E-N=-6.580156279841D+03  KE= 2.750247531132D+03
 No NMR shielding tensors so no spin-rotation constants.
 Leave Link  601 at Sun May  3 17:50:38 2020, MaxMem= 1073741824 cpu:       0.7
 (Enter /home/matheus/.gaussian/g09/l122.exe)
 Counterpoise: doing MCBS calculation for fragment   1
 Leave Link  122 at Sun May  3 17:50:38 2020, MaxMem= 1073741824 cpu:       0.0
 (Enter /home/matheus/.gaussian/g09/l301.exe)
 Basis read from rwf:  (5D, 7F)
 No pseudopotential information found on rwf file.
 There are   138 symmetry adapted basis functions of A   symmetry.
 Integral buffers will be    131072 words long.
 Raffenetti 2 integral format.
 Two-electron integral symmetry is turned on.
   138 basis functions,   198 primitive gaussians,   160 cartesian basis functions
     9 alpha electrons        9 beta electrons
       nuclear repulsion energy        36.6019262901 Hartrees.
 IExCor= 4639 DFT=T Ex+Corr=wB97XD ExCW=0 ScaHFX=  1.000000
 ScaDFX=  1.000000  1.000000  1.000000  1.000000 ScalE2=  1.000000  1.000000
 IRadAn=      5 IRanWt=     -1 IRanGd=            0 ICorTp=0
  HFx wShort=  0.000000 wLong=  0.250000 cFull=  0.222036 cShort=  0.000000 cLong=  0.777964
  DFx wShort=  0.000000 wLong=  0.250000 cFull=  0.000000 cShort=  0.000000 cLong=  1.000000
 NAtoms=    5 NActive=    4 NUniq=    4 SFac= 1.00D+00 NAtFMM=   60 NAOKFM=F Big=F
 R6Disp: Dispersion energy =        -0.0002006355 Hartrees.
 Nuclear repulsion after empirical dispersion term =       36.6017256546 Hartrees.
 No density basis found on file   718.
 Leave Link  301 at Sun May  3 17:50:38 2020, MaxMem= 1073741824 cpu:       0.2
 (Enter /home/matheus/.gaussian/g09/l302.exe)
 NPDir=0 NMtPBC=     1 NCelOv=     1 NCel=       1 NClECP=     1 NCelD=      1
         NCelK=      1 NCelE2=     1 NClLst=     1 CellRange=     0.0.
 One-electron integrals computed using PRISM.
 NBasis=   138 RedAO= T  NBF=   138
 NBsUse=   138 1.00D-06 NBFU=   138
 Precomputing XC quadrature grid using
 IXCGrd= 2 IRadAn=           5 IRanWt=          -1 IRanGd=           0 AccXCQ= 0.00D+00.
 NRdTot=     344 NPtTot=       92556 NUsed=       95038 NTot=       95070
 NSgBfM=   160   160   160   160   160 NAtAll=     4     4.
 Leave Link  302 at Sun May  3 17:50:38 2020, MaxMem= 1073741824 cpu:       0.7
 (Enter /home/matheus/.gaussian/g09/l303.exe)
 DipDrv:  MaxL=1.
 Leave Link  303 at Sun May  3 17:50:38 2020, MaxMem= 1073741824 cpu:       0.1
 (Enter /home/matheus/.gaussian/g09/l401.exe)
 Harris functional with IExCor= 4639 diagonalized for initial guess.
 ExpMin= 2.53D-02 ExpMax= 1.53D+04 ExpMxC= 5.22D+02 IAcc=3 IRadAn=         5 AccDes= 0.00D+00
 HarFok:  IExCor= 4639 AccDes= 0.00D+00 IRadAn=         5 IDoV= 1
 ScaDFX=  1.000000  1.000000  1.000000  1.000000
 FoFCou: FMM=F IPFlag=           0 FMFlag=      100000 FMFlg1=           0
         NFxFlg=           0 DoJE=T BraDBF=F KetDBF=T FulRan=T
         Omega=  0.000000  0.000000  1.000000  0.000000  0.000000 ICntrl=     500 IOpCl=  0
         NMat0=    1 NMatS0=    1 NMatT0=    0 NMatD0=    1 NMtDS0=    0 NMtDT0=    0
         I1Cent=           4 NGrid=           0.
 Petite list used in FoFCou.
 Harris En= -145.942922032938    
 Initial guess orbital symmetries:
       Occupied  (A) (A) (A) (A) (A) (A) (A) (A) (A)
       Virtual   (A) (A) (A) (A) (A) (A) (A) (A) (A) (A) (A) (A)
                 (A) (A) (A) (A) (A) (A) (A) (A) (A) (A) (A) (A)
                 (A) (A) (A) (A) (A) (A) (A) (A) (A) (A) (A) (A)
                 (A) (A) (A) (A) (A) (A) (A) (A) (A) (A) (A) (A)
                 (A) (A) (A) (A) (A) (A) (A) (A) (A) (A) (A) (A)
                 (A) (A) (A) (A) (A) (A) (A) (A) (A) (A) (A) (A)
                 (A) (A) (A) (A) (A) (A) (A) (A) (A) (A) (A) (A)
                 (A) (A) (A) (A) (A) (A) (A) (A) (A) (A) (A) (A)
                 (A) (A) (A) (A) (A) (A) (A) (A) (A) (A) (A) (A)
                 (A) (A) (A) (A) (A) (A) (A) (A) (A) (A) (A) (A)
                 (A) (A) (A) (A) (A) (A) (A) (A) (A)
 The electronic state of the initial guess is 1-A.
 Leave Link  401 at Sun May  3 17:50:39 2020, MaxMem= 1073741824 cpu:       2.1
 (Enter /home/matheus/.gaussian/g09/l502.exe)
 Closed shell SCF:
 Requested convergence on RMS density matrix=1.00D-08 within 128 cycles.
 Requested convergence on MAX density matrix=1.00D-06.
 Requested convergence on             energy=1.00D-06.
 No special actions if energy rises.
 Using DIIS extrapolation, IDIIS=  1040.
 Integral symmetry usage will be decided dynamically.
        94980 words used for storage of precomputed grid.
 IEnd=      192360 IEndB=      192360 NGot=  1073741824 MDV=  1073591865
 LenX=  1073591865 LenY=  1073565824
 Fock matrices will be formed incrementally for  20 cycles.

 Cycle   1  Pass 1  IDiag  1:
 FoFJK:  IHMeth= 1 ICntrl=     0 DoSepK=T KAlg= 1 I1Cent= 0 FoldK=F
 FoFCou: FMM=F IPFlag=           0 FMFlag=      100000 FMFlg1=           0
         NFxFlg=           0 DoJE=T BraDBF=F KetDBF=F FulRan=T
         Omega=  0.000000  0.000000  1.000000  0.000000  0.000000 ICntrl=     500 IOpCl=  0
         NMat0=    1 NMatS0=    1 NMatT0=    0 NMatD0=    1 NMtDS0=    0 NMtDT0=    0
         I1Cent=           0 NGrid=           0.
 Symmetry not used in FoFCou.
 E= -151.459759366349    
 DIIS: error= 4.84D-02 at cycle   1 NSaved=   1.
 NSaved= 1 IEnMin= 1 EnMin= -151.459759366349     IErMin= 1 ErrMin= 4.84D-02
 ErrMax= 4.84D-02 EMaxC= 1.00D-01 BMatC= 3.18D-01 BMatP= 3.18D-01
 IDIUse=3 WtCom= 5.16D-01 WtEn= 4.84D-01
 Coeff-Com:  0.100D+01
 Coeff-En:   0.100D+01
 Coeff:      0.100D+01
 Gap=     0.531 Goal=   None    Shift=    0.000
[...]
 Coeff-Com:  0.290D-03-0.130D+00 0.113D+01
 Coeff:      0.290D-03-0.130D+00 0.113D+01
 Gap=     0.512 Goal=   None    Shift=    0.000
 RMSDP=2.14D-07 MaxDP=8.00D-06 DE=-6.88D-09 OVMax= 1.01D-05

 Cycle   4  Pass 1  IDiag  1:
 RMSU=  5.86D-08    CP:  1.00D+00  1.09D+00  1.21D+00
 FoFJK:  IHMeth= 1 ICntrl=     0 DoSepK=T KAlg= 1 I1Cent= 0 FoldK=F
 E= -2753.87012714469     Delta-E=       -0.000000000202 Rises=F Damp=F
 DIIS: error= 3.59D-07 at cycle   4 NSaved=   4.
 NSaved= 4 IEnMin= 4 EnMin= -2753.87012714469     IErMin= 4 ErrMin= 3.59D-07
 ErrMax= 3.59D-07 EMaxC= 1.00D-01 BMatC= 7.49D-12 BMatP= 9.49D-11
 IDIUse=1 WtCom= 1.00D+00 WtEn= 0.00D+00
 Coeff-Com:  0.201D-03-0.466D-01 0.282D+00 0.765D+00
 Coeff:      0.201D-03-0.466D-01 0.282D+00 0.765D+00
 Gap=     0.512 Goal=   None    Shift=    0.000
 RMSDP=2.13D-08 MaxDP=1.11D-06 DE=-2.02D-10 OVMax= 1.13D-06

 Cycle   5  Pass 1  IDiag  1:
 RMSU=  8.05D-09    CP:  1.00D+00  1.08D+00  1.23D+00  1.13D+00
 FoFJK:  IHMeth= 1 ICntrl=     0 DoSepK=T KAlg= 1 I1Cent= 0 FoldK=F
 E= -2753.87012714469     Delta-E=       -0.000000000001 Rises=F Damp=F
 DIIS: error= 3.10D-08 at cycle   5 NSaved=   5.
 NSaved= 5 IEnMin= 5 EnMin= -2753.87012714469     IErMin= 5 ErrMin= 3.10D-08
 ErrMax= 3.10D-08 EMaxC= 1.00D-01 BMatC= 1.30D-13 BMatP= 7.49D-12
 IDIUse=1 WtCom= 1.00D+00 WtEn= 0.00D+00
 Coeff-Com: -0.317D-04 0.100D-01-0.762D-01-0.612D-01 0.113D+01
 Coeff:     -0.317D-04 0.100D-01-0.762D-01-0.612D-01 0.113D+01
 Gap=     0.512 Goal=   None    Shift=    0.000
 RMSDP=1.09D-08 MaxDP=6.69D-07 DE=-9.09D-13 OVMax= 4.21D-07

 Cycle   6  Pass 1  IDiag  1:
 RMSU=  1.43D-09    CP:  1.00D+00  1.08D+00  1.23D+00  1.21D+00  1.17D+00
 FoFJK:  IHMeth= 1 ICntrl=     0 DoSepK=T KAlg= 1 I1Cent= 0 FoldK=F
 E= -2753.87012714469     Delta-E=       -0.000000000004 Rises=F Damp=F
 DIIS: error= 2.90D-09 at cycle   6 NSaved=   6.
 NSaved= 6 IEnMin= 6 EnMin= -2753.87012714469     IErMin= 6 ErrMin= 2.90D-09
 ErrMax= 2.90D-09 EMaxC= 1.00D-01 BMatC= 1.27D-15 BMatP= 1.30D-13
 IDIUse=1 WtCom= 1.00D+00 WtEn= 0.00D+00
 Coeff-Com:  0.373D-05-0.138D-02 0.114D-01 0.367D-02-0.214D+00 0.120D+01
 Coeff:      0.373D-05-0.138D-02 0.114D-01 0.367D-02-0.214D+00 0.120D+01
 Gap=     0.512 Goal=   None    Shift=    0.000
 RMSDP=5.60D-10 MaxDP=2.95D-08 DE=-4.09D-12 OVMax= 4.98D-08

 SCF Done:  E(RwB97XD) =  -2753.87012714     A.U. after    6 cycles
             Convg  =    0.5600D-09             -V/T =  2.0013
 KE= 2.750283277232D+03 PE=-6.580194561115D+03 EE= 1.076041156738D+03
 Leave Link  502 at Sun May  3 18:15:21 2020, MaxMem= 1073741824 cpu:     138.3
 (Enter /home/matheus/.gaussian/g09/l122.exe)
 Restoring MOs from calculation   4 to rwf.
 Counterpoise: doing MCBS calculation for fragment   1
 Leave Link  122 at Sun May  3 18:15:21 2020, MaxMem= 1073741824 cpu:       0.0
 (Enter /home/matheus/.gaussian/g09/l301.exe)
 Basis read from rwf:  (5D, 7F)
 No pseudopotential information found on rwf file.
 There are   138 symmetry adapted basis functions of A   symmetry.
 Integral buffers will be    131072 words long.
 Raffenetti 2 integral format.
 Two-electron integral symmetry is turned on.
   138 basis functions,   198 primitive gaussians,   160 cartesian basis functions
     9 alpha electrons        9 beta electrons
       nuclear repulsion energy        36.6019262901 Hartrees.
 IExCor= 4639 DFT=T Ex+Corr=wB97XD ExCW=0 ScaHFX=  1.000000
 ScaDFX=  1.000000  1.000000  1.000000  1.000000 ScalE2=  1.000000  1.000000
 IRadAn=      5 IRanWt=     -1 IRanGd=            0 ICorTp=0
  HFx wShort=  0.000000 wLong=  0.250000 cFull=  0.222036 cShort=  0.000000 cLong=  0.777964
  DFx wShort=  0.000000 wLong=  0.250000 cFull=  0.000000 cShort=  0.000000 cLong=  1.000000
 NAtoms=    5 NActive=    4 NUniq=    4 SFac= 1.00D+00 NAtFMM=   60 NAOKFM=F Big=F
 R6Disp: Dispersion energy =        -0.0002006355 Hartrees.
 Nuclear repulsion after empirical dispersion term =       36.6017256546 Hartrees.
 No density basis found on file   718.
 Leave Link  301 at Sun May  3 18:15:21 2020, MaxMem= 1073741824 cpu:       0.2
 (Enter /home/matheus/.gaussian/g09/l302.exe)
 NPDir=0 NMtPBC=     1 NCelOv=     1 NCel=       1 NClECP=     1 NCelD=      1
         NCelK=      1 NCelE2=     1 NClLst=     1 CellRange=     0.0.
 One-electron integrals computed using PRISM.
 NBasis=   138 RedAO= T  NBF=   138
 NBsUse=   138 1.00D-06 NBFU=   138
 Precomputing XC quadrature grid using
 IXCGrd= 2 IRadAn=           5 IRanWt=          -1 IRanGd=           0 AccXCQ= 0.00D+00.
 NRdTot=     344 NPtTot=       92556 NUsed=       95038 NTot=       95070
 NSgBfM=   160   160   160   160   160 NAtAll=     4     4.
 Leave Link  302 at Sun May  3 18:15:21 2020, MaxMem= 1073741824 cpu:       0.8
 (Enter /home/matheus/.gaussian/g09/l303.exe)
 DipDrv:  MaxL=1.
 Leave Link  303 at Sun May  3 18:15:21 2020, MaxMem= 1073741824 cpu:       0.2
 (Enter /home/matheus/.gaussian/g09/l401.exe)
 Initial guess read from the read-write file.
 Guess basis will be translated and rotated to current coordinates.
 Initial guess orbital symmetries:
       Occupied  (A) (A) (A) (A) (A) (A) (A) (A) (A)
       Virtual   (A) (A) (A) (A) (A) (A) (A) (A) (A) (A) (A) (A)
                 (A) (A) (A) (A) (A) (A) (A) (A) (A) (A) (A) (A)
                 (A) (A) (A) (A) (A) (A) (A) (A) (A) (A) (A) (A)
                 (A) (A) (A) (A) (A) (A) (A) (A) (A) (A) (A) (A)
                 (A) (A) (A) (A) (A) (A) (A) (A) (A) (A) (A) (A)
                 (A) (A) (A) (A) (A) (A) (A) (A) (A) (A) (A) (A)
                 (A) (A) (A) (A) (A) (A) (A) (A) (A) (A) (A) (A)
                 (A) (A) (A) (A) (A) (A) (A) (A) (A) (A) (A) (A)
                 (A) (A) (A) (A) (A) (A) (A) (A) (A) (A) (A) (A)
                 (A) (A) (A) (A) (A) (A) (A) (A) (A) (A) (A) (A)
                 (A) (A) (A) (A) (A) (A) (A) (A) (A)
 The electronic state of the initial guess is 1-A.
 Generating alternative initial guess.
 Harris functional with IExCor= 4639 diagonalized for initial guess.
 ExpMin= 2.53D-02 ExpMax= 1.53D+04 ExpMxC= 5.22D+02 IAcc=3 IRadAn=         5 AccDes= 0.00D+00
 HarFok:  IExCor= 4639 AccDes= 0.00D+00 IRadAn=         5 IDoV= 1
 ScaDFX=  1.000000  1.000000  1.000000  1.000000
 FoFCou: FMM=F IPFlag=           0 FMFlag=      100000 FMFlg1=           0
         NFxFlg=           0 DoJE=T BraDBF=F KetDBF=T FulRan=T
         Omega=  0.000000  0.000000  1.000000  0.000000  0.000000 ICntrl=     500 IOpCl=  0
         NMat0=    1 NMatS0=    1 NMatT0=    0 NMatD0=    1 NMtDS0=    0 NMtDT0=    0
         I1Cent=           4 NGrid=           0.
 Petite list used in FoFCou.
 Harris En= -145.942922079387    
 Leave Link  401 at Sun May  3 18:15:21 2020, MaxMem= 1073741824 cpu:       2.8
 (Enter /home/matheus/.gaussian/g09/l502.exe)
 Closed shell SCF:
 Requested convergence on RMS density matrix=1.00D-08 within 128 cycles.
 Requested convergence on MAX density matrix=1.00D-06.
 Requested convergence on             energy=1.00D-06.
 No special actions if energy rises.
 Using DIIS extrapolation, IDIIS=  1040.
 Integral symmetry usage will be decided dynamically.
        94980 words used for storage of precomputed grid.
 IEnd=      192360 IEndB=      192360 NGot=  1073741824 MDV=  1073591865
 LenX=  1073591865 LenY=  1073565824
 Fock matrices will be formed incrementally for  20 cycles.

 Cycle   1  Pass 1  IDiag  1:
 FoFJK:  IHMeth= 1 ICntrl=     0 DoSepK=T KAlg= 1 I1Cent= 0 FoldK=F
 FoFCou: FMM=F IPFlag=           0 FMFlag=      100000 FMFlg1=           0
         NFxFlg=           0 DoJE=T BraDBF=F KetDBF=F FulRan=T
         Omega=  0.000000  0.000000  1.000000  0.000000  0.000000 ICntrl=     500 IOpCl=  0
         NMat0=    1 NMatS0=    1 NMatT0=    0 NMatD0=    1 NMtDS0=    0 NMtDT0=    0
         I1Cent=           0 NGrid=           0.
 Symmetry not used in FoFCou.
 E= -151.557280841508    
 DIIS: error= 2.40D-05 at cycle   1 NSaved=   1.
 NSaved= 1 IEnMin= 1 EnMin= -151.557280841508     IErMin= 1 ErrMin= 2.40D-05
 ErrMax= 2.40D-05 EMaxC= 1.00D-01 BMatC= 4.18D-08 BMatP= 4.18D-08
 IDIUse=1 WtCom= 1.00D+00 WtEn= 0.00D+00
 Coeff-Com:  0.100D+01
 Coeff:      0.100D+01
 Gap=     0.408 Goal=   None    Shift=    0.000
 RMSDP=1.07D-06 MaxDP=2.14D-05              OVMax= 8.91D-05

 Cycle   2  Pass 1  IDiag  1:
 RMSU=  7.56D-07    CP:  1.00D+00
 FoFJK:  IHMeth= 1 ICntrl=     0 DoSepK=T KAlg= 1 I1Cent= 0 FoldK=F
 E= -151.557280883692     Delta-E=       -0.000000042184 Rises=F Damp=F
 DIIS: error= 4.03D-06 at cycle   2 NSaved=   2.
 NSaved= 2 IEnMin= 2 EnMin= -151.557280883692     IErMin= 2 ErrMin= 4.03D-06
 ErrMax= 4.03D-06 EMaxC= 1.00D-01 BMatC= 1.39D-09 BMatP= 4.18D-08
 IDIUse=1 WtCom= 1.00D+00 WtEn= 0.00D+00
 Coeff-Com: -0.126D+00 0.113D+01
 Coeff:     -0.126D+00 0.113D+01
 Gap=     0.408 Goal=   None    Shift=    0.000
 RMSDP=3.65D-07 MaxDP=6.96D-06 DE=-4.22D-08 OVMax= 3.38D-05

 Cycle   3  Pass 1  IDiag  1:
 RMSU=  1.62D-07    CP:  1.00D+00  1.26D+00
 FoFJK:  IHMeth= 1 ICntrl=     0 DoSepK=T KAlg= 1 I1Cent= 0 FoldK=F
 E= -151.557280886974     Delta-E=       -0.000000003282 Rises=F Damp=F
 DIIS: error= 1.12D-06 at cycle   3 NSaved=   3.
 NSaved= 3 IEnMin= 3 EnMin= -151.557280886974     IErMin= 3 ErrMin= 1.12D-06
 ErrMax= 1.12D-06 EMaxC= 1.00D-01 BMatC= 1.12D-10 BMatP= 1.39D-09
 IDIUse=1 WtCom= 1.00D+00 WtEn= 0.00D+00
 Coeff-Com: -0.172D-01-0.913D-02 0.103D+01
 Coeff:     -0.172D-01-0.913D-02 0.103D+01
 Gap=     0.408 Goal=   None    Shift=    0.000
 RMSDP=1.10D-07 MaxDP=2.14D-06 DE=-3.28D-09 OVMax= 1.01D-05

 Cycle   4  Pass 1  IDiag  1:
 RMSU=  4.58D-08    CP:  1.00D+00  1.33D+00  1.26D+00
 FoFJK:  IHMeth= 1 ICntrl=     0 DoSepK=T KAlg= 1 I1Cent= 0 FoldK=F
 E= -151.557280887192     Delta-E=       -0.000000000218 Rises=F Damp=F
 DIIS: error= 6.43D-07 at cycle   4 NSaved=   4.
 NSaved= 4 IEnMin= 4 EnMin= -151.557280887192     IErMin= 4 ErrMin= 6.43D-07
 ErrMax= 6.43D-07 EMaxC= 1.00D-01 BMatC= 6.01D-11 BMatP= 1.12D-10
 IDIUse=1 WtCom= 1.00D+00 WtEn= 0.00D+00
 Coeff-Com:  0.772D-02-0.151D+00 0.471D+00 0.673D+00
 Coeff:      0.772D-02-0.151D+00 0.471D+00 0.673D+00
 Gap=     0.408 Goal=   None    Shift=    0.000
 RMSDP=4.54D-08 MaxDP=1.80D-06 DE=-2.18D-10 OVMax= 3.06D-06

 Cycle   5  Pass 1  IDiag  1:
 RMSU=  1.38D-08    CP:  1.00D+00  1.34D+00  1.41D+00  7.46D-01
 FoFJK:  IHMeth= 1 ICntrl=     0 DoSepK=T KAlg= 1 I1Cent= 0 FoldK=F
 E= -151.557280887244     Delta-E=       -0.000000000052 Rises=F Damp=F
 DIIS: error= 1.56D-07 at cycle   5 NSaved=   5.
 NSaved= 5 IEnMin= 5 EnMin= -151.557280887244     IErMin= 5 ErrMin= 1.56D-07
 ErrMax= 1.56D-07 EMaxC= 1.00D-01 BMatC= 4.27D-12 BMatP= 6.01D-11
 IDIUse=1 WtCom= 1.00D+00 WtEn= 0.00D+00
 Coeff-Com:  0.444D-02-0.586D-01 0.916D-01 0.252D+00 0.710D+00
 Coeff:      0.444D-02-0.586D-01 0.916D-01 0.252D+00 0.710D+00
 Gap=     0.408 Goal=   None    Shift=    0.000
 RMSDP=1.25D-08 MaxDP=3.18D-07 DE=-5.22D-11 OVMax= 8.08D-07

 Cycle   6  Pass 1  IDiag  1:
 RMSU=  6.76D-09    CP:  1.00D+00  1.34D+00  1.43D+00  8.26D-01  9.94D-01
 FoFJK:  IHMeth= 1 ICntrl=     0 DoSepK=T KAlg= 1 I1Cent= 0 FoldK=F
 E= -151.557280887248     Delta-E=       -0.000000000004 Rises=F Damp=F
 DIIS: error= 6.90D-08 at cycle   6 NSaved=   6.
 NSaved= 6 IEnMin= 6 EnMin= -151.557280887248     IErMin= 6 ErrMin= 6.90D-08
 ErrMax= 6.90D-08 EMaxC= 1.00D-01 BMatC= 9.49D-13 BMatP= 4.27D-12
 IDIUse=1 WtCom= 1.00D+00 WtEn= 0.00D+00
 Coeff-Com:  0.644D-03 0.229D-03-0.406D-01-0.425D-02 0.328D+00 0.716D+00
 Coeff:      0.644D-03 0.229D-03-0.406D-01-0.425D-02 0.328D+00 0.716D+00
 Gap=     0.408 Goal=   None    Shift=    0.000
 RMSDP=5.90D-09 MaxDP=1.61D-07 DE=-4.35D-12 OVMax= 4.85D-07

 SCF Done:  E(RwB97XD) =  -151.557280887     A.U. after    6 cycles
             Convg  =    0.5899D-08             -V/T =  2.0061
 KE= 1.506334578069D+02 PE=-4.316720269007D+02 EE= 9.287956255199D+01
 Leave Link  502 at Sun May  3 18:15:28 2020, MaxMem= 1073741824 cpu:      56.2
 (Enter /home/matheus/.gaussian/g09/l122.exe)
 Restoring MOs from calculation   5 to rwf.
 Counterpoise: doing MCBS calculation for fragment   2
 Leave Link  122 at Sun May  3 18:15:28 2020, MaxMem= 1073741824 cpu:       0.0
 (Enter /home/matheus/.gaussian/g09/l301.exe)
 Basis read from rwf:  (5D, 7F)
 No pseudopotential information found on rwf file.
 There are    59 symmetry adapted basis functions of A   symmetry.
 Integral buffers will be    131072 words long.
 Raffenetti 2 integral format.
 Two-electron integral symmetry is turned on.
    59 basis functions,   217 primitive gaussians,    69 cartesian basis functions
    18 alpha electrons       18 beta electrons
       nuclear repulsion energy         0.0000000000 Hartrees.
 IExCor= 4639 DFT=T Ex+Corr=wB97XD ExCW=0 ScaHFX=  1.000000
 ScaDFX=  1.000000  1.000000  1.000000  1.000000 ScalE2=  1.000000  1.000000
 IRadAn=      5 IRanWt=     -1 IRanGd=            0 ICorTp=0
  HFx wShort=  0.000000 wLong=  0.250000 cFull=  0.222036 cShort=  0.000000 cLong=  0.777964
  DFx wShort=  0.000000 wLong=  0.250000 cFull=  0.000000 cShort=  0.000000 cLong=  1.000000
 NAtoms=    5 NActive=    1 NUniq=    1 SFac= 1.00D+00 NAtFMM=   60 NAOKFM=F Big=F
 R6Disp: Dispersion energy =         0.0000000000 Hartrees.
 Nuclear repulsion after empirical dispersion term =        0.0000000000 Hartrees.
 No density basis found on file   718.
 Leave Link  301 at Sun May  3 18:15:28 2020, MaxMem= 1073741824 cpu:       0.2
 (Enter /home/matheus/.gaussian/g09/l302.exe)
 NPDir=0 NMtPBC=     1 NCelOv=     1 NCel=       1 NClECP=     1 NCelD=      1
         NCelK=      1 NCelE2=     1 NClLst=     1 CellRange=     0.0.
 One-electron integrals computed using PRISM.
 NBasis=    59 RedAO= T  NBF=    59
 NBsUse=    59 1.00D-06 NBFU=    59
 Precomputing XC quadrature grid using
 IXCGrd= 2 IRadAn=           5 IRanWt=          -1 IRanGd=           0 AccXCQ= 0.00D+00.
 NRdTot=      81 NPtTot=       30352 NUsed=       30981 NTot=       31013
 NSgBfM=    69    69    69    69    69 NAtAll=     1     1.
 Leave Link  302 at Sun May  3 18:15:28 2020, MaxMem= 1073741824 cpu:       0.7
 (Enter /home/matheus/.gaussian/g09/l303.exe)
 DipDrv:  MaxL=1.
 Leave Link  303 at Sun May  3 18:15:28 2020, MaxMem= 1073741824 cpu:       0.2
 (Enter /home/matheus/.gaussian/g09/l401.exe)
 Initial guess read from the read-write file.
 Guess basis will be translated and rotated to current coordinates.
 Initial guess orbital symmetries:
       Occupied  (A) (A) (A) (A) (A) (A) (A) (A) (A) (A) (A) (A)
                 (A) (A) (A) (A) (A) (A)
       Virtual   (A) (A) (A) (A) (A) (A) (A) (A) (A) (A) (A) (A)
                 (A) (A) (A) (A) (A) (A) (A) (A) (A) (A) (A) (A)
                 (A) (A) (A) (A) (A) (A) (A) (A) (A) (A) (A) (A)
                 (A) (A) (A) (A) (A)
 The electronic state of the initial guess is 1-A.
 Generating alternative initial guess.
 Harris functional with IExCor= 4639 diagonalized for initial guess.
 ExpMin= 4.00D-02 ExpMax= 1.17D+07 ExpMxC= 1.33D+04 IAcc=3 IRadAn=         5 AccDes= 0.00D+00
 HarFok:  IExCor= 4639 AccDes= 0.00D+00 IRadAn=         5 IDoV= 1
 ScaDFX=  1.000000  1.000000  1.000000  1.000000
 FoFCou: FMM=F IPFlag=           0 FMFlag=      100000 FMFlg1=           0
         NFxFlg=           0 DoJE=T BraDBF=F KetDBF=T FulRan=T
         Omega=  0.000000  0.000000  1.000000  0.000000  0.000000 ICntrl=     500 IOpCl=  0
         NMat0=    1 NMatS0=    1 NMatT0=    0 NMatD0=    1 NMtDS0=    0 NMtDT0=    0
         I1Cent=           4 NGrid=           0.
 Petite list used in FoFCou.
 Harris En= -2729.45839233129    
 Leave Link  401 at Sun May  3 18:15:29 2020, MaxMem= 1073741824 cpu:       1.1
 (Enter /home/matheus/.gaussian/g09/l502.exe)
 Closed shell SCF:
 Requested convergence on RMS density matrix=1.00D-08 within 128 cycles.
 Requested convergence on MAX density matrix=1.00D-06.
 Requested convergence on             energy=1.00D-06.
 No special actions if energy rises.
 Using DIIS extrapolation, IDIIS=  1040.
 Integral symmetry usage will be decided dynamically.
        30923 words used for storage of precomputed grid.
 IEnd=       64406 IEndB=       64406 NGot=  1073741824 MDV=  1073698889
 LenX=  1073698889 LenY=  1073693687
 Fock matrices will be formed incrementally for  20 cycles.

 Cycle   1  Pass 1  IDiag  1:
 FoFJK:  IHMeth= 1 ICntrl=     0 DoSepK=T KAlg= 1 I1Cent= 0 FoldK=F
 FoFCou: FMM=F IPFlag=           0 FMFlag=      100000 FMFlg1=           0
         NFxFlg=           0 DoJE=T BraDBF=F KetDBF=F FulRan=T
         Omega=  0.000000  0.000000  1.000000  0.000000  0.000000 ICntrl=     500 IOpCl=  0
         NMat0=    1 NMatS0=    1 NMatT0=    0 NMatD0=    1 NMtDS0=    0 NMtDT0=    0
         I1Cent=           0 NGrid=           0.
 Symmetry not used in FoFCou.
 E= -2753.87011063501    
 DIIS: error= 1.17D-13 at cycle   1 NSaved=   1.
 NSaved= 1 IEnMin= 1 EnMin= -2753.87011063501     IErMin= 1 ErrMin= 1.17D-13
 ErrMax= 1.17D-13 EMaxC= 1.00D-01 BMatC= 4.44D-25 BMatP= 4.44D-25
 IDIUse=1 WtCom= 1.00D+00 WtEn= 0.00D+00
 Coeff-Com:  0.100D+01
 Coeff:      0.100D+01
 Gap=     0.578 Goal=   None    Shift=    0.000
 DSYEVD returned Info=          89 IAlg= 4 N=    59 NDim=    59 NE2=    18198197 trying DSYEV.
 RMSDP=5.55D-15 MaxDP=6.68D-14              OVMax= 7.33D-14

 SCF Done:  E(RwB97XD) =  -2753.87011064     A.U. after    1 cycles
             Convg  =    0.5553D-14             -V/T =  2.0013
 KE= 2.750289370128D+03 PE=-6.580200885036D+03 EE= 1.076041404273D+03
 Leave Link  502 at Sun May  3 18:15:30 2020, MaxMem= 1073741824 cpu:      12.7
 (Enter /home/matheus/.gaussian/g09/l122.exe)
 Restoring MOs from calculation   1 to rwf.
 Counterpoise: corrected energy =   -2905.427685674154
 Counterpoise: BSSE energy =       0.000020671906
 Leave Link  122 at Sun May  3 18:15:30 2020, MaxMem= 1073741824 cpu:       0.0
 (Enter /home/matheus/.gaussian/g09/l108.exe)
 Scan completed.

 Summary of the potential surface scan:
   N      R1          SCF    
 ----  ---------  -----------
    1     3.0000  -2753.87011
    2     3.1000  -2753.87011
    3     3.2000  -2753.87011
    4     3.3000  -2753.87011
    5     3.4000  -2753.87011
    6     3.5000  -2753.87011
    7     3.6000  -2753.87011
    8     3.7000  -2753.87011
    9     3.8000  -2753.87011
   10     3.9000  -2753.87011
   11     4.0000  -2753.87011
   12     4.1000  -2753.87011
   13     4.2000  -2753.87011
   14     4.3000  -2753.87011
   15     4.4000  -2753.87011
   16     4.5000  -2753.87011
   17     4.6000  -2753.87011
   18     4.7000  -2753.87011
   19     4.8000  -2753.87011
   20     4.9000  -2753.87011
   21     5.0000  -2753.87011
 ----  ---------  -----------
  
 Leave Link  108 at Sun May  3 18:15:30 2020, MaxMem= 1073741824 cpu:       0.0
 (Enter /home/matheus/.gaussian/g09/l9999.exe)

 Test job not archived.
 1\1\GINC-REDGIANT\Scan\RwB97XD\Aug-CC-pVTZ\H2Kr1O2\ROOT\03-May-2020\1\
 \#p wb97xd/aug-cc-PVTz iop(3/107=0250000000) iop(3/108=0250000000) int
 =ultrafine counterpoise=2 Scan\\TCC\\0,1\O,0,0.,0.,0.725\O,0,0.,0.,-0.
 725\H,0,-0.3142209495,-0.8633149634,1.0235104166\H,0,0.,0.9187205947,-
 1.0235104166\Kr,0,0.,R1,0.\\R1=3.,s,20,0.1\\Version=EM64L-G09RevC.01\S
 tate=1-A\HF=-2753.8701106,-2753.8701106,-2753.8701106,-2753.8701106,-2
 753.8701106,-2753.8701106,-2753.8701106,-2753.8701106,-2753.8701106,-2
 753.8701106,-2753.8701106,-2753.8701106,-2753.8701106,-2753.8701106,-2
 753.8701106,-2753.8701106,-2753.8701106,-2753.8701106,-2753.8701106,-2
 753.8701106,-2753.8701106\RMSD=9.654e-09,1.847e-10,5.405e-11,3.457e-11
 ,1.948e-11,1.188e-11,7.096e-12,4.280e-12,2.574e-12,1.553e-12,9.311e-13
 ,5.579e-13,3.329e-13,1.998e-13,1.200e-13,7.332e-14,4.479e-14,2.539e-14
 ,1.960e-14,1.865e-14,5.553e-15\PG=C01 [X(H2Kr1O2)]\\@


 CONTRAIWISE...CONTINUED TWEEDLEDEE, IF IT WAS SO, IT MIGHT BE,
 AND IF IT WERE SO, IT WOULD BE.....
 BUT AS IT ISN'T, IT AIN'T....
 THAT'S LOGIC.....
 ALICE THROUGH THE LOOKING GLASS
 Job cpu time:  0 days  3 hours 31 minutes 20.5 seconds.
 File lengths (MBytes):  RWF=     33 Int=      0 D2E=      0 Chk=      8 Scr=      1
 Normal termination of Gaussian 09 at Sun May  3 18:15:30 2020.
