 Entering Gaussian System, Link 0=g09
 Input=/home/matheus/.tcc/Inputs/Inputs-wb97xd-default/H2O2-Kr_0.com
 Output=/home/matheus/.tcc/Logs/Logs-wb97xd-default/H2O2-Kr_0.log
 Initial command:
 /home/matheus/.gaussian/g09/l1.exe /home/matheus/.gaussian/g09/scratch/Gau-11398.inp -scrdir=/home/matheus/.gaussian/g09/scratch/
 Entering Link 1 = /home/matheus/.gaussian/g09/l1.exe PID=     11401.
  
 Copyright (c) 1988,1990,1992,1993,1995,1998,2003,2009,2011,
            Gaussian, Inc.  All Rights Reserved.
  
 This is part of the Gaussian(R) 09 program.  It is based on
 the Gaussian(R) 03 system (copyright 2003, Gaussian, Inc.),
 the Gaussian(R) 98 system (copyright 1998, Gaussian, Inc.),
 the Gaussian(R) 94 system (copyright 1995, Gaussian, Inc.),
 the Gaussian 92(TM) system (copyright 1992, Gaussian, Inc.),
 the Gaussian 90(TM) system (copyright 1990, Gaussian, Inc.),
 the Gaussian 88(TM) system (copyright 1988, Gaussian, Inc.),
 the Gaussian 86(TM) system (copyright 1986, Carnegie Mellon
 University), and the Gaussian 82(TM) system (copyright 1983,
 Carnegie Mellon University). Gaussian is a federally registered
 trademark of Gaussian, Inc.
  
 This software contains proprietary and confidential information,
 including trade secrets, belonging to Gaussian, Inc.
  
 This software is provided under written license and may be
 used, copied, transmitted, or stored only in accord with that
 written license.
  
 The following legend is applicable only to US Government
 contracts under FAR:
  
                    RESTRICTED RIGHTS LEGEND
  
 Use, reproduction and disclosure by the US Government is
 subject to restrictions as set forth in subparagraphs (a)
 and (c) of the Commercial Computer Software - Restricted
 Rights clause in FAR 52.227-19.
  
 Gaussian, Inc.
 340 Quinnipiac St., Bldg. 40, Wallingford CT 06492
  
  
 ---------------------------------------------------------------
 Warning -- This program may not be used in any manner that
 competes with the business of Gaussian, Inc. or will provide
 assistance to any competitor of Gaussian, Inc.  The licensee
 of this program is prohibited from giving any competitor of
 Gaussian, Inc. access to this program.  By using this program,
 the user acknowledges that Gaussian, Inc. is engaged in the
 business of creating and licensing software in the field of
 computational chemistry and represents and warrants to the
 licensee that it is not a competitor of Gaussian, Inc. and that
 it will not use this program in any manner prohibited above.
 ---------------------------------------------------------------
  

 Cite this work as:
 Gaussian 09, Revision C.01,
 M. J. Frisch, G. W. Trucks, H. B. Schlegel, G. E. Scuseria, 
 M. A. Robb, J. R. Cheeseman, G. Scalmani, V. Barone, B. Mennucci, 
 G. A. Petersson, H. Nakatsuji, M. Caricato, X. Li, H. P. Hratchian, 
 A. F. Izmaylov, J. Bloino, G. Zheng, J. L. Sonnenberg, M. Hada, 
 M. Ehara, K. Toyota, R. Fukuda, J. Hasegawa, M. Ishida, T. Nakajima, 
 Y. Honda, O. Kitao, H. Nakai, T. Vreven, J. A. Montgomery, Jr., 
 J. E. Peralta, F. Ogliaro, M. Bearpark, J. J. Heyd, E. Brothers, 
 K. N. Kudin, V. N. Staroverov, T. Keith, R. Kobayashi, J. Normand, 
 K. Raghavachari, A. Rendell, J. C. Burant, S. S. Iyengar, J. Tomasi, 
 M. Cossi, N. Rega, J. M. Millam, M. Klene, J. E. Knox, J. B. Cross, 
 V. Bakken, C. Adamo, J. Jaramillo, R. Gomperts, R. E. Stratmann, 
 O. Yazyev, A. J. Austin, R. Cammi, C. Pomelli, J. W. Ochterski, 
 R. L. Martin, K. Morokuma, V. G. Zakrzewski, G. A. Voth, 
 P. Salvador, J. J. Dannenberg, S. Dapprich, A. D. Daniels, 
 O. Farkas, J. B. Foresman, J. V. Ortiz, J. Cioslowski, 
 and D. J. Fox, Gaussian, Inc., Wallingford CT, 2010.
 
 ******************************************
 Gaussian 09:  EM64L-G09RevC.01 23-Sep-2011
                 9-May-2020 
 ******************************************
 %mem=8GB
 %nproc=8
 Will use up to    8 processors via shared memory.
 -------------------------------------------------------
 #p wb97xd/aug-cc-PVTz int=ultrafine counterpoise=2 Scan
 -------------------------------------------------------
 1/38=1,60=1,62=2/1,8;
 2/12=2,17=6,18=5,29=3,40=1/2;
 1/38=1,53=5172,62=2/22;
 3/5=16,6=1,7=10,11=2,16=1,25=1,30=1,74=-58,75=-5/1,2,3;
 4//1;
 5/5=2,38=5/2;
 6/7=2,8=2,9=2,10=2,18=1,28=1/1;
 1/53=4052,62=2,63=1/22;
 3/5=7,6=11,7=10,11=2,16=1,25=1,30=1,74=-58,75=-5,82=7/1,2,3;
 4//1;
 5/5=2,38=5/2;
 6/7=2,8=2,9=2,10=2,18=1,28=1/1;
 1/53=3042,62=2,63=2/22;
 3/5=7,6=11,7=10,11=2,16=1,25=1,30=1,74=-58,75=-5,82=7/1,2,3;
 4//1;
 5/5=2,38=5/2;
 6/7=2,8=2,9=2,10=2,18=1,28=1/1;
 1/53=2032,62=2,63=3/22;
 3/5=7,6=11,7=10,11=2,16=1,25=1,30=1,74=-58,75=-5,82=7/1,2,3;
 4//1;
 5/5=2,38=5/2;
 6/7=2,8=2,9=2,10=2,18=1,28=1/1;
 1/53=1022,62=2,63=4/22;
 3/5=7,6=11,7=10,11=2,16=1,25=1,30=1,74=-58,75=-5,82=7/1,2,3;
 4//1;
 5/5=2,38=5/2;
 6/7=2,8=2,9=2,10=2,18=1,28=1/1;
 1/53=5014,62=2,63=5/22;
 1/60=1,62=2/8(1);
 99/9=1/99;
 2/29=3/2;
 1/53=5173,62=2/22;
 3/5=7,6=11,7=10,11=2,16=1,25=1,30=1,74=-58,75=-5,82=7/1,2,3;
 4/5=5,16=3/1;
 5/5=2,38=5/2;
 1/53=4053,62=2,63=1/22;
 3/5=7,6=11,7=10,11=2,16=1,25=1,30=1,74=-58,75=-5,82=7/1,2,3;
 4/5=5,16=3/1;
 5/5=2,38=5/2;
 1/53=3043,62=2,63=2/22;
 3/5=7,6=11,7=10,11=2,16=1,25=1,30=1,74=-58,75=-5,82=7/1,2,3;
 4/5=5,16=3/1;
 5/5=2,38=5/2;
 1/53=2033,62=2,63=3/22;
 3/5=7,6=11,7=10,11=2,16=1,25=1,30=1,74=-58,75=-5,82=7/1,2,3;
 4/5=5,16=3/1;
 5/5=2,38=5/2;
 1/53=1024,62=2,63=4/22;
 3/5=7,6=11,7=10,11=2,16=1,25=1,30=1,74=-58,75=-5,82=7/1,2,3;
 4/5=5,16=3/1;
 5/5=2,38=5/2;
 1/53=5014,62=2,63=5/22;
 1/60=1,62=2/8(-22);
 99/9=1/99;
 Leave Link    1 at Sat May  9 15:09:24 2020, MaxMem= 1073741824 cpu:       0.4
 (Enter /home/matheus/.gaussian/g09/l101.exe)
 ---
 TCC
 ---
 Charge =  0 Multiplicity = 1 in supermolecule
 Charge =  0 Multiplicity = 1 in fragment  1.
 Charge =  0 Multiplicity = 1 in fragment  2.
 Symbolic Z-Matrix:
 O(Fragment=1)         0.        0.        0.725 
 O(Fragment=1)         0.        0.       -0.725 
 H(Fragment=1)         0.        0.91872   1.02351 
 H(Fragment=1)         0.        0.91872  -1.02351 
 Kr(Fragment=2)        0.       R1        0. 
       Variables:
  R1                    3.     Scan 20    0.1    
 
 NAtoms=      5 NQM=        0 NQMF=       0 NMMI=      5 NMMIF=      0
                NMic=       0 NMicF=      0.
                    Isotopes and Nuclear Properties:
 (Nuclear quadrupole moments (NQMom) in fm**2, nuclear magnetic moments (NMagM)
  in nuclear magnetons)

  Atom         1           2           3           4           5
 IAtWgt=          16          16           1           1          84
 AtmWgt=  15.9949146  15.9949146   1.0078250   1.0078250  83.9115064
 NucSpn=           0           0           1           1           0
 AtZEff=   0.0000000   0.0000000   0.0000000   0.0000000   0.0000000
 NQMom=    0.0000000   0.0000000   0.0000000   0.0000000   0.0000000
 NMagM=    0.0000000   0.0000000   2.7928460   2.7928460   0.0000000
 Leave Link  101 at Sat May  9 15:09:24 2020, MaxMem= 1073741824 cpu:       0.4
 (Enter /home/matheus/.gaussian/g09/l108.exe)
 Scan the potential surface.
 Variable   Value     No. Steps Step-Size
 -------- ----------- --------- ---------
     1       3.000000      20      0.1000
 A total of     21 points will be computed.
 Leave Link  108 at Sat May  9 15:09:24 2020, MaxMem= 1073741824 cpu:       0.0
 (Enter /home/matheus/.gaussian/g09/l202.exe)
 ---------------------------------------------------------------------------------------------------
                            Z-MATRIX (ANGSTROMS AND DEGREES)
   CD    Cent   Atom    N1       Length/X        N2       Alpha/Y        N3        Beta/Z          J
 ---------------------------------------------------------------------------------------------------
      1      1  O        0   0.000000          0.000000          0.725000
      2      2  O        0   0.000000          0.000000         -0.725000
      3      3  H        0   0.000000          0.918721          1.023510
      4      4  H        0   0.000000          0.918721         -1.023510
      5      5  Kr       0   0.000000          3.000000          0.000000
 ---------------------------------------------------------------------------------------------------
                         Z-Matrix orientation:                         
 ---------------------------------------------------------------------
 Center     Atomic      Atomic             Coordinates (Angstroms)
 Number     Number       Type             X           Y           Z
 ---------------------------------------------------------------------
      1          8           0        0.000000    0.000000    0.725000
      2          8           0        0.000000    0.000000   -0.725000
      3          1           0        0.000000    0.918721    1.023510
      4          1           0        0.000000    0.918721   -1.023510
      5         36           0        0.000000    3.000000    0.000000
 ---------------------------------------------------------------------
                    Distance matrix (angstroms):
                    1          2          3          4          5
     1  O    0.000000
     2  O    1.450000   0.000000
     3  H    0.966000   1.975180   0.000000
     4  H    1.975180   0.966000   2.047021   0.000000
     5  Kr   3.086361   3.086361   2.319331   2.319331   0.000000
 Stoichiometry    H2KrO2
 Framework group  C2V[C2(Kr),SGV(H2O2)]
 Deg. of freedom     4
 Full point group                 C2V     NOp   4
 Largest Abelian subgroup         C2V     NOp   4
 Largest concise Abelian subgroup C2      NOp   2
                         Standard orientation:                         
 ---------------------------------------------------------------------
 Center     Atomic      Atomic             Coordinates (Angstroms)
 Number     Number       Type             X           Y           Z
 ---------------------------------------------------------------------
      1          8           0        0.000000    0.725000   -2.034027
      2          8           0        0.000000   -0.725000   -2.034027
      3          1           0        0.000000    1.023510   -1.115306
      4          1           0        0.000000   -1.023510   -1.115306
      5         36           0        0.000000    0.000000    0.965973
 ---------------------------------------------------------------------
 Rotational constants (GHZ):     26.7026195      2.3888795      2.1927141
 Leave Link  202 at Sat May  9 15:09:24 2020, MaxMem= 1073741824 cpu:       0.0
 (Enter /home/matheus/.gaussian/g09/l122.exe)
 Leave Link  122 at Sat May  9 15:09:24 2020, MaxMem= 1073741824 cpu:       0.0
 (Enter /home/matheus/.gaussian/g09/l301.exe)
 Standard basis: Aug-CC-pVTZ (5D, 7F)
 Ernie: Thresh=  0.10000D-02 Tol=  0.10000D-05 Strict=F.
 Ernie:  38 primitive shells out of 205 were deleted.
 There are    71 symmetry adapted basis functions of A1  symmetry.
 There are    29 symmetry adapted basis functions of A2  symmetry.
 There are    37 symmetry adapted basis functions of B1  symmetry.
 There are    60 symmetry adapted basis functions of B2  symmetry.
 Integral buffers will be    131072 words long.
 Raffenetti 2 integral format.
 Two-electron integral symmetry is turned on.
   197 basis functions,   415 primitive gaussians,   229 cartesian basis functions
    27 alpha electrons       27 beta electrons
       nuclear repulsion energy       151.8532718296 Hartrees.
 IExCor= 4639 DFT=T Ex+Corr=wB97XD ExCW=0 ScaHFX=  1.000000
 ScaDFX=  1.000000  1.000000  1.000000  1.000000 ScalE2=  1.000000  1.000000
 IRadAn=      5 IRanWt=     -1 IRanGd=            0 ICorTp=0
  HFx wShort=  0.000000 wLong=  0.200000 cFull=  0.222036 cShort=  0.000000 cLong=  0.777964
  DFx wShort=  0.000000 wLong=  0.200000 cFull=  0.000000 cShort=  0.000000 cLong=  1.000000
 NAtoms=    5 NActive=    5 NUniq=    3 SFac= 2.78D+00 NAtFMM=   60 NAOKFM=F Big=F
 R6Disp: Dispersion energy =        -0.0007521941 Hartrees.
 Nuclear repulsion after empirical dispersion term =      151.8525196355 Hartrees.
 Leave Link  301 at Sat May  9 15:09:24 2020, MaxMem= 1073741824 cpu:       0.2
 (Enter /home/matheus/.gaussian/g09/l302.exe)
 NPDir=0 NMtPBC=     1 NCelOv=     1 NCel=       1 NClECP=     1 NCelD=      1
         NCelK=      1 NCelE2=     1 NClLst=     1 CellRange=     0.0.
 One-electron integrals computed using PRISM.
 One-electron integral symmetry used in STVInt
 NBasis=   197 RedAO= T  NBF=    71    29    37    60
 NBsUse=   197 1.00D-06 NBFU=    71    29    37    60
 Precomputing XC quadrature grid using
 IXCGrd= 2 IRadAn=           5 IRanWt=          -1 IRanGd=           0 AccXCQ= 0.00D+00.
 NRdTot=     427 NPtTot=      123512 NUsed=      126579 NTot=      126611
 NSgBfM=   229   229   229   229   229 NAtAll=     5     5.
 Leave Link  302 at Sat May  9 15:09:24 2020, MaxMem= 1073741824 cpu:       0.9
 (Enter /home/matheus/.gaussian/g09/l303.exe)
 DipDrv:  MaxL=1.
 Leave Link  303 at Sat May  9 15:09:24 2020, MaxMem= 1073741824 cpu:       0.2
 (Enter /home/matheus/.gaussian/g09/l401.exe)
 Harris functional with IExCor= 4639 diagonalized for initial guess.
 ExpMin= 2.53D-02 ExpMax= 1.17D+07 ExpMxC= 1.33D+04 IAcc=3 IRadAn=         5 AccDes= 0.00D+00
 HarFok:  IExCor= 4639 AccDes= 0.00D+00 IRadAn=         5 IDoV= 1
 ScaDFX=  1.000000  1.000000  1.000000  1.000000
 FoFCou: FMM=F IPFlag=           0 FMFlag=      100000 FMFlg1=           0
         NFxFlg=           0 DoJE=T BraDBF=F KetDBF=T FulRan=T
         Omega=  0.000000  0.000000  1.000000  0.000000  0.000000 ICntrl=     500 IOpCl=  0
         NMat0=    1 NMatS0=    1 NMatT0=    0 NMatD0=    1 NMtDS0=    0 NMtDT0=    0
         I1Cent=           4 NGrid=           0.
 Petite list used in FoFCou.
 Harris En= -2876.47857951024    
 Initial guess orbital symmetries:
       Occupied  (A1) (A1) (A1) (B2) (B1) (B2) (A1) (A1) (A1) (B2)
                 (B1) (B2) (A1) (B1) (A1) (A2) (A1) (B2) (A1) (A1)
                 (A1) (B2) (B1) (B1) (A1) (B2) (A2)
       Virtual   (A1) (B2) (A1) (B1) (B2) (A1) (B2) (B1) (A1) (B2)
                 (A1) (A2) (B2) (A1) (B1) (A1) (A2) (B2) (A1) (A1)
                 (B2) (B1) (A2) (A1) (B2) (B2) (B2) (A1) (B1) (A1)
                 (A1) (B1) (B2) (A1) (B2) (B1) (A2) (A1) (B1) (B2)
                 (A1) (A2) (A1) (A2) (A1) (B2) (B2) (A1) (B1) (B1)
                 (A2) (B2) (A1) (B1) (B2) (A1) (B1) (A1) (B2) (A2)
                 (B2) (A2) (A1) (B2) (A1) (A1) (B2) (B1) (A2) (B1)
                 (B2) (A1) (A2) (A1) (B2) (B2) (A1) (B1) (A1) (B2)
                 (B1) (A1) (A1) (A2) (B1) (A1) (B2) (B1) (A2) (B2)
                 (B2) (A1) (A1) (A2) (A1) (B1) (B2) (A1) (B2) (B1)
                 (B1) (B2) (A1) (A2) (B1) (B2) (A2) (B1) (A1) (A2)
                 (A1) (B2) (B2) (A1) (A1) (B2) (A2) (B2) (B2) (A1)
                 (B2) (B1) (B1) (A1) (A2) (B1) (A2) (A1) (B2) (A2)
                 (A1) (A1) (B2) (B2) (A1) (A1) (B1) (A1) (B2) (A2)
                 (B2) (B2) (A1) (B1) (B2) (A1) (B1) (A1) (A2) (B2)
                 (B1) (A1) (A2) (A1) (B1) (B1) (B2) (A2) (A2) (B2)
                 (A1) (A2) (A1) (B2) (B2) (A1) (B2) (B2) (A1) (B2)
 The electronic state of the initial guess is 1-A1.
 Leave Link  401 at Sat May  9 15:09:25 2020, MaxMem= 1073741824 cpu:       1.9
 (Enter /home/matheus/.gaussian/g09/l502.exe)
 Closed shell SCF:
 Requested convergence on RMS density matrix=1.00D-08 within 128 cycles.
 Requested convergence on MAX density matrix=1.00D-06.
 Requested convergence on             energy=1.00D-06.
 No special actions if energy rises.
 Using DIIS extrapolation, IDIIS=  1040.
 Integral symmetry usage will be decided dynamically.
       126521 words used for storage of precomputed grid.
 IEnd=      305860 IEndB=      305860 NGot=  1073741824 MDV=  1073505275
 LenX=  1073505275 LenY=  1073452393
 Fock matrices will be formed incrementally for  20 cycles.

 Cycle   1  Pass 1  IDiag  1:
 FoFJK:  IHMeth= 1 ICntrl=     0 DoSepK=T KAlg= 1 I1Cent= 0 FoldK=F
 FoFCou: FMM=F IPFlag=           0 FMFlag=      100000 FMFlg1=           0
         NFxFlg=           0 DoJE=T BraDBF=F KetDBF=F FulRan=T
         Omega=  0.000000  0.000000  1.000000  0.000000  0.000000 ICntrl=     500 IOpCl=  0
         NMat0=    1 NMatS0=    1 NMatT0=    0 NMatD0=    1 NMtDS0=    0 NMtDT0=    0
         I1Cent=           0 NGrid=           0.
 Petite list used in FoFCou.
 E= -2904.92028659930    
 DIIS: error= 9.21D-02 at cycle   1 NSaved=   1.
 NSaved= 1 IEnMin= 1 EnMin= -2904.92028659930     IErMin= 1 ErrMin= 9.21D-02
 ErrMax= 9.21D-02 EMaxC= 1.00D-01 BMatC= 2.20D+00 BMatP= 2.20D+00
 IDIUse=3 WtCom= 7.86D-02 WtEn= 9.21D-01
 Coeff-Com:  0.100D+01
 Coeff-En:   0.100D+01
 Coeff:      0.100D+01
 Gap=     0.483 Goal=   None    Shift=    0.000
 GapD=    0.483 DampG=2.000 DampE=0.500 DampFc=1.0000 IDamp=-1.
 RMSDP=6.54D-03 MaxDP=3.80D-01              OVMax= 1.85D-01

 Cycle   2  Pass 1  IDiag  1:
 RMSU=  4.61D-03    CP:  1.02D+00
 FoFJK:  IHMeth= 1 ICntrl=     0 DoSepK=T KAlg= 1 I1Cent= 0 FoldK=F
 E= -2905.22392150374     Delta-E=       -0.303634904438 Rises=F Damp=F
 DIIS: error= 5.23D-02 at cycle   2 NSaved=   2.
 NSaved= 2 IEnMin= 2 EnMin= -2905.22392150374     IErMin= 2 ErrMin= 5.23D-02
 ErrMax= 5.23D-02 EMaxC= 1.00D-01 BMatC= 5.65D-01 BMatP= 2.20D+00
 IDIUse=3 WtCom= 4.77D-01 WtEn= 5.23D-01
 Coeff-Com:  0.329D+00 0.671D+00
 Coeff-En:   0.205D+00 0.795D+00
 Coeff:      0.264D+00 0.736D+00
 Gap=     0.354 Goal=   None    Shift=    0.000
 RMSDP=2.94D-03 MaxDP=1.69D-01 DE=-3.04D-01 OVMax= 8.16D-02

 Cycle   3  Pass 1  IDiag  1:
 RMSU=  5.90D-04    CP:  1.01D+00  5.69D-01
 FoFJK:  IHMeth= 1 ICntrl=     0 DoSepK=T KAlg= 1 I1Cent= 0 FoldK=F
 E= -2905.40930217339     Delta-E=       -0.185380669650 Rises=F Damp=F
 DIIS: error= 1.07D-02 at cycle   3 NSaved=   3.
 NSaved= 3 IEnMin= 3 EnMin= -2905.40930217339     IErMin= 3 ErrMin= 1.07D-02
 ErrMax= 1.07D-02 EMaxC= 1.00D-01 BMatC= 2.76D-02 BMatP= 5.65D-01
 IDIUse=3 WtCom= 8.93D-01 WtEn= 1.07D-01
 Coeff-Com:  0.285D-01 0.211D+00 0.761D+00
 Coeff-En:   0.000D+00 0.000D+00 0.100D+01
 Coeff:      0.254D-01 0.188D+00 0.786D+00
 Gap=     0.399 Goal=   None    Shift=    0.000
 RMSDP=6.28D-04 MaxDP=2.06D-02 DE=-1.85D-01 OVMax= 2.76D-02

 Cycle   4  Pass 1  IDiag  1:
 RMSU=  2.53D-04    CP:  1.01D+00  6.47D-01  9.02D-01
 FoFJK:  IHMeth= 1 ICntrl=     0 DoSepK=T KAlg= 1 I1Cent= 0 FoldK=F
 E= -2905.42056228455     Delta-E=       -0.011260111158 Rises=F Damp=F
 DIIS: error= 4.20D-03 at cycle   4 NSaved=   4.
 NSaved= 4 IEnMin= 4 EnMin= -2905.42056228455     IErMin= 4 ErrMin= 4.20D-03
 ErrMax= 4.20D-03 EMaxC= 1.00D-01 BMatC= 2.20D-03 BMatP= 2.76D-02
 IDIUse=3 WtCom= 9.58D-01 WtEn= 4.20D-02
 Coeff-Com: -0.211D-02 0.655D-01 0.388D+00 0.549D+00
 Coeff-En:   0.000D+00 0.000D+00 0.000D+00 0.100D+01
 Coeff:     -0.202D-02 0.627D-01 0.371D+00 0.568D+00
 Gap=     0.381 Goal=   None    Shift=    0.000
 RMSDP=1.56D-04 MaxDP=6.65D-03 DE=-1.13D-02 OVMax= 8.82D-03

 Cycle   5  Pass 1  IDiag  1:
 RMSU=  3.91D-05    CP:  1.01D+00  6.40D-01  9.24D-01  6.22D-01
 FoFJK:  IHMeth= 1 ICntrl=     0 DoSepK=T KAlg= 1 I1Cent= 0 FoldK=F
 E= -2905.42195897333     Delta-E=       -0.001396688781 Rises=F Damp=F
 DIIS: error= 1.63D-04 at cycle   5 NSaved=   5.
 NSaved= 5 IEnMin= 5 EnMin= -2905.42195897333     IErMin= 5 ErrMin= 1.63D-04
 ErrMax= 1.63D-04 EMaxC= 1.00D-01 BMatC= 5.39D-06 BMatP= 2.20D-03
 IDIUse=3 WtCom= 9.98D-01 WtEn= 1.63D-03
 Coeff-Com: -0.696D-03-0.461D-02-0.115D-01 0.227D-01 0.994D+00
 Coeff-En:   0.000D+00 0.000D+00 0.000D+00 0.000D+00 0.100D+01
 Coeff:     -0.695D-03-0.460D-02-0.115D-01 0.226D-01 0.994D+00
 Gap=     0.382 Goal=   None    Shift=    0.000
 RMSDP=1.81D-05 MaxDP=5.51D-04 DE=-1.40D-03 OVMax= 1.06D-03

 Cycle   6  Pass 1  IDiag  1:
 RMSU=  6.69D-06    CP:  1.01D+00  6.40D-01  9.34D-01  6.41D-01  1.20D+00
 FoFJK:  IHMeth= 1 ICntrl=     0 DoSepK=T KAlg= 1 I1Cent= 0 FoldK=F
 E= -2905.42196487829     Delta-E=       -0.000005904958 Rises=F Damp=F
 DIIS: error= 3.62D-05 at cycle   6 NSaved=   6.
 NSaved= 6 IEnMin= 6 EnMin= -2905.42196487829     IErMin= 6 ErrMin= 3.62D-05
 ErrMax= 3.62D-05 EMaxC= 1.00D-01 BMatC= 2.29D-07 BMatP= 5.39D-06
 IDIUse=1 WtCom= 1.00D+00 WtEn= 0.00D+00
 Coeff-Com: -0.473D-04-0.300D-02-0.149D-01-0.152D-01 0.132D+00 0.901D+00
 Coeff:     -0.473D-04-0.300D-02-0.149D-01-0.152D-01 0.132D+00 0.901D+00
 Gap=     0.382 Goal=   None    Shift=    0.000
 RMSDP=3.93D-06 MaxDP=1.21D-04 DE=-5.90D-06 OVMax= 2.53D-04

 Cycle   7  Pass 1  IDiag  1:
 RMSU=  1.57D-06    CP:  1.01D+00  6.40D-01  9.35D-01  6.42D-01  1.25D+00
                    CP:  1.15D+00
 FoFJK:  IHMeth= 1 ICntrl=     0 DoSepK=T KAlg= 1 I1Cent= 0 FoldK=F
 E= -2905.42196526041     Delta-E=       -0.000000382123 Rises=F Damp=F
 DIIS: error= 8.13D-06 at cycle   7 NSaved=   7.
 NSaved= 7 IEnMin= 7 EnMin= -2905.42196526041     IErMin= 7 ErrMin= 8.13D-06
 ErrMax= 8.13D-06 EMaxC= 1.00D-01 BMatC= 1.51D-08 BMatP= 2.29D-07
 IDIUse=1 WtCom= 1.00D+00 WtEn= 0.00D+00
 Coeff-Com:  0.313D-04-0.839D-04-0.954D-03-0.304D-02-0.451D-01 0.812D-01
 Coeff-Com:  0.968D+00
 Coeff:      0.313D-04-0.839D-04-0.954D-03-0.304D-02-0.451D-01 0.812D-01
 Coeff:      0.968D+00
 Gap=     0.382 Goal=   None    Shift=    0.000
 RMSDP=1.32D-06 MaxDP=3.90D-05 DE=-3.82D-07 OVMax= 9.19D-05

 Cycle   8  Pass 1  IDiag  1:
 RMSU=  4.90D-07    CP:  1.01D+00  6.40D-01  9.35D-01  6.42D-01  1.26D+00
                    CP:  1.22D+00  1.25D+00
 FoFJK:  IHMeth= 1 ICntrl=     0 DoSepK=T KAlg= 1 I1Cent= 0 FoldK=F
 E= -2905.42196529275     Delta-E=       -0.000000032343 Rises=F Damp=F
 DIIS: error= 2.78D-06 at cycle   8 NSaved=   8.
 NSaved= 8 IEnMin= 8 EnMin= -2905.42196529275     IErMin= 8 ErrMin= 2.78D-06
 ErrMax= 2.78D-06 EMaxC= 1.00D-01 BMatC= 1.32D-09 BMatP= 1.51D-08
 IDIUse=1 WtCom= 1.00D+00 WtEn= 0.00D+00
 Coeff-Com:  0.534D-05 0.148D-03 0.677D-03 0.917D-04-0.132D-01-0.374D-01
 Coeff-Com:  0.105D+00 0.944D+00
 Coeff:      0.534D-05 0.148D-03 0.677D-03 0.917D-04-0.132D-01-0.374D-01
 Coeff:      0.105D+00 0.944D+00
 Gap=     0.382 Goal=   None    Shift=    0.000
 RMSDP=3.71D-07 MaxDP=9.34D-06 DE=-3.23D-08 OVMax= 3.08D-05

 Cycle   9  Pass 1  IDiag  1:
 RMSU=  1.16D-07    CP:  1.01D+00  6.40D-01  9.35D-01  6.41D-01  1.27D+00
                    CP:  1.23D+00  1.34D+00  1.19D+00
 FoFJK:  IHMeth= 1 ICntrl=     0 DoSepK=T KAlg= 1 I1Cent= 0 FoldK=F
 E= -2905.42196529527     Delta-E=       -0.000000002515 Rises=F Damp=F
 DIIS: error= 7.87D-07 at cycle   9 NSaved=   9.
 NSaved= 9 IEnMin= 9 EnMin= -2905.42196529527     IErMin= 9 ErrMin= 7.87D-07
 ErrMax= 7.87D-07 EMaxC= 1.00D-01 BMatC= 9.41D-11 BMatP= 1.32D-09
 IDIUse=1 WtCom= 1.00D+00 WtEn= 0.00D+00
 Coeff-Com: -0.238D-05 0.111D-04 0.913D-04 0.179D-03 0.435D-02-0.413D-02
 Coeff-Com: -0.970D-01 0.135D-01 0.108D+01
 Coeff:     -0.238D-05 0.111D-04 0.913D-04 0.179D-03 0.435D-02-0.413D-02
 Coeff:     -0.970D-01 0.135D-01 0.108D+01
 Gap=     0.382 Goal=   None    Shift=    0.000
 RMSDP=1.27D-07 MaxDP=3.73D-06 DE=-2.52D-09 OVMax= 1.24D-05

 Cycle  10  Pass 1  IDiag  1:
 RMSU=  3.08D-08    CP:  1.01D+00  6.40D-01  9.35D-01  6.41D-01  1.27D+00
                    CP:  1.23D+00  1.36D+00  1.30D+00  1.28D+00
 FoFJK:  IHMeth= 1 ICntrl=     0 DoSepK=T KAlg= 1 I1Cent= 0 FoldK=F
 E= -2905.42196529552     Delta-E=       -0.000000000249 Rises=F Damp=F
 DIIS: error= 1.33D-07 at cycle  10 NSaved=  10.
 NSaved=10 IEnMin=10 EnMin= -2905.42196529552     IErMin=10 ErrMin= 1.33D-07
 ErrMax= 1.33D-07 EMaxC= 1.00D-01 BMatC= 4.02D-12 BMatP= 9.41D-11
 IDIUse=1 WtCom= 1.00D+00 WtEn= 0.00D+00
 Coeff-Com:  0.475D-06-0.493D-05-0.330D-04 0.501D-05-0.357D-04 0.253D-02
 Coeff-Com:  0.393D-02-0.399D-01-0.111D+00 0.114D+01
 Coeff:      0.475D-06-0.493D-05-0.330D-04 0.501D-05-0.357D-04 0.253D-02
 Coeff:      0.393D-02-0.399D-01-0.111D+00 0.114D+01
 Gap=     0.382 Goal=   None    Shift=    0.000
 RMSDP=2.15D-08 MaxDP=4.87D-07 DE=-2.49D-10 OVMax= 2.33D-06

 Cycle  11  Pass 1  IDiag  1:
 RMSU=  4.52D-09    CP:  1.01D+00  6.40D-01  9.35D-01  6.41D-01  1.27D+00
                    CP:  1.23D+00  1.36D+00  1.30D+00  1.37D+00  1.27D+00
 FoFJK:  IHMeth= 1 ICntrl=     0 DoSepK=T KAlg= 1 I1Cent= 0 FoldK=F
 E= -2905.42196529552     Delta-E=       -0.000000000004 Rises=F Damp=F
 DIIS: error= 2.07D-08 at cycle  11 NSaved=  11.
 NSaved=11 IEnMin=11 EnMin= -2905.42196529552     IErMin=11 ErrMin= 2.07D-08
 ErrMax= 2.07D-08 EMaxC= 1.00D-01 BMatC= 8.20D-14 BMatP= 4.02D-12
 IDIUse=1 WtCom= 1.00D+00 WtEn= 0.00D+00
 Coeff-Com: -0.326D-07-0.470D-06-0.134D-05-0.805D-05-0.922D-04 0.163D-04
 Coeff-Com:  0.146D-02 0.294D-02-0.358D-02-0.155D+00 0.115D+01
 Coeff:     -0.326D-07-0.470D-06-0.134D-05-0.805D-05-0.922D-04 0.163D-04
 Coeff:      0.146D-02 0.294D-02-0.358D-02-0.155D+00 0.115D+01
 Gap=     0.382 Goal=   None    Shift=    0.000
 RMSDP=4.38D-09 MaxDP=1.73D-07 DE=-4.09D-12 OVMax= 3.26D-07

 SCF Done:  E(RwB97XD) =  -2905.42196530     A.U. after   11 cycles
             Convg  =    0.4377D-08             -V/T =  2.0015
 KE= 2.901012749677D+03 PE=-7.241043303562D+03 EE= 1.282756068953D+03
 Leave Link  502 at Sat May  9 15:09:51 2020, MaxMem= 1073741824 cpu:     211.8
 (Enter /home/matheus/.gaussian/g09/l601.exe)
 Copying SCF densities to generalized density rwf, IOpCl= 0 IROHF=0.

 **********************************************************************

            Population analysis using the SCF density.

 **********************************************************************

 Orbital symmetries:
       Occupied  (A1) (A1) (A1) (B2) (B1) (A1) (B2) (A1) (A1) (B2)
                 (B1) (A1) (B2) (B1) (A2) (A1) (A1) (A1) (B2) (A1)
                 (A1) (B2) (B1) (A1) (B1) (B2) (A2)
       Virtual   (A1) (B2) (A1) (B2) (B1) (B2) (A1) (A1) (B2) (B1)
                 (A1) (A2) (B2) (A1) (B1) (A1) (A2) (B2) (A1) (A1)
                 (B2) (B1) (A1) (A2) (B2) (B2) (B2) (A1) (B1) (A1)
                 (A1) (B1) (B2) (A1) (B2) (B1) (A2) (A1) (B1) (B2)
                 (A1) (A2) (A1) (A2) (A1) (B2) (B2) (A1) (B1) (B1)
                 (A2) (A1) (B2) (B1) (B2) (A1) (A1) (B1) (B2) (A2)
                 (B2) (A2) (A1) (B2) (A1) (A1) (B2) (B1) (A2) (B1)
                 (A1) (B2) (A2) (A1) (B2) (B2) (A1) (B1) (A1) (B2)
                 (A1) (B1) (A1) (B1) (A2) (A1) (B2) (B1) (B2) (A2)
                 (A1) (A2) (A1) (B2) (A1) (B1) (A1) (B2) (B1) (B2)
                 (B1) (B2) (A1) (A2) (B1) (B2) (A1) (B1) (A2) (A1)
                 (B2) (A2) (B2) (A1) (A1) (B2) (B2) (A2) (B2) (A1)
                 (B2) (B1) (B1) (A1) (B1) (A2) (A2) (A1) (B2) (A2)
                 (A1) (A1) (B2) (B2) (A1) (A1) (B1) (A1) (B2) (A2)
                 (B2) (B2) (A1) (B1) (B2) (A1) (B1) (A1) (A2) (B2)
                 (B1) (A1) (A2) (A1) (B1) (B1) (B2) (A2) (A2) (B2)
                 (A1) (A2) (A1) (B2) (B2) (A1) (B2) (B2) (A1) (B2)
 The electronic state is 1-A1.
 Alpha  occ. eigenvalues -- -513.10055 -67.36726 -60.91608 -60.91601 -60.91592
 Alpha  occ. eigenvalues --  -19.31209 -19.31204  -9.82026  -7.51349  -7.51322
 Alpha  occ. eigenvalues --   -7.51291  -3.38091  -3.38088  -3.38062  -3.38041
 Alpha  occ. eigenvalues --   -3.38037  -1.22072  -1.02829  -1.00465  -0.67375
 Alpha  occ. eigenvalues --   -0.53225  -0.51750  -0.50877  -0.49294  -0.49185
 Alpha  occ. eigenvalues --   -0.46593  -0.34648
 Alpha virt. eigenvalues --    0.03507   0.04375   0.08677   0.08845   0.09471
 Alpha virt. eigenvalues --    0.11866   0.12512   0.16327   0.16878   0.17367
 Alpha virt. eigenvalues --    0.18637   0.19069   0.19668   0.21187   0.22190
 Alpha virt. eigenvalues --    0.23459   0.23948   0.25478   0.29393   0.32719
 Alpha virt. eigenvalues --    0.35448   0.36776   0.38098   0.38583   0.38850
 Alpha virt. eigenvalues --    0.42654   0.45171   0.48180   0.50292   0.52675
 Alpha virt. eigenvalues --    0.57346   0.61253   0.61408   0.62455   0.62674
 Alpha virt. eigenvalues --    0.67514   0.67742   0.69323   0.70476   0.73035
 Alpha virt. eigenvalues --    0.73386   0.76019   0.78085   0.82015   0.83582
 Alpha virt. eigenvalues --    0.84864   0.85221   0.86626   0.86673   0.88784
 Alpha virt. eigenvalues --    0.91867   0.94775   0.95574   0.98115   0.98656
 Alpha virt. eigenvalues --    1.01094   1.05561   1.06051   1.06112   1.08454
 Alpha virt. eigenvalues --    1.09383   1.18310   1.20369   1.25825   1.26692
 Alpha virt. eigenvalues --    1.28894   1.29731   1.35075   1.38788   1.44869
 Alpha virt. eigenvalues --    1.47100   1.47618   1.53561   1.54459   1.56750
 Alpha virt. eigenvalues --    1.63228   1.64456   1.75761   1.92053   1.92345
 Alpha virt. eigenvalues --    1.95179   1.95888   2.06003   2.10147   2.10572
 Alpha virt. eigenvalues --    2.17231   2.18996   2.19899   2.19971   2.24452
 Alpha virt. eigenvalues --    2.28642   2.29841   2.30050   2.30823   2.35029
 Alpha virt. eigenvalues --    2.35863   2.38833   2.39902   2.43903   2.45495
 Alpha virt. eigenvalues --    2.45593   2.46716   2.54139   2.55088   2.61163
 Alpha virt. eigenvalues --    2.64395   2.66083   2.66086   2.68759   2.69518
 Alpha virt. eigenvalues --    2.69846   2.73563   2.76968   2.85978   2.87269
 Alpha virt. eigenvalues --    2.92847   3.09554   3.09636   3.17280   3.51530
 Alpha virt. eigenvalues --    3.75298   3.80318   3.93208   4.03925   4.06841
 Alpha virt. eigenvalues --    4.07538   4.09828   4.17591   4.18508   4.25202
 Alpha virt. eigenvalues --    4.32536   4.45528   4.56033   4.70229   4.73567
 Alpha virt. eigenvalues --    4.93993   4.98071   4.99537   5.05570   5.13099
 Alpha virt. eigenvalues --    5.16613   5.53202   5.79284   5.95963   6.05890
 Alpha virt. eigenvalues --    6.11536   6.29430   6.37239   6.46561   6.56380
 Alpha virt. eigenvalues --    6.68068   6.69577   6.73402   6.76086   6.79123
 Alpha virt. eigenvalues --    6.85218   6.85498   6.87769   6.90977   7.10664
 Alpha virt. eigenvalues --    7.14316   7.21104   7.24431   7.27947   7.61078
 Alpha virt. eigenvalues --    7.94831   8.05375   8.19992  13.82233  14.76718
          Condensed to atoms (all electrons):
              1          2          3          4          5
     1  O    8.293164  -0.227627   0.151839   0.039993  -0.019925
     2  O   -0.227627   8.293164   0.039993   0.151839  -0.019925
     3  H    0.151839   0.039993   0.603615  -0.019229  -0.009128
     4  H    0.039993   0.151839  -0.019229   0.603615  -0.009128
     5  Kr  -0.019925  -0.019925  -0.009128  -0.009128  36.049038
 Mulliken atomic charges:
              1
     1  O   -0.237445
     2  O   -0.237445
     3  H    0.232911
     4  H    0.232911
     5  Kr   0.009068
 Sum of Mulliken atomic charges =   0.00000
 Mulliken charges with hydrogens summed into heavy atoms:
              1
     1  O   -0.004534
     2  O   -0.004534
     5  Kr   0.009068
 Sum of Mulliken charges with hydrogens summed into heavy atoms =   0.00000
          Condensed to fragments (all electrons):
     1      -0.009068
     2       0.009068
 Electronic spatial extent (au):  <R**2>=            474.9715
 Charge=              0.0000 electrons
 Dipole moment (field-independent basis, Debye):
    X=              0.0000    Y=              0.0000    Z=              3.6987  Tot=              3.6987
 Quadrupole moment (field-independent basis, Debye-Ang):
   XX=            -30.5049   YY=            -28.1172   ZZ=            -38.5209
   XY=              0.0000   XZ=              0.0000   YZ=              0.0000
 Traceless Quadrupole moment (field-independent basis, Debye-Ang):
   XX=              1.8761   YY=              4.2638   ZZ=             -6.1399
   XY=              0.0000   XZ=              0.0000   YZ=              0.0000
 Octapole moment (field-independent basis, Debye-Ang**2):
  XXX=              0.0000  YYY=              0.0000  ZZZ=             44.2218  XYY=              0.0000
  XXY=              0.0000  XXZ=              9.0113  XZZ=              0.0000  YZZ=              0.0000
  YYZ=              8.0350  XYZ=              0.0000
 Hexadecapole moment (field-independent basis, Debye-Ang**3):
 XXXX=            -29.0714 YYYY=            -63.2137 ZZZZ=           -451.3533 XXXY=              0.0000
 XXXZ=              0.0000 YYYX=              0.0000 YYYZ=              0.0000 ZZZX=              0.0000
 ZZZY=              0.0000 XXYY=            -17.3920 XXZZ=            -76.3503 YYZZ=            -85.8590
 XXYZ=              0.0000 YYXZ=              0.0000 ZZXY=              0.0000
 N-N= 1.518525196355D+02 E-N=-7.241043300029D+03  KE= 2.901012749677D+03
 Symmetry A1   KE= 2.057808181655D+03
 Symmetry A2   KE= 5.296510189775D+01
 Symmetry B1   KE= 3.628286462512D+02
 Symmetry B2   KE= 4.274108198737D+02
 No NMR shielding tensors so no spin-rotation constants.
 Leave Link  601 at Sat May  9 15:09:51 2020, MaxMem= 1073741824 cpu:       1.4
 (Enter /home/matheus/.gaussian/g09/l122.exe)
 Counterpoise: doing DCBS calculation for fragment   1 NewBq=T
 Leave Link  122 at Sat May  9 15:09:51 2020, MaxMem= 1073741824 cpu:       0.0
 (Enter /home/matheus/.gaussian/g09/l301.exe)
 Basis read from rwf:  (5D, 7F)
 No pseudopotential information found on rwf file.
 There are    71 symmetry adapted basis functions of A1  symmetry.
 There are    29 symmetry adapted basis functions of A2  symmetry.
 There are    37 symmetry adapted basis functions of B1  symmetry.
 There are    60 symmetry adapted basis functions of B2  symmetry.
 Integral buffers will be    131072 words long.
 Raffenetti 2 integral format.
 Two-electron integral symmetry is turned on.
   197 basis functions,   415 primitive gaussians,   229 cartesian basis functions
     9 alpha electrons        9 beta electrons
       nuclear repulsion energy        36.6667523957 Hartrees.
 IExCor= 4639 DFT=T Ex+Corr=wB97XD ExCW=0 ScaHFX=  1.000000
 ScaDFX=  1.000000  1.000000  1.000000  1.000000 ScalE2=  1.000000  1.000000
 IRadAn=      5 IRanWt=     -1 IRanGd=            0 ICorTp=0
  HFx wShort=  0.000000 wLong=  0.200000 cFull=  0.222036 cShort=  0.000000 cLong=  0.777964
  DFx wShort=  0.000000 wLong=  0.200000 cFull=  0.000000 cShort=  0.000000 cLong=  1.000000
 NAtoms=    5 NActive=    5 NUniq=    3 SFac= 2.78D+00 NAtFMM=   60 NAOKFM=F Big=F
 R6Disp: Dispersion energy =        -0.0002180925 Hartrees.
 Nuclear repulsion after empirical dispersion term =       36.6665343032 Hartrees.
 No density basis found on file   718.
 Leave Link  301 at Sat May  9 15:09:51 2020, MaxMem= 1073741824 cpu:       0.2
 (Enter /home/matheus/.gaussian/g09/l302.exe)
 NPDir=0 NMtPBC=     1 NCelOv=     1 NCel=       1 NClECP=     1 NCelD=      1
         NCelK=      1 NCelE2=     1 NClLst=     1 CellRange=     0.0.
 One-electron integrals computed using PRISM.
 One-electron integral symmetry used in STVInt
 NBasis=   197 RedAO= T  NBF=    71    29    37    60
 NBsUse=   197 1.00D-06 NBFU=    71    29    37    60
 Precomputing XC quadrature grid using
 IXCGrd= 2 IRadAn=           5 IRanWt=          -1 IRanGd=           0 AccXCQ= 0.00D+00.
 NRdTot=     427 NPtTot=      123512 NUsed=      126579 NTot=      126611
 NSgBfM=   229   229   229   229   229 NAtAll=     5     5.
 Leave Link  302 at Sat May  9 15:09:52 2020, MaxMem= 1073741824 cpu:       0.9
 (Enter /home/matheus/.gaussian/g09/l303.exe)
 DipDrv:  MaxL=1.
 Leave Link  303 at Sat May  9 15:09:52 2020, MaxMem= 1073741824 cpu:       0.2
 (Enter /home/matheus/.gaussian/g09/l401.exe)
 Harris functional with IExCor= 4639 diagonalized for initial guess.
 ExpMin= 2.53D-02 ExpMax= 1.17D+07 ExpMxC= 1.33D+04 IAcc=3 IRadAn=         5 AccDes= 0.00D+00
 HarFok:  IExCor= 4639 AccDes= 0.00D+00 IRadAn=         5 IDoV= 1
 ScaDFX=  1.000000  1.000000  1.000000  1.000000
 FoFCou: FMM=F IPFlag=           0 FMFlag=      100000 FMFlg1=           0
         NFxFlg=           0 DoJE=T BraDBF=F KetDBF=T FulRan=T
         Omega=  0.000000  0.000000  1.000000  0.000000  0.000000 ICntrl=     500 IOpCl=  0
         NMat0=    1 NMatS0=    1 NMatT0=    0 NMatD0=    1 NMtDS0=    0 NMtDT0=    0
         I1Cent=           4 NGrid=           0.
 Petite list used in FoFCou.
 Harris En= -146.290349636328    
 Initial guess orbital symmetries:
       Occupied  (B2) (A1) (A1) (B2) (A1) (A1) (B1) (B2) (A2)
       Virtual   (A1) (B2) (A1) (B1) (A1) (B2) (B2) (A1) (B1) (A1)
                 (B2) (A2) (B2) (A1) (A1) (B1) (B2) (A1) (A2) (B2)
                 (A1) (B1) (B2) (A1) (B2) (A1) (A2) (B1) (B2) (A1)
                 (A1) (A1) (B2) (B1) (B2) (B1) (A1) (A2) (A1) (A2)
                 (B1) (B2) (A1) (B2) (A1) (B1) (B2) (A2) (A1) (B2)
                 (B2) (A1) (B1) (A2) (A1) (B1) (B2) (A1) (A2) (B2)
                 (B2) (A1) (B1) (A2) (B1) (A1) (A1) (B2) (A1) (A1)
                 (B2) (B1) (A2) (B2) (A1) (B1) (A2) (B2) (A1) (B1)
                 (A1) (B2) (A1) (B1) (B2) (A1) (A2) (B2) (A1) (B1)
                 (A2) (A1) (B2) (A1) (B2) (A1) (B1) (B2) (B1) (A2)
                 (B2) (A2) (A1) (A1) (B2) (B2) (A2) (B2) (B1) (A1)
                 (B2) (A1) (A1) (B2) (B1) (A2) (A1) (B1) (B1) (B2)
                 (A2) (B1) (A1) (A1) (B1) (B2) (A1) (A2) (B1) (A2)
                 (B2) (A1) (A2) (B2) (A1) (A1) (A1) (B2) (B2) (A1)
                 (B1) (A1) (B2) (A2) (B2) (B2) (A1) (B1) (B2) (A1)
                 (B1) (A1) (A2) (B2) (B1) (A1) (A2) (A1) (B1) (B1)
                 (B2) (A2) (A2) (B2) (A1) (A2) (A1) (B2) (B2) (A1)
                 (B2) (B2) (A1) (A1) (B2) (B1) (B2) (A1) (A2) (A1)
                 (B1) (A1) (B2) (A1) (B1) (B2) (A1) (A1)
 The electronic state of the initial guess is 1-A1.
 Leave Link  401 at Sat May  9 15:09:52 2020, MaxMem= 1073741824 cpu:       2.2
 (Enter /home/matheus/.gaussian/g09/l502.exe)
 Closed shell SCF:
 Requested convergence on RMS density matrix=1.00D-08 within 128 cycles.
 Requested convergence on MAX density matrix=1.00D-06.
 Requested convergence on             energy=1.00D-06.
 No special actions if energy rises.
 Using DIIS extrapolation, IDIIS=  1040.
 Integral symmetry usage will be decided dynamically.
       126521 words used for storage of precomputed grid.
 IEnd=      305860 IEndB=      305860 NGot=  1073741824 MDV=  1073505275
 LenX=  1073505275 LenY=  1073452393
 Fock matrices will be formed incrementally for  20 cycles.

 Cycle   1  Pass 1  IDiag  1:
 FoFJK:  IHMeth= 1 ICntrl=     0 DoSepK=T KAlg= 1 I1Cent= 0 FoldK=F
 FoFCou: FMM=F IPFlag=           0 FMFlag=      100000 FMFlg1=           0
         NFxFlg=           0 DoJE=T BraDBF=F KetDBF=F FulRan=T
         Omega=  0.000000  0.000000  1.000000  0.000000  0.000000 ICntrl=     500 IOpCl=  0
         NMat0=    1 NMatS0=    1 NMatT0=    0 NMatD0=    1 NMtDS0=    0 NMtDT0=    0
         I1Cent=           0 NGrid=           0.
 Petite list used in FoFCou.
 E= -151.471160805142    
 DIIS: error= 4.31D-02 at cycle   1 NSaved=   1.
 NSaved= 1 IEnMin= 1 EnMin= -151.471160805142     IErMin= 1 ErrMin= 4.31D-02
 ErrMax= 4.31D-02 EMaxC= 1.00D-01 BMatC= 2.99D-01 BMatP= 2.99D-01
 IDIUse=3 WtCom= 5.69D-01 WtEn= 4.31D-01
 Coeff-Com:  0.100D+01
 Coeff-En:   0.100D+01
 Coeff:      0.100D+01
 Gap=     0.484 Goal=   None    Shift=    0.000
 GapD=    0.484 DampG=2.000 DampE=0.500 DampFc=1.0000 IDamp=-1.
 RMSDP=2.64D-03 MaxDP=1.06D-01              OVMax= 1.09D-01

 Cycle   2  Pass 1  IDiag  1:
 RMSU=  1.81D-03    CP:  9.36D-01
 FoFJK:  IHMeth= 1 ICntrl=     0 DoSepK=T KAlg= 1 I1Cent= 0 FoldK=F
 E= -151.504587056166     Delta-E=       -0.033426251023 Rises=F Damp=F
 DIIS: error= 2.74D-02 at cycle   2 NSaved=   2.
 NSaved= 2 IEnMin= 2 EnMin= -151.504587056166     IErMin= 2 ErrMin= 2.74D-02
 ErrMax= 2.74D-02 EMaxC= 1.00D-01 BMatC= 8.40D-02 BMatP= 2.99D-01
 IDIUse=3 WtCom= 7.26D-01 WtEn= 2.74D-01
 Coeff-Com:  0.323D+00 0.677D+00
 Coeff-En:   0.337D+00 0.663D+00
 Coeff:      0.327D+00 0.673D+00
 Gap=     0.345 Goal=   None    Shift=    0.000
 RMSDP=1.07D-03 MaxDP=4.83D-02 DE=-3.34D-02 OVMax= 6.42D-02

 Cycle   3  Pass 1  IDiag  1:
 RMSU=  3.88D-04    CP:  9.62D-01  6.54D-01
 FoFJK:  IHMeth= 1 ICntrl=     0 DoSepK=T KAlg= 1 I1Cent= 0 FoldK=F
 E= -151.548531069864     Delta-E=       -0.043944013699 Rises=F Damp=F
 DIIS: error= 8.09D-03 at cycle   3 NSaved=   3.
 NSaved= 3 IEnMin= 3 EnMin= -151.548531069864     IErMin= 3 ErrMin= 8.09D-03
 ErrMax= 8.09D-03 EMaxC= 1.00D-01 BMatC= 7.51D-03 BMatP= 8.40D-02
 IDIUse=3 WtCom= 9.19D-01 WtEn= 8.09D-02
 Coeff-Com:  0.195D-01 0.241D+00 0.739D+00
 Coeff-En:   0.000D+00 0.000D+00 0.100D+01
 Coeff:      0.179D-01 0.222D+00 0.760D+00
 Gap=     0.379 Goal=   None    Shift=    0.000
 RMSDP=3.26D-04 MaxDP=1.10D-02 DE=-4.39D-02 OVMax= 1.90D-02

 Cycle   4  Pass 1  IDiag  1:
 RMSU=  7.29D-05    CP:  9.55D-01  7.61D-01  7.77D-01
 FoFJK:  IHMeth= 1 ICntrl=     0 DoSepK=T KAlg= 1 I1Cent= 0 FoldK=F
 E= -151.553391535389     Delta-E=       -0.004860465525 Rises=F Damp=F
 DIIS: error= 8.91D-04 at cycle   4 NSaved=   4.
 NSaved= 4 IEnMin= 4 EnMin= -151.553391535389     IErMin= 4 ErrMin= 8.91D-04
 ErrMax= 8.91D-04 EMaxC= 1.00D-01 BMatC= 1.59D-04 BMatP= 7.51D-03
 IDIUse=3 WtCom= 9.91D-01 WtEn= 8.91D-03
 Coeff-Com:  0.644D-03 0.308D-01 0.201D+00 0.768D+00
 Coeff-En:   0.000D+00 0.000D+00 0.000D+00 0.100D+01
 Coeff:      0.638D-03 0.306D-01 0.199D+00 0.770D+00
 Gap=     0.375 Goal=   None    Shift=    0.000
 RMSDP=5.34D-05 MaxDP=2.77D-03 DE=-4.86D-03 OVMax= 2.90D-03

 Cycle   5  Pass 1  IDiag  1:
 RMSU=  1.68D-05    CP:  9.56D-01  7.50D-01  8.37D-01  1.07D+00
 FoFJK:  IHMeth= 1 ICntrl=     0 DoSepK=T KAlg= 1 I1Cent= 0 FoldK=F
 E= -151.553499713412     Delta-E=       -0.000108178023 Rises=F Damp=F
 DIIS: error= 7.01D-05 at cycle   5 NSaved=   5.
 NSaved= 5 IEnMin= 5 EnMin= -151.553499713412     IErMin= 5 ErrMin= 7.01D-05
 ErrMax= 7.01D-05 EMaxC= 1.00D-01 BMatC= 8.65D-07 BMatP= 1.59D-04
 IDIUse=1 WtCom= 1.00D+00 WtEn= 0.00D+00
 Coeff-Com: -0.722D-03-0.115D-01-0.400D-01-0.830D-01 0.114D+01
 Coeff:     -0.722D-03-0.115D-01-0.400D-01-0.830D-01 0.114D+01
 Gap=     0.374 Goal=   None    Shift=    0.000
 RMSDP=1.40D-05 MaxDP=5.30D-04 DE=-1.08D-04 OVMax= 7.30D-04

 Cycle   6  Pass 1  IDiag  1:
 RMSU=  3.44D-06    CP:  9.56D-01  7.49D-01  8.50D-01  1.15D+00  1.28D+00
 FoFJK:  IHMeth= 1 ICntrl=     0 DoSepK=T KAlg= 1 I1Cent= 0 FoldK=F
 E= -151.553501754019     Delta-E=       -0.000002040606 Rises=F Damp=F
 DIIS: error= 1.55D-05 at cycle   6 NSaved=   6.
 NSaved= 6 IEnMin= 6 EnMin= -151.553501754019     IErMin= 6 ErrMin= 1.55D-05
 ErrMax= 1.55D-05 EMaxC= 1.00D-01 BMatC= 2.69D-08 BMatP= 8.65D-07
 IDIUse=1 WtCom= 1.00D+00 WtEn= 0.00D+00
 Coeff-Com:  0.584D-04 0.109D-04-0.348D-02-0.150D-01-0.715D-01 0.109D+01
 Coeff:      0.584D-04 0.109D-04-0.348D-02-0.150D-01-0.715D-01 0.109D+01
 Gap=     0.374 Goal=   None    Shift=    0.000
 RMSDP=2.51D-06 MaxDP=8.57D-05 DE=-2.04D-06 OVMax= 1.72D-04

 Cycle   7  Pass 1  IDiag  1:
 RMSU=  6.94D-07    CP:  9.56D-01  7.49D-01  8.51D-01  1.16D+00  1.33D+00
                    CP:  1.33D+00
 FoFJK:  IHMeth= 1 ICntrl=     0 DoSepK=T KAlg= 1 I1Cent= 0 FoldK=F
 E= -151.553501839628     Delta-E=       -0.000000085609 Rises=F Damp=F
 DIIS: error= 4.45D-06 at cycle   7 NSaved=   7.
 NSaved= 7 IEnMin= 7 EnMin= -151.553501839628     IErMin= 7 ErrMin= 4.45D-06
 ErrMax= 4.45D-06 EMaxC= 1.00D-01 BMatC= 1.87D-09 BMatP= 2.69D-08
 IDIUse=1 WtCom= 1.00D+00 WtEn= 0.00D+00
 Coeff-Com:  0.554D-05 0.297D-03 0.190D-02 0.433D-02-0.250D-01-0.213D+00
 Coeff-Com:  0.123D+01
 Coeff:      0.554D-05 0.297D-03 0.190D-02 0.433D-02-0.250D-01-0.213D+00
 Coeff:      0.123D+01
 Gap=     0.374 Goal=   None    Shift=    0.000
 RMSDP=5.94D-07 MaxDP=1.56D-05 DE=-8.56D-08 OVMax= 6.01D-05

 Cycle   8  Pass 1  IDiag  1:
 RMSU=  1.16D-07    CP:  9.56D-01  7.49D-01  8.51D-01  1.16D+00  1.34D+00
                    CP:  1.40D+00  1.31D+00
 FoFJK:  IHMeth= 1 ICntrl=     0 DoSepK=T KAlg= 1 I1Cent= 0 FoldK=F
 E= -151.553501844696     Delta-E=       -0.000000005068 Rises=F Damp=F
 DIIS: error= 7.23D-07 at cycle   8 NSaved=   8.
 NSaved= 8 IEnMin= 8 EnMin= -151.553501844696     IErMin= 8 ErrMin= 7.23D-07
 ErrMax= 7.23D-07 EMaxC= 1.00D-01 BMatC= 7.10D-11 BMatP= 1.87D-09
 IDIUse=1 WtCom= 1.00D+00 WtEn= 0.00D+00
 Coeff-Com: -0.339D-06 0.375D-04 0.333D-03 0.829D-03 0.190D-02-0.700D-01
 Coeff-Com:  0.165D+00 0.902D+00
 Coeff:     -0.339D-06 0.375D-04 0.333D-03 0.829D-03 0.190D-02-0.700D-01
 Coeff:      0.165D+00 0.902D+00
 Gap=     0.374 Goal=   None    Shift=    0.000
 RMSDP=8.00D-08 MaxDP=2.57D-06 DE=-5.07D-09 OVMax= 9.15D-06

 Cycle   9  Pass 1  IDiag  1:
 RMSU=  2.56D-08    CP:  9.56D-01  7.49D-01  8.51D-01  1.16D+00  1.34D+00
                    CP:  1.40D+00  1.35D+00  1.31D+00
 FoFJK:  IHMeth= 1 ICntrl=     0 DoSepK=T KAlg= 1 I1Cent= 0 FoldK=F
 E= -151.553501844841     Delta-E=       -0.000000000145 Rises=F Damp=F
 DIIS: error= 1.99D-07 at cycle   9 NSaved=   9.
 NSaved= 9 IEnMin= 9 EnMin= -151.553501844841     IErMin= 9 ErrMin= 1.99D-07
 ErrMax= 1.99D-07 EMaxC= 1.00D-01 BMatC= 7.71D-12 BMatP= 7.10D-11
 IDIUse=1 WtCom= 1.00D+00 WtEn= 0.00D+00
 Coeff-Com:  0.738D-06-0.138D-04-0.168D-03-0.487D-03 0.162D-02 0.219D-01
 Coeff-Com: -0.113D+00-0.525D-01 0.114D+01
 Coeff:      0.738D-06-0.138D-04-0.168D-03-0.487D-03 0.162D-02 0.219D-01
 Coeff:     -0.113D+00-0.525D-01 0.114D+01
 Gap=     0.374 Goal=   None    Shift=    0.000
 RMSDP=3.62D-08 MaxDP=7.75D-07 DE=-1.45D-10 OVMax= 3.55D-06

 Cycle  10  Pass 1  IDiag  1:
 RMSU=  5.81D-09    CP:  9.56D-01  7.49D-01  8.51D-01  1.16D+00  1.34D+00
                    CP:  1.39D+00  1.37D+00  1.45D+00  1.34D+00
 FoFJK:  IHMeth= 1 ICntrl=     0 DoSepK=T KAlg= 1 I1Cent= 0 FoldK=F
 E= -151.553501844857     Delta-E=       -0.000000000017 Rises=F Damp=F
 DIIS: error= 3.57D-08 at cycle  10 NSaved=  10.
 NSaved=10 IEnMin=10 EnMin= -151.553501844857     IErMin=10 ErrMin= 3.57D-08
 ErrMax= 3.57D-08 EMaxC= 1.00D-01 BMatC= 1.50D-13 BMatP= 7.71D-12
 IDIUse=1 WtCom= 1.00D+00 WtEn= 0.00D+00
 Coeff-Com: -0.257D-06-0.388D-06 0.175D-04 0.495D-04-0.200D-03-0.230D-02
 Coeff-Com:  0.156D-01 0.445D-02-0.278D+00 0.126D+01
 Coeff:     -0.257D-06-0.388D-06 0.175D-04 0.495D-04-0.200D-03-0.230D-02
 Coeff:      0.156D-01 0.445D-02-0.278D+00 0.126D+01
 Gap=     0.374 Goal=   None    Shift=    0.000
 RMSDP=6.24D-09 MaxDP=2.66D-07 DE=-1.67D-11 OVMax= 5.50D-07

 SCF Done:  E(RwB97XD) =  -151.553501845     A.U. after   10 cycles
             Convg  =    0.6239D-08             -V/T =  2.0057
 KE= 1.507010696534D+02 PE=-4.318066474957D+02 EE= 9.288554169425D+01
 Leave Link  502 at Sat May  9 15:10:17 2020, MaxMem= 1073741824 cpu:     197.8
 (Enter /home/matheus/.gaussian/g09/l601.exe)
 Copying SCF densities to generalized density rwf, IOpCl= 0 IROHF=0.

 **********************************************************************

            Population analysis using the SCF density.

 **********************************************************************

 Orbital symmetries:
       Occupied  (A1) (B2) (A1) (B2) (A1) (A1) (B1) (B2) (A2)
       Virtual   (A1) (B2) (A1) (B1) (B2) (A1) (B2) (A1) (B1) (A1)
                 (B2) (B2) (A2) (A1) (B1) (A1) (B2) (A1) (A2) (B2)
                 (A1) (B1) (B2) (A1) (B2) (A1) (A2) (B1) (B2) (A1)
                 (A1) (A1) (B2) (B1) (B2) (A1) (B1) (A1) (A2) (A2)
                 (B1) (B2) (A1) (B2) (A1) (B1) (B2) (A1) (A2) (B2)
                 (B2) (A1) (B1) (A1) (A2) (B1) (B2) (A1) (A2) (B2)
                 (B2) (A1) (B1) (A2) (B1) (A1) (A1) (B2) (A1) (A1)
                 (B1) (B2) (A2) (B2) (A1) (B1) (A2) (B2) (A1) (B1)
                 (A1) (B2) (A1) (B1) (B2) (A1) (A2) (B2) (A1) (B1)
                 (A1) (A2) (A1) (B2) (B2) (A1) (B1) (B2) (B1) (A2)
                 (B2) (A2) (A1) (A1) (B2) (B2) (A2) (B2) (B1) (A1)
                 (B2) (A1) (A1) (B2) (B1) (A2) (A1) (B1) (B2) (B1)
                 (A2) (A1) (B1) (A1) (B1) (B2) (A1) (B1) (A2) (B2)
                 (A2) (A1) (B2) (A2) (A1) (A1) (B2) (A1) (B2) (A1)
                 (B1) (A1) (B2) (A2) (B2) (B2) (A1) (B1) (B2) (A1)
                 (B1) (A1) (A2) (B2) (B1) (A1) (A2) (A1) (B1) (B1)
                 (B2) (A2) (A2) (B2) (A1) (A2) (A1) (B2) (B2) (A1)
                 (B2) (B2) (A1) (A1) (B2) (B1) (B2) (A1) (A2) (A1)
                 (B1) (A1) (B2) (A1) (B1) (B2) (A1) (A1)
 The electronic state is 1-A1.
 Alpha  occ. eigenvalues --  -19.32116 -19.32111  -1.22784  -1.01184  -0.67599
 Alpha  occ. eigenvalues --   -0.52547  -0.50233  -0.48045  -0.35382
 Alpha virt. eigenvalues --    0.02035   0.03827   0.07608   0.08071   0.08609
 Alpha virt. eigenvalues --    0.08986   0.10650   0.17183   0.18023   0.18081
 Alpha virt. eigenvalues --    0.18414   0.19278   0.19931   0.21586   0.26335
 Alpha virt. eigenvalues --    0.26713   0.27764   0.29131   0.31857   0.35461
 Alpha virt. eigenvalues --    0.35531   0.36742   0.37613   0.41018   0.43669
 Alpha virt. eigenvalues --    0.44545   0.45414   0.48119   0.48722   0.53305
 Alpha virt. eigenvalues --    0.54994   0.57654   0.58812   0.63120   0.63758
 Alpha virt. eigenvalues --    0.68015   0.69120   0.75792   0.75938   0.78176
 Alpha virt. eigenvalues --    0.80403   0.82465   0.84392   0.87231   0.87831
 Alpha virt. eigenvalues --    0.93653   0.95912   0.96956   0.98285   0.99450
 Alpha virt. eigenvalues --    1.01118   1.03546   1.04180   1.09298   1.09765
 Alpha virt. eigenvalues --    1.11824   1.18719   1.22748   1.23285   1.24481
 Alpha virt. eigenvalues --    1.28163   1.28842   1.29936   1.32368   1.33967
 Alpha virt. eigenvalues --    1.34332   1.36741   1.38609   1.42919   1.48051
 Alpha virt. eigenvalues --    1.48993   1.49268   1.50375   1.53700   1.61041
 Alpha virt. eigenvalues --    1.63038   1.64601   1.70364   1.70664   1.77208
 Alpha virt. eigenvalues --    1.80454   1.86038   1.94380   1.96999   1.98689
 Alpha virt. eigenvalues --    2.01285   2.10583   2.20977   2.21513   2.24746
 Alpha virt. eigenvalues --    2.25888   2.28012   2.32001   2.32434   2.41504
 Alpha virt. eigenvalues --    2.44188   2.49592   2.51326   2.59243   2.67744
 Alpha virt. eigenvalues --    2.69632   2.72679   2.80216   2.83673   2.90431
 Alpha virt. eigenvalues --    3.07517   3.08903   3.14869   3.24281   3.34030
 Alpha virt. eigenvalues --    3.36913   3.55256   3.64858   3.70158   3.76756
 Alpha virt. eigenvalues --    3.78621   3.79525   3.81627   3.84046   3.84559
 Alpha virt. eigenvalues --    3.89799   3.90715   3.93046   3.95131   3.97260
 Alpha virt. eigenvalues --    3.99124   4.04579   4.08457   4.08475   4.09749
 Alpha virt. eigenvalues --    4.10564   4.13256   4.24594   4.25052   4.28480
 Alpha virt. eigenvalues --    4.40801   4.59437   4.59932   4.70153   4.92951
 Alpha virt. eigenvalues --    4.97470   4.99837   5.05757   5.12569   5.16345
 Alpha virt. eigenvalues --    5.53192   5.78722   5.95362   6.05505   6.10319
 Alpha virt. eigenvalues --    6.28986   6.36678   6.45955   6.55731   6.67335
 Alpha virt. eigenvalues --    6.69130   6.72706   6.75144   6.78450   6.84555
 Alpha virt. eigenvalues --    6.84866   6.87049   6.90293   7.10142   7.13827
 Alpha virt. eigenvalues --    7.20392   7.23556   7.27253   7.60570   7.93959
 Alpha virt. eigenvalues --    8.04607   8.19359  11.10168  13.81966  14.75796
 Alpha virt. eigenvalues --   14.81563  14.97703  15.10712  29.02755  29.03485
 Alpha virt. eigenvalues --   29.06969  29.21283  29.26109  49.24852 148.29471
 Alpha virt. eigenvalues --  148.53478 148.73581 753.01125
          Condensed to atoms (all electrons):
              1          2          3          4          5
     1  O    8.217307  -0.209039   0.172800   0.031097  -0.000080
     2  O   -0.209039   8.217307   0.031097   0.172800  -0.000080
     3  H    0.172800   0.031097   0.595575  -0.007243  -0.003089
     4  H    0.031097   0.172800  -0.007243   0.595575  -0.003089
     5  Kr  -0.000080  -0.000080  -0.003089  -0.003089   0.003884
 Mulliken atomic charges:
              1
     1  O   -0.212085
     2  O   -0.212085
     3  H    0.210859
     4  H    0.210859
     5  Kr   0.002453
 Sum of Mulliken atomic charges =   0.00000
 Mulliken charges with hydrogens summed into heavy atoms:
              1
     1  O   -0.001226
     2  O   -0.001226
     5  Kr   0.002453
 Sum of Mulliken charges with hydrogens summed into heavy atoms =   0.00000
          Condensed to fragments (all electrons):
     1      -0.002453
     2       0.002453
 Electronic spatial extent (au):  <R**2>=            316.1388
 Charge=              0.0000 electrons
 Dipole moment (field-independent basis, Debye):
    X=              0.0000    Y=              0.0000    Z=              3.0748  Tot=              3.0748
 Quadrupole moment (field-independent basis, Debye-Ang):
   XX=            -13.0760   YY=            -10.5112   ZZ=            -21.2685
   XY=              0.0000   XZ=              0.0000   YZ=              0.0000
 Traceless Quadrupole moment (field-independent basis, Debye-Ang):
   XX=              1.8759   YY=              4.4407   ZZ=             -6.3166
   XY=              0.0000   XZ=              0.0000   YZ=              0.0000
 Octapole moment (field-independent basis, Debye-Ang**2):
  XXX=              0.0000  YYY=              0.0000  ZZZ=             91.9855  XYY=              0.0000
  XXY=              0.0000  XXZ=             25.5649  XZZ=              0.0000  YZZ=              0.0000
  YYZ=             24.4715  XYZ=              0.0000
 Hexadecapole moment (field-independent basis, Debye-Ang**3):
 XXXX=            -11.3138 YYYY=            -45.0373 ZZZZ=           -334.4543 XXXY=              0.0000
 XXXZ=              0.0000 YYYX=              0.0000 YYYZ=              0.0000 ZZZX=              0.0000
 ZZZY=              0.0000 XXYY=            -11.3894 XXZZ=            -54.1408 YYZZ=            -63.3578
 XXYZ=              0.0000 YYXZ=              0.0000 ZZXY=              0.0000
 N-N= 3.666653430319D+01 E-N=-4.318066467293D+02  KE= 1.507010696534D+02
 Symmetry A1   KE= 7.200116380699D+01
 Symmetry A2   KE= 5.399379688375D+00
 Symmetry B1   KE= 4.332876305409D+00
 Symmetry B2   KE= 6.896764985259D+01
 No NMR shielding tensors so no spin-rotation constants.
 Leave Link  601 at Sat May  9 15:10:17 2020, MaxMem= 1073741824 cpu:       0.9
 (Enter /home/matheus/.gaussian/g09/l122.exe)
 Counterpoise: doing DCBS calculation for fragment   2 NewBq=T
 Leave Link  122 at Sat May  9 15:10:17 2020, MaxMem= 1073741824 cpu:       0.0
 (Enter /home/matheus/.gaussian/g09/l301.exe)
 Basis read from rwf:  (5D, 7F)
 No pseudopotential information found on rwf file.
 There are    71 symmetry adapted basis functions of A1  symmetry.
 There are    29 symmetry adapted basis functions of A2  symmetry.
 There are    37 symmetry adapted basis functions of B1  symmetry.
 There are    60 symmetry adapted basis functions of B2  symmetry.
 Integral buffers will be    131072 words long.
 Raffenetti 2 integral format.
 Two-electron integral symmetry is turned on.
   197 basis functions,   415 primitive gaussians,   229 cartesian basis functions
    18 alpha electrons       18 beta electrons
       nuclear repulsion energy         0.0000000000 Hartrees.
 IExCor= 4639 DFT=T Ex+Corr=wB97XD ExCW=0 ScaHFX=  1.000000
 ScaDFX=  1.000000  1.000000  1.000000  1.000000 ScalE2=  1.000000  1.000000
 IRadAn=      5 IRanWt=     -1 IRanGd=            0 ICorTp=0
  HFx wShort=  0.000000 wLong=  0.200000 cFull=  0.222036 cShort=  0.000000 cLong=  0.777964
  DFx wShort=  0.000000 wLong=  0.200000 cFull=  0.000000 cShort=  0.000000 cLong=  1.000000
 NAtoms=    5 NActive=    5 NUniq=    3 SFac= 2.78D+00 NAtFMM=   60 NAOKFM=F Big=F
 R6Disp: Dispersion energy =         0.0000000000 Hartrees.
 Nuclear repulsion after empirical dispersion term =        0.0000000000 Hartrees.
 No density basis found on file   718.
 Leave Link  301 at Sat May  9 15:10:17 2020, MaxMem= 1073741824 cpu:       0.2
 (Enter /home/matheus/.gaussian/g09/l302.exe)
 NPDir=0 NMtPBC=     1 NCelOv=     1 NCel=       1 NClECP=     1 NCelD=      1
         NCelK=      1 NCelE2=     1 NClLst=     1 CellRange=     0.0.
 One-electron integrals computed using PRISM.
 One-electron integral symmetry used in STVInt
 NBasis=   197 RedAO= T  NBF=    71    29    37    60
 NBsUse=   197 1.00D-06 NBFU=    71    29    37    60
 Precomputing XC quadrature grid using
 IXCGrd= 2 IRadAn=           5 IRanWt=          -1 IRanGd=           0 AccXCQ= 0.00D+00.
 NRdTot=     427 NPtTot=      123512 NUsed=      126579 NTot=      126611
 NSgBfM=   229   229   229   229   229 NAtAll=     5     5.
 Leave Link  302 at Sat May  9 15:10:17 2020, MaxMem= 1073741824 cpu:       0.9
 (Enter /home/matheus/.gaussian/g09/l303.exe)
 DipDrv:  MaxL=1.
 Leave Link  303 at Sat May  9 15:10:17 2020, MaxMem= 1073741824 cpu:       0.2
 (Enter /home/matheus/.gaussian/g09/l401.exe)
 Harris functional with IExCor= 4639 diagonalized for initial guess.
 ExpMin= 2.53D-02 ExpMax= 1.17D+07 ExpMxC= 1.33D+04 IAcc=3 IRadAn=         5 AccDes= 0.00D+00
 HarFok:  IExCor= 4639 AccDes= 0.00D+00 IRadAn=         5 IDoV= 1
 ScaDFX=  1.000000  1.000000  1.000000  1.000000
 FoFCou: FMM=F IPFlag=           0 FMFlag=      100000 FMFlg1=           0
         NFxFlg=           0 DoJE=T BraDBF=F KetDBF=T FulRan=T
         Omega=  0.000000  0.000000  1.000000  0.000000  0.000000 ICntrl=     500 IOpCl=  0
         NMat0=    1 NMatS0=    1 NMatT0=    0 NMatD0=    1 NMtDS0=    0 NMtDT0=    0
         I1Cent=           4 NGrid=           0.
 Petite list used in FoFCou.
 Harris En= -2730.20503297638    
 Initial guess orbital symmetries:
       Occupied  (A1) (A1) (A1) (B2) (B1) (A1) (A1) (B2) (B1) (B2)
                 (A1) (B1) (A1) (A2) (A1) (A1) (B2) (B1)
       Virtual   (A1) (B2) (A1) (B1) (B2) (A1) (A1) (B1) (B2) (A1)
                 (B2) (A2) (A1) (B1) (A2) (A1) (B2) (A1) (B2) (A1)
                 (B1) (A1) (B2) (A2) (A1) (B2) (B2) (B1) (A1) (A1)
                 (B2) (B1) (A1) (A2) (B1) (A1) (B2) (B2) (A1) (A2)
                 (B1) (A1) (A1) (A1) (B1) (B2) (A2) (B2) (B1) (B2)
                 (A1) (A1) (A2) (B2) (B1) (B2) (A2) (B1) (B2) (A1)
                 (A1) (A2) (A1) (B2) (A1) (B1) (B2) (A2) (B2) (A1)
                 (A1) (B2) (B2) (B1) (A1) (A2) (A1) (B2) (B2) (B1)
                 (B1) (A1) (A1) (B2) (B1) (A2) (A1) (A1) (B1) (A1)
                 (B2) (B1) (A2) (A1) (B1) (B2) (A2) (A1) (A2) (A1)
                 (B2) (B1) (B2) (B1) (A2) (B2) (A1) (B2) (A1) (B1)
                 (A1) (B2) (A2) (A1) (B2) (B1) (A2) (B2) (A1) (B2)
                 (B2) (A1) (B2) (A2) (A1) (B1) (A1) (B2) (A2) (A1)
                 (B2) (B1) (A1) (A2) (B2) (A1) (B2) (B1) (A1) (A2)
                 (A1) (B2) (B2) (A1) (B2) (B1) (A1) (B1) (A1) (A2)
                 (B2) (A1) (B1) (A2) (A2) (B2) (A1) (B2) (B2) (A1)
                 (B1) (B2) (B1) (A2) (A1) (A2) (B2) (B2) (A1) (B1)
                 (A2) (A1) (A1) (B2) (B2) (A1) (B2) (A1) (B2)
 The electronic state of the initial guess is 1-A1.
 Leave Link  401 at Sat May  9 15:10:17 2020, MaxMem= 1073741824 cpu:       2.1
 (Enter /home/matheus/.gaussian/g09/l502.exe)
 Closed shell SCF:
 Requested convergence on RMS density matrix=1.00D-08 within 128 cycles.
 Requested convergence on MAX density matrix=1.00D-06.
 Requested convergence on             energy=1.00D-06.
 No special actions if energy rises.
 Using DIIS extrapolation, IDIIS=  1040.
 Integral symmetry usage will be decided dynamically.
       126521 words used for storage of precomputed grid.
 IEnd=      305860 IEndB=      305860 NGot=  1073741824 MDV=  1073505275
 LenX=  1073505275 LenY=  1073452393
 Fock matrices will be formed incrementally for  20 cycles.

 Cycle   1  Pass 1  IDiag  1:
 FoFJK:  IHMeth= 1 ICntrl=     0 DoSepK=T KAlg= 1 I1Cent= 0 FoldK=F
 FoFCou: FMM=F IPFlag=           0 FMFlag=      100000 FMFlg1=           0
         NFxFlg=           0 DoJE=T BraDBF=F KetDBF=F FulRan=T
         Omega=  0.000000  0.000000  1.000000  0.000000  0.000000 ICntrl=     500 IOpCl=  0
         NMat0=    1 NMatS0=    1 NMatT0=    0 NMatD0=    1 NMtDS0=    0 NMtDT0=    0
         I1Cent=           0 NGrid=           0.
 Petite list used in FoFCou.
 E= -2753.46356585378    
 DIIS: error= 9.05D-02 at cycle   1 NSaved=   1.
 NSaved= 1 IEnMin= 1 EnMin= -2753.46356585378     IErMin= 1 ErrMin= 9.05D-02
 ErrMax= 9.05D-02 EMaxC= 1.00D-01 BMatC= 1.89D+00 BMatP= 1.89D+00
 IDIUse=3 WtCom= 9.53D-02 WtEn= 9.05D-01
 Coeff-Com:  0.100D+01
 Coeff-En:   0.100D+01
 Coeff:      0.100D+01
 Gap=     0.634 Goal=   None    Shift=    0.000
 GapD=    0.634 DampG=2.000 DampE=0.500 DampFc=1.0000 IDamp=-1.
 RMSDP=5.92D-03 MaxDP=3.79D-01              OVMax= 1.78D-01

 Cycle   2  Pass 1  IDiag  1:
 RMSU=  4.14D-03    CP:  1.04D+00
 FoFJK:  IHMeth= 1 ICntrl=     0 DoSepK=T KAlg= 1 I1Cent= 0 FoldK=F
 E= -2753.72338583274     Delta-E=       -0.259819978955 Rises=F Damp=F
 DIIS: error= 4.80D-02 at cycle   2 NSaved=   2.
 NSaved= 2 IEnMin= 2 EnMin= -2753.72338583274     IErMin= 2 ErrMin= 4.80D-02
 ErrMax= 4.80D-02 EMaxC= 1.00D-01 BMatC= 4.81D-01 BMatP= 1.89D+00
 IDIUse=3 WtCom= 5.20D-01 WtEn= 4.80D-01
 Coeff-Com:  0.330D+00 0.670D+00
 Coeff-En:   0.184D+00 0.816D+00
 Coeff:      0.260D+00 0.740D+00
 Gap=     0.468 Goal=   None    Shift=    0.000
 RMSDP=2.73D-03 MaxDP=1.69D-01 DE=-2.60D-01 OVMax= 8.17D-02

 Cycle   3  Pass 1  IDiag  1:
 RMSU=  3.95D-04    CP:  1.02D+00  5.49D-01
 FoFJK:  IHMeth= 1 ICntrl=     0 DoSepK=T KAlg= 1 I1Cent= 0 FoldK=F
 E= -2753.86917718832     Delta-E=       -0.145791355581 Rises=F Damp=F
 DIIS: error= 9.22D-03 at cycle   3 NSaved=   3.
 NSaved= 3 IEnMin= 3 EnMin= -2753.86917718832     IErMin= 3 ErrMin= 9.22D-03
 ErrMax= 9.22D-03 EMaxC= 1.00D-01 BMatC= 1.67D-02 BMatP= 4.81D-01
 IDIUse=3 WtCom= 9.08D-01 WtEn= 9.22D-02
 Coeff-Com: -0.671D-02 0.147D+00 0.860D+00
 Coeff-En:   0.000D+00 0.000D+00 0.100D+01
 Coeff:     -0.609D-02 0.134D+00 0.873D+00
 Gap=     0.503 Goal=   None    Shift=    0.000
 RMSDP=4.05D-04 MaxDP=2.31D-02 DE=-1.46D-01 OVMax= 1.56D-02

 Cycle   4  Pass 1  IDiag  1:
 RMSU=  4.68D-05    CP:  1.03D+00  6.15D-01  9.17D-01
 FoFJK:  IHMeth= 1 ICntrl=     0 DoSepK=T KAlg= 1 I1Cent= 0 FoldK=F
 E= -2753.87436933111     Delta-E=       -0.005192142798 Rises=F Damp=F
 DIIS: error= 5.78D-04 at cycle   4 NSaved=   4.
 NSaved= 4 IEnMin= 4 EnMin= -2753.87436933111     IErMin= 4 ErrMin= 5.78D-04
 ErrMax= 5.78D-04 EMaxC= 1.00D-01 BMatC= 7.73D-05 BMatP= 1.67D-02
 IDIUse=3 WtCom= 9.94D-01 WtEn= 5.78D-03
 Coeff-Com: -0.695D-03-0.178D-01-0.186D-01 0.104D+01
 Coeff-En:   0.000D+00 0.000D+00 0.000D+00 0.100D+01
 Coeff:     -0.691D-03-0.177D-01-0.185D-01 0.104D+01
 Gap=     0.500 Goal=   None    Shift=    0.000
 RMSDP=3.32D-05 MaxDP=1.57D-03 DE=-5.19D-03 OVMax= 1.04D-03

 Cycle   5  Pass 1  IDiag  1:
 RMSU=  1.22D-05    CP:  1.03D+00  6.11D-01  9.39D-01  1.08D+00
 FoFJK:  IHMeth= 1 ICntrl=     0 DoSepK=T KAlg= 1 I1Cent= 0 FoldK=F
 E= -2753.87439712239     Delta-E=       -0.000027791273 Rises=F Damp=F
 DIIS: error= 1.90D-05 at cycle   5 NSaved=   5.
 NSaved= 5 IEnMin= 5 EnMin= -2753.87439712239     IErMin= 5 ErrMin= 1.90D-05
 ErrMax= 1.90D-05 EMaxC= 1.00D-01 BMatC= 4.03D-08 BMatP= 7.73D-05
 IDIUse=1 WtCom= 1.00D+00 WtEn= 0.00D+00
 Coeff-Com:  0.122D-03-0.261D-03-0.767D-02-0.702D-01 0.108D+01
 Coeff:      0.122D-03-0.261D-03-0.767D-02-0.702D-01 0.108D+01
 Gap=     0.500 Goal=   None    Shift=    0.000
 RMSDP=2.88D-06 MaxDP=1.25D-04 DE=-2.78D-05 OVMax= 2.00D-04

 Cycle   6  Pass 1  IDiag  1:
 RMSU=  9.25D-07    CP:  1.03D+00  6.11D-01  9.40D-01  1.10D+00  1.11D+00
 FoFJK:  IHMeth= 1 ICntrl=     0 DoSepK=T KAlg= 1 I1Cent= 0 FoldK=F
 E= -2753.87439725837     Delta-E=       -0.000000135988 Rises=F Damp=F
 DIIS: error= 5.19D-06 at cycle   6 NSaved=   6.
 NSaved= 6 IEnMin= 6 EnMin= -2753.87439725837     IErMin= 6 ErrMin= 5.19D-06
 ErrMax= 5.19D-06 EMaxC= 1.00D-01 BMatC= 4.49D-09 BMatP= 4.03D-08
 IDIUse=1 WtCom= 1.00D+00 WtEn= 0.00D+00
 Coeff-Com:  0.921D-05 0.302D-03-0.854D-03-0.398D-01 0.114D+00 0.927D+00
 Coeff:      0.921D-05 0.302D-03-0.854D-03-0.398D-01 0.114D+00 0.927D+00
 Gap=     0.500 Goal=   None    Shift=    0.000
 RMSDP=5.84D-07 MaxDP=2.60D-05 DE=-1.36D-07 OVMax= 2.66D-05

 Cycle   7  Pass 1  IDiag  1:
 RMSU=  1.21D-07    CP:  1.03D+00  6.11D-01  9.41D-01  1.10D+00  1.13D+00
                    CP:  1.17D+00
 FoFJK:  IHMeth= 1 ICntrl=     0 DoSepK=T KAlg= 1 I1Cent= 0 FoldK=F
 E= -2753.87439726285     Delta-E=       -0.000000004472 Rises=F Damp=F
 DIIS: error= 6.63D-07 at cycle   7 NSaved=   7.
 NSaved= 7 IEnMin= 7 EnMin= -2753.87439726285     IErMin= 7 ErrMin= 6.63D-07
 ErrMax= 6.63D-07 EMaxC= 1.00D-01 BMatC= 6.01D-11 BMatP= 4.49D-09
 IDIUse=1 WtCom= 1.00D+00 WtEn= 0.00D+00
 Coeff-Com: -0.180D-06 0.855D-04-0.580D-04-0.881D-02 0.102D-01 0.212D+00
 Coeff-Com:  0.787D+00
 Coeff:     -0.180D-06 0.855D-04-0.580D-04-0.881D-02 0.102D-01 0.212D+00
 Coeff:      0.787D+00
 Gap=     0.500 Goal=   None    Shift=    0.000
 RMSDP=5.27D-08 MaxDP=1.73D-06 DE=-4.47D-09 OVMax= 3.33D-06

 Cycle   8  Pass 1  IDiag  1:
 RMSU=  2.31D-08    CP:  1.03D+00  6.11D-01  9.41D-01  1.10D+00  1.14D+00
                    CP:  1.20D+00  1.03D+00
 FoFJK:  IHMeth= 1 ICntrl=     0 DoSepK=T KAlg= 1 I1Cent= 0 FoldK=F
 E= -2753.87439726290     Delta-E=       -0.000000000050 Rises=F Damp=F
 DIIS: error= 1.13D-07 at cycle   8 NSaved=   8.
 NSaved= 8 IEnMin= 8 EnMin= -2753.87439726290     IErMin= 8 ErrMin= 1.13D-07
 ErrMax= 1.13D-07 EMaxC= 1.00D-01 BMatC= 2.38D-12 BMatP= 6.01D-11
 IDIUse=1 WtCom= 1.00D+00 WtEn= 0.00D+00
 Coeff-Com: -0.109D-06-0.478D-05 0.528D-04 0.143D-02-0.414D-02-0.347D-01
 Coeff-Com:  0.430D-01 0.994D+00
 Coeff:     -0.109D-06-0.478D-05 0.528D-04 0.143D-02-0.414D-02-0.347D-01
 Coeff:      0.430D-01 0.994D+00
 Gap=     0.500 Goal=   None    Shift=    0.000
 RMSDP=2.13D-08 MaxDP=7.82D-07 DE=-5.00D-11 OVMax= 6.01D-07

 Cycle   9  Pass 1  IDiag  1:
 RMSU=  4.46D-09    CP:  1.03D+00  6.11D-01  9.41D-01  1.10D+00  1.13D+00
                    CP:  1.21D+00  1.09D+00  1.11D+00
 FoFJK:  IHMeth= 1 ICntrl=     0 DoSepK=T KAlg= 1 I1Cent= 0 FoldK=F
 E= -2753.87439726289     Delta-E=        0.000000000005 Rises=F Damp=F
 DIIS: error= 1.15D-08 at cycle   9 NSaved=   9.
 NSaved= 9 IEnMin= 8 EnMin= -2753.87439726290     IErMin= 9 ErrMin= 1.15D-08
 ErrMax= 1.15D-08 EMaxC= 1.00D-01 BMatC= 9.06D-15 BMatP= 2.38D-12
 IDIUse=1 WtCom= 1.00D+00 WtEn= 0.00D+00
 Coeff-Com:  0.127D-07 0.390D-06-0.482D-05-0.138D-03 0.266D-03 0.419D-02
 Coeff-Com: -0.971D-02-0.159D+00 0.116D+01
 Coeff:      0.127D-07 0.390D-06-0.482D-05-0.138D-03 0.266D-03 0.419D-02
 Coeff:     -0.971D-02-0.159D+00 0.116D+01
 Gap=     0.500 Goal=   None    Shift=    0.000
 RMSDP=2.37D-09 MaxDP=1.01D-07 DE= 4.55D-12 OVMax= 1.04D-07

 SCF Done:  E(RwB97XD) =  -2753.87439726     A.U. after    9 cycles
             Convg  =    0.2371D-08             -V/T =  2.0013
 KE= 2.750248182316D+03 PE=-6.580185827895D+03 EE= 1.076063248316D+03
 Leave Link  502 at Sat May  9 15:10:39 2020, MaxMem= 1073741824 cpu:     172.3
 (Enter /home/matheus/.gaussian/g09/l601.exe)
 Copying SCF densities to generalized density rwf, IOpCl= 0 IROHF=0.

 **********************************************************************

            Population analysis using the SCF density.

 **********************************************************************

 Orbital symmetries:
       Occupied  (A1) (A1) (A1) (B2) (B1) (A1) (A1) (B2) (B1) (A1)
                 (B2) (B1) (A1) (A2) (A1) (A1) (B2) (B1)
       Virtual   (A1) (B2) (A1) (B1) (B2) (A1) (A1) (B1) (B2) (A1)
                 (B2) (A2) (A1) (B1) (A1) (A2) (B2) (A1) (B2) (A1)
                 (B1) (A1) (B2) (A2) (A1) (B2) (B2) (B1) (A1) (A1)
                 (B2) (B1) (A2) (A1) (B2) (B1) (A1) (B2) (A1) (A2)
                 (B1) (A1) (A1) (B1) (A1) (B2) (B2) (A2) (B1) (A1)
                 (B2) (B2) (A1) (A2) (B1) (B2) (A2) (A1) (B1) (B2)
                 (A1) (A2) (A1) (B2) (A1) (B2) (B1) (A2) (B2) (A1)
                 (A1) (B2) (B2) (B1) (A1) (A2) (A1) (B2) (B2) (B1)
                 (A1) (B1) (B2) (A1) (A2) (B1) (A1) (A1) (B1) (A1)
                 (A2) (B2) (B1) (A1) (B2) (B1) (A2) (A1) (A2) (B2)
                 (A1) (B1) (B2) (B1) (A2) (A1) (B2) (B2) (A1) (B1)
                 (A1) (B2) (A2) (A1) (B2) (B1) (A2) (B2) (A1) (B2)
                 (B2) (A1) (A2) (B2) (A1) (A1) (B1) (B2) (A2) (A1)
                 (B2) (B1) (A1) (A2) (B2) (A1) (B2) (B1) (A1) (A2)
                 (A1) (B2) (B2) (A1) (B2) (B1) (A1) (B1) (A1) (A2)
                 (B2) (A1) (B1) (A2) (A2) (B2) (A1) (B2) (B2) (A1)
                 (B1) (B2) (B1) (A2) (A1) (A2) (B2) (B2) (A1) (B1)
                 (A2) (A1) (A1) (B2) (B2) (A1) (B2) (A1) (B2)
 The electronic state is 1-A1.
 Alpha  occ. eigenvalues -- -513.05946 -67.32605 -60.87482 -60.87481 -60.87481
 Alpha  occ. eigenvalues --   -9.77890  -7.47186  -7.47185  -7.47185  -3.33928
 Alpha  occ. eigenvalues --   -3.33927  -3.33927  -3.33927  -3.33926  -0.98487
 Alpha  occ. eigenvalues --   -0.46645  -0.46642  -0.46640
 Alpha virt. eigenvalues --    0.03364   0.05220   0.08772   0.10234   0.12406
 Alpha virt. eigenvalues --    0.13344   0.13983   0.14890   0.15853   0.17575
 Alpha virt. eigenvalues --    0.18021   0.18027   0.21136   0.25767   0.26054
 Alpha virt. eigenvalues --    0.26266   0.29386   0.30778   0.33228   0.36976
 Alpha virt. eigenvalues --    0.37886   0.39287   0.40002   0.40773   0.41735
 Alpha virt. eigenvalues --    0.42340   0.46089   0.52690   0.55667   0.57559
 Alpha virt. eigenvalues --    0.61475   0.62884   0.69432   0.70335   0.71727
 Alpha virt. eigenvalues --    0.72518   0.73102   0.74660   0.74780   0.76774
 Alpha virt. eigenvalues --    0.77770   0.82925   0.84647   0.87487   0.87694
 Alpha virt. eigenvalues --    0.89200   0.89447   0.89695   0.95667   0.97297
 Alpha virt. eigenvalues --    0.97729   0.98918   0.99035   0.99437   1.02780
 Alpha virt. eigenvalues --    1.03757   1.10124   1.12206   1.13163   1.14194
 Alpha virt. eigenvalues --    1.14812   1.25171   1.28144   1.32097   1.40154
 Alpha virt. eigenvalues --    1.40563   1.43085   1.44026   1.49928   1.52244
 Alpha virt. eigenvalues --    1.55223   1.60489   1.68311   1.70189   1.74942
 Alpha virt. eigenvalues --    1.79765   1.84072   1.87759   1.96255   2.14316
 Alpha virt. eigenvalues --    2.23048   2.23363   2.26623   2.27107   2.31524
 Alpha virt. eigenvalues --    2.31662   2.32995   2.37480   2.38717   2.40535
 Alpha virt. eigenvalues --    2.47191   2.47960   2.48215   2.51148   2.51783
 Alpha virt. eigenvalues --    2.52215   2.53669   2.58931   2.60912   2.61255
 Alpha virt. eigenvalues --    2.62359   2.64805   2.65182   2.67961   2.75088
 Alpha virt. eigenvalues --    2.76127   2.76516   2.82869   2.89530   2.90262
 Alpha virt. eigenvalues --    2.96389   3.00114   3.12453   3.13196   3.16860
 Alpha virt. eigenvalues --    3.27411   3.28783   3.30118   3.39801   3.56348
 Alpha virt. eigenvalues --    3.64025   3.66787   3.89002   3.89374   4.03177
 Alpha virt. eigenvalues --    4.43115   4.43928   4.52668   4.62067   4.68761
 Alpha virt. eigenvalues --    4.73680   4.82307   4.87920   4.96708   5.05869
 Alpha virt. eigenvalues --    5.12396   5.32501   5.51569   5.67009   5.72545
 Alpha virt. eigenvalues --    5.91534   6.04639   6.30958   6.71024   6.97148
 Alpha virt. eigenvalues --    7.26641   7.39196   7.64773   7.67936   7.80903
 Alpha virt. eigenvalues --    7.88814   8.04366   8.12577   8.13846   8.29938
 Alpha virt. eigenvalues --    8.33151   8.37932   8.72735   9.03656   9.51750
 Alpha virt. eigenvalues --    9.76322   9.77639   9.88749   9.91626   9.95487
 Alpha virt. eigenvalues --   10.22036  10.23669  10.75665  10.87869  11.44032
 Alpha virt. eigenvalues --   11.64415  11.67885  11.93294  12.08311  13.31544
 Alpha virt. eigenvalues --   13.60640  14.57141  62.40921  64.85930
          Condensed to atoms (all electrons):
              1          2          3          4          5
     1  O    0.003098  -0.000450  -0.002884   0.000635  -0.005421
     2  O   -0.000450   0.003098   0.000635  -0.002884  -0.005421
     3  H   -0.002884   0.000635   0.003666  -0.000323  -0.019197
     4  H    0.000635  -0.002884  -0.000323   0.003666  -0.019197
     5  Kr  -0.005421  -0.005421  -0.019197  -0.019197  36.095481
 Mulliken atomic charges:
              1
     1  O    0.005021
     2  O    0.005021
     3  H    0.018102
     4  H    0.018102
     5  Kr  -0.046246
 Sum of Mulliken atomic charges =   0.00000
 Mulliken charges with hydrogens summed into heavy atoms:
              1
     1  O    0.023123
     2  O    0.023123
     5  Kr  -0.046246
 Sum of Mulliken charges with hydrogens summed into heavy atoms =   0.00000
          Condensed to fragments (all electrons):
     1       0.046246
     2      -0.046246
 Electronic spatial extent (au):  <R**2>=            159.2981
 Charge=              0.0000 electrons
 Dipole moment (field-independent basis, Debye):
    X=              0.0000    Y=              0.0000    Z=             -0.0011  Tot=              0.0011
 Quadrupole moment (field-independent basis, Debye-Ang):
   XX=            -17.6486   YY=            -17.6377   ZZ=            -17.6269
   XY=              0.0000   XZ=              0.0000   YZ=              0.0000
 Traceless Quadrupole moment (field-independent basis, Debye-Ang):
   XX=             -0.0109   YY=              0.0001   ZZ=              0.0108
   XY=              0.0000   XZ=              0.0000   YZ=              0.0000
 Octapole moment (field-independent basis, Debye-Ang**2):
  XXX=              0.0000  YYY=              0.0000  ZZZ=            -51.0759  XYY=              0.0000
  XXY=              0.0000  XXZ=            -17.0489  XZZ=              0.0000  YZZ=              0.0000
  YYZ=            -17.0413  XYZ=              0.0000
 Hexadecapole moment (field-independent basis, Debye-Ang**3):
 XXXX=            -18.4679 YYYY=            -18.4446 ZZZZ=           -117.0810 XXXY=              0.0000
 XXXZ=              0.0000 YYYX=              0.0000 YYYZ=              0.0000 ZZZX=              0.0000
 ZZZY=              0.0000 XXYY=             -6.1476 XXZZ=            -22.6093 YYZZ=            -22.6005
 XXYZ=              0.0000 YYXZ=              0.0000 ZZXY=              0.0000
 N-N= 0.000000000000D+00 E-N=-6.580185828566D+03  KE= 2.750248182316D+03
 Symmetry A1   KE= 1.985734587965D+03
 Symmetry A2   KE= 4.758629436545D+01
 Symmetry B1   KE= 3.584654878858D+02
 Symmetry B2   KE= 3.584618121002D+02
 No NMR shielding tensors so no spin-rotation constants.
 Leave Link  601 at Sat May  9 15:10:39 2020, MaxMem= 1073741824 cpu:       0.9
 (Enter /home/matheus/.gaussian/g09/l122.exe)
 Counterpoise: doing MCBS calculation for fragment   1
 Leave Link  122 at Sat May  9 15:10:39 2020, MaxMem= 1073741824 cpu:       0.0
 (Enter /home/matheus/.gaussian/g09/l301.exe)
 Basis read from rwf:  (5D, 7F)
 No pseudopotential information found on rwf file.
 There are    46 symmetry adapted basis functions of A1  symmetry.
 There are    23 symmetry adapted basis functions of A2  symmetry.
 There are    23 symmetry adapted basis functions of B1  symmetry.
 There are    46 symmetry adapted basis functions of B2  symmetry.
 Integral buffers will be    131072 words long.
 Raffenetti 2 integral format.
 Two-electron integral symmetry is turned on.
   138 basis functions,   198 primitive gaussians,   160 cartesian basis functions
     9 alpha electrons        9 beta electrons
       nuclear repulsion energy        36.6667523957 Hartrees.
 IExCor= 4639 DFT=T Ex+Corr=wB97XD ExCW=0 ScaHFX=  1.000000
 ScaDFX=  1.000000  1.000000  1.000000  1.000000 ScalE2=  1.000000  1.000000
 IRadAn=      5 IRanWt=     -1 IRanGd=            0 ICorTp=0
  HFx wShort=  0.000000 wLong=  0.200000 cFull=  0.222036 cShort=  0.000000 cLong=  0.777964
  DFx wShort=  0.000000 wLong=  0.200000 cFull=  0.000000 cShort=  0.000000 cLong=  1.000000
 NAtoms=    5 NActive=    4 NUniq=    2 SFac= 4.00D+00 NAtFMM=   60 NAOKFM=F Big=F
 R6Disp: Dispersion energy =        -0.0002180925 Hartrees.
 Nuclear repulsion after empirical dispersion term =       36.6665343032 Hartrees.
 No density basis found on file   718.
 Leave Link  301 at Sat May  9 15:10:39 2020, MaxMem= 1073741824 cpu:       0.2
 (Enter /home/matheus/.gaussian/g09/l302.exe)
 NPDir=0 NMtPBC=     1 NCelOv=     1 NCel=       1 NClECP=     1 NCelD=      1
         NCelK=      1 NCelE2=     1 NClLst=     1 CellRange=     0.0.
 One-electron integrals computed using PRISM.
 One-electron integral symmetry used in STVInt
 NBasis=   138 RedAO= T  NBF=    46    23    23    46
 NBsUse=   138 1.00D-06 NBFU=    46    23    23    46
 Precomputing XC quadrature grid using
 IXCGrd= 2 IRadAn=           5 IRanWt=          -1 IRanGd=           0 AccXCQ= 0.00D+00.
 NRdTot=     344 NPtTot=       92556 NUsed=       95038 NTot=       95070
 NSgBfM=   160   160   160   160   160 NAtAll=     4     4.
 Leave Link  302 at Sat May  9 15:10:39 2020, MaxMem= 1073741824 cpu:       0.8
 (Enter /home/matheus/.gaussian/g09/l303.exe)
 DipDrv:  MaxL=1.
 Leave Link  303 at Sat May  9 15:10:39 2020, MaxMem= 1073741824 cpu:       0.1
 (Enter /home/matheus/.gaussian/g09/l401.exe)
 Harris functional with IExCor= 4639 diagonalized for initial guess.
 ExpMin= 2.53D-02 ExpMax= 1.53D+04 ExpMxC= 5.22D+02 IAcc=3 IRadAn=         5 AccDes= 0.00D+00
 HarFok:  IExCor= 4639 AccDes= 0.00D+00 IRadAn=         5 IDoV= 1
 ScaDFX=  1.000000  1.000000  1.000000  1.000000
 FoFCou: FMM=F IPFlag=           0 FMFlag=      100000 FMFlg1=           0
         NFxFlg=           0 DoJE=T BraDBF=F KetDBF=T FulRan=T
         Omega=  0.000000  0.000000  1.000000  0.000000  0.000000 ICntrl=     500 IOpCl=  0
         NMat0=    1 NMatS0=    1 NMatT0=    0 NMatD0=    1 NMtDS0=    0 NMtDT0=    0
         I1Cent=           4 NGrid=           0.
 Petite list used in FoFCou.
 Harris En= -146.290231590792    
 Initial guess orbital symmetries:
       Occupied  (B2) (A1) (A1) (B2) (A1) (A1) (B1) (B2) (A2)
       Virtual   (A1) (B2) (A1) (B2) (B1) (B2) (A1) (A1) (A2) (B2)
                 (B1) (A1) (B2) (A1) (A2) (B2) (A1) (B2) (B2) (A1)
                 (B1) (A1) (B2) (B1) (A1) (A2) (A2) (B1) (B2) (A1)
                 (B2) (A1) (A1) (B1) (B1) (A1) (A2) (B2) (B2) (B2)
                 (A1) (A2) (B2) (A2) (B2) (A1) (B1) (A1) (B2) (A2)
                 (A1) (B2) (B1) (A1) (B2) (A1) (B1) (A1) (A2) (B1)
                 (B2) (A1) (A2) (A1) (B2) (B2) (A1) (B1) (B2) (B1)
                 (B2) (A2) (A2) (A1) (A1) (B2) (B2) (A2) (B2) (A1)
                 (B2) (B1) (A1) (B1) (A2) (B1) (A2) (A1) (B2) (A2)
                 (A1) (A1) (B2) (B2) (A1) (A1) (B1) (B2) (A2) (B2)
                 (B2) (A1) (B1) (A1) (B2) (B1) (A1) (A2) (B2) (A1)
                 (B1) (A2) (A1) (B1) (B1) (B2) (A2) (A2) (A1) (B2)
                 (A2) (A1) (B2) (B2) (A1) (B2) (B2) (A1) (B2)
 The electronic state of the initial guess is 1-A1.
 Leave Link  401 at Sat May  9 15:10:39 2020, MaxMem= 1073741824 cpu:       1.4
 (Enter /home/matheus/.gaussian/g09/l502.exe)
 Closed shell SCF:
 Requested convergence on RMS density matrix=1.00D-08 within 128 cycles.
 Requested convergence on MAX density matrix=1.00D-06.
 Requested convergence on             energy=1.00D-06.
 No special actions if energy rises.
 Using DIIS extrapolation, IDIIS=  1040.
 Integral symmetry usage will be decided dynamically.
        94980 words used for storage of precomputed grid.
 IEnd=      192636 IEndB=      192636 NGot=  1073741824 MDV=  1073591589
 LenX=  1073591589 LenY=  1073565548
 Fock matrices will be formed incrementally for  20 cycles.

 Cycle   1  Pass 1  IDiag  1:
 FoFJK:  IHMeth= 1 ICntrl=     0 DoSepK=T KAlg= 1 I1Cent= 0 FoldK=F
 FoFCou: FMM=F IPFlag=           0 FMFlag=      100000 FMFlg1=           0
         NFxFlg=           0 DoJE=T BraDBF=F KetDBF=F FulRan=T
         Omega=  0.000000  0.000000  1.000000  0.000000  0.000000 ICntrl=     500 IOpCl=  0
         NMat0=    1 NMatS0=    1 NMatT0=    0 NMatD0=    1 NMtDS0=    0 NMtDT0=    0
         I1Cent=           0 NGrid=           0.
 Petite list used in FoFCou.
 E= -151.471178104384    
 DIIS: error= 5.52D-02 at cycle   1 NSaved=   1.
 NSaved= 1 IEnMin= 1 EnMin= -151.471178104384     IErMin= 1 ErrMin= 5.52D-02
 ErrMax= 5.52D-02 EMaxC= 1.00D-01 BMatC= 2.97D-01 BMatP= 2.97D-01
 IDIUse=3 WtCom= 4.48D-01 WtEn= 5.52D-01
 Coeff-Com:  0.100D+01
 Coeff-En:   0.100D+01
 Coeff:      0.100D+01
 Gap=     0.485 Goal=   None    Shift=    0.000
 GapD=    0.485 DampG=2.000 DampE=0.500 DampFc=1.0000 IDamp=-1.
 RMSDP=3.48D-03 MaxDP=1.04D-01              OVMax= 1.09D-01

[...]
         I1Cent=           4 NGrid=           0.
 Petite list used in FoFCou.
 Harris En= -2730.20264791889    
 Leave Link  401 at Sat May  9 15:26:37 2020, MaxMem= 1073741824 cpu:       2.5
 (Enter /home/matheus/.gaussian/g09/l502.exe)
 Closed shell SCF:
 Requested convergence on RMS density matrix=1.00D-08 within 128 cycles.
 Requested convergence on MAX density matrix=1.00D-06.
 Requested convergence on             energy=1.00D-06.
 No special actions if energy rises.
 Using DIIS extrapolation, IDIIS=  1040.
 Integral symmetry usage will be decided dynamically.
       126823 words used for storage of precomputed grid.
 IEnd=      306162 IEndB=      306162 NGot=  1073741824 MDV=  1073504973
 LenX=  1073504973 LenY=  1073452091
 Fock matrices will be formed incrementally for  20 cycles.

 Cycle   1  Pass 1  IDiag  1:
 FoFJK:  IHMeth= 1 ICntrl=     0 DoSepK=T KAlg= 1 I1Cent= 0 FoldK=F
 FoFCou: FMM=F IPFlag=           0 FMFlag=      100000 FMFlg1=           0
         NFxFlg=           0 DoJE=T BraDBF=F KetDBF=F FulRan=T
         Omega=  0.000000  0.000000  1.000000  0.000000  0.000000 ICntrl=     500 IOpCl=  0
         NMat0=    1 NMatS0=    1 NMatT0=    0 NMatD0=    1 NMtDS0=    0 NMtDT0=    0
         I1Cent=           0 NGrid=           0.
 Petite list used in FoFCou.
 E= -2753.87423958651    
 DIIS: error= 1.29D-04 at cycle   1 NSaved=   1.
 NSaved= 1 IEnMin= 1 EnMin= -2753.87423958651     IErMin= 1 ErrMin= 1.29D-04
 ErrMax= 1.29D-04 EMaxC= 1.00D-01 BMatC= 4.06D-06 BMatP= 4.06D-06
 IDIUse=3 WtCom= 9.99D-01 WtEn= 1.29D-03
 Coeff-Com:  0.100D+01
 Coeff-En:   0.100D+01
 Coeff:      0.100D+01
 Gap=     0.498 Goal=   None    Shift=    0.000
 RMSDP=1.67D-05 MaxDP=7.60D-04              OVMax= 4.06D-04

 Cycle   2  Pass 1  IDiag  1:
 RMSU=  1.18D-05    CP:  1.00D+00
 FoFJK:  IHMeth= 1 ICntrl=     0 DoSepK=T KAlg= 1 I1Cent= 0 FoldK=F
 E= -2753.87424034881     Delta-E=       -0.000000762298 Rises=F Damp=F
 DIIS: error= 8.04D-06 at cycle   2 NSaved=   2.
 NSaved= 2 IEnMin= 2 EnMin= -2753.87424034881     IErMin= 2 ErrMin= 8.04D-06
 ErrMax= 8.04D-06 EMaxC= 1.00D-01 BMatC= 6.09D-09 BMatP= 4.06D-06
 IDIUse=1 WtCom= 1.00D+00 WtEn= 0.00D+00
 Coeff-Com: -0.128D-01 0.101D+01
 Coeff:     -0.128D-01 0.101D+01
 Gap=     0.498 Goal=   None    Shift=    0.000
 RMSDP=1.47D-06 MaxDP=5.33D-05 DE=-7.62D-07 OVMax= 6.13D-05

 Cycle   3  Pass 1  IDiag  1:
 RMSU=  5.16D-07    CP:  1.00D+00  1.08D+00
 FoFJK:  IHMeth= 1 ICntrl=     0 DoSepK=T KAlg= 1 I1Cent= 0 FoldK=F
 E= -2753.87424035976     Delta-E=       -0.000000010950 Rises=F Damp=F
 DIIS: error= 1.13D-06 at cycle   3 NSaved=   3.
 NSaved= 3 IEnMin= 3 EnMin= -2753.87424035976     IErMin= 3 ErrMin= 1.13D-06
 ErrMax= 1.13D-06 EMaxC= 1.00D-01 BMatC= 2.01D-10 BMatP= 6.09D-09
 IDIUse=1 WtCom= 1.00D+00 WtEn= 0.00D+00
 Coeff-Com: -0.479D-03-0.664D-01 0.107D+01
 Coeff:     -0.479D-03-0.664D-01 0.107D+01
 Gap=     0.498 Goal=   None    Shift=    0.000
 RMSDP=1.90D-07 MaxDP=6.50D-06 DE=-1.09D-08 OVMax= 1.19D-05

 Cycle   4  Pass 1  IDiag  1:
 RMSU=  6.00D-08    CP:  1.00D+00  1.08D+00  1.22D+00
 FoFJK:  IHMeth= 1 ICntrl=     0 DoSepK=T KAlg= 1 I1Cent= 0 FoldK=F
 E= -2753.87424036006     Delta-E=       -0.000000000299 Rises=F Damp=F
 DIIS: error= 7.49D-07 at cycle   4 NSaved=   4.
 NSaved= 4 IEnMin= 4 EnMin= -2753.87424036006     IErMin= 4 ErrMin= 7.49D-07
 ErrMax= 7.49D-07 EMaxC= 1.00D-01 BMatC= 3.89D-11 BMatP= 2.01D-10
 IDIUse=1 WtCom= 1.00D+00 WtEn= 0.00D+00
 Coeff-Com:  0.268D-03-0.538D-01 0.329D+00 0.725D+00
 Coeff:      0.268D-03-0.538D-01 0.329D+00 0.725D+00
 Gap=     0.498 Goal=   None    Shift=    0.000
 RMSDP=3.22D-08 MaxDP=1.02D-06 DE=-2.99D-10 OVMax= 2.11D-06

 Cycle   5  Pass 1  IDiag  1:
 RMSU=  1.40D-08    CP:  1.00D+00  1.08D+00  1.25D+00  9.93D-01
 FoFJK:  IHMeth= 1 ICntrl=     0 DoSepK=T KAlg= 1 I1Cent= 0 FoldK=F
 E= -2753.87424036009     Delta-E=       -0.000000000036 Rises=F Damp=F
 DIIS: error= 4.29D-08 at cycle   5 NSaved=   5.
 NSaved= 5 IEnMin= 5 EnMin= -2753.87424036009     IErMin= 5 ErrMin= 4.29D-08
 ErrMax= 4.29D-08 EMaxC= 1.00D-01 BMatC= 2.45D-13 BMatP= 3.89D-11
 IDIUse=1 WtCom= 1.00D+00 WtEn= 0.00D+00
 Coeff-Com:  0.860D-05 0.104D-02-0.200D-01 0.507D-02 0.101D+01
 Coeff:      0.860D-05 0.104D-02-0.200D-01 0.507D-02 0.101D+01
 Gap=     0.498 Goal=   None    Shift=    0.000
 RMSDP=1.08D-08 MaxDP=4.55D-07 DE=-3.64D-11 OVMax= 4.09D-07

 Cycle   6  Pass 1  IDiag  1:
 RMSU=  1.46D-09    CP:  1.00D+00  1.08D+00  1.26D+00  1.05D+00  1.15D+00
 FoFJK:  IHMeth= 1 ICntrl=     0 DoSepK=T KAlg= 1 I1Cent= 0 FoldK=F
 E= -2753.87424036010     Delta-E=       -0.000000000005 Rises=F Damp=F
 DIIS: error= 1.81D-08 at cycle   6 NSaved=   6.
 NSaved= 6 IEnMin= 6 EnMin= -2753.87424036010     IErMin= 6 ErrMin= 1.81D-08
 ErrMax= 1.81D-08 EMaxC= 1.00D-01 BMatC= 3.82D-14 BMatP= 2.45D-13
 IDIUse=1 WtCom= 1.00D+00 WtEn= 0.00D+00
 Coeff-Com: -0.125D-04 0.338D-02-0.247D-01-0.373D-01 0.300D+00 0.759D+00
 Coeff:     -0.125D-04 0.338D-02-0.247D-01-0.373D-01 0.300D+00 0.759D+00
 Gap=     0.498 Goal=   None    Shift=    0.000
 RMSDP=1.76D-09 MaxDP=7.29D-08 DE=-4.55D-12 OVMax= 8.64D-08

 SCF Done:  E(RwB97XD) =  -2753.87424036     A.U. after    6 cycles
             Convg  =    0.1764D-08             -V/T =  2.0013
 KE= 2.750294767799D+03 PE=-6.580235438744D+03 EE= 1.076066430584D+03
 Leave Link  502 at Sat May  9 15:26:49 2020, MaxMem= 1073741824 cpu:      89.5
 (Enter /home/matheus/.gaussian/g09/l122.exe)
 Restoring MOs from calculation   4 to rwf.
 Counterpoise: doing MCBS calculation for fragment   1
 Leave Link  122 at Sat May  9 15:26:49 2020, MaxMem= 1073741824 cpu:       0.0
 (Enter /home/matheus/.gaussian/g09/l301.exe)
 Basis read from rwf:  (5D, 7F)
 No pseudopotential information found on rwf file.
 There are    46 symmetry adapted basis functions of A1  symmetry.
 There are    23 symmetry adapted basis functions of A2  symmetry.
 There are    23 symmetry adapted basis functions of B1  symmetry.
 There are    46 symmetry adapted basis functions of B2  symmetry.
 Integral buffers will be    131072 words long.
 Raffenetti 2 integral format.
 Two-electron integral symmetry is turned on.
   138 basis functions,   198 primitive gaussians,   160 cartesian basis functions
     9 alpha electrons        9 beta electrons
       nuclear repulsion energy        36.6667523957 Hartrees.
 IExCor= 4639 DFT=T Ex+Corr=wB97XD ExCW=0 ScaHFX=  1.000000
 ScaDFX=  1.000000  1.000000  1.000000  1.000000 ScalE2=  1.000000  1.000000
 IRadAn=      5 IRanWt=     -1 IRanGd=            0 ICorTp=0
  HFx wShort=  0.000000 wLong=  0.200000 cFull=  0.222036 cShort=  0.000000 cLong=  0.777964
  DFx wShort=  0.000000 wLong=  0.200000 cFull=  0.000000 cShort=  0.000000 cLong=  1.000000
 NAtoms=    5 NActive=    4 NUniq=    2 SFac= 4.00D+00 NAtFMM=   60 NAOKFM=F Big=F
 R6Disp: Dispersion energy =        -0.0002180925 Hartrees.
 Nuclear repulsion after empirical dispersion term =       36.6665343032 Hartrees.
 No density basis found on file   718.
 Leave Link  301 at Sat May  9 15:26:49 2020, MaxMem= 1073741824 cpu:       0.3
 (Enter /home/matheus/.gaussian/g09/l302.exe)
 NPDir=0 NMtPBC=     1 NCelOv=     1 NCel=       1 NClECP=     1 NCelD=      1
         NCelK=      1 NCelE2=     1 NClLst=     1 CellRange=     0.0.
 One-electron integrals computed using PRISM.
 One-electron integral symmetry used in STVInt
 NBasis=   138 RedAO= T  NBF=    46    23    23    46
 NBsUse=   138 1.00D-06 NBFU=    46    23    23    46
 Precomputing XC quadrature grid using
 IXCGrd= 2 IRadAn=           5 IRanWt=          -1 IRanGd=           0 AccXCQ= 0.00D+00.
 NRdTot=     344 NPtTot=       92556 NUsed=       95038 NTot=       95070
 NSgBfM=   160   160   160   160   160 NAtAll=     4     4.
 Leave Link  302 at Sat May  9 15:26:49 2020, MaxMem= 1073741824 cpu:       0.8
 (Enter /home/matheus/.gaussian/g09/l303.exe)
 DipDrv:  MaxL=1.
 Leave Link  303 at Sat May  9 15:26:49 2020, MaxMem= 1073741824 cpu:       0.2
 (Enter /home/matheus/.gaussian/g09/l401.exe)
 Initial guess read from the read-write file.
 Guess basis will be translated and rotated to current coordinates.
 Initial guess orbital symmetries:
       Occupied  (A1) (B2) (A1) (B2) (A1) (A1) (B1) (B2) (A2)
       Virtual   (A1) (B2) (B2) (A1) (B2) (B1) (A1) (B2) (A1) (A2)
                 (B1) (A1) (B2) (A1) (A2) (B2) (A1) (B2) (B2) (A1)
                 (B1) (A1) (B2) (B1) (A1) (A2) (A2) (B1) (B2) (A1)
                 (B2) (A1) (A1) (B1) (A1) (B1) (B2) (A2) (B2) (B2)
                 (A1) (A2) (B2) (A2) (B2) (A1) (B1) (A1) (B2) (A2)
                 (A1) (B2) (B1) (A1) (B2) (A1) (B1) (A1) (A2) (B2)
                 (B1) (A1) (A2) (A1) (B2) (B2) (A1) (B1) (B2) (B1)
                 (B2) (A2) (A2) (A1) (A1) (B2) (B2) (A2) (B2) (A1)
                 (B2) (B1) (B1) (A1) (A2) (B1) (A2) (A1) (B2) (A2)
                 (A1) (A1) (B2) (B2) (A1) (A1) (B1) (B2) (A2) (B2)
                 (B2) (A1) (B1) (A1) (B2) (B1) (A1) (A2) (B2) (A1)
                 (B1) (A1) (A2) (B1) (B1) (B2) (A2) (A2) (A1) (B2)
                 (A1) (A2) (B2) (B2) (A1) (B2) (B2) (A1) (B2)
 The electronic state of the initial guess is 1-A1.
 Generating alternative initial guess.
 Harris functional with IExCor= 4639 diagonalized for initial guess.
 ExpMin= 2.53D-02 ExpMax= 1.53D+04 ExpMxC= 5.22D+02 IAcc=3 IRadAn=         5 AccDes= 0.00D+00
 HarFok:  IExCor= 4639 AccDes= 0.00D+00 IRadAn=         5 IDoV= 1
 ScaDFX=  1.000000  1.000000  1.000000  1.000000
 FoFCou: FMM=F IPFlag=           0 FMFlag=      100000 FMFlg1=           0
         NFxFlg=           0 DoJE=T BraDBF=F KetDBF=T FulRan=T
         Omega=  0.000000  0.000000  1.000000  0.000000  0.000000 ICntrl=     500 IOpCl=  0
         NMat0=    1 NMatS0=    1 NMatT0=    0 NMatD0=    1 NMtDS0=    0 NMtDT0=    0
         I1Cent=           4 NGrid=           0.
 Petite list used in FoFCou.
 Harris En= -146.290231590792    
 Leave Link  401 at Sat May  9 15:26:49 2020, MaxMem= 1073741824 cpu:       1.6
 (Enter /home/matheus/.gaussian/g09/l502.exe)
 Closed shell SCF:
 Requested convergence on RMS density matrix=1.00D-08 within 128 cycles.
 Requested convergence on MAX density matrix=1.00D-06.
 Requested convergence on             energy=1.00D-06.
 No special actions if energy rises.
 Using DIIS extrapolation, IDIIS=  1040.
 Integral symmetry usage will be decided dynamically.
        94980 words used for storage of precomputed grid.
 IEnd=      192636 IEndB=      192636 NGot=  1073741824 MDV=  1073591589
 LenX=  1073591589 LenY=  1073565548
 Fock matrices will be formed incrementally for  20 cycles.

 Cycle   1  Pass 1  IDiag  1:
 FoFJK:  IHMeth= 1 ICntrl=     0 DoSepK=T KAlg= 1 I1Cent= 0 FoldK=F
 FoFCou: FMM=F IPFlag=           0 FMFlag=      100000 FMFlg1=           0
         NFxFlg=           0 DoJE=T BraDBF=F KetDBF=F FulRan=T
         Omega=  0.000000  0.000000  1.000000  0.000000  0.000000 ICntrl=     500 IOpCl=  0
         NMat0=    1 NMatS0=    1 NMatT0=    0 NMatD0=    1 NMtDS0=    0 NMtDT0=    0
         I1Cent=           0 NGrid=           0.
 Petite list used in FoFCou.
 E= -151.553422812349    
 DIIS: error= 1.53D-09 at cycle   1 NSaved=   1.
 NSaved= 1 IEnMin= 1 EnMin= -151.553422812349     IErMin= 1 ErrMin= 1.53D-09
 ErrMax= 1.53D-09 EMaxC= 1.00D-01 BMatC= 2.31D-16 BMatP= 2.31D-16
 IDIUse=1 WtCom= 1.00D+00 WtEn= 0.00D+00
 Coeff-Com:  0.100D+01
 Coeff:      0.100D+01
 Gap=     0.378 Goal=   None    Shift=    0.000
 RMSDP=1.33D-10 MaxDP=4.08D-09              OVMax= 5.59D-09

 SCF Done:  E(RwB97XD) =  -151.553422812     A.U. after    1 cycles
             Convg  =    0.1331D-09             -V/T =  2.0057
 KE= 1.507003152589D+02 PE=-4.318041704207D+02 EE= 9.288389804620D+01
 Leave Link  502 at Sat May  9 15:26:50 2020, MaxMem= 1073741824 cpu:       6.7
 (Enter /home/matheus/.gaussian/g09/l122.exe)
 Restoring MOs from calculation   5 to rwf.
 Counterpoise: doing MCBS calculation for fragment   2
 Leave Link  122 at Sat May  9 15:26:50 2020, MaxMem= 1073741824 cpu:       0.0
 (Enter /home/matheus/.gaussian/g09/l301.exe)
 Basis read from rwf:  (5D, 7F)
 No pseudopotential information found on rwf file.
 There are    25 symmetry adapted basis functions of A1  symmetry.
 There are     6 symmetry adapted basis functions of A2  symmetry.
 There are    14 symmetry adapted basis functions of B1  symmetry.
 There are    14 symmetry adapted basis functions of B2  symmetry.
 Integral buffers will be    131072 words long.
 Raffenetti 2 integral format.
 Two-electron integral symmetry is turned on.
    59 basis functions,   217 primitive gaussians,    69 cartesian basis functions
    18 alpha electrons       18 beta electrons
       nuclear repulsion energy         0.0000000000 Hartrees.
 IExCor= 4639 DFT=T Ex+Corr=wB97XD ExCW=0 ScaHFX=  1.000000
 ScaDFX=  1.000000  1.000000  1.000000  1.000000 ScalE2=  1.000000  1.000000
 IRadAn=      5 IRanWt=     -1 IRanGd=            0 ICorTp=0
  HFx wShort=  0.000000 wLong=  0.200000 cFull=  0.222036 cShort=  0.000000 cLong=  0.777964
  DFx wShort=  0.000000 wLong=  0.200000 cFull=  0.000000 cShort=  0.000000 cLong=  1.000000
 NAtoms=    5 NActive=    1 NUniq=    1 SFac= 1.00D+00 NAtFMM=   60 NAOKFM=F Big=F
 R6Disp: Dispersion energy =         0.0000000000 Hartrees.
 Nuclear repulsion after empirical dispersion term =        0.0000000000 Hartrees.
 No density basis found on file   718.
 Leave Link  301 at Sat May  9 15:26:50 2020, MaxMem= 1073741824 cpu:       0.2
 (Enter /home/matheus/.gaussian/g09/l302.exe)
 NPDir=0 NMtPBC=     1 NCelOv=     1 NCel=       1 NClECP=     1 NCelD=      1
         NCelK=      1 NCelE2=     1 NClLst=     1 CellRange=     0.0.
 One-electron integrals computed using PRISM.
 One-electron integral symmetry used in STVInt
 NBasis=    59 RedAO= T  NBF=    25     6    14    14
 NBsUse=    59 1.00D-06 NBFU=    25     6    14    14
 Precomputing XC quadrature grid using
 IXCGrd= 2 IRadAn=           5 IRanWt=          -1 IRanGd=           0 AccXCQ= 0.00D+00.
 NRdTot=      81 NPtTot=       30352 NUsed=       30981 NTot=       31013
 NSgBfM=    69    69    69    69    69 NAtAll=     1     1.
 Leave Link  302 at Sat May  9 15:26:50 2020, MaxMem= 1073741824 cpu:       0.7
 (Enter /home/matheus/.gaussian/g09/l303.exe)
 DipDrv:  MaxL=1.
 Leave Link  303 at Sat May  9 15:26:50 2020, MaxMem= 1073741824 cpu:       0.2
 (Enter /home/matheus/.gaussian/g09/l401.exe)
 Initial guess read from the read-write file.
 Guess basis will be translated and rotated to current coordinates.
 Initial guess orbital symmetries:
       Occupied  (A1) (A1) (B2) (B1) (A1) (A1) (A1) (B2) (B1) (A2)
                 (B2) (B1) (A1) (A1) (A1) (B1) (A1) (B2)
       Virtual   (A1) (A1) (B1) (B2) (B1) (A2) (B2) (A1) (A1) (B1)
                 (A1) (B2) (A1) (B1) (A2) (B2) (A1) (A1) (B2) (A1)
                 (B1) (A2) (A1) (B1) (B2) (B1) (A1) (B2) (B2) (B1)
                 (A2) (A1) (A1) (A1) (B1) (B2) (A2) (B1) (B2) (A1)
                 (A1)
 The electronic state of the initial guess is 1-A1.
 Generating alternative initial guess.
 Harris functional with IExCor= 4639 diagonalized for initial guess.
 ExpMin= 4.00D-02 ExpMax= 1.17D+07 ExpMxC= 1.33D+04 IAcc=3 IRadAn=         5 AccDes= 0.00D+00
 HarFok:  IExCor= 4639 AccDes= 0.00D+00 IRadAn=         5 IDoV= 1
 ScaDFX=  1.000000  1.000000  1.000000  1.000000
 FoFCou: FMM=F IPFlag=           0 FMFlag=      100000 FMFlg1=           0
         NFxFlg=           0 DoJE=T BraDBF=F KetDBF=T FulRan=T
         Omega=  0.000000  0.000000  1.000000  0.000000  0.000000 ICntrl=     500 IOpCl=  0
         NMat0=    1 NMatS0=    1 NMatT0=    0 NMatD0=    1 NMtDS0=    0 NMtDT0=    0
         I1Cent=           4 NGrid=           0.
 Petite list used in FoFCou.
 Harris En= -2730.20235208354    
 Leave Link  401 at Sat May  9 15:26:50 2020, MaxMem= 1073741824 cpu:       0.9
 (Enter /home/matheus/.gaussian/g09/l502.exe)
 Closed shell SCF:
 Requested convergence on RMS density matrix=1.00D-08 within 128 cycles.
 Requested convergence on MAX density matrix=1.00D-06.
 Requested convergence on             energy=1.00D-06.
 No special actions if energy rises.
 Using DIIS extrapolation, IDIIS=  1040.
 Integral symmetry usage will be decided dynamically.
        30923 words used for storage of precomputed grid.
 IEnd=       64522 IEndB=       64522 NGot=  1073741824 MDV=  1073698773
 LenX=  1073698773 LenY=  1073693571
 Fock matrices will be formed incrementally for  20 cycles.

 Cycle   1  Pass 1  IDiag  1:
 FoFJK:  IHMeth= 1 ICntrl=     0 DoSepK=T KAlg= 1 I1Cent= 0 FoldK=F
 FoFCou: FMM=F IPFlag=           0 FMFlag=      100000 FMFlg1=           0
         NFxFlg=           0 DoJE=T BraDBF=F KetDBF=F FulRan=T
         Omega=  0.000000  0.000000  1.000000  0.000000  0.000000 ICntrl=     500 IOpCl=  0
         NMat0=    1 NMatS0=    1 NMatT0=    0 NMatD0=    1 NMtDS0=    0 NMtDT0=    0
         I1Cent=           0 NGrid=           0.
 Petite list used in FoFCou.
 E= -2753.87421986325    
 DIIS: error= 1.98D-13 at cycle   1 NSaved=   1.
 NSaved= 1 IEnMin= 1 EnMin= -2753.87421986325     IErMin= 1 ErrMin= 1.98D-13
 ErrMax= 1.98D-13 EMaxC= 1.00D-01 BMatC= 1.92D-24 BMatP= 1.92D-24
 IDIUse=1 WtCom= 1.00D+00 WtEn= 0.00D+00
 Coeff-Com:  0.100D+01
 Coeff:      0.100D+01
 Gap=     0.562 Goal=   None    Shift=    0.000
 RMSDP=1.50D-14 MaxDP=2.88D-13              OVMax= 1.36D-13

 SCF Done:  E(RwB97XD) =  -2753.87421986     A.U. after    1 cycles
             Convg  =    0.1498D-13             -V/T =  2.0013
 KE= 2.750300381543D+03 PE=-6.580241205809D+03 EE= 1.076066604402D+03
 Leave Link  502 at Sat May  9 15:26:52 2020, MaxMem= 1073741824 cpu:      14.6
 (Enter /home/matheus/.gaussian/g09/l122.exe)
 Restoring MOs from calculation   1 to rwf.
 Counterpoise: corrected energy =   -2905.428110672095
 Counterpoise: BSSE energy =       0.000024930654
 Leave Link  122 at Sat May  9 15:26:52 2020, MaxMem= 1073741824 cpu:       0.0
 (Enter /home/matheus/.gaussian/g09/l108.exe)
 Scan completed.

 Summary of the potential surface scan:
   N      R1          SCF    
 ----  ---------  -----------
    1     3.0000  -2753.87422
    2     3.1000  -2753.87422
    3     3.2000  -2753.87422
    4     3.3000  -2753.87422
    5     3.4000  -2753.87422
    6     3.5000  -2753.87422
    7     3.6000  -2753.87422
    8     3.7000  -2753.87422
    9     3.8000  -2753.87422
   10     3.9000  -2753.87422
   11     4.0000  -2753.87422
   12     4.1000  -2753.87422
   13     4.2000  -2753.87422
   14     4.3000  -2753.87422
   15     4.4000  -2753.87422
   16     4.5000  -2753.87422
   17     4.6000  -2753.87422
   18     4.7000  -2753.87422
   19     4.8000  -2753.87422
   20     4.9000  -2753.87422
   21     5.0000  -2753.87422
 ----  ---------  -----------
  
 Leave Link  108 at Sat May  9 15:26:52 2020, MaxMem= 1073741824 cpu:       0.0
 (Enter /home/matheus/.gaussian/g09/l9999.exe)
 1\1\GINC-REDGIANT\Scan\RwB97XD\Aug-CC-pVTZ\H2Kr1O2\MATHEUS\09-May-2020
 \1\\#p wb97xd/aug-cc-PVTz int=ultrafine counterpoise=2 Scan\\TCC\\0,1\
 O,0,0.,0.,0.725\O,0,0.,0.,-0.725\H,0,0.,0.9187205947,1.0235104166\H,0,
 0.,0.9187205947,-1.0235104166\Kr,0,0.,R1,0.\\R1=3.,s,20,0.1\\Version=E
 M64L-G09RevC.01\State=1-A1\HF=-2753.8742199,-2753.8742199,-2753.874219
 9,-2753.8742199,-2753.8742199,-2753.8742199,-2753.8742199,-2753.874219
 9,-2753.8742199,-2753.8742199,-2753.8742199,-2753.8742199,-2753.874219
 9,-2753.8742199,-2753.8742199,-2753.8742199,-2753.8742199,-2753.874219
 9,-2753.8742199,-2753.8742199,-2753.8742199\RMSD=9.333e-09,1.904e-10,6
 .308e-11,4.168e-11,2.474e-11,1.557e-11,9.641e-12,6.007e-12,3.732e-12,2
 .321e-12,1.439e-12,8.972e-13,5.584e-13,3.461e-13,2.130e-13,1.350e-13,8
 .434e-14,5.587e-14,3.076e-14,1.878e-14,1.498e-14\PG=C02V [C2(Kr1),SGV(
 H2O2)]\\@


 AND ALL THIS SCIENCE I DON'T UNDERSTAND
 IT'S JUST MY JOB FIVE DAYS A WEEK

                           -- ELTON JOHN, "ROCKET MAN"
 Job cpu time:  0 days  2 hours 18 minutes 30.0 seconds.
 File lengths (MBytes):  RWF=     33 Int=      0 D2E=      0 Chk=      8 Scr=      1
 Normal termination of Gaussian 09 at Sat May  9 15:26:52 2020.
