 Entering Gaussian System, Link 0=g09
 Input=/home/matheus/.tcc/Inputs-wb97xd/H2O2-Kr_13.com
 Output=/home/matheus/.tcc/Logs-wb97xd/H2O2-Kr_13.log
 Initial command:
 /home/matheus/.gaussian/g09/l1.exe /home/matheus/.gaussian/g09/scratch/Gau-14338.inp -scrdir=/home/matheus/.gaussian/g09/scratch/
 Entering Link 1 = /home/matheus/.gaussian/g09/l1.exe PID=     14341.
  
 Copyright (c) 1988,1990,1992,1993,1995,1998,2003,2009,2011,
            Gaussian, Inc.  All Rights Reserved.
  
 This is part of the Gaussian(R) 09 program.  It is based on
 the Gaussian(R) 03 system (copyright 2003, Gaussian, Inc.),
 the Gaussian(R) 98 system (copyright 1998, Gaussian, Inc.),
 the Gaussian(R) 94 system (copyright 1995, Gaussian, Inc.),
 the Gaussian 92(TM) system (copyright 1992, Gaussian, Inc.),
 the Gaussian 90(TM) system (copyright 1990, Gaussian, Inc.),
 the Gaussian 88(TM) system (copyright 1988, Gaussian, Inc.),
 the Gaussian 86(TM) system (copyright 1986, Carnegie Mellon
 University), and the Gaussian 82(TM) system (copyright 1983,
 Carnegie Mellon University). Gaussian is a federally registered
 trademark of Gaussian, Inc.
  
 This software contains proprietary and confidential information,
 including trade secrets, belonging to Gaussian, Inc.
  
 This software is provided under written license and may be
 used, copied, transmitted, or stored only in accord with that
 written license.
  
 The following legend is applicable only to US Government
 contracts under FAR:
  
                    RESTRICTED RIGHTS LEGEND
  
 Use, reproduction and disclosure by the US Government is
 subject to restrictions as set forth in subparagraphs (a)
 and (c) of the Commercial Computer Software - Restricted
 Rights clause in FAR 52.227-19.
  
 Gaussian, Inc.
 340 Quinnipiac St., Bldg. 40, Wallingford CT 06492
  
  
 ---------------------------------------------------------------
 Warning -- This program may not be used in any manner that
 competes with the business of Gaussian, Inc. or will provide
 assistance to any competitor of Gaussian, Inc.  The licensee
 of this program is prohibited from giving any competitor of
 Gaussian, Inc. access to this program.  By using this program,
 the user acknowledges that Gaussian, Inc. is engaged in the
 business of creating and licensing software in the field of
 computational chemistry and represents and warrants to the
 licensee that it is not a competitor of Gaussian, Inc. and that
 it will not use this program in any manner prohibited above.
 ---------------------------------------------------------------
  

 Cite this work as:
 Gaussian 09, Revision C.01,
 M. J. Frisch, G. W. Trucks, H. B. Schlegel, G. E. Scuseria, 
 M. A. Robb, J. R. Cheeseman, G. Scalmani, V. Barone, B. Mennucci, 
 G. A. Petersson, H. Nakatsuji, M. Caricato, X. Li, H. P. Hratchian, 
 A. F. Izmaylov, J. Bloino, G. Zheng, J. L. Sonnenberg, M. Hada, 
 M. Ehara, K. Toyota, R. Fukuda, J. Hasegawa, M. Ishida, T. Nakajima, 
 Y. Honda, O. Kitao, H. Nakai, T. Vreven, J. A. Montgomery, Jr., 
 J. E. Peralta, F. Ogliaro, M. Bearpark, J. J. Heyd, E. Brothers, 
 K. N. Kudin, V. N. Staroverov, T. Keith, R. Kobayashi, J. Normand, 
 K. Raghavachari, A. Rendell, J. C. Burant, S. S. Iyengar, J. Tomasi, 
 M. Cossi, N. Rega, J. M. Millam, M. Klene, J. E. Knox, J. B. Cross, 
 V. Bakken, C. Adamo, J. Jaramillo, R. Gomperts, R. E. Stratmann, 
 O. Yazyev, A. J. Austin, R. Cammi, C. Pomelli, J. W. Ochterski, 
 R. L. Martin, K. Morokuma, V. G. Zakrzewski, G. A. Voth, 
 P. Salvador, J. J. Dannenberg, S. Dapprich, A. D. Daniels, 
 O. Farkas, J. B. Foresman, J. V. Ortiz, J. Cioslowski, 
 and D. J. Fox, Gaussian, Inc., Wallingford CT, 2010.
 
 ******************************************
 Gaussian 09:  EM64L-G09RevC.01 23-Sep-2011
                 3-May-2020 
 ******************************************
 %mem=8GB
 %nproc=8
 Will use up to    8 processors via shared memory.
 ----------------------------------------------------------------------
 #p wb97xd/aug-cc-PVTz iop(3/107=0250000000) iop(3/108=0250000000) int=
 ultrafine counterpoise=2 Scan
 ----------------------------------------------------------------------
 1/38=1,60=1,62=2/1,8;
 2/12=2,17=6,18=5,29=3,40=1/2;
 1/38=1,53=5172,62=2/22;
 3/5=16,6=1,7=10,11=2,16=1,25=1,30=1,74=-58,75=-5,107=250000000,108=250000000/1,2,3;
 4//1;
 5/5=2,38=5/2;
 6/7=2,8=2,9=2,10=2,18=1,28=1/1;
 1/53=4052,62=2,63=1/22;
 3/5=7,6=11,7=10,11=2,16=1,25=1,30=1,74=-58,75=-5,82=7,107=250000000,108=250000000/1,2,3;
 4//1;
 5/5=2,38=5/2;
 6/7=2,8=2,9=2,10=2,18=1,28=1/1;
 1/53=3042,62=2,63=2/22;
 3/5=7,6=11,7=10,11=2,16=1,25=1,30=1,74=-58,75=-5,82=7,107=250000000,108=250000000/1,2,3;
 4//1;
 5/5=2,38=5/2;
 6/7=2,8=2,9=2,10=2,18=1,28=1/1;
 1/53=2032,62=2,63=3/22;
 3/5=7,6=11,7=10,11=2,16=1,25=1,30=1,74=-58,75=-5,82=7,107=250000000,108=250000000/1,2,3;
 4//1;
 5/5=2,38=5/2;
 6/7=2,8=2,9=2,10=2,18=1,28=1/1;
 1/53=1022,62=2,63=4/22;
 3/5=7,6=11,7=10,11=2,16=1,25=1,30=1,74=-58,75=-5,82=7,107=250000000,108=250000000/1,2,3;
 4//1;
 5/5=2,38=5/2;
 6/7=2,8=2,9=2,10=2,18=1,28=1/1;
 1/53=5014,62=2,63=5/22;
 1/60=1,62=2/8(1);
 99/9=1/99;
 2/29=3/2;
 1/53=5173,62=2/22;
 3/5=7,6=11,7=10,11=2,16=1,25=1,30=1,74=-58,75=-5,82=7,107=250000000,108=250000000/1,2,3;
 4/5=5,16=3/1;
 5/5=2,38=5/2;
 1/53=4053,62=2,63=1/22;
 3/5=7,6=11,7=10,11=2,16=1,25=1,30=1,74=-58,75=-5,82=7,107=250000000,108=250000000/1,2,3;
 4/5=5,16=3/1;
 5/5=2,38=5/2;
 1/53=3043,62=2,63=2/22;
 3/5=7,6=11,7=10,11=2,16=1,25=1,30=1,74=-58,75=-5,82=7,107=250000000,108=250000000/1,2,3;
 4/5=5,16=3/1;
 5/5=2,38=5/2;
 1/53=2033,62=2,63=3/22;
 3/5=7,6=11,7=10,11=2,16=1,25=1,30=1,74=-58,75=-5,82=7,107=250000000,108=250000000/1,2,3;
 4/5=5,16=3/1;
 5/5=2,38=5/2;
 1/53=1024,62=2,63=4/22;
 3/5=7,6=11,7=10,11=2,16=1,25=1,30=1,74=-58,75=-5,82=7,107=250000000,108=250000000/1,2,3;
 4/5=5,16=3/1;
 5/5=2,38=5/2;
 1/53=5014,62=2,63=5/22;
 1/60=1,62=2/8(-22);
 99/9=1/99;
 Leave Link    1 at Sun May  3 14:38:26 2020, MaxMem= 1073741824 cpu:       0.2
 (Enter /home/matheus/.gaussian/g09/l101.exe)
 ---
 TCC
 ---
 Charge =  0 Multiplicity = 1 in supermolecule
 Charge =  0 Multiplicity = 1 in fragment  1.
 Charge =  0 Multiplicity = 1 in fragment  2.
 Symbolic Z-Matrix:
 O(Fragment=1)         0.        0.        0.725 
 O(Fragment=1)         0.        0.       -0.725 
 H(Fragment=1)         0.70378  -0.59054   1.02351 
 H(Fragment=1)         0.        0.91872  -1.02351 
 Kr(Fragment=2)        0.       R1        0. 
       Variables:
  R1                    3.     Scan 20    0.1    
 
 NAtoms=      5 NQM=        0 NQMF=       0 NMMI=      5 NMMIF=      0
                NMic=       0 NMicF=      0.
                    Isotopes and Nuclear Properties:
 (Nuclear quadrupole moments (NQMom) in fm**2, nuclear magnetic moments (NMagM)
  in nuclear magnetons)

  Atom         1           2           3           4           5
 IAtWgt=          16          16           1           1          84
 AtmWgt=  15.9949146  15.9949146   1.0078250   1.0078250  83.9115064
 NucSpn=           0           0           1           1           0
 AtZEff=   0.0000000   0.0000000   0.0000000   0.0000000   0.0000000
 NQMom=    0.0000000   0.0000000   0.0000000   0.0000000   0.0000000
 NMagM=    0.0000000   0.0000000   2.7928460   2.7928460   0.0000000
 Leave Link  101 at Sun May  3 14:38:26 2020, MaxMem= 1073741824 cpu:       0.4
 (Enter /home/matheus/.gaussian/g09/l108.exe)
 Scan the potential surface.
 Variable   Value     No. Steps Step-Size
 -------- ----------- --------- ---------
     1       3.000000      20      0.1000
 A total of     21 points will be computed.
 Leave Link  108 at Sun May  3 14:38:26 2020, MaxMem= 1073741824 cpu:       0.0
 (Enter /home/matheus/.gaussian/g09/l202.exe)
 ---------------------------------------------------------------------------------------------------
                            Z-MATRIX (ANGSTROMS AND DEGREES)
   CD    Cent   Atom    N1       Length/X        N2       Alpha/Y        N3        Beta/Z          J
 ---------------------------------------------------------------------------------------------------
      1      1  O        0   0.000000          0.000000          0.725000
      2      2  O        0   0.000000          0.000000         -0.725000
      3      3  H        0   0.703781         -0.590542          1.023510
      4      4  H        0   0.000000          0.918721         -1.023510
      5      5  Kr       0   0.000000          3.000000          0.000000
 ---------------------------------------------------------------------------------------------------
                         Z-Matrix orientation:                         
 ---------------------------------------------------------------------
 Center     Atomic      Atomic             Coordinates (Angstroms)
 Number     Number       Type             X           Y           Z
 ---------------------------------------------------------------------
      1          8           0        0.000000    0.000000    0.725000
      2          8           0        0.000000    0.000000   -0.725000
      3          1           0        0.703781   -0.590542    1.023510
      4          1           0        0.000000    0.918721   -1.023510
      5         36           0        0.000000    3.000000    0.000000
 ---------------------------------------------------------------------
                    Distance matrix (angstroms):
                    1          2          3          4          5
     1  O    0.000000
     2  O    1.450000   0.000000
     3  H    0.966000   1.975180   0.000000
     4  H    1.975180   0.966000   2.638840   0.000000
     5  Kr   3.086361   3.086361   3.799326   2.319331   0.000000
 Stoichiometry    H2KrO2
 Framework group  C1[X(H2KrO2)]
 Deg. of freedom     9
 Full point group                 C1      NOp   1
 Largest Abelian subgroup         C1      NOp   1
 Largest concise Abelian subgroup C1      NOp   1
                         Standard orientation:                         
 ---------------------------------------------------------------------
 Center     Atomic      Atomic             Coordinates (Angstroms)
 Number     Number       Type             X           Y           Z
 ---------------------------------------------------------------------
      1          8           0        2.016888   -0.687971   -0.094863
      2          8           0        1.993721    0.758416    0.004771
      3          1           0        2.624080   -1.023798    0.577220
      4          1           0        1.070483    1.040460    0.039958
      5         36           0       -0.993873   -0.016117    0.002877
 ---------------------------------------------------------------------
 Rotational constants (GHZ):     26.0617959      2.3176349      2.1364645
 Leave Link  202 at Sun May  3 14:38:26 2020, MaxMem= 1073741824 cpu:       0.0
 (Enter /home/matheus/.gaussian/g09/l122.exe)
 Leave Link  122 at Sun May  3 14:38:26 2020, MaxMem= 1073741824 cpu:       0.0
 (Enter /home/matheus/.gaussian/g09/l301.exe)
 Standard basis: Aug-CC-pVTZ (5D, 7F)
 Ernie: Thresh=  0.10000D-02 Tol=  0.10000D-05 Strict=F.
 Ernie:  38 primitive shells out of 205 were deleted.
 There are   197 symmetry adapted basis functions of A   symmetry.
 Integral buffers will be    131072 words long.
 Raffenetti 2 integral format.
 Two-electron integral symmetry is turned on.
   197 basis functions,   415 primitive gaussians,   229 cartesian basis functions
    27 alpha electrons       27 beta electrons
       nuclear repulsion energy       148.5957046553 Hartrees.
 IExCor= 4639 DFT=T Ex+Corr=wB97XD ExCW=0 ScaHFX=  1.000000
 ScaDFX=  1.000000  1.000000  1.000000  1.000000 ScalE2=  1.000000  1.000000
 IRadAn=      5 IRanWt=     -1 IRanGd=            0 ICorTp=0
  HFx wShort=  0.000000 wLong=  0.250000 cFull=  0.222036 cShort=  0.000000 cLong=  0.777964
  DFx wShort=  0.000000 wLong=  0.250000 cFull=  0.000000 cShort=  0.000000 cLong=  1.000000
 NAtoms=    5 NActive=    5 NUniq=    5 SFac= 1.00D+00 NAtFMM=   60 NAOKFM=F Big=F
 R6Disp: Dispersion energy =        -0.0008261946 Hartrees.
 Nuclear repulsion after empirical dispersion term =      148.5948784608 Hartrees.
 Leave Link  301 at Sun May  3 14:38:26 2020, MaxMem= 1073741824 cpu:       0.2
 (Enter /home/matheus/.gaussian/g09/l302.exe)
 NPDir=0 NMtPBC=     1 NCelOv=     1 NCel=       1 NClECP=     1 NCelD=      1
         NCelK=      1 NCelE2=     1 NClLst=     1 CellRange=     0.0.
 One-electron integrals computed using PRISM.
 NBasis=   197 RedAO= T  NBF=   197
 NBsUse=   197 1.00D-06 NBFU=   197
 Precomputing XC quadrature grid using
 IXCGrd= 2 IRadAn=           5 IRanWt=          -1 IRanGd=           0 AccXCQ= 0.00D+00.
 NRdTot=     427 NPtTot=      123512 NUsed=      126579 NTot=      126611
 NSgBfM=   229   229   229   229   229 NAtAll=     5     5.
 Leave Link  302 at Sun May  3 14:38:27 2020, MaxMem= 1073741824 cpu:       1.1
 (Enter /home/matheus/.gaussian/g09/l303.exe)
 DipDrv:  MaxL=1.
 Leave Link  303 at Sun May  3 14:38:27 2020, MaxMem= 1073741824 cpu:       0.2
 (Enter /home/matheus/.gaussian/g09/l401.exe)
 Harris functional with IExCor= 4639 diagonalized for initial guess.
 ExpMin= 2.53D-02 ExpMax= 1.17D+07 ExpMxC= 1.33D+04 IAcc=3 IRadAn=         5 AccDes= 0.00D+00
 HarFok:  IExCor= 4639 AccDes= 0.00D+00 IRadAn=         5 IDoV= 1
 ScaDFX=  1.000000  1.000000  1.000000  1.000000
 FoFCou: FMM=F IPFlag=           0 FMFlag=      100000 FMFlg1=           0
         NFxFlg=           0 DoJE=T BraDBF=F KetDBF=T FulRan=T
         Omega=  0.000000  0.000000  1.000000  0.000000  0.000000 ICntrl=     500 IOpCl=  0
         NMat0=    1 NMatS0=    1 NMatT0=    0 NMatD0=    1 NMtDS0=    0 NMtDT0=    0
         I1Cent=           4 NGrid=           0.
 Petite list used in FoFCou.
 Harris En= -2875.39624311614    
 Initial guess orbital symmetries:
       Occupied  (A) (A) (A) (A) (A) (A) (A) (A) (A) (A) (A) (A)
                 (A) (A) (A) (A) (A) (A) (A) (A) (A) (A) (A) (A)
                 (A) (A) (A)
       Virtual   (A) (A) (A) (A) (A) (A) (A) (A) (A) (A) (A) (A)
                 (A) (A) (A) (A) (A) (A) (A) (A) (A) (A) (A) (A)
                 (A) (A) (A) (A) (A) (A) (A) (A) (A) (A) (A) (A)
                 (A) (A) (A) (A) (A) (A) (A) (A) (A) (A) (A) (A)
                 (A) (A) (A) (A) (A) (A) (A) (A) (A) (A) (A) (A)
                 (A) (A) (A) (A) (A) (A) (A) (A) (A) (A) (A) (A)
                 (A) (A) (A) (A) (A) (A) (A) (A) (A) (A) (A) (A)
                 (A) (A) (A) (A) (A) (A) (A) (A) (A) (A) (A) (A)
                 (A) (A) (A) (A) (A) (A) (A) (A) (A) (A) (A) (A)
                 (A) (A) (A) (A) (A) (A) (A) (A) (A) (A) (A) (A)
                 (A) (A) (A) (A) (A) (A) (A) (A) (A) (A) (A) (A)
                 (A) (A) (A) (A) (A) (A) (A) (A) (A) (A) (A) (A)
                 (A) (A) (A) (A) (A) (A) (A) (A) (A) (A) (A) (A)
                 (A) (A) (A) (A) (A) (A) (A) (A) (A) (A) (A) (A)
                 (A) (A)
 The electronic state of the initial guess is 1-A.
 Leave Link  401 at Sun May  3 14:38:27 2020, MaxMem= 1073741824 cpu:       5.3
 (Enter /home/matheus/.gaussian/g09/l502.exe)
 Closed shell SCF:
 Requested convergence on RMS density matrix=1.00D-08 within 128 cycles.
 Requested convergence on MAX density matrix=1.00D-06.
 Requested convergence on             energy=1.00D-06.
 No special actions if energy rises.
 Using DIIS extrapolation, IDIIS=  1040.
 Integral symmetry usage will be decided dynamically.
       126521 words used for storage of precomputed grid.
 IEnd=      305468 IEndB=      305468 NGot=  1073741824 MDV=  1073505667
 LenX=  1073505667 LenY=  1073452785
 Fock matrices will be formed incrementally for  20 cycles.

 Cycle   1  Pass 1  IDiag  1:
 FoFJK:  IHMeth= 1 ICntrl=     0 DoSepK=T KAlg= 1 I1Cent= 0 FoldK=F
 FoFCou: FMM=F IPFlag=           0 FMFlag=      100000 FMFlg1=           0
         NFxFlg=           0 DoJE=T BraDBF=F KetDBF=F FulRan=T
         Omega=  0.000000  0.000000  1.000000  0.000000  0.000000 ICntrl=     500 IOpCl=  0
         NMat0=    1 NMatS0=    1 NMatT0=    0 NMatD0=    1 NMtDS0=    0 NMtDT0=    0
         I1Cent=           0 NGrid=           0.
 Symmetry not used in FoFCou.
 E= -2904.90261583136    
 DIIS: error= 7.33D-02 at cycle   1 NSaved=   1.
 NSaved= 1 IEnMin= 1 EnMin= -2904.90261583136     IErMin= 1 ErrMin= 7.33D-02
 ErrMax= 7.33D-02 EMaxC= 1.00D-01 BMatC= 2.21D+00 BMatP= 2.21D+00
 IDIUse=3 WtCom= 2.67D-01 WtEn= 7.33D-01
 Coeff-Com:  0.100D+01
 Coeff-En:   0.100D+01
 Coeff:      0.100D+01
 Gap=     0.543 Goal=   None    Shift=    0.000
 GapD=    0.543 DampG=2.000 DampE=0.500 DampFc=1.0000 IDamp=-1.
 RMSDP=6.14D-03 MaxDP=3.66D-01              OVMax= 1.81D-01

 Cycle   2  Pass 1  IDiag  1:
 RMSU=  4.31D-03    CP:  1.03D+00
 FoFJK:  IHMeth= 1 ICntrl=     0 DoSepK=T KAlg= 1 I1Cent= 0 FoldK=F
 E= -2905.22192880569     Delta-E=       -0.319312974327 Rises=F Damp=F
 DIIS: error= 3.53D-02 at cycle   2 NSaved=   2.
 NSaved= 2 IEnMin= 2 EnMin= -2905.22192880569     IErMin= 2 ErrMin= 3.53D-02
 ErrMax= 3.53D-02 EMaxC= 1.00D-01 BMatC= 5.66D-01 BMatP= 2.21D+00
 IDIUse=3 WtCom= 6.47D-01 WtEn= 3.53D-01
 Coeff-Com:  0.328D+00 0.672D+00
 Coeff-En:   0.199D+00 0.801D+00
 Coeff:      0.283D+00 0.717D+00
 Gap=     0.485 Goal=   None    Shift=    0.000
 RMSDP=2.70D-03 MaxDP=1.58D-01 DE=-3.19D-01 OVMax= 7.44D-02

 Cycle   3  Pass 1  IDiag  1:
 RMSU=  5.72D-04    CP:  1.02D+00  5.80D-01
 FoFJK:  IHMeth= 1 ICntrl=     0 DoSepK=T KAlg= 1 I1Cent= 0 FoldK=F
 E= -2905.41617910750     Delta-E=       -0.194250301811 Rises=F Damp=F
 DIIS: error= 6.43D-03 at cycle   3 NSaved=   3.
 NSaved= 3 IEnMin= 3 EnMin= -2905.41617910750     IErMin= 3 ErrMin= 6.43D-03
 ErrMax= 6.43D-03 EMaxC= 1.00D-01 BMatC= 1.99D-02 BMatP= 5.66D-01
 IDIUse=3 WtCom= 9.36D-01 WtEn= 6.43D-02
 Coeff-Com:  0.337D-01 0.194D+00 0.773D+00
 Coeff-En:   0.000D+00 0.000D+00 0.100D+01
 Coeff:      0.315D-01 0.181D+00 0.787D+00
 Gap=     0.436 Goal=   None    Shift=    0.000
 RMSDP=4.88D-04 MaxDP=1.93D-02 DE=-1.94D-01 OVMax= 2.68D-02

 Cycle   4  Pass 1  IDiag  1:
 RMSU=  2.30D-04    CP:  1.02D+00  6.38D-01  9.01D-01
 FoFJK:  IHMeth= 1 ICntrl=     0 DoSepK=T KAlg= 1 I1Cent= 0 FoldK=F
 E= -2905.42522509673     Delta-E=       -0.009045989234 Rises=F Damp=F
 DIIS: error= 2.53D-03 at cycle   4 NSaved=   4.
 NSaved= 4 IEnMin= 4 EnMin= -2905.42522509673     IErMin= 4 ErrMin= 2.53D-03
 ErrMax= 2.53D-03 EMaxC= 1.00D-01 BMatC= 1.78D-03 BMatP= 1.99D-02
 IDIUse=3 WtCom= 9.75D-01 WtEn= 2.53D-02
 Coeff-Com: -0.254D-02 0.504D-01 0.367D+00 0.585D+00
 Coeff-En:   0.000D+00 0.000D+00 0.000D+00 0.100D+01
 Coeff:     -0.247D-02 0.491D-01 0.358D+00 0.596D+00
 Gap=     0.421 Goal=   None    Shift=    0.000
 RMSDP=1.16D-04 MaxDP=6.63D-03 DE=-9.05D-03 OVMax= 6.91D-03

 Cycle   5  Pass 1  IDiag  1:
 RMSU=  4.10D-05    CP:  1.02D+00  6.37D-01  9.48D-01  7.18D-01
 FoFJK:  IHMeth= 1 ICntrl=     0 DoSepK=T KAlg= 1 I1Cent= 0 FoldK=F
 E= -2905.42629084385     Delta-E=       -0.001065747116 Rises=F Damp=F
 DIIS: error= 2.60D-04 at cycle   5 NSaved=   5.
 NSaved= 5 IEnMin= 5 EnMin= -2905.42629084385     IErMin= 5 ErrMin= 2.60D-04
 ErrMax= 2.60D-04 EMaxC= 1.00D-01 BMatC= 2.62D-05 BMatP= 1.78D-03
 IDIUse=3 WtCom= 9.97D-01 WtEn= 2.60D-03
 Coeff-Com: -0.153D-02 0.114D-01 0.102D+00 0.187D+00 0.701D+00
 Coeff-En:   0.000D+00 0.000D+00 0.000D+00 0.000D+00 0.100D+01
 Coeff:     -0.153D-02 0.114D-01 0.102D+00 0.187D+00 0.702D+00
 Gap=     0.420 Goal=   None    Shift=    0.000
 RMSDP=2.33D-05 MaxDP=9.99D-04 DE=-1.07D-03 OVMax= 1.59D-03

 Cycle   6  Pass 1  IDiag  1:
 RMSU=  1.48D-05    CP:  1.02D+00  6.37D-01  9.56D-01  7.39D-01  1.08D+00
 FoFJK:  IHMeth= 1 ICntrl=     0 DoSepK=T KAlg= 1 I1Cent= 0 FoldK=F
 E= -2905.42630448672     Delta-E=       -0.000013642869 Rises=F Damp=F
 DIIS: error= 1.83D-04 at cycle   6 NSaved=   6.
 NSaved= 6 IEnMin= 6 EnMin= -2905.42630448672     IErMin= 6 ErrMin= 1.83D-04
 ErrMax= 1.83D-04 EMaxC= 1.00D-01 BMatC= 1.04D-05 BMatP= 2.62D-05
 IDIUse=3 WtCom= 9.98D-01 WtEn= 1.83D-03
 Coeff-Com: -0.242D-03-0.647D-02-0.344D-01-0.464D-01 0.392D+00 0.695D+00
 Coeff-En:   0.000D+00 0.000D+00 0.000D+00 0.000D+00 0.185D+00 0.815D+00
 Coeff:     -0.242D-03-0.646D-02-0.343D-01-0.463D-01 0.392D+00 0.695D+00
 Gap=     0.420 Goal=   None    Shift=    0.000
 RMSDP=1.32D-05 MaxDP=4.48D-04 DE=-1.36D-05 OVMax= 7.48D-04

 Cycle   7  Pass 1  IDiag  1:
 RMSU=  3.80D-06    CP:  1.02D+00  6.37D-01  9.63D-01  7.49D-01  1.24D+00
                    CP:  8.59D-01
 FoFJK:  IHMeth= 1 ICntrl=     0 DoSepK=T KAlg= 1 I1Cent= 0 FoldK=F
 E= -2905.42631210218     Delta-E=       -0.000007615466 Rises=F Damp=F
 DIIS: error= 1.26D-05 at cycle   7 NSaved=   7.
 NSaved= 7 IEnMin= 7 EnMin= -2905.42631210218     IErMin= 7 ErrMin= 1.26D-05
 ErrMax= 1.26D-05 EMaxC= 1.00D-01 BMatC= 6.39D-08 BMatP= 1.04D-05
 IDIUse=1 WtCom= 1.00D+00 WtEn= 0.00D+00
 Coeff-Com:  0.355D-04-0.915D-03-0.641D-02-0.955D-02-0.127D-01 0.403D-01
 Coeff-Com:  0.989D+00
 Coeff:      0.355D-04-0.915D-03-0.641D-02-0.955D-02-0.127D-01 0.403D-01
 Coeff:      0.989D+00
 Gap=     0.420 Goal=   None    Shift=    0.000
 RMSDP=2.77D-06 MaxDP=8.34D-05 DE=-7.62D-06 OVMax= 2.05D-04

 Cycle   8  Pass 1  IDiag  1:
 RMSU=  8.43D-07    CP:  1.02D+00  6.37D-01  9.64D-01  7.52D-01  1.26D+00
                    CP:  9.13D-01  1.21D+00
 FoFJK:  IHMeth= 1 ICntrl=     0 DoSepK=T KAlg= 1 I1Cent= 0 FoldK=F
 E= -2905.42631224367     Delta-E=       -0.000000141491 Rises=F Damp=F
 DIIS: error= 3.11D-06 at cycle   8 NSaved=   8.
 NSaved= 8 IEnMin= 8 EnMin= -2905.42631224367     IErMin= 8 ErrMin= 3.11D-06
 ErrMax= 3.11D-06 EMaxC= 1.00D-01 BMatC= 3.79D-09 BMatP= 6.39D-08
 IDIUse=1 WtCom= 1.00D+00 WtEn= 0.00D+00
 Coeff-Com:  0.120D-04 0.224D-03 0.113D-02 0.119D-02-0.197D-01-0.295D-01
 Coeff-Com:  0.396D-01 0.101D+01
 Coeff:      0.120D-04 0.224D-03 0.113D-02 0.119D-02-0.197D-01-0.295D-01
 Coeff:      0.396D-01 0.101D+01
 Gap=     0.420 Goal=   None    Shift=    0.000
 RMSDP=6.80D-07 MaxDP=1.72D-05 DE=-1.41D-07 OVMax= 6.28D-05

 Cycle   9  Pass 1  IDiag  1:
 RMSU=  2.05D-07    CP:  1.02D+00  6.37D-01  9.64D-01  7.52D-01  1.27D+00
                    CP:  9.23D-01  1.29D+00  1.26D+00
 FoFJK:  IHMeth= 1 ICntrl=     0 DoSepK=T KAlg= 1 I1Cent= 0 FoldK=F
 E= -2905.42631225412     Delta-E=       -0.000000010450 Rises=F Damp=F
 DIIS: error= 1.11D-06 at cycle   9 NSaved=   9.
 NSaved= 9 IEnMin= 9 EnMin= -2905.42631225412     IErMin= 9 ErrMin= 1.11D-06
 ErrMax= 1.11D-06 EMaxC= 1.00D-01 BMatC= 3.36D-10 BMatP= 3.79D-09
 IDIUse=1 WtCom= 1.00D+00 WtEn= 0.00D+00
 Coeff-Com: -0.207D-05 0.639D-04 0.438D-03 0.490D-03 0.604D-03-0.184D-02
 Coeff-Com: -0.606D-01-0.325D-01 0.109D+01
 Coeff:     -0.207D-05 0.639D-04 0.438D-03 0.490D-03 0.604D-03-0.184D-02
 Coeff:     -0.606D-01-0.325D-01 0.109D+01
 Gap=     0.420 Goal=   None    Shift=    0.000
 RMSDP=2.10D-07 MaxDP=5.55D-06 DE=-1.04D-08 OVMax= 2.61D-05

 Cycle  10  Pass 1  IDiag  1:
 RMSU=  7.45D-08    CP:  1.02D+00  6.37D-01  9.64D-01  7.52D-01  1.27D+00
                    CP:  9.24D-01  1.30D+00  1.35D+00  1.38D+00
 FoFJK:  IHMeth= 1 ICntrl=     0 DoSepK=T KAlg= 1 I1Cent= 0 FoldK=F
 E= -2905.42631225531     Delta-E=       -0.000000001186 Rises=F Damp=F
 DIIS: error= 3.99D-07 at cycle  10 NSaved=  10.
 NSaved=10 IEnMin=10 EnMin= -2905.42631225531     IErMin=10 ErrMin= 3.99D-07
 ErrMax= 3.99D-07 EMaxC= 1.00D-01 BMatC= 3.94D-11 BMatP= 3.36D-10
 IDIUse=1 WtCom= 1.00D+00 WtEn= 0.00D+00
 Coeff-Com: -0.416D-06-0.141D-04-0.801D-04-0.689D-04 0.155D-02 0.245D-02
 Coeff-Com:  0.126D-03-0.105D+00 0.626D-01 0.104D+01
 Coeff:     -0.416D-06-0.141D-04-0.801D-04-0.689D-04 0.155D-02 0.245D-02
 Coeff:      0.126D-03-0.105D+00 0.626D-01 0.104D+01
 Gap=     0.420 Goal=   None    Shift=    0.000
 RMSDP=7.26D-08 MaxDP=1.53D-06 DE=-1.19D-09 OVMax= 1.06D-05

 Cycle  11  Pass 1  IDiag  1:
 RMSU=  2.07D-08    CP:  1.02D+00  6.37D-01  9.64D-01  7.52D-01  1.27D+00
                    CP:  9.24D-01  1.30D+00  1.37D+00  1.55D+00  1.36D+00
 FoFJK:  IHMeth= 1 ICntrl=     0 DoSepK=T KAlg= 1 I1Cent= 0 FoldK=F
 E= -2905.42631225545     Delta-E=       -0.000000000145 Rises=F Damp=F
 DIIS: error= 1.55D-07 at cycle  11 NSaved=  11.
 NSaved=11 IEnMin=11 EnMin= -2905.42631225545     IErMin=11 ErrMin= 1.55D-07
 ErrMax= 1.55D-07 EMaxC= 1.00D-01 BMatC= 5.49D-12 BMatP= 3.94D-11
 IDIUse=1 WtCom= 1.00D+00 WtEn= 0.00D+00
 Coeff-Com:  0.439D-06-0.667D-05-0.506D-04-0.416D-04-0.284D-03-0.443D-04
 Coeff-Com:  0.916D-02 0.473D-02-0.122D+00-0.123D+00 0.123D+01
 Coeff:      0.439D-06-0.667D-05-0.506D-04-0.416D-04-0.284D-03-0.443D-04
 Coeff:      0.916D-02 0.473D-02-0.122D+00-0.123D+00 0.123D+01
 Gap=     0.420 Goal=   None    Shift=    0.000
 RMSDP=3.48D-08 MaxDP=7.65D-07 DE=-1.45D-10 OVMax= 5.33D-06

 Cycle  12  Pass 1  IDiag  1:
 RMSU=  7.32D-09    CP:  1.02D+00  6.37D-01  9.64D-01  7.52D-01  1.27D+00
                    CP:  9.24D-01  1.30D+00  1.37D+00  1.61D+00  1.58D+00
                    CP:  1.50D+00
 FoFJK:  IHMeth= 1 ICntrl=     0 DoSepK=T KAlg= 1 I1Cent= 0 FoldK=F
 E= -2905.42631225547     Delta-E=       -0.000000000019 Rises=F Damp=F
 DIIS: error= 4.97D-08 at cycle  12 NSaved=  12.
 NSaved=12 IEnMin=12 EnMin= -2905.42631225547     IErMin=12 ErrMin= 4.97D-08
 ErrMax= 4.97D-08 EMaxC= 1.00D-01 BMatC= 3.80D-13 BMatP= 5.49D-12
 IDIUse=1 WtCom= 1.00D+00 WtEn= 0.00D+00
 Coeff-Com: -0.471D-07 0.104D-05 0.798D-05-0.139D-05-0.118D-03-0.187D-03
 Coeff-Com: -0.332D-03 0.707D-02 0.989D-02-0.799D-01-0.157D+00 0.122D+01
 Coeff:     -0.471D-07 0.104D-05 0.798D-05-0.139D-05-0.118D-03-0.187D-03
 Coeff:     -0.332D-03 0.707D-02 0.989D-02-0.799D-01-0.157D+00 0.122D+01
 Gap=     0.420 Goal=   None    Shift=    0.000
 RMSDP=1.13D-08 MaxDP=2.29D-07 DE=-1.86D-11 OVMax= 1.58D-06

 Cycle  13  Pass 1  IDiag  1:
 RMSU=  2.00D-09    CP:  1.02D+00  6.37D-01  9.64D-01  7.52D-01  1.27D+00
                    CP:  9.24D-01  1.30D+00  1.37D+00  1.62D+00  1.62D+00
                    CP:  1.69D+00  1.58D+00
 FoFJK:  IHMeth= 1 ICntrl=     0 DoSepK=T KAlg= 1 I1Cent= 0 FoldK=F
 E= -2905.42631225547     Delta-E=        0.000000000000 Rises=F Damp=F
 DIIS: error= 8.78D-09 at cycle  13 NSaved=  13.
 NSaved=13 IEnMin=12 EnMin= -2905.42631225547     IErMin=13 ErrMin= 8.78D-09
 ErrMax= 8.78D-09 EMaxC= 1.00D-01 BMatC= 2.70D-14 BMatP= 3.80D-13
 IDIUse=1 WtCom= 1.00D+00 WtEn= 0.00D+00
 Coeff-Com: -0.385D-07 0.457D-06 0.367D-05 0.741D-06 0.146D-04 0.524D-05
 Coeff-Com: -0.557D-03-0.304D-03 0.914D-02 0.460D-02-0.101D+00 0.894D-01
 Coeff-Com:  0.999D+00
 Coeff:     -0.385D-07 0.457D-06 0.367D-05 0.741D-06 0.146D-04 0.524D-05
 Coeff:     -0.557D-03-0.304D-03 0.914D-02 0.460D-02-0.101D+00 0.894D-01
 Coeff:      0.999D+00
 Gap=     0.420 Goal=   None    Shift=    0.000
 RMSDP=2.62D-09 MaxDP=6.64D-08 DE= 0.00D+00 OVMax= 2.65D-07

 SCF Done:  E(RwB97XD) =  -2905.42631226     A.U. after   13 cycles
             Convg  =    0.2621D-08             -V/T =  2.0015
 KE= 2.900931124437D+03 PE=-7.235506230319D+03 EE= 1.280553915166D+03
 Leave Link  502 at Sun May  3 14:39:23 2020, MaxMem= 1073741824 cpu:     447.0
 (Enter /home/matheus/.gaussian/g09/l601.exe)
 Copying SCF densities to generalized density rwf, IOpCl= 0 IROHF=0.

 **********************************************************************

            Population analysis using the SCF density.

 **********************************************************************

 Orbital symmetries:
       Occupied  (A) (A) (A) (A) (A) (A) (A) (A) (A) (A) (A) (A)
                 (A) (A) (A) (A) (A) (A) (A) (A) (A) (A) (A) (A)
                 (A) (A) (A)
       Virtual   (A) (A) (A) (A) (A) (A) (A) (A) (A) (A) (A) (A)
                 (A) (A) (A) (A) (A) (A) (A) (A) (A) (A) (A) (A)
                 (A) (A) (A) (A) (A) (A) (A) (A) (A) (A) (A) (A)
                 (A) (A) (A) (A) (A) (A) (A) (A) (A) (A) (A) (A)
                 (A) (A) (A) (A) (A) (A) (A) (A) (A) (A) (A) (A)
                 (A) (A) (A) (A) (A) (A) (A) (A) (A) (A) (A) (A)
                 (A) (A) (A) (A) (A) (A) (A) (A) (A) (A) (A) (A)
                 (A) (A) (A) (A) (A) (A) (A) (A) (A) (A) (A) (A)
                 (A) (A) (A) (A) (A) (A) (A) (A) (A) (A) (A) (A)
                 (A) (A) (A) (A) (A) (A) (A) (A) (A) (A) (A) (A)
                 (A) (A) (A) (A) (A) (A) (A) (A) (A) (A) (A) (A)
                 (A) (A) (A) (A) (A) (A) (A) (A) (A) (A) (A) (A)
                 (A) (A) (A) (A) (A) (A) (A) (A) (A) (A) (A) (A)
                 (A) (A) (A) (A) (A) (A) (A) (A) (A) (A) (A) (A)
                 (A) (A)
 The electronic state is 1-A.
 Alpha  occ. eigenvalues -- -513.09030 -67.35856 -60.90737 -60.90724 -60.90716
 Alpha  occ. eigenvalues --  -19.33898 -19.33509  -9.81184  -7.50521  -7.50476
 Alpha  occ. eigenvalues --   -7.50451  -3.37202  -3.37193  -3.37174  -3.37137
 Alpha  occ. eigenvalues --   -3.37135  -1.24403  -1.03310  -1.01853  -0.65704
 Alpha  occ. eigenvalues --   -0.60933  -0.52871  -0.49652  -0.49182  -0.48482
 Alpha  occ. eigenvalues --   -0.43841  -0.38356
 Alpha virt. eigenvalues --    0.03598   0.04340   0.08207   0.09939   0.10666
 Alpha virt. eigenvalues --    0.11757   0.13634   0.14181   0.16882   0.17867
 Alpha virt. eigenvalues --    0.18542   0.19124   0.20683   0.22364   0.23722
 Alpha virt. eigenvalues --    0.24380   0.25913   0.28404   0.31358   0.33394
 Alpha virt. eigenvalues --    0.33858   0.34768   0.35858   0.38705   0.39544
 Alpha virt. eigenvalues --    0.41042   0.41710   0.47617   0.51841   0.55080
 Alpha virt. eigenvalues --    0.55981   0.58273   0.61439   0.66020   0.67008
 Alpha virt. eigenvalues --    0.69974   0.70779   0.71428   0.73484   0.74897
 Alpha virt. eigenvalues --    0.75293   0.77351   0.77622   0.79716   0.81140
 Alpha virt. eigenvalues --    0.84274   0.84885   0.86905   0.89022   0.89426
 Alpha virt. eigenvalues --    0.92115   0.93284   0.95380   0.96415   0.98743
 Alpha virt. eigenvalues --    1.00908   1.01758   1.03759   1.06831   1.07840
 Alpha virt. eigenvalues --    1.09319   1.13268   1.14381   1.17199   1.21878
 Alpha virt. eigenvalues --    1.24871   1.31085   1.32143   1.36846   1.39916
 Alpha virt. eigenvalues --    1.40901   1.48981   1.52381   1.53846   1.59076
 Alpha virt. eigenvalues --    1.63509   1.73454   1.82190   1.84150   1.92705
 Alpha virt. eigenvalues --    1.96642   1.99563   2.07435   2.11823   2.14141
 Alpha virt. eigenvalues --    2.14756   2.17731   2.19939   2.20988   2.23277
 Alpha virt. eigenvalues --    2.24587   2.29400   2.30128   2.30898   2.34781
 Alpha virt. eigenvalues --    2.35729   2.38097   2.42870   2.44973   2.47503
 Alpha virt. eigenvalues --    2.47548   2.49419   2.52286   2.54239   2.56981
 Alpha virt. eigenvalues --    2.59016   2.60899   2.63403   2.64725   2.69904
 Alpha virt. eigenvalues --    2.71901   2.74724   2.80191   2.84957   2.85896
 Alpha virt. eigenvalues --    2.90840   3.03856   3.09404   3.12860   3.61536
 Alpha virt. eigenvalues --    3.65675   3.86901   3.97406   4.01434   4.03597
 Alpha virt. eigenvalues --    4.09643   4.13954   4.19942   4.24140   4.26805
 Alpha virt. eigenvalues --    4.44510   4.48793   4.51003   4.53664   4.70243
 Alpha virt. eigenvalues --    4.88845   4.97393   5.05532   5.09628   5.10006
 Alpha virt. eigenvalues --    5.23568   5.43112   5.83465   6.05805   6.07970
 Alpha virt. eigenvalues --    6.11182   6.30955   6.35112   6.40630   6.52743
 Alpha virt. eigenvalues --    6.62401   6.75330   6.77031   6.81792   6.84714
 Alpha virt. eigenvalues --    6.86037   6.88907   6.90080   6.96616   7.02518
 Alpha virt. eigenvalues --    7.03671   7.19501   7.25786   7.40639   7.76756
 Alpha virt. eigenvalues --    7.77917   8.06478   8.11619  13.97040  14.65849
          Condensed to atoms (all electrons):
              1          2          3          4          5
     1  O    8.149105  -0.161773   0.232792   0.001147  -0.022582
     2  O   -0.161773   8.233022   0.008103   0.206510  -0.016929
     3  H    0.232792   0.008103   0.541174   0.003063   0.002860
     4  H    0.001147   0.206510   0.003063   0.545149  -0.004248
     5  Kr  -0.022582  -0.016929   0.002860  -0.004248  36.033662
 Mulliken atomic charges:
              1
     1  O   -0.198689
     2  O   -0.268933
     3  H    0.212007
     4  H    0.248378
     5  Kr   0.007237
 Sum of Mulliken atomic charges =   0.00000
 Mulliken charges with hydrogens summed into heavy atoms:
              1
     1  O    0.013318
     2  O   -0.020555
     5  Kr   0.007237
 Sum of Mulliken charges with hydrogens summed into heavy atoms =   0.00000
          Condensed to fragments (all electrons):
     1      -0.007237
     2       0.007237
 Electronic spatial extent (au):  <R**2>=            489.5406
 Charge=              0.0000 electrons
 Dipole moment (field-independent basis, Debye):
    X=             -0.7102    Y=             -0.3699    Z=              1.1774  Tot=              1.4239
 Quadrupole moment (field-independent basis, Debye-Ang):
   XX=            -29.6444   YY=            -28.1217   ZZ=            -29.7289
   XY=             -3.4364   XZ=              3.3847   YZ=             -1.3283
 Traceless Quadrupole moment (field-independent basis, Debye-Ang):
   XX=             -0.4795   YY=              1.0433   ZZ=             -0.5639
   XY=             -3.4364   XZ=              3.3847   YZ=             -1.3283
 Octapole moment (field-independent basis, Debye-Ang**2):
  XXX=            -14.8003  YYY=             -0.9185  ZZZ=              0.7221  XYY=             -4.2323
  XXY=            -13.2364  XXZ=              9.1882  XZZ=             -6.3418  YZZ=             -1.2053
  YYZ=              1.5997  XYZ=             -3.7225
 Hexadecapole moment (field-independent basis, Debye-Ang**3):
 XXXX=           -395.4887 YYYY=            -63.5375 ZZZZ=            -30.0013 XXXY=            -37.3958
 XXXZ=             25.7225 YYYX=             -5.5096 YYYZ=             -1.7721 ZZZX=              2.3053
 ZZZY=             -1.0940 XXYY=            -76.2591 XXZZ=            -73.7885 YYZZ=            -16.7022
 XXYZ=            -10.2651 YYXZ=              4.2771 ZZXY=             -2.6428
 N-N= 1.485948784608D+02 E-N=-7.235506229956D+03  KE= 2.900931124437D+03
 No NMR shielding tensors so no spin-rotation constants.
 Leave Link  601 at Sun May  3 14:39:24 2020, MaxMem= 1073741824 cpu:       0.8
 (Enter /home/matheus/.gaussian/g09/l122.exe)
 Counterpoise: doing DCBS calculation for fragment   1 NewBq=T
 Leave Link  122 at Sun May  3 14:39:24 2020, MaxMem= 1073741824 cpu:       0.0
 (Enter /home/matheus/.gaussian/g09/l301.exe)
 Basis read from rwf:  (5D, 7F)
 No pseudopotential information found on rwf file.
 There are   197 symmetry adapted basis functions of A   symmetry.
 Integral buffers will be    131072 words long.
 Raffenetti 2 integral format.
 Two-electron integral symmetry is turned on.
   197 basis functions,   415 primitive gaussians,   229 cartesian basis functions
     9 alpha electrons        9 beta electrons
       nuclear repulsion energy        36.6087755249 Hartrees.
 IExCor= 4639 DFT=T Ex+Corr=wB97XD ExCW=0 ScaHFX=  1.000000
 ScaDFX=  1.000000  1.000000  1.000000  1.000000 ScalE2=  1.000000  1.000000
 IRadAn=      5 IRanWt=     -1 IRanGd=            0 ICorTp=0
  HFx wShort=  0.000000 wLong=  0.250000 cFull=  0.222036 cShort=  0.000000 cLong=  0.777964
  DFx wShort=  0.000000 wLong=  0.250000 cFull=  0.000000 cShort=  0.000000 cLong=  1.000000
 NAtoms=    5 NActive=    5 NUniq=    5 SFac= 1.00D+00 NAtFMM=   60 NAOKFM=F Big=F
 R6Disp: Dispersion energy =        -0.0002181899 Hartrees.
 Nuclear repulsion after empirical dispersion term =       36.6085573350 Hartrees.
 No density basis found on file   718.
 Leave Link  301 at Sun May  3 14:39:24 2020, MaxMem= 1073741824 cpu:       0.3
 (Enter /home/matheus/.gaussian/g09/l302.exe)
 NPDir=0 NMtPBC=     1 NCelOv=     1 NCel=       1 NClECP=     1 NCelD=      1
         NCelK=      1 NCelE2=     1 NClLst=     1 CellRange=     0.0.
 One-electron integrals computed using PRISM.
 NBasis=   197 RedAO= T  NBF=   197
 NBsUse=   197 1.00D-06 NBFU=   197
 Precomputing XC quadrature grid using
 IXCGrd= 2 IRadAn=           5 IRanWt=          -1 IRanGd=           0 AccXCQ= 0.00D+00.
 NRdTot=     427 NPtTot=      123512 NUsed=      126579 NTot=      126611
 NSgBfM=   229   229   229   229   229 NAtAll=     5     5.
 Leave Link  302 at Sun May  3 14:39:24 2020, MaxMem= 1073741824 cpu:       1.1
 (Enter /home/matheus/.gaussian/g09/l303.exe)
 DipDrv:  MaxL=1.
 Leave Link  303 at Sun May  3 14:39:24 2020, MaxMem= 1073741824 cpu:       0.2
 (Enter /home/matheus/.gaussian/g09/l401.exe)
 Harris functional with IExCor= 4639 diagonalized for initial guess.
 ExpMin= 2.53D-02 ExpMax= 1.17D+07 ExpMxC= 1.33D+04 IAcc=3 IRadAn=         5 AccDes= 0.00D+00
 HarFok:  IExCor= 4639 AccDes= 0.00D+00 IRadAn=         5 IDoV= 1
 ScaDFX=  1.000000  1.000000  1.000000  1.000000
 FoFCou: FMM=F IPFlag=           0 FMFlag=      100000 FMFlg1=           0
         NFxFlg=           0 DoJE=T BraDBF=F KetDBF=T FulRan=T
         Omega=  0.000000  0.000000  1.000000  0.000000  0.000000 ICntrl=     500 IOpCl=  0
         NMat0=    1 NMatS0=    1 NMatT0=    0 NMatD0=    1 NMtDS0=    0 NMtDT0=    0
         I1Cent=           4 NGrid=           0.
 Petite list used in FoFCou.
 Harris En= -145.945195560287    
 Initial guess orbital symmetries:
       Occupied  (A) (A) (A) (A) (A) (A) (A) (A) (A)
       Virtual   (A) (A) (A) (A) (A) (A) (A) (A) (A) (A) (A) (A)
                 (A) (A) (A) (A) (A) (A) (A) (A) (A) (A) (A) (A)
                 (A) (A) (A) (A) (A) (A) (A) (A) (A) (A) (A) (A)
                 (A) (A) (A) (A) (A) (A) (A) (A) (A) (A) (A) (A)
                 (A) (A) (A) (A) (A) (A) (A) (A) (A) (A) (A) (A)
                 (A) (A) (A) (A) (A) (A) (A) (A) (A) (A) (A) (A)
                 (A) (A) (A) (A) (A) (A) (A) (A) (A) (A) (A) (A)
                 (A) (A) (A) (A) (A) (A) (A) (A) (A) (A) (A) (A)
                 (A) (A) (A) (A) (A) (A) (A) (A) (A) (A) (A) (A)
                 (A) (A) (A) (A) (A) (A) (A) (A) (A) (A) (A) (A)
                 (A) (A) (A) (A) (A) (A) (A) (A) (A) (A) (A) (A)
                 (A) (A) (A) (A) (A) (A) (A) (A) (A) (A) (A) (A)
                 (A) (A) (A) (A) (A) (A) (A) (A) (A) (A) (A) (A)
                 (A) (A) (A) (A) (A) (A) (A) (A) (A) (A) (A) (A)
                 (A) (A) (A) (A) (A) (A) (A) (A) (A) (A) (A) (A)
                 (A) (A) (A) (A) (A) (A) (A) (A)
 The electronic state of the initial guess is 1-A.
 Leave Link  401 at Sun May  3 14:39:24 2020, MaxMem= 1073741824 cpu:       5.3
 (Enter /home/matheus/.gaussian/g09/l502.exe)
 Closed shell SCF:
 Requested convergence on RMS density matrix=1.00D-08 within 128 cycles.
 Requested convergence on MAX density matrix=1.00D-06.
 Requested convergence on             energy=1.00D-06.
 No special actions if energy rises.
 Using DIIS extrapolation, IDIIS=  1040.
 Integral symmetry usage will be decided dynamically.
       126521 words used for storage of precomputed grid.
 IEnd=      305468 IEndB=      305468 NGot=  1073741824 MDV=  1073505667
 LenX=  1073505667 LenY=  1073452785
 Fock matrices will be formed incrementally for  20 cycles.

 Cycle   1  Pass 1  IDiag  1:
 FoFJK:  IHMeth= 1 ICntrl=     0 DoSepK=T KAlg= 1 I1Cent= 0 FoldK=F
 FoFCou: FMM=F IPFlag=           0 FMFlag=      100000 FMFlg1=           0
         NFxFlg=           0 DoJE=T BraDBF=F KetDBF=F FulRan=T
         Omega=  0.000000  0.000000  1.000000  0.000000  0.000000 ICntrl=     500 IOpCl=  0
         NMat0=    1 NMatS0=    1 NMatT0=    0 NMatD0=    1 NMtDS0=    0 NMtDT0=    0
         I1Cent=           0 NGrid=           0.
 Symmetry not used in FoFCou.
 E= -151.460556137066    
 DIIS: error= 2.76D-02 at cycle   1 NSaved=   1.
 NSaved= 1 IEnMin= 1 EnMin= -151.460556137066     IErMin= 1 ErrMin= 2.76D-02
 ErrMax= 2.76D-02 EMaxC= 1.00D-01 BMatC= 3.20D-01 BMatP= 3.20D-01
 IDIUse=3 WtCom= 7.24D-01 WtEn= 2.76D-01
 Coeff-Com:  0.100D+01
 Coeff-En:   0.100D+01
 Coeff:      0.100D+01
 Gap=     0.542 Goal=   None    Shift=    0.000
 GapD=    0.542 DampG=2.000 DampE=0.500 DampFc=1.0000 IDamp=-1.
 RMSDP=2.42D-03 MaxDP=9.93D-02              OVMax= 1.23D-01

 Cycle   2  Pass 1  IDiag  1:
 RMSU=  1.68D-03    CP:  9.56D-01
 FoFJK:  IHMeth= 1 ICntrl=     0 DoSepK=T KAlg= 1 I1Cent= 0 FoldK=F
 E= -151.499325176182     Delta-E=       -0.038769039115 Rises=F Damp=F
 DIIS: error= 1.74D-02 at cycle   2 NSaved=   2.
 NSaved= 2 IEnMin= 2 EnMin= -151.499325176182     IErMin= 2 ErrMin= 1.74D-02
 ErrMax= 1.74D-02 EMaxC= 1.00D-01 BMatC= 1.03D-01 BMatP= 3.20D-01
 IDIUse=3 WtCom= 8.26D-01 WtEn= 1.74D-01
 Coeff-Com:  0.342D+00 0.658D+00
 Coeff-En:   0.349D+00 0.651D+00
 Coeff:      0.343D+00 0.657D+00
 Gap=     0.482 Goal=   None    Shift=    0.000
 RMSDP=9.90D-04 MaxDP=4.81D-02 DE=-3.88D-02 OVMax= 5.99D-02

 Cycle   3  Pass 1  IDiag  1:
 RMSU=  3.78D-04    CP:  9.75D-01  6.58D-01
 FoFJK:  IHMeth= 1 ICntrl=     0 DoSepK=T KAlg= 1 I1Cent= 0 FoldK=F
 E= -151.555859519122     Delta-E=       -0.056534342940 Rises=F Damp=F
 DIIS: error= 4.29D-03 at cycle   3 NSaved=   3.
 NSaved= 3 IEnMin= 3 EnMin= -151.555859519122     IErMin= 3 ErrMin= 4.29D-03
 ErrMax= 4.29D-03 EMaxC= 1.00D-01 BMatC= 5.45D-03 BMatP= 1.03D-01
 IDIUse=3 WtCom= 9.57D-01 WtEn= 4.29D-02
 Coeff-Com:  0.839D-02 0.192D+00 0.800D+00
 Coeff-En:   0.000D+00 0.000D+00 0.100D+01
 Coeff:      0.803D-02 0.184D+00 0.808D+00
 Gap=     0.421 Goal=   None    Shift=    0.000
 RMSDP=2.57D-04 MaxDP=1.00D-02 DE=-5.65D-02 OVMax= 1.61D-02

 Cycle   4  Pass 1  IDiag  1:
 RMSU=  7.21D-05    CP:  9.70D-01  7.51D-01  8.81D-01
 FoFJK:  IHMeth= 1 ICntrl=     0 DoSepK=T KAlg= 1 I1Cent= 0 FoldK=F
 E= -151.559377147748     Delta-E=       -0.003517628626 Rises=F Damp=F
 DIIS: error= 3.92D-04 at cycle   4 NSaved=   4.
 NSaved= 4 IEnMin= 4 EnMin= -151.559377147748     IErMin= 4 ErrMin= 3.92D-04
 ErrMax= 3.92D-04 EMaxC= 1.00D-01 BMatC= 4.81D-05 BMatP= 5.45D-03
 IDIUse=3 WtCom= 9.96D-01 WtEn= 3.92D-03
 Coeff-Com: -0.149D-02-0.200D-02 0.766D-01 0.927D+00
 Coeff-En:   0.000D+00 0.000D+00 0.000D+00 0.100D+01
 Coeff:     -0.148D-02-0.199D-02 0.763D-01 0.927D+00
 Gap=     0.418 Goal=   None    Shift=    0.000
 RMSDP=3.80D-05 MaxDP=1.96D-03 DE=-3.52D-03 OVMax= 1.55D-03

 Cycle   5  Pass 1  IDiag  1:
 RMSU=  1.25D-05    CP:  9.70D-01  7.48D-01  9.31D-01  1.17D+00
 FoFJK:  IHMeth= 1 ICntrl=     0 DoSepK=T KAlg= 1 I1Cent= 0 FoldK=F
 E= -151.559416527765     Delta-E=       -0.000039380018 Rises=F Damp=F
 DIIS: error= 4.86D-05 at cycle   5 NSaved=   5.
 NSaved= 5 IEnMin= 5 EnMin= -151.559416527765     IErMin= 5 ErrMin= 4.86D-05
 ErrMax= 4.86D-05 EMaxC= 1.00D-01 BMatC= 7.11D-07 BMatP= 4.81D-05
 IDIUse=1 WtCom= 1.00D+00 WtEn= 0.00D+00
 Coeff-Com: -0.446D-03-0.105D-01-0.432D-01-0.350D-01 0.109D+01
 Coeff:     -0.446D-03-0.105D-01-0.432D-01-0.350D-01 0.109D+01
 Gap=     0.417 Goal=   None    Shift=    0.000
 RMSDP=1.20D-05 MaxDP=5.07D-04 DE=-3.94D-05 OVMax= 8.46D-04

 Cycle   6  Pass 1  IDiag  1:
 RMSU=  2.62D-06    CP:  9.70D-01  7.49D-01  9.42D-01  1.25D+00  1.27D+00
 FoFJK:  IHMeth= 1 ICntrl=     0 DoSepK=T KAlg= 1 I1Cent= 0 FoldK=F
 E= -151.559418464135     Delta-E=       -0.000001936370 Rises=F Damp=F
 DIIS: error= 1.08D-05 at cycle   6 NSaved=   6.
 NSaved= 6 IEnMin= 6 EnMin= -151.559418464135     IErMin= 6 ErrMin= 1.08D-05
 ErrMax= 1.08D-05 EMaxC= 1.00D-01 BMatC= 2.68D-08 BMatP= 7.11D-07
 IDIUse=1 WtCom= 1.00D+00 WtEn= 0.00D+00
 Coeff-Com:  0.457D-04 0.101D-03-0.244D-02-0.247D-01 0.288D-02 0.102D+01
 Coeff:      0.457D-04 0.101D-03-0.244D-02-0.247D-01 0.288D-02 0.102D+01
 Gap=     0.417 Goal=   None    Shift=    0.000
 RMSDP=1.74D-06 MaxDP=6.70D-05 DE=-1.94D-06 OVMax= 1.76D-04

 Cycle   7  Pass 1  IDiag  1:
 RMSU=  4.40D-07    CP:  9.70D-01  7.49D-01  9.43D-01  1.26D+00  1.32D+00
                    CP:  1.30D+00
 FoFJK:  IHMeth= 1 ICntrl=     0 DoSepK=T KAlg= 1 I1Cent= 0 FoldK=F
 E= -151.559418542962     Delta-E=       -0.000000078827 Rises=F Damp=F
 DIIS: error= 3.34D-06 at cycle   7 NSaved=   7.
 NSaved= 7 IEnMin= 7 EnMin= -151.559418542962     IErMin= 7 ErrMin= 3.34D-06
 ErrMax= 3.34D-06 EMaxC= 1.00D-01 BMatC= 3.27D-09 BMatP= 2.68D-08
 IDIUse=1 WtCom= 1.00D+00 WtEn= 0.00D+00
 Coeff-Com:  0.174D-04 0.447D-03 0.194D-02-0.134D-03-0.496D-01-0.609D-02
 Coeff-Com:  0.105D+01
 Coeff:      0.174D-04 0.447D-03 0.194D-02-0.134D-03-0.496D-01-0.609D-02
 Coeff:      0.105D+01
 Gap=     0.417 Goal=   None    Shift=    0.000
 RMSDP=5.41D-07 MaxDP=2.20D-05 DE=-7.88D-08 OVMax= 6.53D-05

 Cycle   8  Pass 1  IDiag  1:
 RMSU=  2.15D-07    CP:  9.70D-01  7.49D-01  9.43D-01  1.26D+00  1.33D+00
                    CP:  1.39D+00  1.32D+00
 FoFJK:  IHMeth= 1 ICntrl=     0 DoSepK=T KAlg= 1 I1Cent= 0 FoldK=F
 E= -151.559418550420     Delta-E=       -0.000000007458 Rises=F Damp=F
 DIIS: error= 3.22D-06 at cycle   8 NSaved=   8.
 NSaved= 8 IEnMin= 8 EnMin= -151.559418550420     IErMin= 8 ErrMin= 3.22D-06
 ErrMax= 3.22D-06 EMaxC= 1.00D-01 BMatC= 2.77D-09 BMatP= 3.27D-09
 IDIUse=1 WtCom= 1.00D+00 WtEn= 0.00D+00
 Coeff-Com:  0.372D-05 0.227D-03 0.135D-02 0.266D-02-0.252D-01-0.146D+00
 Coeff-Com:  0.620D+00 0.547D+00
 Coeff:      0.372D-05 0.227D-03 0.135D-02 0.266D-02-0.252D-01-0.146D+00
 Coeff:      0.620D+00 0.547D+00
 Gap=     0.417 Goal=   None    Shift=    0.000
 RMSDP=1.75D-07 MaxDP=8.27D-06 DE=-7.46D-09 OVMax= 2.08D-05

 Cycle   9  Pass 1  IDiag  1:
 RMSU=  9.04D-08    CP:  9.70D-01  7.49D-01  9.43D-01  1.26D+00  1.33D+00
                    CP:  1.39D+00  1.49D+00  9.05D-01
 FoFJK:  IHMeth= 1 ICntrl=     0 DoSepK=T KAlg= 1 I1Cent= 0 FoldK=F
 E= -151.559418552804     Delta-E=       -0.000000002384 Rises=F Damp=F
 DIIS: error= 5.24D-07 at cycle   9 NSaved=   9.
 NSaved= 9 IEnMin= 9 EnMin= -151.559418552804     IErMin= 9 ErrMin= 5.24D-07
 ErrMax= 5.24D-07 EMaxC= 1.00D-01 BMatC= 9.34D-11 BMatP= 2.77D-09
 IDIUse=1 WtCom= 1.00D+00 WtEn= 0.00D+00
 Coeff-Com: -0.145D-05-0.581D-04-0.295D-03-0.411D-03 0.105D-01-0.177D-01
 Coeff-Com: -0.121D+00 0.256D-01 0.110D+01
 Coeff:     -0.145D-05-0.581D-04-0.295D-03-0.411D-03 0.105D-01-0.177D-01
 Coeff:     -0.121D+00 0.256D-01 0.110D+01
 Gap=     0.417 Goal=   None    Shift=    0.000
 RMSDP=1.10D-07 MaxDP=2.34D-06 DE=-2.38D-09 OVMax= 1.62D-05

 Cycle  10  Pass 1  IDiag  1:
 RMSU=  2.18D-08    CP:  9.70D-01  7.49D-01  9.43D-01  1.26D+00  1.33D+00
                    CP:  1.39D+00  1.58D+00  1.14D+00  1.41D+00
 FoFJK:  IHMeth= 1 ICntrl=     0 DoSepK=T KAlg= 1 I1Cent= 0 FoldK=F
 E= -151.559418553122     Delta-E=       -0.000000000319 Rises=F Damp=F
 DIIS: error= 2.15D-07 at cycle  10 NSaved=  10.
 NSaved=10 IEnMin=10 EnMin= -151.559418553122     IErMin=10 ErrMin= 2.15D-07
 ErrMax= 2.15D-07 EMaxC= 1.00D-01 BMatC= 9.97D-12 BMatP= 9.34D-11
 IDIUse=1 WtCom= 1.00D+00 WtEn= 0.00D+00
 Coeff-Com: -0.107D-07-0.148D-04-0.118D-03-0.389D-03 0.228D-02 0.116D-01
 Coeff-Com: -0.382D-01-0.574D-01-0.221D+00 0.130D+01
 Coeff:     -0.107D-07-0.148D-04-0.118D-03-0.389D-03 0.228D-02 0.116D-01
 Coeff:     -0.382D-01-0.574D-01-0.221D+00 0.130D+01
 Gap=     0.417 Goal=   None    Shift=    0.000
 RMSDP=5.08D-08 MaxDP=1.11D-06 DE=-3.19D-10 OVMax= 7.93D-06

 Cycle  11  Pass 1  IDiag  1:
 RMSU=  8.45D-09    CP:  9.70D-01  7.49D-01  9.43D-01  1.26D+00  1.33D+00
                    CP:  1.39D+00  1.62D+00  1.22D+00  1.62D+00  1.70D+00
 FoFJK:  IHMeth= 1 ICntrl=     0 DoSepK=T KAlg= 1 I1Cent= 0 FoldK=F
 E= -151.559418553171     Delta-E=       -0.000000000048 Rises=F Damp=F
 DIIS: error= 5.43D-08 at cycle  11 NSaved=  11.
 NSaved=11 IEnMin=11 EnMin= -151.559418553171     IErMin=11 ErrMin= 5.43D-08
 ErrMax= 5.43D-08 EMaxC= 1.00D-01 BMatC= 6.77D-13 BMatP= 9.97D-12
 IDIUse=1 WtCom= 1.00D+00 WtEn= 0.00D+00
 Coeff-Com: -0.112D-06 0.208D-05 0.230D-04 0.268D-04-0.650D-03-0.697D-03
 Coeff-Com:  0.159D-01 0.400D-02-0.868D-01-0.781D-01 0.115D+01
 Coeff:     -0.112D-06 0.208D-05 0.230D-04 0.268D-04-0.650D-03-0.697D-03
 Coeff:      0.159D-01 0.400D-02-0.868D-01-0.781D-01 0.115D+01
 Gap=     0.417 Goal=   None    Shift=    0.000
 RMSDP=1.42D-08 MaxDP=3.47D-07 DE=-4.84D-11 OVMax= 1.82D-06

 Cycle  12  Pass 1  IDiag  1:
 RMSU=  2.20D-09    CP:  9.70D-01  7.49D-01  9.43D-01  1.26D+00  1.33D+00
                    CP:  1.39D+00  1.62D+00  1.23D+00  1.66D+00  1.96D+00
                    CP:  1.50D+00
 FoFJK:  IHMeth= 1 ICntrl=     0 DoSepK=T KAlg= 1 I1Cent= 0 FoldK=F
 E= -151.559418553173     Delta-E=       -0.000000000002 Rises=F Damp=F
 DIIS: error= 1.42D-08 at cycle  12 NSaved=  12.
 NSaved=12 IEnMin=12 EnMin= -151.559418553173     IErMin=12 ErrMin= 1.42D-08
 ErrMax= 1.42D-08 EMaxC= 1.00D-01 BMatC= 4.99D-14 BMatP= 6.77D-13
 IDIUse=1 WtCom= 1.00D+00 WtEn= 0.00D+00
 Coeff-Com: -0.442D-07 0.884D-06 0.974D-05 0.238D-04-0.165D-03-0.106D-02
 Coeff-Com:  0.387D-02 0.438D-02 0.851D-02-0.990D-01 0.341D-01 0.105D+01
 Coeff:     -0.442D-07 0.884D-06 0.974D-05 0.238D-04-0.165D-03-0.106D-02
 Coeff:      0.387D-02 0.438D-02 0.851D-02-0.990D-01 0.341D-01 0.105D+01
 Gap=     0.417 Goal=   None    Shift=    0.000
 RMSDP=3.84D-09 MaxDP=9.25D-08 DE=-2.16D-12 OVMax= 4.03D-07

 SCF Done:  E(RwB97XD) =  -151.559418553     A.U. after   12 cycles
             Convg  =    0.3843D-08             -V/T =  2.0061
 KE= 1.506360236586D+02 PE=-4.316741103744D+02 EE= 9.287011082769D+01
 Leave Link  502 at Sun May  3 14:40:15 2020, MaxMem= 1073741824 cpu:     397.9
 (Enter /home/matheus/.gaussian/g09/l601.exe)
 Copying SCF densities to generalized density rwf, IOpCl= 0 IROHF=0.

 **********************************************************************

            Population analysis using the SCF density.

 **********************************************************************

 Orbital symmetries:
       Occupied  (A) (A) (A) (A) (A) (A) (A) (A) (A)
       Virtual   (A) (A) (A) (A) (A) (A) (A) (A) (A) (A) (A) (A)
                 (A) (A) (A) (A) (A) (A) (A) (A) (A) (A) (A) (A)
                 (A) (A) (A) (A) (A) (A) (A) (A) (A) (A) (A) (A)
                 (A) (A) (A) (A) (A) (A) (A) (A) (A) (A) (A) (A)
                 (A) (A) (A) (A) (A) (A) (A) (A) (A) (A) (A) (A)
                 (A) (A) (A) (A) (A) (A) (A) (A) (A) (A) (A) (A)
                 (A) (A) (A) (A) (A) (A) (A) (A) (A) (A) (A) (A)
                 (A) (A) (A) (A) (A) (A) (A) (A) (A) (A) (A) (A)
                 (A) (A) (A) (A) (A) (A) (A) (A) (A) (A) (A) (A)
                 (A) (A) (A) (A) (A) (A) (A) (A) (A) (A) (A) (A)
                 (A) (A) (A) (A) (A) (A) (A) (A) (A) (A) (A) (A)
                 (A) (A) (A) (A) (A) (A) (A) (A) (A) (A) (A) (A)
                 (A) (A) (A) (A) (A) (A) (A) (A) (A) (A) (A) (A)
                 (A) (A) (A) (A) (A) (A) (A) (A) (A) (A) (A) (A)
                 (A) (A) (A) (A) (A) (A) (A) (A) (A) (A) (A) (A)
                 (A) (A) (A) (A) (A) (A) (A) (A)
 The electronic state is 1-A.
 Alpha  occ. eigenvalues --  -19.34023 -19.34019  -1.24587  -1.03390  -0.65806
 Alpha  occ. eigenvalues --   -0.60482  -0.52753  -0.44208  -0.38588
 Alpha virt. eigenvalues --    0.03158   0.03858   0.07269   0.09090   0.09772
 Alpha virt. eigenvalues --    0.10759   0.11236   0.14116   0.16996   0.17346
 Alpha virt. eigenvalues --    0.18679   0.19654   0.21379   0.23417   0.25288
 Alpha virt. eigenvalues --    0.27224   0.30786   0.31854   0.33013   0.33663
 Alpha virt. eigenvalues --    0.35076   0.38398   0.38810   0.39729   0.40800
 Alpha virt. eigenvalues --    0.42960   0.44596   0.47191   0.48947   0.50073
 Alpha virt. eigenvalues --    0.54587   0.57735   0.59281   0.62156   0.67502
 Alpha virt. eigenvalues --    0.70126   0.72778   0.73375   0.75451   0.76889
 Alpha virt. eigenvalues --    0.79180   0.81159   0.87076   0.88814   0.89860
 Alpha virt. eigenvalues --    0.90512   0.93139   0.94657   0.96659   0.98762
 Alpha virt. eigenvalues --    0.99611   1.03526   1.05179   1.07868   1.11063
 Alpha virt. eigenvalues --    1.12911   1.15634   1.18335   1.22232   1.24130
 Alpha virt. eigenvalues --    1.25411   1.30528   1.31166   1.33012   1.33988
 Alpha virt. eigenvalues --    1.34825   1.36189   1.37074   1.37662   1.38546
 Alpha virt. eigenvalues --    1.45446   1.50199   1.51644   1.53093   1.55480
 Alpha virt. eigenvalues --    1.57808   1.63721   1.67063   1.68625   1.78892
 Alpha virt. eigenvalues --    1.81999   1.84686   1.87003   1.94782   1.99874
 Alpha virt. eigenvalues --    2.06993   2.10054   2.14173   2.16571   2.20428
 Alpha virt. eigenvalues --    2.27253   2.28622   2.29789   2.34681   2.42350
 Alpha virt. eigenvalues --    2.45148   2.50923   2.52117   2.62117   2.63778
 Alpha virt. eigenvalues --    2.65784   2.73168   2.82322   2.84287   2.88523
 Alpha virt. eigenvalues --    3.03128   3.07728   3.09982   3.27020   3.31324
 Alpha virt. eigenvalues --    3.41129   3.55976   3.61487   3.67823   3.79636
 Alpha virt. eigenvalues --    3.79817   3.82245   3.83525   3.83714   3.84061
 Alpha virt. eigenvalues --    3.87104   3.89509   3.91406   3.94788   3.96862
 Alpha virt. eigenvalues --    4.00856   4.01470   4.04111   4.08828   4.11377
 Alpha virt. eigenvalues --    4.16045   4.21688   4.24016   4.29329   4.34864
 Alpha virt. eigenvalues --    4.46494   4.51726   4.53860   4.70375   4.89384
 Alpha virt. eigenvalues --    4.97314   5.05474   5.09814   5.09976   5.23908
 Alpha virt. eigenvalues --    5.42930   5.83253   6.05783   6.07867   6.10878
 Alpha virt. eigenvalues --    6.30970   6.35119   6.40535   6.52671   6.62256
 Alpha virt. eigenvalues --    6.75129   6.76776   6.81678   6.84294   6.85813
 Alpha virt. eigenvalues --    6.88744   6.89906   6.96464   7.02473   7.03471
 Alpha virt. eigenvalues --    7.19338   7.25440   7.40541   7.76568   7.77728
 Alpha virt. eigenvalues --    8.06322   8.10971  10.90983  13.96946  14.64024
 Alpha virt. eigenvalues --   14.84600  14.89732  15.11682  29.04381  29.04819
 Alpha virt. eigenvalues --   29.09292  29.14887  29.24345  49.12027 148.32642
 Alpha virt. eigenvalues --  148.39726 148.72014 752.52559
          Condensed to atoms (all electrons):
              1          2          3          4          5
     1  O    8.154547  -0.155892   0.221303  -0.001519   0.000655
     2  O   -0.155892   8.176600   0.008308   0.216789  -0.001496
     3  H    0.221303   0.008308   0.544939   0.004330  -0.000487
     4  H   -0.001519   0.216789   0.004330   0.548166  -0.004720
     5  Kr   0.000655  -0.001496  -0.000487  -0.004720   0.001209
 Mulliken atomic charges:
              1
     1  O   -0.219093
     2  O   -0.244308
     3  H    0.221607
     4  H    0.236955
     5  Kr   0.004839
 Sum of Mulliken atomic charges =   0.00000
 Mulliken charges with hydrogens summed into heavy atoms:
              1
     1  O    0.002515
     2  O   -0.007354
     5  Kr   0.004839
 Sum of Mulliken charges with hydrogens summed into heavy atoms =   0.00000
          Condensed to fragments (all electrons):
     1      -0.004839
     2       0.004839
 Electronic spatial extent (au):  <R**2>=            323.2216
 Charge=              0.0000 electrons
 Dipole moment (field-independent basis, Debye):
    X=             -0.5470    Y=             -0.0929    Z=              1.2221  Tot=              1.3421
 Quadrupole moment (field-independent basis, Debye-Ang):
   XX=            -11.9928   YY=            -10.4903   ZZ=            -12.1565
   XY=             -3.6003   XZ=              3.3507   YZ=             -1.3285
 Traceless Quadrupole moment (field-independent basis, Debye-Ang):
   XX=             -0.4463   YY=              1.0562   ZZ=             -0.6100
   XY=             -3.6003   XZ=              3.3507   YZ=             -1.3285
 Octapole moment (field-independent basis, Debye-Ang**2):
  XXX=            -66.3634  YYY=             -1.3837  ZZZ=              0.9543  XYY=            -21.6011
  XXY=            -13.1518  XXZ=              9.2996  XZZ=            -23.7538  YZZ=             -1.3586
  YYZ=              1.6758  XYZ=             -3.7235
 Hexadecapole moment (field-independent basis, Debye-Ang**3):
 XXXX=           -271.5607 YYYY=            -45.1945 ZZZZ=            -11.7769 XXXY=            -36.7638
 XXXZ=             25.5098 YYYX=             -5.0202 YYYZ=             -1.7751 ZZZX=              2.0901
 ZZZY=             -1.0972 XXYY=            -52.6107 XXZZ=            -50.2714 YYZZ=            -10.5995
 XXYZ=            -10.2765 YYXZ=              4.2001 ZZXY=             -2.4387
 N-N= 3.660855733500D+01 E-N=-4.316741095940D+02  KE= 1.506360236586D+02
 No NMR shielding tensors so no spin-rotation constants.
 Leave Link  601 at Sun May  3 14:40:15 2020, MaxMem= 1073741824 cpu:       0.9
 (Enter /home/matheus/.gaussian/g09/l122.exe)
 Counterpoise: doing DCBS calculation for fragment   2 NewBq=T
 Leave Link  122 at Sun May  3 14:40:15 2020, MaxMem= 1073741824 cpu:       0.0
 (Enter /home/matheus/.gaussian/g09/l301.exe)
 Basis read from rwf:  (5D, 7F)
 No pseudopotential information found on rwf file.
 There are   197 symmetry adapted basis functions of A   symmetry.
 Integral buffers will be    131072 words long.
 Raffenetti 2 integral format.
 Two-electron integral symmetry is turned on.
   197 basis functions,   415 primitive gaussians,   229 cartesian basis functions
    18 alpha electrons       18 beta electrons
       nuclear repulsion energy         0.0000000000 Hartrees.
 IExCor= 4639 DFT=T Ex+Corr=wB97XD ExCW=0 ScaHFX=  1.000000
 ScaDFX=  1.000000  1.000000  1.000000  1.000000 ScalE2=  1.000000  1.000000
 IRadAn=      5 IRanWt=     -1 IRanGd=            0 ICorTp=0
  HFx wShort=  0.000000 wLong=  0.250000 cFull=  0.222036 cShort=  0.000000 cLong=  0.777964
  DFx wShort=  0.000000 wLong=  0.250000 cFull=  0.000000 cShort=  0.000000 cLong=  1.000000
 NAtoms=    5 NActive=    5 NUniq=    5 SFac= 1.00D+00 NAtFMM=   60 NAOKFM=F Big=F
 R6Disp: Dispersion energy =         0.0000000000 Hartrees.
 Nuclear repulsion after empirical dispersion term =        0.0000000000 Hartrees.
 No density basis found on file   718.
 Leave Link  301 at Sun May  3 14:40:15 2020, MaxMem= 1073741824 cpu:       0.2
 (Enter /home/matheus/.gaussian/g09/l302.exe)
 NPDir=0 NMtPBC=     1 NCelOv=     1 NCel=       1 NClECP=     1 NCelD=      1
         NCelK=      1 NCelE2=     1 NClLst=     1 CellRange=     0.0.
 One-electron integrals computed using PRISM.
 NBasis=   197 RedAO= T  NBF=   197
 NBsUse=   197 1.00D-06 NBFU=   197
 Precomputing XC quadrature grid using
 IXCGrd= 2 IRadAn=           5 IRanWt=          -1 IRanGd=           0 AccXCQ= 0.00D+00.
 NRdTot=     427 NPtTot=      123512 NUsed=      126579 NTot=      126611
 NSgBfM=   229   229   229   229   229 NAtAll=     5     5.
 Leave Link  302 at Sun May  3 14:40:15 2020, MaxMem= 1073741824 cpu:       1.2
 (Enter /home/matheus/.gaussian/g09/l303.exe)
 DipDrv:  MaxL=1.
 Leave Link  303 at Sun May  3 14:40:15 2020, MaxMem= 1073741824 cpu:       0.2
 (Enter /home/matheus/.gaussian/g09/l401.exe)
 Harris functional with IExCor= 4639 diagonalized for initial guess.
 ExpMin= 2.53D-02 ExpMax= 1.17D+07 ExpMxC= 1.33D+04 IAcc=3 IRadAn=         5 AccDes= 0.00D+00
 HarFok:  IExCor= 4639 AccDes= 0.00D+00 IRadAn=         5 IDoV= 1
 ScaDFX=  1.000000  1.000000  1.000000  1.000000
 FoFCou: FMM=F IPFlag=           0 FMFlag=      100000 FMFlg1=           0
         NFxFlg=           0 DoJE=T BraDBF=F KetDBF=T FulRan=T
         Omega=  0.000000  0.000000  1.000000  0.000000  0.000000 ICntrl=     500 IOpCl=  0
         NMat0=    1 NMatS0=    1 NMatT0=    0 NMatD0=    1 NMtDS0=    0 NMtDT0=    0
         I1Cent=           4 NGrid=           0.
 Petite list used in FoFCou.
 Harris En= -2729.46037428246    
 Initial guess orbital symmetries:
       Occupied  (A) (A) (A) (A) (A) (A) (A) (A) (A) (A) (A) (A)
                 (A) (A) (A) (A) (A) (A)
       Virtual   (A) (A) (A) (A) (A) (A) (A) (A) (A) (A) (A) (A)
                 (A) (A) (A) (A) (A) (A) (A) (A) (A) (A) (A) (A)
                 (A) (A) (A) (A) (A) (A) (A) (A) (A) (A) (A) (A)
                 (A) (A) (A) (A) (A) (A) (A) (A) (A) (A) (A) (A)
                 (A) (A) (A) (A) (A) (A) (A) (A) (A) (A) (A) (A)
                 (A) (A) (A) (A) (A) (A) (A) (A) (A) (A) (A) (A)
                 (A) (A) (A) (A) (A) (A) (A) (A) (A) (A) (A) (A)
                 (A) (A) (A) (A) (A) (A) (A) (A) (A) (A) (A) (A)
                 (A) (A) (A) (A) (A) (A) (A) (A) (A) (A) (A) (A)
                 (A) (A) (A) (A) (A) (A) (A) (A) (A) (A) (A) (A)
                 (A) (A) (A) (A) (A) (A) (A) (A) (A) (A) (A) (A)
                 (A) (A) (A) (A) (A) (A) (A) (A) (A) (A) (A) (A)
                 (A) (A) (A) (A) (A) (A) (A) (A) (A) (A) (A) (A)
                 (A) (A) (A) (A) (A) (A) (A) (A) (A) (A) (A) (A)
                 (A) (A) (A) (A) (A) (A) (A) (A) (A) (A) (A)
 The electronic state of the initial guess is 1-A.
 Leave Link  401 at Sun May  3 14:40:16 2020, MaxMem= 1073741824 cpu:       5.3
 (Enter /home/matheus/.gaussian/g09/l502.exe)
 Closed shell SCF:
 Requested convergence on RMS density matrix=1.00D-08 within 128 cycles.
 Requested convergence on MAX density matrix=1.00D-06.
 Requested convergence on             energy=1.00D-06.
 No special actions if energy rises.
 Using DIIS extrapolation, IDIIS=  1040.
 Integral symmetry usage will be decided dynamically.
       126521 words used for storage of precomputed grid.
 IEnd=      305468 IEndB=      305468 NGot=  1073741824 MDV=  1073505667
 LenX=  1073505667 LenY=  1073452785
 Fock matrices will be formed incrementally for  20 cycles.

 Cycle   1  Pass 1  IDiag  1:
 FoFJK:  IHMeth= 1 ICntrl=     0 DoSepK=T KAlg= 1 I1Cent= 0 FoldK=F
 FoFCou: FMM=F IPFlag=           0 FMFlag=      100000 FMFlg1=           0
         NFxFlg=           0 DoJE=T BraDBF=F KetDBF=F FulRan=T
         Omega=  0.000000  0.000000  1.000000  0.000000  0.000000 ICntrl=     500 IOpCl=  0
         NMat0=    1 NMatS0=    1 NMatT0=    0 NMatD0=    1 NMtDS0=    0 NMtDT0=    0
         I1Cent=           0 NGrid=           0.
 Symmetry not used in FoFCou.
 E= -2753.44670933564    
 DIIS: error= 7.35D-02 at cycle   1 NSaved=   1.
 NSaved= 1 IEnMin= 1 EnMin= -2753.44670933564     IErMin= 1 ErrMin= 7.35D-02
 ErrMax= 7.35D-02 EMaxC= 1.00D-01 BMatC= 1.90D+00 BMatP= 1.90D+00
 IDIUse=3 WtCom= 2.65D-01 WtEn= 7.35D-01
 Coeff-Com:  0.100D+01
 Coeff-En:   0.100D+01
 Coeff:      0.100D+01
 Gap=     0.654 Goal=   None    Shift=    0.000
 GapD=    0.654 DampG=2.000 DampE=0.500 DampFc=1.0000 IDamp=-1.
 RMSDP=5.63D-03 MaxDP=3.67D-01              OVMax= 1.83D-01

 Cycle   2  Pass 1  IDiag  1:
 RMSU=  3.92D-03    CP:  1.04D+00
 FoFJK:  IHMeth= 1 ICntrl=     0 DoSepK=T KAlg= 1 I1Cent= 0 FoldK=F
 E= -2753.72378660941     Delta-E=       -0.277077273773 Rises=F Damp=F
 DIIS: error= 3.56D-02 at cycle   2 NSaved=   2.
 NSaved= 2 IEnMin= 2 EnMin= -2753.72378660941     IErMin= 2 ErrMin= 3.56D-02
 ErrMax= 3.56D-02 EMaxC= 1.00D-01 BMatC= 4.66D-01 BMatP= 1.90D+00
 IDIUse=3 WtCom= 6.44D-01 WtEn= 3.56D-01
 Coeff-Com:  0.326D+00 0.674D+00
 Coeff-En:   0.160D+00 0.840D+00
 Coeff:      0.267D+00 0.733D+00
 Gap=     0.489 Goal=   None    Shift=    0.000
 RMSDP=2.54D-03 MaxDP=1.61D-01 DE=-2.77D-01 OVMax= 7.74D-02

 Cycle   3  Pass 1  IDiag  1:
 RMSU=  3.70D-04    CP:  1.03D+00  5.57D-01
 FoFJK:  IHMeth= 1 ICntrl=     0 DoSepK=T KAlg= 1 I1Cent= 0 FoldK=F
 E= -2753.86651467728     Delta-E=       -0.142728067867 Rises=F Damp=F
 DIIS: error= 5.45D-03 at cycle   3 NSaved=   3.
 NSaved= 3 IEnMin= 3 EnMin= -2753.86651467728     IErMin= 3 ErrMin= 5.45D-03
 ErrMax= 5.45D-03 EMaxC= 1.00D-01 BMatC= 1.20D-02 BMatP= 4.66D-01
 IDIUse=3 WtCom= 9.45D-01 WtEn= 5.45D-02
 Coeff-Com: -0.830D-02 0.125D+00 0.883D+00
 Coeff-En:   0.000D+00 0.000D+00 0.100D+01
 Coeff:     -0.785D-02 0.118D+00 0.889D+00
 Gap=     0.517 Goal=   None    Shift=    0.000
 RMSDP=3.24D-04 MaxDP=1.90D-02 DE=-1.43D-01 OVMax= 1.29D-02

 Cycle   4  Pass 1  IDiag  1:
 RMSU=  4.34D-05    CP:  1.03D+00  6.13D-01  9.64D-01
 FoFJK:  IHMeth= 1 ICntrl=     0 DoSepK=T KAlg= 1 I1Cent= 0 FoldK=F
 E= -2753.87021543374     Delta-E=       -0.003700756456 Rises=F Damp=F
 DIIS: error= 2.67D-04 at cycle   4 NSaved=   4.
 NSaved= 4 IEnMin= 4 EnMin= -2753.87021543374     IErMin= 4 ErrMin= 2.67D-04
 ErrMax= 2.67D-04 EMaxC= 1.00D-01 BMatC= 2.19D-05 BMatP= 1.20D-02
 IDIUse=3 WtCom= 9.97D-01 WtEn= 2.67D-03
 Coeff-Com: -0.235D-03-0.180D-01-0.655D-01 0.108D+01
 Coeff-En:   0.000D+00 0.000D+00 0.000D+00 0.100D+01
 Coeff:     -0.235D-03-0.180D-01-0.653D-01 0.108D+01
 Gap=     0.515 Goal=   None    Shift=    0.000
 RMSDP=2.49D-05 MaxDP=8.88D-04 DE=-3.70D-03 OVMax= 9.51D-04

 Cycle   5  Pass 1  IDiag  1:
 RMSU=  9.05D-06    CP:  1.03D+00  6.11D-01  9.85D-01  1.22D+00
 FoFJK:  IHMeth= 1 ICntrl=     0 DoSepK=T KAlg= 1 I1Cent= 0 FoldK=F
 E= -2753.87022628195     Delta-E=       -0.000010848208 Rises=F Damp=F
 DIIS: error= 1.38D-05 at cycle   5 NSaved=   5.
 NSaved= 5 IEnMin= 5 EnMin= -2753.87022628195     IErMin= 5 ErrMin= 1.38D-05
 ErrMax= 1.38D-05 EMaxC= 1.00D-01 BMatC= 5.45D-08 BMatP= 2.19D-05
 IDIUse=1 WtCom= 1.00D+00 WtEn= 0.00D+00
 Coeff-Com:  0.685D-04 0.135D-02 0.388D-03-0.202D+00 0.120D+01
 Coeff:      0.685D-04 0.135D-02 0.388D-03-0.202D+00 0.120D+01
 Gap=     0.515 Goal=   None    Shift=    0.000
 RMSDP=3.96D-06 MaxDP=1.53D-04 DE=-1.08D-05 OVMax= 2.18D-04

 Cycle   6  Pass 1  IDiag  1:
 RMSU=  7.89D-07    CP:  1.03D+00  6.11D-01  9.88D-01  1.26D+00  1.19D+00
 FoFJK:  IHMeth= 1 ICntrl=     0 DoSepK=T KAlg= 1 I1Cent= 0 FoldK=F
 E= -2753.87022643615     Delta-E=       -0.000000154201 Rises=F Damp=F
 DIIS: error= 1.36D-06 at cycle   6 NSaved=   6.
 NSaved= 6 IEnMin= 6 EnMin= -2753.87022643615     IErMin= 6 ErrMin= 1.36D-06
 ErrMax= 1.36D-06 EMaxC= 1.00D-01 BMatC= 5.16D-10 BMatP= 5.45D-08
 IDIUse=1 WtCom= 1.00D+00 WtEn= 0.00D+00
 Coeff-Com:  0.617D-05 0.323D-03 0.505D-03-0.407D-01 0.189D+00 0.850D+00
 Coeff:      0.617D-05 0.323D-03 0.505D-03-0.407D-01 0.189D+00 0.850D+00
 Gap=     0.515 Goal=   None    Shift=    0.000
 RMSDP=2.09D-07 MaxDP=7.58D-06 DE=-1.54D-07 OVMax= 9.52D-06

 Cycle   7  Pass 1  IDiag  1:
 RMSU=  6.85D-08    CP:  1.03D+00  6.11D-01  9.88D-01  1.26D+00  1.20D+00
                    CP:  1.11D+00
 FoFJK:  IHMeth= 1 ICntrl=     0 DoSepK=T KAlg= 1 I1Cent= 0 FoldK=F
 E= -2753.87022643670     Delta-E=       -0.000000000558 Rises=F Damp=F
 DIIS: error= 1.74D-07 at cycle   7 NSaved=   7.
 NSaved= 7 IEnMin= 7 EnMin= -2753.87022643670     IErMin= 7 ErrMin= 1.74D-07
 ErrMax= 1.74D-07 EMaxC= 1.00D-01 BMatC= 2.22D-11 BMatP= 5.16D-10
 IDIUse=1 WtCom= 1.00D+00 WtEn= 0.00D+00
 Coeff-Com: -0.166D-05 0.875D-05 0.124D-03 0.191D-02-0.200D-01 0.106D+00
 Coeff-Com:  0.912D+00
 Coeff:     -0.166D-05 0.875D-05 0.124D-03 0.191D-02-0.200D-01 0.106D+00
 Coeff:      0.912D+00
 Gap=     0.515 Goal=   None    Shift=    0.000
 RMSDP=5.33D-08 MaxDP=2.11D-06 DE=-5.58D-10 OVMax= 1.99D-06

 Cycle   8  Pass 1  IDiag  1:
 RMSU=  1.59D-08    CP:  1.03D+00  6.11D-01  9.88D-01  1.26D+00  1.20D+00
                    CP:  1.15D+00  1.10D+00
 FoFJK:  IHMeth= 1 ICntrl=     0 DoSepK=T KAlg= 1 I1Cent= 0 FoldK=F
 E= -2753.87022643671     Delta-E=       -0.000000000011 Rises=F Damp=F
 DIIS: error= 4.64D-08 at cycle   8 NSaved=   8.
 NSaved= 8 IEnMin= 8 EnMin= -2753.87022643671     IErMin= 8 ErrMin= 4.64D-08
 ErrMax= 4.64D-08 EMaxC= 1.00D-01 BMatC= 1.29D-12 BMatP= 2.22D-11
 IDIUse=1 WtCom= 1.00D+00 WtEn= 0.00D+00
 Coeff-Com: -0.526D-07-0.471D-05 0.134D-04 0.144D-02-0.767D-02-0.142D-01
 Coeff-Com:  0.112D+00 0.908D+00
 Coeff:     -0.526D-07-0.471D-05 0.134D-04 0.144D-02-0.767D-02-0.142D-01
 Coeff:      0.112D+00 0.908D+00
 Gap=     0.515 Goal=   None    Shift=    0.000
 RMSDP=1.19D-08 MaxDP=4.41D-07 DE=-1.14D-11 OVMax= 3.42D-07

 Cycle   9  Pass 1  IDiag  1:
 RMSU=  2.34D-09    CP:  1.03D+00  6.11D-01  9.88D-01  1.26D+00  1.20D+00
                    CP:  1.16D+00  1.15D+00  1.10D+00
 FoFJK:  IHMeth= 1 ICntrl=     0 DoSepK=T KAlg= 1 I1Cent= 0 FoldK=F
 E= -2753.87022643674     Delta-E=       -0.000000000025 Rises=F Damp=F
 DIIS: error= 7.62D-09 at cycle   9 NSaved=   9.
 NSaved= 9 IEnMin= 9 EnMin= -2753.87022643674     IErMin= 9 ErrMin= 7.62D-09
 ErrMax= 7.62D-09 EMaxC= 1.00D-01 BMatC= 8.62D-15 BMatP= 1.29D-12
 IDIUse=1 WtCom= 1.00D+00 WtEn= 0.00D+00
 Coeff-Com:  0.104D-07 0.913D-07-0.235D-05-0.123D-03 0.649D-03 0.111D-03
 Coeff-Com: -0.229D-01-0.872D-01 0.111D+01
 Coeff:      0.104D-07 0.913D-07-0.235D-05-0.123D-03 0.649D-03 0.111D-03
 Coeff:     -0.229D-01-0.872D-01 0.111D+01
 Gap=     0.515 Goal=   None    Shift=    0.000
 RMSDP=1.63D-09 MaxDP=6.36D-08 DE=-2.50D-11 OVMax= 9.50D-08

 SCF Done:  E(RwB97XD) =  -2753.87022644     A.U. after    9 cycles
             Convg  =    0.1634D-08             -V/T =  2.0013
 KE= 2.750247286091D+03 PE=-6.580155961501D+03 EE= 1.076038448974D+03
 Leave Link  502 at Sun May  3 14:40:54 2020, MaxMem= 1073741824 cpu:     306.7
 (Enter /home/matheus/.gaussian/g09/l601.exe)
 Copying SCF densities to generalized density rwf, IOpCl= 0 IROHF=0.

 **********************************************************************

            Population analysis using the SCF density.

 **********************************************************************

 Orbital symmetries:
       Occupied  (A) (A) (A) (A) (A) (A) (A) (A) (A) (A) (A) (A)
                 (A) (A) (A) (A) (A) (A)
       Virtual   (A) (A) (A) (A) (A) (A) (A) (A) (A) (A) (A) (A)
                 (A) (A) (A) (A) (A) (A) (A) (A) (A) (A) (A) (A)
                 (A) (A) (A) (A) (A) (A) (A) (A) (A) (A) (A) (A)
                 (A) (A) (A) (A) (A) (A) (A) (A) (A) (A) (A) (A)
                 (A) (A) (A) (A) (A) (A) (A) (A) (A) (A) (A) (A)
                 (A) (A) (A) (A) (A) (A) (A) (A) (A) (A) (A) (A)
                 (A) (A) (A) (A) (A) (A) (A) (A) (A) (A) (A) (A)
                 (A) (A) (A) (A) (A) (A) (A) (A) (A) (A) (A) (A)
                 (A) (A) (A) (A) (A) (A) (A) (A) (A) (A) (A) (A)
                 (A) (A) (A) (A) (A) (A) (A) (A) (A) (A) (A) (A)
                 (A) (A) (A) (A) (A) (A) (A) (A) (A) (A) (A) (A)
                 (A) (A) (A) (A) (A) (A) (A) (A) (A) (A) (A) (A)
                 (A) (A) (A) (A) (A) (A) (A) (A) (A) (A) (A) (A)
                 (A) (A) (A) (A) (A) (A) (A) (A) (A) (A) (A) (A)
                 (A) (A) (A) (A) (A) (A) (A) (A) (A) (A) (A)
 The electronic state is 1-A.
 Alpha  occ. eigenvalues -- -513.08050 -67.34865 -60.89737 -60.89736 -60.89736
 Alpha  occ. eigenvalues --   -9.80180  -7.49479  -7.49479  -7.49478  -3.36164
 Alpha  occ. eigenvalues --   -3.36164  -3.36164  -3.36163  -3.36163  -1.00829
 Alpha  occ. eigenvalues --   -0.48267  -0.48264  -0.48263
 Alpha virt. eigenvalues --    0.03199   0.05152   0.08722   0.09900   0.11655
 Alpha virt. eigenvalues --    0.12573   0.13457   0.14426   0.16644   0.17369
 Alpha virt. eigenvalues --    0.18004   0.19816   0.21006   0.25402   0.26636
 Alpha virt. eigenvalues --    0.27005   0.28297   0.31388   0.33145   0.34813
 Alpha virt. eigenvalues --    0.35864   0.37205   0.38085   0.39115   0.41655
 Alpha virt. eigenvalues --    0.41876   0.43078   0.52540   0.53869   0.57424
 Alpha virt. eigenvalues --    0.58563   0.66409   0.67399   0.70268   0.72172
 Alpha virt. eigenvalues --    0.74340   0.74751   0.76100   0.76548   0.78956
 Alpha virt. eigenvalues --    0.79565   0.79754   0.83641   0.85466   0.86123
 Alpha virt. eigenvalues --    0.87199   0.88357   0.89307   0.91409   0.94375
 Alpha virt. eigenvalues --    0.97152   0.98630   0.99761   1.01843   1.02441
 Alpha virt. eigenvalues --    1.04596   1.06333   1.07901   1.11239   1.12139
 Alpha virt. eigenvalues --    1.14581   1.18822   1.21555   1.22975   1.28553
 Alpha virt. eigenvalues --    1.32637   1.35542   1.40614   1.43686   1.44030
 Alpha virt. eigenvalues --    1.55719   1.58298   1.59814   1.72016   1.79155
 Alpha virt. eigenvalues --    1.80575   1.84719   1.87246   1.94079   2.15817
 Alpha virt. eigenvalues --    2.19465   2.25477   2.27587   2.30301   2.30508
 Alpha virt. eigenvalues --    2.31836   2.32866   2.35789   2.37577   2.40849
 Alpha virt. eigenvalues --    2.44686   2.47337   2.47695   2.48179   2.48563
 Alpha virt. eigenvalues --    2.51129   2.53157   2.55249   2.55696   2.58834
 Alpha virt. eigenvalues --    2.62049   2.63258   2.63776   2.66041   2.68977
 Alpha virt. eigenvalues --    2.72427   2.75805   2.82711   2.86218   2.88208
 Alpha virt. eigenvalues --    2.93397   2.95120   3.04497   3.13169   3.19754
 Alpha virt. eigenvalues --    3.22742   3.28003   3.33857   3.34380   3.51077
 Alpha virt. eigenvalues --    3.61714   3.67163   3.83109   3.87800   4.04200
 Alpha virt. eigenvalues --    4.36352   4.49292   4.52662   4.57336   4.60549
 Alpha virt. eigenvalues --    4.72632   4.88263   4.88748   4.94693   5.02475
 Alpha virt. eigenvalues --    5.16323   5.18180   5.59440   5.64269   5.79036
 Alpha virt. eigenvalues --    5.98921   6.00925   6.17609   6.76474   6.88930
 Alpha virt. eigenvalues --    7.36038   7.40169   7.62972   7.66309   7.71016
 Alpha virt. eigenvalues --    7.87346   7.97022   8.11314   8.18295   8.22272
 Alpha virt. eigenvalues --    8.39413   8.43142   8.62879   8.88750   9.63541
 Alpha virt. eigenvalues --    9.72804   9.82381   9.89481   9.96509  10.02788
 Alpha virt. eigenvalues --   10.16338  10.29100  10.44558  10.96060  11.52012
 Alpha virt. eigenvalues --   11.64052  11.67815  12.05312  12.08878  13.27524
 Alpha virt. eigenvalues --   13.62304  14.54531  62.70594  64.61978
          Condensed to atoms (all electrons):
              1          2          3          4          5
     1  O    0.003051  -0.001994  -0.001886   0.001260  -0.011431
     2  O   -0.001994   0.005242   0.000625  -0.003321  -0.002392
     3  H   -0.001886   0.000625   0.001467  -0.000423   0.003827
     4  H    0.001260  -0.003321  -0.000423   0.003211  -0.019487
     5  Kr  -0.011431  -0.002392   0.003827  -0.019487  36.057472
 Mulliken atomic charges:
              1
     1  O    0.011000
     2  O    0.001840
     3  H   -0.003610
     4  H    0.018760
     5  Kr  -0.027989
 Sum of Mulliken atomic charges =   0.00000
 Mulliken charges with hydrogens summed into heavy atoms:
              1
     1  O    0.007390
     2  O    0.020599
     5  Kr  -0.027989
 Sum of Mulliken charges with hydrogens summed into heavy atoms =   0.00000
          Condensed to fragments (all electrons):
     1       0.027989
     2      -0.027989
 Electronic spatial extent (au):  <R**2>=            166.3952
 Charge=              0.0000 electrons
 Dipole moment (field-independent basis, Debye):
    X=              0.0008    Y=              0.0006    Z=              0.0001  Tot=              0.0010
 Quadrupole moment (field-independent basis, Debye-Ang):
   XX=            -17.6431   YY=            -17.6540   ZZ=            -17.6607
   XY=              0.0045   XZ=             -0.0003   YZ=              0.0004
 Traceless Quadrupole moment (field-independent basis, Debye-Ang):
   XX=              0.0095   YY=             -0.0014   ZZ=             -0.0081
   XY=              0.0045   XZ=             -0.0003   YZ=              0.0004
 Octapole moment (field-independent basis, Debye-Ang**2):
  XXX=             52.6025  YYY=              0.8543  ZZZ=             -0.1511  XYY=             17.5467
  XXY=              0.2754  XXZ=             -0.0505  XZZ=             17.5505  YZZ=              0.2857
  YYZ=             -0.0499  XYZ=             -0.0003
 Hexadecapole moment (field-independent basis, Debye-Ang**3):
 XXXX=           -123.0147 YYYY=            -18.5020 ZZZZ=            -18.4964 XXXY=             -0.8276
 XXXZ=              0.1507 YYYX=             -0.8349 YYYZ=              0.0016 ZZZX=              0.1506
 ZZZY=              0.0036 XXYY=            -23.5980 XXZZ=            -23.5988 YYZZ=             -6.1647
 XXYZ=              0.0014 YYXZ=              0.0502 ZZXY=             -0.2766
 N-N= 0.000000000000D+00 E-N=-6.580155960295D+03  KE= 2.750247286091D+03
 No NMR shielding tensors so no spin-rotation constants.
 Leave Link  601 at Sun May  3 14:40:54 2020, MaxMem= 1073741824 cpu:       0.8
 (Enter /home/matheus/.gaussian/g09/l122.exe)
 Counterpoise: doing MCBS calculation for fragment   1
 Leave Link  122 at Sun May  3 14:40:54 2020, MaxMem= 1073741824 cpu:       0.0
 (Enter /home/matheus/.gaussian/g09/l301.exe)
 Basis read from rwf:  (5D, 7F)
 No pseudopotential information found on rwf file.
 There are   138 symmetry adapted basis functions of A   symmetry.
 Integral buffers will be    131072 words long.
 Raffenetti 2 integral format.
 Two-electron integral symmetry is turned on.
   138 basis functions,   198 primitive gaussians,   160 cartesian basis functions
     9 alpha electrons        9 beta electrons
       nuclear repulsion energy        36.6087755249 Hartrees.
 IExCor= 4639 DFT=T Ex+Corr=wB97XD ExCW=0 ScaHFX=  1.000000
 ScaDFX=  1.000000  1.000000  1.000000  1.000000 ScalE2=  1.000000  1.000000
 IRadAn=      5 IRanWt=     -1 IRanGd=            0 ICorTp=0
  HFx wShort=  0.000000 wLong=  0.250000 cFull=  0.222036 cShort=  0.000000 cLong=  0.777964
  DFx wShort=  0.000000 wLong=  0.250000 cFull=  0.000000 cShort=  0.000000 cLong=  1.000000
 NAtoms=    5 NActive=    4 NUniq=    4 SFac= 1.00D+00 NAtFMM=   60 NAOKFM=F Big=F
 R6Disp: Dispersion energy =        -0.0002181899 Hartrees.
 Nuclear repulsion after empirical dispersion term =       36.6085573350 Hartrees.
 No density basis found on file   718.
 Leave Link  301 at Sun May  3 14:40:54 2020, MaxMem= 1073741824 cpu:       0.3
 (Enter /home/matheus/.gaussian/g09/l302.exe)
 NPDir=0 NMtPBC=     1 NCelOv=     1 NCel=       1 NClECP=     1 NCelD=      1
         NCelK=      1 NCelE2=     1 NClLst=     1 CellRange=     0.0.
 One-electron integrals computed using PRISM.
 NBasis=   138 RedAO= T  NBF=   138
 NBsUse=   138 1.00D-06 NBFU=   138
 Precomputing XC quadrature grid using
 IXCGrd= 2 IRadAn=           5 IRanWt=          -1 IRanGd=           0 AccXCQ= 0.00D+00.
 NRdTot=     344 NPtTot=       92556 NUsed=       95038 NTot=       95070
 NSgBfM=   160   160   160   160   160 NAtAll=     4     4.
 Leave Link  302 at Sun May  3 14:40:54 2020, MaxMem= 1073741824 cpu:       0.9
 (Enter /home/matheus/.gaussian/g09/l303.exe)
 DipDrv:  MaxL=1.
 Leave Link  303 at Sun May  3 14:40:54 2020, MaxMem= 1073741824 cpu:       0.2
 (Enter /home/matheus/.gaussian/g09/l401.exe)
 Harris functional with IExCor= 4639 diagonalized for initial guess.
 ExpMin= 2.53D-02 ExpMax= 1.53D+04 ExpMxC= 5.22D+02 IAcc=3 IRadAn=         5 AccDes= 0.00D+00
 HarFok:  IExCor= 4639 AccDes= 0.00D+00 IRadAn=         5 IDoV= 1
 ScaDFX=  1.000000  1.000000  1.000000  1.000000
 FoFCou: FMM=F IPFlag=           0 FMFlag=      100000 FMFlg1=           0
         NFxFlg=           0 DoJE=T BraDBF=F KetDBF=T FulRan=T
         Omega=  0.000000  0.000000  1.000000  0.000000  0.000000 ICntrl=     500 IOpCl=  0
         NMat0=    1 NMatS0=    1 NMatT0=    0 NMatD0=    1 NMtDS0=    0 NMtDT0=    0
         I1Cent=           4 NGrid=           0.
 Petite list used in FoFCou.
 Harris En= -145.945112559589    
 Initial guess orbital symmetries:
       Occupied  (A) (A) (A) (A) (A) (A) (A) (A) (A)
       Virtual   (A) (A) (A) (A) (A) (A) (A) (A) (A) (A) (A) (A)
                 (A) (A) (A) (A) (A) (A) (A) (A) (A) (A) (A) (A)
                 (A) (A) (A) (A) (A) (A) (A) (A) (A) (A) (A) (A)
                 (A) (A) (A) (A) (A) (A) (A) (A) (A) (A) (A) (A)
                 (A) (A) (A) (A) (A) (A) (A) (A) (A) (A) (A) (A)
                 (A) (A) (A) (A) (A) (A) (A) (A) (A) (A) (A) (A)
                 (A) (A) (A) (A) (A) (A) (A) (A) (A) (A) (A) (A)
                 (A) (A) (A) (A) (A) (A) (A) (A) (A) (A) (A) (A)
                 (A) (A) (A) (A) (A) (A) (A) (A) (A) (A) (A) (A)
                 (A) (A) (A) (A) (A) (A) (A) (A) (A) (A) (A) (A)
                 (A) (A) (A) (A) (A) (A) (A) (A) (A)
 The electronic state of the initial guess is 1-A.
 Leave Link  401 at Sun May  3 14:40:55 2020, MaxMem= 1073741824 cpu:       2.8
 (Enter /home/matheus/.gaussian/g09/l502.exe)
 Closed shell SCF:
 Requested convergence on RMS density matrix=1.00D-08 within 128 cycles.
 Requested convergence on MAX density matrix=1.00D-06.
 Requested convergence on             energy=1.00D-06.
 No special actions if energy rises.
 Using DIIS extrapolation, IDIIS=  1040.
 Integral symmetry usage will be decided dynamically.
        94980 words used for storage of precomputed grid.
[...]
 ErrMax= 3.36D-06 EMaxC= 1.00D-01 BMatC= 3.65D-09 BMatP= 3.73D-06
 IDIUse=1 WtCom= 1.00D+00 WtEn= 0.00D+00
 Coeff-Com: -0.929D-02 0.101D+01
 Coeff:     -0.929D-02 0.101D+01
 Gap=     0.512 Goal=   None    Shift=    0.000
 RMSDP=1.88D-06 MaxDP=7.48D-05 DE=-4.96D-07 OVMax= 4.87D-05

 Cycle   3  Pass 1  IDiag  1:
 RMSU=  4.86D-07    CP:  1.00D+00  1.09D+00
 FoFJK:  IHMeth= 1 ICntrl=     0 DoSepK=T KAlg= 1 I1Cent= 0 FoldK=F
 E= -2753.87012703408     Delta-E=       -0.000000006721 Rises=F Damp=F
 DIIS: error= 4.59D-07 at cycle   3 NSaved=   3.
 NSaved= 3 IEnMin= 3 EnMin= -2753.87012703408     IErMin= 3 ErrMin= 4.59D-07
 ErrMax= 4.59D-07 EMaxC= 1.00D-01 BMatC= 9.07D-11 BMatP= 3.65D-09
 IDIUse=1 WtCom= 1.00D+00 WtEn= 0.00D+00
 Coeff-Com:  0.293D-03-0.130D+00 0.113D+01
 Coeff:      0.293D-03-0.130D+00 0.113D+01
 Gap=     0.512 Goal=   None    Shift=    0.000
 RMSDP=2.22D-07 MaxDP=7.99D-06 DE=-6.72D-09 OVMax= 9.92D-06

 Cycle   4  Pass 1  IDiag  1:
 RMSU=  5.41D-08    CP:  1.00D+00  1.10D+00  1.21D+00
 FoFJK:  IHMeth= 1 ICntrl=     0 DoSepK=T KAlg= 1 I1Cent= 0 FoldK=F
 E= -2753.87012703426     Delta-E=       -0.000000000180 Rises=F Damp=F
 DIIS: error= 2.85D-07 at cycle   4 NSaved=   4.
 NSaved= 4 IEnMin= 4 EnMin= -2753.87012703426     IErMin= 4 ErrMin= 2.85D-07
 ErrMax= 2.85D-07 EMaxC= 1.00D-01 BMatC= 7.28D-12 BMatP= 9.07D-11
 IDIUse=1 WtCom= 1.00D+00 WtEn= 0.00D+00
 Coeff-Com:  0.199D-03-0.467D-01 0.286D+00 0.761D+00
 Coeff:      0.199D-03-0.467D-01 0.286D+00 0.761D+00
 Gap=     0.512 Goal=   None    Shift=    0.000
 RMSDP=1.87D-08 MaxDP=9.13D-07 DE=-1.80D-10 OVMax= 1.09D-06

 Cycle   5  Pass 1  IDiag  1:
 RMSU=  7.70D-09    CP:  1.00D+00  1.10D+00  1.22D+00  1.12D+00
 FoFJK:  IHMeth= 1 ICntrl=     0 DoSepK=T KAlg= 1 I1Cent= 0 FoldK=F
 E= -2753.87012703428     Delta-E=       -0.000000000019 Rises=F Damp=F
 DIIS: error= 2.84D-08 at cycle   5 NSaved=   5.
 NSaved= 5 IEnMin= 5 EnMin= -2753.87012703428     IErMin= 5 ErrMin= 2.84D-08
 ErrMax= 2.84D-08 EMaxC= 1.00D-01 BMatC= 1.26D-13 BMatP= 7.28D-12
 IDIUse=1 WtCom= 1.00D+00 WtEn= 0.00D+00
 Coeff-Com: -0.280D-04 0.935D-02-0.723D-01-0.547D-01 0.112D+01
 Coeff:     -0.280D-04 0.935D-02-0.723D-01-0.547D-01 0.112D+01
 Gap=     0.512 Goal=   None    Shift=    0.000
 RMSDP=9.70D-09 MaxDP=5.92D-07 DE=-1.91D-11 OVMax= 4.18D-07

 SCF Done:  E(RwB97XD) =  -2753.87012703     A.U. after    5 cycles
             Convg  =    0.9697D-08             -V/T =  2.0013
 KE= 2.750283352867D+03 PE=-6.580194653460D+03 EE= 1.076041173559D+03
 Leave Link  502 at Sun May  3 15:12:11 2020, MaxMem= 1073741824 cpu:     105.8
 (Enter /home/matheus/.gaussian/g09/l122.exe)
 Restoring MOs from calculation   4 to rwf.
 Counterpoise: doing MCBS calculation for fragment   1
 Leave Link  122 at Sun May  3 15:12:11 2020, MaxMem= 1073741824 cpu:       0.0
 (Enter /home/matheus/.gaussian/g09/l301.exe)
 Basis read from rwf:  (5D, 7F)
 No pseudopotential information found on rwf file.
 There are   138 symmetry adapted basis functions of A   symmetry.
 Integral buffers will be    131072 words long.
 Raffenetti 2 integral format.
 Two-electron integral symmetry is turned on.
   138 basis functions,   198 primitive gaussians,   160 cartesian basis functions
     9 alpha electrons        9 beta electrons
       nuclear repulsion energy        36.6087755249 Hartrees.
 IExCor= 4639 DFT=T Ex+Corr=wB97XD ExCW=0 ScaHFX=  1.000000
 ScaDFX=  1.000000  1.000000  1.000000  1.000000 ScalE2=  1.000000  1.000000
 IRadAn=      5 IRanWt=     -1 IRanGd=            0 ICorTp=0
  HFx wShort=  0.000000 wLong=  0.250000 cFull=  0.222036 cShort=  0.000000 cLong=  0.777964
  DFx wShort=  0.000000 wLong=  0.250000 cFull=  0.000000 cShort=  0.000000 cLong=  1.000000
 NAtoms=    5 NActive=    4 NUniq=    4 SFac= 1.00D+00 NAtFMM=   60 NAOKFM=F Big=F
 R6Disp: Dispersion energy =        -0.0002181899 Hartrees.
 Nuclear repulsion after empirical dispersion term =       36.6085573350 Hartrees.
 No density basis found on file   718.
 Leave Link  301 at Sun May  3 15:12:11 2020, MaxMem= 1073741824 cpu:       0.2
 (Enter /home/matheus/.gaussian/g09/l302.exe)
 NPDir=0 NMtPBC=     1 NCelOv=     1 NCel=       1 NClECP=     1 NCelD=      1
         NCelK=      1 NCelE2=     1 NClLst=     1 CellRange=     0.0.
 One-electron integrals computed using PRISM.
 NBasis=   138 RedAO= T  NBF=   138
 NBsUse=   138 1.00D-06 NBFU=   138
 Precomputing XC quadrature grid using
 IXCGrd= 2 IRadAn=           5 IRanWt=          -1 IRanGd=           0 AccXCQ= 0.00D+00.
 NRdTot=     344 NPtTot=       92556 NUsed=       95038 NTot=       95070
 NSgBfM=   160   160   160   160   160 NAtAll=     4     4.
 Leave Link  302 at Sun May  3 15:12:11 2020, MaxMem= 1073741824 cpu:       0.8
 (Enter /home/matheus/.gaussian/g09/l303.exe)
 DipDrv:  MaxL=1.
 Leave Link  303 at Sun May  3 15:12:11 2020, MaxMem= 1073741824 cpu:       0.2
 (Enter /home/matheus/.gaussian/g09/l401.exe)
 Initial guess read from the read-write file.
 Guess basis will be translated and rotated to current coordinates.
 Initial guess orbital symmetries:
       Occupied  (A) (A) (A) (A) (A) (A) (A) (A) (A)
       Virtual   (A) (A) (A) (A) (A) (A) (A) (A) (A) (A) (A) (A)
                 (A) (A) (A) (A) (A) (A) (A) (A) (A) (A) (A) (A)
                 (A) (A) (A) (A) (A) (A) (A) (A) (A) (A) (A) (A)
                 (A) (A) (A) (A) (A) (A) (A) (A) (A) (A) (A) (A)
                 (A) (A) (A) (A) (A) (A) (A) (A) (A) (A) (A) (A)
                 (A) (A) (A) (A) (A) (A) (A) (A) (A) (A) (A) (A)
                 (A) (A) (A) (A) (A) (A) (A) (A) (A) (A) (A) (A)
                 (A) (A) (A) (A) (A) (A) (A) (A) (A) (A) (A) (A)
                 (A) (A) (A) (A) (A) (A) (A) (A) (A) (A) (A) (A)
                 (A) (A) (A) (A) (A) (A) (A) (A) (A) (A) (A) (A)
                 (A) (A) (A) (A) (A) (A) (A) (A) (A)
 The electronic state of the initial guess is 1-A.
 Generating alternative initial guess.
 Harris functional with IExCor= 4639 diagonalized for initial guess.
 ExpMin= 2.53D-02 ExpMax= 1.53D+04 ExpMxC= 5.22D+02 IAcc=3 IRadAn=         5 AccDes= 0.00D+00
 HarFok:  IExCor= 4639 AccDes= 0.00D+00 IRadAn=         5 IDoV= 1
 ScaDFX=  1.000000  1.000000  1.000000  1.000000
 FoFCou: FMM=F IPFlag=           0 FMFlag=      100000 FMFlg1=           0
         NFxFlg=           0 DoJE=T BraDBF=F KetDBF=T FulRan=T
         Omega=  0.000000  0.000000  1.000000  0.000000  0.000000 ICntrl=     500 IOpCl=  0
         NMat0=    1 NMatS0=    1 NMatT0=    0 NMatD0=    1 NMtDS0=    0 NMtDT0=    0
         I1Cent=           4 NGrid=           0.
 Petite list used in FoFCou.
 Harris En= -145.945112580246    
 Leave Link  401 at Sun May  3 15:12:12 2020, MaxMem= 1073741824 cpu:       2.7
 (Enter /home/matheus/.gaussian/g09/l502.exe)
 Closed shell SCF:
 Requested convergence on RMS density matrix=1.00D-08 within 128 cycles.
 Requested convergence on MAX density matrix=1.00D-06.
 Requested convergence on             energy=1.00D-06.
 No special actions if energy rises.
 Using DIIS extrapolation, IDIIS=  1040.
 Integral symmetry usage will be decided dynamically.
        94980 words used for storage of precomputed grid.
 IEnd=      192360 IEndB=      192360 NGot=  1073741824 MDV=  1073591865
 LenX=  1073591865 LenY=  1073565824
 Fock matrices will be formed incrementally for  20 cycles.

 Cycle   1  Pass 1  IDiag  1:
 FoFJK:  IHMeth= 1 ICntrl=     0 DoSepK=T KAlg= 1 I1Cent= 0 FoldK=F
 FoFCou: FMM=F IPFlag=           0 FMFlag=      100000 FMFlg1=           0
         NFxFlg=           0 DoJE=T BraDBF=F KetDBF=F FulRan=T
         Omega=  0.000000  0.000000  1.000000  0.000000  0.000000 ICntrl=     500 IOpCl=  0
         NMat0=    1 NMatS0=    1 NMatT0=    0 NMatD0=    1 NMtDS0=    0 NMtDT0=    0
         I1Cent=           0 NGrid=           0.
 Symmetry not used in FoFCou.
 E= -151.559359306553    
 DIIS: error= 1.78D-05 at cycle   1 NSaved=   1.
 NSaved= 1 IEnMin= 1 EnMin= -151.559359306553     IErMin= 1 ErrMin= 1.78D-05
 ErrMax= 1.78D-05 EMaxC= 1.00D-01 BMatC= 4.15D-08 BMatP= 4.15D-08
 IDIUse=1 WtCom= 1.00D+00 WtEn= 0.00D+00
 Coeff-Com:  0.100D+01
 Coeff:      0.100D+01
 Gap=     0.421 Goal=   None    Shift=    0.000
 RMSDP=1.20D-06 MaxDP=2.11D-05              OVMax= 7.73D-05

 Cycle   2  Pass 1  IDiag  1:
 RMSU=  8.51D-07    CP:  1.00D+00
 FoFJK:  IHMeth= 1 ICntrl=     0 DoSepK=T KAlg= 1 I1Cent= 0 FoldK=F
 E= -151.559359349654     Delta-E=       -0.000000043101 Rises=F Damp=F
 DIIS: error= 3.09D-06 at cycle   2 NSaved=   2.
 NSaved= 2 IEnMin= 2 EnMin= -151.559359349654     IErMin= 2 ErrMin= 3.09D-06
 ErrMax= 3.09D-06 EMaxC= 1.00D-01 BMatC= 1.44D-09 BMatP= 4.15D-08
 IDIUse=1 WtCom= 1.00D+00 WtEn= 0.00D+00
 Coeff-Com: -0.119D+00 0.112D+01
 Coeff:     -0.119D+00 0.112D+01
 Gap=     0.421 Goal=   None    Shift=    0.000
 RMSDP=3.90D-07 MaxDP=7.26D-06 DE=-4.31D-08 OVMax= 2.94D-05

 Cycle   3  Pass 1  IDiag  1:
 RMSU=  1.65D-07    CP:  1.00D+00  1.26D+00
 FoFJK:  IHMeth= 1 ICntrl=     0 DoSepK=T KAlg= 1 I1Cent= 0 FoldK=F
 E= -151.559359352895     Delta-E=       -0.000000003242 Rises=F Damp=F
 DIIS: error= 1.16D-06 at cycle   3 NSaved=   3.
 NSaved= 3 IEnMin= 3 EnMin= -151.559359352895     IErMin= 3 ErrMin= 1.16D-06
 ErrMax= 1.16D-06 EMaxC= 1.00D-01 BMatC= 2.36D-10 BMatP= 1.44D-09
 IDIUse=1 WtCom= 1.00D+00 WtEn= 0.00D+00
 Coeff-Com: -0.379D-01 0.192D+00 0.846D+00
 Coeff:     -0.379D-01 0.192D+00 0.846D+00
 Gap=     0.421 Goal=   None    Shift=    0.000
 RMSDP=1.23D-07 MaxDP=3.72D-06 DE=-3.24D-09 OVMax= 7.57D-06

 Cycle   4  Pass 1  IDiag  1:
 RMSU=  7.11D-08    CP:  1.00D+00  1.31D+00  1.15D+00
 FoFJK:  IHMeth= 1 ICntrl=     0 DoSepK=T KAlg= 1 I1Cent= 0 FoldK=F
 E= -151.559359353132     Delta-E=       -0.000000000237 Rises=F Damp=F
 DIIS: error= 1.00D-06 at cycle   4 NSaved=   4.
 NSaved= 4 IEnMin= 4 EnMin= -151.559359353132     IErMin= 4 ErrMin= 1.00D-06
 ErrMax= 1.00D-06 EMaxC= 1.00D-01 BMatC= 1.77D-10 BMatP= 2.36D-10
 IDIUse=1 WtCom= 1.00D+00 WtEn= 0.00D+00
 Coeff-Com:  0.443D-02-0.141D+00 0.499D+00 0.637D+00
 Coeff:      0.443D-02-0.141D+00 0.499D+00 0.637D+00
 Gap=     0.421 Goal=   None    Shift=    0.000
 RMSDP=6.62D-08 MaxDP=1.79D-06 DE=-2.37D-10 OVMax= 3.87D-06

 Cycle   5  Pass 1  IDiag  1:
 RMSU=  1.84D-08    CP:  1.00D+00  1.33D+00  1.36D+00  7.61D-01
 FoFJK:  IHMeth= 1 ICntrl=     0 DoSepK=T KAlg= 1 I1Cent= 0 FoldK=F
 E= -151.559359353284     Delta-E=       -0.000000000151 Rises=F Damp=F
 DIIS: error= 1.79D-07 at cycle   5 NSaved=   5.
 NSaved= 5 IEnMin= 5 EnMin= -151.559359353284     IErMin= 5 ErrMin= 1.79D-07
 ErrMax= 1.79D-07 EMaxC= 1.00D-01 BMatC= 4.25D-12 BMatP= 1.77D-10
 IDIUse=1 WtCom= 1.00D+00 WtEn= 0.00D+00
 Coeff-Com:  0.454D-02-0.457D-01-0.166D-01 0.939D-01 0.964D+00
 Coeff:      0.454D-02-0.457D-01-0.166D-01 0.939D-01 0.964D+00
 Gap=     0.421 Goal=   None    Shift=    0.000
 RMSDP=2.28D-08 MaxDP=3.47D-07 DE=-1.51D-10 OVMax= 2.05D-06

 Cycle   6  Pass 1  IDiag  1:
 RMSU=  6.80D-09    CP:  1.00D+00  1.34D+00  1.42D+00  8.64D-01  1.36D+00
 FoFJK:  IHMeth= 1 ICntrl=     0 DoSepK=T KAlg= 1 I1Cent= 0 FoldK=F
 E= -151.559359353295     Delta-E=       -0.000000000011 Rises=F Damp=F
 DIIS: error= 6.37D-08 at cycle   6 NSaved=   6.
 NSaved= 6 IEnMin= 6 EnMin= -151.559359353295     IErMin= 6 ErrMin= 6.37D-08
 ErrMax= 6.37D-08 EMaxC= 1.00D-01 BMatC= 4.86D-13 BMatP= 4.25D-12
 IDIUse=1 WtCom= 1.00D+00 WtEn= 0.00D+00
 Coeff-Com:  0.405D-03 0.352D-02-0.375D-01-0.310D-01 0.150D+00 0.914D+00
 Coeff:      0.405D-03 0.352D-02-0.375D-01-0.310D-01 0.150D+00 0.914D+00
 Gap=     0.421 Goal=   None    Shift=    0.000
 RMSDP=8.45D-09 MaxDP=1.76D-07 DE=-1.15D-11 OVMax= 8.32D-07

 SCF Done:  E(RwB97XD) =  -151.559359353     A.U. after    6 cycles
             Convg  =    0.8449D-08             -V/T =  2.0061
 KE= 1.506356310181D+02 PE=-4.316725930591D+02 EE= 9.286904535265D+01
 Leave Link  502 at Sun May  3 15:12:18 2020, MaxMem= 1073741824 cpu:      52.7
 (Enter /home/matheus/.gaussian/g09/l122.exe)
 Restoring MOs from calculation   5 to rwf.
 Counterpoise: doing MCBS calculation for fragment   2
 Leave Link  122 at Sun May  3 15:12:18 2020, MaxMem= 1073741824 cpu:       0.0
 (Enter /home/matheus/.gaussian/g09/l301.exe)
 Basis read from rwf:  (5D, 7F)
 No pseudopotential information found on rwf file.
 There are    59 symmetry adapted basis functions of A   symmetry.
 Integral buffers will be    131072 words long.
 Raffenetti 2 integral format.
 Two-electron integral symmetry is turned on.
    59 basis functions,   217 primitive gaussians,    69 cartesian basis functions
    18 alpha electrons       18 beta electrons
       nuclear repulsion energy         0.0000000000 Hartrees.
 IExCor= 4639 DFT=T Ex+Corr=wB97XD ExCW=0 ScaHFX=  1.000000
 ScaDFX=  1.000000  1.000000  1.000000  1.000000 ScalE2=  1.000000  1.000000
 IRadAn=      5 IRanWt=     -1 IRanGd=            0 ICorTp=0
  HFx wShort=  0.000000 wLong=  0.250000 cFull=  0.222036 cShort=  0.000000 cLong=  0.777964
  DFx wShort=  0.000000 wLong=  0.250000 cFull=  0.000000 cShort=  0.000000 cLong=  1.000000
 NAtoms=    5 NActive=    1 NUniq=    1 SFac= 1.00D+00 NAtFMM=   60 NAOKFM=F Big=F
 R6Disp: Dispersion energy =         0.0000000000 Hartrees.
 Nuclear repulsion after empirical dispersion term =        0.0000000000 Hartrees.
 No density basis found on file   718.
 Leave Link  301 at Sun May  3 15:12:18 2020, MaxMem= 1073741824 cpu:       0.2
 (Enter /home/matheus/.gaussian/g09/l302.exe)
 NPDir=0 NMtPBC=     1 NCelOv=     1 NCel=       1 NClECP=     1 NCelD=      1
         NCelK=      1 NCelE2=     1 NClLst=     1 CellRange=     0.0.
 One-electron integrals computed using PRISM.
 NBasis=    59 RedAO= T  NBF=    59
 NBsUse=    59 1.00D-06 NBFU=    59
 Precomputing XC quadrature grid using
 IXCGrd= 2 IRadAn=           5 IRanWt=          -1 IRanGd=           0 AccXCQ= 0.00D+00.
 NRdTot=      81 NPtTot=       30352 NUsed=       30981 NTot=       31013
 NSgBfM=    69    69    69    69    69 NAtAll=     1     1.
 Leave Link  302 at Sun May  3 15:12:18 2020, MaxMem= 1073741824 cpu:       0.7
 (Enter /home/matheus/.gaussian/g09/l303.exe)
 DipDrv:  MaxL=1.
 Leave Link  303 at Sun May  3 15:12:18 2020, MaxMem= 1073741824 cpu:       0.1
 (Enter /home/matheus/.gaussian/g09/l401.exe)
 Initial guess read from the read-write file.
 Guess basis will be translated and rotated to current coordinates.
 Initial guess orbital symmetries:
       Occupied  (A) (A) (A) (A) (A) (A) (A) (A) (A) (A) (A) (A)
                 (A) (A) (A) (A) (A) (A)
       Virtual   (A) (A) (A) (A) (A) (A) (A) (A) (A) (A) (A) (A)
                 (A) (A) (A) (A) (A) (A) (A) (A) (A) (A) (A) (A)
                 (A) (A) (A) (A) (A) (A) (A) (A) (A) (A) (A) (A)
                 (A) (A) (A) (A) (A)
 The electronic state of the initial guess is 1-A.
 Generating alternative initial guess.
 Harris functional with IExCor= 4639 diagonalized for initial guess.
 ExpMin= 4.00D-02 ExpMax= 1.17D+07 ExpMxC= 1.33D+04 IAcc=3 IRadAn=         5 AccDes= 0.00D+00
 HarFok:  IExCor= 4639 AccDes= 0.00D+00 IRadAn=         5 IDoV= 1
 ScaDFX=  1.000000  1.000000  1.000000  1.000000
 FoFCou: FMM=F IPFlag=           0 FMFlag=      100000 FMFlg1=           0
         NFxFlg=           0 DoJE=T BraDBF=F KetDBF=T FulRan=T
         Omega=  0.000000  0.000000  1.000000  0.000000  0.000000 ICntrl=     500 IOpCl=  0
         NMat0=    1 NMatS0=    1 NMatT0=    0 NMatD0=    1 NMtDS0=    0 NMtDT0=    0
         I1Cent=           4 NGrid=           0.
 Petite list used in FoFCou.
 Harris En= -2729.45839233129    
 Leave Link  401 at Sun May  3 15:12:19 2020, MaxMem= 1073741824 cpu:       1.1
 (Enter /home/matheus/.gaussian/g09/l502.exe)
 Closed shell SCF:
 Requested convergence on RMS density matrix=1.00D-08 within 128 cycles.
 Requested convergence on MAX density matrix=1.00D-06.
 Requested convergence on             energy=1.00D-06.
 No special actions if energy rises.
 Using DIIS extrapolation, IDIIS=  1040.
 Integral symmetry usage will be decided dynamically.
        30923 words used for storage of precomputed grid.
 IEnd=       64406 IEndB=       64406 NGot=  1073741824 MDV=  1073698889
 LenX=  1073698889 LenY=  1073693687
 Fock matrices will be formed incrementally for  20 cycles.

 Cycle   1  Pass 1  IDiag  1:
 FoFJK:  IHMeth= 1 ICntrl=     0 DoSepK=T KAlg= 1 I1Cent= 0 FoldK=F
 FoFCou: FMM=F IPFlag=           0 FMFlag=      100000 FMFlg1=           0
         NFxFlg=           0 DoJE=T BraDBF=F KetDBF=F FulRan=T
         Omega=  0.000000  0.000000  1.000000  0.000000  0.000000 ICntrl=     500 IOpCl=  0
         NMat0=    1 NMatS0=    1 NMatT0=    0 NMatD0=    1 NMtDS0=    0 NMtDT0=    0
         I1Cent=           0 NGrid=           0.
 Symmetry not used in FoFCou.
 E= -2753.87011063501    
 DIIS: error= 7.65D-14 at cycle   1 NSaved=   1.
 NSaved= 1 IEnMin= 1 EnMin= -2753.87011063501     IErMin= 1 ErrMin= 7.65D-14
 ErrMax= 7.65D-14 EMaxC= 1.00D-01 BMatC= 4.30D-25 BMatP= 4.30D-25
 IDIUse=1 WtCom= 1.00D+00 WtEn= 0.00D+00
 Coeff-Com:  0.100D+01
 Coeff:      0.100D+01
 Gap=     0.578 Goal=   None    Shift=    0.000
 DSYEVD returned Info=          89 IAlg= 4 N=    59 NDim=    59 NE2=    18198197 trying DSYEV.
 RMSDP=8.28D-15 MaxDP=9.63D-14              OVMax= 1.16D-13

 SCF Done:  E(RwB97XD) =  -2753.87011064     A.U. after    1 cycles
             Convg  =    0.8276D-14             -V/T =  2.0013
 KE= 2.750289370128D+03 PE=-6.580200885036D+03 EE= 1.076041404273D+03
 Leave Link  502 at Sun May  3 15:12:20 2020, MaxMem= 1073741824 cpu:      13.6
 (Enter /home/matheus/.gaussian/g09/l122.exe)
 Restoring MOs from calculation   1 to rwf.
 Counterpoise: corrected energy =   -2905.429770484508
 Counterpoise: BSSE energy =       0.000020007128
 Leave Link  122 at Sun May  3 15:12:20 2020, MaxMem= 1073741824 cpu:       0.0
 (Enter /home/matheus/.gaussian/g09/l108.exe)
 Scan completed.

 Summary of the potential surface scan:
   N      R1          SCF    
 ----  ---------  -----------
    1     3.0000  -2753.87011
    2     3.1000  -2753.87011
    3     3.2000  -2753.87011
    4     3.3000  -2753.87011
    5     3.4000  -2753.87011
    6     3.5000  -2753.87011
    7     3.6000  -2753.87011
    8     3.7000  -2753.87011
    9     3.8000  -2753.87011
   10     3.9000  -2753.87011
   11     4.0000  -2753.87011
   12     4.1000  -2753.87011
   13     4.2000  -2753.87011
   14     4.3000  -2753.87011
   15     4.4000  -2753.87011
   16     4.5000  -2753.87011
   17     4.6000  -2753.87011
   18     4.7000  -2753.87011
   19     4.8000  -2753.87011
   20     4.9000  -2753.87011
   21     5.0000  -2753.87011
 ----  ---------  -----------
  
 Leave Link  108 at Sun May  3 15:12:20 2020, MaxMem= 1073741824 cpu:       0.0
 (Enter /home/matheus/.gaussian/g09/l9999.exe)

 Test job not archived.
 1\1\GINC-REDGIANT\Scan\RwB97XD\Aug-CC-pVTZ\H2Kr1O2\ROOT\03-May-2020\1\
 \#p wb97xd/aug-cc-PVTz iop(3/107=0250000000) iop(3/108=0250000000) int
 =ultrafine counterpoise=2 Scan\\TCC\\0,1\O,0,0.,0.,0.725\O,0,0.,0.,-0.
 725\H,0,0.7037808064,-0.5905422151,1.0235104166\H,0,0.,0.9187205947,-1
 .0235104166\Kr,0,0.,R1,0.\\R1=3.,s,20,0.1\\Version=EM64L-G09RevC.01\St
 ate=1-A\HF=-2753.8701106,-2753.8701106,-2753.8701106,-2753.8701106,-27
 53.8701106,-2753.8701106,-2753.8701106,-2753.8701106,-2753.8701106,-27
 53.8701106,-2753.8701106,-2753.8701106,-2753.8701106,-2753.8701106,-27
 53.8701106,-2753.8701106,-2753.8701106,-2753.8701106,-2753.8701106,-27
 53.8701106,-2753.8701106\RMSD=9.654e-09,1.847e-10,5.406e-11,3.457e-11,
 1.947e-11,1.188e-11,7.097e-12,4.280e-12,2.573e-12,1.550e-12,9.296e-13,
 5.599e-13,3.322e-13,1.998e-13,1.206e-13,7.188e-14,4.829e-14,3.286e-14,
 1.619e-14,1.024e-14,8.276e-15\PG=C01 [X(H2Kr1O2)]\\@


 The number of Unix installations has grown to 10,
  with more expected.
                  -- The Unix Programmer's Manual,
                     2nd Edition, June, 1972.
 Job cpu time:  0 days  4 hours 29 minutes  7.8 seconds.
 File lengths (MBytes):  RWF=     33 Int=      0 D2E=      0 Chk=      8 Scr=      1
 Normal termination of Gaussian 09 at Sun May  3 15:12:20 2020.
