 Entering Gaussian System, Link 0=g09
 Input=/home/matheus/.tcc/Inputs-wb97xd/H2O2-Kr_9.com
 Output=/home/matheus/.tcc/Logs-wb97xd/H2O2-Kr_9.log
 Initial command:
 /home/matheus/.gaussian/g09/l1.exe /home/matheus/.gaussian/g09/scratch/Gau-23969.inp -scrdir=/home/matheus/.gaussian/g09/scratch/
 Entering Link 1 = /home/matheus/.gaussian/g09/l1.exe PID=     23972.
  
 Copyright (c) 1988,1990,1992,1993,1995,1998,2003,2009,2011,
            Gaussian, Inc.  All Rights Reserved.
  
 This is part of the Gaussian(R) 09 program.  It is based on
 the Gaussian(R) 03 system (copyright 2003, Gaussian, Inc.),
 the Gaussian(R) 98 system (copyright 1998, Gaussian, Inc.),
 the Gaussian(R) 94 system (copyright 1995, Gaussian, Inc.),
 the Gaussian 92(TM) system (copyright 1992, Gaussian, Inc.),
 the Gaussian 90(TM) system (copyright 1990, Gaussian, Inc.),
 the Gaussian 88(TM) system (copyright 1988, Gaussian, Inc.),
 the Gaussian 86(TM) system (copyright 1986, Carnegie Mellon
 University), and the Gaussian 82(TM) system (copyright 1983,
 Carnegie Mellon University). Gaussian is a federally registered
 trademark of Gaussian, Inc.
  
 This software contains proprietary and confidential information,
 including trade secrets, belonging to Gaussian, Inc.
  
 This software is provided under written license and may be
 used, copied, transmitted, or stored only in accord with that
 written license.
  
 The following legend is applicable only to US Government
 contracts under FAR:
  
                    RESTRICTED RIGHTS LEGEND
  
 Use, reproduction and disclosure by the US Government is
 subject to restrictions as set forth in subparagraphs (a)
 and (c) of the Commercial Computer Software - Restricted
 Rights clause in FAR 52.227-19.
  
 Gaussian, Inc.
 340 Quinnipiac St., Bldg. 40, Wallingford CT 06492
  
  
 ---------------------------------------------------------------
 Warning -- This program may not be used in any manner that
 competes with the business of Gaussian, Inc. or will provide
 assistance to any competitor of Gaussian, Inc.  The licensee
 of this program is prohibited from giving any competitor of
 Gaussian, Inc. access to this program.  By using this program,
 the user acknowledges that Gaussian, Inc. is engaged in the
 business of creating and licensing software in the field of
 computational chemistry and represents and warrants to the
 licensee that it is not a competitor of Gaussian, Inc. and that
 it will not use this program in any manner prohibited above.
 ---------------------------------------------------------------
  

 Cite this work as:
 Gaussian 09, Revision C.01,
 M. J. Frisch, G. W. Trucks, H. B. Schlegel, G. E. Scuseria, 
 M. A. Robb, J. R. Cheeseman, G. Scalmani, V. Barone, B. Mennucci, 
 G. A. Petersson, H. Nakatsuji, M. Caricato, X. Li, H. P. Hratchian, 
 A. F. Izmaylov, J. Bloino, G. Zheng, J. L. Sonnenberg, M. Hada, 
 M. Ehara, K. Toyota, R. Fukuda, J. Hasegawa, M. Ishida, T. Nakajima, 
 Y. Honda, O. Kitao, H. Nakai, T. Vreven, J. A. Montgomery, Jr., 
 J. E. Peralta, F. Ogliaro, M. Bearpark, J. J. Heyd, E. Brothers, 
 K. N. Kudin, V. N. Staroverov, T. Keith, R. Kobayashi, J. Normand, 
 K. Raghavachari, A. Rendell, J. C. Burant, S. S. Iyengar, J. Tomasi, 
 M. Cossi, N. Rega, J. M. Millam, M. Klene, J. E. Knox, J. B. Cross, 
 V. Bakken, C. Adamo, J. Jaramillo, R. Gomperts, R. E. Stratmann, 
 O. Yazyev, A. J. Austin, R. Cammi, C. Pomelli, J. W. Ochterski, 
 R. L. Martin, K. Morokuma, V. G. Zakrzewski, G. A. Voth, 
 P. Salvador, J. J. Dannenberg, S. Dapprich, A. D. Daniels, 
 O. Farkas, J. B. Foresman, J. V. Ortiz, J. Cioslowski, 
 and D. J. Fox, Gaussian, Inc., Wallingford CT, 2010.
 
 ******************************************
 Gaussian 09:  EM64L-G09RevC.01 23-Sep-2011
                 3-May-2020 
 ******************************************
 %mem=8GB
 %nproc=8
 Will use up to    8 processors via shared memory.
 ----------------------------------------------------------------------
 #p wb97xd/aug-cc-PVTz iop(3/107=0250000000) iop(3/108=0250000000) int=
 ultrafine counterpoise=2 Scan
 ----------------------------------------------------------------------
 1/38=1,60=1,62=2/1,8;
 2/12=2,17=6,18=5,29=3,40=1/2;
 1/38=1,53=5172,62=2/22;
 3/5=16,6=1,7=10,11=2,16=1,25=1,30=1,74=-58,75=-5,107=250000000,108=250000000/1,2,3;
 4//1;
 5/5=2,38=5/2;
 6/7=2,8=2,9=2,10=2,18=1,28=1/1;
 1/53=4052,62=2,63=1/22;
 3/5=7,6=11,7=10,11=2,16=1,25=1,30=1,74=-58,75=-5,82=7,107=250000000,108=250000000/1,2,3;
 4//1;
 5/5=2,38=5/2;
 6/7=2,8=2,9=2,10=2,18=1,28=1/1;
 1/53=3042,62=2,63=2/22;
 3/5=7,6=11,7=10,11=2,16=1,25=1,30=1,74=-58,75=-5,82=7,107=250000000,108=250000000/1,2,3;
 4//1;
 5/5=2,38=5/2;
 6/7=2,8=2,9=2,10=2,18=1,28=1/1;
 1/53=2032,62=2,63=3/22;
 3/5=7,6=11,7=10,11=2,16=1,25=1,30=1,74=-58,75=-5,82=7,107=250000000,108=250000000/1,2,3;
 4//1;
 5/5=2,38=5/2;
 6/7=2,8=2,9=2,10=2,18=1,28=1/1;
 1/53=1022,62=2,63=4/22;
 3/5=7,6=11,7=10,11=2,16=1,25=1,30=1,74=-58,75=-5,82=7,107=250000000,108=250000000/1,2,3;
 4//1;
 5/5=2,38=5/2;
 6/7=2,8=2,9=2,10=2,18=1,28=1/1;
 1/53=5014,62=2,63=5/22;
 1/60=1,62=2/8(1);
 99/9=1/99;
 2/29=3/2;
 1/53=5173,62=2/22;
 3/5=7,6=11,7=10,11=2,16=1,25=1,30=1,74=-58,75=-5,82=7,107=250000000,108=250000000/1,2,3;
 4/5=5,16=3/1;
 5/5=2,38=5/2;
 1/53=4053,62=2,63=1/22;
 3/5=7,6=11,7=10,11=2,16=1,25=1,30=1,74=-58,75=-5,82=7,107=250000000,108=250000000/1,2,3;
 4/5=5,16=3/1;
 5/5=2,38=5/2;
 1/53=3043,62=2,63=2/22;
 3/5=7,6=11,7=10,11=2,16=1,25=1,30=1,74=-58,75=-5,82=7,107=250000000,108=250000000/1,2,3;
 4/5=5,16=3/1;
 5/5=2,38=5/2;
 1/53=2033,62=2,63=3/22;
 3/5=7,6=11,7=10,11=2,16=1,25=1,30=1,74=-58,75=-5,82=7,107=250000000,108=250000000/1,2,3;
 4/5=5,16=3/1;
 5/5=2,38=5/2;
 1/53=1024,62=2,63=4/22;
 3/5=7,6=11,7=10,11=2,16=1,25=1,30=1,74=-58,75=-5,82=7,107=250000000,108=250000000/1,2,3;
 4/5=5,16=3/1;
 5/5=2,38=5/2;
 1/53=5014,62=2,63=5/22;
 1/60=1,62=2/8(-22);
 99/9=1/99;
 Leave Link    1 at Sun May  3 12:52:51 2020, MaxMem= 1073741824 cpu:       0.1
 (Enter /home/matheus/.gaussian/g09/l101.exe)
 ---
 TCC
 ---
 Charge =  0 Multiplicity = 1 in supermolecule
 Charge =  0 Multiplicity = 1 in fragment  1.
 Charge =  0 Multiplicity = 1 in fragment  2.
 Symbolic Z-Matrix:
 O(Fragment=1)         0.        0.        0.725 
 O(Fragment=1)         0.        0.       -0.725 
 H(Fragment=1)         0.91872   0.        1.02351 
 H(Fragment=1)         0.        0.91872  -1.02351 
 Kr(Fragment=2)        0.       R1        0. 
       Variables:
  R1                    3.     Scan 20    0.1    
 
 NAtoms=      5 NQM=        0 NQMF=       0 NMMI=      5 NMMIF=      0
                NMic=       0 NMicF=      0.
                    Isotopes and Nuclear Properties:
 (Nuclear quadrupole moments (NQMom) in fm**2, nuclear magnetic moments (NMagM)
  in nuclear magnetons)

  Atom         1           2           3           4           5
 IAtWgt=          16          16           1           1          84
 AtmWgt=  15.9949146  15.9949146   1.0078250   1.0078250  83.9115064
 NucSpn=           0           0           1           1           0
 AtZEff=   0.0000000   0.0000000   0.0000000   0.0000000   0.0000000
 NQMom=    0.0000000   0.0000000   0.0000000   0.0000000   0.0000000
 NMagM=    0.0000000   0.0000000   2.7928460   2.7928460   0.0000000
 Leave Link  101 at Sun May  3 12:52:51 2020, MaxMem= 1073741824 cpu:       0.4
 (Enter /home/matheus/.gaussian/g09/l108.exe)
 Scan the potential surface.
 Variable   Value     No. Steps Step-Size
 -------- ----------- --------- ---------
     1       3.000000      20      0.1000
 A total of     21 points will be computed.
 Leave Link  108 at Sun May  3 12:52:51 2020, MaxMem= 1073741824 cpu:       0.0
 (Enter /home/matheus/.gaussian/g09/l202.exe)
 ---------------------------------------------------------------------------------------------------
                            Z-MATRIX (ANGSTROMS AND DEGREES)
   CD    Cent   Atom    N1       Length/X        N2       Alpha/Y        N3        Beta/Z          J
 ---------------------------------------------------------------------------------------------------
      1      1  O        0   0.000000          0.000000          0.725000
      2      2  O        0   0.000000          0.000000         -0.725000
      3      3  H        0   0.918721          0.000000          1.023510
      4      4  H        0   0.000000          0.918721         -1.023510
      5      5  Kr       0   0.000000          3.000000          0.000000
 ---------------------------------------------------------------------------------------------------
                         Z-Matrix orientation:                         
 ---------------------------------------------------------------------
 Center     Atomic      Atomic             Coordinates (Angstroms)
 Number     Number       Type             X           Y           Z
 ---------------------------------------------------------------------
      1          8           0        0.000000    0.000000    0.725000
      2          8           0        0.000000    0.000000   -0.725000
      3          1           0        0.918721    0.000000    1.023510
      4          1           0        0.000000    0.918721   -1.023510
      5         36           0        0.000000    3.000000    0.000000
 ---------------------------------------------------------------------
                    Distance matrix (angstroms):
                    1          2          3          4          5
     1  O    0.000000
     2  O    1.450000   0.000000
     3  H    0.966000   1.975180   0.000000
     4  H    1.975180   0.966000   2.424539   0.000000
     5  Kr   3.086361   3.086361   3.300246   2.319331   0.000000
 Stoichiometry    H2KrO2
 Framework group  C1[X(H2KrO2)]
 Deg. of freedom     9
 Full point group                 C1      NOp   1
 Largest Abelian subgroup         C1      NOp   1
 Largest concise Abelian subgroup C1      NOp   1
                         Standard orientation:                         
 ---------------------------------------------------------------------
 Center     Atomic      Atomic             Coordinates (Angstroms)
 Number     Number       Type             X           Y           Z
 ---------------------------------------------------------------------
      1          8           0        2.023612   -0.696492   -0.118952
      2          8           0        2.008959    0.747023    0.017247
      3          1           0        2.043021   -1.079789    0.767536
      4          1           0        1.087415    1.033416    0.060735
      5         36           0       -0.983084   -0.009941   -0.000406
 ---------------------------------------------------------------------
 Rotational constants (GHZ):     25.5933462      2.3453767      2.1627661
 Leave Link  202 at Sun May  3 12:52:51 2020, MaxMem= 1073741824 cpu:       0.0
 (Enter /home/matheus/.gaussian/g09/l122.exe)
 Leave Link  122 at Sun May  3 12:52:51 2020, MaxMem= 1073741824 cpu:       0.0
 (Enter /home/matheus/.gaussian/g09/l301.exe)
 Standard basis: Aug-CC-pVTZ (5D, 7F)
 Ernie: Thresh=  0.10000D-02 Tol=  0.10000D-05 Strict=F.
 Ernie:  38 primitive shells out of 205 were deleted.
 There are   197 symmetry adapted basis functions of A   symmetry.
 Integral buffers will be    131072 words long.
 Raffenetti 2 integral format.
 Two-electron integral symmetry is turned on.
   197 basis functions,   415 primitive gaussians,   229 cartesian basis functions
    27 alpha electrons       27 beta electrons
       nuclear repulsion energy       149.3716944117 Hartrees.
 IExCor= 4639 DFT=T Ex+Corr=wB97XD ExCW=0 ScaHFX=  1.000000
 ScaDFX=  1.000000  1.000000  1.000000  1.000000 ScalE2=  1.000000  1.000000
 IRadAn=      5 IRanWt=     -1 IRanGd=            0 ICorTp=0
  HFx wShort=  0.000000 wLong=  0.250000 cFull=  0.222036 cShort=  0.000000 cLong=  0.777964
  DFx wShort=  0.000000 wLong=  0.250000 cFull=  0.000000 cShort=  0.000000 cLong=  1.000000
 NAtoms=    5 NActive=    5 NUniq=    5 SFac= 1.00D+00 NAtFMM=   60 NAOKFM=F Big=F
 R6Disp: Dispersion energy =        -0.0009500984 Hartrees.
 Nuclear repulsion after empirical dispersion term =      149.3707443132 Hartrees.
 Leave Link  301 at Sun May  3 12:52:51 2020, MaxMem= 1073741824 cpu:       0.2
 (Enter /home/matheus/.gaussian/g09/l302.exe)
 NPDir=0 NMtPBC=     1 NCelOv=     1 NCel=       1 NClECP=     1 NCelD=      1
         NCelK=      1 NCelE2=     1 NClLst=     1 CellRange=     0.0.
 One-electron integrals computed using PRISM.
 NBasis=   197 RedAO= T  NBF=   197
 NBsUse=   197 1.00D-06 NBFU=   197
 Precomputing XC quadrature grid using
 IXCGrd= 2 IRadAn=           5 IRanWt=          -1 IRanGd=           0 AccXCQ= 0.00D+00.
 NRdTot=     427 NPtTot=      123512 NUsed=      126579 NTot=      126611
 NSgBfM=   229   229   229   229   229 NAtAll=     5     5.
 Leave Link  302 at Sun May  3 12:52:51 2020, MaxMem= 1073741824 cpu:       1.0
 (Enter /home/matheus/.gaussian/g09/l303.exe)
 DipDrv:  MaxL=1.
 Leave Link  303 at Sun May  3 12:52:51 2020, MaxMem= 1073741824 cpu:       0.2
 (Enter /home/matheus/.gaussian/g09/l401.exe)
 Harris functional with IExCor= 4639 diagonalized for initial guess.
 ExpMin= 2.53D-02 ExpMax= 1.17D+07 ExpMxC= 1.33D+04 IAcc=3 IRadAn=         5 AccDes= 0.00D+00
 HarFok:  IExCor= 4639 AccDes= 0.00D+00 IRadAn=         5 IDoV= 1
 ScaDFX=  1.000000  1.000000  1.000000  1.000000
 FoFCou: FMM=F IPFlag=           0 FMFlag=      100000 FMFlg1=           0
         NFxFlg=           0 DoJE=T BraDBF=F KetDBF=T FulRan=T
         Omega=  0.000000  0.000000  1.000000  0.000000  0.000000 ICntrl=     500 IOpCl=  0
         NMat0=    1 NMatS0=    1 NMatT0=    0 NMatD0=    1 NMtDS0=    0 NMtDT0=    0
         I1Cent=           4 NGrid=           0.
 Petite list used in FoFCou.
 Harris En= -2875.39787629820    
 Initial guess orbital symmetries:
       Occupied  (A) (A) (A) (A) (A) (A) (A) (A) (A) (A) (A) (A)
                 (A) (A) (A) (A) (A) (A) (A) (A) (A) (A) (A) (A)
                 (A) (A) (A)
       Virtual   (A) (A) (A) (A) (A) (A) (A) (A) (A) (A) (A) (A)
                 (A) (A) (A) (A) (A) (A) (A) (A) (A) (A) (A) (A)
                 (A) (A) (A) (A) (A) (A) (A) (A) (A) (A) (A) (A)
                 (A) (A) (A) (A) (A) (A) (A) (A) (A) (A) (A) (A)
                 (A) (A) (A) (A) (A) (A) (A) (A) (A) (A) (A) (A)
                 (A) (A) (A) (A) (A) (A) (A) (A) (A) (A) (A) (A)
                 (A) (A) (A) (A) (A) (A) (A) (A) (A) (A) (A) (A)
                 (A) (A) (A) (A) (A) (A) (A) (A) (A) (A) (A) (A)
                 (A) (A) (A) (A) (A) (A) (A) (A) (A) (A) (A) (A)
                 (A) (A) (A) (A) (A) (A) (A) (A) (A) (A) (A) (A)
                 (A) (A) (A) (A) (A) (A) (A) (A) (A) (A) (A) (A)
                 (A) (A) (A) (A) (A) (A) (A) (A) (A) (A) (A) (A)
                 (A) (A) (A) (A) (A) (A) (A) (A) (A) (A) (A) (A)
                 (A) (A) (A) (A) (A) (A) (A) (A) (A) (A) (A) (A)
                 (A) (A)
 The electronic state of the initial guess is 1-A.
 Leave Link  401 at Sun May  3 12:52:51 2020, MaxMem= 1073741824 cpu:       3.9
 (Enter /home/matheus/.gaussian/g09/l502.exe)
 Closed shell SCF:
 Requested convergence on RMS density matrix=1.00D-08 within 128 cycles.
 Requested convergence on MAX density matrix=1.00D-06.
 Requested convergence on             energy=1.00D-06.
 No special actions if energy rises.
 Using DIIS extrapolation, IDIIS=  1040.
 Integral symmetry usage will be decided dynamically.
       126521 words used for storage of precomputed grid.
 IEnd=      305468 IEndB=      305468 NGot=  1073741824 MDV=  1073505667
 LenX=  1073505667 LenY=  1073452785
 Fock matrices will be formed incrementally for  20 cycles.

 Cycle   1  Pass 1  IDiag  1:
 FoFJK:  IHMeth= 1 ICntrl=     0 DoSepK=T KAlg= 1 I1Cent= 0 FoldK=F
 FoFCou: FMM=F IPFlag=           0 FMFlag=      100000 FMFlg1=           0
         NFxFlg=           0 DoJE=T BraDBF=F KetDBF=F FulRan=T
         Omega=  0.000000  0.000000  1.000000  0.000000  0.000000 ICntrl=     500 IOpCl=  0
         NMat0=    1 NMatS0=    1 NMatT0=    0 NMatD0=    1 NMtDS0=    0 NMtDT0=    0
         I1Cent=           0 NGrid=           0.
 Symmetry not used in FoFCou.
 E= -2904.90277201192    
 DIIS: error= 6.35D-02 at cycle   1 NSaved=   1.
 NSaved= 1 IEnMin= 1 EnMin= -2904.90277201192     IErMin= 1 ErrMin= 6.35D-02
 ErrMax= 6.35D-02 EMaxC= 1.00D-01 BMatC= 2.22D+00 BMatP= 2.22D+00
 IDIUse=3 WtCom= 3.65D-01 WtEn= 6.35D-01
 Coeff-Com:  0.100D+01
 Coeff-En:   0.100D+01
 Coeff:      0.100D+01
 Gap=     0.567 Goal=   None    Shift=    0.000
 GapD=    0.567 DampG=2.000 DampE=0.500 DampFc=1.0000 IDamp=-1.
 RMSDP=6.11D-03 MaxDP=3.66D-01              OVMax= 1.82D-01

 Cycle   2  Pass 1  IDiag  1:
 RMSU=  4.29D-03    CP:  1.03D+00
 FoFJK:  IHMeth= 1 ICntrl=     0 DoSepK=T KAlg= 1 I1Cent= 0 FoldK=F
 E= -2905.22346791575     Delta-E=       -0.320695903825 Rises=F Damp=F
 DIIS: error= 3.08D-02 at cycle   2 NSaved=   2.
 NSaved= 2 IEnMin= 2 EnMin= -2905.22346791575     IErMin= 2 ErrMin= 3.08D-02
 ErrMax= 3.08D-02 EMaxC= 1.00D-01 BMatC= 5.65D-01 BMatP= 2.22D+00
 IDIUse=3 WtCom= 6.92D-01 WtEn= 3.08D-01
 Coeff-Com:  0.328D+00 0.672D+00
 Coeff-En:   0.198D+00 0.802D+00
 Coeff:      0.288D+00 0.712D+00
 Gap=     0.515 Goal=   None    Shift=    0.000
 RMSDP=2.67D-03 MaxDP=1.56D-01 DE=-3.21D-01 OVMax= 7.41D-02

 Cycle   3  Pass 1  IDiag  1:
 RMSU=  5.61D-04    CP:  1.02D+00  5.82D-01
 FoFJK:  IHMeth= 1 ICntrl=     0 DoSepK=T KAlg= 1 I1Cent= 0 FoldK=F
 E= -2905.41790075368     Delta-E=       -0.194432837935 Rises=F Damp=F
 DIIS: error= 6.30D-03 at cycle   3 NSaved=   3.
 NSaved= 3 IEnMin= 3 EnMin= -2905.41790075368     IErMin= 3 ErrMin= 6.30D-03
 ErrMax= 6.30D-03 EMaxC= 1.00D-01 BMatC= 1.83D-02 BMatP= 5.65D-01
 IDIUse=3 WtCom= 9.37D-01 WtEn= 6.30D-02
 Coeff-Com:  0.347D-01 0.189D+00 0.776D+00
 Coeff-En:   0.000D+00 0.000D+00 0.100D+01
 Coeff:      0.325D-01 0.177D+00 0.790D+00
 Gap=     0.462 Goal=   None    Shift=    0.000
 RMSDP=4.79D-04 MaxDP=1.90D-02 DE=-1.94D-01 OVMax= 2.71D-02

 Cycle   4  Pass 1  IDiag  1:
 RMSU=  2.31D-04    CP:  1.02D+00  6.38D-01  9.03D-01
 FoFJK:  IHMeth= 1 ICntrl=     0 DoSepK=T KAlg= 1 I1Cent= 0 FoldK=F
 E= -2905.42629092081     Delta-E=       -0.008390167125 Rises=F Damp=F
 DIIS: error= 2.32D-03 at cycle   4 NSaved=   4.
 NSaved= 4 IEnMin= 4 EnMin= -2905.42629092081     IErMin= 4 ErrMin= 2.32D-03
 ErrMax= 2.32D-03 EMaxC= 1.00D-01 BMatC= 1.81D-03 BMatP= 1.83D-02
 IDIUse=3 WtCom= 9.77D-01 WtEn= 2.32D-02
 Coeff-Com: -0.244D-02 0.478D-01 0.369D+00 0.586D+00
 Coeff-En:   0.000D+00 0.000D+00 0.000D+00 0.100D+01
 Coeff:     -0.238D-02 0.466D-01 0.360D+00 0.595D+00
 Gap=     0.446 Goal=   None    Shift=    0.000
 RMSDP=1.20D-04 MaxDP=6.87D-03 DE=-8.39D-03 OVMax= 6.81D-03

 Cycle   5  Pass 1  IDiag  1:
 RMSU=  4.00D-05    CP:  1.02D+00  6.36D-01  9.50D-01  7.01D-01
 FoFJK:  IHMeth= 1 ICntrl=     0 DoSepK=T KAlg= 1 I1Cent= 0 FoldK=F
 E= -2905.42738381110     Delta-E=       -0.001092890292 Rises=F Damp=F
 DIIS: error= 2.41D-04 at cycle   5 NSaved=   5.
 NSaved= 5 IEnMin= 5 EnMin= -2905.42738381110     IErMin= 5 ErrMin= 2.41D-04
 ErrMax= 2.41D-04 EMaxC= 1.00D-01 BMatC= 2.13D-05 BMatP= 1.81D-03
 IDIUse=3 WtCom= 9.98D-01 WtEn= 2.41D-03
 Coeff-Com: -0.140D-02 0.896D-02 0.888D-01 0.163D+00 0.741D+00
 Coeff-En:   0.000D+00 0.000D+00 0.000D+00 0.000D+00 0.100D+01
 Coeff:     -0.139D-02 0.894D-02 0.886D-01 0.162D+00 0.742D+00
 Gap=     0.445 Goal=   None    Shift=    0.000
 RMSDP=2.23D-05 MaxDP=9.93D-04 DE=-1.09D-03 OVMax= 1.43D-03

 Cycle   6  Pass 1  IDiag  1:
 RMSU=  1.39D-05    CP:  1.02D+00  6.36D-01  9.59D-01  7.18D-01  1.10D+00
 FoFJK:  IHMeth= 1 ICntrl=     0 DoSepK=T KAlg= 1 I1Cent= 0 FoldK=F
 E= -2905.42739450620     Delta-E=       -0.000010695097 Rises=F Damp=F
 DIIS: error= 1.62D-04 at cycle   6 NSaved=   6.
 NSaved= 6 IEnMin= 6 EnMin= -2905.42739450620     IErMin= 6 ErrMin= 1.62D-04
 ErrMax= 1.62D-04 EMaxC= 1.00D-01 BMatC= 1.05D-05 BMatP= 2.13D-05
 IDIUse=3 WtCom= 9.98D-01 WtEn= 1.62D-03
 Coeff-Com: -0.264D-03-0.602D-02-0.330D-01-0.445D-01 0.425D+00 0.659D+00
 Coeff-En:   0.000D+00 0.000D+00 0.000D+00 0.000D+00 0.212D+00 0.788D+00
 Coeff:     -0.264D-03-0.601D-02-0.329D-01-0.444D-01 0.424D+00 0.659D+00
 Gap=     0.445 Goal=   None    Shift=    0.000
 RMSDP=1.19D-05 MaxDP=4.61D-04 DE=-1.07D-05 OVMax= 7.07D-04

 Cycle   7  Pass 1  IDiag  1:
 RMSU=  3.63D-06    CP:  1.02D+00  6.36D-01  9.65D-01  7.26D-01  1.24D+00
                    CP:  7.98D-01
 FoFJK:  IHMeth= 1 ICntrl=     0 DoSepK=T KAlg= 1 I1Cent= 0 FoldK=F
 E= -2905.42740206886     Delta-E=       -0.000007562668 Rises=F Damp=F
 DIIS: error= 1.44D-05 at cycle   7 NSaved=   7.
 NSaved= 7 IEnMin= 7 EnMin= -2905.42740206886     IErMin= 7 ErrMin= 1.44D-05
 ErrMax= 1.44D-05 EMaxC= 1.00D-01 BMatC= 9.09D-08 BMatP= 1.05D-05
 IDIUse=1 WtCom= 1.00D+00 WtEn= 0.00D+00
 Coeff-Com:  0.273D-04-0.120D-02-0.844D-02-0.125D-01 0.209D-02 0.754D-01
 Coeff-Com:  0.945D+00
 Coeff:      0.273D-04-0.120D-02-0.844D-02-0.125D-01 0.209D-02 0.754D-01
 Coeff:      0.945D+00
 Gap=     0.445 Goal=   None    Shift=    0.000
 RMSDP=2.47D-06 MaxDP=8.47D-05 DE=-7.56D-06 OVMax= 2.10D-04

 Cycle   8  Pass 1  IDiag  1:
 RMSU=  8.43D-07    CP:  1.02D+00  6.36D-01  9.66D-01  7.28D-01  1.27D+00
                    CP:  8.51D-01  1.18D+00
 FoFJK:  IHMeth= 1 ICntrl=     0 DoSepK=T KAlg= 1 I1Cent= 0 FoldK=F
 E= -2905.42740224169     Delta-E=       -0.000000172830 Rises=F Damp=F
 DIIS: error= 3.84D-06 at cycle   8 NSaved=   8.
 NSaved= 8 IEnMin= 8 EnMin= -2905.42740224169     IErMin= 8 ErrMin= 3.84D-06
 ErrMax= 3.84D-06 EMaxC= 1.00D-01 BMatC= 5.28D-09 BMatP= 9.09D-08
 IDIUse=1 WtCom= 1.00D+00 WtEn= 0.00D+00
 Coeff-Com:  0.160D-04 0.258D-03 0.133D-02 0.153D-02-0.247D-01-0.324D-01
 Coeff-Com:  0.272D-01 0.103D+01
 Coeff:      0.160D-04 0.258D-03 0.133D-02 0.153D-02-0.247D-01-0.324D-01
 Coeff:      0.272D-01 0.103D+01
 Gap=     0.445 Goal=   None    Shift=    0.000
 RMSDP=7.42D-07 MaxDP=1.87D-05 DE=-1.73D-07 OVMax= 8.27D-05

 Cycle   9  Pass 1  IDiag  1:
 RMSU=  2.53D-07    CP:  1.02D+00  6.36D-01  9.66D-01  7.27D-01  1.27D+00
                    CP:  8.61D-01  1.26D+00  1.31D+00
 FoFJK:  IHMeth= 1 ICntrl=     0 DoSepK=T KAlg= 1 I1Cent= 0 FoldK=F
 E= -2905.42740225739     Delta-E=       -0.000000015701 Rises=F Damp=F
 DIIS: error= 1.58D-06 at cycle   9 NSaved=   9.
 NSaved= 9 IEnMin= 9 EnMin= -2905.42740225739     IErMin= 9 ErrMin= 1.58D-06
 ErrMax= 1.58D-06 EMaxC= 1.00D-01 BMatC= 4.79D-10 BMatP= 5.28D-09
 IDIUse=1 WtCom= 1.00D+00 WtEn= 0.00D+00
 Coeff-Com: -0.226D-05 0.727D-04 0.526D-03 0.604D-03 0.617D-03-0.242D-02
 Coeff-Com: -0.564D-01-0.942D-01 0.115D+01
 Coeff:     -0.226D-05 0.727D-04 0.526D-03 0.604D-03 0.617D-03-0.242D-02
 Coeff:     -0.564D-01-0.942D-01 0.115D+01
 Gap=     0.445 Goal=   None    Shift=    0.000
 RMSDP=2.78D-07 MaxDP=7.55D-06 DE=-1.57D-08 OVMax= 3.64D-05

 Cycle  10  Pass 1  IDiag  1:
 RMSU=  8.72D-08    CP:  1.02D+00  6.36D-01  9.66D-01  7.27D-01  1.27D+00
                    CP:  8.62D-01  1.27D+00  1.43D+00  1.45D+00
 FoFJK:  IHMeth= 1 ICntrl=     0 DoSepK=T KAlg= 1 I1Cent= 0 FoldK=F
 E= -2905.42740225927     Delta-E=       -0.000000001873 Rises=F Damp=F
 DIIS: error= 3.81D-07 at cycle  10 NSaved=  10.
 NSaved=10 IEnMin=10 EnMin= -2905.42740225927     IErMin=10 ErrMin= 3.81D-07
 ErrMax= 3.81D-07 EMaxC= 1.00D-01 BMatC= 5.82D-11 BMatP= 4.79D-10
 IDIUse=1 WtCom= 1.00D+00 WtEn= 0.00D+00
 Coeff-Com: -0.835D-06-0.162D-04-0.885D-04-0.950D-04 0.213D-02 0.295D-02
 Coeff-Com: -0.259D-03-0.121D+00 0.117D+00 0.100D+01
 Coeff:     -0.835D-06-0.162D-04-0.885D-04-0.950D-04 0.213D-02 0.295D-02
 Coeff:     -0.259D-03-0.121D+00 0.117D+00 0.100D+01
 Gap=     0.445 Goal=   None    Shift=    0.000
 RMSDP=8.70D-08 MaxDP=2.01D-06 DE=-1.87D-09 OVMax= 1.21D-05

 Cycle  11  Pass 1  IDiag  1:
 RMSU=  2.20D-08    CP:  1.02D+00  6.36D-01  9.66D-01  7.27D-01  1.27D+00
                    CP:  8.62D-01  1.27D+00  1.45D+00  1.62D+00  1.30D+00
 FoFJK:  IHMeth= 1 ICntrl=     0 DoSepK=T KAlg= 1 I1Cent= 0 FoldK=F
 E= -2905.42740225946     Delta-E=       -0.000000000195 Rises=F Damp=F
 DIIS: error= 1.36D-07 at cycle  11 NSaved=  11.
 NSaved=11 IEnMin=11 EnMin= -2905.42740225946     IErMin=11 ErrMin= 1.36D-07
 ErrMax= 1.36D-07 EMaxC= 1.00D-01 BMatC= 5.96D-12 BMatP= 5.82D-11
 IDIUse=1 WtCom= 1.00D+00 WtEn= 0.00D+00
 Coeff-Com:  0.496D-06-0.669D-05-0.555D-04-0.446D-04-0.302D-03 0.105D-04
 Coeff-Com:  0.802D-02 0.110D-01-0.126D+00-0.923D-01 0.120D+01
 Coeff:      0.496D-06-0.669D-05-0.555D-04-0.446D-04-0.302D-03 0.105D-04
 Coeff:      0.802D-02 0.110D-01-0.126D+00-0.923D-01 0.120D+01
 Gap=     0.445 Goal=   None    Shift=    0.000
 RMSDP=3.47D-08 MaxDP=7.02D-07 DE=-1.95D-10 OVMax= 5.06D-06

 Cycle  12  Pass 1  IDiag  1:
 RMSU=  6.91D-09    CP:  1.02D+00  6.36D-01  9.66D-01  7.27D-01  1.27D+00
                    CP:  8.62D-01  1.27D+00  1.46D+00  1.68D+00  1.48D+00
                    CP:  1.37D+00
 FoFJK:  IHMeth= 1 ICntrl=     0 DoSepK=T KAlg= 1 I1Cent= 0 FoldK=F
 E= -2905.42740225950     Delta-E=       -0.000000000036 Rises=F Damp=F
 DIIS: error= 3.66D-08 at cycle  12 NSaved=  12.
 NSaved=12 IEnMin=12 EnMin= -2905.42740225950     IErMin=12 ErrMin= 3.66D-08
 ErrMax= 3.66D-08 EMaxC= 1.00D-01 BMatC= 2.83D-13 BMatP= 5.96D-12
 IDIUse=1 WtCom= 1.00D+00 WtEn= 0.00D+00
 Coeff-Com: -0.438D-07 0.817D-06 0.697D-05-0.115D-05-0.109D-03-0.159D-03
 Coeff-Com: -0.274D-03 0.558D-02 0.692D-02-0.494D-01-0.140D+00 0.118D+01
 Coeff:     -0.438D-07 0.817D-06 0.697D-05-0.115D-05-0.109D-03-0.159D-03
 Coeff:     -0.274D-03 0.558D-02 0.692D-02-0.494D-01-0.140D+00 0.118D+01
 Gap=     0.445 Goal=   None    Shift=    0.000
 RMSDP=7.93D-09 MaxDP=2.07D-07 DE=-3.64D-11 OVMax= 9.74D-07

 SCF Done:  E(RwB97XD) =  -2905.42740226     A.U. after   12 cycles
             Convg  =    0.7933D-08             -V/T =  2.0015
 KE= 2.900942768220D+03 PE=-7.236853094346D+03 EE= 1.281112179553D+03
 Leave Link  502 at Sun May  3 12:53:27 2020, MaxMem= 1073741824 cpu:     287.3
 (Enter /home/matheus/.gaussian/g09/l601.exe)
 Copying SCF densities to generalized density rwf, IOpCl= 0 IROHF=0.

 **********************************************************************

            Population analysis using the SCF density.

 **********************************************************************

 Orbital symmetries:
       Occupied  (A) (A) (A) (A) (A) (A) (A) (A) (A) (A) (A) (A)
                 (A) (A) (A) (A) (A) (A) (A) (A) (A) (A) (A) (A)
                 (A) (A) (A)
       Virtual   (A) (A) (A) (A) (A) (A) (A) (A) (A) (A) (A) (A)
                 (A) (A) (A) (A) (A) (A) (A) (A) (A) (A) (A) (A)
                 (A) (A) (A) (A) (A) (A) (A) (A) (A) (A) (A) (A)
                 (A) (A) (A) (A) (A) (A) (A) (A) (A) (A) (A) (A)
                 (A) (A) (A) (A) (A) (A) (A) (A) (A) (A) (A) (A)
                 (A) (A) (A) (A) (A) (A) (A) (A) (A) (A) (A) (A)
                 (A) (A) (A) (A) (A) (A) (A) (A) (A) (A) (A) (A)
                 (A) (A) (A) (A) (A) (A) (A) (A) (A) (A) (A) (A)
                 (A) (A) (A) (A) (A) (A) (A) (A) (A) (A) (A) (A)
                 (A) (A) (A) (A) (A) (A) (A) (A) (A) (A) (A) (A)
                 (A) (A) (A) (A) (A) (A) (A) (A) (A) (A) (A) (A)
                 (A) (A) (A) (A) (A) (A) (A) (A) (A) (A) (A) (A)
                 (A) (A) (A) (A) (A) (A) (A) (A) (A) (A) (A) (A)
                 (A) (A) (A) (A) (A) (A) (A) (A) (A) (A) (A) (A)
                 (A) (A)
 The electronic state is 1-A.
 Alpha  occ. eigenvalues -- -513.09564 -67.36391 -60.91271 -60.91260 -60.91251
 Alpha  occ. eigenvalues --  -19.34098 -19.33732  -9.81721  -7.51055  -7.51016
 Alpha  occ. eigenvalues --   -7.50988  -3.37737  -3.37729  -3.37708  -3.37677
 Alpha  occ. eigenvalues --   -3.37674  -1.24614  -1.03339  -1.02376  -0.67169
 Alpha  occ. eigenvalues --   -0.59066  -0.53826  -0.50101  -0.49750  -0.48874
 Alpha  occ. eigenvalues --   -0.41458  -0.41010
 Alpha virt. eigenvalues --    0.03450   0.04360   0.08340   0.09617   0.10357
 Alpha virt. eigenvalues --    0.11852   0.13296   0.14091   0.17256   0.17960
 Alpha virt. eigenvalues --    0.18193   0.19041   0.20353   0.22279   0.23221
 Alpha virt. eigenvalues --    0.24429   0.25526   0.27818   0.30639   0.32406
 Alpha virt. eigenvalues --    0.33919   0.35205   0.36659   0.38165   0.38921
 Alpha virt. eigenvalues --    0.40372   0.42460   0.47189   0.51713   0.54181
 Alpha virt. eigenvalues --    0.54987   0.59340   0.60681   0.63759   0.67671
 Alpha virt. eigenvalues --    0.70201   0.70603   0.72377   0.74703   0.74904
 Alpha virt. eigenvalues --    0.75809   0.76375   0.77809   0.79182   0.81853
 Alpha virt. eigenvalues --    0.83475   0.85881   0.87674   0.88822   0.89737
 Alpha virt. eigenvalues --    0.91093   0.91617   0.93998   0.94957   0.97570
 Alpha virt. eigenvalues --    0.99459   1.02065   1.04302   1.04890   1.06931
 Alpha virt. eigenvalues --    1.08971   1.14631   1.17366   1.20962   1.22459
 Alpha virt. eigenvalues --    1.23917   1.27252   1.34018   1.36151   1.38930
 Alpha virt. eigenvalues --    1.42994   1.47845   1.49644   1.52784   1.58222
 Alpha virt. eigenvalues --    1.67456   1.69854   1.81439   1.90331   1.94123
 Alpha virt. eigenvalues --    1.97539   2.02293   2.03745   2.09218   2.14169
 Alpha virt. eigenvalues --    2.16126   2.16846   2.18689   2.22006   2.25029
 Alpha virt. eigenvalues --    2.26268   2.28234   2.29800   2.30340   2.31413
 Alpha virt. eigenvalues --    2.37089   2.37781   2.44671   2.45035   2.46125
 Alpha virt. eigenvalues --    2.47601   2.47693   2.50864   2.54812   2.55760
 Alpha virt. eigenvalues --    2.58485   2.61091   2.65728   2.66792   2.69745
 Alpha virt. eigenvalues --    2.71743   2.73707   2.76129   2.83111   2.86783
 Alpha virt. eigenvalues --    2.93625   3.03594   3.10198   3.12195   3.61012
 Alpha virt. eigenvalues --    3.63569   3.89764   3.92533   4.00189   4.09352
 Alpha virt. eigenvalues --    4.15319   4.17501   4.19278   4.23854   4.27665
 Alpha virt. eigenvalues --    4.32262   4.49215   4.50914   4.55924   4.68680
 Alpha virt. eigenvalues --    4.90124   4.95888   4.97874   5.14680   5.15839
 Alpha virt. eigenvalues --    5.20140   5.43727   5.84451   6.03804   6.13433
 Alpha virt. eigenvalues --    6.19118   6.28046   6.29838   6.45519   6.47959
 Alpha virt. eigenvalues --    6.58658   6.77553   6.78359   6.81076   6.84356
 Alpha virt. eigenvalues --    6.88037   6.89541   6.91654   6.97944   7.00555
 Alpha virt. eigenvalues --    7.07649   7.13281   7.23532   7.45383   7.60774
 Alpha virt. eigenvalues --    7.79633   8.10125   8.12654  14.07830  14.68153
          Condensed to atoms (all electrons):
              1          2          3          4          5
     1  O    8.185980  -0.169181   0.215289   0.004140  -0.017769
     2  O   -0.169181   8.248207   0.012210   0.189570  -0.019206
     3  H    0.215289   0.012210   0.547542   0.000949  -0.001476
     4  H    0.004140   0.189570   0.000949   0.563828  -0.003883
     5  Kr  -0.017769  -0.019206  -0.001476  -0.003883  36.033162
 Mulliken atomic charges:
              1
     1  O   -0.218459
     2  O   -0.261598
     3  H    0.225487
     4  H    0.245398
     5  Kr   0.009173
 Sum of Mulliken atomic charges =   0.00000
 Mulliken charges with hydrogens summed into heavy atoms:
              1
     1  O    0.007028
     2  O   -0.016201
     5  Kr   0.009173
 Sum of Mulliken charges with hydrogens summed into heavy atoms =   0.00000
          Condensed to fragments (all electrons):
     1      -0.009173
     2       0.009173
 Electronic spatial extent (au):  <R**2>=            484.0485
 Charge=              0.0000 electrons
 Dipole moment (field-independent basis, Debye):
    X=             -1.7451    Y=             -0.3970    Z=              1.4746  Tot=              2.3189
 Quadrupole moment (field-independent basis, Debye-Ang):
   XX=            -34.6694   YY=            -27.8788   ZZ=            -29.0023
   XY=             -2.2760   XZ=              3.2149   YZ=             -1.8333
 Traceless Quadrupole moment (field-independent basis, Debye-Ang):
   XX=             -4.1526   YY=              2.6380   ZZ=              1.5145
   XY=             -2.2760   XZ=              3.2149   YZ=             -1.8333
 Octapole moment (field-independent basis, Debye-Ang**2):
  XXX=            -34.0375  YYY=             -1.0893  ZZZ=              1.1689  XYY=             -5.0358
  XXY=             -7.1496  XXZ=              6.3257  XZZ=             -5.3194  YZZ=             -1.8951
  YYZ=              2.2787  XYZ=             -3.9069
 Hexadecapole moment (field-independent basis, Debye-Ang**3):
 XXXX=           -450.3278 YYYY=            -62.9490 ZZZZ=            -29.7632 XXXY=            -15.3734
 XXXZ=             13.9625 YYYX=             -4.1897 YYYZ=             -2.6844 ZZZX=              2.9590
 ZZZY=             -1.9822 XXYY=            -80.2762 XXZZ=            -71.6106 YYZZ=            -15.8660
 XXYZ=             -8.4274 YYXZ=              4.7001 ZZXY=             -3.6598
 N-N= 1.493707443132D+02 E-N=-7.236853092447D+03  KE= 2.900942768220D+03
 No NMR shielding tensors so no spin-rotation constants.
 Leave Link  601 at Sun May  3 12:53:27 2020, MaxMem= 1073741824 cpu:       0.7
 (Enter /home/matheus/.gaussian/g09/l122.exe)
 Counterpoise: doing DCBS calculation for fragment   1 NewBq=T
 Leave Link  122 at Sun May  3 12:53:27 2020, MaxMem= 1073741824 cpu:       0.0
 (Enter /home/matheus/.gaussian/g09/l301.exe)
 Basis read from rwf:  (5D, 7F)
 No pseudopotential information found on rwf file.
 There are   197 symmetry adapted basis functions of A   symmetry.
 Integral buffers will be    131072 words long.
 Raffenetti 2 integral format.
 Two-electron integral symmetry is turned on.
   197 basis functions,   415 primitive gaussians,   229 cartesian basis functions
     9 alpha electrons        9 beta electrons
       nuclear repulsion energy        36.6265003879 Hartrees.
 IExCor= 4639 DFT=T Ex+Corr=wB97XD ExCW=0 ScaHFX=  1.000000
 ScaDFX=  1.000000  1.000000  1.000000  1.000000 ScalE2=  1.000000  1.000000
 IRadAn=      5 IRanWt=     -1 IRanGd=            0 ICorTp=0
  HFx wShort=  0.000000 wLong=  0.250000 cFull=  0.222036 cShort=  0.000000 cLong=  0.777964
  DFx wShort=  0.000000 wLong=  0.250000 cFull=  0.000000 cShort=  0.000000 cLong=  1.000000
 NAtoms=    5 NActive=    5 NUniq=    5 SFac= 1.00D+00 NAtFMM=   60 NAOKFM=F Big=F
 R6Disp: Dispersion energy =        -0.0002523317 Hartrees.
 Nuclear repulsion after empirical dispersion term =       36.6262480562 Hartrees.
 No density basis found on file   718.
 Leave Link  301 at Sun May  3 12:53:27 2020, MaxMem= 1073741824 cpu:       0.2
 (Enter /home/matheus/.gaussian/g09/l302.exe)
 NPDir=0 NMtPBC=     1 NCelOv=     1 NCel=       1 NClECP=     1 NCelD=      1
         NCelK=      1 NCelE2=     1 NClLst=     1 CellRange=     0.0.
 One-electron integrals computed using PRISM.
 NBasis=   197 RedAO= T  NBF=   197
 NBsUse=   197 1.00D-06 NBFU=   197
 Precomputing XC quadrature grid using
 IXCGrd= 2 IRadAn=           5 IRanWt=          -1 IRanGd=           0 AccXCQ= 0.00D+00.
 NRdTot=     427 NPtTot=      123512 NUsed=      126579 NTot=      126611
 NSgBfM=   229   229   229   229   229 NAtAll=     5     5.
 Leave Link  302 at Sun May  3 12:53:28 2020, MaxMem= 1073741824 cpu:       1.0
 (Enter /home/matheus/.gaussian/g09/l303.exe)
 DipDrv:  MaxL=1.
 Leave Link  303 at Sun May  3 12:53:28 2020, MaxMem= 1073741824 cpu:       0.2
 (Enter /home/matheus/.gaussian/g09/l401.exe)
 Harris functional with IExCor= 4639 diagonalized for initial guess.
 ExpMin= 2.53D-02 ExpMax= 1.17D+07 ExpMxC= 1.33D+04 IAcc=3 IRadAn=         5 AccDes= 0.00D+00
 HarFok:  IExCor= 4639 AccDes= 0.00D+00 IRadAn=         5 IDoV= 1
 ScaDFX=  1.000000  1.000000  1.000000  1.000000
 FoFCou: FMM=F IPFlag=           0 FMFlag=      100000 FMFlg1=           0
         NFxFlg=           0 DoJE=T BraDBF=F KetDBF=T FulRan=T
         Omega=  0.000000  0.000000  1.000000  0.000000  0.000000 ICntrl=     500 IOpCl=  0
         NMat0=    1 NMatS0=    1 NMatT0=    0 NMatD0=    1 NMtDS0=    0 NMtDT0=    0
         I1Cent=           4 NGrid=           0.
 Petite list used in FoFCou.
 Harris En= -145.947113586776    
 Initial guess orbital symmetries:
       Occupied  (A) (A) (A) (A) (A) (A) (A) (A) (A)
       Virtual   (A) (A) (A) (A) (A) (A) (A) (A) (A) (A) (A) (A)
                 (A) (A) (A) (A) (A) (A) (A) (A) (A) (A) (A) (A)
                 (A) (A) (A) (A) (A) (A) (A) (A) (A) (A) (A) (A)
                 (A) (A) (A) (A) (A) (A) (A) (A) (A) (A) (A) (A)
                 (A) (A) (A) (A) (A) (A) (A) (A) (A) (A) (A) (A)
                 (A) (A) (A) (A) (A) (A) (A) (A) (A) (A) (A) (A)
                 (A) (A) (A) (A) (A) (A) (A) (A) (A) (A) (A) (A)
                 (A) (A) (A) (A) (A) (A) (A) (A) (A) (A) (A) (A)
                 (A) (A) (A) (A) (A) (A) (A) (A) (A) (A) (A) (A)
                 (A) (A) (A) (A) (A) (A) (A) (A) (A) (A) (A) (A)
                 (A) (A) (A) (A) (A) (A) (A) (A) (A) (A) (A) (A)
                 (A) (A) (A) (A) (A) (A) (A) (A) (A) (A) (A) (A)
                 (A) (A) (A) (A) (A) (A) (A) (A) (A) (A) (A) (A)
                 (A) (A) (A) (A) (A) (A) (A) (A) (A) (A) (A) (A)
                 (A) (A) (A) (A) (A) (A) (A) (A) (A) (A) (A) (A)
                 (A) (A) (A) (A) (A) (A) (A) (A)
 The electronic state of the initial guess is 1-A.
 Leave Link  401 at Sun May  3 12:53:28 2020, MaxMem= 1073741824 cpu:       3.8
 (Enter /home/matheus/.gaussian/g09/l502.exe)
 Closed shell SCF:
 Requested convergence on RMS density matrix=1.00D-08 within 128 cycles.
 Requested convergence on MAX density matrix=1.00D-06.
 Requested convergence on             energy=1.00D-06.
 No special actions if energy rises.
 Using DIIS extrapolation, IDIIS=  1040.
 Integral symmetry usage will be decided dynamically.
       126521 words used for storage of precomputed grid.
 IEnd=      305468 IEndB=      305468 NGot=  1073741824 MDV=  1073505667
 LenX=  1073505667 LenY=  1073452785
 Fock matrices will be formed incrementally for  20 cycles.

 Cycle   1  Pass 1  IDiag  1:
 FoFJK:  IHMeth= 1 ICntrl=     0 DoSepK=T KAlg= 1 I1Cent= 0 FoldK=F
 FoFCou: FMM=F IPFlag=           0 FMFlag=      100000 FMFlg1=           0
         NFxFlg=           0 DoJE=T BraDBF=F KetDBF=F FulRan=T
         Omega=  0.000000  0.000000  1.000000  0.000000  0.000000 ICntrl=     500 IOpCl=  0
         NMat0=    1 NMatS0=    1 NMatT0=    0 NMatD0=    1 NMtDS0=    0 NMtDT0=    0
         I1Cent=           0 NGrid=           0.
 Symmetry not used in FoFCou.
 E= -151.460571655416    
 DIIS: error= 3.99D-02 at cycle   1 NSaved=   1.
 NSaved= 1 IEnMin= 1 EnMin= -151.460571655416     IErMin= 1 ErrMin= 3.99D-02
 ErrMax= 3.99D-02 EMaxC= 1.00D-01 BMatC= 3.22D-01 BMatP= 3.22D-01
 IDIUse=3 WtCom= 6.01D-01 WtEn= 3.99D-01
 Coeff-Com:  0.100D+01
 Coeff-En:   0.100D+01
 Coeff:      0.100D+01
 Gap=     0.566 Goal=   None    Shift=    0.000
 GapD=    0.566 DampG=2.000 DampE=0.500 DampFc=1.0000 IDamp=-1.
 RMSDP=2.47D-03 MaxDP=1.02D-01              OVMax= 1.20D-01

 Cycle   2  Pass 1  IDiag  1:
 RMSU=  1.71D-03    CP:  9.52D-01
 FoFJK:  IHMeth= 1 ICntrl=     0 DoSepK=T KAlg= 1 I1Cent= 0 FoldK=F
 E= -151.500474320046     Delta-E=       -0.039902664629 Rises=F Damp=F
 DIIS: error= 1.61D-02 at cycle   2 NSaved=   2.
 NSaved= 2 IEnMin= 2 EnMin= -151.500474320046     IErMin= 2 ErrMin= 1.61D-02
 ErrMax= 1.61D-02 EMaxC= 1.00D-01 BMatC= 1.03D-01 BMatP= 3.22D-01
 IDIUse=3 WtCom= 8.39D-01 WtEn= 1.61D-01
 Coeff-Com:  0.341D+00 0.659D+00
 Coeff-En:   0.344D+00 0.656D+00
 Coeff:      0.342D+00 0.658D+00
 Gap=     0.511 Goal=   None    Shift=    0.000
 RMSDP=1.01D-03 MaxDP=4.86D-02 DE=-3.99D-02 OVMax= 6.09D-02

 Cycle   3  Pass 1  IDiag  1:
 RMSU=  3.76D-04    CP:  9.72D-01  6.54D-01
 FoFJK:  IHMeth= 1 ICntrl=     0 DoSepK=T KAlg= 1 I1Cent= 0 FoldK=F
 E= -151.556789756440     Delta-E=       -0.056315436394 Rises=F Damp=F
 DIIS: error= 4.66D-03 at cycle   3 NSaved=   3.
 NSaved= 3 IEnMin= 3 EnMin= -151.556789756440     IErMin= 3 ErrMin= 4.66D-03
 ErrMax= 4.66D-03 EMaxC= 1.00D-01 BMatC= 5.80D-03 BMatP= 1.03D-01
 IDIUse=3 WtCom= 9.53D-01 WtEn= 4.66D-02
 Coeff-Com:  0.109D-01 0.198D+00 0.791D+00
 Coeff-En:   0.000D+00 0.000D+00 0.100D+01
 Coeff:      0.104D-01 0.189D+00 0.801D+00
 Gap=     0.445 Goal=   None    Shift=    0.000
 RMSDP=2.65D-04 MaxDP=9.69D-03 DE=-5.63D-02 OVMax= 1.63D-02

 Cycle   4  Pass 1  IDiag  1:
 RMSU=  7.41D-05    CP:  9.67D-01  7.48D-01  8.68D-01
 FoFJK:  IHMeth= 1 ICntrl=     0 DoSepK=T KAlg= 1 I1Cent= 0 FoldK=F
 E= -151.560557042344     Delta-E=       -0.003767285904 Rises=F Damp=F
 DIIS: error= 4.78D-04 at cycle   4 NSaved=   4.
 NSaved= 4 IEnMin= 4 EnMin= -151.560557042344     IErMin= 4 ErrMin= 4.78D-04
 ErrMax= 4.78D-04 EMaxC= 1.00D-01 BMatC= 6.63D-05 BMatP= 5.80D-03
 IDIUse=3 WtCom= 9.95D-01 WtEn= 4.78D-03
 Coeff-Com: -0.114D-02 0.114D-01 0.133D+00 0.856D+00
 Coeff-En:   0.000D+00 0.000D+00 0.000D+00 0.100D+01
 Coeff:     -0.113D-02 0.113D-01 0.133D+00 0.857D+00
 Gap=     0.442 Goal=   None    Shift=    0.000
 RMSDP=3.86D-05 MaxDP=2.11D-03 DE=-3.77D-03 OVMax= 1.79D-03

 Cycle   5  Pass 1  IDiag  1:
 RMSU=  1.32D-05    CP:  9.68D-01  7.43D-01  9.18D-01  1.14D+00
 FoFJK:  IHMeth= 1 ICntrl=     0 DoSepK=T KAlg= 1 I1Cent= 0 FoldK=F
 E= -151.560607777276     Delta-E=       -0.000050734933 Rises=F Damp=F
 DIIS: error= 5.19D-05 at cycle   5 NSaved=   5.
 NSaved= 5 IEnMin= 5 EnMin= -151.560607777276     IErMin= 5 ErrMin= 5.19D-05
 ErrMax= 5.19D-05 EMaxC= 1.00D-01 BMatC= 9.96D-07 BMatP= 6.63D-05
 IDIUse=1 WtCom= 1.00D+00 WtEn= 0.00D+00
 Coeff-Com: -0.528D-03-0.116D-01-0.473D-01-0.751D-01 0.113D+01
 Coeff:     -0.528D-03-0.116D-01-0.473D-01-0.751D-01 0.113D+01
 Gap=     0.442 Goal=   None    Shift=    0.000
 RMSDP=1.35D-05 MaxDP=5.53D-04 DE=-5.07D-05 OVMax= 9.08D-04

 Cycle   6  Pass 1  IDiag  1:
 RMSU=  2.84D-06    CP:  9.68D-01  7.43D-01  9.32D-01  1.22D+00  1.28D+00
 FoFJK:  IHMeth= 1 ICntrl=     0 DoSepK=T KAlg= 1 I1Cent= 0 FoldK=F
 E= -151.560610451847     Delta-E=       -0.000002674571 Rises=F Damp=F
 DIIS: error= 1.29D-05 at cycle   6 NSaved=   6.
 NSaved= 6 IEnMin= 6 EnMin= -151.560610451847     IErMin= 6 ErrMin= 1.29D-05
 ErrMax= 1.29D-05 EMaxC= 1.00D-01 BMatC= 3.39D-08 BMatP= 9.96D-07
 IDIUse=1 WtCom= 1.00D+00 WtEn= 0.00D+00
 Coeff-Com:  0.626D-04 0.288D-03-0.189D-02-0.189D-01-0.436D-01 0.106D+01
 Coeff:      0.626D-04 0.288D-03-0.189D-02-0.189D-01-0.436D-01 0.106D+01
 Gap=     0.442 Goal=   None    Shift=    0.000
 RMSDP=1.91D-06 MaxDP=7.07D-05 DE=-2.67D-06 OVMax= 2.13D-04

 Cycle   7  Pass 1  IDiag  1:
 RMSU=  5.84D-07    CP:  9.68D-01  7.43D-01  9.33D-01  1.23D+00  1.33D+00
                    CP:  1.32D+00
 FoFJK:  IHMeth= 1 ICntrl=     0 DoSepK=T KAlg= 1 I1Cent= 0 FoldK=F
 E= -151.560610563293     Delta-E=       -0.000000111446 Rises=F Damp=F
 DIIS: error= 4.32D-06 at cycle   7 NSaved=   7.
 NSaved= 7 IEnMin= 7 EnMin= -151.560610563293     IErMin= 7 ErrMin= 4.32D-06
 ErrMax= 4.32D-06 EMaxC= 1.00D-01 BMatC= 5.54D-09 BMatP= 3.39D-08
 IDIUse=1 WtCom= 1.00D+00 WtEn= 0.00D+00
 Coeff-Com:  0.271D-04 0.512D-03 0.191D-02-0.119D-03-0.539D-01 0.869D-01
 Coeff-Com:  0.965D+00
 Coeff:      0.271D-04 0.512D-03 0.191D-02-0.119D-03-0.539D-01 0.869D-01
 Coeff:      0.965D+00
 Gap=     0.442 Goal=   None    Shift=    0.000
 RMSDP=5.79D-07 MaxDP=2.48D-05 DE=-1.11D-07 OVMax= 7.48D-05

 Cycle   8  Pass 1  IDiag  1:
 RMSU=  2.72D-07    CP:  9.68D-01  7.43D-01  9.33D-01  1.23D+00  1.33D+00
                    CP:  1.39D+00  1.29D+00
 FoFJK:  IHMeth= 1 ICntrl=     0 DoSepK=T KAlg= 1 I1Cent= 0 FoldK=F
 E= -151.560610573703     Delta-E=       -0.000000010410 Rises=F Damp=F
 DIIS: error= 3.78D-06 at cycle   8 NSaved=   8.
 NSaved= 8 IEnMin= 8 EnMin= -151.560610573703     IErMin= 8 ErrMin= 3.78D-06
 ErrMax= 3.78D-06 EMaxC= 1.00D-01 BMatC= 4.62D-09 BMatP= 5.54D-09
 IDIUse=1 WtCom= 1.00D+00 WtEn= 0.00D+00
 Coeff-Com:  0.175D-05 0.216D-03 0.143D-02 0.329D-02-0.183D-01-0.189D+00
 Coeff-Com:  0.597D+00 0.605D+00
 Coeff:      0.175D-05 0.216D-03 0.143D-02 0.329D-02-0.183D-01-0.189D+00
 Coeff:      0.597D+00 0.605D+00
 Gap=     0.442 Goal=   None    Shift=    0.000
 RMSDP=2.79D-07 MaxDP=1.21D-05 DE=-1.04D-08 OVMax= 3.35D-05

 Cycle   9  Pass 1  IDiag  1:
 RMSU=  1.08D-07    CP:  9.68D-01  7.43D-01  9.33D-01  1.23D+00  1.34D+00
                    CP:  1.41D+00  1.52D+00  9.20D-01
 FoFJK:  IHMeth= 1 ICntrl=     0 DoSepK=T KAlg= 1 I1Cent= 0 FoldK=F
 E= -151.560610578046     Delta-E=       -0.000000004343 Rises=F Damp=F
 DIIS: error= 4.44D-07 at cycle   9 NSaved=   9.
 NSaved= 9 IEnMin= 9 EnMin= -151.560610578046     IErMin= 9 ErrMin= 4.44D-07
 ErrMax= 4.44D-07 EMaxC= 1.00D-01 BMatC= 9.47D-11 BMatP= 4.62D-09
 IDIUse=1 WtCom= 1.00D+00 WtEn= 0.00D+00
 Coeff-Com: -0.979D-06-0.572D-04-0.335D-03-0.813D-03 0.987D-02-0.493D-02
 Coeff-Com: -0.128D+00-0.343D-01 0.116D+01
 Coeff:     -0.979D-06-0.572D-04-0.335D-03-0.813D-03 0.987D-02-0.493D-02
 Coeff:     -0.128D+00-0.343D-01 0.116D+01
 Gap=     0.442 Goal=   None    Shift=    0.000
 RMSDP=1.26D-07 MaxDP=2.66D-06 DE=-4.34D-09 OVMax= 1.69D-05

 Cycle  10  Pass 1  IDiag  1:
 RMSU=  2.21D-08    CP:  9.68D-01  7.43D-01  9.33D-01  1.23D+00  1.34D+00
                    CP:  1.41D+00  1.61D+00  1.11D+00  1.40D+00
 FoFJK:  IHMeth= 1 ICntrl=     0 DoSepK=T KAlg= 1 I1Cent= 0 FoldK=F
 E= -151.560610578383     Delta-E=       -0.000000000337 Rises=F Damp=F
 DIIS: error= 1.28D-07 at cycle  10 NSaved=  10.
 NSaved=10 IEnMin=10 EnMin= -151.560610578383     IErMin=10 ErrMin= 1.28D-07
 ErrMax= 1.28D-07 EMaxC= 1.00D-01 BMatC= 7.94D-12 BMatP= 9.47D-11
 IDIUse=1 WtCom= 1.00D+00 WtEn= 0.00D+00
 Coeff-Com:  0.418D-07-0.157D-04-0.126D-03-0.390D-03 0.183D-02 0.140D-01
 Coeff-Com: -0.452D-01-0.509D-01-0.872D-01 0.117D+01
 Coeff:      0.418D-07-0.157D-04-0.126D-03-0.390D-03 0.183D-02 0.140D-01
 Coeff:     -0.452D-01-0.509D-01-0.872D-01 0.117D+01
 Gap=     0.442 Goal=   None    Shift=    0.000
 RMSDP=4.06D-08 MaxDP=8.06D-07 DE=-3.37D-10 OVMax= 5.98D-06

 Cycle  11  Pass 1  IDiag  1:
 RMSU=  6.86D-09    CP:  9.68D-01  7.43D-01  9.33D-01  1.23D+00  1.34D+00
                    CP:  1.41D+00  1.63D+00  1.16D+00  1.53D+00  1.54D+00
 FoFJK:  IHMeth= 1 ICntrl=     0 DoSepK=T KAlg= 1 I1Cent= 0 FoldK=F
 E= -151.560610578415     Delta-E=       -0.000000000032 Rises=F Damp=F
 DIIS: error= 4.18D-08 at cycle  11 NSaved=  11.
 NSaved=11 IEnMin=11 EnMin= -151.560610578415     IErMin=11 ErrMin= 4.18D-08
 ErrMax= 4.18D-08 EMaxC= 1.00D-01 BMatC= 5.04D-13 BMatP= 7.94D-12
 IDIUse=1 WtCom= 1.00D+00 WtEn= 0.00D+00
 Coeff-Com: -0.125D-06 0.153D-05 0.206D-04 0.380D-04-0.515D-03-0.723D-03
 Coeff-Com:  0.128D-01 0.606D-02-0.845D-01-0.405D-01 0.111D+01
 Coeff:     -0.125D-06 0.153D-05 0.206D-04 0.380D-04-0.515D-03-0.723D-03
 Coeff:      0.128D-01 0.606D-02-0.845D-01-0.405D-01 0.111D+01
 Gap=     0.442 Goal=   None    Shift=    0.000
 RMSDP=1.04D-08 MaxDP=3.29D-07 DE=-3.19D-11 OVMax= 1.21D-06

 Cycle  12  Pass 1  IDiag  1:
 RMSU=  1.93D-09    CP:  9.68D-01  7.43D-01  9.33D-01  1.23D+00  1.34D+00
                    CP:  1.41D+00  1.63D+00  1.16D+00  1.54D+00  1.73D+00
                    CP:  1.42D+00
 FoFJK:  IHMeth= 1 ICntrl=     0 DoSepK=T KAlg= 1 I1Cent= 0 FoldK=F
 E= -151.560610578417     Delta-E=       -0.000000000002 Rises=F Damp=F
 DIIS: error= 1.20D-08 at cycle  12 NSaved=  12.
 NSaved=12 IEnMin=12 EnMin= -151.560610578417     IErMin=12 ErrMin= 1.20D-08
 ErrMax= 1.20D-08 EMaxC= 1.00D-01 BMatC= 3.27D-14 BMatP= 5.04D-13
 IDIUse=1 WtCom= 1.00D+00 WtEn= 0.00D+00
 Coeff-Com: -0.392D-07 0.725D-06 0.825D-05 0.200D-04-0.107D-03-0.953D-03
 Coeff-Com:  0.314D-02 0.318D-02-0.962D-05-0.706D-01 0.165D-01 0.105D+01
 Coeff:     -0.392D-07 0.725D-06 0.825D-05 0.200D-04-0.107D-03-0.953D-03
 Coeff:      0.314D-02 0.318D-02-0.962D-05-0.706D-01 0.165D-01 0.105D+01
 Gap=     0.442 Goal=   None    Shift=    0.000
 RMSDP=2.81D-09 MaxDP=7.06D-08 DE=-1.65D-12 OVMax= 2.69D-07

 SCF Done:  E(RwB97XD) =  -151.560610578     A.U. after   12 cycles
             Convg  =    0.2810D-08             -V/T =  2.0061
 KE= 1.506446004448D+02 PE=-4.316902443456D+02 EE= 9.285878526610D+01
 Leave Link  502 at Sun May  3 12:54:03 2020, MaxMem= 1073741824 cpu:     276.3
 (Enter /home/matheus/.gaussian/g09/l601.exe)
 Copying SCF densities to generalized density rwf, IOpCl= 0 IROHF=0.

 **********************************************************************

            Population analysis using the SCF density.

 **********************************************************************

 Orbital symmetries:
       Occupied  (A) (A) (A) (A) (A) (A) (A) (A) (A)
       Virtual   (A) (A) (A) (A) (A) (A) (A) (A) (A) (A) (A) (A)
                 (A) (A) (A) (A) (A) (A) (A) (A) (A) (A) (A) (A)
                 (A) (A) (A) (A) (A) (A) (A) (A) (A) (A) (A) (A)
                 (A) (A) (A) (A) (A) (A) (A) (A) (A) (A) (A) (A)
                 (A) (A) (A) (A) (A) (A) (A) (A) (A) (A) (A) (A)
                 (A) (A) (A) (A) (A) (A) (A) (A) (A) (A) (A) (A)
                 (A) (A) (A) (A) (A) (A) (A) (A) (A) (A) (A) (A)
                 (A) (A) (A) (A) (A) (A) (A) (A) (A) (A) (A) (A)
                 (A) (A) (A) (A) (A) (A) (A) (A) (A) (A) (A) (A)
                 (A) (A) (A) (A) (A) (A) (A) (A) (A) (A) (A) (A)
                 (A) (A) (A) (A) (A) (A) (A) (A) (A) (A) (A) (A)
                 (A) (A) (A) (A) (A) (A) (A) (A) (A) (A) (A) (A)
                 (A) (A) (A) (A) (A) (A) (A) (A) (A) (A) (A) (A)
                 (A) (A) (A) (A) (A) (A) (A) (A) (A) (A) (A) (A)
                 (A) (A) (A) (A) (A) (A) (A) (A) (A) (A) (A) (A)
                 (A) (A) (A) (A) (A) (A) (A) (A)
 The electronic state is 1-A.
 Alpha  occ. eigenvalues --  -19.34267 -19.34262  -1.24823  -1.03423  -0.67245
 Alpha  occ. eigenvalues --   -0.58665  -0.53611  -0.41773  -0.41310
 Alpha virt. eigenvalues --    0.02854   0.03920   0.07287   0.08735   0.09628
 Alpha virt. eigenvalues --    0.10771   0.10844   0.14162   0.17280   0.17743
 Alpha virt. eigenvalues --    0.18586   0.19153   0.20991   0.23114   0.25336
 Alpha virt. eigenvalues --    0.27073   0.31006   0.31746   0.32422   0.34024
 Alpha virt. eigenvalues --    0.34374   0.37743   0.37854   0.39245   0.40579
 Alpha virt. eigenvalues --    0.43491   0.44812   0.46842   0.48150   0.49853
 Alpha virt. eigenvalues --    0.52961   0.58023   0.60327   0.61587   0.65198
 Alpha virt. eigenvalues --    0.69972   0.73523   0.75173   0.76642   0.78324
 Alpha virt. eigenvalues --    0.79992   0.80476   0.88067   0.88404   0.90015
 Alpha virt. eigenvalues --    0.90661   0.92470   0.93745   0.95640   0.96239
 Alpha virt. eigenvalues --    0.99227   1.00107   1.04158   1.08832   1.12278
 Alpha virt. eigenvalues --    1.13916   1.15844   1.20531   1.21654   1.23418
 Alpha virt. eigenvalues --    1.25874   1.28910   1.30324   1.31874   1.33134
 Alpha virt. eigenvalues --    1.34426   1.35085   1.38059   1.38703   1.41661
 Alpha virt. eigenvalues --    1.44283   1.47506   1.48569   1.51319   1.54907
 Alpha virt. eigenvalues --    1.58899   1.65432   1.66556   1.70308   1.77557
 Alpha virt. eigenvalues --    1.81566   1.85121   1.92897   1.95632   2.02496
 Alpha virt. eigenvalues --    2.03704   2.05788   2.14603   2.18753   2.22477
 Alpha virt. eigenvalues --    2.25585   2.28699   2.34111   2.35898   2.37023
 Alpha virt. eigenvalues --    2.46264   2.51281   2.53805   2.59825   2.62668
 Alpha virt. eigenvalues --    2.66349   2.69779   2.78986   2.84811   2.92543
 Alpha virt. eigenvalues --    3.02295   3.09068   3.10152   3.26749   3.30819
 Alpha virt. eigenvalues --    3.40703   3.54542   3.58075   3.66810   3.79072
 Alpha virt. eigenvalues --    3.79292   3.82417   3.82748   3.83228   3.84021
 Alpha virt. eigenvalues --    3.86755   3.89671   3.92274   3.94814   3.96496
 Alpha virt. eigenvalues --    3.97873   4.01675   4.06180   4.10575   4.16811
 Alpha virt. eigenvalues --    4.18911   4.19457   4.24949   4.29528   4.34661
 Alpha virt. eigenvalues --    4.39608   4.50415   4.57027   4.68629   4.90258
 Alpha virt. eigenvalues --    4.96024   4.98091   5.14613   5.16157   5.20409
 Alpha virt. eigenvalues --    5.43559   5.84339   6.03362   6.13456   6.18977
 Alpha virt. eigenvalues --    6.27995   6.29772   6.45446   6.47894   6.58507
 Alpha virt. eigenvalues --    6.77432   6.78067   6.80705   6.84110   6.87927
 Alpha virt. eigenvalues --    6.89272   6.91428   6.97742   7.00358   7.07499
 Alpha virt. eigenvalues --    7.13057   7.23371   7.45210   7.60579   7.79377
 Alpha virt. eigenvalues --    8.09772   8.11935  10.88752  14.07409  14.67501
 Alpha virt. eigenvalues --   14.84337  14.88804  15.10495  29.04054  29.04160
 Alpha virt. eigenvalues --   29.08908  29.14161  29.23868  49.10143 148.32505
 Alpha virt. eigenvalues --  148.39180 148.71272 752.48045
          Condensed to atoms (all electrons):
              1          2          3          4          5
     1  O    8.163595  -0.161548   0.211115   0.002637   0.000378
     2  O   -0.161548   8.193576   0.011730   0.202782  -0.001674
     3  H    0.211115   0.011730   0.557680   0.002576  -0.001304
     4  H    0.002637   0.202782   0.002576   0.558989  -0.004170
     5  Kr   0.000378  -0.001674  -0.001304  -0.004170   0.001119
 Mulliken atomic charges:
              1
     1  O   -0.216177
     2  O   -0.244865
     3  H    0.218203
     4  H    0.237187
     5  Kr   0.005652
 Sum of Mulliken atomic charges =   0.00000
 Mulliken charges with hydrogens summed into heavy atoms:
              1
     1  O    0.002026
     2  O   -0.007678
     5  Kr   0.005652
 Sum of Mulliken charges with hydrogens summed into heavy atoms =   0.00000
          Condensed to fragments (all electrons):
     1      -0.005652
     2       0.005652
 Electronic spatial extent (au):  <R**2>=            320.5355
 Charge=              0.0000 electrons
 Dipole moment (field-independent basis, Debye):
    X=             -1.5417    Y=             -0.1656    Z=              1.5877  Tot=              2.2193
 Quadrupole moment (field-independent basis, Debye-Ang):
   XX=            -17.0785   YY=            -10.2446   ZZ=            -11.4284
   XY=             -2.4034   XZ=              3.1318   YZ=             -1.8488
 Traceless Quadrupole moment (field-independent basis, Debye-Ang):
   XX=             -4.1613   YY=              2.6726   ZZ=              1.4888
   XY=             -2.4034   XZ=              3.1318   YZ=             -1.8488
 Octapole moment (field-independent basis, Debye-Ang**2):
  XXX=            -84.8285  YYY=             -1.3103  ZZZ=              1.3497  XYY=            -22.1828
  XXY=             -7.0139  XXZ=              6.4436  XZZ=            -22.5070  YZZ=             -1.9710
  YYZ=              2.3391  XYZ=             -3.9127
 Hexadecapole moment (field-independent basis, Debye-Ang**3):
 XXXX=           -328.9821 YYYY=            -44.6241 ZZZZ=            -11.5416 XXXY=            -14.9761
 XXXZ=             13.7560 YYYX=             -3.9598 YYYZ=             -2.7152 ZZZX=              2.8339
 ZZZY=             -2.0114 XXYY=            -57.0514 XXZZ=            -48.5125 YYZZ=             -9.7647
 XXYZ=             -8.4462 YYXZ=              4.6466 ZZXY=             -3.5484
 N-N= 3.662624805622D+01 E-N=-4.316902436573D+02  KE= 1.506446004448D+02
 No NMR shielding tensors so no spin-rotation constants.
 Leave Link  601 at Sun May  3 12:54:03 2020, MaxMem= 1073741824 cpu:       0.7
 (Enter /home/matheus/.gaussian/g09/l122.exe)
 Counterpoise: doing DCBS calculation for fragment   2 NewBq=T
 Leave Link  122 at Sun May  3 12:54:03 2020, MaxMem= 1073741824 cpu:       0.0
 (Enter /home/matheus/.gaussian/g09/l301.exe)
 Basis read from rwf:  (5D, 7F)
 No pseudopotential information found on rwf file.
 There are   197 symmetry adapted basis functions of A   symmetry.
 Integral buffers will be    131072 words long.
 Raffenetti 2 integral format.
 Two-electron integral symmetry is turned on.
   197 basis functions,   415 primitive gaussians,   229 cartesian basis functions
    18 alpha electrons       18 beta electrons
       nuclear repulsion energy         0.0000000000 Hartrees.
 IExCor= 4639 DFT=T Ex+Corr=wB97XD ExCW=0 ScaHFX=  1.000000
 ScaDFX=  1.000000  1.000000  1.000000  1.000000 ScalE2=  1.000000  1.000000
 IRadAn=      5 IRanWt=     -1 IRanGd=            0 ICorTp=0
  HFx wShort=  0.000000 wLong=  0.250000 cFull=  0.222036 cShort=  0.000000 cLong=  0.777964
  DFx wShort=  0.000000 wLong=  0.250000 cFull=  0.000000 cShort=  0.000000 cLong=  1.000000
 NAtoms=    5 NActive=    5 NUniq=    5 SFac= 1.00D+00 NAtFMM=   60 NAOKFM=F Big=F
 R6Disp: Dispersion energy =         0.0000000000 Hartrees.
 Nuclear repulsion after empirical dispersion term =        0.0000000000 Hartrees.
 No density basis found on file   718.
 Leave Link  301 at Sun May  3 12:54:03 2020, MaxMem= 1073741824 cpu:       0.2
 (Enter /home/matheus/.gaussian/g09/l302.exe)
 NPDir=0 NMtPBC=     1 NCelOv=     1 NCel=       1 NClECP=     1 NCelD=      1
         NCelK=      1 NCelE2=     1 NClLst=     1 CellRange=     0.0.
 One-electron integrals computed using PRISM.
 NBasis=   197 RedAO= T  NBF=   197
 NBsUse=   197 1.00D-06 NBFU=   197
 Precomputing XC quadrature grid using
 IXCGrd= 2 IRadAn=           5 IRanWt=          -1 IRanGd=           0 AccXCQ= 0.00D+00.
 NRdTot=     427 NPtTot=      123512 NUsed=      126579 NTot=      126611
 NSgBfM=   229   229   229   229   229 NAtAll=     5     5.
 Leave Link  302 at Sun May  3 12:54:03 2020, MaxMem= 1073741824 cpu:       1.0
 (Enter /home/matheus/.gaussian/g09/l303.exe)
 DipDrv:  MaxL=1.
 Leave Link  303 at Sun May  3 12:54:03 2020, MaxMem= 1073741824 cpu:       0.2
 (Enter /home/matheus/.gaussian/g09/l401.exe)
 Harris functional with IExCor= 4639 diagonalized for initial guess.
 ExpMin= 2.53D-02 ExpMax= 1.17D+07 ExpMxC= 1.33D+04 IAcc=3 IRadAn=         5 AccDes= 0.00D+00
 HarFok:  IExCor= 4639 AccDes= 0.00D+00 IRadAn=         5 IDoV= 1
 ScaDFX=  1.000000  1.000000  1.000000  1.000000
 FoFCou: FMM=F IPFlag=           0 FMFlag=      100000 FMFlg1=           0
         NFxFlg=           0 DoJE=T BraDBF=F KetDBF=T FulRan=T
         Omega=  0.000000  0.000000  1.000000  0.000000  0.000000 ICntrl=     500 IOpCl=  0
         NMat0=    1 NMatS0=    1 NMatT0=    0 NMatD0=    1 NMtDS0=    0 NMtDT0=    0
         I1Cent=           4 NGrid=           0.
 Petite list used in FoFCou.
 Harris En= -2729.46036066974    
 Initial guess orbital symmetries:
       Occupied  (A) (A) (A) (A) (A) (A) (A) (A) (A) (A) (A) (A)
                 (A) (A) (A) (A) (A) (A)
       Virtual   (A) (A) (A) (A) (A) (A) (A) (A) (A) (A) (A) (A)
                 (A) (A) (A) (A) (A) (A) (A) (A) (A) (A) (A) (A)
                 (A) (A) (A) (A) (A) (A) (A) (A) (A) (A) (A) (A)
                 (A) (A) (A) (A) (A) (A) (A) (A) (A) (A) (A) (A)
                 (A) (A) (A) (A) (A) (A) (A) (A) (A) (A) (A) (A)
                 (A) (A) (A) (A) (A) (A) (A) (A) (A) (A) (A) (A)
                 (A) (A) (A) (A) (A) (A) (A) (A) (A) (A) (A) (A)
                 (A) (A) (A) (A) (A) (A) (A) (A) (A) (A) (A) (A)
                 (A) (A) (A) (A) (A) (A) (A) (A) (A) (A) (A) (A)
                 (A) (A) (A) (A) (A) (A) (A) (A) (A) (A) (A) (A)
                 (A) (A) (A) (A) (A) (A) (A) (A) (A) (A) (A) (A)
                 (A) (A) (A) (A) (A) (A) (A) (A) (A) (A) (A) (A)
                 (A) (A) (A) (A) (A) (A) (A) (A) (A) (A) (A) (A)
                 (A) (A) (A) (A) (A) (A) (A) (A) (A) (A) (A) (A)
                 (A) (A) (A) (A) (A) (A) (A) (A) (A) (A) (A)
 The electronic state of the initial guess is 1-A.
 Leave Link  401 at Sun May  3 12:54:03 2020, MaxMem= 1073741824 cpu:       3.7
 (Enter /home/matheus/.gaussian/g09/l502.exe)
 Closed shell SCF:
 Requested convergence on RMS density matrix=1.00D-08 within 128 cycles.
 Requested convergence on MAX density matrix=1.00D-06.
 Requested convergence on             energy=1.00D-06.
 No special actions if energy rises.
 Using DIIS extrapolation, IDIIS=  1040.
 Integral symmetry usage will be decided dynamically.
       126521 words used for storage of precomputed grid.
 IEnd=      305468 IEndB=      305468 NGot=  1073741824 MDV=  1073505667
 LenX=  1073505667 LenY=  1073452785
 Fock matrices will be formed incrementally for  20 cycles.

 Cycle   1  Pass 1  IDiag  1:
 FoFJK:  IHMeth= 1 ICntrl=     0 DoSepK=T KAlg= 1 I1Cent= 0 FoldK=F
 FoFCou: FMM=F IPFlag=           0 FMFlag=      100000 FMFlg1=           0
         NFxFlg=           0 DoJE=T BraDBF=F KetDBF=F FulRan=T
         Omega=  0.000000  0.000000  1.000000  0.000000  0.000000 ICntrl=     500 IOpCl=  0
         NMat0=    1 NMatS0=    1 NMatT0=    0 NMatD0=    1 NMtDS0=    0 NMtDT0=    0
         I1Cent=           0 NGrid=           0.
 Symmetry not used in FoFCou.
 E= -2753.44672377551    
 DIIS: error= 6.34D-02 at cycle   1 NSaved=   1.
 NSaved= 1 IEnMin= 1 EnMin= -2753.44672377551     IErMin= 1 ErrMin= 6.34D-02
 ErrMax= 6.34D-02 EMaxC= 1.00D-01 BMatC= 1.90D+00 BMatP= 1.90D+00
 IDIUse=3 WtCom= 3.66D-01 WtEn= 6.34D-01
 Coeff-Com:  0.100D+01
 Coeff-En:   0.100D+01
 Coeff:      0.100D+01
 Gap=     0.654 Goal=   None    Shift=    0.000
 GapD=    0.654 DampG=2.000 DampE=0.500 DampFc=1.0000 IDamp=-1.
 RMSDP=5.58D-03 MaxDP=3.66D-01              OVMax= 1.83D-01

 Cycle   2  Pass 1  IDiag  1:
 RMSU=  3.88D-03    CP:  1.05D+00
 FoFJK:  IHMeth= 1 ICntrl=     0 DoSepK=T KAlg= 1 I1Cent= 0 FoldK=F
 E= -2753.72379110350     Delta-E=       -0.277067327985 Rises=F Damp=F
 DIIS: error= 3.09D-02 at cycle   2 NSaved=   2.
 NSaved= 2 IEnMin= 2 EnMin= -2753.72379110350     IErMin= 2 ErrMin= 3.09D-02
 ErrMax= 3.09D-02 EMaxC= 1.00D-01 BMatC= 4.66D-01 BMatP= 1.90D+00
 IDIUse=3 WtCom= 6.91D-01 WtEn= 3.09D-01
 Coeff-Com:  0.326D+00 0.674D+00
 Coeff-En:   0.160D+00 0.840D+00
 Coeff:      0.275D+00 0.725D+00
 Gap=     0.492 Goal=   None    Shift=    0.000
 RMSDP=2.50D-03 MaxDP=1.60D-01 DE=-2.77D-01 OVMax= 7.65D-02

 Cycle   3  Pass 1  IDiag  1:
 RMSU=  3.64D-04    CP:  1.03D+00  5.60D-01
 FoFJK:  IHMeth= 1 ICntrl=     0 DoSepK=T KAlg= 1 I1Cent= 0 FoldK=F
 E= -2753.86709357974     Delta-E=       -0.143302476245 Rises=F Damp=F
 DIIS: error= 4.33D-03 at cycle   3 NSaved=   3.
 NSaved= 3 IEnMin= 3 EnMin= -2753.86709357974     IErMin= 3 ErrMin= 4.33D-03
 ErrMax= 4.33D-03 EMaxC= 1.00D-01 BMatC= 1.01D-02 BMatP= 4.66D-01
 IDIUse=3 WtCom= 9.57D-01 WtEn= 4.33D-02
 Coeff-Com: -0.779D-02 0.116D+00 0.892D+00
 Coeff-En:   0.000D+00 0.000D+00 0.100D+01
 Coeff:     -0.745D-02 0.111D+00 0.897D+00
 Gap=     0.517 Goal=   None    Shift=    0.000
 RMSDP=2.93D-04 MaxDP=1.72D-02 DE=-1.43D-01 OVMax= 1.20D-02

 Cycle   4  Pass 1  IDiag  1:
 RMSU=  4.08D-05    CP:  1.03D+00  6.11D-01  9.71D-01
 FoFJK:  IHMeth= 1 ICntrl=     0 DoSepK=T KAlg= 1 I1Cent= 0 FoldK=F
 E= -2753.87021705793     Delta-E=       -0.003123478182 Rises=F Damp=F
 DIIS: error= 1.88D-04 at cycle   4 NSaved=   4.
 NSaved= 4 IEnMin= 4 EnMin= -2753.87021705793     IErMin= 4 ErrMin= 1.88D-04
 ErrMax= 1.88D-04 EMaxC= 1.00D-01 BMatC= 1.42D-05 BMatP= 1.01D-02
 IDIUse=3 WtCom= 9.98D-01 WtEn= 1.88D-03
 Coeff-Com: -0.251D-03-0.174D-01-0.769D-01 0.109D+01
 Coeff-En:   0.000D+00 0.000D+00 0.000D+00 0.100D+01
 Coeff:     -0.251D-03-0.174D-01-0.768D-01 0.109D+01
 Gap=     0.516 Goal=   None    Shift=    0.000
 RMSDP=2.30D-05 MaxDP=8.67D-04 DE=-3.12D-03 OVMax= 9.53D-04

 Cycle   5  Pass 1  IDiag  1:
 RMSU=  8.63D-06    CP:  1.03D+00  6.09D-01  9.91D-01  1.23D+00
 FoFJK:  IHMeth= 1 ICntrl=     0 DoSepK=T KAlg= 1 I1Cent= 0 FoldK=F
 E= -2753.87022562454     Delta-E=       -0.000008566609 Rises=F Damp=F
 DIIS: error= 1.40D-05 at cycle   5 NSaved=   5.
 NSaved= 5 IEnMin= 5 EnMin= -2753.87022562454     IErMin= 5 ErrMin= 1.40D-05
 ErrMax= 1.40D-05 EMaxC= 1.00D-01 BMatC= 4.72D-08 BMatP= 1.42D-05
 IDIUse=1 WtCom= 1.00D+00 WtEn= 0.00D+00
 Coeff-Com:  0.756D-04 0.119D-02 0.140D-02-0.190D+00 0.119D+01
 Coeff:      0.756D-04 0.119D-02 0.140D-02-0.190D+00 0.119D+01
 Gap=     0.515 Goal=   None    Shift=    0.000
 RMSDP=3.65D-06 MaxDP=1.46D-04 DE=-8.57D-06 OVMax= 2.09D-04

 Cycle   6  Pass 1  IDiag  1:
 RMSU=  7.28D-07    CP:  1.03D+00  6.09D-01  9.93D-01  1.27D+00  1.18D+00
 FoFJK:  IHMeth= 1 ICntrl=     0 DoSepK=T KAlg= 1 I1Cent= 0 FoldK=F
 E= -2753.87022576463     Delta-E=       -0.000000140097 Rises=F Damp=F
 DIIS: error= 1.66D-06 at cycle   6 NSaved=   6.
 NSaved= 6 IEnMin= 6 EnMin= -2753.87022576463     IErMin= 6 ErrMin= 1.66D-06
 ErrMax= 1.66D-06 EMaxC= 1.00D-01 BMatC= 6.46D-10 BMatP= 4.72D-08
 IDIUse=1 WtCom= 1.00D+00 WtEn= 0.00D+00
 Coeff-Com:  0.663D-05 0.302D-03 0.801D-03-0.406D-01 0.187D+00 0.853D+00
 Coeff:      0.663D-05 0.302D-03 0.801D-03-0.406D-01 0.187D+00 0.853D+00
 Gap=     0.515 Goal=   None    Shift=    0.000
 RMSDP=2.25D-07 MaxDP=8.37D-06 DE=-1.40D-07 OVMax= 1.02D-05

 Cycle   7  Pass 1  IDiag  1:
 RMSU=  6.70D-08    CP:  1.03D+00  6.09D-01  9.93D-01  1.27D+00  1.19D+00
                    CP:  1.11D+00
 FoFJK:  IHMeth= 1 ICntrl=     0 DoSepK=T KAlg= 1 I1Cent= 0 FoldK=F
 E= -2753.87022576533     Delta-E=       -0.000000000702 Rises=F Damp=F
 DIIS: error= 1.84D-07 at cycle   7 NSaved=   7.
 NSaved= 7 IEnMin= 7 EnMin= -2753.87022576533     IErMin= 7 ErrMin= 1.84D-07
 ErrMax= 1.84D-07 EMaxC= 1.00D-01 BMatC= 2.01D-11 BMatP= 6.46D-10
 IDIUse=1 WtCom= 1.00D+00 WtEn= 0.00D+00
 Coeff-Com: -0.138D-05 0.196D-04 0.141D-03 0.664D-04-0.114D-01 0.108D+00
 Coeff-Com:  0.903D+00
 Coeff:     -0.138D-05 0.196D-04 0.141D-03 0.664D-04-0.114D-01 0.108D+00
 Coeff:      0.903D+00
 Gap=     0.515 Goal=   None    Shift=    0.000
 RMSDP=4.97D-08 MaxDP=1.99D-06 DE=-7.02D-10 OVMax= 1.96D-06

 Cycle   8  Pass 1  IDiag  1:
 RMSU=  1.43D-08    CP:  1.03D+00  6.09D-01  9.93D-01  1.27D+00  1.19D+00
                    CP:  1.15D+00  1.08D+00
 FoFJK:  IHMeth= 1 ICntrl=     0 DoSepK=T KAlg= 1 I1Cent= 0 FoldK=F
 E= -2753.87022576536     Delta-E=       -0.000000000022 Rises=F Damp=F
 DIIS: error= 5.74D-08 at cycle   8 NSaved=   8.
 NSaved= 8 IEnMin= 8 EnMin= -2753.87022576536     IErMin= 8 ErrMin= 5.74D-08
 ErrMax= 5.74D-08 EMaxC= 1.00D-01 BMatC= 1.46D-12 BMatP= 2.01D-11
 IDIUse=1 WtCom= 1.00D+00 WtEn= 0.00D+00
 Coeff-Com: -0.105D-06-0.519D-05 0.235D-05 0.158D-02-0.831D-02-0.207D-01
 Coeff-Com:  0.113D+00 0.914D+00
 Coeff:     -0.105D-06-0.519D-05 0.235D-05 0.158D-02-0.831D-02-0.207D-01
 Coeff:      0.113D+00 0.914D+00
 Gap=     0.515 Goal=   None    Shift=    0.000
 RMSDP=1.26D-08 MaxDP=4.93D-07 DE=-2.18D-11 OVMax= 3.63D-07

 Cycle   9  Pass 1  IDiag  1:
 RMSU=  2.37D-09    CP:  1.03D+00  6.09D-01  9.93D-01  1.27D+00  1.19D+00
                    CP:  1.16D+00  1.13D+00  1.09D+00
 FoFJK:  IHMeth= 1 ICntrl=     0 DoSepK=T KAlg= 1 I1Cent= 0 FoldK=F
 E= -2753.87022576534     Delta-E=        0.000000000011 Rises=F Damp=F
 DIIS: error= 7.80D-09 at cycle   9 NSaved=   9.
 NSaved= 9 IEnMin= 8 EnMin= -2753.87022576536     IErMin= 9 ErrMin= 7.80D-09
 ErrMax= 7.80D-09 EMaxC= 1.00D-01 BMatC= 7.14D-15 BMatP= 1.46D-12
 IDIUse=1 WtCom= 1.00D+00 WtEn= 0.00D+00
 Coeff-Com:  0.108D-07 0.846D-07-0.159D-05-0.127D-03 0.646D-03 0.136D-02
 Coeff-Com: -0.213D-01-0.101D+00 0.112D+01
 Coeff:      0.108D-07 0.846D-07-0.159D-05-0.127D-03 0.646D-03 0.136D-02
 Coeff:     -0.213D-01-0.101D+00 0.112D+01
 Gap=     0.515 Goal=   None    Shift=    0.000
 RMSDP=1.51D-09 MaxDP=5.95D-08 DE= 1.09D-11 OVMax= 9.33D-08

 SCF Done:  E(RwB97XD) =  -2753.87022577     A.U. after    9 cycles
             Convg  =    0.1512D-08             -V/T =  2.0013
 KE= 2.750247977448D+03 PE=-6.580156697539D+03 EE= 1.076038494326D+03
 Leave Link  502 at Sun May  3 12:54:30 2020, MaxMem= 1073741824 cpu:     213.5
 (Enter /home/matheus/.gaussian/g09/l601.exe)
 Copying SCF densities to generalized density rwf, IOpCl= 0 IROHF=0.

 **********************************************************************

            Population analysis using the SCF density.

 **********************************************************************

 Orbital symmetries:
       Occupied  (A) (A) (A) (A) (A) (A) (A) (A) (A) (A) (A) (A)
                 (A) (A) (A) (A) (A) (A)
       Virtual   (A) (A) (A) (A) (A) (A) (A) (A) (A) (A) (A) (A)
                 (A) (A) (A) (A) (A) (A) (A) (A) (A) (A) (A) (A)
                 (A) (A) (A) (A) (A) (A) (A) (A) (A) (A) (A) (A)
                 (A) (A) (A) (A) (A) (A) (A) (A) (A) (A) (A) (A)
                 (A) (A) (A) (A) (A) (A) (A) (A) (A) (A) (A) (A)
                 (A) (A) (A) (A) (A) (A) (A) (A) (A) (A) (A) (A)
                 (A) (A) (A) (A) (A) (A) (A) (A) (A) (A) (A) (A)
                 (A) (A) (A) (A) (A) (A) (A) (A) (A) (A) (A) (A)
                 (A) (A) (A) (A) (A) (A) (A) (A) (A) (A) (A) (A)
                 (A) (A) (A) (A) (A) (A) (A) (A) (A) (A) (A) (A)
                 (A) (A) (A) (A) (A) (A) (A) (A) (A) (A) (A) (A)
                 (A) (A) (A) (A) (A) (A) (A) (A) (A) (A) (A) (A)
                 (A) (A) (A) (A) (A) (A) (A) (A) (A) (A) (A) (A)
                 (A) (A) (A) (A) (A) (A) (A) (A) (A) (A) (A) (A)
                 (A) (A) (A) (A) (A) (A) (A) (A) (A) (A) (A)
 The electronic state is 1-A.
 Alpha  occ. eigenvalues -- -513.08049 -67.34865 -60.89737 -60.89735 -60.89735
 Alpha  occ. eigenvalues --   -9.80180  -7.49479  -7.49479  -7.49478  -3.36164
 Alpha  occ. eigenvalues --   -3.36164  -3.36164  -3.36163  -3.36163  -1.00829
 Alpha  occ. eigenvalues --   -0.48268  -0.48264  -0.48263
 Alpha virt. eigenvalues --    0.03279   0.05223   0.08802   0.09590   0.12241
 Alpha virt. eigenvalues --    0.12616   0.13599   0.14020   0.16451   0.17310
 Alpha virt. eigenvalues --    0.18094   0.19789   0.20788   0.25598   0.26545
 Alpha virt. eigenvalues --    0.26915   0.28616   0.30701   0.32717   0.34356
 Alpha virt. eigenvalues --    0.35818   0.37412   0.38340   0.39668   0.41402
 Alpha virt. eigenvalues --    0.42384   0.42772   0.52534   0.52987   0.57534
 Alpha virt. eigenvalues --    0.58910   0.66782   0.68256   0.69625   0.71983
 Alpha virt. eigenvalues --    0.74068   0.74445   0.75987   0.77488   0.78307
 Alpha virt. eigenvalues --    0.79453   0.81020   0.82659   0.85645   0.87258
 Alpha virt. eigenvalues --    0.88008   0.89345   0.90890   0.91294   0.95513
 Alpha virt. eigenvalues --    0.97065   0.97676   0.98115   0.98676   1.01031
 Alpha virt. eigenvalues --    1.04613   1.06542   1.07710   1.09125   1.11649
 Alpha virt. eigenvalues --    1.16290   1.19821   1.23913   1.27784   1.29675
 Alpha virt. eigenvalues --    1.32637   1.35013   1.39424   1.44338   1.45312
 Alpha virt. eigenvalues --    1.54287   1.57090   1.58788   1.74323   1.76114
 Alpha virt. eigenvalues --    1.80791   1.83228   1.86101   1.99218   2.16090
 Alpha virt. eigenvalues --    2.19400   2.25041   2.27790   2.29333   2.29969
 Alpha virt. eigenvalues --    2.31852   2.32824   2.35972   2.38664   2.41830
 Alpha virt. eigenvalues --    2.42562   2.45488   2.46751   2.48383   2.49231
 Alpha virt. eigenvalues --    2.50626   2.52455   2.55488   2.57093   2.57887
 Alpha virt. eigenvalues --    2.61061   2.62939   2.64371   2.68895   2.72591
 Alpha virt. eigenvalues --    2.73999   2.78129   2.84495   2.88912   2.89894
 Alpha virt. eigenvalues --    2.94639   3.00136   3.04344   3.10288   3.19656
 Alpha virt. eigenvalues --    3.23462   3.26714   3.31235   3.38887   3.47278
 Alpha virt. eigenvalues --    3.61373   3.64686   3.83389   3.86989   4.04638
 Alpha virt. eigenvalues --    4.35040   4.42459   4.53643   4.57709   4.64639
 Alpha virt. eigenvalues --    4.73261   4.88278   4.90497   4.96040   5.01861
 Alpha virt. eigenvalues --    5.12677   5.24863   5.61396   5.63568   5.79040
 Alpha virt. eigenvalues --    5.92695   6.06185   6.06968   6.76169   6.86679
 Alpha virt. eigenvalues --    7.38841   7.48843   7.56982   7.62407   7.77371
 Alpha virt. eigenvalues --    7.80065   7.93886   8.15071   8.17268   8.22543
 Alpha virt. eigenvalues --    8.40897   8.50329   8.57003   8.86718   9.66398
 Alpha virt. eigenvalues --    9.77492   9.84563   9.88811   9.92567  10.00229
 Alpha virt. eigenvalues --   10.15707  10.32437  10.39304  10.98425  11.53289
 Alpha virt. eigenvalues --   11.66115  11.82109  12.08457  12.09786  13.22126
 Alpha virt. eigenvalues --   13.66456  14.52442  62.83469  64.70788
          Condensed to atoms (all electrons):
              1          2          3          4          5
     1  O    0.001378  -0.001483  -0.000745   0.000966  -0.006259
     2  O   -0.001483   0.004850   0.000522  -0.003407  -0.002430
     3  H   -0.000745   0.000522   0.000563  -0.000281  -0.000060
     4  H    0.000966  -0.003407  -0.000281   0.003387  -0.018912
     5  Kr  -0.006259  -0.002430  -0.000060  -0.018912  36.054002
 Mulliken atomic charges:
              1
     1  O    0.006143
     2  O    0.001949
     3  H    0.000001
     4  H    0.018247
     5  Kr  -0.026340
 Sum of Mulliken atomic charges =   0.00000
 Mulliken charges with hydrogens summed into heavy atoms:
              1
     1  O    0.006144
     2  O    0.020196
     5  Kr  -0.026340
 Sum of Mulliken charges with hydrogens summed into heavy atoms =   0.00000
          Condensed to fragments (all electrons):
     1       0.026340
     2      -0.026340
 Electronic spatial extent (au):  <R**2>=            163.6311
 Charge=              0.0000 electrons
 Dipole moment (field-independent basis, Debye):
    X=              0.0007    Y=              0.0005    Z=              0.0002  Tot=              0.0009
 Quadrupole moment (field-independent basis, Debye-Ang):
   XX=            -17.6418   YY=            -17.6544   ZZ=            -17.6615
   XY=              0.0036   XZ=              0.0012   YZ=             -0.0002
 Traceless Quadrupole moment (field-independent basis, Debye-Ang):
   XX=              0.0107   YY=             -0.0018   ZZ=             -0.0089
   XY=              0.0036   XZ=              0.0012   YZ=             -0.0002
 Octapole moment (field-independent basis, Debye-Ang**2):
  XXX=             52.0274  YYY=              0.5269  ZZZ=              0.0228  XYY=             17.3562
  XXY=              0.1683  XXZ=              0.0052  XZZ=             17.3605  YZZ=              0.1764
  YYZ=              0.0076  XYZ=              0.0000
 Hexadecapole moment (field-independent basis, Debye-Ang**3):
 XXXX=           -120.7394 YYYY=            -18.4883 ZZZZ=            -18.5007 XXXY=             -0.5032
 XXXZ=             -0.0174 YYYX=             -0.5064 YYYZ=             -0.0003 ZZZX=             -0.0192
 ZZZY=              0.0002 XXYY=            -23.2175 XXZZ=            -23.2208 YYZZ=             -6.1637
 XXYZ=             -0.0004 YYXZ=             -0.0068 ZZXY=             -0.1678
 N-N= 0.000000000000D+00 E-N=-6.580156696775D+03  KE= 2.750247977448D+03
 No NMR shielding tensors so no spin-rotation constants.
 Leave Link  601 at Sun May  3 12:54:30 2020, MaxMem= 1073741824 cpu:       0.7
 (Enter /home/matheus/.gaussian/g09/l122.exe)
 Counterpoise: doing MCBS calculation for fragment   1
 Leave Link  122 at Sun May  3 12:54:30 2020, MaxMem= 1073741824 cpu:       0.0
 (Enter /home/matheus/.gaussian/g09/l301.exe)
 Basis read from rwf:  (5D, 7F)
 No pseudopotential information found on rwf file.
 There are   138 symmetry adapted basis functions of A   symmetry.
 Integral buffers will be    131072 words long.
 Raffenetti 2 integral format.
 Two-electron integral symmetry is turned on.
   138 basis functions,   198 primitive gaussians,   160 cartesian basis functions
     9 alpha electrons        9 beta electrons
       nuclear repulsion energy        36.6265003879 Hartrees.
 IExCor= 4639 DFT=T Ex+Corr=wB97XD ExCW=0 ScaHFX=  1.000000
 ScaDFX=  1.000000  1.000000  1.000000  1.000000 ScalE2=  1.000000  1.000000
 IRadAn=      5 IRanWt=     -1 IRanGd=            0 ICorTp=0
  HFx wShort=  0.000000 wLong=  0.250000 cFull=  0.222036 cShort=  0.000000 cLong=  0.777964
  DFx wShort=  0.000000 wLong=  0.250000 cFull=  0.000000 cShort=  0.000000 cLong=  1.000000
 NAtoms=    5 NActive=    4 NUniq=    4 SFac= 1.00D+00 NAtFMM=   60 NAOKFM=F Big=F
 R6Disp: Dispersion energy =        -0.0002523317 Hartrees.
 Nuclear repulsion after empirical dispersion term =       36.6262480562 Hartrees.
 No density basis found on file   718.
 Leave Link  301 at Sun May  3 12:54:30 2020, MaxMem= 1073741824 cpu:       0.2
 (Enter /home/matheus/.gaussian/g09/l302.exe)
 NPDir=0 NMtPBC=     1 NCelOv=     1 NCel=       1 NClECP=     1 NCelD=      1
         NCelK=      1 NCelE2=     1 NClLst=     1 CellRange=     0.0.
 One-electron integrals computed using PRISM.
 NBasis=   138 RedAO= T  NBF=   138
 NBsUse=   138 1.00D-06 NBFU=   138
 Precomputing XC quadrature grid using
 IXCGrd= 2 IRadAn=           5 IRanWt=          -1 IRanGd=           0 AccXCQ= 0.00D+00.
 NRdTot=     344 NPtTot=       92556 NUsed=       95038 NTot=       95070
 NSgBfM=   160   160   160   160   160 NAtAll=     4     4.
 Leave Link  302 at Sun May  3 12:54:30 2020, MaxMem= 1073741824 cpu:       0.8
 (Enter /home/matheus/.gaussian/g09/l303.exe)
 DipDrv:  MaxL=1.
 Leave Link  303 at Sun May  3 12:54:31 2020, MaxMem= 1073741824 cpu:       0.2
 (Enter /home/matheus/.gaussian/g09/l401.exe)
 Harris functional with IExCor= 4639 diagonalized for initial guess.
 ExpMin= 2.53D-02 ExpMax= 1.53D+04 ExpMxC= 5.22D+02 IAcc=3 IRadAn=         5 AccDes= 0.00D+00
 HarFok:  IExCor= 4639 AccDes= 0.00D+00 IRadAn=         5 IDoV= 1
 ScaDFX=  1.000000  1.000000  1.000000  1.000000
 FoFCou: FMM=F IPFlag=           0 FMFlag=      100000 FMFlg1=           0
         NFxFlg=           0 DoJE=T BraDBF=F KetDBF=T FulRan=T
         Omega=  0.000000  0.000000  1.000000  0.000000  0.000000 ICntrl=     500 IOpCl=  0
         NMat0=    1 NMatS0=    1 NMatT0=    0 NMatD0=    1 NMtDS0=    0 NMtDT0=    0
         I1Cent=           4 NGrid=           0.
 Petite list used in FoFCou.
 Harris En= -145.947012824747    
 Initial guess orbital symmetries:
       Occupied  (A) (A) (A) (A) (A) (A) (A) (A) (A)
       Virtual   (A) (A) (A) (A) (A) (A) (A) (A) (A) (A) (A) (A)
                 (A) (A) (A) (A) (A) (A) (A) (A) (A) (A) (A) (A)
                 (A) (A) (A) (A) (A) (A) (A) (A) (A) (A) (A) (A)
                 (A) (A) (A) (A) (A) (A) (A) (A) (A) (A) (A) (A)
                 (A) (A) (A) (A) (A) (A) (A) (A) (A) (A) (A) (A)
                 (A) (A) (A) (A) (A) (A) (A) (A) (A) (A) (A) (A)
                 (A) (A) (A) (A) (A) (A) (A) (A) (A) (A) (A) (A)
                 (A) (A) (A) (A) (A) (A) (A) (A) (A) (A) (A) (A)
                 (A) (A) (A) (A) (A) (A) (A) (A) (A) (A) (A) (A)
                 (A) (A) (A) (A) (A) (A) (A) (A) (A) (A) (A) (A)
                 (A) (A) (A) (A) (A) (A) (A) (A) (A)
 The electronic state of the initial guess is 1-A.
 Leave Link  401 at Sun May  3 12:54:31 2020, MaxMem= 1073741824 cpu:       2.0
 (Enter /home/matheus/.gaussian/g09/l502.exe)
 Closed shell SCF:
 Requested convergence on RMS density matrix=1.00D-08 within 128 cycles.
 Requested convergence on MAX density matrix=1.00D-06.
 Requested convergence on             energy=1.00D-06.
 No special actions if energy rises.
 Using DIIS extrapolation, IDIIS=  1040.
 Integral symmetry usage will be decided dynamically.
        94980 words used for storage of precomputed grid.
 IEnd=      192360 IEndB=      192360 NGot=  1073741824 MDV=  1073591865
 LenX=  1073591865 LenY=  1073565824
 Fock matrices will be formed incrementally for  20 cycles.

 Cycle   1  Pass 1  IDiag  1:
 FoFJK:  IHMeth= 1 ICntrl=     0 DoSepK=T KAlg= 1 I1Cent= 0 FoldK=F
 FoFCou: FMM=F IPFlag=           0 FMFlag=      100000 FMFlg1=           0
         NFxFlg=           0 DoJE=T BraDBF=F KetDBF=F FulRan=T
         Omega=  0.000000  0.000000  1.000000  0.000000  0.000000 ICntrl=     500 IOpCl=  0
         NMat0=    1 NMatS0=    1 NMatT0=    0 NMatD0=    1 NMtDS0=    0 NMtDT0=    0
         I1Cent=           0 NGrid=           0.
 Symmetry not used in FoFCou.
 E= -151.460676998543    
 DIIS: error= 4.35D-02 at cycle   1 NSaved=   1.
 NSaved= 1 IEnMin= 1 EnMin= -151.460676998543     IErMin= 1 ErrMin= 4.35D-02
 ErrMax= 4.35D-02 EMaxC= 1.00D-01 BMatC= 3.21D-01 BMatP= 3.21D-01
 IDIUse=3 WtCom= 5.65D-01 WtEn= 4.35D-01
 Coeff-Com:  0.100D+01
 Coeff-En:   0.100D+01
 Coeff:      0.100D+01
 Gap=     0.567 Goal=   None    Shift=    0.000
[...]
 NSaved= 2 IEnMin= 2 EnMin= -2753.87012686049     IErMin= 2 ErrMin= 4.14D-06
 ErrMax= 4.14D-06 EMaxC= 1.00D-01 BMatC= 3.62D-09 BMatP= 3.49D-06
 IDIUse=1 WtCom= 1.00D+00 WtEn= 0.00D+00
 Coeff-Com: -0.974D-02 0.101D+01
 Coeff:     -0.974D-02 0.101D+01
 Gap=     0.513 Goal=   None    Shift=    0.000
 RMSDP=1.91D-06 MaxDP=7.95D-05 DE=-4.90D-07 OVMax= 4.84D-05

 Cycle   3  Pass 1  IDiag  1:
 RMSU=  5.17D-07    CP:  1.00D+00  1.10D+00
 FoFJK:  IHMeth= 1 ICntrl=     0 DoSepK=T KAlg= 1 I1Cent= 0 FoldK=F
 E= -2753.87012686714     Delta-E=       -0.000000006651 Rises=F Damp=F
 DIIS: error= 6.55D-07 at cycle   3 NSaved=   3.
 NSaved= 3 IEnMin= 3 EnMin= -2753.87012686714     IErMin= 3 ErrMin= 6.55D-07
 ErrMax= 6.55D-07 EMaxC= 1.00D-01 BMatC= 8.81D-11 BMatP= 3.62D-09
 IDIUse=1 WtCom= 1.00D+00 WtEn= 0.00D+00
 Coeff-Com:  0.297D-03-0.129D+00 0.113D+01
 Coeff:      0.297D-03-0.129D+00 0.113D+01
 Gap=     0.513 Goal=   None    Shift=    0.000
 RMSDP=2.38D-07 MaxDP=1.11D-05 DE=-6.65D-09 OVMax= 9.76D-06

 Cycle   4  Pass 1  IDiag  1:
 RMSU=  4.95D-08    CP:  1.00D+00  1.11D+00  1.21D+00
 FoFJK:  IHMeth= 1 ICntrl=     0 DoSepK=T KAlg= 1 I1Cent= 0 FoldK=F
 E= -2753.87012686734     Delta-E=       -0.000000000202 Rises=F Damp=F
 DIIS: error= 3.19D-07 at cycle   4 NSaved=   4.
 NSaved= 4 IEnMin= 4 EnMin= -2753.87012686734     IErMin= 4 ErrMin= 3.19D-07
 ErrMax= 3.19D-07 EMaxC= 1.00D-01 BMatC= 6.93D-12 BMatP= 8.81D-11
 IDIUse=1 WtCom= 1.00D+00 WtEn= 0.00D+00
 Coeff-Com:  0.202D-03-0.460D-01 0.284D+00 0.762D+00
 Coeff:      0.202D-03-0.460D-01 0.284D+00 0.762D+00
 Gap=     0.513 Goal=   None    Shift=    0.000
 RMSDP=1.78D-08 MaxDP=7.78D-07 DE=-2.02D-10 OVMax= 1.08D-06

 Cycle   5  Pass 1  IDiag  1:
 RMSU=  7.49D-09    CP:  1.00D+00  1.11D+00  1.22D+00  1.12D+00
 FoFJK:  IHMeth= 1 ICntrl=     0 DoSepK=T KAlg= 1 I1Cent= 0 FoldK=F
 E= -2753.87012686734     Delta-E=        0.000000000000 Rises=F Damp=F
 DIIS: error= 2.76D-08 at cycle   5 NSaved=   5.
 NSaved= 5 IEnMin= 4 EnMin= -2753.87012686734     IErMin= 5 ErrMin= 2.76D-08
 ErrMax= 2.76D-08 EMaxC= 1.00D-01 BMatC= 1.22D-13 BMatP= 6.93D-12
 IDIUse=1 WtCom= 1.00D+00 WtEn= 0.00D+00
 Coeff-Com: -0.291D-04 0.945D-02-0.735D-01-0.558D-01 0.112D+01
 Coeff:     -0.291D-04 0.945D-02-0.735D-01-0.558D-01 0.112D+01
 Gap=     0.513 Goal=   None    Shift=    0.000
 RMSDP=9.20D-09 MaxDP=5.53D-07 DE= 0.00D+00 OVMax= 4.23D-07

 SCF Done:  E(RwB97XD) =  -2753.87012687     A.U. after    5 cycles
             Convg  =    0.9203D-08             -V/T =  2.0013
 KE= 2.750283626569D+03 PE=-6.580194966292D+03 EE= 1.076041212856D+03
 Leave Link  502 at Sun May  3 13:15:56 2020, MaxMem= 1073741824 cpu:      88.4
 (Enter /home/matheus/.gaussian/g09/l122.exe)
 Restoring MOs from calculation   4 to rwf.
 Counterpoise: doing MCBS calculation for fragment   1
 Leave Link  122 at Sun May  3 13:15:57 2020, MaxMem= 1073741824 cpu:       0.0
 (Enter /home/matheus/.gaussian/g09/l301.exe)
 Basis read from rwf:  (5D, 7F)
 No pseudopotential information found on rwf file.
 There are   138 symmetry adapted basis functions of A   symmetry.
 Integral buffers will be    131072 words long.
 Raffenetti 2 integral format.
 Two-electron integral symmetry is turned on.
   138 basis functions,   198 primitive gaussians,   160 cartesian basis functions
     9 alpha electrons        9 beta electrons
       nuclear repulsion energy        36.6265003879 Hartrees.
 IExCor= 4639 DFT=T Ex+Corr=wB97XD ExCW=0 ScaHFX=  1.000000
 ScaDFX=  1.000000  1.000000  1.000000  1.000000 ScalE2=  1.000000  1.000000
 IRadAn=      5 IRanWt=     -1 IRanGd=            0 ICorTp=0
  HFx wShort=  0.000000 wLong=  0.250000 cFull=  0.222036 cShort=  0.000000 cLong=  0.777964
  DFx wShort=  0.000000 wLong=  0.250000 cFull=  0.000000 cShort=  0.000000 cLong=  1.000000
 NAtoms=    5 NActive=    4 NUniq=    4 SFac= 1.00D+00 NAtFMM=   60 NAOKFM=F Big=F
 R6Disp: Dispersion energy =        -0.0002523317 Hartrees.
 Nuclear repulsion after empirical dispersion term =       36.6262480562 Hartrees.
 No density basis found on file   718.
 Leave Link  301 at Sun May  3 13:15:57 2020, MaxMem= 1073741824 cpu:       0.2
 (Enter /home/matheus/.gaussian/g09/l302.exe)
 NPDir=0 NMtPBC=     1 NCelOv=     1 NCel=       1 NClECP=     1 NCelD=      1
         NCelK=      1 NCelE2=     1 NClLst=     1 CellRange=     0.0.
 One-electron integrals computed using PRISM.
 NBasis=   138 RedAO= T  NBF=   138
 NBsUse=   138 1.00D-06 NBFU=   138
 Precomputing XC quadrature grid using
 IXCGrd= 2 IRadAn=           5 IRanWt=          -1 IRanGd=           0 AccXCQ= 0.00D+00.
 NRdTot=     344 NPtTot=       92556 NUsed=       95038 NTot=       95070
 NSgBfM=   160   160   160   160   160 NAtAll=     4     4.
 Leave Link  302 at Sun May  3 13:15:57 2020, MaxMem= 1073741824 cpu:       0.8
 (Enter /home/matheus/.gaussian/g09/l303.exe)
 DipDrv:  MaxL=1.
 Leave Link  303 at Sun May  3 13:15:57 2020, MaxMem= 1073741824 cpu:       0.1
 (Enter /home/matheus/.gaussian/g09/l401.exe)
 Initial guess read from the read-write file.
 Guess basis will be translated and rotated to current coordinates.
 Initial guess orbital symmetries:
       Occupied  (A) (A) (A) (A) (A) (A) (A) (A) (A)
       Virtual   (A) (A) (A) (A) (A) (A) (A) (A) (A) (A) (A) (A)
                 (A) (A) (A) (A) (A) (A) (A) (A) (A) (A) (A) (A)
                 (A) (A) (A) (A) (A) (A) (A) (A) (A) (A) (A) (A)
                 (A) (A) (A) (A) (A) (A) (A) (A) (A) (A) (A) (A)
                 (A) (A) (A) (A) (A) (A) (A) (A) (A) (A) (A) (A)
                 (A) (A) (A) (A) (A) (A) (A) (A) (A) (A) (A) (A)
                 (A) (A) (A) (A) (A) (A) (A) (A) (A) (A) (A) (A)
                 (A) (A) (A) (A) (A) (A) (A) (A) (A) (A) (A) (A)
                 (A) (A) (A) (A) (A) (A) (A) (A) (A) (A) (A) (A)
                 (A) (A) (A) (A) (A) (A) (A) (A) (A) (A) (A) (A)
                 (A) (A) (A) (A) (A) (A) (A) (A) (A)
 The electronic state of the initial guess is 1-A.
 Generating alternative initial guess.
 Harris functional with IExCor= 4639 diagonalized for initial guess.
 ExpMin= 2.53D-02 ExpMax= 1.53D+04 ExpMxC= 5.22D+02 IAcc=3 IRadAn=         5 AccDes= 0.00D+00
 HarFok:  IExCor= 4639 AccDes= 0.00D+00 IRadAn=         5 IDoV= 1
 ScaDFX=  1.000000  1.000000  1.000000  1.000000
 FoFCou: FMM=F IPFlag=           0 FMFlag=      100000 FMFlg1=           0
         NFxFlg=           0 DoJE=T BraDBF=F KetDBF=T FulRan=T
         Omega=  0.000000  0.000000  1.000000  0.000000  0.000000 ICntrl=     500 IOpCl=  0
         NMat0=    1 NMatS0=    1 NMatT0=    0 NMatD0=    1 NMtDS0=    0 NMtDT0=    0
         I1Cent=           4 NGrid=           0.
 Petite list used in FoFCou.
 Harris En= -145.947012786588    
 Leave Link  401 at Sun May  3 13:15:57 2020, MaxMem= 1073741824 cpu:       2.3
 (Enter /home/matheus/.gaussian/g09/l502.exe)
 Closed shell SCF:
 Requested convergence on RMS density matrix=1.00D-08 within 128 cycles.
 Requested convergence on MAX density matrix=1.00D-06.
 Requested convergence on             energy=1.00D-06.
 No special actions if energy rises.
 Using DIIS extrapolation, IDIIS=  1040.
 Integral symmetry usage will be decided dynamically.
        94980 words used for storage of precomputed grid.
 IEnd=      192360 IEndB=      192360 NGot=  1073741824 MDV=  1073591865
 LenX=  1073591865 LenY=  1073565824
 Fock matrices will be formed incrementally for  20 cycles.

 Cycle   1  Pass 1  IDiag  1:
 FoFJK:  IHMeth= 1 ICntrl=     0 DoSepK=T KAlg= 1 I1Cent= 0 FoldK=F
 FoFCou: FMM=F IPFlag=           0 FMFlag=      100000 FMFlg1=           0
         NFxFlg=           0 DoJE=T BraDBF=F KetDBF=F FulRan=T
         Omega=  0.000000  0.000000  1.000000  0.000000  0.000000 ICntrl=     500 IOpCl=  0
         NMat0=    1 NMatS0=    1 NMatT0=    0 NMatD0=    1 NMtDS0=    0 NMtDT0=    0
         I1Cent=           0 NGrid=           0.
 Symmetry not used in FoFCou.
 E= -151.560543128040    
 DIIS: error= 8.86D-06 at cycle   1 NSaved=   1.
 NSaved= 1 IEnMin= 1 EnMin= -151.560543128040     IErMin= 1 ErrMin= 8.86D-06
 ErrMax= 8.86D-06 EMaxC= 1.00D-01 BMatC= 2.41D-08 BMatP= 2.41D-08
 IDIUse=1 WtCom= 1.00D+00 WtEn= 0.00D+00
 Coeff-Com:  0.100D+01
 Coeff:      0.100D+01
 Gap=     0.445 Goal=   None    Shift=    0.000
 RMSDP=1.01D-06 MaxDP=2.39D-05              OVMax= 4.46D-05

 Cycle   2  Pass 1  IDiag  1:
 RMSU=  7.11D-07    CP:  1.00D+00
 FoFJK:  IHMeth= 1 ICntrl=     0 DoSepK=T KAlg= 1 I1Cent= 0 FoldK=F
 E= -151.560543153369     Delta-E=       -0.000000025329 Rises=F Damp=F
 DIIS: error= 2.23D-06 at cycle   2 NSaved=   2.
 NSaved= 2 IEnMin= 2 EnMin= -151.560543153369     IErMin= 2 ErrMin= 2.23D-06
 ErrMax= 2.23D-06 EMaxC= 1.00D-01 BMatC= 8.35D-10 BMatP= 2.41D-08
 IDIUse=1 WtCom= 1.00D+00 WtEn= 0.00D+00
 Coeff-Com: -0.117D+00 0.112D+01
 Coeff:     -0.117D+00 0.112D+01
 Gap=     0.445 Goal=   None    Shift=    0.000
 RMSDP=3.10D-07 MaxDP=8.87D-06 DE=-2.53D-08 OVMax= 1.69D-05

 Cycle   3  Pass 1  IDiag  1:
 RMSU=  1.22D-07    CP:  1.00D+00  1.26D+00
 FoFJK:  IHMeth= 1 ICntrl=     0 DoSepK=T KAlg= 1 I1Cent= 0 FoldK=F
 E= -151.560543155221     Delta-E=       -0.000000001852 Rises=F Damp=F
 DIIS: error= 9.05D-07 at cycle   3 NSaved=   3.
 NSaved= 3 IEnMin= 3 EnMin= -151.560543155221     IErMin= 3 ErrMin= 9.05D-07
 ErrMax= 9.05D-07 EMaxC= 1.00D-01 BMatC= 1.20D-10 BMatP= 8.35D-10
 IDIUse=1 WtCom= 1.00D+00 WtEn= 0.00D+00
 Coeff-Com: -0.335D-01 0.159D+00 0.874D+00
 Coeff:     -0.335D-01 0.159D+00 0.874D+00
 Gap=     0.445 Goal=   None    Shift=    0.000
 RMSDP=9.45D-08 MaxDP=2.68D-06 DE=-1.85D-09 OVMax= 6.18D-06

 Cycle   4  Pass 1  IDiag  1:
 RMSU=  5.13D-08    CP:  1.00D+00  1.31D+00  1.20D+00
 FoFJK:  IHMeth= 1 ICntrl=     0 DoSepK=T KAlg= 1 I1Cent= 0 FoldK=F
 E= -151.560543155358     Delta-E=       -0.000000000137 Rises=F Damp=F
 DIIS: error= 7.55D-07 at cycle   4 NSaved=   4.
 NSaved= 4 IEnMin= 4 EnMin= -151.560543155358     IErMin= 4 ErrMin= 7.55D-07
 ErrMax= 7.55D-07 EMaxC= 1.00D-01 BMatC= 9.46D-11 BMatP= 1.20D-10
 IDIUse=1 WtCom= 1.00D+00 WtEn= 0.00D+00
 Coeff-Com:  0.287D-02-0.122D+00 0.505D+00 0.615D+00
 Coeff:      0.287D-02-0.122D+00 0.505D+00 0.615D+00
 Gap=     0.445 Goal=   None    Shift=    0.000
 RMSDP=4.62D-08 MaxDP=9.02D-07 DE=-1.37D-10 OVMax= 2.85D-06

 Cycle   5  Pass 1  IDiag  1:
 RMSU=  1.47D-08    CP:  1.00D+00  1.32D+00  1.38D+00  7.30D-01
 FoFJK:  IHMeth= 1 ICntrl=     0 DoSepK=T KAlg= 1 I1Cent= 0 FoldK=F
 E= -151.560543155440     Delta-E=       -0.000000000082 Rises=F Damp=F
 DIIS: error= 1.31D-07 at cycle   5 NSaved=   5.
 NSaved= 5 IEnMin= 5 EnMin= -151.560543155440     IErMin= 5 ErrMin= 1.31D-07
 ErrMax= 1.31D-07 EMaxC= 1.00D-01 BMatC= 2.87D-12 BMatP= 9.46D-11
 IDIUse=1 WtCom= 1.00D+00 WtEn= 0.00D+00
 Coeff-Com:  0.474D-02-0.430D-01-0.558D-01 0.877D-01 0.101D+01
 Coeff:      0.474D-02-0.430D-01-0.558D-01 0.877D-01 0.101D+01
 Gap=     0.445 Goal=   None    Shift=    0.000
 RMSDP=1.95D-08 MaxDP=3.91D-07 DE=-8.17D-11 OVMax= 1.68D-06

 Cycle   6  Pass 1  IDiag  1:
 RMSU=  4.80D-09    CP:  1.00D+00  1.33D+00  1.45D+00  8.54D-01  1.40D+00
 FoFJK:  IHMeth= 1 ICntrl=     0 DoSepK=T KAlg= 1 I1Cent= 0 FoldK=F
 E= -151.560543155446     Delta-E=       -0.000000000006 Rises=F Damp=F
 DIIS: error= 3.81D-08 at cycle   6 NSaved=   6.
 NSaved= 6 IEnMin= 6 EnMin= -151.560543155446     IErMin= 6 ErrMin= 3.81D-08
 ErrMax= 3.81D-08 EMaxC= 1.00D-01 BMatC= 1.67D-13 BMatP= 2.87D-12
 IDIUse=1 WtCom= 1.00D+00 WtEn= 0.00D+00
 Coeff-Com: -0.596D-03 0.127D-01-0.325D-01-0.478D-01-0.476D-01 0.112D+01
 Coeff:     -0.596D-03 0.127D-01-0.325D-01-0.478D-01-0.476D-01 0.112D+01
 Gap=     0.445 Goal=   None    Shift=    0.000
 RMSDP=6.61D-09 MaxDP=1.49D-07 DE=-6.05D-12 OVMax= 6.09D-07

 SCF Done:  E(RwB97XD) =  -151.560543155     A.U. after    6 cycles
             Convg  =    0.6611D-08             -V/T =  2.0061
 KE= 1.506437718185D+02 PE=-4.316881069528D+02 EE= 9.285754392258D+01
 Leave Link  502 at Sun May  3 13:16:02 2020, MaxMem= 1073741824 cpu:      43.8
 (Enter /home/matheus/.gaussian/g09/l122.exe)
 Restoring MOs from calculation   5 to rwf.
 Counterpoise: doing MCBS calculation for fragment   2
 Leave Link  122 at Sun May  3 13:16:02 2020, MaxMem= 1073741824 cpu:       0.0
 (Enter /home/matheus/.gaussian/g09/l301.exe)
 Basis read from rwf:  (5D, 7F)
 No pseudopotential information found on rwf file.
 There are    59 symmetry adapted basis functions of A   symmetry.
 Integral buffers will be    131072 words long.
 Raffenetti 2 integral format.
 Two-electron integral symmetry is turned on.
    59 basis functions,   217 primitive gaussians,    69 cartesian basis functions
    18 alpha electrons       18 beta electrons
       nuclear repulsion energy         0.0000000000 Hartrees.
 IExCor= 4639 DFT=T Ex+Corr=wB97XD ExCW=0 ScaHFX=  1.000000
 ScaDFX=  1.000000  1.000000  1.000000  1.000000 ScalE2=  1.000000  1.000000
 IRadAn=      5 IRanWt=     -1 IRanGd=            0 ICorTp=0
  HFx wShort=  0.000000 wLong=  0.250000 cFull=  0.222036 cShort=  0.000000 cLong=  0.777964
  DFx wShort=  0.000000 wLong=  0.250000 cFull=  0.000000 cShort=  0.000000 cLong=  1.000000
 NAtoms=    5 NActive=    1 NUniq=    1 SFac= 1.00D+00 NAtFMM=   60 NAOKFM=F Big=F
 R6Disp: Dispersion energy =         0.0000000000 Hartrees.
 Nuclear repulsion after empirical dispersion term =        0.0000000000 Hartrees.
 No density basis found on file   718.
 Leave Link  301 at Sun May  3 13:16:02 2020, MaxMem= 1073741824 cpu:       0.2
 (Enter /home/matheus/.gaussian/g09/l302.exe)
 NPDir=0 NMtPBC=     1 NCelOv=     1 NCel=       1 NClECP=     1 NCelD=      1
         NCelK=      1 NCelE2=     1 NClLst=     1 CellRange=     0.0.
 One-electron integrals computed using PRISM.
 NBasis=    59 RedAO= T  NBF=    59
 NBsUse=    59 1.00D-06 NBFU=    59
 Precomputing XC quadrature grid using
 IXCGrd= 2 IRadAn=           5 IRanWt=          -1 IRanGd=           0 AccXCQ= 0.00D+00.
 NRdTot=      81 NPtTot=       30352 NUsed=       30981 NTot=       31013
 NSgBfM=    69    69    69    69    69 NAtAll=     1     1.
 Leave Link  302 at Sun May  3 13:16:03 2020, MaxMem= 1073741824 cpu:       0.6
 (Enter /home/matheus/.gaussian/g09/l303.exe)
 DipDrv:  MaxL=1.
 Leave Link  303 at Sun May  3 13:16:03 2020, MaxMem= 1073741824 cpu:       0.1
 (Enter /home/matheus/.gaussian/g09/l401.exe)
 Initial guess read from the read-write file.
 Guess basis will be translated and rotated to current coordinates.
 Initial guess orbital symmetries:
       Occupied  (A) (A) (A) (A) (A) (A) (A) (A) (A) (A) (A) (A)
                 (A) (A) (A) (A) (A) (A)
       Virtual   (A) (A) (A) (A) (A) (A) (A) (A) (A) (A) (A) (A)
                 (A) (A) (A) (A) (A) (A) (A) (A) (A) (A) (A) (A)
                 (A) (A) (A) (A) (A) (A) (A) (A) (A) (A) (A) (A)
                 (A) (A) (A) (A) (A)
 The electronic state of the initial guess is 1-A.
 Generating alternative initial guess.
 Harris functional with IExCor= 4639 diagonalized for initial guess.
 ExpMin= 4.00D-02 ExpMax= 1.17D+07 ExpMxC= 1.33D+04 IAcc=3 IRadAn=         5 AccDes= 0.00D+00
 HarFok:  IExCor= 4639 AccDes= 0.00D+00 IRadAn=         5 IDoV= 1
 ScaDFX=  1.000000  1.000000  1.000000  1.000000
 FoFCou: FMM=F IPFlag=           0 FMFlag=      100000 FMFlg1=           0
         NFxFlg=           0 DoJE=T BraDBF=F KetDBF=T FulRan=T
         Omega=  0.000000  0.000000  1.000000  0.000000  0.000000 ICntrl=     500 IOpCl=  0
         NMat0=    1 NMatS0=    1 NMatT0=    0 NMatD0=    1 NMtDS0=    0 NMtDT0=    0
         I1Cent=           4 NGrid=           0.
 Petite list used in FoFCou.
 Harris En= -2729.45839233129    
 Leave Link  401 at Sun May  3 13:16:03 2020, MaxMem= 1073741824 cpu:       1.1
 (Enter /home/matheus/.gaussian/g09/l502.exe)
 Closed shell SCF:
 Requested convergence on RMS density matrix=1.00D-08 within 128 cycles.
 Requested convergence on MAX density matrix=1.00D-06.
 Requested convergence on             energy=1.00D-06.
 No special actions if energy rises.
 Using DIIS extrapolation, IDIIS=  1040.
 Integral symmetry usage will be decided dynamically.
        30923 words used for storage of precomputed grid.
 IEnd=       64406 IEndB=       64406 NGot=  1073741824 MDV=  1073698889
 LenX=  1073698889 LenY=  1073693687
 Fock matrices will be formed incrementally for  20 cycles.

 Cycle   1  Pass 1  IDiag  1:
 FoFJK:  IHMeth= 1 ICntrl=     0 DoSepK=T KAlg= 1 I1Cent= 0 FoldK=F
 FoFCou: FMM=F IPFlag=           0 FMFlag=      100000 FMFlg1=           0
         NFxFlg=           0 DoJE=T BraDBF=F KetDBF=F FulRan=T
         Omega=  0.000000  0.000000  1.000000  0.000000  0.000000 ICntrl=     500 IOpCl=  0
         NMat0=    1 NMatS0=    1 NMatT0=    0 NMatD0=    1 NMtDS0=    0 NMtDT0=    0
         I1Cent=           0 NGrid=           0.
 Symmetry not used in FoFCou.
 E= -2753.87011063501    
 DIIS: error= 9.00D-14 at cycle   1 NSaved=   1.
 NSaved= 1 IEnMin= 1 EnMin= -2753.87011063501     IErMin= 1 ErrMin= 9.00D-14
 ErrMax= 9.00D-14 EMaxC= 1.00D-01 BMatC= 5.87D-25 BMatP= 5.87D-25
 IDIUse=1 WtCom= 1.00D+00 WtEn= 0.00D+00
 Coeff-Com:  0.100D+01
 Coeff:      0.100D+01
 Gap=     0.578 Goal=   None    Shift=    0.000
 DSYEVD returned Info=          89 IAlg= 4 N=    59 NDim=    59 NE2=    18198197 trying DSYEV.
 RMSDP=1.64D-14 MaxDP=3.01D-13              OVMax= 3.13D-13

 SCF Done:  E(RwB97XD) =  -2753.87011064     A.U. after    1 cycles
             Convg  =    0.1641D-13             -V/T =  2.0013
 KE= 2.750289370128D+03 PE=-6.580200885036D+03 EE= 1.076041404273D+03
 Leave Link  502 at Sun May  3 13:16:04 2020, MaxMem= 1073741824 cpu:      11.5
 (Enter /home/matheus/.gaussian/g09/l122.exe)
 Restoring MOs from calculation   1 to rwf.
 Counterpoise: corrected energy =   -2905.430979445718
 Counterpoise: BSSE energy =       0.000019798546
 Leave Link  122 at Sun May  3 13:16:04 2020, MaxMem= 1073741824 cpu:       0.0
 (Enter /home/matheus/.gaussian/g09/l108.exe)
 Scan completed.

 Summary of the potential surface scan:
   N      R1          SCF    
 ----  ---------  -----------
    1     3.0000  -2753.87011
    2     3.1000  -2753.87011
    3     3.2000  -2753.87011
    4     3.3000  -2753.87011
    5     3.4000  -2753.87011
    6     3.5000  -2753.87011
    7     3.6000  -2753.87011
    8     3.7000  -2753.87011
    9     3.8000  -2753.87011
   10     3.9000  -2753.87011
   11     4.0000  -2753.87011
   12     4.1000  -2753.87011
   13     4.2000  -2753.87011
   14     4.3000  -2753.87011
   15     4.4000  -2753.87011
   16     4.5000  -2753.87011
   17     4.6000  -2753.87011
   18     4.7000  -2753.87011
   19     4.8000  -2753.87011
   20     4.9000  -2753.87011
   21     5.0000  -2753.87011
 ----  ---------  -----------
  
 Leave Link  108 at Sun May  3 13:16:04 2020, MaxMem= 1073741824 cpu:       0.0
 (Enter /home/matheus/.gaussian/g09/l9999.exe)

 Test job not archived.
 1\1\GINC-REDGIANT\Scan\RwB97XD\Aug-CC-pVTZ\H2Kr1O2\ROOT\03-May-2020\1\
 \#p wb97xd/aug-cc-PVTz iop(3/107=0250000000) iop(3/108=0250000000) int
 =ultrafine counterpoise=2 Scan\\TCC\\0,1\O,0,0.,0.,0.725\O,0,0.,0.,-0.
 725\H,0,0.9187205947,0.,1.0235104166\H,0,0.,0.9187205947,-1.0235104166
 \Kr,0,0.,R1,0.\\R1=3.,s,20,0.1\\Version=EM64L-G09RevC.01\State=1-A\HF=
 -2753.8701106,-2753.8701106,-2753.8701106,-2753.8701106,-2753.8701106,
 -2753.8701106,-2753.8701106,-2753.8701106,-2753.8701106,-2753.8701106,
 -2753.8701106,-2753.8701106,-2753.8701106,-2753.8701106,-2753.8701106,
 -2753.8701106,-2753.8701106,-2753.8701106,-2753.8701106,-2753.8701106,
 -2753.8701106\RMSD=9.654e-09,1.847e-10,5.406e-11,3.457e-11,1.948e-11,1
 .188e-11,7.096e-12,4.280e-12,2.569e-12,1.544e-12,9.277e-13,5.553e-13,3
 .344e-13,2.040e-13,1.226e-13,7.532e-14,5.020e-14,3.364e-14,1.524e-14,1
 .508e-14,1.641e-14\PG=C01 [X(H2Kr1O2)]\\@


 IN THE FIGHT BETWEEN YOU AND THE WORLD, BACK THE WORLD

                                        -- FRANZ KAFKA
 Job cpu time:  0 days  3 hours  4 minutes 45.8 seconds.
 File lengths (MBytes):  RWF=     37 Int=      0 D2E=      0 Chk=      8 Scr=      1
 Normal termination of Gaussian 09 at Sun May  3 13:16:04 2020.
