 Entering Gaussian System, Link 0=g09
 Input=/home/matheus/.tcc/Inputs-wb97xd/H2O2-Kr_4.com
 Output=/home/matheus/.tcc/Logs-wb97xd/H2O2-Kr_4.log
 Initial command:
 /home/matheus/.gaussian/g09/l1.exe /home/matheus/.gaussian/g09/scratch/Gau-29008.inp -scrdir=/home/matheus/.gaussian/g09/scratch/
 Entering Link 1 = /home/matheus/.gaussian/g09/l1.exe PID=     29011.
  
 Copyright (c) 1988,1990,1992,1993,1995,1998,2003,2009,2011,
            Gaussian, Inc.  All Rights Reserved.
  
 This is part of the Gaussian(R) 09 program.  It is based on
 the Gaussian(R) 03 system (copyright 2003, Gaussian, Inc.),
 the Gaussian(R) 98 system (copyright 1998, Gaussian, Inc.),
 the Gaussian(R) 94 system (copyright 1995, Gaussian, Inc.),
 the Gaussian 92(TM) system (copyright 1992, Gaussian, Inc.),
 the Gaussian 90(TM) system (copyright 1990, Gaussian, Inc.),
 the Gaussian 88(TM) system (copyright 1988, Gaussian, Inc.),
 the Gaussian 86(TM) system (copyright 1986, Carnegie Mellon
 University), and the Gaussian 82(TM) system (copyright 1983,
 Carnegie Mellon University). Gaussian is a federally registered
 trademark of Gaussian, Inc.
  
 This software contains proprietary and confidential information,
 including trade secrets, belonging to Gaussian, Inc.
  
 This software is provided under written license and may be
 used, copied, transmitted, or stored only in accord with that
 written license.
  
 The following legend is applicable only to US Government
 contracts under FAR:
  
                    RESTRICTED RIGHTS LEGEND
  
 Use, reproduction and disclosure by the US Government is
 subject to restrictions as set forth in subparagraphs (a)
 and (c) of the Commercial Computer Software - Restricted
 Rights clause in FAR 52.227-19.
  
 Gaussian, Inc.
 340 Quinnipiac St., Bldg. 40, Wallingford CT 06492
  
  
 ---------------------------------------------------------------
 Warning -- This program may not be used in any manner that
 competes with the business of Gaussian, Inc. or will provide
 assistance to any competitor of Gaussian, Inc.  The licensee
 of this program is prohibited from giving any competitor of
 Gaussian, Inc. access to this program.  By using this program,
 the user acknowledges that Gaussian, Inc. is engaged in the
 business of creating and licensing software in the field of
 computational chemistry and represents and warrants to the
 licensee that it is not a competitor of Gaussian, Inc. and that
 it will not use this program in any manner prohibited above.
 ---------------------------------------------------------------
  

 Cite this work as:
 Gaussian 09, Revision C.01,
 M. J. Frisch, G. W. Trucks, H. B. Schlegel, G. E. Scuseria, 
 M. A. Robb, J. R. Cheeseman, G. Scalmani, V. Barone, B. Mennucci, 
 G. A. Petersson, H. Nakatsuji, M. Caricato, X. Li, H. P. Hratchian, 
 A. F. Izmaylov, J. Bloino, G. Zheng, J. L. Sonnenberg, M. Hada, 
 M. Ehara, K. Toyota, R. Fukuda, J. Hasegawa, M. Ishida, T. Nakajima, 
 Y. Honda, O. Kitao, H. Nakai, T. Vreven, J. A. Montgomery, Jr., 
 J. E. Peralta, F. Ogliaro, M. Bearpark, J. J. Heyd, E. Brothers, 
 K. N. Kudin, V. N. Staroverov, T. Keith, R. Kobayashi, J. Normand, 
 K. Raghavachari, A. Rendell, J. C. Burant, S. S. Iyengar, J. Tomasi, 
 M. Cossi, N. Rega, J. M. Millam, M. Klene, J. E. Knox, J. B. Cross, 
 V. Bakken, C. Adamo, J. Jaramillo, R. Gomperts, R. E. Stratmann, 
 O. Yazyev, A. J. Austin, R. Cammi, C. Pomelli, J. W. Ochterski, 
 R. L. Martin, K. Morokuma, V. G. Zakrzewski, G. A. Voth, 
 P. Salvador, J. J. Dannenberg, S. Dapprich, A. D. Daniels, 
 O. Farkas, J. B. Foresman, J. V. Ortiz, J. Cioslowski, 
 and D. J. Fox, Gaussian, Inc., Wallingford CT, 2010.
 
 ******************************************
 Gaussian 09:  EM64L-G09RevC.01 23-Sep-2011
                 3-May-2020 
 ******************************************
 %mem=8GB
 %nproc=8
 Will use up to    8 processors via shared memory.
 ----------------------------------------------------------------------
 #p wb97xd/aug-cc-PVTz iop(3/107=0250000000) iop(3/108=0250000000) int=
 ultrafine counterpoise=2 Scan
 ----------------------------------------------------------------------
 1/38=1,60=1,62=2/1,8;
 2/12=2,17=6,18=5,29=3,40=1/2;
 1/38=1,53=5172,62=2/22;
 3/5=16,6=1,7=10,11=2,16=1,25=1,30=1,74=-58,75=-5,107=250000000,108=250000000/1,2,3;
 4//1;
 5/5=2,38=5/2;
 6/7=2,8=2,9=2,10=2,18=1,28=1/1;
 1/53=4052,62=2,63=1/22;
 3/5=7,6=11,7=10,11=2,16=1,25=1,30=1,74=-58,75=-5,82=7,107=250000000,108=250000000/1,2,3;
 4//1;
 5/5=2,38=5/2;
 6/7=2,8=2,9=2,10=2,18=1,28=1/1;
 1/53=3042,62=2,63=2/22;
 3/5=7,6=11,7=10,11=2,16=1,25=1,30=1,74=-58,75=-5,82=7,107=250000000,108=250000000/1,2,3;
 4//1;
 5/5=2,38=5/2;
 6/7=2,8=2,9=2,10=2,18=1,28=1/1;
 1/53=2032,62=2,63=3/22;
 3/5=7,6=11,7=10,11=2,16=1,25=1,30=1,74=-58,75=-5,82=7,107=250000000,108=250000000/1,2,3;
 4//1;
 5/5=2,38=5/2;
 6/7=2,8=2,9=2,10=2,18=1,28=1/1;
 1/53=1022,62=2,63=4/22;
 3/5=7,6=11,7=10,11=2,16=1,25=1,30=1,74=-58,75=-5,82=7,107=250000000,108=250000000/1,2,3;
 4//1;
 5/5=2,38=5/2;
 6/7=2,8=2,9=2,10=2,18=1,28=1/1;
 1/53=5014,62=2,63=5/22;
 1/60=1,62=2/8(1);
 99/9=1/99;
 2/29=3/2;
 1/53=5173,62=2/22;
 3/5=7,6=11,7=10,11=2,16=1,25=1,30=1,74=-58,75=-5,82=7,107=250000000,108=250000000/1,2,3;
 4/5=5,16=3/1;
 5/5=2,38=5/2;
 1/53=4053,62=2,63=1/22;
 3/5=7,6=11,7=10,11=2,16=1,25=1,30=1,74=-58,75=-5,82=7,107=250000000,108=250000000/1,2,3;
 4/5=5,16=3/1;
 5/5=2,38=5/2;
 1/53=3043,62=2,63=2/22;
 3/5=7,6=11,7=10,11=2,16=1,25=1,30=1,74=-58,75=-5,82=7,107=250000000,108=250000000/1,2,3;
 4/5=5,16=3/1;
 5/5=2,38=5/2;
 1/53=2033,62=2,63=3/22;
 3/5=7,6=11,7=10,11=2,16=1,25=1,30=1,74=-58,75=-5,82=7,107=250000000,108=250000000/1,2,3;
 4/5=5,16=3/1;
 5/5=2,38=5/2;
 1/53=1024,62=2,63=4/22;
 3/5=7,6=11,7=10,11=2,16=1,25=1,30=1,74=-58,75=-5,82=7,107=250000000,108=250000000/1,2,3;
 4/5=5,16=3/1;
 5/5=2,38=5/2;
 1/53=5014,62=2,63=5/22;
 1/60=1,62=2/8(-22);
 99/9=1/99;
 Leave Link    1 at Sun May  3 10:56:00 2020, MaxMem= 1073741824 cpu:       0.1
 (Enter /home/matheus/.gaussian/g09/l101.exe)
 ---
 TCC
 ---
 Charge =  0 Multiplicity = 1 in supermolecule
 Charge =  0 Multiplicity = 1 in fragment  1.
 Charge =  0 Multiplicity = 1 in fragment  2.
 Symbolic Z-Matrix:
 O(Fragment=1)         0.        0.        0.725 
 O(Fragment=1)         0.        0.       -0.725 
 H(Fragment=1)         0.59054   0.70378   1.02351 
 H(Fragment=1)         0.        0.91872  -1.02351 
 Kr(Fragment=2)        0.       R1        0. 
       Variables:
  R1                    3.     Scan 20    0.1    
 
 NAtoms=      5 NQM=        0 NQMF=       0 NMMI=      5 NMMIF=      0
                NMic=       0 NMicF=      0.
                    Isotopes and Nuclear Properties:
 (Nuclear quadrupole moments (NQMom) in fm**2, nuclear magnetic moments (NMagM)
  in nuclear magnetons)

  Atom         1           2           3           4           5
 IAtWgt=          16          16           1           1          84
 AtmWgt=  15.9949146  15.9949146   1.0078250   1.0078250  83.9115064
 NucSpn=           0           0           1           1           0
 AtZEff=   0.0000000   0.0000000   0.0000000   0.0000000   0.0000000
 NQMom=    0.0000000   0.0000000   0.0000000   0.0000000   0.0000000
 NMagM=    0.0000000   0.0000000   2.7928460   2.7928460   0.0000000
 Leave Link  101 at Sun May  3 10:56:00 2020, MaxMem= 1073741824 cpu:       0.3
 (Enter /home/matheus/.gaussian/g09/l108.exe)
 Scan the potential surface.
 Variable   Value     No. Steps Step-Size
 -------- ----------- --------- ---------
     1       3.000000      20      0.1000
 A total of     21 points will be computed.
 Leave Link  108 at Sun May  3 10:56:00 2020, MaxMem= 1073741824 cpu:       0.0
 (Enter /home/matheus/.gaussian/g09/l202.exe)
 ---------------------------------------------------------------------------------------------------
                            Z-MATRIX (ANGSTROMS AND DEGREES)
   CD    Cent   Atom    N1       Length/X        N2       Alpha/Y        N3        Beta/Z          J
 ---------------------------------------------------------------------------------------------------
      1      1  O        0   0.000000          0.000000          0.725000
      2      2  O        0   0.000000          0.000000         -0.725000
      3      3  H        0   0.590542          0.703781          1.023510
      4      4  H        0   0.000000          0.918721         -1.023510
      5      5  Kr       0   0.000000          3.000000          0.000000
 ---------------------------------------------------------------------------------------------------
                         Z-Matrix orientation:                         
 ---------------------------------------------------------------------
 Center     Atomic      Atomic             Coordinates (Angstroms)
 Number     Number       Type             X           Y           Z
 ---------------------------------------------------------------------
      1          8           0        0.000000    0.000000    0.725000
      2          8           0        0.000000    0.000000   -0.725000
      3          1           0        0.590542    0.703781    1.023510
      4          1           0        0.000000    0.918721   -1.023510
      5         36           0        0.000000    3.000000    0.000000
 ---------------------------------------------------------------------
                    Distance matrix (angstroms):
                    1          2          3          4          5
     1  O    0.000000
     2  O    1.450000   0.000000
     3  H    0.966000   1.975180   0.000000
     4  H    1.975180   0.966000   2.141316   0.000000
     5  Kr   3.086361   3.086361   2.582428   2.319331   0.000000
 Stoichiometry    H2KrO2
 Framework group  C1[X(H2KrO2)]
 Deg. of freedom     9
 Full point group                 C1      NOp   1
 Largest Abelian subgroup         C1      NOp   1
 Largest concise Abelian subgroup C1      NOp   1
                         Standard orientation:                         
 ---------------------------------------------------------------------
 Center     Atomic      Atomic             Coordinates (Angstroms)
 Number     Number       Type             X           Y           Z
 ---------------------------------------------------------------------
      1          8           0        2.031661   -0.717244   -0.068894
      2          8           0        2.028133    0.730229    0.016606
      3          1           0        1.333152   -1.052071    0.508282
      4          1           0        1.108715    1.025573    0.041099
      5         36           0       -0.970006   -0.002150   -0.003641
 ---------------------------------------------------------------------
 Rotational constants (GHZ):     26.2249700      2.3786625      2.1869902
 Leave Link  202 at Sun May  3 10:56:00 2020, MaxMem= 1073741824 cpu:       0.0
 (Enter /home/matheus/.gaussian/g09/l122.exe)
 Leave Link  122 at Sun May  3 10:56:00 2020, MaxMem= 1073741824 cpu:       0.0
 (Enter /home/matheus/.gaussian/g09/l301.exe)
 Standard basis: Aug-CC-pVTZ (5D, 7F)
 Ernie: Thresh=  0.10000D-02 Tol=  0.10000D-05 Strict=F.
 Ernie:  38 primitive shells out of 205 were deleted.
 There are   197 symmetry adapted basis functions of A   symmetry.
 Integral buffers will be    131072 words long.
 Raffenetti 2 integral format.
 Two-electron integral symmetry is turned on.
   197 basis functions,   415 primitive gaussians,   229 cartesian basis functions
    27 alpha electrons       27 beta electrons
       nuclear repulsion energy       151.0050746500 Hartrees.
 IExCor= 4639 DFT=T Ex+Corr=wB97XD ExCW=0 ScaHFX=  1.000000
 ScaDFX=  1.000000  1.000000  1.000000  1.000000 ScalE2=  1.000000  1.000000
 IRadAn=      5 IRanWt=     -1 IRanGd=            0 ICorTp=0
  HFx wShort=  0.000000 wLong=  0.250000 cFull=  0.222036 cShort=  0.000000 cLong=  0.777964
  DFx wShort=  0.000000 wLong=  0.250000 cFull=  0.000000 cShort=  0.000000 cLong=  1.000000
 NAtoms=    5 NActive=    5 NUniq=    5 SFac= 1.00D+00 NAtFMM=   60 NAOKFM=F Big=F
 R6Disp: Dispersion energy =        -0.0008317333 Hartrees.
 Nuclear repulsion after empirical dispersion term =      151.0042429167 Hartrees.
 Leave Link  301 at Sun May  3 10:56:00 2020, MaxMem= 1073741824 cpu:       0.2
 (Enter /home/matheus/.gaussian/g09/l302.exe)
 NPDir=0 NMtPBC=     1 NCelOv=     1 NCel=       1 NClECP=     1 NCelD=      1
         NCelK=      1 NCelE2=     1 NClLst=     1 CellRange=     0.0.
 One-electron integrals computed using PRISM.
 NBasis=   197 RedAO= T  NBF=   197
 NBsUse=   197 1.00D-06 NBFU=   197
 Precomputing XC quadrature grid using
 IXCGrd= 2 IRadAn=           5 IRanWt=          -1 IRanGd=           0 AccXCQ= 0.00D+00.
 NRdTot=     427 NPtTot=      123512 NUsed=      126579 NTot=      126611
 NSgBfM=   229   229   229   229   229 NAtAll=     5     5.
 Leave Link  302 at Sun May  3 10:56:00 2020, MaxMem= 1073741824 cpu:       1.0
 (Enter /home/matheus/.gaussian/g09/l303.exe)
 DipDrv:  MaxL=1.
 Leave Link  303 at Sun May  3 10:56:00 2020, MaxMem= 1073741824 cpu:       0.2
 (Enter /home/matheus/.gaussian/g09/l401.exe)
 Harris functional with IExCor= 4639 diagonalized for initial guess.
 ExpMin= 2.53D-02 ExpMax= 1.17D+07 ExpMxC= 1.33D+04 IAcc=3 IRadAn=         5 AccDes= 0.00D+00
 HarFok:  IExCor= 4639 AccDes= 0.00D+00 IRadAn=         5 IDoV= 1
 ScaDFX=  1.000000  1.000000  1.000000  1.000000
 FoFCou: FMM=F IPFlag=           0 FMFlag=      100000 FMFlg1=           0
         NFxFlg=           0 DoJE=T BraDBF=F KetDBF=T FulRan=T
         Omega=  0.000000  0.000000  1.000000  0.000000  0.000000 ICntrl=     500 IOpCl=  0
         NMat0=    1 NMatS0=    1 NMatT0=    0 NMatD0=    1 NMtDS0=    0 NMtDT0=    0
         I1Cent=           4 NGrid=           0.
 Petite list used in FoFCou.
 Harris En= -2875.39133946654    
 Initial guess orbital symmetries:
       Occupied  (A) (A) (A) (A) (A) (A) (A) (A) (A) (A) (A) (A)
                 (A) (A) (A) (A) (A) (A) (A) (A) (A) (A) (A) (A)
                 (A) (A) (A)
       Virtual   (A) (A) (A) (A) (A) (A) (A) (A) (A) (A) (A) (A)
                 (A) (A) (A) (A) (A) (A) (A) (A) (A) (A) (A) (A)
                 (A) (A) (A) (A) (A) (A) (A) (A) (A) (A) (A) (A)
                 (A) (A) (A) (A) (A) (A) (A) (A) (A) (A) (A) (A)
                 (A) (A) (A) (A) (A) (A) (A) (A) (A) (A) (A) (A)
                 (A) (A) (A) (A) (A) (A) (A) (A) (A) (A) (A) (A)
                 (A) (A) (A) (A) (A) (A) (A) (A) (A) (A) (A) (A)
                 (A) (A) (A) (A) (A) (A) (A) (A) (A) (A) (A) (A)
                 (A) (A) (A) (A) (A) (A) (A) (A) (A) (A) (A) (A)
                 (A) (A) (A) (A) (A) (A) (A) (A) (A) (A) (A) (A)
                 (A) (A) (A) (A) (A) (A) (A) (A) (A) (A) (A) (A)
                 (A) (A) (A) (A) (A) (A) (A) (A) (A) (A) (A) (A)
                 (A) (A) (A) (A) (A) (A) (A) (A) (A) (A) (A) (A)
                 (A) (A) (A) (A) (A) (A) (A) (A) (A) (A) (A) (A)
                 (A) (A)
 The electronic state of the initial guess is 1-A.
 Leave Link  401 at Sun May  3 10:56:01 2020, MaxMem= 1073741824 cpu:       4.0
 (Enter /home/matheus/.gaussian/g09/l502.exe)
 Closed shell SCF:
 Requested convergence on RMS density matrix=1.00D-08 within 128 cycles.
 Requested convergence on MAX density matrix=1.00D-06.
 Requested convergence on             energy=1.00D-06.
 No special actions if energy rises.
 Using DIIS extrapolation, IDIIS=  1040.
 Integral symmetry usage will be decided dynamically.
       126521 words used for storage of precomputed grid.
 IEnd=      305468 IEndB=      305468 NGot=  1073741824 MDV=  1073505667
 LenX=  1073505667 LenY=  1073452785
 Fock matrices will be formed incrementally for  20 cycles.

 Cycle   1  Pass 1  IDiag  1:
 FoFJK:  IHMeth= 1 ICntrl=     0 DoSepK=T KAlg= 1 I1Cent= 0 FoldK=F
 FoFCou: FMM=F IPFlag=           0 FMFlag=      100000 FMFlg1=           0
         NFxFlg=           0 DoJE=T BraDBF=F KetDBF=F FulRan=T
         Omega=  0.000000  0.000000  1.000000  0.000000  0.000000 ICntrl=     500 IOpCl=  0
         NMat0=    1 NMatS0=    1 NMatT0=    0 NMatD0=    1 NMtDS0=    0 NMtDT0=    0
         I1Cent=           0 NGrid=           0.
 Symmetry not used in FoFCou.
 E= -2904.89380372953    
 DIIS: error= 7.69D-02 at cycle   1 NSaved=   1.
 NSaved= 1 IEnMin= 1 EnMin= -2904.89380372953     IErMin= 1 ErrMin= 7.69D-02
 ErrMax= 7.69D-02 EMaxC= 1.00D-01 BMatC= 2.23D+00 BMatP= 2.23D+00
 IDIUse=3 WtCom= 2.31D-01 WtEn= 7.69D-01
 Coeff-Com:  0.100D+01
 Coeff-En:   0.100D+01
 Coeff:      0.100D+01
 Gap=     0.529 Goal=   None    Shift=    0.000
 GapD=    0.529 DampG=2.000 DampE=0.500 DampFc=1.0000 IDamp=-1.
 RMSDP=6.24D-03 MaxDP=3.75D-01              OVMax= 1.86D-01

 Cycle   2  Pass 1  IDiag  1:
 RMSU=  4.39D-03    CP:  1.03D+00
 FoFJK:  IHMeth= 1 ICntrl=     0 DoSepK=T KAlg= 1 I1Cent= 0 FoldK=F
 E= -2905.22017178593     Delta-E=       -0.326368056404 Rises=F Damp=F
 DIIS: error= 3.09D-02 at cycle   2 NSaved=   2.
 NSaved= 2 IEnMin= 2 EnMin= -2905.22017178593     IErMin= 2 ErrMin= 3.09D-02
 ErrMax= 3.09D-02 EMaxC= 1.00D-01 BMatC= 5.65D-01 BMatP= 2.23D+00
 IDIUse=3 WtCom= 6.91D-01 WtEn= 3.09D-01
 Coeff-Com:  0.327D+00 0.673D+00
 Coeff-En:   0.190D+00 0.810D+00
 Coeff:      0.285D+00 0.715D+00
 Gap=     0.477 Goal=   None    Shift=    0.000
 RMSDP=2.72D-03 MaxDP=1.61D-01 DE=-3.26D-01 OVMax= 7.32D-02

 Cycle   3  Pass 1  IDiag  1:
 RMSU=  5.74D-04    CP:  1.02D+00  5.83D-01
 FoFJK:  IHMeth= 1 ICntrl=     0 DoSepK=T KAlg= 1 I1Cent= 0 FoldK=F
 E= -2905.41218908986     Delta-E=       -0.192017303930 Rises=F Damp=F
 DIIS: error= 5.02D-03 at cycle   3 NSaved=   3.
 NSaved= 3 IEnMin= 3 EnMin= -2905.41218908986     IErMin= 3 ErrMin= 5.02D-03
 ErrMax= 5.02D-03 EMaxC= 1.00D-01 BMatC= 1.84D-02 BMatP= 5.65D-01
 IDIUse=3 WtCom= 9.50D-01 WtEn= 5.02D-02
 Coeff-Com:  0.319D-01 0.186D+00 0.782D+00
 Coeff-En:   0.000D+00 0.000D+00 0.100D+01
 Coeff:      0.303D-01 0.177D+00 0.793D+00
 Gap=     0.427 Goal=   None    Shift=    0.000
 RMSDP=4.91D-04 MaxDP=1.73D-02 DE=-1.92D-01 OVMax= 2.59D-02

 Cycle   4  Pass 1  IDiag  1:
 RMSU=  2.34D-04    CP:  1.02D+00  6.41D-01  9.24D-01
 FoFJK:  IHMeth= 1 ICntrl=     0 DoSepK=T KAlg= 1 I1Cent= 0 FoldK=F
 E= -2905.42043084225     Delta-E=       -0.008241752387 Rises=F Damp=F
 DIIS: error= 2.03D-03 at cycle   4 NSaved=   4.
 NSaved= 4 IEnMin= 4 EnMin= -2905.42043084225     IErMin= 4 ErrMin= 2.03D-03
 ErrMax= 2.03D-03 EMaxC= 1.00D-01 BMatC= 1.73D-03 BMatP= 1.84D-02
 IDIUse=3 WtCom= 9.80D-01 WtEn= 2.03D-02
 Coeff-Com: -0.272D-02 0.491D-01 0.371D+00 0.583D+00
 Coeff-En:   0.000D+00 0.000D+00 0.000D+00 0.100D+01
 Coeff:     -0.266D-02 0.481D-01 0.363D+00 0.591D+00
 Gap=     0.412 Goal=   None    Shift=    0.000
 RMSDP=1.24D-04 MaxDP=6.31D-03 DE=-8.24D-03 OVMax= 6.73D-03

 Cycle   5  Pass 1  IDiag  1:
 RMSU=  4.09D-05    CP:  1.02D+00  6.39D-01  9.62D-01  6.88D-01
 FoFJK:  IHMeth= 1 ICntrl=     0 DoSepK=T KAlg= 1 I1Cent= 0 FoldK=F
 E= -2905.42149025833     Delta-E=       -0.001059416078 Rises=F Damp=F
 DIIS: error= 1.34D-04 at cycle   5 NSaved=   5.
 NSaved= 5 IEnMin= 5 EnMin= -2905.42149025833     IErMin= 5 ErrMin= 1.34D-04
 ErrMax= 1.34D-04 EMaxC= 1.00D-01 BMatC= 8.82D-06 BMatP= 1.73D-03
 IDIUse=3 WtCom= 9.99D-01 WtEn= 1.34D-03
 Coeff-Com: -0.943D-03 0.375D-04 0.203D-01 0.486D-01 0.932D+00
 Coeff-En:   0.000D+00 0.000D+00 0.000D+00 0.000D+00 0.100D+01
 Coeff:     -0.942D-03 0.374D-04 0.203D-01 0.485D-01 0.932D+00
 Gap=     0.412 Goal=   None    Shift=    0.000
 RMSDP=2.23D-05 MaxDP=8.27D-04 DE=-1.06D-03 OVMax= 1.27D-03

 Cycle   6  Pass 1  IDiag  1:
 RMSU=  1.03D-05    CP:  1.02D+00  6.39D-01  9.74D-01  7.05D-01  1.21D+00
 FoFJK:  IHMeth= 1 ICntrl=     0 DoSepK=T KAlg= 1 I1Cent= 0 FoldK=F
 E= -2905.42149599554     Delta-E=       -0.000005737211 Rises=F Damp=F
 DIIS: error= 1.46D-04 at cycle   6 NSaved=   6.
 NSaved= 6 IEnMin= 6 EnMin= -2905.42149599554     IErMin= 5 ErrMin= 1.34D-04
 ErrMax= 1.46D-04 EMaxC= 1.00D-01 BMatC= 7.31D-06 BMatP= 8.82D-06
 IDIUse=3 WtCom= 9.99D-01 WtEn= 1.34D-03
 Coeff-Com: -0.253D-03-0.553D-02-0.293D-01-0.383D-01 0.522D+00 0.551D+00
 Coeff-En:   0.000D+00 0.000D+00 0.000D+00 0.000D+00 0.107D+00 0.893D+00
 Coeff:     -0.252D-03-0.552D-02-0.292D-01-0.382D-01 0.521D+00 0.552D+00
 Gap=     0.412 Goal=   None    Shift=    0.000
 RMSDP=8.95D-06 MaxDP=3.56D-04 DE=-5.74D-06 OVMax= 6.18D-04

 Cycle   7  Pass 1  IDiag  1:
 RMSU=  3.64D-06    CP:  1.02D+00  6.39D-01  9.78D-01  7.09D-01  1.30D+00
                    CP:  7.18D-01
 FoFJK:  IHMeth= 1 ICntrl=     0 DoSepK=T KAlg= 1 I1Cent= 0 FoldK=F
 E= -2905.42150097966     Delta-E=       -0.000004984125 Rises=F Damp=F
 DIIS: error= 2.28D-05 at cycle   7 NSaved=   7.
 NSaved= 7 IEnMin= 7 EnMin= -2905.42150097966     IErMin= 7 ErrMin= 2.28D-05
 ErrMax= 2.28D-05 EMaxC= 1.00D-01 BMatC= 1.85D-07 BMatP= 7.31D-06
 IDIUse=1 WtCom= 1.00D+00 WtEn= 0.00D+00
 Coeff-Com:  0.209D-04-0.146D-02-0.962D-02-0.142D-01 0.211D-01 0.140D+00
 Coeff-Com:  0.864D+00
 Coeff:      0.209D-04-0.146D-02-0.962D-02-0.142D-01 0.211D-01 0.140D+00
 Coeff:      0.864D+00
 Gap=     0.412 Goal=   None    Shift=    0.000
 RMSDP=2.78D-06 MaxDP=8.04D-05 DE=-4.98D-06 OVMax= 1.90D-04

 Cycle   8  Pass 1  IDiag  1:
 RMSU=  8.89D-07    CP:  1.02D+00  6.39D-01  9.79D-01  7.10D-01  1.33D+00
                    CP:  8.13D-01  1.14D+00
 FoFJK:  IHMeth= 1 ICntrl=     0 DoSepK=T KAlg= 1 I1Cent= 0 FoldK=F
 E= -2905.42150121150     Delta-E=       -0.000000231835 Rises=F Damp=F
 DIIS: error= 5.30D-06 at cycle   8 NSaved=   8.
 NSaved= 8 IEnMin= 8 EnMin= -2905.42150121150     IErMin= 8 ErrMin= 5.30D-06
 ErrMax= 5.30D-06 EMaxC= 1.00D-01 BMatC= 6.31D-09 BMatP= 1.85D-07
 IDIUse=1 WtCom= 1.00D+00 WtEn= 0.00D+00
 Coeff-Com:  0.188D-04 0.230D-03 0.107D-02 0.101D-02-0.330D-01-0.257D-01
 Coeff-Com:  0.452D-01 0.101D+01
 Coeff:      0.188D-04 0.230D-03 0.107D-02 0.101D-02-0.330D-01-0.257D-01
 Coeff:      0.452D-01 0.101D+01
 Gap=     0.412 Goal=   None    Shift=    0.000
 RMSDP=9.04D-07 MaxDP=2.26D-05 DE=-2.32D-07 OVMax= 7.96D-05

 Cycle   9  Pass 1  IDiag  1:
 RMSU=  2.84D-07    CP:  1.02D+00  6.39D-01  9.79D-01  7.10D-01  1.34D+00
                    CP:  8.31D-01  1.24D+00  1.29D+00
 FoFJK:  IHMeth= 1 ICntrl=     0 DoSepK=T KAlg= 1 I1Cent= 0 FoldK=F
 E= -2905.42150122823     Delta-E=       -0.000000016733 Rises=F Damp=F
 DIIS: error= 1.80D-06 at cycle   9 NSaved=   9.
 NSaved= 9 IEnMin= 9 EnMin= -2905.42150122823     IErMin= 9 ErrMin= 1.80D-06
 ErrMax= 1.80D-06 EMaxC= 1.00D-01 BMatC= 5.36D-10 BMatP= 6.31D-09
 IDIUse=1 WtCom= 1.00D+00 WtEn= 0.00D+00
 Coeff-Com: -0.111D-05 0.987D-04 0.642D-03 0.697D-03-0.117D-02-0.736D-02
 Coeff-Com: -0.504D-01-0.378D-01 0.110D+01
 Coeff:     -0.111D-05 0.987D-04 0.642D-03 0.697D-03-0.117D-02-0.736D-02
 Coeff:     -0.504D-01-0.378D-01 0.110D+01
 Gap=     0.412 Goal=   None    Shift=    0.000
 RMSDP=2.80D-07 MaxDP=7.72D-06 DE=-1.67D-08 OVMax= 3.04D-05

 Cycle  10  Pass 1  IDiag  1:
 RMSU=  8.35D-08    CP:  1.02D+00  6.39D-01  9.79D-01  7.09D-01  1.34D+00
                    CP:  8.34D-01  1.25D+00  1.40D+00  1.35D+00
 FoFJK:  IHMeth= 1 ICntrl=     0 DoSepK=T KAlg= 1 I1Cent= 0 FoldK=F
 E= -2905.42150122979     Delta-E=       -0.000000001555 Rises=F Damp=F
 DIIS: error= 4.81D-07 at cycle  10 NSaved=  10.
 NSaved=10 IEnMin=10 EnMin= -2905.42150122979     IErMin=10 ErrMin= 4.81D-07
 ErrMax= 4.81D-07 EMaxC= 1.00D-01 BMatC= 4.91D-11 BMatP= 5.36D-10
 IDIUse=1 WtCom= 1.00D+00 WtEn= 0.00D+00
 Coeff-Com: -0.114D-05-0.100D-04-0.401D-04-0.423D-04 0.276D-02 0.221D-02
 Coeff-Com: -0.425D-02-0.109D+00 0.131D+00 0.977D+00
 Coeff:     -0.114D-05-0.100D-04-0.401D-04-0.423D-04 0.276D-02 0.221D-02
 Coeff:     -0.425D-02-0.109D+00 0.131D+00 0.977D+00
 Gap=     0.412 Goal=   None    Shift=    0.000
 RMSDP=7.66D-08 MaxDP=1.80D-06 DE=-1.55D-09 OVMax= 9.11D-06

 Cycle  11  Pass 1  IDiag  1:
 RMSU=  2.09D-08    CP:  1.02D+00  6.39D-01  9.79D-01  7.09D-01  1.34D+00
                    CP:  8.34D-01  1.25D+00  1.42D+00  1.48D+00  1.24D+00
 FoFJK:  IHMeth= 1 ICntrl=     0 DoSepK=T KAlg= 1 I1Cent= 0 FoldK=F
 E= -2905.42150122993     Delta-E=       -0.000000000137 Rises=F Damp=F
 DIIS: error= 1.29D-07 at cycle  11 NSaved=  11.
 NSaved=11 IEnMin=11 EnMin= -2905.42150122993     IErMin=11 ErrMin= 1.29D-07
 ErrMax= 1.29D-07 EMaxC= 1.00D-01 BMatC= 3.42D-12 BMatP= 4.91D-11
 IDIUse=1 WtCom= 1.00D+00 WtEn= 0.00D+00
 Coeff-Com:  0.414D-06-0.522D-05-0.418D-04-0.235D-04-0.374D-03 0.250D-03
 Coeff-Com:  0.510D-02 0.118D-01-0.894D-01-0.127D+00 0.120D+01
 Coeff:      0.414D-06-0.522D-05-0.418D-04-0.235D-04-0.374D-03 0.250D-03
 Coeff:      0.510D-02 0.118D-01-0.894D-01-0.127D+00 0.120D+01
 Gap=     0.412 Goal=   None    Shift=    0.000
 RMSDP=2.41D-08 MaxDP=5.01D-07 DE=-1.37D-10 OVMax= 2.94D-06

 Cycle  12  Pass 1  IDiag  1:
 RMSU=  5.36D-09    CP:  1.02D+00  6.39D-01  9.79D-01  7.09D-01  1.34D+00
                    CP:  8.34D-01  1.25D+00  1.42D+00  1.51D+00  1.37D+00
                    CP:  1.34D+00
 FoFJK:  IHMeth= 1 ICntrl=     0 DoSepK=T KAlg= 1 I1Cent= 0 FoldK=F
 E= -2905.42150122991     Delta-E=        0.000000000013 Rises=F Damp=F
 DIIS: error= 2.74D-08 at cycle  12 NSaved=  12.
 NSaved=12 IEnMin=11 EnMin= -2905.42150122993     IErMin=12 ErrMin= 2.74D-08
 ErrMax= 2.74D-08 EMaxC= 1.00D-01 BMatC= 1.28D-13 BMatP= 3.42D-12
 IDIUse=1 WtCom= 1.00D+00 WtEn= 0.00D+00
 Coeff-Com: -0.394D-07 0.661D-06 0.539D-05-0.264D-05-0.694D-04-0.992D-04
 Coeff-Com: -0.278D-03 0.294D-02 0.678D-02-0.187D-01-0.195D+00 0.120D+01
 Coeff:     -0.394D-07 0.661D-06 0.539D-05-0.264D-05-0.694D-04-0.992D-04
 Coeff:     -0.278D-03 0.294D-02 0.678D-02-0.187D-01-0.195D+00 0.120D+01
 Gap=     0.412 Goal=   None    Shift=    0.000
 RMSDP=4.88D-09 MaxDP=1.69D-07 DE= 1.27D-11 OVMax= 5.15D-07

 SCF Done:  E(RwB97XD) =  -2905.42150123     A.U. after   12 cycles
             Convg  =    0.4879D-08             -V/T =  2.0015
 KE= 2.900956740842D+03 PE=-7.239555892199D+03 EE= 1.282173407210D+03
 Leave Link  502 at Sun May  3 10:56:39 2020, MaxMem= 1073741824 cpu:     302.8
 (Enter /home/matheus/.gaussian/g09/l601.exe)
 Copying SCF densities to generalized density rwf, IOpCl= 0 IROHF=0.

 **********************************************************************

            Population analysis using the SCF density.

 **********************************************************************

 Orbital symmetries:
       Occupied  (A) (A) (A) (A) (A) (A) (A) (A) (A) (A) (A) (A)
                 (A) (A) (A) (A) (A) (A) (A) (A) (A) (A) (A) (A)
                 (A) (A) (A)
       Virtual   (A) (A) (A) (A) (A) (A) (A) (A) (A) (A) (A) (A)
                 (A) (A) (A) (A) (A) (A) (A) (A) (A) (A) (A) (A)
                 (A) (A) (A) (A) (A) (A) (A) (A) (A) (A) (A) (A)
                 (A) (A) (A) (A) (A) (A) (A) (A) (A) (A) (A) (A)
                 (A) (A) (A) (A) (A) (A) (A) (A) (A) (A) (A) (A)
                 (A) (A) (A) (A) (A) (A) (A) (A) (A) (A) (A) (A)
                 (A) (A) (A) (A) (A) (A) (A) (A) (A) (A) (A) (A)
                 (A) (A) (A) (A) (A) (A) (A) (A) (A) (A) (A) (A)
                 (A) (A) (A) (A) (A) (A) (A) (A) (A) (A) (A) (A)
                 (A) (A) (A) (A) (A) (A) (A) (A) (A) (A) (A) (A)
                 (A) (A) (A) (A) (A) (A) (A) (A) (A) (A) (A) (A)
                 (A) (A) (A) (A) (A) (A) (A) (A) (A) (A) (A) (A)
                 (A) (A) (A) (A) (A) (A) (A) (A) (A) (A) (A) (A)
                 (A) (A) (A) (A) (A) (A) (A) (A) (A) (A) (A) (A)
                 (A) (A)
 The electronic state is 1-A.
 Alpha  occ. eigenvalues -- -513.11211 -67.38029 -60.92908 -60.92901 -60.92891
 Alpha  occ. eigenvalues --  -19.33842 -19.33620  -9.83353  -7.52678  -7.52654
 Alpha  occ. eigenvalues --   -7.52623  -3.39363  -3.39360  -3.39335  -3.39316
 Alpha  occ. eigenvalues --   -3.39312  -1.24649  -1.04196  -1.02947  -0.68823
 Alpha  occ. eigenvalues --   -0.55425  -0.54392  -0.51772  -0.51219  -0.50186
 Alpha  occ. eigenvalues --   -0.45963  -0.37702
 Alpha virt. eigenvalues --    0.03472   0.04444   0.08592   0.09236   0.09940
 Alpha virt. eigenvalues --    0.11875   0.12683   0.14999   0.17184   0.17705
 Alpha virt. eigenvalues --    0.18204   0.19216   0.20220   0.21859   0.23173
 Alpha virt. eigenvalues --    0.23941   0.24538   0.27565   0.30152   0.32867
 Alpha virt. eigenvalues --    0.34314   0.35137   0.37202   0.38228   0.39841
 Alpha virt. eigenvalues --    0.41639   0.43103   0.47275   0.51941   0.53377
 Alpha virt. eigenvalues --    0.57383   0.58783   0.60514   0.63392   0.66431
 Alpha virt. eigenvalues --    0.67249   0.69284   0.72450   0.73746   0.74572
 Alpha virt. eigenvalues --    0.75152   0.76058   0.78427   0.80629   0.83440
 Alpha virt. eigenvalues --    0.84885   0.85802   0.86857   0.88469   0.90065
 Alpha virt. eigenvalues --    0.90960   0.93939   0.95871   0.96939   1.00128
 Alpha virt. eigenvalues --    1.00849   1.01478   1.04438   1.05372   1.09396
 Alpha virt. eigenvalues --    1.11522   1.17367   1.18419   1.20896   1.23035
 Alpha virt. eigenvalues --    1.29220   1.33169   1.35693   1.38980   1.43820
 Alpha virt. eigenvalues --    1.45731   1.48225   1.50856   1.54132   1.58861
 Alpha virt. eigenvalues --    1.62221   1.67253   1.82613   1.87989   1.92416
 Alpha virt. eigenvalues --    1.98615   2.05273   2.08032   2.10666   2.12734
 Alpha virt. eigenvalues --    2.13221   2.18430   2.19514   2.20540   2.25701
 Alpha virt. eigenvalues --    2.27942   2.29188   2.30289   2.31559   2.31814
 Alpha virt. eigenvalues --    2.37131   2.38326   2.43256   2.45850   2.46535
 Alpha virt. eigenvalues --    2.49089   2.50442   2.53457   2.54871   2.56267
 Alpha virt. eigenvalues --    2.57654   2.64106   2.64448   2.68961   2.70746
 Alpha virt. eigenvalues --    2.72040   2.75510   2.79625   2.88114   2.89381
 Alpha virt. eigenvalues --    2.92251   3.01937   3.08935   3.10688   3.60972
 Alpha virt. eigenvalues --    3.64506   3.92443   3.98959   3.99852   4.03091
 Alpha virt. eigenvalues --    4.12453   4.14404   4.21031   4.22667   4.23446
 Alpha virt. eigenvalues --    4.44176   4.48090   4.60998   4.63975   4.65654
 Alpha virt. eigenvalues --    4.97156   5.00157   5.03810   5.05256   5.10736
 Alpha virt. eigenvalues --    5.15134   5.45835   5.83759   6.01736   6.08760
 Alpha virt. eigenvalues --    6.12449   6.32984   6.38877   6.42325   6.54510
 Alpha virt. eigenvalues --    6.66262   6.73489   6.78367   6.83731   6.84870
 Alpha virt. eigenvalues --    6.88278   6.89650   6.90649   6.91613   7.05879
 Alpha virt. eigenvalues --    7.12874   7.17398   7.23392   7.41173   7.52593
 Alpha virt. eigenvalues --    7.92374   8.02210   8.15431  13.97287  14.68608
          Condensed to atoms (all electrons):
              1          2          3          4          5
     1  O    8.238989  -0.199990   0.177382   0.025169  -0.022241
     2  O   -0.199990   8.256844   0.030698   0.179631  -0.018112
     3  H    0.177382   0.030698   0.582010  -0.010157   0.001496
     4  H    0.025169   0.179631  -0.010157   0.577610  -0.010265
     5  Kr  -0.022241  -0.018112   0.001496  -0.010265  36.037325
 Mulliken atomic charges:
              1
     1  O   -0.219309
     2  O   -0.249071
     3  H    0.218571
     4  H    0.238013
     5  Kr   0.011797
 Sum of Mulliken atomic charges =   0.00000
 Mulliken charges with hydrogens summed into heavy atoms:
              1
     1  O   -0.000739
     2  O   -0.011058
     5  Kr   0.011797
 Sum of Mulliken charges with hydrogens summed into heavy atoms =   0.00000
          Condensed to fragments (all electrons):
     1      -0.011797
     2       0.011797
 Electronic spatial extent (au):  <R**2>=            477.2640
 Charge=              0.0000 electrons
 Dipole moment (field-independent basis, Debye):
    X=             -3.1654    Y=             -0.1559    Z=              0.8632  Tot=              3.2846
 Quadrupole moment (field-independent basis, Debye-Ang):
   XX=            -38.1449   YY=            -28.0257   ZZ=            -29.8911
   XY=             -0.5304   XZ=              1.1402   YZ=             -1.1428
 Traceless Quadrupole moment (field-independent basis, Debye-Ang):
   XX=             -6.1243   YY=              3.9948   ZZ=              2.1295
   XY=             -0.5304   XZ=              1.1402   YZ=             -1.1428
 Octapole moment (field-independent basis, Debye-Ang**2):
  XXX=            -43.5754  YYY=             -0.3944  ZZZ=              0.2240  XYY=             -7.2465
  XXY=             -1.2795  XXZ=              0.5504  XZZ=             -7.8260  YZZ=             -0.7734
  YYZ=              1.3447  XYZ=             -1.4951
 Hexadecapole moment (field-independent basis, Debye-Ang**3):
 XXXX=           -458.2801 YYYY=            -63.1656 ZZZZ=            -29.6838 XXXY=             -1.5199
 XXXZ=             -0.4911 YYYX=             -0.9941 YYYZ=             -1.6015 ZZZX=              0.6271
 ZZZY=             -0.8555 XXYY=            -85.1692 XXZZ=            -75.2505 YYZZ=            -16.7930
 XXYZ=             -1.9318 YYXZ=              1.7746 ZZXY=             -1.0976
 N-N= 1.510042429167D+02 E-N=-7.239555891192D+03  KE= 2.900956740842D+03
 No NMR shielding tensors so no spin-rotation constants.
 Leave Link  601 at Sun May  3 10:56:39 2020, MaxMem= 1073741824 cpu:       0.7
 (Enter /home/matheus/.gaussian/g09/l122.exe)
 Counterpoise: doing DCBS calculation for fragment   1 NewBq=T
 Leave Link  122 at Sun May  3 10:56:39 2020, MaxMem= 1073741824 cpu:       0.0
 (Enter /home/matheus/.gaussian/g09/l301.exe)
 Basis read from rwf:  (5D, 7F)
 No pseudopotential information found on rwf file.
 There are   197 symmetry adapted basis functions of A   symmetry.
 Integral buffers will be    131072 words long.
 Raffenetti 2 integral format.
 Two-electron integral symmetry is turned on.
   197 basis functions,   415 primitive gaussians,   229 cartesian basis functions
     9 alpha electrons        9 beta electrons
       nuclear repulsion energy        36.6553686071 Hartrees.
 IExCor= 4639 DFT=T Ex+Corr=wB97XD ExCW=0 ScaHFX=  1.000000
 ScaDFX=  1.000000  1.000000  1.000000  1.000000 ScalE2=  1.000000  1.000000
 IRadAn=      5 IRanWt=     -1 IRanGd=            0 ICorTp=0
  HFx wShort=  0.000000 wLong=  0.250000 cFull=  0.222036 cShort=  0.000000 cLong=  0.777964
  DFx wShort=  0.000000 wLong=  0.250000 cFull=  0.000000 cShort=  0.000000 cLong=  1.000000
 NAtoms=    5 NActive=    5 NUniq=    5 SFac= 1.00D+00 NAtFMM=   60 NAOKFM=F Big=F
 R6Disp: Dispersion energy =        -0.0002390066 Hartrees.
 Nuclear repulsion after empirical dispersion term =       36.6551296005 Hartrees.
 No density basis found on file   718.
 Leave Link  301 at Sun May  3 10:56:39 2020, MaxMem= 1073741824 cpu:       0.2
 (Enter /home/matheus/.gaussian/g09/l302.exe)
 NPDir=0 NMtPBC=     1 NCelOv=     1 NCel=       1 NClECP=     1 NCelD=      1
         NCelK=      1 NCelE2=     1 NClLst=     1 CellRange=     0.0.
 One-electron integrals computed using PRISM.
 NBasis=   197 RedAO= T  NBF=   197
 NBsUse=   197 1.00D-06 NBFU=   197
 Precomputing XC quadrature grid using
 IXCGrd= 2 IRadAn=           5 IRanWt=          -1 IRanGd=           0 AccXCQ= 0.00D+00.
 NRdTot=     427 NPtTot=      123512 NUsed=      126579 NTot=      126611
 NSgBfM=   229   229   229   229   229 NAtAll=     5     5.
 Leave Link  302 at Sun May  3 10:56:39 2020, MaxMem= 1073741824 cpu:       1.0
 (Enter /home/matheus/.gaussian/g09/l303.exe)
 DipDrv:  MaxL=1.
 Leave Link  303 at Sun May  3 10:56:39 2020, MaxMem= 1073741824 cpu:       0.2
 (Enter /home/matheus/.gaussian/g09/l401.exe)
 Harris functional with IExCor= 4639 diagonalized for initial guess.
 ExpMin= 2.53D-02 ExpMax= 1.17D+07 ExpMxC= 1.33D+04 IAcc=3 IRadAn=         5 AccDes= 0.00D+00
 HarFok:  IExCor= 4639 AccDes= 0.00D+00 IRadAn=         5 IDoV= 1
 ScaDFX=  1.000000  1.000000  1.000000  1.000000
 FoFCou: FMM=F IPFlag=           0 FMFlag=      100000 FMFlg1=           0
         NFxFlg=           0 DoJE=T BraDBF=F KetDBF=T FulRan=T
         Omega=  0.000000  0.000000  1.000000  0.000000  0.000000 ICntrl=     500 IOpCl=  0
         NMat0=    1 NMatS0=    1 NMatT0=    0 NMatD0=    1 NMtDS0=    0 NMtDT0=    0
         I1Cent=           4 NGrid=           0.
 Petite list used in FoFCou.
 Harris En= -145.943901962229    
 Initial guess orbital symmetries:
       Occupied  (A) (A) (A) (A) (A) (A) (A) (A) (A)
       Virtual   (A) (A) (A) (A) (A) (A) (A) (A) (A) (A) (A) (A)
                 (A) (A) (A) (A) (A) (A) (A) (A) (A) (A) (A) (A)
                 (A) (A) (A) (A) (A) (A) (A) (A) (A) (A) (A) (A)
                 (A) (A) (A) (A) (A) (A) (A) (A) (A) (A) (A) (A)
                 (A) (A) (A) (A) (A) (A) (A) (A) (A) (A) (A) (A)
                 (A) (A) (A) (A) (A) (A) (A) (A) (A) (A) (A) (A)
                 (A) (A) (A) (A) (A) (A) (A) (A) (A) (A) (A) (A)
                 (A) (A) (A) (A) (A) (A) (A) (A) (A) (A) (A) (A)
                 (A) (A) (A) (A) (A) (A) (A) (A) (A) (A) (A) (A)
                 (A) (A) (A) (A) (A) (A) (A) (A) (A) (A) (A) (A)
                 (A) (A) (A) (A) (A) (A) (A) (A) (A) (A) (A) (A)
                 (A) (A) (A) (A) (A) (A) (A) (A) (A) (A) (A) (A)
                 (A) (A) (A) (A) (A) (A) (A) (A) (A) (A) (A) (A)
                 (A) (A) (A) (A) (A) (A) (A) (A) (A) (A) (A) (A)
                 (A) (A) (A) (A) (A) (A) (A) (A) (A) (A) (A) (A)
                 (A) (A) (A) (A) (A) (A) (A) (A)
 The electronic state of the initial guess is 1-A.
 Leave Link  401 at Sun May  3 10:56:39 2020, MaxMem= 1073741824 cpu:       3.9
 (Enter /home/matheus/.gaussian/g09/l502.exe)
 Closed shell SCF:
 Requested convergence on RMS density matrix=1.00D-08 within 128 cycles.
 Requested convergence on MAX density matrix=1.00D-06.
 Requested convergence on             energy=1.00D-06.
 No special actions if energy rises.
 Using DIIS extrapolation, IDIIS=  1040.
 Integral symmetry usage will be decided dynamically.
       126521 words used for storage of precomputed grid.
 IEnd=      305468 IEndB=      305468 NGot=  1073741824 MDV=  1073505667
 LenX=  1073505667 LenY=  1073452785
 Fock matrices will be formed incrementally for  20 cycles.

 Cycle   1  Pass 1  IDiag  1:
 FoFJK:  IHMeth= 1 ICntrl=     0 DoSepK=T KAlg= 1 I1Cent= 0 FoldK=F
 FoFCou: FMM=F IPFlag=           0 FMFlag=      100000 FMFlg1=           0
         NFxFlg=           0 DoJE=T BraDBF=F KetDBF=F FulRan=T
         Omega=  0.000000  0.000000  1.000000  0.000000  0.000000 ICntrl=     500 IOpCl=  0
         NMat0=    1 NMatS0=    1 NMatT0=    0 NMatD0=    1 NMtDS0=    0 NMtDT0=    0
         I1Cent=           0 NGrid=           0.
 Symmetry not used in FoFCou.
 E= -151.456364997680    
 DIIS: error= 3.28D-02 at cycle   1 NSaved=   1.
 NSaved= 1 IEnMin= 1 EnMin= -151.456364997680     IErMin= 1 ErrMin= 3.28D-02
 ErrMax= 3.28D-02 EMaxC= 1.00D-01 BMatC= 3.20D-01 BMatP= 3.20D-01
 IDIUse=3 WtCom= 6.72D-01 WtEn= 3.28D-01
 Coeff-Com:  0.100D+01
 Coeff-En:   0.100D+01
 Coeff:      0.100D+01
 Gap=     0.528 Goal=   None    Shift=    0.000
 GapD=    0.528 DampG=2.000 DampE=0.500 DampFc=1.0000 IDamp=-1.
 RMSDP=2.54D-03 MaxDP=9.92D-02              OVMax= 1.22D-01

 Cycle   2  Pass 1  IDiag  1:
 RMSU=  1.75D-03    CP:  9.46D-01
 FoFJK:  IHMeth= 1 ICntrl=     0 DoSepK=T KAlg= 1 I1Cent= 0 FoldK=F
 E= -151.498115909401     Delta-E=       -0.041750911721 Rises=F Damp=F
 DIIS: error= 1.50D-02 at cycle   2 NSaved=   2.
 NSaved= 2 IEnMin= 2 EnMin= -151.498115909401     IErMin= 2 ErrMin= 1.50D-02
 ErrMax= 1.50D-02 EMaxC= 1.00D-01 BMatC= 9.89D-02 BMatP= 3.20D-01
 IDIUse=3 WtCom= 8.50D-01 WtEn= 1.50D-01
 Coeff-Com:  0.336D+00 0.664D+00
 Coeff-En:   0.330D+00 0.670D+00
 Coeff:      0.335D+00 0.665D+00
 Gap=     0.477 Goal=   None    Shift=    0.000
 RMSDP=1.03D-03 MaxDP=4.76D-02 DE=-4.18D-02 OVMax= 6.15D-02

 Cycle   3  Pass 1  IDiag  1:
 RMSU=  3.96D-04    CP:  9.68D-01  6.64D-01
 FoFJK:  IHMeth= 1 ICntrl=     0 DoSepK=T KAlg= 1 I1Cent= 0 FoldK=F
 E= -151.551326224607     Delta-E=       -0.053210315206 Rises=F Damp=F
 DIIS: error= 3.76D-03 at cycle   3 NSaved=   3.
 NSaved= 3 IEnMin= 3 EnMin= -151.551326224607     IErMin= 3 ErrMin= 3.76D-03
 ErrMax= 3.76D-03 EMaxC= 1.00D-01 BMatC= 6.33D-03 BMatP= 9.89D-02
 IDIUse=3 WtCom= 9.62D-01 WtEn= 3.76D-02
 Coeff-Com:  0.141D-01 0.210D+00 0.776D+00
 Coeff-En:   0.000D+00 0.000D+00 0.100D+01
 Coeff:      0.136D-01 0.202D+00 0.784D+00
 Gap=     0.408 Goal=   None    Shift=    0.000
 RMSDP=2.79D-04 MaxDP=8.93D-03 DE=-5.32D-02 OVMax= 1.70D-02

 Cycle   4  Pass 1  IDiag  1:
 RMSU=  7.92D-05    CP:  9.62D-01  7.60D-01  8.62D-01
 FoFJK:  IHMeth= 1 ICntrl=     0 DoSepK=T KAlg= 1 I1Cent= 0 FoldK=F
 E= -151.555473051901     Delta-E=       -0.004146827294 Rises=F Damp=F
 DIIS: error= 4.90D-04 at cycle   4 NSaved=   4.
 NSaved= 4 IEnMin= 4 EnMin= -151.555473051901     IErMin= 4 ErrMin= 4.90D-04
 ErrMax= 4.90D-04 EMaxC= 1.00D-01 BMatC= 7.80D-05 BMatP= 6.33D-03
 IDIUse=3 WtCom= 9.95D-01 WtEn= 4.90D-03
 Coeff-Com: -0.923D-03 0.204D-01 0.160D+00 0.820D+00
 Coeff-En:   0.000D+00 0.000D+00 0.000D+00 0.100D+01
 Coeff:     -0.918D-03 0.203D-01 0.160D+00 0.821D+00
 Gap=     0.406 Goal=   None    Shift=    0.000
 RMSDP=4.32D-05 MaxDP=2.24D-03 DE=-4.15D-03 OVMax= 2.03D-03

 Cycle   5  Pass 1  IDiag  1:
 RMSU=  1.55D-05    CP:  9.63D-01  7.55D-01  9.16D-01  1.13D+00
 FoFJK:  IHMeth= 1 ICntrl=     0 DoSepK=T KAlg= 1 I1Cent= 0 FoldK=F
 E= -151.555532158695     Delta-E=       -0.000059106794 Rises=F Damp=F
 DIIS: error= 6.04D-05 at cycle   5 NSaved=   5.
 NSaved= 5 IEnMin= 5 EnMin= -151.555532158695     IErMin= 5 ErrMin= 6.04D-05
 ErrMax= 6.04D-05 EMaxC= 1.00D-01 BMatC= 1.25D-06 BMatP= 7.80D-05
 IDIUse=1 WtCom= 1.00D+00 WtEn= 0.00D+00
 Coeff-Com: -0.601D-03-0.125D-01-0.481D-01-0.102D+00 0.116D+01
 Coeff:     -0.601D-03-0.125D-01-0.481D-01-0.102D+00 0.116D+01
 Gap=     0.405 Goal=   None    Shift=    0.000
 RMSDP=1.69D-05 MaxDP=6.71D-04 DE=-5.91D-05 OVMax= 9.87D-04

 Cycle   6  Pass 1  IDiag  1:
 RMSU=  3.44D-06    CP:  9.63D-01  7.55D-01  9.34D-01  1.23D+00  1.30D+00
 FoFJK:  IHMeth= 1 ICntrl=     0 DoSepK=T KAlg= 1 I1Cent= 0 FoldK=F
 E= -151.555535397977     Delta-E=       -0.000003239282 Rises=F Damp=F
 DIIS: error= 1.20D-05 at cycle   6 NSaved=   6.
 NSaved= 6 IEnMin= 6 EnMin= -151.555535397977     IErMin= 6 ErrMin= 1.20D-05
 ErrMax= 1.20D-05 EMaxC= 1.00D-01 BMatC= 4.48D-08 BMatP= 1.25D-06
 IDIUse=1 WtCom= 1.00D+00 WtEn= 0.00D+00
 Coeff-Com:  0.462D-04-0.231D-03-0.379D-02-0.179D-01-0.175D-01 0.104D+01
 Coeff:      0.462D-04-0.231D-03-0.379D-02-0.179D-01-0.175D-01 0.104D+01
 Gap=     0.405 Goal=   None    Shift=    0.000
 RMSDP=2.38D-06 MaxDP=8.50D-05 DE=-3.24D-06 OVMax= 1.97D-04

 Cycle   7  Pass 1  IDiag  1:
 RMSU=  7.90D-07    CP:  9.64D-01  7.55D-01  9.35D-01  1.23D+00  1.34D+00
                    CP:  1.29D+00
 FoFJK:  IHMeth= 1 ICntrl=     0 DoSepK=T KAlg= 1 I1Cent= 0 FoldK=F
 E= -151.555535506623     Delta-E=       -0.000000108646 Rises=F Damp=F
 DIIS: error= 8.68D-06 at cycle   7 NSaved=   7.
 NSaved= 7 IEnMin= 7 EnMin= -151.555535506623     IErMin= 7 ErrMin= 8.68D-06
 ErrMax= 8.68D-06 EMaxC= 1.00D-01 BMatC= 2.61D-08 BMatP= 4.48D-08
 IDIUse=1 WtCom= 1.00D+00 WtEn= 0.00D+00
 Coeff-Com:  0.625D-04 0.713D-03 0.137D-02-0.263D-02-0.880D-01 0.515D+00
 Coeff-Com:  0.573D+00
 Coeff:      0.625D-04 0.713D-03 0.137D-02-0.263D-02-0.880D-01 0.515D+00
 Coeff:      0.573D+00
 Gap=     0.405 Goal=   None    Shift=    0.000
 RMSDP=5.86D-07 MaxDP=2.70D-05 DE=-1.09D-07 OVMax= 5.24D-05

 Cycle   8  Pass 1  IDiag  1:
 RMSU=  3.36D-07    CP:  9.64D-01  7.55D-01  9.35D-01  1.23D+00  1.35D+00
                    CP:  1.35D+00  9.46D-01
 FoFJK:  IHMeth= 1 ICntrl=     0 DoSepK=T KAlg= 1 I1Cent= 0 FoldK=F
 E= -151.555535528340     Delta-E=       -0.000000021717 Rises=F Damp=F
 DIIS: error= 2.41D-06 at cycle   8 NSaved=   8.
 NSaved= 8 IEnMin= 8 EnMin= -151.555535528340     IErMin= 8 ErrMin= 2.41D-06
 ErrMax= 2.41D-06 EMaxC= 1.00D-01 BMatC= 2.57D-09 BMatP= 2.61D-08
 IDIUse=1 WtCom= 1.00D+00 WtEn= 0.00D+00
 Coeff-Com: -0.201D-05 0.165D-03 0.124D-02 0.310D-02-0.107D-01-0.176D+00
 Coeff-Com:  0.156D+00 0.103D+01
 Coeff:     -0.201D-05 0.165D-03 0.124D-02 0.310D-02-0.107D-01-0.176D+00
 Coeff:      0.156D+00 0.103D+01
 Gap=     0.405 Goal=   None    Shift=    0.000
 RMSDP=4.06D-07 MaxDP=1.25D-05 DE=-2.17D-08 OVMax= 4.80D-05

 Cycle   9  Pass 1  IDiag  1:
 RMSU=  1.06D-07    CP:  9.64D-01  7.55D-01  9.35D-01  1.23D+00  1.36D+00
                    CP:  1.38D+00  1.17D+00  1.21D+00
 FoFJK:  IHMeth= 1 ICntrl=     0 DoSepK=T KAlg= 1 I1Cent= 0 FoldK=F
 E= -151.555535532764     Delta-E=       -0.000000004424 Rises=F Damp=F
 DIIS: error= 5.53D-07 at cycle   9 NSaved=   9.
 NSaved= 9 IEnMin= 9 EnMin= -151.555535532764     IErMin= 9 ErrMin= 5.53D-07
 ErrMax= 5.53D-07 EMaxC= 1.00D-01 BMatC= 5.20D-11 BMatP= 2.57D-09
 IDIUse=1 WtCom= 1.00D+00 WtEn= 0.00D+00
 Coeff-Com:  0.264D-06-0.299D-04-0.206D-03-0.603D-03 0.586D-02-0.177D-02
 Coeff-Com: -0.388D-01-0.104D+00 0.114D+01
 Coeff:      0.264D-06-0.299D-04-0.206D-03-0.603D-03 0.586D-02-0.177D-02
 Coeff:     -0.388D-01-0.104D+00 0.114D+01
 Gap=     0.405 Goal=   None    Shift=    0.000
 RMSDP=9.32D-08 MaxDP=2.14D-06 DE=-4.42D-09 OVMax= 1.04D-05

 Cycle  10  Pass 1  IDiag  1:
 RMSU=  1.78D-08    CP:  9.64D-01  7.55D-01  9.35D-01  1.23D+00  1.36D+00
                    CP:  1.38D+00  1.21D+00  1.31D+00  1.36D+00
 FoFJK:  IHMeth= 1 ICntrl=     0 DoSepK=T KAlg= 1 I1Cent= 0 FoldK=F
 E= -151.555535532938     Delta-E=       -0.000000000173 Rises=F Damp=F
 DIIS: error= 1.73D-07 at cycle  10 NSaved=  10.
 NSaved=10 IEnMin=10 EnMin= -151.555535532938     IErMin=10 ErrMin= 1.73D-07
 ErrMax= 1.73D-07 EMaxC= 1.00D-01 BMatC= 5.25D-12 BMatP= 5.20D-11
 IDIUse=1 WtCom= 1.00D+00 WtEn= 0.00D+00
 Coeff-Com:  0.432D-06-0.147D-04-0.130D-03-0.386D-03 0.150D-02 0.153D-01
 Coeff-Com: -0.186D-01-0.105D+00 0.746D-01 0.103D+01
 Coeff:      0.432D-06-0.147D-04-0.130D-03-0.386D-03 0.150D-02 0.153D-01
 Coeff:     -0.186D-01-0.105D+00 0.746D-01 0.103D+01
 Gap=     0.405 Goal=   None    Shift=    0.000
 RMSDP=2.62D-08 MaxDP=5.53D-07 DE=-1.73D-10 OVMax= 3.40D-06

 Cycle  11  Pass 1  IDiag  1:
 RMSU=  4.95D-09    CP:  9.64D-01  7.55D-01  9.35D-01  1.23D+00  1.36D+00
                    CP:  1.38D+00  1.21D+00  1.34D+00  1.46D+00  1.38D+00
 FoFJK:  IHMeth= 1 ICntrl=     0 DoSepK=T KAlg= 1 I1Cent= 0 FoldK=F
 E= -151.555535532954     Delta-E=       -0.000000000016 Rises=F Damp=F
 DIIS: error= 3.45D-08 at cycle  11 NSaved=  11.
 NSaved=11 IEnMin=11 EnMin= -151.555535532954     IErMin=11 ErrMin= 3.45D-08
 ErrMax= 3.45D-08 EMaxC= 1.00D-01 BMatC= 2.69D-13 BMatP= 5.25D-12
 IDIUse=1 WtCom= 1.00D+00 WtEn= 0.00D+00
 Coeff-Com: -0.187D-06 0.106D-05 0.199D-04 0.528D-04-0.402D-03-0.110D-02
 Coeff-Com:  0.430D-02 0.167D-01-0.729D-01-0.131D+00 0.118D+01
 Coeff:     -0.187D-06 0.106D-05 0.199D-04 0.528D-04-0.402D-03-0.110D-02
 Coeff:      0.430D-02 0.167D-01-0.729D-01-0.131D+00 0.118D+01
 Gap=     0.405 Goal=   None    Shift=    0.000
 RMSDP=7.01D-09 MaxDP=2.81D-07 DE=-1.64D-11 OVMax= 7.27D-07

 SCF Done:  E(RwB97XD) =  -151.555535533     A.U. after   11 cycles
             Convg  =    0.7009D-08             -V/T =  2.0059
 KE= 1.506611691205D+02 PE=-4.317344325773D+02 EE= 9.286259832333D+01
 Leave Link  502 at Sun May  3 10:57:13 2020, MaxMem= 1073741824 cpu:     268.6
 (Enter /home/matheus/.gaussian/g09/l601.exe)
 Copying SCF densities to generalized density rwf, IOpCl= 0 IROHF=0.

 **********************************************************************

            Population analysis using the SCF density.

 **********************************************************************

 Orbital symmetries:
       Occupied  (A) (A) (A) (A) (A) (A) (A) (A) (A)
       Virtual   (A) (A) (A) (A) (A) (A) (A) (A) (A) (A) (A) (A)
                 (A) (A) (A) (A) (A) (A) (A) (A) (A) (A) (A) (A)
                 (A) (A) (A) (A) (A) (A) (A) (A) (A) (A) (A) (A)
                 (A) (A) (A) (A) (A) (A) (A) (A) (A) (A) (A) (A)
                 (A) (A) (A) (A) (A) (A) (A) (A) (A) (A) (A) (A)
                 (A) (A) (A) (A) (A) (A) (A) (A) (A) (A) (A) (A)
                 (A) (A) (A) (A) (A) (A) (A) (A) (A) (A) (A) (A)
                 (A) (A) (A) (A) (A) (A) (A) (A) (A) (A) (A) (A)
                 (A) (A) (A) (A) (A) (A) (A) (A) (A) (A) (A) (A)
                 (A) (A) (A) (A) (A) (A) (A) (A) (A) (A) (A) (A)
                 (A) (A) (A) (A) (A) (A) (A) (A) (A) (A) (A) (A)
                 (A) (A) (A) (A) (A) (A) (A) (A) (A) (A) (A) (A)
                 (A) (A) (A) (A) (A) (A) (A) (A) (A) (A) (A) (A)
                 (A) (A) (A) (A) (A) (A) (A) (A) (A) (A) (A) (A)
                 (A) (A) (A) (A) (A) (A) (A) (A) (A) (A) (A) (A)
                 (A) (A) (A) (A) (A) (A) (A) (A)
 The electronic state is 1-A.
 Alpha  occ. eigenvalues --  -19.34350 -19.34345  -1.25101  -1.03430  -0.68945
 Alpha  occ. eigenvalues --   -0.55047  -0.54206  -0.46735  -0.38193
 Alpha virt. eigenvalues --    0.02326   0.03996   0.07380   0.08300   0.09381
 Alpha virt. eigenvalues --    0.09730   0.10702   0.15551   0.17604   0.18191
 Alpha virt. eigenvalues --    0.18680   0.19442   0.20867   0.22103   0.25562
 Alpha virt. eigenvalues --    0.27176   0.29268   0.29619   0.33252   0.34882
 Alpha virt. eigenvalues --    0.35706   0.36595   0.38307   0.39783   0.40964
 Alpha virt. eigenvalues --    0.43695   0.45378   0.46316   0.48590   0.51798
 Alpha virt. eigenvalues --    0.53836   0.57292   0.59167   0.61446   0.66437
 Alpha virt. eigenvalues --    0.69242   0.71936   0.75987   0.76884   0.79076
 Alpha virt. eigenvalues --    0.81232   0.82383   0.86150   0.87921   0.89614
 Alpha virt. eigenvalues --    0.92030   0.93740   0.95990   0.97764   0.98583
 Alpha virt. eigenvalues --    1.01933   1.05098   1.06100   1.06613   1.08540
 Alpha virt. eigenvalues --    1.13167   1.16280   1.19300   1.20486   1.23716
 Alpha virt. eigenvalues --    1.27196   1.30018   1.31098   1.31396   1.33107
 Alpha virt. eigenvalues --    1.34859   1.35279   1.37803   1.42480   1.45603
 Alpha virt. eigenvalues --    1.46638   1.49521   1.52343   1.54409   1.59891
 Alpha virt. eigenvalues --    1.60359   1.62657   1.67384   1.74171   1.76252
 Alpha virt. eigenvalues --    1.81639   1.85652   1.90634   1.97237   2.02334
 Alpha virt. eigenvalues --    2.08496   2.09507   2.14902   2.18664   2.22007
 Alpha virt. eigenvalues --    2.27058   2.30373   2.32208   2.34418   2.37447
 Alpha virt. eigenvalues --    2.49100   2.52020   2.58201   2.60199   2.62441
 Alpha virt. eigenvalues --    2.64358   2.73679   2.84730   2.87362   2.91327
 Alpha virt. eigenvalues --    2.98687   3.07479   3.09011   3.25433   3.31493
 Alpha virt. eigenvalues --    3.42831   3.57847   3.59834   3.65259   3.78158
 Alpha virt. eigenvalues --    3.79070   3.81411   3.82354   3.82867   3.86592
 Alpha virt. eigenvalues --    3.89599   3.91397   3.92306   3.94213   3.97448
 Alpha virt. eigenvalues --    3.99591   4.03355   4.05603   4.10265   4.14378
 Alpha virt. eigenvalues --    4.16449   4.19591   4.23012   4.28279   4.33671
 Alpha virt. eigenvalues --    4.49455   4.51293   4.62270   4.64626   4.96928
 Alpha virt. eigenvalues --    5.00000   5.03547   5.05587   5.10804   5.14946
 Alpha virt. eigenvalues --    5.45511   5.83439   6.01063   6.08254   6.11991
 Alpha virt. eigenvalues --    6.32643   6.38538   6.42093   6.54148   6.65835
 Alpha virt. eigenvalues --    6.72885   6.77906   6.83110   6.84372   6.87847
 Alpha virt. eigenvalues --    6.89170   6.90207   6.91177   7.05501   7.12432
 Alpha virt. eigenvalues --    7.17048   7.22824   7.40735   7.52176   7.91830
 Alpha virt. eigenvalues --    8.01689   8.14356  11.05484  13.96689  14.66137
 Alpha virt. eigenvalues --   14.82782  14.90836  15.11596  29.02540  29.03229
 Alpha virt. eigenvalues --   29.07430  29.18199  29.22461  49.21185 148.30973
 Alpha virt. eigenvalues --  148.42771 148.71742 752.86644
          Condensed to atoms (all electrons):
              1          2          3          4          5
     1  O    8.195303  -0.191808   0.191879   0.021704   0.002896
     2  O   -0.191808   8.199533   0.027624   0.194123  -0.001375
     3  H    0.191879   0.027624   0.567447  -0.003517  -0.002677
     4  H    0.021704   0.194123  -0.003517   0.568763  -0.005055
     5  Kr   0.002896  -0.001375  -0.002677  -0.005055   0.001364
 Mulliken atomic charges:
              1
     1  O   -0.219974
     2  O   -0.228097
     3  H    0.219244
     4  H    0.223981
     5  Kr   0.004846
 Sum of Mulliken atomic charges =   0.00000
 Mulliken charges with hydrogens summed into heavy atoms:
              1
     1  O   -0.000731
     2  O   -0.004116
     5  Kr   0.004846
 Sum of Mulliken charges with hydrogens summed into heavy atoms =   0.00000
          Condensed to fragments (all electrons):
     1      -0.004846
     2       0.004846
 Electronic spatial extent (au):  <R**2>=            317.2654
 Charge=              0.0000 electrons
 Dipole moment (field-independent basis, Debye):
    X=             -2.7371    Y=             -0.0669    Z=              1.0175  Tot=              2.9209
 Quadrupole moment (field-independent basis, Debye-Ang):
   XX=            -20.7845   YY=            -10.3985   ZZ=            -12.3763
   XY=             -0.5664   XZ=              1.0300   YZ=             -1.1756
 Traceless Quadrupole moment (field-independent basis, Debye-Ang):
   XX=             -6.2647   YY=              4.1213   ZZ=              2.1435
   XY=             -0.5664   XZ=              1.0300   YZ=             -1.1756
 Octapole moment (field-independent basis, Debye-Ang**2):
  XXX=            -92.5555  YYY=             -0.4123  ZZZ=              0.2860  XYY=            -23.9576
  XXY=             -1.1639  XXZ=              0.6266  XZZ=            -24.6082  YZZ=             -0.7866
  YYZ=              1.3740  XYZ=             -1.4967
 Hexadecapole moment (field-independent basis, Debye-Ang**3):
 XXXX=           -340.3630 YYYY=            -44.8869 ZZZZ=            -11.6649 XXXY=             -1.3605
 XXXZ=             -0.6363 YYYX=             -0.9847 YYYZ=             -1.6554 ZZZX=              0.6278
 ZZZY=             -0.9035 XXYY=            -62.5093 XXZZ=            -52.8071 YYZZ=            -10.7277
 XXYZ=             -1.9369 YYXZ=              1.7589 ZZXY=             -1.0710
 N-N= 3.665512960050D+01 E-N=-4.317344311012D+02  KE= 1.506611691205D+02
 No NMR shielding tensors so no spin-rotation constants.
 Leave Link  601 at Sun May  3 10:57:13 2020, MaxMem= 1073741824 cpu:       0.7
 (Enter /home/matheus/.gaussian/g09/l122.exe)
 Counterpoise: doing DCBS calculation for fragment   2 NewBq=T
 Leave Link  122 at Sun May  3 10:57:13 2020, MaxMem= 1073741824 cpu:       0.0
 (Enter /home/matheus/.gaussian/g09/l301.exe)
 Basis read from rwf:  (5D, 7F)
 No pseudopotential information found on rwf file.
 There are   197 symmetry adapted basis functions of A   symmetry.
 Integral buffers will be    131072 words long.
 Raffenetti 2 integral format.
 Two-electron integral symmetry is turned on.
   197 basis functions,   415 primitive gaussians,   229 cartesian basis functions
    18 alpha electrons       18 beta electrons
       nuclear repulsion energy         0.0000000000 Hartrees.
 IExCor= 4639 DFT=T Ex+Corr=wB97XD ExCW=0 ScaHFX=  1.000000
 ScaDFX=  1.000000  1.000000  1.000000  1.000000 ScalE2=  1.000000  1.000000
 IRadAn=      5 IRanWt=     -1 IRanGd=            0 ICorTp=0
  HFx wShort=  0.000000 wLong=  0.250000 cFull=  0.222036 cShort=  0.000000 cLong=  0.777964
  DFx wShort=  0.000000 wLong=  0.250000 cFull=  0.000000 cShort=  0.000000 cLong=  1.000000
 NAtoms=    5 NActive=    5 NUniq=    5 SFac= 1.00D+00 NAtFMM=   60 NAOKFM=F Big=F
 R6Disp: Dispersion energy =         0.0000000000 Hartrees.
 Nuclear repulsion after empirical dispersion term =        0.0000000000 Hartrees.
 No density basis found on file   718.
 Leave Link  301 at Sun May  3 10:57:13 2020, MaxMem= 1073741824 cpu:       0.2
 (Enter /home/matheus/.gaussian/g09/l302.exe)
 NPDir=0 NMtPBC=     1 NCelOv=     1 NCel=       1 NClECP=     1 NCelD=      1
         NCelK=      1 NCelE2=     1 NClLst=     1 CellRange=     0.0.
 One-electron integrals computed using PRISM.
 NBasis=   197 RedAO= T  NBF=   197
 NBsUse=   197 1.00D-06 NBFU=   197
 Precomputing XC quadrature grid using
 IXCGrd= 2 IRadAn=           5 IRanWt=          -1 IRanGd=           0 AccXCQ= 0.00D+00.
 NRdTot=     427 NPtTot=      123512 NUsed=      126579 NTot=      126611
 NSgBfM=   229   229   229   229   229 NAtAll=     5     5.
 Leave Link  302 at Sun May  3 10:57:13 2020, MaxMem= 1073741824 cpu:       1.1
 (Enter /home/matheus/.gaussian/g09/l303.exe)
 DipDrv:  MaxL=1.
 Leave Link  303 at Sun May  3 10:57:13 2020, MaxMem= 1073741824 cpu:       0.2
 (Enter /home/matheus/.gaussian/g09/l401.exe)
 Harris functional with IExCor= 4639 diagonalized for initial guess.
 ExpMin= 2.53D-02 ExpMax= 1.17D+07 ExpMxC= 1.33D+04 IAcc=3 IRadAn=         5 AccDes= 0.00D+00
 HarFok:  IExCor= 4639 AccDes= 0.00D+00 IRadAn=         5 IDoV= 1
 ScaDFX=  1.000000  1.000000  1.000000  1.000000
 FoFCou: FMM=F IPFlag=           0 FMFlag=      100000 FMFlg1=           0
         NFxFlg=           0 DoJE=T BraDBF=F KetDBF=T FulRan=T
         Omega=  0.000000  0.000000  1.000000  0.000000  0.000000 ICntrl=     500 IOpCl=  0
         NMat0=    1 NMatS0=    1 NMatT0=    0 NMatD0=    1 NMtDS0=    0 NMtDT0=    0
         I1Cent=           4 NGrid=           0.
 Petite list used in FoFCou.
 Harris En= -2729.46070870019    
 Initial guess orbital symmetries:
       Occupied  (A) (A) (A) (A) (A) (A) (A) (A) (A) (A) (A) (A)
                 (A) (A) (A) (A) (A) (A)
       Virtual   (A) (A) (A) (A) (A) (A) (A) (A) (A) (A) (A) (A)
                 (A) (A) (A) (A) (A) (A) (A) (A) (A) (A) (A) (A)
                 (A) (A) (A) (A) (A) (A) (A) (A) (A) (A) (A) (A)
                 (A) (A) (A) (A) (A) (A) (A) (A) (A) (A) (A) (A)
                 (A) (A) (A) (A) (A) (A) (A) (A) (A) (A) (A) (A)
                 (A) (A) (A) (A) (A) (A) (A) (A) (A) (A) (A) (A)
                 (A) (A) (A) (A) (A) (A) (A) (A) (A) (A) (A) (A)
                 (A) (A) (A) (A) (A) (A) (A) (A) (A) (A) (A) (A)
                 (A) (A) (A) (A) (A) (A) (A) (A) (A) (A) (A) (A)
                 (A) (A) (A) (A) (A) (A) (A) (A) (A) (A) (A) (A)
                 (A) (A) (A) (A) (A) (A) (A) (A) (A) (A) (A) (A)
                 (A) (A) (A) (A) (A) (A) (A) (A) (A) (A) (A) (A)
                 (A) (A) (A) (A) (A) (A) (A) (A) (A) (A) (A) (A)
                 (A) (A) (A) (A) (A) (A) (A) (A) (A) (A) (A) (A)
                 (A) (A) (A) (A) (A) (A) (A) (A) (A) (A) (A)
 The electronic state of the initial guess is 1-A.
 Leave Link  401 at Sun May  3 10:57:14 2020, MaxMem= 1073741824 cpu:       4.1
 (Enter /home/matheus/.gaussian/g09/l502.exe)
 Closed shell SCF:
 Requested convergence on RMS density matrix=1.00D-08 within 128 cycles.
 Requested convergence on MAX density matrix=1.00D-06.
 Requested convergence on             energy=1.00D-06.
 No special actions if energy rises.
 Using DIIS extrapolation, IDIIS=  1040.
 Integral symmetry usage will be decided dynamically.
       126521 words used for storage of precomputed grid.
 IEnd=      305468 IEndB=      305468 NGot=  1073741824 MDV=  1073505667
 LenX=  1073505667 LenY=  1073452785
 Fock matrices will be formed incrementally for  20 cycles.

 Cycle   1  Pass 1  IDiag  1:
 FoFJK:  IHMeth= 1 ICntrl=     0 DoSepK=T KAlg= 1 I1Cent= 0 FoldK=F
 FoFCou: FMM=F IPFlag=           0 FMFlag=      100000 FMFlg1=           0
         NFxFlg=           0 DoJE=T BraDBF=F KetDBF=F FulRan=T
         Omega=  0.000000  0.000000  1.000000  0.000000  0.000000 ICntrl=     500 IOpCl=  0
         NMat0=    1 NMatS0=    1 NMatT0=    0 NMatD0=    1 NMtDS0=    0 NMtDT0=    0
         I1Cent=           0 NGrid=           0.
 Symmetry not used in FoFCou.
 E= -2753.44623112115    
 DIIS: error= 7.73D-02 at cycle   1 NSaved=   1.
 NSaved= 1 IEnMin= 1 EnMin= -2753.44623112115     IErMin= 1 ErrMin= 7.73D-02
 ErrMax= 7.73D-02 EMaxC= 1.00D-01 BMatC= 1.91D+00 BMatP= 1.91D+00
 IDIUse=3 WtCom= 2.27D-01 WtEn= 7.73D-01
 Coeff-Com:  0.100D+01
 Coeff-En:   0.100D+01
 Coeff:      0.100D+01
 Gap=     0.654 Goal=   None    Shift=    0.000
 GapD=    0.654 DampG=2.000 DampE=0.500 DampFc=1.0000 IDamp=-1.
 RMSDP=5.67D-03 MaxDP=3.75D-01              OVMax= 1.83D-01

 Cycle   2  Pass 1  IDiag  1:
 RMSU=  3.95D-03    CP:  1.04D+00
 FoFJK:  IHMeth= 1 ICntrl=     0 DoSepK=T KAlg= 1 I1Cent= 0 FoldK=F
 E= -2753.72348294885     Delta-E=       -0.277251827705 Rises=F Damp=F
 DIIS: error= 3.07D-02 at cycle   2 NSaved=   2.
 NSaved= 2 IEnMin= 2 EnMin= -2753.72348294885     IErMin= 2 ErrMin= 3.07D-02
 ErrMax= 3.07D-02 EMaxC= 1.00D-01 BMatC= 4.69D-01 BMatP= 1.91D+00
 IDIUse=3 WtCom= 6.93D-01 WtEn= 3.07D-01
 Coeff-Com:  0.326D+00 0.674D+00
 Coeff-En:   0.160D+00 0.840D+00
 Coeff:      0.275D+00 0.725D+00
 Gap=     0.493 Goal=   None    Shift=    0.000
 RMSDP=2.53D-03 MaxDP=1.63D-01 DE=-2.77D-01 OVMax= 7.65D-02

 Cycle   3  Pass 1  IDiag  1:
 RMSU=  3.69D-04    CP:  1.03D+00  5.61D-01
 FoFJK:  IHMeth= 1 ICntrl=     0 DoSepK=T KAlg= 1 I1Cent= 0 FoldK=F
 E= -2753.86712103555     Delta-E=       -0.143638086701 Rises=F Damp=F
 DIIS: error= 4.09D-03 at cycle   3 NSaved=   3.
 NSaved= 3 IEnMin= 3 EnMin= -2753.86712103555     IErMin= 3 ErrMin= 4.09D-03
 ErrMax= 4.09D-03 EMaxC= 1.00D-01 BMatC= 1.01D-02 BMatP= 4.69D-01
 IDIUse=3 WtCom= 9.59D-01 WtEn= 4.09D-02
 Coeff-Com: -0.765D-02 0.116D+00 0.892D+00
 Coeff-En:   0.000D+00 0.000D+00 0.100D+01
 Coeff:     -0.734D-02 0.111D+00 0.896D+00
 Gap=     0.518 Goal=   None    Shift=    0.000
 RMSDP=2.94D-04 MaxDP=1.75D-02 DE=-1.44D-01 OVMax= 1.19D-02

 Cycle   4  Pass 1  IDiag  1:
 RMSU=  3.98D-05    CP:  1.03D+00  6.12D-01  9.66D-01
 FoFJK:  IHMeth= 1 ICntrl=     0 DoSepK=T KAlg= 1 I1Cent= 0 FoldK=F
 E= -2753.87023725950     Delta-E=       -0.003116223950 Rises=F Damp=F
 DIIS: error= 1.61D-04 at cycle   4 NSaved=   4.
 NSaved= 4 IEnMin= 4 EnMin= -2753.87023725950     IErMin= 4 ErrMin= 1.61D-04
 ErrMax= 1.61D-04 EMaxC= 1.00D-01 BMatC= 1.33D-05 BMatP= 1.01D-02
 IDIUse=3 WtCom= 9.98D-01 WtEn= 1.61D-03
 Coeff-Com: -0.255D-03-0.172D-01-0.775D-01 0.109D+01
 Coeff-En:   0.000D+00 0.000D+00 0.000D+00 0.100D+01
 Coeff:     -0.255D-03-0.172D-01-0.774D-01 0.109D+01
 Gap=     0.516 Goal=   None    Shift=    0.000
 RMSDP=2.25D-05 MaxDP=8.67D-04 DE=-3.12D-03 OVMax= 9.55D-04

 Cycle   5  Pass 1  IDiag  1:
 RMSU=  8.76D-06    CP:  1.03D+00  6.10D-01  9.85D-01  1.22D+00
 FoFJK:  IHMeth= 1 ICntrl=     0 DoSepK=T KAlg= 1 I1Cent= 0 FoldK=F
 E= -2753.87024556301     Delta-E=       -0.000008303510 Rises=F Damp=F
 DIIS: error= 1.71D-05 at cycle   5 NSaved=   5.
 NSaved= 5 IEnMin= 5 EnMin= -2753.87024556301     IErMin= 5 ErrMin= 1.71D-05
 ErrMax= 1.71D-05 EMaxC= 1.00D-01 BMatC= 4.77D-08 BMatP= 1.33D-05
 IDIUse=1 WtCom= 1.00D+00 WtEn= 0.00D+00
 Coeff-Com:  0.749D-04 0.113D-02 0.138D-02-0.188D+00 0.119D+01
 Coeff:      0.749D-04 0.113D-02 0.138D-02-0.188D+00 0.119D+01
 Gap=     0.516 Goal=   None    Shift=    0.000
 RMSDP=3.64D-06 MaxDP=1.46D-04 DE=-8.30D-06 OVMax= 2.09D-04

 Cycle   6  Pass 1  IDiag  1:
 RMSU=  7.17D-07    CP:  1.03D+00  6.10D-01  9.87D-01  1.27D+00  1.18D+00
 FoFJK:  IHMeth= 1 ICntrl=     0 DoSepK=T KAlg= 1 I1Cent= 0 FoldK=F
 E= -2753.87024570388     Delta-E=       -0.000000140868 Rises=F Damp=F
 DIIS: error= 1.60D-06 at cycle   6 NSaved=   6.
 NSaved= 6 IEnMin= 6 EnMin= -2753.87024570388     IErMin= 6 ErrMin= 1.60D-06
 ErrMax= 1.60D-06 EMaxC= 1.00D-01 BMatC= 7.95D-10 BMatP= 4.77D-08
 IDIUse=1 WtCom= 1.00D+00 WtEn= 0.00D+00
 Coeff-Com:  0.851D-05 0.326D-03 0.873D-03-0.450D-01 0.212D+00 0.831D+00
 Coeff:      0.851D-05 0.326D-03 0.873D-03-0.450D-01 0.212D+00 0.831D+00
 Gap=     0.516 Goal=   None    Shift=    0.000
 RMSDP=2.34D-07 MaxDP=9.04D-06 DE=-1.41D-07 OVMax= 1.11D-05

 Cycle   7  Pass 1  IDiag  1:
 RMSU=  7.51D-08    CP:  1.03D+00  6.10D-01  9.88D-01  1.27D+00  1.20D+00
                    CP:  1.11D+00
 FoFJK:  IHMeth= 1 ICntrl=     0 DoSepK=T KAlg= 1 I1Cent= 0 FoldK=F
 E= -2753.87024570472     Delta-E=       -0.000000000841 Rises=F Damp=F
 DIIS: error= 2.69D-07 at cycle   7 NSaved=   7.
 NSaved= 7 IEnMin= 7 EnMin= -2753.87024570472     IErMin= 7 ErrMin= 2.69D-07
 ErrMax= 2.69D-07 EMaxC= 1.00D-01 BMatC= 2.10D-11 BMatP= 7.95D-10
 IDIUse=1 WtCom= 1.00D+00 WtEn= 0.00D+00
 Coeff-Com: -0.144D-05 0.212D-04 0.147D-03-0.215D-03-0.107D-01 0.103D+00
 Coeff-Com:  0.908D+00
 Coeff:     -0.144D-05 0.212D-04 0.147D-03-0.215D-03-0.107D-01 0.103D+00
 Coeff:      0.908D+00
 Gap=     0.516 Goal=   None    Shift=    0.000
 RMSDP=5.20D-08 MaxDP=2.13D-06 DE=-8.41D-10 OVMax= 2.11D-06

 Cycle   8  Pass 1  IDiag  1:
 RMSU=  1.56D-08    CP:  1.03D+00  6.10D-01  9.88D-01  1.27D+00  1.20D+00
                    CP:  1.15D+00  1.08D+00
 FoFJK:  IHMeth= 1 ICntrl=     0 DoSepK=T KAlg= 1 I1Cent= 0 FoldK=F
 E= -2753.87024570474     Delta-E=       -0.000000000020 Rises=F Damp=F
 DIIS: error= 6.25D-08 at cycle   8 NSaved=   8.
 NSaved= 8 IEnMin= 8 EnMin= -2753.87024570474     IErMin= 8 ErrMin= 6.25D-08
 ErrMax= 6.25D-08 EMaxC= 1.00D-01 BMatC= 1.58D-12 BMatP= 2.10D-11
 IDIUse=1 WtCom= 1.00D+00 WtEn= 0.00D+00
 Coeff-Com: -0.101D-06-0.507D-05 0.879D-06 0.158D-02-0.825D-02-0.200D-01
 Coeff-Com:  0.947D-01 0.932D+00
 Coeff:     -0.101D-06-0.507D-05 0.879D-06 0.158D-02-0.825D-02-0.200D-01
 Coeff:      0.947D-01 0.932D+00
 Gap=     0.516 Goal=   None    Shift=    0.000
 RMSDP=1.29D-08 MaxDP=5.36D-07 DE=-1.96D-11 OVMax= 3.75D-07

 Cycle   9  Pass 1  IDiag  1:
 RMSU=  2.43D-09    CP:  1.03D+00  6.10D-01  9.88D-01  1.27D+00  1.20D+00
                    CP:  1.16D+00  1.13D+00  1.10D+00
 FoFJK:  IHMeth= 1 ICntrl=     0 DoSepK=T KAlg= 1 I1Cent= 0 FoldK=F
 E= -2753.87024570475     Delta-E=       -0.000000000008 Rises=F Damp=F
 DIIS: error= 1.03D-08 at cycle   9 NSaved=   9.
 NSaved= 9 IEnMin= 9 EnMin= -2753.87024570475     IErMin= 9 ErrMin= 1.03D-08
 ErrMax= 1.03D-08 EMaxC= 1.00D-01 BMatC= 7.60D-15 BMatP= 1.58D-12
 IDIUse=1 WtCom= 1.00D+00 WtEn= 0.00D+00
 Coeff-Com:  0.109D-07 0.852D-07-0.143D-05-0.128D-03 0.649D-03 0.125D-02
 Coeff-Com: -0.189D-01-0.108D+00 0.112D+01
 Coeff:      0.109D-07 0.852D-07-0.143D-05-0.128D-03 0.649D-03 0.125D-02
 Coeff:     -0.189D-01-0.108D+00 0.112D+01
 Gap=     0.516 Goal=   None    Shift=    0.000
 RMSDP=1.57D-09 MaxDP=6.66D-08 DE=-7.73D-12 OVMax= 9.58D-08

 SCF Done:  E(RwB97XD) =  -2753.87024570     A.U. after    9 cycles
             Convg  =    0.1566D-08             -V/T =  2.0013
 KE= 2.750239564661D+03 PE=-6.580147814385D+03 EE= 1.076038004019D+03
 Leave Link  502 at Sun May  3 10:57:42 2020, MaxMem= 1073741824 cpu:     223.9
 (Enter /home/matheus/.gaussian/g09/l601.exe)
 Copying SCF densities to generalized density rwf, IOpCl= 0 IROHF=0.

 **********************************************************************

            Population analysis using the SCF density.

 **********************************************************************

 Orbital symmetries:
       Occupied  (A) (A) (A) (A) (A) (A) (A) (A) (A) (A) (A) (A)
                 (A) (A) (A) (A) (A) (A)
       Virtual   (A) (A) (A) (A) (A) (A) (A) (A) (A) (A) (A) (A)
                 (A) (A) (A) (A) (A) (A) (A) (A) (A) (A) (A) (A)
                 (A) (A) (A) (A) (A) (A) (A) (A) (A) (A) (A) (A)
                 (A) (A) (A) (A) (A) (A) (A) (A) (A) (A) (A) (A)
                 (A) (A) (A) (A) (A) (A) (A) (A) (A) (A) (A) (A)
                 (A) (A) (A) (A) (A) (A) (A) (A) (A) (A) (A) (A)
                 (A) (A) (A) (A) (A) (A) (A) (A) (A) (A) (A) (A)
                 (A) (A) (A) (A) (A) (A) (A) (A) (A) (A) (A) (A)
                 (A) (A) (A) (A) (A) (A) (A) (A) (A) (A) (A) (A)
                 (A) (A) (A) (A) (A) (A) (A) (A) (A) (A) (A) (A)
                 (A) (A) (A) (A) (A) (A) (A) (A) (A) (A) (A) (A)
                 (A) (A) (A) (A) (A) (A) (A) (A) (A) (A) (A) (A)
                 (A) (A) (A) (A) (A) (A) (A) (A) (A) (A) (A) (A)
                 (A) (A) (A) (A) (A) (A) (A) (A) (A) (A) (A) (A)
                 (A) (A) (A) (A) (A) (A) (A) (A) (A) (A) (A)
 The electronic state is 1-A.
 Alpha  occ. eigenvalues -- -513.08064 -67.34870 -60.89743 -60.89742 -60.89741
 Alpha  occ. eigenvalues --   -9.80180  -7.49479  -7.49478  -7.49478  -3.36164
 Alpha  occ. eigenvalues --   -3.36163  -3.36163  -3.36162  -3.36162  -1.00828
 Alpha  occ. eigenvalues --   -0.48266  -0.48263  -0.48262
 Alpha virt. eigenvalues --    0.03360   0.05277   0.08805   0.09896   0.12511
 Alpha virt. eigenvalues --    0.13201   0.13853   0.13894   0.16300   0.17429
 Alpha virt. eigenvalues --    0.18025   0.19156   0.21078   0.25589   0.26443
 Alpha virt. eigenvalues --    0.26705   0.29318   0.31202   0.33108   0.36031
 Alpha virt. eigenvalues --    0.36829   0.38060   0.38968   0.39962   0.41819
 Alpha virt. eigenvalues --    0.42115   0.45103   0.52653   0.56537   0.57402
 Alpha virt. eigenvalues --    0.61257   0.65421   0.67992   0.69814   0.71082
 Alpha virt. eigenvalues --    0.72475   0.73821   0.75547   0.76263   0.77431
 Alpha virt. eigenvalues --    0.78774   0.81718   0.84736   0.85271   0.88097
 Alpha virt. eigenvalues --    0.88737   0.90121   0.91285   0.92648   0.96029
 Alpha virt. eigenvalues --    0.97893   0.98488   1.00152   1.00569   1.01958
 Alpha virt. eigenvalues --    1.05336   1.07457   1.07863   1.13675   1.15381
 Alpha virt. eigenvalues --    1.19210   1.22756   1.25591   1.32771   1.33820
 Alpha virt. eigenvalues --    1.35818   1.40772   1.43802   1.47923   1.53919
 Alpha virt. eigenvalues --    1.55818   1.58767   1.58862   1.72632   1.79070
 Alpha virt. eigenvalues --    1.83931   1.85304   1.87048   1.89256   2.16146
 Alpha virt. eigenvalues --    2.22113   2.23464   2.28015   2.28689   2.30854
 Alpha virt. eigenvalues --    2.32195   2.35048   2.36720   2.38326   2.42372
 Alpha virt. eigenvalues --    2.42954   2.46629   2.48523   2.49795   2.50533
 Alpha virt. eigenvalues --    2.50990   2.53892   2.57999   2.59076   2.60856
 Alpha virt. eigenvalues --    2.62386   2.64898   2.68503   2.70187   2.70893
 Alpha virt. eigenvalues --    2.75160   2.79936   2.83220   2.89165   2.91023
 Alpha virt. eigenvalues --    2.94795   3.00093   3.05511   3.10072   3.19338
 Alpha virt. eigenvalues --    3.23244   3.26818   3.32792   3.41315   3.47146
 Alpha virt. eigenvalues --    3.61458   3.66386   3.84328   3.88072   4.03050
 Alpha virt. eigenvalues --    4.45313   4.46956   4.54207   4.57585   4.69365
 Alpha virt. eigenvalues --    4.71588   4.86136   4.88433   4.98214   5.07132
 Alpha virt. eigenvalues --    5.18976   5.20477   5.57331   5.65186   5.78396
 Alpha virt. eigenvalues --    5.94338   6.06493   6.08838   6.78537   6.86572
 Alpha virt. eigenvalues --    7.37095   7.38178   7.62894   7.70733   7.74728
 Alpha virt. eigenvalues --    7.84871   8.01008   8.15906   8.18421   8.27419
 Alpha virt. eigenvalues --    8.29970   8.45369   8.66135   8.95226   9.55194
 Alpha virt. eigenvalues --    9.73552   9.82804   9.89896   9.95424   9.96211
 Alpha virt. eigenvalues --   10.19254  10.23102  10.60690  10.92374  11.56184
 Alpha virt. eigenvalues --   11.61751  11.74749  11.99994  12.01974  13.22990
 Alpha virt. eigenvalues --   13.65994  14.53816  62.55798  64.70025
          Condensed to atoms (all electrons):
              1          2          3          4          5
     1  O    0.000920  -0.000519  -0.000540   0.000508  -0.007594
     2  O   -0.000519   0.003484   0.000154  -0.002711  -0.003336
     3  H   -0.000540   0.000154   0.000854  -0.000150  -0.008080
     4  H    0.000508  -0.002711  -0.000150   0.003123  -0.017739
     5  Kr  -0.007594  -0.003336  -0.008080  -0.017739  36.071631
 Mulliken atomic charges:
              1
     1  O    0.007225
     2  O    0.002927
     3  H    0.007761
     4  H    0.016969
     5  Kr  -0.034882
 Sum of Mulliken atomic charges =   0.00000
 Mulliken charges with hydrogens summed into heavy atoms:
              1
     1  O    0.014986
     2  O    0.019896
     5  Kr  -0.034882
 Sum of Mulliken charges with hydrogens summed into heavy atoms =   0.00000
          Condensed to fragments (all electrons):
     1       0.034882
     2      -0.034882
 Electronic spatial extent (au):  <R**2>=            160.3362
 Charge=              0.0000 electrons
 Dipole moment (field-independent basis, Debye):
    X=              0.0011    Y=              0.0002    Z=              0.0000  Tot=              0.0011
 Quadrupole moment (field-independent basis, Debye-Ang):
   XX=            -17.6412   YY=            -17.6535   ZZ=            -17.6618
   XY=              0.0014   XZ=              0.0027   YZ=             -0.0014
 Traceless Quadrupole moment (field-independent basis, Debye-Ang):
   XX=              0.0110   YY=             -0.0013   ZZ=             -0.0096
   XY=              0.0014   XZ=              0.0027   YZ=             -0.0014
 Octapole moment (field-independent basis, Debye-Ang**2):
  XXX=             51.3328  YYY=              0.1139  ZZZ=              0.1911  XYY=             17.1262
  XXY=              0.0346  XXZ=              0.0598  XZZ=             17.1312  YZZ=              0.0384
  YYZ=              0.0645  XYZ=              0.0003
 Hexadecapole moment (field-independent basis, Debye-Ang**3):
 XXXX=           -118.0309 YYYY=            -18.4838 ZZZZ=            -18.5082 XXXY=             -0.1045
 XXXZ=             -0.1781 YYYX=             -0.1059 YYYZ=             -0.0005 ZZZX=             -0.1796
 ZZZY=             -0.0018 XXYY=            -22.7639 XXZZ=            -22.7716 YYZZ=             -6.1647
 XXYZ=             -0.0011 YYXZ=             -0.0601 ZZXY=             -0.0342
 N-N= 0.000000000000D+00 E-N=-6.580147813578D+03  KE= 2.750239564661D+03
 No NMR shielding tensors so no spin-rotation constants.
 Leave Link  601 at Sun May  3 10:57:42 2020, MaxMem= 1073741824 cpu:       0.8
 (Enter /home/matheus/.gaussian/g09/l122.exe)
 Counterpoise: doing MCBS calculation for fragment   1
 Leave Link  122 at Sun May  3 10:57:42 2020, MaxMem= 1073741824 cpu:       0.0
 (Enter /home/matheus/.gaussian/g09/l301.exe)
 Basis read from rwf:  (5D, 7F)
 No pseudopotential information found on rwf file.
 There are   138 symmetry adapted basis functions of A   symmetry.
 Integral buffers will be    131072 words long.
 Raffenetti 2 integral format.
 Two-electron integral symmetry is turned on.
   138 basis functions,   198 primitive gaussians,   160 cartesian basis functions
     9 alpha electrons        9 beta electrons
       nuclear repulsion energy        36.6553686071 Hartrees.
 IExCor= 4639 DFT=T Ex+Corr=wB97XD ExCW=0 ScaHFX=  1.000000
 ScaDFX=  1.000000  1.000000  1.000000  1.000000 ScalE2=  1.000000  1.000000
 IRadAn=      5 IRanWt=     -1 IRanGd=            0 ICorTp=0
  HFx wShort=  0.000000 wLong=  0.250000 cFull=  0.222036 cShort=  0.000000 cLong=  0.777964
  DFx wShort=  0.000000 wLong=  0.250000 cFull=  0.000000 cShort=  0.000000 cLong=  1.000000
 NAtoms=    5 NActive=    4 NUniq=    4 SFac= 1.00D+00 NAtFMM=   60 NAOKFM=F Big=F
 R6Disp: Dispersion energy =        -0.0002390066 Hartrees.
 Nuclear repulsion after empirical dispersion term =       36.6551296005 Hartrees.
 No density basis found on file   718.
 Leave Link  301 at Sun May  3 10:57:42 2020, MaxMem= 1073741824 cpu:       0.2
 (Enter /home/matheus/.gaussian/g09/l302.exe)
 NPDir=0 NMtPBC=     1 NCelOv=     1 NCel=       1 NClECP=     1 NCelD=      1
         NCelK=      1 NCelE2=     1 NClLst=     1 CellRange=     0.0.
 One-electron integrals computed using PRISM.
 NBasis=   138 RedAO= T  NBF=   138
 NBsUse=   138 1.00D-06 NBFU=   138
 Precomputing XC quadrature grid using
 IXCGrd= 2 IRadAn=           5 IRanWt=          -1 IRanGd=           0 AccXCQ= 0.00D+00.
 NRdTot=     344 NPtTot=       92556 NUsed=       95038 NTot=       95070
 NSgBfM=   160   160   160   160   160 NAtAll=     4     4.
 Leave Link  302 at Sun May  3 10:57:42 2020, MaxMem= 1073741824 cpu:       0.8
 (Enter /home/matheus/.gaussian/g09/l303.exe)
 DipDrv:  MaxL=1.
 Leave Link  303 at Sun May  3 10:57:42 2020, MaxMem= 1073741824 cpu:       0.1
 (Enter /home/matheus/.gaussian/g09/l401.exe)
 Harris functional with IExCor= 4639 diagonalized for initial guess.
 ExpMin= 2.53D-02 ExpMax= 1.53D+04 ExpMxC= 5.22D+02 IAcc=3 IRadAn=         5 AccDes= 0.00D+00
 HarFok:  IExCor= 4639 AccDes= 0.00D+00 IRadAn=         5 IDoV= 1
 ScaDFX=  1.000000  1.000000  1.000000  1.000000
 FoFCou: FMM=F IPFlag=           0 FMFlag=      100000 FMFlg1=           0
         NFxFlg=           0 DoJE=T BraDBF=F KetDBF=T FulRan=T
         Omega=  0.000000  0.000000  1.000000  0.000000  0.000000 ICntrl=     500 IOpCl=  0
         NMat0=    1 NMatS0=    1 NMatT0=    0 NMatD0=    1 NMtDS0=    0 NMtDT0=    0
         I1Cent=           4 NGrid=           0.
 Petite list used in FoFCou.
 Harris En= -145.943811997661    
 Initial guess orbital symmetries:
       Occupied  (A) (A) (A) (A) (A) (A) (A) (A) (A)
       Virtual   (A) (A) (A) (A) (A) (A) (A) (A) (A) (A) (A) (A)
                 (A) (A) (A) (A) (A) (A) (A) (A) (A) (A) (A) (A)
                 (A) (A) (A) (A) (A) (A) (A) (A) (A) (A) (A) (A)
                 (A) (A) (A) (A) (A) (A) (A) (A) (A) (A) (A) (A)
                 (A) (A) (A) (A) (A) (A) (A) (A) (A) (A) (A) (A)
                 (A) (A) (A) (A) (A) (A) (A) (A) (A) (A) (A) (A)
                 (A) (A) (A) (A) (A) (A) (A) (A) (A) (A) (A) (A)
                 (A) (A) (A) (A) (A) (A) (A) (A) (A) (A) (A) (A)
                 (A) (A) (A) (A) (A) (A) (A) (A) (A) (A) (A) (A)
                 (A) (A) (A) (A) (A) (A) (A) (A) (A) (A) (A) (A)
                 (A) (A) (A) (A) (A) (A) (A) (A) (A)
 The electronic state of the initial guess is 1-A.
 Leave Link  401 at Sun May  3 10:57:43 2020, MaxMem= 1073741824 cpu:       2.3
 (Enter /home/matheus/.gaussian/g09/l502.exe)
 Closed shell SCF:
 Requested convergence on RMS density matrix=1.00D-08 within 128 cycles.
 Requested convergence on MAX density matrix=1.00D-06.
 Requested convergence on             energy=1.00D-06.
 No special actions if energy rises.
 Using DIIS extrapolation, IDIIS=  1040.
 Integral symmetry usage will be decided dynamically.
        94980 words used for storage of precomputed grid.
 IEnd=      192360 IEndB=      192360 NGot=  1073741824 MDV=  1073591865
 LenX=  1073591865 LenY=  1073565824
 Fock matrices will be formed incrementally for  20 cycles.

 Cycle   1  Pass 1  IDiag  1:
 FoFJK:  IHMeth= 1 ICntrl=     0 DoSepK=T KAlg= 1 I1Cent= 0 FoldK=F
 FoFCou: FMM=F IPFlag=           0 FMFlag=      100000 FMFlg1=           0
         NFxFlg=           0 DoJE=T BraDBF=F KetDBF=F FulRan=T
         Omega=  0.000000  0.000000  1.000000  0.000000  0.000000 ICntrl=     500 IOpCl=  0
         NMat0=    1 NMatS0=    1 NMatT0=    0 NMatD0=    1 NMtDS0=    0 NMtDT0=    0
         I1Cent=           0 NGrid=           0.
 Symmetry not used in FoFCou.
 E= -151.456470921351    
 DIIS: error= 5.62D-02 at cycle   1 NSaved=   1.
 NSaved= 1 IEnMin= 1 EnMin= -151.456470921351     IErMin= 1 ErrMin= 5.62D-02
 ErrMax= 5.62D-02 EMaxC= 1.00D-01 BMatC= 3.18D-01 BMatP= 3.18D-01
 IDIUse=3 WtCom= 4.38D-01 WtEn= 5.62D-01
 Coeff-Com:  0.100D+01
 Coeff-En:   0.100D+01
 Coeff:      0.100D+01
 Gap=     0.530 Goal=   None    Shift=    0.000
 GapD=    0.530 DampG=2.000 DampE=0.500 DampFc=1.0000 IDamp=-1.
 RMSDP=3.45D-03 MaxDP=9.64D-02              OVMax= 1.22D-01

 Cycle   2  Pass 1  IDiag  1:
 RMSU=  2.39D-03    CP:  9.54D-01
 FoFJK:  IHMeth= 1 ICntrl=     0 DoSepK=T KAlg= 1 I1Cent= 0 FoldK=F
 E= -151.498126999451     Delta-E=       -0.041656078101 Rises=F Damp=F
 DIIS: error= 2.89D-02 at cycle   2 NSaved=   2.
 NSaved= 2 IEnMin= 2 EnMin= -151.498126999451     IErMin= 2 ErrMin= 2.89D-02
 ErrMax= 2.89D-02 EMaxC= 1.00D-01 BMatC= 9.87D-02 BMatP= 3.18D-01
 IDIUse=3 WtCom= 7.11D-01 WtEn= 2.89D-01
 Coeff-Com:  0.337D+00 0.663D+00
 Coeff-En:   0.330D+00 0.670D+00
 Coeff:      0.335D+00 0.665D+00
 Gap=     0.477 Goal=   None    Shift=    0.000
 RMSDP=1.45D-03 MaxDP=4.73D-02 DE=-4.17D-02 OVMax= 6.15D-02

 Cycle   3  Pass 1  IDiag  1:
 RMSU=  5.51D-04    CP:  9.75D-01  6.49D-01
 FoFJK:  IHMeth= 1 ICntrl=     0 DoSepK=T KAlg= 1 I1Cent= 0 FoldK=F
 E= -151.551243452503     Delta-E=       -0.053116453051 Rises=F Damp=F
 DIIS: error= 7.53D-03 at cycle   3 NSaved=   3.
[...]
 LenX=  1073505365 LenY=  1073452483
 Fock matrices will be formed incrementally for  20 cycles.

 Cycle   1  Pass 1  IDiag  1:
 FoFJK:  IHMeth= 1 ICntrl=     0 DoSepK=T KAlg= 1 I1Cent= 0 FoldK=F
 FoFCou: FMM=F IPFlag=           0 FMFlag=      100000 FMFlg1=           0
         NFxFlg=           0 DoJE=T BraDBF=F KetDBF=F FulRan=T
         Omega=  0.000000  0.000000  1.000000  0.000000  0.000000 ICntrl=     500 IOpCl=  0
         NMat0=    1 NMatS0=    1 NMatT0=    0 NMatD0=    1 NMtDS0=    0 NMtDT0=    0
         I1Cent=           0 NGrid=           0.
 Symmetry not used in FoFCou.
 E= -2753.87012721185    
 DIIS: error= 1.73D-04 at cycle   1 NSaved=   1.
 NSaved= 1 IEnMin= 1 EnMin= -2753.87012721185     IErMin= 1 ErrMin= 1.73D-04
 ErrMax= 1.73D-04 EMaxC= 1.00D-01 BMatC= 3.82D-06 BMatP= 3.82D-06
 IDIUse=3 WtCom= 9.98D-01 WtEn= 1.73D-03
 Coeff-Com:  0.100D+01
 Coeff-En:   0.100D+01
 Coeff:      0.100D+01
 Gap=     0.514 Goal=   None    Shift=    0.000
 RMSDP=1.33D-05 MaxDP=7.03D-04              OVMax= 3.51D-04

 Cycle   2  Pass 1  IDiag  1:
 RMSU=  9.43D-06    CP:  1.00D+00
 FoFJK:  IHMeth= 1 ICntrl=     0 DoSepK=T KAlg= 1 I1Cent= 0 FoldK=F
 E= -2753.87012781016     Delta-E=       -0.000000598306 Rises=F Damp=F
 DIIS: error= 4.79D-06 at cycle   2 NSaved=   2.
 NSaved= 2 IEnMin= 2 EnMin= -2753.87012781016     IErMin= 2 ErrMin= 4.79D-06
 ErrMax= 4.79D-06 EMaxC= 1.00D-01 BMatC= 4.64D-09 BMatP= 3.82D-06
 IDIUse=1 WtCom= 1.00D+00 WtEn= 0.00D+00
 Coeff-Com: -0.110D-01 0.101D+01
 Coeff:     -0.110D-01 0.101D+01
 Gap=     0.514 Goal=   None    Shift=    0.000
 DSYEVD returned Info=         395 IAlg= 4 N=   197 NDim=   197 NE2=     5448996 trying DSYEV.
 RMSDP=1.31D-06 MaxDP=6.53D-05 DE=-5.98D-07 OVMax= 5.42D-05

 Cycle   3  Pass 1  IDiag  1:
 RMSU=  5.25D-07    CP:  1.00D+00  1.08D+00
 FoFJK:  IHMeth= 1 ICntrl=     0 DoSepK=T KAlg= 1 I1Cent= 0 FoldK=F
 E= -2753.87012781859     Delta-E=       -0.000000008434 Rises=F Damp=F
 DIIS: error= 8.07D-07 at cycle   3 NSaved=   3.
 NSaved= 3 IEnMin= 3 EnMin= -2753.87012781859     IErMin= 3 ErrMin= 8.07D-07
 ErrMax= 8.07D-07 EMaxC= 1.00D-01 BMatC= 1.30D-10 BMatP= 4.64D-09
 IDIUse=1 WtCom= 1.00D+00 WtEn= 0.00D+00
 Coeff-Com:  0.704D-04-0.108D+00 0.111D+01
 Coeff:      0.704D-04-0.108D+00 0.111D+01
 Gap=     0.514 Goal=   None    Shift=    0.000
 RMSDP=2.02D-07 MaxDP=7.48D-06 DE=-8.43D-09 OVMax= 1.09D-05

 Cycle   4  Pass 1  IDiag  1:
 RMSU=  5.20D-08    CP:  1.00D+00  1.09D+00  1.24D+00
 FoFJK:  IHMeth= 1 ICntrl=     0 DoSepK=T KAlg= 1 I1Cent= 0 FoldK=F
 E= -2753.87012781883     Delta-E=       -0.000000000242 Rises=F Damp=F
 DIIS: error= 3.46D-07 at cycle   4 NSaved=   4.
 NSaved= 4 IEnMin= 4 EnMin= -2753.87012781883     IErMin= 4 ErrMin= 3.46D-07
 ErrMax= 3.46D-07 EMaxC= 1.00D-01 BMatC= 1.70D-11 BMatP= 1.30D-10
 IDIUse=1 WtCom= 1.00D+00 WtEn= 0.00D+00
 Coeff-Com:  0.250D-03-0.520D-01 0.315D+00 0.736D+00
 Coeff:      0.250D-03-0.520D-01 0.315D+00 0.736D+00
 Gap=     0.514 Goal=   None    Shift=    0.000
 RMSDP=2.49D-08 MaxDP=9.01D-07 DE=-2.42D-10 OVMax= 1.46D-06

 Cycle   5  Pass 1  IDiag  1:
 RMSU=  1.05D-08    CP:  1.00D+00  1.09D+00  1.26D+00  1.06D+00
 FoFJK:  IHMeth= 1 ICntrl=     0 DoSepK=T KAlg= 1 I1Cent= 0 FoldK=F
 E= -2753.87012781885     Delta-E=       -0.000000000016 Rises=F Damp=F
 DIIS: error= 3.68D-08 at cycle   5 NSaved=   5.
 NSaved= 5 IEnMin= 5 EnMin= -2753.87012781885     IErMin= 5 ErrMin= 3.68D-08
 ErrMax= 3.68D-08 EMaxC= 1.00D-01 BMatC= 2.27D-13 BMatP= 1.70D-11
 IDIUse=1 WtCom= 1.00D+00 WtEn= 0.00D+00
 Coeff-Com: -0.904D-05 0.460D-02-0.438D-01-0.672D-02 0.105D+01
 Coeff:     -0.904D-05 0.460D-02-0.438D-01-0.672D-02 0.105D+01
 Gap=     0.514 Goal=   None    Shift=    0.000
 RMSDP=9.84D-09 MaxDP=4.66D-07 DE=-1.64D-11 OVMax= 4.30D-07

 SCF Done:  E(RwB97XD) =  -2753.87012782     A.U. after    5 cycles
             Convg  =    0.9836D-08             -V/T =  2.0013
 KE= 2.750283653633D+03 PE=-6.580194940103D+03 EE= 1.076041158651D+03
 Leave Link  502 at Sun May  3 11:20:09 2020, MaxMem= 1073741824 cpu:      90.5
 (Enter /home/matheus/.gaussian/g09/l122.exe)
 Restoring MOs from calculation   4 to rwf.
 Counterpoise: doing MCBS calculation for fragment   1
 Leave Link  122 at Sun May  3 11:20:09 2020, MaxMem= 1073741824 cpu:       0.0
 (Enter /home/matheus/.gaussian/g09/l301.exe)
 Basis read from rwf:  (5D, 7F)
 No pseudopotential information found on rwf file.
 There are   138 symmetry adapted basis functions of A   symmetry.
 Integral buffers will be    131072 words long.
 Raffenetti 2 integral format.
 Two-electron integral symmetry is turned on.
   138 basis functions,   198 primitive gaussians,   160 cartesian basis functions
     9 alpha electrons        9 beta electrons
       nuclear repulsion energy        36.6553686071 Hartrees.
 IExCor= 4639 DFT=T Ex+Corr=wB97XD ExCW=0 ScaHFX=  1.000000
 ScaDFX=  1.000000  1.000000  1.000000  1.000000 ScalE2=  1.000000  1.000000
 IRadAn=      5 IRanWt=     -1 IRanGd=            0 ICorTp=0
  HFx wShort=  0.000000 wLong=  0.250000 cFull=  0.222036 cShort=  0.000000 cLong=  0.777964
  DFx wShort=  0.000000 wLong=  0.250000 cFull=  0.000000 cShort=  0.000000 cLong=  1.000000
 NAtoms=    5 NActive=    4 NUniq=    4 SFac= 1.00D+00 NAtFMM=   60 NAOKFM=F Big=F
 R6Disp: Dispersion energy =        -0.0002390066 Hartrees.
 Nuclear repulsion after empirical dispersion term =       36.6551296005 Hartrees.
 No density basis found on file   718.
 Leave Link  301 at Sun May  3 11:20:09 2020, MaxMem= 1073741824 cpu:       0.2
 (Enter /home/matheus/.gaussian/g09/l302.exe)
 NPDir=0 NMtPBC=     1 NCelOv=     1 NCel=       1 NClECP=     1 NCelD=      1
         NCelK=      1 NCelE2=     1 NClLst=     1 CellRange=     0.0.
 One-electron integrals computed using PRISM.
 NBasis=   138 RedAO= T  NBF=   138
 NBsUse=   138 1.00D-06 NBFU=   138
 Precomputing XC quadrature grid using
 IXCGrd= 2 IRadAn=           5 IRanWt=          -1 IRanGd=           0 AccXCQ= 0.00D+00.
 NRdTot=     344 NPtTot=       92556 NUsed=       95038 NTot=       95070
 NSgBfM=   160   160   160   160   160 NAtAll=     4     4.
 Leave Link  302 at Sun May  3 11:20:09 2020, MaxMem= 1073741824 cpu:       0.7
 (Enter /home/matheus/.gaussian/g09/l303.exe)
 DipDrv:  MaxL=1.
 Leave Link  303 at Sun May  3 11:20:09 2020, MaxMem= 1073741824 cpu:       0.1
 (Enter /home/matheus/.gaussian/g09/l401.exe)
 Initial guess read from the read-write file.
 Guess basis will be translated and rotated to current coordinates.
 Initial guess orbital symmetries:
       Occupied  (A) (A) (A) (A) (A) (A) (A) (A) (A)
       Virtual   (A) (A) (A) (A) (A) (A) (A) (A) (A) (A) (A) (A)
                 (A) (A) (A) (A) (A) (A) (A) (A) (A) (A) (A) (A)
                 (A) (A) (A) (A) (A) (A) (A) (A) (A) (A) (A) (A)
                 (A) (A) (A) (A) (A) (A) (A) (A) (A) (A) (A) (A)
                 (A) (A) (A) (A) (A) (A) (A) (A) (A) (A) (A) (A)
                 (A) (A) (A) (A) (A) (A) (A) (A) (A) (A) (A) (A)
                 (A) (A) (A) (A) (A) (A) (A) (A) (A) (A) (A) (A)
                 (A) (A) (A) (A) (A) (A) (A) (A) (A) (A) (A) (A)
                 (A) (A) (A) (A) (A) (A) (A) (A) (A) (A) (A) (A)
                 (A) (A) (A) (A) (A) (A) (A) (A) (A) (A) (A) (A)
                 (A) (A) (A) (A) (A) (A) (A) (A) (A)
 The electronic state of the initial guess is 1-A.
 Generating alternative initial guess.
 Harris functional with IExCor= 4639 diagonalized for initial guess.
 ExpMin= 2.53D-02 ExpMax= 1.53D+04 ExpMxC= 5.22D+02 IAcc=3 IRadAn=         5 AccDes= 0.00D+00
 HarFok:  IExCor= 4639 AccDes= 0.00D+00 IRadAn=         5 IDoV= 1
 ScaDFX=  1.000000  1.000000  1.000000  1.000000
 FoFCou: FMM=F IPFlag=           0 FMFlag=      100000 FMFlg1=           0
         NFxFlg=           0 DoJE=T BraDBF=F KetDBF=T FulRan=T
         Omega=  0.000000  0.000000  1.000000  0.000000  0.000000 ICntrl=     500 IOpCl=  0
         NMat0=    1 NMatS0=    1 NMatT0=    0 NMatD0=    1 NMtDS0=    0 NMtDT0=    0
         I1Cent=           4 NGrid=           0.
 Petite list used in FoFCou.
 Harris En= -145.943811999790    
 Leave Link  401 at Sun May  3 11:20:09 2020, MaxMem= 1073741824 cpu:       2.3
 (Enter /home/matheus/.gaussian/g09/l502.exe)
 Closed shell SCF:
 Requested convergence on RMS density matrix=1.00D-08 within 128 cycles.
 Requested convergence on MAX density matrix=1.00D-06.
 Requested convergence on             energy=1.00D-06.
 No special actions if energy rises.
 Using DIIS extrapolation, IDIIS=  1040.
 Integral symmetry usage will be decided dynamically.
        94980 words used for storage of precomputed grid.
 IEnd=      192360 IEndB=      192360 NGot=  1073741824 MDV=  1073591865
 LenX=  1073591865 LenY=  1073565824
 Fock matrices will be formed incrementally for  20 cycles.

 Cycle   1  Pass 1  IDiag  1:
 FoFJK:  IHMeth= 1 ICntrl=     0 DoSepK=T KAlg= 1 I1Cent= 0 FoldK=F
 FoFCou: FMM=F IPFlag=           0 FMFlag=      100000 FMFlg1=           0
         NFxFlg=           0 DoJE=T BraDBF=F KetDBF=F FulRan=T
         Omega=  0.000000  0.000000  1.000000  0.000000  0.000000 ICntrl=     500 IOpCl=  0
         NMat0=    1 NMatS0=    1 NMatT0=    0 NMatD0=    1 NMtDS0=    0 NMtDT0=    0
         I1Cent=           0 NGrid=           0.
 Symmetry not used in FoFCou.
 E= -151.555479372108    
 DIIS: error= 3.42D-06 at cycle   1 NSaved=   1.
 NSaved= 1 IEnMin= 1 EnMin= -151.555479372108     IErMin= 1 ErrMin= 3.42D-06
 ErrMax= 3.42D-06 EMaxC= 1.00D-01 BMatC= 2.62D-09 BMatP= 2.62D-09
 IDIUse=1 WtCom= 1.00D+00 WtEn= 0.00D+00
 Coeff-Com:  0.100D+01
 Coeff:      0.100D+01
 Gap=     0.409 Goal=   None    Shift=    0.000
 RMSDP=3.69D-07 MaxDP=8.66D-06              OVMax= 1.42D-05

 Cycle   2  Pass 1  IDiag  1:
 RMSU=  2.61D-07    CP:  1.00D+00
 FoFJK:  IHMeth= 1 ICntrl=     0 DoSepK=T KAlg= 1 I1Cent= 0 FoldK=F
 E= -151.555479374762     Delta-E=       -0.000000002654 Rises=F Damp=F
 DIIS: error= 6.63D-07 at cycle   2 NSaved=   2.
 NSaved= 2 IEnMin= 2 EnMin= -151.555479374762     IErMin= 2 ErrMin= 6.63D-07
 ErrMax= 6.63D-07 EMaxC= 1.00D-01 BMatC= 8.88D-11 BMatP= 2.62D-09
 IDIUse=1 WtCom= 1.00D+00 WtEn= 0.00D+00
 Coeff-Com: -0.113D+00 0.111D+01
 Coeff:     -0.113D+00 0.111D+01
 Gap=     0.409 Goal=   None    Shift=    0.000
 RMSDP=1.01D-07 MaxDP=2.96D-06 DE=-2.65D-09 OVMax= 4.29D-06

 Cycle   3  Pass 1  IDiag  1:
 RMSU=  3.42D-08    CP:  1.00D+00  1.24D+00
 FoFJK:  IHMeth= 1 ICntrl=     0 DoSepK=T KAlg= 1 I1Cent= 0 FoldK=F
 E= -151.555479374925     Delta-E=       -0.000000000163 Rises=F Damp=F
 DIIS: error= 1.99D-07 at cycle   3 NSaved=   3.
 NSaved= 3 IEnMin= 3 EnMin= -151.555479374925     IErMin= 3 ErrMin= 1.99D-07
 ErrMax= 1.99D-07 EMaxC= 1.00D-01 BMatC= 4.46D-12 BMatP= 8.88D-11
 IDIUse=1 WtCom= 1.00D+00 WtEn= 0.00D+00
 Coeff-Com: -0.171D-01 0.200D-01 0.997D+00
 Coeff:     -0.171D-01 0.200D-01 0.997D+00
 Gap=     0.409 Goal=   None    Shift=    0.000
 RMSDP=2.46D-08 MaxDP=6.45D-07 DE=-1.63D-10 OVMax= 1.33D-06

 Cycle   4  Pass 1  IDiag  1:
 RMSU=  6.87D-09    CP:  1.00D+00  1.29D+00  1.26D+00
 FoFJK:  IHMeth= 1 ICntrl=     0 DoSepK=T KAlg= 1 I1Cent= 0 FoldK=F
 E= -151.555479374935     Delta-E=       -0.000000000011 Rises=F Damp=F
 DIIS: error= 7.49D-08 at cycle   4 NSaved=   4.
 NSaved= 4 IEnMin= 4 EnMin= -151.555479374935     IErMin= 4 ErrMin= 7.49D-08
 ErrMax= 7.49D-08 EMaxC= 1.00D-01 BMatC= 1.00D-12 BMatP= 4.46D-12
 IDIUse=1 WtCom= 1.00D+00 WtEn= 0.00D+00
 Coeff-Com:  0.406D-02-0.766D-01 0.185D+00 0.887D+00
 Coeff:      0.406D-02-0.766D-01 0.185D+00 0.887D+00
 Gap=     0.409 Goal=   None    Shift=    0.000
 RMSDP=9.69D-09 MaxDP=2.36D-07 DE=-1.09D-11 OVMax= 6.28D-07

 SCF Done:  E(RwB97XD) =  -151.555479375     A.U. after    4 cycles
             Convg  =    0.9692D-08             -V/T =  2.0059
 KE= 1.506603387513D+02 PE=-4.317324537802D+02 EE= 9.286150605352D+01
 Leave Link  502 at Sun May  3 11:20:13 2020, MaxMem= 1073741824 cpu:      29.2
 (Enter /home/matheus/.gaussian/g09/l122.exe)
 Restoring MOs from calculation   5 to rwf.
 Counterpoise: doing MCBS calculation for fragment   2
 Leave Link  122 at Sun May  3 11:20:13 2020, MaxMem= 1073741824 cpu:       0.0
 (Enter /home/matheus/.gaussian/g09/l301.exe)
 Basis read from rwf:  (5D, 7F)
 No pseudopotential information found on rwf file.
 There are    59 symmetry adapted basis functions of A   symmetry.
 Integral buffers will be    131072 words long.
 Raffenetti 2 integral format.
 Two-electron integral symmetry is turned on.
    59 basis functions,   217 primitive gaussians,    69 cartesian basis functions
    18 alpha electrons       18 beta electrons
       nuclear repulsion energy         0.0000000000 Hartrees.
 IExCor= 4639 DFT=T Ex+Corr=wB97XD ExCW=0 ScaHFX=  1.000000
 ScaDFX=  1.000000  1.000000  1.000000  1.000000 ScalE2=  1.000000  1.000000
 IRadAn=      5 IRanWt=     -1 IRanGd=            0 ICorTp=0
  HFx wShort=  0.000000 wLong=  0.250000 cFull=  0.222036 cShort=  0.000000 cLong=  0.777964
  DFx wShort=  0.000000 wLong=  0.250000 cFull=  0.000000 cShort=  0.000000 cLong=  1.000000
 NAtoms=    5 NActive=    1 NUniq=    1 SFac= 1.00D+00 NAtFMM=   60 NAOKFM=F Big=F
 R6Disp: Dispersion energy =         0.0000000000 Hartrees.
 Nuclear repulsion after empirical dispersion term =        0.0000000000 Hartrees.
 No density basis found on file   718.
 Leave Link  301 at Sun May  3 11:20:13 2020, MaxMem= 1073741824 cpu:       0.2
 (Enter /home/matheus/.gaussian/g09/l302.exe)
 NPDir=0 NMtPBC=     1 NCelOv=     1 NCel=       1 NClECP=     1 NCelD=      1
         NCelK=      1 NCelE2=     1 NClLst=     1 CellRange=     0.0.
 One-electron integrals computed using PRISM.
 NBasis=    59 RedAO= T  NBF=    59
 NBsUse=    59 1.00D-06 NBFU=    59
 Precomputing XC quadrature grid using
 IXCGrd= 2 IRadAn=           5 IRanWt=          -1 IRanGd=           0 AccXCQ= 0.00D+00.
 NRdTot=      81 NPtTot=       30352 NUsed=       30981 NTot=       31013
 NSgBfM=    69    69    69    69    69 NAtAll=     1     1.
 Leave Link  302 at Sun May  3 11:20:13 2020, MaxMem= 1073741824 cpu:       0.7
 (Enter /home/matheus/.gaussian/g09/l303.exe)
 DipDrv:  MaxL=1.
 Leave Link  303 at Sun May  3 11:20:13 2020, MaxMem= 1073741824 cpu:       0.2
 (Enter /home/matheus/.gaussian/g09/l401.exe)
 Initial guess read from the read-write file.
 Guess basis will be translated and rotated to current coordinates.
 Initial guess orbital symmetries:
       Occupied  (A) (A) (A) (A) (A) (A) (A) (A) (A) (A) (A) (A)
                 (A) (A) (A) (A) (A) (A)
       Virtual   (A) (A) (A) (A) (A) (A) (A) (A) (A) (A) (A) (A)
                 (A) (A) (A) (A) (A) (A) (A) (A) (A) (A) (A) (A)
                 (A) (A) (A) (A) (A) (A) (A) (A) (A) (A) (A) (A)
                 (A) (A) (A) (A) (A)
 The electronic state of the initial guess is 1-A.
 Generating alternative initial guess.
 Harris functional with IExCor= 4639 diagonalized for initial guess.
 ExpMin= 4.00D-02 ExpMax= 1.17D+07 ExpMxC= 1.33D+04 IAcc=3 IRadAn=         5 AccDes= 0.00D+00
 HarFok:  IExCor= 4639 AccDes= 0.00D+00 IRadAn=         5 IDoV= 1
 ScaDFX=  1.000000  1.000000  1.000000  1.000000
 FoFCou: FMM=F IPFlag=           0 FMFlag=      100000 FMFlg1=           0
         NFxFlg=           0 DoJE=T BraDBF=F KetDBF=T FulRan=T
         Omega=  0.000000  0.000000  1.000000  0.000000  0.000000 ICntrl=     500 IOpCl=  0
         NMat0=    1 NMatS0=    1 NMatT0=    0 NMatD0=    1 NMtDS0=    0 NMtDT0=    0
         I1Cent=           4 NGrid=           0.
 Petite list used in FoFCou.
 Harris En= -2729.45839233129    
 Leave Link  401 at Sun May  3 11:20:13 2020, MaxMem= 1073741824 cpu:       1.0
 (Enter /home/matheus/.gaussian/g09/l502.exe)
 Closed shell SCF:
 Requested convergence on RMS density matrix=1.00D-08 within 128 cycles.
 Requested convergence on MAX density matrix=1.00D-06.
 Requested convergence on             energy=1.00D-06.
 No special actions if energy rises.
 Using DIIS extrapolation, IDIIS=  1040.
 Integral symmetry usage will be decided dynamically.
        30923 words used for storage of precomputed grid.
 IEnd=       64406 IEndB=       64406 NGot=  1073741824 MDV=  1073698889
 LenX=  1073698889 LenY=  1073693687
 Fock matrices will be formed incrementally for  20 cycles.

 Cycle   1  Pass 1  IDiag  1:
 FoFJK:  IHMeth= 1 ICntrl=     0 DoSepK=T KAlg= 1 I1Cent= 0 FoldK=F
 FoFCou: FMM=F IPFlag=           0 FMFlag=      100000 FMFlg1=           0
         NFxFlg=           0 DoJE=T BraDBF=F KetDBF=F FulRan=T
         Omega=  0.000000  0.000000  1.000000  0.000000  0.000000 ICntrl=     500 IOpCl=  0
         NMat0=    1 NMatS0=    1 NMatT0=    0 NMatD0=    1 NMtDS0=    0 NMtDT0=    0
         I1Cent=           0 NGrid=           0.
 Symmetry not used in FoFCou.
 E= -2753.87011063501    
 DIIS: error= 1.31D-13 at cycle   1 NSaved=   1.
 NSaved= 1 IEnMin= 1 EnMin= -2753.87011063501     IErMin= 1 ErrMin= 1.31D-13
 ErrMax= 1.31D-13 EMaxC= 1.00D-01 BMatC= 4.34D-25 BMatP= 4.34D-25
 IDIUse=1 WtCom= 1.00D+00 WtEn= 0.00D+00
 Coeff-Com:  0.100D+01
 Coeff:      0.100D+01
 Gap=     0.578 Goal=   None    Shift=    0.000
 DSYEVD returned Info=          89 IAlg= 4 N=    59 NDim=    59 NE2=    18198197 trying DSYEV.
 RMSDP=1.16D-14 MaxDP=3.14D-13              OVMax= 5.52D-14

 SCF Done:  E(RwB97XD) =  -2753.87011064     A.U. after    1 cycles
             Convg  =    0.1160D-13             -V/T =  2.0013
 KE= 2.750289370128D+03 PE=-6.580200885036D+03 EE= 1.076041404273D+03
 Leave Link  502 at Sun May  3 11:20:15 2020, MaxMem= 1073741824 cpu:      11.3
 (Enter /home/matheus/.gaussian/g09/l122.exe)
 Restoring MOs from calculation   1 to rwf.
 Counterpoise: corrected energy =   -2905.426011427524
 Counterpoise: BSSE energy =       0.000020603147
 Leave Link  122 at Sun May  3 11:20:15 2020, MaxMem= 1073741824 cpu:       0.0
 (Enter /home/matheus/.gaussian/g09/l108.exe)
 Scan completed.

 Summary of the potential surface scan:
   N      R1          SCF    
 ----  ---------  -----------
    1     3.0000  -2753.87011
    2     3.1000  -2753.87011
    3     3.2000  -2753.87011
    4     3.3000  -2753.87011
    5     3.4000  -2753.87011
    6     3.5000  -2753.87011
    7     3.6000  -2753.87011
    8     3.7000  -2753.87011
    9     3.8000  -2753.87011
   10     3.9000  -2753.87011
   11     4.0000  -2753.87011
   12     4.1000  -2753.87011
   13     4.2000  -2753.87011
   14     4.3000  -2753.87011
   15     4.4000  -2753.87011
   16     4.5000  -2753.87011
   17     4.6000  -2753.87011
   18     4.7000  -2753.87011
   19     4.8000  -2753.87011
   20     4.9000  -2753.87011
   21     5.0000  -2753.87011
 ----  ---------  -----------
  
 Leave Link  108 at Sun May  3 11:20:15 2020, MaxMem= 1073741824 cpu:       0.0
 (Enter /home/matheus/.gaussian/g09/l9999.exe)

 Test job not archived.
 1\1\GINC-REDGIANT\Scan\RwB97XD\Aug-CC-pVTZ\H2Kr1O2\ROOT\03-May-2020\1\
 \#p wb97xd/aug-cc-PVTz iop(3/107=0250000000) iop(3/108=0250000000) int
 =ultrafine counterpoise=2 Scan\\TCC\\0,1\O,0,0.,0.,0.725\O,0,0.,0.,-0.
 725\H,0,0.5905422151,0.7037808064,1.0235104166\H,0,0.,0.9187205947,-1.
 0235104166\Kr,0,0.,R1,0.\\R1=3.,s,20,0.1\\Version=EM64L-G09RevC.01\Sta
 te=1-A\HF=-2753.8701106,-2753.8701106,-2753.8701106,-2753.8701106,-275
 3.8701106,-2753.8701106,-2753.8701106,-2753.8701106,-2753.8701106,-275
 3.8701106,-2753.8701106,-2753.8701106,-2753.8701106,-2753.8701106,-275
 3.8701106,-2753.8701106,-2753.8701106,-2753.8701106,-2753.8701106,-275
 3.8701106,-2753.8701106\RMSD=9.654e-09,1.847e-10,5.405e-11,3.458e-11,1
 .948e-11,1.188e-11,7.094e-12,4.273e-12,2.564e-12,1.540e-12,9.237e-13,5
 .547e-13,3.316e-13,1.999e-13,1.224e-13,7.810e-14,4.801e-14,3.165e-14,1
 .542e-14,1.103e-14,1.160e-14\PG=C01 [X(H2Kr1O2)]\\@


 DON'T WORRY CHARLIE BROWN...WE LEARN MORE FROM LOSING 
 THAN WE DO FROM WINNING.
 THEN THAT MAKES ME THE SMARTEST PERSON IN THE WORLD...
 CHARLES SCHULZ 'PEANUTS'
 Job cpu time:  0 days  3 hours 12 minutes 47.9 seconds.
 File lengths (MBytes):  RWF=     33 Int=      0 D2E=      0 Chk=      8 Scr=      1
 Normal termination of Gaussian 09 at Sun May  3 11:20:15 2020.
