 Entering Gaussian System, Link 0=g09
 Input=Inputs/Inputs-wb97xd/H2O2-Kr_0.com
 Output=Logs/Logs-wb97xd/H2O2-Kr_0.log
 Initial command:
 /home/matheus/.gaussian/g09/l1.exe /home/matheus/.gaussian/g09/scratch/Gau-58105.inp -scrdir=/home/matheus/.gaussian/g09/scratch/
 Entering Link 1 = /home/matheus/.gaussian/g09/l1.exe PID=     58107.
  
 Copyright (c) 1988,1990,1992,1993,1995,1998,2003,2009,2011,
            Gaussian, Inc.  All Rights Reserved.
  
 This is part of the Gaussian(R) 09 program.  It is based on
 the Gaussian(R) 03 system (copyright 2003, Gaussian, Inc.),
 the Gaussian(R) 98 system (copyright 1998, Gaussian, Inc.),
 the Gaussian(R) 94 system (copyright 1995, Gaussian, Inc.),
 the Gaussian 92(TM) system (copyright 1992, Gaussian, Inc.),
 the Gaussian 90(TM) system (copyright 1990, Gaussian, Inc.),
 the Gaussian 88(TM) system (copyright 1988, Gaussian, Inc.),
 the Gaussian 86(TM) system (copyright 1986, Carnegie Mellon
 University), and the Gaussian 82(TM) system (copyright 1983,
 Carnegie Mellon University). Gaussian is a federally registered
 trademark of Gaussian, Inc.
  
 This software contains proprietary and confidential information,
 including trade secrets, belonging to Gaussian, Inc.
  
 This software is provided under written license and may be
 used, copied, transmitted, or stored only in accord with that
 written license.
  
 The following legend is applicable only to US Government
 contracts under FAR:
  
                    RESTRICTED RIGHTS LEGEND
  
 Use, reproduction and disclosure by the US Government is
 subject to restrictions as set forth in subparagraphs (a)
 and (c) of the Commercial Computer Software - Restricted
 Rights clause in FAR 52.227-19.
  
 Gaussian, Inc.
 340 Quinnipiac St., Bldg. 40, Wallingford CT 06492
  
  
 ---------------------------------------------------------------
 Warning -- This program may not be used in any manner that
 competes with the business of Gaussian, Inc. or will provide
 assistance to any competitor of Gaussian, Inc.  The licensee
 of this program is prohibited from giving any competitor of
 Gaussian, Inc. access to this program.  By using this program,
 the user acknowledges that Gaussian, Inc. is engaged in the
 business of creating and licensing software in the field of
 computational chemistry and represents and warrants to the
 licensee that it is not a competitor of Gaussian, Inc. and that
 it will not use this program in any manner prohibited above.
 ---------------------------------------------------------------
  

 Cite this work as:
 Gaussian 09, Revision C.01,
 M. J. Frisch, G. W. Trucks, H. B. Schlegel, G. E. Scuseria, 
 M. A. Robb, J. R. Cheeseman, G. Scalmani, V. Barone, B. Mennucci, 
 G. A. Petersson, H. Nakatsuji, M. Caricato, X. Li, H. P. Hratchian, 
 A. F. Izmaylov, J. Bloino, G. Zheng, J. L. Sonnenberg, M. Hada, 
 M. Ehara, K. Toyota, R. Fukuda, J. Hasegawa, M. Ishida, T. Nakajima, 
 Y. Honda, O. Kitao, H. Nakai, T. Vreven, J. A. Montgomery, Jr., 
 J. E. Peralta, F. Ogliaro, M. Bearpark, J. J. Heyd, E. Brothers, 
 K. N. Kudin, V. N. Staroverov, T. Keith, R. Kobayashi, J. Normand, 
 K. Raghavachari, A. Rendell, J. C. Burant, S. S. Iyengar, J. Tomasi, 
 M. Cossi, N. Rega, J. M. Millam, M. Klene, J. E. Knox, J. B. Cross, 
 V. Bakken, C. Adamo, J. Jaramillo, R. Gomperts, R. E. Stratmann, 
 O. Yazyev, A. J. Austin, R. Cammi, C. Pomelli, J. W. Ochterski, 
 R. L. Martin, K. Morokuma, V. G. Zakrzewski, G. A. Voth, 
 P. Salvador, J. J. Dannenberg, S. Dapprich, A. D. Daniels, 
 O. Farkas, J. B. Foresman, J. V. Ortiz, J. Cioslowski, 
 and D. J. Fox, Gaussian, Inc., Wallingford CT, 2010.
 
 ******************************************
 Gaussian 09:  EM64L-G09RevC.01 23-Sep-2011
                31-Aug-2020 
 ******************************************
 %mem=8GB
 %nproc=8
 Will use up to    8 processors via shared memory.
 ----------------------------------------------------------------------
 #p wb97xd/aug-cc-PVTz iop(3/107=0250000000) iop(3/108=0250000000) int=
 ultrafine counterpoise=2 Scan
 ----------------------------------------------------------------------
 1/38=1,60=1,62=2/1,8;
 2/12=2,17=6,18=5,29=3,40=1/2;
 1/38=1,53=5172,62=2/22;
 3/5=16,6=1,7=10,11=2,16=1,25=1,30=1,74=-58,75=-5,107=250000000,108=250000000/1,2,3;
 4//1;
 5/5=2,38=5/2;
 6/7=2,8=2,9=2,10=2,18=1,28=1/1;
 1/53=4052,62=2,63=1/22;
 3/5=7,6=11,7=10,11=2,16=1,25=1,30=1,74=-58,75=-5,82=7,107=250000000,108=250000000/1,2,3;
 4//1;
 5/5=2,38=5/2;
 6/7=2,8=2,9=2,10=2,18=1,28=1/1;
 1/53=3042,62=2,63=2/22;
 3/5=7,6=11,7=10,11=2,16=1,25=1,30=1,74=-58,75=-5,82=7,107=250000000,108=250000000/1,2,3;
 4//1;
 5/5=2,38=5/2;
 6/7=2,8=2,9=2,10=2,18=1,28=1/1;
 1/53=2032,62=2,63=3/22;
 3/5=7,6=11,7=10,11=2,16=1,25=1,30=1,74=-58,75=-5,82=7,107=250000000,108=250000000/1,2,3;
 4//1;
 5/5=2,38=5/2;
 6/7=2,8=2,9=2,10=2,18=1,28=1/1;
 1/53=1022,62=2,63=4/22;
 3/5=7,6=11,7=10,11=2,16=1,25=1,30=1,74=-58,75=-5,82=7,107=250000000,108=250000000/1,2,3;
 4//1;
 5/5=2,38=5/2;
 6/7=2,8=2,9=2,10=2,18=1,28=1/1;
 1/53=5014,62=2,63=5/22;
 1/60=1,62=2/8(1);
 99/9=1/99;
 2/29=3/2;
 1/53=5173,62=2/22;
 3/5=7,6=11,7=10,11=2,16=1,25=1,30=1,74=-58,75=-5,82=7,107=250000000,108=250000000/1,2,3;
 4/5=5,16=3/1;
 5/5=2,38=5/2;
 1/53=4053,62=2,63=1/22;
 3/5=7,6=11,7=10,11=2,16=1,25=1,30=1,74=-58,75=-5,82=7,107=250000000,108=250000000/1,2,3;
 4/5=5,16=3/1;
 5/5=2,38=5/2;
 1/53=3043,62=2,63=2/22;
 3/5=7,6=11,7=10,11=2,16=1,25=1,30=1,74=-58,75=-5,82=7,107=250000000,108=250000000/1,2,3;
 4/5=5,16=3/1;
 5/5=2,38=5/2;
 1/53=2033,62=2,63=3/22;
 3/5=7,6=11,7=10,11=2,16=1,25=1,30=1,74=-58,75=-5,82=7,107=250000000,108=250000000/1,2,3;
 4/5=5,16=3/1;
 5/5=2,38=5/2;
 1/53=1024,62=2,63=4/22;
 3/5=7,6=11,7=10,11=2,16=1,25=1,30=1,74=-58,75=-5,82=7,107=250000000,108=250000000/1,2,3;
 4/5=5,16=3/1;
 5/5=2,38=5/2;
 1/53=5014,62=2,63=5/22;
 1/60=1,62=2/8(-22);
 99/9=1/99;
 Leave Link    1 at Mon Aug 31 13:44:01 2020, MaxMem= 1073741824 cpu:       0.2
 (Enter /home/matheus/.gaussian/g09/l101.exe)
 ---
 TCC
 ---
 Charge =  0 Multiplicity = 1 in supermolecule
 Charge =  0 Multiplicity = 1 in fragment  1.
 Charge =  0 Multiplicity = 1 in fragment  2.
 Symbolic Z-Matrix:
 O(Fragment=1)         0.        0.        0.725 
 O(Fragment=1)         0.        0.       -0.725 
 H(Fragment=1)         0.        0.91872   1.02351 
 H(Fragment=1)         0.        0.91872  -1.02351 
 Kr(Fragment=2)        0.       R1        0. 
       Variables:
  R1                    3.     Scan 20    0.1    
 
 NAtoms=      5 NQM=        0 NQMF=       0 NMMI=      5 NMMIF=      0
                NMic=       0 NMicF=      0.
                    Isotopes and Nuclear Properties:
 (Nuclear quadrupole moments (NQMom) in fm**2, nuclear magnetic moments (NMagM)
  in nuclear magnetons)

  Atom         1           2           3           4           5
 IAtWgt=          16          16           1           1          84
 AtmWgt=  15.9949146  15.9949146   1.0078250   1.0078250  83.9115064
 NucSpn=           0           0           1           1           0
 AtZEff=   0.0000000   0.0000000   0.0000000   0.0000000   0.0000000
 NQMom=    0.0000000   0.0000000   0.0000000   0.0000000   0.0000000
 NMagM=    0.0000000   0.0000000   2.7928460   2.7928460   0.0000000
 Leave Link  101 at Mon Aug 31 13:44:01 2020, MaxMem= 1073741824 cpu:       0.6
 (Enter /home/matheus/.gaussian/g09/l108.exe)
 Scan the potential surface.
 Variable   Value     No. Steps Step-Size
 -------- ----------- --------- ---------
     1       3.000000      20      0.1000
 A total of     21 points will be computed.
 Leave Link  108 at Mon Aug 31 13:44:01 2020, MaxMem= 1073741824 cpu:       0.0
 (Enter /home/matheus/.gaussian/g09/l202.exe)
 ---------------------------------------------------------------------------------------------------
                            Z-MATRIX (ANGSTROMS AND DEGREES)
   CD    Cent   Atom    N1       Length/X        N2       Alpha/Y        N3        Beta/Z          J
 ---------------------------------------------------------------------------------------------------
      1      1  O        0   0.000000          0.000000          0.725000
      2      2  O        0   0.000000          0.000000         -0.725000
      3      3  H        0   0.000000          0.918721          1.023510
      4      4  H        0   0.000000          0.918721         -1.023510
      5      5  Kr       0   0.000000          3.000000          0.000000
 ---------------------------------------------------------------------------------------------------
                         Z-Matrix orientation:                         
 ---------------------------------------------------------------------
 Center     Atomic      Atomic             Coordinates (Angstroms)
 Number     Number       Type             X           Y           Z
 ---------------------------------------------------------------------
      1          8           0        0.000000    0.000000    0.725000
      2          8           0        0.000000    0.000000   -0.725000
      3          1           0        0.000000    0.918721    1.023510
      4          1           0        0.000000    0.918721   -1.023510
      5         36           0        0.000000    3.000000    0.000000
 ---------------------------------------------------------------------
                    Distance matrix (angstroms):
                    1          2          3          4          5
     1  O    0.000000
     2  O    1.450000   0.000000
     3  H    0.966000   1.975180   0.000000
     4  H    1.975180   0.966000   2.047021   0.000000
     5  Kr   3.086361   3.086361   2.319331   2.319331   0.000000
 Stoichiometry    H2KrO2
 Framework group  C2V[C2(Kr),SGV(H2O2)]
 Deg. of freedom     4
 Full point group                 C2V     NOp   4
 Largest Abelian subgroup         C2V     NOp   4
 Largest concise Abelian subgroup C2      NOp   2
                         Standard orientation:                         
 ---------------------------------------------------------------------
 Center     Atomic      Atomic             Coordinates (Angstroms)
 Number     Number       Type             X           Y           Z
 ---------------------------------------------------------------------
      1          8           0        0.000000    0.725000   -2.034027
      2          8           0        0.000000   -0.725000   -2.034027
      3          1           0        0.000000    1.023510   -1.115306
      4          1           0        0.000000   -1.023510   -1.115306
      5         36           0        0.000000    0.000000    0.965973
 ---------------------------------------------------------------------
 Rotational constants (GHZ):     26.7026195      2.3888795      2.1927141
 Leave Link  202 at Mon Aug 31 13:44:01 2020, MaxMem= 1073741824 cpu:       0.1
 (Enter /home/matheus/.gaussian/g09/l122.exe)
 Leave Link  122 at Mon Aug 31 13:44:01 2020, MaxMem= 1073741824 cpu:       0.0
 (Enter /home/matheus/.gaussian/g09/l301.exe)
 Standard basis: Aug-CC-pVTZ (5D, 7F)
 Ernie: Thresh=  0.10000D-02 Tol=  0.10000D-05 Strict=F.
 Ernie:  38 primitive shells out of 205 were deleted.
 There are    71 symmetry adapted basis functions of A1  symmetry.
 There are    29 symmetry adapted basis functions of A2  symmetry.
 There are    37 symmetry adapted basis functions of B1  symmetry.
 There are    60 symmetry adapted basis functions of B2  symmetry.
 Integral buffers will be    131072 words long.
 Raffenetti 2 integral format.
 Two-electron integral symmetry is turned on.
   197 basis functions,   415 primitive gaussians,   229 cartesian basis functions
    27 alpha electrons       27 beta electrons
       nuclear repulsion energy       151.8532718296 Hartrees.
 IExCor= 4639 DFT=T Ex+Corr=wB97XD ExCW=0 ScaHFX=  1.000000
 ScaDFX=  1.000000  1.000000  1.000000  1.000000 ScalE2=  1.000000  1.000000
 IRadAn=      5 IRanWt=     -1 IRanGd=            0 ICorTp=0
  HFx wShort=  0.000000 wLong=  0.250000 cFull=  0.222036 cShort=  0.000000 cLong=  0.777964
  DFx wShort=  0.000000 wLong=  0.250000 cFull=  0.000000 cShort=  0.000000 cLong=  1.000000
 NAtoms=    5 NActive=    5 NUniq=    3 SFac= 2.78D+00 NAtFMM=   60 NAOKFM=F Big=F
 R6Disp: Dispersion energy =        -0.0007521941 Hartrees.
 Nuclear repulsion after empirical dispersion term =      151.8525196355 Hartrees.
 Leave Link  301 at Mon Aug 31 13:44:02 2020, MaxMem= 1073741824 cpu:       0.4
 (Enter /home/matheus/.gaussian/g09/l302.exe)
 NPDir=0 NMtPBC=     1 NCelOv=     1 NCel=       1 NClECP=     1 NCelD=      1
         NCelK=      1 NCelE2=     1 NClLst=     1 CellRange=     0.0.
 One-electron integrals computed using PRISM.
 One-electron integral symmetry used in STVInt
 NBasis=   197 RedAO= T  NBF=    71    29    37    60
 NBsUse=   197 1.00D-06 NBFU=    71    29    37    60
 Precomputing XC quadrature grid using
 IXCGrd= 2 IRadAn=           5 IRanWt=          -1 IRanGd=           0 AccXCQ= 0.00D+00.
 NRdTot=     427 NPtTot=      123512 NUsed=      126579 NTot=      126611
 NSgBfM=   229   229   229   229   229 NAtAll=     5     5.
 Leave Link  302 at Mon Aug 31 13:44:02 2020, MaxMem= 1073741824 cpu:       1.1
 (Enter /home/matheus/.gaussian/g09/l303.exe)
 DipDrv:  MaxL=1.
 Leave Link  303 at Mon Aug 31 13:44:02 2020, MaxMem= 1073741824 cpu:       1.0
 (Enter /home/matheus/.gaussian/g09/l401.exe)
 Harris functional with IExCor= 4639 diagonalized for initial guess.
 ExpMin= 2.53D-02 ExpMax= 1.17D+07 ExpMxC= 1.33D+04 IAcc=3 IRadAn=         5 AccDes= 0.00D+00
 HarFok:  IExCor= 4639 AccDes= 0.00D+00 IRadAn=         5 IDoV= 1
 ScaDFX=  1.000000  1.000000  1.000000  1.000000
 FoFCou: FMM=F IPFlag=           0 FMFlag=      100000 FMFlg1=           0
         NFxFlg=           0 DoJE=T BraDBF=F KetDBF=T FulRan=T
         Omega=  0.000000  0.000000  1.000000  0.000000  0.000000 ICntrl=     500 IOpCl=  0
         NMat0=    1 NMatS0=    1 NMatT0=    0 NMatD0=    1 NMtDS0=    0 NMtDT0=    0
         I1Cent=           4 NGrid=           0.
 Petite list used in FoFCou.
 Harris En= -2875.38588961100    
 Initial guess orbital symmetries:
       Occupied  (A1) (A1) (A1) (B2) (B1) (B2) (A1) (A1) (A1) (B2)
                 (B1) (B2) (A1) (B1) (A1) (A2) (A1) (B2) (A1) (A1)
                 (A1) (B2) (B1) (B1) (A1) (B2) (A2)
       Virtual   (A1) (B2) (A1) (B1) (B2) (A1) (B2) (B1) (A1) (A1)
                 (B2) (A2) (A1) (B2) (B1) (A1) (A2) (B2) (A1) (A1)
                 (B2) (B1) (A2) (A1) (B2) (B2) (B2) (A1) (B1) (A1)
                 (A1) (B1) (B2) (A1) (B2) (B1) (A2) (A1) (B1) (B2)
                 (A1) (A2) (A1) (A2) (A1) (B2) (B2) (A1) (B1) (B1)
                 (A2) (B2) (A1) (B1) (B2) (A1) (B1) (A1) (B2) (A2)
                 (B2) (A2) (A1) (B2) (A1) (A1) (B2) (B1) (A2) (B1)
                 (B2) (A1) (A2) (A1) (B2) (B2) (A1) (B1) (A1) (B2)
                 (B1) (A1) (A2) (A1) (B1) (A1) (B2) (B1) (A2) (B2)
                 (B2) (A1) (A1) (A1) (A2) (B1) (B2) (A1) (B2) (B1)
                 (B1) (B2) (A1) (A2) (B1) (B2) (A2) (B1) (A1) (A2)
                 (A1) (B2) (B2) (A1) (A1) (B2) (A2) (B2) (B2) (A1)
                 (B2) (B1) (B1) (A1) (A2) (B1) (A2) (A1) (B2) (A2)
                 (A1) (A1) (B2) (B2) (A1) (A1) (B1) (A1) (B2) (A2)
                 (B2) (B2) (A1) (B1) (B2) (A1) (B1) (A1) (A2) (B2)
                 (B1) (A1) (A2) (A1) (B1) (B1) (B2) (A2) (A2) (B2)
                 (A1) (A2) (A1) (B2) (B2) (A1) (B2) (B2) (A1) (B2)
 The electronic state of the initial guess is 1-A1.
 Leave Link  401 at Mon Aug 31 13:44:03 2020, MaxMem= 1073741824 cpu:       2.3
 (Enter /home/matheus/.gaussian/g09/l502.exe)
 Closed shell SCF:
 Requested convergence on RMS density matrix=1.00D-08 within 128 cycles.
 Requested convergence on MAX density matrix=1.00D-06.
 Requested convergence on             energy=1.00D-06.
 No special actions if energy rises.
 Using DIIS extrapolation, IDIIS=  1040.
 Integral symmetry usage will be decided dynamically.
       126521 words used for storage of precomputed grid.
 IEnd=      305860 IEndB=      305860 NGot=  1073741824 MDV=  1073505275
 LenX=  1073505275 LenY=  1073452393
 Fock matrices will be formed incrementally for  20 cycles.

 Cycle   1  Pass 1  IDiag  1:
 FoFJK:  IHMeth= 1 ICntrl=     0 DoSepK=T KAlg= 1 I1Cent= 0 FoldK=F
 FoFCou: FMM=F IPFlag=           0 FMFlag=      100000 FMFlg1=           0
         NFxFlg=           0 DoJE=T BraDBF=F KetDBF=F FulRan=T
         Omega=  0.000000  0.000000  1.000000  0.000000  0.000000 ICntrl=     500 IOpCl=  0
         NMat0=    1 NMatS0=    1 NMatT0=    0 NMatD0=    1 NMtDS0=    0 NMtDT0=    0
         I1Cent=           0 NGrid=           0.
 Petite list used in FoFCou.
 E= -2904.88620303146    
 DIIS: error= 9.30D-02 at cycle   1 NSaved=   1.
 NSaved= 1 IEnMin= 1 EnMin= -2904.88620303146     IErMin= 1 ErrMin= 9.30D-02
 ErrMax= 9.30D-02 EMaxC= 1.00D-01 BMatC= 2.24D+00 BMatP= 2.24D+00
 IDIUse=3 WtCom= 7.00D-02 WtEn= 9.30D-01
 Coeff-Com:  0.100D+01
 Coeff-En:   0.100D+01
 Coeff:      0.100D+01
 Gap=     0.515 Goal=   None    Shift=    0.000
 GapD=    0.515 DampG=2.000 DampE=0.500 DampFc=1.0000 IDamp=-1.
 RMSDP=6.54D-03 MaxDP=3.79D-01              OVMax= 1.90D-01

 Cycle   2  Pass 1  IDiag  1:
 RMSU=  4.61D-03    CP:  1.02D+00
 FoFJK:  IHMeth= 1 ICntrl=     0 DoSepK=T KAlg= 1 I1Cent= 0 FoldK=F
 E= -2905.21717660910     Delta-E=       -0.330973577636 Rises=F Damp=F
 DIIS: error= 5.21D-02 at cycle   2 NSaved=   2.
 NSaved= 2 IEnMin= 2 EnMin= -2905.21717660910     IErMin= 2 ErrMin= 5.21D-02
 ErrMax= 5.21D-02 EMaxC= 1.00D-01 BMatC= 5.67D-01 BMatP= 2.24D+00
 IDIUse=3 WtCom= 4.79D-01 WtEn= 5.21D-01
 Coeff-Com:  0.327D+00 0.673D+00
 Coeff-En:   0.185D+00 0.815D+00
 Coeff:      0.253D+00 0.747D+00
 Gap=     0.370 Goal=   None    Shift=    0.000
 RMSDP=2.94D-03 MaxDP=1.70D-01 DE=-3.31D-01 OVMax= 7.96D-02

 Cycle   3  Pass 1  IDiag  1:
 RMSU=  6.06D-04    CP:  1.01D+00  5.69D-01
 FoFJK:  IHMeth= 1 ICntrl=     0 DoSepK=T KAlg= 1 I1Cent= 0 FoldK=F
 E= -2905.40379102368     Delta-E=       -0.186614414582 Rises=F Damp=F
 DIIS: error= 1.13D-02 at cycle   3 NSaved=   3.
 NSaved= 3 IEnMin= 3 EnMin= -2905.40379102368     IErMin= 3 ErrMin= 1.13D-02
 ErrMax= 1.13D-02 EMaxC= 1.00D-01 BMatC= 2.95D-02 BMatP= 5.67D-01
 IDIUse=3 WtCom= 8.87D-01 WtEn= 1.13D-01
 Coeff-Com:  0.276D-01 0.215D+00 0.758D+00
 Coeff-En:   0.000D+00 0.000D+00 0.100D+01
 Coeff:      0.244D-01 0.190D+00 0.785D+00
 Gap=     0.418 Goal=   None    Shift=    0.000
 RMSDP=6.33D-04 MaxDP=2.15D-02 DE=-1.87D-01 OVMax= 2.89D-02

 Cycle   4  Pass 1  IDiag  1:
 RMSU=  2.50D-04    CP:  1.01D+00  6.49D-01  9.04D-01
 FoFJK:  IHMeth= 1 ICntrl=     0 DoSepK=T KAlg= 1 I1Cent= 0 FoldK=F
 E= -2905.41600463447     Delta-E=       -0.012213610796 Rises=F Damp=F
 DIIS: error= 4.02D-03 at cycle   4 NSaved=   4.
 NSaved= 4 IEnMin= 4 EnMin= -2905.41600463447     IErMin= 4 ErrMin= 4.02D-03
 ErrMax= 4.02D-03 EMaxC= 1.00D-01 BMatC= 2.06D-03 BMatP= 2.95D-02
 IDIUse=3 WtCom= 9.60D-01 WtEn= 4.02D-02
 Coeff-Com: -0.363D-02 0.620D-01 0.375D+00 0.566D+00
 Coeff-En:   0.000D+00 0.000D+00 0.000D+00 0.100D+01
 Coeff:     -0.348D-02 0.595D-01 0.360D+00 0.584D+00
 Gap=     0.400 Goal=   None    Shift=    0.000
 RMSDP=1.45D-04 MaxDP=6.19D-03 DE=-1.22D-02 OVMax= 8.30D-03

 Cycle   5  Pass 1  IDiag  1:
 RMSU=  4.23D-05    CP:  1.01D+00  6.42D-01  9.40D-01  6.62D-01
 FoFJK:  IHMeth= 1 ICntrl=     0 DoSepK=T KAlg= 1 I1Cent= 0 FoldK=F
 E= -2905.41730012482     Delta-E=       -0.001295490344 Rises=F Damp=F
 DIIS: error= 1.56D-04 at cycle   5 NSaved=   5.
 NSaved= 5 IEnMin= 5 EnMin= -2905.41730012482     IErMin= 5 ErrMin= 1.56D-04
 ErrMax= 1.56D-04 EMaxC= 1.00D-01 BMatC= 5.28D-06 BMatP= 2.06D-03
 IDIUse=3 WtCom= 9.98D-01 WtEn= 1.56D-03
 Coeff-Com: -0.612D-03-0.662D-02-0.229D-01 0.235D-02 0.103D+01
 Coeff-En:   0.000D+00 0.000D+00 0.000D+00 0.000D+00 0.100D+01
 Coeff:     -0.611D-03-0.661D-02-0.229D-01 0.234D-02 0.103D+01
 Gap=     0.401 Goal=   None    Shift=    0.000
 RMSDP=2.27D-05 MaxDP=7.80D-04 DE=-1.30D-03 OVMax= 1.40D-03

 Cycle   6  Pass 1  IDiag  1:
 RMSU=  6.34D-06    CP:  1.01D+00  6.42D-01  9.53D-01  6.87D-01  1.25D+00
 FoFJK:  IHMeth= 1 ICntrl=     0 DoSepK=T KAlg= 1 I1Cent= 0 FoldK=F
 E= -2905.41730827426     Delta-E=       -0.000008149447 Rises=F Damp=F
 DIIS: error= 4.21D-05 at cycle   6 NSaved=   6.
 NSaved= 6 IEnMin= 6 EnMin= -2905.41730827426     IErMin= 6 ErrMin= 4.21D-05
 ErrMax= 4.21D-05 EMaxC= 1.00D-01 BMatC= 2.87D-07 BMatP= 5.28D-06
 IDIUse=1 WtCom= 1.00D+00 WtEn= 0.00D+00
 Coeff-Com:  0.661D-05-0.328D-02-0.164D-01-0.196D-01 0.109D+00 0.930D+00
 Coeff:      0.661D-05-0.328D-02-0.164D-01-0.196D-01 0.109D+00 0.930D+00
 Gap=     0.401 Goal=   None    Shift=    0.000
 RMSDP=5.21D-06 MaxDP=1.78D-04 DE=-8.15D-06 OVMax= 3.48D-04

 Cycle   7  Pass 1  IDiag  1:
 RMSU=  1.69D-06    CP:  1.01D+00  6.42D-01  9.56D-01  6.90D-01  1.31D+00
                    CP:  1.20D+00
 FoFJK:  IHMeth= 1 ICntrl=     0 DoSepK=T KAlg= 1 I1Cent= 0 FoldK=F
 E= -2905.41730883529     Delta-E=       -0.000000561025 Rises=F Damp=F
 DIIS: error= 8.90D-06 at cycle   7 NSaved=   7.
 NSaved= 7 IEnMin= 7 EnMin= -2905.41730883529     IErMin= 7 ErrMin= 8.90D-06
 ErrMax= 8.90D-06 EMaxC= 1.00D-01 BMatC= 1.92D-08 BMatP= 2.87D-07
 IDIUse=1 WtCom= 1.00D+00 WtEn= 0.00D+00
 Coeff-Com:  0.322D-04 0.694D-04-0.137D-03-0.218D-02-0.532D-01 0.631D-01
 Coeff-Com:  0.992D+00
 Coeff:      0.322D-04 0.694D-04-0.137D-03-0.218D-02-0.532D-01 0.631D-01
 Coeff:      0.992D+00
 Gap=     0.401 Goal=   None    Shift=    0.000
 RMSDP=1.60D-06 MaxDP=5.08D-05 DE=-5.61D-07 OVMax= 1.18D-04

 Cycle   8  Pass 1  IDiag  1:
 RMSU=  5.18D-07    CP:  1.01D+00  6.42D-01  9.56D-01  6.90D-01  1.33D+00
                    CP:  1.29D+00  1.24D+00
 FoFJK:  IHMeth= 1 ICntrl=     0 DoSepK=T KAlg= 1 I1Cent= 0 FoldK=F
 E= -2905.41730888189     Delta-E=       -0.000000046606 Rises=F Damp=F
 DIIS: error= 3.21D-06 at cycle   8 NSaved=   8.
 NSaved= 8 IEnMin= 8 EnMin= -2905.41730888189     IErMin= 8 ErrMin= 3.21D-06
 ErrMax= 3.21D-06 EMaxC= 1.00D-01 BMatC= 1.66D-09 BMatP= 1.92D-08
 IDIUse=1 WtCom= 1.00D+00 WtEn= 0.00D+00
 Coeff-Com:  0.198D-05 0.200D-03 0.932D-03 0.553D-03-0.920D-02-0.460D-01
 Coeff-Com:  0.495D-01 0.100D+01
 Coeff:      0.198D-05 0.200D-03 0.932D-03 0.553D-03-0.920D-02-0.460D-01
 Coeff:      0.495D-01 0.100D+01
 Gap=     0.401 Goal=   None    Shift=    0.000
 RMSDP=4.45D-07 MaxDP=1.21D-05 DE=-4.66D-08 OVMax= 3.80D-05

 Cycle   9  Pass 1  IDiag  1:
 RMSU=  1.34D-07    CP:  1.01D+00  6.42D-01  9.56D-01  6.89D-01  1.33D+00
                    CP:  1.30D+00  1.33D+00  1.27D+00
 FoFJK:  IHMeth= 1 ICntrl=     0 DoSepK=T KAlg= 1 I1Cent= 0 FoldK=F
 E= -2905.41730888553     Delta-E=       -0.000000003638 Rises=F Damp=F
 DIIS: error= 9.56D-07 at cycle   9 NSaved=   9.
 NSaved= 9 IEnMin= 9 EnMin= -2905.41730888553     IErMin= 9 ErrMin= 9.56D-07
 ErrMax= 9.56D-07 EMaxC= 1.00D-01 BMatC= 1.14D-10 BMatP= 1.66D-09
 IDIUse=1 WtCom= 1.00D+00 WtEn= 0.00D+00
 Coeff-Com: -0.206D-05 0.274D-05 0.396D-04 0.143D-03 0.476D-02-0.291D-02
 Coeff-Com: -0.990D-01 0.294D-01 0.107D+01
 Coeff:     -0.206D-05 0.274D-05 0.396D-04 0.143D-03 0.476D-02-0.291D-02
 Coeff:     -0.990D-01 0.294D-01 0.107D+01
 Gap=     0.401 Goal=   None    Shift=    0.000
 RMSDP=1.43D-07 MaxDP=4.01D-06 DE=-3.64D-09 OVMax= 1.40D-05

 Cycle  10  Pass 1  IDiag  1:
 RMSU=  3.29D-08    CP:  1.01D+00  6.42D-01  9.56D-01  6.89D-01  1.33D+00
                    CP:  1.30D+00  1.34D+00  1.39D+00  1.27D+00
 FoFJK:  IHMeth= 1 ICntrl=     0 DoSepK=T KAlg= 1 I1Cent= 0 FoldK=F
 E= -2905.41730888586     Delta-E=       -0.000000000328 Rises=F Damp=F
 DIIS: error= 1.95D-07 at cycle  10 NSaved=  10.
 NSaved=10 IEnMin=10 EnMin= -2905.41730888586     IErMin=10 ErrMin= 1.95D-07
 ErrMax= 1.95D-07 EMaxC= 1.00D-01 BMatC= 6.54D-12 BMatP= 1.14D-10
 IDIUse=1 WtCom= 1.00D+00 WtEn= 0.00D+00
 Coeff-Com:  0.502D-06-0.892D-05-0.479D-04-0.115D-04-0.388D-03 0.339D-02
 Coeff-Com:  0.785D-02-0.509D-01-0.126D+00 0.117D+01
 Coeff:      0.502D-06-0.892D-05-0.479D-04-0.115D-04-0.388D-03 0.339D-02
 Coeff:      0.785D-02-0.509D-01-0.126D+00 0.117D+01
 Gap=     0.401 Goal=   None    Shift=    0.000
 RMSDP=2.83D-08 MaxDP=7.06D-07 DE=-3.28D-10 OVMax= 3.15D-06

 Cycle  11  Pass 1  IDiag  1:
 RMSU=  6.81D-09    CP:  1.01D+00  6.42D-01  9.56D-01  6.89D-01  1.33D+00
                    CP:  1.30D+00  1.34D+00  1.40D+00  1.36D+00  1.32D+00
 FoFJK:  IHMeth= 1 ICntrl=     0 DoSepK=T KAlg= 1 I1Cent= 0 FoldK=F
 E= -2905.41730888587     Delta-E=       -0.000000000007 Rises=F Damp=F
 DIIS: error= 3.64D-08 at cycle  11 NSaved=  11.
 NSaved=11 IEnMin=11 EnMin= -2905.41730888587     IErMin=11 ErrMin= 3.64D-08
 ErrMax= 3.64D-08 EMaxC= 1.00D-01 BMatC= 1.70D-13 BMatP= 6.54D-12
 IDIUse=1 WtCom= 1.00D+00 WtEn= 0.00D+00
 Coeff-Com: -0.392D-07 0.863D-06 0.418D-05-0.105D-04-0.576D-04-0.276D-03
 Coeff-Com:  0.133D-02 0.667D-02-0.452D-04-0.259D+00 0.125D+01
 Coeff:     -0.392D-07 0.863D-06 0.418D-05-0.105D-04-0.576D-04-0.276D-03
 Coeff:      0.133D-02 0.667D-02-0.452D-04-0.259D+00 0.125D+01
 Gap=     0.401 Goal=   None    Shift=    0.000
 RMSDP=6.66D-09 MaxDP=2.51D-07 DE=-7.28D-12 OVMax= 5.97D-07

 SCF Done:  E(RwB97XD) =  -2905.41730889     A.U. after   11 cycles
             Convg  =    0.6659D-08             -V/T =  2.0015
 KE= 2.900967550116D+03 PE=-7.240941731559D+03 EE= 1.282704352922D+03
 Leave Link  502 at Mon Aug 31 13:44:25 2020, MaxMem= 1073741824 cpu:     176.3
 (Enter /home/matheus/.gaussian/g09/l601.exe)
 Copying SCF densities to generalized density rwf, IOpCl= 0 IROHF=0.

 **********************************************************************

            Population analysis using the SCF density.

 **********************************************************************

 Orbital symmetries:
       Occupied  (A1) (A1) (A1) (B2) (B1) (A1) (B2) (A1) (A1) (B2)
                 (B1) (A1) (B2) (B1) (A2) (A1) (A1) (A1) (B2) (A1)
                 (A1) (B2) (B1) (B1) (A1) (B2) (A2)
       Virtual   (A1) (B2) (A1) (B2) (B1) (B2) (A1) (A1) (B2) (B1)
                 (A1) (A2) (B2) (A1) (B1) (A1) (A2) (B2) (A1) (A1)
                 (B2) (B1) (A1) (A2) (B2) (B2) (B2) (A1) (B1) (A1)
                 (A1) (B2) (B1) (A1) (B2) (B1) (A2) (A1) (B1) (B2)
                 (A1) (A2) (A1) (A2) (A1) (B2) (B2) (B1) (A1) (B1)
                 (A2) (A1) (B2) (B2) (B1) (A1) (A1) (B2) (B1) (A2)
                 (B2) (A2) (A1) (B2) (A1) (A1) (B2) (B1) (A2) (B1)
                 (B2) (A1) (A2) (A1) (B2) (B2) (A1) (B1) (A1) (B2)
                 (A1) (B1) (A1) (B1) (A2) (A1) (B2) (B2) (B1) (A2)
                 (A1) (A2) (A1) (B2) (A1) (B1) (A1) (B2) (B1) (B2)
                 (B1) (B2) (A1) (A2) (B1) (B2) (A1) (B1) (A2) (A1)
                 (B2) (A2) (B2) (A1) (A1) (B2) (B2) (A2) (B2) (A1)
                 (B2) (B1) (B1) (A1) (B1) (A2) (A2) (A1) (B2) (A2)
                 (A1) (A1) (B2) (B2) (A1) (A1) (B1) (A1) (B2) (A2)
                 (B2) (B2) (A1) (B1) (B2) (A1) (B1) (A1) (A2) (B2)
                 (B1) (A1) (A2) (A1) (B1) (B1) (B2) (A2) (A2) (B2)
                 (A1) (A2) (A1) (B2) (B2) (A1) (B2) (B2) (A1) (B2)
 The electronic state is 1-A1.
 Alpha  occ. eigenvalues -- -513.12200 -67.39012 -60.93891 -60.93884 -60.93875
 Alpha  occ. eigenvalues --  -19.33424 -19.33420  -9.84332  -7.53658  -7.53632
 Alpha  occ. eigenvalues --   -7.53603  -3.40343  -3.40340  -3.40314  -3.40295
 Alpha  occ. eigenvalues --   -3.40291  -1.24485  -1.05198  -1.02711  -0.69293
 Alpha  occ. eigenvalues --   -0.54967  -0.53460  -0.52640  -0.51105  -0.50962
 Alpha  occ. eigenvalues --   -0.48353  -0.36529
 Alpha virt. eigenvalues --    0.03545   0.04509   0.08710   0.09446   0.09489
 Alpha virt. eigenvalues --    0.11951   0.12611   0.16611   0.17302   0.17474
 Alpha virt. eigenvalues --    0.18751   0.19182   0.20028   0.21393   0.22422
 Alpha virt. eigenvalues --    0.23684   0.24200   0.25830   0.29743   0.33094
 Alpha virt. eigenvalues --    0.35489   0.37086   0.38388   0.38745   0.39275
 Alpha virt. eigenvalues --    0.43041   0.45423   0.48587   0.50781   0.53011
 Alpha virt. eigenvalues --    0.58045   0.61738   0.61840   0.62998   0.63190
 Alpha virt. eigenvalues --    0.68110   0.68466   0.70023   0.71159   0.73781
 Alpha virt. eigenvalues --    0.74146   0.76643   0.78786   0.82773   0.84211
 Alpha virt. eigenvalues --    0.85533   0.85741   0.87499   0.87561   0.89583
 Alpha virt. eigenvalues --    0.92724   0.95585   0.96325   0.99170   0.99230
 Alpha virt. eigenvalues --    1.01920   1.06033   1.06938   1.07111   1.09053
 Alpha virt. eigenvalues --    1.10383   1.18887   1.21178   1.26826   1.27634
 Alpha virt. eigenvalues --    1.30193   1.30389   1.36222   1.39724   1.45715
 Alpha virt. eigenvalues --    1.48052   1.48060   1.54388   1.55426   1.57842
 Alpha virt. eigenvalues --    1.64095   1.65610   1.77020   1.93263   1.93588
 Alpha virt. eigenvalues --    1.96455   1.97203   2.07441   2.11591   2.11988
 Alpha virt. eigenvalues --    2.18593   2.20441   2.21330   2.21406   2.25988
 Alpha virt. eigenvalues --    2.30141   2.31368   2.31477   2.32220   2.36476
 Alpha virt. eigenvalues --    2.37376   2.40065   2.41375   2.45492   2.46949
 Alpha virt. eigenvalues --    2.47125   2.48286   2.55719   2.56648   2.62519
 Alpha virt. eigenvalues --    2.65734   2.67484   2.67618   2.70217   2.71090
 Alpha virt. eigenvalues --    2.71236   2.74980   2.78496   2.87464   2.88825
 Alpha virt. eigenvalues --    2.94297   3.10891   3.11132   3.18735   3.53158
 Alpha virt. eigenvalues --    3.76938   3.81971   3.94749   4.05480   4.08399
 Alpha virt. eigenvalues --    4.09240   4.11388   4.19115   4.20051   4.26787
 Alpha virt. eigenvalues --    4.34112   4.47110   4.57573   4.71892   4.75091
 Alpha virt. eigenvalues --    4.95621   4.99730   5.01206   5.07203   5.14769
 Alpha virt. eigenvalues --    5.18300   5.54941   5.80997   5.97754   6.07620
 Alpha virt. eigenvalues --    6.13279   6.31217   6.39028   6.48383   6.58197
 Alpha virt. eigenvalues --    6.69930   6.71369   6.75218   6.77942   6.80965
 Alpha virt. eigenvalues --    6.87040   6.87325   6.89629   6.92808   7.12477
 Alpha virt. eigenvalues --    7.16131   7.22970   7.26262   7.29774   7.62914
 Alpha virt. eigenvalues --    7.96652   8.07198   8.21782  13.83994  14.78447
          Condensed to atoms (all electrons):
              1          2          3          4          5
     1  O    8.260594  -0.217423   0.171595   0.040357  -0.019183
     2  O   -0.217423   8.260594   0.040357   0.171595  -0.019183
     3  H    0.171595   0.040357   0.590600  -0.022519  -0.009008
     4  H    0.040357   0.171595  -0.022519   0.590600  -0.009008
     5  Kr  -0.019183  -0.019183  -0.009008  -0.009008  36.042451
 Mulliken atomic charges:
              1
     1  O   -0.235940
     2  O   -0.235940
     3  H    0.228975
     4  H    0.228975
     5  Kr   0.013931
 Sum of Mulliken atomic charges =   0.00000
 Mulliken charges with hydrogens summed into heavy atoms:
              1
     1  O   -0.006966
     2  O   -0.006966
     5  Kr   0.013931
 Sum of Mulliken charges with hydrogens summed into heavy atoms =   0.00000
          Condensed to fragments (all electrons):
     1      -0.013931
     2       0.013931
 Electronic spatial extent (au):  <R**2>=            475.1281
 Charge=              0.0000 electrons
 Dipole moment (field-independent basis, Debye):
    X=              0.0000    Y=              0.0000    Z=              3.7218  Tot=              3.7218
 Quadrupole moment (field-independent basis, Debye-Ang):
   XX=            -30.5405   YY=            -28.1577   ZZ=            -38.6553
   XY=              0.0000   XZ=              0.0000   YZ=              0.0000
 Traceless Quadrupole moment (field-independent basis, Debye-Ang):
   XX=              1.9106   YY=              4.2935   ZZ=             -6.2041
   XY=              0.0000   XZ=              0.0000   YZ=              0.0000
 Octapole moment (field-independent basis, Debye-Ang**2):
  XXX=              0.0000  YYY=              0.0000  ZZZ=             44.5772  XYY=              0.0000
  XXY=              0.0000  XXZ=              9.0448  XZZ=              0.0000  YZZ=              0.0000
  YYZ=              8.1126  XYZ=              0.0000
 Hexadecapole moment (field-independent basis, Debye-Ang**3):
 XXXX=            -29.1670 YYYY=            -63.3959 ZZZZ=           -452.9005 XXXY=              0.0000
 XXXZ=              0.0000 YYYX=              0.0000 YYYZ=              0.0000 ZZZX=              0.0000
 ZZZY=              0.0000 XXYY=            -17.4424 XXZZ=            -76.5031 YYZZ=            -86.1646
 XXYZ=              0.0000 YYXZ=              0.0000 ZZXY=              0.0000
 N-N= 1.518525196355D+02 E-N=-7.240941732667D+03  KE= 2.900967550116D+03
 Symmetry A1   KE= 2.057768429543D+03
 Symmetry A2   KE= 5.296317554386D+01
 Symmetry B1   KE= 3.628342963558D+02
 Symmetry B2   KE= 4.274016486735D+02
 No NMR shielding tensors so no spin-rotation constants.
 Leave Link  601 at Mon Aug 31 13:44:25 2020, MaxMem= 1073741824 cpu:       1.4
 (Enter /home/matheus/.gaussian/g09/l122.exe)
 Counterpoise: doing DCBS calculation for fragment   1 NewBq=T
 Leave Link  122 at Mon Aug 31 13:44:25 2020, MaxMem= 1073741824 cpu:       0.0
 (Enter /home/matheus/.gaussian/g09/l301.exe)
 Basis read from rwf:  (5D, 7F)
 No pseudopotential information found on rwf file.
 There are    71 symmetry adapted basis functions of A1  symmetry.
 There are    29 symmetry adapted basis functions of A2  symmetry.
 There are    37 symmetry adapted basis functions of B1  symmetry.
 There are    60 symmetry adapted basis functions of B2  symmetry.
 Integral buffers will be    131072 words long.
 Raffenetti 2 integral format.
 Two-electron integral symmetry is turned on.
   197 basis functions,   415 primitive gaussians,   229 cartesian basis functions
     9 alpha electrons        9 beta electrons
       nuclear repulsion energy        36.6667523957 Hartrees.
 IExCor= 4639 DFT=T Ex+Corr=wB97XD ExCW=0 ScaHFX=  1.000000
 ScaDFX=  1.000000  1.000000  1.000000  1.000000 ScalE2=  1.000000  1.000000
 IRadAn=      5 IRanWt=     -1 IRanGd=            0 ICorTp=0
  HFx wShort=  0.000000 wLong=  0.250000 cFull=  0.222036 cShort=  0.000000 cLong=  0.777964
  DFx wShort=  0.000000 wLong=  0.250000 cFull=  0.000000 cShort=  0.000000 cLong=  1.000000
 NAtoms=    5 NActive=    5 NUniq=    3 SFac= 2.78D+00 NAtFMM=   60 NAOKFM=F Big=F
 R6Disp: Dispersion energy =        -0.0002180925 Hartrees.
 Nuclear repulsion after empirical dispersion term =       36.6665343032 Hartrees.
 No density basis found on file   718.
 Leave Link  301 at Mon Aug 31 13:44:25 2020, MaxMem= 1073741824 cpu:       0.2
 (Enter /home/matheus/.gaussian/g09/l302.exe)
 NPDir=0 NMtPBC=     1 NCelOv=     1 NCel=       1 NClECP=     1 NCelD=      1
         NCelK=      1 NCelE2=     1 NClLst=     1 CellRange=     0.0.
 One-electron integrals computed using PRISM.
 One-electron integral symmetry used in STVInt
 NBasis=   197 RedAO= T  NBF=    71    29    37    60
 NBsUse=   197 1.00D-06 NBFU=    71    29    37    60
 Precomputing XC quadrature grid using
 IXCGrd= 2 IRadAn=           5 IRanWt=          -1 IRanGd=           0 AccXCQ= 0.00D+00.
 NRdTot=     427 NPtTot=      123512 NUsed=      126579 NTot=      126611
 NSgBfM=   229   229   229   229   229 NAtAll=     5     5.
 Leave Link  302 at Mon Aug 31 13:44:25 2020, MaxMem= 1073741824 cpu:       1.1
 (Enter /home/matheus/.gaussian/g09/l303.exe)
 DipDrv:  MaxL=1.
 Leave Link  303 at Mon Aug 31 13:44:25 2020, MaxMem= 1073741824 cpu:       0.2
 (Enter /home/matheus/.gaussian/g09/l401.exe)
 Harris functional with IExCor= 4639 diagonalized for initial guess.
 ExpMin= 2.53D-02 ExpMax= 1.17D+07 ExpMxC= 1.33D+04 IAcc=3 IRadAn=         5 AccDes= 0.00D+00
 HarFok:  IExCor= 4639 AccDes= 0.00D+00 IRadAn=         5 IDoV= 1
 ScaDFX=  1.000000  1.000000  1.000000  1.000000
 FoFCou: FMM=F IPFlag=           0 FMFlag=      100000 FMFlg1=           0
         NFxFlg=           0 DoJE=T BraDBF=F KetDBF=T FulRan=T
         Omega=  0.000000  0.000000  1.000000  0.000000  0.000000 ICntrl=     500 IOpCl=  0
         NMat0=    1 NMatS0=    1 NMatT0=    0 NMatD0=    1 NMtDS0=    0 NMtDT0=    0
         I1Cent=           4 NGrid=           0.
 Petite list used in FoFCou.
 Harris En= -145.941549196637    
 Initial guess orbital symmetries:
       Occupied  (B2) (A1) (A1) (B2) (A1) (A1) (B1) (B2) (A2)
       Virtual   (A1) (B2) (A1) (B1) (A1) (B2) (B2) (A1) (B1) (A1)
                 (B2) (A2) (B2) (A1) (A1) (B1) (B2) (A1) (A2) (B2)
                 (A1) (B1) (B2) (A1) (B2) (A1) (A2) (B1) (B2) (A1)
                 (A1) (A1) (B2) (B1) (B2) (B1) (A1) (A2) (A1) (A2)
                 (B1) (B2) (A1) (B2) (A1) (B1) (B2) (A2) (A1) (B2)
                 (B2) (A1) (B1) (A2) (A1) (B1) (B2) (A1) (A2) (B2)
                 (B2) (A1) (B1) (A2) (B1) (A1) (A1) (B2) (A1) (A1)
                 (B2) (B1) (A2) (B2) (A1) (B1) (A2) (B2) (A1) (B1)
                 (A1) (B2) (A1) (B1) (B2) (A1) (A2) (B2) (A1) (B1)
                 (A2) (A1) (B2) (A1) (B2) (A1) (B1) (B2) (B1) (A2)
                 (B2) (A2) (A1) (A1) (B2) (B2) (A2) (B2) (B1) (A1)
                 (B2) (A1) (A1) (B2) (B1) (A2) (A1) (B1) (B1) (B2)
                 (A2) (A1) (B1) (A1) (B1) (B2) (A1) (A2) (B1) (A2)
                 (B2) (A1) (A2) (B2) (A1) (A1) (A1) (B2) (B2) (A1)
                 (B1) (A1) (B2) (A2) (B2) (B2) (A1) (B1) (B2) (A1)
                 (B1) (A1) (A2) (B2) (B1) (A1) (A2) (A1) (B1) (B1)
                 (B2) (A2) (A2) (B2) (A1) (A2) (A1) (B2) (B2) (A1)
                 (B2) (B2) (A1) (A1) (B2) (B1) (B2) (A1) (A2) (A1)
                 (B1) (A1) (B2) (A1) (B1) (B2) (A1) (A1)
 The electronic state of the initial guess is 1-A1.
 Leave Link  401 at Mon Aug 31 13:44:25 2020, MaxMem= 1073741824 cpu:       1.8
 (Enter /home/matheus/.gaussian/g09/l502.exe)
 Closed shell SCF:
 Requested convergence on RMS density matrix=1.00D-08 within 128 cycles.
 Requested convergence on MAX density matrix=1.00D-06.
 Requested convergence on             energy=1.00D-06.
 No special actions if energy rises.
 Using DIIS extrapolation, IDIIS=  1040.
 Integral symmetry usage will be decided dynamically.
       126521 words used for storage of precomputed grid.
 IEnd=      305860 IEndB=      305860 NGot=  1073741824 MDV=  1073505275
 LenX=  1073505275 LenY=  1073452393
 Fock matrices will be formed incrementally for  20 cycles.

 Cycle   1  Pass 1  IDiag  1:
 FoFJK:  IHMeth= 1 ICntrl=     0 DoSepK=T KAlg= 1 I1Cent= 0 FoldK=F
 FoFCou: FMM=F IPFlag=           0 FMFlag=      100000 FMFlg1=           0
         NFxFlg=           0 DoJE=T BraDBF=F KetDBF=F FulRan=T
         Omega=  0.000000  0.000000  1.000000  0.000000  0.000000 ICntrl=     500 IOpCl=  0
         NMat0=    1 NMatS0=    1 NMatT0=    0 NMatD0=    1 NMtDS0=    0 NMtDT0=    0
         I1Cent=           0 NGrid=           0.
 Petite list used in FoFCou.
 E= -151.453822401071    
 DIIS: error= 4.32D-02 at cycle   1 NSaved=   1.
 NSaved= 1 IEnMin= 1 EnMin= -151.453822401071     IErMin= 1 ErrMin= 4.32D-02
 ErrMax= 4.32D-02 EMaxC= 1.00D-01 BMatC= 3.18D-01 BMatP= 3.18D-01
 IDIUse=3 WtCom= 5.68D-01 WtEn= 4.32D-01
 Coeff-Com:  0.100D+01
 Coeff-En:   0.100D+01
 Coeff:      0.100D+01
 Gap=     0.516 Goal=   None    Shift=    0.000
 GapD=    0.516 DampG=2.000 DampE=0.500 DampFc=1.0000 IDamp=-1.
 RMSDP=2.64D-03 MaxDP=9.74D-02              OVMax= 1.23D-01

 Cycle   2  Pass 1  IDiag  1:
 RMSU=  1.82D-03    CP:  9.40D-01
 FoFJK:  IHMeth= 1 ICntrl=     0 DoSepK=T KAlg= 1 I1Cent= 0 FoldK=F
 E= -151.496288506670     Delta-E=       -0.042466105598 Rises=F Damp=F
 DIIS: error= 2.91D-02 at cycle   2 NSaved=   2.
 NSaved= 2 IEnMin= 2 EnMin= -151.496288506670     IErMin= 2 ErrMin= 2.91D-02
 ErrMax= 2.91D-02 EMaxC= 1.00D-01 BMatC= 9.65D-02 BMatP= 3.18D-01
 IDIUse=3 WtCom= 7.09D-01 WtEn= 2.91D-01
 Coeff-Com:  0.333D+00 0.667D+00
 Coeff-En:   0.322D+00 0.678D+00
 Coeff:      0.330D+00 0.670D+00
 Gap=     0.366 Goal=   None    Shift=    0.000
 RMSDP=1.06D-03 MaxDP=4.72D-02 DE=-4.25D-02 OVMax= 6.59D-02

 Cycle   3  Pass 1  IDiag  1:
 RMSU=  4.02D-04    CP:  9.64D-01  6.64D-01
 FoFJK:  IHMeth= 1 ICntrl=     0 DoSepK=T KAlg= 1 I1Cent= 0 FoldK=F
 E= -151.547842270304     Delta-E=       -0.051553763634 Rises=F Damp=F
 DIIS: error= 7.68D-03 at cycle   3 NSaved=   3.
 NSaved= 3 IEnMin= 3 EnMin= -151.547842270304     IErMin= 3 ErrMin= 7.68D-03
 ErrMax= 7.68D-03 EMaxC= 1.00D-01 BMatC= 6.68D-03 BMatP= 9.65D-02
 IDIUse=3 WtCom= 9.23D-01 WtEn= 7.68D-02
 Coeff-Com:  0.152D-01 0.217D+00 0.768D+00
 Coeff-En:   0.000D+00 0.000D+00 0.100D+01
 Coeff:      0.140D-01 0.200D+00 0.786D+00
 Gap=     0.398 Goal=   None    Shift=    0.000
 RMSDP=3.08D-04 MaxDP=9.10D-03 DE=-5.16D-02 OVMax= 1.78D-02

 Cycle   4  Pass 1  IDiag  1:
 RMSU=  8.29D-05    CP:  9.57D-01  7.66D-01  8.43D-01
 FoFJK:  IHMeth= 1 ICntrl=     0 DoSepK=T KAlg= 1 I1Cent= 0 FoldK=F
 E= -151.552192910191     Delta-E=       -0.004350639886 Rises=F Damp=F
 DIIS: error= 7.84D-04 at cycle   4 NSaved=   4.
 NSaved= 4 IEnMin= 4 EnMin= -151.552192910191     IErMin= 4 ErrMin= 7.84D-04
 ErrMax= 7.84D-04 EMaxC= 1.00D-01 BMatC= 1.37D-04 BMatP= 6.68D-03
 IDIUse=3 WtCom= 9.92D-01 WtEn= 7.84D-03
 Coeff-Com: -0.859D-03 0.189D-01 0.179D+00 0.803D+00
 Coeff-En:   0.000D+00 0.000D+00 0.000D+00 0.100D+01
 Coeff:     -0.852D-03 0.187D-01 0.177D+00 0.805D+00
 Gap=     0.394 Goal=   None    Shift=    0.000
 RMSDP=5.14D-05 MaxDP=2.68D-03 DE=-4.35D-03 OVMax= 2.73D-03

 Cycle   5  Pass 1  IDiag  1:
 RMSU=  1.69D-05    CP:  9.58D-01  7.58D-01  9.07D-01  1.11D+00
 FoFJK:  IHMeth= 1 ICntrl=     0 DoSepK=T KAlg= 1 I1Cent= 0 FoldK=F
 E= -151.552289111952     Delta-E=       -0.000096201761 Rises=F Damp=F
 DIIS: error= 9.37D-05 at cycle   5 NSaved=   5.
 NSaved= 5 IEnMin= 5 EnMin= -151.552289111952     IErMin= 5 ErrMin= 9.37D-05
 ErrMax= 9.37D-05 EMaxC= 1.00D-01 BMatC= 1.27D-06 BMatP= 1.37D-04
 IDIUse=1 WtCom= 1.00D+00 WtEn= 0.00D+00
 Coeff-Com: -0.626D-03-0.124D-01-0.502D-01-0.105D+00 0.117D+01
 Coeff:     -0.626D-03-0.124D-01-0.502D-01-0.105D+00 0.117D+01
 Gap=     0.394 Goal=   None    Shift=    0.000
 RMSDP=1.76D-05 MaxDP=7.27D-04 DE=-9.62D-05 OVMax= 1.04D-03

 Cycle   6  Pass 1  IDiag  1:
 RMSU=  3.81D-06    CP:  9.59D-01  7.58D-01  9.24D-01  1.21D+00  1.29D+00
 FoFJK:  IHMeth= 1 ICntrl=     0 DoSepK=T KAlg= 1 I1Cent= 0 FoldK=F
 E= -151.552292461022     Delta-E=       -0.000003349070 Rises=F Damp=F
 DIIS: error= 1.81D-05 at cycle   6 NSaved=   6.
 NSaved= 6 IEnMin= 6 EnMin= -151.552292461022     IErMin= 6 ErrMin= 1.81D-05
 ErrMax= 1.81D-05 EMaxC= 1.00D-01 BMatC= 3.27D-08 BMatP= 1.27D-06
 IDIUse=1 WtCom= 1.00D+00 WtEn= 0.00D+00
 Coeff-Com:  0.929D-04 0.699D-03-0.605D-03-0.940D-02-0.106D+00 0.112D+01
 Coeff:      0.929D-04 0.699D-03-0.605D-03-0.940D-02-0.106D+00 0.112D+01
 Gap=     0.394 Goal=   None    Shift=    0.000
 RMSDP=2.62D-06 MaxDP=9.36D-05 DE=-3.35D-06 OVMax= 1.88D-04

 Cycle   7  Pass 1  IDiag  1:
 RMSU=  6.80D-07    CP:  9.59D-01  7.58D-01  9.26D-01  1.22D+00  1.34D+00
                    CP:  1.32D+00
 FoFJK:  IHMeth= 1 ICntrl=     0 DoSepK=T KAlg= 1 I1Cent= 0 FoldK=F
 E= -151.552292572194     Delta-E=       -0.000000111172 Rises=F Damp=F
 DIIS: error= 5.10D-06 at cycle   7 NSaved=   7.
 NSaved= 7 IEnMin= 7 EnMin= -151.552292572194     IErMin= 7 ErrMin= 5.10D-06
 ErrMax= 5.10D-06 EMaxC= 1.00D-01 BMatC= 2.32D-09 BMatP= 3.27D-08
 IDIUse=1 WtCom= 1.00D+00 WtEn= 0.00D+00
 Coeff-Com: -0.200D-05 0.257D-03 0.204D-02 0.472D-02-0.217D-01-0.236D+00
 Coeff-Com:  0.125D+01
 Coeff:     -0.200D-05 0.257D-03 0.204D-02 0.472D-02-0.217D-01-0.236D+00
 Coeff:      0.125D+01
 Gap=     0.394 Goal=   None    Shift=    0.000
 RMSDP=6.33D-07 MaxDP=1.71D-05 DE=-1.11D-07 OVMax= 6.97D-05

 Cycle   8  Pass 1  IDiag  1:
 RMSU=  1.39D-07    CP:  9.59D-01  7.58D-01  9.26D-01  1.22D+00  1.35D+00
                    CP:  1.38D+00  1.34D+00
 FoFJK:  IHMeth= 1 ICntrl=     0 DoSepK=T KAlg= 1 I1Cent= 0 FoldK=F
 E= -151.552292579088     Delta-E=       -0.000000006894 Rises=F Damp=F
 DIIS: error= 8.61D-07 at cycle   8 NSaved=   8.
 NSaved= 8 IEnMin= 8 EnMin= -151.552292579088     IErMin= 8 ErrMin= 8.61D-07
 ErrMax= 8.61D-07 EMaxC= 1.00D-01 BMatC= 8.35D-11 BMatP= 2.32D-09
 IDIUse=1 WtCom= 1.00D+00 WtEn= 0.00D+00
 Coeff-Com: -0.176D-06-0.525D-05-0.483D-05-0.869D-04 0.502D-02-0.377D-01
 Coeff-Com:  0.183D-01 0.101D+01
 Coeff:     -0.176D-06-0.525D-05-0.483D-05-0.869D-04 0.502D-02-0.377D-01
 Coeff:      0.183D-01 0.101D+01
 Gap=     0.394 Goal=   None    Shift=    0.000
 RMSDP=1.02D-07 MaxDP=2.86D-06 DE=-6.89D-09 OVMax= 1.16D-05

 Cycle   9  Pass 1  IDiag  1:
 RMSU=  2.59D-08    CP:  9.59D-01  7.58D-01  9.26D-01  1.21D+00  1.35D+00
                    CP:  1.38D+00  1.40D+00  1.32D+00
 FoFJK:  IHMeth= 1 ICntrl=     0 DoSepK=T KAlg= 1 I1Cent= 0 FoldK=F
 E= -151.552292579310     Delta-E=       -0.000000000222 Rises=F Damp=F
 DIIS: error= 2.79D-07 at cycle   9 NSaved=   9.
 NSaved= 9 IEnMin= 9 EnMin= -151.552292579310     IErMin= 9 ErrMin= 2.79D-07
 ErrMax= 2.79D-07 EMaxC= 1.00D-01 BMatC= 1.13D-11 BMatP= 8.35D-11
 IDIUse=1 WtCom= 1.00D+00 WtEn= 0.00D+00
 Coeff-Com:  0.994D-06-0.178D-04-0.206D-03-0.579D-03 0.249D-02 0.218D-01
 Coeff-Com: -0.132D+00 0.495D-01 0.106D+01
 Coeff:      0.994D-06-0.178D-04-0.206D-03-0.579D-03 0.249D-02 0.218D-01
 Coeff:     -0.132D+00 0.495D-01 0.106D+01
 Gap=     0.394 Goal=   None    Shift=    0.000
 RMSDP=3.77D-08 MaxDP=7.83D-07 DE=-2.22D-10 OVMax= 4.50D-06

 Cycle  10  Pass 1  IDiag  1:
 RMSU=  6.65D-09    CP:  9.59D-01  7.58D-01  9.26D-01  1.21D+00  1.35D+00
                    CP:  1.38D+00  1.42D+00  1.44D+00  1.37D+00
 FoFJK:  IHMeth= 1 ICntrl=     0 DoSepK=T KAlg= 1 I1Cent= 0 FoldK=F
 E= -151.552292579339     Delta-E=       -0.000000000028 Rises=F Damp=F
 DIIS: error= 5.93D-08 at cycle  10 NSaved=  10.
 NSaved=10 IEnMin=10 EnMin= -151.552292579339     IErMin=10 ErrMin= 5.93D-08
 ErrMax= 5.93D-08 EMaxC= 1.00D-01 BMatC= 3.70D-13 BMatP= 1.13D-11
 IDIUse=1 WtCom= 1.00D+00 WtEn= 0.00D+00
 Coeff-Com: -0.343D-06 0.498D-06 0.293D-04 0.755D-04-0.472D-03-0.231D-02
 Coeff-Com:  0.226D-01-0.321D-01-0.270D+00 0.128D+01
 Coeff:     -0.343D-06 0.498D-06 0.293D-04 0.755D-04-0.472D-03-0.231D-02
 Coeff:      0.226D-01-0.321D-01-0.270D+00 0.128D+01
 Gap=     0.394 Goal=   None    Shift=    0.000
 RMSDP=9.73D-09 MaxDP=4.27D-07 DE=-2.83D-11 OVMax= 8.75D-07

 SCF Done:  E(RwB97XD) =  -151.552292579     A.U. after   10 cycles
             Convg  =    0.9732D-08             -V/T =  2.0059
 KE= 1.506681845013D+02 PE=-4.317550067222D+02 EE= 9.286799533844D+01
 Leave Link  502 at Mon Aug 31 13:44:47 2020, MaxMem= 1073741824 cpu:     172.6
 (Enter /home/matheus/.gaussian/g09/l601.exe)
 Copying SCF densities to generalized density rwf, IOpCl= 0 IROHF=0.

 **********************************************************************

            Population analysis using the SCF density.

 **********************************************************************

 Orbital symmetries:
       Occupied  (A1) (B2) (A1) (B2) (A1) (A1) (B1) (B2) (A2)
       Virtual   (A1) (B2) (A1) (B1) (A1) (B2) (B2) (A1) (B1) (A1)
                 (B2) (B2) (A2) (A1) (B1) (A1) (B2) (A1) (A2) (B2)
                 (A1) (B1) (B2) (A1) (B2) (A1) (A2) (B1) (B2) (A1)
                 (A1) (A1) (B2) (B1) (B2) (A1) (B1) (A1) (A2) (A2)
                 (B1) (B2) (A1) (B2) (A1) (B1) (B2) (A1) (A2) (B2)
                 (B2) (A1) (B1) (A1) (A2) (B1) (B2) (A1) (A2) (B2)
                 (B2) (A1) (B1) (A2) (B1) (A1) (A1) (B2) (A1) (A1)
                 (B1) (B2) (A2) (B2) (A1) (B1) (A2) (B2) (A1) (B1)
                 (A1) (B2) (A1) (B1) (B2) (A1) (A2) (B2) (A1) (B1)
                 (A1) (A2) (A1) (B2) (B2) (A1) (B1) (B2) (B1) (A2)
                 (B2) (A2) (A1) (A1) (B2) (B2) (A2) (B2) (B1) (A1)
                 (B2) (A1) (A1) (B2) (B1) (A2) (A1) (B1) (B2) (B1)
                 (A2) (A1) (B1) (A1) (B1) (B2) (A1) (B1) (A2) (B2)
                 (A2) (A1) (B2) (A2) (A1) (A1) (B2) (A1) (B2) (A1)
                 (B1) (A1) (B2) (A2) (B2) (B2) (A1) (B1) (B2) (A1)
                 (B1) (A1) (A2) (B2) (B1) (A1) (A2) (A1) (B1) (B1)
                 (B2) (A2) (A2) (B2) (A1) (A2) (A1) (B2) (B2) (A1)
                 (B2) (B2) (A1) (A1) (B2) (B1) (B2) (A1) (A2) (A1)
                 (B1) (A1) (B2) (A1) (B1) (B2) (A1) (A1)
 The electronic state is 1-A1.
 Alpha  occ. eigenvalues --  -19.34329 -19.34325  -1.25188  -1.03421  -0.69482
 Alpha  occ. eigenvalues --   -0.54333  -0.52265  -0.49864  -0.37263
 Alpha virt. eigenvalues --    0.02102   0.03983   0.07628   0.08080   0.09112
 Alpha virt. eigenvalues --    0.09291   0.10673   0.17295   0.18088   0.18170
 Alpha virt. eigenvalues --    0.18873   0.19457   0.20021   0.21725   0.26404
 Alpha virt. eigenvalues --    0.26846   0.28044   0.29188   0.31949   0.35550
 Alpha virt. eigenvalues --    0.35587   0.36759   0.37751   0.41244   0.44096
 Alpha virt. eigenvalues --    0.44725   0.45478   0.48177   0.48844   0.53535
 Alpha virt. eigenvalues --    0.55083   0.58130   0.58896   0.63673   0.64229
 Alpha virt. eigenvalues --    0.68503   0.69670   0.76263   0.76421   0.78825
 Alpha virt. eigenvalues --    0.81060   0.82997   0.84759   0.87636   0.88356
 Alpha virt. eigenvalues --    0.93946   0.96450   0.97187   0.98558   0.99804
 Alpha virt. eigenvalues --    1.01344   1.03877   1.04698   1.09672   1.10293
 Alpha virt. eigenvalues --    1.11912   1.19032   1.23143   1.23565   1.24947
 Alpha virt. eigenvalues --    1.28464   1.29234   1.30309   1.32568   1.34064
 Alpha virt. eigenvalues --    1.34546   1.37004   1.38911   1.43299   1.48783
 Alpha virt. eigenvalues --    1.49466   1.49527   1.51067   1.54273   1.61567
 Alpha virt. eigenvalues --    1.63400   1.64933   1.70978   1.71235   1.78278
 Alpha virt. eigenvalues --    1.81039   1.86478   1.95500   1.98269   1.99737
 Alpha virt. eigenvalues --    2.02332   2.11985   2.22250   2.22648   2.26109
 Alpha virt. eigenvalues --    2.26988   2.29420   2.33339   2.33735   2.42838
 Alpha virt. eigenvalues --    2.45312   2.51013   2.52704   2.60610   2.69213
 Alpha virt. eigenvalues --    2.70879   2.74090   2.81562   2.85228   2.91887
 Alpha virt. eigenvalues --    3.08840   3.10407   3.16313   3.24357   3.34812
 Alpha virt. eigenvalues --    3.37112   3.55899   3.65189   3.71517   3.77824
 Alpha virt. eigenvalues --    3.78738   3.79683   3.81859   3.84161   3.85085
 Alpha virt. eigenvalues --    3.90096   3.90960   3.94559   3.95454   3.97599
 Alpha virt. eigenvalues --    3.99560   4.05702   4.09815   4.10079   4.10208
 Alpha virt. eigenvalues --    4.12098   4.14513   4.25755   4.26665   4.29267
 Alpha virt. eigenvalues --    4.42305   4.60880   4.61087   4.71818   4.94654
 Alpha virt. eigenvalues --    4.99200   5.01524   5.07433   5.14304   5.18049
 Alpha virt. eigenvalues --    5.54942   5.80439   5.97153   6.07235   6.12057
 Alpha virt. eigenvalues --    6.30765   6.38463   6.47777   6.57554   6.69199
 Alpha virt. eigenvalues --    6.70933   6.74525   6.76998   6.80301   6.86390
 Alpha virt. eigenvalues --    6.86695   6.88916   6.92136   7.11964   7.15626
 Alpha virt. eigenvalues --    7.22261   7.25387   7.29087   7.62404   7.95791
 Alpha virt. eigenvalues --    8.06441   8.21148  11.10259  13.83735  14.77498
 Alpha virt. eigenvalues --   14.81647  14.97834  15.10797  29.02845  29.03575
 Alpha virt. eigenvalues --   29.07056  29.21371  29.26203  49.24949 148.29565
 Alpha virt. eigenvalues --  148.53575 148.73679 753.01318
          Condensed to atoms (all electrons):
              1          2          3          4          5
     1  O    8.195994  -0.201312   0.188069   0.032319   0.000244
     2  O   -0.201312   8.195994   0.032319   0.188069   0.000244
     3  H    0.188069   0.032319   0.579896  -0.010893  -0.003283
     4  H    0.032319   0.188069  -0.010893   0.579896  -0.003283
     5  Kr   0.000244   0.000244  -0.003283  -0.003283   0.003235
 Mulliken atomic charges:
              1
     1  O   -0.215314
     2  O   -0.215314
     3  H    0.213893
     4  H    0.213893
     5  Kr   0.002842
 Sum of Mulliken atomic charges =   0.00000
 Mulliken charges with hydrogens summed into heavy atoms:
              1
     1  O   -0.001421
     2  O   -0.001421
     5  Kr   0.002842
 Sum of Mulliken charges with hydrogens summed into heavy atoms =   0.00000
          Condensed to fragments (all electrons):
     1      -0.002842
     2       0.002842
 Electronic spatial extent (au):  <R**2>=            316.2584
 Charge=              0.0000 electrons
 Dipole moment (field-independent basis, Debye):
    X=              0.0000    Y=              0.0000    Z=              3.1013  Tot=              3.1013
 Quadrupole moment (field-independent basis, Debye-Ang):
   XX=            -13.0977   YY=            -10.5382   ZZ=            -21.3805
   XY=              0.0000   XZ=              0.0000   YZ=              0.0000
 Traceless Quadrupole moment (field-independent basis, Debye-Ang):
   XX=              1.9078   YY=              4.4672   ZZ=             -6.3750
   XY=              0.0000   XZ=              0.0000   YZ=              0.0000
 Octapole moment (field-independent basis, Debye-Ang**2):
  XXX=              0.0000  YYY=              0.0000  ZZZ=             92.3844  XYY=              0.0000
  XXY=              0.0000  XXZ=             25.6151  XZZ=              0.0000  YZZ=              0.0000
  YYZ=             24.5650  XYZ=              0.0000
 Hexadecapole moment (field-independent basis, Debye-Ang**3):
 XXXX=            -11.3567 YYYY=            -45.1694 ZZZZ=           -335.8083 XXXY=              0.0000
 XXXZ=              0.0000 YYYX=              0.0000 YYYZ=              0.0000 ZZZX=              0.0000
 ZZZY=              0.0000 XXYY=            -11.4221 XXZZ=            -54.2664 YYZZ=            -63.6295
 XXYZ=              0.0000 YYXZ=              0.0000 ZZXY=              0.0000
 N-N= 3.666653430319D+01 E-N=-4.317550048205D+02  KE= 1.506681845013D+02
 Symmetry A1   KE= 7.198559199334D+01
 Symmetry A2   KE= 5.399772987051D+00
 Symmetry B1   KE= 4.331846767371D+00
 Symmetry B2   KE= 6.895097275351D+01
 No NMR shielding tensors so no spin-rotation constants.
 Leave Link  601 at Mon Aug 31 13:44:47 2020, MaxMem= 1073741824 cpu:       1.0
 (Enter /home/matheus/.gaussian/g09/l122.exe)
 Counterpoise: doing DCBS calculation for fragment   2 NewBq=T
 Leave Link  122 at Mon Aug 31 13:44:47 2020, MaxMem= 1073741824 cpu:       0.0
 (Enter /home/matheus/.gaussian/g09/l301.exe)
 Basis read from rwf:  (5D, 7F)
 No pseudopotential information found on rwf file.
 There are    71 symmetry adapted basis functions of A1  symmetry.
 There are    29 symmetry adapted basis functions of A2  symmetry.
 There are    37 symmetry adapted basis functions of B1  symmetry.
 There are    60 symmetry adapted basis functions of B2  symmetry.
 Integral buffers will be    131072 words long.
 Raffenetti 2 integral format.
 Two-electron integral symmetry is turned on.
   197 basis functions,   415 primitive gaussians,   229 cartesian basis functions
    18 alpha electrons       18 beta electrons
       nuclear repulsion energy         0.0000000000 Hartrees.
 IExCor= 4639 DFT=T Ex+Corr=wB97XD ExCW=0 ScaHFX=  1.000000
 ScaDFX=  1.000000  1.000000  1.000000  1.000000 ScalE2=  1.000000  1.000000
 IRadAn=      5 IRanWt=     -1 IRanGd=            0 ICorTp=0
  HFx wShort=  0.000000 wLong=  0.250000 cFull=  0.222036 cShort=  0.000000 cLong=  0.777964
  DFx wShort=  0.000000 wLong=  0.250000 cFull=  0.000000 cShort=  0.000000 cLong=  1.000000
 NAtoms=    5 NActive=    5 NUniq=    3 SFac= 2.78D+00 NAtFMM=   60 NAOKFM=F Big=F
 R6Disp: Dispersion energy =         0.0000000000 Hartrees.
 Nuclear repulsion after empirical dispersion term =        0.0000000000 Hartrees.
 No density basis found on file   718.
 Leave Link  301 at Mon Aug 31 13:44:47 2020, MaxMem= 1073741824 cpu:       0.2
 (Enter /home/matheus/.gaussian/g09/l302.exe)
 NPDir=0 NMtPBC=     1 NCelOv=     1 NCel=       1 NClECP=     1 NCelD=      1
         NCelK=      1 NCelE2=     1 NClLst=     1 CellRange=     0.0.
 One-electron integrals computed using PRISM.
 One-electron integral symmetry used in STVInt
 NBasis=   197 RedAO= T  NBF=    71    29    37    60
 NBsUse=   197 1.00D-06 NBFU=    71    29    37    60
 Precomputing XC quadrature grid using
 IXCGrd= 2 IRadAn=           5 IRanWt=          -1 IRanGd=           0 AccXCQ= 0.00D+00.
 NRdTot=     427 NPtTot=      123512 NUsed=      126579 NTot=      126611
 NSgBfM=   229   229   229   229   229 NAtAll=     5     5.
 Leave Link  302 at Mon Aug 31 13:44:47 2020, MaxMem= 1073741824 cpu:       1.0
 (Enter /home/matheus/.gaussian/g09/l303.exe)
 DipDrv:  MaxL=1.
 Leave Link  303 at Mon Aug 31 13:44:48 2020, MaxMem= 1073741824 cpu:       0.3
 (Enter /home/matheus/.gaussian/g09/l401.exe)
 Harris functional with IExCor= 4639 diagonalized for initial guess.
 ExpMin= 2.53D-02 ExpMax= 1.17D+07 ExpMxC= 1.33D+04 IAcc=3 IRadAn=         5 AccDes= 0.00D+00
 HarFok:  IExCor= 4639 AccDes= 0.00D+00 IRadAn=         5 IDoV= 1
 ScaDFX=  1.000000  1.000000  1.000000  1.000000
 FoFCou: FMM=F IPFlag=           0 FMFlag=      100000 FMFlg1=           0
         NFxFlg=           0 DoJE=T BraDBF=F KetDBF=T FulRan=T
         Omega=  0.000000  0.000000  1.000000  0.000000  0.000000 ICntrl=     500 IOpCl=  0
         NMat0=    1 NMatS0=    1 NMatT0=    0 NMatD0=    1 NMtDS0=    0 NMtDT0=    0
         I1Cent=           4 NGrid=           0.
 Petite list used in FoFCou.
 Harris En= -2729.46106788672    
 Initial guess orbital symmetries:
       Occupied  (A1) (A1) (A1) (B2) (B1) (A1) (A1) (B2) (B1) (B2)
                 (A1) (B1) (A1) (A2) (A1) (A1) (B2) (B1)
       Virtual   (A1) (B2) (A1) (B1) (B2) (A1) (A1) (B1) (B2) (A1)
                 (B2) (A2) (A1) (B1) (A1) (A2) (B2) (A1) (B2) (A1)
                 (B1) (A1) (B2) (A2) (A1) (B2) (B2) (B1) (A1) (A1)
                 (B2) (B1) (A1) (A2) (B1) (A1) (B2) (B2) (A1) (A2)
                 (B1) (A1) (A1) (A1) (B1) (B2) (A2) (B2) (B1) (B2)
                 (A1) (B2) (A2) (A1) (B1) (B2) (A2) (B1) (B2) (A1)
                 (A1) (A2) (A1) (B2) (A1) (B1) (B2) (A2) (B2) (A1)
                 (A1) (B2) (B2) (B1) (A1) (A2) (A1) (B2) (B2) (B1)
                 (B1) (A1) (A1) (B2) (B1) (A2) (A1) (A1) (B1) (A1)
                 (B2) (B1) (A2) (B1) (A1) (B2) (A2) (A1) (A2) (B2)
                 (A1) (B1) (B2) (B1) (A2) (B2) (A1) (B2) (A1) (B1)
                 (A1) (B2) (A2) (A1) (B2) (B1) (A2) (B2) (A1) (B2)
                 (B2) (A1) (B2) (A2) (A1) (B1) (A1) (B2) (A2) (B2)
                 (A1) (B1) (A1) (A2) (B2) (A1) (B2) (B1) (A1) (A2)
                 (A1) (B2) (B2) (A1) (B2) (B1) (A1) (B1) (A1) (A2)
                 (B2) (A1) (B1) (A2) (A2) (B2) (A1) (B2) (B2) (A1)
                 (B1) (B2) (B1) (A2) (A1) (A2) (B2) (B2) (A1) (B1)
                 (A2) (A1) (A1) (B2) (B2) (A1) (B2) (A1) (B2)
 The electronic state of the initial guess is 1-A1.
 Leave Link  401 at Mon Aug 31 13:44:48 2020, MaxMem= 1073741824 cpu:       2.1
 (Enter /home/matheus/.gaussian/g09/l502.exe)
 Closed shell SCF:
 Requested convergence on RMS density matrix=1.00D-08 within 128 cycles.
 Requested convergence on MAX density matrix=1.00D-06.
 Requested convergence on             energy=1.00D-06.
 No special actions if energy rises.
 Using DIIS extrapolation, IDIIS=  1040.
 Integral symmetry usage will be decided dynamically.
       126521 words used for storage of precomputed grid.
 IEnd=      305860 IEndB=      305860 NGot=  1073741824 MDV=  1073505275
 LenX=  1073505275 LenY=  1073452393
 Fock matrices will be formed incrementally for  20 cycles.

 Cycle   1  Pass 1  IDiag  1:
 FoFJK:  IHMeth= 1 ICntrl=     0 DoSepK=T KAlg= 1 I1Cent= 0 FoldK=F
 FoFCou: FMM=F IPFlag=           0 FMFlag=      100000 FMFlg1=           0
         NFxFlg=           0 DoJE=T BraDBF=F KetDBF=F FulRan=T
         Omega=  0.000000  0.000000  1.000000  0.000000  0.000000 ICntrl=     500 IOpCl=  0
         NMat0=    1 NMatS0=    1 NMatT0=    0 NMatD0=    1 NMtDS0=    0 NMtDT0=    0
         I1Cent=           0 NGrid=           0.
 Petite list used in FoFCou.
 E= -2753.44563517815    
 DIIS: error= 9.06D-02 at cycle   1 NSaved=   1.
 NSaved= 1 IEnMin= 1 EnMin= -2753.44563517815     IErMin= 1 ErrMin= 9.06D-02
 ErrMax= 9.06D-02 EMaxC= 1.00D-01 BMatC= 1.92D+00 BMatP= 1.92D+00
 IDIUse=3 WtCom= 9.36D-02 WtEn= 9.06D-01
 Coeff-Com:  0.100D+01
 Coeff-En:   0.100D+01
 Coeff:      0.100D+01
 Gap=     0.654 Goal=   None    Shift=    0.000
 GapD=    0.654 DampG=2.000 DampE=0.500 DampFc=1.0000 IDamp=-1.
 RMSDP=5.93D-03 MaxDP=3.79D-01              OVMax= 1.83D-01

 Cycle   2  Pass 1  IDiag  1:
 RMSU=  4.14D-03    CP:  1.04D+00
 FoFJK:  IHMeth= 1 ICntrl=     0 DoSepK=T KAlg= 1 I1Cent= 0 FoldK=F
 E= -2753.72305175907     Delta-E=       -0.277416580912 Rises=F Damp=F
 DIIS: error= 4.75D-02 at cycle   2 NSaved=   2.
 NSaved= 2 IEnMin= 2 EnMin= -2753.72305175907     IErMin= 2 ErrMin= 4.75D-02
 ErrMax= 4.75D-02 EMaxC= 1.00D-01 BMatC= 4.72D-01 BMatP= 1.92D+00
 IDIUse=3 WtCom= 5.25D-01 WtEn= 4.75D-01
 Coeff-Com:  0.327D+00 0.673D+00
 Coeff-En:   0.161D+00 0.839D+00
 Coeff:      0.248D+00 0.752D+00
 Gap=     0.485 Goal=   None    Shift=    0.000
 RMSDP=2.73D-03 MaxDP=1.70D-01 DE=-2.77D-01 OVMax= 7.96D-02

 Cycle   3  Pass 1  IDiag  1:
 RMSU=  3.92D-04    CP:  1.02D+00  5.48D-01
 FoFJK:  IHMeth= 1 ICntrl=     0 DoSepK=T KAlg= 1 I1Cent= 0 FoldK=F
 E= -2753.86482727106     Delta-E=       -0.141775511996 Rises=F Damp=F
 DIIS: error= 9.60D-03 at cycle   3 NSaved=   3.
 NSaved= 3 IEnMin= 3 EnMin= -2753.86482727106     IErMin= 3 ErrMin= 9.60D-03
 ErrMax= 9.60D-03 EMaxC= 1.00D-01 BMatC= 1.79D-02 BMatP= 4.72D-01
 IDIUse=3 WtCom= 9.04D-01 WtEn= 9.60D-02
 Coeff-Com: -0.940D-02 0.149D+00 0.860D+00
 Coeff-En:   0.000D+00 0.000D+00 0.100D+01
 Coeff:     -0.850D-02 0.135D+00 0.874D+00
 Gap=     0.519 Goal=   None    Shift=    0.000
 RMSDP=4.18D-04 MaxDP=2.44D-02 DE=-1.42D-01 OVMax= 1.54D-02

 Cycle   4  Pass 1  IDiag  1:
 RMSU=  4.30D-05    CP:  1.03D+00  6.18D-01  9.39D-01
 FoFJK:  IHMeth= 1 ICntrl=     0 DoSepK=T KAlg= 1 I1Cent= 0 FoldK=F
 E= -2753.87023603675     Delta-E=       -0.005408765684 Rises=F Damp=F
 DIIS: error= 5.74D-04 at cycle   4 NSaved=   4.
 NSaved= 4 IEnMin= 4 EnMin= -2753.87023603675     IErMin= 4 ErrMin= 5.74D-04
 ErrMax= 5.74D-04 EMaxC= 1.00D-01 BMatC= 7.53D-05 BMatP= 1.79D-02
 IDIUse=3 WtCom= 9.94D-01 WtEn= 5.74D-03
 Coeff-Com: -0.196D-03-0.200D-01-0.330D-01 0.105D+01
 Coeff-En:   0.000D+00 0.000D+00 0.000D+00 0.100D+01
 Coeff:     -0.195D-03-0.198D-01-0.328D-01 0.105D+01
 Gap=     0.517 Goal=   None    Shift=    0.000
 RMSDP=3.33D-05 MaxDP=1.66D-03 DE=-5.41D-03 OVMax= 1.04D-03

 Cycle   5  Pass 1  IDiag  1:
 RMSU=  1.02D-05    CP:  1.03D+00  6.14D-01  9.61D-01  1.18D+00
 FoFJK:  IHMeth= 1 ICntrl=     0 DoSepK=T KAlg= 1 I1Cent= 0 FoldK=F
 E= -2753.87026259725     Delta-E=       -0.000026560499 Rises=F Damp=F
 DIIS: error= 2.08D-05 at cycle   5 NSaved=   5.
 NSaved= 5 IEnMin= 5 EnMin= -2753.87026259725     IErMin= 5 ErrMin= 2.08D-05
 ErrMax= 2.08D-05 EMaxC= 1.00D-01 BMatC= 7.59D-08 BMatP= 7.53D-05
 IDIUse=1 WtCom= 1.00D+00 WtEn= 0.00D+00
 Coeff-Com:  0.438D-04 0.165D-02-0.470D-02-0.216D+00 0.122D+01
 Coeff:      0.438D-04 0.165D-02-0.470D-02-0.216D+00 0.122D+01
 Gap=     0.516 Goal=   None    Shift=    0.000
 RMSDP=4.53D-06 MaxDP=1.79D-04 DE=-2.66D-05 OVMax= 2.42D-04

 Cycle   6  Pass 1  IDiag  1:
 RMSU=  7.70D-07    CP:  1.03D+00  6.14D-01  9.64D-01  1.22D+00  1.22D+00
 FoFJK:  IHMeth= 1 ICntrl=     0 DoSepK=T KAlg= 1 I1Cent= 0 FoldK=F
 E= -2753.87026279336     Delta-E=       -0.000000196118 Rises=F Damp=F
 DIIS: error= 2.68D-06 at cycle   6 NSaved=   6.
 NSaved= 6 IEnMin= 6 EnMin= -2753.87026279336     IErMin= 6 ErrMin= 2.68D-06
 ErrMax= 2.68D-06 EMaxC= 1.00D-01 BMatC= 7.82D-10 BMatP= 7.59D-08
 IDIUse=1 WtCom= 1.00D+00 WtEn= 0.00D+00
 Coeff-Com:  0.730D-05 0.471D-03-0.680D-03-0.503D-01 0.245D+00 0.805D+00
 Coeff:      0.730D-05 0.471D-03-0.680D-03-0.503D-01 0.245D+00 0.805D+00
 Gap=     0.516 Goal=   None    Shift=    0.000
 RMSDP=1.95D-07 MaxDP=6.46D-06 DE=-1.96D-07 OVMax= 1.12D-05

 Cycle   7  Pass 1  IDiag  1:
 RMSU=  9.25D-08    CP:  1.03D+00  6.14D-01  9.64D-01  1.22D+00  1.23D+00
                    CP:  1.11D+00
 FoFJK:  IHMeth= 1 ICntrl=     0 DoSepK=T KAlg= 1 I1Cent= 0 FoldK=F
 E= -2753.87026279413     Delta-E=       -0.000000000769 Rises=F Damp=F
 DIIS: error= 3.82D-07 at cycle   7 NSaved=   7.
 NSaved= 7 IEnMin= 7 EnMin= -2753.87026279413     IErMin= 7 ErrMin= 3.82D-07
 ErrMax= 3.82D-07 EMaxC= 1.00D-01 BMatC= 3.30D-11 BMatP= 7.82D-10
 IDIUse=1 WtCom= 1.00D+00 WtEn= 0.00D+00
 Coeff-Com: -0.152D-05-0.188D-04 0.239D-03 0.592D-02-0.386D-01 0.765D-01
 Coeff-Com:  0.956D+00
 Coeff:     -0.152D-05-0.188D-04 0.239D-03 0.592D-02-0.386D-01 0.765D-01
 Coeff:      0.956D+00
 Gap=     0.516 Goal=   None    Shift=    0.000
 RMSDP=6.36D-08 MaxDP=2.76D-06 DE=-7.69D-10 OVMax= 2.34D-06

 Cycle   8  Pass 1  IDiag  1:
 RMSU=  1.94D-08    CP:  1.03D+00  6.14D-01  9.64D-01  1.22D+00  1.23D+00
                    CP:  1.16D+00  1.10D+00
 FoFJK:  IHMeth= 1 ICntrl=     0 DoSepK=T KAlg= 1 I1Cent= 0 FoldK=F
 E= -2753.87026279415     Delta-E=       -0.000000000022 Rises=F Damp=F
 DIIS: error= 6.64D-08 at cycle   8 NSaved=   8.
 NSaved= 8 IEnMin= 8 EnMin= -2753.87026279415     IErMin= 8 ErrMin= 6.64D-08
 ErrMax= 6.64D-08 EMaxC= 1.00D-01 BMatC= 4.04D-13 BMatP= 3.30D-11
 IDIUse=1 WtCom= 1.00D+00 WtEn= 0.00D+00
 Coeff-Com:  0.265D-06 0.110D-05 0.436D-05 0.484D-04 0.202D-03-0.102D-01
 Coeff-Com: -0.321D-01 0.104D+01
 Coeff:      0.265D-06 0.110D-05 0.436D-05 0.484D-04 0.202D-03-0.102D-01
 Coeff:     -0.321D-01 0.104D+01
 Gap=     0.516 Goal=   None    Shift=    0.000
 RMSDP=9.92D-09 MaxDP=3.95D-07 DE=-2.18D-11 OVMax= 3.03D-07

 SCF Done:  E(RwB97XD) =  -2753.87026279     A.U. after    8 cycles
             Convg  =    0.9919D-08             -V/T =  2.0013
 KE= 2.750234534979D+03 PE=-6.580142341050D+03 EE= 1.076037543277D+03
 Leave Link  502 at Mon Aug 31 13:45:06 2020, MaxMem= 1073741824 cpu:     145.8
 (Enter /home/matheus/.gaussian/g09/l601.exe)
 Copying SCF densities to generalized density rwf, IOpCl= 0 IROHF=0.

 **********************************************************************

            Population analysis using the SCF density.

 **********************************************************************

 Orbital symmetries:
       Occupied  (A1) (A1) (A1) (B2) (B1) (A1) (A1) (B1) (B2) (A1)
                 (B2) (B1) (A1) (A2) (A1) (A1) (B2) (B1)
       Virtual   (A1) (B2) (A1) (B1) (B2) (A1) (A1) (B1) (B2) (A1)
                 (A2) (B2) (A1) (B1) (A1) (A2) (B2) (A1) (B2) (A1)
                 (B1) (A1) (B2) (A2) (A1) (B2) (B2) (B1) (A1) (A1)
                 (B2) (B1) (A2) (A1) (B2) (B1) (A1) (B2) (A1) (A2)
                 (B1) (A1) (A1) (B1) (A1) (B2) (B2) (A2) (B1) (A1)
                 (B2) (B2) (A1) (A2) (B1) (B2) (A2) (A1) (B1) (B2)
                 (A1) (A2) (A1) (B2) (A1) (B2) (B1) (A2) (B2) (A1)
                 (A1) (B2) (B2) (B1) (A1) (A2) (A1) (B2) (B2) (B1)
                 (B1) (A1) (B2) (A1) (B1) (A2) (A1) (A1) (B1) (A1)
                 (A2) (B2) (B1) (A1) (B2) (B1) (A2) (A1) (A2) (B2)
                 (A1) (B1) (B2) (B1) (A2) (A1) (B2) (B2) (A1) (B1)
                 (A1) (B2) (A2) (A1) (B2) (B1) (A2) (B2) (A1) (B2)
                 (B2) (A1) (A2) (B2) (A1) (A1) (B1) (B2) (A2) (A1)
                 (B2) (B1) (A1) (A2) (B2) (A1) (B2) (B1) (A1) (A2)
                 (A1) (B2) (B2) (A1) (B2) (B1) (A1) (B1) (A1) (A2)
                 (B2) (A1) (B1) (A2) (A2) (B2) (A1) (B2) (B2) (A1)
                 (B1) (B2) (B1) (A2) (A1) (A2) (B2) (B2) (A1) (B1)
                 (A2) (A1) (A1) (B2) (B2) (A1) (B2) (A1) (B2)
 The electronic state is 1-A1.
 Alpha  occ. eigenvalues -- -513.08075 -67.34875 -60.89749 -60.89747 -60.89747
 Alpha  occ. eigenvalues --   -9.80179  -7.49479  -7.49478  -7.49478  -3.36163
 Alpha  occ. eigenvalues --   -3.36163  -3.36163  -3.36162  -3.36162  -1.00827
 Alpha  occ. eigenvalues --   -0.48265  -0.48263  -0.48261
 Alpha virt. eigenvalues --    0.03374   0.05224   0.08793   0.10265   0.12431
 Alpha virt. eigenvalues --    0.13373   0.14010   0.14911   0.15865   0.17590
 Alpha virt. eigenvalues --    0.18045   0.18063   0.21205   0.25998   0.26328
 Alpha virt. eigenvalues --    0.26567   0.29558   0.31090   0.33379   0.37237
 Alpha virt. eigenvalues --    0.38185   0.39482   0.40166   0.40944   0.41863
 Alpha virt. eigenvalues --    0.42536   0.46191   0.53229   0.55928   0.58013
 Alpha virt. eigenvalues --    0.61873   0.63057   0.69800   0.70597   0.71837
 Alpha virt. eigenvalues --    0.72873   0.73609   0.75229   0.75382   0.77235
 Alpha virt. eigenvalues --    0.78091   0.83296   0.84846   0.87732   0.87990
 Alpha virt. eigenvalues --    0.89380   0.89606   0.90023   0.96377   0.97924
 Alpha virt. eigenvalues --    0.98003   0.99383   0.99689   1.00020   1.03594
 Alpha virt. eigenvalues --    1.04205   1.10303   1.12391   1.13865   1.14961
 Alpha virt. eigenvalues --    1.15453   1.25370   1.28848   1.32587   1.40655
 Alpha virt. eigenvalues --    1.40836   1.43888   1.44615   1.50151   1.52481
 Alpha virt. eigenvalues --    1.55935   1.61122   1.68519   1.70212   1.75031
 Alpha virt. eigenvalues --    1.79737   1.84420   1.88078   1.96295   2.15755
 Alpha virt. eigenvalues --    2.23481   2.23567   2.28032   2.28085   2.32591
 Alpha virt. eigenvalues --    2.33118   2.34466   2.37684   2.39359   2.40850
 Alpha virt. eigenvalues --    2.47489   2.49276   2.49569   2.51979   2.52150
 Alpha virt. eigenvalues --    2.52954   2.54310   2.60365   2.61487   2.62154
 Alpha virt. eigenvalues --    2.63471   2.64974   2.65560   2.68968   2.75389
 Alpha virt. eigenvalues --    2.76322   2.77186   2.83950   2.89909   2.90488
 Alpha virt. eigenvalues --    2.96834   3.00231   3.12508   3.13368   3.16959
 Alpha virt. eigenvalues --    3.27497   3.28830   3.30189   3.39959   3.56458
 Alpha virt. eigenvalues --    3.64071   3.66916   3.89118   3.89369   4.03290
 Alpha virt. eigenvalues --    4.43656   4.43784   4.52587   4.61945   4.69159
 Alpha virt. eigenvalues --    4.73683   4.81955   4.87816   4.96353   5.05772
 Alpha virt. eigenvalues --    5.12638   5.32458   5.51500   5.66999   5.72473
 Alpha virt. eigenvalues --    5.91498   6.04593   6.30873   6.70994   6.97118
 Alpha virt. eigenvalues --    7.26775   7.39328   7.64874   7.68015   7.80999
 Alpha virt. eigenvalues --    7.88919   8.04439   8.12647   8.13970   8.30034
 Alpha virt. eigenvalues --    8.33267   8.37967   8.72820   9.03698   9.51885
 Alpha virt. eigenvalues --    9.76466   9.77781   9.88889   9.91757   9.95620
 Alpha virt. eigenvalues --   10.22188  10.23804  10.75772  10.88012  11.44187
 Alpha virt. eigenvalues --   11.64570  11.68011  11.93429  12.08424  13.31661
 Alpha virt. eigenvalues --   13.60751  14.57277  62.41089  64.86096
          Condensed to atoms (all electrons):
              1          2          3          4          5
     1  O    0.002342  -0.000324  -0.002164   0.000488  -0.004826
     2  O   -0.000324   0.002342   0.000488  -0.002164  -0.004826
     3  H   -0.002164   0.000488   0.002792  -0.000259  -0.017104
     4  H    0.000488  -0.002164  -0.000259   0.002792  -0.017104
     5  Kr  -0.004826  -0.004826  -0.017104  -0.017104  36.085325
 Mulliken atomic charges:
              1
     1  O    0.004485
     2  O    0.004485
     3  H    0.016247
     4  H    0.016247
     5  Kr  -0.041464
 Sum of Mulliken atomic charges =   0.00000
 Mulliken charges with hydrogens summed into heavy atoms:
              1
     1  O    0.020732
     2  O    0.020732
     5  Kr  -0.041464
 Sum of Mulliken charges with hydrogens summed into heavy atoms =   0.00000
          Condensed to fragments (all electrons):
     1       0.041464
     2      -0.041464
 Electronic spatial extent (au):  <R**2>=            159.3296
 Charge=              0.0000 electrons
 Dipole moment (field-independent basis, Debye):
    X=              0.0000    Y=              0.0000    Z=             -0.0017  Tot=              0.0017
 Quadrupole moment (field-independent basis, Debye-Ang):
   XX=            -17.6614   YY=            -17.6512   ZZ=            -17.6431
   XY=              0.0000   XZ=              0.0000   YZ=              0.0000
 Traceless Quadrupole moment (field-independent basis, Debye-Ang):
   XX=             -0.0095   YY=              0.0007   ZZ=              0.0088
   XY=              0.0000   XZ=              0.0000   YZ=              0.0000
 Octapole moment (field-independent basis, Debye-Ang**2):
  XXX=              0.0000  YYY=              0.0000  ZZZ=            -51.1242  XYY=              0.0000
  XXY=              0.0000  XXZ=            -17.0622  XZZ=              0.0000  YZZ=              0.0000
  YYZ=            -17.0551  XYZ=              0.0000
 Hexadecapole moment (field-independent basis, Debye-Ang**3):
 XXXX=            -18.5091 YYYY=            -18.4828 ZZZZ=           -117.2203 XXXY=              0.0000
 XXXZ=              0.0000 YYYX=              0.0000 YYYZ=              0.0000 ZZZX=              0.0000
 ZZZY=              0.0000 XXYY=             -6.1616 XXZZ=            -22.6375 YYZZ=            -22.6283
 XXYZ=              0.0000 YYXZ=              0.0000 ZZXY=              0.0000
 N-N= 0.000000000000D+00 E-N=-6.580142356770D+03  KE= 2.750234534979D+03
 Symmetry A1   KE= 1.985708077674D+03
 Symmetry A2   KE= 4.758412906684D+01
 Symmetry B1   KE= 3.584732244415D+02
 Symmetry B2   KE= 3.584691037972D+02
 No NMR shielding tensors so no spin-rotation constants.
 Leave Link  601 at Mon Aug 31 13:45:06 2020, MaxMem= 1073741824 cpu:       1.2
 (Enter /home/matheus/.gaussian/g09/l122.exe)
 Counterpoise: doing MCBS calculation for fragment   1
 Leave Link  122 at Mon Aug 31 13:45:06 2020, MaxMem= 1073741824 cpu:       0.0
 (Enter /home/matheus/.gaussian/g09/l301.exe)
 Basis read from rwf:  (5D, 7F)
 No pseudopotential information found on rwf file.
 There are    46 symmetry adapted basis functions of A1  symmetry.
 There are    23 symmetry adapted basis functions of A2  symmetry.
 There are    23 symmetry adapted basis functions of B1  symmetry.
 There are    46 symmetry adapted basis functions of B2  symmetry.
 Integral buffers will be    131072 words long.
 Raffenetti 2 integral format.
 Two-electron integral symmetry is turned on.
   138 basis functions,   198 primitive gaussians,   160 cartesian basis functions
     9 alpha electrons        9 beta electrons
       nuclear repulsion energy        36.6667523957 Hartrees.
 IExCor= 4639 DFT=T Ex+Corr=wB97XD ExCW=0 ScaHFX=  1.000000
 ScaDFX=  1.000000  1.000000  1.000000  1.000000 ScalE2=  1.000000  1.000000
 IRadAn=      5 IRanWt=     -1 IRanGd=            0 ICorTp=0
  HFx wShort=  0.000000 wLong=  0.250000 cFull=  0.222036 cShort=  0.000000 cLong=  0.777964
  DFx wShort=  0.000000 wLong=  0.250000 cFull=  0.000000 cShort=  0.000000 cLong=  1.000000
 NAtoms=    5 NActive=    4 NUniq=    2 SFac= 4.00D+00 NAtFMM=   60 NAOKFM=F Big=F
 R6Disp: Dispersion energy =        -0.0002180925 Hartrees.
 Nuclear repulsion after empirical dispersion term =       36.6665343032 Hartrees.
 No density basis found on file   718.
 Leave Link  301 at Mon Aug 31 13:45:06 2020, MaxMem= 1073741824 cpu:       0.2
 (Enter /home/matheus/.gaussian/g09/l302.exe)
 NPDir=0 NMtPBC=     1 NCelOv=     1 NCel=       1 NClECP=     1 NCelD=      1
         NCelK=      1 NCelE2=     1 NClLst=     1 CellRange=     0.0.
 One-electron integrals computed using PRISM.
 One-electron integral symmetry used in STVInt
 NBasis=   138 RedAO= T  NBF=    46    23    23    46
 NBsUse=   138 1.00D-06 NBFU=    46    23    23    46
 Precomputing XC quadrature grid using
 IXCGrd= 2 IRadAn=           5 IRanWt=          -1 IRanGd=           0 AccXCQ= 0.00D+00.
 NRdTot=     344 NPtTot=       92556 NUsed=       95038 NTot=       95070
 NSgBfM=   160   160   160   160   160 NAtAll=     4     4.
 Leave Link  302 at Mon Aug 31 13:45:06 2020, MaxMem= 1073741824 cpu:       0.8
 (Enter /home/matheus/.gaussian/g09/l303.exe)
 DipDrv:  MaxL=1.
 Leave Link  303 at Mon Aug 31 13:45:06 2020, MaxMem= 1073741824 cpu:       0.2
 (Enter /home/matheus/.gaussian/g09/l401.exe)
 Harris functional with IExCor= 4639 diagonalized for initial guess.
 ExpMin= 2.53D-02 ExpMax= 1.53D+04 ExpMxC= 5.22D+02 IAcc=3 IRadAn=         5 AccDes= 0.00D+00
 HarFok:  IExCor= 4639 AccDes= 0.00D+00 IRadAn=         5 IDoV= 1
 ScaDFX=  1.000000  1.000000  1.000000  1.000000
 FoFCou: FMM=F IPFlag=           0 FMFlag=      100000 FMFlg1=           0
         NFxFlg=           0 DoJE=T BraDBF=F KetDBF=T FulRan=T
         Omega=  0.000000  0.000000  1.000000  0.000000  0.000000 ICntrl=     500 IOpCl=  0
         NMat0=    1 NMatS0=    1 NMatT0=    0 NMatD0=    1 NMtDS0=    0 NMtDT0=    0
         I1Cent=           4 NGrid=           0.
 Petite list used in FoFCou.
 Harris En= -145.941448999572    
 Initial guess orbital symmetries:
       Occupied  (B2) (A1) (A1) (B2) (A1) (A1) (B1) (B2) (A2)
       Virtual   (A1) (B2) (A1) (B2) (B1) (B2) (A1) (A1) (A2) (B2)
                 (B1) (A1) (B2) (A1) (A2) (B2) (A1) (B2) (B2) (A1)
                 (B1) (B2) (A1) (B1) (A1) (A2) (A2) (B1) (B2) (A1)
                 (B2) (A1) (A1) (B1) (B1) (A1) (A2) (B2) (B2) (B2)
                 (A1) (A2) (B2) (A2) (B2) (A1) (B1) (A1) (B2) (A2)
                 (A1) (B2) (B1) (A1) (B2) (A1) (B1) (A1) (A2) (B1)
                 (B2) (A1) (A2) (A1) (B2) (B2) (A1) (B1) (B2) (B1)
                 (B2) (A2) (A2) (A1) (A1) (B2) (B2) (A2) (B2) (A1)
                 (B2) (B1) (A1) (B1) (A2) (B1) (A2) (A1) (B2) (A2)
                 (A1) (A1) (B2) (B2) (A1) (A1) (B1) (B2) (A2) (B2)
                 (B2) (A1) (B1) (A1) (B2) (B1) (A1) (A2) (B2) (A1)
                 (B1) (A2) (A1) (B1) (B1) (B2) (A2) (A2) (A1) (B2)
                 (A2) (A1) (B2) (B2) (A1) (B2) (B2) (A1) (B2)
 The electronic state of the initial guess is 1-A1.
 Leave Link  401 at Mon Aug 31 13:45:07 2020, MaxMem= 1073741824 cpu:       1.4
 (Enter /home/matheus/.gaussian/g09/l502.exe)
 Closed shell SCF:
 Requested convergence on RMS density matrix=1.00D-08 within 128 cycles.
 Requested convergence on MAX density matrix=1.00D-06.
 Requested convergence on             energy=1.00D-06.
 No special actions if energy rises.
 Using DIIS extrapolation, IDIIS=  1040.
 Integral symmetry usage will be decided dynamically.
        94980 words used for storage of precomputed grid.
 IEnd=      192636 IEndB=      192636 NGot=  1073741824 MDV=  1073591589
 LenX=  1073591589 LenY=  1073565548
 Fock matrices will be formed incrementally for  20 cycles.

 Cycle   1  Pass 1  IDiag  1:
 FoFJK:  IHMeth= 1 ICntrl=     0 DoSepK=T KAlg= 1 I1Cent= 0 FoldK=F
 FoFCou: FMM=F IPFlag=           0 FMFlag=      100000 FMFlg1=           0
         NFxFlg=           0 DoJE=T BraDBF=F KetDBF=F FulRan=T
         Omega=  0.000000  0.000000  1.000000  0.000000  0.000000 ICntrl=     500 IOpCl=  0
         NMat0=    1 NMatS0=    1 NMatT0=    0 NMatD0=    1 NMtDS0=    0 NMtDT0=    0
         I1Cent=           0 NGrid=           0.
 Petite list used in FoFCou.
 E= -151.453861509270    
 DIIS: error= 5.54D-02 at cycle   1 NSaved=   1.
 NSaved= 1 IEnMin= 1 EnMin= -151.453861509270     IErMin= 1 ErrMin= 5.54D-02
 ErrMax= 5.54D-02 EMaxC= 1.00D-01 BMatC= 3.17D-01 BMatP= 3.17D-01
 IDIUse=3 WtCom= 4.46D-01 WtEn= 5.54D-01
 Coeff-Com:  0.100D+01
 Coeff-En:   0.100D+01
 Coeff:      0.100D+01
 Gap=     0.518 Goal=   None    Shift=    0.000
 GapD=    0.518 DampG=2.000 DampE=0.500 DampFc=1.0000 IDamp=-1.
 RMSDP=3.49D-03 MaxDP=9.48D-02              OVMax= 1.23D-01

 Cycle   2  Pass 1  IDiag  1:
 RMSU=  2.42D-03    CP:  9.51D-01
 FoFJK:  IHMeth= 1 ICntrl=     0 DoSepK=T KAlg= 1 I1Cent= 0 FoldK=F
 E= -151.496245325005     Delta-E=       -0.042383815735 Rises=F Damp=F
 DIIS: error= 3.09D-02 at cycle   2 NSaved=   2.
 NSaved= 2 IEnMin= 2 EnMin= -151.496245325005     IErMin= 2 ErrMin= 3.09D-02
 ErrMax= 3.09D-02 EMaxC= 1.00D-01 BMatC= 9.64D-02 BMatP= 3.17D-01
 IDIUse=3 WtCom= 6.91D-01 WtEn= 3.09D-01
 Coeff-Com:  0.334D+00 0.666D+00
 Coeff-En:   0.323D+00 0.677D+00
 Coeff:      0.331D+00 0.669D+00
[...]
         I1Cent=           4 NGrid=           0.
 Petite list used in FoFCou.
 Harris En= -2729.45868615334    
 Leave Link  401 at Mon Aug 31 13:59:58 2020, MaxMem= 1073741824 cpu:       2.6
 (Enter /home/matheus/.gaussian/g09/l502.exe)
 Closed shell SCF:
 Requested convergence on RMS density matrix=1.00D-08 within 128 cycles.
 Requested convergence on MAX density matrix=1.00D-06.
 Requested convergence on             energy=1.00D-06.
 No special actions if energy rises.
 Using DIIS extrapolation, IDIIS=  1040.
 Integral symmetry usage will be decided dynamically.
       126823 words used for storage of precomputed grid.
 IEnd=      306162 IEndB=      306162 NGot=  1073741824 MDV=  1073504973
 LenX=  1073504973 LenY=  1073452091
 Fock matrices will be formed incrementally for  20 cycles.

 Cycle   1  Pass 1  IDiag  1:
 FoFJK:  IHMeth= 1 ICntrl=     0 DoSepK=T KAlg= 1 I1Cent= 0 FoldK=F
 FoFCou: FMM=F IPFlag=           0 FMFlag=      100000 FMFlg1=           0
         NFxFlg=           0 DoJE=T BraDBF=F KetDBF=F FulRan=T
         Omega=  0.000000  0.000000  1.000000  0.000000  0.000000 ICntrl=     500 IOpCl=  0
         NMat0=    1 NMatS0=    1 NMatT0=    0 NMatD0=    1 NMtDS0=    0 NMtDT0=    0
         I1Cent=           0 NGrid=           0.
 Petite list used in FoFCou.
 E= -2753.87012799453    
 DIIS: error= 1.27D-04 at cycle   1 NSaved=   1.
 NSaved= 1 IEnMin= 1 EnMin= -2753.87012799453     IErMin= 1 ErrMin= 1.27D-04
 ErrMax= 1.27D-04 EMaxC= 1.00D-01 BMatC= 4.01D-06 BMatP= 4.01D-06
 IDIUse=3 WtCom= 9.99D-01 WtEn= 1.27D-03
 Coeff-Com:  0.100D+01
 Coeff-En:   0.100D+01
 Coeff:      0.100D+01
 Gap=     0.514 Goal=   None    Shift=    0.000
 RMSDP=1.53D-05 MaxDP=7.18D-04              OVMax= 3.72D-04

 Cycle   2  Pass 1  IDiag  1:
 RMSU=  1.09D-05    CP:  1.00D+00
 FoFJK:  IHMeth= 1 ICntrl=     0 DoSepK=T KAlg= 1 I1Cent= 0 FoldK=F
 E= -2753.87012866665     Delta-E=       -0.000000672127 Rises=F Damp=F
 DIIS: error= 7.71D-06 at cycle   2 NSaved=   2.
 NSaved= 2 IEnMin= 2 EnMin= -2753.87012866665     IErMin= 2 ErrMin= 7.71D-06
 ErrMax= 7.71D-06 EMaxC= 1.00D-01 BMatC= 5.65D-09 BMatP= 4.01D-06
 IDIUse=1 WtCom= 1.00D+00 WtEn= 0.00D+00
 Coeff-Com: -0.121D-01 0.101D+01
 Coeff:     -0.121D-01 0.101D+01
 Gap=     0.514 Goal=   None    Shift=    0.000
 RMSDP=1.46D-06 MaxDP=5.79D-05 DE=-6.72D-07 OVMax= 5.81D-05

 Cycle   3  Pass 1  IDiag  1:
 RMSU=  4.93D-07    CP:  1.00D+00  1.08D+00
 FoFJK:  IHMeth= 1 ICntrl=     0 DoSepK=T KAlg= 1 I1Cent= 0 FoldK=F
 E= -2753.87012867668     Delta-E=       -0.000000010027 Rises=F Damp=F
 DIIS: error= 1.09D-06 at cycle   3 NSaved=   3.
 NSaved= 3 IEnMin= 3 EnMin= -2753.87012867668     IErMin= 3 ErrMin= 1.09D-06
 ErrMax= 1.09D-06 EMaxC= 1.00D-01 BMatC= 1.79D-10 BMatP= 5.65D-09
 IDIUse=1 WtCom= 1.00D+00 WtEn= 0.00D+00
 Coeff-Com: -0.172D-03-0.916D-01 0.109D+01
 Coeff:     -0.172D-03-0.916D-01 0.109D+01
 Gap=     0.514 Goal=   None    Shift=    0.000
 RMSDP=1.88D-07 MaxDP=5.89D-06 DE=-1.00D-08 OVMax= 1.16D-05

 Cycle   4  Pass 1  IDiag  1:
 RMSU=  5.82D-08    CP:  1.00D+00  1.09D+00  1.22D+00
 FoFJK:  IHMeth= 1 ICntrl=     0 DoSepK=T KAlg= 1 I1Cent= 0 FoldK=F
 E= -2753.87012867697     Delta-E=       -0.000000000288 Rises=F Damp=F
 DIIS: error= 5.49D-07 at cycle   4 NSaved=   4.
 NSaved= 4 IEnMin= 4 EnMin= -2753.87012867697     IErMin= 4 ErrMin= 5.49D-07
 ErrMax= 5.49D-07 EMaxC= 1.00D-01 BMatC= 3.11D-11 BMatP= 1.79D-10
 IDIUse=1 WtCom= 1.00D+00 WtEn= 0.00D+00
 Coeff-Com:  0.277D-03-0.559D-01 0.334D+00 0.721D+00
 Coeff:      0.277D-03-0.559D-01 0.334D+00 0.721D+00
 Gap=     0.514 Goal=   None    Shift=    0.000
 RMSDP=2.79D-08 MaxDP=8.83D-07 DE=-2.88D-10 OVMax= 1.71D-06

 Cycle   5  Pass 1  IDiag  1:
 RMSU=  1.33D-08    CP:  1.00D+00  1.09D+00  1.25D+00  1.03D+00
 FoFJK:  IHMeth= 1 ICntrl=     0 DoSepK=T KAlg= 1 I1Cent= 0 FoldK=F
 E= -2753.87012867700     Delta-E=       -0.000000000032 Rises=F Damp=F
 DIIS: error= 4.98D-08 at cycle   5 NSaved=   5.
 NSaved= 5 IEnMin= 5 EnMin= -2753.87012867700     IErMin= 5 ErrMin= 4.98D-08
 ErrMax= 4.98D-08 EMaxC= 1.00D-01 BMatC= 2.93D-13 BMatP= 3.11D-11
 IDIUse=1 WtCom= 1.00D+00 WtEn= 0.00D+00
 Coeff-Com:  0.822D-05 0.134D-02-0.236D-01 0.147D-01 0.101D+01
 Coeff:      0.822D-05 0.134D-02-0.236D-01 0.147D-01 0.101D+01
 Gap=     0.514 Goal=   None    Shift=    0.000
 RMSDP=1.09D-08 MaxDP=4.61D-07 DE=-3.18D-11 OVMax= 4.45D-07

 Cycle   6  Pass 1  IDiag  1:
 RMSU=  1.53D-09    CP:  1.00D+00  1.09D+00  1.25D+00  1.10D+00  1.15D+00
 FoFJK:  IHMeth= 1 ICntrl=     0 DoSepK=T KAlg= 1 I1Cent= 0 FoldK=F
 E= -2753.87012867699     Delta-E=        0.000000000008 Rises=F Damp=F
 DIIS: error= 2.05D-08 at cycle   6 NSaved=   6.
 NSaved= 6 IEnMin= 5 EnMin= -2753.87012867700     IErMin= 6 ErrMin= 2.05D-08
 ErrMax= 2.05D-08 EMaxC= 1.00D-01 BMatC= 3.45D-14 BMatP= 2.93D-13
 IDIUse=1 WtCom= 1.00D+00 WtEn= 0.00D+00
 Coeff-Com: -0.136D-04 0.357D-02-0.254D-01-0.342D-01 0.262D+00 0.794D+00
 Coeff:     -0.136D-04 0.357D-02-0.254D-01-0.342D-01 0.262D+00 0.794D+00
 Gap=     0.514 Goal=   None    Shift=    0.000
 RMSDP=1.85D-09 MaxDP=7.72D-08 DE= 8.19D-12 OVMax= 9.77D-08

 SCF Done:  E(RwB97XD) =  -2753.87012868     A.U. after    6 cycles
             Convg  =    0.1850D-08             -V/T =  2.0013
 KE= 2.750283447027D+03 PE=-6.580194783269D+03 EE= 1.076041207565D+03
 Leave Link  502 at Mon Aug 31 14:00:09 2020, MaxMem= 1073741824 cpu:      86.0
 (Enter /home/matheus/.gaussian/g09/l122.exe)
 Restoring MOs from calculation   4 to rwf.
 Counterpoise: doing MCBS calculation for fragment   1
 Leave Link  122 at Mon Aug 31 14:00:09 2020, MaxMem= 1073741824 cpu:       0.0
 (Enter /home/matheus/.gaussian/g09/l301.exe)
 Basis read from rwf:  (5D, 7F)
 No pseudopotential information found on rwf file.
 There are    46 symmetry adapted basis functions of A1  symmetry.
 There are    23 symmetry adapted basis functions of A2  symmetry.
 There are    23 symmetry adapted basis functions of B1  symmetry.
 There are    46 symmetry adapted basis functions of B2  symmetry.
 Integral buffers will be    131072 words long.
 Raffenetti 2 integral format.
 Two-electron integral symmetry is turned on.
   138 basis functions,   198 primitive gaussians,   160 cartesian basis functions
     9 alpha electrons        9 beta electrons
       nuclear repulsion energy        36.6667523957 Hartrees.
 IExCor= 4639 DFT=T Ex+Corr=wB97XD ExCW=0 ScaHFX=  1.000000
 ScaDFX=  1.000000  1.000000  1.000000  1.000000 ScalE2=  1.000000  1.000000
 IRadAn=      5 IRanWt=     -1 IRanGd=            0 ICorTp=0
  HFx wShort=  0.000000 wLong=  0.250000 cFull=  0.222036 cShort=  0.000000 cLong=  0.777964
  DFx wShort=  0.000000 wLong=  0.250000 cFull=  0.000000 cShort=  0.000000 cLong=  1.000000
 NAtoms=    5 NActive=    4 NUniq=    2 SFac= 4.00D+00 NAtFMM=   60 NAOKFM=F Big=F
 R6Disp: Dispersion energy =        -0.0002180925 Hartrees.
 Nuclear repulsion after empirical dispersion term =       36.6665343032 Hartrees.
 No density basis found on file   718.
 Leave Link  301 at Mon Aug 31 14:00:09 2020, MaxMem= 1073741824 cpu:       0.2
 (Enter /home/matheus/.gaussian/g09/l302.exe)
 NPDir=0 NMtPBC=     1 NCelOv=     1 NCel=       1 NClECP=     1 NCelD=      1
         NCelK=      1 NCelE2=     1 NClLst=     1 CellRange=     0.0.
 One-electron integrals computed using PRISM.
 One-electron integral symmetry used in STVInt
 NBasis=   138 RedAO= T  NBF=    46    23    23    46
 NBsUse=   138 1.00D-06 NBFU=    46    23    23    46
 Precomputing XC quadrature grid using
 IXCGrd= 2 IRadAn=           5 IRanWt=          -1 IRanGd=           0 AccXCQ= 0.00D+00.
 NRdTot=     344 NPtTot=       92556 NUsed=       95038 NTot=       95070
 NSgBfM=   160   160   160   160   160 NAtAll=     4     4.
 Leave Link  302 at Mon Aug 31 14:00:09 2020, MaxMem= 1073741824 cpu:       0.9
 (Enter /home/matheus/.gaussian/g09/l303.exe)
 DipDrv:  MaxL=1.
 Leave Link  303 at Mon Aug 31 14:00:09 2020, MaxMem= 1073741824 cpu:       0.2
 (Enter /home/matheus/.gaussian/g09/l401.exe)
 Initial guess read from the read-write file.
 Guess basis will be translated and rotated to current coordinates.
 Initial guess orbital symmetries:
       Occupied  (A1) (B2) (A1) (B2) (A1) (A1) (B1) (B2) (A2)
       Virtual   (A1) (B2) (B2) (A1) (B2) (B1) (A1) (A1) (B2) (A2)
                 (B1) (A1) (B2) (A1) (A2) (B2) (A1) (B2) (B2) (A1)
                 (B1) (A1) (B2) (B1) (A1) (A2) (A2) (B1) (B2) (A1)
                 (B2) (A1) (A1) (B1) (A1) (B1) (A2) (B2) (B2) (B2)
                 (A1) (A2) (B2) (A2) (B2) (A1) (B1) (A1) (B2) (A2)
                 (A1) (B2) (B1) (A1) (B2) (A1) (B1) (A1) (A2) (B2)
                 (B1) (A1) (A2) (A1) (B2) (B2) (A1) (B1) (B2) (B1)
                 (B2) (A2) (A2) (A1) (A1) (B2) (B2) (A2) (B2) (A1)
                 (B2) (B1) (B1) (A1) (A2) (B1) (A2) (A1) (B2) (A2)
                 (A1) (A1) (B2) (B2) (A1) (A1) (B1) (B2) (A2) (B2)
                 (B2) (A1) (B1) (A1) (B2) (B1) (A1) (A2) (B2) (A1)
                 (B1) (A1) (A2) (B1) (B1) (B2) (A2) (A2) (A1) (B2)
                 (A1) (A2) (B2) (B2) (A1) (B2) (B2) (A1) (B2)
 The electronic state of the initial guess is 1-A1.
 Generating alternative initial guess.
 Harris functional with IExCor= 4639 diagonalized for initial guess.
 ExpMin= 2.53D-02 ExpMax= 1.53D+04 ExpMxC= 5.22D+02 IAcc=3 IRadAn=         5 AccDes= 0.00D+00
 HarFok:  IExCor= 4639 AccDes= 0.00D+00 IRadAn=         5 IDoV= 1
 ScaDFX=  1.000000  1.000000  1.000000  1.000000
 FoFCou: FMM=F IPFlag=           0 FMFlag=      100000 FMFlg1=           0
         NFxFlg=           0 DoJE=T BraDBF=F KetDBF=T FulRan=T
         Omega=  0.000000  0.000000  1.000000  0.000000  0.000000 ICntrl=     500 IOpCl=  0
         NMat0=    1 NMatS0=    1 NMatT0=    0 NMatD0=    1 NMtDS0=    0 NMtDT0=    0
         I1Cent=           4 NGrid=           0.
 Petite list used in FoFCou.
 Harris En= -145.941448999572    
 Leave Link  401 at Mon Aug 31 14:00:09 2020, MaxMem= 1073741824 cpu:       1.7
 (Enter /home/matheus/.gaussian/g09/l502.exe)
 Closed shell SCF:
 Requested convergence on RMS density matrix=1.00D-08 within 128 cycles.
 Requested convergence on MAX density matrix=1.00D-06.
 Requested convergence on             energy=1.00D-06.
 No special actions if energy rises.
 Using DIIS extrapolation, IDIIS=  1040.
 Integral symmetry usage will be decided dynamically.
        94980 words used for storage of precomputed grid.
 IEnd=      192636 IEndB=      192636 NGot=  1073741824 MDV=  1073591589
 LenX=  1073591589 LenY=  1073565548
 Fock matrices will be formed incrementally for  20 cycles.

 Cycle   1  Pass 1  IDiag  1:
 FoFJK:  IHMeth= 1 ICntrl=     0 DoSepK=T KAlg= 1 I1Cent= 0 FoldK=F
 FoFCou: FMM=F IPFlag=           0 FMFlag=      100000 FMFlg1=           0
         NFxFlg=           0 DoJE=T BraDBF=F KetDBF=F FulRan=T
         Omega=  0.000000  0.000000  1.000000  0.000000  0.000000 ICntrl=     500 IOpCl=  0
         NMat0=    1 NMatS0=    1 NMatT0=    0 NMatD0=    1 NMtDS0=    0 NMtDT0=    0
         I1Cent=           0 NGrid=           0.
 Petite list used in FoFCou.
 E= -151.552227258616    
 DIIS: error= 1.14D-11 at cycle   1 NSaved=   1.
 NSaved= 1 IEnMin= 1 EnMin= -151.552227258616     IErMin= 1 ErrMin= 1.14D-11
 ErrMax= 1.14D-11 EMaxC= 1.00D-01 BMatC= 1.29D-20 BMatP= 1.29D-20
 IDIUse=1 WtCom= 1.00D+00 WtEn= 0.00D+00
 Coeff-Com:  0.100D+01
 Coeff:      0.100D+01
 Gap=     0.398 Goal=   None    Shift=    0.000
 RMSDP=8.66D-13 MaxDP=2.54D-11              OVMax= 3.98D-11

 SCF Done:  E(RwB97XD) =  -151.552227259     A.U. after    1 cycles
             Convg  =    0.8662D-12             -V/T =  2.0059
 KE= 1.506676426048D+02 PE=-4.317530323414D+02 EE= 9.286662817477D+01
 Leave Link  502 at Mon Aug 31 14:00:10 2020, MaxMem= 1073741824 cpu:       6.1
 (Enter /home/matheus/.gaussian/g09/l122.exe)
 Restoring MOs from calculation   5 to rwf.
 Counterpoise: doing MCBS calculation for fragment   2
 Leave Link  122 at Mon Aug 31 14:00:10 2020, MaxMem= 1073741824 cpu:       0.0
 (Enter /home/matheus/.gaussian/g09/l301.exe)
 Basis read from rwf:  (5D, 7F)
 No pseudopotential information found on rwf file.
 There are    25 symmetry adapted basis functions of A1  symmetry.
 There are     6 symmetry adapted basis functions of A2  symmetry.
 There are    14 symmetry adapted basis functions of B1  symmetry.
 There are    14 symmetry adapted basis functions of B2  symmetry.
 Integral buffers will be    131072 words long.
 Raffenetti 2 integral format.
 Two-electron integral symmetry is turned on.
    59 basis functions,   217 primitive gaussians,    69 cartesian basis functions
    18 alpha electrons       18 beta electrons
       nuclear repulsion energy         0.0000000000 Hartrees.
 IExCor= 4639 DFT=T Ex+Corr=wB97XD ExCW=0 ScaHFX=  1.000000
 ScaDFX=  1.000000  1.000000  1.000000  1.000000 ScalE2=  1.000000  1.000000
 IRadAn=      5 IRanWt=     -1 IRanGd=            0 ICorTp=0
  HFx wShort=  0.000000 wLong=  0.250000 cFull=  0.222036 cShort=  0.000000 cLong=  0.777964
  DFx wShort=  0.000000 wLong=  0.250000 cFull=  0.000000 cShort=  0.000000 cLong=  1.000000
 NAtoms=    5 NActive=    1 NUniq=    1 SFac= 1.00D+00 NAtFMM=   60 NAOKFM=F Big=F
 R6Disp: Dispersion energy =         0.0000000000 Hartrees.
 Nuclear repulsion after empirical dispersion term =        0.0000000000 Hartrees.
 No density basis found on file   718.
 Leave Link  301 at Mon Aug 31 14:00:10 2020, MaxMem= 1073741824 cpu:       0.3
 (Enter /home/matheus/.gaussian/g09/l302.exe)
 NPDir=0 NMtPBC=     1 NCelOv=     1 NCel=       1 NClECP=     1 NCelD=      1
         NCelK=      1 NCelE2=     1 NClLst=     1 CellRange=     0.0.
 One-electron integrals computed using PRISM.
 One-electron integral symmetry used in STVInt
 NBasis=    59 RedAO= T  NBF=    25     6    14    14
 NBsUse=    59 1.00D-06 NBFU=    25     6    14    14
 Precomputing XC quadrature grid using
 IXCGrd= 2 IRadAn=           5 IRanWt=          -1 IRanGd=           0 AccXCQ= 0.00D+00.
 NRdTot=      81 NPtTot=       30352 NUsed=       30981 NTot=       31013
 NSgBfM=    69    69    69    69    69 NAtAll=     1     1.
 Leave Link  302 at Mon Aug 31 14:00:10 2020, MaxMem= 1073741824 cpu:       0.8
 (Enter /home/matheus/.gaussian/g09/l303.exe)
 DipDrv:  MaxL=1.
 Leave Link  303 at Mon Aug 31 14:00:10 2020, MaxMem= 1073741824 cpu:       0.2
 (Enter /home/matheus/.gaussian/g09/l401.exe)
 Initial guess read from the read-write file.
 Guess basis will be translated and rotated to current coordinates.
 Initial guess orbital symmetries:
       Occupied  (A1) (A1) (B1) (B2) (A1) (A1) (B1) (B2) (A1) (B2)
                 (A2) (B1) (A1) (A1) (A1) (B1) (A1) (B2)
       Virtual   (A1) (A1) (B2) (B1) (B1) (A2) (B2) (A1) (A1) (A1)
                 (B1) (B2) (A1) (B1) (A2) (B2) (A1) (A1) (B2) (A1)
                 (B1) (A2) (A1) (B1) (B2) (A1) (B1) (B2) (B2) (B1)
                 (A2) (A1) (A1) (B2) (B1) (A1) (A2) (B1) (A1) (B2)
                 (A1)
 The electronic state of the initial guess is 1-A1.
 Generating alternative initial guess.
 Harris functional with IExCor= 4639 diagonalized for initial guess.
 ExpMin= 4.00D-02 ExpMax= 1.17D+07 ExpMxC= 1.33D+04 IAcc=3 IRadAn=         5 AccDes= 0.00D+00
 HarFok:  IExCor= 4639 AccDes= 0.00D+00 IRadAn=         5 IDoV= 1
 ScaDFX=  1.000000  1.000000  1.000000  1.000000
 FoFCou: FMM=F IPFlag=           0 FMFlag=      100000 FMFlg1=           0
         NFxFlg=           0 DoJE=T BraDBF=F KetDBF=T FulRan=T
         Omega=  0.000000  0.000000  1.000000  0.000000  0.000000 ICntrl=     500 IOpCl=  0
         NMat0=    1 NMatS0=    1 NMatT0=    0 NMatD0=    1 NMtDS0=    0 NMtDT0=    0
         I1Cent=           4 NGrid=           0.
 Petite list used in FoFCou.
 Harris En= -2729.45839233129    
 Leave Link  401 at Mon Aug 31 14:00:10 2020, MaxMem= 1073741824 cpu:       1.2
 (Enter /home/matheus/.gaussian/g09/l502.exe)
 Closed shell SCF:
 Requested convergence on RMS density matrix=1.00D-08 within 128 cycles.
 Requested convergence on MAX density matrix=1.00D-06.
 Requested convergence on             energy=1.00D-06.
 No special actions if energy rises.
 Using DIIS extrapolation, IDIIS=  1040.
 Integral symmetry usage will be decided dynamically.
        30923 words used for storage of precomputed grid.
 IEnd=       64522 IEndB=       64522 NGot=  1073741824 MDV=  1073698773
 LenX=  1073698773 LenY=  1073693571
 Fock matrices will be formed incrementally for  20 cycles.

 Cycle   1  Pass 1  IDiag  1:
 FoFJK:  IHMeth= 1 ICntrl=     0 DoSepK=T KAlg= 1 I1Cent= 0 FoldK=F
 FoFCou: FMM=F IPFlag=           0 FMFlag=      100000 FMFlg1=           0
         NFxFlg=           0 DoJE=T BraDBF=F KetDBF=F FulRan=T
         Omega=  0.000000  0.000000  1.000000  0.000000  0.000000 ICntrl=     500 IOpCl=  0
         NMat0=    1 NMatS0=    1 NMatT0=    0 NMatD0=    1 NMtDS0=    0 NMtDT0=    0
         I1Cent=           0 NGrid=           0.
 Petite list used in FoFCou.
 E= -2753.87011063501    
 DIIS: error= 1.97D-13 at cycle   1 NSaved=   1.
 NSaved= 1 IEnMin= 1 EnMin= -2753.87011063501     IErMin= 1 ErrMin= 1.97D-13
 ErrMax= 1.97D-13 EMaxC= 1.00D-01 BMatC= 1.29D-24 BMatP= 1.29D-24
 IDIUse=1 WtCom= 1.00D+00 WtEn= 0.00D+00
 Coeff-Com:  0.100D+01
 Coeff:      0.100D+01
 Gap=     0.578 Goal=   None    Shift=    0.000
 RMSDP=7.20D-15 MaxDP=1.31D-13              OVMax= 7.93D-14

 SCF Done:  E(RwB97XD) =  -2753.87011064     A.U. after    1 cycles
             Convg  =    0.7203D-14             -V/T =  2.0013
 KE= 2.750289370128D+03 PE=-6.580200885036D+03 EE= 1.076041404273D+03
 Leave Link  502 at Mon Aug 31 14:00:12 2020, MaxMem= 1073741824 cpu:      12.6
 (Enter /home/matheus/.gaussian/g09/l122.exe)
 Restoring MOs from calculation   1 to rwf.
 Counterpoise: corrected energy =   -2905.422830292981
 Counterpoise: BSSE energy =       0.000021901643
 Leave Link  122 at Mon Aug 31 14:00:12 2020, MaxMem= 1073741824 cpu:       0.0
 (Enter /home/matheus/.gaussian/g09/l108.exe)
 Scan completed.

 Summary of the potential surface scan:
   N      R1          SCF    
 ----  ---------  -----------
    1     3.0000  -2753.87011
    2     3.1000  -2753.87011
    3     3.2000  -2753.87011
    4     3.3000  -2753.87011
    5     3.4000  -2753.87011
    6     3.5000  -2753.87011
    7     3.6000  -2753.87011
    8     3.7000  -2753.87011
    9     3.8000  -2753.87011
   10     3.9000  -2753.87011
   11     4.0000  -2753.87011
   12     4.1000  -2753.87011
   13     4.2000  -2753.87011
   14     4.3000  -2753.87011
   15     4.4000  -2753.87011
   16     4.5000  -2753.87011
   17     4.6000  -2753.87011
   18     4.7000  -2753.87011
   19     4.8000  -2753.87011
   20     4.9000  -2753.87011
   21     5.0000  -2753.87011
 ----  ---------  -----------
  
 Leave Link  108 at Mon Aug 31 14:00:12 2020, MaxMem= 1073741824 cpu:       0.0
 (Enter /home/matheus/.gaussian/g09/l9999.exe)

 Test job not archived.
 1\1\GINC-REDGIANT\Scan\RwB97XD\Aug-CC-pVTZ\H2Kr1O2\MATHEUS\31-Aug-2020
 \1\\#p wb97xd/aug-cc-PVTz iop(3/107=0250000000) iop(3/108=0250000000) 
 int=ultrafine counterpoise=2 Scan\\TCC\\0,1\O,0,0.,0.,0.725\O,0,0.,0.,
 -0.725\H,0,0.,0.9187205947,1.0235104166\H,0,0.,0.9187205947,-1.0235104
 166\Kr,0,0.,R1,0.\\R1=3.,s,20,0.1\\Version=EM64L-G09RevC.01\State=1-A1
 \HF=-2753.8701106,-2753.8701106,-2753.8701106,-2753.8701106,-2753.8701
 106,-2753.8701106,-2753.8701106,-2753.8701106,-2753.8701106,-2753.8701
 106,-2753.8701106,-2753.8701106,-2753.8701106,-2753.8701106,-2753.8701
 106,-2753.8701106,-2753.8701106,-2753.8701106,-2753.8701106,-2753.8701
 106,-2753.8701106\RMSD=9.783e-09,1.808e-10,5.242e-11,3.347e-11,1.883e-
 11,1.149e-11,6.865e-12,4.137e-12,2.482e-12,1.493e-12,8.887e-13,5.375e-
 13,3.207e-13,1.941e-13,1.162e-13,7.012e-14,4.475e-14,2.474e-14,1.628e-
 14,7.863e-15,7.203e-15\PG=C02V [C2(Kr1),SGV(H2O2)]\\@


 QUANTUM MECHANICS IS BOHRING -- M.S. GORDON
 Job cpu time:  0 days  2 hours  7 minutes 57.4 seconds.
 File lengths (MBytes):  RWF=     33 Int=      0 D2E=      0 Chk=      8 Scr=      1
 Normal termination of Gaussian 09 at Mon Aug 31 14:00:12 2020.
