 Entering Gaussian System, Link 0=g09
 Input=../Inputs-lc-wpbe/H2O2-Kr_0.com
 Output=../Logs-lc-wpbe/H2O2-Kr_0.log
 Initial command:
 /home/matheus/.gaussian/g09/l1.exe /home/matheus/.gaussian/g09/scratch/Gau-9499.inp -scrdir=/home/matheus/.gaussian/g09/scratch/
 Entering Link 1 = /home/matheus/.gaussian/g09/l1.exe PID=      9501.
  
 Copyright (c) 1988,1990,1992,1993,1995,1998,2003,2009,2011,
            Gaussian, Inc.  All Rights Reserved.
  
 This is part of the Gaussian(R) 09 program.  It is based on
 the Gaussian(R) 03 system (copyright 2003, Gaussian, Inc.),
 the Gaussian(R) 98 system (copyright 1998, Gaussian, Inc.),
 the Gaussian(R) 94 system (copyright 1995, Gaussian, Inc.),
 the Gaussian 92(TM) system (copyright 1992, Gaussian, Inc.),
 the Gaussian 90(TM) system (copyright 1990, Gaussian, Inc.),
 the Gaussian 88(TM) system (copyright 1988, Gaussian, Inc.),
 the Gaussian 86(TM) system (copyright 1986, Carnegie Mellon
 University), and the Gaussian 82(TM) system (copyright 1983,
 Carnegie Mellon University). Gaussian is a federally registered
 trademark of Gaussian, Inc.
  
 This software contains proprietary and confidential information,
 including trade secrets, belonging to Gaussian, Inc.
  
 This software is provided under written license and may be
 used, copied, transmitted, or stored only in accord with that
 written license.
  
 The following legend is applicable only to US Government
 contracts under FAR:
  
                    RESTRICTED RIGHTS LEGEND
  
 Use, reproduction and disclosure by the US Government is
 subject to restrictions as set forth in subparagraphs (a)
 and (c) of the Commercial Computer Software - Restricted
 Rights clause in FAR 52.227-19.
  
 Gaussian, Inc.
 340 Quinnipiac St., Bldg. 40, Wallingford CT 06492
  
  
 ---------------------------------------------------------------
 Warning -- This program may not be used in any manner that
 competes with the business of Gaussian, Inc. or will provide
 assistance to any competitor of Gaussian, Inc.  The licensee
 of this program is prohibited from giving any competitor of
 Gaussian, Inc. access to this program.  By using this program,
 the user acknowledges that Gaussian, Inc. is engaged in the
 business of creating and licensing software in the field of
 computational chemistry and represents and warrants to the
 licensee that it is not a competitor of Gaussian, Inc. and that
 it will not use this program in any manner prohibited above.
 ---------------------------------------------------------------
  

 Cite this work as:
 Gaussian 09, Revision C.01,
 M. J. Frisch, G. W. Trucks, H. B. Schlegel, G. E. Scuseria, 
 M. A. Robb, J. R. Cheeseman, G. Scalmani, V. Barone, B. Mennucci, 
 G. A. Petersson, H. Nakatsuji, M. Caricato, X. Li, H. P. Hratchian, 
 A. F. Izmaylov, J. Bloino, G. Zheng, J. L. Sonnenberg, M. Hada, 
 M. Ehara, K. Toyota, R. Fukuda, J. Hasegawa, M. Ishida, T. Nakajima, 
 Y. Honda, O. Kitao, H. Nakai, T. Vreven, J. A. Montgomery, Jr., 
 J. E. Peralta, F. Ogliaro, M. Bearpark, J. J. Heyd, E. Brothers, 
 K. N. Kudin, V. N. Staroverov, T. Keith, R. Kobayashi, J. Normand, 
 K. Raghavachari, A. Rendell, J. C. Burant, S. S. Iyengar, J. Tomasi, 
 M. Cossi, N. Rega, J. M. Millam, M. Klene, J. E. Knox, J. B. Cross, 
 V. Bakken, C. Adamo, J. Jaramillo, R. Gomperts, R. E. Stratmann, 
 O. Yazyev, A. J. Austin, R. Cammi, C. Pomelli, J. W. Ochterski, 
 R. L. Martin, K. Morokuma, V. G. Zakrzewski, G. A. Voth, 
 P. Salvador, J. J. Dannenberg, S. Dapprich, A. D. Daniels, 
 O. Farkas, J. B. Foresman, J. V. Ortiz, J. Cioslowski, 
 and D. J. Fox, Gaussian, Inc., Wallingford CT, 2010.
 
 ******************************************
 Gaussian 09:  EM64L-G09RevC.01 23-Sep-2011
                 8-May-2020 
 ******************************************
 %mem=8GB
 %nproc=8
 Will use up to    8 processors via shared memory.
 ----------------------------------------------------------------------
 #p lc-wpbe/aug-cc-PVTz iop(3/107=0550000000) iop(3/108=0550000000) int
 =ultrafine counterpoise=2 Scan
 ----------------------------------------------------------------------
 1/38=1,60=1,62=2/1,8;
 2/12=2,17=6,18=5,29=3,40=1/2;
 1/38=1,53=5172,62=2/22;
 3/5=16,6=1,7=10,11=2,16=1,25=1,30=1,74=-41,75=-5,107=550000000,108=550000000/1,2,3;
 4//1;
 5/5=2,38=5/2;
 6/7=2,8=2,9=2,10=2,18=1,28=1/1;
 1/53=4052,62=2,63=1/22;
 3/5=7,6=11,7=10,11=2,16=1,25=1,30=1,74=-41,75=-5,82=7,107=550000000,108=550000000/1,2,3;
 4//1;
 5/5=2,38=5/2;
 6/7=2,8=2,9=2,10=2,18=1,28=1/1;
 1/53=3042,62=2,63=2/22;
 3/5=7,6=11,7=10,11=2,16=1,25=1,30=1,74=-41,75=-5,82=7,107=550000000,108=550000000/1,2,3;
 4//1;
 5/5=2,38=5/2;
 6/7=2,8=2,9=2,10=2,18=1,28=1/1;
 1/53=2032,62=2,63=3/22;
 3/5=7,6=11,7=10,11=2,16=1,25=1,30=1,74=-41,75=-5,82=7,107=550000000,108=550000000/1,2,3;
 4//1;
 5/5=2,38=5/2;
 6/7=2,8=2,9=2,10=2,18=1,28=1/1;
 1/53=1022,62=2,63=4/22;
 3/5=7,6=11,7=10,11=2,16=1,25=1,30=1,74=-41,75=-5,82=7,107=550000000,108=550000000/1,2,3;
 4//1;
 5/5=2,38=5/2;
 6/7=2,8=2,9=2,10=2,18=1,28=1/1;
 1/53=5014,62=2,63=5/22;
 1/60=1,62=2/8(1);
 99/9=1/99;
 2/29=3/2;
 1/53=5173,62=2/22;
 3/5=7,6=11,7=10,11=2,16=1,25=1,30=1,74=-41,75=-5,82=7,107=550000000,108=550000000/1,2,3;
 4/5=5,16=3/1;
 5/5=2,38=5/2;
 1/53=4053,62=2,63=1/22;
 3/5=7,6=11,7=10,11=2,16=1,25=1,30=1,74=-41,75=-5,82=7,107=550000000,108=550000000/1,2,3;
 4/5=5,16=3/1;
 5/5=2,38=5/2;
 1/53=3043,62=2,63=2/22;
 3/5=7,6=11,7=10,11=2,16=1,25=1,30=1,74=-41,75=-5,82=7,107=550000000,108=550000000/1,2,3;
 4/5=5,16=3/1;
 5/5=2,38=5/2;
 1/53=2033,62=2,63=3/22;
 3/5=7,6=11,7=10,11=2,16=1,25=1,30=1,74=-41,75=-5,82=7,107=550000000,108=550000000/1,2,3;
 4/5=5,16=3/1;
 5/5=2,38=5/2;
 1/53=1024,62=2,63=4/22;
 3/5=7,6=11,7=10,11=2,16=1,25=1,30=1,74=-41,75=-5,82=7,107=550000000,108=550000000/1,2,3;
 4/5=5,16=3/1;
 5/5=2,38=5/2;
 1/53=5014,62=2,63=5/22;
 1/60=1,62=2/8(-22);
 99/9=1/99;
 Leave Link    1 at Fri May  8 16:13:55 2020, MaxMem= 1073741824 cpu:       0.1
 (Enter /home/matheus/.gaussian/g09/l101.exe)
 ---
 TCC
 ---
 Charge =  0 Multiplicity = 1 in supermolecule
 Charge =  0 Multiplicity = 1 in fragment  1.
 Charge =  0 Multiplicity = 1 in fragment  2.
 Symbolic Z-Matrix:
 O(Fragment=1)         0.        0.        0.725 
 O(Fragment=1)         0.        0.       -0.725 
 H(Fragment=1)         0.        0.91872   1.02351 
 H(Fragment=1)         0.        0.91872  -1.02351 
 Kr(Fragment=2)        0.       R1        0. 
       Variables:
  R1                    3.     Scan 20    0.1    
 
 NAtoms=      5 NQM=        0 NQMF=       0 NMMI=      5 NMMIF=      0
                NMic=       0 NMicF=      0.
                    Isotopes and Nuclear Properties:
 (Nuclear quadrupole moments (NQMom) in fm**2, nuclear magnetic moments (NMagM)
  in nuclear magnetons)

  Atom         1           2           3           4           5
 IAtWgt=          16          16           1           1          84
 AtmWgt=  15.9949146  15.9949146   1.0078250   1.0078250  83.9115064
 NucSpn=           0           0           1           1           0
 AtZEff=   0.0000000   0.0000000   0.0000000   0.0000000   0.0000000
 NQMom=    0.0000000   0.0000000   0.0000000   0.0000000   0.0000000
 NMagM=    0.0000000   0.0000000   2.7928460   2.7928460   0.0000000
 Leave Link  101 at Fri May  8 16:13:55 2020, MaxMem= 1073741824 cpu:       0.3
 (Enter /home/matheus/.gaussian/g09/l108.exe)
 Scan the potential surface.
 Variable   Value     No. Steps Step-Size
 -------- ----------- --------- ---------
     1       3.000000      20      0.1000
 A total of     21 points will be computed.
 Leave Link  108 at Fri May  8 16:13:55 2020, MaxMem= 1073741824 cpu:       0.0
 (Enter /home/matheus/.gaussian/g09/l202.exe)
 ---------------------------------------------------------------------------------------------------
                            Z-MATRIX (ANGSTROMS AND DEGREES)
   CD    Cent   Atom    N1       Length/X        N2       Alpha/Y        N3        Beta/Z          J
 ---------------------------------------------------------------------------------------------------
      1      1  O        0   0.000000          0.000000          0.725000
      2      2  O        0   0.000000          0.000000         -0.725000
      3      3  H        0   0.000000          0.918721          1.023510
      4      4  H        0   0.000000          0.918721         -1.023510
      5      5  Kr       0   0.000000          3.000000          0.000000
 ---------------------------------------------------------------------------------------------------
                         Z-Matrix orientation:                         
 ---------------------------------------------------------------------
 Center     Atomic      Atomic             Coordinates (Angstroms)
 Number     Number       Type             X           Y           Z
 ---------------------------------------------------------------------
      1          8           0        0.000000    0.000000    0.725000
      2          8           0        0.000000    0.000000   -0.725000
      3          1           0        0.000000    0.918721    1.023510
      4          1           0        0.000000    0.918721   -1.023510
      5         36           0        0.000000    3.000000    0.000000
 ---------------------------------------------------------------------
                    Distance matrix (angstroms):
                    1          2          3          4          5
     1  O    0.000000
     2  O    1.450000   0.000000
     3  H    0.966000   1.975180   0.000000
     4  H    1.975180   0.966000   2.047021   0.000000
     5  Kr   3.086361   3.086361   2.319331   2.319331   0.000000
 Stoichiometry    H2KrO2
 Framework group  C2V[C2(Kr),SGV(H2O2)]
 Deg. of freedom     4
 Full point group                 C2V     NOp   4
 Largest Abelian subgroup         C2V     NOp   4
 Largest concise Abelian subgroup C2      NOp   2
                         Standard orientation:                         
 ---------------------------------------------------------------------
 Center     Atomic      Atomic             Coordinates (Angstroms)
 Number     Number       Type             X           Y           Z
 ---------------------------------------------------------------------
      1          8           0        0.000000    0.725000   -2.034027
      2          8           0        0.000000   -0.725000   -2.034027
      3          1           0        0.000000    1.023510   -1.115306
      4          1           0        0.000000   -1.023510   -1.115306
      5         36           0        0.000000    0.000000    0.965973
 ---------------------------------------------------------------------
 Rotational constants (GHZ):     26.7026195      2.3888795      2.1927141
 Leave Link  202 at Fri May  8 16:13:55 2020, MaxMem= 1073741824 cpu:       0.0
 (Enter /home/matheus/.gaussian/g09/l122.exe)
 Leave Link  122 at Fri May  8 16:13:55 2020, MaxMem= 1073741824 cpu:       0.0
 (Enter /home/matheus/.gaussian/g09/l301.exe)
 Standard basis: Aug-CC-pVTZ (5D, 7F)
 Ernie: Thresh=  0.10000D-02 Tol=  0.10000D-05 Strict=F.
 Ernie:  38 primitive shells out of 205 were deleted.
 There are    71 symmetry adapted basis functions of A1  symmetry.
 There are    29 symmetry adapted basis functions of A2  symmetry.
 There are    37 symmetry adapted basis functions of B1  symmetry.
 There are    60 symmetry adapted basis functions of B2  symmetry.
 Integral buffers will be    131072 words long.
 Raffenetti 2 integral format.
 Two-electron integral symmetry is turned on.
   197 basis functions,   415 primitive gaussians,   229 cartesian basis functions
    27 alpha electrons       27 beta electrons
       nuclear repulsion energy       151.8532718296 Hartrees.
 IExCor=32609 DFT=T Ex+Corr=LC-wPBE ExCW=0 ScaHFX=  1.000000
 ScaDFX=  1.000000  0.000000  1.000000  1.000000 ScalE2=  1.000000  1.000000
 IRadAn=      5 IRanWt=     -1 IRanGd=            0 ICorTp=0
  HFx wShort=  0.000000 wLong=  0.550000 cFull=  0.000000 cShort=  0.000000 cLong=  1.000000
  DFx wShort=  0.000000 wLong=  0.550000 cFull=  0.000000 cShort=  0.000000 cLong=  1.000000
 NAtoms=    5 NActive=    5 NUniq=    3 SFac= 2.78D+00 NAtFMM=   60 NAOKFM=F Big=F
 Leave Link  301 at Fri May  8 16:13:55 2020, MaxMem= 1073741824 cpu:       0.2
 (Enter /home/matheus/.gaussian/g09/l302.exe)
 NPDir=0 NMtPBC=     1 NCelOv=     1 NCel=       1 NClECP=     1 NCelD=      1
         NCelK=      1 NCelE2=     1 NClLst=     1 CellRange=     0.0.
 One-electron integrals computed using PRISM.
 One-electron integral symmetry used in STVInt
 NBasis=   197 RedAO= T  NBF=    71    29    37    60
 NBsUse=   197 1.00D-06 NBFU=    71    29    37    60
 Precomputing XC quadrature grid using
 IXCGrd= 2 IRadAn=           5 IRanWt=          -1 IRanGd=           0 AccXCQ= 0.00D+00.
 NRdTot=     427 NPtTot=      123512 NUsed=      126579 NTot=      126611
 NSgBfM=   229   229   229   229   229 NAtAll=     5     5.
 Leave Link  302 at Fri May  8 16:13:56 2020, MaxMem= 1073741824 cpu:       1.0
 (Enter /home/matheus/.gaussian/g09/l303.exe)
 DipDrv:  MaxL=1.
 Leave Link  303 at Fri May  8 16:13:56 2020, MaxMem= 1073741824 cpu:       0.2
 (Enter /home/matheus/.gaussian/g09/l401.exe)
 Harris functional with IExCor=32609 diagonalized for initial guess.
 ExpMin= 2.53D-02 ExpMax= 1.17D+07 ExpMxC= 1.33D+04 IAcc=3 IRadAn=         5 AccDes= 0.00D+00
 HarFok:  IExCor=32609 AccDes= 0.00D+00 IRadAn=         5 IDoV= 1
 ScaDFX=  1.000000  1.000000  1.000000  1.000000
 FoFCou: FMM=F IPFlag=           0 FMFlag=      100000 FMFlg1=           0
         NFxFlg=           0 DoJE=T BraDBF=F KetDBF=T FulRan=T
         Omega=  0.000000  0.000000  1.000000  0.000000  0.000000 ICntrl=     500 IOpCl=  0
         NMat0=    1 NMatS0=    1 NMatT0=    0 NMatD0=    1 NMtDS0=    0 NMtDT0=    0
         I1Cent=           4 NGrid=           0.
 Petite list used in FoFCou.
 Harris En= -2904.72916960224    
 Initial guess orbital symmetries:
       Occupied  (A1) (A1) (A1) (B2) (B1) (B2) (A1) (A1) (A1) (B2)
                 (B1) (A1) (B2) (B1) (A1) (A2) (A1) (B2) (A1) (A1)
                 (A1) (B1) (B2) (B1) (A1) (B2) (A2)
       Virtual   (B2) (A1) (B2) (A1) (B1) (B2) (A1) (A1) (B1) (B2)
                 (A1) (A2) (A1) (B1) (B2) (A1) (A2) (B2) (A1) (A1)
                 (B1) (B2) (B2) (A1) (A2) (B2) (B2) (A1) (B1) (A1)
                 (A1) (B1) (B2) (A1) (B2) (B1) (A2) (B1) (A1) (A1)
                 (B2) (A2) (A1) (A1) (A2) (B2) (A1) (B2) (B1) (B1)
                 (A2) (A1) (B2) (B1) (B2) (A1) (B1) (B2) (A1) (A2)
                 (B2) (A2) (A1) (B2) (A1) (A1) (B2) (B1) (A2) (B1)
                 (A1) (B2) (A2) (A1) (B2) (A1) (B2) (B1) (A1) (B2)
                 (A1) (B1) (A1) (A2) (B1) (A1) (B2) (B1) (B2) (A2)
                 (B2) (A1) (A2) (A1) (A1) (B1) (B2) (A1) (B1) (B2)
                 (B1) (B2) (A1) (A2) (B1) (B2) (A1) (B1) (A2) (B2)
                 (A1) (A2) (B2) (A1) (A1) (B2) (B2) (A2) (B2) (A1)
                 (B1) (B2) (B1) (A2) (A1) (B1) (A2) (A1) (B2) (A2)
                 (A1) (A1) (B2) (B2) (A1) (A1) (B1) (A1) (B2) (A2)
                 (B2) (B2) (A1) (B1) (B2) (A1) (B1) (A1) (A2) (B2)
                 (B1) (A1) (A2) (A1) (B1) (B1) (B2) (A2) (A2) (B2)
                 (A1) (A2) (A1) (B2) (B2) (A1) (B2) (B2) (A1) (B2)
 The electronic state of the initial guess is 1-A1.
 Leave Link  401 at Fri May  8 16:13:56 2020, MaxMem= 1073741824 cpu:       2.2
 (Enter /home/matheus/.gaussian/g09/l502.exe)
 Closed shell SCF:
 Requested convergence on RMS density matrix=1.00D-08 within 128 cycles.
 Requested convergence on MAX density matrix=1.00D-06.
 Requested convergence on             energy=1.00D-06.
 No special actions if energy rises.
 Using DIIS extrapolation, IDIIS=  1040.
 Integral symmetry usage will be decided dynamically.
       126521 words used for storage of precomputed grid.
 IEnd=      305860 IEndB=      305860 NGot=  1073741824 MDV=  1073505275
 LenX=  1073505275 LenY=  1073452393
 Fock matrices will be formed incrementally for  20 cycles.

 Cycle   1  Pass 1  IDiag  1:
 FoFJK:  IHMeth= 1 ICntrl=     0 DoSepK=T KAlg= 1 I1Cent= 0 FoldK=F
 FoFCou: FMM=F IPFlag=           0 FMFlag=      100000 FMFlg1=           0
         NFxFlg=           0 DoJE=T BraDBF=F KetDBF=F FulRan=T
         Omega=  0.000000  0.000000  1.000000  0.000000  0.000000 ICntrl=     500 IOpCl=  0
         NMat0=    1 NMatS0=    1 NMatT0=    0 NMatD0=    1 NMtDS0=    0 NMtDT0=    0
         I1Cent=           0 NGrid=           0.
 Petite list used in FoFCou.
 E= -2904.91715136746    
 DIIS: error= 3.13D-02 at cycle   1 NSaved=   1.
 NSaved= 1 IEnMin= 1 EnMin= -2904.91715136746     IErMin= 1 ErrMin= 3.13D-02
 ErrMax= 3.13D-02 EMaxC= 1.00D-01 BMatC= 2.78D-01 BMatP= 2.78D-01
 IDIUse=3 WtCom= 6.87D-01 WtEn= 3.13D-01
 Coeff-Com:  0.100D+01
 Coeff-En:   0.100D+01
 Coeff:      0.100D+01
 Gap=     0.410 Goal=   None    Shift=    0.000
 GapD=    0.410 DampG=2.000 DampE=0.500 DampFc=1.0000 IDamp=-1.
 RMSDP=2.40D-03 MaxDP=1.49D-01              OVMax= 7.81D-02

 Cycle   2  Pass 1  IDiag  1:
 RMSU=  1.67D-03    CP:  1.02D+00
 FoFJK:  IHMeth= 1 ICntrl=     0 DoSepK=T KAlg= 1 I1Cent= 0 FoldK=F
 E= -2904.96989805758     Delta-E=       -0.052746690120 Rises=F Damp=F
 DIIS: error= 1.49D-02 at cycle   2 NSaved=   2.
 NSaved= 2 IEnMin= 2 EnMin= -2904.96989805758     IErMin= 2 ErrMin= 1.49D-02
 ErrMax= 1.49D-02 EMaxC= 1.00D-01 BMatC= 7.50D-02 BMatP= 2.78D-01
 IDIUse=3 WtCom= 8.51D-01 WtEn= 1.49D-01
 Coeff-Com:  0.334D+00 0.666D+00
 Coeff-En:   0.121D+00 0.879D+00
 Coeff:      0.303D+00 0.697D+00
 Gap=     0.466 Goal=   None    Shift=    0.000
 RMSDP=1.00D-03 MaxDP=5.29D-02 DE=-5.27D-02 OVMax= 3.16D-02

 Cycle   3  Pass 1  IDiag  1:
 RMSU=  3.34D-04    CP:  1.01D+00  6.36D-01
 FoFJK:  IHMeth= 1 ICntrl=     0 DoSepK=T KAlg= 1 I1Cent= 0 FoldK=F
 E= -2904.99628416751     Delta-E=       -0.026386109923 Rises=F Damp=F
 DIIS: error= 3.40D-03 at cycle   3 NSaved=   3.
 NSaved= 3 IEnMin= 3 EnMin= -2904.99628416751     IErMin= 3 ErrMin= 3.40D-03
 ErrMax= 3.40D-03 EMaxC= 1.00D-01 BMatC= 1.76D-03 BMatP= 7.50D-02
 IDIUse=3 WtCom= 9.66D-01 WtEn= 3.40D-02
 Coeff-Com:  0.454D-01 0.181D+00 0.774D+00
 Coeff-En:   0.000D+00 0.000D+00 0.100D+01
 Coeff:      0.438D-01 0.175D+00 0.781D+00
 Gap=     0.446 Goal=   None    Shift=    0.000
 RMSDP=1.18D-04 MaxDP=3.24D-03 DE=-2.64D-02 OVMax= 7.03D-03

 Cycle   4  Pass 1  IDiag  1:
 RMSU=  5.42D-05    CP:  1.01D+00  6.69D-01  9.02D-01
 FoFJK:  IHMeth= 1 ICntrl=     0 DoSepK=T KAlg= 1 I1Cent= 0 FoldK=F
 E= -2904.99717844775     Delta-E=       -0.000894280248 Rises=F Damp=F
 DIIS: error= 9.12D-04 at cycle   4 NSaved=   4.
 NSaved= 4 IEnMin= 4 EnMin= -2904.99717844775     IErMin= 4 ErrMin= 9.12D-04
 ErrMax= 9.12D-04 EMaxC= 1.00D-01 BMatC= 1.01D-04 BMatP= 1.76D-03
 IDIUse=3 WtCom= 9.91D-01 WtEn= 9.12D-03
 Coeff-Com: -0.690D-02 0.176D-01 0.260D+00 0.729D+00
 Coeff-En:   0.000D+00 0.000D+00 0.000D+00 0.100D+01
 Coeff:     -0.684D-02 0.174D-01 0.258D+00 0.732D+00
 Gap=     0.451 Goal=   None    Shift=    0.000
 RMSDP=3.75D-05 MaxDP=1.55D-03 DE=-8.94D-04 OVMax= 1.84D-03

 Cycle   5  Pass 1  IDiag  1:
 RMSU=  1.30D-05    CP:  1.01D+00  6.71D-01  9.64D-01  8.26D-01
 FoFJK:  IHMeth= 1 ICntrl=     0 DoSepK=T KAlg= 1 I1Cent= 0 FoldK=F
 E= -2904.99724096149     Delta-E=       -0.000062513735 Rises=F Damp=F
 DIIS: error= 9.22D-05 at cycle   5 NSaved=   5.
 NSaved= 5 IEnMin= 5 EnMin= -2904.99724096149     IErMin= 5 ErrMin= 9.22D-05
 ErrMax= 9.22D-05 EMaxC= 1.00D-01 BMatC= 1.64D-06 BMatP= 1.01D-04
 IDIUse=1 WtCom= 1.00D+00 WtEn= 0.00D+00
 Coeff-Com: -0.171D-02-0.646D-02-0.254D-01 0.393D-01 0.994D+00
 Coeff:     -0.171D-02-0.646D-02-0.254D-01 0.393D-01 0.994D+00
 Gap=     0.451 Goal=   None    Shift=    0.000
 RMSDP=6.72D-06 MaxDP=2.48D-04 DE=-6.25D-05 OVMax= 5.34D-04

 Cycle   6  Pass 1  IDiag  1:
 RMSU=  2.67D-06    CP:  1.01D+00  6.71D-01  9.68D-01  8.79D-01  1.17D+00
 FoFJK:  IHMeth= 1 ICntrl=     0 DoSepK=T KAlg= 1 I1Cent= 0 FoldK=F
 E= -2904.99724304802     Delta-E=       -0.000002086535 Rises=F Damp=F
 DIIS: error= 2.04D-05 at cycle   6 NSaved=   6.
 NSaved= 6 IEnMin= 6 EnMin= -2904.99724304802     IErMin= 6 ErrMin= 2.04D-05
 ErrMax= 2.04D-05 EMaxC= 1.00D-01 BMatC= 7.71D-08 BMatP= 1.64D-06
 IDIUse=1 WtCom= 1.00D+00 WtEn= 0.00D+00
 Coeff-Com:  0.154D-03-0.190D-02-0.179D-01-0.356D-01 0.693D-01 0.986D+00
 Coeff:      0.154D-03-0.190D-02-0.179D-01-0.356D-01 0.693D-01 0.986D+00
 Gap=     0.451 Goal=   None    Shift=    0.000
 RMSDP=2.60D-06 MaxDP=8.06D-05 DE=-2.09D-06 OVMax= 1.92D-04

 Cycle   7  Pass 1  IDiag  1:
 RMSU=  7.91D-07    CP:  1.01D+00  6.71D-01  9.70D-01  8.89D-01  1.26D+00
                    CP:  1.18D+00
 FoFJK:  IHMeth= 1 ICntrl=     0 DoSepK=T KAlg= 1 I1Cent= 0 FoldK=F
 E= -2904.99724321872     Delta-E=       -0.000000170698 Rises=F Damp=F
 DIIS: error= 7.83D-06 at cycle   7 NSaved=   7.
 NSaved= 7 IEnMin= 7 EnMin= -2904.99724321872     IErMin= 7 ErrMin= 7.83D-06
 ErrMax= 7.83D-06 EMaxC= 1.00D-01 BMatC= 4.96D-09 BMatP= 7.71D-08
 IDIUse=1 WtCom= 1.00D+00 WtEn= 0.00D+00
 Coeff-Com:  0.223D-04 0.699D-03 0.544D-02 0.739D-02-0.565D-01-0.244D+00
 Coeff-Com:  0.129D+01
 Coeff:      0.223D-04 0.699D-03 0.544D-02 0.739D-02-0.565D-01-0.244D+00
 Coeff:      0.129D+01
 Gap=     0.451 Goal=   None    Shift=    0.000
 RMSDP=9.17D-07 MaxDP=2.44D-05 DE=-1.71D-07 OVMax= 9.60D-05

 Cycle   8  Pass 1  IDiag  1:
 RMSU=  2.03D-07    CP:  1.01D+00  6.71D-01  9.71D-01  8.91D-01  1.28D+00
                    CP:  1.24D+00  1.55D+00
 FoFJK:  IHMeth= 1 ICntrl=     0 DoSepK=T KAlg= 1 I1Cent= 0 FoldK=F
 E= -2904.99724323730     Delta-E=       -0.000000018580 Rises=F Damp=F
 DIIS: error= 2.15D-06 at cycle   8 NSaved=   8.
 NSaved= 8 IEnMin= 8 EnMin= -2904.99724323730     IErMin= 8 ErrMin= 2.15D-06
 ErrMax= 2.15D-06 EMaxC= 1.00D-01 BMatC= 4.03D-10 BMatP= 4.96D-09
 IDIUse=1 WtCom= 1.00D+00 WtEn= 0.00D+00
 Coeff-Com: -0.104D-04 0.977D-04 0.899D-03 0.182D-02-0.139D-02-0.513D-01
 Coeff-Com: -0.584D-01 0.111D+01
 Coeff:     -0.104D-04 0.977D-04 0.899D-03 0.182D-02-0.139D-02-0.513D-01
 Coeff:     -0.584D-01 0.111D+01
 Gap=     0.451 Goal=   None    Shift=    0.000
 RMSDP=2.58D-07 MaxDP=9.52D-06 DE=-1.86D-08 OVMax= 2.84D-05

 Cycle   9  Pass 1  IDiag  1:
 RMSU=  6.34D-08    CP:  1.01D+00  6.71D-01  9.71D-01  8.91D-01  1.29D+00
                    CP:  1.23D+00  1.70D+00  1.33D+00
 FoFJK:  IHMeth= 1 ICntrl=     0 DoSepK=T KAlg= 1 I1Cent= 0 FoldK=F
 E= -2904.99724323871     Delta-E=       -0.000000001405 Rises=F Damp=F
 DIIS: error= 8.17D-07 at cycle   9 NSaved=   9.
 NSaved= 9 IEnMin= 9 EnMin= -2904.99724323871     IErMin= 9 ErrMin= 8.17D-07
 ErrMax= 8.17D-07 EMaxC= 1.00D-01 BMatC= 4.48D-11 BMatP= 4.03D-10
 IDIUse=1 WtCom= 1.00D+00 WtEn= 0.00D+00
 Coeff-Com: -0.245D-05-0.766D-04-0.593D-03-0.948D-03 0.613D-02 0.303D-01
 Coeff-Com: -0.155D+00 0.252D-01 0.109D+01
 Coeff:     -0.245D-05-0.766D-04-0.593D-03-0.948D-03 0.613D-02 0.303D-01
 Coeff:     -0.155D+00 0.252D-01 0.109D+01
 Gap=     0.451 Goal=   None    Shift=    0.000
 RMSDP=8.97D-08 MaxDP=3.48D-06 DE=-1.41D-09 OVMax= 1.00D-05

 Cycle  10  Pass 1  IDiag  1:
 RMSU=  1.63D-08    CP:  1.01D+00  6.71D-01  9.71D-01  8.91D-01  1.29D+00
                    CP:  1.23D+00  1.74D+00  1.50D+00  1.26D+00
 FoFJK:  IHMeth= 1 ICntrl=     0 DoSepK=T KAlg= 1 I1Cent= 0 FoldK=F
 E= -2904.99724323883     Delta-E=       -0.000000000121 Rises=F Damp=F
 DIIS: error= 1.62D-07 at cycle  10 NSaved=  10.
 NSaved=10 IEnMin=10 EnMin= -2904.99724323883     IErMin=10 ErrMin= 1.62D-07
 ErrMax= 1.62D-07 EMaxC= 1.00D-01 BMatC= 2.73D-12 BMatP= 4.48D-11
 IDIUse=1 WtCom= 1.00D+00 WtEn= 0.00D+00
 Coeff-Com:  0.998D-06 0.229D-05 0.187D-04-0.535D-04-0.768D-03 0.150D-02
 Coeff-Com:  0.187D-01-0.788D-01-0.154D+00 0.121D+01
 Coeff:      0.998D-06 0.229D-05 0.187D-04-0.535D-04-0.768D-03 0.150D-02
 Coeff:      0.187D-01-0.788D-01-0.154D+00 0.121D+01
 Gap=     0.451 Goal=   None    Shift=    0.000
 RMSDP=1.92D-08 MaxDP=4.50D-07 DE=-1.21D-10 OVMax= 2.17D-06

 Cycle  11  Pass 1  IDiag  1:
 RMSU=  3.60D-09    CP:  1.01D+00  6.71D-01  9.71D-01  8.91D-01  1.29D+00
                    CP:  1.23D+00  1.75D+00  1.53D+00  1.36D+00  1.35D+00
 FoFJK:  IHMeth= 1 ICntrl=     0 DoSepK=T KAlg= 1 I1Cent= 0 FoldK=F
 E= -2904.99724323884     Delta-E=       -0.000000000011 Rises=F Damp=F
 DIIS: error= 1.82D-08 at cycle  11 NSaved=  11.
 NSaved=11 IEnMin=11 EnMin= -2904.99724323884     IErMin=11 ErrMin= 1.82D-08
 ErrMax= 1.82D-08 EMaxC= 1.00D-01 BMatC= 7.38D-14 BMatP= 2.73D-12
 IDIUse=1 WtCom= 1.00D+00 WtEn= 0.00D+00
 Coeff-Com:  0.111D-06 0.390D-05 0.294D-04 0.469D-04-0.387D-03-0.120D-02
 Coeff-Com:  0.763D-02-0.181D-04-0.483D-01 0.270D-01 0.102D+01
 Coeff:      0.111D-06 0.390D-05 0.294D-04 0.469D-04-0.387D-03-0.120D-02
 Coeff:      0.763D-02-0.181D-04-0.483D-01 0.270D-01 0.102D+01
 Gap=     0.451 Goal=   None    Shift=    0.000
 RMSDP=2.48D-09 MaxDP=1.13D-07 DE=-1.09D-11 OVMax= 1.79D-07

 SCF Done:  E(RLC-wPBE) =  -2904.99724324     A.U. after   11 cycles
             Convg  =    0.2478D-08             -V/T =  2.0017
 KE= 2.900060400863D+03 PE=-7.239649487258D+03 EE= 1.282738571327D+03
 Leave Link  502 at Fri May  8 16:14:21 2020, MaxMem= 1073741824 cpu:     201.6
 (Enter /home/matheus/.gaussian/g09/l601.exe)
 Copying SCF densities to generalized density rwf, IOpCl= 0 IROHF=0.

 **********************************************************************

            Population analysis using the SCF density.

 **********************************************************************

 Orbital symmetries:
       Occupied  (A1) (A1) (A1) (B2) (B1) (A1) (B2) (A1) (A1) (B2)
                 (B1) (A1) (B2) (B1) (A2) (A1) (A1) (A1) (B2) (A1)
                 (A1) (B2) (B1) (B1) (A1) (B2) (A2)
       Virtual   (A1) (B2) (A1) (B1) (B2) (B2) (A1) (A1) (B1) (B2)
                 (A1) (A2) (B2) (A1) (B1) (A1) (A2) (B2) (A1) (A1)
                 (B2) (B1) (A1) (A2) (B2) (B2) (B2) (A1) (B1) (A1)
                 (A1) (B2) (B1) (A1) (B2) (B1) (A2) (A1) (B1) (B2)
                 (A1) (A2) (A1) (A2) (A1) (B2) (B2) (B1) (A1) (B1)
                 (A2) (A1) (B2) (B2) (B1) (A1) (A1) (B2) (B1) (A2)
                 (B2) (A2) (A1) (B2) (A1) (B2) (A1) (B1) (A2) (B1)
                 (B2) (A1) (A2) (A1) (B2) (B2) (A1) (B1) (A1) (B2)
                 (A1) (B1) (A1) (B1) (A2) (A1) (B2) (B2) (B1) (A2)
                 (A1) (A1) (A2) (B2) (A1) (B1) (A1) (B2) (B1) (B2)
                 (B1) (B2) (A1) (A2) (B1) (B2) (A1) (B1) (A2) (B2)
                 (A1) (A2) (B2) (A1) (A1) (B2) (B2) (A2) (B2) (A1)
                 (B2) (B1) (B1) (A1) (B1) (A2) (A2) (A1) (B2) (A2)
                 (A1) (A1) (B2) (B2) (A1) (A1) (B1) (A1) (B2) (A2)
                 (B2) (B2) (A1) (B1) (B2) (A1) (B1) (A1) (A2) (B2)
                 (B1) (A1) (A2) (A1) (B1) (B1) (B2) (A2) (A2) (B2)
                 (A1) (A2) (A1) (B2) (B2) (A1) (B2) (B2) (A1) (B2)
 The electronic state is 1-A1.
 Alpha  occ. eigenvalues -- -511.22841 -66.77664 -60.43782 -60.43772 -60.43760
 Alpha  occ. eigenvalues --  -19.10758 -19.10752  -9.71225  -7.45510  -7.45476
 Alpha  occ. eigenvalues --   -7.45441  -3.39915  -3.39912  -3.39883  -3.39858
 Alpha  occ. eigenvalues --   -3.39855  -1.32120  -1.13357  -1.09071  -0.74849
 Alpha  occ. eigenvalues --   -0.59744  -0.58149  -0.57934  -0.56317  -0.55599
 Alpha  occ. eigenvalues --   -0.53151  -0.41687
 Alpha virt. eigenvalues --    0.03380   0.04389   0.08284   0.09031   0.10711
 Alpha virt. eigenvalues --    0.12393   0.12942   0.17283   0.17606   0.17940
 Alpha virt. eigenvalues --    0.18840   0.19201   0.21476   0.22410   0.23494
 Alpha virt. eigenvalues --    0.24368   0.25114   0.26539   0.31069   0.34492
 Alpha virt. eigenvalues --    0.35460   0.38471   0.39483   0.39651   0.40442
 Alpha virt. eigenvalues --    0.44525   0.46790   0.50221   0.53070   0.54765
 Alpha virt. eigenvalues --    0.60733   0.63418   0.64225   0.64952   0.65491
 Alpha virt. eigenvalues --    0.70825   0.70977   0.72781   0.74193   0.76596
 Alpha virt. eigenvalues --    0.76937   0.79484   0.81698   0.85705   0.87128
 Alpha virt. eigenvalues --    0.88274   0.88520   0.90829   0.91270   0.93034
 Alpha virt. eigenvalues --    0.96141   0.98894   0.99298   1.01668   1.03413
 Alpha virt. eigenvalues --    1.04993   1.08447   1.10300   1.11172   1.12319
 Alpha virt. eigenvalues --    1.14292   1.21885   1.24602   1.30471   1.31391
 Alpha virt. eigenvalues --    1.33497   1.34652   1.40423   1.43561   1.49339
 Alpha virt. eigenvalues --    1.50555   1.51903   1.57930   1.58904   1.61865
 Alpha virt. eigenvalues --    1.67677   1.69909   1.81281   1.97920   1.98328
 Alpha virt. eigenvalues --    2.00885   2.01883   2.12345   2.15565   2.16920
 Alpha virt. eigenvalues --    2.23295   2.24794   2.26098   2.26666   2.31357
 Alpha virt. eigenvalues --    2.35161   2.36485   2.36729   2.37364   2.41474
 Alpha virt. eigenvalues --    2.42577   2.44367   2.46681   2.51643   2.52013
 Alpha virt. eigenvalues --    2.52628   2.54361   2.61754   2.62675   2.67658
 Alpha virt. eigenvalues --    2.70218   2.72058   2.73382   2.75491   2.76231
 Alpha virt. eigenvalues --    2.76860   2.80173   2.84157   2.92610   2.94170
 Alpha virt. eigenvalues --    2.99434   3.15113   3.16504   3.24056   3.58527
 Alpha virt. eigenvalues --    3.82487   3.86306   3.99791   4.09475   4.13528
 Alpha virt. eigenvalues --    4.13608   4.16769   4.24125   4.25170   4.31790
 Alpha virt. eigenvalues --    4.38703   4.51268   4.62682   4.76120   4.78610
 Alpha virt. eigenvalues --    5.00834   5.04842   5.06112   5.12527   5.19944
 Alpha virt. eigenvalues --    5.23259   5.59433   5.85540   6.02944   6.12047
 Alpha virt. eigenvalues --    6.18158   6.36287   6.44112   6.53574   6.63300
 Alpha virt. eigenvalues --    6.74344   6.76140   6.80133   6.82184   6.85564
 Alpha virt. eigenvalues --    6.91378   6.91704   6.93844   6.97598   7.16969
 Alpha virt. eigenvalues --    7.20438   7.27096   7.30254   7.33745   7.67333
 Alpha virt. eigenvalues --    8.00077   8.10943   8.25570  13.80650  14.74194
          Condensed to atoms (all electrons):
              1          2          3          4          5
     1  O    8.262018  -0.251134   0.177651   0.041514  -0.014707
     2  O   -0.251134   8.262018   0.041514   0.177651  -0.014707
     3  H    0.177651   0.041514   0.611589  -0.025391  -0.018239
     4  H    0.041514   0.177651  -0.025391   0.611589  -0.018239
     5  Kr  -0.014707  -0.014707  -0.018239  -0.018239  36.060958
 Mulliken atomic charges:
              1
     1  O   -0.215343
     2  O   -0.215343
     3  H    0.212876
     4  H    0.212876
     5  Kr   0.004934
 Sum of Mulliken atomic charges =   0.00000
 Mulliken charges with hydrogens summed into heavy atoms:
              1
     1  O   -0.002467
     2  O   -0.002467
     5  Kr   0.004934
 Sum of Mulliken charges with hydrogens summed into heavy atoms =   0.00000
          Condensed to fragments (all electrons):
     1      -0.004934
     2       0.004934
 Electronic spatial extent (au):  <R**2>=            475.0604
 Charge=              0.0000 electrons
 Dipole moment (field-independent basis, Debye):
    X=              0.0000    Y=              0.0000    Z=              3.8296  Tot=              3.8296
 Quadrupole moment (field-independent basis, Debye-Ang):
   XX=            -30.3611   YY=            -28.0134   ZZ=            -38.8880
   XY=              0.0000   XZ=              0.0000   YZ=              0.0000
 Traceless Quadrupole moment (field-independent basis, Debye-Ang):
   XX=              2.0597   YY=              4.4074   ZZ=             -6.4672
   XY=              0.0000   XZ=              0.0000   YZ=              0.0000
 Octapole moment (field-independent basis, Debye-Ang**2):
  XXX=              0.0000  YYY=              0.0000  ZZZ=             45.7293  XYY=              0.0000
  XXY=              0.0000  XXZ=              9.0216  XZZ=              0.0000  YZZ=              0.0000
  YYZ=              8.3161  XYZ=              0.0000
 Hexadecapole moment (field-independent basis, Debye-Ang**3):
 XXXX=            -28.4184 YYYY=            -62.6563 ZZZZ=           -454.3335 XXXY=              0.0000
 XXXZ=              0.0000 YYYX=              0.0000 YYYZ=              0.0000 ZZZX=              0.0000
 ZZZY=              0.0000 XXYY=            -17.1422 XXZZ=            -76.0631 YYZZ=            -86.3785
 XXYZ=              0.0000 YYXZ=              0.0000 ZZXY=              0.0000
 N-N= 1.518532718296D+02 E-N=-7.239649487579D+03  KE= 2.900060400863D+03
 Symmetry A1   KE= 2.057216340417D+03
 Symmetry A2   KE= 5.289996505081D+01
 Symmetry B1   KE= 3.627745536623D+02
 Symmetry B2   KE= 4.271695417326D+02
 No NMR shielding tensors so no spin-rotation constants.
 Leave Link  601 at Fri May  8 16:14:21 2020, MaxMem= 1073741824 cpu:       1.1
 (Enter /home/matheus/.gaussian/g09/l122.exe)
 Counterpoise: doing DCBS calculation for fragment   1 NewBq=T
 Leave Link  122 at Fri May  8 16:14:21 2020, MaxMem= 1073741824 cpu:       0.0
 (Enter /home/matheus/.gaussian/g09/l301.exe)
 Basis read from rwf:  (5D, 7F)
 No pseudopotential information found on rwf file.
 There are    71 symmetry adapted basis functions of A1  symmetry.
 There are    29 symmetry adapted basis functions of A2  symmetry.
 There are    37 symmetry adapted basis functions of B1  symmetry.
 There are    60 symmetry adapted basis functions of B2  symmetry.
 Integral buffers will be    131072 words long.
 Raffenetti 2 integral format.
 Two-electron integral symmetry is turned on.
   197 basis functions,   415 primitive gaussians,   229 cartesian basis functions
     9 alpha electrons        9 beta electrons
       nuclear repulsion energy        36.6667523957 Hartrees.
 IExCor=32609 DFT=T Ex+Corr=LC-wPBE ExCW=0 ScaHFX=  1.000000
 ScaDFX=  1.000000  0.000000  1.000000  1.000000 ScalE2=  1.000000  1.000000
 IRadAn=      5 IRanWt=     -1 IRanGd=            0 ICorTp=0
  HFx wShort=  0.000000 wLong=  0.550000 cFull=  0.000000 cShort=  0.000000 cLong=  1.000000
  DFx wShort=  0.000000 wLong=  0.550000 cFull=  0.000000 cShort=  0.000000 cLong=  1.000000
 NAtoms=    5 NActive=    5 NUniq=    3 SFac= 2.78D+00 NAtFMM=   60 NAOKFM=F Big=F
 No density basis found on file   718.
 Leave Link  301 at Fri May  8 16:14:21 2020, MaxMem= 1073741824 cpu:       0.2
 (Enter /home/matheus/.gaussian/g09/l302.exe)
 NPDir=0 NMtPBC=     1 NCelOv=     1 NCel=       1 NClECP=     1 NCelD=      1
         NCelK=      1 NCelE2=     1 NClLst=     1 CellRange=     0.0.
 One-electron integrals computed using PRISM.
 One-electron integral symmetry used in STVInt
 NBasis=   197 RedAO= T  NBF=    71    29    37    60
 NBsUse=   197 1.00D-06 NBFU=    71    29    37    60
 Precomputing XC quadrature grid using
 IXCGrd= 2 IRadAn=           5 IRanWt=          -1 IRanGd=           0 AccXCQ= 0.00D+00.
 NRdTot=     427 NPtTot=      123512 NUsed=      126579 NTot=      126611
 NSgBfM=   229   229   229   229   229 NAtAll=     5     5.
 Leave Link  302 at Fri May  8 16:14:22 2020, MaxMem= 1073741824 cpu:       0.9
 (Enter /home/matheus/.gaussian/g09/l303.exe)
 DipDrv:  MaxL=1.
 Leave Link  303 at Fri May  8 16:14:22 2020, MaxMem= 1073741824 cpu:       0.2
 (Enter /home/matheus/.gaussian/g09/l401.exe)
 Harris functional with IExCor=32609 diagonalized for initial guess.
 ExpMin= 2.53D-02 ExpMax= 1.17D+07 ExpMxC= 1.33D+04 IAcc=3 IRadAn=         5 AccDes= 0.00D+00
 HarFok:  IExCor=32609 AccDes= 0.00D+00 IRadAn=         5 IDoV= 1
 ScaDFX=  1.000000  1.000000  1.000000  1.000000
 FoFCou: FMM=F IPFlag=           0 FMFlag=      100000 FMFlg1=           0
         NFxFlg=           0 DoJE=T BraDBF=F KetDBF=T FulRan=T
         Omega=  0.000000  0.000000  1.000000  0.000000  0.000000 ICntrl=     500 IOpCl=  0
         NMat0=    1 NMatS0=    1 NMatT0=    0 NMatD0=    1 NMtDS0=    0 NMtDT0=    0
         I1Cent=           4 NGrid=           0.
 Petite list used in FoFCou.
 Harris En= -151.498531346553    
 Initial guess orbital symmetries:
       Occupied  (B2) (A1) (A1) (B2) (A1) (A1) (B1) (B2) (A2)
       Virtual   (B2) (A1) (B2) (A1) (B1) (A1) (B2) (A1) (B2) (B1)
                 (A1) (A2) (B2) (A1) (A1) (B1) (B2) (A1) (A2) (B2)
                 (A1) (B2) (B1) (B2) (A1) (A1) (A2) (B1) (B2) (A1)
                 (A1) (A1) (B2) (B1) (B2) (B1) (A1) (A2) (A1) (A2)
                 (B1) (B2) (A1) (A1) (B2) (B1) (B2) (A2) (B2) (A1)
                 (B2) (B1) (A1) (A2) (A1) (B1) (B2) (A1) (A2) (B2)
                 (B2) (A1) (B1) (A2) (A1) (A1) (B1) (B2) (A1) (A1)
                 (B2) (A2) (B1) (B2) (B1) (A1) (A2) (A1) (B2) (B1)
                 (A1) (B2) (A1) (B1) (A1) (B2) (A2) (B2) (A1) (B1)
                 (A2) (A1) (B2) (A1) (B2) (A1) (B1) (B2) (B1) (A2)
                 (B2) (A2) (A1) (A1) (B2) (B2) (A2) (B2) (B1) (A1)
                 (B2) (A1) (B1) (B2) (A1) (A2) (A1) (B1) (A2) (B1)
                 (A1) (B2) (B1) (A1) (B1) (A2) (B2) (A1) (A2) (B1)
                 (A1) (B2) (A2) (B2) (A1) (A1) (B2) (A1) (B2) (A1)
                 (B1) (A1) (B2) (A2) (B2) (B2) (A1) (B1) (B2) (A1)
                 (B1) (A1) (A2) (B2) (B1) (A1) (A2) (A1) (B1) (B1)
                 (B2) (A2) (A2) (B2) (A1) (A2) (A1) (B2) (B2) (A1)
                 (B2) (B2) (A1) (A1) (B2) (B1) (B2) (A1) (A2) (A1)
                 (B1) (A1) (B2) (A1) (B1) (B2) (A1) (A1)
 The electronic state of the initial guess is 1-A1.
 Leave Link  401 at Fri May  8 16:14:22 2020, MaxMem= 1073741824 cpu:       2.1
 (Enter /home/matheus/.gaussian/g09/l502.exe)
 Closed shell SCF:
 Requested convergence on RMS density matrix=1.00D-08 within 128 cycles.
 Requested convergence on MAX density matrix=1.00D-06.
 Requested convergence on             energy=1.00D-06.
 No special actions if energy rises.
 Using DIIS extrapolation, IDIIS=  1040.
 Integral symmetry usage will be decided dynamically.
       126521 words used for storage of precomputed grid.
 IEnd=      305860 IEndB=      305860 NGot=  1073741824 MDV=  1073505275
 LenX=  1073505275 LenY=  1073452393
 Fock matrices will be formed incrementally for  20 cycles.

 Cycle   1  Pass 1  IDiag  1:
 FoFJK:  IHMeth= 1 ICntrl=     0 DoSepK=T KAlg= 1 I1Cent= 0 FoldK=F
 FoFCou: FMM=F IPFlag=           0 FMFlag=      100000 FMFlg1=           0
         NFxFlg=           0 DoJE=T BraDBF=F KetDBF=F FulRan=T
         Omega=  0.000000  0.000000  1.000000  0.000000  0.000000 ICntrl=     500 IOpCl=  0
         NMat0=    1 NMatS0=    1 NMatT0=    0 NMatD0=    1 NMtDS0=    0 NMtDT0=    0
         I1Cent=           0 NGrid=           0.
 Petite list used in FoFCou.
 E= -151.496472928755    
 DIIS: error= 2.04D-02 at cycle   1 NSaved=   1.
 NSaved= 1 IEnMin= 1 EnMin= -151.496472928755     IErMin= 1 ErrMin= 2.04D-02
 ErrMax= 2.04D-02 EMaxC= 1.00D-01 BMatC= 4.44D-02 BMatP= 4.44D-02
 IDIUse=3 WtCom= 7.96D-01 WtEn= 2.04D-01
 Coeff-Com:  0.100D+01
 Coeff-En:   0.100D+01
 Coeff:      0.100D+01
 Gap=     0.411 Goal=   None    Shift=    0.000
 GapD=    0.411 DampG=2.000 DampE=0.500 DampFc=1.0000 IDamp=-1.
 RMSDP=7.86D-04 MaxDP=2.27D-02              OVMax= 6.01D-02

 Cycle   2  Pass 1  IDiag  1:
 RMSU=  5.54D-04    CP:  9.95D-01
 FoFJK:  IHMeth= 1 ICntrl=     0 DoSepK=T KAlg= 1 I1Cent= 0 FoldK=F
 E= -151.514482766836     Delta-E=       -0.018009838081 Rises=F Damp=F
 DIIS: error= 1.22D-02 at cycle   2 NSaved=   2.
 NSaved= 2 IEnMin= 2 EnMin= -151.514482766836     IErMin= 2 ErrMin= 1.22D-02
 ErrMax= 1.22D-02 EMaxC= 1.00D-01 BMatC= 1.88D-02 BMatP= 4.44D-02
 IDIUse=3 WtCom= 8.78D-01 WtEn= 1.22D-01
 Coeff-Com:  0.382D+00 0.618D+00
 Coeff-En:   0.149D+00 0.851D+00
 Coeff:      0.354D+00 0.646D+00
 Gap=     0.450 Goal=   None    Shift=    0.000
 RMSDP=4.85D-04 MaxDP=2.24D-02 DE=-1.80D-02 OVMax= 2.69D-02

 Cycle   3  Pass 1  IDiag  1:
 RMSU=  2.37D-04    CP:  9.89D-01  5.58D-01
 FoFJK:  IHMeth= 1 ICntrl=     0 DoSepK=T KAlg= 1 I1Cent= 0 FoldK=F
 E= -151.525287325222     Delta-E=       -0.010804558387 Rises=F Damp=F
 DIIS: error= 2.20D-03 at cycle   3 NSaved=   3.
 NSaved= 3 IEnMin= 3 EnMin= -151.525287325222     IErMin= 3 ErrMin= 2.20D-03
 ErrMax= 2.20D-03 EMaxC= 1.00D-01 BMatC= 4.95D-04 BMatP= 1.88D-02
 IDIUse=3 WtCom= 9.78D-01 WtEn= 2.20D-02
 Coeff-Com:  0.421D-01 0.162D+00 0.796D+00
 Coeff-En:   0.000D+00 0.000D+00 0.100D+01
 Coeff:      0.412D-01 0.159D+00 0.800D+00
 Gap=     0.441 Goal=   None    Shift=    0.000
 RMSDP=5.68D-05 MaxDP=1.28D-03 DE=-1.08D-02 OVMax= 4.36D-03

 Cycle   4  Pass 1  IDiag  1:
 RMSU=  2.73D-05    CP:  9.88D-01  6.09D-01  9.99D-01
 FoFJK:  IHMeth= 1 ICntrl=     0 DoSepK=T KAlg= 1 I1Cent= 0 FoldK=F
 E= -151.525596595029     Delta-E=       -0.000309269806 Rises=F Damp=F
 DIIS: error= 3.39D-04 at cycle   4 NSaved=   4.
 NSaved= 4 IEnMin= 4 EnMin= -151.525596595029     IErMin= 4 ErrMin= 3.39D-04
 ErrMax= 3.39D-04 EMaxC= 1.00D-01 BMatC= 1.05D-05 BMatP= 4.95D-04
 IDIUse=3 WtCom= 9.97D-01 WtEn= 3.39D-03
 Coeff-Com: -0.100D-01-0.125D-01 0.848D-01 0.938D+00
 Coeff-En:   0.000D+00 0.000D+00 0.000D+00 0.100D+01
 Coeff:     -0.100D-01-0.125D-01 0.845D-01 0.938D+00
 Gap=     0.443 Goal=   None    Shift=    0.000
 RMSDP=1.18D-05 MaxDP=5.65D-04 DE=-3.09D-04 OVMax= 8.26D-04

 Cycle   5  Pass 1  IDiag  1:
 RMSU=  4.49D-06    CP:  9.88D-01  6.05D-01  1.03D+00  1.04D+00
 FoFJK:  IHMeth= 1 ICntrl=     0 DoSepK=T KAlg= 1 I1Cent= 0 FoldK=F
 E= -151.525605453837     Delta-E=       -0.000008858808 Rises=F Damp=F
 DIIS: error= 3.88D-05 at cycle   5 NSaved=   5.
 NSaved= 5 IEnMin= 5 EnMin= -151.525605453837     IErMin= 5 ErrMin= 3.88D-05
 ErrMax= 3.88D-05 EMaxC= 1.00D-01 BMatC= 2.09D-07 BMatP= 1.05D-05
 IDIUse=1 WtCom= 1.00D+00 WtEn= 0.00D+00
 Coeff-Com: -0.214D-03-0.158D-02-0.310D-01-0.117D+00 0.115D+01
 Coeff:     -0.214D-03-0.158D-02-0.310D-01-0.117D+00 0.115D+01
 Gap=     0.443 Goal=   None    Shift=    0.000
 RMSDP=3.13D-06 MaxDP=8.38D-05 DE=-8.86D-06 OVMax= 3.14D-04

 Cycle   6  Pass 1  IDiag  1:
 RMSU=  1.14D-06    CP:  9.88D-01  6.06D-01  1.03D+00  1.09D+00  1.30D+00
 FoFJK:  IHMeth= 1 ICntrl=     0 DoSepK=T KAlg= 1 I1Cent= 0 FoldK=F
 E= -151.525605948828     Delta-E=       -0.000000494991 Rises=F Damp=F
 DIIS: error= 9.46D-06 at cycle   6 NSaved=   6.
 NSaved= 6 IEnMin= 6 EnMin= -151.525605948828     IErMin= 6 ErrMin= 9.46D-06
 ErrMax= 9.46D-06 EMaxC= 1.00D-01 BMatC= 1.09D-08 BMatP= 2.09D-07
 IDIUse=1 WtCom= 1.00D+00 WtEn= 0.00D+00
 Coeff-Com:  0.203D-03 0.662D-03 0.580D-02 0.737D-02-0.273D+00 0.126D+01
 Coeff:      0.203D-03 0.662D-03 0.580D-02 0.737D-02-0.273D+00 0.126D+01
 Gap=     0.443 Goal=   None    Shift=    0.000
 RMSDP=1.07D-06 MaxDP=2.92D-05 DE=-4.95D-07 OVMax= 1.33D-04

 Cycle   7  Pass 1  IDiag  1:
 RMSU=  2.93D-07    CP:  9.88D-01  6.06D-01  1.03D+00  1.10D+00  1.33D+00
                    CP:  1.49D+00
 FoFJK:  IHMeth= 1 ICntrl=     0 DoSepK=T KAlg= 1 I1Cent= 0 FoldK=F
 E= -151.525605986702     Delta-E=       -0.000000037874 Rises=F Damp=F
 DIIS: error= 3.55D-06 at cycle   7 NSaved=   7.
 NSaved= 7 IEnMin= 7 EnMin= -151.525605986702     IErMin= 7 ErrMin= 3.55D-06
 ErrMax= 3.55D-06 EMaxC= 1.00D-01 BMatC= 8.16D-10 BMatP= 1.09D-08
 IDIUse=1 WtCom= 1.00D+00 WtEn= 0.00D+00
 Coeff-Com: -0.257D-04-0.475D-04 0.748D-03 0.522D-02-0.253D-01-0.198D+00
 Coeff-Com:  0.122D+01
 Coeff:     -0.257D-04-0.475D-04 0.748D-03 0.522D-02-0.253D-01-0.198D+00
 Coeff:      0.122D+01
 Gap=     0.443 Goal=   None    Shift=    0.000
 RMSDP=4.28D-07 MaxDP=1.49D-05 DE=-3.79D-08 OVMax= 5.21D-05

 Cycle   8  Pass 1  IDiag  1:
 RMSU=  6.66D-08    CP:  9.88D-01  6.06D-01  1.03D+00  1.10D+00  1.33D+00
                    CP:  1.65D+00  1.45D+00
 FoFJK:  IHMeth= 1 ICntrl=     0 DoSepK=T KAlg= 1 I1Cent= 0 FoldK=F
 E= -151.525605990345     Delta-E=       -0.000000003643 Rises=F Damp=F
 DIIS: error= 9.30D-07 at cycle   8 NSaved=   8.
 NSaved= 8 IEnMin= 8 EnMin= -151.525605990345     IErMin= 8 ErrMin= 9.30D-07
 ErrMax= 9.30D-07 EMaxC= 1.00D-01 BMatC= 9.21D-11 BMatP= 8.16D-10
 IDIUse=1 WtCom= 1.00D+00 WtEn= 0.00D+00
 Coeff-Com: -0.184D-04-0.684D-04-0.625D-03-0.141D-02 0.335D-01-0.129D+00
 Coeff-Com: -0.731D-01 0.117D+01
 Coeff:     -0.184D-04-0.684D-04-0.625D-03-0.141D-02 0.335D-01-0.129D+00
 Coeff:     -0.731D-01 0.117D+01
 Gap=     0.443 Goal=   None    Shift=    0.000
 RMSDP=1.43D-07 MaxDP=6.48D-06 DE=-3.64D-09 OVMax= 1.63D-05

 Cycle   9  Pass 1  IDiag  1:
 RMSU=  1.79D-08    CP:  9.88D-01  6.06D-01  1.03D+00  1.10D+00  1.33D+00
                    CP:  1.69D+00  1.62D+00  1.34D+00
 FoFJK:  IHMeth= 1 ICntrl=     0 DoSepK=T KAlg= 1 I1Cent= 0 FoldK=F
 E= -151.525605990630     Delta-E=       -0.000000000285 Rises=F Damp=F
 DIIS: error= 1.45D-07 at cycle   9 NSaved=   9.
 NSaved= 9 IEnMin= 9 EnMin= -151.525605990630     IErMin= 9 ErrMin= 1.45D-07
 ErrMax= 1.45D-07 EMaxC= 1.00D-01 BMatC= 2.39D-12 BMatP= 9.21D-11
 IDIUse=1 WtCom= 1.00D+00 WtEn= 0.00D+00
 Coeff-Com:  0.497D-05 0.201D-04 0.122D-03-0.829D-04-0.551D-02 0.348D-01
 Coeff-Com: -0.247D-01-0.288D+00 0.128D+01
 Coeff:      0.497D-05 0.201D-04 0.122D-03-0.829D-04-0.551D-02 0.348D-01
 Coeff:     -0.247D-01-0.288D+00 0.128D+01
 Gap=     0.443 Goal=   None    Shift=    0.000
 RMSDP=1.48D-08 MaxDP=2.93D-07 DE=-2.85D-10 OVMax= 2.24D-06

 Cycle  10  Pass 1  IDiag  1:
 RMSU=  5.13D-09    CP:  9.88D-01  6.06D-01  1.03D+00  1.10D+00  1.33D+00
                    CP:  1.69D+00  1.63D+00  1.41D+00  1.27D+00
 FoFJK:  IHMeth= 1 ICntrl=     0 DoSepK=T KAlg= 1 I1Cent= 0 FoldK=F
 E= -151.525605990638     Delta-E=       -0.000000000008 Rises=F Damp=F
 DIIS: error= 2.44D-08 at cycle  10 NSaved=  10.
 NSaved=10 IEnMin=10 EnMin= -151.525605990638     IErMin=10 ErrMin= 2.44D-08
 ErrMax= 2.44D-08 EMaxC= 1.00D-01 BMatC= 5.76D-14 BMatP= 2.39D-12
 IDIUse=1 WtCom= 1.00D+00 WtEn= 0.00D+00
 Coeff-Com: -0.624D-06-0.128D-05-0.585D-05 0.447D-04 0.236D-03-0.418D-02
 Coeff-Com:  0.106D-01 0.175D-01-0.255D+00 0.123D+01
 Coeff:     -0.624D-06-0.128D-05-0.585D-05 0.447D-04 0.236D-03-0.418D-02
 Coeff:      0.106D-01 0.175D-01-0.255D+00 0.123D+01
 Gap=     0.443 Goal=   None    Shift=    0.000
 RMSDP=2.86D-09 MaxDP=6.37D-08 DE=-8.01D-12 OVMax= 2.64D-07

 SCF Done:  E(RLC-wPBE) =  -151.525605991     A.U. after   10 cycles
             Convg  =    0.2859D-08             -V/T =  2.0068
 KE= 1.504957626835D+02 PE=-4.316206603537D+02 EE= 9.293253928383D+01
 Leave Link  502 at Fri May  8 16:14:45 2020, MaxMem= 1073741824 cpu:     180.6
 (Enter /home/matheus/.gaussian/g09/l601.exe)
 Copying SCF densities to generalized density rwf, IOpCl= 0 IROHF=0.

 **********************************************************************

            Population analysis using the SCF density.

 **********************************************************************

 Orbital symmetries:
       Occupied  (A1) (B2) (A1) (B2) (A1) (A1) (B1) (B2) (A2)
       Virtual   (A1) (B2) (A1) (B1) (A1) (B2) (B2) (A1) (B1) (A1)
                 (B2) (A2) (B2) (A1) (B1) (A1) (B2) (A1) (A2) (A1)
                 (B2) (B1) (B2) (A1) (A1) (B2) (A2) (B1) (B2) (A1)
                 (A1) (B2) (A1) (B1) (B2) (A1) (B1) (A1) (A2) (A2)
                 (B1) (B2) (A1) (B2) (A1) (B1) (A1) (B2) (A2) (B2)
                 (B2) (A1) (B1) (A1) (B1) (A2) (B2) (A1) (A2) (B2)
                 (B2) (A1) (B1) (A2) (B1) (A1) (A1) (B2) (A1) (B2)
                 (B1) (A1) (A2) (B2) (A1) (B1) (A2) (B2) (A1) (B1)
                 (A1) (B2) (A1) (B1) (B2) (A1) (A2) (A1) (B2) (B1)
                 (A1) (A2) (A1) (B2) (B2) (A1) (B1) (B2) (B1) (A2)
                 (B2) (A2) (A1) (A1) (B2) (B2) (A2) (B2) (B1) (A1)
                 (B2) (A1) (A1) (B2) (A2) (B1) (A1) (B1) (B2) (B1)
                 (A2) (A1) (A1) (B1) (B1) (B2) (A1) (B2) (A2) (B1)
                 (A2) (A1) (B2) (A1) (A2) (A1) (A1) (B2) (B2) (A1)
                 (B1) (A1) (B2) (A2) (B2) (B2) (A1) (B1) (B2) (A1)
                 (B1) (A1) (A2) (B2) (B1) (A1) (A2) (A1) (B1) (B1)
                 (B2) (A2) (A2) (B2) (A1) (A2) (A1) (B2) (B2) (A1)
                 (B2) (B2) (A1) (A1) (B2) (B1) (B2) (A1) (A2) (A1)
                 (B1) (A1) (B2) (A1) (B1) (B2) (A1) (A1)
 The electronic state is 1-A1.
 Alpha  occ. eigenvalues --  -19.11660 -19.11654  -1.32801  -1.09784  -0.74932
 Alpha  occ. eigenvalues --   -0.59249  -0.58212  -0.54805  -0.42434
 Alpha virt. eigenvalues --    0.01864   0.03873   0.07285   0.07587   0.09241
 Alpha virt. eigenvalues --    0.10200   0.11496   0.17100   0.17834   0.17911
 Alpha virt. eigenvalues --    0.18824   0.19573   0.20755   0.22057   0.26605
 Alpha virt. eigenvalues --    0.27333   0.28426   0.29091   0.31562   0.35179
 Alpha virt. eigenvalues --    0.35360   0.36233   0.37679   0.41417   0.44919
 Alpha virt. eigenvalues --    0.45125   0.45204   0.48133   0.49130   0.54335
 Alpha virt. eigenvalues --    0.55678   0.58819   0.59893   0.65927   0.66058
 Alpha virt. eigenvalues --    0.70099   0.72296   0.78204   0.78390   0.81559
 Alpha virt. eigenvalues --    0.83913   0.85201   0.87106   0.89648   0.90799
 Alpha virt. eigenvalues --    0.95754   0.98102   0.98278   1.00395   1.01293
 Alpha virt. eigenvalues --    1.03021   1.05661   1.07304   1.11024   1.11273
 Alpha virt. eigenvalues --    1.12987   1.19578   1.24466   1.24806   1.26473
 Alpha virt. eigenvalues --    1.30113   1.30439   1.31092   1.32887   1.33676
 Alpha virt. eigenvalues --    1.34603   1.37510   1.39509   1.44875   1.50906
 Alpha virt. eigenvalues --    1.51151   1.51402   1.53552   1.56243   1.63233
 Alpha virt. eigenvalues --    1.64606   1.65979   1.73271   1.73522   1.82015
 Alpha virt. eigenvalues --    1.83062   1.87962   1.99657   2.02731   2.03453
 Alpha virt. eigenvalues --    2.06041   2.16832   2.26363   2.26599   2.30963
 Alpha virt. eigenvalues --    2.31037   2.34432   2.37997   2.38556   2.47750
 Alpha virt. eigenvalues --    2.49550   2.56038   2.57621   2.65624   2.74418
 Alpha virt. eigenvalues --    2.75472   2.79205   2.86402   2.90515   2.96919
 Alpha virt. eigenvalues --    3.13011   3.15733   3.21445   3.23338   3.36607
 Alpha virt. eigenvalues --    3.36621   3.57346   3.65538   3.75724   3.77739
 Alpha virt. eigenvalues --    3.78724   3.78944   3.81682   3.83205   3.86824
 Alpha virt. eigenvalues --    3.89889   3.90841   3.95492   3.97242   3.99973
 Alpha virt. eigenvalues --    4.00176   4.08611   4.11111   4.14277   4.14368
 Alpha virt. eigenvalues --    4.17081   4.18227   4.29500   4.31456   4.31610
 Alpha virt. eigenvalues --    4.46689   4.64211   4.65343   4.75983   5.00097
 Alpha virt. eigenvalues --    5.04494   5.06494   5.12782   5.19639   5.23039
 Alpha virt. eigenvalues --    5.59454   5.84966   6.02329   6.11640   6.16920
 Alpha virt. eigenvalues --    6.35778   6.43511   6.52944   6.62656   6.73609
 Alpha virt. eigenvalues --    6.75746   6.79428   6.81231   6.84918   6.90742
 Alpha virt. eigenvalues --    6.91062   6.93135   6.96952   7.16485   7.19911
 Alpha virt. eigenvalues --    7.26385   7.29345   7.33067   7.66756   7.99255
 Alpha virt. eigenvalues --    8.10214   8.24932  11.09192  13.80412  14.73313
 Alpha virt. eigenvalues --   14.80439  14.96564  15.09675  29.01618  29.02349
 Alpha virt. eigenvalues --   29.05853  29.20235  29.24998  49.23879 148.28570
 Alpha virt. eigenvalues --  148.52579 148.72567 753.00521
          Condensed to atoms (all electrons):
              1          2          3          4          5
     1  O    8.223552  -0.241567   0.179844   0.036724   0.002057
     2  O   -0.241567   8.223552   0.036724   0.179844   0.002057
     3  H    0.179844   0.036724   0.602642  -0.018054  -0.002704
     4  H    0.036724   0.179844  -0.018054   0.602642  -0.002704
     5  Kr   0.002057   0.002057  -0.002704  -0.002704   0.003172
 Mulliken atomic charges:
              1
     1  O   -0.200610
     2  O   -0.200610
     3  H    0.201548
     4  H    0.201548
     5  Kr  -0.001878
 Sum of Mulliken atomic charges =   0.00000
 Mulliken charges with hydrogens summed into heavy atoms:
              1
     1  O    0.000939
     2  O    0.000939
     5  Kr  -0.001878
 Sum of Mulliken charges with hydrogens summed into heavy atoms =   0.00000
          Condensed to fragments (all electrons):
     1       0.001878
     2      -0.001878
 Electronic spatial extent (au):  <R**2>=            316.4578
 Charge=              0.0000 electrons
 Dipole moment (field-independent basis, Debye):
    X=              0.0000    Y=              0.0000    Z=              3.2225  Tot=              3.2225
 Quadrupole moment (field-independent basis, Debye-Ang):
   XX=            -13.0258   YY=            -10.5150   ZZ=            -21.7438
   XY=              0.0000   XZ=              0.0000   YZ=              0.0000
 Traceless Quadrupole moment (field-independent basis, Debye-Ang):
   XX=              2.0691   YY=              4.5799   ZZ=             -6.6489
   XY=              0.0000   XZ=              0.0000   YZ=              0.0000
 Octapole moment (field-independent basis, Debye-Ang**2):
  XXX=              0.0000  YYY=              0.0000  ZZZ=             93.3743  XYY=              0.0000
  XXY=              0.0000  XXZ=             25.5253  XZZ=              0.0000  YZZ=              0.0000
  YYZ=             24.7133  XYZ=              0.0000
 Hexadecapole moment (field-independent basis, Debye-Ang**3):
 XXXX=            -11.0491 YYYY=            -44.9272 ZZZZ=           -338.4519 XXXY=              0.0000
 XXXZ=              0.0000 YYYX=              0.0000 YYYZ=              0.0000 ZZZX=              0.0000
 ZZZY=              0.0000 XXYY=            -11.2861 XXZZ=            -54.0886 YYZZ=            -64.1084
 XXYZ=              0.0000 YYXZ=              0.0000 ZZXY=              0.0000
 N-N= 3.666675239568D+01 E-N=-4.316206597027D+02  KE= 1.504957626835D+02
 Symmetry A1   KE= 7.189227703604D+01
 Symmetry A2   KE= 5.428147319697D+00
 Symmetry B1   KE= 4.363108534150D+00
 Symmetry B2   KE= 6.881222979366D+01
 No NMR shielding tensors so no spin-rotation constants.
 Leave Link  601 at Fri May  8 16:14:45 2020, MaxMem= 1073741824 cpu:       0.9
 (Enter /home/matheus/.gaussian/g09/l122.exe)
 Counterpoise: doing DCBS calculation for fragment   2 NewBq=T
 Leave Link  122 at Fri May  8 16:14:45 2020, MaxMem= 1073741824 cpu:       0.0
 (Enter /home/matheus/.gaussian/g09/l301.exe)
 Basis read from rwf:  (5D, 7F)
 No pseudopotential information found on rwf file.
 There are    71 symmetry adapted basis functions of A1  symmetry.
 There are    29 symmetry adapted basis functions of A2  symmetry.
 There are    37 symmetry adapted basis functions of B1  symmetry.
 There are    60 symmetry adapted basis functions of B2  symmetry.
 Integral buffers will be    131072 words long.
 Raffenetti 2 integral format.
 Two-electron integral symmetry is turned on.
   197 basis functions,   415 primitive gaussians,   229 cartesian basis functions
    18 alpha electrons       18 beta electrons
       nuclear repulsion energy         0.0000000000 Hartrees.
 IExCor=32609 DFT=T Ex+Corr=LC-wPBE ExCW=0 ScaHFX=  1.000000
 ScaDFX=  1.000000  0.000000  1.000000  1.000000 ScalE2=  1.000000  1.000000
 IRadAn=      5 IRanWt=     -1 IRanGd=            0 ICorTp=0
  HFx wShort=  0.000000 wLong=  0.550000 cFull=  0.000000 cShort=  0.000000 cLong=  1.000000
  DFx wShort=  0.000000 wLong=  0.550000 cFull=  0.000000 cShort=  0.000000 cLong=  1.000000
 NAtoms=    5 NActive=    5 NUniq=    3 SFac= 2.78D+00 NAtFMM=   60 NAOKFM=F Big=F
 No density basis found on file   718.
 Leave Link  301 at Fri May  8 16:14:45 2020, MaxMem= 1073741824 cpu:       0.3
 (Enter /home/matheus/.gaussian/g09/l302.exe)
 NPDir=0 NMtPBC=     1 NCelOv=     1 NCel=       1 NClECP=     1 NCelD=      1
         NCelK=      1 NCelE2=     1 NClLst=     1 CellRange=     0.0.
 One-electron integrals computed using PRISM.
 One-electron integral symmetry used in STVInt
 NBasis=   197 RedAO= T  NBF=    71    29    37    60
 NBsUse=   197 1.00D-06 NBFU=    71    29    37    60
 Precomputing XC quadrature grid using
 IXCGrd= 2 IRadAn=           5 IRanWt=          -1 IRanGd=           0 AccXCQ= 0.00D+00.
 NRdTot=     427 NPtTot=      123512 NUsed=      126579 NTot=      126611
 NSgBfM=   229   229   229   229   229 NAtAll=     5     5.
 Leave Link  302 at Fri May  8 16:14:45 2020, MaxMem= 1073741824 cpu:       1.0
 (Enter /home/matheus/.gaussian/g09/l303.exe)
 DipDrv:  MaxL=1.
 Leave Link  303 at Fri May  8 16:14:45 2020, MaxMem= 1073741824 cpu:       0.2
 (Enter /home/matheus/.gaussian/g09/l401.exe)
 Harris functional with IExCor=32609 diagonalized for initial guess.
 ExpMin= 2.53D-02 ExpMax= 1.17D+07 ExpMxC= 1.33D+04 IAcc=3 IRadAn=         5 AccDes= 0.00D+00
 HarFok:  IExCor=32609 AccDes= 0.00D+00 IRadAn=         5 IDoV= 1
 ScaDFX=  1.000000  1.000000  1.000000  1.000000
 FoFCou: FMM=F IPFlag=           0 FMFlag=      100000 FMFlg1=           0
         NFxFlg=           0 DoJE=T BraDBF=F KetDBF=T FulRan=T
         Omega=  0.000000  0.000000  1.000000  0.000000  0.000000 ICntrl=     500 IOpCl=  0
         NMat0=    1 NMatS0=    1 NMatT0=    0 NMatD0=    1 NMtDS0=    0 NMtDT0=    0
         I1Cent=           4 NGrid=           0.
 Petite list used in FoFCou.
 Harris En= -2753.24672162075    
 Initial guess orbital symmetries:
       Occupied  (A1) (A1) (A1) (B2) (B1) (A1) (A1) (B2) (B1) (B2)
                 (A1) (B1) (A1) (A2) (A1) (A1) (B2) (B1)
       Virtual   (A1) (B2) (A1) (B1) (B2) (A1) (B1) (A1) (A1) (A2)
                 (B2) (A1) (B2) (B1) (A2) (A1) (A1) (B2) (A1) (B1)
                 (B2) (A1) (B2) (A2) (B2) (A1) (B2) (B1) (A1) (A1)
                 (B2) (B1) (A2) (A1) (A1) (B2) (B1) (A1) (B1) (B2)
                 (A2) (A1) (A1) (B1) (A2) (B2) (A1) (B2) (B1) (A1)
                 (B2) (A1) (B1) (A2) (B2) (B2) (B1) (B2) (A1) (A2)
                 (A1) (A1) (A2) (B2) (A1) (B1) (A2) (B2) (B2) (A1)
                 (A1) (B2) (B2) (B1) (A1) (A2) (A1) (B2) (B2) (B1)
                 (A1) (B2) (A2) (A1) (B1) (B1) (A1) (B1) (B2) (A1)
                 (B1) (A2) (A1) (A1) (B1) (A1) (B2) (A2) (B2) (A1)
                 (B1) (A2) (B2) (B1) (B2) (A2) (A1) (B2) (A1) (B1)
                 (A1) (B2) (A1) (A2) (B2) (B1) (A2) (B2) (A1) (B2)
                 (B2) (A1) (B2) (A2) (A1) (A1) (B1) (B2) (A2) (A1)
                 (B2) (B1) (A1) (A2) (B2) (A1) (B2) (B1) (A1) (A2)
                 (A1) (B2) (B2) (A1) (B2) (B1) (A1) (B1) (A1) (A2)
                 (B2) (A1) (B1) (A2) (A2) (B2) (A1) (B2) (B2) (A1)
                 (B1) (B2) (B1) (A2) (A1) (A2) (B2) (B2) (A1) (B1)
                 (A2) (A1) (A1) (B2) (B2) (A1) (B2) (A1) (B2)
 The electronic state of the initial guess is 1-A1.
 Leave Link  401 at Fri May  8 16:14:45 2020, MaxMem= 1073741824 cpu:       2.1
 (Enter /home/matheus/.gaussian/g09/l502.exe)
 Closed shell SCF:
 Requested convergence on RMS density matrix=1.00D-08 within 128 cycles.
 Requested convergence on MAX density matrix=1.00D-06.
 Requested convergence on             energy=1.00D-06.
 No special actions if energy rises.
 Using DIIS extrapolation, IDIIS=  1040.
 Integral symmetry usage will be decided dynamically.
       126521 words used for storage of precomputed grid.
 IEnd=      305860 IEndB=      305860 NGot=  1073741824 MDV=  1073505275
 LenX=  1073505275 LenY=  1073452393
 Fock matrices will be formed incrementally for  20 cycles.

 Cycle   1  Pass 1  IDiag  1:
 FoFJK:  IHMeth= 1 ICntrl=     0 DoSepK=T KAlg= 1 I1Cent= 0 FoldK=F
 FoFCou: FMM=F IPFlag=           0 FMFlag=      100000 FMFlg1=           0
         NFxFlg=           0 DoJE=T BraDBF=F KetDBF=F FulRan=T
         Omega=  0.000000  0.000000  1.000000  0.000000  0.000000 ICntrl=     500 IOpCl=  0
         NMat0=    1 NMatS0=    1 NMatT0=    0 NMatD0=    1 NMtDS0=    0 NMtDT0=    0
         I1Cent=           0 NGrid=           0.
 Petite list used in FoFCou.
 E= -2753.43068022540    
 DIIS: error= 3.17D-02 at cycle   1 NSaved=   1.
 NSaved= 1 IEnMin= 1 EnMin= -2753.43068022540     IErMin= 1 ErrMin= 3.17D-02
 ErrMax= 3.17D-02 EMaxC= 1.00D-01 BMatC= 2.27D-01 BMatP= 2.27D-01
 IDIUse=3 WtCom= 6.83D-01 WtEn= 3.17D-01
 Coeff-Com:  0.100D+01
 Coeff-En:   0.100D+01
 Coeff:      0.100D+01
 Gap=     0.636 Goal=   None    Shift=    0.000
 GapD=    0.636 DampG=2.000 DampE=0.500 DampFc=1.0000 IDamp=-1.
 RMSDP=2.21D-03 MaxDP=1.48D-01              OVMax= 5.14D-02

 Cycle   2  Pass 1  IDiag  1:
 RMSU=  1.52D-03    CP:  1.02D+00
 FoFJK:  IHMeth= 1 ICntrl=     0 DoSepK=T KAlg= 1 I1Cent= 0 FoldK=F
 E= -2753.46424673798     Delta-E=       -0.033566512580 Rises=F Damp=F
 DIIS: error= 1.61D-02 at cycle   2 NSaved=   2.
 NSaved= 2 IEnMin= 2 EnMin= -2753.46424673798     IErMin= 2 ErrMin= 1.61D-02
 ErrMax= 1.61D-02 EMaxC= 1.00D-01 BMatC= 5.04D-02 BMatP= 2.27D-01
 IDIUse=3 WtCom= 8.39D-01 WtEn= 1.61D-01
 Coeff-Com:  0.316D+00 0.684D+00
 Coeff-En:   0.643D-01 0.936D+00
 Coeff:      0.275D+00 0.725D+00
 Gap=     0.551 Goal=   None    Shift=    0.000
 RMSDP=8.26D-04 MaxDP=5.24D-02 DE=-3.36D-02 OVMax= 1.88D-02

 Cycle   3  Pass 1  IDiag  1:
 RMSU=  1.57D-04    CP:  1.01D+00  6.41D-01
 FoFJK:  IHMeth= 1 ICntrl=     0 DoSepK=T KAlg= 1 I1Cent= 0 FoldK=F
 E= -2753.47772233897     Delta-E=       -0.013475600989 Rises=F Damp=F
 DIIS: error= 1.96D-03 at cycle   3 NSaved=   3.
 NSaved= 3 IEnMin= 3 EnMin= -2753.47772233897     IErMin= 3 ErrMin= 1.96D-03
 ErrMax= 1.96D-03 EMaxC= 1.00D-01 BMatC= 7.77D-04 BMatP= 5.04D-02
 IDIUse=3 WtCom= 9.80D-01 WtEn= 1.96D-02
 Coeff-Com: -0.459D-02 0.102D+00 0.902D+00
 Coeff-En:   0.000D+00 0.000D+00 0.100D+01
 Coeff:     -0.450D-02 0.100D+00 0.904D+00
 Gap=     0.558 Goal=   None    Shift=    0.000
 RMSDP=8.87D-05 MaxDP=5.33D-03 DE=-1.35D-02 OVMax= 2.76D-03

 Cycle   4  Pass 1  IDiag  1:
 RMSU=  1.39D-05    CP:  1.01D+00  6.80D-01  9.79D-01
 FoFJK:  IHMeth= 1 ICntrl=     0 DoSepK=T KAlg= 1 I1Cent= 0 FoldK=F
 E= -2753.47794104974     Delta-E=       -0.000218710772 Rises=F Damp=F
 DIIS: error= 6.96D-05 at cycle   4 NSaved=   4.
 NSaved= 4 IEnMin= 4 EnMin= -2753.47794104974     IErMin= 4 ErrMin= 6.96D-05
 ErrMax= 6.96D-05 EMaxC= 1.00D-01 BMatC= 5.36D-07 BMatP= 7.77D-04
 IDIUse=1 WtCom= 1.00D+00 WtEn= 0.00D+00
 Coeff-Com: -0.548D-03-0.231D-01-0.158D+00 0.118D+01
 Coeff:     -0.548D-03-0.231D-01-0.158D+00 0.118D+01
 Gap=     0.557 Goal=   None    Shift=    0.000
 RMSDP=6.00D-06 MaxDP=3.36D-04 DE=-2.19D-04 OVMax= 4.20D-04

 Cycle   5  Pass 1  IDiag  1:
 RMSU=  1.90D-06    CP:  1.01D+00  6.79D-01  9.95D-01  1.19D+00
 FoFJK:  IHMeth= 1 ICntrl=     0 DoSepK=T KAlg= 1 I1Cent= 0 FoldK=F
 E= -2753.47794160550     Delta-E=       -0.000000555753 Rises=F Damp=F
 DIIS: error= 2.76D-06 at cycle   5 NSaved=   5.
 NSaved= 5 IEnMin= 5 EnMin= -2753.47794160550     IErMin= 5 ErrMin= 2.76D-06
 ErrMax= 2.76D-06 EMaxC= 1.00D-01 BMatC= 2.11D-09 BMatP= 5.36D-07
 IDIUse=1 WtCom= 1.00D+00 WtEn= 0.00D+00
 Coeff-Com:  0.960D-04 0.206D-03-0.120D-02-0.191D-01 0.102D+01
 Coeff:      0.960D-04 0.206D-03-0.120D-02-0.191D-01 0.102D+01
 Gap=     0.557 Goal=   None    Shift=    0.000
 RMSDP=3.35D-07 MaxDP=2.14D-05 DE=-5.56D-07 OVMax= 1.50D-05

 Cycle   6  Pass 1  IDiag  1:
 RMSU=  1.63D-07    CP:  1.01D+00  6.79D-01  9.94D-01  1.20D+00  1.03D+00
 FoFJK:  IHMeth= 1 ICntrl=     0 DoSepK=T KAlg= 1 I1Cent= 0 FoldK=F
 E= -2753.47794160738     Delta-E=       -0.000000001884 Rises=F Damp=F
 DIIS: error= 5.60D-07 at cycle   6 NSaved=   6.
 NSaved= 6 IEnMin= 6 EnMin= -2753.47794160738     IErMin= 6 ErrMin= 5.60D-07
 ErrMax= 5.60D-07 EMaxC= 1.00D-01 BMatC= 8.38D-11 BMatP= 2.11D-09
 IDIUse=1 WtCom= 1.00D+00 WtEn= 0.00D+00
 Coeff-Com:  0.550D-05 0.244D-03 0.180D-02-0.177D-01 0.524D-01 0.963D+00
 Coeff:      0.550D-05 0.244D-03 0.180D-02-0.177D-01 0.524D-01 0.963D+00
 Gap=     0.557 Goal=   None    Shift=    0.000
 RMSDP=5.00D-08 MaxDP=2.51D-06 DE=-1.88D-09 OVMax= 3.12D-06

 Cycle   7  Pass 1  IDiag  1:
 RMSU=  1.38D-08    CP:  1.01D+00  6.79D-01  9.94D-01  1.20D+00  1.05D+00
                    CP:  1.09D+00
 FoFJK:  IHMeth= 1 ICntrl=     0 DoSepK=T KAlg= 1 I1Cent= 0 FoldK=F
 E= -2753.47794160746     Delta-E=       -0.000000000075 Rises=F Damp=F
 DIIS: error= 7.11D-08 at cycle   7 NSaved=   7.
 NSaved= 7 IEnMin= 7 EnMin= -2753.47794160746     IErMin= 7 ErrMin= 7.11D-08
 ErrMax= 7.11D-08 EMaxC= 1.00D-01 BMatC= 8.97D-13 BMatP= 8.38D-11
 IDIUse=1 WtCom= 1.00D+00 WtEn= 0.00D+00
 Coeff-Com:  0.310D-06 0.492D-04 0.386D-03-0.362D-02 0.462D-02 0.191D+00
 Coeff-Com:  0.807D+00
 Coeff:      0.310D-06 0.492D-04 0.386D-03-0.362D-02 0.462D-02 0.191D+00
 Coeff:      0.807D+00
 Gap=     0.557 Goal=   None    Shift=    0.000
 RMSDP=6.34D-09 MaxDP=1.65D-07 DE=-7.55D-11 OVMax= 2.89D-07

 SCF Done:  E(RLC-wPBE) =  -2753.47794161     A.U. after    7 cycles
             Convg  =    0.6338D-08             -V/T =  2.0014
 KE= 2.749501228925D+03 PE=-6.579033934353D+03 EE= 1.076054763820D+03
 Leave Link  502 at Fri May  8 16:15:02 2020, MaxMem= 1073741824 cpu:     134.6
 (Enter /home/matheus/.gaussian/g09/l601.exe)
 Copying SCF densities to generalized density rwf, IOpCl= 0 IROHF=0.

 **********************************************************************

            Population analysis using the SCF density.

 **********************************************************************

 Orbital symmetries:
       Occupied  (A1) (A1) (A1) (B2) (B1) (A1) (A1) (B2) (B1) (A1)
                 (B2) (B1) (A1) (A2) (A1) (A1) (B2) (B1)
       Virtual   (A1) (B2) (A1) (B1) (B2) (A1) (A1) (B1) (B2) (A1)
                 (A2) (B2) (A1) (B1) (A1) (A2) (B2) (A1) (B2) (A1)
                 (B1) (A1) (B2) (A2) (A1) (B2) (B2) (B1) (A1) (A1)
                 (B1) (B2) (A2) (A1) (B2) (B1) (A1) (B2) (A1) (A2)
                 (B1) (A1) (A1) (B1) (A1) (B2) (B2) (A2) (B1) (B2)
                 (A1) (B2) (A2) (A1) (B2) (B1) (A2) (A1) (B1) (A1)
                 (B2) (A2) (A1) (B2) (B2) (A1) (B1) (A2) (B2) (A1)
                 (A1) (B2) (B2) (B1) (A1) (A2) (A1) (B2) (B2) (B1)
                 (B1) (A1) (A1) (B2) (B1) (A1) (A2) (A1) (B1) (A1)
                 (A2) (B2) (B1) (A1) (A2) (B2) (B1) (A2) (B2) (B1)
                 (A1) (B2) (A1) (B1) (A1) (A2) (B2) (B2) (B1) (A1)
                 (A1) (B2) (A2) (A1) (B2) (B1) (A2) (B2) (A1) (B2)
                 (B2) (A1) (A2) (B2) (A1) (B1) (A1) (B2) (A2) (A1)
                 (B2) (B1) (A1) (A2) (B2) (A1) (B2) (B1) (A1) (A2)
                 (A1) (B2) (B2) (A1) (B2) (B1) (A1) (B1) (A1) (A2)
                 (B2) (A1) (B1) (A2) (A2) (B2) (A1) (B2) (B2) (A1)
                 (B1) (B2) (B1) (A2) (A1) (A2) (B2) (B2) (A1) (B1)
                 (A2) (A1) (A1) (B2) (B2) (A1) (B2) (A1) (B2)
 The electronic state is 1-A1.
 Alpha  occ. eigenvalues -- -511.18579 -66.73387 -60.39498 -60.39496 -60.39494
 Alpha  occ. eigenvalues --   -9.66932  -7.41184  -7.41182  -7.41181  -3.35590
 Alpha  occ. eigenvalues --   -3.35590  -3.35590  -3.35588  -3.35588  -1.08851
 Alpha  occ. eigenvalues --   -0.52696  -0.52694  -0.52691
 Alpha virt. eigenvalues --    0.03051   0.04889   0.08494   0.09784   0.12031
 Alpha virt. eigenvalues --    0.13199   0.13757   0.14517   0.15551   0.17354
 Alpha virt. eigenvalues --    0.17685   0.17908   0.21349   0.26844   0.27425
 Alpha virt. eigenvalues --    0.27811   0.29832   0.32104   0.33533   0.38066
 Alpha virt. eigenvalues --    0.39013   0.39980   0.40138   0.41149   0.41998
 Alpha virt. eigenvalues --    0.43041   0.46747   0.55544   0.55834   0.59875
 Alpha virt. eigenvalues --    0.62788   0.63174   0.70088   0.71128   0.71656
 Alpha virt. eigenvalues --    0.74098   0.75331   0.77197   0.77202   0.78936
 Alpha virt. eigenvalues --    0.78971   0.84190   0.85548   0.88214   0.89118
 Alpha virt. eigenvalues --    0.89648   0.89909   0.91144   0.98438   0.98594
 Alpha virt. eigenvalues --    0.99873   1.00755   1.01428   1.01594   1.05587
 Alpha virt. eigenvalues --    1.06105   1.10382   1.12588   1.16535   1.17370
 Alpha virt. eigenvalues --    1.17676   1.25875   1.31154   1.33779   1.41205
 Alpha virt. eigenvalues --    1.42405   1.46694   1.46814   1.50798   1.53310
 Alpha virt. eigenvalues --    1.58062   1.63010   1.69146   1.70433   1.75284
 Alpha virt. eigenvalues --    1.79874   1.85433   1.89042   1.96701   2.19666
 Alpha virt. eigenvalues --    2.22916   2.23997   2.30947   2.32238   2.34418
 Alpha virt. eigenvalues --    2.37278   2.38446   2.39446   2.41569   2.41588
 Alpha virt. eigenvalues --    2.47232   2.50981   2.53172   2.54581   2.55232
 Alpha virt. eigenvalues --    2.55372   2.56878   2.63788   2.64387   2.64608
 Alpha virt. eigenvalues --    2.65010   2.66414   2.67784   2.72839   2.76097
 Alpha virt. eigenvalues --    2.76454   2.79097   2.87995   2.90588   2.91069
 Alpha virt. eigenvalues --    2.98346   3.00071   3.12100   3.13435   3.16626
 Alpha virt. eigenvalues --    3.27260   3.28606   3.29649   3.40140   3.56470
 Alpha virt. eigenvalues --    3.63827   3.66738   3.88370   3.88967   4.02654
 Alpha virt. eigenvalues --    4.44027   4.45252   4.52769   4.62144   4.70272
 Alpha virt. eigenvalues --    4.73453   4.82084   4.88443   4.96476   5.05981
 Alpha virt. eigenvalues --    5.13789   5.33150   5.51510   5.67080   5.72452
 Alpha virt. eigenvalues --    5.91528   6.04700   6.30716   6.70847   6.96902
 Alpha virt. eigenvalues --    7.25897   7.38497   7.64238   7.67385   7.80343
 Alpha virt. eigenvalues --    7.88276   8.03931   8.11995   8.13088   8.29362
 Alpha virt. eigenvalues --    8.32422   8.37434   8.72274   9.03223   9.50961
 Alpha virt. eigenvalues --    9.75603   9.76863   9.88046   9.90963   9.94932
 Alpha virt. eigenvalues --   10.21281  10.22962  10.75054  10.87186  11.43325
 Alpha virt. eigenvalues --   11.63710  11.67316  11.92688  12.07831  13.30942
 Alpha virt. eigenvalues --   13.60044  14.56445  62.40236  64.85242
          Condensed to atoms (all electrons):
              1          2          3          4          5
     1  O    0.002371  -0.000263  -0.002242   0.000367  -0.004002
     2  O   -0.000263   0.002371   0.000367  -0.002242  -0.004002
     3  H   -0.002242   0.000367   0.003389   0.000232  -0.026369
     4  H    0.000367  -0.002242   0.000232   0.003389  -0.026369
     5  Kr  -0.004002  -0.004002  -0.026369  -0.026369  36.117524
 Mulliken atomic charges:
              1
     1  O    0.003768
     2  O    0.003768
     3  H    0.024623
     4  H    0.024623
     5  Kr  -0.056783
 Sum of Mulliken atomic charges =   0.00000
 Mulliken charges with hydrogens summed into heavy atoms:
              1
     1  O    0.028391
     2  O    0.028391
     5  Kr  -0.056783
 Sum of Mulliken charges with hydrogens summed into heavy atoms =   0.00000
          Condensed to fragments (all electrons):
     1       0.056783
     2      -0.056783
 Electronic spatial extent (au):  <R**2>=            159.0978
 Charge=              0.0000 electrons
 Dipole moment (field-independent basis, Debye):
    X=              0.0000    Y=              0.0000    Z=             -0.0015  Tot=              0.0015
 Quadrupole moment (field-independent basis, Debye-Ang):
   XX=            -17.5570   YY=            -17.5472   ZZ=            -17.5397
   XY=              0.0000   XZ=              0.0000   YZ=              0.0000
 Traceless Quadrupole moment (field-independent basis, Debye-Ang):
   XX=             -0.0090   YY=              0.0008   ZZ=              0.0082
   XY=              0.0000   XZ=              0.0000   YZ=              0.0000
 Octapole moment (field-independent basis, Debye-Ang**2):
  XXX=              0.0000  YYY=              0.0000  ZZZ=            -50.8263  XYY=              0.0000
  XXY=              0.0000  XXZ=            -16.9604  XZZ=              0.0000  YZZ=              0.0000
  YYZ=            -16.9545  XYZ=              0.0000
 Hexadecapole moment (field-independent basis, Debye-Ang**3):
 XXXX=            -18.0564 YYYY=            -18.0253 ZZZZ=           -116.1942 XXXY=              0.0000
 XXXZ=              0.0000 YYYX=              0.0000 YYYZ=              0.0000 ZZZX=              0.0000
 ZZZY=              0.0000 XXYY=             -6.0103 XXZZ=            -22.3878 YYZZ=            -22.3795
 XXYZ=              0.0000 YYXZ=              0.0000 ZZXY=              0.0000
 N-N= 0.000000000000D+00 E-N=-6.579033927659D+03  KE= 2.749501228925D+03
 Symmetry A1   KE= 1.985259360413D+03
 Symmetry A2   KE= 4.748921211975D+01
 Symmetry B1   KE= 3.583789761786D+02
 Symmetry B2   KE= 3.583736802142D+02
 No NMR shielding tensors so no spin-rotation constants.
 Leave Link  601 at Fri May  8 16:15:02 2020, MaxMem= 1073741824 cpu:       1.0
 (Enter /home/matheus/.gaussian/g09/l122.exe)
 Counterpoise: doing MCBS calculation for fragment   1
 Leave Link  122 at Fri May  8 16:15:02 2020, MaxMem= 1073741824 cpu:       0.0
 (Enter /home/matheus/.gaussian/g09/l301.exe)
 Basis read from rwf:  (5D, 7F)
 No pseudopotential information found on rwf file.
 There are    46 symmetry adapted basis functions of A1  symmetry.
 There are    23 symmetry adapted basis functions of A2  symmetry.
 There are    23 symmetry adapted basis functions of B1  symmetry.
 There are    46 symmetry adapted basis functions of B2  symmetry.
 Integral buffers will be    131072 words long.
 Raffenetti 2 integral format.
 Two-electron integral symmetry is turned on.
   138 basis functions,   198 primitive gaussians,   160 cartesian basis functions
     9 alpha electrons        9 beta electrons
       nuclear repulsion energy        36.6667523957 Hartrees.
 IExCor=32609 DFT=T Ex+Corr=LC-wPBE ExCW=0 ScaHFX=  1.000000
 ScaDFX=  1.000000  0.000000  1.000000  1.000000 ScalE2=  1.000000  1.000000
 IRadAn=      5 IRanWt=     -1 IRanGd=            0 ICorTp=0
  HFx wShort=  0.000000 wLong=  0.550000 cFull=  0.000000 cShort=  0.000000 cLong=  1.000000
  DFx wShort=  0.000000 wLong=  0.550000 cFull=  0.000000 cShort=  0.000000 cLong=  1.000000
 NAtoms=    5 NActive=    4 NUniq=    2 SFac= 4.00D+00 NAtFMM=   60 NAOKFM=F Big=F
 No density basis found on file   718.
 Leave Link  301 at Fri May  8 16:15:02 2020, MaxMem= 1073741824 cpu:       0.2
 (Enter /home/matheus/.gaussian/g09/l302.exe)
 NPDir=0 NMtPBC=     1 NCelOv=     1 NCel=       1 NClECP=     1 NCelD=      1
         NCelK=      1 NCelE2=     1 NClLst=     1 CellRange=     0.0.
 One-electron integrals computed using PRISM.
 One-electron integral symmetry used in STVInt
 NBasis=   138 RedAO= T  NBF=    46    23    23    46
 NBsUse=   138 1.00D-06 NBFU=    46    23    23    46
 Precomputing XC quadrature grid using
 IXCGrd= 2 IRadAn=           5 IRanWt=          -1 IRanGd=           0 AccXCQ= 0.00D+00.
 NRdTot=     344 NPtTot=       92556 NUsed=       95038 NTot=       95070
 NSgBfM=   160   160   160   160   160 NAtAll=     4     4.
 Leave Link  302 at Fri May  8 16:15:02 2020, MaxMem= 1073741824 cpu:       0.8
 (Enter /home/matheus/.gaussian/g09/l303.exe)
 DipDrv:  MaxL=1.
 Leave Link  303 at Fri May  8 16:15:02 2020, MaxMem= 1073741824 cpu:       0.2
 (Enter /home/matheus/.gaussian/g09/l401.exe)
 Harris functional with IExCor=32609 diagonalized for initial guess.
 ExpMin= 2.53D-02 ExpMax= 1.53D+04 ExpMxC= 5.22D+02 IAcc=3 IRadAn=         5 AccDes= 0.00D+00
 HarFok:  IExCor=32609 AccDes= 0.00D+00 IRadAn=         5 IDoV= 1
 ScaDFX=  1.000000  1.000000  1.000000  1.000000
 FoFCou: FMM=F IPFlag=           0 FMFlag=      100000 FMFlg1=           0
         NFxFlg=           0 DoJE=T BraDBF=F KetDBF=T FulRan=T
         Omega=  0.000000  0.000000  1.000000  0.000000  0.000000 ICntrl=     500 IOpCl=  0
         NMat0=    1 NMatS0=    1 NMatT0=    0 NMatD0=    1 NMtDS0=    0 NMtDT0=    0
         I1Cent=           4 NGrid=           0.
 Petite list used in FoFCou.
 Harris En= -151.498436523796    
 Initial guess orbital symmetries:
       Occupied  (B2) (A1) (A1) (B2) (A1) (A1) (B1) (B2) (A2)
       Virtual   (B2) (A1) (B2) (A1) (B1) (A1) (B2) (B2) (A1) (A2)
                 (B1) (A1) (B2) (A1) (A2) (B2) (A1) (B2) (B2) (A1)
                 (B1) (B1) (A1) (B2) (A1) (A2) (B1) (A2) (B2) (A1)
                 (B2) (A1) (A1) (B1) (B1) (B2) (A1) (A2) (B2) (B2)
                 (A1) (A2) (B2) (A2) (A1) (B2) (B1) (A1) (B2) (A2)
                 (A1) (B2) (B1) (A1) (A1) (B2) (B1) (A1) (A2) (B2)
                 (B1) (A1) (A2) (A1) (B2) (B2) (A1) (B1) (B2) (B1)
                 (B2) (A2) (A1) (A2) (A1) (B2) (B2) (A2) (B2) (A1)
                 (B1) (B2) (A1) (B1) (A2) (B1) (A2) (A1) (B2) (A2)
                 (A1) (A1) (B2) (B2) (A1) (A1) (B1) (B2) (B2) (A2)
                 (B2) (A1) (B1) (A1) (B2) (B1) (A1) (A2) (B2) (B1)
                 (A1) (A1) (A2) (B1) (B1) (B2) (A2) (A2) (A1) (B2)
                 (A2) (A1) (B2) (B2) (A1) (B2) (B2) (A1) (B2)
 The electronic state of the initial guess is 1-A1.
 Leave Link  401 at Fri May  8 16:15:03 2020, MaxMem= 1073741824 cpu:       1.4
 (Enter /home/matheus/.gaussian/g09/l502.exe)
 Closed shell SCF:
 Requested convergence on RMS density matrix=1.00D-08 within 128 cycles.
 Requested convergence on MAX density matrix=1.00D-06.
 Requested convergence on             energy=1.00D-06.
 No special actions if energy rises.
 Using DIIS extrapolation, IDIIS=  1040.
 Integral symmetry usage will be decided dynamically.
        94980 words used for storage of precomputed grid.
 IEnd=      192636 IEndB=      192636 NGot=  1073741824 MDV=  1073591589
 LenX=  1073591589 LenY=  1073565548
 Fock matrices will be formed incrementally for  20 cycles.

 Cycle   1  Pass 1  IDiag  1:
 FoFJK:  IHMeth= 1 ICntrl=     0 DoSepK=T KAlg= 1 I1Cent= 0 FoldK=F
 FoFCou: FMM=F IPFlag=           0 FMFlag=      100000 FMFlg1=           0
         NFxFlg=           0 DoJE=T BraDBF=F KetDBF=F FulRan=T
         Omega=  0.000000  0.000000  1.000000  0.000000  0.000000 ICntrl=     500 IOpCl=  0
         NMat0=    1 NMatS0=    1 NMatT0=    0 NMatD0=    1 NMtDS0=    0 NMtDT0=    0
         I1Cent=           0 NGrid=           0.
 Petite list used in FoFCou.
 E= -151.496420103764    
 DIIS: error= 2.18D-02 at cycle   1 NSaved=   1.
 NSaved= 1 IEnMin= 1 EnMin= -151.496420103764     IErMin= 1 ErrMin= 2.18D-02
 ErrMax= 2.18D-02 EMaxC= 1.00D-01 BMatC= 4.44D-02 BMatP= 4.44D-02
 IDIUse=3 WtCom= 7.82D-01 WtEn= 2.18D-01
 Coeff-Com:  0.100D+01
 Coeff-En:   0.100D+01
 Coeff:      0.100D+01
 Gap=     0.412 Goal=   None    Shift=    0.000
 GapD=    0.412 DampG=2.000 DampE=0.500 DampFc=1.0000 IDamp=-1.
 RMSDP=1.13D-03 MaxDP=2.32D-02              OVMax= 6.01D-02

 Cycle   2  Pass 1  IDiag  1:
 RMSU=  8.01D-04    CP:  9.95D-01
 FoFJK:  IHMeth= 1 ICntrl=     0 DoSepK=T KAlg= 1 I1Cent= 0 FoldK=F
 E= -151.514418808013     Delta-E=       -0.017998704249 Rises=F Damp=F
 DIIS: error= 1.43D-02 at cycle   2 NSaved=   2.
 NSaved= 2 IEnMin= 2 EnMin= -151.514418808013     IErMin= 2 ErrMin= 1.43D-02
 ErrMax= 1.43D-02 EMaxC= 1.00D-01 BMatC= 1.88D-02 BMatP= 4.44D-02
 IDIUse=3 WtCom= 8.57D-01 WtEn= 1.43D-01
 Coeff-Com:  0.382D+00 0.618D+00
 Coeff-En:   0.149D+00 0.851D+00
 Coeff:      0.349D+00 0.651D+00
 Gap=     0.455 Goal=   None    Shift=    0.000
 RMSDP=6.79D-04 MaxDP=2.27D-02 DE=-1.80D-02 OVMax= 2.71D-02

 Cycle   3  Pass 1  IDiag  1:
 RMSU=  3.25D-04    CP:  9.90D-01  5.64D-01
 FoFJK:  IHMeth= 1 ICntrl=     0 DoSepK=T KAlg= 1 I1Cent= 0 FoldK=F
 E= -151.525189747900     Delta-E=       -0.010770939887 Rises=F Damp=F
 DIIS: error= 2.38D-03 at cycle   3 NSaved=   3.
 NSaved= 3 IEnMin= 3 EnMin= -151.525189747900     IErMin= 3 ErrMin= 2.38D-03
 ErrMax= 2.38D-03 EMaxC= 1.00D-01 BMatC= 5.40D-04 BMatP= 1.88D-02
 IDIUse=3 WtCom= 9.76D-01 WtEn= 2.38D-02
 Coeff-Com:  0.422D-01 0.168D+00 0.790D+00
 Coeff-En:   0.000D+00 0.000D+00 0.100D+01
 Coeff:      0.412D-01 0.164D+00 0.795D+00
 Gap=     0.446 Goal=   None    Shift=    0.000
 RMSDP=8.61D-05 MaxDP=1.41D-03 DE=-1.08D-02 OVMax= 4.42D-03

 Cycle   4  Pass 1  IDiag  1:
 RMSU=  3.95D-05    CP:  9.89D-01  6.20D-01  9.95D-01
 FoFJK:  IHMeth= 1 ICntrl=     0 DoSepK=T KAlg= 1 I1Cent= 0 FoldK=F
 E= -151.525525438592     Delta-E=       -0.000335690692 Rises=F Damp=F
 DIIS: error= 3.58D-04 at cycle   4 NSaved=   4.
 NSaved= 4 IEnMin= 4 EnMin= -151.525525438592     IErMin= 4 ErrMin= 3.58D-04
 ErrMax= 3.58D-04 EMaxC= 1.00D-01 BMatC= 1.07D-05 BMatP= 5.40D-04
 IDIUse=3 WtCom= 9.96D-01 WtEn= 3.58D-03
 Coeff-Com: -0.101D-01-0.121D-01 0.847D-01 0.937D+00
 Coeff-En:   0.000D+00 0.000D+00 0.000D+00 0.100D+01
 Coeff:     -0.100D-01-0.121D-01 0.844D-01 0.938D+00
 Gap=     0.447 Goal=   None    Shift=    0.000
 RMSDP=1.68D-05 MaxDP=5.81D-04 DE=-3.36D-04 OVMax= 8.29D-04

 Cycle   5  Pass 1  IDiag  1:
[...]
                 (A1) (B2) (B2) (A1) (B2) (B1) (A1) (B1) (A1) (A2)
                 (B2) (A1) (B1) (A2) (B2) (A1) (A2) (B2) (B2) (A1)
                 (B2) (B1) (B1) (A1) (A2) (B2) (A2) (B2) (A1) (B1)
                 (A1) (A2) (A1) (B2) (B2) (A1) (B2) (A1) (B2)
 The electronic state of the initial guess is 1-A1.
 Generating alternative initial guess.
 Harris functional with IExCor=32609 diagonalized for initial guess.
 ExpMin= 2.53D-02 ExpMax= 1.17D+07 ExpMxC= 1.33D+04 IAcc=3 IRadAn=         5 AccDes= 0.00D+00
 HarFok:  IExCor=32609 AccDes= 0.00D+00 IRadAn=         5 IDoV= 1
 ScaDFX=  1.000000  1.000000  1.000000  1.000000
 FoFCou: FMM=F IPFlag=           0 FMFlag=      100000 FMFlg1=           0
         NFxFlg=           0 DoJE=T BraDBF=F KetDBF=T FulRan=T
         Omega=  0.000000  0.000000  1.000000  0.000000  0.000000 ICntrl=     500 IOpCl=  0
         NMat0=    1 NMatS0=    1 NMatT0=    0 NMatD0=    1 NMtDS0=    0 NMtDT0=    0
         I1Cent=           4 NGrid=           0.
 Petite list used in FoFCou.
 Harris En= -2753.24587757102    
 Leave Link  401 at Fri May  8 16:29:22 2020, MaxMem= 1073741824 cpu:       2.6
 (Enter /home/matheus/.gaussian/g09/l502.exe)
 Closed shell SCF:
 Requested convergence on RMS density matrix=1.00D-08 within 128 cycles.
 Requested convergence on MAX density matrix=1.00D-06.
 Requested convergence on             energy=1.00D-06.
 No special actions if energy rises.
 Using DIIS extrapolation, IDIIS=  1040.
 Integral symmetry usage will be decided dynamically.
       126823 words used for storage of precomputed grid.
 IEnd=      306162 IEndB=      306162 NGot=  1073741824 MDV=  1073504973
 LenX=  1073504973 LenY=  1073452091
 Fock matrices will be formed incrementally for  20 cycles.

 Cycle   1  Pass 1  IDiag  1:
 FoFJK:  IHMeth= 1 ICntrl=     0 DoSepK=T KAlg= 1 I1Cent= 0 FoldK=F
 FoFCou: FMM=F IPFlag=           0 FMFlag=      100000 FMFlg1=           0
         NFxFlg=           0 DoJE=T BraDBF=F KetDBF=F FulRan=T
         Omega=  0.000000  0.000000  1.000000  0.000000  0.000000 ICntrl=     500 IOpCl=  0
         NMat0=    1 NMatS0=    1 NMatT0=    0 NMatD0=    1 NMtDS0=    0 NMtDT0=    0
         I1Cent=           0 NGrid=           0.
 Petite list used in FoFCou.
 E= -2753.47778133153    
 DIIS: error= 1.64D-04 at cycle   1 NSaved=   1.
 NSaved= 1 IEnMin= 1 EnMin= -2753.47778133153     IErMin= 1 ErrMin= 1.64D-04
 ErrMax= 1.64D-04 EMaxC= 1.00D-01 BMatC= 5.36D-06 BMatP= 5.36D-06
 IDIUse=3 WtCom= 9.98D-01 WtEn= 1.64D-03
 Coeff-Com:  0.100D+01
 Coeff-En:   0.100D+01
 Coeff:      0.100D+01
 Gap=     0.556 Goal=   None    Shift=    0.000
 RMSDP=1.36D-05 MaxDP=6.37D-04              OVMax= 3.51D-04

 Cycle   2  Pass 1  IDiag  1:
 RMSU=  9.62D-06    CP:  1.00D+00
 FoFJK:  IHMeth= 1 ICntrl=     0 DoSepK=T KAlg= 1 I1Cent= 0 FoldK=F
 E= -2753.47778204580     Delta-E=       -0.000000714268 Rises=F Damp=F
 DIIS: error= 7.65D-06 at cycle   2 NSaved=   2.
 NSaved= 2 IEnMin= 2 EnMin= -2753.47778204580     IErMin= 2 ErrMin= 7.65D-06
 ErrMax= 7.65D-06 EMaxC= 1.00D-01 BMatC= 5.44D-09 BMatP= 5.36D-06
 IDIUse=1 WtCom= 1.00D+00 WtEn= 0.00D+00
 Coeff-Com: -0.983D-02 0.101D+01
 Coeff:     -0.983D-02 0.101D+01
 Gap=     0.556 Goal=   None    Shift=    0.000
 RMSDP=1.27D-06 MaxDP=5.00D-05 DE=-7.14D-07 OVMax= 5.37D-05

 Cycle   3  Pass 1  IDiag  1:
 RMSU=  4.96D-07    CP:  1.00D+00  1.08D+00
 FoFJK:  IHMeth= 1 ICntrl=     0 DoSepK=T KAlg= 1 I1Cent= 0 FoldK=F
 E= -2753.47778205512     Delta-E=       -0.000000009326 Rises=F Damp=F
 DIIS: error= 1.08D-06 at cycle   3 NSaved=   3.
 NSaved= 3 IEnMin= 3 EnMin= -2753.47778205512     IErMin= 3 ErrMin= 1.08D-06
 ErrMax= 1.08D-06 EMaxC= 1.00D-01 BMatC= 1.33D-10 BMatP= 5.44D-09
 IDIUse=1 WtCom= 1.00D+00 WtEn= 0.00D+00
 Coeff-Com:  0.295D-03-0.124D+00 0.112D+01
 Coeff:      0.295D-03-0.124D+00 0.112D+01
 Gap=     0.556 Goal=   None    Shift=    0.000
 RMSDP=1.73D-07 MaxDP=5.60D-06 DE=-9.33D-09 OVMax= 1.08D-05

 Cycle   4  Pass 1  IDiag  1:
 RMSU=  5.28D-08    CP:  1.00D+00  1.08D+00  1.21D+00
 FoFJK:  IHMeth= 1 ICntrl=     0 DoSepK=T KAlg= 1 I1Cent= 0 FoldK=F
 E= -2753.47778205539     Delta-E=       -0.000000000271 Rises=F Damp=F
 DIIS: error= 4.39D-07 at cycle   4 NSaved=   4.
 NSaved= 4 IEnMin= 4 EnMin= -2753.47778205539     IErMin= 4 ErrMin= 4.39D-07
 ErrMax= 4.39D-07 EMaxC= 1.00D-01 BMatC= 8.21D-12 BMatP= 1.33D-10
 IDIUse=1 WtCom= 1.00D+00 WtEn= 0.00D+00
 Coeff-Com:  0.203D-03-0.402D-01 0.230D+00 0.810D+00
 Coeff:      0.203D-03-0.402D-01 0.230D+00 0.810D+00
 Gap=     0.556 Goal=   None    Shift=    0.000
 RMSDP=2.10D-08 MaxDP=7.57D-07 DE=-2.71D-10 OVMax= 1.07D-06

 Cycle   5  Pass 1  IDiag  1:
 RMSU=  8.66D-09    CP:  1.00D+00  1.08D+00  1.22D+00  1.12D+00
 FoFJK:  IHMeth= 1 ICntrl=     0 DoSepK=T KAlg= 1 I1Cent= 0 FoldK=F
 E= -2753.47778205540     Delta-E=       -0.000000000007 Rises=F Damp=F
 DIIS: error= 4.94D-08 at cycle   5 NSaved=   5.
 NSaved= 5 IEnMin= 5 EnMin= -2753.47778205540     IErMin= 5 ErrMin= 4.94D-08
 ErrMax= 4.94D-08 EMaxC= 1.00D-01 BMatC= 2.48D-13 BMatP= 8.21D-12
 IDIUse=1 WtCom= 1.00D+00 WtEn= 0.00D+00
 Coeff-Com: -0.180D-04 0.619D-02-0.536D-01-0.362D-02 0.105D+01
 Coeff:     -0.180D-04 0.619D-02-0.536D-01-0.362D-02 0.105D+01
 Gap=     0.556 Goal=   None    Shift=    0.000
 RMSDP=8.19D-09 MaxDP=3.39D-07 DE=-7.28D-12 OVMax= 3.63D-07

 SCF Done:  E(RLC-wPBE) =  -2753.47778206     A.U. after    5 cycles
             Convg  =    0.8189D-08             -V/T =  2.0014
 KE= 2.749554934482D+03 PE=-6.579092839508D+03 EE= 1.076060122970D+03
 Leave Link  502 at Fri May  8 16:29:31 2020, MaxMem= 1073741824 cpu:      70.1
 (Enter /home/matheus/.gaussian/g09/l122.exe)
 Restoring MOs from calculation   4 to rwf.
 Counterpoise: doing MCBS calculation for fragment   1
 Leave Link  122 at Fri May  8 16:29:31 2020, MaxMem= 1073741824 cpu:       0.0
 (Enter /home/matheus/.gaussian/g09/l301.exe)
 Basis read from rwf:  (5D, 7F)
 No pseudopotential information found on rwf file.
 There are    46 symmetry adapted basis functions of A1  symmetry.
 There are    23 symmetry adapted basis functions of A2  symmetry.
 There are    23 symmetry adapted basis functions of B1  symmetry.
 There are    46 symmetry adapted basis functions of B2  symmetry.
 Integral buffers will be    131072 words long.
 Raffenetti 2 integral format.
 Two-electron integral symmetry is turned on.
   138 basis functions,   198 primitive gaussians,   160 cartesian basis functions
     9 alpha electrons        9 beta electrons
       nuclear repulsion energy        36.6667523957 Hartrees.
 IExCor=32609 DFT=T Ex+Corr=LC-wPBE ExCW=0 ScaHFX=  1.000000
 ScaDFX=  1.000000  0.000000  1.000000  1.000000 ScalE2=  1.000000  1.000000
 IRadAn=      5 IRanWt=     -1 IRanGd=            0 ICorTp=0
  HFx wShort=  0.000000 wLong=  0.550000 cFull=  0.000000 cShort=  0.000000 cLong=  1.000000
  DFx wShort=  0.000000 wLong=  0.550000 cFull=  0.000000 cShort=  0.000000 cLong=  1.000000
 NAtoms=    5 NActive=    4 NUniq=    2 SFac= 4.00D+00 NAtFMM=   60 NAOKFM=F Big=F
 No density basis found on file   718.
 Leave Link  301 at Fri May  8 16:29:31 2020, MaxMem= 1073741824 cpu:       0.3
 (Enter /home/matheus/.gaussian/g09/l302.exe)
 NPDir=0 NMtPBC=     1 NCelOv=     1 NCel=       1 NClECP=     1 NCelD=      1
         NCelK=      1 NCelE2=     1 NClLst=     1 CellRange=     0.0.
 One-electron integrals computed using PRISM.
 One-electron integral symmetry used in STVInt
 NBasis=   138 RedAO= T  NBF=    46    23    23    46
 NBsUse=   138 1.00D-06 NBFU=    46    23    23    46
 Precomputing XC quadrature grid using
 IXCGrd= 2 IRadAn=           5 IRanWt=          -1 IRanGd=           0 AccXCQ= 0.00D+00.
 NRdTot=     344 NPtTot=       92556 NUsed=       95038 NTot=       95070
 NSgBfM=   160   160   160   160   160 NAtAll=     4     4.
 Leave Link  302 at Fri May  8 16:29:31 2020, MaxMem= 1073741824 cpu:       0.8
 (Enter /home/matheus/.gaussian/g09/l303.exe)
 DipDrv:  MaxL=1.
 Leave Link  303 at Fri May  8 16:29:31 2020, MaxMem= 1073741824 cpu:       0.1
 (Enter /home/matheus/.gaussian/g09/l401.exe)
 Initial guess read from the read-write file.
 Guess basis will be translated and rotated to current coordinates.
 Initial guess orbital symmetries:
       Occupied  (A1) (B2) (A1) (B2) (A1) (A1) (B1) (B2) (A2)
       Virtual   (A1) (B2) (B2) (A1) (B2) (B1) (A1) (A1) (A2) (B2)
                 (B1) (A1) (B2) (A1) (A2) (B2) (A1) (B2) (B2) (A1)
                 (B1) (A1) (B2) (B1) (A1) (A2) (A2) (B1) (B2) (A1)
                 (B2) (A1) (A1) (B1) (A1) (B1) (B2) (A2) (B2) (B2)
                 (A1) (A2) (B2) (A2) (B2) (A1) (B1) (A1) (B2) (A2)
                 (A1) (B2) (B1) (A1) (B2) (A1) (B1) (A1) (A2) (B2)
                 (B1) (A1) (A2) (A1) (B2) (B2) (A1) (B1) (B2) (B1)
                 (B2) (A2) (A1) (A2) (A1) (B2) (B2) (A2) (B2) (A1)
                 (B2) (B1) (A1) (B1) (A2) (B1) (A2) (A1) (B2) (A2)
                 (A1) (A1) (B2) (B2) (A1) (A1) (B1) (B2) (A2) (B2)
                 (B2) (A1) (B1) (A1) (B2) (B1) (A1) (A2) (B2) (A1)
                 (B1) (A1) (A2) (B1) (B1) (B2) (A2) (A2) (A1) (B2)
                 (A1) (A2) (B2) (B2) (A1) (B2) (B2) (A1) (B2)
 The electronic state of the initial guess is 1-A1.
 Generating alternative initial guess.
 Harris functional with IExCor=32609 diagonalized for initial guess.
 ExpMin= 2.53D-02 ExpMax= 1.53D+04 ExpMxC= 5.22D+02 IAcc=3 IRadAn=         5 AccDes= 0.00D+00
 HarFok:  IExCor=32609 AccDes= 0.00D+00 IRadAn=         5 IDoV= 1
 ScaDFX=  1.000000  1.000000  1.000000  1.000000
 FoFCou: FMM=F IPFlag=           0 FMFlag=      100000 FMFlg1=           0
         NFxFlg=           0 DoJE=T BraDBF=F KetDBF=T FulRan=T
         Omega=  0.000000  0.000000  1.000000  0.000000  0.000000 ICntrl=     500 IOpCl=  0
         NMat0=    1 NMatS0=    1 NMatT0=    0 NMatD0=    1 NMtDS0=    0 NMtDT0=    0
         I1Cent=           4 NGrid=           0.
 Petite list used in FoFCou.
 Harris En= -151.498436523796    
 Leave Link  401 at Fri May  8 16:29:32 2020, MaxMem= 1073741824 cpu:       1.6
 (Enter /home/matheus/.gaussian/g09/l502.exe)
 Closed shell SCF:
 Requested convergence on RMS density matrix=1.00D-08 within 128 cycles.
 Requested convergence on MAX density matrix=1.00D-06.
 Requested convergence on             energy=1.00D-06.
 No special actions if energy rises.
 Using DIIS extrapolation, IDIIS=  1040.
 Integral symmetry usage will be decided dynamically.
        94980 words used for storage of precomputed grid.
 IEnd=      192636 IEndB=      192636 NGot=  1073741824 MDV=  1073591589
 LenX=  1073591589 LenY=  1073565548
 Fock matrices will be formed incrementally for  20 cycles.

 Cycle   1  Pass 1  IDiag  1:
 FoFJK:  IHMeth= 1 ICntrl=     0 DoSepK=T KAlg= 1 I1Cent= 0 FoldK=F
 FoFCou: FMM=F IPFlag=           0 FMFlag=      100000 FMFlg1=           0
         NFxFlg=           0 DoJE=T BraDBF=F KetDBF=F FulRan=T
         Omega=  0.000000  0.000000  1.000000  0.000000  0.000000 ICntrl=     500 IOpCl=  0
         NMat0=    1 NMatS0=    1 NMatT0=    0 NMatD0=    1 NMtDS0=    0 NMtDT0=    0
         I1Cent=           0 NGrid=           0.
 Petite list used in FoFCou.
 E= -151.525534910088    
 DIIS: error= 1.45D-11 at cycle   1 NSaved=   1.
 NSaved= 1 IEnMin= 1 EnMin= -151.525534910088     IErMin= 1 ErrMin= 1.45D-11
 ErrMax= 1.45D-11 EMaxC= 1.00D-01 BMatC= 2.12D-20 BMatP= 2.12D-20
 IDIUse=1 WtCom= 1.00D+00 WtEn= 0.00D+00
 Coeff-Com:  0.100D+01
 Coeff:      0.100D+01
 Gap=     0.447 Goal=   None    Shift=    0.000
 RMSDP=9.37D-13 MaxDP=2.32D-11              OVMax= 4.40D-11

 SCF Done:  E(RLC-wPBE) =  -151.525534910     A.U. after    1 cycles
             Convg  =    0.9373D-12             -V/T =  2.0068
 KE= 1.504948614349D+02 PE=-4.316185790184D+02 EE= 9.293143027767D+01
 Leave Link  502 at Fri May  8 16:29:32 2020, MaxMem= 1073741824 cpu:       6.1
 (Enter /home/matheus/.gaussian/g09/l122.exe)
 Restoring MOs from calculation   5 to rwf.
 Counterpoise: doing MCBS calculation for fragment   2
 Leave Link  122 at Fri May  8 16:29:32 2020, MaxMem= 1073741824 cpu:       0.0
 (Enter /home/matheus/.gaussian/g09/l301.exe)
 Basis read from rwf:  (5D, 7F)
 No pseudopotential information found on rwf file.
 There are    25 symmetry adapted basis functions of A1  symmetry.
 There are     6 symmetry adapted basis functions of A2  symmetry.
 There are    14 symmetry adapted basis functions of B1  symmetry.
 There are    14 symmetry adapted basis functions of B2  symmetry.
 Integral buffers will be    131072 words long.
 Raffenetti 2 integral format.
 Two-electron integral symmetry is turned on.
    59 basis functions,   217 primitive gaussians,    69 cartesian basis functions
    18 alpha electrons       18 beta electrons
       nuclear repulsion energy         0.0000000000 Hartrees.
 IExCor=32609 DFT=T Ex+Corr=LC-wPBE ExCW=0 ScaHFX=  1.000000
 ScaDFX=  1.000000  0.000000  1.000000  1.000000 ScalE2=  1.000000  1.000000
 IRadAn=      5 IRanWt=     -1 IRanGd=            0 ICorTp=0
  HFx wShort=  0.000000 wLong=  0.550000 cFull=  0.000000 cShort=  0.000000 cLong=  1.000000
  DFx wShort=  0.000000 wLong=  0.550000 cFull=  0.000000 cShort=  0.000000 cLong=  1.000000
 NAtoms=    5 NActive=    1 NUniq=    1 SFac= 1.00D+00 NAtFMM=   60 NAOKFM=F Big=F
 No density basis found on file   718.
 Leave Link  301 at Fri May  8 16:29:32 2020, MaxMem= 1073741824 cpu:       0.3
 (Enter /home/matheus/.gaussian/g09/l302.exe)
 NPDir=0 NMtPBC=     1 NCelOv=     1 NCel=       1 NClECP=     1 NCelD=      1
         NCelK=      1 NCelE2=     1 NClLst=     1 CellRange=     0.0.
 One-electron integrals computed using PRISM.
 One-electron integral symmetry used in STVInt
 NBasis=    59 RedAO= T  NBF=    25     6    14    14
 NBsUse=    59 1.00D-06 NBFU=    25     6    14    14
 Precomputing XC quadrature grid using
 IXCGrd= 2 IRadAn=           5 IRanWt=          -1 IRanGd=           0 AccXCQ= 0.00D+00.
 NRdTot=      81 NPtTot=       30352 NUsed=       30981 NTot=       31013
 NSgBfM=    69    69    69    69    69 NAtAll=     1     1.
 Leave Link  302 at Fri May  8 16:29:33 2020, MaxMem= 1073741824 cpu:       0.7
 (Enter /home/matheus/.gaussian/g09/l303.exe)
 DipDrv:  MaxL=1.
 Leave Link  303 at Fri May  8 16:29:33 2020, MaxMem= 1073741824 cpu:       0.1
 (Enter /home/matheus/.gaussian/g09/l401.exe)
 Initial guess read from the read-write file.
 Guess basis will be translated and rotated to current coordinates.
 Initial guess orbital symmetries:
       Occupied  (A1) (A1) (B2) (B1) (A1) (A1) (B2) (B1) (A1) (B1)
                 (B2) (A2) (A1) (A1) (A1) (A1) (B1) (B2)
       Virtual   (A1) (A1) (B2) (B1) (B1) (B2) (A2) (A1) (A1) (A1)
                 (B2) (B1) (A1) (B2) (A2) (B1) (A1) (A1) (B2) (A1)
                 (B1) (A2) (A1) (B1) (B2) (B2) (A1) (B1) (B1) (B2)
                 (A2) (A1) (A1) (A1) (B2) (B1) (A2) (A1) (B1) (B2)
                 (A1)
 The electronic state of the initial guess is 1-A1.
 Generating alternative initial guess.
 Harris functional with IExCor=32609 diagonalized for initial guess.
 ExpMin= 4.00D-02 ExpMax= 1.17D+07 ExpMxC= 1.33D+04 IAcc=3 IRadAn=         5 AccDes= 0.00D+00
 HarFok:  IExCor=32609 AccDes= 0.00D+00 IRadAn=         5 IDoV= 1
 ScaDFX=  1.000000  1.000000  1.000000  1.000000
 FoFCou: FMM=F IPFlag=           0 FMFlag=      100000 FMFlg1=           0
         NFxFlg=           0 DoJE=T BraDBF=F KetDBF=T FulRan=T
         Omega=  0.000000  0.000000  1.000000  0.000000  0.000000 ICntrl=     500 IOpCl=  0
         NMat0=    1 NMatS0=    1 NMatT0=    0 NMatD0=    1 NMtDS0=    0 NMtDT0=    0
         I1Cent=           4 NGrid=           0.
 Petite list used in FoFCou.
 Harris En= -2753.24576836237    
 Leave Link  401 at Fri May  8 16:29:33 2020, MaxMem= 1073741824 cpu:       1.0
 (Enter /home/matheus/.gaussian/g09/l502.exe)
 Closed shell SCF:
 Requested convergence on RMS density matrix=1.00D-08 within 128 cycles.
 Requested convergence on MAX density matrix=1.00D-06.
 Requested convergence on             energy=1.00D-06.
 No special actions if energy rises.
 Using DIIS extrapolation, IDIIS=  1040.
 Integral symmetry usage will be decided dynamically.
        30923 words used for storage of precomputed grid.
 IEnd=       64522 IEndB=       64522 NGot=  1073741824 MDV=  1073698773
 LenX=  1073698773 LenY=  1073693571
 Fock matrices will be formed incrementally for  20 cycles.

 Cycle   1  Pass 1  IDiag  1:
 FoFJK:  IHMeth= 1 ICntrl=     0 DoSepK=T KAlg= 1 I1Cent= 0 FoldK=F
 FoFCou: FMM=F IPFlag=           0 FMFlag=      100000 FMFlg1=           0
         NFxFlg=           0 DoJE=T BraDBF=F KetDBF=F FulRan=T
         Omega=  0.000000  0.000000  1.000000  0.000000  0.000000 ICntrl=     500 IOpCl=  0
         NMat0=    1 NMatS0=    1 NMatT0=    0 NMatD0=    1 NMtDS0=    0 NMtDT0=    0
         I1Cent=           0 NGrid=           0.
 Petite list used in FoFCou.
 E= -2753.47775989058    
 DIIS: error= 2.18D-13 at cycle   1 NSaved=   1.
 NSaved= 1 IEnMin= 1 EnMin= -2753.47775989058     IErMin= 1 ErrMin= 2.18D-13
 ErrMax= 2.18D-13 EMaxC= 1.00D-01 BMatC= 1.25D-24 BMatP= 1.25D-24
 IDIUse=1 WtCom= 1.00D+00 WtEn= 0.00D+00
 Coeff-Com:  0.100D+01
 Coeff:      0.100D+01
 Gap=     0.626 Goal=   None    Shift=    0.000
 RMSDP=6.99D-15 MaxDP=1.87D-13              OVMax= 1.36D-14

 SCF Done:  E(RLC-wPBE) =  -2753.47775989     A.U. after    1 cycles
             Convg  =    0.6988D-14             -V/T =  2.0014
 KE= 2.749561508178D+03 PE=-6.579099712888D+03 EE= 1.076060444820D+03
 Leave Link  502 at Fri May  8 16:29:34 2020, MaxMem= 1073741824 cpu:      12.6
 (Enter /home/matheus/.gaussian/g09/l122.exe)
 Restoring MOs from calculation   1 to rwf.
 Counterpoise: corrected energy =   -2905.003418191683
 Counterpoise: BSSE energy =       0.000025098716
 Leave Link  122 at Fri May  8 16:29:34 2020, MaxMem= 1073741824 cpu:       0.0
 (Enter /home/matheus/.gaussian/g09/l108.exe)
 Scan completed.

 Summary of the potential surface scan:
   N      R1          SCF    
 ----  ---------  -----------
    1     3.0000  -2753.47776
    2     3.1000  -2753.47776
    3     3.2000  -2753.47776
    4     3.3000  -2753.47776
    5     3.4000  -2753.47776
    6     3.5000  -2753.47776
    7     3.6000  -2753.47776
    8     3.7000  -2753.47776
    9     3.8000  -2753.47776
   10     3.9000  -2753.47776
   11     4.0000  -2753.47776
   12     4.1000  -2753.47776
   13     4.2000  -2753.47776
   14     4.3000  -2753.47776
   15     4.4000  -2753.47776
   16     4.5000  -2753.47776
   17     4.6000  -2753.47776
   18     4.7000  -2753.47776
   19     4.8000  -2753.47776
   20     4.9000  -2753.47776
   21     5.0000  -2753.47776
 ----  ---------  -----------
  
 Leave Link  108 at Fri May  8 16:29:34 2020, MaxMem= 1073741824 cpu:       0.0
 (Enter /home/matheus/.gaussian/g09/l9999.exe)

 Test job not archived.
 1\1\GINC-REDGIANT\Scan\RLC-wPBE\Aug-CC-pVTZ\H2Kr1O2\MATHEUS\08-May-202
 0\1\\#p lc-wpbe/aug-cc-PVTz iop(3/107=0550000000) iop(3/108=0550000000
 ) int=ultrafine counterpoise=2 Scan\\TCC\\0,1\O,0,0.,0.,0.725\O,0,0.,0
 .,-0.725\H,0,0.,0.9187205947,1.0235104166\H,0,0.,0.9187205947,-1.02351
 04166\Kr,0,0.,R1,0.\\R1=3.,s,20,0.1\\Version=EM64L-G09RevC.01\State=1-
 A1\HF=-2753.4777599,-2753.4777599,-2753.4777599,-2753.4777599,-2753.47
 77599,-2753.4777599,-2753.4777599,-2753.4777599,-2753.4777599,-2753.47
 77599,-2753.4777599,-2753.4777599,-2753.4777599,-2753.4777599,-2753.47
 77599,-2753.4777599,-2753.4777599,-2753.4777599,-2753.4777599,-2753.47
 77599,-2753.4777599\RMSD=2.022e-09,5.521e-11,1.044e-11,4.554e-12,2.246
 e-12,1.261e-12,6.919e-13,3.902e-13,2.169e-13,1.241e-13,6.689e-14,3.270
 e-14,1.721e-14,1.145e-14,1.057e-14,8.382e-15,1.808e-14,9.784e-15,4.687
 e-15,1.149e-14,6.988e-15\PG=C02V [C2(Kr1),SGV(H2O2)]\\@


 Luck is a matter of preparation meeting opportunity.
                                    -- Oprah Winfrey
 Job cpu time:  0 days  2 hours  3 minutes 57.1 seconds.
 File lengths (MBytes):  RWF=     33 Int=      0 D2E=      0 Chk=      8 Scr=      1
 Normal termination of Gaussian 09 at Fri May  8 16:29:34 2020.
