 Entering Gaussian System, Link 0=g09
 Input=/home/matheus/.tcc/Inputs-lc-wpbe/H2O2-Kr_3.com
 Output=/home/matheus/.tcc/Logs-lc-wpbe/H2O2-Kr_3.log
 Initial command:
 /home/matheus/.gaussian/g09/l1.exe /home/matheus/.gaussian/g09/scratch/Gau-10346.inp -scrdir=/home/matheus/.gaussian/g09/scratch/
 Entering Link 1 = /home/matheus/.gaussian/g09/l1.exe PID=     10349.
  
 Copyright (c) 1988,1990,1992,1993,1995,1998,2003,2009,2011,
            Gaussian, Inc.  All Rights Reserved.
  
 This is part of the Gaussian(R) 09 program.  It is based on
 the Gaussian(R) 03 system (copyright 2003, Gaussian, Inc.),
 the Gaussian(R) 98 system (copyright 1998, Gaussian, Inc.),
 the Gaussian(R) 94 system (copyright 1995, Gaussian, Inc.),
 the Gaussian 92(TM) system (copyright 1992, Gaussian, Inc.),
 the Gaussian 90(TM) system (copyright 1990, Gaussian, Inc.),
 the Gaussian 88(TM) system (copyright 1988, Gaussian, Inc.),
 the Gaussian 86(TM) system (copyright 1986, Carnegie Mellon
 University), and the Gaussian 82(TM) system (copyright 1983,
 Carnegie Mellon University). Gaussian is a federally registered
 trademark of Gaussian, Inc.
  
 This software contains proprietary and confidential information,
 including trade secrets, belonging to Gaussian, Inc.
  
 This software is provided under written license and may be
 used, copied, transmitted, or stored only in accord with that
 written license.
  
 The following legend is applicable only to US Government
 contracts under FAR:
  
                    RESTRICTED RIGHTS LEGEND
  
 Use, reproduction and disclosure by the US Government is
 subject to restrictions as set forth in subparagraphs (a)
 and (c) of the Commercial Computer Software - Restricted
 Rights clause in FAR 52.227-19.
  
 Gaussian, Inc.
 340 Quinnipiac St., Bldg. 40, Wallingford CT 06492
  
  
 ---------------------------------------------------------------
 Warning -- This program may not be used in any manner that
 competes with the business of Gaussian, Inc. or will provide
 assistance to any competitor of Gaussian, Inc.  The licensee
 of this program is prohibited from giving any competitor of
 Gaussian, Inc. access to this program.  By using this program,
 the user acknowledges that Gaussian, Inc. is engaged in the
 business of creating and licensing software in the field of
 computational chemistry and represents and warrants to the
 licensee that it is not a competitor of Gaussian, Inc. and that
 it will not use this program in any manner prohibited above.
 ---------------------------------------------------------------
  

 Cite this work as:
 Gaussian 09, Revision C.01,
 M. J. Frisch, G. W. Trucks, H. B. Schlegel, G. E. Scuseria, 
 M. A. Robb, J. R. Cheeseman, G. Scalmani, V. Barone, B. Mennucci, 
 G. A. Petersson, H. Nakatsuji, M. Caricato, X. Li, H. P. Hratchian, 
 A. F. Izmaylov, J. Bloino, G. Zheng, J. L. Sonnenberg, M. Hada, 
 M. Ehara, K. Toyota, R. Fukuda, J. Hasegawa, M. Ishida, T. Nakajima, 
 Y. Honda, O. Kitao, H. Nakai, T. Vreven, J. A. Montgomery, Jr., 
 J. E. Peralta, F. Ogliaro, M. Bearpark, J. J. Heyd, E. Brothers, 
 K. N. Kudin, V. N. Staroverov, T. Keith, R. Kobayashi, J. Normand, 
 K. Raghavachari, A. Rendell, J. C. Burant, S. S. Iyengar, J. Tomasi, 
 M. Cossi, N. Rega, J. M. Millam, M. Klene, J. E. Knox, J. B. Cross, 
 V. Bakken, C. Adamo, J. Jaramillo, R. Gomperts, R. E. Stratmann, 
 O. Yazyev, A. J. Austin, R. Cammi, C. Pomelli, J. W. Ochterski, 
 R. L. Martin, K. Morokuma, V. G. Zakrzewski, G. A. Voth, 
 P. Salvador, J. J. Dannenberg, S. Dapprich, A. D. Daniels, 
 O. Farkas, J. B. Foresman, J. V. Ortiz, J. Cioslowski, 
 and D. J. Fox, Gaussian, Inc., Wallingford CT, 2010.
 
 ******************************************
 Gaussian 09:  EM64L-G09RevC.01 23-Sep-2011
                 8-May-2020 
 ******************************************
 %mem=8GB
 %nproc=8
 Will use up to    8 processors via shared memory.
 ----------------------------------------------------------------------
 #p lc-wpbe/aug-cc-PVTz iop(3/107=0550000000) iop(3/108=0550000000) int
 =ultrafine counterpoise=2 Scan
 ----------------------------------------------------------------------
 1/38=1,60=1,62=2/1,8;
 2/12=2,17=6,18=5,29=3,40=1/2;
 1/38=1,53=5172,62=2/22;
 3/5=16,6=1,7=10,11=2,16=1,25=1,30=1,74=-41,75=-5,107=550000000,108=550000000/1,2,3;
 4//1;
 5/5=2,38=5/2;
 6/7=2,8=2,9=2,10=2,18=1,28=1/1;
 1/53=4052,62=2,63=1/22;
 3/5=7,6=11,7=10,11=2,16=1,25=1,30=1,74=-41,75=-5,82=7,107=550000000,108=550000000/1,2,3;
 4//1;
 5/5=2,38=5/2;
 6/7=2,8=2,9=2,10=2,18=1,28=1/1;
 1/53=3042,62=2,63=2/22;
 3/5=7,6=11,7=10,11=2,16=1,25=1,30=1,74=-41,75=-5,82=7,107=550000000,108=550000000/1,2,3;
 4//1;
 5/5=2,38=5/2;
 6/7=2,8=2,9=2,10=2,18=1,28=1/1;
 1/53=2032,62=2,63=3/22;
 3/5=7,6=11,7=10,11=2,16=1,25=1,30=1,74=-41,75=-5,82=7,107=550000000,108=550000000/1,2,3;
 4//1;
 5/5=2,38=5/2;
 6/7=2,8=2,9=2,10=2,18=1,28=1/1;
 1/53=1022,62=2,63=4/22;
 3/5=7,6=11,7=10,11=2,16=1,25=1,30=1,74=-41,75=-5,82=7,107=550000000,108=550000000/1,2,3;
 4//1;
 5/5=2,38=5/2;
 6/7=2,8=2,9=2,10=2,18=1,28=1/1;
 1/53=5014,62=2,63=5/22;
 1/60=1,62=2/8(1);
 99/9=1/99;
 2/29=3/2;
 1/53=5173,62=2/22;
 3/5=7,6=11,7=10,11=2,16=1,25=1,30=1,74=-41,75=-5,82=7,107=550000000,108=550000000/1,2,3;
 4/5=5,16=3/1;
 5/5=2,38=5/2;
 1/53=4053,62=2,63=1/22;
 3/5=7,6=11,7=10,11=2,16=1,25=1,30=1,74=-41,75=-5,82=7,107=550000000,108=550000000/1,2,3;
 4/5=5,16=3/1;
 5/5=2,38=5/2;
 1/53=3043,62=2,63=2/22;
 3/5=7,6=11,7=10,11=2,16=1,25=1,30=1,74=-41,75=-5,82=7,107=550000000,108=550000000/1,2,3;
 4/5=5,16=3/1;
 5/5=2,38=5/2;
 1/53=2033,62=2,63=3/22;
 3/5=7,6=11,7=10,11=2,16=1,25=1,30=1,74=-41,75=-5,82=7,107=550000000,108=550000000/1,2,3;
 4/5=5,16=3/1;
 5/5=2,38=5/2;
 1/53=1024,62=2,63=4/22;
 3/5=7,6=11,7=10,11=2,16=1,25=1,30=1,74=-41,75=-5,82=7,107=550000000,108=550000000/1,2,3;
 4/5=5,16=3/1;
 5/5=2,38=5/2;
 1/53=5014,62=2,63=5/22;
 1/60=1,62=2/8(-22);
 99/9=1/99;
 Leave Link    1 at Fri May  8 09:13:39 2020, MaxMem= 1073741824 cpu:       0.1
 (Enter /home/matheus/.gaussian/g09/l101.exe)
 ---
 TCC
 ---
 Charge =  0 Multiplicity = 1 in supermolecule
 Charge =  0 Multiplicity = 1 in fragment  1.
 Charge =  0 Multiplicity = 1 in fragment  2.
 Symbolic Z-Matrix:
 O(Fragment=1)         0.        0.        0.725 
 O(Fragment=1)         0.        0.       -0.725 
 H(Fragment=1)         0.45936   0.79564   1.02351 
 H(Fragment=1)         0.        0.91872  -1.02351 
 Kr(Fragment=2)        0.       R1        0. 
       Variables:
  R1                    3.     Scan 20    0.1    
 
 NAtoms=      5 NQM=        0 NQMF=       0 NMMI=      5 NMMIF=      0
                NMic=       0 NMicF=      0.
                    Isotopes and Nuclear Properties:
 (Nuclear quadrupole moments (NQMom) in fm**2, nuclear magnetic moments (NMagM)
  in nuclear magnetons)

  Atom         1           2           3           4           5
 IAtWgt=          16          16           1           1          84
 AtmWgt=  15.9949146  15.9949146   1.0078250   1.0078250  83.9115064
 NucSpn=           0           0           1           1           0
 AtZEff=   0.0000000   0.0000000   0.0000000   0.0000000   0.0000000
 NQMom=    0.0000000   0.0000000   0.0000000   0.0000000   0.0000000
 NMagM=    0.0000000   0.0000000   2.7928460   2.7928460   0.0000000
 Leave Link  101 at Fri May  8 09:13:39 2020, MaxMem= 1073741824 cpu:       0.3
 (Enter /home/matheus/.gaussian/g09/l108.exe)
 Scan the potential surface.
 Variable   Value     No. Steps Step-Size
 -------- ----------- --------- ---------
     1       3.000000      20      0.1000
 A total of     21 points will be computed.
 Leave Link  108 at Fri May  8 09:13:39 2020, MaxMem= 1073741824 cpu:       0.0
 (Enter /home/matheus/.gaussian/g09/l202.exe)
 ---------------------------------------------------------------------------------------------------
                            Z-MATRIX (ANGSTROMS AND DEGREES)
   CD    Cent   Atom    N1       Length/X        N2       Alpha/Y        N3        Beta/Z          J
 ---------------------------------------------------------------------------------------------------
      1      1  O        0   0.000000          0.000000          0.725000
      2      2  O        0   0.000000          0.000000         -0.725000
      3      3  H        0   0.459360          0.795635          1.023510
      4      4  H        0   0.000000          0.918721         -1.023510
      5      5  Kr       0   0.000000          3.000000          0.000000
 ---------------------------------------------------------------------------------------------------
                         Z-Matrix orientation:                         
 ---------------------------------------------------------------------
 Center     Atomic      Atomic             Coordinates (Angstroms)
 Number     Number       Type             X           Y           Z
 ---------------------------------------------------------------------
      1          8           0        0.000000    0.000000    0.725000
      2          8           0        0.000000    0.000000   -0.725000
      3          1           0        0.459360    0.795635    1.023510
      4          1           0        0.000000    0.918721   -1.023510
      5         36           0        0.000000    3.000000    0.000000
 ---------------------------------------------------------------------
                    Distance matrix (angstroms):
                    1          2          3          4          5
     1  O    0.000000
     2  O    1.450000   0.000000
     3  H    0.966000   1.975180   0.000000
     4  H    1.975180   0.966000   2.101537   0.000000
     5  Kr   3.086361   3.086361   2.473420   2.319331   0.000000
 Stoichiometry    H2KrO2
 Framework group  C1[X(H2KrO2)]
 Deg. of freedom     9
 Full point group                 C1      NOp   1
 Largest Abelian subgroup         C1      NOp   1
 Largest concise Abelian subgroup C1      NOp   1
                         Standard orientation:                         
 ---------------------------------------------------------------------
 Center     Atomic      Atomic             Coordinates (Angstroms)
 Number     Number       Type             X           Y           Z
 ---------------------------------------------------------------------
      1          8           0        2.032679   -0.720517   -0.052579
      2          8           0        2.030654    0.727985    0.013298
      3          1           0        1.240025   -1.040895    0.397102
      4          1           0        1.111532    1.024673    0.031898
      5         36           0       -0.968284   -0.001209   -0.003188
 ---------------------------------------------------------------------
 Rotational constants (GHZ):     26.4110984      2.3830252      2.1895357
 Leave Link  202 at Fri May  8 09:13:39 2020, MaxMem= 1073741824 cpu:       0.0
 (Enter /home/matheus/.gaussian/g09/l122.exe)
 Leave Link  122 at Fri May  8 09:13:39 2020, MaxMem= 1073741824 cpu:       0.0
 (Enter /home/matheus/.gaussian/g09/l301.exe)
 Standard basis: Aug-CC-pVTZ (5D, 7F)
 Ernie: Thresh=  0.10000D-02 Tol=  0.10000D-05 Strict=F.
 Ernie:  38 primitive shells out of 205 were deleted.
 There are   197 symmetry adapted basis functions of A   symmetry.
 Integral buffers will be    131072 words long.
 Raffenetti 2 integral format.
 Two-electron integral symmetry is turned on.
   197 basis functions,   415 primitive gaussians,   229 cartesian basis functions
    27 alpha electrons       27 beta electrons
       nuclear repulsion energy       151.3348661682 Hartrees.
 IExCor=32609 DFT=T Ex+Corr=LC-wPBE ExCW=0 ScaHFX=  1.000000
 ScaDFX=  1.000000  0.000000  1.000000  1.000000 ScalE2=  1.000000  1.000000
 IRadAn=      5 IRanWt=     -1 IRanGd=            0 ICorTp=0
  HFx wShort=  0.000000 wLong=  0.550000 cFull=  0.000000 cShort=  0.000000 cLong=  1.000000
  DFx wShort=  0.000000 wLong=  0.550000 cFull=  0.000000 cShort=  0.000000 cLong=  1.000000
 NAtoms=    5 NActive=    5 NUniq=    5 SFac= 1.00D+00 NAtFMM=   60 NAOKFM=F Big=F
 Leave Link  301 at Fri May  8 09:13:39 2020, MaxMem= 1073741824 cpu:       0.2
 (Enter /home/matheus/.gaussian/g09/l302.exe)
 NPDir=0 NMtPBC=     1 NCelOv=     1 NCel=       1 NClECP=     1 NCelD=      1
         NCelK=      1 NCelE2=     1 NClLst=     1 CellRange=     0.0.
 One-electron integrals computed using PRISM.
 NBasis=   197 RedAO= T  NBF=   197
 NBsUse=   197 1.00D-06 NBFU=   197
 Precomputing XC quadrature grid using
 IXCGrd= 2 IRadAn=           5 IRanWt=          -1 IRanGd=           0 AccXCQ= 0.00D+00.
 NRdTot=     427 NPtTot=      123512 NUsed=      126579 NTot=      126611
 NSgBfM=   229   229   229   229   229 NAtAll=     5     5.
 Leave Link  302 at Fri May  8 09:13:40 2020, MaxMem= 1073741824 cpu:       1.0
 (Enter /home/matheus/.gaussian/g09/l303.exe)
 DipDrv:  MaxL=1.
 Leave Link  303 at Fri May  8 09:13:40 2020, MaxMem= 1073741824 cpu:       0.2
 (Enter /home/matheus/.gaussian/g09/l401.exe)
 Harris functional with IExCor=32609 diagonalized for initial guess.
 ExpMin= 2.53D-02 ExpMax= 1.17D+07 ExpMxC= 1.33D+04 IAcc=3 IRadAn=         5 AccDes= 0.00D+00
 HarFok:  IExCor=32609 AccDes= 0.00D+00 IRadAn=         5 IDoV= 1
 ScaDFX=  1.000000  1.000000  1.000000  1.000000
 FoFCou: FMM=F IPFlag=           0 FMFlag=      100000 FMFlg1=           0
         NFxFlg=           0 DoJE=T BraDBF=F KetDBF=T FulRan=T
         Omega=  0.000000  0.000000  1.000000  0.000000  0.000000 ICntrl=     500 IOpCl=  0
         NMat0=    1 NMatS0=    1 NMatT0=    0 NMatD0=    1 NMtDS0=    0 NMtDT0=    0
         I1Cent=           4 NGrid=           0.
 Petite list used in FoFCou.
 Harris En= -2904.73199376591    
 Initial guess orbital symmetries:
       Occupied  (A) (A) (A) (A) (A) (A) (A) (A) (A) (A) (A) (A)
                 (A) (A) (A) (A) (A) (A) (A) (A) (A) (A) (A) (A)
                 (A) (A) (A)
       Virtual   (A) (A) (A) (A) (A) (A) (A) (A) (A) (A) (A) (A)
                 (A) (A) (A) (A) (A) (A) (A) (A) (A) (A) (A) (A)
                 (A) (A) (A) (A) (A) (A) (A) (A) (A) (A) (A) (A)
                 (A) (A) (A) (A) (A) (A) (A) (A) (A) (A) (A) (A)
                 (A) (A) (A) (A) (A) (A) (A) (A) (A) (A) (A) (A)
                 (A) (A) (A) (A) (A) (A) (A) (A) (A) (A) (A) (A)
                 (A) (A) (A) (A) (A) (A) (A) (A) (A) (A) (A) (A)
                 (A) (A) (A) (A) (A) (A) (A) (A) (A) (A) (A) (A)
                 (A) (A) (A) (A) (A) (A) (A) (A) (A) (A) (A) (A)
                 (A) (A) (A) (A) (A) (A) (A) (A) (A) (A) (A) (A)
                 (A) (A) (A) (A) (A) (A) (A) (A) (A) (A) (A) (A)
                 (A) (A) (A) (A) (A) (A) (A) (A) (A) (A) (A) (A)
                 (A) (A) (A) (A) (A) (A) (A) (A) (A) (A) (A) (A)
                 (A) (A) (A) (A) (A) (A) (A) (A) (A) (A) (A) (A)
                 (A) (A)
 The electronic state of the initial guess is 1-A.
 Leave Link  401 at Fri May  8 09:13:40 2020, MaxMem= 1073741824 cpu:       4.4
 (Enter /home/matheus/.gaussian/g09/l502.exe)
 Closed shell SCF:
 Requested convergence on RMS density matrix=1.00D-08 within 128 cycles.
 Requested convergence on MAX density matrix=1.00D-06.
 Requested convergence on             energy=1.00D-06.
 No special actions if energy rises.
 Using DIIS extrapolation, IDIIS=  1040.
 Integral symmetry usage will be decided dynamically.
       126521 words used for storage of precomputed grid.
 IEnd=      305468 IEndB=      305468 NGot=  1073741824 MDV=  1073505667
 LenX=  1073505667 LenY=  1073452785
 Fock matrices will be formed incrementally for  20 cycles.

 Cycle   1  Pass 1  IDiag  1:
 FoFJK:  IHMeth= 1 ICntrl=     0 DoSepK=T KAlg= 1 I1Cent= 0 FoldK=F
 FoFCou: FMM=F IPFlag=           0 FMFlag=      100000 FMFlg1=           0
         NFxFlg=           0 DoJE=T BraDBF=F KetDBF=F FulRan=T
         Omega=  0.000000  0.000000  1.000000  0.000000  0.000000 ICntrl=     500 IOpCl=  0
         NMat0=    1 NMatS0=    1 NMatT0=    0 NMatD0=    1 NMtDS0=    0 NMtDT0=    0
         I1Cent=           0 NGrid=           0.
 Symmetry not used in FoFCou.
 E= -2904.92166654693    
 DIIS: error= 3.11D-02 at cycle   1 NSaved=   1.
 NSaved= 1 IEnMin= 1 EnMin= -2904.92166654693     IErMin= 1 ErrMin= 3.11D-02
 ErrMax= 3.11D-02 EMaxC= 1.00D-01 BMatC= 2.75D-01 BMatP= 2.75D-01
 IDIUse=3 WtCom= 6.89D-01 WtEn= 3.11D-01
 Coeff-Com:  0.100D+01
 Coeff-En:   0.100D+01
 Coeff:      0.100D+01
 Gap=     0.544 Goal=   None    Shift=    0.000
 GapD=    0.544 DampG=2.000 DampE=0.500 DampFc=1.0000 IDamp=-1.
 RMSDP=2.29D-03 MaxDP=1.48D-01              OVMax= 7.27D-02

 Cycle   2  Pass 1  IDiag  1:
 RMSU=  1.59D-03    CP:  1.02D+00
 FoFJK:  IHMeth= 1 ICntrl=     0 DoSepK=T KAlg= 1 I1Cent= 0 FoldK=F
 E= -2904.97350052625     Delta-E=       -0.051833979321 Rises=F Damp=F
 DIIS: error= 1.11D-02 at cycle   2 NSaved=   2.
 NSaved= 2 IEnMin= 2 EnMin= -2904.97350052625     IErMin= 2 ErrMin= 1.11D-02
 ErrMax= 1.11D-02 EMaxC= 1.00D-01 BMatC= 7.26D-02 BMatP= 2.75D-01
 IDIUse=3 WtCom= 8.89D-01 WtEn= 1.11D-01
 Coeff-Com:  0.332D+00 0.668D+00
 Coeff-En:   0.114D+00 0.886D+00
 Coeff:      0.308D+00 0.692D+00
 Gap=     0.471 Goal=   None    Shift=    0.000
 RMSDP=9.35D-04 MaxDP=5.17D-02 DE=-5.18D-02 OVMax= 2.98D-02

 Cycle   3  Pass 1  IDiag  1:
 RMSU=  3.18D-04    CP:  1.01D+00  6.46D-01
 FoFJK:  IHMeth= 1 ICntrl=     0 DoSepK=T KAlg= 1 I1Cent= 0 FoldK=F
 E= -2904.99894975239     Delta-E=       -0.025449226144 Rises=F Damp=F
 DIIS: error= 1.71D-03 at cycle   3 NSaved=   3.
 NSaved= 3 IEnMin= 3 EnMin= -2904.99894975239     IErMin= 3 ErrMin= 1.71D-03
 ErrMax= 1.71D-03 EMaxC= 1.00D-01 BMatC= 1.48D-03 BMatP= 7.26D-02
 IDIUse=3 WtCom= 9.83D-01 WtEn= 1.71D-02
 Coeff-Com:  0.445D-01 0.172D+00 0.783D+00
 Coeff-En:   0.000D+00 0.000D+00 0.100D+01
 Coeff:      0.438D-01 0.169D+00 0.787D+00
 Gap=     0.453 Goal=   None    Shift=    0.000
 RMSDP=1.05D-04 MaxDP=2.65D-03 DE=-2.54D-02 OVMax= 6.38D-03

 Cycle   4  Pass 1  IDiag  1:
 RMSU=  5.27D-05    CP:  1.01D+00  6.75D-01  9.20D-01
 FoFJK:  IHMeth= 1 ICntrl=     0 DoSepK=T KAlg= 1 I1Cent= 0 FoldK=F
 E= -2904.99971091192     Delta-E=       -0.000761159527 Rises=F Damp=F
 DIIS: error= 4.76D-04 at cycle   4 NSaved=   4.
 NSaved= 4 IEnMin= 4 EnMin= -2904.99971091192     IErMin= 4 ErrMin= 4.76D-04
 ErrMax= 4.76D-04 EMaxC= 1.00D-01 BMatC= 9.38D-05 BMatP= 1.48D-03
 IDIUse=3 WtCom= 9.95D-01 WtEn= 4.76D-03
 Coeff-Com: -0.656D-02 0.162D-01 0.261D+00 0.729D+00
 Coeff-En:   0.000D+00 0.000D+00 0.000D+00 0.100D+01
 Coeff:     -0.653D-02 0.161D-01 0.260D+00 0.731D+00
 Gap=     0.457 Goal=   None    Shift=    0.000
 RMSDP=3.42D-05 MaxDP=1.62D-03 DE=-7.61D-04 OVMax= 1.79D-03

 Cycle   5  Pass 1  IDiag  1:
 RMSU=  1.25D-05    CP:  1.01D+00  6.78D-01  9.78D-01  8.44D-01
 FoFJK:  IHMeth= 1 ICntrl=     0 DoSepK=T KAlg= 1 I1Cent= 0 FoldK=F
 E= -2904.99976803050     Delta-E=       -0.000057118588 Rises=F Damp=F
 DIIS: error= 8.39D-05 at cycle   5 NSaved=   5.
 NSaved= 5 IEnMin= 5 EnMin= -2904.99976803050     IErMin= 5 ErrMin= 8.39D-05
 ErrMax= 8.39D-05 EMaxC= 1.00D-01 BMatC= 1.72D-06 BMatP= 9.38D-05
 IDIUse=1 WtCom= 1.00D+00 WtEn= 0.00D+00
 Coeff-Com: -0.188D-02-0.584D-02-0.190D-01 0.546D-01 0.972D+00
 Coeff:     -0.188D-02-0.584D-02-0.190D-01 0.546D-01 0.972D+00
 Gap=     0.457 Goal=   None    Shift=    0.000
 RMSDP=6.62D-06 MaxDP=2.26D-04 DE=-5.71D-05 OVMax= 4.58D-04

 Cycle   6  Pass 1  IDiag  1:
 RMSU=  2.86D-06    CP:  1.01D+00  6.78D-01  9.82D-01  8.98D-01  1.16D+00
 FoFJK:  IHMeth= 1 ICntrl=     0 DoSepK=T KAlg= 1 I1Cent= 0 FoldK=F
 E= -2904.99977001972     Delta-E=       -0.000001989211 Rises=F Damp=F
 DIIS: error= 2.62D-05 at cycle   6 NSaved=   6.
 NSaved= 6 IEnMin= 6 EnMin= -2904.99977001972     IErMin= 6 ErrMin= 2.62D-05
 ErrMax= 2.62D-05 EMaxC= 1.00D-01 BMatC= 2.59D-07 BMatP= 1.72D-06
 IDIUse=1 WtCom= 1.00D+00 WtEn= 0.00D+00
 Coeff-Com: -0.141D-03-0.292D-02-0.233D-01-0.312D-01 0.255D+00 0.803D+00
 Coeff:     -0.141D-03-0.292D-02-0.233D-01-0.312D-01 0.255D+00 0.803D+00
 Gap=     0.457 Goal=   None    Shift=    0.000
 RMSDP=2.63D-06 MaxDP=1.17D-04 DE=-1.99D-06 OVMax= 2.07D-04

 Cycle   7  Pass 1  IDiag  1:
 RMSU=  1.24D-06    CP:  1.01D+00  6.78D-01  9.84D-01  9.10D-01  1.24D+00
                    CP:  1.02D+00
 FoFJK:  IHMeth= 1 ICntrl=     0 DoSepK=T KAlg= 1 I1Cent= 0 FoldK=F
 E= -2904.99977024229     Delta-E=       -0.000000222577 Rises=F Damp=F
 DIIS: error= 1.70D-05 at cycle   7 NSaved=   7.
 NSaved= 7 IEnMin= 7 EnMin= -2904.99977024229     IErMin= 7 ErrMin= 1.70D-05
 ErrMax= 1.70D-05 EMaxC= 1.00D-01 BMatC= 8.47D-08 BMatP= 2.59D-07
 IDIUse=1 WtCom= 1.00D+00 WtEn= 0.00D+00
 Coeff-Com:  0.122D-03-0.715D-03-0.835D-02-0.196D-01 0.173D-02 0.387D+00
 Coeff-Com:  0.640D+00
 Coeff:      0.122D-03-0.715D-03-0.835D-02-0.196D-01 0.173D-02 0.387D+00
 Coeff:      0.640D+00
 Gap=     0.457 Goal=   None    Shift=    0.000
 RMSDP=1.01D-06 MaxDP=5.05D-05 DE=-2.23D-07 OVMax= 8.58D-05

 Cycle   8  Pass 1  IDiag  1:
 RMSU=  4.88D-07    CP:  1.01D+00  6.78D-01  9.84D-01  9.12D-01  1.26D+00
                    CP:  1.12D+00  8.95D-01
 FoFJK:  IHMeth= 1 ICntrl=     0 DoSepK=T KAlg= 1 I1Cent= 0 FoldK=F
 E= -2904.99977032015     Delta-E=       -0.000000077862 Rises=F Damp=F
 DIIS: error= 5.81D-06 at cycle   8 NSaved=   8.
 NSaved= 8 IEnMin= 8 EnMin= -2904.99977032015     IErMin= 8 ErrMin= 5.81D-06
 ErrMax= 5.81D-06 EMaxC= 1.00D-01 BMatC= 2.81D-09 BMatP= 8.47D-08
 IDIUse=1 WtCom= 1.00D+00 WtEn= 0.00D+00
 Coeff-Com:  0.704D-05 0.469D-03 0.403D-02 0.621D-02-0.336D-01-0.154D+00
 Coeff-Com: -0.808D-01 0.126D+01
 Coeff:      0.704D-05 0.469D-03 0.403D-02 0.621D-02-0.336D-01-0.154D+00
 Coeff:     -0.808D-01 0.126D+01
 Gap=     0.457 Goal=   None    Shift=    0.000
 RMSDP=6.25D-07 MaxDP=1.99D-05 DE=-7.79D-08 OVMax= 6.19D-05

 Cycle   9  Pass 1  IDiag  1:
 RMSU=  1.21D-07    CP:  1.01D+00  6.78D-01  9.85D-01  9.14D-01  1.28D+00
                    CP:  1.15D+00  1.07D+00  1.54D+00
 FoFJK:  IHMeth= 1 ICntrl=     0 DoSepK=T KAlg= 1 I1Cent= 0 FoldK=F
 E= -2904.99977032931     Delta-E=       -0.000000009158 Rises=F Damp=F
 DIIS: error= 1.66D-06 at cycle   9 NSaved=   9.
 NSaved= 9 IEnMin= 9 EnMin= -2904.99977032931     IErMin= 9 ErrMin= 1.66D-06
 ErrMax= 1.66D-06 EMaxC= 1.00D-01 BMatC= 1.41D-10 BMatP= 2.81D-09
 IDIUse=1 WtCom= 1.00D+00 WtEn= 0.00D+00
 Coeff-Com: -0.820D-05-0.248D-04-0.107D-03 0.818D-04 0.495D-02 0.220D-02
 Coeff-Com: -0.240D-01-0.190D+00 0.121D+01
 Coeff:     -0.820D-05-0.248D-04-0.107D-03 0.818D-04 0.495D-02 0.220D-02
 Coeff:     -0.240D-01-0.190D+00 0.121D+01
 Gap=     0.457 Goal=   None    Shift=    0.000
 RMSDP=1.72D-07 MaxDP=6.72D-06 DE=-9.16D-09 OVMax= 1.78D-05

 Cycle  10  Pass 1  IDiag  1:
 RMSU=  3.60D-08    CP:  1.01D+00  6.78D-01  9.85D-01  9.14D-01  1.28D+00
                    CP:  1.14D+00  1.09D+00  1.70D+00  1.40D+00
 FoFJK:  IHMeth= 1 ICntrl=     0 DoSepK=T KAlg= 1 I1Cent= 0 FoldK=F
 E= -2904.99977032986     Delta-E=       -0.000000000550 Rises=F Damp=F
 DIIS: error= 4.55D-07 at cycle  10 NSaved=  10.
 NSaved=10 IEnMin=10 EnMin= -2904.99977032986     IErMin=10 ErrMin= 4.55D-07
 ErrMax= 4.55D-07 EMaxC= 1.00D-01 BMatC= 1.50D-11 BMatP= 1.41D-10
 IDIUse=1 WtCom= 1.00D+00 WtEn= 0.00D+00
 Coeff-Com: -0.864D-06-0.425D-04-0.355D-03-0.633D-03 0.309D-02 0.156D-01
 Coeff-Com:  0.752D-02-0.133D+00 0.779D-01 0.103D+01
 Coeff:     -0.864D-06-0.425D-04-0.355D-03-0.633D-03 0.309D-02 0.156D-01
 Coeff:      0.752D-02-0.133D+00 0.779D-01 0.103D+01
 Gap=     0.457 Goal=   None    Shift=    0.000
 RMSDP=4.47D-08 MaxDP=1.58D-06 DE=-5.50D-10 OVMax= 5.02D-06

 Cycle  11  Pass 1  IDiag  1:
 RMSU=  1.03D-08    CP:  1.01D+00  6.78D-01  9.85D-01  9.14D-01  1.28D+00
                    CP:  1.14D+00  1.09D+00  1.73D+00  1.53D+00  1.22D+00
 FoFJK:  IHMeth= 1 ICntrl=     0 DoSepK=T KAlg= 1 I1Cent= 0 FoldK=F
 E= -2904.99977032990     Delta-E=       -0.000000000040 Rises=F Damp=F
 DIIS: error= 9.46D-08 at cycle  11 NSaved=  11.
 NSaved=11 IEnMin=11 EnMin= -2904.99977032990     IErMin=11 ErrMin= 9.46D-08
 ErrMax= 9.46D-08 EMaxC= 1.00D-01 BMatC= 1.09D-12 BMatP= 1.50D-11
 IDIUse=1 WtCom= 1.00D+00 WtEn= 0.00D+00
 Coeff-Com:  0.762D-06 0.636D-05 0.499D-04 0.365D-04-0.824D-03-0.102D-02
 Coeff-Com:  0.205D-02 0.252D-01-0.110D+00-0.114D+00 0.120D+01
 Coeff:      0.762D-06 0.636D-05 0.499D-04 0.365D-04-0.824D-03-0.102D-02
 Coeff:      0.205D-02 0.252D-01-0.110D+00-0.114D+00 0.120D+01
 Gap=     0.457 Goal=   None    Shift=    0.000
 RMSDP=1.18D-08 MaxDP=2.09D-07 DE=-4.00D-11 OVMax= 1.49D-06

 Cycle  12  Pass 1  IDiag  1:
 RMSU=  2.66D-09    CP:  1.01D+00  6.78D-01  9.85D-01  9.14D-01  1.28D+00
                    CP:  1.14D+00  1.09D+00  1.74D+00  1.56D+00  1.35D+00
                    CP:  1.37D+00
 FoFJK:  IHMeth= 1 ICntrl=     0 DoSepK=T KAlg= 1 I1Cent= 0 FoldK=F
 E= -2904.99977032991     Delta-E=       -0.000000000007 Rises=F Damp=F
 DIIS: error= 1.94D-08 at cycle  12 NSaved=  12.
 NSaved=12 IEnMin=12 EnMin= -2904.99977032991     IErMin=12 ErrMin= 1.94D-08
 ErrMax= 1.94D-08 EMaxC= 1.00D-01 BMatC= 5.22D-14 BMatP= 1.09D-12
 IDIUse=1 WtCom= 1.00D+00 WtEn= 0.00D+00
 Coeff-Com: -0.112D-07 0.224D-05 0.185D-04 0.381D-04-0.191D-03-0.777D-03
 Coeff-Com: -0.337D-03 0.659D-02 0.219D-02-0.468D-01-0.432D-01 0.108D+01
 Coeff:     -0.112D-07 0.224D-05 0.185D-04 0.381D-04-0.191D-03-0.777D-03
 Coeff:     -0.337D-03 0.659D-02 0.219D-02-0.468D-01-0.432D-01 0.108D+01
 Gap=     0.457 Goal=   None    Shift=    0.000
 RMSDP=2.14D-09 MaxDP=7.15D-08 DE=-6.82D-12 OVMax= 1.64D-07

 SCF Done:  E(RLC-wPBE) =  -2904.99977033     A.U. after   12 cycles
             Convg  =    0.2136D-08             -V/T =  2.0017
 KE= 2.900054316073D+03 PE=-7.238811840338D+03 EE= 1.282422887767D+03
 Leave Link  502 at Fri May  8 09:14:21 2020, MaxMem= 1073741824 cpu:     321.7
 (Enter /home/matheus/.gaussian/g09/l601.exe)
 Copying SCF densities to generalized density rwf, IOpCl= 0 IROHF=0.

 **********************************************************************

            Population analysis using the SCF density.

 **********************************************************************

 Orbital symmetries:
       Occupied  (A) (A) (A) (A) (A) (A) (A) (A) (A) (A) (A) (A)
                 (A) (A) (A) (A) (A) (A) (A) (A) (A) (A) (A) (A)
                 (A) (A) (A)
       Virtual   (A) (A) (A) (A) (A) (A) (A) (A) (A) (A) (A) (A)
                 (A) (A) (A) (A) (A) (A) (A) (A) (A) (A) (A) (A)
                 (A) (A) (A) (A) (A) (A) (A) (A) (A) (A) (A) (A)
                 (A) (A) (A) (A) (A) (A) (A) (A) (A) (A) (A) (A)
                 (A) (A) (A) (A) (A) (A) (A) (A) (A) (A) (A) (A)
                 (A) (A) (A) (A) (A) (A) (A) (A) (A) (A) (A) (A)
                 (A) (A) (A) (A) (A) (A) (A) (A) (A) (A) (A) (A)
                 (A) (A) (A) (A) (A) (A) (A) (A) (A) (A) (A) (A)
                 (A) (A) (A) (A) (A) (A) (A) (A) (A) (A) (A) (A)
                 (A) (A) (A) (A) (A) (A) (A) (A) (A) (A) (A) (A)
                 (A) (A) (A) (A) (A) (A) (A) (A) (A) (A) (A) (A)
                 (A) (A) (A) (A) (A) (A) (A) (A) (A) (A) (A) (A)
                 (A) (A) (A) (A) (A) (A) (A) (A) (A) (A) (A) (A)
                 (A) (A) (A) (A) (A) (A) (A) (A) (A) (A) (A) (A)
                 (A) (A)
 The electronic state is 1-A.
 Alpha  occ. eigenvalues -- -511.22206 -66.77033 -60.43150 -60.43140 -60.43128
 Alpha  occ. eigenvalues --  -19.11025 -19.10884  -9.70597  -7.44879  -7.44849
 Alpha  occ. eigenvalues --   -7.44814  -3.39285  -3.39282  -3.39254  -3.39232
 Alpha  occ. eigenvalues --   -3.39228  -1.32225  -1.12708  -1.09233  -0.74538
 Alpha  occ. eigenvalues --   -0.60135  -0.59353  -0.56894  -0.56072  -0.55095
 Alpha  occ. eigenvalues --   -0.51816  -0.42373
 Alpha virt. eigenvalues --    0.03343   0.04368   0.08281   0.09129   0.10842
 Alpha virt. eigenvalues --    0.12111   0.13130   0.15566   0.17536   0.18380
 Alpha virt. eigenvalues --    0.18471   0.19860   0.21060   0.22181   0.24136
 Alpha virt. eigenvalues --    0.24603   0.25245   0.28072   0.31468   0.34347
 Alpha virt. eigenvalues --    0.34993   0.36404   0.38786   0.39379   0.40681
 Alpha virt. eigenvalues --    0.43469   0.45423   0.49143   0.53971   0.55223
 Alpha virt. eigenvalues --    0.60170   0.62112   0.62518   0.65372   0.67810
 Alpha virt. eigenvalues --    0.69926   0.71577   0.74834   0.75423   0.76893
 Alpha virt. eigenvalues --    0.77636   0.78949   0.82129   0.84012   0.87195
 Alpha virt. eigenvalues --    0.87911   0.88929   0.89875   0.91497   0.93689
 Alpha virt. eigenvalues --    0.95669   0.96321   0.98516   1.00735   1.02707
 Alpha virt. eigenvalues --    1.05069   1.05819   1.07856   1.09370   1.12937
 Alpha virt. eigenvalues --    1.15447   1.21353   1.24174   1.25011   1.26996
 Alpha virt. eigenvalues --    1.33557   1.36243   1.40574   1.42107   1.47903
 Alpha virt. eigenvalues --    1.51914   1.53504   1.55981   1.58381   1.62615
 Alpha virt. eigenvalues --    1.63571   1.70429   1.87018   1.91786   1.97308
 Alpha virt. eigenvalues --    2.02234   2.10381   2.11118   2.16554   2.16981
 Alpha virt. eigenvalues --    2.18310   2.23671   2.24748   2.25287   2.32482
 Alpha virt. eigenvalues --    2.32897   2.34981   2.36551   2.36806   2.38167
 Alpha virt. eigenvalues --    2.41944   2.43842   2.47155   2.51490   2.52536
 Alpha virt. eigenvalues --    2.54493   2.55419   2.59592   2.61341   2.62520
 Alpha virt. eigenvalues --    2.64884   2.70190   2.72181   2.73331   2.77025
 Alpha virt. eigenvalues --    2.78046   2.80187   2.84414   2.93416   2.95181
 Alpha virt. eigenvalues --    2.96983   3.10020   3.14739   3.16337   3.63166
 Alpha virt. eigenvalues --    3.73213   3.94458   4.03467   4.05076   4.10309
 Alpha virt. eigenvalues --    4.19189   4.21616   4.23701   4.25464   4.27791
 Alpha virt. eigenvalues --    4.47789   4.56755   4.59177   4.69780   4.73100
 Alpha virt. eigenvalues --    5.03314   5.03972   5.10819   5.12894   5.13746
 Alpha virt. eigenvalues --    5.18368   5.52515   5.87483   6.07289   6.10555
 Alpha virt. eigenvalues --    6.17046   6.40132   6.42711   6.50456   6.61044
 Alpha virt. eigenvalues --    6.72294   6.76820   6.82400   6.87734   6.89209
 Alpha virt. eigenvalues --    6.90446   6.93661   6.94810   6.96043   7.12109
 Alpha virt. eigenvalues --    7.18830   7.21675   7.28367   7.41354   7.60154
 Alpha virt. eigenvalues --    8.01519   8.03440   8.19810  13.86021  14.66357
          Condensed to atoms (all electrons):
              1          2          3          4          5
     1  O    8.264478  -0.236005   0.174030   0.028874  -0.021656
     2  O   -0.236005   8.251560   0.034419   0.186628  -0.012659
     3  H    0.174030   0.034419   0.605404  -0.015280  -0.007421
     4  H    0.028874   0.186628  -0.015280   0.600002  -0.019309
     5  Kr  -0.021656  -0.012659  -0.007421  -0.019309  36.055314
 Mulliken atomic charges:
              1
     1  O   -0.209721
     2  O   -0.223943
     3  H    0.208848
     4  H    0.219085
     5  Kr   0.005731
 Sum of Mulliken atomic charges =   0.00000
 Mulliken charges with hydrogens summed into heavy atoms:
              1
     1  O   -0.000874
     2  O   -0.004858
     5  Kr   0.005731
 Sum of Mulliken charges with hydrogens summed into heavy atoms =   0.00000
          Condensed to fragments (all electrons):
     1      -0.005731
     2       0.005731
 Electronic spatial extent (au):  <R**2>=            476.2684
 Charge=              0.0000 electrons
 Dipole moment (field-independent basis, Debye):
    X=             -3.4914    Y=             -0.0972    Z=              0.6897  Tot=              3.5602
 Quadrupole moment (field-independent basis, Debye-Ang):
   XX=            -38.6060   YY=            -27.9312   ZZ=            -29.9651
   XY=             -0.3100   XZ=              0.8471   YZ=             -0.9132
 Traceless Quadrupole moment (field-independent basis, Debye-Ang):
   XX=             -6.4386   YY=              4.2362   ZZ=              2.2023
   XY=             -0.3100   XZ=              0.8471   YZ=             -0.9132
 Octapole moment (field-independent basis, Debye-Ang**2):
  XXX=            -45.1476  YYY=             -0.2419  ZZZ=              0.1229  XYY=             -7.8014
  XXY=             -0.7287  XXZ=              0.2428  XZZ=             -8.3127  YZZ=             -0.4725
  YYZ=              1.0706  XYZ=             -1.1075
 Hexadecapole moment (field-independent basis, Debye-Ang**3):
 XXXX=           -457.4345 YYYY=            -62.5083 ZZZZ=            -28.7804 XXXY=             -0.8114
 XXXZ=             -0.7783 YYYX=             -0.5864 YYYZ=             -1.2777 ZZZX=              0.4353
 ZZZY=             -0.6127 XXYY=            -85.8081 XXZZ=            -75.3609 YYZZ=            -16.7515
 XXYZ=             -1.3220 YYXZ=              1.3246 ZZXY=             -0.6344
 N-N= 1.513348661682D+02 E-N=-7.238811840158D+03  KE= 2.900054316073D+03
 No NMR shielding tensors so no spin-rotation constants.
 Leave Link  601 at Fri May  8 09:14:21 2020, MaxMem= 1073741824 cpu:       0.8
 (Enter /home/matheus/.gaussian/g09/l122.exe)
 Counterpoise: doing DCBS calculation for fragment   1 NewBq=T
 Leave Link  122 at Fri May  8 09:14:21 2020, MaxMem= 1073741824 cpu:       0.0
 (Enter /home/matheus/.gaussian/g09/l301.exe)
 Basis read from rwf:  (5D, 7F)
 No pseudopotential information found on rwf file.
 There are   197 symmetry adapted basis functions of A   symmetry.
 Integral buffers will be    131072 words long.
 Raffenetti 2 integral format.
 Two-electron integral symmetry is turned on.
   197 basis functions,   415 primitive gaussians,   229 cartesian basis functions
     9 alpha electrons        9 beta electrons
       nuclear repulsion energy        36.6600463863 Hartrees.
 IExCor=32609 DFT=T Ex+Corr=LC-wPBE ExCW=0 ScaHFX=  1.000000
 ScaDFX=  1.000000  0.000000  1.000000  1.000000 ScalE2=  1.000000  1.000000
 IRadAn=      5 IRanWt=     -1 IRanGd=            0 ICorTp=0
  HFx wShort=  0.000000 wLong=  0.550000 cFull=  0.000000 cShort=  0.000000 cLong=  1.000000
  DFx wShort=  0.000000 wLong=  0.550000 cFull=  0.000000 cShort=  0.000000 cLong=  1.000000
 NAtoms=    5 NActive=    5 NUniq=    5 SFac= 1.00D+00 NAtFMM=   60 NAOKFM=F Big=F
 No density basis found on file   718.
 Leave Link  301 at Fri May  8 09:14:21 2020, MaxMem= 1073741824 cpu:       0.2
 (Enter /home/matheus/.gaussian/g09/l302.exe)
 NPDir=0 NMtPBC=     1 NCelOv=     1 NCel=       1 NClECP=     1 NCelD=      1
         NCelK=      1 NCelE2=     1 NClLst=     1 CellRange=     0.0.
 One-electron integrals computed using PRISM.
 NBasis=   197 RedAO= T  NBF=   197
 NBsUse=   197 1.00D-06 NBFU=   197
 Precomputing XC quadrature grid using
 IXCGrd= 2 IRadAn=           5 IRanWt=          -1 IRanGd=           0 AccXCQ= 0.00D+00.
 NRdTot=     427 NPtTot=      123512 NUsed=      126579 NTot=      126611
 NSgBfM=   229   229   229   229   229 NAtAll=     5     5.
 Leave Link  302 at Fri May  8 09:14:21 2020, MaxMem= 1073741824 cpu:       1.0
 (Enter /home/matheus/.gaussian/g09/l303.exe)
 DipDrv:  MaxL=1.
 Leave Link  303 at Fri May  8 09:14:21 2020, MaxMem= 1073741824 cpu:       0.2
 (Enter /home/matheus/.gaussian/g09/l401.exe)
 Harris functional with IExCor=32609 diagonalized for initial guess.
 ExpMin= 2.53D-02 ExpMax= 1.17D+07 ExpMxC= 1.33D+04 IAcc=3 IRadAn=         5 AccDes= 0.00D+00
 HarFok:  IExCor=32609 AccDes= 0.00D+00 IRadAn=         5 IDoV= 1
 ScaDFX=  1.000000  1.000000  1.000000  1.000000
 FoFCou: FMM=F IPFlag=           0 FMFlag=      100000 FMFlg1=           0
         NFxFlg=           0 DoJE=T BraDBF=F KetDBF=T FulRan=T
         Omega=  0.000000  0.000000  1.000000  0.000000  0.000000 ICntrl=     500 IOpCl=  0
         NMat0=    1 NMatS0=    1 NMatT0=    0 NMatD0=    1 NMtDS0=    0 NMtDT0=    0
         I1Cent=           4 NGrid=           0.
 Petite list used in FoFCou.
 Harris En= -151.499652285562    
 Initial guess orbital symmetries:
       Occupied  (A) (A) (A) (A) (A) (A) (A) (A) (A)
       Virtual   (A) (A) (A) (A) (A) (A) (A) (A) (A) (A) (A) (A)
                 (A) (A) (A) (A) (A) (A) (A) (A) (A) (A) (A) (A)
                 (A) (A) (A) (A) (A) (A) (A) (A) (A) (A) (A) (A)
                 (A) (A) (A) (A) (A) (A) (A) (A) (A) (A) (A) (A)
                 (A) (A) (A) (A) (A) (A) (A) (A) (A) (A) (A) (A)
                 (A) (A) (A) (A) (A) (A) (A) (A) (A) (A) (A) (A)
                 (A) (A) (A) (A) (A) (A) (A) (A) (A) (A) (A) (A)
                 (A) (A) (A) (A) (A) (A) (A) (A) (A) (A) (A) (A)
                 (A) (A) (A) (A) (A) (A) (A) (A) (A) (A) (A) (A)
                 (A) (A) (A) (A) (A) (A) (A) (A) (A) (A) (A) (A)
                 (A) (A) (A) (A) (A) (A) (A) (A) (A) (A) (A) (A)
                 (A) (A) (A) (A) (A) (A) (A) (A) (A) (A) (A) (A)
                 (A) (A) (A) (A) (A) (A) (A) (A) (A) (A) (A) (A)
                 (A) (A) (A) (A) (A) (A) (A) (A) (A) (A) (A) (A)
                 (A) (A) (A) (A) (A) (A) (A) (A) (A) (A) (A) (A)
                 (A) (A) (A) (A) (A) (A) (A) (A)
 The electronic state of the initial guess is 1-A.
 Leave Link  401 at Fri May  8 09:14:21 2020, MaxMem= 1073741824 cpu:       4.1
 (Enter /home/matheus/.gaussian/g09/l502.exe)
 Closed shell SCF:
 Requested convergence on RMS density matrix=1.00D-08 within 128 cycles.
 Requested convergence on MAX density matrix=1.00D-06.
 Requested convergence on             energy=1.00D-06.
 No special actions if energy rises.
 Using DIIS extrapolation, IDIIS=  1040.
 Integral symmetry usage will be decided dynamically.
       126521 words used for storage of precomputed grid.
 IEnd=      305468 IEndB=      305468 NGot=  1073741824 MDV=  1073505667
 LenX=  1073505667 LenY=  1073452785
 Fock matrices will be formed incrementally for  20 cycles.

 Cycle   1  Pass 1  IDiag  1:
 FoFJK:  IHMeth= 1 ICntrl=     0 DoSepK=T KAlg= 1 I1Cent= 0 FoldK=F
 FoFCou: FMM=F IPFlag=           0 FMFlag=      100000 FMFlg1=           0
         NFxFlg=           0 DoJE=T BraDBF=F KetDBF=F FulRan=T
         Omega=  0.000000  0.000000  1.000000  0.000000  0.000000 ICntrl=     500 IOpCl=  0
         NMat0=    1 NMatS0=    1 NMatT0=    0 NMatD0=    1 NMtDS0=    0 NMtDT0=    0
         I1Cent=           0 NGrid=           0.
 Symmetry not used in FoFCou.
 E= -151.499068585355    
 DIIS: error= 1.29D-02 at cycle   1 NSaved=   1.
 NSaved= 1 IEnMin= 1 EnMin= -151.499068585355     IErMin= 1 ErrMin= 1.29D-02
 ErrMax= 1.29D-02 EMaxC= 1.00D-01 BMatC= 4.37D-02 BMatP= 4.37D-02
 IDIUse=3 WtCom= 8.71D-01 WtEn= 1.29D-01
 Coeff-Com:  0.100D+01
 Coeff-En:   0.100D+01
 Coeff:      0.100D+01
 Gap=     0.546 Goal=   None    Shift=    0.000
 GapD=    0.546 DampG=2.000 DampE=0.500 DampFc=1.0000 IDamp=-1.
 RMSDP=7.57D-04 MaxDP=2.27D-02              OVMax= 5.87D-02

 Cycle   2  Pass 1  IDiag  1:
 RMSU=  5.33D-04    CP:  9.93D-01
 FoFJK:  IHMeth= 1 ICntrl=     0 DoSepK=T KAlg= 1 I1Cent= 0 FoldK=F
 E= -151.516766885814     Delta-E=       -0.017698300458 Rises=F Damp=F
 DIIS: error= 6.92D-03 at cycle   2 NSaved=   2.
 NSaved= 2 IEnMin= 2 EnMin= -151.516766885814     IErMin= 2 ErrMin= 6.92D-03
 ErrMax= 6.92D-03 EMaxC= 1.00D-01 BMatC= 1.83D-02 BMatP= 4.37D-02
 IDIUse=3 WtCom= 9.31D-01 WtEn= 6.92D-02
 Coeff-Com:  0.381D+00 0.619D+00
 Coeff-En:   0.145D+00 0.855D+00
 Coeff:      0.364D+00 0.636D+00
 Gap=     0.455 Goal=   None    Shift=    0.000
 RMSDP=4.53D-04 MaxDP=2.21D-02 DE=-1.77D-02 OVMax= 2.51D-02

 Cycle   3  Pass 1  IDiag  1:
 RMSU=  2.34D-04    CP:  9.88D-01  5.94D-01
 FoFJK:  IHMeth= 1 ICntrl=     0 DoSepK=T KAlg= 1 I1Cent= 0 FoldK=F
 E= -151.527309378099     Delta-E=       -0.010542492285 Rises=F Damp=F
 DIIS: error= 1.10D-03 at cycle   3 NSaved=   3.
 NSaved= 3 IEnMin= 3 EnMin= -151.527309378099     IErMin= 3 ErrMin= 1.10D-03
 ErrMax= 1.10D-03 EMaxC= 1.00D-01 BMatC= 3.87D-04 BMatP= 1.83D-02
 IDIUse=3 WtCom= 9.89D-01 WtEn= 1.10D-02
 Coeff-Com:  0.419D-01 0.148D+00 0.811D+00
 Coeff-En:   0.000D+00 0.000D+00 0.100D+01
 Coeff:      0.414D-01 0.146D+00 0.813D+00
 Gap=     0.448 Goal=   None    Shift=    0.000
 RMSDP=5.31D-05 MaxDP=1.47D-03 DE=-1.05D-02 OVMax= 4.16D-03

 Cycle   4  Pass 1  IDiag  1:
 RMSU=  2.73D-05    CP:  9.87D-01  6.38D-01  1.02D+00
 FoFJK:  IHMeth= 1 ICntrl=     0 DoSepK=T KAlg= 1 I1Cent= 0 FoldK=F
 E= -151.527555394966     Delta-E=       -0.000246016867 Rises=F Damp=F
 DIIS: error= 2.36D-04 at cycle   4 NSaved=   4.
 NSaved= 4 IEnMin= 4 EnMin= -151.527555394966     IErMin= 4 ErrMin= 2.36D-04
 ErrMax= 2.36D-04 EMaxC= 1.00D-01 BMatC= 9.79D-06 BMatP= 3.87D-04
 IDIUse=3 WtCom= 9.98D-01 WtEn= 2.36D-03
 Coeff-Com: -0.994D-02-0.134D-01 0.840D-01 0.939D+00
 Coeff-En:   0.000D+00 0.000D+00 0.000D+00 0.100D+01
 Coeff:     -0.992D-02-0.133D-01 0.838D-01 0.939D+00
 Gap=     0.449 Goal=   None    Shift=    0.000
 RMSDP=1.22D-05 MaxDP=6.13D-04 DE=-2.46D-04 OVMax= 8.02D-04

 Cycle   5  Pass 1  IDiag  1:
 RMSU=  4.75D-06    CP:  9.86D-01  6.35D-01  1.05D+00  1.05D+00
 FoFJK:  IHMeth= 1 ICntrl=     0 DoSepK=T KAlg= 1 I1Cent= 0 FoldK=F
 E= -151.527563855719     Delta-E=       -0.000008460754 Rises=F Damp=F
 DIIS: error= 4.00D-05 at cycle   5 NSaved=   5.
 NSaved= 5 IEnMin= 5 EnMin= -151.527563855719     IErMin= 5 ErrMin= 4.00D-05
 ErrMax= 4.00D-05 EMaxC= 1.00D-01 BMatC= 2.12D-07 BMatP= 9.79D-06
 IDIUse=1 WtCom= 1.00D+00 WtEn= 0.00D+00
 Coeff-Com: -0.227D-03-0.117D-02-0.318D-01-0.119D+00 0.115D+01
 Coeff:     -0.227D-03-0.117D-02-0.318D-01-0.119D+00 0.115D+01
 Gap=     0.449 Goal=   None    Shift=    0.000
 RMSDP=3.29D-06 MaxDP=8.34D-05 DE=-8.46D-06 OVMax= 2.45D-04

 Cycle   6  Pass 1  IDiag  1:
 RMSU=  1.15D-06    CP:  9.86D-01  6.36D-01  1.05D+00  1.10D+00  1.30D+00
 FoFJK:  IHMeth= 1 ICntrl=     0 DoSepK=T KAlg= 1 I1Cent= 0 FoldK=F
 E= -151.527564376757     Delta-E=       -0.000000521037 Rises=F Damp=F
 DIIS: error= 9.70D-06 at cycle   6 NSaved=   6.
 NSaved= 6 IEnMin= 6 EnMin= -151.527564376757     IErMin= 6 ErrMin= 9.70D-06
 ErrMax= 9.70D-06 EMaxC= 1.00D-01 BMatC= 1.16D-08 BMatP= 2.12D-07
 IDIUse=1 WtCom= 1.00D+00 WtEn= 0.00D+00
 Coeff-Com:  0.221D-03 0.604D-03 0.553D-02 0.540D-02-0.262D+00 0.125D+01
 Coeff:      0.221D-03 0.604D-03 0.553D-02 0.540D-02-0.262D+00 0.125D+01
 Gap=     0.449 Goal=   None    Shift=    0.000
 RMSDP=1.06D-06 MaxDP=2.80D-05 DE=-5.21D-07 OVMax= 1.05D-04

 Cycle   7  Pass 1  IDiag  1:
 RMSU=  2.98D-07    CP:  9.86D-01  6.36D-01  1.05D+00  1.11D+00  1.34D+00
                    CP:  1.47D+00
 FoFJK:  IHMeth= 1 ICntrl=     0 DoSepK=T KAlg= 1 I1Cent= 0 FoldK=F
 E= -151.527564417800     Delta-E=       -0.000000041043 Rises=F Damp=F
 DIIS: error= 3.79D-06 at cycle   7 NSaved=   7.
 NSaved= 7 IEnMin= 7 EnMin= -151.527564417800     IErMin= 7 ErrMin= 3.79D-06
 ErrMax= 3.79D-06 EMaxC= 1.00D-01 BMatC= 9.50D-10 BMatP= 1.16D-08
 IDIUse=1 WtCom= 1.00D+00 WtEn= 0.00D+00
 Coeff-Com: -0.151D-04-0.293D-04 0.109D-02 0.596D-02-0.399D-01-0.143D+00
 Coeff-Com:  0.118D+01
 Coeff:     -0.151D-04-0.293D-04 0.109D-02 0.596D-02-0.399D-01-0.143D+00
 Coeff:      0.118D+01
 Gap=     0.449 Goal=   None    Shift=    0.000
 RMSDP=4.17D-07 MaxDP=1.61D-05 DE=-4.10D-08 OVMax= 4.25D-05

 Cycle   8  Pass 1  IDiag  1:
 RMSU=  7.98D-08    CP:  9.86D-01  6.36D-01  1.06D+00  1.11D+00  1.34D+00
                    CP:  1.63D+00  1.43D+00
 FoFJK:  IHMeth= 1 ICntrl=     0 DoSepK=T KAlg= 1 I1Cent= 0 FoldK=F
 E= -151.527564421667     Delta-E=       -0.000000003867 Rises=F Damp=F
 DIIS: error= 1.20D-06 at cycle   8 NSaved=   8.
 NSaved= 8 IEnMin= 8 EnMin= -151.527564421667     IErMin= 8 ErrMin= 1.20D-06
 ErrMax= 1.20D-06 EMaxC= 1.00D-01 BMatC= 2.76D-10 BMatP= 9.50D-10
 IDIUse=1 WtCom= 1.00D+00 WtEn= 0.00D+00
 Coeff-Com: -0.244D-04-0.686D-04-0.158D-03 0.119D-02 0.136D-01-0.169D+00
 Coeff-Com:  0.395D+00 0.759D+00
 Coeff:     -0.244D-04-0.686D-04-0.158D-03 0.119D-02 0.136D-01-0.169D+00
 Coeff:      0.395D+00 0.759D+00
 Gap=     0.449 Goal=   None    Shift=    0.000
 RMSDP=1.12D-07 MaxDP=6.25D-06 DE=-3.87D-09 OVMax= 1.11D-05

 Cycle   9  Pass 1  IDiag  1:
 RMSU=  3.49D-08    CP:  9.86D-01  6.36D-01  1.06D+00  1.11D+00  1.34D+00
                    CP:  1.65D+00  1.56D+00  1.06D+00
 FoFJK:  IHMeth= 1 ICntrl=     0 DoSepK=T KAlg= 1 I1Cent= 0 FoldK=F
 E= -151.527564422048     Delta-E=       -0.000000000381 Rises=F Damp=F
 DIIS: error= 4.31D-07 at cycle   9 NSaved=   9.
 NSaved= 9 IEnMin= 9 EnMin= -151.527564422048     IErMin= 9 ErrMin= 4.31D-07
 ErrMax= 4.31D-07 EMaxC= 1.00D-01 BMatC= 6.43D-11 BMatP= 2.76D-10
 IDIUse=1 WtCom= 1.00D+00 WtEn= 0.00D+00
 Coeff-Com: -0.915D-05-0.291D-04-0.363D-03-0.104D-02 0.190D-01-0.575D-01
 Coeff-Com: -0.964D-01 0.340D+00 0.797D+00
 Coeff:     -0.915D-05-0.291D-04-0.363D-03-0.104D-02 0.190D-01-0.575D-01
 Coeff:     -0.964D-01 0.340D+00 0.797D+00
 Gap=     0.449 Goal=   None    Shift=    0.000
 RMSDP=5.81D-08 MaxDP=2.99D-06 DE=-3.81D-10 OVMax= 6.40D-06

 Cycle  10  Pass 1  IDiag  1:
 RMSU=  1.13D-08    CP:  9.86D-01  6.36D-01  1.06D+00  1.11D+00  1.34D+00
                    CP:  1.67D+00  1.62D+00  1.27D+00  1.01D+00
 FoFJK:  IHMeth= 1 ICntrl=     0 DoSepK=T KAlg= 1 I1Cent= 0 FoldK=F
 E= -151.527564422137     Delta-E=       -0.000000000089 Rises=F Damp=F
 DIIS: error= 1.20D-07 at cycle  10 NSaved=  10.
 NSaved=10 IEnMin=10 EnMin= -151.527564422137     IErMin=10 ErrMin= 1.20D-07
 ErrMax= 1.20D-07 EMaxC= 1.00D-01 BMatC= 1.50D-12 BMatP= 6.43D-11
 IDIUse=1 WtCom= 1.00D+00 WtEn= 0.00D+00
 Coeff-Com:  0.339D-05 0.128D-04 0.913D-04 0.184D-05-0.424D-02 0.232D-01
 Coeff-Com: -0.776D-02-0.130D+00-0.150D+00 0.127D+01
 Coeff:      0.339D-05 0.128D-04 0.913D-04 0.184D-05-0.424D-02 0.232D-01
 Coeff:     -0.776D-02-0.130D+00-0.150D+00 0.127D+01
 Gap=     0.449 Goal=   None    Shift=    0.000
 RMSDP=1.18D-08 MaxDP=2.24D-07 DE=-8.94D-11 OVMax= 1.83D-06

 Cycle  11  Pass 1  IDiag  1:
 RMSU=  4.07D-09    CP:  9.86D-01  6.36D-01  1.06D+00  1.11D+00  1.34D+00
                    CP:  1.67D+00  1.63D+00  1.31D+00  1.12D+00  1.39D+00
 FoFJK:  IHMeth= 1 ICntrl=     0 DoSepK=T KAlg= 1 I1Cent= 0 FoldK=F
 E= -151.527564422144     Delta-E=       -0.000000000007 Rises=F Damp=F
 DIIS: error= 2.74D-08 at cycle  11 NSaved=  11.
 NSaved=11 IEnMin=11 EnMin= -151.527564422144     IErMin=11 ErrMin= 2.74D-08
 ErrMax= 2.74D-08 EMaxC= 1.00D-01 BMatC= 7.31D-14 BMatP= 1.50D-12
 IDIUse=1 WtCom= 1.00D+00 WtEn= 0.00D+00
 Coeff-Com: -0.386D-06-0.929D-06-0.568D-06 0.516D-04-0.319D-04-0.248D-02
 Coeff-Com:  0.842D-02 0.949D-02-0.125D-01-0.268D+00 0.126D+01
 Coeff:     -0.386D-06-0.929D-06-0.568D-06 0.516D-04-0.319D-04-0.248D-02
 Coeff:      0.842D-02 0.949D-02-0.125D-01-0.268D+00 0.126D+01
 Gap=     0.449 Goal=   None    Shift=    0.000
 RMSDP=3.02D-09 MaxDP=5.71D-08 DE=-6.57D-12 OVMax= 3.42D-07

 SCF Done:  E(RLC-wPBE) =  -151.527564422     A.U. after   11 cycles
             Convg  =    0.3025D-08             -V/T =  2.0069
 KE= 1.504917265847D+02 PE=-4.316090212578D+02 EE= 9.292968386461D+01
 Leave Link  502 at Fri May  8 09:14:54 2020, MaxMem= 1073741824 cpu:     261.6
 (Enter /home/matheus/.gaussian/g09/l601.exe)
 Copying SCF densities to generalized density rwf, IOpCl= 0 IROHF=0.

 **********************************************************************

            Population analysis using the SCF density.

 **********************************************************************

 Orbital symmetries:
       Occupied  (A) (A) (A) (A) (A) (A) (A) (A) (A)
       Virtual   (A) (A) (A) (A) (A) (A) (A) (A) (A) (A) (A) (A)
                 (A) (A) (A) (A) (A) (A) (A) (A) (A) (A) (A) (A)
                 (A) (A) (A) (A) (A) (A) (A) (A) (A) (A) (A) (A)
                 (A) (A) (A) (A) (A) (A) (A) (A) (A) (A) (A) (A)
                 (A) (A) (A) (A) (A) (A) (A) (A) (A) (A) (A) (A)
                 (A) (A) (A) (A) (A) (A) (A) (A) (A) (A) (A) (A)
                 (A) (A) (A) (A) (A) (A) (A) (A) (A) (A) (A) (A)
                 (A) (A) (A) (A) (A) (A) (A) (A) (A) (A) (A) (A)
                 (A) (A) (A) (A) (A) (A) (A) (A) (A) (A) (A) (A)
                 (A) (A) (A) (A) (A) (A) (A) (A) (A) (A) (A) (A)
                 (A) (A) (A) (A) (A) (A) (A) (A) (A) (A) (A) (A)
                 (A) (A) (A) (A) (A) (A) (A) (A) (A) (A) (A) (A)
                 (A) (A) (A) (A) (A) (A) (A) (A) (A) (A) (A) (A)
                 (A) (A) (A) (A) (A) (A) (A) (A) (A) (A) (A) (A)
                 (A) (A) (A) (A) (A) (A) (A) (A) (A) (A) (A) (A)
                 (A) (A) (A) (A) (A) (A) (A) (A)
 The electronic state is 1-A.
 Alpha  occ. eigenvalues --  -19.11670 -19.11664  -1.32747  -1.09789  -0.74601
 Alpha  occ. eigenvalues --   -0.59927  -0.59204  -0.52888  -0.42960
 Alpha virt. eigenvalues --    0.01982   0.03888   0.07127   0.07776   0.09571
 Alpha virt. eigenvalues --    0.10229   0.11458   0.15826   0.17320   0.18022
 Alpha virt. eigenvalues --    0.18879   0.20605   0.20689   0.21892   0.26048
 Alpha virt. eigenvalues --    0.27550   0.28949   0.29326   0.32670   0.34843
 Alpha virt. eigenvalues --    0.35744   0.35889   0.38109   0.40940   0.42054
 Alpha virt. eigenvalues --    0.44182   0.45401   0.46758   0.49118   0.52769
 Alpha virt. eigenvalues --    0.55114   0.58287   0.59881   0.63567   0.68164
 Alpha virt. eigenvalues --    0.71091   0.73471   0.78049   0.78667   0.81830
 Alpha virt. eigenvalues --    0.84041   0.85267   0.88742   0.89260   0.91682
 Alpha virt. eigenvalues --    0.94382   0.96831   0.97408   0.99655   1.01436
 Alpha virt. eigenvalues --    1.02878   1.05948   1.08175   1.09786   1.10848
 Alpha virt. eigenvalues --    1.12421   1.16844   1.21516   1.23668   1.26097
 Alpha virt. eigenvalues --    1.27428   1.29694   1.31423   1.32026   1.34247
 Alpha virt. eigenvalues --    1.34742   1.37007   1.38718   1.45018   1.47416
 Alpha virt. eigenvalues --    1.49794   1.51754   1.54874   1.57737   1.60966
 Alpha virt. eigenvalues --    1.63602   1.65195   1.69891   1.75996   1.78310
 Alpha virt. eigenvalues --    1.84711   1.88728   1.95159   2.00793   2.05616
 Alpha virt. eigenvalues --    2.11712   2.16540   2.19807   2.24517   2.26771
 Alpha virt. eigenvalues --    2.31410   2.36433   2.37158   2.38123   2.43910
 Alpha virt. eigenvalues --    2.52449   2.56350   2.61268   2.67060   2.69075
 Alpha virt. eigenvalues --    2.72248   2.75231   2.90074   2.93453   2.94826
 Alpha virt. eigenvalues --    3.07001   3.13154   3.14497   3.24225   3.32134
 Alpha virt. eigenvalues --    3.42852   3.58629   3.62267   3.69275   3.77306
 Alpha virt. eigenvalues --    3.78345   3.80281   3.81876   3.82185   3.87705
 Alpha virt. eigenvalues --    3.91466   3.93489   3.93767   3.94894   3.98386
 Alpha virt. eigenvalues --    4.02490   4.05497   4.09057   4.15569   4.16612
 Alpha virt. eigenvalues --    4.22545   4.25482   4.26911   4.29966   4.34537
 Alpha virt. eigenvalues --    4.56696   4.58530   4.60254   4.70390   5.03207
 Alpha virt. eigenvalues --    5.03853   5.10718   5.12898   5.13944   5.18210
 Alpha virt. eigenvalues --    5.52275   5.87075   6.06679   6.09990   6.16335
 Alpha virt. eigenvalues --    6.39678   6.42226   6.50105   6.60554   6.71787
 Alpha virt. eigenvalues --    6.76108   6.81766   6.87224   6.88527   6.89985
 Alpha virt. eigenvalues --    6.93116   6.94375   6.95441   7.11709   7.18281
 Alpha virt. eigenvalues --    7.21314   7.27702   7.40759   7.59658   8.00928
 Alpha virt. eigenvalues --    8.02779   8.19033  11.06800  13.84987  14.64773
 Alpha virt. eigenvalues --   14.81240  14.91206  15.10173  29.01309  29.02019
 Alpha virt. eigenvalues --   29.06047  29.19079  29.21598  49.21713 148.29483
 Alpha virt. eigenvalues --  148.44361 148.71076 752.92260
          Condensed to atoms (all electrons):
              1          2          3          4          5
     1  O    8.232175  -0.230354   0.177831   0.025400   0.003501
     2  O   -0.230354   8.216206   0.032625   0.188842   0.000717
     3  H    0.177831   0.032625   0.594345  -0.009775  -0.002037
     4  H    0.025400   0.188842  -0.009775   0.591038  -0.004423
     5  Kr   0.003501   0.000717  -0.002037  -0.004423   0.001586
 Mulliken atomic charges:
              1
     1  O   -0.208552
     2  O   -0.208035
     3  H    0.207011
     4  H    0.208918
     5  Kr   0.000657
 Sum of Mulliken atomic charges =   0.00000
 Mulliken charges with hydrogens summed into heavy atoms:
              1
     1  O   -0.001540
     2  O    0.000884
     5  Kr   0.000657
 Sum of Mulliken charges with hydrogens summed into heavy atoms =   0.00000
          Condensed to fragments (all electrons):
     1      -0.000657
     2       0.000657
 Electronic spatial extent (au):  <R**2>=            317.0124
 Charge=              0.0000 electrons
 Dipole moment (field-independent basis, Debye):
    X=             -3.0066    Y=             -0.0419    Z=              0.8224  Tot=              3.1173
 Quadrupole moment (field-independent basis, Debye-Ang):
   XX=            -21.4089   YY=            -10.4281   ZZ=            -12.5836
   XY=             -0.3337   XZ=              0.7514   YZ=             -0.9397
 Traceless Quadrupole moment (field-independent basis, Debye-Ang):
   XX=             -6.6020   YY=              4.3788   ZZ=              2.2233
   XY=             -0.3337   XZ=              0.7514   YZ=             -0.9397
 Octapole moment (field-independent basis, Debye-Ang**2):
  XXX=            -93.5119  YYY=             -0.2495  ZZZ=              0.1591  XYY=            -24.3542
  XXY=             -0.6560  XXZ=              0.3037  XZZ=            -24.9421  YZZ=             -0.4805
  YYZ=              1.0909  XYZ=             -1.1056
 Hexadecapole moment (field-independent basis, Debye-Ang**3):
 XXXX=           -341.1037 YYYY=            -44.7493 ZZZZ=            -11.2855 XXXY=             -0.7224
 XXXZ=             -0.8938 YYYX=             -0.5881 YYYZ=             -1.3165 ZZZX=              0.4405
 ZZZY=             -0.6450 XXYY=            -63.4725 XXZZ=            -53.2678 YYZZ=            -10.8662
 XXYZ=             -1.3218 YYXZ=              1.3122 ZZXY=             -0.6202
 N-N= 3.666004638632D+01 E-N=-4.316090208756D+02  KE= 1.504917265847D+02
 No NMR shielding tensors so no spin-rotation constants.
 Leave Link  601 at Fri May  8 09:14:54 2020, MaxMem= 1073741824 cpu:       0.9
 (Enter /home/matheus/.gaussian/g09/l122.exe)
 Counterpoise: doing DCBS calculation for fragment   2 NewBq=T
 Leave Link  122 at Fri May  8 09:14:54 2020, MaxMem= 1073741824 cpu:       0.0
 (Enter /home/matheus/.gaussian/g09/l301.exe)
 Basis read from rwf:  (5D, 7F)
 No pseudopotential information found on rwf file.
 There are   197 symmetry adapted basis functions of A   symmetry.
 Integral buffers will be    131072 words long.
 Raffenetti 2 integral format.
 Two-electron integral symmetry is turned on.
   197 basis functions,   415 primitive gaussians,   229 cartesian basis functions
    18 alpha electrons       18 beta electrons
       nuclear repulsion energy         0.0000000000 Hartrees.
 IExCor=32609 DFT=T Ex+Corr=LC-wPBE ExCW=0 ScaHFX=  1.000000
 ScaDFX=  1.000000  0.000000  1.000000  1.000000 ScalE2=  1.000000  1.000000
 IRadAn=      5 IRanWt=     -1 IRanGd=            0 ICorTp=0
  HFx wShort=  0.000000 wLong=  0.550000 cFull=  0.000000 cShort=  0.000000 cLong=  1.000000
  DFx wShort=  0.000000 wLong=  0.550000 cFull=  0.000000 cShort=  0.000000 cLong=  1.000000
 NAtoms=    5 NActive=    5 NUniq=    5 SFac= 1.00D+00 NAtFMM=   60 NAOKFM=F Big=F
 No density basis found on file   718.
 Leave Link  301 at Fri May  8 09:14:54 2020, MaxMem= 1073741824 cpu:       0.2
 (Enter /home/matheus/.gaussian/g09/l302.exe)
 NPDir=0 NMtPBC=     1 NCelOv=     1 NCel=       1 NClECP=     1 NCelD=      1
         NCelK=      1 NCelE2=     1 NClLst=     1 CellRange=     0.0.
 One-electron integrals computed using PRISM.
 NBasis=   197 RedAO= T  NBF=   197
 NBsUse=   197 1.00D-06 NBFU=   197
 Precomputing XC quadrature grid using
 IXCGrd= 2 IRadAn=           5 IRanWt=          -1 IRanGd=           0 AccXCQ= 0.00D+00.
 NRdTot=     427 NPtTot=      123512 NUsed=      126579 NTot=      126611
 NSgBfM=   229   229   229   229   229 NAtAll=     5     5.
 Leave Link  302 at Fri May  8 09:14:54 2020, MaxMem= 1073741824 cpu:       0.9
 (Enter /home/matheus/.gaussian/g09/l303.exe)
 DipDrv:  MaxL=1.
 Leave Link  303 at Fri May  8 09:14:54 2020, MaxMem= 1073741824 cpu:       0.2
 (Enter /home/matheus/.gaussian/g09/l401.exe)
 Harris functional with IExCor=32609 diagonalized for initial guess.
 ExpMin= 2.53D-02 ExpMax= 1.17D+07 ExpMxC= 1.33D+04 IAcc=3 IRadAn=         5 AccDes= 0.00D+00
 HarFok:  IExCor=32609 AccDes= 0.00D+00 IRadAn=         5 IDoV= 1
 ScaDFX=  1.000000  1.000000  1.000000  1.000000
 FoFCou: FMM=F IPFlag=           0 FMFlag=      100000 FMFlg1=           0
         NFxFlg=           0 DoJE=T BraDBF=F KetDBF=T FulRan=T
         Omega=  0.000000  0.000000  1.000000  0.000000  0.000000 ICntrl=     500 IOpCl=  0
         NMat0=    1 NMatS0=    1 NMatT0=    0 NMatD0=    1 NMtDS0=    0 NMtDT0=    0
         I1Cent=           4 NGrid=           0.
 Petite list used in FoFCou.
 Harris En= -2753.24664188248    
 Initial guess orbital symmetries:
       Occupied  (A) (A) (A) (A) (A) (A) (A) (A) (A) (A) (A) (A)
                 (A) (A) (A) (A) (A) (A)
       Virtual   (A) (A) (A) (A) (A) (A) (A) (A) (A) (A) (A) (A)
                 (A) (A) (A) (A) (A) (A) (A) (A) (A) (A) (A) (A)
                 (A) (A) (A) (A) (A) (A) (A) (A) (A) (A) (A) (A)
                 (A) (A) (A) (A) (A) (A) (A) (A) (A) (A) (A) (A)
                 (A) (A) (A) (A) (A) (A) (A) (A) (A) (A) (A) (A)
                 (A) (A) (A) (A) (A) (A) (A) (A) (A) (A) (A) (A)
                 (A) (A) (A) (A) (A) (A) (A) (A) (A) (A) (A) (A)
                 (A) (A) (A) (A) (A) (A) (A) (A) (A) (A) (A) (A)
                 (A) (A) (A) (A) (A) (A) (A) (A) (A) (A) (A) (A)
                 (A) (A) (A) (A) (A) (A) (A) (A) (A) (A) (A) (A)
                 (A) (A) (A) (A) (A) (A) (A) (A) (A) (A) (A) (A)
                 (A) (A) (A) (A) (A) (A) (A) (A) (A) (A) (A) (A)
                 (A) (A) (A) (A) (A) (A) (A) (A) (A) (A) (A) (A)
                 (A) (A) (A) (A) (A) (A) (A) (A) (A) (A) (A) (A)
                 (A) (A) (A) (A) (A) (A) (A) (A) (A) (A) (A)
 The electronic state of the initial guess is 1-A.
 Leave Link  401 at Fri May  8 09:14:55 2020, MaxMem= 1073741824 cpu:       3.8
 (Enter /home/matheus/.gaussian/g09/l502.exe)
 Closed shell SCF:
 Requested convergence on RMS density matrix=1.00D-08 within 128 cycles.
 Requested convergence on MAX density matrix=1.00D-06.
 Requested convergence on             energy=1.00D-06.
 No special actions if energy rises.
 Using DIIS extrapolation, IDIIS=  1040.
 Integral symmetry usage will be decided dynamically.
       126521 words used for storage of precomputed grid.
 IEnd=      305468 IEndB=      305468 NGot=  1073741824 MDV=  1073505667
 LenX=  1073505667 LenY=  1073452785
 Fock matrices will be formed incrementally for  20 cycles.

 Cycle   1  Pass 1  IDiag  1:
 FoFJK:  IHMeth= 1 ICntrl=     0 DoSepK=T KAlg= 1 I1Cent= 0 FoldK=F
 FoFCou: FMM=F IPFlag=           0 FMFlag=      100000 FMFlg1=           0
         NFxFlg=           0 DoJE=T BraDBF=F KetDBF=F FulRan=T
         Omega=  0.000000  0.000000  1.000000  0.000000  0.000000 ICntrl=     500 IOpCl=  0
         NMat0=    1 NMatS0=    1 NMatT0=    0 NMatD0=    1 NMtDS0=    0 NMtDT0=    0
         I1Cent=           0 NGrid=           0.
 Symmetry not used in FoFCou.
 E= -2753.43075134722    
 DIIS: error= 3.09D-02 at cycle   1 NSaved=   1.
 NSaved= 1 IEnMin= 1 EnMin= -2753.43075134722     IErMin= 1 ErrMin= 3.09D-02
 ErrMax= 3.09D-02 EMaxC= 1.00D-01 BMatC= 2.26D-01 BMatP= 2.26D-01
 IDIUse=3 WtCom= 6.91D-01 WtEn= 3.09D-01
 Coeff-Com:  0.100D+01
 Coeff-En:   0.100D+01
 Coeff:      0.100D+01
 Gap=     0.637 Goal=   None    Shift=    0.000
 GapD=    0.637 DampG=2.000 DampE=0.500 DampFc=1.0000 IDamp=-1.
 RMSDP=2.12D-03 MaxDP=1.47D-01              OVMax= 5.14D-02

 Cycle   2  Pass 1  IDiag  1:
 RMSU=  1.46D-03    CP:  1.02D+00
 FoFJK:  IHMeth= 1 ICntrl=     0 DoSepK=T KAlg= 1 I1Cent= 0 FoldK=F
 E= -2753.46427991840     Delta-E=       -0.033528571184 Rises=F Damp=F
 DIIS: error= 1.05D-02 at cycle   2 NSaved=   2.
 NSaved= 2 IEnMin= 2 EnMin= -2753.46427991840     IErMin= 2 ErrMin= 1.05D-02
 ErrMax= 1.05D-02 EMaxC= 1.00D-01 BMatC= 5.02D-02 BMatP= 2.26D-01
 IDIUse=3 WtCom= 8.95D-01 WtEn= 1.05D-01
 Coeff-Com:  0.315D+00 0.685D+00
 Coeff-En:   0.636D-01 0.936D+00
 Coeff:      0.289D+00 0.711D+00
 Gap=     0.552 Goal=   None    Shift=    0.000
 RMSDP=7.74D-04 MaxDP=5.11D-02 DE=-3.35D-02 OVMax= 1.84D-02

 Cycle   3  Pass 1  IDiag  1:
 RMSU=  1.47D-04    CP:  1.01D+00  6.49D-01
 FoFJK:  IHMeth= 1 ICntrl=     0 DoSepK=T KAlg= 1 I1Cent= 0 FoldK=F
 E= -2753.47777881733     Delta-E=       -0.013498898933 Rises=F Damp=F
 DIIS: error= 1.02D-03 at cycle   3 NSaved=   3.
 NSaved= 3 IEnMin= 3 EnMin= -2753.47777881733     IErMin= 3 ErrMin= 1.02D-03
 ErrMax= 1.02D-03 EMaxC= 1.00D-01 BMatC= 5.20D-04 BMatP= 5.02D-02
 IDIUse=3 WtCom= 9.90D-01 WtEn= 1.02D-02
 Coeff-Com: -0.457D-02 0.837D-01 0.921D+00
 Coeff-En:   0.000D+00 0.000D+00 0.100D+01
 Coeff:     -0.452D-02 0.829D-01 0.922D+00
 Gap=     0.558 Goal=   None    Shift=    0.000
 RMSDP=7.06D-05 MaxDP=4.27D-03 DE=-1.35D-02 OVMax= 2.38D-03

 Cycle   4  Pass 1  IDiag  1:
 RMSU=  1.37D-05    CP:  1.01D+00  6.81D-01  9.97D-01
 FoFJK:  IHMeth= 1 ICntrl=     0 DoSepK=T KAlg= 1 I1Cent= 0 FoldK=F
 E= -2753.47792922699     Delta-E=       -0.000150409654 Rises=F Damp=F
 DIIS: error= 3.71D-05 at cycle   4 NSaved=   4.
 NSaved= 4 IEnMin= 4 EnMin= -2753.47792922699     IErMin= 4 ErrMin= 3.71D-05
 ErrMax= 3.71D-05 EMaxC= 1.00D-01 BMatC= 4.07D-07 BMatP= 5.20D-04
 IDIUse=1 WtCom= 1.00D+00 WtEn= 0.00D+00
 Coeff-Com: -0.556D-03-0.192D-01-0.164D+00 0.118D+01
 Coeff:     -0.556D-03-0.192D-01-0.164D+00 0.118D+01
 Gap=     0.557 Goal=   None    Shift=    0.000
 RMSDP=5.78D-06 MaxDP=3.27D-04 DE=-1.50D-04 OVMax= 4.12D-04

 Cycle   5  Pass 1  IDiag  1:
 RMSU=  1.82D-06    CP:  1.01D+00  6.81D-01  1.01D+00  1.20D+00
 FoFJK:  IHMeth= 1 ICntrl=     0 DoSepK=T KAlg= 1 I1Cent= 0 FoldK=F
 E= -2753.47792974281     Delta-E=       -0.000000515827 Rises=F Damp=F
 DIIS: error= 1.99D-06 at cycle   5 NSaved=   5.
 NSaved= 5 IEnMin= 5 EnMin= -2753.47792974281     IErMin= 5 ErrMin= 1.99D-06
 ErrMax= 1.99D-06 EMaxC= 1.00D-01 BMatC= 2.22D-09 BMatP= 4.07D-07
 IDIUse=1 WtCom= 1.00D+00 WtEn= 0.00D+00
 Coeff-Com:  0.952D-04 0.166D-03-0.176D-02-0.152D-01 0.102D+01
 Coeff:      0.952D-04 0.166D-03-0.176D-02-0.152D-01 0.102D+01
 Gap=     0.557 Goal=   None    Shift=    0.000
 RMSDP=3.26D-07 MaxDP=2.12D-05 DE=-5.16D-07 OVMax= 1.50D-05

 Cycle   6  Pass 1  IDiag  1:
 RMSU=  1.56D-07    CP:  1.01D+00  6.81D-01  1.01D+00  1.21D+00  1.03D+00
 FoFJK:  IHMeth= 1 ICntrl=     0 DoSepK=T KAlg= 1 I1Cent= 0 FoldK=F
 E= -2753.47792974476     Delta-E=       -0.000000001952 Rises=F Damp=F
 DIIS: error= 3.32D-07 at cycle   6 NSaved=   6.
 NSaved= 6 IEnMin= 6 EnMin= -2753.47792974476     IErMin= 6 ErrMin= 3.32D-07
 ErrMax= 3.32D-07 EMaxC= 1.00D-01 BMatC= 7.99D-11 BMatP= 2.22D-09
 IDIUse=1 WtCom= 1.00D+00 WtEn= 0.00D+00
 Coeff-Com:  0.439D-05 0.190D-03 0.184D-02-0.172D-01 0.402D-01 0.975D+00
 Coeff:      0.439D-05 0.190D-03 0.184D-02-0.172D-01 0.402D-01 0.975D+00
 Gap=     0.557 Goal=   None    Shift=    0.000
 RMSDP=4.87D-08 MaxDP=2.52D-06 DE=-1.95D-09 OVMax= 3.13D-06

 Cycle   7  Pass 1  IDiag  1:
 RMSU=  1.22D-08    CP:  1.01D+00  6.81D-01  1.01D+00  1.21D+00  1.04D+00
                    CP:  1.09D+00
 FoFJK:  IHMeth= 1 ICntrl=     0 DoSepK=T KAlg= 1 I1Cent= 0 FoldK=F
 E= -2753.47792974481     Delta-E=       -0.000000000048 Rises=F Damp=F
 DIIS: error= 4.39D-08 at cycle   7 NSaved=   7.
 NSaved= 7 IEnMin= 7 EnMin= -2753.47792974481     IErMin= 7 ErrMin= 4.39D-08
 ErrMax= 4.39D-08 EMaxC= 1.00D-01 BMatC= 6.81D-13 BMatP= 7.99D-11
 IDIUse=1 WtCom= 1.00D+00 WtEn= 0.00D+00
 Coeff-Com:  0.281D-06 0.380D-04 0.388D-03-0.345D-02 0.343D-02 0.186D+00
 Coeff-Com:  0.814D+00
 Coeff:      0.281D-06 0.380D-04 0.388D-03-0.345D-02 0.343D-02 0.186D+00
 Coeff:      0.814D+00
 Gap=     0.557 Goal=   None    Shift=    0.000
 RMSDP=5.56D-09 MaxDP=1.57D-07 DE=-4.77D-11 OVMax= 2.67D-07

 SCF Done:  E(RLC-wPBE) =  -2753.47792974     A.U. after    7 cycles
             Convg  =    0.5561D-08             -V/T =  2.0014
 KE= 2.749504874049D+03 PE=-6.579038213009D+03 EE= 1.076055409214D+03
 Leave Link  502 at Fri May  8 09:15:16 2020, MaxMem= 1073741824 cpu:     170.0
 (Enter /home/matheus/.gaussian/g09/l601.exe)
 Copying SCF densities to generalized density rwf, IOpCl= 0 IROHF=0.

 **********************************************************************

            Population analysis using the SCF density.

 **********************************************************************

 Orbital symmetries:
       Occupied  (A) (A) (A) (A) (A) (A) (A) (A) (A) (A) (A) (A)
                 (A) (A) (A) (A) (A) (A)
       Virtual   (A) (A) (A) (A) (A) (A) (A) (A) (A) (A) (A) (A)
                 (A) (A) (A) (A) (A) (A) (A) (A) (A) (A) (A) (A)
                 (A) (A) (A) (A) (A) (A) (A) (A) (A) (A) (A) (A)
                 (A) (A) (A) (A) (A) (A) (A) (A) (A) (A) (A) (A)
                 (A) (A) (A) (A) (A) (A) (A) (A) (A) (A) (A) (A)
                 (A) (A) (A) (A) (A) (A) (A) (A) (A) (A) (A) (A)
                 (A) (A) (A) (A) (A) (A) (A) (A) (A) (A) (A) (A)
                 (A) (A) (A) (A) (A) (A) (A) (A) (A) (A) (A) (A)
                 (A) (A) (A) (A) (A) (A) (A) (A) (A) (A) (A) (A)
                 (A) (A) (A) (A) (A) (A) (A) (A) (A) (A) (A) (A)
                 (A) (A) (A) (A) (A) (A) (A) (A) (A) (A) (A) (A)
                 (A) (A) (A) (A) (A) (A) (A) (A) (A) (A) (A) (A)
                 (A) (A) (A) (A) (A) (A) (A) (A) (A) (A) (A) (A)
                 (A) (A) (A) (A) (A) (A) (A) (A) (A) (A) (A) (A)
                 (A) (A) (A) (A) (A) (A) (A) (A) (A) (A) (A)
 The electronic state is 1-A.
 Alpha  occ. eigenvalues -- -511.18569 -66.73382 -60.39493 -60.39490 -60.39489
 Alpha  occ. eigenvalues --   -9.66931  -7.41183  -7.41181  -7.41181  -3.35590
 Alpha  occ. eigenvalues --   -3.35589  -3.35589  -3.35587  -3.35587  -1.08851
 Alpha  occ. eigenvalues --   -0.52696  -0.52693  -0.52691
 Alpha virt. eigenvalues --    0.03046   0.04934   0.08506   0.09557   0.12091
 Alpha virt. eigenvalues --    0.13191   0.13562   0.13737   0.15917   0.17140
 Alpha virt. eigenvalues --    0.17757   0.18665   0.21315   0.26466   0.27515
 Alpha virt. eigenvalues --    0.27720   0.29653   0.32210   0.33681   0.37309
 Alpha virt. eigenvalues --    0.37686   0.38820   0.39497   0.40574   0.42072
 Alpha virt. eigenvalues --    0.42164   0.46231   0.54678   0.56644   0.59657
 Alpha virt. eigenvalues --    0.62844   0.64801   0.68912   0.70419   0.72548
 Alpha virt. eigenvalues --    0.72968   0.74795   0.77164   0.77596   0.78753
 Alpha virt. eigenvalues --    0.79937   0.83493   0.85405   0.86287   0.89188
 Alpha virt. eigenvalues --    0.89845   0.90443   0.92121   0.93702   0.98124
 Alpha virt. eigenvalues --    0.99935   1.00392   1.01465   1.02453   1.04190
 Alpha virt. eigenvalues --    1.06899   1.08726   1.10362   1.15251   1.16948
 Alpha virt. eigenvalues --    1.20791   1.23426   1.29510   1.34428   1.37911
 Alpha virt. eigenvalues --    1.39967   1.42016   1.46579   1.48650   1.53158
 Alpha virt. eigenvalues --    1.58717   1.60888   1.62272   1.74878   1.77553
 Alpha virt. eigenvalues --    1.84495   1.85084   1.87780   1.90290   2.20132
 Alpha virt. eigenvalues --    2.23186   2.26116   2.27588   2.31629   2.35840
 Alpha virt. eigenvalues --    2.37085   2.37914   2.38558   2.40015   2.43136
 Alpha virt. eigenvalues --    2.45609   2.47652   2.51249   2.54323   2.55109
 Alpha virt. eigenvalues --    2.56313   2.56897   2.61213   2.62207   2.62531
 Alpha virt. eigenvalues --    2.65308   2.67435   2.68429   2.71494   2.73662
 Alpha virt. eigenvalues --    2.76496   2.81315   2.85216   2.90270   2.93414
 Alpha virt. eigenvalues --    2.96480   2.99582   3.05509   3.11313   3.19896
 Alpha virt. eigenvalues --    3.24498   3.27207   3.31507   3.41561   3.49304
 Alpha virt. eigenvalues --    3.61273   3.65501   3.85582   3.87888   4.02262
 Alpha virt. eigenvalues --    4.45095   4.47872   4.53700   4.59160   4.70729
 Alpha virt. eigenvalues --    4.71775   4.86718   4.90104   4.98688   5.04349
 Alpha virt. eigenvalues --    5.16807   5.24305   5.59839   5.61054   5.74311
 Alpha virt. eigenvalues --    5.97890   6.02821   6.14207   6.75767   6.89760
 Alpha virt. eigenvalues --    7.33298   7.36651   7.64397   7.69149   7.76978
 Alpha virt. eigenvalues --    7.85824   8.01352   8.14340   8.18888   8.26666
 Alpha virt. eigenvalues --    8.27093   8.41871   8.68138   8.97361   9.51597
 Alpha virt. eigenvalues --    9.72454   9.80810   9.90216   9.93391   9.94559
 Alpha virt. eigenvalues --   10.19416  10.22126  10.64730  10.89898  11.52388
 Alpha virt. eigenvalues --   11.62521  11.71054  11.97286  12.01817  13.24639
 Alpha virt. eigenvalues --   13.62165  14.53961  62.42683  64.72000
          Condensed to atoms (all electrons):
              1          2          3          4          5
     1  O    0.001221  -0.000323  -0.000845   0.000513  -0.007892
     2  O   -0.000323   0.003216  -0.000024  -0.002802  -0.001468
     3  H   -0.000845  -0.000024   0.001587   0.000173  -0.016956
     4  H    0.000513  -0.002802   0.000173   0.003858  -0.027570
     5  Kr  -0.007892  -0.001468  -0.016956  -0.027570  36.104503
 Mulliken atomic charges:
              1
     1  O    0.007325
     2  O    0.001401
     3  H    0.016064
     4  H    0.025828
     5  Kr  -0.050618
 Sum of Mulliken atomic charges =   0.00000
 Mulliken charges with hydrogens summed into heavy atoms:
              1
     1  O    0.023390
     2  O    0.027229
     5  Kr  -0.050618
 Sum of Mulliken charges with hydrogens summed into heavy atoms =   0.00000
          Condensed to fragments (all electrons):
     1       0.050618
     2      -0.050618
 Electronic spatial extent (au):  <R**2>=            159.6742
 Charge=              0.0000 electrons
 Dipole moment (field-independent basis, Debye):
    X=              0.0013    Y=              0.0001    Z=              0.0000  Tot=              0.0013
 Quadrupole moment (field-independent basis, Debye-Ang):
   XX=            -17.5388   YY=            -17.5485   ZZ=            -17.5570
   XY=              0.0009   XZ=              0.0024   YZ=             -0.0013
 Traceless Quadrupole moment (field-independent basis, Debye-Ang):
   XX=              0.0093   YY=             -0.0004   ZZ=             -0.0089
   XY=              0.0009   XZ=              0.0024   YZ=             -0.0013
 Octapole moment (field-independent basis, Debye-Ang**2):
  XXX=             50.9456  YYY=              0.0631  ZZZ=              0.1664  XYY=             16.9950
  XXY=              0.0192  XXZ=              0.0522  XZZ=             16.9996  YZZ=              0.0215
  YYZ=              0.0558  XYZ=              0.0003
 Hexadecapole moment (field-independent basis, Debye-Ang**3):
 XXXX=           -116.6574 YYYY=            -18.0267 ZZZZ=            -18.0548 XXXY=             -0.0584
 XXXZ=             -0.1548 YYYX=             -0.0586 YYYZ=             -0.0007 ZZZX=             -0.1551
 ZZZY=             -0.0027 XXYY=            -22.4566 XXZZ=            -22.4641 YYZZ=             -6.0125
 XXYZ=             -0.0007 YYXZ=             -0.0521 ZZXY=             -0.0187
 N-N= 0.000000000000D+00 E-N=-6.579038208160D+03  KE= 2.749504874049D+03
 No NMR shielding tensors so no spin-rotation constants.
 Leave Link  601 at Fri May  8 09:15:16 2020, MaxMem= 1073741824 cpu:       0.8
 (Enter /home/matheus/.gaussian/g09/l122.exe)
 Counterpoise: doing MCBS calculation for fragment   1
 Leave Link  122 at Fri May  8 09:15:16 2020, MaxMem= 1073741824 cpu:       0.0
 (Enter /home/matheus/.gaussian/g09/l301.exe)
 Basis read from rwf:  (5D, 7F)
 No pseudopotential information found on rwf file.
 There are   138 symmetry adapted basis functions of A   symmetry.
 Integral buffers will be    131072 words long.
 Raffenetti 2 integral format.
 Two-electron integral symmetry is turned on.
   138 basis functions,   198 primitive gaussians,   160 cartesian basis functions
     9 alpha electrons        9 beta electrons
       nuclear repulsion energy        36.6600463863 Hartrees.
 IExCor=32609 DFT=T Ex+Corr=LC-wPBE ExCW=0 ScaHFX=  1.000000
 ScaDFX=  1.000000  0.000000  1.000000  1.000000 ScalE2=  1.000000  1.000000
 IRadAn=      5 IRanWt=     -1 IRanGd=            0 ICorTp=0
  HFx wShort=  0.000000 wLong=  0.550000 cFull=  0.000000 cShort=  0.000000 cLong=  1.000000
  DFx wShort=  0.000000 wLong=  0.550000 cFull=  0.000000 cShort=  0.000000 cLong=  1.000000
 NAtoms=    5 NActive=    4 NUniq=    4 SFac= 1.00D+00 NAtFMM=   60 NAOKFM=F Big=F
 No density basis found on file   718.
 Leave Link  301 at Fri May  8 09:15:16 2020, MaxMem= 1073741824 cpu:       0.2
 (Enter /home/matheus/.gaussian/g09/l302.exe)
 NPDir=0 NMtPBC=     1 NCelOv=     1 NCel=       1 NClECP=     1 NCelD=      1
         NCelK=      1 NCelE2=     1 NClLst=     1 CellRange=     0.0.
 One-electron integrals computed using PRISM.
 NBasis=   138 RedAO= T  NBF=   138
 NBsUse=   138 1.00D-06 NBFU=   138
 Precomputing XC quadrature grid using
 IXCGrd= 2 IRadAn=           5 IRanWt=          -1 IRanGd=           0 AccXCQ= 0.00D+00.
 NRdTot=     344 NPtTot=       92556 NUsed=       95038 NTot=       95070
 NSgBfM=   160   160   160   160   160 NAtAll=     4     4.
 Leave Link  302 at Fri May  8 09:15:17 2020, MaxMem= 1073741824 cpu:       0.7
 (Enter /home/matheus/.gaussian/g09/l303.exe)
 DipDrv:  MaxL=1.
 Leave Link  303 at Fri May  8 09:15:17 2020, MaxMem= 1073741824 cpu:       0.2
 (Enter /home/matheus/.gaussian/g09/l401.exe)
 Harris functional with IExCor=32609 diagonalized for initial guess.
 ExpMin= 2.53D-02 ExpMax= 1.53D+04 ExpMxC= 5.22D+02 IAcc=3 IRadAn=         5 AccDes= 0.00D+00
 HarFok:  IExCor=32609 AccDes= 0.00D+00 IRadAn=         5 IDoV= 1
 ScaDFX=  1.000000  1.000000  1.000000  1.000000
 FoFCou: FMM=F IPFlag=           0 FMFlag=      100000 FMFlg1=           0
         NFxFlg=           0 DoJE=T BraDBF=F KetDBF=T FulRan=T
         Omega=  0.000000  0.000000  1.000000  0.000000  0.000000 ICntrl=     500 IOpCl=  0
         NMat0=    1 NMatS0=    1 NMatT0=    0 NMatD0=    1 NMtDS0=    0 NMtDT0=    0
         I1Cent=           4 NGrid=           0.
 Petite list used in FoFCou.
 Harris En= -151.499567687460    
 Initial guess orbital symmetries:
       Occupied  (A) (A) (A) (A) (A) (A) (A) (A) (A)
       Virtual   (A) (A) (A) (A) (A) (A) (A) (A) (A) (A) (A) (A)
                 (A) (A) (A) (A) (A) (A) (A) (A) (A) (A) (A) (A)
                 (A) (A) (A) (A) (A) (A) (A) (A) (A) (A) (A) (A)
                 (A) (A) (A) (A) (A) (A) (A) (A) (A) (A) (A) (A)
                 (A) (A) (A) (A) (A) (A) (A) (A) (A) (A) (A) (A)
                 (A) (A) (A) (A) (A) (A) (A) (A) (A) (A) (A) (A)
                 (A) (A) (A) (A) (A) (A) (A) (A) (A) (A) (A) (A)
                 (A) (A) (A) (A) (A) (A) (A) (A) (A) (A) (A) (A)
                 (A) (A) (A) (A) (A) (A) (A) (A) (A) (A) (A) (A)
                 (A) (A) (A) (A) (A) (A) (A) (A) (A) (A) (A) (A)
                 (A) (A) (A) (A) (A) (A) (A) (A) (A)
 The electronic state of the initial guess is 1-A.
 Leave Link  401 at Fri May  8 09:15:17 2020, MaxMem= 1073741824 cpu:       2.0
 (Enter /home/matheus/.gaussian/g09/l502.exe)
 Closed shell SCF:
 Requested convergence on RMS density matrix=1.00D-08 within 128 cycles.
 Requested convergence on MAX density matrix=1.00D-06.
 Requested convergence on             energy=1.00D-06.
 No special actions if energy rises.
 Using DIIS extrapolation, IDIIS=  1040.
 Integral symmetry usage will be decided dynamically.
        94980 words used for storage of precomputed grid.
 IEnd=      192360 IEndB=      192360 NGot=  1073741824 MDV=  1073591865
 LenX=  1073591865 LenY=  1073565824
 Fock matrices will be formed incrementally for  20 cycles.

 Cycle   1  Pass 1  IDiag  1:
 FoFJK:  IHMeth= 1 ICntrl=     0 DoSepK=T KAlg= 1 I1Cent= 0 FoldK=F
 FoFCou: FMM=F IPFlag=           0 FMFlag=      100000 FMFlg1=           0
         NFxFlg=           0 DoJE=T BraDBF=F KetDBF=F FulRan=T
         Omega=  0.000000  0.000000  1.000000  0.000000  0.000000 ICntrl=     500 IOpCl=  0
         NMat0=    1 NMatS0=    1 NMatT0=    0 NMatD0=    1 NMtDS0=    0 NMtDT0=    0
         I1Cent=           0 NGrid=           0.
 Symmetry not used in FoFCou.
 E= -151.499022381034    
 DIIS: error= 1.95D-02 at cycle   1 NSaved=   1.
 NSaved= 1 IEnMin= 1 EnMin= -151.499022381034     IErMin= 1 ErrMin= 1.95D-02
 ErrMax= 1.95D-02 EMaxC= 1.00D-01 BMatC= 4.37D-02 BMatP= 4.37D-02
 IDIUse=3 WtCom= 8.05D-01 WtEn= 1.95D-01
 Coeff-Com:  0.100D+01
 Coeff-En:   0.100D+01
 Coeff:      0.100D+01
 Gap=     0.546 Goal=   None    Shift=    0.000
 GapD=    0.546 DampG=2.000 DampE=0.500 DampFc=1.0000 IDamp=-1.
 RMSDP=1.10D-03 MaxDP=2.34D-02              OVMax= 5.87D-02

 Cycle   2  Pass 1  IDiag  1:
 RMSU=  7.77D-04    CP:  9.94D-01
 FoFJK:  IHMeth= 1 ICntrl=     0 DoSepK=T KAlg= 1 I1Cent= 0 FoldK=F
 E= -151.516710403932     Delta-E=       -0.017688022898 Rises=F Damp=F
 DIIS: error= 1.21D-02 at cycle   2 NSaved=   2.
 NSaved= 2 IEnMin= 2 EnMin= -151.516710403932     IErMin= 2 ErrMin= 1.21D-02
 ErrMax= 1.21D-02 EMaxC= 1.00D-01 BMatC= 1.83D-02 BMatP= 4.37D-02
 IDIUse=3 WtCom= 8.79D-01 WtEn= 1.21D-01
 Coeff-Com:  0.381D+00 0.619D+00
 Coeff-En:   0.145D+00 0.855D+00
 Coeff:      0.352D+00 0.648D+00
 Gap=     0.460 Goal=   None    Shift=    0.000
 RMSDP=6.51D-04 MaxDP=2.25D-02 DE=-1.77D-02 OVMax= 2.56D-02

 Cycle   3  Pass 1  IDiag  1:
 RMSU=  3.25D-04    CP:  9.89D-01  5.86D-01
 FoFJK:  IHMeth= 1 ICntrl=     0 DoSepK=T KAlg= 1 I1Cent= 0 FoldK=F
 E= -151.527185768232     Delta-E=       -0.010475364300 Rises=F Damp=F
 DIIS: error= 2.16D-03 at cycle   3 NSaved=   3.
 NSaved= 3 IEnMin= 3 EnMin= -151.527185768232     IErMin= 3 ErrMin= 2.16D-03
 ErrMax= 2.16D-03 EMaxC= 1.00D-01 BMatC= 4.88D-04 BMatP= 1.83D-02
 IDIUse=3 WtCom= 9.78D-01 WtEn= 2.16D-02
 Coeff-Com:  0.419D-01 0.163D+00 0.795D+00
 Coeff-En:   0.000D+00 0.000D+00 0.100D+01
 Coeff:      0.410D-01 0.159D+00 0.800D+00
 Gap=     0.452 Goal=   None    Shift=    0.000
 RMSDP=8.14D-05 MaxDP=1.38D-03 DE=-1.05D-02 OVMax= 4.33D-03

 Cycle   4  Pass 1  IDiag  1:
 RMSU=  3.89D-05    CP:  9.88D-01  6.38D-01  1.01D+00
 FoFJK:  IHMeth= 1 ICntrl=     0 DoSepK=T KAlg= 1 I1Cent= 0 FoldK=F
 E= -151.527491537835     Delta-E=       -0.000305769603 Rises=F Damp=F
 DIIS: error= 3.23D-04 at cycle   4 NSaved=   4.
 NSaved= 4 IEnMin= 4 EnMin= -151.527491537835     IErMin= 4 ErrMin= 3.23D-04
 ErrMax= 3.23D-04 EMaxC= 1.00D-01 BMatC= 1.04D-05 BMatP= 4.88D-04
 IDIUse=3 WtCom= 9.97D-01 WtEn= 3.23D-03
 Coeff-Com: -0.998D-02-0.125D-01 0.850D-01 0.937D+00
 Coeff-En:   0.000D+00 0.000D+00 0.000D+00 0.100D+01
 Coeff:     -0.994D-02-0.124D-01 0.848D-01 0.938D+00
 Gap=     0.454 Goal=   None    Shift=    0.000
 RMSDP=1.73D-05 MaxDP=6.26D-04 DE=-3.06D-04 OVMax= 8.16D-04

 Cycle   5  Pass 1  IDiag  1:
 RMSU=  6.38D-06    CP:  9.88D-01  6.35D-01  1.04D+00  1.05D+00
 FoFJK:  IHMeth= 1 ICntrl=     0 DoSepK=T KAlg= 1 I1Cent= 0 FoldK=F
 E= -151.527500300014     Delta-E=       -0.000008762179 Rises=F Damp=F
 DIIS: error= 6.77D-05 at cycle   5 NSaved=   5.
 NSaved= 5 IEnMin= 5 EnMin= -151.527500300014     IErMin= 5 ErrMin= 6.77D-05
 ErrMax= 6.77D-05 EMaxC= 1.00D-01 BMatC= 2.14D-07 BMatP= 1.04D-05
 IDIUse=1 WtCom= 1.00D+00 WtEn= 0.00D+00
 Coeff-Com: -0.217D-03-0.166D-02-0.317D-01-0.119D+00 0.115D+01
 Coeff:     -0.217D-03-0.166D-02-0.317D-01-0.119D+00 0.115D+01
 Gap=     0.454 Goal=   None    Shift=    0.000
 RMSDP=4.61D-06 MaxDP=8.15D-05 DE=-8.76D-06 OVMax= 2.45D-04

 Cycle   6  Pass 1  IDiag  1:
 RMSU=  1.61D-06    CP:  9.88D-01  6.35D-01  1.04D+00  1.09D+00  1.31D+00
 FoFJK:  IHMeth= 1 ICntrl=     0 DoSepK=T KAlg= 1 I1Cent= 0 FoldK=F
 E= -151.527500823677     Delta-E=       -0.000000523662 Rises=F Damp=F
 DIIS: error= 1.30D-05 at cycle   6 NSaved=   6.
 NSaved= 6 IEnMin= 6 EnMin= -151.527500823677     IErMin= 6 ErrMin= 1.30D-05
 ErrMax= 1.30D-05 EMaxC= 1.00D-01 BMatC= 1.15D-08 BMatP= 2.14D-07
 IDIUse=1 WtCom= 1.00D+00 WtEn= 0.00D+00
 Coeff-Com:  0.221D-03 0.700D-03 0.561D-02 0.598D-02-0.266D+00 0.125D+01
 Coeff:      0.221D-03 0.700D-03 0.561D-02 0.598D-02-0.266D+00 0.125D+01
[...]
 (Enter /home/matheus/.gaussian/g09/l502.exe)
 Closed shell SCF:
 Requested convergence on RMS density matrix=1.00D-08 within 128 cycles.
 Requested convergence on MAX density matrix=1.00D-06.
 Requested convergence on             energy=1.00D-06.
 No special actions if energy rises.
 Using DIIS extrapolation, IDIIS=  1040.
 Integral symmetry usage will be decided dynamically.
       126823 words used for storage of precomputed grid.
 IEnd=      305770 IEndB=      305770 NGot=  1073741824 MDV=  1073505365
 LenX=  1073505365 LenY=  1073452483
 Fock matrices will be formed incrementally for  20 cycles.

 Cycle   1  Pass 1  IDiag  1:
 FoFJK:  IHMeth= 1 ICntrl=     0 DoSepK=T KAlg= 1 I1Cent= 0 FoldK=F
 FoFCou: FMM=F IPFlag=           0 FMFlag=      100000 FMFlg1=           0
         NFxFlg=           0 DoJE=T BraDBF=F KetDBF=F FulRan=T
         Omega=  0.000000  0.000000  1.000000  0.000000  0.000000 ICntrl=     500 IOpCl=  0
         NMat0=    1 NMatS0=    1 NMatT0=    0 NMatD0=    1 NMtDS0=    0 NMtDT0=    0
         I1Cent=           0 NGrid=           0.
 Symmetry not used in FoFCou.
 E= -2753.47778067312    
 DIIS: error= 1.93D-04 at cycle   1 NSaved=   1.
 NSaved= 1 IEnMin= 1 EnMin= -2753.47778067312     IErMin= 1 ErrMin= 1.93D-04
 ErrMax= 1.93D-04 EMaxC= 1.00D-01 BMatC= 5.16D-06 BMatP= 5.16D-06
 IDIUse=3 WtCom= 9.98D-01 WtEn= 1.93D-03
 Coeff-Com:  0.100D+01
 Coeff-En:   0.100D+01
 Coeff:      0.100D+01
 Gap=     0.556 Goal=   None    Shift=    0.000
 RMSDP=1.28D-05 MaxDP=5.42D-04              OVMax= 3.41D-04

 Cycle   2  Pass 1  IDiag  1:
 RMSU=  9.08D-06    CP:  1.00D+00
 FoFJK:  IHMeth= 1 ICntrl=     0 DoSepK=T KAlg= 1 I1Cent= 0 FoldK=F
 E= -2753.47778134766     Delta-E=       -0.000000674545 Rises=F Damp=F
 DIIS: error= 5.82D-06 at cycle   2 NSaved=   2.
 NSaved= 2 IEnMin= 2 EnMin= -2753.47778134766     IErMin= 2 ErrMin= 5.82D-06
 ErrMax= 5.82D-06 EMaxC= 1.00D-01 BMatC= 4.88D-09 BMatP= 5.16D-06
 IDIUse=1 WtCom= 1.00D+00 WtEn= 0.00D+00
 Coeff-Com: -0.947D-02 0.101D+01
 Coeff:     -0.947D-02 0.101D+01
 Gap=     0.556 Goal=   None    Shift=    0.000
 RMSDP=1.17D-06 MaxDP=5.03D-05 DE=-6.75D-07 OVMax= 5.14D-05

 Cycle   3  Pass 1  IDiag  1:
 RMSU=  4.84D-07    CP:  1.00D+00  1.07D+00
 FoFJK:  IHMeth= 1 ICntrl=     0 DoSepK=T KAlg= 1 I1Cent= 0 FoldK=F
 E= -2753.47778135605     Delta-E=       -0.000000008390 Rises=F Damp=F
 DIIS: error= 8.93D-07 at cycle   3 NSaved=   3.
 NSaved= 3 IEnMin= 3 EnMin= -2753.47778135605     IErMin= 3 ErrMin= 8.93D-07
 ErrMax= 8.93D-07 EMaxC= 1.00D-01 BMatC= 1.14D-10 BMatP= 4.88D-09
 IDIUse=1 WtCom= 1.00D+00 WtEn= 0.00D+00
 Coeff-Com:  0.336D-03-0.127D+00 0.113D+01
 Coeff:      0.336D-03-0.127D+00 0.113D+01
 Gap=     0.556 Goal=   None    Shift=    0.000
 RMSDP=1.72D-07 MaxDP=6.24D-06 DE=-8.39D-09 OVMax= 1.03D-05

 Cycle   4  Pass 1  IDiag  1:
 RMSU=  4.97D-08    CP:  1.00D+00  1.08D+00  1.22D+00
 FoFJK:  IHMeth= 1 ICntrl=     0 DoSepK=T KAlg= 1 I1Cent= 0 FoldK=F
 E= -2753.47778134128     Delta-E=        0.000000014772 Rises=F Damp=F
 DIIS: error= 3.27D-07 at cycle   4 NSaved=   4.
 NSaved= 4 IEnMin= 3 EnMin= -2753.47778135605     IErMin= 4 ErrMin= 3.27D-07
 ErrMax= 3.27D-07 EMaxC= 1.00D-01 BMatC= 5.63D-12 BMatP= 1.14D-10
 IDIUse=1 WtCom= 1.00D+00 WtEn= 0.00D+00
 Coeff-Com:  0.182D-03-0.362D-01 0.205D+00 0.831D+00
 Coeff:      0.182D-03-0.362D-01 0.205D+00 0.831D+00
 Gap=     0.556 Goal=   None    Shift=    0.000
 RMSDP=1.99D-08 MaxDP=7.39D-07 DE= 1.48D-08 OVMax= 1.01D-06

 Cycle   5  Pass 1  IDiag  1:
 RMSU=  7.32D-09    CP:  1.00D+00  1.08D+00  1.24D+00  1.13D+00
 FoFJK:  IHMeth= 1 ICntrl=     0 DoSepK=T KAlg= 1 I1Cent= 0 FoldK=F
 E= -2753.47778134129     Delta-E=       -0.000000000015 Rises=F Damp=F
 DIIS: error= 2.95D-08 at cycle   5 NSaved=   5.
 NSaved= 5 IEnMin= 3 EnMin= -2753.47778135605     IErMin= 5 ErrMin= 2.95D-08
 ErrMax= 2.95D-08 EMaxC= 1.00D-01 BMatC= 1.65D-13 BMatP= 5.63D-12
 IDIUse=1 WtCom= 1.00D+00 WtEn= 0.00D+00
 Coeff-Com: -0.287D-04 0.827D-02-0.652D-01-0.422D-01 0.110D+01
 Coeff:     -0.287D-04 0.827D-02-0.652D-01-0.422D-01 0.110D+01
 Gap=     0.556 Goal=   None    Shift=    0.000
 RMSDP=7.52D-09 MaxDP=3.23D-07 DE=-1.46D-11 OVMax= 3.68D-07

 SCF Done:  E(RLC-wPBE) =  -2753.47778134     A.U. after    5 cycles
             Convg  =    0.7520D-08             -V/T =  2.0014
 KE= 2.749555138294D+03 PE=-6.579093050012D+03 EE= 1.076060130377D+03
 Leave Link  502 at Fri May  8 09:38:14 2020, MaxMem= 1073741824 cpu:     123.9
 (Enter /home/matheus/.gaussian/g09/l122.exe)
 Restoring MOs from calculation   4 to rwf.
 Counterpoise: doing MCBS calculation for fragment   1
 Leave Link  122 at Fri May  8 09:38:14 2020, MaxMem= 1073741824 cpu:       0.0
 (Enter /home/matheus/.gaussian/g09/l301.exe)
 Basis read from rwf:  (5D, 7F)
 No pseudopotential information found on rwf file.
 There are   138 symmetry adapted basis functions of A   symmetry.
 Integral buffers will be    131072 words long.
 Raffenetti 2 integral format.
 Two-electron integral symmetry is turned on.
   138 basis functions,   198 primitive gaussians,   160 cartesian basis functions
     9 alpha electrons        9 beta electrons
       nuclear repulsion energy        36.6600463863 Hartrees.
 IExCor=32609 DFT=T Ex+Corr=LC-wPBE ExCW=0 ScaHFX=  1.000000
 ScaDFX=  1.000000  0.000000  1.000000  1.000000 ScalE2=  1.000000  1.000000
 IRadAn=      5 IRanWt=     -1 IRanGd=            0 ICorTp=0
  HFx wShort=  0.000000 wLong=  0.550000 cFull=  0.000000 cShort=  0.000000 cLong=  1.000000
  DFx wShort=  0.000000 wLong=  0.550000 cFull=  0.000000 cShort=  0.000000 cLong=  1.000000
 NAtoms=    5 NActive=    4 NUniq=    4 SFac= 1.00D+00 NAtFMM=   60 NAOKFM=F Big=F
 No density basis found on file   718.
 Leave Link  301 at Fri May  8 09:38:14 2020, MaxMem= 1073741824 cpu:       0.2
 (Enter /home/matheus/.gaussian/g09/l302.exe)
 NPDir=0 NMtPBC=     1 NCelOv=     1 NCel=       1 NClECP=     1 NCelD=      1
         NCelK=      1 NCelE2=     1 NClLst=     1 CellRange=     0.0.
 One-electron integrals computed using PRISM.
 NBasis=   138 RedAO= T  NBF=   138
 NBsUse=   138 1.00D-06 NBFU=   138
 Precomputing XC quadrature grid using
 IXCGrd= 2 IRadAn=           5 IRanWt=          -1 IRanGd=           0 AccXCQ= 0.00D+00.
 NRdTot=     344 NPtTot=       92556 NUsed=       95038 NTot=       95070
 NSgBfM=   160   160   160   160   160 NAtAll=     4     4.
 Leave Link  302 at Fri May  8 09:38:14 2020, MaxMem= 1073741824 cpu:       0.8
 (Enter /home/matheus/.gaussian/g09/l303.exe)
 DipDrv:  MaxL=1.
 Leave Link  303 at Fri May  8 09:38:14 2020, MaxMem= 1073741824 cpu:       0.2
 (Enter /home/matheus/.gaussian/g09/l401.exe)
 Initial guess read from the read-write file.
 Guess basis will be translated and rotated to current coordinates.
 Initial guess orbital symmetries:
       Occupied  (A) (A) (A) (A) (A) (A) (A) (A) (A)
       Virtual   (A) (A) (A) (A) (A) (A) (A) (A) (A) (A) (A) (A)
                 (A) (A) (A) (A) (A) (A) (A) (A) (A) (A) (A) (A)
                 (A) (A) (A) (A) (A) (A) (A) (A) (A) (A) (A) (A)
                 (A) (A) (A) (A) (A) (A) (A) (A) (A) (A) (A) (A)
                 (A) (A) (A) (A) (A) (A) (A) (A) (A) (A) (A) (A)
                 (A) (A) (A) (A) (A) (A) (A) (A) (A) (A) (A) (A)
                 (A) (A) (A) (A) (A) (A) (A) (A) (A) (A) (A) (A)
                 (A) (A) (A) (A) (A) (A) (A) (A) (A) (A) (A) (A)
                 (A) (A) (A) (A) (A) (A) (A) (A) (A) (A) (A) (A)
                 (A) (A) (A) (A) (A) (A) (A) (A) (A) (A) (A) (A)
                 (A) (A) (A) (A) (A) (A) (A) (A) (A)
 The electronic state of the initial guess is 1-A.
 Generating alternative initial guess.
 Harris functional with IExCor=32609 diagonalized for initial guess.
 ExpMin= 2.53D-02 ExpMax= 1.53D+04 ExpMxC= 5.22D+02 IAcc=3 IRadAn=         5 AccDes= 0.00D+00
 HarFok:  IExCor=32609 AccDes= 0.00D+00 IRadAn=         5 IDoV= 1
 ScaDFX=  1.000000  1.000000  1.000000  1.000000
 FoFCou: FMM=F IPFlag=           0 FMFlag=      100000 FMFlg1=           0
         NFxFlg=           0 DoJE=T BraDBF=F KetDBF=T FulRan=T
         Omega=  0.000000  0.000000  1.000000  0.000000  0.000000 ICntrl=     500 IOpCl=  0
         NMat0=    1 NMatS0=    1 NMatT0=    0 NMatD0=    1 NMtDS0=    0 NMtDT0=    0
         I1Cent=           4 NGrid=           0.
 Petite list used in FoFCou.
 Harris En= -151.499567649487    
 Leave Link  401 at Fri May  8 09:38:15 2020, MaxMem= 1073741824 cpu:       2.6
 (Enter /home/matheus/.gaussian/g09/l502.exe)
 Closed shell SCF:
 Requested convergence on RMS density matrix=1.00D-08 within 128 cycles.
 Requested convergence on MAX density matrix=1.00D-06.
 Requested convergence on             energy=1.00D-06.
 No special actions if energy rises.
 Using DIIS extrapolation, IDIIS=  1040.
 Integral symmetry usage will be decided dynamically.
        94980 words used for storage of precomputed grid.
 IEnd=      192360 IEndB=      192360 NGot=  1073741824 MDV=  1073591865
 LenX=  1073591865 LenY=  1073565824
 Fock matrices will be formed incrementally for  20 cycles.

 Cycle   1  Pass 1  IDiag  1:
 FoFJK:  IHMeth= 1 ICntrl=     0 DoSepK=T KAlg= 1 I1Cent= 0 FoldK=F
 FoFCou: FMM=F IPFlag=           0 FMFlag=      100000 FMFlg1=           0
         NFxFlg=           0 DoJE=T BraDBF=F KetDBF=F FulRan=T
         Omega=  0.000000  0.000000  1.000000  0.000000  0.000000 ICntrl=     500 IOpCl=  0
         NMat0=    1 NMatS0=    1 NMatT0=    0 NMatD0=    1 NMtDS0=    0 NMtDT0=    0
         I1Cent=           0 NGrid=           0.
 Symmetry not used in FoFCou.
 E= -151.527500899531    
 DIIS: error= 2.52D-06 at cycle   1 NSaved=   1.
 NSaved= 1 IEnMin= 1 EnMin= -151.527500899531     IErMin= 1 ErrMin= 2.52D-06
 ErrMax= 2.52D-06 EMaxC= 1.00D-01 BMatC= 1.30D-09 BMatP= 1.30D-09
 IDIUse=1 WtCom= 1.00D+00 WtEn= 0.00D+00
 Coeff-Com:  0.100D+01
 Coeff:      0.100D+01
 Gap=     0.454 Goal=   None    Shift=    0.000
 RMSDP=2.65D-07 MaxDP=6.17D-06              OVMax= 9.32D-06

 Cycle   2  Pass 1  IDiag  1:
 RMSU=  1.87D-07    CP:  1.00D+00
 FoFJK:  IHMeth= 1 ICntrl=     0 DoSepK=T KAlg= 1 I1Cent= 0 FoldK=F
 E= -151.527500900365     Delta-E=       -0.000000000834 Rises=F Damp=F
 DIIS: error= 5.77D-07 at cycle   2 NSaved=   2.
 NSaved= 2 IEnMin= 2 EnMin= -151.527500900365     IErMin= 2 ErrMin= 5.77D-07
 ErrMax= 5.77D-07 EMaxC= 1.00D-01 BMatC= 5.71D-11 BMatP= 1.30D-09
 IDIUse=1 WtCom= 1.00D+00 WtEn= 0.00D+00
 Coeff-Com: -0.145D+00 0.114D+01
 Coeff:     -0.145D+00 0.114D+01
 Gap=     0.454 Goal=   None    Shift=    0.000
 RMSDP=7.17D-08 MaxDP=2.12D-06 DE=-8.34D-10 OVMax= 3.38D-06

 Cycle   3  Pass 1  IDiag  1:
 RMSU=  2.33D-08    CP:  1.00D+00  1.24D+00
 FoFJK:  IHMeth= 1 ICntrl=     0 DoSepK=T KAlg= 1 I1Cent= 0 FoldK=F
 E= -151.527500900465     Delta-E=       -0.000000000101 Rises=F Damp=F
 DIIS: error= 1.80D-07 at cycle   3 NSaved=   3.
 NSaved= 3 IEnMin= 3 EnMin= -151.527500900465     IErMin= 3 ErrMin= 1.80D-07
 ErrMax= 1.80D-07 EMaxC= 1.00D-01 BMatC= 4.40D-12 BMatP= 5.71D-11
 IDIUse=1 WtCom= 1.00D+00 WtEn= 0.00D+00
 Coeff-Com: -0.215D-01 0.115D-01 0.101D+01
 Coeff:     -0.215D-01 0.115D-01 0.101D+01
 Gap=     0.454 Goal=   None    Shift=    0.000
 RMSDP=1.84D-08 MaxDP=4.58D-07 DE=-1.01D-10 OVMax= 1.20D-06

 Cycle   4  Pass 1  IDiag  1:
 RMSU=  7.69D-09    CP:  1.00D+00  1.29D+00  1.21D+00
 FoFJK:  IHMeth= 1 ICntrl=     0 DoSepK=T KAlg= 1 I1Cent= 0 FoldK=F
 E= -151.527500900474     Delta-E=       -0.000000000009 Rises=F Damp=F
 DIIS: error= 1.41D-07 at cycle   4 NSaved=   4.
 NSaved= 4 IEnMin= 4 EnMin= -151.527500900474     IErMin= 4 ErrMin= 1.41D-07
 ErrMax= 1.41D-07 EMaxC= 1.00D-01 BMatC= 2.51D-12 BMatP= 4.40D-12
 IDIUse=1 WtCom= 1.00D+00 WtEn= 0.00D+00
 Coeff-Com:  0.547D-02-0.119D+00 0.465D+00 0.649D+00
 Coeff:      0.547D-02-0.119D+00 0.465D+00 0.649D+00
 Gap=     0.454 Goal=   None    Shift=    0.000
 RMSDP=7.81D-09 MaxDP=1.97D-07 DE=-8.53D-12 OVMax= 5.85D-07

 SCF Done:  E(RLC-wPBE) =  -151.527500900     A.U. after    4 cycles
             Convg  =    0.7815D-08             -V/T =  2.0069
 KE= 1.504906451845D+02 PE=-4.316069048872D+02 EE= 9.292871241587D+01
 Leave Link  502 at Fri May  8 09:38:19 2020, MaxMem= 1073741824 cpu:      35.2
 (Enter /home/matheus/.gaussian/g09/l122.exe)
 Restoring MOs from calculation   5 to rwf.
 Counterpoise: doing MCBS calculation for fragment   2
 Leave Link  122 at Fri May  8 09:38:19 2020, MaxMem= 1073741824 cpu:       0.0
 (Enter /home/matheus/.gaussian/g09/l301.exe)
 Basis read from rwf:  (5D, 7F)
 No pseudopotential information found on rwf file.
 There are    59 symmetry adapted basis functions of A   symmetry.
 Integral buffers will be    131072 words long.
 Raffenetti 2 integral format.
 Two-electron integral symmetry is turned on.
    59 basis functions,   217 primitive gaussians,    69 cartesian basis functions
    18 alpha electrons       18 beta electrons
       nuclear repulsion energy         0.0000000000 Hartrees.
 IExCor=32609 DFT=T Ex+Corr=LC-wPBE ExCW=0 ScaHFX=  1.000000
 ScaDFX=  1.000000  0.000000  1.000000  1.000000 ScalE2=  1.000000  1.000000
 IRadAn=      5 IRanWt=     -1 IRanGd=            0 ICorTp=0
  HFx wShort=  0.000000 wLong=  0.550000 cFull=  0.000000 cShort=  0.000000 cLong=  1.000000
  DFx wShort=  0.000000 wLong=  0.550000 cFull=  0.000000 cShort=  0.000000 cLong=  1.000000
 NAtoms=    5 NActive=    1 NUniq=    1 SFac= 1.00D+00 NAtFMM=   60 NAOKFM=F Big=F
 No density basis found on file   718.
 Leave Link  301 at Fri May  8 09:38:19 2020, MaxMem= 1073741824 cpu:       0.2
 (Enter /home/matheus/.gaussian/g09/l302.exe)
 NPDir=0 NMtPBC=     1 NCelOv=     1 NCel=       1 NClECP=     1 NCelD=      1
         NCelK=      1 NCelE2=     1 NClLst=     1 CellRange=     0.0.
 One-electron integrals computed using PRISM.
 NBasis=    59 RedAO= T  NBF=    59
 NBsUse=    59 1.00D-06 NBFU=    59
 Precomputing XC quadrature grid using
 IXCGrd= 2 IRadAn=           5 IRanWt=          -1 IRanGd=           0 AccXCQ= 0.00D+00.
 NRdTot=      81 NPtTot=       30352 NUsed=       30981 NTot=       31013
 NSgBfM=    69    69    69    69    69 NAtAll=     1     1.
 Leave Link  302 at Fri May  8 09:38:19 2020, MaxMem= 1073741824 cpu:       0.7
 (Enter /home/matheus/.gaussian/g09/l303.exe)
 DipDrv:  MaxL=1.
 Leave Link  303 at Fri May  8 09:38:19 2020, MaxMem= 1073741824 cpu:       0.1
 (Enter /home/matheus/.gaussian/g09/l401.exe)
 Initial guess read from the read-write file.
 Guess basis will be translated and rotated to current coordinates.
 Initial guess orbital symmetries:
       Occupied  (A) (A) (A) (A) (A) (A) (A) (A) (A) (A) (A) (A)
                 (A) (A) (A) (A) (A) (A)
       Virtual   (A) (A) (A) (A) (A) (A) (A) (A) (A) (A) (A) (A)
                 (A) (A) (A) (A) (A) (A) (A) (A) (A) (A) (A) (A)
                 (A) (A) (A) (A) (A) (A) (A) (A) (A) (A) (A) (A)
                 (A) (A) (A) (A) (A)
 The electronic state of the initial guess is 1-A.
 Generating alternative initial guess.
 Harris functional with IExCor=32609 diagonalized for initial guess.
 ExpMin= 4.00D-02 ExpMax= 1.17D+07 ExpMxC= 1.33D+04 IAcc=3 IRadAn=         5 AccDes= 0.00D+00
 HarFok:  IExCor=32609 AccDes= 0.00D+00 IRadAn=         5 IDoV= 1
 ScaDFX=  1.000000  1.000000  1.000000  1.000000
 FoFCou: FMM=F IPFlag=           0 FMFlag=      100000 FMFlg1=           0
         NFxFlg=           0 DoJE=T BraDBF=F KetDBF=T FulRan=T
         Omega=  0.000000  0.000000  1.000000  0.000000  0.000000 ICntrl=     500 IOpCl=  0
         NMat0=    1 NMatS0=    1 NMatT0=    0 NMatD0=    1 NMtDS0=    0 NMtDT0=    0
         I1Cent=           4 NGrid=           0.
 Petite list used in FoFCou.
 DSYEVD returned Info=          89 IAlg= 4 N=    59 NDim=    59 NE2=    18198841 trying DSYEV.
 Harris En= -2753.24576836237    
 Leave Link  401 at Fri May  8 09:38:19 2020, MaxMem= 1073741824 cpu:       1.1
 (Enter /home/matheus/.gaussian/g09/l502.exe)
 Closed shell SCF:
 Requested convergence on RMS density matrix=1.00D-08 within 128 cycles.
 Requested convergence on MAX density matrix=1.00D-06.
 Requested convergence on             energy=1.00D-06.
 No special actions if energy rises.
 Using DIIS extrapolation, IDIIS=  1040.
 Integral symmetry usage will be decided dynamically.
        30923 words used for storage of precomputed grid.
 IEnd=       64406 IEndB=       64406 NGot=  1073741824 MDV=  1073698889
 LenX=  1073698889 LenY=  1073693687
 Fock matrices will be formed incrementally for  20 cycles.

 Cycle   1  Pass 1  IDiag  1:
 FoFJK:  IHMeth= 1 ICntrl=     0 DoSepK=T KAlg= 1 I1Cent= 0 FoldK=F
 FoFCou: FMM=F IPFlag=           0 FMFlag=      100000 FMFlg1=           0
         NFxFlg=           0 DoJE=T BraDBF=F KetDBF=F FulRan=T
         Omega=  0.000000  0.000000  1.000000  0.000000  0.000000 ICntrl=     500 IOpCl=  0
         NMat0=    1 NMatS0=    1 NMatT0=    0 NMatD0=    1 NMtDS0=    0 NMtDT0=    0
         I1Cent=           0 NGrid=           0.
 Symmetry not used in FoFCou.
 E= -2753.47775989058    
 DIIS: error= 7.46D-14 at cycle   1 NSaved=   1.
 NSaved= 1 IEnMin= 1 EnMin= -2753.47775989058     IErMin= 1 ErrMin= 7.46D-14
 ErrMax= 7.46D-14 EMaxC= 1.00D-01 BMatC= 1.78D-25 BMatP= 1.78D-25
 IDIUse=1 WtCom= 1.00D+00 WtEn= 0.00D+00
 Coeff-Com:  0.100D+01
 Coeff:      0.100D+01
 Gap=     0.626 Goal=   None    Shift=    0.000
 RMSDP=6.88D-15 MaxDP=1.57D-13              OVMax= 4.07D-14

 SCF Done:  E(RLC-wPBE) =  -2753.47775989     A.U. after    1 cycles
             Convg  =    0.6876D-14             -V/T =  2.0014
 KE= 2.749561508178D+03 PE=-6.579099712888D+03 EE= 1.076060444820D+03
 Leave Link  502 at Fri May  8 09:38:21 2020, MaxMem= 1073741824 cpu:      13.3
 (Enter /home/matheus/.gaussian/g09/l122.exe)
 Restoring MOs from calculation   1 to rwf.
 Counterpoise: corrected energy =   -2905.005357841926
 Counterpoise: BSSE energy =       0.000024653838
 Leave Link  122 at Fri May  8 09:38:21 2020, MaxMem= 1073741824 cpu:       0.0
 (Enter /home/matheus/.gaussian/g09/l108.exe)
 Scan completed.

 Summary of the potential surface scan:
   N      R1          SCF    
 ----  ---------  -----------
    1     3.0000  -2753.47776
    2     3.1000  -2753.47776
    3     3.2000  -2753.47776
    4     3.3000  -2753.47776
    5     3.4000  -2753.47776
    6     3.5000  -2753.47776
    7     3.6000  -2753.47776
    8     3.7000  -2753.47776
    9     3.8000  -2753.47776
   10     3.9000  -2753.47776
   11     4.0000  -2753.47776
   12     4.1000  -2753.47776
   13     4.2000  -2753.47776
   14     4.3000  -2753.47776
   15     4.4000  -2753.47776
   16     4.5000  -2753.47776
   17     4.6000  -2753.47776
   18     4.7000  -2753.47776
   19     4.8000  -2753.47776
   20     4.9000  -2753.47776
   21     5.0000  -2753.47776
 ----  ---------  -----------
  
 Leave Link  108 at Fri May  8 09:38:21 2020, MaxMem= 1073741824 cpu:       0.0
 (Enter /home/matheus/.gaussian/g09/l9999.exe)

 Test job not archived.
 1\1\GINC-REDGIANT\Scan\RLC-wPBE\Aug-CC-pVTZ\H2Kr1O2\MATHEUS\08-May-202
 0\1\\#p lc-wpbe/aug-cc-PVTz iop(3/107=0550000000) iop(3/108=0550000000
 ) int=ultrafine counterpoise=2 Scan\\TCC\\0,1\O,0,0.,0.,0.725\O,0,0.,0
 .,-0.725\H,0,0.4593602974,0.795635374,1.0235104166\H,0,0.,0.9187205947
 ,-1.0235104166\Kr,0,0.,R1,0.\\R1=3.,s,20,0.1\\Version=EM64L-G09RevC.01
 \State=1-A\HF=-2753.4777599,-2753.4777599,-2753.4777599,-2753.4777599,
 -2753.4777599,-2753.4777599,-2753.4777599,-2753.4777599,-2753.4777599,
 -2753.4777599,-2753.4777599,-2753.4777599,-2753.4777599,-2753.4777599,
 -2753.4777599,-2753.4777599,-2753.4777599,-2753.4777599,-2753.4777599,
 -2753.4777599,-2753.4777599\RMSD=1.997e-09,5.419e-11,1.021e-11,4.438e-
 12,2.186e-12,1.228e-12,6.794e-13,3.772e-13,2.101e-13,1.165e-13,6.023e-
 14,3.439e-14,2.415e-14,1.276e-14,9.643e-15,1.285e-14,2.011e-14,1.491e-
 14,5.850e-15,5.256e-15,6.876e-15\PG=C01 [X(H2Kr1O2)]\\@


 FESTINA LENTE!
     - IMPERATOR AUGUSTUS 
 Job cpu time:  0 days  3 hours 16 minutes 12.6 seconds.
 File lengths (MBytes):  RWF=     33 Int=      0 D2E=      0 Chk=      8 Scr=      1
 Normal termination of Gaussian 09 at Fri May  8 09:38:21 2020.
