 Entering Gaussian System, Link 0=g09
 Input=/home/matheus/.tcc/Inputs-lc-wpbe/H2O2-Kr_24.com
 Output=/home/matheus/.tcc/Logs-lc-wpbe/H2O2-Kr_24.log
 Initial command:
 /home/matheus/.gaussian/g09/l1.exe /home/matheus/.gaussian/g09/scratch/Gau-24497.inp -scrdir=/home/matheus/.gaussian/g09/scratch/
 Entering Link 1 = /home/matheus/.gaussian/g09/l1.exe PID=     24500.
  
 Copyright (c) 1988,1990,1992,1993,1995,1998,2003,2009,2011,
            Gaussian, Inc.  All Rights Reserved.
  
 This is part of the Gaussian(R) 09 program.  It is based on
 the Gaussian(R) 03 system (copyright 2003, Gaussian, Inc.),
 the Gaussian(R) 98 system (copyright 1998, Gaussian, Inc.),
 the Gaussian(R) 94 system (copyright 1995, Gaussian, Inc.),
 the Gaussian 92(TM) system (copyright 1992, Gaussian, Inc.),
 the Gaussian 90(TM) system (copyright 1990, Gaussian, Inc.),
 the Gaussian 88(TM) system (copyright 1988, Gaussian, Inc.),
 the Gaussian 86(TM) system (copyright 1986, Carnegie Mellon
 University), and the Gaussian 82(TM) system (copyright 1983,
 Carnegie Mellon University). Gaussian is a federally registered
 trademark of Gaussian, Inc.
  
 This software contains proprietary and confidential information,
 including trade secrets, belonging to Gaussian, Inc.
  
 This software is provided under written license and may be
 used, copied, transmitted, or stored only in accord with that
 written license.
  
 The following legend is applicable only to US Government
 contracts under FAR:
  
                    RESTRICTED RIGHTS LEGEND
  
 Use, reproduction and disclosure by the US Government is
 subject to restrictions as set forth in subparagraphs (a)
 and (c) of the Commercial Computer Software - Restricted
 Rights clause in FAR 52.227-19.
  
 Gaussian, Inc.
 340 Quinnipiac St., Bldg. 40, Wallingford CT 06492
  
  
 ---------------------------------------------------------------
 Warning -- This program may not be used in any manner that
 competes with the business of Gaussian, Inc. or will provide
 assistance to any competitor of Gaussian, Inc.  The licensee
 of this program is prohibited from giving any competitor of
 Gaussian, Inc. access to this program.  By using this program,
 the user acknowledges that Gaussian, Inc. is engaged in the
 business of creating and licensing software in the field of
 computational chemistry and represents and warrants to the
 licensee that it is not a competitor of Gaussian, Inc. and that
 it will not use this program in any manner prohibited above.
 ---------------------------------------------------------------
  

 Cite this work as:
 Gaussian 09, Revision C.01,
 M. J. Frisch, G. W. Trucks, H. B. Schlegel, G. E. Scuseria, 
 M. A. Robb, J. R. Cheeseman, G. Scalmani, V. Barone, B. Mennucci, 
 G. A. Petersson, H. Nakatsuji, M. Caricato, X. Li, H. P. Hratchian, 
 A. F. Izmaylov, J. Bloino, G. Zheng, J. L. Sonnenberg, M. Hada, 
 M. Ehara, K. Toyota, R. Fukuda, J. Hasegawa, M. Ishida, T. Nakajima, 
 Y. Honda, O. Kitao, H. Nakai, T. Vreven, J. A. Montgomery, Jr., 
 J. E. Peralta, F. Ogliaro, M. Bearpark, J. J. Heyd, E. Brothers, 
 K. N. Kudin, V. N. Staroverov, T. Keith, R. Kobayashi, J. Normand, 
 K. Raghavachari, A. Rendell, J. C. Burant, S. S. Iyengar, J. Tomasi, 
 M. Cossi, N. Rega, J. M. Millam, M. Klene, J. E. Knox, J. B. Cross, 
 V. Bakken, C. Adamo, J. Jaramillo, R. Gomperts, R. E. Stratmann, 
 O. Yazyev, A. J. Austin, R. Cammi, C. Pomelli, J. W. Ochterski, 
 R. L. Martin, K. Morokuma, V. G. Zakrzewski, G. A. Voth, 
 P. Salvador, J. J. Dannenberg, S. Dapprich, A. D. Daniels, 
 O. Farkas, J. B. Foresman, J. V. Ortiz, J. Cioslowski, 
 and D. J. Fox, Gaussian, Inc., Wallingford CT, 2010.
 
 ******************************************
 Gaussian 09:  EM64L-G09RevC.01 23-Sep-2011
                 8-May-2020 
 ******************************************
 %mem=8GB
 %nproc=8
 Will use up to    8 processors via shared memory.
 ----------------------------------------------------------------------
 #p lc-wpbe/aug-cc-PVTz iop(3/107=0550000000) iop(3/108=0550000000) int
 =ultrafine counterpoise=2 Scan
 ----------------------------------------------------------------------
 1/38=1,60=1,62=2/1,8;
 2/12=2,17=6,18=5,29=3,40=1/2;
 1/38=1,53=5172,62=2/22;
 3/5=16,6=1,7=10,11=2,16=1,25=1,30=1,74=-41,75=-5,107=550000000,108=550000000/1,2,3;
 4//1;
 5/5=2,38=5/2;
 6/7=2,8=2,9=2,10=2,18=1,28=1/1;
 1/53=4052,62=2,63=1/22;
 3/5=7,6=11,7=10,11=2,16=1,25=1,30=1,74=-41,75=-5,82=7,107=550000000,108=550000000/1,2,3;
 4//1;
 5/5=2,38=5/2;
 6/7=2,8=2,9=2,10=2,18=1,28=1/1;
 1/53=3042,62=2,63=2/22;
 3/5=7,6=11,7=10,11=2,16=1,25=1,30=1,74=-41,75=-5,82=7,107=550000000,108=550000000/1,2,3;
 4//1;
 5/5=2,38=5/2;
 6/7=2,8=2,9=2,10=2,18=1,28=1/1;
 1/53=2032,62=2,63=3/22;
 3/5=7,6=11,7=10,11=2,16=1,25=1,30=1,74=-41,75=-5,82=7,107=550000000,108=550000000/1,2,3;
 4//1;
 5/5=2,38=5/2;
 6/7=2,8=2,9=2,10=2,18=1,28=1/1;
 1/53=1022,62=2,63=4/22;
 3/5=7,6=11,7=10,11=2,16=1,25=1,30=1,74=-41,75=-5,82=7,107=550000000,108=550000000/1,2,3;
 4//1;
 5/5=2,38=5/2;
 6/7=2,8=2,9=2,10=2,18=1,28=1/1;
 1/53=5014,62=2,63=5/22;
 1/60=1,62=2/8(1);
 99/9=1/99;
 2/29=3/2;
 1/53=5173,62=2/22;
 3/5=7,6=11,7=10,11=2,16=1,25=1,30=1,74=-41,75=-5,82=7,107=550000000,108=550000000/1,2,3;
 4/5=5,16=3/1;
 5/5=2,38=5/2;
 1/53=4053,62=2,63=1/22;
 3/5=7,6=11,7=10,11=2,16=1,25=1,30=1,74=-41,75=-5,82=7,107=550000000,108=550000000/1,2,3;
 4/5=5,16=3/1;
 5/5=2,38=5/2;
 1/53=3043,62=2,63=2/22;
 3/5=7,6=11,7=10,11=2,16=1,25=1,30=1,74=-41,75=-5,82=7,107=550000000,108=550000000/1,2,3;
 4/5=5,16=3/1;
 5/5=2,38=5/2;
 1/53=2033,62=2,63=3/22;
 3/5=7,6=11,7=10,11=2,16=1,25=1,30=1,74=-41,75=-5,82=7,107=550000000,108=550000000/1,2,3;
 4/5=5,16=3/1;
 5/5=2,38=5/2;
 1/53=1024,62=2,63=4/22;
 3/5=7,6=11,7=10,11=2,16=1,25=1,30=1,74=-41,75=-5,82=7,107=550000000,108=550000000/1,2,3;
 4/5=5,16=3/1;
 5/5=2,38=5/2;
 1/53=5014,62=2,63=5/22;
 1/60=1,62=2/8(-22);
 99/9=1/99;
 Leave Link    1 at Fri May  8 02:04:20 2020, MaxMem= 1073741824 cpu:       0.1
 (Enter /home/matheus/.gaussian/g09/l101.exe)
 ---
 TCC
 ---
 Charge =  0 Multiplicity = 1 in supermolecule
 Charge =  0 Multiplicity = 1 in fragment  1.
 Charge =  0 Multiplicity = 1 in fragment  2.
 Symbolic Z-Matrix:
 O(Fragment=1)         0.        0.        0.725 
 O(Fragment=1)         0.        0.       -0.725 
 H(Fragment=1)        -0.79564  -0.45936   1.02351 
 H(Fragment=1)         0.        0.91872  -1.02351 
 Kr(Fragment=2)        0.       R1        0. 
       Variables:
  R1                    3.     Scan 20    0.1    
 
 NAtoms=      5 NQM=        0 NQMF=       0 NMMI=      5 NMMIF=      0
                NMic=       0 NMicF=      0.
                    Isotopes and Nuclear Properties:
 (Nuclear quadrupole moments (NQMom) in fm**2, nuclear magnetic moments (NMagM)
  in nuclear magnetons)

  Atom         1           2           3           4           5
 IAtWgt=          16          16           1           1          84
 AtmWgt=  15.9949146  15.9949146   1.0078250   1.0078250  83.9115064
 NucSpn=           0           0           1           1           0
 AtZEff=   0.0000000   0.0000000   0.0000000   0.0000000   0.0000000
 NQMom=    0.0000000   0.0000000   0.0000000   0.0000000   0.0000000
 NMagM=    0.0000000   0.0000000   2.7928460   2.7928460   0.0000000
 Leave Link  101 at Fri May  8 02:04:20 2020, MaxMem= 1073741824 cpu:       0.3
 (Enter /home/matheus/.gaussian/g09/l108.exe)
 Scan the potential surface.
 Variable   Value     No. Steps Step-Size
 -------- ----------- --------- ---------
     1       3.000000      20      0.1000
 A total of     21 points will be computed.
 Leave Link  108 at Fri May  8 02:04:20 2020, MaxMem= 1073741824 cpu:       0.0
 (Enter /home/matheus/.gaussian/g09/l202.exe)
 ---------------------------------------------------------------------------------------------------
                            Z-MATRIX (ANGSTROMS AND DEGREES)
   CD    Cent   Atom    N1       Length/X        N2       Alpha/Y        N3        Beta/Z          J
 ---------------------------------------------------------------------------------------------------
      1      1  O        0   0.000000          0.000000          0.725000
      2      2  O        0   0.000000          0.000000         -0.725000
      3      3  H        0  -0.795635         -0.459360          1.023510
      4      4  H        0   0.000000          0.918721         -1.023510
      5      5  Kr       0   0.000000          3.000000          0.000000
 ---------------------------------------------------------------------------------------------------
                         Z-Matrix orientation:                         
 ---------------------------------------------------------------------
 Center     Atomic      Atomic             Coordinates (Angstroms)
 Number     Number       Type             X           Y           Z
 ---------------------------------------------------------------------
      1          8           0        0.000000    0.000000    0.725000
      2          8           0        0.000000    0.000000   -0.725000
      3          1           0       -0.795635   -0.459360    1.023510
      4          1           0        0.000000    0.918721   -1.023510
      5         36           0        0.000000    3.000000    0.000000
 ---------------------------------------------------------------------
                    Distance matrix (angstroms):
                    1          2          3          4          5
     1  O    0.000000
     2  O    1.450000   0.000000
     3  H    0.966000   1.975180   0.000000
     4  H    1.975180   0.966000   2.592766   0.000000
     5  Kr   3.086361   3.086361   3.694291   2.319331   0.000000
 Stoichiometry    H2KrO2
 Framework group  C1[X(H2KrO2)]
 Deg. of freedom     9
 Full point group                 C1      NOp   1
 Largest Abelian subgroup         C1      NOp   1
 Largest concise Abelian subgroup C1      NOp   1
                         Standard orientation:                         
 ---------------------------------------------------------------------
 Center     Atomic      Atomic             Coordinates (Angstroms)
 Number     Number       Type             X           Y           Z
 ---------------------------------------------------------------------
      1          8           0       -2.018349   -0.689087   -0.106614
      2          8           0       -1.996994    0.756239    0.007743
      3          1           0       -2.496711   -1.041750    0.654934
      4          1           0       -1.074134    1.038958    0.047181
      5         36           0        0.991489   -0.014845    0.002468
 ---------------------------------------------------------------------
 Rotational constants (GHZ):     25.8792574      2.3237795      2.1427447
 Leave Link  202 at Fri May  8 02:04:20 2020, MaxMem= 1073741824 cpu:       0.0
 (Enter /home/matheus/.gaussian/g09/l122.exe)
 Leave Link  122 at Fri May  8 02:04:20 2020, MaxMem= 1073741824 cpu:       0.0
 (Enter /home/matheus/.gaussian/g09/l301.exe)
 Standard basis: Aug-CC-pVTZ (5D, 7F)
 Ernie: Thresh=  0.10000D-02 Tol=  0.10000D-05 Strict=F.
 Ernie:  38 primitive shells out of 205 were deleted.
 There are   197 symmetry adapted basis functions of A   symmetry.
 Integral buffers will be    131072 words long.
 Raffenetti 2 integral format.
 Two-electron integral symmetry is turned on.
   197 basis functions,   415 primitive gaussians,   229 cartesian basis functions
    27 alpha electrons       27 beta electrons
       nuclear repulsion energy       148.7418288716 Hartrees.
 IExCor=32609 DFT=T Ex+Corr=LC-wPBE ExCW=0 ScaHFX=  1.000000
 ScaDFX=  1.000000  0.000000  1.000000  1.000000 ScalE2=  1.000000  1.000000
 IRadAn=      5 IRanWt=     -1 IRanGd=            0 ICorTp=0
  HFx wShort=  0.000000 wLong=  0.550000 cFull=  0.000000 cShort=  0.000000 cLong=  1.000000
  DFx wShort=  0.000000 wLong=  0.550000 cFull=  0.000000 cShort=  0.000000 cLong=  1.000000
 NAtoms=    5 NActive=    5 NUniq=    5 SFac= 1.00D+00 NAtFMM=   60 NAOKFM=F Big=F
 Leave Link  301 at Fri May  8 02:04:20 2020, MaxMem= 1073741824 cpu:       0.2
 (Enter /home/matheus/.gaussian/g09/l302.exe)
 NPDir=0 NMtPBC=     1 NCelOv=     1 NCel=       1 NClECP=     1 NCelD=      1
         NCelK=      1 NCelE2=     1 NClLst=     1 CellRange=     0.0.
 One-electron integrals computed using PRISM.
 NBasis=   197 RedAO= T  NBF=   197
 NBsUse=   197 1.00D-06 NBFU=   197
 Precomputing XC quadrature grid using
 IXCGrd= 2 IRadAn=           5 IRanWt=          -1 IRanGd=           0 AccXCQ= 0.00D+00.
 NRdTot=     427 NPtTot=      123512 NUsed=      126579 NTot=      126611
 NSgBfM=   229   229   229   229   229 NAtAll=     5     5.
 Leave Link  302 at Fri May  8 02:04:20 2020, MaxMem= 1073741824 cpu:       1.0
 (Enter /home/matheus/.gaussian/g09/l303.exe)
 DipDrv:  MaxL=1.
 Leave Link  303 at Fri May  8 02:04:20 2020, MaxMem= 1073741824 cpu:       0.2
 (Enter /home/matheus/.gaussian/g09/l401.exe)
 Harris functional with IExCor=32609 diagonalized for initial guess.
 ExpMin= 2.53D-02 ExpMax= 1.17D+07 ExpMxC= 1.33D+04 IAcc=3 IRadAn=         5 AccDes= 0.00D+00
 HarFok:  IExCor=32609 AccDes= 0.00D+00 IRadAn=         5 IDoV= 1
 ScaDFX=  1.000000  1.000000  1.000000  1.000000
 FoFCou: FMM=F IPFlag=           0 FMFlag=      100000 FMFlg1=           0
         NFxFlg=           0 DoJE=T BraDBF=F KetDBF=T FulRan=T
         Omega=  0.000000  0.000000  1.000000  0.000000  0.000000 ICntrl=     500 IOpCl=  0
         NMat0=    1 NMatS0=    1 NMatT0=    0 NMatD0=    1 NMtDS0=    0 NMtDT0=    0
         I1Cent=           4 NGrid=           0.
 Petite list used in FoFCou.
 Harris En= -2904.73937830568    
 Initial guess orbital symmetries:
       Occupied  (A) (A) (A) (A) (A) (A) (A) (A) (A) (A) (A) (A)
                 (A) (A) (A) (A) (A) (A) (A) (A) (A) (A) (A) (A)
                 (A) (A) (A)
       Virtual   (A) (A) (A) (A) (A) (A) (A) (A) (A) (A) (A) (A)
                 (A) (A) (A) (A) (A) (A) (A) (A) (A) (A) (A) (A)
                 (A) (A) (A) (A) (A) (A) (A) (A) (A) (A) (A) (A)
                 (A) (A) (A) (A) (A) (A) (A) (A) (A) (A) (A) (A)
                 (A) (A) (A) (A) (A) (A) (A) (A) (A) (A) (A) (A)
                 (A) (A) (A) (A) (A) (A) (A) (A) (A) (A) (A) (A)
                 (A) (A) (A) (A) (A) (A) (A) (A) (A) (A) (A) (A)
                 (A) (A) (A) (A) (A) (A) (A) (A) (A) (A) (A) (A)
                 (A) (A) (A) (A) (A) (A) (A) (A) (A) (A) (A) (A)
                 (A) (A) (A) (A) (A) (A) (A) (A) (A) (A) (A) (A)
                 (A) (A) (A) (A) (A) (A) (A) (A) (A) (A) (A) (A)
                 (A) (A) (A) (A) (A) (A) (A) (A) (A) (A) (A) (A)
                 (A) (A) (A) (A) (A) (A) (A) (A) (A) (A) (A) (A)
                 (A) (A) (A) (A) (A) (A) (A) (A) (A) (A) (A) (A)
                 (A) (A)
 The electronic state of the initial guess is 1-A.
 Leave Link  401 at Fri May  8 02:04:21 2020, MaxMem= 1073741824 cpu:       4.0
 (Enter /home/matheus/.gaussian/g09/l502.exe)
 Closed shell SCF:
 Requested convergence on RMS density matrix=1.00D-08 within 128 cycles.
 Requested convergence on MAX density matrix=1.00D-06.
 Requested convergence on             energy=1.00D-06.
 No special actions if energy rises.
 Using DIIS extrapolation, IDIIS=  1040.
 Integral symmetry usage will be decided dynamically.
       126521 words used for storage of precomputed grid.
 IEnd=      305468 IEndB=      305468 NGot=  1073741824 MDV=  1073505667
 LenX=  1073505667 LenY=  1073452785
 Fock matrices will be formed incrementally for  20 cycles.

 Cycle   1  Pass 1  IDiag  1:
 FoFJK:  IHMeth= 1 ICntrl=     0 DoSepK=T KAlg= 1 I1Cent= 0 FoldK=F
 FoFCou: FMM=F IPFlag=           0 FMFlag=      100000 FMFlg1=           0
         NFxFlg=           0 DoJE=T BraDBF=F KetDBF=F FulRan=T
         Omega=  0.000000  0.000000  1.000000  0.000000  0.000000 ICntrl=     500 IOpCl=  0
         NMat0=    1 NMatS0=    1 NMatT0=    0 NMatD0=    1 NMtDS0=    0 NMtDT0=    0
         I1Cent=           0 NGrid=           0.
 Symmetry not used in FoFCou.
 E= -2904.93409631967    
 DIIS: error= 2.45D-02 at cycle   1 NSaved=   1.
 NSaved= 1 IEnMin= 1 EnMin= -2904.93409631967     IErMin= 1 ErrMin= 2.45D-02
 ErrMax= 2.45D-02 EMaxC= 1.00D-01 BMatC= 2.66D-01 BMatP= 2.66D-01
 IDIUse=3 WtCom= 7.55D-01 WtEn= 2.45D-01
 Coeff-Com:  0.100D+01
 Coeff-En:   0.100D+01
 Coeff:      0.100D+01
 Gap=     0.559 Goal=   None    Shift=    0.000
 GapD=    0.559 DampG=2.000 DampE=0.500 DampFc=1.0000 IDamp=-1.
 RMSDP=2.23D-03 MaxDP=1.43D-01              OVMax= 6.05D-02

 Cycle   2  Pass 1  IDiag  1:
 RMSU=  1.55D-03    CP:  1.02D+00
 FoFJK:  IHMeth= 1 ICntrl=     0 DoSepK=T KAlg= 1 I1Cent= 0 FoldK=F
 E= -2904.98398956382     Delta-E=       -0.049893244153 Rises=F Damp=F
 DIIS: error= 9.55D-03 at cycle   2 NSaved=   2.
 NSaved= 2 IEnMin= 2 EnMin= -2904.98398956382     IErMin= 2 ErrMin= 9.55D-03
 ErrMax= 9.55D-03 EMaxC= 1.00D-01 BMatC= 6.65D-02 BMatP= 2.66D-01
 IDIUse=3 WtCom= 9.04D-01 WtEn= 9.55D-02
 Coeff-Com:  0.326D+00 0.674D+00
 Coeff-En:   0.836D-01 0.916D+00
 Coeff:      0.303D+00 0.697D+00
 Gap=     0.486 Goal=   None    Shift=    0.000
 RMSDP=8.72D-04 MaxDP=4.98D-02 DE=-4.99D-02 OVMax= 2.49D-02

 Cycle   3  Pass 1  IDiag  1:
 RMSU=  3.11D-04    CP:  1.01D+00  6.67D-01
 FoFJK:  IHMeth= 1 ICntrl=     0 DoSepK=T KAlg= 1 I1Cent= 0 FoldK=F
 E= -2905.00640612593     Delta-E=       -0.022416562114 Rises=F Damp=F
 DIIS: error= 1.49D-03 at cycle   3 NSaved=   3.
 NSaved= 3 IEnMin= 3 EnMin= -2905.00640612593     IErMin= 3 ErrMin= 1.49D-03
 ErrMax= 1.49D-03 EMaxC= 1.00D-01 BMatC= 1.24D-03 BMatP= 6.65D-02
 IDIUse=3 WtCom= 9.85D-01 WtEn= 1.49D-02
 Coeff-Com:  0.379D-01 0.162D+00 0.800D+00
 Coeff-En:   0.000D+00 0.000D+00 0.100D+01
 Coeff:      0.373D-01 0.159D+00 0.803D+00
 Gap=     0.471 Goal=   None    Shift=    0.000
 RMSDP=9.49D-05 MaxDP=2.79D-03 DE=-2.24D-02 OVMax= 5.63D-03

 Cycle   4  Pass 1  IDiag  1:
 RMSU=  4.85D-05    CP:  1.01D+00  6.96D-01  9.64D-01
 FoFJK:  IHMeth= 1 ICntrl=     0 DoSepK=T KAlg= 1 I1Cent= 0 FoldK=F
 E= -2905.00701989949     Delta-E=       -0.000613773554 Rises=F Damp=F
 DIIS: error= 4.31D-04 at cycle   4 NSaved=   4.
 NSaved= 4 IEnMin= 4 EnMin= -2905.00701989949     IErMin= 4 ErrMin= 4.31D-04
 ErrMax= 4.31D-04 EMaxC= 1.00D-01 BMatC= 7.98D-05 BMatP= 1.24D-03
 IDIUse=3 WtCom= 9.96D-01 WtEn= 4.31D-03
 Coeff-Com: -0.579D-02 0.178D-01 0.270D+00 0.718D+00
 Coeff-En:   0.000D+00 0.000D+00 0.000D+00 0.100D+01
 Coeff:     -0.576D-02 0.177D-01 0.269D+00 0.719D+00
 Gap=     0.475 Goal=   None    Shift=    0.000
 RMSDP=3.01D-05 MaxDP=1.85D-03 DE=-6.14D-04 OVMax= 1.71D-03

 Cycle   5  Pass 1  IDiag  1:
 RMSU=  1.29D-05    CP:  1.01D+00  7.00D-01  1.01D+00  8.73D-01
 FoFJK:  IHMeth= 1 ICntrl=     0 DoSepK=T KAlg= 1 I1Cent= 0 FoldK=F
 E= -2905.00706849310     Delta-E=       -0.000048593611 Rises=F Damp=F
 DIIS: error= 8.20D-05 at cycle   5 NSaved=   5.
 NSaved= 5 IEnMin= 5 EnMin= -2905.00706849310     IErMin= 5 ErrMin= 8.20D-05
 ErrMax= 8.20D-05 EMaxC= 1.00D-01 BMatC= 2.53D-06 BMatP= 7.98D-05
 IDIUse=1 WtCom= 1.00D+00 WtEn= 0.00D+00
 Coeff-Com: -0.243D-02-0.493D-02 0.177D-02 0.121D+00 0.884D+00
 Coeff:     -0.243D-02-0.493D-02 0.177D-02 0.121D+00 0.884D+00
 Gap=     0.475 Goal=   None    Shift=    0.000
 RMSDP=7.22D-06 MaxDP=2.06D-04 DE=-4.86D-05 OVMax= 4.81D-04

 Cycle   6  Pass 1  IDiag  1:
 RMSU=  3.71D-06    CP:  1.01D+00  7.00D-01  1.02D+00  9.34D-01  1.10D+00
 FoFJK:  IHMeth= 1 ICntrl=     0 DoSepK=T KAlg= 1 I1Cent= 0 FoldK=F
 E= -2905.00707068677     Delta-E=       -0.000002193673 Rises=F Damp=F
 DIIS: error= 4.79D-05 at cycle   6 NSaved=   6.
 NSaved= 6 IEnMin= 6 EnMin= -2905.00707068677     IErMin= 6 ErrMin= 4.79D-05
 ErrMax= 4.79D-05 EMaxC= 1.00D-01 BMatC= 7.89D-07 BMatP= 2.53D-06
 IDIUse=1 WtCom= 1.00D+00 WtEn= 0.00D+00
 Coeff-Com: -0.408D-03-0.423D-02-0.298D-01-0.241D-01 0.381D+00 0.677D+00
 Coeff:     -0.408D-03-0.423D-02-0.298D-01-0.241D-01 0.381D+00 0.677D+00
 Gap=     0.475 Goal=   None    Shift=    0.000
 RMSDP=3.17D-06 MaxDP=1.49D-04 DE=-2.19D-06 OVMax= 2.14D-04

 Cycle   7  Pass 1  IDiag  1:
 RMSU=  1.50D-06    CP:  1.01D+00  7.00D-01  1.02D+00  9.51D-01  1.19D+00
                    CP:  8.82D-01
 FoFJK:  IHMeth= 1 ICntrl=     0 DoSepK=T KAlg= 1 I1Cent= 0 FoldK=F
 E= -2905.00707132452     Delta-E=       -0.000000637745 Rises=F Damp=F
 DIIS: error= 1.42D-05 at cycle   7 NSaved=   7.
 NSaved= 7 IEnMin= 7 EnMin= -2905.00707132452     IErMin= 7 ErrMin= 1.42D-05
 ErrMax= 1.42D-05 EMaxC= 1.00D-01 BMatC= 6.45D-08 BMatP= 7.89D-07
 IDIUse=1 WtCom= 1.00D+00 WtEn= 0.00D+00
 Coeff-Com:  0.128D-03-0.754D-03-0.924D-02-0.214D-01-0.346D-02 0.220D+00
 Coeff-Com:  0.815D+00
 Coeff:      0.128D-03-0.754D-03-0.924D-02-0.214D-01-0.346D-02 0.220D+00
 Coeff:      0.815D+00
 Gap=     0.475 Goal=   None    Shift=    0.000
 RMSDP=1.24D-06 MaxDP=5.58D-05 DE=-6.38D-07 OVMax= 9.45D-05

 Cycle   8  Pass 1  IDiag  1:
 RMSU=  4.63D-07    CP:  1.01D+00  7.00D-01  1.02D+00  9.57D-01  1.22D+00
                    CP:  1.01D+00  9.81D-01
 FoFJK:  IHMeth= 1 ICntrl=     0 DoSepK=T KAlg= 1 I1Cent= 0 FoldK=F
 E= -2905.00707138641     Delta-E=       -0.000000061894 Rises=F Damp=F
 DIIS: error= 2.71D-06 at cycle   8 NSaved=   8.
 NSaved= 8 IEnMin= 8 EnMin= -2905.00707138641     IErMin= 8 ErrMin= 2.71D-06
 ErrMax= 2.71D-06 EMaxC= 1.00D-01 BMatC= 2.23D-09 BMatP= 6.45D-08
 IDIUse=1 WtCom= 1.00D+00 WtEn= 0.00D+00
 Coeff-Com:  0.165D-04 0.471D-03 0.388D-02 0.563D-02-0.266D-01-0.964D-01
 Coeff-Com: -0.168D+00 0.128D+01
 Coeff:      0.165D-04 0.471D-03 0.388D-02 0.563D-02-0.266D-01-0.964D-01
 Coeff:     -0.168D+00 0.128D+01
 Gap=     0.475 Goal=   None    Shift=    0.000
 RMSDP=5.39D-07 MaxDP=1.70D-05 DE=-6.19D-08 OVMax= 4.94D-05

 Cycle   9  Pass 1  IDiag  1:
 RMSU=  1.21D-07    CP:  1.01D+00  7.00D-01  1.02D+00  9.59D-01  1.23D+00
                    CP:  1.03D+00  1.06D+00  1.56D+00
 FoFJK:  IHMeth= 1 ICntrl=     0 DoSepK=T KAlg= 1 I1Cent= 0 FoldK=F
 E= -2905.00707139417     Delta-E=       -0.000000007760 Rises=F Damp=F
 DIIS: error= 7.48D-07 at cycle   9 NSaved=   9.
 NSaved= 9 IEnMin= 9 EnMin= -2905.00707139417     IErMin= 9 ErrMin= 7.48D-07
 ErrMax= 7.48D-07 EMaxC= 1.00D-01 BMatC= 1.02D-10 BMatP= 2.23D-09
 IDIUse=1 WtCom= 1.00D+00 WtEn= 0.00D+00
 Coeff-Com: -0.891D-05-0.417D-04-0.213D-03 0.230D-04 0.458D-02 0.482D-02
 Coeff-Com: -0.112D-01-0.187D+00 0.119D+01
 Coeff:     -0.891D-05-0.417D-04-0.213D-03 0.230D-04 0.458D-02 0.482D-02
 Coeff:     -0.112D-01-0.187D+00 0.119D+01
 Gap=     0.475 Goal=   None    Shift=    0.000
 RMSDP=1.49D-07 MaxDP=6.86D-06 DE=-7.76D-09 OVMax= 1.51D-05

 Cycle  10  Pass 1  IDiag  1:
 RMSU=  3.82D-08    CP:  1.01D+00  7.00D-01  1.02D+00  9.59D-01  1.24D+00
                    CP:  1.02D+00  1.06D+00  1.69D+00  1.41D+00
 FoFJK:  IHMeth= 1 ICntrl=     0 DoSepK=T KAlg= 1 I1Cent= 0 FoldK=F
 E= -2905.00707139460     Delta-E=       -0.000000000432 Rises=F Damp=F
 DIIS: error= 3.10D-07 at cycle  10 NSaved=  10.
 NSaved=10 IEnMin=10 EnMin= -2905.00707139460     IErMin=10 ErrMin= 3.10D-07
 ErrMax= 3.10D-07 EMaxC= 1.00D-01 BMatC= 1.58D-11 BMatP= 1.02D-10
 IDIUse=1 WtCom= 1.00D+00 WtEn= 0.00D+00
 Coeff-Com:  0.165D-06-0.290D-04-0.257D-03-0.502D-03 0.147D-02 0.718D-02
 Coeff-Com:  0.152D-01-0.825D-01-0.174D+00 0.123D+01
 Coeff:      0.165D-06-0.290D-04-0.257D-03-0.502D-03 0.147D-02 0.718D-02
 Coeff:      0.152D-01-0.825D-01-0.174D+00 0.123D+01
 Gap=     0.475 Goal=   None    Shift=    0.000
 RMSDP=5.85D-08 MaxDP=2.03D-06 DE=-4.32D-10 OVMax= 7.61D-06

 Cycle  11  Pass 1  IDiag  1:
 RMSU=  1.21D-08    CP:  1.01D+00  7.00D-01  1.02D+00  9.59D-01  1.24D+00
                    CP:  1.02D+00  1.06D+00  1.73D+00  1.58D+00  1.57D+00
 FoFJK:  IHMeth= 1 ICntrl=     0 DoSepK=T KAlg= 1 I1Cent= 0 FoldK=F
 E= -2905.00707139469     Delta-E=       -0.000000000089 Rises=F Damp=F
 DIIS: error= 1.09D-07 at cycle  11 NSaved=  11.
 NSaved=11 IEnMin=11 EnMin= -2905.00707139469     IErMin=11 ErrMin= 1.09D-07
 ErrMax= 1.09D-07 EMaxC= 1.00D-01 BMatC= 2.23D-12 BMatP= 1.58D-11
 IDIUse=1 WtCom= 1.00D+00 WtEn= 0.00D+00
 Coeff-Com:  0.120D-05 0.113D-04 0.821D-04 0.824D-04-0.101D-02-0.190D-02
 Coeff-Com: -0.349D-03 0.421D-01-0.148D+00-0.209D+00 0.132D+01
 Coeff:      0.120D-05 0.113D-04 0.821D-04 0.824D-04-0.101D-02-0.190D-02
 Coeff:     -0.349D-03 0.421D-01-0.148D+00-0.209D+00 0.132D+01
 Gap=     0.475 Goal=   None    Shift=    0.000
 RMSDP=2.40D-08 MaxDP=5.19D-07 DE=-8.91D-11 OVMax= 3.67D-06

 Cycle  12  Pass 1  IDiag  1:
 RMSU=  4.19D-09    CP:  1.01D+00  7.00D-01  1.02D+00  9.59D-01  1.24D+00
                    CP:  1.02D+00  1.05D+00  1.74D+00  1.64D+00  1.89D+00
                    CP:  1.59D+00
 FoFJK:  IHMeth= 1 ICntrl=     0 DoSepK=T KAlg= 1 I1Cent= 0 FoldK=F
 E= -2905.00707139471     Delta-E=       -0.000000000019 Rises=F Damp=F
 DIIS: error= 2.35D-08 at cycle  12 NSaved=  12.
 NSaved=12 IEnMin=12 EnMin= -2905.00707139471     IErMin=12 ErrMin= 2.35D-08
 ErrMax= 2.35D-08 EMaxC= 1.00D-01 BMatC= 1.96D-13 BMatP= 2.23D-12
 IDIUse=1 WtCom= 1.00D+00 WtEn= 0.00D+00
 Coeff-Com: -0.669D-07 0.385D-05 0.346D-04 0.746D-04-0.231D-03-0.102D-02
 Coeff-Com: -0.191D-02 0.121D-01 0.201D-01-0.149D+00 0.602D-02 0.111D+01
 Coeff:     -0.669D-07 0.385D-05 0.346D-04 0.746D-04-0.231D-03-0.102D-02
 Coeff:     -0.191D-02 0.121D-01 0.201D-01-0.149D+00 0.602D-02 0.111D+01
 Gap=     0.475 Goal=   None    Shift=    0.000
 RMSDP=6.09D-09 MaxDP=1.31D-07 DE=-1.91D-11 OVMax= 8.96D-07

 SCF Done:  E(RLC-wPBE) =  -2905.00707139     A.U. after   12 cycles
             Convg  =    0.6087D-08             -V/T =  2.0017
 KE= 2.900031119848D+03 PE=-7.234520865038D+03 EE= 1.280740844924D+03
 Leave Link  502 at Fri May  8 02:04:57 2020, MaxMem= 1073741824 cpu:     286.5
 (Enter /home/matheus/.gaussian/g09/l601.exe)
 Copying SCF densities to generalized density rwf, IOpCl= 0 IROHF=0.

 **********************************************************************

            Population analysis using the SCF density.

 **********************************************************************

 Orbital symmetries:
       Occupied  (A) (A) (A) (A) (A) (A) (A) (A) (A) (A) (A) (A)
                 (A) (A) (A) (A) (A) (A) (A) (A) (A) (A) (A) (A)
                 (A) (A) (A)
       Virtual   (A) (A) (A) (A) (A) (A) (A) (A) (A) (A) (A) (A)
                 (A) (A) (A) (A) (A) (A) (A) (A) (A) (A) (A) (A)
                 (A) (A) (A) (A) (A) (A) (A) (A) (A) (A) (A) (A)
                 (A) (A) (A) (A) (A) (A) (A) (A) (A) (A) (A) (A)
                 (A) (A) (A) (A) (A) (A) (A) (A) (A) (A) (A) (A)
                 (A) (A) (A) (A) (A) (A) (A) (A) (A) (A) (A) (A)
                 (A) (A) (A) (A) (A) (A) (A) (A) (A) (A) (A) (A)
                 (A) (A) (A) (A) (A) (A) (A) (A) (A) (A) (A) (A)
                 (A) (A) (A) (A) (A) (A) (A) (A) (A) (A) (A) (A)
                 (A) (A) (A) (A) (A) (A) (A) (A) (A) (A) (A) (A)
                 (A) (A) (A) (A) (A) (A) (A) (A) (A) (A) (A) (A)
                 (A) (A) (A) (A) (A) (A) (A) (A) (A) (A) (A) (A)
                 (A) (A) (A) (A) (A) (A) (A) (A) (A) (A) (A) (A)
                 (A) (A) (A) (A) (A) (A) (A) (A) (A) (A) (A) (A)
                 (A) (A)
 The electronic state is 1-A.
 Alpha  occ. eigenvalues -- -511.19634 -66.74472 -60.40593 -60.40575 -60.40565
 Alpha  occ. eigenvalues --  -19.11248 -19.10903  -9.68044  -7.42339  -7.42286
 Alpha  occ. eigenvalues --   -7.42258  -3.36739  -3.36729  -3.36709  -3.36669
 Alpha  occ. eigenvalues --   -3.36667  -1.32042  -1.10368  -1.09298  -0.71129
 Alpha  occ. eigenvalues --   -0.66277  -0.58505  -0.54203  -0.53744  -0.53015
 Alpha  occ. eigenvalues --   -0.48174  -0.44158
 Alpha virt. eigenvalues --    0.03299   0.04263   0.08519   0.09902   0.11209
 Alpha virt. eigenvalues --    0.11405   0.13945   0.14386   0.16987   0.17999
 Alpha virt. eigenvalues --    0.18795   0.20584   0.20868   0.22708   0.24525
 Alpha virt. eigenvalues --    0.25278   0.26948   0.29417   0.32533   0.34173
 Alpha virt. eigenvalues --    0.34771   0.35483   0.36703   0.39883   0.40623
 Alpha virt. eigenvalues --    0.42063   0.43726   0.49026   0.54154   0.57120
 Alpha virt. eigenvalues --    0.57847   0.60691   0.63545   0.68089   0.69402
 Alpha virt. eigenvalues --    0.72179   0.73736   0.74300   0.76662   0.77781
 Alpha virt. eigenvalues --    0.78102   0.80080   0.80273   0.82418   0.84371
 Alpha virt. eigenvalues --    0.87278   0.87669   0.89909   0.91768   0.92740
 Alpha virt. eigenvalues --    0.94777   0.95926   0.97513   0.98500   1.02471
 Alpha virt. eigenvalues --    1.03551   1.04996   1.07663   1.09128   1.11174
 Alpha virt. eigenvalues --    1.12112   1.17506   1.18229   1.20526   1.25419
 Alpha virt. eigenvalues --    1.27070   1.33683   1.35892   1.40401   1.44419
 Alpha virt. eigenvalues --    1.46041   1.52427   1.55006   1.56378   1.61781
 Alpha virt. eigenvalues --    1.69000   1.76601   1.86019   1.90446   1.97334
 Alpha virt. eigenvalues --    2.01242   2.04501   2.14109   2.15995   2.18473
 Alpha virt. eigenvalues --    2.19116   2.21760   2.23296   2.25313   2.29133
 Alpha virt. eigenvalues --    2.30593   2.34417   2.35694   2.36168   2.40152
 Alpha virt. eigenvalues --    2.41496   2.43464   2.47628   2.48746   2.52894
 Alpha virt. eigenvalues --    2.53797   2.54349   2.58751   2.59994   2.62293
 Alpha virt. eigenvalues --    2.63948   2.66702   2.67792   2.71107   2.76279
 Alpha virt. eigenvalues --    2.77132   2.80487   2.83721   2.90548   2.92090
 Alpha virt. eigenvalues --    2.94412   3.08755   3.14688   3.18451   3.65762
 Alpha virt. eigenvalues --    3.71830   3.91942   3.99694   4.05829   4.12112
 Alpha virt. eigenvalues --    4.13972   4.20444   4.26375   4.30227   4.32253
 Alpha virt. eigenvalues --    4.46337   4.53862   4.54889   4.58433   4.72972
 Alpha virt. eigenvalues --    4.93133   5.01467   5.10033   5.16584   5.17168
 Alpha virt. eigenvalues --    5.26537   5.47488   5.88076   6.10412   6.15308
 Alpha virt. eigenvalues --    6.17204   6.35540   6.39227   6.47589   6.59214
 Alpha virt. eigenvalues --    6.63978   6.81529   6.82750   6.85700   6.88010
 Alpha virt. eigenvalues --    6.91247   6.92608   6.93253   7.01590   7.05906
 Alpha virt. eigenvalues --    7.09446   7.21781   7.29639   7.47066   7.76461
 Alpha virt. eigenvalues --    7.84318   8.11192   8.15394  13.93281  14.62796
          Condensed to atoms (all electrons):
              1          2          3          4          5
     1  O    8.201082  -0.191666   0.218229  -0.000936  -0.029789
     2  O   -0.191666   8.233627   0.009481   0.207533  -0.008793
     3  H    0.218229   0.009481   0.559437   0.002482   0.002847
     4  H   -0.000936   0.207533   0.002482   0.569533  -0.014418
     5  Kr  -0.029789  -0.008793   0.002847  -0.014418  36.046382
 Mulliken atomic charges:
              1
     1  O   -0.196920
     2  O   -0.250182
     3  H    0.207525
     4  H    0.235806
     5  Kr   0.003771
 Sum of Mulliken atomic charges =   0.00000
 Mulliken charges with hydrogens summed into heavy atoms:
              1
     1  O    0.010605
     2  O   -0.014376
     5  Kr   0.003771
 Sum of Mulliken charges with hydrogens summed into heavy atoms =   0.00000
          Condensed to fragments (all electrons):
     1      -0.003771
     2       0.003771
 Electronic spatial extent (au):  <R**2>=            488.0230
 Charge=              0.0000 electrons
 Dipole moment (field-independent basis, Debye):
    X=              0.9607    Y=             -0.3926    Z=              1.3758  Tot=              1.7233
 Quadrupole moment (field-independent basis, Debye-Ang):
   XX=            -30.8327   YY=            -27.8997   ZZ=            -29.2632
   XY=              3.3144   XZ=             -3.7162   YZ=             -1.5831
 Traceless Quadrupole moment (field-independent basis, Debye-Ang):
   XX=             -1.5009   YY=              1.4322   ZZ=              0.0687
   XY=              3.3144   XZ=             -3.7162   YZ=             -1.5831
 Octapole moment (field-independent basis, Debye-Ang**2):
  XXX=             20.2081  YYY=             -1.0172  ZZZ=              1.0174  XYY=              4.4006
  XXY=            -12.2047  XXZ=              9.5168  XZZ=              5.7062  YZZ=             -1.4817
  YYZ=              1.9653  XYZ=              4.1861
 Hexadecapole moment (field-independent basis, Debye-Ang**3):
 XXXX=           -410.3115 YYYY=            -62.6239 ZZZZ=            -29.1912 XXXY=             32.9340
 XXXZ=            -25.4865 YYYX=              5.5846 YYYZ=             -2.2044 ZZZX=             -2.9881
 ZZZY=             -1.4877 XXYY=            -76.6870 XXZZ=            -71.7383 YYZZ=            -16.0991
 XXYZ=            -10.9881 YYXZ=             -4.9371 ZZXY=              3.2899
 N-N= 1.487418288716D+02 E-N=-7.234520864163D+03  KE= 2.900031119848D+03
 No NMR shielding tensors so no spin-rotation constants.
 Leave Link  601 at Fri May  8 02:04:57 2020, MaxMem= 1073741824 cpu:       0.8
 (Enter /home/matheus/.gaussian/g09/l122.exe)
 Counterpoise: doing DCBS calculation for fragment   1 NewBq=T
 Leave Link  122 at Fri May  8 02:04:57 2020, MaxMem= 1073741824 cpu:       0.0
 (Enter /home/matheus/.gaussian/g09/l301.exe)
 Basis read from rwf:  (5D, 7F)
 No pseudopotential information found on rwf file.
 There are   197 symmetry adapted basis functions of A   symmetry.
 Integral buffers will be    131072 words long.
 Raffenetti 2 integral format.
 Two-electron integral symmetry is turned on.
   197 basis functions,   415 primitive gaussians,   229 cartesian basis functions
     9 alpha electrons        9 beta electrons
       nuclear repulsion energy        36.6123390277 Hartrees.
 IExCor=32609 DFT=T Ex+Corr=LC-wPBE ExCW=0 ScaHFX=  1.000000
 ScaDFX=  1.000000  0.000000  1.000000  1.000000 ScalE2=  1.000000  1.000000
 IRadAn=      5 IRanWt=     -1 IRanGd=            0 ICorTp=0
  HFx wShort=  0.000000 wLong=  0.550000 cFull=  0.000000 cShort=  0.000000 cLong=  1.000000
  DFx wShort=  0.000000 wLong=  0.550000 cFull=  0.000000 cShort=  0.000000 cLong=  1.000000
 NAtoms=    5 NActive=    5 NUniq=    5 SFac= 1.00D+00 NAtFMM=   60 NAOKFM=F Big=F
 No density basis found on file   718.
 Leave Link  301 at Fri May  8 02:04:57 2020, MaxMem= 1073741824 cpu:       0.3
 (Enter /home/matheus/.gaussian/g09/l302.exe)
 NPDir=0 NMtPBC=     1 NCelOv=     1 NCel=       1 NClECP=     1 NCelD=      1
         NCelK=      1 NCelE2=     1 NClLst=     1 CellRange=     0.0.
 One-electron integrals computed using PRISM.
 NBasis=   197 RedAO= T  NBF=   197
 NBsUse=   197 1.00D-06 NBFU=   197
 Precomputing XC quadrature grid using
 IXCGrd= 2 IRadAn=           5 IRanWt=          -1 IRanGd=           0 AccXCQ= 0.00D+00.
 NRdTot=     427 NPtTot=      123512 NUsed=      126579 NTot=      126611
 NSgBfM=   229   229   229   229   229 NAtAll=     5     5.
 Leave Link  302 at Fri May  8 02:04:57 2020, MaxMem= 1073741824 cpu:       1.0
 (Enter /home/matheus/.gaussian/g09/l303.exe)
 DipDrv:  MaxL=1.
 Leave Link  303 at Fri May  8 02:04:57 2020, MaxMem= 1073741824 cpu:       0.2
 (Enter /home/matheus/.gaussian/g09/l401.exe)
 Harris functional with IExCor=32609 diagonalized for initial guess.
 ExpMin= 2.53D-02 ExpMax= 1.17D+07 ExpMxC= 1.33D+04 IAcc=3 IRadAn=         5 AccDes= 0.00D+00
 HarFok:  IExCor=32609 AccDes= 0.00D+00 IRadAn=         5 IDoV= 1
 ScaDFX=  1.000000  1.000000  1.000000  1.000000
 FoFCou: FMM=F IPFlag=           0 FMFlag=      100000 FMFlg1=           0
         NFxFlg=           0 DoJE=T BraDBF=F KetDBF=T FulRan=T
         Omega=  0.000000  0.000000  1.000000  0.000000  0.000000 ICntrl=     500 IOpCl=  0
         NMat0=    1 NMatS0=    1 NMatT0=    0 NMatD0=    1 NMtDS0=    0 NMtDT0=    0
         I1Cent=           4 NGrid=           0.
 Petite list used in FoFCou.
 Harris En= -151.502007208515    
 Initial guess orbital symmetries:
       Occupied  (A) (A) (A) (A) (A) (A) (A) (A) (A)
       Virtual   (A) (A) (A) (A) (A) (A) (A) (A) (A) (A) (A) (A)
                 (A) (A) (A) (A) (A) (A) (A) (A) (A) (A) (A) (A)
                 (A) (A) (A) (A) (A) (A) (A) (A) (A) (A) (A) (A)
                 (A) (A) (A) (A) (A) (A) (A) (A) (A) (A) (A) (A)
                 (A) (A) (A) (A) (A) (A) (A) (A) (A) (A) (A) (A)
                 (A) (A) (A) (A) (A) (A) (A) (A) (A) (A) (A) (A)
                 (A) (A) (A) (A) (A) (A) (A) (A) (A) (A) (A) (A)
                 (A) (A) (A) (A) (A) (A) (A) (A) (A) (A) (A) (A)
                 (A) (A) (A) (A) (A) (A) (A) (A) (A) (A) (A) (A)
                 (A) (A) (A) (A) (A) (A) (A) (A) (A) (A) (A) (A)
                 (A) (A) (A) (A) (A) (A) (A) (A) (A) (A) (A) (A)
                 (A) (A) (A) (A) (A) (A) (A) (A) (A) (A) (A) (A)
                 (A) (A) (A) (A) (A) (A) (A) (A) (A) (A) (A) (A)
                 (A) (A) (A) (A) (A) (A) (A) (A) (A) (A) (A) (A)
                 (A) (A) (A) (A) (A) (A) (A) (A) (A) (A) (A) (A)
                 (A) (A) (A) (A) (A) (A) (A) (A)
 The electronic state of the initial guess is 1-A.
 Leave Link  401 at Fri May  8 02:04:58 2020, MaxMem= 1073741824 cpu:       4.1
 (Enter /home/matheus/.gaussian/g09/l502.exe)
 Closed shell SCF:
 Requested convergence on RMS density matrix=1.00D-08 within 128 cycles.
 Requested convergence on MAX density matrix=1.00D-06.
 Requested convergence on             energy=1.00D-06.
 No special actions if energy rises.
 Using DIIS extrapolation, IDIIS=  1040.
 Integral symmetry usage will be decided dynamically.
       126521 words used for storage of precomputed grid.
 IEnd=      305468 IEndB=      305468 NGot=  1073741824 MDV=  1073505667
 LenX=  1073505667 LenY=  1073452785
 Fock matrices will be formed incrementally for  20 cycles.

 Cycle   1  Pass 1  IDiag  1:
 FoFJK:  IHMeth= 1 ICntrl=     0 DoSepK=T KAlg= 1 I1Cent= 0 FoldK=F
 FoFCou: FMM=F IPFlag=           0 FMFlag=      100000 FMFlg1=           0
         NFxFlg=           0 DoJE=T BraDBF=F KetDBF=F FulRan=T
         Omega=  0.000000  0.000000  1.000000  0.000000  0.000000 ICntrl=     500 IOpCl=  0
         NMat0=    1 NMatS0=    1 NMatT0=    0 NMatD0=    1 NMtDS0=    0 NMtDT0=    0
         I1Cent=           0 NGrid=           0.
 Symmetry not used in FoFCou.
 E= -151.508769830186    
 DIIS: error= 1.37D-02 at cycle   1 NSaved=   1.
 NSaved= 1 IEnMin= 1 EnMin= -151.508769830186     IErMin= 1 ErrMin= 1.37D-02
 ErrMax= 1.37D-02 EMaxC= 1.00D-01 BMatC= 4.02D-02 BMatP= 4.02D-02
 IDIUse=3 WtCom= 8.63D-01 WtEn= 1.37D-01
 Coeff-Com:  0.100D+01
 Coeff-En:   0.100D+01
 Coeff:      0.100D+01
 Gap=     0.560 Goal=   None    Shift=    0.000
 GapD=    0.560 DampG=2.000 DampE=0.500 DampFc=1.0000 IDamp=-1.
 RMSDP=7.33D-04 MaxDP=2.33D-02              OVMax= 5.06D-02

 Cycle   2  Pass 1  IDiag  1:
 RMSU=  5.11D-04    CP:  9.88D-01
 FoFJK:  IHMeth= 1 ICntrl=     0 DoSepK=T KAlg= 1 I1Cent= 0 FoldK=F
 E= -151.524884114665     Delta-E=       -0.016114284479 Rises=F Damp=F
 DIIS: error= 7.91D-03 at cycle   2 NSaved=   2.
 NSaved= 2 IEnMin= 2 EnMin= -151.524884114665     IErMin= 2 ErrMin= 7.91D-03
 ErrMax= 7.91D-03 EMaxC= 1.00D-01 BMatC= 1.55D-02 BMatP= 4.02D-02
 IDIUse=3 WtCom= 9.21D-01 WtEn= 7.91D-02
 Coeff-Com:  0.369D+00 0.631D+00
 Coeff-En:   0.111D+00 0.889D+00
 Coeff:      0.349D+00 0.651D+00
 Gap=     0.478 Goal=   None    Shift=    0.000
 RMSDP=4.00D-04 MaxDP=2.26D-02 DE=-1.61D-02 OVMax= 2.20D-02

 Cycle   3  Pass 1  IDiag  1:
 RMSU=  2.43D-04    CP:  9.83D-01  7.25D-01
 FoFJK:  IHMeth= 1 ICntrl=     0 DoSepK=T KAlg= 1 I1Cent= 0 FoldK=F
 E= -151.533512691177     Delta-E=       -0.008628576512 Rises=F Damp=F
 DIIS: error= 1.14D-03 at cycle   3 NSaved=   3.
 NSaved= 3 IEnMin= 3 EnMin= -151.533512691177     IErMin= 3 ErrMin= 1.14D-03
 ErrMax= 1.14D-03 EMaxC= 1.00D-01 BMatC= 3.82D-04 BMatP= 1.55D-02
 IDIUse=3 WtCom= 9.89D-01 WtEn= 1.14D-02
 Coeff-Com:  0.392D-01 0.156D+00 0.805D+00
 Coeff-En:   0.000D+00 0.000D+00 0.100D+01
 Coeff:      0.388D-01 0.154D+00 0.807D+00
 Gap=     0.471 Goal=   None    Shift=    0.000
 RMSDP=5.69D-05 MaxDP=2.31D-03 DE=-8.63D-03 OVMax= 4.02D-03

 Cycle   4  Pass 1  IDiag  1:
 RMSU=  2.78D-05    CP:  9.82D-01  7.74D-01  1.03D+00
 FoFJK:  IHMeth= 1 ICntrl=     0 DoSepK=T KAlg= 1 I1Cent= 0 FoldK=F
 E= -151.533756651712     Delta-E=       -0.000243960536 Rises=F Damp=F
 DIIS: error= 2.00D-04 at cycle   4 NSaved=   4.
 NSaved= 4 IEnMin= 4 EnMin= -151.533756651712     IErMin= 4 ErrMin= 2.00D-04
 ErrMax= 2.00D-04 EMaxC= 1.00D-01 BMatC= 9.39D-06 BMatP= 3.82D-04
 IDIUse=3 WtCom= 9.98D-01 WtEn= 2.00D-03
 Coeff-Com: -0.902D-02-0.124D-01 0.871D-01 0.934D+00
 Coeff-En:   0.000D+00 0.000D+00 0.000D+00 0.100D+01
 Coeff:     -0.900D-02-0.124D-01 0.869D-01 0.934D+00
 Gap=     0.472 Goal=   None    Shift=    0.000
 RMSDP=1.51D-05 MaxDP=9.76D-04 DE=-2.44D-04 OVMax= 8.21D-04

 Cycle   5  Pass 1  IDiag  1:
 RMSU=  4.46D-06    CP:  9.81D-01  7.75D-01  1.07D+00  1.07D+00
 FoFJK:  IHMeth= 1 ICntrl=     0 DoSepK=T KAlg= 1 I1Cent= 0 FoldK=F
 E= -151.533765339870     Delta-E=       -0.000008688158 Rises=F Damp=F
 DIIS: error= 4.21D-05 at cycle   5 NSaved=   5.
 NSaved= 5 IEnMin= 5 EnMin= -151.533765339870     IErMin= 5 ErrMin= 4.21D-05
 ErrMax= 4.21D-05 EMaxC= 1.00D-01 BMatC= 2.32D-07 BMatP= 9.39D-06
 IDIUse=1 WtCom= 1.00D+00 WtEn= 0.00D+00
 Coeff-Com: -0.407D-03-0.237D-02-0.364D-01-0.123D+00 0.116D+01
 Coeff:     -0.407D-03-0.237D-02-0.364D-01-0.123D+00 0.116D+01
 Gap=     0.472 Goal=   None    Shift=    0.000
 RMSDP=3.78D-06 MaxDP=1.33D-04 DE=-8.69D-06 OVMax= 3.75D-04

 Cycle   6  Pass 1  IDiag  1:
 RMSU=  1.18D-06    CP:  9.81D-01  7.76D-01  1.07D+00  1.13D+00  1.35D+00
 FoFJK:  IHMeth= 1 ICntrl=     0 DoSepK=T KAlg= 1 I1Cent= 0 FoldK=F
 E= -151.533765946857     Delta-E=       -0.000000606988 Rises=F Damp=F
 DIIS: error= 7.84D-06 at cycle   6 NSaved=   6.
 NSaved= 6 IEnMin= 6 EnMin= -151.533765946857     IErMin= 6 ErrMin= 7.84D-06
 ErrMax= 7.84D-06 EMaxC= 1.00D-01 BMatC= 1.26D-08 BMatP= 2.32D-07
 IDIUse=1 WtCom= 1.00D+00 WtEn= 0.00D+00
 Coeff-Com:  0.312D-03 0.897D-03 0.374D-02-0.721D-02-0.199D+00 0.120D+01
 Coeff:      0.312D-03 0.897D-03 0.374D-02-0.721D-02-0.199D+00 0.120D+01
 Gap=     0.472 Goal=   None    Shift=    0.000
 RMSDP=9.70D-07 MaxDP=2.23D-05 DE=-6.07D-07 OVMax= 1.16D-04

 Cycle   7  Pass 1  IDiag  1:
 RMSU=  3.12D-07    CP:  9.81D-01  7.76D-01  1.07D+00  1.14D+00  1.41D+00
                    CP:  1.35D+00
 FoFJK:  IHMeth= 1 ICntrl=     0 DoSepK=T KAlg= 1 I1Cent= 0 FoldK=F
 E= -151.533766051180     Delta-E=       -0.000000104322 Rises=F Damp=F
 DIIS: error= 1.75D-06 at cycle   7 NSaved=   7.
 NSaved= 7 IEnMin= 7 EnMin= -151.533766051180     IErMin= 7 ErrMin= 1.75D-06
 ErrMax= 1.75D-06 EMaxC= 1.00D-01 BMatC= 7.33D-10 BMatP= 1.26D-08
 IDIUse=1 WtCom= 1.00D+00 WtEn= 0.00D+00
 Coeff-Com: -0.154D-04-0.243D-04 0.113D-02 0.674D-02-0.335D-01-0.170D+00
 Coeff-Com:  0.120D+01
 Coeff:     -0.154D-04-0.243D-04 0.113D-02 0.674D-02-0.335D-01-0.170D+00
 Coeff:      0.120D+01
 Gap=     0.472 Goal=   None    Shift=    0.000
 RMSDP=3.51D-07 MaxDP=1.30D-05 DE=-1.04D-07 OVMax= 3.46D-05

 Cycle   8  Pass 1  IDiag  1:
 RMSU=  7.23D-08    CP:  9.81D-01  7.76D-01  1.07D+00  1.14D+00  1.42D+00
                    CP:  1.45D+00  1.40D+00
 FoFJK:  IHMeth= 1 ICntrl=     0 DoSepK=T KAlg= 1 I1Cent= 0 FoldK=F
 E= -151.533766054246     Delta-E=       -0.000000003066 Rises=F Damp=F
 DIIS: error= 5.31D-07 at cycle   8 NSaved=   8.
 NSaved= 8 IEnMin= 8 EnMin= -151.533766054246     IErMin= 8 ErrMin= 5.31D-07
 ErrMax= 5.31D-07 EMaxC= 1.00D-01 BMatC= 6.82D-11 BMatP= 7.33D-10
 IDIUse=1 WtCom= 1.00D+00 WtEn= 0.00D+00
 Coeff-Com: -0.162D-04-0.596D-04-0.416D-03-0.692D-03 0.197D-01-0.624D-01
 Coeff-Com: -0.134D+00 0.118D+01
 Coeff:     -0.162D-04-0.596D-04-0.416D-03-0.692D-03 0.197D-01-0.624D-01
 Coeff:     -0.134D+00 0.118D+01
 Gap=     0.472 Goal=   None    Shift=    0.000
 RMSDP=1.18D-07 MaxDP=5.97D-06 DE=-3.07D-09 OVMax= 1.18D-05

 Cycle   9  Pass 1  IDiag  1:
 RMSU=  2.13D-08    CP:  9.81D-01  7.76D-01  1.07D+00  1.14D+00  1.42D+00
                    CP:  1.47D+00  1.52D+00  1.49D+00
 FoFJK:  IHMeth= 1 ICntrl=     0 DoSepK=T KAlg= 1 I1Cent= 0 FoldK=F
 E= -151.533766054497     Delta-E=       -0.000000000251 Rises=F Damp=F
 DIIS: error= 2.29D-07 at cycle   9 NSaved=   9.
 NSaved= 9 IEnMin= 9 EnMin= -151.533766054497     IErMin= 9 ErrMin= 2.29D-07
 ErrMax= 2.29D-07 EMaxC= 1.00D-01 BMatC= 1.09D-11 BMatP= 6.82D-11
 IDIUse=1 WtCom= 1.00D+00 WtEn= 0.00D+00
 Coeff-Com: -0.137D-05-0.440D-05-0.958D-04-0.488D-03 0.407D-02 0.214D-02
 Coeff-Com: -0.753D-01 0.620D-01 0.101D+01
 Coeff:     -0.137D-05-0.440D-05-0.958D-04-0.488D-03 0.407D-02 0.214D-02
 Coeff:     -0.753D-01 0.620D-01 0.101D+01
 Gap=     0.472 Goal=   None    Shift=    0.000
 RMSDP=3.19D-08 MaxDP=1.04D-06 DE=-2.51D-10 OVMax= 4.74D-06

 Cycle  10  Pass 1  IDiag  1:
 RMSU=  9.80D-09    CP:  9.81D-01  7.76D-01  1.07D+00  1.14D+00  1.42D+00
                    CP:  1.47D+00  1.55D+00  1.67D+00  1.45D+00
 FoFJK:  IHMeth= 1 ICntrl=     0 DoSepK=T KAlg= 1 I1Cent= 0 FoldK=F
 E= -151.533766054530     Delta-E=       -0.000000000033 Rises=F Damp=F
 DIIS: error= 1.39D-07 at cycle  10 NSaved=  10.
 NSaved=10 IEnMin=10 EnMin= -151.533766054530     IErMin=10 ErrMin= 1.39D-07
 ErrMax= 1.39D-07 EMaxC= 1.00D-01 BMatC= 6.77D-12 BMatP= 1.09D-11
 IDIUse=1 WtCom= 1.00D+00 WtEn= 0.00D+00
 Coeff-Com:  0.413D-05 0.173D-04 0.103D-03 0.448D-04-0.473D-02 0.197D-01
 Coeff-Com:  0.206D-01-0.377D+00 0.544D+00 0.797D+00
 Coeff:      0.413D-05 0.173D-04 0.103D-03 0.448D-04-0.473D-02 0.197D-01
 Coeff:      0.206D-01-0.377D+00 0.544D+00 0.797D+00
 Gap=     0.472 Goal=   None    Shift=    0.000
 RMSDP=1.96D-08 MaxDP=3.92D-07 DE=-3.33D-11 OVMax= 3.03D-06

 Cycle  11  Pass 1  IDiag  1:
 RMSU=  4.89D-09    CP:  9.81D-01  7.76D-01  1.07D+00  1.14D+00  1.42D+00
                    CP:  1.48D+00  1.56D+00  1.77D+00  1.89D+00  1.15D+00
 FoFJK:  IHMeth= 1 ICntrl=     0 DoSepK=T KAlg= 1 I1Cent= 0 FoldK=F
 E= -151.533766054543     Delta-E=       -0.000000000014 Rises=F Damp=F
 DIIS: error= 3.92D-08 at cycle  11 NSaved=  11.
 NSaved=11 IEnMin=11 EnMin= -151.533766054543     IErMin=11 ErrMin= 3.92D-08
 ErrMax= 3.92D-08 EMaxC= 1.00D-01 BMatC= 4.10D-13 BMatP= 6.77D-12
 IDIUse=1 WtCom= 1.00D+00 WtEn= 0.00D+00
 Coeff-Com:  0.326D-06 0.185D-05 0.307D-04 0.150D-03-0.135D-02 0.239D-03
 Coeff-Com:  0.232D-01-0.496D-01-0.176D+00-0.595D-02 0.121D+01
 Coeff:      0.326D-06 0.185D-05 0.307D-04 0.150D-03-0.135D-02 0.239D-03
 Coeff:      0.232D-01-0.496D-01-0.176D+00-0.595D-02 0.121D+01
 Gap=     0.472 Goal=   None    Shift=    0.000
 RMSDP=9.97D-09 MaxDP=2.12D-07 DE=-1.35D-11 OVMax= 1.55D-06

 SCF Done:  E(RLC-wPBE) =  -151.533766055     A.U. after   11 cycles
             Convg  =    0.9966D-08             -V/T =  2.0071
 KE= 1.504666761665D+02 PE=-4.315453186239D+02 EE= 9.293253737512D+01
 Leave Link  502 at Fri May  8 02:05:29 2020, MaxMem= 1073741824 cpu:     248.9
 (Enter /home/matheus/.gaussian/g09/l601.exe)
 Copying SCF densities to generalized density rwf, IOpCl= 0 IROHF=0.

 **********************************************************************

            Population analysis using the SCF density.

 **********************************************************************

 Orbital symmetries:
       Occupied  (A) (A) (A) (A) (A) (A) (A) (A) (A)
       Virtual   (A) (A) (A) (A) (A) (A) (A) (A) (A) (A) (A) (A)
                 (A) (A) (A) (A) (A) (A) (A) (A) (A) (A) (A) (A)
                 (A) (A) (A) (A) (A) (A) (A) (A) (A) (A) (A) (A)
                 (A) (A) (A) (A) (A) (A) (A) (A) (A) (A) (A) (A)
                 (A) (A) (A) (A) (A) (A) (A) (A) (A) (A) (A) (A)
                 (A) (A) (A) (A) (A) (A) (A) (A) (A) (A) (A) (A)
                 (A) (A) (A) (A) (A) (A) (A) (A) (A) (A) (A) (A)
                 (A) (A) (A) (A) (A) (A) (A) (A) (A) (A) (A) (A)
                 (A) (A) (A) (A) (A) (A) (A) (A) (A) (A) (A) (A)
                 (A) (A) (A) (A) (A) (A) (A) (A) (A) (A) (A) (A)
                 (A) (A) (A) (A) (A) (A) (A) (A) (A) (A) (A) (A)
                 (A) (A) (A) (A) (A) (A) (A) (A) (A) (A) (A) (A)
                 (A) (A) (A) (A) (A) (A) (A) (A) (A) (A) (A) (A)
                 (A) (A) (A) (A) (A) (A) (A) (A) (A) (A) (A) (A)
                 (A) (A) (A) (A) (A) (A) (A) (A) (A) (A) (A) (A)
                 (A) (A) (A) (A) (A) (A) (A) (A)
 The electronic state is 1-A.
 Alpha  occ. eigenvalues --  -19.11411 -19.11404  -1.32226  -1.09763  -0.71209
 Alpha  occ. eigenvalues --   -0.65820  -0.58433  -0.48566  -0.44427
 Alpha virt. eigenvalues --    0.02785   0.03743   0.07245   0.08660   0.10305
 Alpha virt. eigenvalues --    0.10999   0.11488   0.14073   0.16909   0.17296
 Alpha virt. eigenvalues --    0.19087   0.19679   0.21540   0.23308   0.25627
 Alpha virt. eigenvalues --    0.27313   0.30904   0.31781   0.33063   0.33528
 Alpha virt. eigenvalues --    0.34574   0.37859   0.38438   0.40470   0.41312
 Alpha virt. eigenvalues --    0.42946   0.44328   0.47553   0.48784   0.50080
 Alpha virt. eigenvalues --    0.55122   0.58079   0.60904   0.63751   0.69245
 Alpha virt. eigenvalues --    0.72792   0.74493   0.76018   0.78468   0.79759
 Alpha virt. eigenvalues --    0.81685   0.83108   0.89338   0.90988   0.92007
 Alpha virt. eigenvalues --    0.92429   0.94524   0.96547   0.98122   0.99769
 Alpha virt. eigenvalues --    1.00937   1.04370   1.06724   1.10286   1.12403
 Alpha virt. eigenvalues --    1.14024   1.15695   1.18488   1.24033   1.26599
 Alpha virt. eigenvalues --    1.27497   1.29658   1.31497   1.32932   1.33528
 Alpha virt. eigenvalues --    1.34238   1.36149   1.37714   1.38970   1.40037
 Alpha virt. eigenvalues --    1.45642   1.51306   1.52788   1.54943   1.57883
 Alpha virt. eigenvalues --    1.60337   1.66294   1.67469   1.70837   1.80906
 Alpha virt. eigenvalues --    1.84982   1.88562   1.91979   1.98769   2.04406
 Alpha virt. eigenvalues --    2.11050   2.15636   2.18815   2.20897   2.25102
 Alpha virt. eigenvalues --    2.31166   2.34482   2.35907   2.40373   2.46868
 Alpha virt. eigenvalues --    2.48405   2.54789   2.57293   2.66110   2.68737
 Alpha virt. eigenvalues --    2.69724   2.77699   2.87765   2.90028   2.93024
 Alpha virt. eigenvalues --    3.07827   3.12547   3.15850   3.26050   3.30698
 Alpha virt. eigenvalues --    3.41859   3.55447   3.67340   3.70141   3.78713
 Alpha virt. eigenvalues --    3.79101   3.82079   3.82642   3.83262   3.84525
 Alpha virt. eigenvalues --    3.87302   3.89809   3.92515   3.95422   3.97559
 Alpha virt. eigenvalues --    4.01457   4.03340   4.11545   4.12511   4.13832
 Alpha virt. eigenvalues --    4.22061   4.28070   4.30272   4.31126   4.37307
 Alpha virt. eigenvalues --    4.49995   4.54977   4.59451   4.72943   4.93649
 Alpha virt. eigenvalues --    5.01554   5.09993   5.16712   5.17317   5.26893
 Alpha virt. eigenvalues --    5.47279   5.87882   6.10313   6.15167   6.16932
 Alpha virt. eigenvalues --    6.35534   6.39196   6.47484   6.59118   6.63829
 Alpha virt. eigenvalues --    6.81327   6.82409   6.85576   6.87590   6.90954
 Alpha virt. eigenvalues --    6.92495   6.93080   7.01390   7.05851   7.09282
 Alpha virt. eigenvalues --    7.21601   7.29230   7.46928   7.76244   7.84144
 Alpha virt. eigenvalues --    8.11050   8.14659  10.89955  13.93096  14.61247
 Alpha virt. eigenvalues --   14.83414  14.88334  15.10276  29.03201  29.03580
 Alpha virt. eigenvalues --   29.08126  29.13767  29.23210  49.10883 148.31491
 Alpha virt. eigenvalues --  148.38325 148.70674 752.51566
          Condensed to atoms (all electrons):
              1          2          3          4          5
     1  O    8.195432  -0.185828   0.206626  -0.004842   0.000553
     2  O   -0.185828   8.201104   0.009757   0.207359  -0.000360
     3  H    0.206626   0.009757   0.568399   0.003996  -0.000810
     4  H   -0.004842   0.207359   0.003996   0.569203  -0.004087
     5  Kr   0.000553  -0.000360  -0.000810  -0.004087   0.001133
 Mulliken atomic charges:
              1
     1  O   -0.211942
     2  O   -0.232033
     3  H    0.212032
     4  H    0.228371
     5  Kr   0.003572
 Sum of Mulliken atomic charges =   0.00000
 Mulliken charges with hydrogens summed into heavy atoms:
              1
     1  O    0.000090
     2  O   -0.003661
     5  Kr   0.003572
 Sum of Mulliken charges with hydrogens summed into heavy atoms =   0.00000
          Condensed to fragments (all electrons):
     1      -0.003572
     2       0.003572
 Electronic spatial extent (au):  <R**2>=            322.5637
 Charge=              0.0000 electrons
 Dipole moment (field-independent basis, Debye):
    X=              0.7978    Y=             -0.1255    Z=              1.4364  Tot=              1.6479
 Quadrupole moment (field-independent basis, Debye-Ang):
   XX=            -13.2854   YY=            -10.3851   ZZ=            -11.8002
   XY=              3.4807   XZ=             -3.6701   YZ=             -1.5863
 Traceless Quadrupole moment (field-independent basis, Debye-Ang):
   XX=             -1.4618   YY=              1.4384   ZZ=              0.0234
   XY=              3.4807   XZ=             -3.6701   YZ=             -1.5863
 Octapole moment (field-independent basis, Debye-Ang**2):
  XXX=             71.3304  YYY=             -1.4403  ZZZ=              1.2505  XYY=             21.6391
  XXY=            -12.1413  XXZ=              9.6353  XZZ=             22.9857  YZZ=             -1.6228
  YYZ=              2.0414  XYZ=              4.1886
 Hexadecapole moment (field-independent basis, Debye-Ang**3):
 XXXX=           -287.9600 YYYY=            -44.7811 ZZZZ=            -11.4288 XXXY=             32.4224
 XXXZ=            -25.2611 YYYX=              5.1575 YYYZ=             -2.2123 ZZZX=             -2.7761
 ZZZY=             -1.4961 XXYY=            -53.3779 XXZZ=            -48.5669 YYZZ=            -10.1601
 XXYZ=            -11.0033 YYXZ=             -4.8598 ZZXY=              3.1123
 N-N= 3.661233902771D+01 E-N=-4.315453183100D+02  KE= 1.504666761665D+02
 No NMR shielding tensors so no spin-rotation constants.
 Leave Link  601 at Fri May  8 02:05:29 2020, MaxMem= 1073741824 cpu:       0.8
 (Enter /home/matheus/.gaussian/g09/l122.exe)
 Counterpoise: doing DCBS calculation for fragment   2 NewBq=T
 Leave Link  122 at Fri May  8 02:05:29 2020, MaxMem= 1073741824 cpu:       0.0
 (Enter /home/matheus/.gaussian/g09/l301.exe)
 Basis read from rwf:  (5D, 7F)
 No pseudopotential information found on rwf file.
 There are   197 symmetry adapted basis functions of A   symmetry.
 Integral buffers will be    131072 words long.
 Raffenetti 2 integral format.
 Two-electron integral symmetry is turned on.
   197 basis functions,   415 primitive gaussians,   229 cartesian basis functions
    18 alpha electrons       18 beta electrons
       nuclear repulsion energy         0.0000000000 Hartrees.
 IExCor=32609 DFT=T Ex+Corr=LC-wPBE ExCW=0 ScaHFX=  1.000000
 ScaDFX=  1.000000  0.000000  1.000000  1.000000 ScalE2=  1.000000  1.000000
 IRadAn=      5 IRanWt=     -1 IRanGd=            0 ICorTp=0
  HFx wShort=  0.000000 wLong=  0.550000 cFull=  0.000000 cShort=  0.000000 cLong=  1.000000
  DFx wShort=  0.000000 wLong=  0.550000 cFull=  0.000000 cShort=  0.000000 cLong=  1.000000
 NAtoms=    5 NActive=    5 NUniq=    5 SFac= 1.00D+00 NAtFMM=   60 NAOKFM=F Big=F
 No density basis found on file   718.
 Leave Link  301 at Fri May  8 02:05:29 2020, MaxMem= 1073741824 cpu:       0.2
 (Enter /home/matheus/.gaussian/g09/l302.exe)
 NPDir=0 NMtPBC=     1 NCelOv=     1 NCel=       1 NClECP=     1 NCelD=      1
         NCelK=      1 NCelE2=     1 NClLst=     1 CellRange=     0.0.
 One-electron integrals computed using PRISM.
 NBasis=   197 RedAO= T  NBF=   197
 NBsUse=   197 1.00D-06 NBFU=   197
 Precomputing XC quadrature grid using
 IXCGrd= 2 IRadAn=           5 IRanWt=          -1 IRanGd=           0 AccXCQ= 0.00D+00.
 NRdTot=     427 NPtTot=      123512 NUsed=      126579 NTot=      126611
 NSgBfM=   229   229   229   229   229 NAtAll=     5     5.
 Leave Link  302 at Fri May  8 02:05:29 2020, MaxMem= 1073741824 cpu:       0.9
 (Enter /home/matheus/.gaussian/g09/l303.exe)
 DipDrv:  MaxL=1.
 Leave Link  303 at Fri May  8 02:05:29 2020, MaxMem= 1073741824 cpu:       0.2
 (Enter /home/matheus/.gaussian/g09/l401.exe)
 Harris functional with IExCor=32609 diagonalized for initial guess.
 ExpMin= 2.53D-02 ExpMax= 1.17D+07 ExpMxC= 1.33D+04 IAcc=3 IRadAn=         5 AccDes= 0.00D+00
 HarFok:  IExCor=32609 AccDes= 0.00D+00 IRadAn=         5 IDoV= 1
 ScaDFX=  1.000000  1.000000  1.000000  1.000000
 FoFCou: FMM=F IPFlag=           0 FMFlag=      100000 FMFlg1=           0
         NFxFlg=           0 DoJE=T BraDBF=F KetDBF=T FulRan=T
         Omega=  0.000000  0.000000  1.000000  0.000000  0.000000 ICntrl=     500 IOpCl=  0
         NMat0=    1 NMatS0=    1 NMatT0=    0 NMatD0=    1 NMtDS0=    0 NMtDT0=    0
         I1Cent=           4 NGrid=           0.
 Petite list used in FoFCou.
 Harris En= -2753.24648428556    
 Initial guess orbital symmetries:
       Occupied  (A) (A) (A) (A) (A) (A) (A) (A) (A) (A) (A) (A)
                 (A) (A) (A) (A) (A) (A)
       Virtual   (A) (A) (A) (A) (A) (A) (A) (A) (A) (A) (A) (A)
                 (A) (A) (A) (A) (A) (A) (A) (A) (A) (A) (A) (A)
                 (A) (A) (A) (A) (A) (A) (A) (A) (A) (A) (A) (A)
                 (A) (A) (A) (A) (A) (A) (A) (A) (A) (A) (A) (A)
                 (A) (A) (A) (A) (A) (A) (A) (A) (A) (A) (A) (A)
                 (A) (A) (A) (A) (A) (A) (A) (A) (A) (A) (A) (A)
                 (A) (A) (A) (A) (A) (A) (A) (A) (A) (A) (A) (A)
                 (A) (A) (A) (A) (A) (A) (A) (A) (A) (A) (A) (A)
                 (A) (A) (A) (A) (A) (A) (A) (A) (A) (A) (A) (A)
                 (A) (A) (A) (A) (A) (A) (A) (A) (A) (A) (A) (A)
                 (A) (A) (A) (A) (A) (A) (A) (A) (A) (A) (A) (A)
                 (A) (A) (A) (A) (A) (A) (A) (A) (A) (A) (A) (A)
                 (A) (A) (A) (A) (A) (A) (A) (A) (A) (A) (A) (A)
                 (A) (A) (A) (A) (A) (A) (A) (A) (A) (A) (A) (A)
                 (A) (A) (A) (A) (A) (A) (A) (A) (A) (A) (A)
 The electronic state of the initial guess is 1-A.
 Leave Link  401 at Fri May  8 02:05:30 2020, MaxMem= 1073741824 cpu:       3.7
 (Enter /home/matheus/.gaussian/g09/l502.exe)
 Closed shell SCF:
 Requested convergence on RMS density matrix=1.00D-08 within 128 cycles.
 Requested convergence on MAX density matrix=1.00D-06.
 Requested convergence on             energy=1.00D-06.
 No special actions if energy rises.
 Using DIIS extrapolation, IDIIS=  1040.
 Integral symmetry usage will be decided dynamically.
       126521 words used for storage of precomputed grid.
 IEnd=      305468 IEndB=      305468 NGot=  1073741824 MDV=  1073505667
 LenX=  1073505667 LenY=  1073452785
 Fock matrices will be formed incrementally for  20 cycles.

 Cycle   1  Pass 1  IDiag  1:
 FoFJK:  IHMeth= 1 ICntrl=     0 DoSepK=T KAlg= 1 I1Cent= 0 FoldK=F
 FoFCou: FMM=F IPFlag=           0 FMFlag=      100000 FMFlg1=           0
         NFxFlg=           0 DoJE=T BraDBF=F KetDBF=F FulRan=T
         Omega=  0.000000  0.000000  1.000000  0.000000  0.000000 ICntrl=     500 IOpCl=  0
         NMat0=    1 NMatS0=    1 NMatT0=    0 NMatD0=    1 NMtDS0=    0 NMtDT0=    0
         I1Cent=           0 NGrid=           0.
 Symmetry not used in FoFCou.
 E= -2753.43085791913    
 DIIS: error= 2.45D-02 at cycle   1 NSaved=   1.
 NSaved= 1 IEnMin= 1 EnMin= -2753.43085791913     IErMin= 1 ErrMin= 2.45D-02
 ErrMax= 2.45D-02 EMaxC= 1.00D-01 BMatC= 2.24D-01 BMatP= 2.24D-01
 IDIUse=3 WtCom= 7.55D-01 WtEn= 2.45D-01
 Coeff-Com:  0.100D+01
 Coeff-En:   0.100D+01
 Coeff:      0.100D+01
 Gap=     0.637 Goal=   None    Shift=    0.000
 GapD=    0.637 DampG=2.000 DampE=0.500 DampFc=1.0000 IDamp=-1.
 RMSDP=2.07D-03 MaxDP=1.42D-01              OVMax= 5.14D-02

 Cycle   2  Pass 1  IDiag  1:
 RMSU=  1.43D-03    CP:  1.02D+00
 FoFJK:  IHMeth= 1 ICntrl=     0 DoSepK=T KAlg= 1 I1Cent= 0 FoldK=F
 E= -2753.46431677793     Delta-E=       -0.033458858801 Rises=F Damp=F
 DIIS: error= 9.47D-03 at cycle   2 NSaved=   2.
 NSaved= 2 IEnMin= 2 EnMin= -2753.46431677793     IErMin= 2 ErrMin= 9.47D-03
 ErrMax= 9.47D-03 EMaxC= 1.00D-01 BMatC= 4.97D-02 BMatP= 2.24D-01
 IDIUse=3 WtCom= 9.05D-01 WtEn= 9.47D-02
 Coeff-Com:  0.315D+00 0.685D+00
 Coeff-En:   0.626D-01 0.937D+00
 Coeff:      0.291D+00 0.709D+00
 Gap=     0.551 Goal=   None    Shift=    0.000
 RMSDP=7.61D-04 MaxDP=4.96D-02 DE=-3.35D-02 OVMax= 1.83D-02

 Cycle   3  Pass 1  IDiag  1:
 RMSU=  1.50D-04    CP:  1.01D+00  6.49D-01
 FoFJK:  IHMeth= 1 ICntrl=     0 DoSepK=T KAlg= 1 I1Cent= 0 FoldK=F
 E= -2753.47775955923     Delta-E=       -0.013442781303 Rises=F Damp=F
 DIIS: error= 1.01D-03 at cycle   3 NSaved=   3.
 NSaved= 3 IEnMin= 3 EnMin= -2753.47775955923     IErMin= 3 ErrMin= 1.01D-03
 ErrMax= 1.01D-03 EMaxC= 1.00D-01 BMatC= 4.72D-04 BMatP= 4.97D-02
 IDIUse=3 WtCom= 9.90D-01 WtEn= 1.01D-02
 Coeff-Com: -0.468D-02 0.799D-01 0.925D+00
 Coeff-En:   0.000D+00 0.000D+00 0.100D+01
 Coeff:     -0.463D-02 0.791D-01 0.926D+00
 Gap=     0.556 Goal=   None    Shift=    0.000
 RMSDP=6.64D-05 MaxDP=3.97D-03 DE=-1.34D-02 OVMax= 2.31D-03

 Cycle   4  Pass 1  IDiag  1:
 RMSU=  1.35D-05    CP:  1.01D+00  6.80D-01  1.00D+00
 FoFJK:  IHMeth= 1 ICntrl=     0 DoSepK=T KAlg= 1 I1Cent= 0 FoldK=F
 E= -2753.47789765587     Delta-E=       -0.000138096642 Rises=F Damp=F
 DIIS: error= 3.32D-05 at cycle   4 NSaved=   4.
 NSaved= 4 IEnMin= 4 EnMin= -2753.47789765587     IErMin= 4 ErrMin= 3.32D-05
 ErrMax= 3.32D-05 EMaxC= 1.00D-01 BMatC= 4.02D-07 BMatP= 4.72D-04
 IDIUse=1 WtCom= 1.00D+00 WtEn= 0.00D+00
 Coeff-Com: -0.552D-03-0.186D-01-0.165D+00 0.118D+01
 Coeff:     -0.552D-03-0.186D-01-0.165D+00 0.118D+01
 Gap=     0.556 Goal=   None    Shift=    0.000
 RMSDP=5.71D-06 MaxDP=3.21D-04 DE=-1.38D-04 OVMax= 4.11D-04

 Cycle   5  Pass 1  IDiag  1:
 RMSU=  1.82D-06    CP:  1.01D+00  6.79D-01  1.02D+00  1.19D+00
 FoFJK:  IHMeth= 1 ICntrl=     0 DoSepK=T KAlg= 1 I1Cent= 0 FoldK=F
 E= -2753.47789816885     Delta-E=       -0.000000512980 Rises=F Damp=F
 DIIS: error= 2.10D-06 at cycle   5 NSaved=   5.
 NSaved= 5 IEnMin= 5 EnMin= -2753.47789816885     IErMin= 5 ErrMin= 2.10D-06
 ErrMax= 2.10D-06 EMaxC= 1.00D-01 BMatC= 2.18D-09 BMatP= 4.02D-07
 IDIUse=1 WtCom= 1.00D+00 WtEn= 0.00D+00
 Coeff-Com:  0.966D-04 0.195D-03-0.158D-02-0.165D-01 0.102D+01
 Coeff:      0.966D-04 0.195D-03-0.158D-02-0.165D-01 0.102D+01
 Gap=     0.556 Goal=   None    Shift=    0.000
 RMSDP=3.38D-07 MaxDP=2.18D-05 DE=-5.13D-07 OVMax= 1.48D-05

 Cycle   6  Pass 1  IDiag  1:
 RMSU=  1.65D-07    CP:  1.01D+00  6.79D-01  1.02D+00  1.20D+00  1.03D+00
 FoFJK:  IHMeth= 1 ICntrl=     0 DoSepK=T KAlg= 1 I1Cent= 0 FoldK=F
 E= -2753.47789817074     Delta-E=       -0.000000001887 Rises=F Damp=F
 DIIS: error= 3.26D-07 at cycle   6 NSaved=   6.
 NSaved= 6 IEnMin= 6 EnMin= -2753.47789817074     IErMin= 6 ErrMin= 3.26D-07
 ErrMax= 3.26D-07 EMaxC= 1.00D-01 BMatC= 7.62D-11 BMatP= 2.18D-09
 IDIUse=1 WtCom= 1.00D+00 WtEn= 0.00D+00
 Coeff-Com:  0.340D-05 0.175D-03 0.181D-02-0.167D-01 0.330D-01 0.982D+00
 Coeff:      0.340D-05 0.175D-03 0.181D-02-0.167D-01 0.330D-01 0.982D+00
 Gap=     0.556 Goal=   None    Shift=    0.000
 RMSDP=5.04D-08 MaxDP=2.53D-06 DE=-1.89D-09 OVMax= 3.10D-06

 Cycle   7  Pass 1  IDiag  1:
 RMSU=  1.07D-08    CP:  1.01D+00  6.79D-01  1.02D+00  1.20D+00  1.05D+00
                    CP:  1.10D+00
 FoFJK:  IHMeth= 1 ICntrl=     0 DoSepK=T KAlg= 1 I1Cent= 0 FoldK=F
 E= -2753.47789817079     Delta-E=       -0.000000000054 Rises=F Damp=F
 DIIS: error= 3.00D-08 at cycle   7 NSaved=   7.
 NSaved= 7 IEnMin= 7 EnMin= -2753.47789817079     IErMin= 7 ErrMin= 3.00D-08
 ErrMax= 3.00D-08 EMaxC= 1.00D-01 BMatC= 4.19D-13 BMatP= 7.62D-11
 IDIUse=1 WtCom= 1.00D+00 WtEn= 0.00D+00
 Coeff-Com:  0.223D-06 0.310D-04 0.331D-03-0.290D-02 0.281D-02 0.157D+00
 Coeff-Com:  0.843D+00
 Coeff:      0.223D-06 0.310D-04 0.331D-03-0.290D-02 0.281D-02 0.157D+00
 Coeff:      0.843D+00
 Gap=     0.556 Goal=   None    Shift=    0.000
 RMSDP=5.69D-09 MaxDP=2.24D-07 DE=-5.41D-11 OVMax= 2.39D-07

 SCF Done:  E(RLC-wPBE) =  -2753.47789817     A.U. after    7 cycles
             Convg  =    0.5693D-08             -V/T =  2.0014
 KE= 2.749515185123D+03 PE=-6.579049289183D+03 EE= 1.076056205889D+03
 Leave Link  502 at Fri May  8 02:05:50 2020, MaxMem= 1073741824 cpu:     165.4
 (Enter /home/matheus/.gaussian/g09/l601.exe)
 Copying SCF densities to generalized density rwf, IOpCl= 0 IROHF=0.

 **********************************************************************

            Population analysis using the SCF density.

 **********************************************************************

 Orbital symmetries:
       Occupied  (A) (A) (A) (A) (A) (A) (A) (A) (A) (A) (A) (A)
                 (A) (A) (A) (A) (A) (A)
       Virtual   (A) (A) (A) (A) (A) (A) (A) (A) (A) (A) (A) (A)
                 (A) (A) (A) (A) (A) (A) (A) (A) (A) (A) (A) (A)
                 (A) (A) (A) (A) (A) (A) (A) (A) (A) (A) (A) (A)
                 (A) (A) (A) (A) (A) (A) (A) (A) (A) (A) (A) (A)
                 (A) (A) (A) (A) (A) (A) (A) (A) (A) (A) (A) (A)
                 (A) (A) (A) (A) (A) (A) (A) (A) (A) (A) (A) (A)
                 (A) (A) (A) (A) (A) (A) (A) (A) (A) (A) (A) (A)
                 (A) (A) (A) (A) (A) (A) (A) (A) (A) (A) (A) (A)
                 (A) (A) (A) (A) (A) (A) (A) (A) (A) (A) (A) (A)
                 (A) (A) (A) (A) (A) (A) (A) (A) (A) (A) (A) (A)
                 (A) (A) (A) (A) (A) (A) (A) (A) (A) (A) (A) (A)
                 (A) (A) (A) (A) (A) (A) (A) (A) (A) (A) (A) (A)
                 (A) (A) (A) (A) (A) (A) (A) (A) (A) (A) (A) (A)
                 (A) (A) (A) (A) (A) (A) (A) (A) (A) (A) (A) (A)
                 (A) (A) (A) (A) (A) (A) (A) (A) (A) (A) (A)
 The electronic state is 1-A.
 Alpha  occ. eigenvalues -- -511.18549 -66.73375 -60.39484 -60.39481 -60.39480
 Alpha  occ. eigenvalues --   -9.66932  -7.41183  -7.41181  -7.41181  -3.35590
 Alpha  occ. eigenvalues --   -3.35589  -3.35589  -3.35588  -3.35588  -1.08852
 Alpha  occ. eigenvalues --   -0.52697  -0.52694  -0.52692
 Alpha virt. eigenvalues --    0.02924   0.04895   0.08468   0.09315   0.11424
 Alpha virt. eigenvalues --    0.12197   0.13229   0.13924   0.16459   0.17053
 Alpha virt. eigenvalues --    0.17715   0.19776   0.21011   0.26020   0.27554
 Alpha virt. eigenvalues --    0.28152   0.28592   0.31512   0.33732   0.34979
 Alpha virt. eigenvalues --    0.36436   0.37552   0.38418   0.39482   0.41819
 Alpha virt. eigenvalues --    0.42163   0.43466   0.54587   0.54848   0.58594
 Alpha virt. eigenvalues --    0.59528   0.66445   0.67483   0.70374   0.72670
 Alpha virt. eigenvalues --    0.75358   0.76075   0.77956   0.78566   0.80230
 Alpha virt. eigenvalues --    0.81330   0.81620   0.84320   0.86329   0.86468
 Alpha virt. eigenvalues --    0.88464   0.88926   0.90216   0.92081   0.96055
 Alpha virt. eigenvalues --    0.97262   0.99838   0.99988   1.03248   1.03297
 Alpha virt. eigenvalues --    1.06023   1.08039   1.09520   1.11942   1.13038
 Alpha virt. eigenvalues --    1.16610   1.21319   1.23460   1.24634   1.28979
 Alpha virt. eigenvalues --    1.34585   1.35630   1.40039   1.45449   1.46549
 Alpha virt. eigenvalues --    1.54196   1.58884   1.60580   1.73326   1.78732
 Alpha virt. eigenvalues --    1.79067   1.83819   1.87756   1.96336   2.19831
 Alpha virt. eigenvalues --    2.22838   2.25581   2.30109   2.31405   2.34186
 Alpha virt. eigenvalues --    2.35557   2.36236   2.38773   2.40410   2.42595
 Alpha virt. eigenvalues --    2.45391   2.47781   2.48667   2.52535   2.53059
 Alpha virt. eigenvalues --    2.54431   2.55885   2.57275   2.58348   2.58901
 Alpha virt. eigenvalues --    2.63824   2.64627   2.66648   2.68756   2.71580
 Alpha virt. eigenvalues --    2.74510   2.78934   2.85829   2.87430   2.89613
 Alpha virt. eigenvalues --    2.94284   2.96949   3.04218   3.13137   3.20767
 Alpha virt. eigenvalues --    3.22799   3.26617   3.31725   3.34725   3.50175
 Alpha virt. eigenvalues --    3.61390   3.66017   3.82501   3.87272   4.03756
 Alpha virt. eigenvalues --    4.37689   4.45535   4.52999   4.58078   4.63648
 Alpha virt. eigenvalues --    4.72456   4.87332   4.89579   4.94213   5.01120
 Alpha virt. eigenvalues --    5.17182   5.18380   5.58807   5.65421   5.75369
 Alpha virt. eigenvalues --    5.93034   6.01477   6.18660   6.74232   6.89937
 Alpha virt. eigenvalues --    7.36749   7.40693   7.61425   7.64630   7.72260
 Alpha virt. eigenvalues --    7.88419   7.91942   8.10933   8.17356   8.21544
 Alpha virt. eigenvalues --    8.39540   8.44157   8.60441   8.87248   9.63902
 Alpha virt. eigenvalues --    9.73267   9.83098   9.88941   9.93842  10.01041
 Alpha virt. eigenvalues --   10.15103  10.30165  10.40965  10.96383  11.51437
 Alpha virt. eigenvalues --   11.65004  11.71444  12.04503  12.09995  13.26807
 Alpha virt. eigenvalues --   13.60882  14.53433  62.70338  64.64257
          Condensed to atoms (all electrons):
              1          2          3          4          5
     1  O    0.002889  -0.002078  -0.001829   0.001418  -0.011061
     2  O   -0.002078   0.005782   0.000591  -0.004131   0.001564
     3  H   -0.001829   0.000591   0.001486  -0.000392   0.003264
     4  H    0.001418  -0.004131  -0.000392   0.004628  -0.030942
     5  Kr  -0.011061   0.001564   0.003264  -0.030942  36.072407
 Mulliken atomic charges:
              1
     1  O    0.010662
     2  O   -0.001728
     3  H   -0.003120
     4  H    0.029418
     5  Kr  -0.035232
 Sum of Mulliken atomic charges =   0.00000
 Mulliken charges with hydrogens summed into heavy atoms:
              1
     1  O    0.007542
     2  O    0.027690
     5  Kr  -0.035232
 Sum of Mulliken charges with hydrogens summed into heavy atoms =   0.00000
          Condensed to fragments (all electrons):
     1       0.035232
     2      -0.035232
 Electronic spatial extent (au):  <R**2>=            165.5496
 Charge=              0.0000 electrons
 Dipole moment (field-independent basis, Debye):
    X=             -0.0008    Y=              0.0004    Z=              0.0001  Tot=              0.0009
 Quadrupole moment (field-independent basis, Debye-Ang):
   XX=            -17.5401   YY=            -17.5499   ZZ=            -17.5563
   XY=             -0.0043   XZ=              0.0001   YZ=              0.0004
 Traceless Quadrupole moment (field-independent basis, Debye-Ang):
   XX=              0.0087   YY=             -0.0011   ZZ=             -0.0075
   XY=             -0.0043   XZ=              0.0001   YZ=              0.0004
 Octapole moment (field-independent basis, Debye-Ang**2):
  XXX=            -52.1709  YYY=              0.7812  ZZZ=             -0.1288  XYY=            -17.4014
  XXY=              0.2526  XXZ=             -0.0434  XZZ=            -17.4047  YZZ=              0.2615
  YYZ=             -0.0427  XYZ=              0.0001
 Hexadecapole moment (field-independent basis, Debye-Ang**3):
 XXXX=           -121.4562 YYYY=            -18.0449 ZZZZ=            -18.0448 XXXY=              0.7584
 XXXZ=             -0.1287 YYYX=              0.7620 YYYZ=              0.0016 ZZZX=             -0.1284
 ZZZY=              0.0031 XXYY=            -23.2606 XXZZ=            -23.2613 YYZZ=             -6.0138
 XXYZ=              0.0012 YYXZ=             -0.0426 ZZXY=              0.2525
 N-N= 0.000000000000D+00 E-N=-6.579049286420D+03  KE= 2.749515185123D+03
 No NMR shielding tensors so no spin-rotation constants.
 Leave Link  601 at Fri May  8 02:05:50 2020, MaxMem= 1073741824 cpu:       0.8
 (Enter /home/matheus/.gaussian/g09/l122.exe)
 Counterpoise: doing MCBS calculation for fragment   1
 Leave Link  122 at Fri May  8 02:05:50 2020, MaxMem= 1073741824 cpu:       0.0
 (Enter /home/matheus/.gaussian/g09/l301.exe)
 Basis read from rwf:  (5D, 7F)
 No pseudopotential information found on rwf file.
 There are   138 symmetry adapted basis functions of A   symmetry.
 Integral buffers will be    131072 words long.
 Raffenetti 2 integral format.
 Two-electron integral symmetry is turned on.
   138 basis functions,   198 primitive gaussians,   160 cartesian basis functions
     9 alpha electrons        9 beta electrons
       nuclear repulsion energy        36.6123390277 Hartrees.
 IExCor=32609 DFT=T Ex+Corr=LC-wPBE ExCW=0 ScaHFX=  1.000000
 ScaDFX=  1.000000  0.000000  1.000000  1.000000 ScalE2=  1.000000  1.000000
 IRadAn=      5 IRanWt=     -1 IRanGd=            0 ICorTp=0
  HFx wShort=  0.000000 wLong=  0.550000 cFull=  0.000000 cShort=  0.000000 cLong=  1.000000
  DFx wShort=  0.000000 wLong=  0.550000 cFull=  0.000000 cShort=  0.000000 cLong=  1.000000
 NAtoms=    5 NActive=    4 NUniq=    4 SFac= 1.00D+00 NAtFMM=   60 NAOKFM=F Big=F
 No density basis found on file   718.
 Leave Link  301 at Fri May  8 02:05:50 2020, MaxMem= 1073741824 cpu:       0.2
 (Enter /home/matheus/.gaussian/g09/l302.exe)
 NPDir=0 NMtPBC=     1 NCelOv=     1 NCel=       1 NClECP=     1 NCelD=      1
         NCelK=      1 NCelE2=     1 NClLst=     1 CellRange=     0.0.
 One-electron integrals computed using PRISM.
 NBasis=   138 RedAO= T  NBF=   138
 NBsUse=   138 1.00D-06 NBFU=   138
 Precomputing XC quadrature grid using
 IXCGrd= 2 IRadAn=           5 IRanWt=          -1 IRanGd=           0 AccXCQ= 0.00D+00.
 NRdTot=     344 NPtTot=       92556 NUsed=       95038 NTot=       95070
 NSgBfM=   160   160   160   160   160 NAtAll=     4     4.
 Leave Link  302 at Fri May  8 02:05:51 2020, MaxMem= 1073741824 cpu:       0.8
 (Enter /home/matheus/.gaussian/g09/l303.exe)
 DipDrv:  MaxL=1.
 Leave Link  303 at Fri May  8 02:05:51 2020, MaxMem= 1073741824 cpu:       0.2
 (Enter /home/matheus/.gaussian/g09/l401.exe)
 Harris functional with IExCor=32609 diagonalized for initial guess.
 ExpMin= 2.53D-02 ExpMax= 1.53D+04 ExpMxC= 5.22D+02 IAcc=3 IRadAn=         5 AccDes= 0.00D+00
 HarFok:  IExCor=32609 AccDes= 0.00D+00 IRadAn=         5 IDoV= 1
 ScaDFX=  1.000000  1.000000  1.000000  1.000000
 FoFCou: FMM=F IPFlag=           0 FMFlag=      100000 FMFlg1=           0
         NFxFlg=           0 DoJE=T BraDBF=F KetDBF=T FulRan=T
         Omega=  0.000000  0.000000  1.000000  0.000000  0.000000 ICntrl=     500 IOpCl=  0
         NMat0=    1 NMatS0=    1 NMatT0=    0 NMatD0=    1 NMtDS0=    0 NMtDT0=    0
         I1Cent=           4 NGrid=           0.
 Petite list used in FoFCou.
 Harris En= -151.501912621093    
 Initial guess orbital symmetries:
       Occupied  (A) (A) (A) (A) (A) (A) (A) (A) (A)
       Virtual   (A) (A) (A) (A) (A) (A) (A) (A) (A) (A) (A) (A)
                 (A) (A) (A) (A) (A) (A) (A) (A) (A) (A) (A) (A)
                 (A) (A) (A) (A) (A) (A) (A) (A) (A) (A) (A) (A)
                 (A) (A) (A) (A) (A) (A) (A) (A) (A) (A) (A) (A)
                 (A) (A) (A) (A) (A) (A) (A) (A) (A) (A) (A) (A)
                 (A) (A) (A) (A) (A) (A) (A) (A) (A) (A) (A) (A)
                 (A) (A) (A) (A) (A) (A) (A) (A) (A) (A) (A) (A)
                 (A) (A) (A) (A) (A) (A) (A) (A) (A) (A) (A) (A)
                 (A) (A) (A) (A) (A) (A) (A) (A) (A) (A) (A) (A)
                 (A) (A) (A) (A) (A) (A) (A) (A) (A) (A) (A) (A)
                 (A) (A) (A) (A) (A) (A) (A) (A) (A)
 The electronic state of the initial guess is 1-A.
 Leave Link  401 at Fri May  8 02:05:51 2020, MaxMem= 1073741824 cpu:       2.1
 (Enter /home/matheus/.gaussian/g09/l502.exe)
 Closed shell SCF:
 Requested convergence on RMS density matrix=1.00D-08 within 128 cycles.
 Requested convergence on MAX density matrix=1.00D-06.
 Requested convergence on             energy=1.00D-06.
 No special actions if energy rises.
 Using DIIS extrapolation, IDIIS=  1040.
 Integral symmetry usage will be decided dynamically.
        94980 words used for storage of precomputed grid.
 IEnd=      192360 IEndB=      192360 NGot=  1073741824 MDV=  1073591865
 LenX=  1073591865 LenY=  1073565824
 Fock matrices will be formed incrementally for  20 cycles.

 Cycle   1  Pass 1  IDiag  1:
 FoFJK:  IHMeth= 1 ICntrl=     0 DoSepK=T KAlg= 1 I1Cent= 0 FoldK=F
 FoFCou: FMM=F IPFlag=           0 FMFlag=      100000 FMFlg1=           0
         NFxFlg=           0 DoJE=T BraDBF=F KetDBF=F FulRan=T
         Omega=  0.000000  0.000000  1.000000  0.000000  0.000000 ICntrl=     500 IOpCl=  0
         NMat0=    1 NMatS0=    1 NMatT0=    0 NMatD0=    1 NMtDS0=    0 NMtDT0=    0
         I1Cent=           0 NGrid=           0.
 Symmetry not used in FoFCou.
 E= -151.508720256668    
 DIIS: error= 1.62D-02 at cycle   1 NSaved=   1.
 NSaved= 1 IEnMin= 1 EnMin= -151.508720256668     IErMin= 1 ErrMin= 1.62D-02
 ErrMax= 1.62D-02 EMaxC= 1.00D-01 BMatC= 4.01D-02 BMatP= 4.01D-02
 IDIUse=3 WtCom= 8.38D-01 WtEn= 1.62D-01
 Coeff-Com:  0.100D+01
 Coeff-En:   0.100D+01
 Coeff:      0.100D+01
 Gap=     0.560 Goal=   None    Shift=    0.000
 GapD=    0.560 DampG=2.000 DampE=0.500 DampFc=1.0000 IDamp=-1.
 RMSDP=1.03D-03 MaxDP=2.42D-02              OVMax= 5.05D-02

 Cycle   2  Pass 1  IDiag  1:
 RMSU=  7.18D-04    CP:  9.88D-01
 FoFJK:  IHMeth= 1 ICntrl=     0 DoSepK=T KAlg= 1 I1Cent= 0 FoldK=F
 E= -151.524822697933     Delta-E=       -0.016102441265 Rises=F Damp=F
 DIIS: error= 9.10D-03 at cycle   2 NSaved=   2.
 NSaved= 2 IEnMin= 2 EnMin= -151.524822697933     IErMin= 2 ErrMin= 9.10D-03
 ErrMax= 9.10D-03 EMaxC= 1.00D-01 BMatC= 1.54D-02 BMatP= 4.01D-02
 IDIUse=3 WtCom= 9.09D-01 WtEn= 9.10D-02
 Coeff-Com:  0.369D+00 0.631D+00
 Coeff-En:   0.112D+00 0.888D+00
 Coeff:      0.346D+00 0.654D+00
 Gap=     0.482 Goal=   None    Shift=    0.000
 RMSDP=5.68D-04 MaxDP=2.21D-02 DE=-1.61D-02 OVMax= 2.21D-02

 Cycle   3  Pass 1  IDiag  1:
 RMSU=  3.45D-04    CP:  9.84D-01  7.20D-01
 FoFJK:  IHMeth= 1 ICntrl=     0 DoSepK=T KAlg= 1 I1Cent= 0 FoldK=F
 E= -151.533432097510     Delta-E=       -0.008609399577 Rises=F Damp=F
 DIIS: error= 2.30D-03 at cycle   3 NSaved=   3.
 NSaved= 3 IEnMin= 3 EnMin= -151.533432097510     IErMin= 3 ErrMin= 2.30D-03
 ErrMax= 2.30D-03 EMaxC= 1.00D-01 BMatC= 4.04D-04 BMatP= 1.54D-02
 IDIUse=3 WtCom= 9.77D-01 WtEn= 2.30D-02
 Coeff-Com:  0.393D-01 0.159D+00 0.801D+00
 Coeff-En:   0.000D+00 0.000D+00 0.100D+01
 Coeff:      0.384D-01 0.156D+00 0.806D+00
 Gap=     0.474 Goal=   None    Shift=    0.000
 RMSDP=8.22D-05 MaxDP=2.12D-03 DE=-8.61D-03 OVMax= 4.07D-03

 Cycle   4  Pass 1  IDiag  1:
 RMSU=  3.97D-05    CP:  9.82D-01  7.71D-01  1.03D+00
 FoFJK:  IHMeth= 1 ICntrl=     0 DoSepK=T KAlg= 1 I1Cent= 0 FoldK=F
 E= -151.533688615659     Delta-E=       -0.000256518149 Rises=F Damp=F
 DIIS: error= 3.07D-04 at cycle   4 NSaved=   4.
 NSaved= 4 IEnMin= 4 EnMin= -151.533688615659     IErMin= 4 ErrMin= 3.07D-04
 ErrMax= 3.07D-04 EMaxC= 1.00D-01 BMatC= 9.99D-06 BMatP= 4.04D-04
 IDIUse=3 WtCom= 9.97D-01 WtEn= 3.07D-03
 Coeff-Com: -0.903D-02-0.126D-01 0.897D-01 0.932D+00
 Coeff-En:   0.000D+00 0.000D+00 0.000D+00 0.100D+01
 Coeff:     -0.900D-02-0.126D-01 0.895D-01 0.932D+00
 Gap=     0.476 Goal=   None    Shift=    0.000
 RMSDP=2.17D-05 MaxDP=9.83D-04 DE=-2.57D-04 OVMax= 8.34D-04

 Cycle   5  Pass 1  IDiag  1:
 RMSU=  6.25D-06    CP:  9.82D-01  7.73D-01  1.06D+00  1.07D+00
 FoFJK:  IHMeth= 1 ICntrl=     0 DoSepK=T KAlg= 1 I1Cent= 0 FoldK=F
 E= -151.533697552367     Delta-E=       -0.000008936707 Rises=F Damp=F
 DIIS: error= 5.81D-05 at cycle   5 NSaved=   5.
 NSaved= 5 IEnMin= 5 EnMin= -151.533697552367     IErMin= 5 ErrMin= 5.81D-05
 ErrMax= 5.81D-05 EMaxC= 1.00D-01 BMatC= 2.33D-07 BMatP= 9.99D-06
 IDIUse=1 WtCom= 1.00D+00 WtEn= 0.00D+00
 Coeff-Com: -0.404D-03-0.245D-02-0.368D-01-0.123D+00 0.116D+01
 Coeff:     -0.404D-03-0.245D-02-0.368D-01-0.123D+00 0.116D+01
 Gap=     0.476 Goal=   None    Shift=    0.000
 RMSDP=5.42D-06 MaxDP=1.37D-04 DE=-8.94D-06 OVMax= 3.75D-04

 Cycle   6  Pass 1  IDiag  1:
 RMSU=  1.67D-06    CP:  9.81D-01  7.74D-01  1.07D+00  1.13D+00  1.34D+00
 FoFJK:  IHMeth= 1 ICntrl=     0 DoSepK=T KAlg= 1 I1Cent= 0 FoldK=F
 E= -151.533698254932     Delta-E=       -0.000000702565 Rises=F Damp=F
 DIIS: error= 1.44D-05 at cycle   6 NSaved=   6.
 NSaved= 6 IEnMin= 6 EnMin= -151.533698254932     IErMin= 6 ErrMin= 1.44D-05
 ErrMax= 1.44D-05 EMaxC= 1.00D-01 BMatC= 1.25D-08 BMatP= 2.33D-07
 IDIUse=1 WtCom= 1.00D+00 WtEn= 0.00D+00
 Coeff-Com:  0.312D-03 0.913D-03 0.371D-02-0.710D-02-0.199D+00 0.120D+01
 Coeff:      0.312D-03 0.913D-03 0.371D-02-0.710D-02-0.199D+00 0.120D+01
[...]
 Coeff:      0.316D-03-0.126D+00 0.113D+01
 Gap=     0.555 Goal=   None    Shift=    0.000
 RMSDP=2.10D-07 MaxDP=7.54D-06 DE=-6.46D-09 OVMax= 9.08D-06

 Cycle   4  Pass 1  IDiag  1:
 RMSU=  5.23D-08    CP:  1.00D+00  1.10D+00  1.19D+00
 FoFJK:  IHMeth= 1 ICntrl=     0 DoSepK=T KAlg= 1 I1Cent= 0 FoldK=F
 E= -2753.47778076301     Delta-E=       -0.000000000186 Rises=F Damp=F
 DIIS: error= 2.29D-07 at cycle   4 NSaved=   4.
 NSaved= 4 IEnMin= 4 EnMin= -2753.47778076301     IErMin= 4 ErrMin= 2.29D-07
 ErrMax= 2.29D-07 EMaxC= 1.00D-01 BMatC= 8.12D-12 BMatP= 9.39D-11
 IDIUse=1 WtCom= 1.00D+00 WtEn= 0.00D+00
 Coeff-Com:  0.182D-03-0.452D-01 0.272D+00 0.773D+00
 Coeff:      0.182D-03-0.452D-01 0.272D+00 0.773D+00
 Gap=     0.555 Goal=   None    Shift=    0.000
 RMSDP=1.70D-08 MaxDP=7.24D-07 DE=-1.86D-10 OVMax= 8.29D-07

 Cycle   5  Pass 1  IDiag  1:
 RMSU=  7.85D-09    CP:  1.00D+00  1.10D+00  1.20D+00  1.12D+00
 FoFJK:  IHMeth= 1 ICntrl=     0 DoSepK=T KAlg= 1 I1Cent= 0 FoldK=F
 E= -2753.47778076302     Delta-E=       -0.000000000011 Rises=F Damp=F
 DIIS: error= 3.20D-08 at cycle   5 NSaved=   5.
 NSaved= 5 IEnMin= 5 EnMin= -2753.47778076302     IErMin= 5 ErrMin= 3.20D-08
 ErrMax= 3.20D-08 EMaxC= 1.00D-01 BMatC= 2.69D-13 BMatP= 8.12D-12
 IDIUse=1 WtCom= 1.00D+00 WtEn= 0.00D+00
 Coeff-Com: -0.100D-04 0.569D-02-0.542D-01 0.121D-01 0.104D+01
 Coeff:     -0.100D-04 0.569D-02-0.542D-01 0.121D-01 0.104D+01
 Gap=     0.555 Goal=   None    Shift=    0.000
 RMSDP=7.83D-09 MaxDP=4.51D-07 DE=-1.09D-11 OVMax= 3.81D-07

 SCF Done:  E(RLC-wPBE) =  -2753.47778076     A.U. after    5 cycles
             Convg  =    0.7832D-08             -V/T =  2.0014
 KE= 2.749554920276D+03 PE=-6.579092815289D+03 EE= 1.076060114250D+03
 Leave Link  502 at Fri May  8 02:28:03 2020, MaxMem= 1073741824 cpu:      88.5
 (Enter /home/matheus/.gaussian/g09/l122.exe)
 Restoring MOs from calculation   4 to rwf.
 Counterpoise: doing MCBS calculation for fragment   1
 Leave Link  122 at Fri May  8 02:28:03 2020, MaxMem= 1073741824 cpu:       0.0
 (Enter /home/matheus/.gaussian/g09/l301.exe)
 Basis read from rwf:  (5D, 7F)
 No pseudopotential information found on rwf file.
 There are   138 symmetry adapted basis functions of A   symmetry.
 Integral buffers will be    131072 words long.
 Raffenetti 2 integral format.
 Two-electron integral symmetry is turned on.
   138 basis functions,   198 primitive gaussians,   160 cartesian basis functions
     9 alpha electrons        9 beta electrons
       nuclear repulsion energy        36.6123390277 Hartrees.
 IExCor=32609 DFT=T Ex+Corr=LC-wPBE ExCW=0 ScaHFX=  1.000000
 ScaDFX=  1.000000  0.000000  1.000000  1.000000 ScalE2=  1.000000  1.000000
 IRadAn=      5 IRanWt=     -1 IRanGd=            0 ICorTp=0
  HFx wShort=  0.000000 wLong=  0.550000 cFull=  0.000000 cShort=  0.000000 cLong=  1.000000
  DFx wShort=  0.000000 wLong=  0.550000 cFull=  0.000000 cShort=  0.000000 cLong=  1.000000
 NAtoms=    5 NActive=    4 NUniq=    4 SFac= 1.00D+00 NAtFMM=   60 NAOKFM=F Big=F
 No density basis found on file   718.
 Leave Link  301 at Fri May  8 02:28:03 2020, MaxMem= 1073741824 cpu:       0.2
 (Enter /home/matheus/.gaussian/g09/l302.exe)
 NPDir=0 NMtPBC=     1 NCelOv=     1 NCel=       1 NClECP=     1 NCelD=      1
         NCelK=      1 NCelE2=     1 NClLst=     1 CellRange=     0.0.
 One-electron integrals computed using PRISM.
 NBasis=   138 RedAO= T  NBF=   138
 NBsUse=   138 1.00D-06 NBFU=   138
 Precomputing XC quadrature grid using
 IXCGrd= 2 IRadAn=           5 IRanWt=          -1 IRanGd=           0 AccXCQ= 0.00D+00.
 NRdTot=     344 NPtTot=       92556 NUsed=       95038 NTot=       95070
 NSgBfM=   160   160   160   160   160 NAtAll=     4     4.
 Leave Link  302 at Fri May  8 02:28:04 2020, MaxMem= 1073741824 cpu:       0.8
 (Enter /home/matheus/.gaussian/g09/l303.exe)
 DipDrv:  MaxL=1.
 Leave Link  303 at Fri May  8 02:28:04 2020, MaxMem= 1073741824 cpu:       0.1
 (Enter /home/matheus/.gaussian/g09/l401.exe)
 Initial guess read from the read-write file.
 Guess basis will be translated and rotated to current coordinates.
 Initial guess orbital symmetries:
       Occupied  (A) (A) (A) (A) (A) (A) (A) (A) (A)
       Virtual   (A) (A) (A) (A) (A) (A) (A) (A) (A) (A) (A) (A)
                 (A) (A) (A) (A) (A) (A) (A) (A) (A) (A) (A) (A)
                 (A) (A) (A) (A) (A) (A) (A) (A) (A) (A) (A) (A)
                 (A) (A) (A) (A) (A) (A) (A) (A) (A) (A) (A) (A)
                 (A) (A) (A) (A) (A) (A) (A) (A) (A) (A) (A) (A)
                 (A) (A) (A) (A) (A) (A) (A) (A) (A) (A) (A) (A)
                 (A) (A) (A) (A) (A) (A) (A) (A) (A) (A) (A) (A)
                 (A) (A) (A) (A) (A) (A) (A) (A) (A) (A) (A) (A)
                 (A) (A) (A) (A) (A) (A) (A) (A) (A) (A) (A) (A)
                 (A) (A) (A) (A) (A) (A) (A) (A) (A) (A) (A) (A)
                 (A) (A) (A) (A) (A) (A) (A) (A) (A)
 The electronic state of the initial guess is 1-A.
 Generating alternative initial guess.
 Harris functional with IExCor=32609 diagonalized for initial guess.
 ExpMin= 2.53D-02 ExpMax= 1.53D+04 ExpMxC= 5.22D+02 IAcc=3 IRadAn=         5 AccDes= 0.00D+00
 HarFok:  IExCor=32609 AccDes= 0.00D+00 IRadAn=         5 IDoV= 1
 ScaDFX=  1.000000  1.000000  1.000000  1.000000
 FoFCou: FMM=F IPFlag=           0 FMFlag=      100000 FMFlg1=           0
         NFxFlg=           0 DoJE=T BraDBF=F KetDBF=T FulRan=T
         Omega=  0.000000  0.000000  1.000000  0.000000  0.000000 ICntrl=     500 IOpCl=  0
         NMat0=    1 NMatS0=    1 NMatT0=    0 NMatD0=    1 NMtDS0=    0 NMtDT0=    0
         I1Cent=           4 NGrid=           0.
 Petite list used in FoFCou.
 Harris En= -151.501912728144    
 Leave Link  401 at Fri May  8 02:28:04 2020, MaxMem= 1073741824 cpu:       2.5
 (Enter /home/matheus/.gaussian/g09/l502.exe)
 Closed shell SCF:
 Requested convergence on RMS density matrix=1.00D-08 within 128 cycles.
 Requested convergence on MAX density matrix=1.00D-06.
 Requested convergence on             energy=1.00D-06.
 No special actions if energy rises.
 Using DIIS extrapolation, IDIIS=  1040.
 Integral symmetry usage will be decided dynamically.
        94980 words used for storage of precomputed grid.
 IEnd=      192360 IEndB=      192360 NGot=  1073741824 MDV=  1073591865
 LenX=  1073591865 LenY=  1073565824
 Fock matrices will be formed incrementally for  20 cycles.

 Cycle   1  Pass 1  IDiag  1:
 FoFJK:  IHMeth= 1 ICntrl=     0 DoSepK=T KAlg= 1 I1Cent= 0 FoldK=F
 FoFCou: FMM=F IPFlag=           0 FMFlag=      100000 FMFlg1=           0
         NFxFlg=           0 DoJE=T BraDBF=F KetDBF=F FulRan=T
         Omega=  0.000000  0.000000  1.000000  0.000000  0.000000 ICntrl=     500 IOpCl=  0
         NMat0=    1 NMatS0=    1 NMatT0=    0 NMatD0=    1 NMtDS0=    0 NMtDT0=    0
         I1Cent=           0 NGrid=           0.
 Symmetry not used in FoFCou.
 E= -151.533698393459    
 DIIS: error= 1.73D-05 at cycle   1 NSaved=   1.
 NSaved= 1 IEnMin= 1 EnMin= -151.533698393459     IErMin= 1 ErrMin= 1.73D-05
 ErrMax= 1.73D-05 EMaxC= 1.00D-01 BMatC= 4.62D-08 BMatP= 4.62D-08
 IDIUse=1 WtCom= 1.00D+00 WtEn= 0.00D+00
 Coeff-Com:  0.100D+01
 Coeff:      0.100D+01
 Gap=     0.476 Goal=   None    Shift=    0.000
 RMSDP=1.18D-06 MaxDP=2.32D-05              OVMax= 6.43D-05

 Cycle   2  Pass 1  IDiag  1:
 RMSU=  8.37D-07    CP:  1.00D+00
 FoFJK:  IHMeth= 1 ICntrl=     0 DoSepK=T KAlg= 1 I1Cent= 0 FoldK=F
 E= -151.533698432641     Delta-E=       -0.000000039182 Rises=F Damp=F
 DIIS: error= 3.39D-06 at cycle   2 NSaved=   2.
 NSaved= 2 IEnMin= 2 EnMin= -151.533698432641     IErMin= 2 ErrMin= 3.39D-06
 ErrMax= 3.39D-06 EMaxC= 1.00D-01 BMatC= 1.92D-09 BMatP= 4.62D-08
 IDIUse=1 WtCom= 1.00D+00 WtEn= 0.00D+00
 Coeff-Com: -0.133D+00 0.113D+01
 Coeff:     -0.133D+00 0.113D+01
 Gap=     0.476 Goal=   None    Shift=    0.000
 RMSDP=3.95D-07 MaxDP=8.52D-06 DE=-3.92D-08 OVMax= 2.90D-05

 Cycle   3  Pass 1  IDiag  1:
 RMSU=  1.56D-07    CP:  1.00D+00  1.28D+00
 FoFJK:  IHMeth= 1 ICntrl=     0 DoSepK=T KAlg= 1 I1Cent= 0 FoldK=F
 E= -151.533698436872     Delta-E=       -0.000000004231 Rises=F Damp=F
 DIIS: error= 1.14D-06 at cycle   3 NSaved=   3.
 NSaved= 3 IEnMin= 3 EnMin= -151.533698436872     IErMin= 3 ErrMin= 1.14D-06
 ErrMax= 1.14D-06 EMaxC= 1.00D-01 BMatC= 2.53D-10 BMatP= 1.92D-09
 IDIUse=1 WtCom= 1.00D+00 WtEn= 0.00D+00
 Coeff-Com: -0.270D-01 0.294D-01 0.998D+00
 Coeff:     -0.270D-01 0.294D-01 0.998D+00
 Gap=     0.476 Goal=   None    Shift=    0.000
 RMSDP=1.38D-07 MaxDP=3.49D-06 DE=-4.23D-09 OVMax= 1.00D-05

 Cycle   4  Pass 1  IDiag  1:
 RMSU=  6.51D-08    CP:  1.00D+00  1.34D+00  1.29D+00
 FoFJK:  IHMeth= 1 ICntrl=     0 DoSepK=T KAlg= 1 I1Cent= 0 FoldK=F
 E= -151.533698437303     Delta-E=       -0.000000000431 Rises=F Damp=F
 DIIS: error= 8.85D-07 at cycle   4 NSaved=   4.
 NSaved= 4 IEnMin= 4 EnMin= -151.533698437303     IErMin= 4 ErrMin= 8.85D-07
 ErrMax= 8.85D-07 EMaxC= 1.00D-01 BMatC= 1.70D-10 BMatP= 2.53D-10
 IDIUse=1 WtCom= 1.00D+00 WtEn= 0.00D+00
 Coeff-Com:  0.109D-01-0.204D+00 0.529D+00 0.665D+00
 Coeff:      0.109D-01-0.204D+00 0.529D+00 0.665D+00
 Gap=     0.476 Goal=   None    Shift=    0.000
 RMSDP=6.65D-08 MaxDP=1.49D-06 DE=-4.31D-10 OVMax= 4.35D-06

 Cycle   5  Pass 1  IDiag  1:
 RMSU=  2.04D-08    CP:  1.00D+00  1.37D+00  1.52D+00  8.11D-01
 FoFJK:  IHMeth= 1 ICntrl=     0 DoSepK=T KAlg= 1 I1Cent= 0 FoldK=F
 E= -151.533698437471     Delta-E=       -0.000000000168 Rises=F Damp=F
 DIIS: error= 2.27D-07 at cycle   5 NSaved=   5.
 NSaved= 5 IEnMin= 5 EnMin= -151.533698437471     IErMin= 5 ErrMin= 2.27D-07
 ErrMax= 2.27D-07 EMaxC= 1.00D-01 BMatC= 5.47D-12 BMatP= 1.70D-10
 IDIUse=1 WtCom= 1.00D+00 WtEn= 0.00D+00
 Coeff-Com:  0.319D-02-0.115D-01-0.106D+00 0.179D-01 0.110D+01
 Coeff:      0.319D-02-0.115D-01-0.106D+00 0.179D-01 0.110D+01
 Gap=     0.476 Goal=   None    Shift=    0.000
 RMSDP=2.75D-08 MaxDP=4.82D-07 DE=-1.68D-10 OVMax= 2.54D-06

 Cycle   6  Pass 1  IDiag  1:
 RMSU=  7.25D-09    CP:  1.00D+00  1.37D+00  1.59D+00  9.49D-01  1.44D+00
 FoFJK:  IHMeth= 1 ICntrl=     0 DoSepK=T KAlg= 1 I1Cent= 0 FoldK=F
 E= -151.533698437486     Delta-E=       -0.000000000015 Rises=F Damp=F
 DIIS: error= 7.14D-08 at cycle   6 NSaved=   6.
 NSaved= 6 IEnMin= 6 EnMin= -151.533698437486     IErMin= 6 ErrMin= 7.14D-08
 ErrMax= 7.14D-08 EMaxC= 1.00D-01 BMatC= 6.10D-13 BMatP= 5.47D-12
 IDIUse=1 WtCom= 1.00D+00 WtEn= 0.00D+00
 Coeff-Com: -0.836D-03 0.184D-01-0.515D-01-0.583D-01 0.539D-01 0.104D+01
 Coeff:     -0.836D-03 0.184D-01-0.515D-01-0.583D-01 0.539D-01 0.104D+01
 Gap=     0.476 Goal=   None    Shift=    0.000
 RMSDP=1.01D-08 MaxDP=1.66D-07 DE=-1.53D-11 OVMax= 1.05D-06

 Cycle   7  Pass 1  IDiag  1:
 RMSU=  3.11D-09    CP:  1.00D+00  1.37D+00  1.61D+00  9.77D-01  1.65D+00
                    CP:  1.48D+00
 FoFJK:  IHMeth= 1 ICntrl=     0 DoSepK=T KAlg= 1 I1Cent= 0 FoldK=F
 E= -151.533698437490     Delta-E=       -0.000000000003 Rises=F Damp=F
 DIIS: error= 3.51D-08 at cycle   7 NSaved=   7.
 NSaved= 7 IEnMin= 7 EnMin= -151.533698437490     IErMin= 7 ErrMin= 3.51D-08
 ErrMax= 3.51D-08 EMaxC= 1.00D-01 BMatC= 1.53D-13 BMatP= 6.10D-13
 IDIUse=1 WtCom= 1.00D+00 WtEn= 0.00D+00
 Coeff-Com: -0.656D-03 0.610D-02 0.366D-02-0.171D-01-0.163D+00 0.276D+00
 Coeff-Com:  0.895D+00
 Coeff:     -0.656D-03 0.610D-02 0.366D-02-0.171D-01-0.163D+00 0.276D+00
 Coeff:      0.895D+00
 Gap=     0.476 Goal=   None    Shift=    0.000
 RMSDP=4.75D-09 MaxDP=7.80D-08 DE=-3.47D-12 OVMax= 5.07D-07

 SCF Done:  E(RLC-wPBE) =  -151.533698437     A.U. after    7 cycles
             Convg  =    0.4753D-08             -V/T =  2.0071
 KE= 1.504658278057D+02 PE=-4.315434832130D+02 EE= 9.293161794214D+01
 Leave Link  502 at Fri May  8 02:28:10 2020, MaxMem= 1073741824 cpu:      52.1
 (Enter /home/matheus/.gaussian/g09/l122.exe)
 Restoring MOs from calculation   5 to rwf.
 Counterpoise: doing MCBS calculation for fragment   2
 Leave Link  122 at Fri May  8 02:28:10 2020, MaxMem= 1073741824 cpu:       0.0
 (Enter /home/matheus/.gaussian/g09/l301.exe)
 Basis read from rwf:  (5D, 7F)
 No pseudopotential information found on rwf file.
 There are    59 symmetry adapted basis functions of A   symmetry.
 Integral buffers will be    131072 words long.
 Raffenetti 2 integral format.
 Two-electron integral symmetry is turned on.
    59 basis functions,   217 primitive gaussians,    69 cartesian basis functions
    18 alpha electrons       18 beta electrons
       nuclear repulsion energy         0.0000000000 Hartrees.
 IExCor=32609 DFT=T Ex+Corr=LC-wPBE ExCW=0 ScaHFX=  1.000000
 ScaDFX=  1.000000  0.000000  1.000000  1.000000 ScalE2=  1.000000  1.000000
 IRadAn=      5 IRanWt=     -1 IRanGd=            0 ICorTp=0
  HFx wShort=  0.000000 wLong=  0.550000 cFull=  0.000000 cShort=  0.000000 cLong=  1.000000
  DFx wShort=  0.000000 wLong=  0.550000 cFull=  0.000000 cShort=  0.000000 cLong=  1.000000
 NAtoms=    5 NActive=    1 NUniq=    1 SFac= 1.00D+00 NAtFMM=   60 NAOKFM=F Big=F
 No density basis found on file   718.
 Leave Link  301 at Fri May  8 02:28:10 2020, MaxMem= 1073741824 cpu:       0.2
 (Enter /home/matheus/.gaussian/g09/l302.exe)
 NPDir=0 NMtPBC=     1 NCelOv=     1 NCel=       1 NClECP=     1 NCelD=      1
         NCelK=      1 NCelE2=     1 NClLst=     1 CellRange=     0.0.
 One-electron integrals computed using PRISM.
 NBasis=    59 RedAO= T  NBF=    59
 NBsUse=    59 1.00D-06 NBFU=    59
 Precomputing XC quadrature grid using
 IXCGrd= 2 IRadAn=           5 IRanWt=          -1 IRanGd=           0 AccXCQ= 0.00D+00.
 NRdTot=      81 NPtTot=       30352 NUsed=       30981 NTot=       31013
 NSgBfM=    69    69    69    69    69 NAtAll=     1     1.
 Leave Link  302 at Fri May  8 02:28:11 2020, MaxMem= 1073741824 cpu:       0.7
 (Enter /home/matheus/.gaussian/g09/l303.exe)
 DipDrv:  MaxL=1.
 Leave Link  303 at Fri May  8 02:28:11 2020, MaxMem= 1073741824 cpu:       0.1
 (Enter /home/matheus/.gaussian/g09/l401.exe)
 Initial guess read from the read-write file.
 Guess basis will be translated and rotated to current coordinates.
 Initial guess orbital symmetries:
       Occupied  (A) (A) (A) (A) (A) (A) (A) (A) (A) (A) (A) (A)
                 (A) (A) (A) (A) (A) (A)
       Virtual   (A) (A) (A) (A) (A) (A) (A) (A) (A) (A) (A) (A)
                 (A) (A) (A) (A) (A) (A) (A) (A) (A) (A) (A) (A)
                 (A) (A) (A) (A) (A) (A) (A) (A) (A) (A) (A) (A)
                 (A) (A) (A) (A) (A)
 The electronic state of the initial guess is 1-A.
 Generating alternative initial guess.
 Harris functional with IExCor=32609 diagonalized for initial guess.
 ExpMin= 4.00D-02 ExpMax= 1.17D+07 ExpMxC= 1.33D+04 IAcc=3 IRadAn=         5 AccDes= 0.00D+00
 HarFok:  IExCor=32609 AccDes= 0.00D+00 IRadAn=         5 IDoV= 1
 ScaDFX=  1.000000  1.000000  1.000000  1.000000
 FoFCou: FMM=F IPFlag=           0 FMFlag=      100000 FMFlg1=           0
         NFxFlg=           0 DoJE=T BraDBF=F KetDBF=T FulRan=T
         Omega=  0.000000  0.000000  1.000000  0.000000  0.000000 ICntrl=     500 IOpCl=  0
         NMat0=    1 NMatS0=    1 NMatT0=    0 NMatD0=    1 NMtDS0=    0 NMtDT0=    0
         I1Cent=           4 NGrid=           0.
 Petite list used in FoFCou.
 Harris En= -2753.24576836237    
 Leave Link  401 at Fri May  8 02:28:11 2020, MaxMem= 1073741824 cpu:       1.1
 (Enter /home/matheus/.gaussian/g09/l502.exe)
 Closed shell SCF:
 Requested convergence on RMS density matrix=1.00D-08 within 128 cycles.
 Requested convergence on MAX density matrix=1.00D-06.
 Requested convergence on             energy=1.00D-06.
 No special actions if energy rises.
 Using DIIS extrapolation, IDIIS=  1040.
 Integral symmetry usage will be decided dynamically.
        30923 words used for storage of precomputed grid.
 IEnd=       64406 IEndB=       64406 NGot=  1073741824 MDV=  1073698889
 LenX=  1073698889 LenY=  1073693687
 Fock matrices will be formed incrementally for  20 cycles.

 Cycle   1  Pass 1  IDiag  1:
 FoFJK:  IHMeth= 1 ICntrl=     0 DoSepK=T KAlg= 1 I1Cent= 0 FoldK=F
 FoFCou: FMM=F IPFlag=           0 FMFlag=      100000 FMFlg1=           0
         NFxFlg=           0 DoJE=T BraDBF=F KetDBF=F FulRan=T
         Omega=  0.000000  0.000000  1.000000  0.000000  0.000000 ICntrl=     500 IOpCl=  0
         NMat0=    1 NMatS0=    1 NMatT0=    0 NMatD0=    1 NMtDS0=    0 NMtDT0=    0
         I1Cent=           0 NGrid=           0.
 Symmetry not used in FoFCou.
 E= -2753.47775989058    
 DIIS: error= 5.59D-14 at cycle   1 NSaved=   1.
 NSaved= 1 IEnMin= 1 EnMin= -2753.47775989058     IErMin= 1 ErrMin= 5.59D-14
 ErrMax= 5.59D-14 EMaxC= 1.00D-01 BMatC= 1.39D-25 BMatP= 1.39D-25
 IDIUse=1 WtCom= 1.00D+00 WtEn= 0.00D+00
 Coeff-Com:  0.100D+01
 Coeff:      0.100D+01
 Gap=     0.626 Goal=   None    Shift=    0.000
 RMSDP=1.10D-14 MaxDP=2.75D-13              OVMax= 1.29D-13

 SCF Done:  E(RLC-wPBE) =  -2753.47775989     A.U. after    1 cycles
             Convg  =    0.1096D-13             -V/T =  2.0014
 KE= 2.749561508178D+03 PE=-6.579099712888D+03 EE= 1.076060444820D+03
 Leave Link  502 at Fri May  8 02:28:12 2020, MaxMem= 1073741824 cpu:      11.6
 (Enter /home/matheus/.gaussian/g09/l122.exe)
 Restoring MOs from calculation   1 to rwf.
 Counterpoise: corrected energy =   -2905.011482089908
 Counterpoise: BSSE energy =       0.000024458605
 Leave Link  122 at Fri May  8 02:28:12 2020, MaxMem= 1073741824 cpu:       0.0
 (Enter /home/matheus/.gaussian/g09/l108.exe)
 Scan completed.

 Summary of the potential surface scan:
   N      R1          SCF    
 ----  ---------  -----------
    1     3.0000  -2753.47776
    2     3.1000  -2753.47776
    3     3.2000  -2753.47776
    4     3.3000  -2753.47776
    5     3.4000  -2753.47776
    6     3.5000  -2753.47776
    7     3.6000  -2753.47776
    8     3.7000  -2753.47776
    9     3.8000  -2753.47776
   10     3.9000  -2753.47776
   11     4.0000  -2753.47776
   12     4.1000  -2753.47776
   13     4.2000  -2753.47776
   14     4.3000  -2753.47776
   15     4.4000  -2753.47776
   16     4.5000  -2753.47776
   17     4.6000  -2753.47776
   18     4.7000  -2753.47776
   19     4.8000  -2753.47776
   20     4.9000  -2753.47776
   21     5.0000  -2753.47776
 ----  ---------  -----------
  
 Leave Link  108 at Fri May  8 02:28:12 2020, MaxMem= 1073741824 cpu:       0.0
 (Enter /home/matheus/.gaussian/g09/l9999.exe)

 Test job not archived.
 1\1\GINC-REDGIANT\Scan\RLC-wPBE\Aug-CC-pVTZ\H2Kr1O2\MATHEUS\08-May-202
 0\1\\#p lc-wpbe/aug-cc-PVTz iop(3/107=0550000000) iop(3/108=0550000000
 ) int=ultrafine counterpoise=2 Scan\\TCC\\0,1\O,0,0.,0.,0.725\O,0,0.,0
 .,-0.725\H,0,-0.795635374,-0.4593602974,1.0235104166\H,0,0.,0.91872059
 47,-1.0235104166\Kr,0,0.,R1,0.\\R1=3.,s,20,0.1\\Version=EM64L-G09RevC.
 01\State=1-A\HF=-2753.4777599,-2753.4777599,-2753.4777599,-2753.477759
 9,-2753.4777599,-2753.4777599,-2753.4777599,-2753.4777599,-2753.477759
 9,-2753.4777599,-2753.4777599,-2753.4777599,-2753.4777599,-2753.477759
 9,-2753.4777599,-2753.4777599,-2753.4777599,-2753.4777599,-2753.477759
 9,-2753.4777599,-2753.4777599\RMSD=1.997e-09,5.419e-11,1.021e-11,4.444
 e-12,2.190e-12,1.225e-12,6.720e-13,3.760e-13,2.116e-13,1.137e-13,6.018
 e-14,3.582e-14,1.935e-14,1.266e-14,8.256e-15,4.362e-15,5.459e-15,5.230
 e-15,7.116e-15,6.679e-15,1.096e-14\PG=C01 [X(H2Kr1O2)]\\@


 THESE ARE THE TIMES THAT TRY MENS SOULS.
 THE SUMMER SOLDIER AND THE SUNSHINE PATRIOT WILL IN THIS CRISIS,
 SHRINK FROM THE SERVICE OF HIS COUNTRY.  BUT HE THAT STANDS NOW,
 DESERVES THE LOVE AND THANKS OF MAN AND WOMAN.
 TYRANNY, LIKE HELL, IS NOT EASILY CONQUERED,
 YET WE HAVE THIS CONSOLATION WITH US,
 THAT THE HARDER THE CONFLICT, THE MORE GLORIOUS THE TRIUMPH.
 WHAT WE OBTAIN TOO CHEAP, WE ESTEEM TOO LIGHTLY, 
 'TIS DEARNESS ONLY THAT GIVES EVERYTHING ITS VALUE.

                                              -- TOM PAINE
 Job cpu time:  0 days  3 hours  9 minutes 50.0 seconds.
 File lengths (MBytes):  RWF=     33 Int=      0 D2E=      0 Chk=      8 Scr=      1
 Normal termination of Gaussian 09 at Fri May  8 02:28:12 2020.
