 Entering Gaussian System, Link 0=g09
 Input=/home/matheus/.tcc/Inputs-lc-wpbe/H2O2-Kr_5.com
 Output=/home/matheus/.tcc/Logs-lc-wpbe/H2O2-Kr_5.log
 Initial command:
 /home/matheus/.gaussian/g09/l1.exe /home/matheus/.gaussian/g09/scratch/Gau-22529.inp -scrdir=/home/matheus/.gaussian/g09/scratch/
 Entering Link 1 = /home/matheus/.gaussian/g09/l1.exe PID=     22532.
  
 Copyright (c) 1988,1990,1992,1993,1995,1998,2003,2009,2011,
            Gaussian, Inc.  All Rights Reserved.
  
 This is part of the Gaussian(R) 09 program.  It is based on
 the Gaussian(R) 03 system (copyright 2003, Gaussian, Inc.),
 the Gaussian(R) 98 system (copyright 1998, Gaussian, Inc.),
 the Gaussian(R) 94 system (copyright 1995, Gaussian, Inc.),
 the Gaussian 92(TM) system (copyright 1992, Gaussian, Inc.),
 the Gaussian 90(TM) system (copyright 1990, Gaussian, Inc.),
 the Gaussian 88(TM) system (copyright 1988, Gaussian, Inc.),
 the Gaussian 86(TM) system (copyright 1986, Carnegie Mellon
 University), and the Gaussian 82(TM) system (copyright 1983,
 Carnegie Mellon University). Gaussian is a federally registered
 trademark of Gaussian, Inc.
  
 This software contains proprietary and confidential information,
 including trade secrets, belonging to Gaussian, Inc.
  
 This software is provided under written license and may be
 used, copied, transmitted, or stored only in accord with that
 written license.
  
 The following legend is applicable only to US Government
 contracts under FAR:
  
                    RESTRICTED RIGHTS LEGEND
  
 Use, reproduction and disclosure by the US Government is
 subject to restrictions as set forth in subparagraphs (a)
 and (c) of the Commercial Computer Software - Restricted
 Rights clause in FAR 52.227-19.
  
 Gaussian, Inc.
 340 Quinnipiac St., Bldg. 40, Wallingford CT 06492
  
  
 ---------------------------------------------------------------
 Warning -- This program may not be used in any manner that
 competes with the business of Gaussian, Inc. or will provide
 assistance to any competitor of Gaussian, Inc.  The licensee
 of this program is prohibited from giving any competitor of
 Gaussian, Inc. access to this program.  By using this program,
 the user acknowledges that Gaussian, Inc. is engaged in the
 business of creating and licensing software in the field of
 computational chemistry and represents and warrants to the
 licensee that it is not a competitor of Gaussian, Inc. and that
 it will not use this program in any manner prohibited above.
 ---------------------------------------------------------------
  

 Cite this work as:
 Gaussian 09, Revision C.01,
 M. J. Frisch, G. W. Trucks, H. B. Schlegel, G. E. Scuseria, 
 M. A. Robb, J. R. Cheeseman, G. Scalmani, V. Barone, B. Mennucci, 
 G. A. Petersson, H. Nakatsuji, M. Caricato, X. Li, H. P. Hratchian, 
 A. F. Izmaylov, J. Bloino, G. Zheng, J. L. Sonnenberg, M. Hada, 
 M. Ehara, K. Toyota, R. Fukuda, J. Hasegawa, M. Ishida, T. Nakajima, 
 Y. Honda, O. Kitao, H. Nakai, T. Vreven, J. A. Montgomery, Jr., 
 J. E. Peralta, F. Ogliaro, M. Bearpark, J. J. Heyd, E. Brothers, 
 K. N. Kudin, V. N. Staroverov, T. Keith, R. Kobayashi, J. Normand, 
 K. Raghavachari, A. Rendell, J. C. Burant, S. S. Iyengar, J. Tomasi, 
 M. Cossi, N. Rega, J. M. Millam, M. Klene, J. E. Knox, J. B. Cross, 
 V. Bakken, C. Adamo, J. Jaramillo, R. Gomperts, R. E. Stratmann, 
 O. Yazyev, A. J. Austin, R. Cammi, C. Pomelli, J. W. Ochterski, 
 R. L. Martin, K. Morokuma, V. G. Zakrzewski, G. A. Voth, 
 P. Salvador, J. J. Dannenberg, S. Dapprich, A. D. Daniels, 
 O. Farkas, J. B. Foresman, J. V. Ortiz, J. Cioslowski, 
 and D. J. Fox, Gaussian, Inc., Wallingford CT, 2010.
 
 ******************************************
 Gaussian 09:  EM64L-G09RevC.01 23-Sep-2011
                 8-May-2020 
 ******************************************
 %mem=8GB
 %nproc=8
 Will use up to    8 processors via shared memory.
 ----------------------------------------------------------------------
 #p lc-wpbe/aug-cc-PVTz iop(3/107=0550000000) iop(3/108=0550000000) int
 =ultrafine counterpoise=2 Scan
 ----------------------------------------------------------------------
 1/38=1,60=1,62=2/1,8;
 2/12=2,17=6,18=5,29=3,40=1/2;
 1/38=1,53=5172,62=2/22;
 3/5=16,6=1,7=10,11=2,16=1,25=1,30=1,74=-41,75=-5,107=550000000,108=550000000/1,2,3;
 4//1;
 5/5=2,38=5/2;
 6/7=2,8=2,9=2,10=2,18=1,28=1/1;
 1/53=4052,62=2,63=1/22;
 3/5=7,6=11,7=10,11=2,16=1,25=1,30=1,74=-41,75=-5,82=7,107=550000000,108=550000000/1,2,3;
 4//1;
 5/5=2,38=5/2;
 6/7=2,8=2,9=2,10=2,18=1,28=1/1;
 1/53=3042,62=2,63=2/22;
 3/5=7,6=11,7=10,11=2,16=1,25=1,30=1,74=-41,75=-5,82=7,107=550000000,108=550000000/1,2,3;
 4//1;
 5/5=2,38=5/2;
 6/7=2,8=2,9=2,10=2,18=1,28=1/1;
 1/53=2032,62=2,63=3/22;
 3/5=7,6=11,7=10,11=2,16=1,25=1,30=1,74=-41,75=-5,82=7,107=550000000,108=550000000/1,2,3;
 4//1;
 5/5=2,38=5/2;
 6/7=2,8=2,9=2,10=2,18=1,28=1/1;
 1/53=1022,62=2,63=4/22;
 3/5=7,6=11,7=10,11=2,16=1,25=1,30=1,74=-41,75=-5,82=7,107=550000000,108=550000000/1,2,3;
 4//1;
 5/5=2,38=5/2;
 6/7=2,8=2,9=2,10=2,18=1,28=1/1;
 1/53=5014,62=2,63=5/22;
 1/60=1,62=2/8(1);
 99/9=1/99;
 2/29=3/2;
 1/53=5173,62=2/22;
 3/5=7,6=11,7=10,11=2,16=1,25=1,30=1,74=-41,75=-5,82=7,107=550000000,108=550000000/1,2,3;
 4/5=5,16=3/1;
 5/5=2,38=5/2;
 1/53=4053,62=2,63=1/22;
 3/5=7,6=11,7=10,11=2,16=1,25=1,30=1,74=-41,75=-5,82=7,107=550000000,108=550000000/1,2,3;
 4/5=5,16=3/1;
 5/5=2,38=5/2;
 1/53=3043,62=2,63=2/22;
 3/5=7,6=11,7=10,11=2,16=1,25=1,30=1,74=-41,75=-5,82=7,107=550000000,108=550000000/1,2,3;
 4/5=5,16=3/1;
 5/5=2,38=5/2;
 1/53=2033,62=2,63=3/22;
 3/5=7,6=11,7=10,11=2,16=1,25=1,30=1,74=-41,75=-5,82=7,107=550000000,108=550000000/1,2,3;
 4/5=5,16=3/1;
 5/5=2,38=5/2;
 1/53=1024,62=2,63=4/22;
 3/5=7,6=11,7=10,11=2,16=1,25=1,30=1,74=-41,75=-5,82=7,107=550000000,108=550000000/1,2,3;
 4/5=5,16=3/1;
 5/5=2,38=5/2;
 1/53=5014,62=2,63=5/22;
 1/60=1,62=2/8(-22);
 99/9=1/99;
 Leave Link    1 at Fri May  8 10:02:43 2020, MaxMem= 1073741824 cpu:       0.1
 (Enter /home/matheus/.gaussian/g09/l101.exe)
 ---
 TCC
 ---
 Charge =  0 Multiplicity = 1 in supermolecule
 Charge =  0 Multiplicity = 1 in fragment  1.
 Charge =  0 Multiplicity = 1 in fragment  2.
 Symbolic Z-Matrix:
 O(Fragment=1)         0.        0.        0.725 
 O(Fragment=1)         0.        0.       -0.725 
 H(Fragment=1)         0.70378   0.59054   1.02351 
 H(Fragment=1)         0.        0.91872  -1.02351 
 Kr(Fragment=2)        0.       R1        0. 
       Variables:
  R1                    3.     Scan 20    0.1    
 
 NAtoms=      5 NQM=        0 NQMF=       0 NMMI=      5 NMMIF=      0
                NMic=       0 NMicF=      0.
                    Isotopes and Nuclear Properties:
 (Nuclear quadrupole moments (NQMom) in fm**2, nuclear magnetic moments (NMagM)
  in nuclear magnetons)

  Atom         1           2           3           4           5
 IAtWgt=          16          16           1           1          84
 AtmWgt=  15.9949146  15.9949146   1.0078250   1.0078250  83.9115064
 NucSpn=           0           0           1           1           0
 AtZEff=   0.0000000   0.0000000   0.0000000   0.0000000   0.0000000
 NQMom=    0.0000000   0.0000000   0.0000000   0.0000000   0.0000000
 NMagM=    0.0000000   0.0000000   2.7928460   2.7928460   0.0000000
 Leave Link  101 at Fri May  8 10:02:43 2020, MaxMem= 1073741824 cpu:       0.3
 (Enter /home/matheus/.gaussian/g09/l108.exe)
 Scan the potential surface.
 Variable   Value     No. Steps Step-Size
 -------- ----------- --------- ---------
     1       3.000000      20      0.1000
 A total of     21 points will be computed.
 Leave Link  108 at Fri May  8 10:02:43 2020, MaxMem= 1073741824 cpu:       0.0
 (Enter /home/matheus/.gaussian/g09/l202.exe)
 ---------------------------------------------------------------------------------------------------
                            Z-MATRIX (ANGSTROMS AND DEGREES)
   CD    Cent   Atom    N1       Length/X        N2       Alpha/Y        N3        Beta/Z          J
 ---------------------------------------------------------------------------------------------------
      1      1  O        0   0.000000          0.000000          0.725000
      2      2  O        0   0.000000          0.000000         -0.725000
      3      3  H        0   0.703781          0.590542          1.023510
      4      4  H        0   0.000000          0.918721         -1.023510
      5      5  Kr       0   0.000000          3.000000          0.000000
 ---------------------------------------------------------------------------------------------------
                         Z-Matrix orientation:                         
 ---------------------------------------------------------------------
 Center     Atomic      Atomic             Coordinates (Angstroms)
 Number     Number       Type             X           Y           Z
 ---------------------------------------------------------------------
      1          8           0        0.000000    0.000000    0.725000
      2          8           0        0.000000    0.000000   -0.725000
      3          1           0        0.703781    0.590542    1.023510
      4          1           0        0.000000    0.918721   -1.023510
      5         36           0        0.000000    3.000000    0.000000
 ---------------------------------------------------------------------
                    Distance matrix (angstroms):
                    1          2          3          4          5
     1  O    0.000000
     2  O    1.450000   0.000000
     3  H    0.966000   1.975180   0.000000
     4  H    1.975180   0.966000   2.189361   0.000000
     5  Kr   3.086361   3.086361   2.710787   2.319331   0.000000
 Stoichiometry    H2KrO2
 Framework group  C1[X(H2KrO2)]
 Deg. of freedom     9
 Full point group                 C1      NOp   1
 Largest Abelian subgroup         C1      NOp   1
 Largest concise Abelian subgroup C1      NOp   1
                         Standard orientation:                         
 ---------------------------------------------------------------------
 Center     Atomic      Atomic             Coordinates (Angstroms)
 Number     Number       Type             X           Y           Z
 ---------------------------------------------------------------------
      1          8           0        2.030392   -0.713331   -0.083900
      2          8           0        2.025023    0.733004    0.018989
      3          1           0        1.447943   -1.063593    0.602558
      4          1           0        1.105248    1.026723    0.048985
      5         36           0       -0.972125   -0.003348   -0.003674
 ---------------------------------------------------------------------
 Rotational constants (GHZ):     26.0306695      2.3732907      2.1836508
 Leave Link  202 at Fri May  8 10:02:43 2020, MaxMem= 1073741824 cpu:       0.0
 (Enter /home/matheus/.gaussian/g09/l122.exe)
 Leave Link  122 at Fri May  8 10:02:43 2020, MaxMem= 1073741824 cpu:       0.0
 (Enter /home/matheus/.gaussian/g09/l301.exe)
 Standard basis: Aug-CC-pVTZ (5D, 7F)
 Ernie: Thresh=  0.10000D-02 Tol=  0.10000D-05 Strict=F.
 Ernie:  38 primitive shells out of 205 were deleted.
 There are   197 symmetry adapted basis functions of A   symmetry.
 Integral buffers will be    131072 words long.
 Raffenetti 2 integral format.
 Two-electron integral symmetry is turned on.
   197 basis functions,   415 primitive gaussians,   229 cartesian basis functions
    27 alpha electrons       27 beta electrons
       nuclear repulsion energy       150.6503454741 Hartrees.
 IExCor=32609 DFT=T Ex+Corr=LC-wPBE ExCW=0 ScaHFX=  1.000000
 ScaDFX=  1.000000  0.000000  1.000000  1.000000 ScalE2=  1.000000  1.000000
 IRadAn=      5 IRanWt=     -1 IRanGd=            0 ICorTp=0
  HFx wShort=  0.000000 wLong=  0.550000 cFull=  0.000000 cShort=  0.000000 cLong=  1.000000
  DFx wShort=  0.000000 wLong=  0.550000 cFull=  0.000000 cShort=  0.000000 cLong=  1.000000
 NAtoms=    5 NActive=    5 NUniq=    5 SFac= 1.00D+00 NAtFMM=   60 NAOKFM=F Big=F
 Leave Link  301 at Fri May  8 10:02:43 2020, MaxMem= 1073741824 cpu:       0.2
 (Enter /home/matheus/.gaussian/g09/l302.exe)
 NPDir=0 NMtPBC=     1 NCelOv=     1 NCel=       1 NClECP=     1 NCelD=      1
         NCelK=      1 NCelE2=     1 NClLst=     1 CellRange=     0.0.
 One-electron integrals computed using PRISM.
 NBasis=   197 RedAO= T  NBF=   197
 NBsUse=   197 1.00D-06 NBFU=   197
 Precomputing XC quadrature grid using
 IXCGrd= 2 IRadAn=           5 IRanWt=          -1 IRanGd=           0 AccXCQ= 0.00D+00.
 NRdTot=     427 NPtTot=      123512 NUsed=      126579 NTot=      126611
 NSgBfM=   229   229   229   229   229 NAtAll=     5     5.
 Leave Link  302 at Fri May  8 10:02:43 2020, MaxMem= 1073741824 cpu:       1.0
 (Enter /home/matheus/.gaussian/g09/l303.exe)
 DipDrv:  MaxL=1.
 Leave Link  303 at Fri May  8 10:02:43 2020, MaxMem= 1073741824 cpu:       0.2
 (Enter /home/matheus/.gaussian/g09/l401.exe)
 Harris functional with IExCor=32609 diagonalized for initial guess.
 ExpMin= 2.53D-02 ExpMax= 1.17D+07 ExpMxC= 1.33D+04 IAcc=3 IRadAn=         5 AccDes= 0.00D+00
 HarFok:  IExCor=32609 AccDes= 0.00D+00 IRadAn=         5 IDoV= 1
 ScaDFX=  1.000000  1.000000  1.000000  1.000000
 FoFCou: FMM=F IPFlag=           0 FMFlag=      100000 FMFlg1=           0
         NFxFlg=           0 DoJE=T BraDBF=F KetDBF=T FulRan=T
         Omega=  0.000000  0.000000  1.000000  0.000000  0.000000 ICntrl=     500 IOpCl=  0
         NMat0=    1 NMatS0=    1 NMatT0=    0 NMatD0=    1 NMtDS0=    0 NMtDT0=    0
         I1Cent=           4 NGrid=           0.
 Petite list used in FoFCou.
 Harris En= -2904.73549159692    
 Initial guess orbital symmetries:
       Occupied  (A) (A) (A) (A) (A) (A) (A) (A) (A) (A) (A) (A)
                 (A) (A) (A) (A) (A) (A) (A) (A) (A) (A) (A) (A)
                 (A) (A) (A)
       Virtual   (A) (A) (A) (A) (A) (A) (A) (A) (A) (A) (A) (A)
                 (A) (A) (A) (A) (A) (A) (A) (A) (A) (A) (A) (A)
                 (A) (A) (A) (A) (A) (A) (A) (A) (A) (A) (A) (A)
                 (A) (A) (A) (A) (A) (A) (A) (A) (A) (A) (A) (A)
                 (A) (A) (A) (A) (A) (A) (A) (A) (A) (A) (A) (A)
                 (A) (A) (A) (A) (A) (A) (A) (A) (A) (A) (A) (A)
                 (A) (A) (A) (A) (A) (A) (A) (A) (A) (A) (A) (A)
                 (A) (A) (A) (A) (A) (A) (A) (A) (A) (A) (A) (A)
                 (A) (A) (A) (A) (A) (A) (A) (A) (A) (A) (A) (A)
                 (A) (A) (A) (A) (A) (A) (A) (A) (A) (A) (A) (A)
                 (A) (A) (A) (A) (A) (A) (A) (A) (A) (A) (A) (A)
                 (A) (A) (A) (A) (A) (A) (A) (A) (A) (A) (A) (A)
                 (A) (A) (A) (A) (A) (A) (A) (A) (A) (A) (A) (A)
                 (A) (A) (A) (A) (A) (A) (A) (A) (A) (A) (A) (A)
                 (A) (A)
 The electronic state of the initial guess is 1-A.
 Leave Link  401 at Fri May  8 10:02:44 2020, MaxMem= 1073741824 cpu:       3.9
 (Enter /home/matheus/.gaussian/g09/l502.exe)
 Closed shell SCF:
 Requested convergence on RMS density matrix=1.00D-08 within 128 cycles.
 Requested convergence on MAX density matrix=1.00D-06.
 Requested convergence on             energy=1.00D-06.
 No special actions if energy rises.
 Using DIIS extrapolation, IDIIS=  1040.
 Integral symmetry usage will be decided dynamically.
       126521 words used for storage of precomputed grid.
 IEnd=      305468 IEndB=      305468 NGot=  1073741824 MDV=  1073505667
 LenX=  1073505667 LenY=  1073452785
 Fock matrices will be formed incrementally for  20 cycles.

 Cycle   1  Pass 1  IDiag  1:
 FoFJK:  IHMeth= 1 ICntrl=     0 DoSepK=T KAlg= 1 I1Cent= 0 FoldK=F
 FoFCou: FMM=F IPFlag=           0 FMFlag=      100000 FMFlg1=           0
         NFxFlg=           0 DoJE=T BraDBF=F KetDBF=F FulRan=T
         Omega=  0.000000  0.000000  1.000000  0.000000  0.000000 ICntrl=     500 IOpCl=  0
         NMat0=    1 NMatS0=    1 NMatT0=    0 NMatD0=    1 NMtDS0=    0 NMtDT0=    0
         I1Cent=           0 NGrid=           0.
 Symmetry not used in FoFCou.
 E= -2904.92687079003    
 DIIS: error= 2.79D-02 at cycle   1 NSaved=   1.
 NSaved= 1 IEnMin= 1 EnMin= -2904.92687079003     IErMin= 1 ErrMin= 2.79D-02
 ErrMax= 2.79D-02 EMaxC= 1.00D-01 BMatC= 2.71D-01 BMatP= 2.71D-01
 IDIUse=3 WtCom= 7.21D-01 WtEn= 2.79D-01
 Coeff-Com:  0.100D+01
 Coeff-En:   0.100D+01
 Coeff:      0.100D+01
 Gap=     0.553 Goal=   None    Shift=    0.000
 GapD=    0.553 DampG=2.000 DampE=0.500 DampFc=1.0000 IDamp=-1.
 RMSDP=2.25D-03 MaxDP=1.46D-01              OVMax= 6.32D-02

 Cycle   2  Pass 1  IDiag  1:
 RMSU=  1.56D-03    CP:  1.02D+00
 FoFJK:  IHMeth= 1 ICntrl=     0 DoSepK=T KAlg= 1 I1Cent= 0 FoldK=F
 E= -2904.97778649135     Delta-E=       -0.050915701319 Rises=F Damp=F
 DIIS: error= 1.06D-02 at cycle   2 NSaved=   2.
 NSaved= 2 IEnMin= 2 EnMin= -2904.97778649135     IErMin= 2 ErrMin= 1.06D-02
 ErrMax= 1.06D-02 EMaxC= 1.00D-01 BMatC= 7.02D-02 BMatP= 2.71D-01
 IDIUse=3 WtCom= 8.94D-01 WtEn= 1.06D-01
 Coeff-Com:  0.330D+00 0.670D+00
 Coeff-En:   0.105D+00 0.895D+00
 Coeff:      0.306D+00 0.694D+00
 Gap=     0.480 Goal=   None    Shift=    0.000
 RMSDP=9.06D-04 MaxDP=5.08D-02 DE=-5.09D-02 OVMax= 2.82D-02

 Cycle   3  Pass 1  IDiag  1:
 RMSU=  3.11D-04    CP:  1.01D+00  6.52D-01
 FoFJK:  IHMeth= 1 ICntrl=     0 DoSepK=T KAlg= 1 I1Cent= 0 FoldK=F
 E= -2905.00211484232     Delta-E=       -0.024328350964 Rises=F Damp=F
 DIIS: error= 1.62D-03 at cycle   3 NSaved=   3.
 NSaved= 3 IEnMin= 3 EnMin= -2905.00211484232     IErMin= 3 ErrMin= 1.62D-03
 ErrMax= 1.62D-03 EMaxC= 1.00D-01 BMatC= 1.41D-03 BMatP= 7.02D-02
 IDIUse=3 WtCom= 9.84D-01 WtEn= 1.62D-02
 Coeff-Com:  0.431D-01 0.171D+00 0.786D+00
 Coeff-En:   0.000D+00 0.000D+00 0.100D+01
 Coeff:      0.424D-01 0.168D+00 0.790D+00
 Gap=     0.462 Goal=   None    Shift=    0.000
 RMSDP=1.02D-04 MaxDP=2.67D-03 DE=-2.43D-02 OVMax= 6.12D-03

 Cycle   4  Pass 1  IDiag  1:
 RMSU=  5.13D-05    CP:  1.01D+00  6.81D-01  9.29D-01
 FoFJK:  IHMeth= 1 ICntrl=     0 DoSepK=T KAlg= 1 I1Cent= 0 FoldK=F
 E= -2905.00283567183     Delta-E=       -0.000720829508 Rises=F Damp=F
 DIIS: error= 4.05D-04 at cycle   4 NSaved=   4.
 NSaved= 4 IEnMin= 4 EnMin= -2905.00283567183     IErMin= 4 ErrMin= 4.05D-04
 ErrMax= 4.05D-04 EMaxC= 1.00D-01 BMatC= 9.04D-05 BMatP= 1.41D-03
 IDIUse=3 WtCom= 9.96D-01 WtEn= 4.05D-03
 Coeff-Com: -0.624D-02 0.171D-01 0.264D+00 0.725D+00
 Coeff-En:   0.000D+00 0.000D+00 0.000D+00 0.100D+01
 Coeff:     -0.621D-02 0.170D-01 0.263D+00 0.726D+00
 Gap=     0.467 Goal=   None    Shift=    0.000
 RMSDP=3.25D-05 MaxDP=1.71D-03 DE=-7.21D-04 OVMax= 1.77D-03

 Cycle   5  Pass 1  IDiag  1:
 RMSU=  1.25D-05    CP:  1.01D+00  6.84D-01  9.84D-01  8.54D-01
 FoFJK:  IHMeth= 1 ICntrl=     0 DoSepK=T KAlg= 1 I1Cent= 0 FoldK=F
 E= -2905.00289055336     Delta-E=       -0.000054881534 Rises=F Damp=F
 DIIS: error= 7.36D-05 at cycle   5 NSaved=   5.
 NSaved= 5 IEnMin= 5 EnMin= -2905.00289055336     IErMin= 5 ErrMin= 7.36D-05
 ErrMax= 7.36D-05 EMaxC= 1.00D-01 BMatC= 2.12D-06 BMatP= 9.04D-05
 IDIUse=1 WtCom= 1.00D+00 WtEn= 0.00D+00
 Coeff-Com: -0.222D-02-0.518D-02-0.609D-02 0.910D-01 0.922D+00
 Coeff:     -0.222D-02-0.518D-02-0.609D-02 0.910D-01 0.922D+00
 Gap=     0.467 Goal=   None    Shift=    0.000
 RMSDP=6.74D-06 MaxDP=2.10D-04 DE=-5.49D-05 OVMax= 5.40D-04

 Cycle   6  Pass 1  IDiag  1:
 RMSU=  3.31D-06    CP:  1.01D+00  6.84D-01  9.88D-01  9.09D-01  1.12D+00
 FoFJK:  IHMeth= 1 ICntrl=     0 DoSepK=T KAlg= 1 I1Cent= 0 FoldK=F
 E= -2905.00289255397     Delta-E=       -0.000002000606 Rises=F Damp=F
 DIIS: error= 3.66D-05 at cycle   6 NSaved=   6.
 NSaved= 6 IEnMin= 6 EnMin= -2905.00289255397     IErMin= 6 ErrMin= 3.66D-05
 ErrMax= 3.66D-05 EMaxC= 1.00D-01 BMatC= 5.93D-07 BMatP= 2.12D-06
 IDIUse=1 WtCom= 1.00D+00 WtEn= 0.00D+00
 Coeff-Com: -0.352D-03-0.382D-02-0.273D-01-0.273D-01 0.365D+00 0.694D+00
 Coeff:     -0.352D-03-0.382D-02-0.273D-01-0.273D-01 0.365D+00 0.694D+00
 Gap=     0.467 Goal=   None    Shift=    0.000
 RMSDP=2.94D-06 MaxDP=1.28D-04 DE=-2.00D-06 OVMax= 2.00D-04

 Cycle   7  Pass 1  IDiag  1:
 RMSU=  1.43D-06    CP:  1.01D+00  6.84D-01  9.89D-01  9.23D-01  1.21D+00
                    CP:  8.79D-01
 FoFJK:  IHMeth= 1 ICntrl=     0 DoSepK=T KAlg= 1 I1Cent= 0 FoldK=F
 E= -2905.00289300848     Delta-E=       -0.000000454515 Rises=F Damp=F
 DIIS: error= 1.30D-05 at cycle   7 NSaved=   7.
 NSaved= 7 IEnMin= 7 EnMin= -2905.00289300848     IErMin= 7 ErrMin= 1.30D-05
 ErrMax= 1.30D-05 EMaxC= 1.00D-01 BMatC= 7.66D-08 BMatP= 5.93D-07
 IDIUse=1 WtCom= 1.00D+00 WtEn= 0.00D+00
 Coeff-Com:  0.122D-03-0.752D-03-0.877D-02-0.204D-01 0.798D-03 0.270D+00
 Coeff-Com:  0.759D+00
 Coeff:      0.122D-03-0.752D-03-0.877D-02-0.204D-01 0.798D-03 0.270D+00
 Coeff:      0.759D+00
 Gap=     0.467 Goal=   None    Shift=    0.000
 RMSDP=1.19D-06 MaxDP=5.98D-05 DE=-4.55D-07 OVMax= 8.91D-05

 Cycle   8  Pass 1  IDiag  1:
 RMSU=  4.97D-07    CP:  1.01D+00  6.84D-01  9.90D-01  9.27D-01  1.24D+00
                    CP:  1.00D+00  9.63D-01
 FoFJK:  IHMeth= 1 ICntrl=     0 DoSepK=T KAlg= 1 I1Cent= 0 FoldK=F
 E= -2905.00289307809     Delta-E=       -0.000000069607 Rises=F Damp=F
 DIIS: error= 3.85D-06 at cycle   8 NSaved=   8.
 NSaved= 8 IEnMin= 8 EnMin= -2905.00289307809     IErMin= 8 ErrMin= 3.85D-06
 ErrMax= 3.85D-06 EMaxC= 1.00D-01 BMatC= 2.43D-09 BMatP= 7.66D-08
 IDIUse=1 WtCom= 1.00D+00 WtEn= 0.00D+00
 Coeff-Com:  0.103D-04 0.478D-03 0.402D-02 0.615D-02-0.308D-01-0.115D+00
 Coeff-Com: -0.160D+00 0.129D+01
 Coeff:      0.103D-04 0.478D-03 0.402D-02 0.615D-02-0.308D-01-0.115D+00
 Coeff:     -0.160D+00 0.129D+01
 Gap=     0.467 Goal=   None    Shift=    0.000
 RMSDP=6.04D-07 MaxDP=1.95D-05 DE=-6.96D-08 OVMax= 5.70D-05

 Cycle   9  Pass 1  IDiag  1:
 RMSU=  1.20D-07    CP:  1.01D+00  6.84D-01  9.91D-01  9.29D-01  1.25D+00
                    CP:  1.02D+00  1.07D+00  1.59D+00
 FoFJK:  IHMeth= 1 ICntrl=     0 DoSepK=T KAlg= 1 I1Cent= 0 FoldK=F
 E= -2905.00289308700     Delta-E=       -0.000000008912 Rises=F Damp=F
 DIIS: error= 1.23D-06 at cycle   9 NSaved=   9.
 NSaved= 9 IEnMin= 9 EnMin= -2905.00289308700     IErMin= 9 ErrMin= 1.23D-06
 ErrMax= 1.23D-06 EMaxC= 1.00D-01 BMatC= 1.33D-10 BMatP= 2.43D-09
 IDIUse=1 WtCom= 1.00D+00 WtEn= 0.00D+00
 Coeff-Com: -0.876D-05-0.326D-04-0.148D-03 0.454D-04 0.477D-02 0.441D-02
 Coeff-Com: -0.152D-01-0.201D+00 0.121D+01
 Coeff:     -0.876D-05-0.326D-04-0.148D-03 0.454D-04 0.477D-02 0.441D-02
 Coeff:     -0.152D-01-0.201D+00 0.121D+01
 Gap=     0.467 Goal=   None    Shift=    0.000
 RMSDP=1.67D-07 MaxDP=6.78D-06 DE=-8.91D-09 OVMax= 1.72D-05

 Cycle  10  Pass 1  IDiag  1:
 RMSU=  3.57D-08    CP:  1.01D+00  6.84D-01  9.91D-01  9.29D-01  1.25D+00
                    CP:  1.01D+00  1.08D+00  1.74D+00  1.40D+00
 FoFJK:  IHMeth= 1 ICntrl=     0 DoSepK=T KAlg= 1 I1Cent= 0 FoldK=F
 E= -2905.00289308753     Delta-E=       -0.000000000531 Rises=F Damp=F
 DIIS: error= 3.73D-07 at cycle  10 NSaved=  10.
 NSaved=10 IEnMin=10 EnMin= -2905.00289308753     IErMin=10 ErrMin= 3.73D-07
 ErrMax= 3.73D-07 EMaxC= 1.00D-01 BMatC= 1.53D-11 BMatP= 1.33D-10
 IDIUse=1 WtCom= 1.00D+00 WtEn= 0.00D+00
 Coeff-Com: -0.859D-06-0.411D-04-0.341D-03-0.616D-03 0.266D-02 0.112D-01
 Coeff-Com:  0.157D-01-0.129D+00 0.347D-01 0.107D+01
 Coeff:     -0.859D-06-0.411D-04-0.341D-03-0.616D-03 0.266D-02 0.112D-01
 Coeff:      0.157D-01-0.129D+00 0.347D-01 0.107D+01
 Gap=     0.467 Goal=   None    Shift=    0.000
 RMSDP=4.74D-08 MaxDP=1.64D-06 DE=-5.31D-10 OVMax= 5.65D-06

 Cycle  11  Pass 1  IDiag  1:
 RMSU=  1.09D-08    CP:  1.01D+00  6.84D-01  9.91D-01  9.29D-01  1.25D+00
                    CP:  1.01D+00  1.08D+00  1.78D+00  1.54D+00  1.29D+00
 FoFJK:  IHMeth= 1 ICntrl=     0 DoSepK=T KAlg= 1 I1Cent= 0 FoldK=F
 E= -2905.00289308758     Delta-E=       -0.000000000045 Rises=F Damp=F
 DIIS: error= 7.44D-08 at cycle  11 NSaved=  11.
 NSaved=11 IEnMin=11 EnMin= -2905.00289308758     IErMin=11 ErrMin= 7.44D-08
 ErrMax= 7.44D-08 EMaxC= 1.00D-01 BMatC= 1.36D-12 BMatP= 1.53D-11
 IDIUse=1 WtCom= 1.00D+00 WtEn= 0.00D+00
 Coeff-Com:  0.927D-06 0.818D-05 0.605D-04 0.504D-04-0.870D-03-0.132D-02
 Coeff-Com:  0.712D-03 0.308D-01-0.126D+00-0.121D+00 0.122D+01
 Coeff:      0.927D-06 0.818D-05 0.605D-04 0.504D-04-0.870D-03-0.132D-02
 Coeff:      0.712D-03 0.308D-01-0.126D+00-0.121D+00 0.122D+01
 Gap=     0.467 Goal=   None    Shift=    0.000
 RMSDP=1.41D-08 MaxDP=2.62D-07 DE=-4.55D-11 OVMax= 1.99D-06

 Cycle  12  Pass 1  IDiag  1:
 RMSU=  3.09D-09    CP:  1.01D+00  6.84D-01  9.91D-01  9.29D-01  1.25D+00
                    CP:  1.01D+00  1.08D+00  1.79D+00  1.57D+00  1.46D+00
                    CP:  1.40D+00
 FoFJK:  IHMeth= 1 ICntrl=     0 DoSepK=T KAlg= 1 I1Cent= 0 FoldK=F
 E= -2905.00289308759     Delta-E=       -0.000000000010 Rises=F Damp=F
 DIIS: error= 2.39D-08 at cycle  12 NSaved=  12.
 NSaved=12 IEnMin=12 EnMin= -2905.00289308759     IErMin=12 ErrMin= 2.39D-08
 ErrMax= 2.39D-08 EMaxC= 1.00D-01 BMatC= 8.09D-14 BMatP= 1.36D-12
 IDIUse=1 WtCom= 1.00D+00 WtEn= 0.00D+00
 Coeff-Com: -0.345D-07 0.266D-05 0.228D-04 0.489D-04-0.200D-03-0.765D-03
 Coeff-Com: -0.102D-02 0.836D-02 0.574D-02-0.630D-01-0.646D-01 0.112D+01
 Coeff:     -0.345D-07 0.266D-05 0.228D-04 0.489D-04-0.200D-03-0.765D-03
 Coeff:     -0.102D-02 0.836D-02 0.574D-02-0.630D-01-0.646D-01 0.112D+01
 Gap=     0.467 Goal=   None    Shift=    0.000
 RMSDP=2.80D-09 MaxDP=8.72D-08 DE=-1.05D-11 OVMax= 3.00D-07

 SCF Done:  E(RLC-wPBE) =  -2905.00289309     A.U. after   12 cycles
             Convg  =    0.2795D-08             -V/T =  2.0017
 KE= 2.900048794717D+03 PE=-7.237701760473D+03 EE= 1.281999727195D+03
 Leave Link  502 at Fri May  8 10:03:19 2020, MaxMem= 1073741824 cpu:     285.5
 (Enter /home/matheus/.gaussian/g09/l601.exe)
 Copying SCF densities to generalized density rwf, IOpCl= 0 IROHF=0.

 **********************************************************************

            Population analysis using the SCF density.

 **********************************************************************

 Orbital symmetries:
       Occupied  (A) (A) (A) (A) (A) (A) (A) (A) (A) (A) (A) (A)
                 (A) (A) (A) (A) (A) (A) (A) (A) (A) (A) (A) (A)
                 (A) (A) (A)
       Virtual   (A) (A) (A) (A) (A) (A) (A) (A) (A) (A) (A) (A)
                 (A) (A) (A) (A) (A) (A) (A) (A) (A) (A) (A) (A)
                 (A) (A) (A) (A) (A) (A) (A) (A) (A) (A) (A) (A)
                 (A) (A) (A) (A) (A) (A) (A) (A) (A) (A) (A) (A)
                 (A) (A) (A) (A) (A) (A) (A) (A) (A) (A) (A) (A)
                 (A) (A) (A) (A) (A) (A) (A) (A) (A) (A) (A) (A)
                 (A) (A) (A) (A) (A) (A) (A) (A) (A) (A) (A) (A)
                 (A) (A) (A) (A) (A) (A) (A) (A) (A) (A) (A) (A)
                 (A) (A) (A) (A) (A) (A) (A) (A) (A) (A) (A) (A)
                 (A) (A) (A) (A) (A) (A) (A) (A) (A) (A) (A) (A)
                 (A) (A) (A) (A) (A) (A) (A) (A) (A) (A) (A) (A)
                 (A) (A) (A) (A) (A) (A) (A) (A) (A) (A) (A) (A)
                 (A) (A) (A) (A) (A) (A) (A) (A) (A) (A) (A) (A)
                 (A) (A) (A) (A) (A) (A) (A) (A) (A) (A) (A) (A)
                 (A) (A)
 The electronic state is 1-A.
 Alpha  occ. eigenvalues -- -511.21416 -66.76248 -60.42365 -60.42354 -60.42343
 Alpha  occ. eigenvalues --  -19.11264 -19.11005  -9.69816  -7.44101  -7.44066
 Alpha  occ. eigenvalues --   -7.44033  -3.38505  -3.38499  -3.38475  -3.38449
 Alpha  occ. eigenvalues --   -3.38446  -1.32292  -1.11925  -1.09376  -0.74010
 Alpha  occ. eigenvalues --   -0.61752  -0.59333  -0.55984  -0.55443  -0.54476
 Alpha  occ. eigenvalues --   -0.50198  -0.43394
 Alpha virt. eigenvalues --    0.03275   0.04325   0.08325   0.09268   0.11001
 Alpha virt. eigenvalues --    0.11760   0.13342   0.14740   0.17608   0.18181
 Alpha virt. eigenvalues --    0.18415   0.20258   0.20714   0.22338   0.24377
 Alpha virt. eigenvalues --    0.24901   0.25750   0.29089   0.31649   0.33396
 Alpha virt. eigenvalues --    0.34329   0.35774   0.38206   0.39572   0.40759
 Alpha virt. eigenvalues --    0.42839   0.43877   0.48603   0.54232   0.55756
 Alpha virt. eigenvalues --    0.58771   0.60894   0.62497   0.65627   0.69344
 Alpha virt. eigenvalues --    0.70231   0.72519   0.75279   0.77146   0.77882
 Alpha virt. eigenvalues --    0.78215   0.79322   0.80851   0.82800   0.85921
 Alpha virt. eigenvalues --    0.87272   0.88736   0.90482   0.91218   0.93007
 Alpha virt. eigenvalues --    0.93627   0.97215   0.98767   1.00002   1.02021
 Alpha virt. eigenvalues --    1.03023   1.04833   1.07807   1.09145   1.13008
 Alpha virt. eigenvalues --    1.14271   1.17636   1.20899   1.24330   1.26684
 Alpha virt. eigenvalues --    1.31469   1.36878   1.39887   1.43196   1.45083
 Alpha virt. eigenvalues --    1.46995   1.50659   1.53238   1.57295   1.62024
 Alpha virt. eigenvalues --    1.68869   1.72243   1.86820   1.93710   1.96624
 Alpha virt. eigenvalues --    2.03899   2.09476   2.12580   2.14075   2.17205
 Alpha virt. eigenvalues --    2.18797   2.22435   2.23535   2.25357   2.29860
 Alpha virt. eigenvalues --    2.33182   2.33893   2.34311   2.36222   2.36892
 Alpha virt. eigenvalues --    2.41952   2.42604   2.48720   2.52252   2.52528
 Alpha virt. eigenvalues --    2.54040   2.55558   2.59017   2.60001   2.61804
 Alpha virt. eigenvalues --    2.62495   2.67010   2.70248   2.73671   2.76009
 Alpha virt. eigenvalues --    2.77325   2.81206   2.86253   2.92177   2.93311
 Alpha virt. eigenvalues --    2.98386   3.05301   3.12936   3.16282   3.65866
 Alpha virt. eigenvalues --    3.71760   3.98028   4.02233   4.03982   4.08341
 Alpha virt. eigenvalues --    4.14469   4.17200   4.27608   4.28773   4.30575
 Alpha virt. eigenvalues --    4.47157   4.51005   4.62969   4.66065   4.72958
 Alpha virt. eigenvalues --    5.01480   5.04908   5.06061   5.11635   5.19426
 Alpha virt. eigenvalues --    5.21785   5.48549   5.89121   6.05754   6.17128
 Alpha virt. eigenvalues --    6.18130   6.35665   6.43710   6.45063   6.57964
 Alpha virt. eigenvalues --    6.70016   6.78733   6.82563   6.87740   6.89919
 Alpha virt. eigenvalues --    6.93826   6.95087   6.96125   6.96621   7.09006
 Alpha virt. eigenvalues --    7.14870   7.20533   7.28140   7.49592   7.54346
 Alpha virt. eigenvalues --    7.91106   8.08205   8.18885  14.01717  14.63322
          Condensed to atoms (all electrons):
              1          2          3          4          5
     1  O    8.264405  -0.221188   0.181748   0.016942  -0.023913
     2  O   -0.221188   8.250865   0.024557   0.189759  -0.013838
     3  H    0.181748   0.024557   0.584613  -0.006852  -0.003016
     4  H    0.016942   0.189759  -0.006852   0.592980  -0.016605
     5  Kr  -0.023913  -0.013838  -0.003016  -0.016605  36.051948
 Mulliken atomic charges:
              1
     1  O   -0.217994
     2  O   -0.230155
     3  H    0.218950
     4  H    0.223776
     5  Kr   0.005424
 Sum of Mulliken atomic charges =   0.00000
 Mulliken charges with hydrogens summed into heavy atoms:
              1
     1  O    0.000956
     2  O   -0.006379
     5  Kr   0.005424
 Sum of Mulliken charges with hydrogens summed into heavy atoms =   0.00000
          Condensed to fragments (all electrons):
     1      -0.005424
     2       0.005424
 Electronic spatial extent (au):  <R**2>=            478.2569
 Charge=              0.0000 electrons
 Dipole moment (field-independent basis, Debye):
    X=             -3.0029    Y=             -0.2217    Z=              1.1032  Tot=              3.2068
 Quadrupole moment (field-independent basis, Debye-Ang):
   XX=            -37.9541   YY=            -27.8222   ZZ=            -29.4267
   XY=             -0.8402   XZ=              1.6167   YZ=             -1.4349
 Traceless Quadrupole moment (field-independent basis, Debye-Ang):
   XX=             -6.2197   YY=              3.9121   ZZ=              2.3076
   XY=             -0.8402   XZ=              1.6167   YZ=             -1.4349
 Octapole moment (field-independent basis, Debye-Ang**2):
  XXX=            -43.7918  YYY=             -0.5859  ZZZ=              0.5333  XYY=             -7.0136
  XXY=             -2.1149  XXZ=              1.4424  XZZ=             -7.2270  YZZ=             -1.1198
  YYZ=              1.7399  XYZ=             -2.0871
 Hexadecapole moment (field-independent basis, Debye-Ang**3):
 XXXX=           -460.6543 YYYY=            -62.3127 ZZZZ=            -29.0041 XXXY=             -2.9927
 XXXZ=              1.2632 YYYX=             -1.6182 YYYZ=             -2.0818 ZZZX=              1.1588
 ZZZY=             -1.2580 XXYY=            -84.6515 XXZZ=            -74.1376 YYZZ=            -16.1888
 XXYZ=             -3.0938 YYXZ=              2.5221 ZZXY=             -1.6713
 N-N= 1.506503454741D+02 E-N=-7.237701759873D+03  KE= 2.900048794717D+03
 No NMR shielding tensors so no spin-rotation constants.
 Leave Link  601 at Fri May  8 10:03:19 2020, MaxMem= 1073741824 cpu:       0.8
 (Enter /home/matheus/.gaussian/g09/l122.exe)
 Counterpoise: doing DCBS calculation for fragment   1 NewBq=T
 Leave Link  122 at Fri May  8 10:03:19 2020, MaxMem= 1073741824 cpu:       0.0
 (Enter /home/matheus/.gaussian/g09/l301.exe)
 Basis read from rwf:  (5D, 7F)
 No pseudopotential information found on rwf file.
 There are   197 symmetry adapted basis functions of A   symmetry.
 Integral buffers will be    131072 words long.
 Raffenetti 2 integral format.
 Two-electron integral symmetry is turned on.
   197 basis functions,   415 primitive gaussians,   229 cartesian basis functions
     9 alpha electrons        9 beta electrons
       nuclear repulsion energy        36.6499454140 Hartrees.
 IExCor=32609 DFT=T Ex+Corr=LC-wPBE ExCW=0 ScaHFX=  1.000000
 ScaDFX=  1.000000  0.000000  1.000000  1.000000 ScalE2=  1.000000  1.000000
 IRadAn=      5 IRanWt=     -1 IRanGd=            0 ICorTp=0
  HFx wShort=  0.000000 wLong=  0.550000 cFull=  0.000000 cShort=  0.000000 cLong=  1.000000
  DFx wShort=  0.000000 wLong=  0.550000 cFull=  0.000000 cShort=  0.000000 cLong=  1.000000
 NAtoms=    5 NActive=    5 NUniq=    5 SFac= 1.00D+00 NAtFMM=   60 NAOKFM=F Big=F
 No density basis found on file   718.
 Leave Link  301 at Fri May  8 10:03:20 2020, MaxMem= 1073741824 cpu:       0.2
 (Enter /home/matheus/.gaussian/g09/l302.exe)
 NPDir=0 NMtPBC=     1 NCelOv=     1 NCel=       1 NClECP=     1 NCelD=      1
         NCelK=      1 NCelE2=     1 NClLst=     1 CellRange=     0.0.
 One-electron integrals computed using PRISM.
 NBasis=   197 RedAO= T  NBF=   197
 NBsUse=   197 1.00D-06 NBFU=   197
 Precomputing XC quadrature grid using
 IXCGrd= 2 IRadAn=           5 IRanWt=          -1 IRanGd=           0 AccXCQ= 0.00D+00.
 NRdTot=     427 NPtTot=      123512 NUsed=      126579 NTot=      126611
 NSgBfM=   229   229   229   229   229 NAtAll=     5     5.
 Leave Link  302 at Fri May  8 10:03:20 2020, MaxMem= 1073741824 cpu:       1.0
 (Enter /home/matheus/.gaussian/g09/l303.exe)
 DipDrv:  MaxL=1.
 Leave Link  303 at Fri May  8 10:03:20 2020, MaxMem= 1073741824 cpu:       0.2
 (Enter /home/matheus/.gaussian/g09/l401.exe)
 Harris functional with IExCor=32609 diagonalized for initial guess.
 ExpMin= 2.53D-02 ExpMax= 1.17D+07 ExpMxC= 1.33D+04 IAcc=3 IRadAn=         5 AccDes= 0.00D+00
 HarFok:  IExCor=32609 AccDes= 0.00D+00 IRadAn=         5 IDoV= 1
 ScaDFX=  1.000000  1.000000  1.000000  1.000000
 FoFCou: FMM=F IPFlag=           0 FMFlag=      100000 FMFlg1=           0
         NFxFlg=           0 DoJE=T BraDBF=F KetDBF=T FulRan=T
         Omega=  0.000000  0.000000  1.000000  0.000000  0.000000 ICntrl=     500 IOpCl=  0
         NMat0=    1 NMatS0=    1 NMatT0=    0 NMatD0=    1 NMtDS0=    0 NMtDT0=    0
         I1Cent=           4 NGrid=           0.
 Petite list used in FoFCou.
 Harris En= -151.501096406522    
 Initial guess orbital symmetries:
       Occupied  (A) (A) (A) (A) (A) (A) (A) (A) (A)
       Virtual   (A) (A) (A) (A) (A) (A) (A) (A) (A) (A) (A) (A)
                 (A) (A) (A) (A) (A) (A) (A) (A) (A) (A) (A) (A)
                 (A) (A) (A) (A) (A) (A) (A) (A) (A) (A) (A) (A)
                 (A) (A) (A) (A) (A) (A) (A) (A) (A) (A) (A) (A)
                 (A) (A) (A) (A) (A) (A) (A) (A) (A) (A) (A) (A)
                 (A) (A) (A) (A) (A) (A) (A) (A) (A) (A) (A) (A)
                 (A) (A) (A) (A) (A) (A) (A) (A) (A) (A) (A) (A)
                 (A) (A) (A) (A) (A) (A) (A) (A) (A) (A) (A) (A)
                 (A) (A) (A) (A) (A) (A) (A) (A) (A) (A) (A) (A)
                 (A) (A) (A) (A) (A) (A) (A) (A) (A) (A) (A) (A)
                 (A) (A) (A) (A) (A) (A) (A) (A) (A) (A) (A) (A)
                 (A) (A) (A) (A) (A) (A) (A) (A) (A) (A) (A) (A)
                 (A) (A) (A) (A) (A) (A) (A) (A) (A) (A) (A) (A)
                 (A) (A) (A) (A) (A) (A) (A) (A) (A) (A) (A) (A)
                 (A) (A) (A) (A) (A) (A) (A) (A) (A) (A) (A) (A)
                 (A) (A) (A) (A) (A) (A) (A) (A)
 The electronic state of the initial guess is 1-A.
 Leave Link  401 at Fri May  8 10:03:20 2020, MaxMem= 1073741824 cpu:       3.9
 (Enter /home/matheus/.gaussian/g09/l502.exe)
 Closed shell SCF:
 Requested convergence on RMS density matrix=1.00D-08 within 128 cycles.
 Requested convergence on MAX density matrix=1.00D-06.
 Requested convergence on             energy=1.00D-06.
 No special actions if energy rises.
 Using DIIS extrapolation, IDIIS=  1040.
 Integral symmetry usage will be decided dynamically.
       126521 words used for storage of precomputed grid.
 IEnd=      305468 IEndB=      305468 NGot=  1073741824 MDV=  1073505667
 LenX=  1073505667 LenY=  1073452785
 Fock matrices will be formed incrementally for  20 cycles.

 Cycle   1  Pass 1  IDiag  1:
 FoFJK:  IHMeth= 1 ICntrl=     0 DoSepK=T KAlg= 1 I1Cent= 0 FoldK=F
 FoFCou: FMM=F IPFlag=           0 FMFlag=      100000 FMFlg1=           0
         NFxFlg=           0 DoJE=T BraDBF=F KetDBF=F FulRan=T
         Omega=  0.000000  0.000000  1.000000  0.000000  0.000000 ICntrl=     500 IOpCl=  0
         NMat0=    1 NMatS0=    1 NMatT0=    0 NMatD0=    1 NMtDS0=    0 NMtDT0=    0
         I1Cent=           0 NGrid=           0.
 Symmetry not used in FoFCou.
 E= -151.502619594440    
 DIIS: error= 1.21D-02 at cycle   1 NSaved=   1.
 NSaved= 1 IEnMin= 1 EnMin= -151.502619594440     IErMin= 1 ErrMin= 1.21D-02
 ErrMax= 1.21D-02 EMaxC= 1.00D-01 BMatC= 4.27D-02 BMatP= 4.27D-02
 IDIUse=3 WtCom= 8.79D-01 WtEn= 1.21D-01
 Coeff-Com:  0.100D+01
 Coeff-En:   0.100D+01
 Coeff:      0.100D+01
 Gap=     0.555 Goal=   None    Shift=    0.000
 GapD=    0.555 DampG=2.000 DampE=0.500 DampFc=1.0000 IDamp=-1.
 RMSDP=7.43D-04 MaxDP=2.27D-02              OVMax= 5.67D-02

 Cycle   2  Pass 1  IDiag  1:
 RMSU=  5.22D-04    CP:  9.92D-01
 FoFJK:  IHMeth= 1 ICntrl=     0 DoSepK=T KAlg= 1 I1Cent= 0 FoldK=F
 E= -151.519873749021     Delta-E=       -0.017254154581 Rises=F Damp=F
 DIIS: error= 7.21D-03 at cycle   2 NSaved=   2.
 NSaved= 2 IEnMin= 2 EnMin= -151.519873749021     IErMin= 2 ErrMin= 7.21D-03
 ErrMax= 7.21D-03 EMaxC= 1.00D-01 BMatC= 1.76D-02 BMatP= 4.27D-02
 IDIUse=3 WtCom= 9.28D-01 WtEn= 7.21D-02
 Coeff-Com:  0.378D+00 0.622D+00
 Coeff-En:   0.138D+00 0.862D+00
 Coeff:      0.361D+00 0.639D+00
 Gap=     0.465 Goal=   None    Shift=    0.000
 RMSDP=4.37D-04 MaxDP=2.23D-02 DE=-1.73D-02 OVMax= 2.43D-02

 Cycle   3  Pass 1  IDiag  1:
 RMSU=  2.35D-04    CP:  9.87D-01  6.21D-01
 FoFJK:  IHMeth= 1 ICntrl=     0 DoSepK=T KAlg= 1 I1Cent= 0 FoldK=F
 E= -151.529939456950     Delta-E=       -0.010065707929 Rises=F Damp=F
 DIIS: error= 1.20D-03 at cycle   3 NSaved=   3.
 NSaved= 3 IEnMin= 3 EnMin= -151.529939456950     IErMin= 3 ErrMin= 1.20D-03
 ErrMax= 1.20D-03 EMaxC= 1.00D-01 BMatC= 3.88D-04 BMatP= 1.76D-02
 IDIUse=3 WtCom= 9.88D-01 WtEn= 1.20D-02
 Coeff-Com:  0.414D-01 0.150D+00 0.809D+00
 Coeff-En:   0.000D+00 0.000D+00 0.100D+01
 Coeff:      0.409D-01 0.148D+00 0.811D+00
 Gap=     0.458 Goal=   None    Shift=    0.000
 RMSDP=5.35D-05 MaxDP=1.63D-03 DE=-1.01D-02 OVMax= 4.13D-03

 Cycle   4  Pass 1  IDiag  1:
 RMSU=  2.72D-05    CP:  9.86D-01  6.65D-01  1.02D+00
 FoFJK:  IHMeth= 1 ICntrl=     0 DoSepK=T KAlg= 1 I1Cent= 0 FoldK=F
 E= -151.530187107387     Delta-E=       -0.000247650437 Rises=F Damp=F
 DIIS: error= 1.86D-04 at cycle   4 NSaved=   4.
 NSaved= 4 IEnMin= 4 EnMin= -151.530187107387     IErMin= 4 ErrMin= 1.86D-04
 ErrMax= 1.86D-04 EMaxC= 1.00D-01 BMatC= 9.73D-06 BMatP= 3.88D-04
 IDIUse=3 WtCom= 9.98D-01 WtEn= 1.86D-03
 Coeff-Com: -0.983D-02-0.132D-01 0.846D-01 0.938D+00
 Coeff-En:   0.000D+00 0.000D+00 0.000D+00 0.100D+01
 Coeff:     -0.981D-02-0.132D-01 0.844D-01 0.939D+00
 Gap=     0.460 Goal=   None    Shift=    0.000
 RMSDP=1.26D-05 MaxDP=6.94D-04 DE=-2.48D-04 OVMax= 7.88D-04

 Cycle   5  Pass 1  IDiag  1:
 RMSU=  4.59D-06    CP:  9.85D-01  6.63D-01  1.06D+00  1.05D+00
 FoFJK:  IHMeth= 1 ICntrl=     0 DoSepK=T KAlg= 1 I1Cent= 0 FoldK=F
 E= -151.530195540347     Delta-E=       -0.000008432960 Rises=F Damp=F
 DIIS: error= 4.12D-05 at cycle   5 NSaved=   5.
 NSaved= 5 IEnMin= 5 EnMin= -151.530195540347     IErMin= 5 ErrMin= 4.12D-05
 ErrMax= 4.12D-05 EMaxC= 1.00D-01 BMatC= 2.18D-07 BMatP= 9.73D-06
 IDIUse=1 WtCom= 1.00D+00 WtEn= 0.00D+00
 Coeff-Com: -0.246D-03-0.137D-02-0.327D-01-0.121D+00 0.116D+01
 Coeff:     -0.246D-03-0.137D-02-0.327D-01-0.121D+00 0.116D+01
 Gap=     0.460 Goal=   None    Shift=    0.000
 RMSDP=3.32D-06 MaxDP=8.39D-05 DE=-8.43D-06 OVMax= 2.83D-04

 Cycle   6  Pass 1  IDiag  1:
 RMSU=  1.15D-06    CP:  9.85D-01  6.64D-01  1.06D+00  1.10D+00  1.31D+00
 FoFJK:  IHMeth= 1 ICntrl=     0 DoSepK=T KAlg= 1 I1Cent= 0 FoldK=F
 E= -151.530196096182     Delta-E=       -0.000000555835 Rises=F Damp=F
 DIIS: error= 6.68D-06 at cycle   6 NSaved=   6.
 NSaved= 6 IEnMin= 6 EnMin= -151.530196096182     IErMin= 6 ErrMin= 6.68D-06
 ErrMax= 6.68D-06 EMaxC= 1.00D-01 BMatC= 1.23D-08 BMatP= 2.18D-07
 IDIUse=1 WtCom= 1.00D+00 WtEn= 0.00D+00
 Coeff-Com:  0.247D-03 0.678D-03 0.521D-02 0.297D-02-0.251D+00 0.124D+01
 Coeff:      0.247D-03 0.678D-03 0.521D-02 0.297D-02-0.251D+00 0.124D+01
 Gap=     0.460 Goal=   None    Shift=    0.000
 RMSDP=1.06D-06 MaxDP=2.71D-05 DE=-5.56D-07 OVMax= 9.73D-05

 Cycle   7  Pass 1  IDiag  1:
 RMSU=  3.04D-07    CP:  9.85D-01  6.64D-01  1.06D+00  1.11D+00  1.36D+00
                    CP:  1.46D+00
 FoFJK:  IHMeth= 1 ICntrl=     0 DoSepK=T KAlg= 1 I1Cent= 0 FoldK=F
 E= -151.530196152246     Delta-E=       -0.000000056064 Rises=F Damp=F
 DIIS: error= 2.50D-06 at cycle   7 NSaved=   7.
 NSaved= 7 IEnMin= 7 EnMin= -151.530196152246     IErMin= 7 ErrMin= 2.50D-06
 ErrMax= 2.50D-06 EMaxC= 1.00D-01 BMatC= 9.85D-10 BMatP= 1.23D-08
 IDIUse=1 WtCom= 1.00D+00 WtEn= 0.00D+00
 Coeff-Com: -0.124D-04-0.202D-04 0.121D-02 0.645D-02-0.435D-01-0.135D+00
 Coeff-Com:  0.117D+01
 Coeff:     -0.124D-04-0.202D-04 0.121D-02 0.645D-02-0.435D-01-0.135D+00
 Coeff:      0.117D+01
 Gap=     0.460 Goal=   None    Shift=    0.000
 RMSDP=4.13D-07 MaxDP=1.62D-05 DE=-5.61D-08 OVMax= 3.88D-05

 Cycle   8  Pass 1  IDiag  1:
 RMSU=  8.05D-08    CP:  9.85D-01  6.64D-01  1.06D+00  1.11D+00  1.36D+00
                    CP:  1.61D+00  1.41D+00
 FoFJK:  IHMeth= 1 ICntrl=     0 DoSepK=T KAlg= 1 I1Cent= 0 FoldK=F
 E= -151.530196155339     Delta-E=       -0.000000003093 Rises=F Damp=F
 DIIS: error= 8.07D-07 at cycle   8 NSaved=   8.
 NSaved= 8 IEnMin= 8 EnMin= -151.530196155339     IErMin= 8 ErrMin= 8.07D-07
 ErrMax= 8.07D-07 EMaxC= 1.00D-01 BMatC= 2.84D-10 BMatP= 9.85D-10
 IDIUse=1 WtCom= 1.00D+00 WtEn= 0.00D+00
 Coeff-Com: -0.240D-04-0.682D-04-0.612D-04 0.160D-02 0.959D-02-0.156D+00
 Coeff-Com:  0.396D+00 0.749D+00
 Coeff:     -0.240D-04-0.682D-04-0.612D-04 0.160D-02 0.959D-02-0.156D+00
 Coeff:      0.396D+00 0.749D+00
 Gap=     0.460 Goal=   None    Shift=    0.000
 RMSDP=1.09D-07 MaxDP=6.21D-06 DE=-3.09D-09 OVMax= 1.05D-05

 Cycle   9  Pass 1  IDiag  1:
 RMSU=  3.64D-08    CP:  9.85D-01  6.64D-01  1.06D+00  1.11D+00  1.36D+00
                    CP:  1.63D+00  1.54D+00  1.07D+00
 FoFJK:  IHMeth= 1 ICntrl=     0 DoSepK=T KAlg= 1 I1Cent= 0 FoldK=F
 E= -151.530196155731     Delta-E=       -0.000000000391 Rises=F Damp=F
 DIIS: error= 3.59D-07 at cycle   9 NSaved=   9.
 NSaved= 9 IEnMin= 9 EnMin= -151.530196155731     IErMin= 9 ErrMin= 3.59D-07
 ErrMax= 3.59D-07 EMaxC= 1.00D-01 BMatC= 6.70D-11 BMatP= 2.84D-10
 IDIUse=1 WtCom= 1.00D+00 WtEn= 0.00D+00
 Coeff-Com: -0.927D-05-0.308D-04-0.359D-03-0.104D-02 0.183D-01-0.499D-01
 Coeff-Com: -0.112D+00 0.327D+00 0.818D+00
 Coeff:     -0.927D-05-0.308D-04-0.359D-03-0.104D-02 0.183D-01-0.499D-01
 Coeff:     -0.112D+00 0.327D+00 0.818D+00
 Gap=     0.460 Goal=   None    Shift=    0.000
 RMSDP=6.12D-08 MaxDP=3.12D-06 DE=-3.91D-10 OVMax= 6.87D-06

 Cycle  10  Pass 1  IDiag  1:
 RMSU=  1.26D-08    CP:  9.85D-01  6.64D-01  1.06D+00  1.11D+00  1.36D+00
                    CP:  1.65D+00  1.60D+00  1.30D+00  1.04D+00
 FoFJK:  IHMeth= 1 ICntrl=     0 DoSepK=T KAlg= 1 I1Cent= 0 FoldK=F
 E= -151.530196155835     Delta-E=       -0.000000000104 Rises=F Damp=F
 DIIS: error= 9.75D-08 at cycle  10 NSaved=  10.
 NSaved=10 IEnMin=10 EnMin= -151.530196155835     IErMin=10 ErrMin= 9.75D-08
 ErrMax= 9.75D-08 EMaxC= 1.00D-01 BMatC= 2.14D-12 BMatP= 6.70D-11
 IDIUse=1 WtCom= 1.00D+00 WtEn= 0.00D+00
 Coeff-Com:  0.378D-05 0.146D-04 0.995D-04 0.148D-04-0.468D-02 0.242D-01
 Coeff-Com: -0.437D-02-0.148D+00-0.182D+00 0.131D+01
 Coeff:      0.378D-05 0.146D-04 0.995D-04 0.148D-04-0.468D-02 0.242D-01
 Coeff:     -0.437D-02-0.148D+00-0.182D+00 0.131D+01
 Gap=     0.460 Goal=   None    Shift=    0.000
 RMSDP=1.61D-08 MaxDP=3.24D-07 DE=-1.04D-10 OVMax= 2.62D-06

 Cycle  11  Pass 1  IDiag  1:
 RMSU=  4.64D-09    CP:  9.85D-01  6.64D-01  1.06D+00  1.11D+00  1.36D+00
                    CP:  1.65D+00  1.61D+00  1.36D+00  1.19D+00  1.50D+00
 FoFJK:  IHMeth= 1 ICntrl=     0 DoSepK=T KAlg= 1 I1Cent= 0 FoldK=F
 E= -151.530196155845     Delta-E=       -0.000000000010 Rises=F Damp=F
 DIIS: error= 3.44D-08 at cycle  11 NSaved=  11.
 NSaved=11 IEnMin=11 EnMin= -151.530196155845     IErMin=11 ErrMin= 3.44D-08
 ErrMax= 3.44D-08 EMaxC= 1.00D-01 BMatC= 1.39D-13 BMatP= 2.14D-12
 IDIUse=1 WtCom= 1.00D+00 WtEn= 0.00D+00
 Coeff-Com: -0.214D-06-0.288D-06 0.924D-05 0.842D-04-0.498D-03-0.116D-02
 Coeff-Com:  0.113D-01 0.191D-02-0.305D-01-0.237D+00 0.126D+01
 Coeff:     -0.214D-06-0.288D-06 0.924D-05 0.842D-04-0.498D-03-0.116D-02
 Coeff:      0.113D-01 0.191D-02-0.305D-01-0.237D+00 0.126D+01
 Gap=     0.460 Goal=   None    Shift=    0.000
 RMSDP=4.37D-09 MaxDP=9.13D-08 DE=-9.92D-12 OVMax= 5.92D-07

 SCF Done:  E(RLC-wPBE) =  -151.530196156     A.U. after   11 cycles
             Convg  =    0.4368D-08             -V/T =  2.0069
 KE= 1.504859301226D+02 PE=-4.315922775282D+02 EE= 9.292620583574D+01
 Leave Link  502 at Fri May  8 10:03:52 2020, MaxMem= 1073741824 cpu:     250.6
 (Enter /home/matheus/.gaussian/g09/l601.exe)
 Copying SCF densities to generalized density rwf, IOpCl= 0 IROHF=0.

 **********************************************************************

            Population analysis using the SCF density.

 **********************************************************************

 Orbital symmetries:
       Occupied  (A) (A) (A) (A) (A) (A) (A) (A) (A)
       Virtual   (A) (A) (A) (A) (A) (A) (A) (A) (A) (A) (A) (A)
                 (A) (A) (A) (A) (A) (A) (A) (A) (A) (A) (A) (A)
                 (A) (A) (A) (A) (A) (A) (A) (A) (A) (A) (A) (A)
                 (A) (A) (A) (A) (A) (A) (A) (A) (A) (A) (A) (A)
                 (A) (A) (A) (A) (A) (A) (A) (A) (A) (A) (A) (A)
                 (A) (A) (A) (A) (A) (A) (A) (A) (A) (A) (A) (A)
                 (A) (A) (A) (A) (A) (A) (A) (A) (A) (A) (A) (A)
                 (A) (A) (A) (A) (A) (A) (A) (A) (A) (A) (A) (A)
                 (A) (A) (A) (A) (A) (A) (A) (A) (A) (A) (A) (A)
                 (A) (A) (A) (A) (A) (A) (A) (A) (A) (A) (A) (A)
                 (A) (A) (A) (A) (A) (A) (A) (A) (A) (A) (A) (A)
                 (A) (A) (A) (A) (A) (A) (A) (A) (A) (A) (A) (A)
                 (A) (A) (A) (A) (A) (A) (A) (A) (A) (A) (A) (A)
                 (A) (A) (A) (A) (A) (A) (A) (A) (A) (A) (A) (A)
                 (A) (A) (A) (A) (A) (A) (A) (A) (A) (A) (A) (A)
                 (A) (A) (A) (A) (A) (A) (A) (A)
 The electronic state is 1-A.
 Alpha  occ. eigenvalues --  -19.11673 -19.11667  -1.32659  -1.09794  -0.74056
 Alpha  occ. eigenvalues --   -0.61555  -0.59121  -0.50902  -0.43839
 Alpha virt. eigenvalues --    0.02154   0.03873   0.07063   0.07970   0.10006
 Alpha virt. eigenvalues --    0.10269   0.11397   0.14886   0.17345   0.17981
 Alpha virt. eigenvalues --    0.18822   0.20120   0.21030   0.22243   0.25856
 Alpha virt. eigenvalues --    0.27642   0.29434   0.30074   0.33520   0.34126
 Alpha virt. eigenvalues --    0.35233   0.36314   0.37994   0.40065   0.41183
 Alpha virt. eigenvalues --    0.43275   0.45551   0.46229   0.48502   0.51488
 Alpha virt. eigenvalues --    0.53998   0.58104   0.60789   0.63255   0.68533
 Alpha virt. eigenvalues --    0.71281   0.74630   0.78337   0.78993   0.81391
 Alpha virt. eigenvalues --    0.82988   0.84608   0.88248   0.91200   0.92305
 Alpha virt. eigenvalues --    0.93799   0.94906   0.97146   0.98423   0.99867
 Alpha virt. eigenvalues --    1.04374   1.05611   1.06793   1.09286   1.11338
 Alpha virt. eigenvalues --    1.12808   1.16540   1.20833   1.21541   1.24632
 Alpha virt. eigenvalues --    1.29459   1.29786   1.31213   1.31282   1.32477
 Alpha virt. eigenvalues --    1.35000   1.35189   1.38801   1.42154   1.43981
 Alpha virt. eigenvalues --    1.49432   1.50994   1.54108   1.55473   1.60011
 Alpha virt. eigenvalues --    1.61452   1.65262   1.67898   1.75823   1.78548
 Alpha virt. eigenvalues --    1.84446   1.88800   1.94888   2.01479   2.06357
 Alpha virt. eigenvalues --    2.11357   2.14208   2.18082   2.22379   2.26433
 Alpha virt. eigenvalues --    2.31883   2.34092   2.36846   2.39454   2.41240
 Alpha virt. eigenvalues --    2.54284   2.58244   2.62305   2.64718   2.67146
 Alpha virt. eigenvalues --    2.67855   2.80351   2.89618   2.90925   2.97356
 Alpha virt. eigenvalues --    3.01859   3.11589   3.14375   3.24807   3.29940
 Alpha virt. eigenvalues --    3.42635   3.58627   3.66702   3.68428   3.77437
 Alpha virt. eigenvalues --    3.78274   3.81200   3.81536   3.82200   3.86760
 Alpha virt. eigenvalues --    3.88322   3.91210   3.92266   3.95423   4.00587
 Alpha virt. eigenvalues --    4.00860   4.06231   4.08109   4.11908   4.17658
 Alpha virt. eigenvalues --    4.18636   4.24425   4.28378   4.33107   4.37758
 Alpha virt. eigenvalues --    4.49724   4.53650   4.66138   4.73252   5.01370
 Alpha virt. eigenvalues --    5.04835   5.06102   5.11896   5.19568   5.21732
 Alpha virt. eigenvalues --    5.48198   5.88805   6.05032   6.16714   6.17867
 Alpha virt. eigenvalues --    6.35405   6.43516   6.44754   6.57689   6.69662
 Alpha virt. eigenvalues --    6.78241   6.82223   6.87127   6.89544   6.93444
 Alpha virt. eigenvalues --    6.94608   6.95805   6.96265   7.08661   7.14504
 Alpha virt. eigenvalues --    7.20141   7.27704   7.49238   7.53937   7.90645
 Alpha virt. eigenvalues --    8.07817   8.17596  11.00279  14.01392  14.60995
 Alpha virt. eigenvalues --   14.81965  14.88761  15.10259  29.01572  29.02114
 Alpha virt. eigenvalues --   29.06514  29.14932  29.21675  49.17264 148.30224
 Alpha virt. eigenvalues --  148.40137 148.70766 752.74938
          Condensed to atoms (all electrons):
              1          2          3          4          5
     1  O    8.225041  -0.215190   0.188408   0.014039   0.001866
     2  O   -0.215190   8.216300   0.024702   0.191563  -0.000518
     3  H    0.188408   0.024702   0.581367  -0.004143  -0.001549
     4  H    0.014039   0.191563  -0.004143   0.586248  -0.004115
     5  Kr   0.001866  -0.000518  -0.001549  -0.004115   0.000918
 Mulliken atomic charges:
              1
     1  O   -0.214164
     2  O   -0.216857
     3  H    0.211215
     4  H    0.216409
     5  Kr   0.003398
 Sum of Mulliken atomic charges =   0.00000
 Mulliken charges with hydrogens summed into heavy atoms:
              1
     1  O   -0.002949
     2  O   -0.000448
     5  Kr   0.003398
 Sum of Mulliken charges with hydrogens summed into heavy atoms =   0.00000
          Condensed to fragments (all electrons):
     1      -0.003398
     2       0.003398
 Electronic spatial extent (au):  <R**2>=            317.9337
 Charge=              0.0000 electrons
 Dipole moment (field-independent basis, Debye):
    X=             -2.6457    Y=             -0.0994    Z=              1.2615  Tot=              2.9327
 Quadrupole moment (field-independent basis, Debye-Ang):
   XX=            -20.6632   YY=            -10.3121   ZZ=            -12.0016
   XY=             -0.8998   XZ=              1.5040   YZ=             -1.4650
 Traceless Quadrupole moment (field-independent basis, Debye-Ang):
   XX=             -6.3375   YY=              4.0135   ZZ=              2.3240
   XY=             -0.8998   XZ=              1.5040   YZ=             -1.4650
 Octapole moment (field-independent basis, Debye-Ang**2):
  XXX=            -92.9740  YYY=             -0.6266  ZZZ=              0.6003  XYY=            -23.7490
  XXY=             -1.9912  XXZ=              1.5244  XZZ=            -24.0173  YZZ=             -1.1394
  YYZ=              1.7667  XYZ=             -2.0877
 Hexadecapole moment (field-independent basis, Debye-Ang**3):
 XXXX=           -343.3499 YYYY=            -44.5168 ZZZZ=            -11.3746 XXXY=             -2.8136
 XXXZ=              1.1268 YYYX=             -1.5894 YYYZ=             -2.1301 ZZZX=              1.1579
 ZZZY=             -1.3036 XXYY=            -62.1603 XXZZ=            -51.8356 YYZZ=            -10.2764
 XXYZ=             -3.1030 YYXZ=              2.5059 ZZXY=             -1.6360
 N-N= 3.664994541398D+01 E-N=-4.315922771416D+02  KE= 1.504859301226D+02
 No NMR shielding tensors so no spin-rotation constants.
 Leave Link  601 at Fri May  8 10:03:52 2020, MaxMem= 1073741824 cpu:       0.8
 (Enter /home/matheus/.gaussian/g09/l122.exe)
 Counterpoise: doing DCBS calculation for fragment   2 NewBq=T
 Leave Link  122 at Fri May  8 10:03:52 2020, MaxMem= 1073741824 cpu:       0.0
 (Enter /home/matheus/.gaussian/g09/l301.exe)
 Basis read from rwf:  (5D, 7F)
 No pseudopotential information found on rwf file.
 There are   197 symmetry adapted basis functions of A   symmetry.
 Integral buffers will be    131072 words long.
 Raffenetti 2 integral format.
 Two-electron integral symmetry is turned on.
   197 basis functions,   415 primitive gaussians,   229 cartesian basis functions
    18 alpha electrons       18 beta electrons
       nuclear repulsion energy         0.0000000000 Hartrees.
 IExCor=32609 DFT=T Ex+Corr=LC-wPBE ExCW=0 ScaHFX=  1.000000
 ScaDFX=  1.000000  0.000000  1.000000  1.000000 ScalE2=  1.000000  1.000000
 IRadAn=      5 IRanWt=     -1 IRanGd=            0 ICorTp=0
  HFx wShort=  0.000000 wLong=  0.550000 cFull=  0.000000 cShort=  0.000000 cLong=  1.000000
  DFx wShort=  0.000000 wLong=  0.550000 cFull=  0.000000 cShort=  0.000000 cLong=  1.000000
 NAtoms=    5 NActive=    5 NUniq=    5 SFac= 1.00D+00 NAtFMM=   60 NAOKFM=F Big=F
 No density basis found on file   718.
 Leave Link  301 at Fri May  8 10:03:52 2020, MaxMem= 1073741824 cpu:       0.2
 (Enter /home/matheus/.gaussian/g09/l302.exe)
 NPDir=0 NMtPBC=     1 NCelOv=     1 NCel=       1 NClECP=     1 NCelD=      1
         NCelK=      1 NCelE2=     1 NClLst=     1 CellRange=     0.0.
 One-electron integrals computed using PRISM.
 NBasis=   197 RedAO= T  NBF=   197
 NBsUse=   197 1.00D-06 NBFU=   197
 Precomputing XC quadrature grid using
 IXCGrd= 2 IRadAn=           5 IRanWt=          -1 IRanGd=           0 AccXCQ= 0.00D+00.
 NRdTot=     427 NPtTot=      123512 NUsed=      126579 NTot=      126611
 NSgBfM=   229   229   229   229   229 NAtAll=     5     5.
 Leave Link  302 at Fri May  8 10:03:52 2020, MaxMem= 1073741824 cpu:       1.0
 (Enter /home/matheus/.gaussian/g09/l303.exe)
 DipDrv:  MaxL=1.
 Leave Link  303 at Fri May  8 10:03:52 2020, MaxMem= 1073741824 cpu:       0.2
 (Enter /home/matheus/.gaussian/g09/l401.exe)
 Harris functional with IExCor=32609 diagonalized for initial guess.
 ExpMin= 2.53D-02 ExpMax= 1.17D+07 ExpMxC= 1.33D+04 IAcc=3 IRadAn=         5 AccDes= 0.00D+00
 HarFok:  IExCor=32609 AccDes= 0.00D+00 IRadAn=         5 IDoV= 1
 ScaDFX=  1.000000  1.000000  1.000000  1.000000
 FoFCou: FMM=F IPFlag=           0 FMFlag=      100000 FMFlg1=           0
         NFxFlg=           0 DoJE=T BraDBF=F KetDBF=T FulRan=T
         Omega=  0.000000  0.000000  1.000000  0.000000  0.000000 ICntrl=     500 IOpCl=  0
         NMat0=    1 NMatS0=    1 NMatT0=    0 NMatD0=    1 NMtDS0=    0 NMtDT0=    0
         I1Cent=           4 NGrid=           0.
 Petite list used in FoFCou.
 Harris En= -2753.24656513065    
 Initial guess orbital symmetries:
       Occupied  (A) (A) (A) (A) (A) (A) (A) (A) (A) (A) (A) (A)
                 (A) (A) (A) (A) (A) (A)
       Virtual   (A) (A) (A) (A) (A) (A) (A) (A) (A) (A) (A) (A)
                 (A) (A) (A) (A) (A) (A) (A) (A) (A) (A) (A) (A)
                 (A) (A) (A) (A) (A) (A) (A) (A) (A) (A) (A) (A)
                 (A) (A) (A) (A) (A) (A) (A) (A) (A) (A) (A) (A)
                 (A) (A) (A) (A) (A) (A) (A) (A) (A) (A) (A) (A)
                 (A) (A) (A) (A) (A) (A) (A) (A) (A) (A) (A) (A)
                 (A) (A) (A) (A) (A) (A) (A) (A) (A) (A) (A) (A)
                 (A) (A) (A) (A) (A) (A) (A) (A) (A) (A) (A) (A)
                 (A) (A) (A) (A) (A) (A) (A) (A) (A) (A) (A) (A)
                 (A) (A) (A) (A) (A) (A) (A) (A) (A) (A) (A) (A)
                 (A) (A) (A) (A) (A) (A) (A) (A) (A) (A) (A) (A)
                 (A) (A) (A) (A) (A) (A) (A) (A) (A) (A) (A) (A)
                 (A) (A) (A) (A) (A) (A) (A) (A) (A) (A) (A) (A)
                 (A) (A) (A) (A) (A) (A) (A) (A) (A) (A) (A) (A)
                 (A) (A) (A) (A) (A) (A) (A) (A) (A) (A) (A)
 The electronic state of the initial guess is 1-A.
 Leave Link  401 at Fri May  8 10:03:52 2020, MaxMem= 1073741824 cpu:       3.8
 (Enter /home/matheus/.gaussian/g09/l502.exe)
 Closed shell SCF:
 Requested convergence on RMS density matrix=1.00D-08 within 128 cycles.
 Requested convergence on MAX density matrix=1.00D-06.
 Requested convergence on             energy=1.00D-06.
 No special actions if energy rises.
 Using DIIS extrapolation, IDIIS=  1040.
 Integral symmetry usage will be decided dynamically.
       126521 words used for storage of precomputed grid.
 IEnd=      305468 IEndB=      305468 NGot=  1073741824 MDV=  1073505667
 LenX=  1073505667 LenY=  1073452785
 Fock matrices will be formed incrementally for  20 cycles.

 Cycle   1  Pass 1  IDiag  1:
 FoFJK:  IHMeth= 1 ICntrl=     0 DoSepK=T KAlg= 1 I1Cent= 0 FoldK=F
 FoFCou: FMM=F IPFlag=           0 FMFlag=      100000 FMFlg1=           0
         NFxFlg=           0 DoJE=T BraDBF=F KetDBF=F FulRan=T
         Omega=  0.000000  0.000000  1.000000  0.000000  0.000000 ICntrl=     500 IOpCl=  0
         NMat0=    1 NMatS0=    1 NMatT0=    0 NMatD0=    1 NMtDS0=    0 NMtDT0=    0
         I1Cent=           0 NGrid=           0.
 Symmetry not used in FoFCou.
 E= -2753.43080790455    
 DIIS: error= 2.76D-02 at cycle   1 NSaved=   1.
 NSaved= 1 IEnMin= 1 EnMin= -2753.43080790455     IErMin= 1 ErrMin= 2.76D-02
 ErrMax= 2.76D-02 EMaxC= 1.00D-01 BMatC= 2.25D-01 BMatP= 2.25D-01
 IDIUse=3 WtCom= 7.24D-01 WtEn= 2.76D-01
 Coeff-Com:  0.100D+01
 Coeff-En:   0.100D+01
 Coeff:      0.100D+01
 Gap=     0.637 Goal=   None    Shift=    0.000
 GapD=    0.637 DampG=2.000 DampE=0.500 DampFc=1.0000 IDamp=-1.
 RMSDP=2.08D-03 MaxDP=1.45D-01              OVMax= 5.14D-02

 Cycle   2  Pass 1  IDiag  1:
 RMSU=  1.43D-03    CP:  1.02D+00
 FoFJK:  IHMeth= 1 ICntrl=     0 DoSepK=T KAlg= 1 I1Cent= 0 FoldK=F
 E= -2753.46430242295     Delta-E=       -0.033494518398 Rises=F Damp=F
 DIIS: error= 1.01D-02 at cycle   2 NSaved=   2.
 NSaved= 2 IEnMin= 2 EnMin= -2753.46430242295     IErMin= 2 ErrMin= 1.01D-02
 ErrMax= 1.01D-02 EMaxC= 1.00D-01 BMatC= 4.99D-02 BMatP= 2.25D-01
 IDIUse=3 WtCom= 8.99D-01 WtEn= 1.01D-01
 Coeff-Com:  0.315D+00 0.685D+00
 Coeff-En:   0.630D-01 0.937D+00
 Coeff:      0.290D+00 0.710D+00
 Gap=     0.552 Goal=   None    Shift=    0.000
 RMSDP=7.61D-04 MaxDP=5.05D-02 DE=-3.35D-02 OVMax= 1.84D-02

 Cycle   3  Pass 1  IDiag  1:
 RMSU=  1.46D-04    CP:  1.01D+00  6.50D-01
 FoFJK:  IHMeth= 1 ICntrl=     0 DoSepK=T KAlg= 1 I1Cent= 0 FoldK=F
 E= -2753.47776981626     Delta-E=       -0.013467393307 Rises=F Damp=F
 DIIS: error= 9.78D-04 at cycle   3 NSaved=   3.
 NSaved= 3 IEnMin= 3 EnMin= -2753.47776981626     IErMin= 3 ErrMin= 9.78D-04
 ErrMax= 9.78D-04 EMaxC= 1.00D-01 BMatC= 5.00D-04 BMatP= 4.99D-02
 IDIUse=3 WtCom= 9.90D-01 WtEn= 9.78D-03
 Coeff-Com: -0.461D-02 0.822D-01 0.922D+00
 Coeff-En:   0.000D+00 0.000D+00 0.100D+01
 Coeff:     -0.457D-02 0.814D-01 0.923D+00
 Gap=     0.557 Goal=   None    Shift=    0.000
 RMSDP=6.83D-05 MaxDP=4.14D-03 DE=-1.35D-02 OVMax= 2.35D-03

 Cycle   4  Pass 1  IDiag  1:
 RMSU=  1.36D-05    CP:  1.01D+00  6.81D-01  9.99D-01
 FoFJK:  IHMeth= 1 ICntrl=     0 DoSepK=T KAlg= 1 I1Cent= 0 FoldK=F
 E= -2753.47791532211     Delta-E=       -0.000145505851 Rises=F Damp=F
 DIIS: error= 3.61D-05 at cycle   4 NSaved=   4.
 NSaved= 4 IEnMin= 4 EnMin= -2753.47791532211     IErMin= 4 ErrMin= 3.61D-05
 ErrMax= 3.61D-05 EMaxC= 1.00D-01 BMatC= 4.03D-07 BMatP= 5.00D-04
 IDIUse=1 WtCom= 1.00D+00 WtEn= 0.00D+00
 Coeff-Com: -0.555D-03-0.190D-01-0.164D+00 0.118D+01
 Coeff:     -0.555D-03-0.190D-01-0.164D+00 0.118D+01
 Gap=     0.557 Goal=   None    Shift=    0.000
 RMSDP=5.74D-06 MaxDP=3.22D-04 DE=-1.46D-04 OVMax= 4.11D-04

 Cycle   5  Pass 1  IDiag  1:
 RMSU=  1.80D-06    CP:  1.01D+00  6.81D-01  1.02D+00  1.20D+00
 FoFJK:  IHMeth= 1 ICntrl=     0 DoSepK=T KAlg= 1 I1Cent= 0 FoldK=F
 E= -2753.47791583627     Delta-E=       -0.000000514159 Rises=F Damp=F
 DIIS: error= 1.96D-06 at cycle   5 NSaved=   5.
 NSaved= 5 IEnMin= 5 EnMin= -2753.47791583627     IErMin= 5 ErrMin= 1.96D-06
 ErrMax= 1.96D-06 EMaxC= 1.00D-01 BMatC= 2.20D-09 BMatP= 4.03D-07
 IDIUse=1 WtCom= 1.00D+00 WtEn= 0.00D+00
 Coeff-Com:  0.960D-04 0.185D-03-0.163D-02-0.161D-01 0.102D+01
 Coeff:      0.960D-04 0.185D-03-0.163D-02-0.161D-01 0.102D+01
 Gap=     0.557 Goal=   None    Shift=    0.000
 RMSDP=3.26D-07 MaxDP=2.15D-05 DE=-5.14D-07 OVMax= 1.50D-05

 Cycle   6  Pass 1  IDiag  1:
 RMSU=  1.58D-07    CP:  1.01D+00  6.81D-01  1.02D+00  1.21D+00  1.03D+00
 FoFJK:  IHMeth= 1 ICntrl=     0 DoSepK=T KAlg= 1 I1Cent= 0 FoldK=F
 E= -2753.47791583820     Delta-E=       -0.000000001932 Rises=F Damp=F
 DIIS: error= 3.85D-07 at cycle   6 NSaved=   6.
 NSaved= 6 IEnMin= 6 EnMin= -2753.47791583820     IErMin= 6 ErrMin= 3.85D-07
 ErrMax= 3.85D-07 EMaxC= 1.00D-01 BMatC= 7.76D-11 BMatP= 2.20D-09
 IDIUse=1 WtCom= 1.00D+00 WtEn= 0.00D+00
 Coeff-Com:  0.370D-05 0.181D-03 0.181D-02-0.168D-01 0.351D-01 0.980D+00
 Coeff:      0.370D-05 0.181D-03 0.181D-02-0.168D-01 0.351D-01 0.980D+00
 Gap=     0.557 Goal=   None    Shift=    0.000
 RMSDP=4.86D-08 MaxDP=2.52D-06 DE=-1.93D-09 OVMax= 3.12D-06

 Cycle   7  Pass 1  IDiag  1:
 RMSU=  1.12D-08    CP:  1.01D+00  6.81D-01  1.02D+00  1.21D+00  1.04D+00
                    CP:  1.10D+00
 FoFJK:  IHMeth= 1 ICntrl=     0 DoSepK=T KAlg= 1 I1Cent= 0 FoldK=F
 E= -2753.47791583827     Delta-E=       -0.000000000065 Rises=F Damp=F
 DIIS: error= 3.32D-08 at cycle   7 NSaved=   7.
 NSaved= 7 IEnMin= 7 EnMin= -2753.47791583827     IErMin= 7 ErrMin= 3.32D-08
 ErrMax= 3.32D-08 EMaxC= 1.00D-01 BMatC= 4.96D-13 BMatP= 7.76D-11
 IDIUse=1 WtCom= 1.00D+00 WtEn= 0.00D+00
 Coeff-Com:  0.240D-06 0.336D-04 0.349D-03-0.308D-02 0.297D-02 0.167D+00
 Coeff-Com:  0.833D+00
 Coeff:      0.240D-06 0.336D-04 0.349D-03-0.308D-02 0.297D-02 0.167D+00
 Coeff:      0.833D+00
 Gap=     0.557 Goal=   None    Shift=    0.000
 RMSDP=5.44D-09 MaxDP=1.57D-07 DE=-6.46D-11 OVMax= 2.51D-07

 SCF Done:  E(RLC-wPBE) =  -2753.47791584     A.U. after    7 cycles
             Convg  =    0.5444D-08             -V/T =  2.0014
 KE= 2.749509370883D+03 PE=-6.579043191911D+03 EE= 1.076055905189D+03
 Leave Link  502 at Fri May  8 10:04:13 2020, MaxMem= 1073741824 cpu:     166.6
 (Enter /home/matheus/.gaussian/g09/l601.exe)
 Copying SCF densities to generalized density rwf, IOpCl= 0 IROHF=0.

 **********************************************************************

            Population analysis using the SCF density.

 **********************************************************************

 Orbital symmetries:
       Occupied  (A) (A) (A) (A) (A) (A) (A) (A) (A) (A) (A) (A)
                 (A) (A) (A) (A) (A) (A)
       Virtual   (A) (A) (A) (A) (A) (A) (A) (A) (A) (A) (A) (A)
                 (A) (A) (A) (A) (A) (A) (A) (A) (A) (A) (A) (A)
                 (A) (A) (A) (A) (A) (A) (A) (A) (A) (A) (A) (A)
                 (A) (A) (A) (A) (A) (A) (A) (A) (A) (A) (A) (A)
                 (A) (A) (A) (A) (A) (A) (A) (A) (A) (A) (A) (A)
                 (A) (A) (A) (A) (A) (A) (A) (A) (A) (A) (A) (A)
                 (A) (A) (A) (A) (A) (A) (A) (A) (A) (A) (A) (A)
                 (A) (A) (A) (A) (A) (A) (A) (A) (A) (A) (A) (A)
                 (A) (A) (A) (A) (A) (A) (A) (A) (A) (A) (A) (A)
                 (A) (A) (A) (A) (A) (A) (A) (A) (A) (A) (A) (A)
                 (A) (A) (A) (A) (A) (A) (A) (A) (A) (A) (A) (A)
                 (A) (A) (A) (A) (A) (A) (A) (A) (A) (A) (A) (A)
                 (A) (A) (A) (A) (A) (A) (A) (A) (A) (A) (A) (A)
                 (A) (A) (A) (A) (A) (A) (A) (A) (A) (A) (A) (A)
                 (A) (A) (A) (A) (A) (A) (A) (A) (A) (A) (A)
 The electronic state is 1-A.
 Alpha  occ. eigenvalues -- -511.18560 -66.73378 -60.39488 -60.39485 -60.39484
 Alpha  occ. eigenvalues --   -9.66931  -7.41183  -7.41181  -7.41180  -3.35589
 Alpha  occ. eigenvalues --   -3.35589  -3.35589  -3.35587  -3.35587  -1.08851
 Alpha  occ. eigenvalues --   -0.52697  -0.52693  -0.52691
 Alpha virt. eigenvalues --    0.03032   0.04953   0.08514   0.09336   0.12113
 Alpha virt. eigenvalues --    0.12763   0.13448   0.13645   0.16009   0.17144
 Alpha virt. eigenvalues --    0.17833   0.19185   0.21165   0.26249   0.27462
 Alpha virt. eigenvalues --    0.27933   0.29339   0.32046   0.33587   0.36034
 Alpha virt. eigenvalues --    0.36262   0.38299   0.39034   0.40447   0.41776
 Alpha virt. eigenvalues --    0.42120   0.45534   0.54417   0.56524   0.59614
 Alpha virt. eigenvalues --    0.61569   0.65900   0.67930   0.69748   0.71915
 Alpha virt. eigenvalues --    0.73087   0.75277   0.77622   0.78675   0.79500
 Alpha virt. eigenvalues --    0.80778   0.82011   0.85370   0.85789   0.88697
 Alpha virt. eigenvalues --    0.89348   0.90718   0.90914   0.92828   0.97014
 Alpha virt. eigenvalues --    0.98655   0.99919   1.01382   1.02306   1.03886
 Alpha virt. eigenvalues --    1.06630   1.08105   1.09040   1.14377   1.17718
 Alpha virt. eigenvalues --    1.18943   1.23524   1.25915   1.32956   1.34027
 Alpha virt. eigenvalues --    1.34739   1.40054   1.46379   1.49327   1.55171
 Alpha virt. eigenvalues --    1.55470   1.58171   1.60600   1.70885   1.80329
 Alpha virt. eigenvalues --    1.82477   1.83819   1.86708   1.92861   2.20018
 Alpha virt. eigenvalues --    2.24013   2.25021   2.29405   2.31263   2.34913
 Alpha virt. eigenvalues --    2.35955   2.37233   2.38005   2.39984   2.42668
 Alpha virt. eigenvalues --    2.44312   2.47014   2.48378   2.52083   2.54167
 Alpha virt. eigenvalues --    2.55247   2.56620   2.59725   2.61583   2.62794
 Alpha virt. eigenvalues --    2.65456   2.66476   2.68651   2.72433   2.73621
 Alpha virt. eigenvalues --    2.75700   2.81580   2.86124   2.88197   2.91647
 Alpha virt. eigenvalues --    2.96571   2.99849   3.05874   3.08939   3.18200
 Alpha virt. eigenvalues --    3.20966   3.27019   3.32512   3.40541   3.45719
 Alpha virt. eigenvalues --    3.61302   3.66715   3.82514   3.87017   4.02665
 Alpha virt. eigenvalues --    4.44134   4.48728   4.52697   4.58461   4.68855
 Alpha virt. eigenvalues --    4.72025   4.86149   4.86253   4.98229   5.08971
 Alpha virt. eigenvalues --    5.14574   5.24960   5.55429   5.68750   5.81878
 Alpha virt. eigenvalues --    5.90988   5.99464   6.13860   6.79837   6.83652
 Alpha virt. eigenvalues --    7.37199   7.40757   7.59633   7.70347   7.71362
 Alpha virt. eigenvalues --    7.82532   7.99010   8.16023   8.16954   8.25841
 Alpha virt. eigenvalues --    8.31736   8.47672   8.62438   8.92167   9.57256
 Alpha virt. eigenvalues --    9.73577   9.82919   9.87676   9.94771   9.96920
 Alpha virt. eigenvalues --   10.17580  10.22860  10.55174  10.93128  11.57254
 Alpha virt. eigenvalues --   11.59344  11.77102  11.99426  12.04618  13.20576
 Alpha virt. eigenvalues --   13.68725  14.52205  62.67566  64.67813
          Condensed to atoms (all electrons):
              1          2          3          4          5
     1  O    0.000984  -0.000978  -0.000385   0.000890  -0.008750
     2  O   -0.000978   0.004433   0.000207  -0.003602  -0.000109
     3  H   -0.000385   0.000207   0.000573  -0.000075  -0.007325
     4  H    0.000890  -0.003602  -0.000075   0.004470  -0.029335
     5  Kr  -0.008750  -0.000109  -0.007325  -0.029335  36.088463
 Mulliken atomic charges:
              1
     1  O    0.008239
     2  O    0.000048
     3  H    0.007005
     4  H    0.027652
     5  Kr  -0.042945
 Sum of Mulliken atomic charges =   0.00000
 Mulliken charges with hydrogens summed into heavy atoms:
              1
     1  O    0.015244
     2  O    0.027700
     5  Kr  -0.042945
 Sum of Mulliken charges with hydrogens summed into heavy atoms =   0.00000
          Condensed to fragments (all electrons):
     1       0.042945
     2      -0.042945
 Electronic spatial extent (au):  <R**2>=            160.6347
 Charge=              0.0000 electrons
 Dipole moment (field-independent basis, Debye):
    X=              0.0010    Y=              0.0002    Z=              0.0001  Tot=              0.0010
 Quadrupole moment (field-independent basis, Debye-Ang):
   XX=            -17.5380   YY=            -17.5498   ZZ=            -17.5573
   XY=              0.0016   XZ=              0.0025   YZ=             -0.0013
 Traceless Quadrupole moment (field-independent basis, Debye-Ang):
   XX=              0.0104   YY=             -0.0014   ZZ=             -0.0089
   XY=              0.0016   XZ=              0.0025   YZ=             -0.0013
 Octapole moment (field-independent basis, Debye-Ang**2):
  XXX=             51.1457  YYY=              0.1766  ZZZ=              0.1921  XYY=             17.0623
  XXY=              0.0551  XXZ=              0.0607  XZZ=             17.0662  YZZ=              0.0591
  YYZ=              0.0648  XYZ=              0.0001
 Hexadecapole moment (field-independent basis, Debye-Ang**3):
 XXXX=           -117.4340 YYYY=            -18.0295 ZZZZ=            -18.0542 XXXY=             -0.1660
 XXXZ=             -0.1801 YYYX=             -0.1657 YYYZ=             -0.0012 ZZZX=             -0.1819
 ZZZY=             -0.0019 XXYY=            -22.5870 XXZZ=            -22.5933 YYZZ=             -6.0132
 XXYZ=             -0.0014 YYXZ=             -0.0605 ZZXY=             -0.0543
 N-N= 0.000000000000D+00 E-N=-6.579043188567D+03  KE= 2.749509370883D+03
 No NMR shielding tensors so no spin-rotation constants.
 Leave Link  601 at Fri May  8 10:04:13 2020, MaxMem= 1073741824 cpu:       0.8
 (Enter /home/matheus/.gaussian/g09/l122.exe)
 Counterpoise: doing MCBS calculation for fragment   1
 Leave Link  122 at Fri May  8 10:04:13 2020, MaxMem= 1073741824 cpu:       0.0
 (Enter /home/matheus/.gaussian/g09/l301.exe)
 Basis read from rwf:  (5D, 7F)
 No pseudopotential information found on rwf file.
 There are   138 symmetry adapted basis functions of A   symmetry.
 Integral buffers will be    131072 words long.
 Raffenetti 2 integral format.
 Two-electron integral symmetry is turned on.
   138 basis functions,   198 primitive gaussians,   160 cartesian basis functions
     9 alpha electrons        9 beta electrons
       nuclear repulsion energy        36.6499454140 Hartrees.
 IExCor=32609 DFT=T Ex+Corr=LC-wPBE ExCW=0 ScaHFX=  1.000000
 ScaDFX=  1.000000  0.000000  1.000000  1.000000 ScalE2=  1.000000  1.000000
 IRadAn=      5 IRanWt=     -1 IRanGd=            0 ICorTp=0
  HFx wShort=  0.000000 wLong=  0.550000 cFull=  0.000000 cShort=  0.000000 cLong=  1.000000
  DFx wShort=  0.000000 wLong=  0.550000 cFull=  0.000000 cShort=  0.000000 cLong=  1.000000
 NAtoms=    5 NActive=    4 NUniq=    4 SFac= 1.00D+00 NAtFMM=   60 NAOKFM=F Big=F
 No density basis found on file   718.
 Leave Link  301 at Fri May  8 10:04:13 2020, MaxMem= 1073741824 cpu:       0.2
 (Enter /home/matheus/.gaussian/g09/l302.exe)
 NPDir=0 NMtPBC=     1 NCelOv=     1 NCel=       1 NClECP=     1 NCelD=      1
         NCelK=      1 NCelE2=     1 NClLst=     1 CellRange=     0.0.
 One-electron integrals computed using PRISM.
 NBasis=   138 RedAO= T  NBF=   138
 NBsUse=   138 1.00D-06 NBFU=   138
 Precomputing XC quadrature grid using
 IXCGrd= 2 IRadAn=           5 IRanWt=          -1 IRanGd=           0 AccXCQ= 0.00D+00.
 NRdTot=     344 NPtTot=       92556 NUsed=       95038 NTot=       95070
 NSgBfM=   160   160   160   160   160 NAtAll=     4     4.
 Leave Link  302 at Fri May  8 10:04:14 2020, MaxMem= 1073741824 cpu:       0.8
 (Enter /home/matheus/.gaussian/g09/l303.exe)
 DipDrv:  MaxL=1.
 Leave Link  303 at Fri May  8 10:04:14 2020, MaxMem= 1073741824 cpu:       0.2
 (Enter /home/matheus/.gaussian/g09/l401.exe)
 Harris functional with IExCor=32609 diagonalized for initial guess.
 ExpMin= 2.53D-02 ExpMax= 1.53D+04 ExpMxC= 5.22D+02 IAcc=3 IRadAn=         5 AccDes= 0.00D+00
 HarFok:  IExCor=32609 AccDes= 0.00D+00 IRadAn=         5 IDoV= 1
 ScaDFX=  1.000000  1.000000  1.000000  1.000000
 FoFCou: FMM=F IPFlag=           0 FMFlag=      100000 FMFlg1=           0
         NFxFlg=           0 DoJE=T BraDBF=F KetDBF=T FulRan=T
         Omega=  0.000000  0.000000  1.000000  0.000000  0.000000 ICntrl=     500 IOpCl=  0
         NMat0=    1 NMatS0=    1 NMatT0=    0 NMatD0=    1 NMtDS0=    0 NMtDT0=    0
         I1Cent=           4 NGrid=           0.
 Petite list used in FoFCou.
 Harris En= -151.501020246784    
 Initial guess orbital symmetries:
       Occupied  (A) (A) (A) (A) (A) (A) (A) (A) (A)
       Virtual   (A) (A) (A) (A) (A) (A) (A) (A) (A) (A) (A) (A)
                 (A) (A) (A) (A) (A) (A) (A) (A) (A) (A) (A) (A)
                 (A) (A) (A) (A) (A) (A) (A) (A) (A) (A) (A) (A)
                 (A) (A) (A) (A) (A) (A) (A) (A) (A) (A) (A) (A)
                 (A) (A) (A) (A) (A) (A) (A) (A) (A) (A) (A) (A)
                 (A) (A) (A) (A) (A) (A) (A) (A) (A) (A) (A) (A)
                 (A) (A) (A) (A) (A) (A) (A) (A) (A) (A) (A) (A)
                 (A) (A) (A) (A) (A) (A) (A) (A) (A) (A) (A) (A)
                 (A) (A) (A) (A) (A) (A) (A) (A) (A) (A) (A) (A)
                 (A) (A) (A) (A) (A) (A) (A) (A) (A) (A) (A) (A)
                 (A) (A) (A) (A) (A) (A) (A) (A) (A)
 The electronic state of the initial guess is 1-A.
 Leave Link  401 at Fri May  8 10:04:14 2020, MaxMem= 1073741824 cpu:       2.1
 (Enter /home/matheus/.gaussian/g09/l502.exe)
 Closed shell SCF:
 Requested convergence on RMS density matrix=1.00D-08 within 128 cycles.
 Requested convergence on MAX density matrix=1.00D-06.
 Requested convergence on             energy=1.00D-06.
 No special actions if energy rises.
 Using DIIS extrapolation, IDIIS=  1040.
 Integral symmetry usage will be decided dynamically.
        94980 words used for storage of precomputed grid.
 IEnd=      192360 IEndB=      192360 NGot=  1073741824 MDV=  1073591865
 LenX=  1073591865 LenY=  1073565824
 Fock matrices will be formed incrementally for  20 cycles.

 Cycle   1  Pass 1  IDiag  1:
 FoFJK:  IHMeth= 1 ICntrl=     0 DoSepK=T KAlg= 1 I1Cent= 0 FoldK=F
 FoFCou: FMM=F IPFlag=           0 FMFlag=      100000 FMFlg1=           0
         NFxFlg=           0 DoJE=T BraDBF=F KetDBF=F FulRan=T
         Omega=  0.000000  0.000000  1.000000  0.000000  0.000000 ICntrl=     500 IOpCl=  0
         NMat0=    1 NMatS0=    1 NMatT0=    0 NMatD0=    1 NMtDS0=    0 NMtDT0=    0
         I1Cent=           0 NGrid=           0.
 Symmetry not used in FoFCou.
 E= -151.502574975006    
 DIIS: error= 1.77D-02 at cycle   1 NSaved=   1.
 NSaved= 1 IEnMin= 1 EnMin= -151.502574975006     IErMin= 1 ErrMin= 1.77D-02
 ErrMax= 1.77D-02 EMaxC= 1.00D-01 BMatC= 4.27D-02 BMatP= 4.27D-02
 IDIUse=3 WtCom= 8.23D-01 WtEn= 1.77D-01
 Coeff-Com:  0.100D+01
 Coeff-En:   0.100D+01
 Coeff:      0.100D+01
 Gap=     0.555 Goal=   None    Shift=    0.000
 GapD=    0.555 DampG=2.000 DampE=0.500 DampFc=1.0000 IDamp=-1.
 RMSDP=1.07D-03 MaxDP=2.34D-02              OVMax= 5.66D-02

 Cycle   2  Pass 1  IDiag  1:
 RMSU=  7.52D-04    CP:  9.92D-01
 FoFJK:  IHMeth= 1 ICntrl=     0 DoSepK=T KAlg= 1 I1Cent= 0 FoldK=F
 E= -151.519819986895     Delta-E=       -0.017245011888 Rises=F Damp=F
 DIIS: error= 1.10D-02 at cycle   2 NSaved=   2.
 NSaved= 2 IEnMin= 2 EnMin= -151.519819986895     IErMin= 2 ErrMin= 1.10D-02
 ErrMax= 1.10D-02 EMaxC= 1.00D-01 BMatC= 1.75D-02 BMatP= 4.27D-02
 IDIUse=3 WtCom= 8.90D-01 WtEn= 1.10D-01
 Coeff-Com:  0.378D+00 0.622D+00
 Coeff-En:   0.138D+00 0.862D+00
 Coeff:      0.352D+00 0.648D+00
 Gap=     0.470 Goal=   None    Shift=    0.000
 RMSDP=6.24D-04 MaxDP=2.23D-02 DE=-1.72D-02 OVMax= 2.46D-02

 Cycle   3  Pass 1  IDiag  1:
 RMSU=  3.30D-04    CP:  9.88D-01  6.15D-01
 FoFJK:  IHMeth= 1 ICntrl=     0 DoSepK=T KAlg= 1 I1Cent= 0 FoldK=F
 E= -151.529836986285     Delta-E=       -0.010016999390 Rises=F Damp=F
 DIIS: error= 2.01D-03 at cycle   3 NSaved=   3.
 NSaved= 3 IEnMin= 3 EnMin= -151.529836986285     IErMin= 3 ErrMin= 2.01D-03
 ErrMax= 2.01D-03 EMaxC= 1.00D-01 BMatC= 4.60D-04 BMatP= 1.75D-02
 IDIUse=3 WtCom= 9.80D-01 WtEn= 2.01D-02
 Coeff-Com:  0.414D-01 0.161D+00 0.798D+00
 Coeff-En:   0.000D+00 0.000D+00 0.100D+01
 Coeff:      0.406D-01 0.158D+00 0.802D+00
 Gap=     0.462 Goal=   None    Shift=    0.000
 RMSDP=7.94D-05 MaxDP=1.40D-03 DE=-1.00D-02 OVMax= 4.26D-03

 Cycle   4  Pass 1  IDiag  1:
 RMSU=  3.86D-05    CP:  9.86D-01  6.66D-01  1.01D+00
 FoFJK:  IHMeth= 1 ICntrl=     0 DoSepK=T KAlg= 1 I1Cent= 0 FoldK=F
 E= -151.530126968123     Delta-E=       -0.000289981838 Rises=F Damp=F
 DIIS: error= 2.79D-04 at cycle   4 NSaved=   4.
 NSaved= 4 IEnMin= 4 EnMin= -151.530126968123     IErMin= 4 ErrMin= 2.79D-04
 ErrMax= 2.79D-04 EMaxC= 1.00D-01 BMatC= 1.02D-05 BMatP= 4.60D-04
 IDIUse=3 WtCom= 9.97D-01 WtEn= 2.79D-03
 Coeff-Com: -0.986D-02-0.126D-01 0.854D-01 0.937D+00
 Coeff-En:   0.000D+00 0.000D+00 0.000D+00 0.100D+01
 Coeff:     -0.983D-02-0.126D-01 0.852D-01 0.937D+00
 Gap=     0.464 Goal=   None    Shift=    0.000
 RMSDP=1.80D-05 MaxDP=6.99D-04 DE=-2.90D-04 OVMax= 7.98D-04

 Cycle   5  Pass 1  IDiag  1:
 RMSU=  6.26D-06    CP:  9.86D-01  6.64D-01  1.04D+00  1.05D+00
 FoFJK:  IHMeth= 1 ICntrl=     0 DoSepK=T KAlg= 1 I1Cent= 0 FoldK=F
 E= -151.530135689895     Delta-E=       -0.000008721772 Rises=F Damp=F
 DIIS: error= 6.47D-05 at cycle   5 NSaved=   5.
 NSaved= 5 IEnMin= 5 EnMin= -151.530135689895     IErMin= 5 ErrMin= 6.47D-05
 ErrMax= 6.47D-05 EMaxC= 1.00D-01 BMatC= 2.19D-07 BMatP= 1.02D-05
 IDIUse=1 WtCom= 1.00D+00 WtEn= 0.00D+00
 Coeff-Com: -0.238D-03-0.173D-02-0.327D-01-0.122D+00 0.116D+01
 Coeff:     -0.238D-03-0.173D-02-0.327D-01-0.122D+00 0.116D+01
 Gap=     0.464 Goal=   None    Shift=    0.000
 RMSDP=4.69D-06 MaxDP=8.35D-05 DE=-8.72D-06 OVMax= 2.83D-04

 Cycle   6  Pass 1  IDiag  1:
 RMSU=  1.61D-06    CP:  9.86D-01  6.64D-01  1.05D+00  1.09D+00  1.32D+00
 FoFJK:  IHMeth= 1 ICntrl=     0 DoSepK=T KAlg= 1 I1Cent= 0 FoldK=F
 E= -151.530136239983     Delta-E=       -0.000000550088 Rises=F Damp=F
 DIIS: error= 1.10D-05 at cycle   6 NSaved=   6.
 NSaved= 6 IEnMin= 6 EnMin= -151.530136239983     IErMin= 6 ErrMin= 1.10D-05
 ErrMax= 1.10D-05 EMaxC= 1.00D-01 BMatC= 1.22D-08 BMatP= 2.19D-07
 IDIUse=1 WtCom= 1.00D+00 WtEn= 0.00D+00
 Coeff-Com:  0.247D-03 0.745D-03 0.528D-02 0.344D-02-0.255D+00 0.125D+01
 Coeff:      0.247D-03 0.745D-03 0.528D-02 0.344D-02-0.255D+00 0.125D+01
[...]
         I1Cent=           0 NGrid=           0.
 Symmetry not used in FoFCou.
 E= -2753.47778027578    
 DIIS: error= 2.02D-04 at cycle   1 NSaved=   1.
 NSaved= 1 IEnMin= 1 EnMin= -2753.47778027578     IErMin= 1 ErrMin= 2.02D-04
 ErrMax= 2.02D-04 EMaxC= 1.00D-01 BMatC= 5.08D-06 BMatP= 5.08D-06
 IDIUse=3 WtCom= 9.98D-01 WtEn= 2.02D-03
 Coeff-Com:  0.100D+01
 Coeff-En:   0.100D+01
 Coeff:      0.100D+01
 Gap=     0.556 Goal=   None    Shift=    0.000
 RMSDP=1.21D-05 MaxDP=6.61D-04              OVMax= 3.26D-04

 Cycle   2  Pass 1  IDiag  1:
 RMSU=  8.56D-06    CP:  1.00D+00
 FoFJK:  IHMeth= 1 ICntrl=     0 DoSepK=T KAlg= 1 I1Cent= 0 FoldK=F
 E= -2753.47778089656     Delta-E=       -0.000000620779 Rises=F Damp=F
 DIIS: error= 4.05D-06 at cycle   2 NSaved=   2.
 NSaved= 2 IEnMin= 2 EnMin= -2753.47778089656     IErMin= 2 ErrMin= 4.05D-06
 ErrMax= 4.05D-06 EMaxC= 1.00D-01 BMatC= 4.32D-09 BMatP= 5.08D-06
 IDIUse=1 WtCom= 1.00D+00 WtEn= 0.00D+00
 Coeff-Com: -0.874D-02 0.101D+01
 Coeff:     -0.874D-02 0.101D+01
 Gap=     0.555 Goal=   None    Shift=    0.000
 RMSDP=1.26D-06 MaxDP=6.14D-05 DE=-6.21D-07 OVMax= 4.91D-05

 Cycle   3  Pass 1  IDiag  1:
 RMSU=  5.32D-07    CP:  1.00D+00  1.08D+00
 FoFJK:  IHMeth= 1 ICntrl=     0 DoSepK=T KAlg= 1 I1Cent= 0 FoldK=F
 E= -2753.47778090409     Delta-E=       -0.000000007538 Rises=F Damp=F
 DIIS: error= 6.78D-07 at cycle   3 NSaved=   3.
 NSaved= 3 IEnMin= 3 EnMin= -2753.47778090409     IErMin= 3 ErrMin= 6.78D-07
 ErrMax= 6.78D-07 EMaxC= 1.00D-01 BMatC= 1.02D-10 BMatP= 4.32D-09
 IDIUse=1 WtCom= 1.00D+00 WtEn= 0.00D+00
 Coeff-Com:  0.360D-03-0.130D+00 0.113D+01
 Coeff:      0.360D-03-0.130D+00 0.113D+01
 Gap=     0.555 Goal=   None    Shift=    0.000
 RMSDP=1.98D-07 MaxDP=8.47D-06 DE=-7.54D-09 OVMax= 9.85D-06

 Cycle   4  Pass 1  IDiag  1:
 RMSU=  4.89D-08    CP:  1.00D+00  1.09D+00  1.22D+00
 FoFJK:  IHMeth= 1 ICntrl=     0 DoSepK=T KAlg= 1 I1Cent= 0 FoldK=F
 E= -2753.47778090429     Delta-E=       -0.000000000197 Rises=F Damp=F
 DIIS: error= 2.58D-07 at cycle   4 NSaved=   4.
 NSaved= 4 IEnMin= 4 EnMin= -2753.47778090429     IErMin= 4 ErrMin= 2.58D-07
 ErrMax= 2.58D-07 EMaxC= 1.00D-01 BMatC= 4.80D-12 BMatP= 1.02D-10
 IDIUse=1 WtCom= 1.00D+00 WtEn= 0.00D+00
 Coeff-Com:  0.168D-03-0.353D-01 0.198D+00 0.837D+00
 Coeff:      0.168D-03-0.353D-01 0.198D+00 0.837D+00
 Gap=     0.555 Goal=   None    Shift=    0.000
 RMSDP=1.93D-08 MaxDP=7.63D-07 DE=-1.97D-10 OVMax= 9.28D-07

 Cycle   5  Pass 1  IDiag  1:
 RMSU=  6.83D-09    CP:  1.00D+00  1.09D+00  1.24D+00  1.14D+00
 FoFJK:  IHMeth= 1 ICntrl=     0 DoSepK=T KAlg= 1 I1Cent= 0 FoldK=F
 E= -2753.47778090429     Delta-E=        0.000000000000 Rises=F Damp=F
 DIIS: error= 2.57D-08 at cycle   5 NSaved=   5.
 NSaved= 5 IEnMin= 5 EnMin= -2753.47778090429     IErMin= 5 ErrMin= 2.57D-08
 ErrMax= 2.57D-08 EMaxC= 1.00D-01 BMatC= 1.65D-13 BMatP= 4.80D-12
 IDIUse=1 WtCom= 1.00D+00 WtEn= 0.00D+00
 Coeff-Com: -0.289D-04 0.881D-02-0.689D-01-0.422D-01 0.110D+01
 Coeff:     -0.289D-04 0.881D-02-0.689D-01-0.422D-01 0.110D+01
 Gap=     0.555 Goal=   None    Shift=    0.000
 RMSDP=7.10D-09 MaxDP=3.57D-07 DE=-4.55D-13 OVMax= 3.82D-07

 SCF Done:  E(RLC-wPBE) =  -2753.47778090     A.U. after    5 cycles
             Convg  =    0.7101D-08             -V/T =  2.0014
 KE= 2.749555193110D+03 PE=-6.579093100523D+03 EE= 1.076060126509D+03
 Leave Link  502 at Fri May  8 10:29:00 2020, MaxMem= 1073741824 cpu:     111.0
 (Enter /home/matheus/.gaussian/g09/l122.exe)
 Restoring MOs from calculation   4 to rwf.
 Counterpoise: doing MCBS calculation for fragment   1
 Leave Link  122 at Fri May  8 10:29:00 2020, MaxMem= 1073741824 cpu:       0.0
 (Enter /home/matheus/.gaussian/g09/l301.exe)
 Basis read from rwf:  (5D, 7F)
 No pseudopotential information found on rwf file.
 There are   138 symmetry adapted basis functions of A   symmetry.
 Integral buffers will be    131072 words long.
 Raffenetti 2 integral format.
 Two-electron integral symmetry is turned on.
   138 basis functions,   198 primitive gaussians,   160 cartesian basis functions
     9 alpha electrons        9 beta electrons
       nuclear repulsion energy        36.6499454140 Hartrees.
 IExCor=32609 DFT=T Ex+Corr=LC-wPBE ExCW=0 ScaHFX=  1.000000
 ScaDFX=  1.000000  0.000000  1.000000  1.000000 ScalE2=  1.000000  1.000000
 IRadAn=      5 IRanWt=     -1 IRanGd=            0 ICorTp=0
  HFx wShort=  0.000000 wLong=  0.550000 cFull=  0.000000 cShort=  0.000000 cLong=  1.000000
  DFx wShort=  0.000000 wLong=  0.550000 cFull=  0.000000 cShort=  0.000000 cLong=  1.000000
 NAtoms=    5 NActive=    4 NUniq=    4 SFac= 1.00D+00 NAtFMM=   60 NAOKFM=F Big=F
 No density basis found on file   718.
 Leave Link  301 at Fri May  8 10:29:00 2020, MaxMem= 1073741824 cpu:       0.2
 (Enter /home/matheus/.gaussian/g09/l302.exe)
 NPDir=0 NMtPBC=     1 NCelOv=     1 NCel=       1 NClECP=     1 NCelD=      1
         NCelK=      1 NCelE2=     1 NClLst=     1 CellRange=     0.0.
 One-electron integrals computed using PRISM.
 NBasis=   138 RedAO= T  NBF=   138
 NBsUse=   138 1.00D-06 NBFU=   138
 Precomputing XC quadrature grid using
 IXCGrd= 2 IRadAn=           5 IRanWt=          -1 IRanGd=           0 AccXCQ= 0.00D+00.
 NRdTot=     344 NPtTot=       92556 NUsed=       95038 NTot=       95070
 NSgBfM=   160   160   160   160   160 NAtAll=     4     4.
 Leave Link  302 at Fri May  8 10:29:00 2020, MaxMem= 1073741824 cpu:       0.9
 (Enter /home/matheus/.gaussian/g09/l303.exe)
 DipDrv:  MaxL=1.
 Leave Link  303 at Fri May  8 10:29:00 2020, MaxMem= 1073741824 cpu:       0.2
 (Enter /home/matheus/.gaussian/g09/l401.exe)
 Initial guess read from the read-write file.
 Guess basis will be translated and rotated to current coordinates.
 Initial guess orbital symmetries:
       Occupied  (A) (A) (A) (A) (A) (A) (A) (A) (A)
       Virtual   (A) (A) (A) (A) (A) (A) (A) (A) (A) (A) (A) (A)
                 (A) (A) (A) (A) (A) (A) (A) (A) (A) (A) (A) (A)
                 (A) (A) (A) (A) (A) (A) (A) (A) (A) (A) (A) (A)
                 (A) (A) (A) (A) (A) (A) (A) (A) (A) (A) (A) (A)
                 (A) (A) (A) (A) (A) (A) (A) (A) (A) (A) (A) (A)
                 (A) (A) (A) (A) (A) (A) (A) (A) (A) (A) (A) (A)
                 (A) (A) (A) (A) (A) (A) (A) (A) (A) (A) (A) (A)
                 (A) (A) (A) (A) (A) (A) (A) (A) (A) (A) (A) (A)
                 (A) (A) (A) (A) (A) (A) (A) (A) (A) (A) (A) (A)
                 (A) (A) (A) (A) (A) (A) (A) (A) (A) (A) (A) (A)
                 (A) (A) (A) (A) (A) (A) (A) (A) (A)
 The electronic state of the initial guess is 1-A.
 Generating alternative initial guess.
 Harris functional with IExCor=32609 diagonalized for initial guess.
 ExpMin= 2.53D-02 ExpMax= 1.53D+04 ExpMxC= 5.22D+02 IAcc=3 IRadAn=         5 AccDes= 0.00D+00
 HarFok:  IExCor=32609 AccDes= 0.00D+00 IRadAn=         5 IDoV= 1
 ScaDFX=  1.000000  1.000000  1.000000  1.000000
 FoFCou: FMM=F IPFlag=           0 FMFlag=      100000 FMFlg1=           0
         NFxFlg=           0 DoJE=T BraDBF=F KetDBF=T FulRan=T
         Omega=  0.000000  0.000000  1.000000  0.000000  0.000000 ICntrl=     500 IOpCl=  0
         NMat0=    1 NMatS0=    1 NMatT0=    0 NMatD0=    1 NMtDS0=    0 NMtDT0=    0
         I1Cent=           4 NGrid=           0.
 Petite list used in FoFCou.
 Harris En= -151.501020202129    
 Leave Link  401 at Fri May  8 10:29:01 2020, MaxMem= 1073741824 cpu:       2.9
 (Enter /home/matheus/.gaussian/g09/l502.exe)
 Closed shell SCF:
 Requested convergence on RMS density matrix=1.00D-08 within 128 cycles.
 Requested convergence on MAX density matrix=1.00D-06.
 Requested convergence on             energy=1.00D-06.
 No special actions if energy rises.
 Using DIIS extrapolation, IDIIS=  1040.
 Integral symmetry usage will be decided dynamically.
        94980 words used for storage of precomputed grid.
 IEnd=      192360 IEndB=      192360 NGot=  1073741824 MDV=  1073591865
 LenX=  1073591865 LenY=  1073565824
 Fock matrices will be formed incrementally for  20 cycles.

 Cycle   1  Pass 1  IDiag  1:
 FoFJK:  IHMeth= 1 ICntrl=     0 DoSepK=T KAlg= 1 I1Cent= 0 FoldK=F
 FoFCou: FMM=F IPFlag=           0 FMFlag=      100000 FMFlg1=           0
         NFxFlg=           0 DoJE=T BraDBF=F KetDBF=F FulRan=T
         Omega=  0.000000  0.000000  1.000000  0.000000  0.000000 ICntrl=     500 IOpCl=  0
         NMat0=    1 NMatS0=    1 NMatT0=    0 NMatD0=    1 NMtDS0=    0 NMtDT0=    0
         I1Cent=           0 NGrid=           0.
 Symmetry not used in FoFCou.
 E= -151.530136381395    
 DIIS: error= 5.40D-06 at cycle   1 NSaved=   1.
 NSaved= 1 IEnMin= 1 EnMin= -151.530136381395     IErMin= 1 ErrMin= 5.40D-06
 ErrMax= 5.40D-06 EMaxC= 1.00D-01 BMatC= 5.60D-09 BMatP= 5.60D-09
 IDIUse=1 WtCom= 1.00D+00 WtEn= 0.00D+00
 Coeff-Com:  0.100D+01
 Coeff:      0.100D+01
 Gap=     0.464 Goal=   None    Shift=    0.000
 RMSDP=5.00D-07 MaxDP=1.11D-05              OVMax= 1.74D-05

 Cycle   2  Pass 1  IDiag  1:
 RMSU=  3.54D-07    CP:  1.00D+00
 FoFJK:  IHMeth= 1 ICntrl=     0 DoSepK=T KAlg= 1 I1Cent= 0 FoldK=F
 E= -151.530136386520     Delta-E=       -0.000000005125 Rises=F Damp=F
 DIIS: error= 1.02D-06 at cycle   2 NSaved=   2.
 NSaved= 2 IEnMin= 2 EnMin= -151.530136386520     IErMin= 2 ErrMin= 1.02D-06
 ErrMax= 1.02D-06 EMaxC= 1.00D-01 BMatC= 2.30D-10 BMatP= 5.60D-09
 IDIUse=1 WtCom= 1.00D+00 WtEn= 0.00D+00
 Coeff-Com: -0.142D+00 0.114D+01
 Coeff:     -0.142D+00 0.114D+01
 Gap=     0.464 Goal=   None    Shift=    0.000
 RMSDP=1.42D-07 MaxDP=3.92D-06 DE=-5.12D-09 OVMax= 6.58D-06

 Cycle   3  Pass 1  IDiag  1:
 RMSU=  5.04D-08    CP:  1.00D+00  1.25D+00
 FoFJK:  IHMeth= 1 ICntrl=     0 DoSepK=T KAlg= 1 I1Cent= 0 FoldK=F
 E= -151.530136386977     Delta-E=       -0.000000000457 Rises=F Damp=F
 DIIS: error= 3.22D-07 at cycle   3 NSaved=   3.
 NSaved= 3 IEnMin= 3 EnMin= -151.530136386977     IErMin= 3 ErrMin= 3.22D-07
 ErrMax= 3.22D-07 EMaxC= 1.00D-01 BMatC= 1.46D-11 BMatP= 2.30D-10
 IDIUse=1 WtCom= 1.00D+00 WtEn= 0.00D+00
 Coeff-Com: -0.346D-02-0.142D+00 0.115D+01
 Coeff:     -0.346D-02-0.142D+00 0.115D+01
 Gap=     0.464 Goal=   None    Shift=    0.000
 RMSDP=4.15D-08 MaxDP=9.67D-07 DE=-4.57D-10 OVMax= 2.53D-06

 Cycle   4  Pass 1  IDiag  1:
 RMSU=  1.15D-08    CP:  1.00D+00  1.30D+00  1.36D+00
 FoFJK:  IHMeth= 1 ICntrl=     0 DoSepK=T KAlg= 1 I1Cent= 0 FoldK=F
 E= -151.530136387019     Delta-E=       -0.000000000042 Rises=F Damp=F
 DIIS: error= 1.28D-07 at cycle   4 NSaved=   4.
 NSaved= 4 IEnMin= 4 EnMin= -151.530136387019     IErMin= 4 ErrMin= 1.28D-07
 ErrMax= 1.28D-07 EMaxC= 1.00D-01 BMatC= 3.34D-12 BMatP= 1.46D-11
 IDIUse=1 WtCom= 1.00D+00 WtEn= 0.00D+00
 Coeff-Com:  0.813D-02-0.115D+00 0.279D+00 0.828D+00
 Coeff:      0.813D-02-0.115D+00 0.279D+00 0.828D+00
 Gap=     0.464 Goal=   None    Shift=    0.000
 RMSDP=1.35D-08 MaxDP=3.37D-07 DE=-4.21D-11 OVMax= 1.03D-06

 Cycle   5  Pass 1  IDiag  1:
 RMSU=  6.52D-09    CP:  1.00D+00  1.31D+00  1.47D+00  1.10D+00
 FoFJK:  IHMeth= 1 ICntrl=     0 DoSepK=T KAlg= 1 I1Cent= 0 FoldK=F
 E= -151.530136387024     Delta-E=       -0.000000000005 Rises=F Damp=F
 DIIS: error= 8.63D-08 at cycle   5 NSaved=   5.
 NSaved= 5 IEnMin= 5 EnMin= -151.530136387024     IErMin= 5 ErrMin= 8.63D-08
 ErrMax= 8.63D-08 EMaxC= 1.00D-01 BMatC= 1.23D-12 BMatP= 3.34D-12
 IDIUse=1 WtCom= 1.00D+00 WtEn= 0.00D+00
 Coeff-Com:  0.442D-02-0.270D-01-0.107D+00 0.403D+00 0.726D+00
 Coeff:      0.442D-02-0.270D-01-0.107D+00 0.403D+00 0.726D+00
 Gap=     0.464 Goal=   None    Shift=    0.000
 RMSDP=6.11D-09 MaxDP=1.11D-07 DE=-5.00D-12 OVMax= 4.51D-07

 SCF Done:  E(RLC-wPBE) =  -151.530136387     A.U. after    5 cycles
             Convg  =    0.6114D-08             -V/T =  2.0069
 KE= 1.504846980327D+02 PE=-4.315902282063D+02 EE= 9.292544837263D+01
 Leave Link  502 at Fri May  8 10:29:07 2020, MaxMem= 1073741824 cpu:      46.5
 (Enter /home/matheus/.gaussian/g09/l122.exe)
 Restoring MOs from calculation   5 to rwf.
 Counterpoise: doing MCBS calculation for fragment   2
 Leave Link  122 at Fri May  8 10:29:07 2020, MaxMem= 1073741824 cpu:       0.0
 (Enter /home/matheus/.gaussian/g09/l301.exe)
 Basis read from rwf:  (5D, 7F)
 No pseudopotential information found on rwf file.
 There are    59 symmetry adapted basis functions of A   symmetry.
 Integral buffers will be    131072 words long.
 Raffenetti 2 integral format.
 Two-electron integral symmetry is turned on.
    59 basis functions,   217 primitive gaussians,    69 cartesian basis functions
    18 alpha electrons       18 beta electrons
       nuclear repulsion energy         0.0000000000 Hartrees.
 IExCor=32609 DFT=T Ex+Corr=LC-wPBE ExCW=0 ScaHFX=  1.000000
 ScaDFX=  1.000000  0.000000  1.000000  1.000000 ScalE2=  1.000000  1.000000
 IRadAn=      5 IRanWt=     -1 IRanGd=            0 ICorTp=0
  HFx wShort=  0.000000 wLong=  0.550000 cFull=  0.000000 cShort=  0.000000 cLong=  1.000000
  DFx wShort=  0.000000 wLong=  0.550000 cFull=  0.000000 cShort=  0.000000 cLong=  1.000000
 NAtoms=    5 NActive=    1 NUniq=    1 SFac= 1.00D+00 NAtFMM=   60 NAOKFM=F Big=F
 No density basis found on file   718.
 Leave Link  301 at Fri May  8 10:29:07 2020, MaxMem= 1073741824 cpu:       0.2
 (Enter /home/matheus/.gaussian/g09/l302.exe)
 NPDir=0 NMtPBC=     1 NCelOv=     1 NCel=       1 NClECP=     1 NCelD=      1
         NCelK=      1 NCelE2=     1 NClLst=     1 CellRange=     0.0.
 One-electron integrals computed using PRISM.
 NBasis=    59 RedAO= T  NBF=    59
 NBsUse=    59 1.00D-06 NBFU=    59
 Precomputing XC quadrature grid using
 IXCGrd= 2 IRadAn=           5 IRanWt=          -1 IRanGd=           0 AccXCQ= 0.00D+00.
 NRdTot=      81 NPtTot=       30352 NUsed=       30981 NTot=       31013
 NSgBfM=    69    69    69    69    69 NAtAll=     1     1.
 Leave Link  302 at Fri May  8 10:29:07 2020, MaxMem= 1073741824 cpu:       0.8
 (Enter /home/matheus/.gaussian/g09/l303.exe)
 DipDrv:  MaxL=1.
 Leave Link  303 at Fri May  8 10:29:07 2020, MaxMem= 1073741824 cpu:       0.1
 (Enter /home/matheus/.gaussian/g09/l401.exe)
 Initial guess read from the read-write file.
 Guess basis will be translated and rotated to current coordinates.
 Initial guess orbital symmetries:
       Occupied  (A) (A) (A) (A) (A) (A) (A) (A) (A) (A) (A) (A)
                 (A) (A) (A) (A) (A) (A)
       Virtual   (A) (A) (A) (A) (A) (A) (A) (A) (A) (A) (A) (A)
                 (A) (A) (A) (A) (A) (A) (A) (A) (A) (A) (A) (A)
                 (A) (A) (A) (A) (A) (A) (A) (A) (A) (A) (A) (A)
                 (A) (A) (A) (A) (A)
 The electronic state of the initial guess is 1-A.
 Generating alternative initial guess.
 Harris functional with IExCor=32609 diagonalized for initial guess.
 ExpMin= 4.00D-02 ExpMax= 1.17D+07 ExpMxC= 1.33D+04 IAcc=3 IRadAn=         5 AccDes= 0.00D+00
 HarFok:  IExCor=32609 AccDes= 0.00D+00 IRadAn=         5 IDoV= 1
 ScaDFX=  1.000000  1.000000  1.000000  1.000000
 FoFCou: FMM=F IPFlag=           0 FMFlag=      100000 FMFlg1=           0
         NFxFlg=           0 DoJE=T BraDBF=F KetDBF=T FulRan=T
         Omega=  0.000000  0.000000  1.000000  0.000000  0.000000 ICntrl=     500 IOpCl=  0
         NMat0=    1 NMatS0=    1 NMatT0=    0 NMatD0=    1 NMtDS0=    0 NMtDT0=    0
         I1Cent=           4 NGrid=           0.
 Petite list used in FoFCou.
 DSYEVD returned Info=          89 IAlg= 4 N=    59 NDim=    59 NE2=    18198841 trying DSYEV.
 Harris En= -2753.24576836237    
 Leave Link  401 at Fri May  8 10:29:07 2020, MaxMem= 1073741824 cpu:       1.2
 (Enter /home/matheus/.gaussian/g09/l502.exe)
 Closed shell SCF:
 Requested convergence on RMS density matrix=1.00D-08 within 128 cycles.
 Requested convergence on MAX density matrix=1.00D-06.
 Requested convergence on             energy=1.00D-06.
 No special actions if energy rises.
 Using DIIS extrapolation, IDIIS=  1040.
 Integral symmetry usage will be decided dynamically.
        30923 words used for storage of precomputed grid.
 IEnd=       64406 IEndB=       64406 NGot=  1073741824 MDV=  1073698889
 LenX=  1073698889 LenY=  1073693687
 Fock matrices will be formed incrementally for  20 cycles.

 Cycle   1  Pass 1  IDiag  1:
 FoFJK:  IHMeth= 1 ICntrl=     0 DoSepK=T KAlg= 1 I1Cent= 0 FoldK=F
 FoFCou: FMM=F IPFlag=           0 FMFlag=      100000 FMFlg1=           0
         NFxFlg=           0 DoJE=T BraDBF=F KetDBF=F FulRan=T
         Omega=  0.000000  0.000000  1.000000  0.000000  0.000000 ICntrl=     500 IOpCl=  0
         NMat0=    1 NMatS0=    1 NMatT0=    0 NMatD0=    1 NMtDS0=    0 NMtDT0=    0
         I1Cent=           0 NGrid=           0.
 Symmetry not used in FoFCou.
 E= -2753.47775989058    
 DIIS: error= 6.27D-14 at cycle   1 NSaved=   1.
 NSaved= 1 IEnMin= 1 EnMin= -2753.47775989058     IErMin= 1 ErrMin= 6.27D-14
 ErrMax= 6.27D-14 EMaxC= 1.00D-01 BMatC= 1.86D-25 BMatP= 1.86D-25
 IDIUse=1 WtCom= 1.00D+00 WtEn= 0.00D+00
 Coeff-Com:  0.100D+01
 Coeff:      0.100D+01
 Gap=     0.626 Goal=   None    Shift=    0.000
 DSYEVD returned Info=          89 IAlg= 4 N=    59 NDim=    59 NE2=    18198197 trying DSYEV.
 RMSDP=6.43D-15 MaxDP=1.43D-13              OVMax= 4.30D-14

 SCF Done:  E(RLC-wPBE) =  -2753.47775989     A.U. after    1 cycles
             Convg  =    0.6435D-14             -V/T =  2.0014
 KE= 2.749561508178D+03 PE=-6.579099712888D+03 EE= 1.076060444820D+03
 Leave Link  502 at Fri May  8 10:29:09 2020, MaxMem= 1073741824 cpu:      12.8
 (Enter /home/matheus/.gaussian/g09/l122.exe)
 Restoring MOs from calculation   1 to rwf.
 Counterpoise: corrected energy =   -2905.007964307125
 Counterpoise: BSSE energy =       0.000024586437
 Leave Link  122 at Fri May  8 10:29:09 2020, MaxMem= 1073741824 cpu:       0.0
 (Enter /home/matheus/.gaussian/g09/l108.exe)
 Scan completed.

 Summary of the potential surface scan:
   N      R1          SCF    
 ----  ---------  -----------
    1     3.0000  -2753.47776
    2     3.1000  -2753.47776
    3     3.2000  -2753.47776
    4     3.3000  -2753.47776
    5     3.4000  -2753.47776
    6     3.5000  -2753.47776
    7     3.6000  -2753.47776
    8     3.7000  -2753.47776
    9     3.8000  -2753.47776
   10     3.9000  -2753.47776
   11     4.0000  -2753.47776
   12     4.1000  -2753.47776
   13     4.2000  -2753.47776
   14     4.3000  -2753.47776
   15     4.4000  -2753.47776
   16     4.5000  -2753.47776
   17     4.6000  -2753.47776
   18     4.7000  -2753.47776
   19     4.8000  -2753.47776
   20     4.9000  -2753.47776
   21     5.0000  -2753.47776
 ----  ---------  -----------
  
 Leave Link  108 at Fri May  8 10:29:09 2020, MaxMem= 1073741824 cpu:       0.0
 (Enter /home/matheus/.gaussian/g09/l9999.exe)

 Test job not archived.
 1\1\GINC-REDGIANT\Scan\RLC-wPBE\Aug-CC-pVTZ\H2Kr1O2\MATHEUS\08-May-202
 0\1\\#p lc-wpbe/aug-cc-PVTz iop(3/107=0550000000) iop(3/108=0550000000
 ) int=ultrafine counterpoise=2 Scan\\TCC\\0,1\O,0,0.,0.,0.725\O,0,0.,0
 .,-0.725\H,0,0.7037808064,0.5905422151,1.0235104166\H,0,0.,0.918720594
 7,-1.0235104166\Kr,0,0.,R1,0.\\R1=3.,s,20,0.1\\Version=EM64L-G09RevC.0
 1\State=1-A\HF=-2753.4777599,-2753.4777599,-2753.4777599,-2753.4777599
 ,-2753.4777599,-2753.4777599,-2753.4777599,-2753.4777599,-2753.4777599
 ,-2753.4777599,-2753.4777599,-2753.4777599,-2753.4777599,-2753.4777599
 ,-2753.4777599,-2753.4777599,-2753.4777599,-2753.4777599,-2753.4777599
 ,-2753.4777599,-2753.4777599\RMSD=1.997e-09,5.419e-11,1.020e-11,4.441e
 -12,2.186e-12,1.222e-12,6.744e-13,3.766e-13,2.075e-13,1.147e-13,6.080e
 -14,3.513e-14,1.808e-14,1.648e-14,1.393e-14,6.595e-15,3.905e-15,4.902e
 -15,6.381e-15,5.687e-15,6.435e-15\PG=C01 [X(H2Kr1O2)]\\@


 SOME PHYSICISTS WOULD PREFER TO COME BACK TO THE IDEA OF AN OBJECTIVE
 REAL WORLD WHOSE SMALLEST PARTS EXIST OBJECTIVELY IN THE SAME SENSE AS
 STONES OR TREES EXIST INDEPENDENTLY OF WHETHER WE OBSERVE THEM.
 THIS, HOWEVER, IS IMPOSSIBLE.  -- WERNER HEISENBERG
 Job cpu time:  0 days  3 hours 29 minutes 53.3 seconds.
 File lengths (MBytes):  RWF=     33 Int=      0 D2E=      0 Chk=      8 Scr=      1
 Normal termination of Gaussian 09 at Fri May  8 10:29:09 2020.
