 Entering Gaussian System, Link 0=g09
 Input=/home/matheus/.tcc/Inputs-lc-wpbe/H2O2-Kr_9.com
 Output=/home/matheus/.tcc/Logs-lc-wpbe/H2O2-Kr_9.log
 Initial command:
 /home/matheus/.gaussian/g09/l1.exe /home/matheus/.gaussian/g09/scratch/Gau-16942.inp -scrdir=/home/matheus/.gaussian/g09/scratch/
 Entering Link 1 = /home/matheus/.gaussian/g09/l1.exe PID=     16945.
  
 Copyright (c) 1988,1990,1992,1993,1995,1998,2003,2009,2011,
            Gaussian, Inc.  All Rights Reserved.
  
 This is part of the Gaussian(R) 09 program.  It is based on
 the Gaussian(R) 03 system (copyright 2003, Gaussian, Inc.),
 the Gaussian(R) 98 system (copyright 1998, Gaussian, Inc.),
 the Gaussian(R) 94 system (copyright 1995, Gaussian, Inc.),
 the Gaussian 92(TM) system (copyright 1992, Gaussian, Inc.),
 the Gaussian 90(TM) system (copyright 1990, Gaussian, Inc.),
 the Gaussian 88(TM) system (copyright 1988, Gaussian, Inc.),
 the Gaussian 86(TM) system (copyright 1986, Carnegie Mellon
 University), and the Gaussian 82(TM) system (copyright 1983,
 Carnegie Mellon University). Gaussian is a federally registered
 trademark of Gaussian, Inc.
  
 This software contains proprietary and confidential information,
 including trade secrets, belonging to Gaussian, Inc.
  
 This software is provided under written license and may be
 used, copied, transmitted, or stored only in accord with that
 written license.
  
 The following legend is applicable only to US Government
 contracts under FAR:
  
                    RESTRICTED RIGHTS LEGEND
  
 Use, reproduction and disclosure by the US Government is
 subject to restrictions as set forth in subparagraphs (a)
 and (c) of the Commercial Computer Software - Restricted
 Rights clause in FAR 52.227-19.
  
 Gaussian, Inc.
 340 Quinnipiac St., Bldg. 40, Wallingford CT 06492
  
  
 ---------------------------------------------------------------
 Warning -- This program may not be used in any manner that
 competes with the business of Gaussian, Inc. or will provide
 assistance to any competitor of Gaussian, Inc.  The licensee
 of this program is prohibited from giving any competitor of
 Gaussian, Inc. access to this program.  By using this program,
 the user acknowledges that Gaussian, Inc. is engaged in the
 business of creating and licensing software in the field of
 computational chemistry and represents and warrants to the
 licensee that it is not a competitor of Gaussian, Inc. and that
 it will not use this program in any manner prohibited above.
 ---------------------------------------------------------------
  

 Cite this work as:
 Gaussian 09, Revision C.01,
 M. J. Frisch, G. W. Trucks, H. B. Schlegel, G. E. Scuseria, 
 M. A. Robb, J. R. Cheeseman, G. Scalmani, V. Barone, B. Mennucci, 
 G. A. Petersson, H. Nakatsuji, M. Caricato, X. Li, H. P. Hratchian, 
 A. F. Izmaylov, J. Bloino, G. Zheng, J. L. Sonnenberg, M. Hada, 
 M. Ehara, K. Toyota, R. Fukuda, J. Hasegawa, M. Ishida, T. Nakajima, 
 Y. Honda, O. Kitao, H. Nakai, T. Vreven, J. A. Montgomery, Jr., 
 J. E. Peralta, F. Ogliaro, M. Bearpark, J. J. Heyd, E. Brothers, 
 K. N. Kudin, V. N. Staroverov, T. Keith, R. Kobayashi, J. Normand, 
 K. Raghavachari, A. Rendell, J. C. Burant, S. S. Iyengar, J. Tomasi, 
 M. Cossi, N. Rega, J. M. Millam, M. Klene, J. E. Knox, J. B. Cross, 
 V. Bakken, C. Adamo, J. Jaramillo, R. Gomperts, R. E. Stratmann, 
 O. Yazyev, A. J. Austin, R. Cammi, C. Pomelli, J. W. Ochterski, 
 R. L. Martin, K. Morokuma, V. G. Zakrzewski, G. A. Voth, 
 P. Salvador, J. J. Dannenberg, S. Dapprich, A. D. Daniels, 
 O. Farkas, J. B. Foresman, J. V. Ortiz, J. Cioslowski, 
 and D. J. Fox, Gaussian, Inc., Wallingford CT, 2010.
 
 ******************************************
 Gaussian 09:  EM64L-G09RevC.01 23-Sep-2011
                 8-May-2020 
 ******************************************
 %mem=8GB
 %nproc=8
 Will use up to    8 processors via shared memory.
 ----------------------------------------------------------------------
 #p lc-wpbe/aug-cc-PVTz iop(3/107=0550000000) iop(3/108=0550000000) int
 =ultrafine counterpoise=2 Scan
 ----------------------------------------------------------------------
 1/38=1,60=1,62=2/1,8;
 2/12=2,17=6,18=5,29=3,40=1/2;
 1/38=1,53=5172,62=2/22;
 3/5=16,6=1,7=10,11=2,16=1,25=1,30=1,74=-41,75=-5,107=550000000,108=550000000/1,2,3;
 4//1;
 5/5=2,38=5/2;
 6/7=2,8=2,9=2,10=2,18=1,28=1/1;
 1/53=4052,62=2,63=1/22;
 3/5=7,6=11,7=10,11=2,16=1,25=1,30=1,74=-41,75=-5,82=7,107=550000000,108=550000000/1,2,3;
 4//1;
 5/5=2,38=5/2;
 6/7=2,8=2,9=2,10=2,18=1,28=1/1;
 1/53=3042,62=2,63=2/22;
 3/5=7,6=11,7=10,11=2,16=1,25=1,30=1,74=-41,75=-5,82=7,107=550000000,108=550000000/1,2,3;
 4//1;
 5/5=2,38=5/2;
 6/7=2,8=2,9=2,10=2,18=1,28=1/1;
 1/53=2032,62=2,63=3/22;
 3/5=7,6=11,7=10,11=2,16=1,25=1,30=1,74=-41,75=-5,82=7,107=550000000,108=550000000/1,2,3;
 4//1;
 5/5=2,38=5/2;
 6/7=2,8=2,9=2,10=2,18=1,28=1/1;
 1/53=1022,62=2,63=4/22;
 3/5=7,6=11,7=10,11=2,16=1,25=1,30=1,74=-41,75=-5,82=7,107=550000000,108=550000000/1,2,3;
 4//1;
 5/5=2,38=5/2;
 6/7=2,8=2,9=2,10=2,18=1,28=1/1;
 1/53=5014,62=2,63=5/22;
 1/60=1,62=2/8(1);
 99/9=1/99;
 2/29=3/2;
 1/53=5173,62=2/22;
 3/5=7,6=11,7=10,11=2,16=1,25=1,30=1,74=-41,75=-5,82=7,107=550000000,108=550000000/1,2,3;
 4/5=5,16=3/1;
 5/5=2,38=5/2;
 1/53=4053,62=2,63=1/22;
 3/5=7,6=11,7=10,11=2,16=1,25=1,30=1,74=-41,75=-5,82=7,107=550000000,108=550000000/1,2,3;
 4/5=5,16=3/1;
 5/5=2,38=5/2;
 1/53=3043,62=2,63=2/22;
 3/5=7,6=11,7=10,11=2,16=1,25=1,30=1,74=-41,75=-5,82=7,107=550000000,108=550000000/1,2,3;
 4/5=5,16=3/1;
 5/5=2,38=5/2;
 1/53=2033,62=2,63=3/22;
 3/5=7,6=11,7=10,11=2,16=1,25=1,30=1,74=-41,75=-5,82=7,107=550000000,108=550000000/1,2,3;
 4/5=5,16=3/1;
 5/5=2,38=5/2;
 1/53=1024,62=2,63=4/22;
 3/5=7,6=11,7=10,11=2,16=1,25=1,30=1,74=-41,75=-5,82=7,107=550000000,108=550000000/1,2,3;
 4/5=5,16=3/1;
 5/5=2,38=5/2;
 1/53=5014,62=2,63=5/22;
 1/60=1,62=2/8(-22);
 99/9=1/99;
 Leave Link    1 at Fri May  8 11:54:41 2020, MaxMem= 1073741824 cpu:       0.2
 (Enter /home/matheus/.gaussian/g09/l101.exe)
 ---
 TCC
 ---
 Charge =  0 Multiplicity = 1 in supermolecule
 Charge =  0 Multiplicity = 1 in fragment  1.
 Charge =  0 Multiplicity = 1 in fragment  2.
 Symbolic Z-Matrix:
 O(Fragment=1)         0.        0.        0.725 
 O(Fragment=1)         0.        0.       -0.725 
 H(Fragment=1)         0.91872   0.        1.02351 
 H(Fragment=1)         0.        0.91872  -1.02351 
 Kr(Fragment=2)        0.       R1        0. 
       Variables:
  R1                    3.     Scan 20    0.1    
 
 NAtoms=      5 NQM=        0 NQMF=       0 NMMI=      5 NMMIF=      0
                NMic=       0 NMicF=      0.
                    Isotopes and Nuclear Properties:
 (Nuclear quadrupole moments (NQMom) in fm**2, nuclear magnetic moments (NMagM)
  in nuclear magnetons)

  Atom         1           2           3           4           5
 IAtWgt=          16          16           1           1          84
 AtmWgt=  15.9949146  15.9949146   1.0078250   1.0078250  83.9115064
 NucSpn=           0           0           1           1           0
 AtZEff=   0.0000000   0.0000000   0.0000000   0.0000000   0.0000000
 NQMom=    0.0000000   0.0000000   0.0000000   0.0000000   0.0000000
 NMagM=    0.0000000   0.0000000   2.7928460   2.7928460   0.0000000
 Leave Link  101 at Fri May  8 11:54:42 2020, MaxMem= 1073741824 cpu:       0.4
 (Enter /home/matheus/.gaussian/g09/l108.exe)
 Scan the potential surface.
 Variable   Value     No. Steps Step-Size
 -------- ----------- --------- ---------
     1       3.000000      20      0.1000
 A total of     21 points will be computed.
 Leave Link  108 at Fri May  8 11:54:42 2020, MaxMem= 1073741824 cpu:       0.0
 (Enter /home/matheus/.gaussian/g09/l202.exe)
 ---------------------------------------------------------------------------------------------------
                            Z-MATRIX (ANGSTROMS AND DEGREES)
   CD    Cent   Atom    N1       Length/X        N2       Alpha/Y        N3        Beta/Z          J
 ---------------------------------------------------------------------------------------------------
      1      1  O        0   0.000000          0.000000          0.725000
      2      2  O        0   0.000000          0.000000         -0.725000
      3      3  H        0   0.918721          0.000000          1.023510
      4      4  H        0   0.000000          0.918721         -1.023510
      5      5  Kr       0   0.000000          3.000000          0.000000
 ---------------------------------------------------------------------------------------------------
                         Z-Matrix orientation:                         
 ---------------------------------------------------------------------
 Center     Atomic      Atomic             Coordinates (Angstroms)
 Number     Number       Type             X           Y           Z
 ---------------------------------------------------------------------
      1          8           0        0.000000    0.000000    0.725000
      2          8           0        0.000000    0.000000   -0.725000
      3          1           0        0.918721    0.000000    1.023510
      4          1           0        0.000000    0.918721   -1.023510
      5         36           0        0.000000    3.000000    0.000000
 ---------------------------------------------------------------------
                    Distance matrix (angstroms):
                    1          2          3          4          5
     1  O    0.000000
     2  O    1.450000   0.000000
     3  H    0.966000   1.975180   0.000000
     4  H    1.975180   0.966000   2.424539   0.000000
     5  Kr   3.086361   3.086361   3.300246   2.319331   0.000000
 Stoichiometry    H2KrO2
 Framework group  C1[X(H2KrO2)]
 Deg. of freedom     9
 Full point group                 C1      NOp   1
 Largest Abelian subgroup         C1      NOp   1
 Largest concise Abelian subgroup C1      NOp   1
                         Standard orientation:                         
 ---------------------------------------------------------------------
 Center     Atomic      Atomic             Coordinates (Angstroms)
 Number     Number       Type             X           Y           Z
 ---------------------------------------------------------------------
      1          8           0        2.023612   -0.696492   -0.118952
      2          8           0        2.008959    0.747023    0.017247
      3          1           0        2.043021   -1.079789    0.767536
      4          1           0        1.087415    1.033416    0.060735
      5         36           0       -0.983084   -0.009941   -0.000406
 ---------------------------------------------------------------------
 Rotational constants (GHZ):     25.5933462      2.3453767      2.1627661
 Leave Link  202 at Fri May  8 11:54:42 2020, MaxMem= 1073741824 cpu:       0.0
 (Enter /home/matheus/.gaussian/g09/l122.exe)
 Leave Link  122 at Fri May  8 11:54:42 2020, MaxMem= 1073741824 cpu:       0.0
 (Enter /home/matheus/.gaussian/g09/l301.exe)
 Standard basis: Aug-CC-pVTZ (5D, 7F)
 Ernie: Thresh=  0.10000D-02 Tol=  0.10000D-05 Strict=F.
 Ernie:  38 primitive shells out of 205 were deleted.
 There are   197 symmetry adapted basis functions of A   symmetry.
 Integral buffers will be    131072 words long.
 Raffenetti 2 integral format.
 Two-electron integral symmetry is turned on.
   197 basis functions,   415 primitive gaussians,   229 cartesian basis functions
    27 alpha electrons       27 beta electrons
       nuclear repulsion energy       149.3716944117 Hartrees.
 IExCor=32609 DFT=T Ex+Corr=LC-wPBE ExCW=0 ScaHFX=  1.000000
 ScaDFX=  1.000000  0.000000  1.000000  1.000000 ScalE2=  1.000000  1.000000
 IRadAn=      5 IRanWt=     -1 IRanGd=            0 ICorTp=0
  HFx wShort=  0.000000 wLong=  0.550000 cFull=  0.000000 cShort=  0.000000 cLong=  1.000000
  DFx wShort=  0.000000 wLong=  0.550000 cFull=  0.000000 cShort=  0.000000 cLong=  1.000000
 NAtoms=    5 NActive=    5 NUniq=    5 SFac= 1.00D+00 NAtFMM=   60 NAOKFM=F Big=F
 Leave Link  301 at Fri May  8 11:54:42 2020, MaxMem= 1073741824 cpu:       0.2
 (Enter /home/matheus/.gaussian/g09/l302.exe)
 NPDir=0 NMtPBC=     1 NCelOv=     1 NCel=       1 NClECP=     1 NCelD=      1
         NCelK=      1 NCelE2=     1 NClLst=     1 CellRange=     0.0.
 One-electron integrals computed using PRISM.
 NBasis=   197 RedAO= T  NBF=   197
 NBsUse=   197 1.00D-06 NBFU=   197
 Precomputing XC quadrature grid using
 IXCGrd= 2 IRadAn=           5 IRanWt=          -1 IRanGd=           0 AccXCQ= 0.00D+00.
 NRdTot=     427 NPtTot=      123512 NUsed=      126579 NTot=      126611
 NSgBfM=   229   229   229   229   229 NAtAll=     5     5.
 Leave Link  302 at Fri May  8 11:54:42 2020, MaxMem= 1073741824 cpu:       1.1
 (Enter /home/matheus/.gaussian/g09/l303.exe)
 DipDrv:  MaxL=1.
 Leave Link  303 at Fri May  8 11:54:42 2020, MaxMem= 1073741824 cpu:       0.2
 (Enter /home/matheus/.gaussian/g09/l401.exe)
 Harris functional with IExCor=32609 diagonalized for initial guess.
 ExpMin= 2.53D-02 ExpMax= 1.17D+07 ExpMxC= 1.33D+04 IAcc=3 IRadAn=         5 AccDes= 0.00D+00
 HarFok:  IExCor=32609 AccDes= 0.00D+00 IRadAn=         5 IDoV= 1
 ScaDFX=  1.000000  1.000000  1.000000  1.000000
 FoFCou: FMM=F IPFlag=           0 FMFlag=      100000 FMFlg1=           0
         NFxFlg=           0 DoJE=T BraDBF=F KetDBF=T FulRan=T
         Omega=  0.000000  0.000000  1.000000  0.000000  0.000000 ICntrl=     500 IOpCl=  0
         NMat0=    1 NMatS0=    1 NMatT0=    0 NMatD0=    1 NMtDS0=    0 NMtDT0=    0
         I1Cent=           4 NGrid=           0.
 Petite list used in FoFCou.
 Harris En= -2904.73979583069    
 Initial guess orbital symmetries:
       Occupied  (A) (A) (A) (A) (A) (A) (A) (A) (A) (A) (A) (A)
                 (A) (A) (A) (A) (A) (A) (A) (A) (A) (A) (A) (A)
                 (A) (A) (A)
       Virtual   (A) (A) (A) (A) (A) (A) (A) (A) (A) (A) (A) (A)
                 (A) (A) (A) (A) (A) (A) (A) (A) (A) (A) (A) (A)
                 (A) (A) (A) (A) (A) (A) (A) (A) (A) (A) (A) (A)
                 (A) (A) (A) (A) (A) (A) (A) (A) (A) (A) (A) (A)
                 (A) (A) (A) (A) (A) (A) (A) (A) (A) (A) (A) (A)
                 (A) (A) (A) (A) (A) (A) (A) (A) (A) (A) (A) (A)
                 (A) (A) (A) (A) (A) (A) (A) (A) (A) (A) (A) (A)
                 (A) (A) (A) (A) (A) (A) (A) (A) (A) (A) (A) (A)
                 (A) (A) (A) (A) (A) (A) (A) (A) (A) (A) (A) (A)
                 (A) (A) (A) (A) (A) (A) (A) (A) (A) (A) (A) (A)
                 (A) (A) (A) (A) (A) (A) (A) (A) (A) (A) (A) (A)
                 (A) (A) (A) (A) (A) (A) (A) (A) (A) (A) (A) (A)
                 (A) (A) (A) (A) (A) (A) (A) (A) (A) (A) (A) (A)
                 (A) (A) (A) (A) (A) (A) (A) (A) (A) (A) (A) (A)
                 (A) (A)
 The electronic state of the initial guess is 1-A.
 Leave Link  401 at Fri May  8 11:54:42 2020, MaxMem= 1073741824 cpu:       4.9
 (Enter /home/matheus/.gaussian/g09/l502.exe)
 Closed shell SCF:
 Requested convergence on RMS density matrix=1.00D-08 within 128 cycles.
 Requested convergence on MAX density matrix=1.00D-06.
 Requested convergence on             energy=1.00D-06.
 No special actions if energy rises.
 Using DIIS extrapolation, IDIIS=  1040.
 Integral symmetry usage will be decided dynamically.
       126521 words used for storage of precomputed grid.
 IEnd=      305468 IEndB=      305468 NGot=  1073741824 MDV=  1073505667
 LenX=  1073505667 LenY=  1073452785
 Fock matrices will be formed incrementally for  20 cycles.

 Cycle   1  Pass 1  IDiag  1:
 FoFJK:  IHMeth= 1 ICntrl=     0 DoSepK=T KAlg= 1 I1Cent= 0 FoldK=F
 FoFCou: FMM=F IPFlag=           0 FMFlag=      100000 FMFlg1=           0
         NFxFlg=           0 DoJE=T BraDBF=F KetDBF=F FulRan=T
         Omega=  0.000000  0.000000  1.000000  0.000000  0.000000 ICntrl=     500 IOpCl=  0
         NMat0=    1 NMatS0=    1 NMatT0=    0 NMatD0=    1 NMtDS0=    0 NMtDT0=    0
         I1Cent=           0 NGrid=           0.
 Symmetry not used in FoFCou.
 E= -2904.93376261708    
 DIIS: error= 2.49D-02 at cycle   1 NSaved=   1.
 NSaved= 1 IEnMin= 1 EnMin= -2904.93376261708     IErMin= 1 ErrMin= 2.49D-02
 ErrMax= 2.49D-02 EMaxC= 1.00D-01 BMatC= 2.66D-01 BMatP= 2.66D-01
 IDIUse=3 WtCom= 7.51D-01 WtEn= 2.49D-01
 Coeff-Com:  0.100D+01
 Coeff-En:   0.100D+01
 Coeff:      0.100D+01
 Gap=     0.582 Goal=   None    Shift=    0.000
 GapD=    0.582 DampG=2.000 DampE=0.500 DampFc=1.0000 IDamp=-1.
 RMSDP=2.20D-03 MaxDP=1.43D-01              OVMax= 5.86D-02

 Cycle   2  Pass 1  IDiag  1:
 RMSU=  1.53D-03    CP:  1.02D+00
 FoFJK:  IHMeth= 1 ICntrl=     0 DoSepK=T KAlg= 1 I1Cent= 0 FoldK=F
 E= -2904.98366586803     Delta-E=       -0.049903250948 Rises=F Damp=F
 DIIS: error= 9.95D-03 at cycle   2 NSaved=   2.
 NSaved= 2 IEnMin= 2 EnMin= -2904.98366586803     IErMin= 2 ErrMin= 9.95D-03
 ErrMax= 9.95D-03 EMaxC= 1.00D-01 BMatC= 6.71D-02 BMatP= 2.66D-01
 IDIUse=3 WtCom= 9.00D-01 WtEn= 9.95D-02
 Coeff-Com:  0.327D+00 0.673D+00
 Coeff-En:   0.897D-01 0.910D+00
 Coeff:      0.303D+00 0.697D+00
 Gap=     0.505 Goal=   None    Shift=    0.000
 RMSDP=8.75D-04 MaxDP=4.97D-02 DE=-4.99D-02 OVMax= 2.54D-02

 Cycle   3  Pass 1  IDiag  1:
 RMSU=  3.08D-04    CP:  1.01D+00  6.61D-01
 FoFJK:  IHMeth= 1 ICntrl=     0 DoSepK=T KAlg= 1 I1Cent= 0 FoldK=F
 E= -2905.00648417745     Delta-E=       -0.022818309416 Rises=F Damp=F
 DIIS: error= 1.76D-03 at cycle   3 NSaved=   3.
 NSaved= 3 IEnMin= 3 EnMin= -2905.00648417745     IErMin= 3 ErrMin= 1.76D-03
 ErrMax= 1.76D-03 EMaxC= 1.00D-01 BMatC= 1.30D-03 BMatP= 6.71D-02
 IDIUse=3 WtCom= 9.82D-01 WtEn= 1.76D-02
 Coeff-Com:  0.399D-01 0.166D+00 0.794D+00
 Coeff-En:   0.000D+00 0.000D+00 0.100D+01
 Coeff:      0.392D-01 0.163D+00 0.798D+00
 Gap=     0.489 Goal=   None    Shift=    0.000
 RMSDP=9.72D-05 MaxDP=2.76D-03 DE=-2.28D-02 OVMax= 5.71D-03

 Cycle   4  Pass 1  IDiag  1:
 RMSU=  4.96D-05    CP:  1.01D+00  6.90D-01  9.51D-01
 FoFJK:  IHMeth= 1 ICntrl=     0 DoSepK=T KAlg= 1 I1Cent= 0 FoldK=F
 E= -2905.00713585522     Delta-E=       -0.000651677769 Rises=F Damp=F
 DIIS: error= 4.16D-04 at cycle   4 NSaved=   4.
 NSaved= 4 IEnMin= 4 EnMin= -2905.00713585522     IErMin= 4 ErrMin= 4.16D-04
 ErrMax= 4.16D-04 EMaxC= 1.00D-01 BMatC= 8.47D-05 BMatP= 1.30D-03
 IDIUse=3 WtCom= 9.96D-01 WtEn= 4.16D-03
 Coeff-Com: -0.592D-02 0.179D-01 0.269D+00 0.719D+00
 Coeff-En:   0.000D+00 0.000D+00 0.000D+00 0.100D+01
 Coeff:     -0.589D-02 0.178D-01 0.268D+00 0.720D+00
 Gap=     0.493 Goal=   None    Shift=    0.000
 RMSDP=3.10D-05 MaxDP=1.85D-03 DE=-6.52D-04 OVMax= 1.71D-03

 Cycle   5  Pass 1  IDiag  1:
 RMSU=  1.27D-05    CP:  1.01D+00  6.93D-01  1.00D+00  8.68D-01
 FoFJK:  IHMeth= 1 ICntrl=     0 DoSepK=T KAlg= 1 I1Cent= 0 FoldK=F
 E= -2905.00718796958     Delta-E=       -0.000052114364 Rises=F Damp=F
 DIIS: error= 7.34D-05 at cycle   5 NSaved=   5.
 NSaved= 5 IEnMin= 5 EnMin= -2905.00718796958     IErMin= 5 ErrMin= 7.34D-05
 ErrMax= 7.34D-05 EMaxC= 1.00D-01 BMatC= 2.64D-06 BMatP= 8.47D-05
 IDIUse=1 WtCom= 1.00D+00 WtEn= 0.00D+00
 Coeff-Com: -0.253D-02-0.479D-02 0.439D-02 0.125D+00 0.878D+00
 Coeff:     -0.253D-02-0.479D-02 0.439D-02 0.125D+00 0.878D+00
 Gap=     0.493 Goal=   None    Shift=    0.000
 RMSDP=7.23D-06 MaxDP=2.40D-04 DE=-5.21D-05 OVMax= 5.24D-04

 Cycle   6  Pass 1  IDiag  1:
 RMSU=  3.76D-06    CP:  1.01D+00  6.93D-01  1.01D+00  9.26D-01  1.09D+00
 FoFJK:  IHMeth= 1 ICntrl=     0 DoSepK=T KAlg= 1 I1Cent= 0 FoldK=F
 E= -2905.00719007453     Delta-E=       -0.000002104954 Rises=F Damp=F
 DIIS: error= 4.36D-05 at cycle   6 NSaved=   6.
 NSaved= 6 IEnMin= 6 EnMin= -2905.00719007453     IErMin= 6 ErrMin= 4.36D-05
 ErrMax= 4.36D-05 EMaxC= 1.00D-01 BMatC= 8.36D-07 BMatP= 2.64D-06
 IDIUse=1 WtCom= 1.00D+00 WtEn= 0.00D+00
 Coeff-Com: -0.428D-03-0.430D-02-0.299D-01-0.250D-01 0.383D+00 0.677D+00
 Coeff:     -0.428D-03-0.430D-02-0.299D-01-0.250D-01 0.383D+00 0.677D+00
 Gap=     0.493 Goal=   None    Shift=    0.000
 RMSDP=3.28D-06 MaxDP=1.45D-04 DE=-2.10D-06 OVMax= 2.14D-04

 Cycle   7  Pass 1  IDiag  1:
 RMSU=  1.53D-06    CP:  1.01D+00  6.93D-01  1.01D+00  9.44D-01  1.19D+00
                    CP:  8.66D-01
 FoFJK:  IHMeth= 1 ICntrl=     0 DoSepK=T KAlg= 1 I1Cent= 0 FoldK=F
 E= -2905.00719064306     Delta-E=       -0.000000568529 Rises=F Damp=F
 DIIS: error= 1.26D-05 at cycle   7 NSaved=   7.
 NSaved= 7 IEnMin= 7 EnMin= -2905.00719064306     IErMin= 7 ErrMin= 1.26D-05
 ErrMax= 1.26D-05 EMaxC= 1.00D-01 BMatC= 6.26D-08 BMatP= 8.36D-07
 IDIUse=1 WtCom= 1.00D+00 WtEn= 0.00D+00
 Coeff-Com:  0.126D-03-0.764D-03-0.914D-02-0.210D-01-0.185D-02 0.213D+00
 Coeff-Com:  0.820D+00
 Coeff:      0.126D-03-0.764D-03-0.914D-02-0.210D-01-0.185D-02 0.213D+00
 Coeff:      0.820D+00
 Gap=     0.493 Goal=   None    Shift=    0.000
 RMSDP=1.25D-06 MaxDP=5.90D-05 DE=-5.69D-07 OVMax= 8.88D-05

 Cycle   8  Pass 1  IDiag  1:
 RMSU=  4.71D-07    CP:  1.01D+00  6.93D-01  1.01D+00  9.50D-01  1.23D+00
                    CP:  9.85D-01  1.00D+00
 FoFJK:  IHMeth= 1 ICntrl=     0 DoSepK=T KAlg= 1 I1Cent= 0 FoldK=F
 E= -2905.00719068941     Delta-E=       -0.000000046349 Rises=F Damp=F
 DIIS: error= 2.50D-06 at cycle   8 NSaved=   8.
 NSaved= 8 IEnMin= 8 EnMin= -2905.00719068941     IErMin= 8 ErrMin= 2.50D-06
 ErrMax= 2.50D-06 EMaxC= 1.00D-01 BMatC= 2.28D-09 BMatP= 6.26D-08
 IDIUse=1 WtCom= 1.00D+00 WtEn= 0.00D+00
 Coeff-Com:  0.142D-04 0.479D-03 0.395D-02 0.584D-02-0.270D-01-0.954D-01
 Coeff-Com: -0.178D+00 0.129D+01
 Coeff:      0.142D-04 0.479D-03 0.395D-02 0.584D-02-0.270D-01-0.954D-01
 Coeff:     -0.178D+00 0.129D+01
 Gap=     0.493 Goal=   None    Shift=    0.000
 RMSDP=5.70D-07 MaxDP=1.83D-05 DE=-4.63D-08 OVMax= 4.95D-05

 Cycle   9  Pass 1  IDiag  1:
 RMSU=  1.20D-07    CP:  1.01D+00  6.93D-01  1.01D+00  9.52D-01  1.24D+00
                    CP:  1.00D+00  1.09D+00  1.58D+00
 FoFJK:  IHMeth= 1 ICntrl=     0 DoSepK=T KAlg= 1 I1Cent= 0 FoldK=F
 E= -2905.00719069791     Delta-E=       -0.000000008503 Rises=F Damp=F
 DIIS: error= 7.16D-07 at cycle   9 NSaved=   9.
 NSaved= 9 IEnMin= 9 EnMin= -2905.00719069791     IErMin= 9 ErrMin= 7.16D-07
 ErrMax= 7.16D-07 EMaxC= 1.00D-01 BMatC= 1.23D-10 BMatP= 2.28D-09
 IDIUse=1 WtCom= 1.00D+00 WtEn= 0.00D+00
 Coeff-Com: -0.937D-05-0.472D-04-0.249D-03-0.548D-04 0.489D-02 0.647D-02
 Coeff-Com: -0.943D-02-0.215D+00 0.121D+01
 Coeff:     -0.937D-05-0.472D-04-0.249D-03-0.548D-04 0.489D-02 0.647D-02
 Coeff:     -0.943D-02-0.215D+00 0.121D+01
 Gap=     0.493 Goal=   None    Shift=    0.000
 RMSDP=1.64D-07 MaxDP=6.56D-06 DE=-8.50D-09 OVMax= 1.76D-05

 Cycle  10  Pass 1  IDiag  1:
 RMSU=  3.84D-08    CP:  1.01D+00  6.93D-01  1.01D+00  9.52D-01  1.24D+00
                    CP:  1.00D+00  1.09D+00  1.74D+00  1.43D+00
 FoFJK:  IHMeth= 1 ICntrl=     0 DoSepK=T KAlg= 1 I1Cent= 0 FoldK=F
 E= -2905.00719069847     Delta-E=       -0.000000000558 Rises=F Damp=F
 DIIS: error= 2.54D-07 at cycle  10 NSaved=  10.
 NSaved=10 IEnMin=10 EnMin= -2905.00719069847     IErMin=10 ErrMin= 2.54D-07
 ErrMax= 2.54D-07 EMaxC= 1.00D-01 BMatC= 1.75D-11 BMatP= 1.23D-10
 IDIUse=1 WtCom= 1.00D+00 WtEn= 0.00D+00
 Coeff-Com: -0.257D-06-0.357D-04-0.305D-03-0.573D-03 0.191D-02 0.836D-02
 Coeff-Com:  0.175D-01-0.105D+00-0.102D+00 0.118D+01
 Coeff:     -0.257D-06-0.357D-04-0.305D-03-0.573D-03 0.191D-02 0.836D-02
 Coeff:      0.175D-01-0.105D+00-0.102D+00 0.118D+01
 Gap=     0.493 Goal=   None    Shift=    0.000
 RMSDP=5.84D-08 MaxDP=1.79D-06 DE=-5.58D-10 OVMax= 7.61D-06

 Cycle  11  Pass 1  IDiag  1:
 RMSU=  1.22D-08    CP:  1.01D+00  6.93D-01  1.01D+00  9.52D-01  1.24D+00
                    CP:  1.00D+00  1.09D+00  1.78D+00  1.61D+00  1.48D+00
 FoFJK:  IHMeth= 1 ICntrl=     0 DoSepK=T KAlg= 1 I1Cent= 0 FoldK=F
 E= -2905.00719069854     Delta-E=       -0.000000000070 Rises=F Damp=F
 DIIS: error= 7.13D-08 at cycle  11 NSaved=  11.
 NSaved=11 IEnMin=11 EnMin= -2905.00719069854     IErMin=11 ErrMin= 7.13D-08
 ErrMax= 7.13D-08 EMaxC= 1.00D-01 BMatC= 2.04D-12 BMatP= 1.75D-11
 IDIUse=1 WtCom= 1.00D+00 WtEn= 0.00D+00
 Coeff-Com:  0.119D-05 0.111D-04 0.790D-04 0.743D-04-0.975D-03-0.178D-02
 Coeff-Com: -0.170D-03 0.403D-01-0.152D+00-0.135D+00 0.125D+01
 Coeff:      0.119D-05 0.111D-04 0.790D-04 0.743D-04-0.975D-03-0.178D-02
 Coeff:     -0.170D-03 0.403D-01-0.152D+00-0.135D+00 0.125D+01
 Gap=     0.493 Goal=   None    Shift=    0.000
 RMSDP=2.03D-08 MaxDP=3.88D-07 DE=-6.96D-11 OVMax= 3.11D-06

 Cycle  12  Pass 1  IDiag  1:
 RMSU=  3.96D-09    CP:  1.01D+00  6.93D-01  1.01D+00  9.52D-01  1.24D+00
                    CP:  1.00D+00  1.09D+00  1.79D+00  1.66D+00  1.73D+00
                    CP:  1.48D+00
 FoFJK:  IHMeth= 1 ICntrl=     0 DoSepK=T KAlg= 1 I1Cent= 0 FoldK=F
 E= -2905.00719069854     Delta-E=        0.000000000005 Rises=F Damp=F
 DIIS: error= 2.63D-08 at cycle  12 NSaved=  12.
 NSaved=12 IEnMin=11 EnMin= -2905.00719069854     IErMin=12 ErrMin= 2.63D-08
 ErrMax= 2.63D-08 EMaxC= 1.00D-01 BMatC= 1.51D-13 BMatP= 2.04D-12
 IDIUse=1 WtCom= 1.00D+00 WtEn= 0.00D+00
 Coeff-Com: -0.634D-07 0.351D-05 0.312D-04 0.673D-04-0.218D-03-0.906D-03
 Coeff-Com: -0.171D-02 0.113D-01 0.135D-01-0.107D+00-0.325D-01 0.112D+01
 Coeff:     -0.634D-07 0.351D-05 0.312D-04 0.673D-04-0.218D-03-0.906D-03
 Coeff:     -0.171D-02 0.113D-01 0.135D-01-0.107D+00-0.325D-01 0.112D+01
 Gap=     0.493 Goal=   None    Shift=    0.000
 RMSDP=4.50D-09 MaxDP=1.25D-07 DE= 4.55D-12 OVMax= 6.01D-07

 SCF Done:  E(RLC-wPBE) =  -2905.00719070     A.U. after   12 cycles
             Convg  =    0.4504D-08             -V/T =  2.0017
 KE= 2.900039780117D+03 PE=-7.235597707633D+03 EE= 1.281179042406D+03
 Leave Link  502 at Fri May  8 11:55:32 2020, MaxMem= 1073741824 cpu:     392.7
 (Enter /home/matheus/.gaussian/g09/l601.exe)
 Copying SCF densities to generalized density rwf, IOpCl= 0 IROHF=0.

 **********************************************************************

            Population analysis using the SCF density.

 **********************************************************************

 Orbital symmetries:
       Occupied  (A) (A) (A) (A) (A) (A) (A) (A) (A) (A) (A) (A)
                 (A) (A) (A) (A) (A) (A) (A) (A) (A) (A) (A) (A)
                 (A) (A) (A)
       Virtual   (A) (A) (A) (A) (A) (A) (A) (A) (A) (A) (A) (A)
                 (A) (A) (A) (A) (A) (A) (A) (A) (A) (A) (A) (A)
                 (A) (A) (A) (A) (A) (A) (A) (A) (A) (A) (A) (A)
                 (A) (A) (A) (A) (A) (A) (A) (A) (A) (A) (A) (A)
                 (A) (A) (A) (A) (A) (A) (A) (A) (A) (A) (A) (A)
                 (A) (A) (A) (A) (A) (A) (A) (A) (A) (A) (A) (A)
                 (A) (A) (A) (A) (A) (A) (A) (A) (A) (A) (A) (A)
                 (A) (A) (A) (A) (A) (A) (A) (A) (A) (A) (A) (A)
                 (A) (A) (A) (A) (A) (A) (A) (A) (A) (A) (A) (A)
                 (A) (A) (A) (A) (A) (A) (A) (A) (A) (A) (A) (A)
                 (A) (A) (A) (A) (A) (A) (A) (A) (A) (A) (A) (A)
                 (A) (A) (A) (A) (A) (A) (A) (A) (A) (A) (A) (A)
                 (A) (A) (A) (A) (A) (A) (A) (A) (A) (A) (A) (A)
                 (A) (A) (A) (A) (A) (A) (A) (A) (A) (A) (A) (A)
                 (A) (A)
 The electronic state is 1-A.
 Alpha  occ. eigenvalues -- -511.20118 -66.74958 -60.41077 -60.41061 -60.41051
 Alpha  occ. eigenvalues --  -19.11380 -19.11049  -9.68530  -7.42822  -7.42775
 Alpha  occ. eigenvalues --   -7.42745  -3.37224  -3.37215  -3.37194  -3.37158
 Alpha  occ. eigenvalues --   -3.37155  -1.32204  -1.10736  -1.09416  -0.72435
 Alpha  occ. eigenvalues --   -0.64748  -0.58948  -0.54628  -0.54242  -0.53395
 Alpha  occ. eigenvalues --   -0.46585  -0.46082
 Alpha virt. eigenvalues --    0.03221   0.04278   0.08481   0.09606   0.11206
 Alpha virt. eigenvalues --    0.11448   0.13822   0.14156   0.17331   0.18108
 Alpha virt. eigenvalues --    0.18579   0.20455   0.20708   0.22542   0.24256
 Alpha virt. eigenvalues --    0.25309   0.26695   0.29096   0.31958   0.33218
 Alpha virt. eigenvalues --    0.34350   0.36054   0.37621   0.39616   0.40221
 Alpha virt. eigenvalues --    0.41604   0.44054   0.48711   0.54047   0.56253
 Alpha virt. eigenvalues --    0.57107   0.61870   0.62885   0.66142   0.70027
 Alpha virt. eigenvalues --    0.72705   0.73363   0.75240   0.77537   0.77617
 Alpha virt. eigenvalues --    0.78663   0.79306   0.80776   0.82260   0.84849
 Alpha virt. eigenvalues --    0.86209   0.88463   0.90577   0.91447   0.92716
 Alpha virt. eigenvalues --    0.94052   0.94849   0.96700   0.97545   1.00452
 Alpha virt. eigenvalues --    1.02217   1.05501   1.08312   1.08921   1.10644
 Alpha virt. eigenvalues --    1.12043   1.17843   1.20439   1.24634   1.25451
 Alpha virt. eigenvalues --    1.27156   1.30657   1.38028   1.39889   1.43021
 Alpha virt. eigenvalues --    1.46470   1.51307   1.53478   1.56538   1.61652
 Alpha virt. eigenvalues --    1.71431   1.74228   1.85732   1.94756   1.98714
 Alpha virt. eigenvalues --    2.02228   2.06883   2.08574   2.13992   2.18274
 Alpha virt. eigenvalues --    2.20706   2.21795   2.23179   2.26822   2.30003
 Alpha virt. eigenvalues --    2.31617   2.33449   2.35201   2.35769   2.36619
 Alpha virt. eigenvalues --    2.42366   2.42726   2.49745   2.50035   2.51428
 Alpha virt. eigenvalues --    2.53706   2.53833   2.56218   2.60223   2.61846
 Alpha virt. eigenvalues --    2.64226   2.66601   2.71012   2.72045   2.75169
 Alpha virt. eigenvalues --    2.77445   2.79193   2.81118   2.88194   2.92089
 Alpha virt. eigenvalues --    2.98820   3.08615   3.15050   3.17626   3.66516
 Alpha virt. eigenvalues --    3.68918   3.94854   3.97148   4.04498   4.13213
 Alpha virt. eigenvalues --    4.20624   4.22631   4.24165   4.28866   4.32733
 Alpha virt. eigenvalues --    4.37342   4.53289   4.55204   4.60277   4.73486
 Alpha virt. eigenvalues --    4.95446   5.01356   5.03253   5.19861   5.20862
 Alpha virt. eigenvalues --    5.25215   5.47896   5.89058   6.08368   6.18332
 Alpha virt. eigenvalues --    6.24233   6.33156   6.34970   6.50692   6.52989
 Alpha virt. eigenvalues --    6.63679   6.81995   6.82713   6.85661   6.88855
 Alpha virt. eigenvalues --    6.92583   6.94018   6.96027   7.02574   7.04916
 Alpha virt. eigenvalues --    7.11901   7.17482   7.27803   7.49786   7.64844
 Alpha virt. eigenvalues --    7.83318   8.13759   8.16291  14.04423  14.63977
          Condensed to atoms (all electrons):
              1          2          3          4          5
     1  O    8.234581  -0.197120   0.201416   0.001527  -0.024284
     2  O   -0.197120   8.243402   0.011786   0.196938  -0.012088
     3  H    0.201416   0.011786   0.566402   0.000948  -0.002300
     4  H    0.001527   0.196938   0.000948   0.581636  -0.013211
     5  Kr  -0.024284  -0.012088  -0.002300  -0.013211  36.046756
 Mulliken atomic charges:
              1
     1  O   -0.216119
     2  O   -0.242919
     3  H    0.221749
     4  H    0.232162
     5  Kr   0.005127
 Sum of Mulliken atomic charges =   0.00000
 Mulliken charges with hydrogens summed into heavy atoms:
              1
     1  O    0.005629
     2  O   -0.010756
     5  Kr   0.005127
 Sum of Mulliken charges with hydrogens summed into heavy atoms =   0.00000
          Condensed to fragments (all electrons):
     1      -0.005127
     2       0.005127
 Electronic spatial extent (au):  <R**2>=            483.8228
 Charge=              0.0000 electrons
 Dipole moment (field-independent basis, Debye):
    X=             -1.8048    Y=             -0.4002    Z=              1.5397  Tot=              2.4059
 Quadrupole moment (field-independent basis, Debye-Ang):
   XX=            -34.7103   YY=            -27.7291   ZZ=            -28.8074
   XY=             -2.3469   XZ=              3.3407   YZ=             -1.9008
 Traceless Quadrupole moment (field-independent basis, Debye-Ang):
   XX=             -4.2947   YY=              2.6865   ZZ=              1.6082
   XY=             -2.3469   XZ=              3.3407   YZ=             -1.9008
 Octapole moment (field-independent basis, Debye-Ang**2):
  XXX=            -34.6042  YYY=             -1.1115  ZZZ=              1.3020  XYY=             -5.1676
  XXY=             -7.3664  XXZ=              6.6058  XZZ=             -5.2670  YZZ=             -1.9161
  YYZ=              2.3956  XYZ=             -4.0489
 Hexadecapole moment (field-independent basis, Debye-Ang**3):
 XXXX=           -449.5494 YYYY=            -62.1902 ZZZZ=            -28.9779 XXXY=            -16.0507
 XXXZ=             14.6105 YYYX=             -4.3755 YYYZ=             -2.8180 ZZZX=              3.1998
 ZZZY=             -2.0993 XXYY=            -80.1600 XXZZ=            -71.0255 YYZZ=            -15.5408
 XXYZ=             -8.7416 YYXZ=              4.9212 ZZXY=             -3.7314
 N-N= 1.493716944117D+02 E-N=-7.235597706603D+03  KE= 2.900039780117D+03
 No NMR shielding tensors so no spin-rotation constants.
 Leave Link  601 at Fri May  8 11:55:32 2020, MaxMem= 1073741824 cpu:       0.8
 (Enter /home/matheus/.gaussian/g09/l122.exe)
 Counterpoise: doing DCBS calculation for fragment   1 NewBq=T
 Leave Link  122 at Fri May  8 11:55:32 2020, MaxMem= 1073741824 cpu:       0.0
 (Enter /home/matheus/.gaussian/g09/l301.exe)
 Basis read from rwf:  (5D, 7F)
 No pseudopotential information found on rwf file.
 There are   197 symmetry adapted basis functions of A   symmetry.
 Integral buffers will be    131072 words long.
 Raffenetti 2 integral format.
 Two-electron integral symmetry is turned on.
   197 basis functions,   415 primitive gaussians,   229 cartesian basis functions
     9 alpha electrons        9 beta electrons
       nuclear repulsion energy        36.6265003879 Hartrees.
 IExCor=32609 DFT=T Ex+Corr=LC-wPBE ExCW=0 ScaHFX=  1.000000
 ScaDFX=  1.000000  0.000000  1.000000  1.000000 ScalE2=  1.000000  1.000000
 IRadAn=      5 IRanWt=     -1 IRanGd=            0 ICorTp=0
  HFx wShort=  0.000000 wLong=  0.550000 cFull=  0.000000 cShort=  0.000000 cLong=  1.000000
  DFx wShort=  0.000000 wLong=  0.550000 cFull=  0.000000 cShort=  0.000000 cLong=  1.000000
 NAtoms=    5 NActive=    5 NUniq=    5 SFac= 1.00D+00 NAtFMM=   60 NAOKFM=F Big=F
 No density basis found on file   718.
 Leave Link  301 at Fri May  8 11:55:32 2020, MaxMem= 1073741824 cpu:       0.3
 (Enter /home/matheus/.gaussian/g09/l302.exe)
 NPDir=0 NMtPBC=     1 NCelOv=     1 NCel=       1 NClECP=     1 NCelD=      1
         NCelK=      1 NCelE2=     1 NClLst=     1 CellRange=     0.0.
 One-electron integrals computed using PRISM.
 NBasis=   197 RedAO= T  NBF=   197
 NBsUse=   197 1.00D-06 NBFU=   197
 Precomputing XC quadrature grid using
 IXCGrd= 2 IRadAn=           5 IRanWt=          -1 IRanGd=           0 AccXCQ= 0.00D+00.
 NRdTot=     427 NPtTot=      123512 NUsed=      126579 NTot=      126611
 NSgBfM=   229   229   229   229   229 NAtAll=     5     5.
 Leave Link  302 at Fri May  8 11:55:32 2020, MaxMem= 1073741824 cpu:       1.2
 (Enter /home/matheus/.gaussian/g09/l303.exe)
 DipDrv:  MaxL=1.
 Leave Link  303 at Fri May  8 11:55:32 2020, MaxMem= 1073741824 cpu:       0.2
 (Enter /home/matheus/.gaussian/g09/l401.exe)
 Harris functional with IExCor=32609 diagonalized for initial guess.
 ExpMin= 2.53D-02 ExpMax= 1.17D+07 ExpMxC= 1.33D+04 IAcc=3 IRadAn=         5 AccDes= 0.00D+00
 HarFok:  IExCor=32609 AccDes= 0.00D+00 IRadAn=         5 IDoV= 1
 ScaDFX=  1.000000  1.000000  1.000000  1.000000
 FoFCou: FMM=F IPFlag=           0 FMFlag=      100000 FMFlg1=           0
         NFxFlg=           0 DoJE=T BraDBF=F KetDBF=T FulRan=T
         Omega=  0.000000  0.000000  1.000000  0.000000  0.000000 ICntrl=     500 IOpCl=  0
         NMat0=    1 NMatS0=    1 NMatT0=    0 NMatD0=    1 NMtDS0=    0 NMtDT0=    0
         I1Cent=           4 NGrid=           0.
 Petite list used in FoFCou.
 Harris En= -151.502821245064    
 Initial guess orbital symmetries:
       Occupied  (A) (A) (A) (A) (A) (A) (A) (A) (A)
       Virtual   (A) (A) (A) (A) (A) (A) (A) (A) (A) (A) (A) (A)
                 (A) (A) (A) (A) (A) (A) (A) (A) (A) (A) (A) (A)
                 (A) (A) (A) (A) (A) (A) (A) (A) (A) (A) (A) (A)
                 (A) (A) (A) (A) (A) (A) (A) (A) (A) (A) (A) (A)
                 (A) (A) (A) (A) (A) (A) (A) (A) (A) (A) (A) (A)
                 (A) (A) (A) (A) (A) (A) (A) (A) (A) (A) (A) (A)
                 (A) (A) (A) (A) (A) (A) (A) (A) (A) (A) (A) (A)
                 (A) (A) (A) (A) (A) (A) (A) (A) (A) (A) (A) (A)
                 (A) (A) (A) (A) (A) (A) (A) (A) (A) (A) (A) (A)
                 (A) (A) (A) (A) (A) (A) (A) (A) (A) (A) (A) (A)
                 (A) (A) (A) (A) (A) (A) (A) (A) (A) (A) (A) (A)
                 (A) (A) (A) (A) (A) (A) (A) (A) (A) (A) (A) (A)
                 (A) (A) (A) (A) (A) (A) (A) (A) (A) (A) (A) (A)
                 (A) (A) (A) (A) (A) (A) (A) (A) (A) (A) (A) (A)
                 (A) (A) (A) (A) (A) (A) (A) (A) (A) (A) (A) (A)
                 (A) (A) (A) (A) (A) (A) (A) (A)
 The electronic state of the initial guess is 1-A.
 Leave Link  401 at Fri May  8 11:55:33 2020, MaxMem= 1073741824 cpu:       5.0
 (Enter /home/matheus/.gaussian/g09/l502.exe)
 Closed shell SCF:
 Requested convergence on RMS density matrix=1.00D-08 within 128 cycles.
 Requested convergence on MAX density matrix=1.00D-06.
 Requested convergence on             energy=1.00D-06.
 No special actions if energy rises.
 Using DIIS extrapolation, IDIIS=  1040.
 Integral symmetry usage will be decided dynamically.
       126521 words used for storage of precomputed grid.
 IEnd=      305468 IEndB=      305468 NGot=  1073741824 MDV=  1073505667
 LenX=  1073505667 LenY=  1073452785
 Fock matrices will be formed incrementally for  20 cycles.

 Cycle   1  Pass 1  IDiag  1:
 FoFJK:  IHMeth= 1 ICntrl=     0 DoSepK=T KAlg= 1 I1Cent= 0 FoldK=F
 FoFCou: FMM=F IPFlag=           0 FMFlag=      100000 FMFlg1=           0
         NFxFlg=           0 DoJE=T BraDBF=F KetDBF=F FulRan=T
         Omega=  0.000000  0.000000  1.000000  0.000000  0.000000 ICntrl=     500 IOpCl=  0
         NMat0=    1 NMatS0=    1 NMatT0=    0 NMatD0=    1 NMtDS0=    0 NMtDT0=    0
         I1Cent=           0 NGrid=           0.
 Symmetry not used in FoFCou.
 E= -151.508298216149    
 DIIS: error= 1.32D-02 at cycle   1 NSaved=   1.
 NSaved= 1 IEnMin= 1 EnMin= -151.508298216149     IErMin= 1 ErrMin= 1.32D-02
 ErrMax= 1.32D-02 EMaxC= 1.00D-01 BMatC= 4.08D-02 BMatP= 4.08D-02
 IDIUse=3 WtCom= 8.68D-01 WtEn= 1.32D-01
 Coeff-Com:  0.100D+01
 Coeff-En:   0.100D+01
 Coeff:      0.100D+01
 Gap=     0.583 Goal=   None    Shift=    0.000
 GapD=    0.583 DampG=2.000 DampE=0.500 DampFc=1.0000 IDamp=-1.
 RMSDP=7.29D-04 MaxDP=2.28D-02              OVMax= 5.25D-02

 Cycle   2  Pass 1  IDiag  1:
 RMSU=  5.10D-04    CP:  9.89D-01
 FoFJK:  IHMeth= 1 ICntrl=     0 DoSepK=T KAlg= 1 I1Cent= 0 FoldK=F
 E= -151.524711614528     Delta-E=       -0.016413398379 Rises=F Damp=F
 DIIS: error= 8.07D-03 at cycle   2 NSaved=   2.
 NSaved= 2 IEnMin= 2 EnMin= -151.524711614528     IErMin= 2 ErrMin= 8.07D-03
 ErrMax= 8.07D-03 EMaxC= 1.00D-01 BMatC= 1.61D-02 BMatP= 4.08D-02
 IDIUse=3 WtCom= 9.19D-01 WtEn= 8.07D-02
 Coeff-Com:  0.372D+00 0.628D+00
 Coeff-En:   0.122D+00 0.878D+00
 Coeff:      0.352D+00 0.648D+00
 Gap=     0.495 Goal=   None    Shift=    0.000
 RMSDP=4.15D-04 MaxDP=2.27D-02 DE=-1.64D-02 OVMax= 2.29D-02

 Cycle   3  Pass 1  IDiag  1:
 RMSU=  2.43D-04    CP:  9.85D-01  6.83D-01
 FoFJK:  IHMeth= 1 ICntrl=     0 DoSepK=T KAlg= 1 I1Cent= 0 FoldK=F
 E= -151.533795052710     Delta-E=       -0.009083438182 Rises=F Damp=F
 DIIS: error= 1.46D-03 at cycle   3 NSaved=   3.
 NSaved= 3 IEnMin= 3 EnMin= -151.533795052710     IErMin= 3 ErrMin= 1.46D-03
 ErrMax= 1.46D-03 EMaxC= 1.00D-01 BMatC= 3.93D-04 BMatP= 1.61D-02
 IDIUse=3 WtCom= 9.85D-01 WtEn= 1.46D-02
 Coeff-Com:  0.402D-01 0.155D+00 0.804D+00
 Coeff-En:   0.000D+00 0.000D+00 0.100D+01
 Coeff:      0.396D-01 0.153D+00 0.807D+00
 Gap=     0.488 Goal=   None    Shift=    0.000
 RMSDP=5.57D-05 MaxDP=2.06D-03 DE=-9.08D-03 OVMax= 4.08D-03

 Cycle   4  Pass 1  IDiag  1:
 RMSU=  2.75D-05    CP:  9.83D-01  7.31D-01  1.03D+00
 FoFJK:  IHMeth= 1 ICntrl=     0 DoSepK=T KAlg= 1 I1Cent= 0 FoldK=F
 E= -151.534045769088     Delta-E=       -0.000250716379 Rises=F Damp=F
 DIIS: error= 1.49D-04 at cycle   4 NSaved=   4.
 NSaved= 4 IEnMin= 4 EnMin= -151.534045769088     IErMin= 4 ErrMin= 1.49D-04
 ErrMax= 1.49D-04 EMaxC= 1.00D-01 BMatC= 9.64D-06 BMatP= 3.93D-04
 IDIUse=3 WtCom= 9.99D-01 WtEn= 1.49D-03
 Coeff-Com: -0.944D-02-0.128D-01 0.863D-01 0.936D+00
 Coeff-En:   0.000D+00 0.000D+00 0.000D+00 0.100D+01
 Coeff:     -0.942D-02-0.128D-01 0.862D-01 0.936D+00
 Gap=     0.490 Goal=   None    Shift=    0.000
 RMSDP=1.44D-05 MaxDP=8.90D-04 DE=-2.51D-04 OVMax= 8.04D-04

 Cycle   5  Pass 1  IDiag  1:
 RMSU=  4.52D-06    CP:  9.83D-01  7.31D-01  1.06D+00  1.06D+00
 FoFJK:  IHMeth= 1 ICntrl=     0 DoSepK=T KAlg= 1 I1Cent= 0 FoldK=F
 E= -151.534054521965     Delta-E=       -0.000008752876 Rises=F Damp=F
 DIIS: error= 4.64D-05 at cycle   5 NSaved=   5.
 NSaved= 5 IEnMin= 5 EnMin= -151.534054521965     IErMin= 5 ErrMin= 4.64D-05
 ErrMax= 4.64D-05 EMaxC= 1.00D-01 BMatC= 2.28D-07 BMatP= 9.64D-06
 IDIUse=1 WtCom= 1.00D+00 WtEn= 0.00D+00
 Coeff-Com: -0.331D-03-0.196D-02-0.349D-01-0.124D+00 0.116D+01
 Coeff:     -0.331D-03-0.196D-02-0.349D-01-0.124D+00 0.116D+01
 Gap=     0.490 Goal=   None    Shift=    0.000
 RMSDP=3.60D-06 MaxDP=1.04D-04 DE=-8.75D-06 OVMax= 3.42D-04

 Cycle   6  Pass 1  IDiag  1:
 RMSU=  1.15D-06    CP:  9.83D-01  7.31D-01  1.07D+00  1.11D+00  1.33D+00
 FoFJK:  IHMeth= 1 ICntrl=     0 DoSepK=T KAlg= 1 I1Cent= 0 FoldK=F
 E= -151.534055157591     Delta-E=       -0.000000635627 Rises=F Damp=F
 DIIS: error= 6.49D-06 at cycle   6 NSaved=   6.
 NSaved= 6 IEnMin= 6 EnMin= -151.534055157591     IErMin= 6 ErrMin= 6.49D-06
 ErrMax= 6.49D-06 EMaxC= 1.00D-01 BMatC= 1.29D-08 BMatP= 2.28D-07
 IDIUse=1 WtCom= 1.00D+00 WtEn= 0.00D+00
 Coeff-Com:  0.294D-03 0.826D-03 0.428D-02-0.325D-02-0.220D+00 0.122D+01
 Coeff:      0.294D-03 0.826D-03 0.428D-02-0.325D-02-0.220D+00 0.122D+01
 Gap=     0.490 Goal=   None    Shift=    0.000
 RMSDP=1.02D-06 MaxDP=2.37D-05 DE=-6.36D-07 OVMax= 1.09D-04

 Cycle   7  Pass 1  IDiag  1:
 RMSU=  3.14D-07    CP:  9.82D-01  7.31D-01  1.07D+00  1.12D+00  1.39D+00
                    CP:  1.40D+00
 FoFJK:  IHMeth= 1 ICntrl=     0 DoSepK=T KAlg= 1 I1Cent= 0 FoldK=F
 E= -151.534055191641     Delta-E=       -0.000000034050 Rises=F Damp=F
 DIIS: error= 1.81D-06 at cycle   7 NSaved=   7.
 NSaved= 7 IEnMin= 7 EnMin= -151.534055191641     IErMin= 7 ErrMin= 1.81D-06
 ErrMax= 1.81D-06 EMaxC= 1.00D-01 BMatC= 8.87D-10 BMatP= 1.29D-08
 IDIUse=1 WtCom= 1.00D+00 WtEn= 0.00D+00
 Coeff-Com: -0.134D-04-0.179D-04 0.124D-02 0.695D-02-0.407D-01-0.152D+00
 Coeff-Com:  0.118D+01
 Coeff:     -0.134D-04-0.179D-04 0.124D-02 0.695D-02-0.407D-01-0.152D+00
 Coeff:      0.118D+01
 Gap=     0.490 Goal=   None    Shift=    0.000
 RMSDP=3.92D-07 MaxDP=1.53D-05 DE=-3.40D-08 OVMax= 3.44D-05

 Cycle   8  Pass 1  IDiag  1:
 RMSU=  7.59D-08    CP:  9.82D-01  7.31D-01  1.07D+00  1.13D+00  1.40D+00
                    CP:  1.54D+00  1.40D+00
 FoFJK:  IHMeth= 1 ICntrl=     0 DoSepK=T KAlg= 1 I1Cent= 0 FoldK=F
 E= -151.534055166312     Delta-E=        0.000000025329 Rises=F Damp=F
 DIIS: error= 6.21D-07 at cycle   8 NSaved=   8.
 NSaved= 8 IEnMin= 7 EnMin= -151.534055191641     IErMin= 8 ErrMin= 6.21D-07
 ErrMax= 6.21D-07 EMaxC= 1.00D-01 BMatC= 1.66D-10 BMatP= 8.87D-10
 IDIUse=1 WtCom= 1.00D+00 WtEn= 0.00D+00
 Coeff-Com: -0.210D-04-0.645D-04-0.734D-04 0.131D-02 0.937D-02-0.118D+00
 Coeff-Com:  0.245D+00 0.863D+00
 Coeff:     -0.210D-04-0.645D-04-0.734D-04 0.131D-02 0.937D-02-0.118D+00
 Coeff:      0.245D+00 0.863D+00
 Gap=     0.490 Goal=   None    Shift=    0.000
 RMSDP=1.07D-07 MaxDP=5.90D-06 DE= 2.53D-08 OVMax= 1.08D-05

 Cycle   9  Pass 1  IDiag  1:
 RMSU=  3.23D-08    CP:  9.82D-01  7.31D-01  1.07D+00  1.13D+00  1.40D+00
                    CP:  1.56D+00  1.52D+00  1.25D+00
 FoFJK:  IHMeth= 1 ICntrl=     0 DoSepK=T KAlg= 1 I1Cent= 0 FoldK=F
 E= -151.534055166621     Delta-E=       -0.000000000309 Rises=F Damp=F
 DIIS: error= 4.21D-07 at cycle   9 NSaved=   9.
 NSaved= 9 IEnMin= 7 EnMin= -151.534055191641     IErMin= 9 ErrMin= 4.21D-07
 ErrMax= 4.21D-07 EMaxC= 1.00D-01 BMatC= 6.51D-11 BMatP= 1.66D-10
 IDIUse=1 WtCom= 1.00D+00 WtEn= 0.00D+00
 Coeff-Com: -0.905D-05-0.332D-04-0.336D-03-0.979D-03 0.158D-01-0.336D-01
 Coeff-Com: -0.142D+00 0.423D+00 0.738D+00
 Coeff:     -0.905D-05-0.332D-04-0.336D-03-0.979D-03 0.158D-01-0.336D-01
 Coeff:     -0.142D+00 0.423D+00 0.738D+00
 Gap=     0.490 Goal=   None    Shift=    0.000
 RMSDP=5.46D-08 MaxDP=2.80D-06 DE=-3.09D-10 OVMax= 6.60D-06

 Cycle  10  Pass 1  IDiag  1:
 RMSU=  1.42D-08    CP:  9.82D-01  7.31D-01  1.07D+00  1.13D+00  1.40D+00
                    CP:  1.57D+00  1.57D+00  1.50D+00  1.01D+00
 FoFJK:  IHMeth= 1 ICntrl=     0 DoSepK=T KAlg= 1 I1Cent= 0 FoldK=F
 E= -151.534055166721     Delta-E=       -0.000000000100 Rises=F Damp=F
 DIIS: error= 1.20D-07 at cycle  10 NSaved=  10.
 NSaved=10 IEnMin= 7 EnMin= -151.534055191641     IErMin=10 ErrMin= 1.20D-07
 ErrMax= 1.20D-07 EMaxC= 1.00D-01 BMatC= 3.98D-12 BMatP= 6.51D-11
 IDIUse=1 WtCom= 1.00D+00 WtEn= 0.00D+00
 Coeff-Com:  0.437D-05 0.180D-04 0.108D-03 0.231D-04-0.508D-02 0.237D-01
 Coeff-Com:  0.779D-02-0.250D+00-0.154D+00 0.138D+01
 Coeff:      0.437D-05 0.180D-04 0.108D-03 0.231D-04-0.508D-02 0.237D-01
 Coeff:      0.779D-02-0.250D+00-0.154D+00 0.138D+01
 Gap=     0.490 Goal=   None    Shift=    0.000
 RMSDP=2.65D-08 MaxDP=5.14D-07 DE=-9.96D-11 OVMax= 4.37D-06

 Cycle  11  Pass 1  IDiag  1:
 RMSU=  5.11D-09    CP:  9.82D-01  7.31D-01  1.07D+00  1.13D+00  1.40D+00
                    CP:  1.58D+00  1.59D+00  1.62D+00  1.27D+00  1.67D+00
 FoFJK:  IHMeth= 1 ICntrl=     0 DoSepK=T KAlg= 1 I1Cent= 0 FoldK=F
 E= -151.534055166739     Delta-E=       -0.000000000018 Rises=F Damp=F
 DIIS: error= 3.42D-08 at cycle  11 NSaved=  11.
 NSaved=11 IEnMin= 7 EnMin= -151.534055191641     IErMin=11 ErrMin= 3.42D-08
 ErrMax= 3.42D-08 EMaxC= 1.00D-01 BMatC= 3.01D-13 BMatP= 3.98D-12
 IDIUse=1 WtCom= 1.00D+00 WtEn= 0.00D+00
 Coeff-Com:  0.136D-06 0.119D-05 0.256D-04 0.136D-03-0.119D-02 0.265D-03
 Coeff-Com:  0.184D-01-0.204D-01-0.668D-01-0.169D+00 0.124D+01
 Coeff:      0.136D-06 0.119D-05 0.256D-04 0.136D-03-0.119D-02 0.265D-03
 Coeff:      0.184D-01-0.204D-01-0.668D-01-0.169D+00 0.124D+01
 Gap=     0.490 Goal=   None    Shift=    0.000
 RMSDP=7.74D-09 MaxDP=1.64D-07 DE=-1.84D-11 OVMax= 1.18D-06

 SCF Done:  E(RLC-wPBE) =  -151.534055167     A.U. after   11 cycles
             Convg  =    0.7741D-08             -V/T =  2.0070
 KE= 1.504733299358D+02 PE=-4.315590477931D+02 EE= 9.292516230263D+01
 Leave Link  502 at Fri May  8 11:56:15 2020, MaxMem= 1073741824 cpu:     340.1
 (Enter /home/matheus/.gaussian/g09/l601.exe)
 Copying SCF densities to generalized density rwf, IOpCl= 0 IROHF=0.

 **********************************************************************

            Population analysis using the SCF density.

 **********************************************************************

 Orbital symmetries:
       Occupied  (A) (A) (A) (A) (A) (A) (A) (A) (A)
       Virtual   (A) (A) (A) (A) (A) (A) (A) (A) (A) (A) (A) (A)
                 (A) (A) (A) (A) (A) (A) (A) (A) (A) (A) (A) (A)
                 (A) (A) (A) (A) (A) (A) (A) (A) (A) (A) (A) (A)
                 (A) (A) (A) (A) (A) (A) (A) (A) (A) (A) (A) (A)
                 (A) (A) (A) (A) (A) (A) (A) (A) (A) (A) (A) (A)
                 (A) (A) (A) (A) (A) (A) (A) (A) (A) (A) (A) (A)
                 (A) (A) (A) (A) (A) (A) (A) (A) (A) (A) (A) (A)
                 (A) (A) (A) (A) (A) (A) (A) (A) (A) (A) (A) (A)
                 (A) (A) (A) (A) (A) (A) (A) (A) (A) (A) (A) (A)
                 (A) (A) (A) (A) (A) (A) (A) (A) (A) (A) (A) (A)
                 (A) (A) (A) (A) (A) (A) (A) (A) (A) (A) (A) (A)
                 (A) (A) (A) (A) (A) (A) (A) (A) (A) (A) (A) (A)
                 (A) (A) (A) (A) (A) (A) (A) (A) (A) (A) (A) (A)
                 (A) (A) (A) (A) (A) (A) (A) (A) (A) (A) (A) (A)
                 (A) (A) (A) (A) (A) (A) (A) (A) (A) (A) (A) (A)
                 (A) (A) (A) (A) (A) (A) (A) (A)
 The electronic state is 1-A.
 Alpha  occ. eigenvalues --  -19.11581 -19.11575  -1.32415  -1.09785  -0.72487
 Alpha  occ. eigenvalues --   -0.64353  -0.58799  -0.46939  -0.46425
 Alpha virt. eigenvalues --    0.02547   0.03796   0.07154   0.08373   0.10321
 Alpha virt. eigenvalues --    0.10772   0.11389   0.14058   0.17153   0.17648
 Alpha virt. eigenvalues --    0.18805   0.19558   0.21368   0.22918   0.25793
 Alpha virt. eigenvalues --    0.27268   0.31021   0.31448   0.32666   0.33829
 Alpha virt. eigenvalues --    0.34350   0.37340   0.37479   0.40062   0.41197
 Alpha virt. eigenvalues --    0.43455   0.44453   0.47222   0.48330   0.49872
 Alpha virt. eigenvalues --    0.53874   0.58253   0.62056   0.63420   0.67442
 Alpha virt. eigenvalues --    0.72067   0.75799   0.77713   0.78938   0.80839
 Alpha virt. eigenvalues --    0.82132   0.82679   0.89919   0.90612   0.92154
 Alpha virt. eigenvalues --    0.92914   0.94329   0.95595   0.97630   0.98193
 Alpha virt. eigenvalues --    1.00495   1.01793   1.06073   1.10986   1.13514
 Alpha virt. eigenvalues --    1.14137   1.16019   1.21692   1.23591   1.25062
 Alpha virt. eigenvalues --    1.27020   1.29159   1.30496   1.31879   1.33415
 Alpha virt. eigenvalues --    1.34342   1.35100   1.38467   1.40113   1.42880
 Alpha virt. eigenvalues --    1.45517   1.49778   1.50632   1.52833   1.56699
 Alpha virt. eigenvalues --    1.60858   1.67373   1.67813   1.73135   1.80015
 Alpha virt. eigenvalues --    1.84700   1.88221   1.97052   1.99877   2.06886
 Alpha virt. eigenvalues --    2.07916   2.10039   2.18932   2.23324   2.27120
 Alpha virt. eigenvalues --    2.30392   2.33749   2.39068   2.40806   2.41401
 Alpha virt. eigenvalues --    2.50930   2.55736   2.59008   2.64432   2.67764
 Alpha virt. eigenvalues --    2.71422   2.74917   2.83730   2.90083   2.97600
 Alpha virt. eigenvalues --    3.07087   3.14090   3.15148   3.25808   3.30159
 Alpha virt. eigenvalues --    3.41458   3.54886   3.62689   3.69454   3.78449
 Alpha virt. eigenvalues --    3.78588   3.81981   3.82155   3.83460   3.83556
 Alpha virt. eigenvalues --    3.88306   3.89659   3.94866   3.96005   3.97104
 Alpha virt. eigenvalues --    3.99077   4.03978   4.09085   4.13199   4.21126
 Alpha virt. eigenvalues --    4.22682   4.23684   4.29833   4.34199   4.38412
 Alpha virt. eigenvalues --    4.43131   4.54679   4.61050   4.73450   4.95608
 Alpha virt. eigenvalues --    5.01495   5.03540   5.19879   5.21156   5.25503
 Alpha virt. eigenvalues --    5.47713   5.88912   6.07890   6.18318   6.24070
 Alpha virt. eigenvalues --    6.33064   6.34864   6.50584   6.52904   6.63506
 Alpha virt. eigenvalues --    6.81839   6.82422   6.85270   6.88596   6.92455
 Alpha virt. eigenvalues --    6.93751   6.95793   7.02354   7.04715   7.11742
 Alpha virt. eigenvalues --    7.17243   7.27591   7.49570   7.64631   7.83060
 Alpha virt. eigenvalues --    8.13429   8.15538  10.87753  14.03993  14.63356
 Alpha virt. eigenvalues --   14.83188  14.87651  15.09384  29.02891  29.02997
 Alpha virt. eigenvalues --   29.07762  29.13038  29.22764  49.09066 148.31389
 Alpha virt. eigenvalues --  148.38073 148.70282 752.47187
          Condensed to atoms (all electrons):
              1          2          3          4          5
     1  O    8.205194  -0.190301   0.198249  -0.001404  -0.000374
     2  O   -0.190301   8.210922   0.012190   0.198301  -0.000526
     3  H    0.198249   0.012190   0.578512   0.001976  -0.001127
     4  H   -0.001404   0.198301   0.001976   0.577535  -0.003567
     5  Kr  -0.000374  -0.000526  -0.001127  -0.003567   0.001003
 Mulliken atomic charges:
              1
     1  O   -0.211364
     2  O   -0.230586
     3  H    0.210201
     4  H    0.227158
     5  Kr   0.004591
 Sum of Mulliken atomic charges =   0.00000
 Mulliken charges with hydrogens summed into heavy atoms:
              1
     1  O   -0.001163
     2  O   -0.003428
     5  Kr   0.004591
 Sum of Mulliken charges with hydrogens summed into heavy atoms =   0.00000
          Condensed to fragments (all electrons):
     1      -0.004591
     2       0.004591
 Electronic spatial extent (au):  <R**2>=            320.5598
 Charge=              0.0000 electrons
 Dipole moment (field-independent basis, Debye):
    X=             -1.6039    Y=             -0.1722    Z=              1.6523  Tot=              2.3091
 Quadrupole moment (field-independent basis, Debye-Ang):
   XX=            -17.2260   YY=            -10.2130   ZZ=            -11.3453
   XY=             -2.4812   XZ=              3.2579   YZ=             -1.9156
 Traceless Quadrupole moment (field-independent basis, Debye-Ang):
   XX=             -4.2979   YY=              2.7151   ZZ=              1.5828
   XY=             -2.4812   XZ=              3.2579   YZ=             -1.9156
 Octapole moment (field-independent basis, Debye-Ang**2):
  XXX=            -85.1080  YYY=             -1.3432  ZZZ=              1.4733  XYY=            -22.2292
  XXY=             -7.2587  XXZ=              6.7207  XZZ=            -22.3683  YZZ=             -1.9961
  YYZ=              2.4528  XYZ=             -4.0539
 Hexadecapole moment (field-independent basis, Debye-Ang**3):
 XXXX=           -329.2794 YYYY=            -44.3592 ZZZZ=            -11.2238 XXXY=            -15.7022
 XXXZ=             14.4118 YYYX=             -4.1479 YYYZ=             -2.8457 ZZZX=              3.0778
 ZZZY=             -2.1260 XXYY=            -57.1865 XXZZ=            -48.1876 YYZZ=             -9.6036
 XXYZ=             -8.7594 YYXZ=              4.8697 ZZXY=             -3.6248
 N-N= 3.662650038791D+01 E-N=-4.315590474379D+02  KE= 1.504733299358D+02
 No NMR shielding tensors so no spin-rotation constants.
 Leave Link  601 at Fri May  8 11:56:16 2020, MaxMem= 1073741824 cpu:       0.8
 (Enter /home/matheus/.gaussian/g09/l122.exe)
 Counterpoise: doing DCBS calculation for fragment   2 NewBq=T
 Leave Link  122 at Fri May  8 11:56:16 2020, MaxMem= 1073741824 cpu:       0.0
 (Enter /home/matheus/.gaussian/g09/l301.exe)
 Basis read from rwf:  (5D, 7F)
 No pseudopotential information found on rwf file.
 There are   197 symmetry adapted basis functions of A   symmetry.
 Integral buffers will be    131072 words long.
 Raffenetti 2 integral format.
 Two-electron integral symmetry is turned on.
   197 basis functions,   415 primitive gaussians,   229 cartesian basis functions
    18 alpha electrons       18 beta electrons
       nuclear repulsion energy         0.0000000000 Hartrees.
 IExCor=32609 DFT=T Ex+Corr=LC-wPBE ExCW=0 ScaHFX=  1.000000
 ScaDFX=  1.000000  0.000000  1.000000  1.000000 ScalE2=  1.000000  1.000000
 IRadAn=      5 IRanWt=     -1 IRanGd=            0 ICorTp=0
  HFx wShort=  0.000000 wLong=  0.550000 cFull=  0.000000 cShort=  0.000000 cLong=  1.000000
  DFx wShort=  0.000000 wLong=  0.550000 cFull=  0.000000 cShort=  0.000000 cLong=  1.000000
 NAtoms=    5 NActive=    5 NUniq=    5 SFac= 1.00D+00 NAtFMM=   60 NAOKFM=F Big=F
 No density basis found on file   718.
 Leave Link  301 at Fri May  8 11:56:16 2020, MaxMem= 1073741824 cpu:       0.2
 (Enter /home/matheus/.gaussian/g09/l302.exe)
 NPDir=0 NMtPBC=     1 NCelOv=     1 NCel=       1 NClECP=     1 NCelD=      1
         NCelK=      1 NCelE2=     1 NClLst=     1 CellRange=     0.0.
 One-electron integrals computed using PRISM.
 NBasis=   197 RedAO= T  NBF=   197
 NBsUse=   197 1.00D-06 NBFU=   197
 Precomputing XC quadrature grid using
 IXCGrd= 2 IRadAn=           5 IRanWt=          -1 IRanGd=           0 AccXCQ= 0.00D+00.
 NRdTot=     427 NPtTot=      123512 NUsed=      126579 NTot=      126611
 NSgBfM=   229   229   229   229   229 NAtAll=     5     5.
 Leave Link  302 at Fri May  8 11:56:16 2020, MaxMem= 1073741824 cpu:       1.0
 (Enter /home/matheus/.gaussian/g09/l303.exe)
 DipDrv:  MaxL=1.
 Leave Link  303 at Fri May  8 11:56:16 2020, MaxMem= 1073741824 cpu:       0.2
 (Enter /home/matheus/.gaussian/g09/l401.exe)
 Harris functional with IExCor=32609 diagonalized for initial guess.
 ExpMin= 2.53D-02 ExpMax= 1.17D+07 ExpMxC= 1.33D+04 IAcc=3 IRadAn=         5 AccDes= 0.00D+00
 HarFok:  IExCor=32609 AccDes= 0.00D+00 IRadAn=         5 IDoV= 1
 ScaDFX=  1.000000  1.000000  1.000000  1.000000
 FoFCou: FMM=F IPFlag=           0 FMFlag=      100000 FMFlg1=           0
         NFxFlg=           0 DoJE=T BraDBF=F KetDBF=T FulRan=T
         Omega=  0.000000  0.000000  1.000000  0.000000  0.000000 ICntrl=     500 IOpCl=  0
         NMat0=    1 NMatS0=    1 NMatT0=    0 NMatD0=    1 NMtDS0=    0 NMtDT0=    0
         I1Cent=           4 NGrid=           0.
 Petite list used in FoFCou.
 Harris En= -2753.24648086413    
 Initial guess orbital symmetries:
       Occupied  (A) (A) (A) (A) (A) (A) (A) (A) (A) (A) (A) (A)
                 (A) (A) (A) (A) (A) (A)
       Virtual   (A) (A) (A) (A) (A) (A) (A) (A) (A) (A) (A) (A)
                 (A) (A) (A) (A) (A) (A) (A) (A) (A) (A) (A) (A)
                 (A) (A) (A) (A) (A) (A) (A) (A) (A) (A) (A) (A)
                 (A) (A) (A) (A) (A) (A) (A) (A) (A) (A) (A) (A)
                 (A) (A) (A) (A) (A) (A) (A) (A) (A) (A) (A) (A)
                 (A) (A) (A) (A) (A) (A) (A) (A) (A) (A) (A) (A)
                 (A) (A) (A) (A) (A) (A) (A) (A) (A) (A) (A) (A)
                 (A) (A) (A) (A) (A) (A) (A) (A) (A) (A) (A) (A)
                 (A) (A) (A) (A) (A) (A) (A) (A) (A) (A) (A) (A)
                 (A) (A) (A) (A) (A) (A) (A) (A) (A) (A) (A) (A)
                 (A) (A) (A) (A) (A) (A) (A) (A) (A) (A) (A) (A)
                 (A) (A) (A) (A) (A) (A) (A) (A) (A) (A) (A) (A)
                 (A) (A) (A) (A) (A) (A) (A) (A) (A) (A) (A) (A)
                 (A) (A) (A) (A) (A) (A) (A) (A) (A) (A) (A) (A)
                 (A) (A) (A) (A) (A) (A) (A) (A) (A) (A) (A)
 The electronic state of the initial guess is 1-A.
 Leave Link  401 at Fri May  8 11:56:16 2020, MaxMem= 1073741824 cpu:       5.5
 (Enter /home/matheus/.gaussian/g09/l502.exe)
 Closed shell SCF:
 Requested convergence on RMS density matrix=1.00D-08 within 128 cycles.
 Requested convergence on MAX density matrix=1.00D-06.
 Requested convergence on             energy=1.00D-06.
 No special actions if energy rises.
 Using DIIS extrapolation, IDIIS=  1040.
 Integral symmetry usage will be decided dynamically.
       126521 words used for storage of precomputed grid.
 IEnd=      305468 IEndB=      305468 NGot=  1073741824 MDV=  1073505667
 LenX=  1073505667 LenY=  1073452785
 Fock matrices will be formed incrementally for  20 cycles.

 Cycle   1  Pass 1  IDiag  1:
 FoFJK:  IHMeth= 1 ICntrl=     0 DoSepK=T KAlg= 1 I1Cent= 0 FoldK=F
 FoFCou: FMM=F IPFlag=           0 FMFlag=      100000 FMFlg1=           0
         NFxFlg=           0 DoJE=T BraDBF=F KetDBF=F FulRan=T
         Omega=  0.000000  0.000000  1.000000  0.000000  0.000000 ICntrl=     500 IOpCl=  0
         NMat0=    1 NMatS0=    1 NMatT0=    0 NMatD0=    1 NMtDS0=    0 NMtDT0=    0
         I1Cent=           0 NGrid=           0.
 Symmetry not used in FoFCou.
 E= -2753.43085849897    
 DIIS: error= 2.46D-02 at cycle   1 NSaved=   1.
 NSaved= 1 IEnMin= 1 EnMin= -2753.43085849897     IErMin= 1 ErrMin= 2.46D-02
 ErrMax= 2.46D-02 EMaxC= 1.00D-01 BMatC= 2.24D-01 BMatP= 2.24D-01
 IDIUse=3 WtCom= 7.54D-01 WtEn= 2.46D-01
 Coeff-Com:  0.100D+01
 Coeff-En:   0.100D+01
 Coeff:      0.100D+01
 Gap=     0.637 Goal=   None    Shift=    0.000
 GapD=    0.637 DampG=2.000 DampE=0.500 DampFc=1.0000 IDamp=-1.
 RMSDP=2.05D-03 MaxDP=1.42D-01              OVMax= 5.14D-02

 Cycle   2  Pass 1  IDiag  1:
 RMSU=  1.41D-03    CP:  1.02D+00
 FoFJK:  IHMeth= 1 ICntrl=     0 DoSepK=T KAlg= 1 I1Cent= 0 FoldK=F
 E= -2753.46431603108     Delta-E=       -0.033457532101 Rises=F Damp=F
 DIIS: error= 9.70D-03 at cycle   2 NSaved=   2.
 NSaved= 2 IEnMin= 2 EnMin= -2753.46431603108     IErMin= 2 ErrMin= 9.70D-03
 ErrMax= 9.70D-03 EMaxC= 1.00D-01 BMatC= 4.97D-02 BMatP= 2.24D-01
 IDIUse=3 WtCom= 9.03D-01 WtEn= 9.70D-02
 Coeff-Com:  0.315D+00 0.685D+00
 Coeff-En:   0.626D-01 0.937D+00
 Coeff:      0.291D+00 0.709D+00
 Gap=     0.551 Goal=   None    Shift=    0.000
 RMSDP=7.52D-04 MaxDP=4.96D-02 DE=-3.35D-02 OVMax= 1.83D-02

 Cycle   3  Pass 1  IDiag  1:
 RMSU=  1.46D-04    CP:  1.01D+00  6.48D-01
 FoFJK:  IHMeth= 1 ICntrl=     0 DoSepK=T KAlg= 1 I1Cent= 0 FoldK=F
 E= -2753.47775636716     Delta-E=       -0.013440336081 Rises=F Damp=F
 DIIS: error= 1.05D-03 at cycle   3 NSaved=   3.
 NSaved= 3 IEnMin= 3 EnMin= -2753.47775636716     IErMin= 3 ErrMin= 1.05D-03
 ErrMax= 1.05D-03 EMaxC= 1.00D-01 BMatC= 4.80D-04 BMatP= 4.97D-02
 IDIUse=3 WtCom= 9.89D-01 WtEn= 1.05D-02
 Coeff-Com: -0.469D-02 0.806D-01 0.924D+00
 Coeff-En:   0.000D+00 0.000D+00 0.100D+01
 Coeff:     -0.464D-02 0.797D-01 0.925D+00
 Gap=     0.557 Goal=   None    Shift=    0.000
 RMSDP=6.64D-05 MaxDP=4.00D-03 DE=-1.34D-02 OVMax= 2.33D-03

 Cycle   4  Pass 1  IDiag  1:
 RMSU=  1.33D-05    CP:  1.01D+00  6.79D-01  1.00D+00
 FoFJK:  IHMeth= 1 ICntrl=     0 DoSepK=T KAlg= 1 I1Cent= 0 FoldK=F
 E= -2753.47789674553     Delta-E=       -0.000140378375 Rises=F Damp=F
 DIIS: error= 3.14D-05 at cycle   4 NSaved=   4.
 NSaved= 4 IEnMin= 4 EnMin= -2753.47789674553     IErMin= 4 ErrMin= 3.14D-05
 ErrMax= 3.14D-05 EMaxC= 1.00D-01 BMatC= 4.06D-07 BMatP= 4.80D-04
 IDIUse=1 WtCom= 1.00D+00 WtEn= 0.00D+00
 Coeff-Com: -0.552D-03-0.187D-01-0.165D+00 0.118D+01
 Coeff:     -0.552D-03-0.187D-01-0.165D+00 0.118D+01
 Gap=     0.557 Goal=   None    Shift=    0.000
 RMSDP=5.68D-06 MaxDP=3.20D-04 DE=-1.40D-04 OVMax= 4.11D-04

 Cycle   5  Pass 1  IDiag  1:
 RMSU=  1.79D-06    CP:  1.01D+00  6.79D-01  1.02D+00  1.20D+00
 FoFJK:  IHMeth= 1 ICntrl=     0 DoSepK=T KAlg= 1 I1Cent= 0 FoldK=F
 E= -2753.47789725981     Delta-E=       -0.000000514277 Rises=F Damp=F
 DIIS: error= 2.43D-06 at cycle   5 NSaved=   5.
 NSaved= 5 IEnMin= 5 EnMin= -2753.47789725981     IErMin= 5 ErrMin= 2.43D-06
 ErrMax= 2.43D-06 EMaxC= 1.00D-01 BMatC= 2.17D-09 BMatP= 4.06D-07
 IDIUse=1 WtCom= 1.00D+00 WtEn= 0.00D+00
 Coeff-Com:  0.968D-04 0.199D-03-0.154D-02-0.167D-01 0.102D+01
 Coeff:      0.968D-04 0.199D-03-0.154D-02-0.167D-01 0.102D+01
 Gap=     0.557 Goal=   None    Shift=    0.000
 RMSDP=3.30D-07 MaxDP=2.18D-05 DE=-5.14D-07 OVMax= 1.48D-05

 Cycle   6  Pass 1  IDiag  1:
 RMSU=  1.59D-07    CP:  1.01D+00  6.79D-01  1.02D+00  1.20D+00  1.03D+00
 FoFJK:  IHMeth= 1 ICntrl=     0 DoSepK=T KAlg= 1 I1Cent= 0 FoldK=F
 E= -2753.47789726170     Delta-E=       -0.000000001893 Rises=F Damp=F
 DIIS: error= 3.81D-07 at cycle   6 NSaved=   6.
 NSaved= 6 IEnMin= 6 EnMin= -2753.47789726170     IErMin= 6 ErrMin= 3.81D-07
 ErrMax= 3.81D-07 EMaxC= 1.00D-01 BMatC= 7.61D-11 BMatP= 2.17D-09
 IDIUse=1 WtCom= 1.00D+00 WtEn= 0.00D+00
 Coeff-Com:  0.336D-05 0.177D-03 0.180D-02-0.167D-01 0.329D-01 0.982D+00
 Coeff:      0.336D-05 0.177D-03 0.180D-02-0.167D-01 0.329D-01 0.982D+00
 Gap=     0.557 Goal=   None    Shift=    0.000
 RMSDP=4.93D-08 MaxDP=2.54D-06 DE=-1.89D-09 OVMax= 3.10D-06

 Cycle   7  Pass 1  IDiag  1:
 RMSU=  1.06D-08    CP:  1.01D+00  6.79D-01  1.02D+00  1.20D+00  1.05D+00
                    CP:  1.10D+00
 FoFJK:  IHMeth= 1 ICntrl=     0 DoSepK=T KAlg= 1 I1Cent= 0 FoldK=F
 E= -2753.47789726174     Delta-E=       -0.000000000036 Rises=F Damp=F
 DIIS: error= 3.26D-08 at cycle   7 NSaved=   7.
 NSaved= 7 IEnMin= 7 EnMin= -2753.47789726174     IErMin= 7 ErrMin= 3.26D-08
 ErrMax= 3.26D-08 EMaxC= 1.00D-01 BMatC= 4.06D-13 BMatP= 7.61D-11
 IDIUse=1 WtCom= 1.00D+00 WtEn= 0.00D+00
 Coeff-Com:  0.217D-06 0.308D-04 0.324D-03-0.285D-02 0.275D-02 0.153D+00
 Coeff-Com:  0.847D+00
 Coeff:      0.217D-06 0.308D-04 0.324D-03-0.285D-02 0.275D-02 0.153D+00
 Coeff:      0.847D+00
 Gap=     0.557 Goal=   None    Shift=    0.000
 RMSDP=5.51D-09 MaxDP=2.04D-07 DE=-3.64D-11 OVMax= 2.39D-07

 SCF Done:  E(RLC-wPBE) =  -2753.47789726     A.U. after    7 cycles
             Convg  =    0.5507D-08             -V/T =  2.0014
 KE= 2.749515884959D+03 PE=-6.579050053211D+03 EE= 1.076056270990D+03
 Leave Link  502 at Fri May  8 11:56:46 2020, MaxMem= 1073741824 cpu:     233.9
 (Enter /home/matheus/.gaussian/g09/l601.exe)
 Copying SCF densities to generalized density rwf, IOpCl= 0 IROHF=0.

 **********************************************************************

            Population analysis using the SCF density.

 **********************************************************************

 Orbital symmetries:
       Occupied  (A) (A) (A) (A) (A) (A) (A) (A) (A) (A) (A) (A)
                 (A) (A) (A) (A) (A) (A)
       Virtual   (A) (A) (A) (A) (A) (A) (A) (A) (A) (A) (A) (A)
                 (A) (A) (A) (A) (A) (A) (A) (A) (A) (A) (A) (A)
                 (A) (A) (A) (A) (A) (A) (A) (A) (A) (A) (A) (A)
                 (A) (A) (A) (A) (A) (A) (A) (A) (A) (A) (A) (A)
                 (A) (A) (A) (A) (A) (A) (A) (A) (A) (A) (A) (A)
                 (A) (A) (A) (A) (A) (A) (A) (A) (A) (A) (A) (A)
                 (A) (A) (A) (A) (A) (A) (A) (A) (A) (A) (A) (A)
                 (A) (A) (A) (A) (A) (A) (A) (A) (A) (A) (A) (A)
                 (A) (A) (A) (A) (A) (A) (A) (A) (A) (A) (A) (A)
                 (A) (A) (A) (A) (A) (A) (A) (A) (A) (A) (A) (A)
                 (A) (A) (A) (A) (A) (A) (A) (A) (A) (A) (A) (A)
                 (A) (A) (A) (A) (A) (A) (A) (A) (A) (A) (A) (A)
                 (A) (A) (A) (A) (A) (A) (A) (A) (A) (A) (A) (A)
                 (A) (A) (A) (A) (A) (A) (A) (A) (A) (A) (A) (A)
                 (A) (A) (A) (A) (A) (A) (A) (A) (A) (A) (A)
 The electronic state is 1-A.
 Alpha  occ. eigenvalues -- -511.18548 -66.73374 -60.39483 -60.39480 -60.39480
 Alpha  occ. eigenvalues --   -9.66932  -7.41183  -7.41181  -7.41181  -3.35590
 Alpha  occ. eigenvalues --   -3.35589  -3.35589  -3.35588  -3.35588  -1.08852
 Alpha  occ. eigenvalues --   -0.52698  -0.52694  -0.52692
 Alpha virt. eigenvalues --    0.02974   0.04928   0.08527   0.09141   0.11876
 Alpha virt. eigenvalues --    0.12264   0.13327   0.13687   0.16213   0.17023
 Alpha virt. eigenvalues --    0.17840   0.19693   0.20937   0.26314   0.27436
 Alpha virt. eigenvalues --    0.28158   0.28712   0.31111   0.33664   0.34568
 Alpha virt. eigenvalues --    0.36171   0.37529   0.38858   0.40116   0.41551
 Alpha virt. eigenvalues --    0.42305   0.43578   0.54109   0.55104   0.58886
 Alpha virt. eigenvalues --    0.59622   0.66613   0.68667   0.69653   0.72083
 Alpha virt. eigenvalues --    0.75414   0.75774   0.77899   0.79215   0.80176
 Alpha virt. eigenvalues --    0.81573   0.81727   0.84119   0.85664   0.87841
 Alpha virt. eigenvalues --    0.88730   0.89326   0.91473   0.91967   0.96506
 Alpha virt. eigenvalues --    0.98122   0.98388   0.99456   1.00085   1.02627
 Alpha virt. eigenvalues --    1.05726   1.08343   1.09910   1.11720   1.13000
 Alpha virt. eigenvalues --    1.17370   1.21124   1.25629   1.29080   1.30575
 Alpha virt. eigenvalues --    1.33075   1.36678   1.39229   1.46631   1.46963
 Alpha virt. eigenvalues --    1.54733   1.57237   1.60934   1.74336   1.76139
 Alpha virt. eigenvalues --    1.80741   1.82672   1.86995   1.99194   2.20058
 Alpha virt. eigenvalues --    2.22967   2.25575   2.30404   2.31857   2.33352
 Alpha virt. eigenvalues --    2.35520   2.36287   2.38152   2.39125   2.43502
 Alpha virt. eigenvalues --    2.44476   2.46014   2.48878   2.51600   2.52702
 Alpha virt. eigenvalues --    2.54728   2.55262   2.57918   2.58298   2.60363
 Alpha virt. eigenvalues --    2.64134   2.65206   2.67600   2.70964   2.73278
 Alpha virt. eigenvalues --    2.76152   2.80238   2.84720   2.88940   2.90603
 Alpha virt. eigenvalues --    2.96127   3.00450   3.03955   3.09905   3.19333
 Alpha virt. eigenvalues --    3.23100   3.26351   3.30851   3.38383   3.47082
 Alpha virt. eigenvalues --    3.60816   3.64437   3.82618   3.86557   4.03941
 Alpha virt. eigenvalues --    4.37160   4.42266   4.53168   4.58225   4.64340
 Alpha virt. eigenvalues --    4.72689   4.87688   4.90546   4.95986   5.01362
 Alpha virt. eigenvalues --    5.12960   5.24675   5.61148   5.63064   5.78647
 Alpha virt. eigenvalues --    5.92260   6.05884   6.06391   6.75624   6.86182
 Alpha virt. eigenvalues --    7.38084   7.48085   7.56312   7.61722   7.76702
 Alpha virt. eigenvalues --    7.79377   7.93210   8.14308   8.16607   8.21873
 Alpha virt. eigenvalues --    8.40149   8.49524   8.56409   8.86016   9.65503
 Alpha virt. eigenvalues --    9.76731   9.83786   9.87996   9.91728   9.99471
 Alpha virt. eigenvalues --   10.14848  10.31603  10.38496  10.97582  11.52525
 Alpha virt. eigenvalues --   11.65288  11.81294  12.07746  12.08958  13.21315
 Alpha virt. eigenvalues --   13.65672  14.51584  62.82597  64.69929
          Condensed to atoms (all electrons):
              1          2          3          4          5
     1  O    0.001386  -0.001654  -0.000695   0.001167  -0.007080
     2  O   -0.001654   0.005440   0.000518  -0.004153   0.000844
     3  H   -0.000695   0.000518   0.000517  -0.000277  -0.000064
     4  H    0.001167  -0.004153  -0.000277   0.004736  -0.030229
     5  Kr  -0.007080   0.000844  -0.000064  -0.030229  36.071168
 Mulliken atomic charges:
              1
     1  O    0.006875
     2  O   -0.000995
     3  H    0.000002
     4  H    0.028757
     5  Kr  -0.034638
 Sum of Mulliken atomic charges =   0.00000
 Mulliken charges with hydrogens summed into heavy atoms:
              1
     1  O    0.006876
     2  O    0.027762
     5  Kr  -0.034638
 Sum of Mulliken charges with hydrogens summed into heavy atoms =   0.00000
          Condensed to fragments (all electrons):
     1       0.034638
     2      -0.034638
 Electronic spatial extent (au):  <R**2>=            163.3994
 Charge=              0.0000 electrons
 Dipole moment (field-independent basis, Debye):
    X=              0.0008    Y=              0.0004    Z=              0.0001  Tot=              0.0009
 Quadrupole moment (field-independent basis, Debye-Ang):
   XX=            -17.5391   YY=            -17.5502   ZZ=            -17.5568
   XY=              0.0034   XZ=              0.0010   YZ=             -0.0002
 Traceless Quadrupole moment (field-independent basis, Debye-Ang):
   XX=              0.0096   YY=             -0.0015   ZZ=             -0.0081
   XY=              0.0034   XZ=              0.0010   YZ=             -0.0002
 Octapole moment (field-independent basis, Debye-Ang**2):
  XXX=             51.7259  YYY=              0.5232  ZZZ=              0.0225  XYY=             17.2540
  XXY=              0.1681  XXZ=              0.0054  XZZ=             17.2577  YZZ=              0.1751
  YYZ=              0.0075  XYZ=              0.0001
 Hexadecapole moment (field-independent basis, Debye-Ang**3):
 XXXX=           -119.6986 YYYY=            -18.0348 ZZZZ=            -18.0476 XXXY=             -0.5028
 XXXZ=             -0.0176 YYYX=             -0.5035 YYYZ=             -0.0003 ZZZX=             -0.0193
 ZZZY=              0.0001 XXYY=            -22.9663 XXZZ=            -22.9691 YYZZ=             -6.0127
 XXYZ=             -0.0004 YYXZ=             -0.0067 ZZXY=             -0.1670
 N-N= 0.000000000000D+00 E-N=-6.579050050567D+03  KE= 2.749515884959D+03
 No NMR shielding tensors so no spin-rotation constants.
 Leave Link  601 at Fri May  8 11:56:46 2020, MaxMem= 1073741824 cpu:       0.8
 (Enter /home/matheus/.gaussian/g09/l122.exe)
 Counterpoise: doing MCBS calculation for fragment   1
 Leave Link  122 at Fri May  8 11:56:46 2020, MaxMem= 1073741824 cpu:       0.0
 (Enter /home/matheus/.gaussian/g09/l301.exe)
 Basis read from rwf:  (5D, 7F)
 No pseudopotential information found on rwf file.
 There are   138 symmetry adapted basis functions of A   symmetry.
 Integral buffers will be    131072 words long.
 Raffenetti 2 integral format.
 Two-electron integral symmetry is turned on.
   138 basis functions,   198 primitive gaussians,   160 cartesian basis functions
     9 alpha electrons        9 beta electrons
       nuclear repulsion energy        36.6265003879 Hartrees.
 IExCor=32609 DFT=T Ex+Corr=LC-wPBE ExCW=0 ScaHFX=  1.000000
 ScaDFX=  1.000000  0.000000  1.000000  1.000000 ScalE2=  1.000000  1.000000
 IRadAn=      5 IRanWt=     -1 IRanGd=            0 ICorTp=0
  HFx wShort=  0.000000 wLong=  0.550000 cFull=  0.000000 cShort=  0.000000 cLong=  1.000000
  DFx wShort=  0.000000 wLong=  0.550000 cFull=  0.000000 cShort=  0.000000 cLong=  1.000000
 NAtoms=    5 NActive=    4 NUniq=    4 SFac= 1.00D+00 NAtFMM=   60 NAOKFM=F Big=F
 No density basis found on file   718.
 Leave Link  301 at Fri May  8 11:56:46 2020, MaxMem= 1073741824 cpu:       0.3
 (Enter /home/matheus/.gaussian/g09/l302.exe)
 NPDir=0 NMtPBC=     1 NCelOv=     1 NCel=       1 NClECP=     1 NCelD=      1
         NCelK=      1 NCelE2=     1 NClLst=     1 CellRange=     0.0.
 One-electron integrals computed using PRISM.
 NBasis=   138 RedAO= T  NBF=   138
 NBsUse=   138 1.00D-06 NBFU=   138
 Precomputing XC quadrature grid using
 IXCGrd= 2 IRadAn=           5 IRanWt=          -1 IRanGd=           0 AccXCQ= 0.00D+00.
 NRdTot=     344 NPtTot=       92556 NUsed=       95038 NTot=       95070
 NSgBfM=   160   160   160   160   160 NAtAll=     4     4.
 Leave Link  302 at Fri May  8 11:56:46 2020, MaxMem= 1073741824 cpu:       0.8
 (Enter /home/matheus/.gaussian/g09/l303.exe)
 DipDrv:  MaxL=1.
 Leave Link  303 at Fri May  8 11:56:46 2020, MaxMem= 1073741824 cpu:       0.2
 (Enter /home/matheus/.gaussian/g09/l401.exe)
 Harris functional with IExCor=32609 diagonalized for initial guess.
 ExpMin= 2.53D-02 ExpMax= 1.53D+04 ExpMxC= 5.22D+02 IAcc=3 IRadAn=         5 AccDes= 0.00D+00
 HarFok:  IExCor=32609 AccDes= 0.00D+00 IRadAn=         5 IDoV= 1
 ScaDFX=  1.000000  1.000000  1.000000  1.000000
 FoFCou: FMM=F IPFlag=           0 FMFlag=      100000 FMFlg1=           0
         NFxFlg=           0 DoJE=T BraDBF=F KetDBF=T FulRan=T
         Omega=  0.000000  0.000000  1.000000  0.000000  0.000000 ICntrl=     500 IOpCl=  0
         NMat0=    1 NMatS0=    1 NMatT0=    0 NMatD0=    1 NMtDS0=    0 NMtDT0=    0
         I1Cent=           4 NGrid=           0.
 Petite list used in FoFCou.
 Harris En= -151.502724496108    
 Initial guess orbital symmetries:
       Occupied  (A) (A) (A) (A) (A) (A) (A) (A) (A)
       Virtual   (A) (A) (A) (A) (A) (A) (A) (A) (A) (A) (A) (A)
                 (A) (A) (A) (A) (A) (A) (A) (A) (A) (A) (A) (A)
                 (A) (A) (A) (A) (A) (A) (A) (A) (A) (A) (A) (A)
                 (A) (A) (A) (A) (A) (A) (A) (A) (A) (A) (A) (A)
                 (A) (A) (A) (A) (A) (A) (A) (A) (A) (A) (A) (A)
                 (A) (A) (A) (A) (A) (A) (A) (A) (A) (A) (A) (A)
                 (A) (A) (A) (A) (A) (A) (A) (A) (A) (A) (A) (A)
                 (A) (A) (A) (A) (A) (A) (A) (A) (A) (A) (A) (A)
                 (A) (A) (A) (A) (A) (A) (A) (A) (A) (A) (A) (A)
                 (A) (A) (A) (A) (A) (A) (A) (A) (A) (A) (A) (A)
                 (A) (A) (A) (A) (A) (A) (A) (A) (A)
 The electronic state of the initial guess is 1-A.
 Leave Link  401 at Fri May  8 11:56:47 2020, MaxMem= 1073741824 cpu:       2.6
 (Enter /home/matheus/.gaussian/g09/l502.exe)
 Closed shell SCF:
 Requested convergence on RMS density matrix=1.00D-08 within 128 cycles.
 Requested convergence on MAX density matrix=1.00D-06.
 Requested convergence on             energy=1.00D-06.
 No special actions if energy rises.
 Using DIIS extrapolation, IDIIS=  1040.
 Integral symmetry usage will be decided dynamically.
        94980 words used for storage of precomputed grid.
 IEnd=      192360 IEndB=      192360 NGot=  1073741824 MDV=  1073591865
 LenX=  1073591865 LenY=  1073565824
 Fock matrices will be formed incrementally for  20 cycles.

 Cycle   1  Pass 1  IDiag  1:
 FoFJK:  IHMeth= 1 ICntrl=     0 DoSepK=T KAlg= 1 I1Cent= 0 FoldK=F
 FoFCou: FMM=F IPFlag=           0 FMFlag=      100000 FMFlg1=           0
         NFxFlg=           0 DoJE=T BraDBF=F KetDBF=F FulRan=T
         Omega=  0.000000  0.000000  1.000000  0.000000  0.000000 ICntrl=     500 IOpCl=  0
         NMat0=    1 NMatS0=    1 NMatT0=    0 NMatD0=    1 NMtDS0=    0 NMtDT0=    0
         I1Cent=           0 NGrid=           0.
 Symmetry not used in FoFCou.
 E= -151.508242353649    
 DIIS: error= 1.66D-02 at cycle   1 NSaved=   1.
 NSaved= 1 IEnMin= 1 EnMin= -151.508242353649     IErMin= 1 ErrMin= 1.66D-02
 ErrMax= 1.66D-02 EMaxC= 1.00D-01 BMatC= 4.07D-02 BMatP= 4.07D-02
 IDIUse=3 WtCom= 8.34D-01 WtEn= 1.66D-01
 Coeff-Com:  0.100D+01
 Coeff-En:   0.100D+01
 Coeff:      0.100D+01
 Gap=     0.583 Goal=   None    Shift=    0.000
 GapD=    0.583 DampG=2.000 DampE=0.500 DampFc=1.0000 IDamp=-1.
 RMSDP=1.02D-03 MaxDP=2.36D-02              OVMax= 5.24D-02

 Cycle   2  Pass 1  IDiag  1:
 RMSU=  7.15D-04    CP:  9.89D-01
 FoFJK:  IHMeth= 1 ICntrl=     0 DoSepK=T KAlg= 1 I1Cent= 0 FoldK=F
 E= -151.524645181936     Delta-E=       -0.016402828287 Rises=F Damp=F
 DIIS: error= 9.39D-03 at cycle   2 NSaved=   2.
 NSaved= 2 IEnMin= 2 EnMin= -151.524645181936     IErMin= 2 ErrMin= 9.39D-03
 ErrMax= 9.39D-03 EMaxC= 1.00D-01 BMatC= 1.61D-02 BMatP= 4.07D-02
 IDIUse=3 WtCom= 9.06D-01 WtEn= 9.39D-02
 Coeff-Com:  0.373D+00 0.627D+00
 Coeff-En:   0.122D+00 0.878D+00
 Coeff:      0.349D+00 0.651D+00
 Gap=     0.499 Goal=   None    Shift=    0.000
 RMSDP=5.84D-04 MaxDP=2.22D-02 DE=-1.64D-02 OVMax= 2.30D-02

 Cycle   3  Pass 1  IDiag  1:
 RMSU=  3.42D-04    CP:  9.85D-01  6.84D-01
 FoFJK:  IHMeth= 1 ICntrl=     0 DoSepK=T KAlg= 1 I1Cent= 0 FoldK=F
 E= -151.533708285547     Delta-E=       -0.009063103610 Rises=F Damp=F
 DIIS: error= 2.28D-03 at cycle   3 NSaved=   3.
 NSaved= 3 IEnMin= 3 EnMin= -151.533708285547     IErMin= 3 ErrMin= 2.28D-03
 ErrMax= 2.28D-03 EMaxC= 1.00D-01 BMatC= 4.18D-04 BMatP= 1.61D-02
 IDIUse=3 WtCom= 9.77D-01 WtEn= 2.28D-02
 Coeff-Com:  0.402D-01 0.159D+00 0.800D+00
 Coeff-En:   0.000D+00 0.000D+00 0.100D+01
 Coeff:      0.393D-01 0.156D+00 0.805D+00
 Gap=     0.492 Goal=   None    Shift=    0.000
 RMSDP=8.03D-05 MaxDP=1.87D-03 DE=-9.06D-03 OVMax= 4.13D-03

 Cycle   4  Pass 1  IDiag  1:
 RMSU=  3.90D-05    CP:  9.83D-01  7.35D-01  1.02D+00
 FoFJK:  IHMeth= 1 ICntrl=     0 DoSepK=T KAlg= 1 I1Cent= 0 FoldK=F
 E= -151.533973051351     Delta-E=       -0.000264765804 Rises=F Damp=F
 DIIS: error= 2.62D-04 at cycle   4 NSaved=   4.
 NSaved= 4 IEnMin= 4 EnMin= -151.533973051351     IErMin= 4 ErrMin= 2.62D-04
 ErrMax= 2.62D-04 EMaxC= 1.00D-01 BMatC= 1.01D-05 BMatP= 4.18D-04
 IDIUse=3 WtCom= 9.97D-01 WtEn= 2.62D-03
 Coeff-Com: -0.945D-02-0.129D-01 0.881D-01 0.934D+00
 Coeff-En:   0.000D+00 0.000D+00 0.000D+00 0.100D+01
 Coeff:     -0.942D-02-0.128D-01 0.878D-01 0.934D+00
 Gap=     0.493 Goal=   None    Shift=    0.000
 RMSDP=2.07D-05 MaxDP=8.86D-04 DE=-2.65D-04 OVMax= 8.14D-04

 Cycle   5  Pass 1  IDiag  1:
 RMSU=  6.29D-06    CP:  9.83D-01  7.35D-01  1.06D+00  1.06D+00
 FoFJK:  IHMeth= 1 ICntrl=     0 DoSepK=T KAlg= 1 I1Cent= 0 FoldK=F
 E= -151.533982120967     Delta-E=       -0.000009069616 Rises=F Damp=F
 DIIS: error= 6.24D-05 at cycle   5 NSaved=   5.
 NSaved= 5 IEnMin= 5 EnMin= -151.533982120967     IErMin= 5 ErrMin= 6.24D-05
 ErrMax= 6.24D-05 EMaxC= 1.00D-01 BMatC= 2.29D-07 BMatP= 1.01D-05
 IDIUse=1 WtCom= 1.00D+00 WtEn= 0.00D+00
 Coeff-Com: -0.327D-03-0.206D-02-0.352D-01-0.124D+00 0.116D+01
 Coeff:     -0.327D-03-0.206D-02-0.352D-01-0.124D+00 0.116D+01
 Gap=     0.493 Goal=   None    Shift=    0.000
 RMSDP=5.13D-06 MaxDP=1.09D-04 DE=-9.07D-06 OVMax= 3.42D-04

 Cycle   6  Pass 1  IDiag  1:
 RMSU=  1.63D-06    CP:  9.83D-01  7.36D-01  1.06D+00  1.11D+00  1.33D+00
 FoFJK:  IHMeth= 1 ICntrl=     0 DoSepK=T KAlg= 1 I1Cent= 0 FoldK=F
 E= -151.533982724667     Delta-E=       -0.000000603700 Rises=F Damp=F
 DIIS: error= 1.20D-05 at cycle   6 NSaved=   6.
 NSaved= 6 IEnMin= 6 EnMin= -151.533982724667     IErMin= 6 ErrMin= 1.20D-05
 ErrMax= 1.20D-05 EMaxC= 1.00D-01 BMatC= 1.28D-08 BMatP= 2.29D-07
 IDIUse=1 WtCom= 1.00D+00 WtEn= 0.00D+00
 Coeff-Com:  0.293D-03 0.846D-03 0.430D-02-0.303D-02-0.220D+00 0.122D+01
 Coeff:      0.293D-03 0.846D-03 0.430D-02-0.303D-02-0.220D+00 0.122D+01
[...]
 E= -2753.47778041183     Delta-E=       -0.000000538103 Rises=F Damp=F
 DIIS: error= 4.30D-06 at cycle   2 NSaved=   2.
 NSaved= 2 IEnMin= 2 EnMin= -2753.47778041183     IErMin= 2 ErrMin= 4.30D-06
 ErrMax= 4.30D-06 EMaxC= 1.00D-01 BMatC= 3.68D-09 BMatP= 4.72D-06
 IDIUse=1 WtCom= 1.00D+00 WtEn= 0.00D+00
 Coeff-Com: -0.810D-02 0.101D+01
 Coeff:     -0.810D-02 0.101D+01
 Gap=     0.555 Goal=   None    Shift=    0.000
 RMSDP=1.72D-06 MaxDP=7.13D-05 DE=-5.38D-07 OVMax= 4.53D-05

 Cycle   3  Pass 1  IDiag  1:
 RMSU=  5.37D-07    CP:  1.00D+00  1.10D+00
 FoFJK:  IHMeth= 1 ICntrl=     0 DoSepK=T KAlg= 1 I1Cent= 0 FoldK=F
 E= -2753.47778041824     Delta-E=       -0.000000006416 Rises=F Damp=F
 DIIS: error= 6.49D-07 at cycle   3 NSaved=   3.
 NSaved= 3 IEnMin= 3 EnMin= -2753.47778041824     IErMin= 3 ErrMin= 6.49D-07
 ErrMax= 6.49D-07 EMaxC= 1.00D-01 BMatC= 9.05D-11 BMatP= 3.68D-09
 IDIUse=1 WtCom= 1.00D+00 WtEn= 0.00D+00
 Coeff-Com:  0.331D-03-0.128D+00 0.113D+01
 Coeff:      0.331D-03-0.128D+00 0.113D+01
 Gap=     0.555 Goal=   None    Shift=    0.000
 RMSDP=2.18D-07 MaxDP=9.95D-06 DE=-6.42D-09 OVMax= 9.01D-06

 Cycle   4  Pass 1  IDiag  1:
 RMSU=  4.92D-08    CP:  1.00D+00  1.10D+00  1.19D+00
 FoFJK:  IHMeth= 1 ICntrl=     0 DoSepK=T KAlg= 1 I1Cent= 0 FoldK=F
 E= -2753.47778041841     Delta-E=       -0.000000000170 Rises=F Damp=F
 DIIS: error= 2.68D-07 at cycle   4 NSaved=   4.
 NSaved= 4 IEnMin= 4 EnMin= -2753.47778041841     IErMin= 4 ErrMin= 2.68D-07
 ErrMax= 2.68D-07 EMaxC= 1.00D-01 BMatC= 7.13D-12 BMatP= 9.05D-11
 IDIUse=1 WtCom= 1.00D+00 WtEn= 0.00D+00
 Coeff-Com:  0.180D-03-0.437D-01 0.264D+00 0.780D+00
 Coeff:      0.180D-03-0.437D-01 0.264D+00 0.780D+00
 Gap=     0.555 Goal=   None    Shift=    0.000
 RMSDP=1.66D-08 MaxDP=6.98D-07 DE=-1.70D-10 OVMax= 8.15D-07

 Cycle   5  Pass 1  IDiag  1:
 RMSU=  7.45D-09    CP:  1.00D+00  1.10D+00  1.21D+00  1.12D+00
 FoFJK:  IHMeth= 1 ICntrl=     0 DoSepK=T KAlg= 1 I1Cent= 0 FoldK=F
 E= -2753.47778041842     Delta-E=       -0.000000000011 Rises=F Damp=F
 DIIS: error= 3.44D-08 at cycle   5 NSaved=   5.
 NSaved= 5 IEnMin= 5 EnMin= -2753.47778041842     IErMin= 5 ErrMin= 3.44D-08
 ErrMax= 3.44D-08 EMaxC= 1.00D-01 BMatC= 2.50D-13 BMatP= 7.13D-12
 IDIUse=1 WtCom= 1.00D+00 WtEn= 0.00D+00
 Coeff-Com: -0.110D-04 0.584D-02-0.549D-01 0.154D-01 0.103D+01
 Coeff:     -0.110D-04 0.584D-02-0.549D-01 0.154D-01 0.103D+01
 Gap=     0.555 Goal=   None    Shift=    0.000
 RMSDP=7.53D-09 MaxDP=4.31D-07 DE=-1.09D-11 OVMax= 3.75D-07

 SCF Done:  E(RLC-wPBE) =  -2753.47778042     A.U. after    5 cycles
             Convg  =    0.7528D-08             -V/T =  2.0014
 KE= 2.749555161796D+03 PE=-6.579093087776D+03 EE= 1.076060145561D+03
 Leave Link  502 at Fri May  8 12:24:51 2020, MaxMem= 1073741824 cpu:     122.3
 (Enter /home/matheus/.gaussian/g09/l122.exe)
 Restoring MOs from calculation   4 to rwf.
 Counterpoise: doing MCBS calculation for fragment   1
 Leave Link  122 at Fri May  8 12:24:51 2020, MaxMem= 1073741824 cpu:       0.0
 (Enter /home/matheus/.gaussian/g09/l301.exe)
 Basis read from rwf:  (5D, 7F)
 No pseudopotential information found on rwf file.
 There are   138 symmetry adapted basis functions of A   symmetry.
 Integral buffers will be    131072 words long.
 Raffenetti 2 integral format.
 Two-electron integral symmetry is turned on.
   138 basis functions,   198 primitive gaussians,   160 cartesian basis functions
     9 alpha electrons        9 beta electrons
       nuclear repulsion energy        36.6265003879 Hartrees.
 IExCor=32609 DFT=T Ex+Corr=LC-wPBE ExCW=0 ScaHFX=  1.000000
 ScaDFX=  1.000000  0.000000  1.000000  1.000000 ScalE2=  1.000000  1.000000
 IRadAn=      5 IRanWt=     -1 IRanGd=            0 ICorTp=0
  HFx wShort=  0.000000 wLong=  0.550000 cFull=  0.000000 cShort=  0.000000 cLong=  1.000000
  DFx wShort=  0.000000 wLong=  0.550000 cFull=  0.000000 cShort=  0.000000 cLong=  1.000000
 NAtoms=    5 NActive=    4 NUniq=    4 SFac= 1.00D+00 NAtFMM=   60 NAOKFM=F Big=F
 No density basis found on file   718.
 Leave Link  301 at Fri May  8 12:24:51 2020, MaxMem= 1073741824 cpu:       0.3
 (Enter /home/matheus/.gaussian/g09/l302.exe)
 NPDir=0 NMtPBC=     1 NCelOv=     1 NCel=       1 NClECP=     1 NCelD=      1
         NCelK=      1 NCelE2=     1 NClLst=     1 CellRange=     0.0.
 One-electron integrals computed using PRISM.
 NBasis=   138 RedAO= T  NBF=   138
 NBsUse=   138 1.00D-06 NBFU=   138
 Precomputing XC quadrature grid using
 IXCGrd= 2 IRadAn=           5 IRanWt=          -1 IRanGd=           0 AccXCQ= 0.00D+00.
 NRdTot=     344 NPtTot=       92556 NUsed=       95038 NTot=       95070
 NSgBfM=   160   160   160   160   160 NAtAll=     4     4.
 Leave Link  302 at Fri May  8 12:24:51 2020, MaxMem= 1073741824 cpu:       0.8
 (Enter /home/matheus/.gaussian/g09/l303.exe)
 DipDrv:  MaxL=1.
 Leave Link  303 at Fri May  8 12:24:51 2020, MaxMem= 1073741824 cpu:       0.2
 (Enter /home/matheus/.gaussian/g09/l401.exe)
 Initial guess read from the read-write file.
 Guess basis will be translated and rotated to current coordinates.
 Initial guess orbital symmetries:
       Occupied  (A) (A) (A) (A) (A) (A) (A) (A) (A)
       Virtual   (A) (A) (A) (A) (A) (A) (A) (A) (A) (A) (A) (A)
                 (A) (A) (A) (A) (A) (A) (A) (A) (A) (A) (A) (A)
                 (A) (A) (A) (A) (A) (A) (A) (A) (A) (A) (A) (A)
                 (A) (A) (A) (A) (A) (A) (A) (A) (A) (A) (A) (A)
                 (A) (A) (A) (A) (A) (A) (A) (A) (A) (A) (A) (A)
                 (A) (A) (A) (A) (A) (A) (A) (A) (A) (A) (A) (A)
                 (A) (A) (A) (A) (A) (A) (A) (A) (A) (A) (A) (A)
                 (A) (A) (A) (A) (A) (A) (A) (A) (A) (A) (A) (A)
                 (A) (A) (A) (A) (A) (A) (A) (A) (A) (A) (A) (A)
                 (A) (A) (A) (A) (A) (A) (A) (A) (A) (A) (A) (A)
                 (A) (A) (A) (A) (A) (A) (A) (A) (A)
 The electronic state of the initial guess is 1-A.
 Generating alternative initial guess.
 Harris functional with IExCor=32609 diagonalized for initial guess.
 ExpMin= 2.53D-02 ExpMax= 1.53D+04 ExpMxC= 5.22D+02 IAcc=3 IRadAn=         5 AccDes= 0.00D+00
 HarFok:  IExCor=32609 AccDes= 0.00D+00 IRadAn=         5 IDoV= 1
 ScaDFX=  1.000000  1.000000  1.000000  1.000000
 FoFCou: FMM=F IPFlag=           0 FMFlag=      100000 FMFlg1=           0
         NFxFlg=           0 DoJE=T BraDBF=F KetDBF=T FulRan=T
         Omega=  0.000000  0.000000  1.000000  0.000000  0.000000 ICntrl=     500 IOpCl=  0
         NMat0=    1 NMatS0=    1 NMatT0=    0 NMatD0=    1 NMtDS0=    0 NMtDT0=    0
         I1Cent=           4 NGrid=           0.
 Petite list used in FoFCou.
 Harris En= -151.502724541292    
 Leave Link  401 at Fri May  8 12:24:51 2020, MaxMem= 1073741824 cpu:       2.8
 (Enter /home/matheus/.gaussian/g09/l502.exe)
 Closed shell SCF:
 Requested convergence on RMS density matrix=1.00D-08 within 128 cycles.
 Requested convergence on MAX density matrix=1.00D-06.
 Requested convergence on             energy=1.00D-06.
 No special actions if energy rises.
 Using DIIS extrapolation, IDIIS=  1040.
 Integral symmetry usage will be decided dynamically.
        94980 words used for storage of precomputed grid.
 IEnd=      192360 IEndB=      192360 NGot=  1073741824 MDV=  1073591865
 LenX=  1073591865 LenY=  1073565824
 Fock matrices will be formed incrementally for  20 cycles.

 Cycle   1  Pass 1  IDiag  1:
 FoFJK:  IHMeth= 1 ICntrl=     0 DoSepK=T KAlg= 1 I1Cent= 0 FoldK=F
 FoFCou: FMM=F IPFlag=           0 FMFlag=      100000 FMFlg1=           0
         NFxFlg=           0 DoJE=T BraDBF=F KetDBF=F FulRan=T
         Omega=  0.000000  0.000000  1.000000  0.000000  0.000000 ICntrl=     500 IOpCl=  0
         NMat0=    1 NMatS0=    1 NMatT0=    0 NMatD0=    1 NMtDS0=    0 NMtDT0=    0
         I1Cent=           0 NGrid=           0.
 Symmetry not used in FoFCou.
 E= -151.533982815783    
 DIIS: error= 1.04D-05 at cycle   1 NSaved=   1.
 NSaved= 1 IEnMin= 1 EnMin= -151.533982815783     IErMin= 1 ErrMin= 1.04D-05
 ErrMax= 1.04D-05 EMaxC= 1.00D-01 BMatC= 2.78D-08 BMatP= 2.78D-08
 IDIUse=1 WtCom= 1.00D+00 WtEn= 0.00D+00
 Coeff-Com:  0.100D+01
 Coeff:      0.100D+01
 Gap=     0.493 Goal=   None    Shift=    0.000
 RMSDP=1.01D-06 MaxDP=2.35D-05              OVMax= 4.11D-05

 Cycle   2  Pass 1  IDiag  1:
 RMSU=  7.12D-07    CP:  1.00D+00
 FoFJK:  IHMeth= 1 ICntrl=     0 DoSepK=T KAlg= 1 I1Cent= 0 FoldK=F
 E= -151.533982841368     Delta-E=       -0.000000025585 Rises=F Damp=F
 DIIS: error= 2.59D-06 at cycle   2 NSaved=   2.
 NSaved= 2 IEnMin= 2 EnMin= -151.533982841368     IErMin= 2 ErrMin= 2.59D-06
 ErrMax= 2.59D-06 EMaxC= 1.00D-01 BMatC= 1.17D-09 BMatP= 2.78D-08
 IDIUse=1 WtCom= 1.00D+00 WtEn= 0.00D+00
 Coeff-Com: -0.139D+00 0.114D+01
 Coeff:     -0.139D+00 0.114D+01
 Gap=     0.493 Goal=   None    Shift=    0.000
 RMSDP=3.17D-07 MaxDP=8.94D-06 DE=-2.56D-08 OVMax= 1.84D-05

 Cycle   3  Pass 1  IDiag  1:
 RMSU=  1.20D-07    CP:  1.00D+00  1.27D+00
 FoFJK:  IHMeth= 1 ICntrl=     0 DoSepK=T KAlg= 1 I1Cent= 0 FoldK=F
 E= -151.533982843947     Delta-E=       -0.000000002579 Rises=F Damp=F
 DIIS: error= 8.72D-07 at cycle   3 NSaved=   3.
 NSaved= 3 IEnMin= 3 EnMin= -151.533982843947     IErMin= 3 ErrMin= 8.72D-07
 ErrMax= 8.72D-07 EMaxC= 1.00D-01 BMatC= 1.20D-10 BMatP= 1.17D-09
 IDIUse=1 WtCom= 1.00D+00 WtEn= 0.00D+00
 Coeff-Com: -0.151D-01-0.653D-01 0.108D+01
 Coeff:     -0.151D-01-0.653D-01 0.108D+01
 Gap=     0.493 Goal=   None    Shift=    0.000
 RMSDP=1.08D-07 MaxDP=2.42D-06 DE=-2.58D-09 OVMax= 7.03D-06

 Cycle   4  Pass 1  IDiag  1:
 RMSU=  4.31D-08    CP:  1.00D+00  1.33D+00  1.36D+00
 FoFJK:  IHMeth= 1 ICntrl=     0 DoSepK=T KAlg= 1 I1Cent= 0 FoldK=F
 E= -151.533982844213     Delta-E=       -0.000000000266 Rises=F Damp=F
 DIIS: error= 6.08D-07 at cycle   4 NSaved=   4.
 NSaved= 4 IEnMin= 4 EnMin= -151.533982844213     IErMin= 4 ErrMin= 6.08D-07
 ErrMax= 6.08D-07 EMaxC= 1.00D-01 BMatC= 7.56D-11 BMatP= 1.20D-10
 IDIUse=1 WtCom= 1.00D+00 WtEn= 0.00D+00
 Coeff-Com:  0.107D-01-0.188D+00 0.539D+00 0.639D+00
 Coeff:      0.107D-01-0.188D+00 0.539D+00 0.639D+00
 Gap=     0.493 Goal=   None    Shift=    0.000
 RMSDP=4.23D-08 MaxDP=7.53D-07 DE=-2.66D-10 OVMax= 2.79D-06

 Cycle   5  Pass 1  IDiag  1:
 RMSU=  1.67D-08    CP:  1.00D+00  1.35D+00  1.53D+00  7.95D-01
 FoFJK:  IHMeth= 1 ICntrl=     0 DoSepK=T KAlg= 1 I1Cent= 0 FoldK=F
 E= -151.533982844287     Delta-E=       -0.000000000074 Rises=F Damp=F
 DIIS: error= 1.64D-07 at cycle   5 NSaved=   5.
 NSaved= 5 IEnMin= 5 EnMin= -151.533982844287     IErMin= 5 ErrMin= 1.64D-07
 ErrMax= 1.64D-07 EMaxC= 1.00D-01 BMatC= 4.14D-12 BMatP= 7.56D-11
 IDIUse=1 WtCom= 1.00D+00 WtEn= 0.00D+00
 Coeff-Com:  0.340D-02-0.112D-01-0.133D+00 0.737D-01 0.107D+01
 Coeff:      0.340D-02-0.112D-01-0.133D+00 0.737D-01 0.107D+01
 Gap=     0.493 Goal=   None    Shift=    0.000
 RMSDP=2.20D-08 MaxDP=4.55D-07 DE=-7.44D-11 OVMax= 1.93D-06

 Cycle   6  Pass 1  IDiag  1:
 RMSU=  5.22D-09    CP:  1.00D+00  1.35D+00  1.61D+00  9.81D-01  1.40D+00
 FoFJK:  IHMeth= 1 ICntrl=     0 DoSepK=T KAlg= 1 I1Cent= 0 FoldK=F
 E= -151.533982844298     Delta-E=       -0.000000000011 Rises=F Damp=F
 DIIS: error= 4.98D-08 at cycle   6 NSaved=   6.
 NSaved= 6 IEnMin= 6 EnMin= -151.533982844298     IErMin= 6 ErrMin= 4.98D-08
 ErrMax= 4.98D-08 EMaxC= 1.00D-01 BMatC= 3.11D-13 BMatP= 4.14D-12
 IDIUse=1 WtCom= 1.00D+00 WtEn= 0.00D+00
 Coeff-Com: -0.131D-02 0.201D-01-0.466D-01-0.630D-01-0.336D-01 0.112D+01
 Coeff:     -0.131D-02 0.201D-01-0.466D-01-0.630D-01-0.336D-01 0.112D+01
 Gap=     0.493 Goal=   None    Shift=    0.000
 RMSDP=7.90D-09 MaxDP=1.60D-07 DE=-1.15D-11 OVMax= 7.51D-07

 SCF Done:  E(RLC-wPBE) =  -151.533982844     A.U. after    6 cycles
             Convg  =    0.7904D-08             -V/T =  2.0071
 KE= 1.504721341715D+02 PE=-4.315568590344D+02 EE= 9.292424163066D+01
 Leave Link  502 at Fri May  8 12:24:59 2020, MaxMem= 1073741824 cpu:      58.7
 (Enter /home/matheus/.gaussian/g09/l122.exe)
 Restoring MOs from calculation   5 to rwf.
 Counterpoise: doing MCBS calculation for fragment   2
 Leave Link  122 at Fri May  8 12:24:59 2020, MaxMem= 1073741824 cpu:       0.0
 (Enter /home/matheus/.gaussian/g09/l301.exe)
 Basis read from rwf:  (5D, 7F)
 No pseudopotential information found on rwf file.
 There are    59 symmetry adapted basis functions of A   symmetry.
 Integral buffers will be    131072 words long.
 Raffenetti 2 integral format.
 Two-electron integral symmetry is turned on.
    59 basis functions,   217 primitive gaussians,    69 cartesian basis functions
    18 alpha electrons       18 beta electrons
       nuclear repulsion energy         0.0000000000 Hartrees.
 IExCor=32609 DFT=T Ex+Corr=LC-wPBE ExCW=0 ScaHFX=  1.000000
 ScaDFX=  1.000000  0.000000  1.000000  1.000000 ScalE2=  1.000000  1.000000
 IRadAn=      5 IRanWt=     -1 IRanGd=            0 ICorTp=0
  HFx wShort=  0.000000 wLong=  0.550000 cFull=  0.000000 cShort=  0.000000 cLong=  1.000000
  DFx wShort=  0.000000 wLong=  0.550000 cFull=  0.000000 cShort=  0.000000 cLong=  1.000000
 NAtoms=    5 NActive=    1 NUniq=    1 SFac= 1.00D+00 NAtFMM=   60 NAOKFM=F Big=F
 No density basis found on file   718.
 Leave Link  301 at Fri May  8 12:24:59 2020, MaxMem= 1073741824 cpu:       0.2
 (Enter /home/matheus/.gaussian/g09/l302.exe)
 NPDir=0 NMtPBC=     1 NCelOv=     1 NCel=       1 NClECP=     1 NCelD=      1
         NCelK=      1 NCelE2=     1 NClLst=     1 CellRange=     0.0.
 One-electron integrals computed using PRISM.
 NBasis=    59 RedAO= T  NBF=    59
 NBsUse=    59 1.00D-06 NBFU=    59
 Precomputing XC quadrature grid using
 IXCGrd= 2 IRadAn=           5 IRanWt=          -1 IRanGd=           0 AccXCQ= 0.00D+00.
 NRdTot=      81 NPtTot=       30352 NUsed=       30981 NTot=       31013
 NSgBfM=    69    69    69    69    69 NAtAll=     1     1.
 Leave Link  302 at Fri May  8 12:24:59 2020, MaxMem= 1073741824 cpu:       0.7
 (Enter /home/matheus/.gaussian/g09/l303.exe)
 DipDrv:  MaxL=1.
 Leave Link  303 at Fri May  8 12:24:59 2020, MaxMem= 1073741824 cpu:       0.2
 (Enter /home/matheus/.gaussian/g09/l401.exe)
 Initial guess read from the read-write file.
 Guess basis will be translated and rotated to current coordinates.
 Initial guess orbital symmetries:
       Occupied  (A) (A) (A) (A) (A) (A) (A) (A) (A) (A) (A) (A)
                 (A) (A) (A) (A) (A) (A)
       Virtual   (A) (A) (A) (A) (A) (A) (A) (A) (A) (A) (A) (A)
                 (A) (A) (A) (A) (A) (A) (A) (A) (A) (A) (A) (A)
                 (A) (A) (A) (A) (A) (A) (A) (A) (A) (A) (A) (A)
                 (A) (A) (A) (A) (A)
 The electronic state of the initial guess is 1-A.
 Generating alternative initial guess.
 Harris functional with IExCor=32609 diagonalized for initial guess.
 ExpMin= 4.00D-02 ExpMax= 1.17D+07 ExpMxC= 1.33D+04 IAcc=3 IRadAn=         5 AccDes= 0.00D+00
 HarFok:  IExCor=32609 AccDes= 0.00D+00 IRadAn=         5 IDoV= 1
 ScaDFX=  1.000000  1.000000  1.000000  1.000000
 FoFCou: FMM=F IPFlag=           0 FMFlag=      100000 FMFlg1=           0
         NFxFlg=           0 DoJE=T BraDBF=F KetDBF=T FulRan=T
         Omega=  0.000000  0.000000  1.000000  0.000000  0.000000 ICntrl=     500 IOpCl=  0
         NMat0=    1 NMatS0=    1 NMatT0=    0 NMatD0=    1 NMtDS0=    0 NMtDT0=    0
         I1Cent=           4 NGrid=           0.
 Petite list used in FoFCou.
 DSYEVD returned Info=          89 IAlg= 4 N=    59 NDim=    59 NE2=    18198841 trying DSYEV.
 Harris En= -2753.24576836237    
 Leave Link  401 at Fri May  8 12:24:59 2020, MaxMem= 1073741824 cpu:       1.2
 (Enter /home/matheus/.gaussian/g09/l502.exe)
 Closed shell SCF:
 Requested convergence on RMS density matrix=1.00D-08 within 128 cycles.
 Requested convergence on MAX density matrix=1.00D-06.
 Requested convergence on             energy=1.00D-06.
 No special actions if energy rises.
 Using DIIS extrapolation, IDIIS=  1040.
 Integral symmetry usage will be decided dynamically.
        30923 words used for storage of precomputed grid.
 IEnd=       64406 IEndB=       64406 NGot=  1073741824 MDV=  1073698889
 LenX=  1073698889 LenY=  1073693687
 Fock matrices will be formed incrementally for  20 cycles.

 Cycle   1  Pass 1  IDiag  1:
 FoFJK:  IHMeth= 1 ICntrl=     0 DoSepK=T KAlg= 1 I1Cent= 0 FoldK=F
 FoFCou: FMM=F IPFlag=           0 FMFlag=      100000 FMFlg1=           0
         NFxFlg=           0 DoJE=T BraDBF=F KetDBF=F FulRan=T
         Omega=  0.000000  0.000000  1.000000  0.000000  0.000000 ICntrl=     500 IOpCl=  0
         NMat0=    1 NMatS0=    1 NMatT0=    0 NMatD0=    1 NMtDS0=    0 NMtDT0=    0
         I1Cent=           0 NGrid=           0.
 Symmetry not used in FoFCou.
 E= -2753.47775989058    
 DIIS: error= 7.39D-14 at cycle   1 NSaved=   1.
 NSaved= 1 IEnMin= 1 EnMin= -2753.47775989058     IErMin= 1 ErrMin= 7.39D-14
 ErrMax= 7.39D-14 EMaxC= 1.00D-01 BMatC= 1.60D-25 BMatP= 1.60D-25
 IDIUse=1 WtCom= 1.00D+00 WtEn= 0.00D+00
 Coeff-Com:  0.100D+01
 Coeff:      0.100D+01
 Gap=     0.626 Goal=   None    Shift=    0.000
 RMSDP=4.68D-15 MaxDP=8.77D-14              OVMax= 3.06D-14

 SCF Done:  E(RLC-wPBE) =  -2753.47775989     A.U. after    1 cycles
             Convg  =    0.4677D-14             -V/T =  2.0014
 KE= 2.749561508178D+03 PE=-6.579099712888D+03 EE= 1.076060444820D+03
 Leave Link  502 at Fri May  8 12:25:01 2020, MaxMem= 1073741824 cpu:      15.9
 (Enter /home/matheus/.gaussian/g09/l122.exe)
 Restoring MOs from calculation   1 to rwf.
 Counterpoise: corrected energy =   -2905.011774592877
 Counterpoise: BSSE energy =       0.000024212326
 Leave Link  122 at Fri May  8 12:25:01 2020, MaxMem= 1073741824 cpu:       0.0
 (Enter /home/matheus/.gaussian/g09/l108.exe)
 Scan completed.

 Summary of the potential surface scan:
   N      R1          SCF    
 ----  ---------  -----------
    1     3.0000  -2753.47776
    2     3.1000  -2753.47776
    3     3.2000  -2753.47776
    4     3.3000  -2753.47776
    5     3.4000  -2753.47776
    6     3.5000  -2753.47776
    7     3.6000  -2753.47776
    8     3.7000  -2753.47776
    9     3.8000  -2753.47776
   10     3.9000  -2753.47776
   11     4.0000  -2753.47776
   12     4.1000  -2753.47776
   13     4.2000  -2753.47776
   14     4.3000  -2753.47776
   15     4.4000  -2753.47776
   16     4.5000  -2753.47776
   17     4.6000  -2753.47776
   18     4.7000  -2753.47776
   19     4.8000  -2753.47776
   20     4.9000  -2753.47776
   21     5.0000  -2753.47776
 ----  ---------  -----------
  
 Leave Link  108 at Fri May  8 12:25:01 2020, MaxMem= 1073741824 cpu:       0.0
 (Enter /home/matheus/.gaussian/g09/l9999.exe)

 Test job not archived.
 1\1\GINC-REDGIANT\Scan\RLC-wPBE\Aug-CC-pVTZ\H2Kr1O2\MATHEUS\08-May-202
 0\1\\#p lc-wpbe/aug-cc-PVTz iop(3/107=0550000000) iop(3/108=0550000000
 ) int=ultrafine counterpoise=2 Scan\\TCC\\0,1\O,0,0.,0.,0.725\O,0,0.,0
 .,-0.725\H,0,0.9187205947,0.,1.0235104166\H,0,0.,0.9187205947,-1.02351
 04166\Kr,0,0.,R1,0.\\R1=3.,s,20,0.1\\Version=EM64L-G09RevC.01\State=1-
 A\HF=-2753.4777599,-2753.4777599,-2753.4777599,-2753.4777599,-2753.477
 7599,-2753.4777599,-2753.4777599,-2753.4777599,-2753.4777599,-2753.477
 7599,-2753.4777599,-2753.4777599,-2753.4777599,-2753.4777599,-2753.477
 7599,-2753.4777599,-2753.4777599,-2753.4777599,-2753.4777599,-2753.477
 7599,-2753.4777599\RMSD=1.997e-09,5.419e-11,1.021e-11,4.445e-12,2.191e
 -12,1.226e-12,6.725e-13,3.801e-13,2.157e-13,1.190e-13,6.606e-14,3.440e
 -14,1.546e-14,1.440e-14,1.257e-14,4.867e-15,9.089e-15,1.270e-14,6.519e
 -15,4.470e-15,4.677e-15\PG=C01 [X(H2Kr1O2)]\\@


 ALL MY ATTEMPTS TO ADAPT THE THEORETICAL FOUNDATIONS OF PHYSICS
 TO THESE NEW NOTIONS FAILED COMPLETELY. IT WAS AS IF THE GROUND HAD
 BEEN PULLED OUT FROM UNDER ONE WITH NO FIRM FOUNDATION TO BE SEEN ANYWHERE,
 UPON WHICH ONE COULD HAVE BUILT.  -- A.EINSTEIN
 Job cpu time:  0 days  4 hours  0 minutes 46.0 seconds.
 File lengths (MBytes):  RWF=     37 Int=      0 D2E=      0 Chk=      8 Scr=      1
 Normal termination of Gaussian 09 at Fri May  8 12:25:01 2020.
