 Entering Gaussian System, Link 0=g09
 Input=/home/matheus/.tcc/Inputs-lc-wpbe/H2O2-Kr_18.com
 Output=/home/matheus/.tcc/Logs-lc-wpbe/H2O2-Kr_18.log
 Initial command:
 /home/matheus/.gaussian/g09/l1.exe /home/matheus/.gaussian/g09/scratch/Gau-2964.inp -scrdir=/home/matheus/.gaussian/g09/scratch/
 Entering Link 1 = /home/matheus/.gaussian/g09/l1.exe PID=      2967.
  
 Copyright (c) 1988,1990,1992,1993,1995,1998,2003,2009,2011,
            Gaussian, Inc.  All Rights Reserved.
  
 This is part of the Gaussian(R) 09 program.  It is based on
 the Gaussian(R) 03 system (copyright 2003, Gaussian, Inc.),
 the Gaussian(R) 98 system (copyright 1998, Gaussian, Inc.),
 the Gaussian(R) 94 system (copyright 1995, Gaussian, Inc.),
 the Gaussian 92(TM) system (copyright 1992, Gaussian, Inc.),
 the Gaussian 90(TM) system (copyright 1990, Gaussian, Inc.),
 the Gaussian 88(TM) system (copyright 1988, Gaussian, Inc.),
 the Gaussian 86(TM) system (copyright 1986, Carnegie Mellon
 University), and the Gaussian 82(TM) system (copyright 1983,
 Carnegie Mellon University). Gaussian is a federally registered
 trademark of Gaussian, Inc.
  
 This software contains proprietary and confidential information,
 including trade secrets, belonging to Gaussian, Inc.
  
 This software is provided under written license and may be
 used, copied, transmitted, or stored only in accord with that
 written license.
  
 The following legend is applicable only to US Government
 contracts under FAR:
  
                    RESTRICTED RIGHTS LEGEND
  
 Use, reproduction and disclosure by the US Government is
 subject to restrictions as set forth in subparagraphs (a)
 and (c) of the Commercial Computer Software - Restricted
 Rights clause in FAR 52.227-19.
  
 Gaussian, Inc.
 340 Quinnipiac St., Bldg. 40, Wallingford CT 06492
  
  
 ---------------------------------------------------------------
 Warning -- This program may not be used in any manner that
 competes with the business of Gaussian, Inc. or will provide
 assistance to any competitor of Gaussian, Inc.  The licensee
 of this program is prohibited from giving any competitor of
 Gaussian, Inc. access to this program.  By using this program,
 the user acknowledges that Gaussian, Inc. is engaged in the
 business of creating and licensing software in the field of
 computational chemistry and represents and warrants to the
 licensee that it is not a competitor of Gaussian, Inc. and that
 it will not use this program in any manner prohibited above.
 ---------------------------------------------------------------
  

 Cite this work as:
 Gaussian 09, Revision C.01,
 M. J. Frisch, G. W. Trucks, H. B. Schlegel, G. E. Scuseria, 
 M. A. Robb, J. R. Cheeseman, G. Scalmani, V. Barone, B. Mennucci, 
 G. A. Petersson, H. Nakatsuji, M. Caricato, X. Li, H. P. Hratchian, 
 A. F. Izmaylov, J. Bloino, G. Zheng, J. L. Sonnenberg, M. Hada, 
 M. Ehara, K. Toyota, R. Fukuda, J. Hasegawa, M. Ishida, T. Nakajima, 
 Y. Honda, O. Kitao, H. Nakai, T. Vreven, J. A. Montgomery, Jr., 
 J. E. Peralta, F. Ogliaro, M. Bearpark, J. J. Heyd, E. Brothers, 
 K. N. Kudin, V. N. Staroverov, T. Keith, R. Kobayashi, J. Normand, 
 K. Raghavachari, A. Rendell, J. C. Burant, S. S. Iyengar, J. Tomasi, 
 M. Cossi, N. Rega, J. M. Millam, M. Klene, J. E. Knox, J. B. Cross, 
 V. Bakken, C. Adamo, J. Jaramillo, R. Gomperts, R. E. Stratmann, 
 O. Yazyev, A. J. Austin, R. Cammi, C. Pomelli, J. W. Ochterski, 
 R. L. Martin, K. Morokuma, V. G. Zakrzewski, G. A. Voth, 
 P. Salvador, J. J. Dannenberg, S. Dapprich, A. D. Daniels, 
 O. Farkas, J. B. Foresman, J. V. Ortiz, J. Cioslowski, 
 and D. J. Fox, Gaussian, Inc., Wallingford CT, 2010.
 
 ******************************************
 Gaussian 09:  EM64L-G09RevC.01 23-Sep-2011
                 8-May-2020 
 ******************************************
 %mem=8GB
 %nproc=8
 Will use up to    8 processors via shared memory.
 ----------------------------------------------------------------------
 #p lc-wpbe/aug-cc-PVTz iop(3/107=0550000000) iop(3/108=0550000000) int
 =ultrafine counterpoise=2 Scan
 ----------------------------------------------------------------------
 1/38=1,60=1,62=2/1,8;
 2/12=2,17=6,18=5,29=3,40=1/2;
 1/38=1,53=5172,62=2/22;
 3/5=16,6=1,7=10,11=2,16=1,25=1,30=1,74=-41,75=-5,107=550000000,108=550000000/1,2,3;
 4//1;
 5/5=2,38=5/2;
 6/7=2,8=2,9=2,10=2,18=1,28=1/1;
 1/53=4052,62=2,63=1/22;
 3/5=7,6=11,7=10,11=2,16=1,25=1,30=1,74=-41,75=-5,82=7,107=550000000,108=550000000/1,2,3;
 4//1;
 5/5=2,38=5/2;
 6/7=2,8=2,9=2,10=2,18=1,28=1/1;
 1/53=3042,62=2,63=2/22;
 3/5=7,6=11,7=10,11=2,16=1,25=1,30=1,74=-41,75=-5,82=7,107=550000000,108=550000000/1,2,3;
 4//1;
 5/5=2,38=5/2;
 6/7=2,8=2,9=2,10=2,18=1,28=1/1;
 1/53=2032,62=2,63=3/22;
 3/5=7,6=11,7=10,11=2,16=1,25=1,30=1,74=-41,75=-5,82=7,107=550000000,108=550000000/1,2,3;
 4//1;
 5/5=2,38=5/2;
 6/7=2,8=2,9=2,10=2,18=1,28=1/1;
 1/53=1022,62=2,63=4/22;
 3/5=7,6=11,7=10,11=2,16=1,25=1,30=1,74=-41,75=-5,82=7,107=550000000,108=550000000/1,2,3;
 4//1;
 5/5=2,38=5/2;
 6/7=2,8=2,9=2,10=2,18=1,28=1/1;
 1/53=5014,62=2,63=5/22;
 1/60=1,62=2/8(1);
 99/9=1/99;
 2/29=3/2;
 1/53=5173,62=2/22;
 3/5=7,6=11,7=10,11=2,16=1,25=1,30=1,74=-41,75=-5,82=7,107=550000000,108=550000000/1,2,3;
 4/5=5,16=3/1;
 5/5=2,38=5/2;
 1/53=4053,62=2,63=1/22;
 3/5=7,6=11,7=10,11=2,16=1,25=1,30=1,74=-41,75=-5,82=7,107=550000000,108=550000000/1,2,3;
 4/5=5,16=3/1;
 5/5=2,38=5/2;
 1/53=3043,62=2,63=2/22;
 3/5=7,6=11,7=10,11=2,16=1,25=1,30=1,74=-41,75=-5,82=7,107=550000000,108=550000000/1,2,3;
 4/5=5,16=3/1;
 5/5=2,38=5/2;
 1/53=2033,62=2,63=3/22;
 3/5=7,6=11,7=10,11=2,16=1,25=1,30=1,74=-41,75=-5,82=7,107=550000000,108=550000000/1,2,3;
 4/5=5,16=3/1;
 5/5=2,38=5/2;
 1/53=1024,62=2,63=4/22;
 3/5=7,6=11,7=10,11=2,16=1,25=1,30=1,74=-41,75=-5,82=7,107=550000000,108=550000000/1,2,3;
 4/5=5,16=3/1;
 5/5=2,38=5/2;
 1/53=5014,62=2,63=5/22;
 1/60=1,62=2/8(-22);
 99/9=1/99;
 Leave Link    1 at Fri May  8 15:46:09 2020, MaxMem= 1073741824 cpu:       0.1
 (Enter /home/matheus/.gaussian/g09/l101.exe)
 ---
 TCC
 ---
 Charge =  0 Multiplicity = 1 in supermolecule
 Charge =  0 Multiplicity = 1 in fragment  1.
 Charge =  0 Multiplicity = 1 in fragment  2.
 Symbolic Z-Matrix:
 O(Fragment=1)         0.        0.        0.725 
 O(Fragment=1)         0.        0.       -0.725 
 H(Fragment=1)         0.       -0.91872   1.02351 
 H(Fragment=1)         0.        0.91872  -1.02351 
 Kr(Fragment=2)        0.       R1        0. 
       Variables:
  R1                    3.     Scan 20    0.1    
 
 NAtoms=      5 NQM=        0 NQMF=       0 NMMI=      5 NMMIF=      0
                NMic=       0 NMicF=      0.
                    Isotopes and Nuclear Properties:
 (Nuclear quadrupole moments (NQMom) in fm**2, nuclear magnetic moments (NMagM)
  in nuclear magnetons)

  Atom         1           2           3           4           5
 IAtWgt=          16          16           1           1          84
 AtmWgt=  15.9949146  15.9949146   1.0078250   1.0078250  83.9115064
 NucSpn=           0           0           1           1           0
 AtZEff=   0.0000000   0.0000000   0.0000000   0.0000000   0.0000000
 NQMom=    0.0000000   0.0000000   0.0000000   0.0000000   0.0000000
 NMagM=    0.0000000   0.0000000   2.7928460   2.7928460   0.0000000
 Leave Link  101 at Fri May  8 15:46:09 2020, MaxMem= 1073741824 cpu:       0.4
 (Enter /home/matheus/.gaussian/g09/l108.exe)
 Scan the potential surface.
 Variable   Value     No. Steps Step-Size
 -------- ----------- --------- ---------
     1       3.000000      20      0.1000
 A total of     21 points will be computed.
 Leave Link  108 at Fri May  8 15:46:09 2020, MaxMem= 1073741824 cpu:       0.0
 (Enter /home/matheus/.gaussian/g09/l202.exe)
 ---------------------------------------------------------------------------------------------------
                            Z-MATRIX (ANGSTROMS AND DEGREES)
   CD    Cent   Atom    N1       Length/X        N2       Alpha/Y        N3        Beta/Z          J
 ---------------------------------------------------------------------------------------------------
      1      1  O        0   0.000000          0.000000          0.725000
      2      2  O        0   0.000000          0.000000         -0.725000
      3      3  H        0   0.000000         -0.918721          1.023510
      4      4  H        0   0.000000          0.918721         -1.023510
      5      5  Kr       0   0.000000          3.000000          0.000000
 ---------------------------------------------------------------------------------------------------
                         Z-Matrix orientation:                         
 ---------------------------------------------------------------------
 Center     Atomic      Atomic             Coordinates (Angstroms)
 Number     Number       Type             X           Y           Z
 ---------------------------------------------------------------------
      1          8           0        0.000000    0.000000    0.725000
      2          8           0        0.000000    0.000000   -0.725000
      3          1           0        0.000000   -0.918721    1.023510
      4          1           0        0.000000    0.918721   -1.023510
      5         36           0        0.000000    3.000000    0.000000
 ---------------------------------------------------------------------
                    Distance matrix (angstroms):
                    1          2          3          4          5
     1  O    0.000000
     2  O    1.450000   0.000000
     3  H    0.966000   1.975180   0.000000
     4  H    1.975180   0.966000   2.750724   0.000000
     5  Kr   3.086361   3.086361   4.050178   2.319331   0.000000
 Stoichiometry    H2KrO2
 Framework group  CS[SG(H2KrO2)]
 Deg. of freedom     7
 Full point group                 CS      NOp   2
 Largest Abelian subgroup         CS      NOp   2
 Largest concise Abelian subgroup C1      NOp   1
                         Standard orientation:                         
 ---------------------------------------------------------------------
 Center     Atomic      Atomic             Coordinates (Angstroms)
 Number     Number       Type             X           Y           Z
 ---------------------------------------------------------------------
      1          8           0        0.725000   -2.000000    0.000000
      2          8           0       -0.725000   -2.000000    0.000000
      3          1           0        1.023510   -2.918721    0.000000
      4          1           0       -1.023510   -1.081279    0.000000
      5         36           0        0.000000    1.000000    0.000000
 ---------------------------------------------------------------------
 Rotational constants (GHZ):     26.7279120      2.3023206      2.1197289
 Leave Link  202 at Fri May  8 15:46:09 2020, MaxMem= 1073741824 cpu:       0.0
 (Enter /home/matheus/.gaussian/g09/l122.exe)
 Leave Link  122 at Fri May  8 15:46:09 2020, MaxMem= 1073741824 cpu:       0.0
 (Enter /home/matheus/.gaussian/g09/l301.exe)
 Standard basis: Aug-CC-pVTZ (5D, 7F)
 Ernie: Thresh=  0.10000D-02 Tol=  0.10000D-05 Strict=F.
 Ernie:  38 primitive shells out of 205 were deleted.
 There are   131 symmetry adapted basis functions of A'  symmetry.
 There are    66 symmetry adapted basis functions of A"  symmetry.
 Integral buffers will be    131072 words long.
 Raffenetti 2 integral format.
 Two-electron integral symmetry is turned on.
   197 basis functions,   415 primitive gaussians,   229 cartesian basis functions
    27 alpha electrons       27 beta electrons
       nuclear repulsion energy       148.2769905491 Hartrees.
 IExCor=32609 DFT=T Ex+Corr=LC-wPBE ExCW=0 ScaHFX=  1.000000
 ScaDFX=  1.000000  0.000000  1.000000  1.000000 ScalE2=  1.000000  1.000000
 IRadAn=      5 IRanWt=     -1 IRanGd=            0 ICorTp=0
  HFx wShort=  0.000000 wLong=  0.550000 cFull=  0.000000 cShort=  0.000000 cLong=  1.000000
  DFx wShort=  0.000000 wLong=  0.550000 cFull=  0.000000 cShort=  0.000000 cLong=  1.000000
 NAtoms=    5 NActive=    5 NUniq=    5 SFac= 1.00D+00 NAtFMM=   60 NAOKFM=F Big=F
 Leave Link  301 at Fri May  8 15:46:09 2020, MaxMem= 1073741824 cpu:       0.2
 (Enter /home/matheus/.gaussian/g09/l302.exe)
 NPDir=0 NMtPBC=     1 NCelOv=     1 NCel=       1 NClECP=     1 NCelD=      1
         NCelK=      1 NCelE2=     1 NClLst=     1 CellRange=     0.0.
 One-electron integrals computed using PRISM.
 NBasis=   197 RedAO= T  NBF=   131    66
 NBsUse=   197 1.00D-06 NBFU=   131    66
 Precomputing XC quadrature grid using
 IXCGrd= 2 IRadAn=           5 IRanWt=          -1 IRanGd=           0 AccXCQ= 0.00D+00.
 NRdTot=     427 NPtTot=      123814 NUsed=      126881 NTot=      126913
 NSgBfM=   229   229   229   229   229 NAtAll=     5     5.
 Leave Link  302 at Fri May  8 15:46:09 2020, MaxMem= 1073741824 cpu:       0.9
 (Enter /home/matheus/.gaussian/g09/l303.exe)
 DipDrv:  MaxL=1.
 Leave Link  303 at Fri May  8 15:46:09 2020, MaxMem= 1073741824 cpu:       0.2
 (Enter /home/matheus/.gaussian/g09/l401.exe)
 Harris functional with IExCor=32609 diagonalized for initial guess.
 ExpMin= 2.53D-02 ExpMax= 1.17D+07 ExpMxC= 1.33D+04 IAcc=3 IRadAn=         5 AccDes= 0.00D+00
 HarFok:  IExCor=32609 AccDes= 0.00D+00 IRadAn=         5 IDoV= 1
 ScaDFX=  1.000000  1.000000  1.000000  1.000000
 FoFCou: FMM=F IPFlag=           0 FMFlag=      100000 FMFlg1=           0
         NFxFlg=           0 DoJE=T BraDBF=F KetDBF=T FulRan=T
         Omega=  0.000000  0.000000  1.000000  0.000000  0.000000 ICntrl=     500 IOpCl=  0
         NMat0=    1 NMatS0=    1 NMatT0=    0 NMatD0=    1 NMtDS0=    0 NMtDT0=    0
         I1Cent=           4 NGrid=           0.
 Petite list used in FoFCou.
 Harris En= -2904.73649432001    
 Initial guess orbital symmetries:
       Occupied  (A') (A') (A') (A') (A") (A') (A') (A') (A') (A')
                 (A") (A') (A') (A") (A') (A") (A') (A') (A') (A')
                 (A') (A") (A') (A") (A') (A') (A")
       Virtual   (A') (A') (A') (A') (A") (A') (A') (A') (A") (A')
                 (A') (A") (A') (A') (A") (A') (A") (A') (A') (A')
                 (A") (A') (A') (A") (A') (A') (A') (A') (A") (A')
                 (A') (A') (A") (A') (A") (A") (A') (A') (A') (A")
                 (A") (A') (A') (A') (A") (A') (A') (A") (A") (A')
                 (A') (A') (A") (A") (A') (A") (A') (A') (A') (A')
                 (A") (A') (A") (A') (A") (A') (A') (A') (A") (A')
                 (A') (A") (A") (A') (A') (A') (A") (A') (A') (A')
                 (A") (A') (A') (A") (A") (A') (A") (A') (A') (A")
                 (A') (A') (A") (A') (A') (A") (A') (A') (A") (A")
                 (A') (A') (A") (A') (A") (A') (A") (A') (A') (A")
                 (A') (A') (A") (A') (A') (A') (A') (A") (A') (A')
                 (A") (A') (A") (A') (A") (A") (A') (A") (A') (A")
                 (A') (A') (A') (A') (A') (A') (A') (A') (A") (A")
                 (A') (A') (A') (A") (A') (A') (A") (A') (A") (A')
                 (A") (A') (A") (A") (A") (A") (A") (A') (A') (A')
                 (A') (A") (A') (A') (A') (A') (A') (A') (A') (A')
 The electronic state of the initial guess is 1-A'.
 Leave Link  401 at Fri May  8 15:46:09 2020, MaxMem= 1073741824 cpu:       2.5
 (Enter /home/matheus/.gaussian/g09/l502.exe)
 Closed shell SCF:
 Requested convergence on RMS density matrix=1.00D-08 within 128 cycles.
 Requested convergence on MAX density matrix=1.00D-06.
 Requested convergence on             energy=1.00D-06.
 No special actions if energy rises.
 Using DIIS extrapolation, IDIIS=  1040.
 Integral symmetry usage will be decided dynamically.
       126823 words used for storage of precomputed grid.
 IEnd=      305835 IEndB=      305835 NGot=  1073741824 MDV=  1073505300
 LenX=  1073505300 LenY=  1073452418
 Fock matrices will be formed incrementally for  20 cycles.

 Cycle   1  Pass 1  IDiag  1:
 FoFJK:  IHMeth= 1 ICntrl=     0 DoSepK=T KAlg= 1 I1Cent= 0 FoldK=F
 FoFCou: FMM=F IPFlag=           0 FMFlag=      100000 FMFlg1=           0
         NFxFlg=           0 DoJE=T BraDBF=F KetDBF=F FulRan=T
         Omega=  0.000000  0.000000  1.000000  0.000000  0.000000 ICntrl=     500 IOpCl=  0
         NMat0=    1 NMatS0=    1 NMatT0=    0 NMatD0=    1 NMtDS0=    0 NMtDT0=    0
         I1Cent=           0 NGrid=           0.
 Petite list used in FoFCou.
 E= -2904.93095501933    
 DIIS: error= 3.15D-02 at cycle   1 NSaved=   1.
 NSaved= 1 IEnMin= 1 EnMin= -2904.93095501933     IErMin= 1 ErrMin= 3.15D-02
 ErrMax= 3.15D-02 EMaxC= 1.00D-01 BMatC= 2.67D-01 BMatP= 2.67D-01
 IDIUse=3 WtCom= 6.85D-01 WtEn= 3.15D-01
 Coeff-Com:  0.100D+01
 Coeff-En:   0.100D+01
 Coeff:      0.100D+01
 Gap=     0.472 Goal=   None    Shift=    0.000
 GapD=    0.472 DampG=2.000 DampE=0.500 DampFc=1.0000 IDamp=-1.
 RMSDP=2.26D-03 MaxDP=1.43D-01              OVMax= 6.15D-02

 Cycle   2  Pass 1  IDiag  1:
 RMSU=  1.57D-03    CP:  1.02D+00
 FoFJK:  IHMeth= 1 ICntrl=     0 DoSepK=T KAlg= 1 I1Cent= 0 FoldK=F
 E= -2904.98125841557     Delta-E=       -0.050303396245 Rises=F Damp=F
 DIIS: error= 1.23D-02 at cycle   2 NSaved=   2.
 NSaved= 2 IEnMin= 2 EnMin= -2904.98125841557     IErMin= 2 ErrMin= 1.23D-02
 ErrMax= 1.23D-02 EMaxC= 1.00D-01 BMatC= 6.68D-02 BMatP= 2.67D-01
 IDIUse=3 WtCom= 8.77D-01 WtEn= 1.23D-01
 Coeff-Com:  0.326D+00 0.674D+00
 Coeff-En:   0.809D-01 0.919D+00
 Coeff:      0.296D+00 0.704D+00
 Gap=     0.464 Goal=   None    Shift=    0.000
 RMSDP=8.86D-04 MaxDP=5.04D-02 DE=-5.03D-02 OVMax= 2.55D-02

 Cycle   3  Pass 1  IDiag  1:
 RMSU=  3.21D-04    CP:  1.01D+00  6.69D-01
 FoFJK:  IHMeth= 1 ICntrl=     0 DoSepK=T KAlg= 1 I1Cent= 0 FoldK=F
 E= -2905.00358667267     Delta-E=       -0.022328257098 Rises=F Damp=F
 DIIS: error= 1.71D-03 at cycle   3 NSaved=   3.
 NSaved= 3 IEnMin= 3 EnMin= -2905.00358667267     IErMin= 3 ErrMin= 1.71D-03
 ErrMax= 1.71D-03 EMaxC= 1.00D-01 BMatC= 1.37D-03 BMatP= 6.68D-02
 IDIUse=3 WtCom= 9.83D-01 WtEn= 1.71D-02
 Coeff-Com:  0.360D-01 0.166D+00 0.798D+00
 Coeff-En:   0.000D+00 0.000D+00 0.100D+01
 Coeff:      0.354D-01 0.163D+00 0.802D+00
 Gap=     0.448 Goal=   None    Shift=    0.000
 RMSDP=9.71D-05 MaxDP=3.32D-03 DE=-2.23D-02 OVMax= 5.78D-03

 Cycle   4  Pass 1  IDiag  1:
 RMSU=  4.57D-05    CP:  1.01D+00  7.00D-01  9.61D-01
 FoFJK:  IHMeth= 1 ICntrl=     0 DoSepK=T KAlg= 1 I1Cent= 0 FoldK=F
 E= -2905.00424482054     Delta-E=       -0.000658147870 Rises=F Damp=F
 DIIS: error= 5.06D-04 at cycle   4 NSaved=   4.
 NSaved= 4 IEnMin= 4 EnMin= -2905.00424482054     IErMin= 4 ErrMin= 5.06D-04
 ErrMax= 5.06D-04 EMaxC= 1.00D-01 BMatC= 7.52D-05 BMatP= 1.37D-03
 IDIUse=3 WtCom= 9.95D-01 WtEn= 5.06D-03
 Coeff-Com: -0.566D-02 0.201D-01 0.268D+00 0.717D+00
 Coeff-En:   0.000D+00 0.000D+00 0.000D+00 0.100D+01
 Coeff:     -0.564D-02 0.200D-01 0.267D+00 0.719D+00
 Gap=     0.453 Goal=   None    Shift=    0.000
 RMSDP=2.87D-05 MaxDP=1.73D-03 DE=-6.58D-04 OVMax= 1.65D-03

 Cycle   5  Pass 1  IDiag  1:
 RMSU=  1.26D-05    CP:  1.01D+00  7.04D-01  1.00D+00  8.66D-01
 FoFJK:  IHMeth= 1 ICntrl=     0 DoSepK=T KAlg= 1 I1Cent= 0 FoldK=F
 E= -2905.00429067905     Delta-E=       -0.000045858511 Rises=F Damp=F
 DIIS: error= 6.93D-05 at cycle   5 NSaved=   5.
 NSaved= 5 IEnMin= 5 EnMin= -2905.00429067905     IErMin= 5 ErrMin= 6.93D-05
 ErrMax= 6.93D-05 EMaxC= 1.00D-01 BMatC= 2.23D-06 BMatP= 7.52D-05
 IDIUse=1 WtCom= 1.00D+00 WtEn= 0.00D+00
 Coeff-Com: -0.220D-02-0.514D-02-0.340D-02 0.108D+00 0.903D+00
 Coeff:     -0.220D-02-0.514D-02-0.340D-02 0.108D+00 0.903D+00
 Gap=     0.453 Goal=   None    Shift=    0.000
 RMSDP=6.54D-06 MaxDP=2.01D-04 DE=-4.59D-05 OVMax= 4.79D-04

 Cycle   6  Pass 1  IDiag  1:
 RMSU=  3.33D-06    CP:  1.01D+00  7.04D-01  1.01D+00  9.25D-01  1.08D+00
 FoFJK:  IHMeth= 1 ICntrl=     0 DoSepK=T KAlg= 1 I1Cent= 0 FoldK=F
 E= -2905.00429258473     Delta-E=       -0.000001905681 Rises=F Damp=F
 DIIS: error= 5.48D-05 at cycle   6 NSaved=   6.
 NSaved= 6 IEnMin= 6 EnMin= -2905.00429258473     IErMin= 6 ErrMin= 5.48D-05
 ErrMax= 5.48D-05 EMaxC= 1.00D-01 BMatC= 6.59D-07 BMatP= 2.23D-06
 IDIUse=1 WtCom= 1.00D+00 WtEn= 0.00D+00
 Coeff-Com: -0.356D-03-0.425D-02-0.285D-01-0.238D-01 0.372D+00 0.685D+00
 Coeff:     -0.356D-03-0.425D-02-0.285D-01-0.238D-01 0.372D+00 0.685D+00
 Gap=     0.452 Goal=   None    Shift=    0.000
 RMSDP=2.84D-06 MaxDP=1.36D-04 DE=-1.91D-06 OVMax= 2.15D-04

 Cycle   7  Pass 1  IDiag  1:
 RMSU=  1.45D-06    CP:  1.01D+00  7.04D-01  1.01D+00  9.38D-01  1.17D+00
                    CP:  8.99D-01
 FoFJK:  IHMeth= 1 ICntrl=     0 DoSepK=T KAlg= 1 I1Cent= 0 FoldK=F
 E= -2905.00429305295     Delta-E=       -0.000000468214 Rises=F Damp=F
 DIIS: error= 1.82D-05 at cycle   7 NSaved=   7.
 NSaved= 7 IEnMin= 7 EnMin= -2905.00429305295     IErMin= 7 ErrMin= 1.82D-05
 ErrMax= 1.82D-05 EMaxC= 1.00D-01 BMatC= 6.92D-08 BMatP= 6.59D-07
 IDIUse=1 WtCom= 1.00D+00 WtEn= 0.00D+00
 Coeff-Com:  0.128D-03-0.822D-03-0.910D-02-0.218D-01-0.516D-02 0.245D+00
 Coeff-Com:  0.792D+00
 Coeff:      0.128D-03-0.822D-03-0.910D-02-0.218D-01-0.516D-02 0.245D+00
 Coeff:      0.792D+00
 Gap=     0.452 Goal=   None    Shift=    0.000
 RMSDP=1.11D-06 MaxDP=4.67D-05 DE=-4.68D-07 OVMax= 9.72D-05

 Cycle   8  Pass 1  IDiag  1:
 RMSU=  4.44D-07    CP:  1.01D+00  7.04D-01  1.01D+00  9.43D-01  1.20D+00
                    CP:  1.03D+00  9.52D-01
 FoFJK:  IHMeth= 1 ICntrl=     0 DoSepK=T KAlg= 1 I1Cent= 0 FoldK=F
 E= -2905.00429314696     Delta-E=       -0.000000094014 Rises=F Damp=F
 DIIS: error= 3.02D-06 at cycle   8 NSaved=   8.
 NSaved= 8 IEnMin= 8 EnMin= -2905.00429314696     IErMin= 8 ErrMin= 3.02D-06
 ErrMax= 3.02D-06 EMaxC= 1.00D-01 BMatC= 2.12D-09 BMatP= 6.92D-08
 IDIUse=1 WtCom= 1.00D+00 WtEn= 0.00D+00
 Coeff-Com:  0.197D-04 0.493D-03 0.371D-02 0.526D-02-0.271D-01-0.101D+00
 Coeff-Com: -0.144D+00 0.126D+01
 Coeff:      0.197D-04 0.493D-03 0.371D-02 0.526D-02-0.271D-01-0.101D+00
 Coeff:     -0.144D+00 0.126D+01
 Gap=     0.452 Goal=   None    Shift=    0.000
 RMSDP=4.61D-07 MaxDP=1.51D-05 DE=-9.40D-08 OVMax= 5.14D-05

 Cycle   9  Pass 1  IDiag  1:
 RMSU=  1.14D-07    CP:  1.01D+00  7.04D-01  1.01D+00  9.45D-01  1.21D+00
                    CP:  1.05D+00  1.02D+00  1.51D+00
 FoFJK:  IHMeth= 1 ICntrl=     0 DoSepK=T KAlg= 1 I1Cent= 0 FoldK=F
 E= -2905.00429315332     Delta-E=       -0.000000006360 Rises=F Damp=F
 DIIS: error= 5.44D-07 at cycle   9 NSaved=   9.
 NSaved= 9 IEnMin= 9 EnMin= -2905.00429315332     IErMin= 9 ErrMin= 5.44D-07
 ErrMax= 5.44D-07 EMaxC= 1.00D-01 BMatC= 4.94D-11 BMatP= 2.12D-09
 IDIUse=1 WtCom= 1.00D+00 WtEn= 0.00D+00
 Coeff-Com: -0.694D-05-0.184D-04-0.495D-04 0.266D-03 0.324D-02-0.565D-03
 Coeff-Com: -0.165D-01-0.111D+00 0.112D+01
 Coeff:     -0.694D-05-0.184D-04-0.495D-04 0.266D-03 0.324D-02-0.565D-03
 Coeff:     -0.165D-01-0.111D+00 0.112D+01
 Gap=     0.452 Goal=   None    Shift=    0.000
 RMSDP=1.02D-07 MaxDP=6.63D-06 DE=-6.36D-09 OVMax= 8.29D-06

 Cycle  10  Pass 1  IDiag  1:
 RMSU=  2.13D-08    CP:  1.01D+00  7.04D-01  1.01D+00  9.45D-01  1.21D+00
                    CP:  1.04D+00  1.02D+00  1.61D+00  1.28D+00
 FoFJK:  IHMeth= 1 ICntrl=     0 DoSepK=T KAlg= 1 I1Cent= 0 FoldK=F
 E= -2905.00429315348     Delta-E=       -0.000000000156 Rises=F Damp=F
 DIIS: error= 1.36D-07 at cycle  10 NSaved=  10.
 NSaved=10 IEnMin=10 EnMin= -2905.00429315348     IErMin=10 ErrMin= 1.36D-07
 ErrMax= 1.36D-07 EMaxC= 1.00D-01 BMatC= 3.02D-12 BMatP= 4.94D-11
 IDIUse=1 WtCom= 1.00D+00 WtEn= 0.00D+00
 Coeff-Com: -0.504D-06-0.184D-04-0.142D-03-0.254D-03 0.115D-02 0.409D-02
 Coeff-Com:  0.632D-02-0.556D-01-0.147D-01 0.106D+01
 Coeff:     -0.504D-06-0.184D-04-0.142D-03-0.254D-03 0.115D-02 0.409D-02
 Coeff:      0.632D-02-0.556D-01-0.147D-01 0.106D+01
 Gap=     0.452 Goal=   None    Shift=    0.000
 RMSDP=2.26D-08 MaxDP=1.60D-06 DE=-1.56D-10 OVMax= 1.46D-06

 Cycle  11  Pass 1  IDiag  1:
 RMSU=  4.58D-09    CP:  1.01D+00  7.04D-01  1.01D+00  9.45D-01  1.21D+00
                    CP:  1.04D+00  1.02D+00  1.62D+00  1.35D+00  1.24D+00
 FoFJK:  IHMeth= 1 ICntrl=     0 DoSepK=T KAlg= 1 I1Cent= 0 FoldK=F
 E= -2905.00429317936     Delta-E=       -0.000000025880 Rises=F Damp=F
 DIIS: error= 3.63D-08 at cycle  11 NSaved=  11.
 NSaved=11 IEnMin=11 EnMin= -2905.00429317936     IErMin=11 ErrMin= 3.63D-08
 ErrMax= 3.63D-08 EMaxC= 1.00D-01 BMatC= 1.91D-13 BMatP= 3.02D-12
 IDIUse=1 WtCom= 1.00D+00 WtEn= 0.00D+00
 Coeff-Com:  0.300D-06 0.137D-06-0.203D-05-0.288D-04-0.121D-03 0.189D-03
 Coeff-Com:  0.142D-02 0.279D-02-0.526D-01 0.759D-02 0.104D+01
 Coeff:      0.300D-06 0.137D-06-0.203D-05-0.288D-04-0.121D-03 0.189D-03
 Coeff:      0.142D-02 0.279D-02-0.526D-01 0.759D-02 0.104D+01
 Gap=     0.452 Goal=   None    Shift=    0.000
 RMSDP=3.97D-09 MaxDP=1.92D-07 DE=-2.59D-08 OVMax= 3.91D-07

 SCF Done:  E(RLC-wPBE) =  -2905.00429318     A.U. after   11 cycles
             Convg  =    0.3975D-08             -V/T =  2.0017
 KE= 2.900025659909D+03 PE=-7.233685689130D+03 EE= 1.280378745493D+03
 Leave Link  502 at Fri May  8 15:46:39 2020, MaxMem= 1073741824 cpu:     233.6
 (Enter /home/matheus/.gaussian/g09/l601.exe)
 Copying SCF densities to generalized density rwf, IOpCl= 0 IROHF=0.

 **********************************************************************

            Population analysis using the SCF density.

 **********************************************************************

 Orbital symmetries:
       Occupied  (A') (A') (A') (A") (A') (A') (A') (A') (A') (A")
                 (A') (A') (A") (A') (A") (A') (A') (A') (A') (A')
                 (A') (A") (A') (A") (A') (A') (A")
       Virtual   (A') (A') (A') (A") (A') (A') (A') (A') (A') (A")
                 (A") (A') (A') (A') (A") (A') (A") (A') (A') (A')
                 (A') (A") (A') (A") (A') (A') (A') (A') (A") (A')
                 (A') (A') (A") (A') (A") (A') (A") (A') (A") (A')
                 (A') (A") (A') (A') (A") (A') (A') (A") (A") (A')
                 (A') (A') (A") (A') (A") (A') (A') (A") (A') (A')
                 (A") (A') (A") (A') (A") (A') (A') (A') (A") (A')
                 (A') (A") (A") (A') (A') (A') (A') (A") (A') (A')
                 (A') (A") (A') (A") (A") (A") (A') (A') (A') (A')
                 (A") (A') (A") (A') (A') (A") (A') (A') (A") (A')
                 (A") (A') (A") (A') (A") (A') (A") (A') (A') (A")
                 (A') (A") (A') (A') (A') (A') (A') (A") (A') (A')
                 (A') (A") (A") (A') (A") (A") (A') (A") (A') (A")
                 (A') (A') (A') (A') (A') (A') (A') (A') (A") (A")
                 (A') (A') (A') (A") (A') (A') (A") (A') (A") (A')
                 (A") (A') (A") (A") (A") (A") (A") (A') (A') (A')
                 (A') (A") (A') (A') (A') (A') (A') (A') (A') (A')
 The electronic state is 1-A'.
 Alpha  occ. eigenvalues -- -511.19435 -66.74273 -60.40394 -60.40374 -60.40367
 Alpha  occ. eigenvalues --  -19.10975 -19.10604  -9.67842  -7.42139  -7.42081
 Alpha  occ. eigenvalues --   -7.42059  -3.36538  -3.36526  -3.36510  -3.36467
 Alpha  occ. eigenvalues --   -3.36466  -1.31824  -1.10243  -1.09166  -0.69678
 Alpha  occ. eigenvalues --   -0.67445  -0.57739  -0.54280  -0.53474  -0.53028
 Alpha  occ. eigenvalues --   -0.50280  -0.41841
 Alpha virt. eigenvalues --    0.03407   0.04256   0.08454   0.10392   0.10998
 Alpha virt. eigenvalues --    0.11457   0.13824   0.15243   0.17167   0.17224
 Alpha virt. eigenvalues --    0.19387   0.20736   0.20827   0.24095   0.24713
 Alpha virt. eigenvalues --    0.25590   0.27926   0.29386   0.31410   0.34735
 Alpha virt. eigenvalues --    0.35145   0.35279   0.37530   0.40094   0.41367
 Alpha virt. eigenvalues --    0.41677   0.43956   0.49835   0.54010   0.56353
 Alpha virt. eigenvalues --    0.58718   0.61486   0.66463   0.67322   0.71078
 Alpha virt. eigenvalues --    0.72817   0.73832   0.75453   0.76629   0.78241
 Alpha virt. eigenvalues --    0.78972   0.79034   0.80671   0.82118   0.82869
 Alpha virt. eigenvalues --    0.84474   0.87848   0.89769   0.90791   0.93320
 Alpha virt. eigenvalues --    0.93606   0.96248   0.98175   1.00271   1.02590
 Alpha virt. eigenvalues --    1.05211   1.07392   1.07656   1.08568   1.11148
 Alpha virt. eigenvalues --    1.15444   1.15646   1.18492   1.21271   1.21295
 Alpha virt. eigenvalues --    1.29408   1.34305   1.38784   1.43724   1.44375
 Alpha virt. eigenvalues --    1.52556   1.54536   1.56679   1.58441   1.60969
 Alpha virt. eigenvalues --    1.64523   1.81349   1.82701   1.89377   1.97795
 Alpha virt. eigenvalues --    2.02288   2.02611   2.08712   2.17362   2.18683
 Alpha virt. eigenvalues --    2.19595   2.20472   2.21490   2.23326   2.31068
 Alpha virt. eigenvalues --    2.31391   2.33243   2.35486   2.37761   2.39216
 Alpha virt. eigenvalues --    2.42200   2.43930   2.48914   2.50731   2.53146
 Alpha virt. eigenvalues --    2.53595   2.54202   2.56712   2.60720   2.62494
 Alpha virt. eigenvalues --    2.64002   2.67074   2.69987   2.73278   2.74191
 Alpha virt. eigenvalues --    2.75498   2.79699   2.79808   2.83689   2.93623
 Alpha virt. eigenvalues --    3.00780   3.11653   3.13758   3.20133   3.56236
 Alpha virt. eigenvalues --    3.81049   3.86836   3.94993   4.08591   4.10663
 Alpha virt. eigenvalues --    4.16170   4.19091   4.25843   4.27849   4.32060
 Alpha virt. eigenvalues --    4.41406   4.46556   4.56202   4.59557   4.77587
 Alpha virt. eigenvalues --    4.94212   5.07288   5.08329   5.11661   5.13637
 Alpha virt. eigenvalues --    5.42260   5.48382   5.87492   6.02145   6.13359
 Alpha virt. eigenvalues --    6.18789   6.34369   6.41588   6.49758   6.51078
 Alpha virt. eigenvalues --    6.74559   6.76596   6.78314   6.84798   6.90892
 Alpha virt. eigenvalues --    6.94274   6.96528   6.98643   6.98801   7.02005
 Alpha virt. eigenvalues --    7.05383   7.25750   7.29258   7.43641   7.65268
 Alpha virt. eigenvalues --    7.87726   8.16083   8.18687  14.13752  14.55316
          Condensed to atoms (all electrons):
              1          2          3          4          5
     1  O    8.198063  -0.179372   0.187848   0.001333  -0.034281
     2  O   -0.179372   8.216300   0.007493   0.222333  -0.008930
     3  H    0.187848   0.007493   0.610446   0.002946   0.003146
     4  H    0.001333   0.222333   0.002946   0.548955  -0.014961
     5  Kr  -0.034281  -0.008930   0.003146  -0.014961  36.051124
 Mulliken atomic charges:
              1
     1  O   -0.173591
     2  O   -0.257824
     3  H    0.188121
     4  H    0.239393
     5  Kr   0.003901
 Sum of Mulliken atomic charges =   0.00000
 Mulliken charges with hydrogens summed into heavy atoms:
              1
     1  O    0.014530
     2  O   -0.018431
     5  Kr   0.003901
 Sum of Mulliken charges with hydrogens summed into heavy atoms =   0.00000
          Condensed to fragments (all electrons):
     1      -0.003901
     2       0.003901
 Electronic spatial extent (au):  <R**2>=            492.1202
 Charge=              0.0000 electrons
 Dipole moment (field-independent basis, Debye):
    X=              0.2781    Y=              0.1750    Z=              0.0000  Tot=              0.3286
 Quadrupole moment (field-independent basis, Debye-Ang):
   XX=            -28.0819   YY=            -26.0161   ZZ=            -30.5077
   XY=             -4.0160   XZ=              0.0000   YZ=              0.0000
 Traceless Quadrupole moment (field-independent basis, Debye-Ang):
   XX=              0.1200   YY=              2.1858   ZZ=             -2.3058
   XY=             -4.0160   XZ=              0.0000   YZ=              0.0000
 Octapole moment (field-independent basis, Debye-Ang**2):
  XXX=              0.3735  YYY=             -0.7086  ZZZ=              0.0000  XYY=             17.1335
  XXY=              3.7433  XXZ=              0.0000  XZZ=              0.1272  YZZ=              8.6887
  YYZ=              0.0000  XYZ=              0.0000
 Hexadecapole moment (field-independent basis, Debye-Ang**3):
 XXXX=            -63.0075 YYYY=           -337.1098 ZZZZ=            -28.8926 XXXY=             -2.7199
 XXXZ=              0.0000 YYYX=            -51.9012 YYYZ=              0.0000 ZZZX=              0.0000
 ZZZY=              0.0000 XXYY=            -72.7424 XXZZ=            -17.2932 YYZZ=            -79.8046
 XXYZ=              0.0000 YYXZ=              0.0000 ZZXY=              0.8186
 N-N= 1.482769905491D+02 E-N=-7.233685689255D+03  KE= 2.900025659909D+03
 Symmetry A'   KE= 2.484383368264D+03
 Symmetry A"   KE= 4.156422916444D+02
 No NMR shielding tensors so no spin-rotation constants.
 Leave Link  601 at Fri May  8 15:46:39 2020, MaxMem= 1073741824 cpu:       1.0
 (Enter /home/matheus/.gaussian/g09/l122.exe)
 Counterpoise: doing DCBS calculation for fragment   1 NewBq=T
 Leave Link  122 at Fri May  8 15:46:39 2020, MaxMem= 1073741824 cpu:       0.0
 (Enter /home/matheus/.gaussian/g09/l301.exe)
 Basis read from rwf:  (5D, 7F)
 No pseudopotential information found on rwf file.
 There are   131 symmetry adapted basis functions of A'  symmetry.
 There are    66 symmetry adapted basis functions of A"  symmetry.
 Integral buffers will be    131072 words long.
 Raffenetti 2 integral format.
 Two-electron integral symmetry is turned on.
   197 basis functions,   415 primitive gaussians,   229 cartesian basis functions
     9 alpha electrons        9 beta electrons
       nuclear repulsion energy        36.6006188945 Hartrees.
 IExCor=32609 DFT=T Ex+Corr=LC-wPBE ExCW=0 ScaHFX=  1.000000
 ScaDFX=  1.000000  0.000000  1.000000  1.000000 ScalE2=  1.000000  1.000000
 IRadAn=      5 IRanWt=     -1 IRanGd=            0 ICorTp=0
  HFx wShort=  0.000000 wLong=  0.550000 cFull=  0.000000 cShort=  0.000000 cLong=  1.000000
  DFx wShort=  0.000000 wLong=  0.550000 cFull=  0.000000 cShort=  0.000000 cLong=  1.000000
 NAtoms=    5 NActive=    5 NUniq=    5 SFac= 1.00D+00 NAtFMM=   60 NAOKFM=F Big=F
 No density basis found on file   718.
 Leave Link  301 at Fri May  8 15:46:39 2020, MaxMem= 1073741824 cpu:       0.2
 (Enter /home/matheus/.gaussian/g09/l302.exe)
 NPDir=0 NMtPBC=     1 NCelOv=     1 NCel=       1 NClECP=     1 NCelD=      1
         NCelK=      1 NCelE2=     1 NClLst=     1 CellRange=     0.0.
 One-electron integrals computed using PRISM.
 NBasis=   197 RedAO= T  NBF=   131    66
 NBsUse=   197 1.00D-06 NBFU=   131    66
 Precomputing XC quadrature grid using
 IXCGrd= 2 IRadAn=           5 IRanWt=          -1 IRanGd=           0 AccXCQ= 0.00D+00.
 NRdTot=     427 NPtTot=      123814 NUsed=      126881 NTot=      126913
 NSgBfM=   229   229   229   229   229 NAtAll=     5     5.
 Leave Link  302 at Fri May  8 15:46:39 2020, MaxMem= 1073741824 cpu:       0.9
 (Enter /home/matheus/.gaussian/g09/l303.exe)
 DipDrv:  MaxL=1.
 Leave Link  303 at Fri May  8 15:46:39 2020, MaxMem= 1073741824 cpu:       0.2
 (Enter /home/matheus/.gaussian/g09/l401.exe)
 Harris functional with IExCor=32609 diagonalized for initial guess.
 ExpMin= 2.53D-02 ExpMax= 1.17D+07 ExpMxC= 1.33D+04 IAcc=3 IRadAn=         5 AccDes= 0.00D+00
 HarFok:  IExCor=32609 AccDes= 0.00D+00 IRadAn=         5 IDoV= 1
 ScaDFX=  1.000000  1.000000  1.000000  1.000000
 FoFCou: FMM=F IPFlag=           0 FMFlag=      100000 FMFlg1=           0
         NFxFlg=           0 DoJE=T BraDBF=F KetDBF=T FulRan=T
         Omega=  0.000000  0.000000  1.000000  0.000000  0.000000 ICntrl=     500 IOpCl=  0
         NMat0=    1 NMatS0=    1 NMatT0=    0 NMatD0=    1 NMtDS0=    0 NMtDT0=    0
         I1Cent=           4 NGrid=           0.
 Petite list used in FoFCou.
 Harris En= -151.499569140546    
 Initial guess orbital symmetries:
       Occupied  (A') (A') (A') (A') (A') (A') (A") (A') (A")
       Virtual   (A') (A') (A') (A') (A") (A') (A') (A') (A') (A")
                 (A') (A") (A') (A') (A') (A") (A') (A') (A") (A')
                 (A') (A') (A") (A') (A') (A') (A") (A') (A') (A")
                 (A') (A') (A') (A") (A") (A') (A') (A") (A") (A')
                 (A') (A') (A") (A') (A') (A") (A') (A") (A') (A')
                 (A") (A') (A') (A') (A") (A") (A') (A') (A") (A')
                 (A') (A") (A') (A') (A") (A') (A') (A") (A") (A')
                 (A') (A") (A') (A') (A') (A") (A') (A") (A") (A')
                 (A') (A') (A') (A') (A") (A') (A') (A") (A") (A')
                 (A') (A") (A') (A') (A') (A") (A') (A") (A') (A')
                 (A") (A") (A') (A') (A') (A') (A") (A') (A') (A")
                 (A') (A') (A") (A') (A') (A") (A") (A') (A') (A")
                 (A") (A') (A") (A") (A') (A') (A') (A") (A") (A')
                 (A') (A') (A") (A") (A') (A') (A') (A') (A') (A')
                 (A') (A') (A") (A") (A') (A') (A') (A") (A') (A')
                 (A") (A') (A") (A') (A") (A') (A") (A") (A") (A")
                 (A") (A') (A') (A') (A') (A") (A') (A') (A') (A')
                 (A') (A') (A') (A') (A') (A") (A') (A') (A") (A')
                 (A") (A') (A') (A') (A") (A') (A') (A')
 The electronic state of the initial guess is 1-A'.
 Leave Link  401 at Fri May  8 15:46:39 2020, MaxMem= 1073741824 cpu:       2.6
 (Enter /home/matheus/.gaussian/g09/l502.exe)
 Closed shell SCF:
 Requested convergence on RMS density matrix=1.00D-08 within 128 cycles.
 Requested convergence on MAX density matrix=1.00D-06.
 Requested convergence on             energy=1.00D-06.
 No special actions if energy rises.
 Using DIIS extrapolation, IDIIS=  1040.
 Integral symmetry usage will be decided dynamically.
       126823 words used for storage of precomputed grid.
 IEnd=      305835 IEndB=      305835 NGot=  1073741824 MDV=  1073505300
 LenX=  1073505300 LenY=  1073452418
 Fock matrices will be formed incrementally for  20 cycles.

 Cycle   1  Pass 1  IDiag  1:
 FoFJK:  IHMeth= 1 ICntrl=     0 DoSepK=T KAlg= 1 I1Cent= 0 FoldK=F
 FoFCou: FMM=F IPFlag=           0 FMFlag=      100000 FMFlg1=           0
         NFxFlg=           0 DoJE=T BraDBF=F KetDBF=F FulRan=T
         Omega=  0.000000  0.000000  1.000000  0.000000  0.000000 ICntrl=     500 IOpCl=  0
         NMat0=    1 NMatS0=    1 NMatT0=    0 NMatD0=    1 NMtDS0=    0 NMtDT0=    0
         I1Cent=           0 NGrid=           0.
 Petite list used in FoFCou.
 E= -151.506137302441    
 DIIS: error= 1.27D-02 at cycle   1 NSaved=   1.
 NSaved= 1 IEnMin= 1 EnMin= -151.506137302441     IErMin= 1 ErrMin= 1.27D-02
 ErrMax= 1.27D-02 EMaxC= 1.00D-01 BMatC= 4.02D-02 BMatP= 4.02D-02
 IDIUse=3 WtCom= 8.73D-01 WtEn= 1.27D-01
 Coeff-Com:  0.100D+01
 Coeff-En:   0.100D+01
 Coeff:      0.100D+01
 Gap=     0.472 Goal=   None    Shift=    0.000
 GapD=    0.472 DampG=2.000 DampE=0.500 DampFc=1.0000 IDamp=-1.
 RMSDP=7.15D-04 MaxDP=2.56D-02              OVMax= 4.98D-02

 Cycle   2  Pass 1  IDiag  1:
 RMSU=  4.98D-04    CP:  9.87D-01
 FoFJK:  IHMeth= 1 ICntrl=     0 DoSepK=T KAlg= 1 I1Cent= 0 FoldK=F
 E= -151.522222482389     Delta-E=       -0.016085179947 Rises=F Damp=F
 DIIS: error= 7.24D-03 at cycle   2 NSaved=   2.
 NSaved= 2 IEnMin= 2 EnMin= -151.522222482389     IErMin= 2 ErrMin= 7.24D-03
 ErrMax= 7.24D-03 EMaxC= 1.00D-01 BMatC= 1.52D-02 BMatP= 4.02D-02
 IDIUse=3 WtCom= 9.28D-01 WtEn= 7.24D-02
 Coeff-Com:  0.366D+00 0.634D+00
 Coeff-En:   0.102D+00 0.898D+00
 Coeff:      0.347D+00 0.653D+00
 Gap=     0.456 Goal=   None    Shift=    0.000
 RMSDP=3.84D-04 MaxDP=2.16D-02 DE=-1.61D-02 OVMax= 2.14D-02

 Cycle   3  Pass 1  IDiag  1:
 RMSU=  2.37D-04    CP:  9.83D-01  7.42D-01
 FoFJK:  IHMeth= 1 ICntrl=     0 DoSepK=T KAlg= 1 I1Cent= 0 FoldK=F
 E= -151.530600862159     Delta-E=       -0.008378379771 Rises=F Damp=F
 DIIS: error= 1.28D-03 at cycle   3 NSaved=   3.
 NSaved= 3 IEnMin= 3 EnMin= -151.530600862159     IErMin= 3 ErrMin= 1.28D-03
 ErrMax= 1.28D-03 EMaxC= 1.00D-01 BMatC= 3.62D-04 BMatP= 1.52D-02
 IDIUse=3 WtCom= 9.87D-01 WtEn= 1.28D-02
 Coeff-Com:  0.381D-01 0.153D+00 0.809D+00
 Coeff-En:   0.000D+00 0.000D+00 0.100D+01
 Coeff:      0.376D-01 0.151D+00 0.812D+00
 Gap=     0.449 Goal=   None    Shift=    0.000
 RMSDP=5.64D-05 MaxDP=2.37D-03 DE=-8.38D-03 OVMax= 3.96D-03

 Cycle   4  Pass 1  IDiag  1:
 RMSU=  2.83D-05    CP:  9.82D-01  7.89D-01  1.03D+00
 FoFJK:  IHMeth= 1 ICntrl=     0 DoSepK=T KAlg= 1 I1Cent= 0 FoldK=F
 E= -151.530832546546     Delta-E=       -0.000231684386 Rises=F Damp=F
 DIIS: error= 2.55D-04 at cycle   4 NSaved=   4.
 NSaved= 4 IEnMin= 4 EnMin= -151.530832546546     IErMin= 4 ErrMin= 2.55D-04
 ErrMax= 2.55D-04 EMaxC= 1.00D-01 BMatC= 9.44D-06 BMatP= 3.62D-04
 IDIUse=3 WtCom= 9.97D-01 WtEn= 2.55D-03
 Coeff-Com: -0.852D-02-0.122D-01 0.899D-01 0.931D+00
 Coeff-En:   0.000D+00 0.000D+00 0.000D+00 0.100D+01
 Coeff:     -0.850D-02-0.122D-01 0.897D-01 0.931D+00
 Gap=     0.451 Goal=   None    Shift=    0.000
 RMSDP=1.48D-05 MaxDP=1.00D-03 DE=-2.32D-04 OVMax= 8.14D-04

 Cycle   5  Pass 1  IDiag  1:
 RMSU=  4.41D-06    CP:  9.81D-01  7.90D-01  1.07D+00  1.09D+00
 FoFJK:  IHMeth= 1 ICntrl=     0 DoSepK=T KAlg= 1 I1Cent= 0 FoldK=F
 E= -151.530841159165     Delta-E=       -0.000008612619 Rises=F Damp=F
 DIIS: error= 4.78D-05 at cycle   5 NSaved=   5.
 NSaved= 5 IEnMin= 5 EnMin= -151.530841159165     IErMin= 5 ErrMin= 4.78D-05
 ErrMax= 4.78D-05 EMaxC= 1.00D-01 BMatC= 2.41D-07 BMatP= 9.44D-06
 IDIUse=1 WtCom= 1.00D+00 WtEn= 0.00D+00
 Coeff-Com: -0.474D-03-0.270D-02-0.385D-01-0.123D+00 0.116D+01
 Coeff:     -0.474D-03-0.270D-02-0.385D-01-0.123D+00 0.116D+01
 Gap=     0.451 Goal=   None    Shift=    0.000
 RMSDP=3.96D-06 MaxDP=1.49D-04 DE=-8.61D-06 OVMax= 4.10D-04

 Cycle   6  Pass 1  IDiag  1:
 RMSU=  1.27D-06    CP:  9.81D-01  7.91D-01  1.07D+00  1.14D+00  1.37D+00
 FoFJK:  IHMeth= 1 ICntrl=     0 DoSepK=T KAlg= 1 I1Cent= 0 FoldK=F
 E= -151.530841808024     Delta-E=       -0.000000648860 Rises=F Damp=F
 DIIS: error= 9.35D-06 at cycle   6 NSaved=   6.
 NSaved= 6 IEnMin= 6 EnMin= -151.530841808024     IErMin= 6 ErrMin= 9.35D-06
 ErrMax= 9.35D-06 EMaxC= 1.00D-01 BMatC= 1.23D-08 BMatP= 2.41D-07
 IDIUse=1 WtCom= 1.00D+00 WtEn= 0.00D+00
 Coeff-Com:  0.327D-03 0.972D-03 0.354D-02-0.103D-01-0.189D+00 0.119D+01
 Coeff:      0.327D-03 0.972D-03 0.354D-02-0.103D-01-0.189D+00 0.119D+01
 Gap=     0.451 Goal=   None    Shift=    0.000
 RMSDP=9.38D-07 MaxDP=2.25D-05 DE=-6.49D-07 OVMax= 1.24D-04

 Cycle   7  Pass 1  IDiag  1:
 RMSU=  2.94D-07    CP:  9.81D-01  7.91D-01  1.07D+00  1.16D+00  1.44D+00
                    CP:  1.29D+00
 FoFJK:  IHMeth= 1 ICntrl=     0 DoSepK=T KAlg= 1 I1Cent= 0 FoldK=F
 E= -151.530841945923     Delta-E=       -0.000000137899 Rises=F Damp=F
 DIIS: error= 2.46D-06 at cycle   7 NSaved=   7.
 NSaved= 7 IEnMin= 7 EnMin= -151.530841945923     IErMin= 7 ErrMin= 2.46D-06
 ErrMax= 2.46D-06 EMaxC= 1.00D-01 BMatC= 6.98D-10 BMatP= 1.23D-08
 IDIUse=1 WtCom= 1.00D+00 WtEn= 0.00D+00
 Coeff-Com:  0.328D-05 0.282D-04 0.122D-02 0.555D-02-0.365D-01-0.103D+00
 Coeff-Com:  0.113D+01
 Coeff:      0.328D-05 0.282D-04 0.122D-02 0.555D-02-0.365D-01-0.103D+00
 Coeff:      0.113D+01
 Gap=     0.451 Goal=   None    Shift=    0.000
 RMSDP=2.76D-07 MaxDP=1.25D-05 DE=-1.38D-07 OVMax= 3.33D-05

 Cycle   8  Pass 1  IDiag  1:
 RMSU=  7.40D-08    CP:  9.81D-01  7.91D-01  1.07D+00  1.16D+00  1.45D+00
                    CP:  1.35D+00  1.32D+00
 FoFJK:  IHMeth= 1 ICntrl=     0 DoSepK=T KAlg= 1 I1Cent= 0 FoldK=F
 E= -151.530841848723     Delta-E=        0.000000097201 Rises=F Damp=F
 DIIS: error= 1.21D-06 at cycle   8 NSaved=   8.
 NSaved= 8 IEnMin= 7 EnMin= -151.530841945923     IErMin= 8 ErrMin= 1.21D-06
 ErrMax= 1.21D-06 EMaxC= 1.00D-01 BMatC= 3.21D-10 BMatP= 6.98D-10
 IDIUse=1 WtCom= 1.00D+00 WtEn= 0.00D+00
 Coeff-Com: -0.168D-04-0.467D-04 0.321D-03 0.299D-02-0.437D-02-0.122D+00
 Coeff-Com:  0.535D+00 0.588D+00
 Coeff:     -0.168D-04-0.467D-04 0.321D-03 0.299D-02-0.437D-02-0.122D+00
 Coeff:      0.535D+00 0.588D+00
 Gap=     0.451 Goal=   None    Shift=    0.000
 RMSDP=6.47D-08 MaxDP=4.05D-06 DE= 9.72D-08 OVMax= 5.02D-06

 Cycle   9  Pass 1  IDiag  1:
 RMSU=  2.81D-08    CP:  9.81D-01  7.91D-01  1.07D+00  1.16D+00  1.45D+00
                    CP:  1.36D+00  1.39D+00  8.64D-01
 FoFJK:  IHMeth= 1 ICntrl=     0 DoSepK=T KAlg= 1 I1Cent= 0 FoldK=F
 E= -151.530841948037     Delta-E=       -0.000000099315 Rises=F Damp=F
 DIIS: error= 2.73D-07 at cycle   9 NSaved=   9.
 NSaved= 9 IEnMin= 9 EnMin= -151.530841948037     IErMin= 9 ErrMin= 2.73D-07
 ErrMax= 2.73D-07 EMaxC= 1.00D-01 BMatC= 1.69D-11 BMatP= 3.21D-10
 IDIUse=1 WtCom= 1.00D+00 WtEn= 0.00D+00
 Coeff-Com: -0.468D-05-0.188D-04-0.198D-03-0.592D-03 0.812D-02-0.118D-01
 Coeff-Com: -0.122D+00 0.111D+00 0.102D+01
 Coeff:     -0.468D-05-0.188D-04-0.198D-03-0.592D-03 0.812D-02-0.118D-01
 Coeff:     -0.122D+00 0.111D+00 0.102D+01
 Gap=     0.451 Goal=   None    Shift=    0.000
 RMSDP=4.44D-08 MaxDP=2.69D-06 DE=-9.93D-08 OVMax= 3.19D-06

 Cycle  10  Pass 1  IDiag  1:
 RMSU=  5.65D-09    CP:  9.81D-01  7.91D-01  1.07D+00  1.16D+00  1.45D+00
                    CP:  1.36D+00  1.43D+00  1.03D+00  1.15D+00
 FoFJK:  IHMeth= 1 ICntrl=     0 DoSepK=T KAlg= 1 I1Cent= 0 FoldK=F
 E= -151.530841948061     Delta-E=       -0.000000000024 Rises=F Damp=F
 DIIS: error= 3.87D-08 at cycle  10 NSaved=  10.
 NSaved=10 IEnMin=10 EnMin= -151.530841948061     IErMin=10 ErrMin= 3.87D-08
 ErrMax= 3.87D-08 EMaxC= 1.00D-01 BMatC= 1.20D-13 BMatP= 1.69D-11
 IDIUse=1 WtCom= 1.00D+00 WtEn= 0.00D+00
 Coeff-Com:  0.114D-05 0.552D-05 0.359D-04 0.126D-04-0.135D-02 0.496D-02
 Coeff-Com:  0.120D-01-0.347D-01-0.197D+00 0.122D+01
 Coeff:      0.114D-05 0.552D-05 0.359D-04 0.126D-04-0.135D-02 0.496D-02
 Coeff:      0.120D-01-0.347D-01-0.197D+00 0.122D+01
 Gap=     0.451 Goal=   None    Shift=    0.000
 RMSDP=3.31D-09 MaxDP=1.15D-07 DE=-2.42D-11 OVMax= 3.13D-07

 SCF Done:  E(RLC-wPBE) =  -151.530841948     A.U. after   10 cycles
             Convg  =    0.3313D-08             -V/T =  2.0071
 KE= 1.504632918788D+02 PE=-4.315423997300D+02 EE= 9.294764700855D+01
 Leave Link  502 at Fri May  8 15:47:05 2020, MaxMem= 1073741824 cpu:     204.6
 (Enter /home/matheus/.gaussian/g09/l601.exe)
 Copying SCF densities to generalized density rwf, IOpCl= 0 IROHF=0.

 **********************************************************************

            Population analysis using the SCF density.

 **********************************************************************

 Orbital symmetries:
       Occupied  (A') (A') (A') (A') (A') (A') (A") (A') (A")
       Virtual   (A') (A') (A') (A") (A') (A') (A') (A') (A') (A")
                 (A') (A") (A') (A') (A") (A') (A') (A') (A") (A')
                 (A') (A") (A') (A') (A') (A') (A") (A') (A") (A')
                 (A') (A') (A') (A") (A') (A") (A') (A') (A") (A")
                 (A') (A') (A") (A') (A') (A") (A') (A") (A') (A')
                 (A') (A") (A') (A') (A") (A') (A") (A') (A") (A')
                 (A') (A") (A') (A') (A") (A') (A') (A") (A") (A')
                 (A') (A') (A") (A') (A") (A') (A') (A") (A') (A')
                 (A") (A') (A') (A') (A") (A') (A') (A") (A") (A')
                 (A') (A') (A") (A') (A') (A") (A') (A") (A') (A')
                 (A") (A") (A') (A') (A') (A') (A") (A') (A") (A')
                 (A') (A') (A') (A') (A") (A') (A") (A") (A') (A")
                 (A") (A') (A') (A") (A') (A") (A') (A") (A') (A')
                 (A") (A') (A") (A") (A') (A') (A') (A') (A') (A')
                 (A') (A') (A") (A") (A') (A') (A') (A") (A') (A')
                 (A") (A') (A") (A') (A") (A') (A") (A") (A") (A")
                 (A") (A') (A') (A') (A') (A") (A') (A') (A') (A')
                 (A') (A') (A') (A') (A') (A") (A') (A') (A") (A')
                 (A") (A') (A') (A') (A") (A') (A') (A')
 The electronic state is 1-A'.
 Alpha  occ. eigenvalues --  -19.11141 -19.11135  -1.32028  -1.09728  -0.69810
 Alpha  occ. eigenvalues --   -0.66976  -0.57873  -0.50960  -0.42087
 Alpha virt. eigenvalues --    0.02978   0.03687   0.07270   0.09011   0.10239
 Alpha virt. eigenvalues --    0.11061   0.11611   0.14360   0.16763   0.17427
 Alpha virt. eigenvalues --    0.19576   0.19797   0.21397   0.23652   0.27462
 Alpha virt. eigenvalues --    0.27850   0.29885   0.31370   0.31781   0.33866
 Alpha virt. eigenvalues --    0.37404   0.37643   0.38963   0.39869   0.42232
 Alpha virt. eigenvalues --    0.43644   0.43752   0.48057   0.49227   0.50279
 Alpha virt. eigenvalues --    0.55218   0.58435   0.62398   0.67788   0.69317
 Alpha virt. eigenvalues --    0.71241   0.74742   0.77043   0.77279   0.78352
 Alpha virt. eigenvalues --    0.79936   0.84628   0.86770   0.88896   0.92394
 Alpha virt. eigenvalues --    0.92629   0.93968   0.97163   0.98949   1.01149
 Alpha virt. eigenvalues --    1.02809   1.06233   1.07153   1.11283   1.13873
 Alpha virt. eigenvalues --    1.15841   1.17029   1.17313   1.20122   1.25663
 Alpha virt. eigenvalues --    1.28002   1.29803   1.32667   1.33409   1.34043
 Alpha virt. eigenvalues --    1.34484   1.36335   1.37283   1.37507   1.47743
 Alpha virt. eigenvalues --    1.49917   1.52240   1.55366   1.55427   1.58938
 Alpha virt. eigenvalues --    1.60601   1.66935   1.67604   1.74440   1.82162
 Alpha virt. eigenvalues --    1.82710   1.86761   1.92377   2.01622   2.03879
 Alpha virt. eigenvalues --    2.04963   2.10479   2.17627   2.19835   2.22954
 Alpha virt. eigenvalues --    2.29276   2.33339   2.34005   2.41512   2.47549
 Alpha virt. eigenvalues --    2.52673   2.59287   2.61556   2.61768   2.70700
 Alpha virt. eigenvalues --    2.72602   2.74030   2.77016   2.90042   2.98051
 Alpha virt. eigenvalues --    3.10754   3.13466   3.16688   3.26093   3.30709
 Alpha virt. eigenvalues --    3.41081   3.51252   3.62327   3.74601   3.78484
 Alpha virt. eigenvalues --    3.79598   3.81990   3.82305   3.82803   3.84418
 Alpha virt. eigenvalues --    3.90081   3.91323   3.92772   3.93354   3.95988
 Alpha virt. eigenvalues --    3.98471   4.09660   4.11829   4.13659   4.16076
 Alpha virt. eigenvalues --    4.16830   4.23990   4.26996   4.32371   4.36253
 Alpha virt. eigenvalues --    4.44854   4.49353   4.61674   4.78022   4.94296
 Alpha virt. eigenvalues --    5.07416   5.09069   5.11692   5.13598   5.42521
 Alpha virt. eigenvalues --    5.48278   5.87440   6.01974   6.13118   6.18546
 Alpha virt. eigenvalues --    6.34281   6.41522   6.49601   6.50893   6.74323
 Alpha virt. eigenvalues --    6.76442   6.78105   6.84649   6.90772   6.94113
 Alpha virt. eigenvalues --    6.96280   6.97944   6.98505   7.01791   7.05222
 Alpha virt. eigenvalues --    7.25518   7.29170   7.43352   7.64953   7.87512
 Alpha virt. eigenvalues --    8.15850   8.18320  10.90213  14.13758  14.53799
 Alpha virt. eigenvalues --   14.83437  14.88629  15.11472  29.03185  29.03827
 Alpha virt. eigenvalues --   29.08092  29.14207  29.23578  49.11432 148.31414
 Alpha virt. eigenvalues --  148.39147 148.72369 752.52898
          Condensed to atoms (all electrons):
              1          2          3          4          5
     1  O    8.209786  -0.176527   0.180184  -0.005889  -0.006973
     2  O   -0.176527   8.178704   0.006913   0.223961   0.001306
     3  H    0.180184   0.006913   0.608143   0.005287   0.001422
     4  H   -0.005889   0.223961   0.005287   0.549980  -0.003647
     5  Kr  -0.006973   0.001306   0.001422  -0.003647   0.001311
 Mulliken atomic charges:
              1
     1  O   -0.200582
     2  O   -0.234358
     3  H    0.198051
     4  H    0.230307
     5  Kr   0.006581
 Sum of Mulliken atomic charges =   0.00000
 Mulliken charges with hydrogens summed into heavy atoms:
              1
     1  O   -0.002531
     2  O   -0.004050
     5  Kr   0.006581
 Sum of Mulliken charges with hydrogens summed into heavy atoms =   0.00000
          Condensed to fragments (all electrons):
     1      -0.006581
     2       0.006581
 Electronic spatial extent (au):  <R**2>=            324.5142
 Charge=              0.0000 electrons
 Dipole moment (field-independent basis, Debye):
    X=             -0.0003    Y=              0.0002    Z=              0.0000  Tot=              0.0004
 Quadrupole moment (field-independent basis, Debye-Ang):
   XX=            -10.5614   YY=             -8.4695   ZZ=            -13.0544
   XY=             -4.1964   XZ=              0.0000   YZ=              0.0000
 Traceless Quadrupole moment (field-independent basis, Debye-Ang):
   XX=              0.1337   YY=              2.2256   ZZ=             -2.3593
   XY=             -4.1964   XZ=              0.0000   YZ=              0.0000
 Octapole moment (field-independent basis, Debye-Ang**2):
  XXX=             -0.0027  YYY=             50.8174  ZZZ=              0.0000  XYY=             16.7879
  XXY=             21.1235  XXZ=              0.0000  XZZ=             -0.0011  YZZ=             26.1096
  YYZ=              0.0000  XYZ=              0.0000
 Hexadecapole moment (field-independent basis, Debye-Ang**3):
 XXXX=            -45.1493 YYYY=           -212.9010 ZZZZ=            -11.1616 XXXY=             -3.1036
 XXXZ=              0.0000 YYYX=            -52.1871 YYYZ=              0.0000 ZZZX=              0.0000
 ZZZY=              0.0000 XXYY=            -49.1271 XXZZ=            -11.3600 YYZZ=            -56.3378
 XXYZ=              0.0000 YYXZ=              0.0000 ZZXY=              0.7313
 N-N= 3.660061889452D+01 E-N=-4.315424002358D+02  KE= 1.504632918788D+02
 Symmetry A'   KE= 1.406850876595D+02
 Symmetry A"   KE= 9.778204219388D+00
 No NMR shielding tensors so no spin-rotation constants.
 Leave Link  601 at Fri May  8 15:47:05 2020, MaxMem= 1073741824 cpu:       0.8
 (Enter /home/matheus/.gaussian/g09/l122.exe)
 Counterpoise: doing DCBS calculation for fragment   2 NewBq=T
 Leave Link  122 at Fri May  8 15:47:05 2020, MaxMem= 1073741824 cpu:       0.0
 (Enter /home/matheus/.gaussian/g09/l301.exe)
 Basis read from rwf:  (5D, 7F)
 No pseudopotential information found on rwf file.
 There are   131 symmetry adapted basis functions of A'  symmetry.
 There are    66 symmetry adapted basis functions of A"  symmetry.
 Integral buffers will be    131072 words long.
 Raffenetti 2 integral format.
 Two-electron integral symmetry is turned on.
   197 basis functions,   415 primitive gaussians,   229 cartesian basis functions
    18 alpha electrons       18 beta electrons
       nuclear repulsion energy         0.0000000000 Hartrees.
 IExCor=32609 DFT=T Ex+Corr=LC-wPBE ExCW=0 ScaHFX=  1.000000
 ScaDFX=  1.000000  0.000000  1.000000  1.000000 ScalE2=  1.000000  1.000000
 IRadAn=      5 IRanWt=     -1 IRanGd=            0 ICorTp=0
  HFx wShort=  0.000000 wLong=  0.550000 cFull=  0.000000 cShort=  0.000000 cLong=  1.000000
  DFx wShort=  0.000000 wLong=  0.550000 cFull=  0.000000 cShort=  0.000000 cLong=  1.000000
 NAtoms=    5 NActive=    5 NUniq=    5 SFac= 1.00D+00 NAtFMM=   60 NAOKFM=F Big=F
 No density basis found on file   718.
 Leave Link  301 at Fri May  8 15:47:05 2020, MaxMem= 1073741824 cpu:       0.2
 (Enter /home/matheus/.gaussian/g09/l302.exe)
 NPDir=0 NMtPBC=     1 NCelOv=     1 NCel=       1 NClECP=     1 NCelD=      1
         NCelK=      1 NCelE2=     1 NClLst=     1 CellRange=     0.0.
 One-electron integrals computed using PRISM.
 NBasis=   197 RedAO= T  NBF=   131    66
 NBsUse=   197 1.00D-06 NBFU=   131    66
 Precomputing XC quadrature grid using
 IXCGrd= 2 IRadAn=           5 IRanWt=          -1 IRanGd=           0 AccXCQ= 0.00D+00.
 NRdTot=     427 NPtTot=      123814 NUsed=      126881 NTot=      126913
 NSgBfM=   229   229   229   229   229 NAtAll=     5     5.
 Leave Link  302 at Fri May  8 15:47:05 2020, MaxMem= 1073741824 cpu:       0.9
 (Enter /home/matheus/.gaussian/g09/l303.exe)
 DipDrv:  MaxL=1.
 Leave Link  303 at Fri May  8 15:47:05 2020, MaxMem= 1073741824 cpu:       0.2
 (Enter /home/matheus/.gaussian/g09/l401.exe)
 Harris functional with IExCor=32609 diagonalized for initial guess.
 ExpMin= 2.53D-02 ExpMax= 1.17D+07 ExpMxC= 1.33D+04 IAcc=3 IRadAn=         5 AccDes= 0.00D+00
 HarFok:  IExCor=32609 AccDes= 0.00D+00 IRadAn=         5 IDoV= 1
 ScaDFX=  1.000000  1.000000  1.000000  1.000000
 FoFCou: FMM=F IPFlag=           0 FMFlag=      100000 FMFlg1=           0
         NFxFlg=           0 DoJE=T BraDBF=F KetDBF=T FulRan=T
         Omega=  0.000000  0.000000  1.000000  0.000000  0.000000 ICntrl=     500 IOpCl=  0
         NMat0=    1 NMatS0=    1 NMatT0=    0 NMatD0=    1 NMtDS0=    0 NMtDT0=    0
         I1Cent=           4 NGrid=           0.
 Petite list used in FoFCou.
 Harris En= -2753.24649573672    
 Initial guess orbital symmetries:
       Occupied  (A') (A') (A') (A') (A") (A') (A') (A') (A") (A')
                 (A') (A") (A') (A") (A') (A') (A') (A")
       Virtual   (A') (A') (A') (A") (A') (A') (A') (A") (A') (A")
                 (A') (A') (A') (A") (A') (A") (A') (A') (A') (A")
                 (A') (A') (A") (A') (A') (A') (A") (A') (A') (A')
                 (A") (A') (A") (A') (A") (A') (A') (A') (A') (A")
                 (A') (A") (A') (A") (A') (A") (A') (A') (A") (A')
                 (A') (A') (A") (A") (A') (A") (A') (A') (A') (A")
                 (A') (A") (A') (A') (A') (A") (A") (A') (A') (A')
                 (A') (A') (A") (A') (A") (A') (A') (A') (A') (A")
                 (A') (A') (A") (A') (A") (A") (A') (A') (A") (A')
                 (A") (A') (A') (A") (A") (A') (A") (A') (A') (A")
                 (A') (A') (A") (A") (A') (A") (A') (A') (A') (A')
                 (A") (A") (A') (A') (A') (A') (A") (A") (A') (A')
                 (A') (A') (A') (A") (A') (A') (A") (A') (A') (A")
                 (A') (A") (A') (A') (A") (A') (A') (A") (A") (A')
                 (A') (A') (A') (A') (A') (A") (A') (A") (A') (A')
                 (A") (A") (A') (A") (A") (A') (A') (A') (A') (A')
                 (A') (A") (A") (A") (A') (A') (A") (A') (A') (A")
                 (A') (A") (A') (A') (A') (A') (A') (A') (A')
 The electronic state of the initial guess is 1-A'.
 Leave Link  401 at Fri May  8 15:47:06 2020, MaxMem= 1073741824 cpu:       2.5
 (Enter /home/matheus/.gaussian/g09/l502.exe)
 Closed shell SCF:
 Requested convergence on RMS density matrix=1.00D-08 within 128 cycles.
 Requested convergence on MAX density matrix=1.00D-06.
 Requested convergence on             energy=1.00D-06.
 No special actions if energy rises.
 Using DIIS extrapolation, IDIIS=  1040.
 Integral symmetry usage will be decided dynamically.
       126823 words used for storage of precomputed grid.
 IEnd=      305835 IEndB=      305835 NGot=  1073741824 MDV=  1073505300
 LenX=  1073505300 LenY=  1073452418
 Fock matrices will be formed incrementally for  20 cycles.

 Cycle   1  Pass 1  IDiag  1:
 FoFJK:  IHMeth= 1 ICntrl=     0 DoSepK=T KAlg= 1 I1Cent= 0 FoldK=F
 FoFCou: FMM=F IPFlag=           0 FMFlag=      100000 FMFlg1=           0
         NFxFlg=           0 DoJE=T BraDBF=F KetDBF=F FulRan=T
         Omega=  0.000000  0.000000  1.000000  0.000000  0.000000 ICntrl=     500 IOpCl=  0
         NMat0=    1 NMatS0=    1 NMatT0=    0 NMatD0=    1 NMtDS0=    0 NMtDT0=    0
         I1Cent=           0 NGrid=           0.
 Petite list used in FoFCou.
 E= -2753.43084912385    
 DIIS: error= 3.14D-02 at cycle   1 NSaved=   1.
 NSaved= 1 IEnMin= 1 EnMin= -2753.43084912385     IErMin= 1 ErrMin= 3.14D-02
 ErrMax= 3.14D-02 EMaxC= 1.00D-01 BMatC= 2.24D-01 BMatP= 2.24D-01
 IDIUse=3 WtCom= 6.86D-01 WtEn= 3.14D-01
 Coeff-Com:  0.100D+01
 Coeff-En:   0.100D+01
 Coeff:      0.100D+01
 Gap=     0.637 Goal=   None    Shift=    0.000
 GapD=    0.637 DampG=2.000 DampE=0.500 DampFc=1.0000 IDamp=-1.
 RMSDP=2.10D-03 MaxDP=1.42D-01              OVMax= 5.14D-02

 Cycle   2  Pass 1  IDiag  1:
 RMSU=  1.45D-03    CP:  1.02D+00
 FoFJK:  IHMeth= 1 ICntrl=     0 DoSepK=T KAlg= 1 I1Cent= 0 FoldK=F
 E= -2753.46431364022     Delta-E=       -0.033464516369 Rises=F Damp=F
 DIIS: error= 1.20D-02 at cycle   2 NSaved=   2.
 NSaved= 2 IEnMin= 2 EnMin= -2753.46431364022     IErMin= 2 ErrMin= 1.20D-02
 ErrMax= 1.20D-02 EMaxC= 1.00D-01 BMatC= 4.97D-02 BMatP= 2.24D-01
 IDIUse=3 WtCom= 8.80D-01 WtEn= 1.20D-01
 Coeff-Com:  0.315D+00 0.685D+00
 Coeff-En:   0.627D-01 0.937D+00
 Coeff:      0.285D+00 0.715D+00
 Gap=     0.549 Goal=   None    Shift=    0.000
 RMSDP=7.77D-04 MaxDP=5.01D-02 DE=-3.35D-02 OVMax= 1.85D-02

 Cycle   3  Pass 1  IDiag  1:
 RMSU=  1.57D-04    CP:  1.01D+00  6.47D-01
 FoFJK:  IHMeth= 1 ICntrl=     0 DoSepK=T KAlg= 1 I1Cent= 0 FoldK=F
 E= -2753.47773405576     Delta-E=       -0.013420415542 Rises=F Damp=F
 DIIS: error= 1.37D-03 at cycle   3 NSaved=   3.
 NSaved= 3 IEnMin= 3 EnMin= -2753.47773405576     IErMin= 3 ErrMin= 1.37D-03
 ErrMax= 1.37D-03 EMaxC= 1.00D-01 BMatC= 5.76D-04 BMatP= 4.97D-02
 IDIUse=3 WtCom= 9.86D-01 WtEn= 1.37D-02
 Coeff-Com: -0.470D-02 0.884D-01 0.916D+00
 Coeff-En:   0.000D+00 0.000D+00 0.100D+01
 Coeff:     -0.463D-02 0.872D-01 0.917D+00
 Gap=     0.556 Goal=   None    Shift=    0.000
 RMSDP=7.33D-05 MaxDP=4.42D-03 DE=-1.34D-02 OVMax= 2.48D-03

 Cycle   4  Pass 1  IDiag  1:
 RMSU=  1.37D-05    CP:  1.01D+00  6.80D-01  9.93D-01
 FoFJK:  IHMeth= 1 ICntrl=     0 DoSepK=T KAlg= 1 I1Cent= 0 FoldK=F
 E= -2753.47790010793     Delta-E=       -0.000166052168 Rises=F Damp=F
 DIIS: error= 4.00D-05 at cycle   4 NSaved=   4.
 NSaved= 4 IEnMin= 4 EnMin= -2753.47790010793     IErMin= 4 ErrMin= 4.00D-05
 ErrMax= 4.00D-05 EMaxC= 1.00D-01 BMatC= 4.39D-07 BMatP= 5.76D-04
 IDIUse=1 WtCom= 1.00D+00 WtEn= 0.00D+00
 Coeff-Com: -0.548D-03-0.203D-01-0.163D+00 0.118D+01
 Coeff:     -0.548D-03-0.203D-01-0.163D+00 0.118D+01
 Gap=     0.555 Goal=   None    Shift=    0.000
 RMSDP=5.80D-06 MaxDP=3.22D-04 DE=-1.66D-04 OVMax= 4.14D-04

 Cycle   5  Pass 1  IDiag  1:
 RMSU=  1.88D-06    CP:  1.01D+00  6.80D-01  1.01D+00  1.19D+00
 FoFJK:  IHMeth= 1 ICntrl=     0 DoSepK=T KAlg= 1 I1Cent= 0 FoldK=F
 E= -2753.47790063294     Delta-E=       -0.000000525008 Rises=F Damp=F
 DIIS: error= 2.55D-06 at cycle   5 NSaved=   5.
 NSaved= 5 IEnMin= 5 EnMin= -2753.47790063294     IErMin= 5 ErrMin= 2.55D-06
 ErrMax= 2.55D-06 EMaxC= 1.00D-01 BMatC= 2.12D-09 BMatP= 4.39D-07
 IDIUse=1 WtCom= 1.00D+00 WtEn= 0.00D+00
 Coeff-Com:  0.973D-04 0.219D-03-0.125D-02-0.186D-01 0.102D+01
 Coeff:      0.973D-04 0.219D-03-0.125D-02-0.186D-01 0.102D+01
 Gap=     0.555 Goal=   None    Shift=    0.000
 RMSDP=3.42D-07 MaxDP=2.19D-05 DE=-5.25D-07 OVMax= 1.48D-05

 Cycle   6  Pass 1  IDiag  1:
 RMSU=  1.72D-07    CP:  1.01D+00  6.80D-01  1.01D+00  1.20D+00  1.03D+00
 FoFJK:  IHMeth= 1 ICntrl=     0 DoSepK=T KAlg= 1 I1Cent= 0 FoldK=F
 E= -2753.47790063481     Delta-E=       -0.000000001873 Rises=F Damp=F
 DIIS: error= 4.13D-07 at cycle   6 NSaved=   6.
 NSaved= 6 IEnMin= 6 EnMin= -2753.47790063481     IErMin= 6 ErrMin= 4.13D-07
 ErrMax= 4.13D-07 EMaxC= 1.00D-01 BMatC= 7.69D-11 BMatP= 2.12D-09
 IDIUse=1 WtCom= 1.00D+00 WtEn= 0.00D+00
 Coeff-Com:  0.355D-05 0.195D-03 0.178D-02-0.167D-01 0.361D-01 0.979D+00
 Coeff:      0.355D-05 0.195D-03 0.178D-02-0.167D-01 0.361D-01 0.979D+00
 Gap=     0.555 Goal=   None    Shift=    0.000
 RMSDP=5.09D-08 MaxDP=2.52D-06 DE=-1.87D-09 OVMax= 3.10D-06

 Cycle   7  Pass 1  IDiag  1:
 RMSU=  1.11D-08    CP:  1.01D+00  6.80D-01  1.01D+00  1.20D+00  1.04D+00
                    CP:  1.10D+00
 FoFJK:  IHMeth= 1 ICntrl=     0 DoSepK=T KAlg= 1 I1Cent= 0 FoldK=F
 E= -2753.47790063486     Delta-E=       -0.000000000046 Rises=F Damp=F
 DIIS: error= 3.88D-08 at cycle   7 NSaved=   7.
 NSaved= 7 IEnMin= 7 EnMin= -2753.47790063486     IErMin= 7 ErrMin= 3.88D-08
 ErrMax= 3.88D-08 EMaxC= 1.00D-01 BMatC= 4.32D-13 BMatP= 7.69D-11
 IDIUse=1 WtCom= 1.00D+00 WtEn= 0.00D+00
 Coeff-Com:  0.224D-06 0.343D-04 0.323D-03-0.289D-02 0.312D-02 0.155D+00
 Coeff-Com:  0.844D+00
 Coeff:      0.224D-06 0.343D-04 0.323D-03-0.289D-02 0.312D-02 0.155D+00
 Coeff:      0.844D+00
 Gap=     0.555 Goal=   None    Shift=    0.000
 RMSDP=6.04D-09 MaxDP=2.24D-07 DE=-4.64D-11 OVMax= 2.44D-07

 SCF Done:  E(RLC-wPBE) =  -2753.47790063     A.U. after    7 cycles
             Convg  =    0.6043D-08             -V/T =  2.0014
 KE= 2.749514756078D+03 PE=-6.579048868092D+03 EE= 1.076056211380D+03
 Leave Link  502 at Fri May  8 15:47:24 2020, MaxMem= 1073741824 cpu:     148.5
 (Enter /home/matheus/.gaussian/g09/l601.exe)
 Copying SCF densities to generalized density rwf, IOpCl= 0 IROHF=0.

 **********************************************************************

            Population analysis using the SCF density.

 **********************************************************************

 Orbital symmetries:
       Occupied  (A') (A') (A') (A') (A") (A') (A') (A') (A") (A')
                 (A') (A") (A') (A") (A') (A') (A') (A")
       Virtual   (A') (A') (A') (A") (A') (A') (A') (A") (A') (A')
                 (A") (A') (A') (A") (A') (A') (A") (A') (A') (A")
                 (A') (A') (A') (A") (A') (A') (A') (A") (A') (A')
                 (A") (A') (A') (A") (A') (A') (A") (A') (A') (A")
                 (A') (A") (A") (A') (A') (A') (A") (A') (A') (A")
                 (A') (A") (A') (A") (A') (A') (A") (A') (A") (A')
                 (A') (A') (A") (A') (A") (A') (A') (A') (A') (A")
                 (A') (A') (A') (A") (A") (A') (A') (A') (A') (A")
                 (A') (A") (A') (A') (A') (A") (A") (A') (A') (A")
                 (A") (A') (A") (A') (A") (A') (A") (A') (A") (A')
                 (A") (A') (A") (A') (A') (A') (A") (A') (A') (A")
                 (A') (A") (A') (A') (A') (A') (A") (A") (A') (A')
                 (A') (A') (A') (A") (A') (A') (A") (A') (A') (A")
                 (A') (A') (A") (A") (A') (A') (A') (A") (A") (A')
                 (A') (A') (A') (A') (A') (A") (A') (A") (A') (A')
                 (A") (A") (A') (A") (A") (A') (A') (A') (A') (A')
                 (A') (A") (A") (A") (A') (A') (A") (A') (A') (A")
                 (A') (A") (A') (A') (A') (A') (A') (A') (A')
 The electronic state is 1-A'.
 Alpha  occ. eigenvalues -- -511.18550 -66.73375 -60.39484 -60.39481 -60.39481
 Alpha  occ. eigenvalues --   -9.66931  -7.41183  -7.41181  -7.41181  -3.35590
 Alpha  occ. eigenvalues --   -3.35589  -3.35589  -3.35588  -3.35588  -1.08852
 Alpha  occ. eigenvalues --   -0.52697  -0.52694  -0.52692
 Alpha virt. eigenvalues --    0.02854   0.04873   0.08355   0.09949   0.10756
 Alpha virt. eigenvalues --    0.12194   0.13020   0.14477   0.16609   0.17074
 Alpha virt. eigenvalues --    0.17837   0.19585   0.21209   0.26666   0.27398
 Alpha virt. eigenvalues --    0.28000   0.28755   0.33290   0.34228   0.35977
 Alpha virt. eigenvalues --    0.36104   0.36874   0.38210   0.39679   0.41958
 Alpha virt. eigenvalues --    0.43511   0.43970   0.54661   0.55903   0.58859
 Alpha virt. eigenvalues --    0.62559   0.64551   0.67726   0.68531   0.70681
 Alpha virt. eigenvalues --    0.75564   0.75763   0.77000   0.78844   0.79264
 Alpha virt. eigenvalues --    0.81983   0.82280   0.84296   0.84855   0.85995
 Alpha virt. eigenvalues --    0.87068   0.88790   0.89163   0.92923   0.95312
 Alpha virt. eigenvalues --    0.98650   1.01073   1.01116   1.04022   1.05667
 Alpha virt. eigenvalues --    1.07345   1.09600   1.10114   1.12942   1.14746
 Alpha virt. eigenvalues --    1.16658   1.19588   1.20143   1.26604   1.28944
 Alpha virt. eigenvalues --    1.33486   1.35288   1.42754   1.44637   1.46374
 Alpha virt. eigenvalues --    1.58114   1.61383   1.72497   1.74208   1.77807
 Alpha virt. eigenvalues --    1.82565   1.86094   1.87792   1.89142   2.19308
 Alpha virt. eigenvalues --    2.24152   2.25023   2.30796   2.33236   2.35157
 Alpha virt. eigenvalues --    2.35433   2.36131   2.38496   2.41279   2.42485
 Alpha virt. eigenvalues --    2.42811   2.48134   2.49938   2.52686   2.53979
 Alpha virt. eigenvalues --    2.54669   2.55867   2.56939   2.59366   2.61082
 Alpha virt. eigenvalues --    2.62072   2.63435   2.64103   2.67317   2.69284
 Alpha virt. eigenvalues --    2.70967   2.71117   2.79662   2.80924   2.87866
 Alpha virt. eigenvalues --    2.90502   3.02673   3.06062   3.11425   3.15567
 Alpha virt. eigenvalues --    3.25149   3.25621   3.28759   3.35008   3.52881
 Alpha virt. eigenvalues --    3.59564   3.64581   3.85406   3.87378   4.03371
 Alpha virt. eigenvalues --    4.36539   4.42953   4.56955   4.58059   4.62651
 Alpha virt. eigenvalues --    4.73957   4.91583   4.92251   4.92811   5.03253
 Alpha virt. eigenvalues --    5.12189   5.14800   5.59809   5.66491   5.84285
 Alpha virt. eigenvalues --    5.87090   5.95494   6.22878   6.84645   6.95832
 Alpha virt. eigenvalues --    7.25575   7.42677   7.60056   7.65808   7.75744
 Alpha virt. eigenvalues --    7.78003   8.09704   8.09852   8.16622   8.25985
 Alpha virt. eigenvalues --    8.33197   8.37793   8.69386   8.90064   9.64552
 Alpha virt. eigenvalues --    9.70897   9.76702   9.82977   9.95563  10.06457
 Alpha virt. eigenvalues --   10.18408  10.19602  10.49906  10.93268  11.41671
 Alpha virt. eigenvalues --   11.56361  11.61418  12.03218  12.14464  13.21582
 Alpha virt. eigenvalues --   13.69964  14.53093  62.96183  64.51904
          Condensed to atoms (all electrons):
              1          2          3          4          5
     1  O    0.003362  -0.002847  -0.001716   0.001525  -0.008926
     2  O   -0.002847   0.006577   0.001148  -0.004387  -0.001552
     3  H   -0.001716   0.001148   0.001104  -0.000544   0.001048
     4  H    0.001525  -0.004387  -0.000544   0.004944  -0.030506
     5  Kr  -0.008926  -0.001552   0.001048  -0.030506  36.077525
 Mulliken atomic charges:
              1
     1  O    0.008602
     2  O    0.001060
     3  H   -0.001041
     4  H    0.028968
     5  Kr  -0.037589
 Sum of Mulliken atomic charges =   0.00000
 Mulliken charges with hydrogens summed into heavy atoms:
              1
     1  O    0.007561
     2  O    0.030028
     5  Kr  -0.037589
 Sum of Mulliken charges with hydrogens summed into heavy atoms =   0.00000
          Condensed to fragments (all electrons):
     1       0.037589
     2      -0.037589
 Electronic spatial extent (au):  <R**2>=            167.6996
 Charge=              0.0000 electrons
 Dipole moment (field-independent basis, Debye):
    X=             -0.0005    Y=             -0.0010    Z=              0.0000  Tot=              0.0011
 Quadrupole moment (field-independent basis, Debye-Ang):
   XX=            -17.5499   YY=            -17.5409   ZZ=            -17.5555
   XY=              0.0042   XZ=              0.0000   YZ=              0.0000
 Traceless Quadrupole moment (field-independent basis, Debye-Ang):
   XX=             -0.0011   YY=              0.0079   ZZ=             -0.0067
   XY=              0.0042   XZ=              0.0000   YZ=              0.0000
 Octapole moment (field-independent basis, Debye-Ang**2):
  XXX=             -0.0019  YYY=            -52.6233  ZZZ=              0.0000  XYY=              0.0088
  XXY=            -17.5511  XXZ=              0.0000  XZZ=             -0.0009  YZZ=            -17.5539
  YYZ=              0.0000  XYZ=              0.0000
 Hexadecapole moment (field-independent basis, Debye-Ang**3):
 XXXX=            -18.0232 YYYY=           -123.2594 ZZZZ=            -18.0396 XXXY=              0.0139
 XXXZ=              0.0000 YYYX=              0.0202 YYYZ=              0.0000 ZZZX=              0.0000
 ZZZY=              0.0000 XXYY=            -23.5541 XXZZ=             -6.0073 YYZZ=            -23.5583
 XXYZ=              0.0000 YYXZ=              0.0000 ZZXY=              0.0056
 N-N= 0.000000000000D+00 E-N=-6.579048865264D+03  KE= 2.749514756078D+03
 Symmetry A'   KE= 2.343646499939D+03
 Symmetry A"   KE= 4.058682561388D+02
 No NMR shielding tensors so no spin-rotation constants.
 Leave Link  601 at Fri May  8 15:47:24 2020, MaxMem= 1073741824 cpu:       0.9
 (Enter /home/matheus/.gaussian/g09/l122.exe)
 Counterpoise: doing MCBS calculation for fragment   1
 Leave Link  122 at Fri May  8 15:47:24 2020, MaxMem= 1073741824 cpu:       0.0
 (Enter /home/matheus/.gaussian/g09/l301.exe)
 Basis read from rwf:  (5D, 7F)
 No pseudopotential information found on rwf file.
 There are    92 symmetry adapted basis functions of A'  symmetry.
 There are    46 symmetry adapted basis functions of A"  symmetry.
 Integral buffers will be    131072 words long.
 Raffenetti 2 integral format.
 Two-electron integral symmetry is turned on.
   138 basis functions,   198 primitive gaussians,   160 cartesian basis functions
     9 alpha electrons        9 beta electrons
       nuclear repulsion energy        36.6006188945 Hartrees.
 IExCor=32609 DFT=T Ex+Corr=LC-wPBE ExCW=0 ScaHFX=  1.000000
 ScaDFX=  1.000000  0.000000  1.000000  1.000000 ScalE2=  1.000000  1.000000
 IRadAn=      5 IRanWt=     -1 IRanGd=            0 ICorTp=0
  HFx wShort=  0.000000 wLong=  0.550000 cFull=  0.000000 cShort=  0.000000 cLong=  1.000000
  DFx wShort=  0.000000 wLong=  0.550000 cFull=  0.000000 cShort=  0.000000 cLong=  1.000000
 NAtoms=    5 NActive=    4 NUniq=    4 SFac= 1.00D+00 NAtFMM=   60 NAOKFM=F Big=F
 No density basis found on file   718.
 Leave Link  301 at Fri May  8 15:47:24 2020, MaxMem= 1073741824 cpu:       0.2
 (Enter /home/matheus/.gaussian/g09/l302.exe)
 NPDir=0 NMtPBC=     1 NCelOv=     1 NCel=       1 NClECP=     1 NCelD=      1
         NCelK=      1 NCelE2=     1 NClLst=     1 CellRange=     0.0.
 One-electron integrals computed using PRISM.
 NBasis=   138 RedAO= T  NBF=    92    46
 NBsUse=   138 1.00D-06 NBFU=    92    46
 Precomputing XC quadrature grid using
 IXCGrd= 2 IRadAn=           5 IRanWt=          -1 IRanGd=           0 AccXCQ= 0.00D+00.
 NRdTot=     344 NPtTot=       92556 NUsed=       95038 NTot=       95070
 NSgBfM=   160   160   160   160   160 NAtAll=     4     4.
 Leave Link  302 at Fri May  8 15:47:24 2020, MaxMem= 1073741824 cpu:       0.7
 (Enter /home/matheus/.gaussian/g09/l303.exe)
 DipDrv:  MaxL=1.
 Leave Link  303 at Fri May  8 15:47:24 2020, MaxMem= 1073741824 cpu:       0.2
 (Enter /home/matheus/.gaussian/g09/l401.exe)
 Harris functional with IExCor=32609 diagonalized for initial guess.
 ExpMin= 2.53D-02 ExpMax= 1.53D+04 ExpMxC= 5.22D+02 IAcc=3 IRadAn=         5 AccDes= 0.00D+00
 HarFok:  IExCor=32609 AccDes= 0.00D+00 IRadAn=         5 IDoV= 1
 ScaDFX=  1.000000  1.000000  1.000000  1.000000
 FoFCou: FMM=F IPFlag=           0 FMFlag=      100000 FMFlg1=           0
         NFxFlg=           0 DoJE=T BraDBF=F KetDBF=T FulRan=T
         Omega=  0.000000  0.000000  1.000000  0.000000  0.000000 ICntrl=     500 IOpCl=  0
         NMat0=    1 NMatS0=    1 NMatT0=    0 NMatD0=    1 NMtDS0=    0 NMtDT0=    0
         I1Cent=           4 NGrid=           0.
 Petite list used in FoFCou.
 Harris En= -151.499497219958    
 Initial guess orbital symmetries:
       Occupied  (A') (A') (A') (A') (A') (A') (A") (A') (A")
       Virtual   (A') (A') (A') (A') (A') (A") (A') (A') (A') (A")
                 (A") (A') (A') (A') (A") (A') (A') (A') (A') (A')
                 (A') (A") (A") (A') (A') (A") (A") (A') (A') (A")
                 (A') (A') (A') (A") (A') (A") (A") (A') (A') (A')
                 (A') (A") (A') (A") (A') (A') (A') (A") (A") (A')
                 (A') (A') (A") (A') (A') (A") (A') (A') (A") (A")
                 (A') (A') (A') (A") (A') (A') (A") (A') (A') (A")
                 (A") (A') (A') (A") (A') (A') (A') (A') (A") (A')
                 (A') (A") (A') (A") (A") (A") (A') (A") (A') (A")
                 (A') (A') (A') (A') (A') (A') (A') (A") (A") (A')
                 (A') (A') (A") (A') (A') (A") (A') (A") (A') (A")
                 (A') (A") (A") (A") (A') (A") (A") (A') (A') (A')
                 (A") (A') (A') (A') (A') (A') (A') (A') (A')
 The electronic state of the initial guess is 1-A'.
 Leave Link  401 at Fri May  8 15:47:25 2020, MaxMem= 1073741824 cpu:       1.4
 (Enter /home/matheus/.gaussian/g09/l502.exe)
 Closed shell SCF:
 Requested convergence on RMS density matrix=1.00D-08 within 128 cycles.
 Requested convergence on MAX density matrix=1.00D-06.
 Requested convergence on             energy=1.00D-06.
 No special actions if energy rises.
 Using DIIS extrapolation, IDIIS=  1040.
 Integral symmetry usage will be decided dynamically.
        94980 words used for storage of precomputed grid.
 IEnd=      192406 IEndB=      192406 NGot=  1073741824 MDV=  1073591819
 LenX=  1073591819 LenY=  1073565778
 Fock matrices will be formed incrementally for  20 cycles.

 Cycle   1  Pass 1  IDiag  1:
 FoFJK:  IHMeth= 1 ICntrl=     0 DoSepK=T KAlg= 1 I1Cent= 0 FoldK=F
 FoFCou: FMM=F IPFlag=           0 FMFlag=      100000 FMFlg1=           0
         NFxFlg=           0 DoJE=T BraDBF=F KetDBF=F FulRan=T
         Omega=  0.000000  0.000000  1.000000  0.000000  0.000000 ICntrl=     500 IOpCl=  0
         NMat0=    1 NMatS0=    1 NMatT0=    0 NMatD0=    1 NMtDS0=    0 NMtDT0=    0
         I1Cent=           0 NGrid=           0.
 Petite list used in FoFCou.
 E= -151.506096674457    
 DIIS: error= 1.77D-02 at cycle   1 NSaved=   1.
 NSaved= 1 IEnMin= 1 EnMin= -151.506096674457     IErMin= 1 ErrMin= 1.77D-02
 ErrMax= 1.77D-02 EMaxC= 1.00D-01 BMatC= 4.02D-02 BMatP= 4.02D-02
 IDIUse=3 WtCom= 8.23D-01 WtEn= 1.77D-01
 Coeff-Com:  0.100D+01
 Coeff-En:   0.100D+01
 Coeff:      0.100D+01
 Gap=     0.527 Goal=   None    Shift=    0.000
 GapD=    0.527 DampG=2.000 DampE=0.500 DampFc=1.0000 IDamp=-1.
 RMSDP=1.06D-03 MaxDP=2.56D-02              OVMax= 4.98D-02

 Cycle   2  Pass 1  IDiag  1:
 RMSU=  7.38D-04    CP:  9.88D-01
 FoFJK:  IHMeth= 1 ICntrl=     0 DoSepK=T KAlg= 1 I1Cent= 0 FoldK=F
 E= -151.522173086376     Delta-E=       -0.016076411919 Rises=F Damp=F
 DIIS: error= 1.40D-02 at cycle   2 NSaved=   2.
 NSaved= 2 IEnMin= 2 EnMin= -151.522173086376     IErMin= 2 ErrMin= 1.40D-02
 ErrMax= 1.40D-02 EMaxC= 1.00D-01 BMatC= 1.52D-02 BMatP= 4.02D-02
 IDIUse=3 WtCom= 8.60D-01 WtEn= 1.40D-01
 Coeff-Com:  0.366D+00 0.634D+00
 Coeff-En:   0.102D+00 0.898D+00
 Coeff:      0.329D+00 0.671D+00
 Gap=     0.461 Goal=   None    Shift=    0.000
 RMSDP=5.61D-04 MaxDP=2.20D-02 DE=-1.61D-02 OVMax= 2.20D-02

 Cycle   3  Pass 1  IDiag  1:
 RMSU=  3.35D-04    CP:  9.85D-01  7.17D-01
 FoFJK:  IHMeth= 1 ICntrl=     0 DoSepK=T KAlg= 1 I1Cent= 0 FoldK=F
 E= -151.530470267277     Delta-E=       -0.008297180901 Rises=F Damp=F
 DIIS: error= 2.46D-03 at cycle   3 NSaved=   3.
 NSaved= 3 IEnMin= 3 EnMin= -151.530470267277     IErMin= 3 ErrMin= 2.46D-03
 ErrMax= 2.46D-03 EMaxC= 1.00D-01 BMatC= 4.96D-04 BMatP= 1.52D-02
 IDIUse=3 WtCom= 9.75D-01 WtEn= 2.46D-02
 Coeff-Com:  0.380D-01 0.174D+00 0.788D+00
 Coeff-En:   0.000D+00 0.000D+00 0.100D+01
 Coeff:      0.371D-01 0.170D+00 0.793D+00
 Gap=     0.452 Goal=   None    Shift=    0.000
 RMSDP=8.54D-05 MaxDP=1.76D-03 DE=-8.30D-03 OVMax= 4.22D-03

 Cycle   4  Pass 1  IDiag  1:
 RMSU=  4.02D-05    CP:  9.83D-01  7.73D-01  1.01D+00
 FoFJK:  IHMeth= 1 ICntrl=     0 DoSepK=T KAlg= 1 I1Cent= 0 FoldK=F
 E= -151.530779156120     Delta-E=       -0.000308888843 Rises=F Damp=F
 DIIS: error= 3.65D-04 at cycle   4 NSaved=   4.
 NSaved= 4 IEnMin= 4 EnMin= -151.530779156120     IErMin= 4 ErrMin= 3.65D-04
 ErrMax= 3.65D-04 EMaxC= 1.00D-01 BMatC= 1.02D-05 BMatP= 4.96D-04
 IDIUse=3 WtCom= 9.96D-01 WtEn= 3.65D-03
 Coeff-Com: -0.855D-02-0.107D-01 0.907D-01 0.928D+00
 Coeff-En:   0.000D+00 0.000D+00 0.000D+00 0.100D+01
 Coeff:     -0.852D-02-0.106D-01 0.904D-01 0.929D+00
 Gap=     0.454 Goal=   None    Shift=    0.000
 RMSDP=2.11D-05 MaxDP=1.01D-03 DE=-3.09D-04 OVMax= 8.29D-04

 Cycle   5  Pass 1  IDiag  1:
 RMSU=  6.03D-06    CP:  9.83D-01  7.74D-01  1.05D+00  1.08D+00
 FoFJK:  IHMeth= 1 ICntrl=     0 DoSepK=T KAlg= 1 I1Cent= 0 FoldK=F
 E= -151.530788216846     Delta-E=       -0.000009060726 Rises=F Damp=F
 DIIS: error= 6.38D-05 at cycle   5 NSaved=   5.
 NSaved= 5 IEnMin= 5 EnMin= -151.530788216846     IErMin= 5 ErrMin= 6.38D-05
 ErrMax= 6.38D-05 EMaxC= 1.00D-01 BMatC= 2.42D-07 BMatP= 1.02D-05
 IDIUse=1 WtCom= 1.00D+00 WtEn= 0.00D+00
 Coeff-Com: -0.470D-03-0.359D-02-0.382D-01-0.123D+00 0.117D+01
 Coeff:     -0.470D-03-0.359D-02-0.382D-01-0.123D+00 0.117D+01
 Gap=     0.454 Goal=   None    Shift=    0.000
 RMSDP=5.60D-06 MaxDP=1.48D-04 DE=-9.06D-06 OVMax= 4.10D-04

 Cycle   6  Pass 1  IDiag  1:
 RMSU=  1.75D-06    CP:  9.83D-01  7.75D-01  1.05D+00  1.14D+00  1.36D+00
 FoFJK:  IHMeth= 1 ICntrl=     0 DoSepK=T KAlg= 1 I1Cent= 0 FoldK=F
 E= -151.530788868029     Delta-E=       -0.000000651183 Rises=F Damp=F
 DIIS: error= 1.63D-05 at cycle   6 NSaved=   6.
 NSaved= 6 IEnMin= 6 EnMin= -151.530788868029     IErMin= 6 ErrMin= 1.63D-05
[...]
                 (A') (A') (A") (A") (A') (A') (A") (A") (A') (A')
                 (A") (A') (A') (A") (A") (A') (A") (A') (A') (A')
                 (A") (A') (A") (A') (A') (A') (A') (A") (A") (A')
                 (A') (A') (A') (A') (A") (A') (A") (A') (A') (A")
                 (A') (A') (A") (A") (A') (A') (A') (A") (A") (A')
                 (A') (A') (A') (A') (A') (A") (A') (A") (A') (A")
                 (A') (A') (A") (A") (A") (A') (A') (A') (A') (A')
                 (A') (A") (A") (A") (A') (A') (A") (A') (A') (A")
                 (A') (A") (A') (A') (A') (A') (A') (A') (A')
 The electronic state of the initial guess is 1-A'.
 Generating alternative initial guess.
 Harris functional with IExCor=32609 diagonalized for initial guess.
 ExpMin= 2.53D-02 ExpMax= 1.17D+07 ExpMxC= 1.33D+04 IAcc=3 IRadAn=         5 AccDes= 0.00D+00
 HarFok:  IExCor=32609 AccDes= 0.00D+00 IRadAn=         5 IDoV= 1
 ScaDFX=  1.000000  1.000000  1.000000  1.000000
 FoFCou: FMM=F IPFlag=           0 FMFlag=      100000 FMFlg1=           0
         NFxFlg=           0 DoJE=T BraDBF=F KetDBF=T FulRan=T
         Omega=  0.000000  0.000000  1.000000  0.000000  0.000000 ICntrl=     500 IOpCl=  0
         NMat0=    1 NMatS0=    1 NMatT0=    0 NMatD0=    1 NMtDS0=    0 NMtDT0=    0
         I1Cent=           4 NGrid=           0.
 Petite list used in FoFCou.
 Harris En= -2753.24586711165    
 Leave Link  401 at Fri May  8 16:06:39 2020, MaxMem= 1073741824 cpu:       2.9
 (Enter /home/matheus/.gaussian/g09/l502.exe)
 Closed shell SCF:
 Requested convergence on RMS density matrix=1.00D-08 within 128 cycles.
 Requested convergence on MAX density matrix=1.00D-06.
 Requested convergence on             energy=1.00D-06.
 No special actions if energy rises.
 Using DIIS extrapolation, IDIIS=  1040.
 Integral symmetry usage will be decided dynamically.
       127132 words used for storage of precomputed grid.
 IEnd=      306144 IEndB=      306144 NGot=  1073741824 MDV=  1073504991
 LenX=  1073504991 LenY=  1073452109
 Fock matrices will be formed incrementally for  20 cycles.

 Cycle   1  Pass 1  IDiag  1:
 FoFJK:  IHMeth= 1 ICntrl=     0 DoSepK=T KAlg= 1 I1Cent= 0 FoldK=F
 FoFCou: FMM=F IPFlag=           0 FMFlag=      100000 FMFlg1=           0
         NFxFlg=           0 DoJE=T BraDBF=F KetDBF=F FulRan=T
         Omega=  0.000000  0.000000  1.000000  0.000000  0.000000 ICntrl=     500 IOpCl=  0
         NMat0=    1 NMatS0=    1 NMatT0=    0 NMatD0=    1 NMtDS0=    0 NMtDT0=    0
         I1Cent=           0 NGrid=           0.
 Petite list used in FoFCou.
 E= -2753.47778046949    
 DIIS: error= 1.97D-04 at cycle   1 NSaved=   1.
 NSaved= 1 IEnMin= 1 EnMin= -2753.47778046949     IErMin= 1 ErrMin= 1.97D-04
 ErrMax= 1.97D-04 EMaxC= 1.00D-01 BMatC= 5.36D-06 BMatP= 5.36D-06
 IDIUse=3 WtCom= 9.98D-01 WtEn= 1.97D-03
 Coeff-Com:  0.100D+01
 Coeff-En:   0.100D+01
 Coeff:      0.100D+01
 Gap=     0.555 Goal=   None    Shift=    0.000
 RMSDP=2.02D-05 MaxDP=8.43D-04              OVMax= 3.07D-04

 Cycle   2  Pass 1  IDiag  1:
 RMSU=  1.43D-05    CP:  1.00D+00
 FoFJK:  IHMeth= 1 ICntrl=     0 DoSepK=T KAlg= 1 I1Cent= 0 FoldK=F
 E= -2753.47778104695     Delta-E=       -0.000000577459 Rises=F Damp=F
 DIIS: error= 3.46D-06 at cycle   2 NSaved=   2.
 NSaved= 2 IEnMin= 2 EnMin= -2753.47778104695     IErMin= 2 ErrMin= 3.46D-06
 ErrMax= 3.46D-06 EMaxC= 1.00D-01 BMatC= 3.88D-09 BMatP= 5.36D-06
 IDIUse=1 WtCom= 1.00D+00 WtEn= 0.00D+00
 Coeff-Com: -0.772D-02 0.101D+01
 Coeff:     -0.772D-02 0.101D+01
 Gap=     0.554 Goal=   None    Shift=    0.000
 RMSDP=1.68D-06 MaxDP=6.14D-05 DE=-5.77D-07 OVMax= 4.63D-05

 Cycle   3  Pass 1  IDiag  1:
 RMSU=  5.71D-07    CP:  1.00D+00  1.07D+00
 FoFJK:  IHMeth= 1 ICntrl=     0 DoSepK=T KAlg= 1 I1Cent= 0 FoldK=F
 E= -2753.47778105369     Delta-E=       -0.000000006741 Rises=F Damp=F
 DIIS: error= 5.23D-07 at cycle   3 NSaved=   3.
 NSaved= 3 IEnMin= 3 EnMin= -2753.47778105369     IErMin= 3 ErrMin= 5.23D-07
 ErrMax= 5.23D-07 EMaxC= 1.00D-01 BMatC= 9.81D-11 BMatP= 3.88D-09
 IDIUse=1 WtCom= 1.00D+00 WtEn= 0.00D+00
 Coeff-Com:  0.331D-03-0.128D+00 0.113D+01
 Coeff:      0.331D-03-0.128D+00 0.113D+01
 Gap=     0.554 Goal=   None    Shift=    0.000
 RMSDP=2.00D-07 MaxDP=7.05D-06 DE=-6.74D-09 OVMax= 9.31D-06

 Cycle   4  Pass 1  IDiag  1:
 RMSU=  5.95D-08    CP:  1.00D+00  1.08D+00  1.19D+00
 FoFJK:  IHMeth= 1 ICntrl=     0 DoSepK=T KAlg= 1 I1Cent= 0 FoldK=F
 E= -2753.47778105390     Delta-E=       -0.000000000207 Rises=F Damp=F
 DIIS: error= 3.16D-07 at cycle   4 NSaved=   4.
 NSaved= 4 IEnMin= 4 EnMin= -2753.47778105390     IErMin= 4 ErrMin= 3.16D-07
 ErrMax= 3.16D-07 EMaxC= 1.00D-01 BMatC= 7.57D-12 BMatP= 9.81D-11
 IDIUse=1 WtCom= 1.00D+00 WtEn= 0.00D+00
 Coeff-Com:  0.176D-03-0.432D-01 0.255D+00 0.788D+00
 Coeff:      0.176D-03-0.432D-01 0.255D+00 0.788D+00
 Gap=     0.554 Goal=   None    Shift=    0.000
 RMSDP=2.00D-08 MaxDP=1.00D-06 DE=-2.07D-10 OVMax= 8.46D-07

 Cycle   5  Pass 1  IDiag  1:
 RMSU=  7.97D-09    CP:  1.00D+00  1.08D+00  1.21D+00  1.13D+00
 FoFJK:  IHMeth= 1 ICntrl=     0 DoSepK=T KAlg= 1 I1Cent= 0 FoldK=F
 E= -2753.47778105391     Delta-E=       -0.000000000011 Rises=F Damp=F
 DIIS: error= 4.38D-08 at cycle   5 NSaved=   5.
 NSaved= 5 IEnMin= 5 EnMin= -2753.47778105391     IErMin= 5 ErrMin= 4.38D-08
 ErrMax= 4.38D-08 EMaxC= 1.00D-01 BMatC= 2.84D-13 BMatP= 7.57D-12
 IDIUse=1 WtCom= 1.00D+00 WtEn= 0.00D+00
 Coeff-Com: -0.119D-04 0.602D-02-0.562D-01 0.171D-01 0.103D+01
 Coeff:     -0.119D-04 0.602D-02-0.562D-01 0.171D-01 0.103D+01
 Gap=     0.554 Goal=   None    Shift=    0.000
 RMSDP=8.98D-09 MaxDP=5.27D-07 DE=-1.09D-11 OVMax= 3.67D-07

 SCF Done:  E(RLC-wPBE) =  -2753.47778105     A.U. after    5 cycles
             Convg  =    0.8979D-08             -V/T =  2.0014
 KE= 2.749554754035D+03 PE=-6.579092618271D+03 EE= 1.076060083182D+03
 Leave Link  502 at Fri May  8 16:06:51 2020, MaxMem= 1073741824 cpu:      88.9
 (Enter /home/matheus/.gaussian/g09/l122.exe)
 Restoring MOs from calculation   4 to rwf.
 Counterpoise: doing MCBS calculation for fragment   1
 Leave Link  122 at Fri May  8 16:06:51 2020, MaxMem= 1073741824 cpu:       0.0
 (Enter /home/matheus/.gaussian/g09/l301.exe)
 Basis read from rwf:  (5D, 7F)
 No pseudopotential information found on rwf file.
 There are    92 symmetry adapted basis functions of A'  symmetry.
 There are    46 symmetry adapted basis functions of A"  symmetry.
 Integral buffers will be    131072 words long.
 Raffenetti 2 integral format.
 Two-electron integral symmetry is turned on.
   138 basis functions,   198 primitive gaussians,   160 cartesian basis functions
     9 alpha electrons        9 beta electrons
       nuclear repulsion energy        36.6006188945 Hartrees.
 IExCor=32609 DFT=T Ex+Corr=LC-wPBE ExCW=0 ScaHFX=  1.000000
 ScaDFX=  1.000000  0.000000  1.000000  1.000000 ScalE2=  1.000000  1.000000
 IRadAn=      5 IRanWt=     -1 IRanGd=            0 ICorTp=0
  HFx wShort=  0.000000 wLong=  0.550000 cFull=  0.000000 cShort=  0.000000 cLong=  1.000000
  DFx wShort=  0.000000 wLong=  0.550000 cFull=  0.000000 cShort=  0.000000 cLong=  1.000000
 NAtoms=    5 NActive=    4 NUniq=    4 SFac= 1.00D+00 NAtFMM=   60 NAOKFM=F Big=F
 No density basis found on file   718.
 Leave Link  301 at Fri May  8 16:06:51 2020, MaxMem= 1073741824 cpu:       0.2
 (Enter /home/matheus/.gaussian/g09/l302.exe)
 NPDir=0 NMtPBC=     1 NCelOv=     1 NCel=       1 NClECP=     1 NCelD=      1
         NCelK=      1 NCelE2=     1 NClLst=     1 CellRange=     0.0.
 One-electron integrals computed using PRISM.
 NBasis=   138 RedAO= T  NBF=    92    46
 NBsUse=   138 1.00D-06 NBFU=    92    46
 Precomputing XC quadrature grid using
 IXCGrd= 2 IRadAn=           5 IRanWt=          -1 IRanGd=           0 AccXCQ= 0.00D+00.
 NRdTot=     344 NPtTot=       92556 NUsed=       95038 NTot=       95070
 NSgBfM=   160   160   160   160   160 NAtAll=     4     4.
 Leave Link  302 at Fri May  8 16:06:51 2020, MaxMem= 1073741824 cpu:       0.7
 (Enter /home/matheus/.gaussian/g09/l303.exe)
 DipDrv:  MaxL=1.
 Leave Link  303 at Fri May  8 16:06:51 2020, MaxMem= 1073741824 cpu:       0.2
 (Enter /home/matheus/.gaussian/g09/l401.exe)
 Initial guess read from the read-write file.
 Guess basis will be translated and rotated to current coordinates.
 Initial guess orbital symmetries:
       Occupied  (A') (A') (A') (A') (A') (A') (A") (A') (A")
       Virtual   (A') (A') (A') (A') (A') (A") (A') (A') (A") (A')
                 (A") (A') (A') (A') (A") (A') (A') (A') (A') (A')
                 (A') (A") (A") (A') (A') (A") (A") (A') (A') (A")
                 (A') (A') (A") (A') (A') (A") (A') (A") (A') (A')
                 (A') (A') (A") (A") (A') (A') (A') (A") (A") (A')
                 (A') (A') (A") (A') (A') (A") (A') (A') (A") (A")
                 (A') (A') (A') (A") (A') (A') (A") (A') (A') (A")
                 (A") (A') (A') (A") (A') (A') (A') (A') (A") (A')
                 (A') (A") (A") (A') (A") (A") (A') (A") (A') (A")
                 (A') (A') (A') (A') (A') (A') (A') (A") (A") (A')
                 (A') (A') (A") (A') (A') (A") (A') (A") (A') (A")
                 (A') (A") (A") (A") (A') (A") (A") (A') (A') (A')
                 (A") (A') (A') (A') (A') (A') (A') (A') (A')
 The electronic state of the initial guess is 1-A'.
 Generating alternative initial guess.
 Harris functional with IExCor=32609 diagonalized for initial guess.
 ExpMin= 2.53D-02 ExpMax= 1.53D+04 ExpMxC= 5.22D+02 IAcc=3 IRadAn=         5 AccDes= 0.00D+00
 HarFok:  IExCor=32609 AccDes= 0.00D+00 IRadAn=         5 IDoV= 1
 ScaDFX=  1.000000  1.000000  1.000000  1.000000
 FoFCou: FMM=F IPFlag=           0 FMFlag=      100000 FMFlg1=           0
         NFxFlg=           0 DoJE=T BraDBF=F KetDBF=T FulRan=T
         Omega=  0.000000  0.000000  1.000000  0.000000  0.000000 ICntrl=     500 IOpCl=  0
         NMat0=    1 NMatS0=    1 NMatT0=    0 NMatD0=    1 NMtDS0=    0 NMtDT0=    0
         I1Cent=           4 NGrid=           0.
 Petite list used in FoFCou.
 Harris En= -151.499497219958    
 Leave Link  401 at Fri May  8 16:06:51 2020, MaxMem= 1073741824 cpu:       1.9
 (Enter /home/matheus/.gaussian/g09/l502.exe)
 Closed shell SCF:
 Requested convergence on RMS density matrix=1.00D-08 within 128 cycles.
 Requested convergence on MAX density matrix=1.00D-06.
 Requested convergence on             energy=1.00D-06.
 No special actions if energy rises.
 Using DIIS extrapolation, IDIIS=  1040.
 Integral symmetry usage will be decided dynamically.
        94980 words used for storage of precomputed grid.
 IEnd=      192406 IEndB=      192406 NGot=  1073741824 MDV=  1073591819
 LenX=  1073591819 LenY=  1073565778
 Fock matrices will be formed incrementally for  20 cycles.

 Cycle   1  Pass 1  IDiag  1:
 FoFJK:  IHMeth= 1 ICntrl=     0 DoSepK=T KAlg= 1 I1Cent= 0 FoldK=F
 FoFCou: FMM=F IPFlag=           0 FMFlag=      100000 FMFlg1=           0
         NFxFlg=           0 DoJE=T BraDBF=F KetDBF=F FulRan=T
         Omega=  0.000000  0.000000  1.000000  0.000000  0.000000 ICntrl=     500 IOpCl=  0
         NMat0=    1 NMatS0=    1 NMatT0=    0 NMatD0=    1 NMtDS0=    0 NMtDT0=    0
         I1Cent=           0 NGrid=           0.
 Petite list used in FoFCou.
 E= -151.530788906383    
 DIIS: error= 1.84D-11 at cycle   1 NSaved=   1.
 NSaved= 1 IEnMin= 1 EnMin= -151.530788906383     IErMin= 1 ErrMin= 1.84D-11
 ErrMax= 1.84D-11 EMaxC= 1.00D-01 BMatC= 3.25D-20 BMatP= 3.25D-20
 IDIUse=1 WtCom= 1.00D+00 WtEn= 0.00D+00
 Coeff-Com:  0.100D+01
 Coeff:      0.100D+01
 Gap=     0.454 Goal=   None    Shift=    0.000
 RMSDP=1.01D-12 MaxDP=2.80D-11              OVMax= 4.86D-11

 SCF Done:  E(RLC-wPBE) =  -151.530788906     A.U. after    1 cycles
             Convg  =    0.1008D-11             -V/T =  2.0071
 KE= 1.504627918356D+02 PE=-4.315412033529D+02 EE= 9.294700371642D+01
 Leave Link  502 at Fri May  8 16:06:52 2020, MaxMem= 1073741824 cpu:       7.6
 (Enter /home/matheus/.gaussian/g09/l122.exe)
 Restoring MOs from calculation   5 to rwf.
 Counterpoise: doing MCBS calculation for fragment   2
 Leave Link  122 at Fri May  8 16:06:52 2020, MaxMem= 1073741824 cpu:       0.0
 (Enter /home/matheus/.gaussian/g09/l301.exe)
 Basis read from rwf:  (5D, 7F)
 No pseudopotential information found on rwf file.
 There are    39 symmetry adapted basis functions of A'  symmetry.
 There are    20 symmetry adapted basis functions of A"  symmetry.
 Integral buffers will be    131072 words long.
 Raffenetti 2 integral format.
 Two-electron integral symmetry is turned on.
    59 basis functions,   217 primitive gaussians,    69 cartesian basis functions
    18 alpha electrons       18 beta electrons
       nuclear repulsion energy         0.0000000000 Hartrees.
 IExCor=32609 DFT=T Ex+Corr=LC-wPBE ExCW=0 ScaHFX=  1.000000
 ScaDFX=  1.000000  0.000000  1.000000  1.000000 ScalE2=  1.000000  1.000000
 IRadAn=      5 IRanWt=     -1 IRanGd=            0 ICorTp=0
  HFx wShort=  0.000000 wLong=  0.550000 cFull=  0.000000 cShort=  0.000000 cLong=  1.000000
  DFx wShort=  0.000000 wLong=  0.550000 cFull=  0.000000 cShort=  0.000000 cLong=  1.000000
 NAtoms=    5 NActive=    1 NUniq=    1 SFac= 1.00D+00 NAtFMM=   60 NAOKFM=F Big=F
 No density basis found on file   718.
 Leave Link  301 at Fri May  8 16:06:52 2020, MaxMem= 1073741824 cpu:       0.2
 (Enter /home/matheus/.gaussian/g09/l302.exe)
 NPDir=0 NMtPBC=     1 NCelOv=     1 NCel=       1 NClECP=     1 NCelD=      1
         NCelK=      1 NCelE2=     1 NClLst=     1 CellRange=     0.0.
 One-electron integrals computed using PRISM.
 NBasis=    59 RedAO= T  NBF=    39    20
 NBsUse=    59 1.00D-06 NBFU=    39    20
 Precomputing XC quadrature grid using
 IXCGrd= 2 IRadAn=           5 IRanWt=          -1 IRanGd=           0 AccXCQ= 0.00D+00.
 NRdTot=      81 NPtTot=       30352 NUsed=       30981 NTot=       31013
 NSgBfM=    69    69    69    69    69 NAtAll=     1     1.
 Leave Link  302 at Fri May  8 16:06:52 2020, MaxMem= 1073741824 cpu:       0.7
 (Enter /home/matheus/.gaussian/g09/l303.exe)
 DipDrv:  MaxL=1.
 Leave Link  303 at Fri May  8 16:06:52 2020, MaxMem= 1073741824 cpu:       0.1
 (Enter /home/matheus/.gaussian/g09/l401.exe)
 Initial guess read from the read-write file.
 Guess basis will be translated and rotated to current coordinates.
 Initial guess orbital symmetries:
       Occupied  (A') (A') (A") (A') (A') (A') (A") (A') (A') (A")
                 (A") (A') (A') (A') (A') (A') (A") (A')
       Virtual   (A') (A') (A") (A') (A") (A") (A') (A') (A') (A")
                 (A') (A') (A') (A") (A') (A") (A') (A') (A') (A")
                 (A') (A") (A") (A') (A') (A') (A') (A") (A") (A')
                 (A") (A') (A') (A") (A') (A') (A") (A") (A') (A')
                 (A')
 The electronic state of the initial guess is 1-A'.
 Generating alternative initial guess.
 Harris functional with IExCor=32609 diagonalized for initial guess.
 ExpMin= 4.00D-02 ExpMax= 1.17D+07 ExpMxC= 1.33D+04 IAcc=3 IRadAn=         5 AccDes= 0.00D+00
 HarFok:  IExCor=32609 AccDes= 0.00D+00 IRadAn=         5 IDoV= 1
 ScaDFX=  1.000000  1.000000  1.000000  1.000000
 FoFCou: FMM=F IPFlag=           0 FMFlag=      100000 FMFlg1=           0
         NFxFlg=           0 DoJE=T BraDBF=F KetDBF=T FulRan=T
         Omega=  0.000000  0.000000  1.000000  0.000000  0.000000 ICntrl=     500 IOpCl=  0
         NMat0=    1 NMatS0=    1 NMatT0=    0 NMatD0=    1 NMtDS0=    0 NMtDT0=    0
         I1Cent=           4 NGrid=           0.
 Petite list used in FoFCou.
 Harris En= -2753.24576836237    
 Leave Link  401 at Fri May  8 16:06:52 2020, MaxMem= 1073741824 cpu:       1.1
 (Enter /home/matheus/.gaussian/g09/l502.exe)
 Closed shell SCF:
 Requested convergence on RMS density matrix=1.00D-08 within 128 cycles.
 Requested convergence on MAX density matrix=1.00D-06.
 Requested convergence on             energy=1.00D-06.
 No special actions if energy rises.
 Using DIIS extrapolation, IDIIS=  1040.
 Integral symmetry usage will be decided dynamically.
        30923 words used for storage of precomputed grid.
 IEnd=       64425 IEndB=       64425 NGot=  1073741824 MDV=  1073698870
 LenX=  1073698870 LenY=  1073693668
 Fock matrices will be formed incrementally for  20 cycles.

 Cycle   1  Pass 1  IDiag  1:
 FoFJK:  IHMeth= 1 ICntrl=     0 DoSepK=T KAlg= 1 I1Cent= 0 FoldK=F
 FoFCou: FMM=F IPFlag=           0 FMFlag=      100000 FMFlg1=           0
         NFxFlg=           0 DoJE=T BraDBF=F KetDBF=F FulRan=T
         Omega=  0.000000  0.000000  1.000000  0.000000  0.000000 ICntrl=     500 IOpCl=  0
         NMat0=    1 NMatS0=    1 NMatT0=    0 NMatD0=    1 NMtDS0=    0 NMtDT0=    0
         I1Cent=           0 NGrid=           0.
 Petite list used in FoFCou.
 E= -2753.47775989058    
 DIIS: error= 1.76D-13 at cycle   1 NSaved=   1.
 NSaved= 1 IEnMin= 1 EnMin= -2753.47775989058     IErMin= 1 ErrMin= 1.76D-13
 ErrMax= 1.76D-13 EMaxC= 1.00D-01 BMatC= 7.61D-25 BMatP= 7.61D-25
 IDIUse=1 WtCom= 1.00D+00 WtEn= 0.00D+00
 Coeff-Com:  0.100D+01
 Coeff:      0.100D+01
 Gap=     0.626 Goal=   None    Shift=    0.000
 RMSDP=1.31D-14 MaxDP=3.90D-13              OVMax= 7.33D-14

 SCF Done:  E(RLC-wPBE) =  -2753.47775989     A.U. after    1 cycles
             Convg  =    0.1307D-13             -V/T =  2.0014
 KE= 2.749561508178D+03 PE=-6.579099712888D+03 EE= 1.076060444820D+03
 Leave Link  502 at Fri May  8 16:06:54 2020, MaxMem= 1073741824 cpu:      12.8
 (Enter /home/matheus/.gaussian/g09/l122.exe)
 Restoring MOs from calculation   1 to rwf.
 Counterpoise: corrected energy =   -2905.008570607361
 Counterpoise: BSSE energy =       0.000025445149
 Leave Link  122 at Fri May  8 16:06:54 2020, MaxMem= 1073741824 cpu:       0.0
 (Enter /home/matheus/.gaussian/g09/l108.exe)
 Scan completed.

 Summary of the potential surface scan:
   N      R1          SCF    
 ----  ---------  -----------
    1     3.0000  -2753.47776
    2     3.1000  -2753.47776
    3     3.2000  -2753.47776
    4     3.3000  -2753.47776
    5     3.4000  -2753.47776
    6     3.5000  -2753.47776
    7     3.6000  -2753.47776
    8     3.7000  -2753.47776
    9     3.8000  -2753.47776
   10     3.9000  -2753.47776
   11     4.0000  -2753.47776
   12     4.1000  -2753.47776
   13     4.2000  -2753.47776
   14     4.3000  -2753.47776
   15     4.4000  -2753.47776
   16     4.5000  -2753.47776
   17     4.6000  -2753.47776
   18     4.7000  -2753.47776
   19     4.8000  -2753.47776
   20     4.9000  -2753.47776
   21     5.0000  -2753.47776
 ----  ---------  -----------
  
 Leave Link  108 at Fri May  8 16:06:54 2020, MaxMem= 1073741824 cpu:       0.0
 (Enter /home/matheus/.gaussian/g09/l9999.exe)

 Test job not archived.
 1\1\GINC-REDGIANT\Scan\RLC-wPBE\Aug-CC-pVTZ\H2Kr1O2\MATHEUS\08-May-202
 0\1\\#p lc-wpbe/aug-cc-PVTz iop(3/107=0550000000) iop(3/108=0550000000
 ) int=ultrafine counterpoise=2 Scan\\TCC\\0,1\O,0,0.,0.,0.725\O,0,0.,0
 .,-0.725\H,0,0.,-0.9187205947,1.0235104166\H,0,0.,0.9187205947,-1.0235
 104166\Kr,0,0.,R1,0.\\R1=3.,s,20,0.1\\Version=EM64L-G09RevC.01\State=1
 -A'\HF=-2753.4777599,-2753.4777599,-2753.4777599,-2753.4777599,-2753.4
 777599,-2753.4777599,-2753.4777599,-2753.4777599,-2753.4777599,-2753.4
 777599,-2753.4777599,-2753.4777599,-2753.4777599,-2753.4777599,-2753.4
 777599,-2753.4777599,-2753.4777599,-2753.4777599,-2753.4777599,-2753.4
 777599,-2753.4777599\RMSD=2.020e-09,5.512e-11,1.042e-11,4.544e-12,2.23
 6e-12,1.258e-12,6.940e-13,3.867e-13,2.178e-13,1.302e-13,7.307e-14,3.58
 4e-14,1.913e-14,1.503e-14,1.300e-14,1.323e-14,6.649e-15,7.857e-15,6.74
 9e-15,5.505e-15,1.307e-14\PG=CS [SG(H2Kr1O2)]\\@


 MICHAEL FARADAY, ASKED BY A POLITICIAN WHAT GOOD
 HIS ELECTRICAL DISCOVERIES WERE, REPLIED 
 "AT PRESENT I DO NOT KNOW, BUT ONE DAY YOU WILL BE
 ABLE TO TAX THEM."
 Job cpu time:  0 days  2 hours 44 minutes 41.4 seconds.
 File lengths (MBytes):  RWF=     33 Int=      0 D2E=      0 Chk=      8 Scr=      1
 Normal termination of Gaussian 09 at Fri May  8 16:06:54 2020.
