 Entering Gaussian System, Link 0=g09
 Input=/home/matheus/.tcc/Inputs-lc-wpbe/H2O2-Kr_23.com
 Output=/home/matheus/.tcc/Logs-lc-wpbe/H2O2-Kr_23.log
 Initial command:
 /home/matheus/.gaussian/g09/l1.exe /home/matheus/.gaussian/g09/scratch/Gau-19443.inp -scrdir=/home/matheus/.gaussian/g09/scratch/
 Entering Link 1 = /home/matheus/.gaussian/g09/l1.exe PID=     19446.
  
 Copyright (c) 1988,1990,1992,1993,1995,1998,2003,2009,2011,
            Gaussian, Inc.  All Rights Reserved.
  
 This is part of the Gaussian(R) 09 program.  It is based on
 the Gaussian(R) 03 system (copyright 2003, Gaussian, Inc.),
 the Gaussian(R) 98 system (copyright 1998, Gaussian, Inc.),
 the Gaussian(R) 94 system (copyright 1995, Gaussian, Inc.),
 the Gaussian 92(TM) system (copyright 1992, Gaussian, Inc.),
 the Gaussian 90(TM) system (copyright 1990, Gaussian, Inc.),
 the Gaussian 88(TM) system (copyright 1988, Gaussian, Inc.),
 the Gaussian 86(TM) system (copyright 1986, Carnegie Mellon
 University), and the Gaussian 82(TM) system (copyright 1983,
 Carnegie Mellon University). Gaussian is a federally registered
 trademark of Gaussian, Inc.
  
 This software contains proprietary and confidential information,
 including trade secrets, belonging to Gaussian, Inc.
  
 This software is provided under written license and may be
 used, copied, transmitted, or stored only in accord with that
 written license.
  
 The following legend is applicable only to US Government
 contracts under FAR:
  
                    RESTRICTED RIGHTS LEGEND
  
 Use, reproduction and disclosure by the US Government is
 subject to restrictions as set forth in subparagraphs (a)
 and (c) of the Commercial Computer Software - Restricted
 Rights clause in FAR 52.227-19.
  
 Gaussian, Inc.
 340 Quinnipiac St., Bldg. 40, Wallingford CT 06492
  
  
 ---------------------------------------------------------------
 Warning -- This program may not be used in any manner that
 competes with the business of Gaussian, Inc. or will provide
 assistance to any competitor of Gaussian, Inc.  The licensee
 of this program is prohibited from giving any competitor of
 Gaussian, Inc. access to this program.  By using this program,
 the user acknowledges that Gaussian, Inc. is engaged in the
 business of creating and licensing software in the field of
 computational chemistry and represents and warrants to the
 licensee that it is not a competitor of Gaussian, Inc. and that
 it will not use this program in any manner prohibited above.
 ---------------------------------------------------------------
  

 Cite this work as:
 Gaussian 09, Revision C.01,
 M. J. Frisch, G. W. Trucks, H. B. Schlegel, G. E. Scuseria, 
 M. A. Robb, J. R. Cheeseman, G. Scalmani, V. Barone, B. Mennucci, 
 G. A. Petersson, H. Nakatsuji, M. Caricato, X. Li, H. P. Hratchian, 
 A. F. Izmaylov, J. Bloino, G. Zheng, J. L. Sonnenberg, M. Hada, 
 M. Ehara, K. Toyota, R. Fukuda, J. Hasegawa, M. Ishida, T. Nakajima, 
 Y. Honda, O. Kitao, H. Nakai, T. Vreven, J. A. Montgomery, Jr., 
 J. E. Peralta, F. Ogliaro, M. Bearpark, J. J. Heyd, E. Brothers, 
 K. N. Kudin, V. N. Staroverov, T. Keith, R. Kobayashi, J. Normand, 
 K. Raghavachari, A. Rendell, J. C. Burant, S. S. Iyengar, J. Tomasi, 
 M. Cossi, N. Rega, J. M. Millam, M. Klene, J. E. Knox, J. B. Cross, 
 V. Bakken, C. Adamo, J. Jaramillo, R. Gomperts, R. E. Stratmann, 
 O. Yazyev, A. J. Austin, R. Cammi, C. Pomelli, J. W. Ochterski, 
 R. L. Martin, K. Morokuma, V. G. Zakrzewski, G. A. Voth, 
 P. Salvador, J. J. Dannenberg, S. Dapprich, A. D. Daniels, 
 O. Farkas, J. B. Foresman, J. V. Ortiz, J. Cioslowski, 
 and D. J. Fox, Gaussian, Inc., Wallingford CT, 2010.
 
 ******************************************
 Gaussian 09:  EM64L-G09RevC.01 23-Sep-2011
                 8-May-2020 
 ******************************************
 %mem=8GB
 %nproc=8
 Will use up to    8 processors via shared memory.
 ----------------------------------------------------------------------
 #p lc-wpbe/aug-cc-PVTz iop(3/107=0550000000) iop(3/108=0550000000) int
 =ultrafine counterpoise=2 Scan
 ----------------------------------------------------------------------
 1/38=1,60=1,62=2/1,8;
 2/12=2,17=6,18=5,29=3,40=1/2;
 1/38=1,53=5172,62=2/22;
 3/5=16,6=1,7=10,11=2,16=1,25=1,30=1,74=-41,75=-5,107=550000000,108=550000000/1,2,3;
 4//1;
 5/5=2,38=5/2;
 6/7=2,8=2,9=2,10=2,18=1,28=1/1;
 1/53=4052,62=2,63=1/22;
 3/5=7,6=11,7=10,11=2,16=1,25=1,30=1,74=-41,75=-5,82=7,107=550000000,108=550000000/1,2,3;
 4//1;
 5/5=2,38=5/2;
 6/7=2,8=2,9=2,10=2,18=1,28=1/1;
 1/53=3042,62=2,63=2/22;
 3/5=7,6=11,7=10,11=2,16=1,25=1,30=1,74=-41,75=-5,82=7,107=550000000,108=550000000/1,2,3;
 4//1;
 5/5=2,38=5/2;
 6/7=2,8=2,9=2,10=2,18=1,28=1/1;
 1/53=2032,62=2,63=3/22;
 3/5=7,6=11,7=10,11=2,16=1,25=1,30=1,74=-41,75=-5,82=7,107=550000000,108=550000000/1,2,3;
 4//1;
 5/5=2,38=5/2;
 6/7=2,8=2,9=2,10=2,18=1,28=1/1;
 1/53=1022,62=2,63=4/22;
 3/5=7,6=11,7=10,11=2,16=1,25=1,30=1,74=-41,75=-5,82=7,107=550000000,108=550000000/1,2,3;
 4//1;
 5/5=2,38=5/2;
 6/7=2,8=2,9=2,10=2,18=1,28=1/1;
 1/53=5014,62=2,63=5/22;
 1/60=1,62=2/8(1);
 99/9=1/99;
 2/29=3/2;
 1/53=5173,62=2/22;
 3/5=7,6=11,7=10,11=2,16=1,25=1,30=1,74=-41,75=-5,82=7,107=550000000,108=550000000/1,2,3;
 4/5=5,16=3/1;
 5/5=2,38=5/2;
 1/53=4053,62=2,63=1/22;
 3/5=7,6=11,7=10,11=2,16=1,25=1,30=1,74=-41,75=-5,82=7,107=550000000,108=550000000/1,2,3;
 4/5=5,16=3/1;
 5/5=2,38=5/2;
 1/53=3043,62=2,63=2/22;
 3/5=7,6=11,7=10,11=2,16=1,25=1,30=1,74=-41,75=-5,82=7,107=550000000,108=550000000/1,2,3;
 4/5=5,16=3/1;
 5/5=2,38=5/2;
 1/53=2033,62=2,63=3/22;
 3/5=7,6=11,7=10,11=2,16=1,25=1,30=1,74=-41,75=-5,82=7,107=550000000,108=550000000/1,2,3;
 4/5=5,16=3/1;
 5/5=2,38=5/2;
 1/53=1024,62=2,63=4/22;
 3/5=7,6=11,7=10,11=2,16=1,25=1,30=1,74=-41,75=-5,82=7,107=550000000,108=550000000/1,2,3;
 4/5=5,16=3/1;
 5/5=2,38=5/2;
 1/53=5014,62=2,63=5/22;
 1/60=1,62=2/8(-22);
 99/9=1/99;
 Leave Link    1 at Fri May  8 01:40:13 2020, MaxMem= 1073741824 cpu:       0.1
 (Enter /home/matheus/.gaussian/g09/l101.exe)
 ---
 TCC
 ---
 Charge =  0 Multiplicity = 1 in supermolecule
 Charge =  0 Multiplicity = 1 in fragment  1.
 Charge =  0 Multiplicity = 1 in fragment  2.
 Symbolic Z-Matrix:
 O(Fragment=1)         0.        0.        0.725 
 O(Fragment=1)         0.        0.       -0.725 
 H(Fragment=1)        -0.70378  -0.59054   1.02351 
 H(Fragment=1)         0.        0.91872  -1.02351 
 Kr(Fragment=2)        0.       R1        0. 
       Variables:
  R1                    3.     Scan 20    0.1    
 
 NAtoms=      5 NQM=        0 NQMF=       0 NMMI=      5 NMMIF=      0
                NMic=       0 NMicF=      0.
                    Isotopes and Nuclear Properties:
 (Nuclear quadrupole moments (NQMom) in fm**2, nuclear magnetic moments (NMagM)
  in nuclear magnetons)

  Atom         1           2           3           4           5
 IAtWgt=          16          16           1           1          84
 AtmWgt=  15.9949146  15.9949146   1.0078250   1.0078250  83.9115064
 NucSpn=           0           0           1           1           0
 AtZEff=   0.0000000   0.0000000   0.0000000   0.0000000   0.0000000
 NQMom=    0.0000000   0.0000000   0.0000000   0.0000000   0.0000000
 NMagM=    0.0000000   0.0000000   2.7928460   2.7928460   0.0000000
 Leave Link  101 at Fri May  8 01:40:13 2020, MaxMem= 1073741824 cpu:       0.3
 (Enter /home/matheus/.gaussian/g09/l108.exe)
 Scan the potential surface.
 Variable   Value     No. Steps Step-Size
 -------- ----------- --------- ---------
     1       3.000000      20      0.1000
 A total of     21 points will be computed.
 Leave Link  108 at Fri May  8 01:40:13 2020, MaxMem= 1073741824 cpu:       0.0
 (Enter /home/matheus/.gaussian/g09/l202.exe)
 ---------------------------------------------------------------------------------------------------
                            Z-MATRIX (ANGSTROMS AND DEGREES)
   CD    Cent   Atom    N1       Length/X        N2       Alpha/Y        N3        Beta/Z          J
 ---------------------------------------------------------------------------------------------------
      1      1  O        0   0.000000          0.000000          0.725000
      2      2  O        0   0.000000          0.000000         -0.725000
      3      3  H        0  -0.703781         -0.590542          1.023510
      4      4  H        0   0.000000          0.918721         -1.023510
      5      5  Kr       0   0.000000          3.000000          0.000000
 ---------------------------------------------------------------------------------------------------
                         Z-Matrix orientation:                         
 ---------------------------------------------------------------------
 Center     Atomic      Atomic             Coordinates (Angstroms)
 Number     Number       Type             X           Y           Z
 ---------------------------------------------------------------------
      1          8           0        0.000000    0.000000    0.725000
      2          8           0        0.000000    0.000000   -0.725000
      3          1           0       -0.703781   -0.590542    1.023510
      4          1           0        0.000000    0.918721   -1.023510
      5         36           0        0.000000    3.000000    0.000000
 ---------------------------------------------------------------------
                    Distance matrix (angstroms):
                    1          2          3          4          5
     1  O    0.000000
     2  O    1.450000   0.000000
     3  H    0.966000   1.975180   0.000000
     4  H    1.975180   0.966000   2.638840   0.000000
     5  Kr   3.086361   3.086361   3.799326   2.319331   0.000000
 Stoichiometry    H2KrO2
 Framework group  C1[X(H2KrO2)]
 Deg. of freedom     9
 Full point group                 C1      NOp   1
 Largest Abelian subgroup         C1      NOp   1
 Largest concise Abelian subgroup C1      NOp   1
                         Standard orientation:                         
 ---------------------------------------------------------------------
 Center     Atomic      Atomic             Coordinates (Angstroms)
 Number     Number       Type             X           Y           Z
 ---------------------------------------------------------------------
      1          8           0       -2.016888   -0.687971   -0.094863
      2          8           0       -1.993721    0.758416    0.004771
      3          1           0       -2.624080   -1.023798    0.577220
      4          1           0       -1.070483    1.040460    0.039958
      5         36           0        0.993873   -0.016117    0.002877
 ---------------------------------------------------------------------
 Rotational constants (GHZ):     26.0617959      2.3176349      2.1364645
 Leave Link  202 at Fri May  8 01:40:13 2020, MaxMem= 1073741824 cpu:       0.0
 (Enter /home/matheus/.gaussian/g09/l122.exe)
 Leave Link  122 at Fri May  8 01:40:13 2020, MaxMem= 1073741824 cpu:       0.0
 (Enter /home/matheus/.gaussian/g09/l301.exe)
 Standard basis: Aug-CC-pVTZ (5D, 7F)
 Ernie: Thresh=  0.10000D-02 Tol=  0.10000D-05 Strict=F.
 Ernie:  38 primitive shells out of 205 were deleted.
 There are   197 symmetry adapted basis functions of A   symmetry.
 Integral buffers will be    131072 words long.
 Raffenetti 2 integral format.
 Two-electron integral symmetry is turned on.
   197 basis functions,   415 primitive gaussians,   229 cartesian basis functions
    27 alpha electrons       27 beta electrons
       nuclear repulsion energy       148.5957046553 Hartrees.
 IExCor=32609 DFT=T Ex+Corr=LC-wPBE ExCW=0 ScaHFX=  1.000000
 ScaDFX=  1.000000  0.000000  1.000000  1.000000 ScalE2=  1.000000  1.000000
 IRadAn=      5 IRanWt=     -1 IRanGd=            0 ICorTp=0
  HFx wShort=  0.000000 wLong=  0.550000 cFull=  0.000000 cShort=  0.000000 cLong=  1.000000
  DFx wShort=  0.000000 wLong=  0.550000 cFull=  0.000000 cShort=  0.000000 cLong=  1.000000
 NAtoms=    5 NActive=    5 NUniq=    5 SFac= 1.00D+00 NAtFMM=   60 NAOKFM=F Big=F
 Leave Link  301 at Fri May  8 01:40:13 2020, MaxMem= 1073741824 cpu:       0.2
 (Enter /home/matheus/.gaussian/g09/l302.exe)
 NPDir=0 NMtPBC=     1 NCelOv=     1 NCel=       1 NClECP=     1 NCelD=      1
         NCelK=      1 NCelE2=     1 NClLst=     1 CellRange=     0.0.
 One-electron integrals computed using PRISM.
 NBasis=   197 RedAO= T  NBF=   197
 NBsUse=   197 1.00D-06 NBFU=   197
 Precomputing XC quadrature grid using
 IXCGrd= 2 IRadAn=           5 IRanWt=          -1 IRanGd=           0 AccXCQ= 0.00D+00.
 NRdTot=     427 NPtTot=      123512 NUsed=      126579 NTot=      126611
 NSgBfM=   229   229   229   229   229 NAtAll=     5     5.
 Leave Link  302 at Fri May  8 01:40:13 2020, MaxMem= 1073741824 cpu:       1.0
 (Enter /home/matheus/.gaussian/g09/l303.exe)
 DipDrv:  MaxL=1.
 Leave Link  303 at Fri May  8 01:40:13 2020, MaxMem= 1073741824 cpu:       0.2
 (Enter /home/matheus/.gaussian/g09/l401.exe)
 Harris functional with IExCor=32609 diagonalized for initial guess.
 ExpMin= 2.53D-02 ExpMax= 1.17D+07 ExpMxC= 1.33D+04 IAcc=3 IRadAn=         5 AccDes= 0.00D+00
 HarFok:  IExCor=32609 AccDes= 0.00D+00 IRadAn=         5 IDoV= 1
 ScaDFX=  1.000000  1.000000  1.000000  1.000000
 FoFCou: FMM=F IPFlag=           0 FMFlag=      100000 FMFlg1=           0
         NFxFlg=           0 DoJE=T BraDBF=F KetDBF=T FulRan=T
         Omega=  0.000000  0.000000  1.000000  0.000000  0.000000 ICntrl=     500 IOpCl=  0
         NMat0=    1 NMatS0=    1 NMatT0=    0 NMatD0=    1 NMtDS0=    0 NMtDT0=    0
         I1Cent=           4 NGrid=           0.
 Petite list used in FoFCou.
 Harris En= -2904.73877156039    
 Initial guess orbital symmetries:
       Occupied  (A) (A) (A) (A) (A) (A) (A) (A) (A) (A) (A) (A)
                 (A) (A) (A) (A) (A) (A) (A) (A) (A) (A) (A) (A)
                 (A) (A) (A)
       Virtual   (A) (A) (A) (A) (A) (A) (A) (A) (A) (A) (A) (A)
                 (A) (A) (A) (A) (A) (A) (A) (A) (A) (A) (A) (A)
                 (A) (A) (A) (A) (A) (A) (A) (A) (A) (A) (A) (A)
                 (A) (A) (A) (A) (A) (A) (A) (A) (A) (A) (A) (A)
                 (A) (A) (A) (A) (A) (A) (A) (A) (A) (A) (A) (A)
                 (A) (A) (A) (A) (A) (A) (A) (A) (A) (A) (A) (A)
                 (A) (A) (A) (A) (A) (A) (A) (A) (A) (A) (A) (A)
                 (A) (A) (A) (A) (A) (A) (A) (A) (A) (A) (A) (A)
                 (A) (A) (A) (A) (A) (A) (A) (A) (A) (A) (A) (A)
                 (A) (A) (A) (A) (A) (A) (A) (A) (A) (A) (A) (A)
                 (A) (A) (A) (A) (A) (A) (A) (A) (A) (A) (A) (A)
                 (A) (A) (A) (A) (A) (A) (A) (A) (A) (A) (A) (A)
                 (A) (A) (A) (A) (A) (A) (A) (A) (A) (A) (A) (A)
                 (A) (A) (A) (A) (A) (A) (A) (A) (A) (A) (A) (A)
                 (A) (A)
 The electronic state of the initial guess is 1-A.
 Leave Link  401 at Fri May  8 01:40:14 2020, MaxMem= 1073741824 cpu:       3.8
 (Enter /home/matheus/.gaussian/g09/l502.exe)
 Closed shell SCF:
 Requested convergence on RMS density matrix=1.00D-08 within 128 cycles.
 Requested convergence on MAX density matrix=1.00D-06.
 Requested convergence on             energy=1.00D-06.
 No special actions if energy rises.
 Using DIIS extrapolation, IDIIS=  1040.
 Integral symmetry usage will be decided dynamically.
       126521 words used for storage of precomputed grid.
 IEnd=      305468 IEndB=      305468 NGot=  1073741824 MDV=  1073505667
 LenX=  1073505667 LenY=  1073452785
 Fock matrices will be formed incrementally for  20 cycles.

 Cycle   1  Pass 1  IDiag  1:
 FoFJK:  IHMeth= 1 ICntrl=     0 DoSepK=T KAlg= 1 I1Cent= 0 FoldK=F
 FoFCou: FMM=F IPFlag=           0 FMFlag=      100000 FMFlg1=           0
         NFxFlg=           0 DoJE=T BraDBF=F KetDBF=F FulRan=T
         Omega=  0.000000  0.000000  1.000000  0.000000  0.000000 ICntrl=     500 IOpCl=  0
         NMat0=    1 NMatS0=    1 NMatT0=    0 NMatD0=    1 NMtDS0=    0 NMtDT0=    0
         I1Cent=           0 NGrid=           0.
 Symmetry not used in FoFCou.
 E= -2904.93354329138    
 DIIS: error= 2.88D-02 at cycle   1 NSaved=   1.
 NSaved= 1 IEnMin= 1 EnMin= -2904.93354329138     IErMin= 1 ErrMin= 2.88D-02
 ErrMax= 2.88D-02 EMaxC= 1.00D-01 BMatC= 2.66D-01 BMatP= 2.66D-01
 IDIUse=3 WtCom= 7.12D-01 WtEn= 2.88D-01
 Coeff-Com:  0.100D+01
 Coeff-En:   0.100D+01
 Coeff:      0.100D+01
 Gap=     0.552 Goal=   None    Shift=    0.000
 GapD=    0.552 DampG=2.000 DampE=0.500 DampFc=1.0000 IDamp=-1.
 RMSDP=2.23D-03 MaxDP=1.43D-01              OVMax= 6.08D-02

 Cycle   2  Pass 1  IDiag  1:
 RMSU=  1.55D-03    CP:  1.02D+00
 FoFJK:  IHMeth= 1 ICntrl=     0 DoSepK=T KAlg= 1 I1Cent= 0 FoldK=F
 E= -2904.98351099384     Delta-E=       -0.049967702463 Rises=F Damp=F
 DIIS: error= 1.14D-02 at cycle   2 NSaved=   2.
 NSaved= 2 IEnMin= 2 EnMin= -2904.98351099384     IErMin= 2 ErrMin= 1.14D-02
 ErrMax= 1.14D-02 EMaxC= 1.00D-01 BMatC= 6.65D-02 BMatP= 2.66D-01
 IDIUse=3 WtCom= 8.86D-01 WtEn= 1.14D-01
 Coeff-Com:  0.326D+00 0.674D+00
 Coeff-En:   0.825D-01 0.917D+00
 Coeff:      0.298D+00 0.702D+00
 Gap=     0.480 Goal=   None    Shift=    0.000
 RMSDP=8.75D-04 MaxDP=5.01D-02 DE=-5.00D-02 OVMax= 2.52D-02

 Cycle   3  Pass 1  IDiag  1:
 RMSU=  3.12D-04    CP:  1.01D+00  6.66D-01
 FoFJK:  IHMeth= 1 ICntrl=     0 DoSepK=T KAlg= 1 I1Cent= 0 FoldK=F
 E= -2905.00583549626     Delta-E=       -0.022324502414 Rises=F Damp=F
 DIIS: error= 1.60D-03 at cycle   3 NSaved=   3.
 NSaved= 3 IEnMin= 3 EnMin= -2905.00583549626     IErMin= 3 ErrMin= 1.60D-03
 ErrMax= 1.60D-03 EMaxC= 1.00D-01 BMatC= 1.34D-03 BMatP= 6.65D-02
 IDIUse=3 WtCom= 9.84D-01 WtEn= 1.60D-02
 Coeff-Com:  0.373D-01 0.166D+00 0.797D+00
 Coeff-En:   0.000D+00 0.000D+00 0.100D+01
 Coeff:      0.367D-01 0.163D+00 0.800D+00
 Gap=     0.464 Goal=   None    Shift=    0.000
 RMSDP=9.80D-05 MaxDP=3.14D-03 DE=-2.23D-02 OVMax= 5.76D-03

 Cycle   4  Pass 1  IDiag  1:
 RMSU=  4.79D-05    CP:  1.01D+00  6.97D-01  9.59D-01
 FoFJK:  IHMeth= 1 ICntrl=     0 DoSepK=T KAlg= 1 I1Cent= 0 FoldK=F
 E= -2905.00649087944     Delta-E=       -0.000655383187 Rises=F Damp=F
 DIIS: error= 4.50D-04 at cycle   4 NSaved=   4.
 NSaved= 4 IEnMin= 4 EnMin= -2905.00649087944     IErMin= 4 ErrMin= 4.50D-04
 ErrMax= 4.50D-04 EMaxC= 1.00D-01 BMatC= 7.84D-05 BMatP= 1.34D-03
 IDIUse=3 WtCom= 9.95D-01 WtEn= 4.50D-03
 Coeff-Com: -0.576D-02 0.195D-01 0.269D+00 0.718D+00
 Coeff-En:   0.000D+00 0.000D+00 0.000D+00 0.100D+01
 Coeff:     -0.574D-02 0.194D-01 0.268D+00 0.719D+00
 Gap=     0.468 Goal=   None    Shift=    0.000
 RMSDP=2.96D-05 MaxDP=1.83D-03 DE=-6.55D-04 OVMax= 1.70D-03

 Cycle   5  Pass 1  IDiag  1:
 RMSU=  1.28D-05    CP:  1.01D+00  7.00D-01  1.01D+00  8.73D-01
 FoFJK:  IHMeth= 1 ICntrl=     0 DoSepK=T KAlg= 1 I1Cent= 0 FoldK=F
 E= -2905.00653863773     Delta-E=       -0.000047758291 Rises=F Damp=F
 DIIS: error= 8.40D-05 at cycle   5 NSaved=   5.
 NSaved= 5 IEnMin= 5 EnMin= -2905.00653863773     IErMin= 5 ErrMin= 8.40D-05
 ErrMax= 8.40D-05 EMaxC= 1.00D-01 BMatC= 2.47D-06 BMatP= 7.84D-05
 IDIUse=1 WtCom= 1.00D+00 WtEn= 0.00D+00
 Coeff-Com: -0.237D-02-0.499D-02 0.424D-03 0.119D+00 0.888D+00
 Coeff:     -0.237D-02-0.499D-02 0.424D-03 0.119D+00 0.888D+00
 Gap=     0.468 Goal=   None    Shift=    0.000
 RMSDP=7.13D-06 MaxDP=2.06D-04 DE=-4.78D-05 OVMax= 4.85D-04

 Cycle   6  Pass 1  IDiag  1:
 RMSU=  3.64D-06    CP:  1.01D+00  7.00D-01  1.01D+00  9.34D-01  1.10D+00
 FoFJK:  IHMeth= 1 ICntrl=     0 DoSepK=T KAlg= 1 I1Cent= 0 FoldK=F
 E= -2905.00654081600     Delta-E=       -0.000002178263 Rises=F Damp=F
 DIIS: error= 4.82D-05 at cycle   6 NSaved=   6.
 NSaved= 6 IEnMin= 6 EnMin= -2905.00654081600     IErMin= 6 ErrMin= 4.82D-05
 ErrMax= 4.82D-05 EMaxC= 1.00D-01 BMatC= 7.61D-07 BMatP= 2.47D-06
 IDIUse=1 WtCom= 1.00D+00 WtEn= 0.00D+00
 Coeff-Com: -0.396D-03-0.437D-02-0.295D-01-0.238D-01 0.380D+00 0.678D+00
 Coeff:     -0.396D-03-0.437D-02-0.295D-01-0.238D-01 0.380D+00 0.678D+00
 Gap=     0.468 Goal=   None    Shift=    0.000
 RMSDP=3.10D-06 MaxDP=1.47D-04 DE=-2.18D-06 OVMax= 2.14D-04

 Cycle   7  Pass 1  IDiag  1:
 RMSU=  1.48D-06    CP:  1.01D+00  7.00D-01  1.01D+00  9.51D-01  1.19D+00
                    CP:  8.86D-01
 FoFJK:  IHMeth= 1 ICntrl=     0 DoSepK=T KAlg= 1 I1Cent= 0 FoldK=F
 E= -2905.00654134711     Delta-E=       -0.000000531109 Rises=F Damp=F
 DIIS: error= 1.55D-05 at cycle   7 NSaved=   7.
 NSaved= 7 IEnMin= 7 EnMin= -2905.00654134711     IErMin= 7 ErrMin= 1.55D-05
 ErrMax= 1.55D-05 EMaxC= 1.00D-01 BMatC= 6.56D-08 BMatP= 7.61D-07
 IDIUse=1 WtCom= 1.00D+00 WtEn= 0.00D+00
 Coeff-Com:  0.129D-03-0.811D-03-0.919D-02-0.215D-01-0.381D-02 0.225D+00
 Coeff-Com:  0.810D+00
 Coeff:      0.129D-03-0.811D-03-0.919D-02-0.215D-01-0.381D-02 0.225D+00
 Coeff:      0.810D+00
 Gap=     0.468 Goal=   None    Shift=    0.000
 RMSDP=1.22D-06 MaxDP=5.37D-05 DE=-5.31D-07 OVMax= 9.57D-05

 Cycle   8  Pass 1  IDiag  1:
 RMSU=  4.58D-07    CP:  1.01D+00  7.00D-01  1.01D+00  9.56D-01  1.22D+00
                    CP:  1.01D+00  9.71D-01
 FoFJK:  IHMeth= 1 ICntrl=     0 DoSepK=T KAlg= 1 I1Cent= 0 FoldK=F
 E= -2905.00654143090     Delta-E=       -0.000000083792 Rises=F Damp=F
 DIIS: error= 2.77D-06 at cycle   8 NSaved=   8.
 NSaved= 8 IEnMin= 8 EnMin= -2905.00654143090     IErMin= 8 ErrMin= 2.77D-06
 ErrMax= 2.77D-06 EMaxC= 1.00D-01 BMatC= 2.20D-09 BMatP= 6.56D-08
 IDIUse=1 WtCom= 1.00D+00 WtEn= 0.00D+00
 Coeff-Com:  0.172D-04 0.493D-03 0.382D-02 0.552D-02-0.266D-01-0.973D-01
 Coeff-Com: -0.163D+00 0.128D+01
 Coeff:      0.172D-04 0.493D-03 0.382D-02 0.552D-02-0.266D-01-0.973D-01
 Coeff:     -0.163D+00 0.128D+01
 Gap=     0.468 Goal=   None    Shift=    0.000
 RMSDP=5.22D-07 MaxDP=1.63D-05 DE=-8.38D-08 OVMax= 4.99D-05

 Cycle   9  Pass 1  IDiag  1:
 RMSU=  1.20D-07    CP:  1.01D+00  7.00D-01  1.01D+00  9.58D-01  1.23D+00
                    CP:  1.03D+00  1.04D+00  1.55D+00
 FoFJK:  IHMeth= 1 ICntrl=     0 DoSepK=T KAlg= 1 I1Cent= 0 FoldK=F
 E= -2905.00654143821     Delta-E=       -0.000000007311 Rises=F Damp=F
 DIIS: error= 6.64D-07 at cycle   9 NSaved=   9.
 NSaved= 9 IEnMin= 9 EnMin= -2905.00654143821     IErMin= 9 ErrMin= 6.64D-07
 ErrMax= 6.64D-07 EMaxC= 1.00D-01 BMatC= 9.12D-11 BMatP= 2.20D-09
 IDIUse=1 WtCom= 1.00D+00 WtEn= 0.00D+00
 Coeff-Com: -0.853D-05-0.379D-04-0.178D-03 0.834D-04 0.431D-02 0.368D-02
 Coeff-Com: -0.126D-01-0.170D+00 0.117D+01
 Coeff:     -0.853D-05-0.379D-04-0.178D-03 0.834D-04 0.431D-02 0.368D-02
 Coeff:     -0.126D-01-0.170D+00 0.117D+01
 Gap=     0.468 Goal=   None    Shift=    0.000
 RMSDP=1.40D-07 MaxDP=6.81D-06 DE=-7.31D-09 OVMax= 1.34D-05

 Cycle  10  Pass 1  IDiag  1:
 RMSU=  3.62D-08    CP:  1.01D+00  7.00D-01  1.01D+00  9.59D-01  1.23D+00
                    CP:  1.03D+00  1.04D+00  1.67D+00  1.39D+00
 FoFJK:  IHMeth= 1 ICntrl=     0 DoSepK=T KAlg= 1 I1Cent= 0 FoldK=F
 E= -2905.00654143861     Delta-E=       -0.000000000401 Rises=F Damp=F
 DIIS: error= 2.86D-07 at cycle  10 NSaved=  10.
 NSaved=10 IEnMin=10 EnMin= -2905.00654143861     IErMin=10 ErrMin= 2.86D-07
 ErrMax= 2.86D-07 EMaxC= 1.00D-01 BMatC= 1.38D-11 BMatP= 9.12D-11
 IDIUse=1 WtCom= 1.00D+00 WtEn= 0.00D+00
 Coeff-Com:  0.165D-06-0.281D-04-0.234D-03-0.462D-03 0.136D-02 0.669D-02
 Coeff-Com:  0.138D-01-0.755D-01-0.173D+00 0.123D+01
 Coeff:      0.165D-06-0.281D-04-0.234D-03-0.462D-03 0.136D-02 0.669D-02
 Coeff:      0.138D-01-0.755D-01-0.173D+00 0.123D+01
 Gap=     0.468 Goal=   None    Shift=    0.000
 RMSDP=5.41D-08 MaxDP=2.01D-06 DE=-4.01D-10 OVMax= 6.92D-06

 Cycle  11  Pass 1  IDiag  1:
 RMSU=  1.16D-08    CP:  1.01D+00  7.00D-01  1.01D+00  9.59D-01  1.23D+00
                    CP:  1.03D+00  1.04D+00  1.71D+00  1.55D+00  1.58D+00
 FoFJK:  IHMeth= 1 ICntrl=     0 DoSepK=T KAlg= 1 I1Cent= 0 FoldK=F
 E= -2905.00654143867     Delta-E=       -0.000000000061 Rises=F Damp=F
 DIIS: error= 1.23D-07 at cycle  11 NSaved=  11.
 NSaved=11 IEnMin=11 EnMin= -2905.00654143867     IErMin=11 ErrMin= 1.23D-07
 ErrMax= 1.23D-07 EMaxC= 1.00D-01 BMatC= 2.10D-12 BMatP= 1.38D-11
 IDIUse=1 WtCom= 1.00D+00 WtEn= 0.00D+00
 Coeff-Com:  0.114D-05 0.111D-04 0.770D-04 0.762D-04-0.969D-03-0.180D-02
 Coeff-Com: -0.260D-03 0.400D-01-0.140D+00-0.241D+00 0.134D+01
 Coeff:      0.114D-05 0.111D-04 0.770D-04 0.762D-04-0.969D-03-0.180D-02
 Coeff:     -0.260D-03 0.400D-01-0.140D+00-0.241D+00 0.134D+01
 Gap=     0.468 Goal=   None    Shift=    0.000
 RMSDP=2.38D-08 MaxDP=5.26D-07 DE=-6.09D-11 OVMax= 3.62D-06

 Cycle  12  Pass 1  IDiag  1:
 RMSU=  4.12D-09    CP:  1.01D+00  7.00D-01  1.01D+00  9.59D-01  1.23D+00
                    CP:  1.03D+00  1.04D+00  1.72D+00  1.60D+00  1.92D+00
                    CP:  1.64D+00
 FoFJK:  IHMeth= 1 ICntrl=     0 DoSepK=T KAlg= 1 I1Cent= 0 FoldK=F
 E= -2905.00654143867     Delta-E=        0.000000000002 Rises=F Damp=F
 DIIS: error= 2.38D-08 at cycle  12 NSaved=  12.
 NSaved=12 IEnMin=11 EnMin= -2905.00654143867     IErMin=12 ErrMin= 2.38D-08
 ErrMax= 2.38D-08 EMaxC= 1.00D-01 BMatC= 2.06D-13 BMatP= 2.10D-12
 IDIUse=1 WtCom= 1.00D+00 WtEn= 0.00D+00
 Coeff-Com: -0.639D-07 0.411D-05 0.347D-04 0.753D-04-0.232D-03-0.104D-02
 Coeff-Com: -0.193D-02 0.121D-01 0.223D-01-0.165D+00 0.865D-02 0.113D+01
 Coeff:     -0.639D-07 0.411D-05 0.347D-04 0.753D-04-0.232D-03-0.104D-02
 Coeff:     -0.193D-02 0.121D-01 0.223D-01-0.165D+00 0.865D-02 0.113D+01
 Gap=     0.468 Goal=   None    Shift=    0.000
 RMSDP=6.68D-09 MaxDP=1.47D-07 DE= 1.82D-12 OVMax= 1.00D-06

 SCF Done:  E(RLC-wPBE) =  -2905.00654144     A.U. after   12 cycles
             Convg  =    0.6680D-08             -V/T =  2.0017
 KE= 2.900029241103D+03 PE=-7.234263523683D+03 EE= 1.280632036487D+03
 Leave Link  502 at Fri May  8 01:40:49 2020, MaxMem= 1073741824 cpu:     283.6
 (Enter /home/matheus/.gaussian/g09/l601.exe)
 Copying SCF densities to generalized density rwf, IOpCl= 0 IROHF=0.

 **********************************************************************

            Population analysis using the SCF density.

 **********************************************************************

 Orbital symmetries:
       Occupied  (A) (A) (A) (A) (A) (A) (A) (A) (A) (A) (A) (A)
                 (A) (A) (A) (A) (A) (A) (A) (A) (A) (A) (A) (A)
                 (A) (A) (A)
       Virtual   (A) (A) (A) (A) (A) (A) (A) (A) (A) (A) (A) (A)
                 (A) (A) (A) (A) (A) (A) (A) (A) (A) (A) (A) (A)
                 (A) (A) (A) (A) (A) (A) (A) (A) (A) (A) (A) (A)
                 (A) (A) (A) (A) (A) (A) (A) (A) (A) (A) (A) (A)
                 (A) (A) (A) (A) (A) (A) (A) (A) (A) (A) (A) (A)
                 (A) (A) (A) (A) (A) (A) (A) (A) (A) (A) (A) (A)
                 (A) (A) (A) (A) (A) (A) (A) (A) (A) (A) (A) (A)
                 (A) (A) (A) (A) (A) (A) (A) (A) (A) (A) (A) (A)
                 (A) (A) (A) (A) (A) (A) (A) (A) (A) (A) (A) (A)
                 (A) (A) (A) (A) (A) (A) (A) (A) (A) (A) (A) (A)
                 (A) (A) (A) (A) (A) (A) (A) (A) (A) (A) (A) (A)
                 (A) (A) (A) (A) (A) (A) (A) (A) (A) (A) (A) (A)
                 (A) (A) (A) (A) (A) (A) (A) (A) (A) (A) (A) (A)
                 (A) (A) (A) (A) (A) (A) (A) (A) (A) (A) (A) (A)
                 (A) (A)
 The electronic state is 1-A.
 Alpha  occ. eigenvalues -- -511.19551 -66.74389 -60.40510 -60.40491 -60.40482
 Alpha  occ. eigenvalues --  -19.11185 -19.10834  -9.67960  -7.42256  -7.42201
 Alpha  occ. eigenvalues --   -7.42174  -3.36655  -3.36645  -3.36626  -3.36585
 Alpha  occ. eigenvalues --   -3.36583  -1.31986  -1.10314  -1.09259  -0.70734
 Alpha  occ. eigenvalues --   -0.66641  -0.58335  -0.54161  -0.53649  -0.52970
 Alpha  occ. eigenvalues --   -0.48782  -0.43491
 Alpha virt. eigenvalues --    0.03332   0.04260   0.08511   0.10010   0.11174
 Alpha virt. eigenvalues --    0.11409   0.13915   0.14629   0.16894   0.17918
 Alpha virt. eigenvalues --    0.18914   0.20648   0.20881   0.22929   0.24592
 Alpha virt. eigenvalues --    0.25324   0.27092   0.29617   0.32561   0.34407
 Alpha virt. eigenvalues --    0.34866   0.35194   0.36792   0.39995   0.40770
 Alpha virt. eigenvalues --    0.42356   0.43371   0.49155   0.54169   0.57177
 Alpha virt. eigenvalues --    0.58117   0.60638   0.64030   0.68446   0.69341
 Alpha virt. eigenvalues --    0.72720   0.73539   0.74147   0.76078   0.77853
 Alpha virt. eigenvalues --    0.78249   0.80339   0.80540   0.82621   0.83984
 Alpha virt. eigenvalues --    0.87177   0.87627   0.89671   0.91780   0.93076
 Alpha virt. eigenvalues --    0.94905   0.96061   0.98422   0.98721   1.01711
 Alpha virt. eigenvalues --    1.04212   1.04947   1.07553   1.10045   1.11737
 Alpha virt. eigenvalues --    1.12656   1.16491   1.18052   1.20518   1.25138
 Alpha virt. eigenvalues --    1.27681   1.35205   1.35270   1.40886   1.44030
 Alpha virt. eigenvalues --    1.44945   1.52563   1.55923   1.57453   1.62578
 Alpha virt. eigenvalues --    1.67554   1.77659   1.86489   1.88565   1.97253
 Alpha virt. eigenvalues --    2.01212   2.04293   2.12230   2.16627   2.18486
 Alpha virt. eigenvalues --    2.19360   2.22277   2.24604   2.25852   2.28603
 Alpha virt. eigenvalues --    2.29511   2.34714   2.35547   2.36390   2.39710
 Alpha virt. eigenvalues --    2.40873   2.43387   2.47827   2.50201   2.53588
 Alpha virt. eigenvalues --    2.53843   2.54829   2.57614   2.60326   2.62493
 Alpha virt. eigenvalues --    2.64258   2.66500   2.68858   2.70205   2.75228
 Alpha virt. eigenvalues --    2.77400   2.79648   2.85748   2.90244   2.91273
 Alpha virt. eigenvalues --    2.95585   3.08802   3.14392   3.18195   3.67080
 Alpha virt. eigenvalues --    3.71138   3.91294   4.02473   4.06100   4.08890
 Alpha virt. eigenvalues --    4.13362   4.19053   4.25152   4.29326   4.31848
 Alpha virt. eigenvalues --    4.49059   4.53229   4.55774   4.57897   4.74627
 Alpha virt. eigenvalues --    4.94194   5.02855   5.10756   5.15082   5.15253
 Alpha virt. eigenvalues --    5.28725   5.47187   5.88012   6.10443   6.13151
 Alpha virt. eigenvalues --    6.16061   6.36154   6.40241   6.45761   6.57851
 Alpha virt. eigenvalues --    6.67295   6.79678   6.81710   6.86239   6.89208
 Alpha virt. eigenvalues --    6.90594   6.93453   6.94462   7.01093   7.06722
 Alpha virt. eigenvalues --    7.08070   7.23697   7.30054   7.45167   7.80655
 Alpha virt. eigenvalues --    7.81594   8.10047   8.15373  13.93680  14.61707
          Condensed to atoms (all electrons):
              1          2          3          4          5
     1  O    8.190625  -0.190085   0.223517  -0.001278  -0.030223
     2  O   -0.190085   8.229701   0.009269   0.211324  -0.008616
     3  H    0.223517   0.009269   0.555460   0.002866   0.003564
     4  H   -0.001278   0.211324   0.002866   0.565267  -0.014674
     5  Kr  -0.030223  -0.008616   0.003564  -0.014674  36.047622
 Mulliken atomic charges:
              1
     1  O   -0.192555
     2  O   -0.251592
     3  H    0.205324
     4  H    0.236496
     5  Kr   0.002327
 Sum of Mulliken atomic charges =   0.00000
 Mulliken charges with hydrogens summed into heavy atoms:
              1
     1  O    0.012769
     2  O   -0.015096
     5  Kr   0.002327
 Sum of Mulliken charges with hydrogens summed into heavy atoms =   0.00000
          Condensed to fragments (all electrons):
     1      -0.002327
     2       0.002327
 Electronic spatial extent (au):  <R**2>=            489.2035
 Charge=              0.0000 electrons
 Dipole moment (field-independent basis, Debye):
    X=              0.7293    Y=             -0.3703    Z=              1.2267  Tot=              1.4744
 Quadrupole moment (field-independent basis, Debye-Ang):
   XX=            -29.5209   YY=            -27.9815   ZZ=            -29.5391
   XY=              3.5369   XZ=             -3.4936   YZ=             -1.3751
 Traceless Quadrupole moment (field-independent basis, Debye-Ang):
   XX=             -0.5071   YY=              1.0323   ZZ=             -0.5252
   XY=              3.5369   XZ=             -3.4936   YZ=             -1.3751
 Octapole moment (field-independent basis, Debye-Ang**2):
  XXX=             14.7544  YYY=             -0.9242  ZZZ=              0.8094  XYY=              4.3176
  XXY=            -13.5985  XXZ=              9.4608  XZZ=              6.2660  YZZ=             -1.2100
  YYZ=              1.6898  XYZ=              3.8372
 Hexadecapole moment (field-independent basis, Debye-Ang**3):
 XXXX=           -392.5857 YYYY=            -62.8075 ZZZZ=            -29.2237 XXXY=             38.6299
 XXXZ=            -26.4637 YYYX=              5.7274 YYYZ=             -1.8587 ZZZX=             -2.4784
 ZZZY=             -1.1607 XXYY=            -75.9036 XXZZ=            -73.0687 YYZZ=            -16.3914
 XXYZ=            -10.5636 YYXZ=             -4.4638 ZZXY=              2.7182
 N-N= 1.485957046553D+02 E-N=-7.234263522931D+03  KE= 2.900029241103D+03
 No NMR shielding tensors so no spin-rotation constants.
 Leave Link  601 at Fri May  8 01:40:49 2020, MaxMem= 1073741824 cpu:       0.8
 (Enter /home/matheus/.gaussian/g09/l122.exe)
 Counterpoise: doing DCBS calculation for fragment   1 NewBq=T
 Leave Link  122 at Fri May  8 01:40:50 2020, MaxMem= 1073741824 cpu:       0.0
 (Enter /home/matheus/.gaussian/g09/l301.exe)
 Basis read from rwf:  (5D, 7F)
 No pseudopotential information found on rwf file.
 There are   197 symmetry adapted basis functions of A   symmetry.
 Integral buffers will be    131072 words long.
 Raffenetti 2 integral format.
 Two-electron integral symmetry is turned on.
   197 basis functions,   415 primitive gaussians,   229 cartesian basis functions
     9 alpha electrons        9 beta electrons
       nuclear repulsion energy        36.6087755249 Hartrees.
 IExCor=32609 DFT=T Ex+Corr=LC-wPBE ExCW=0 ScaHFX=  1.000000
 ScaDFX=  1.000000  0.000000  1.000000  1.000000 ScalE2=  1.000000  1.000000
 IRadAn=      5 IRanWt=     -1 IRanGd=            0 ICorTp=0
  HFx wShort=  0.000000 wLong=  0.550000 cFull=  0.000000 cShort=  0.000000 cLong=  1.000000
  DFx wShort=  0.000000 wLong=  0.550000 cFull=  0.000000 cShort=  0.000000 cLong=  1.000000
 NAtoms=    5 NActive=    5 NUniq=    5 SFac= 1.00D+00 NAtFMM=   60 NAOKFM=F Big=F
 No density basis found on file   718.
 Leave Link  301 at Fri May  8 01:40:50 2020, MaxMem= 1073741824 cpu:       0.2
 (Enter /home/matheus/.gaussian/g09/l302.exe)
 NPDir=0 NMtPBC=     1 NCelOv=     1 NCel=       1 NClECP=     1 NCelD=      1
         NCelK=      1 NCelE2=     1 NClLst=     1 CellRange=     0.0.
 One-electron integrals computed using PRISM.
 NBasis=   197 RedAO= T  NBF=   197
 NBsUse=   197 1.00D-06 NBFU=   197
 Precomputing XC quadrature grid using
 IXCGrd= 2 IRadAn=           5 IRanWt=          -1 IRanGd=           0 AccXCQ= 0.00D+00.
 NRdTot=     427 NPtTot=      123512 NUsed=      126579 NTot=      126611
 NSgBfM=   229   229   229   229   229 NAtAll=     5     5.
 Leave Link  302 at Fri May  8 01:40:50 2020, MaxMem= 1073741824 cpu:       1.0
 (Enter /home/matheus/.gaussian/g09/l303.exe)
 DipDrv:  MaxL=1.
 Leave Link  303 at Fri May  8 01:40:50 2020, MaxMem= 1073741824 cpu:       0.2
 (Enter /home/matheus/.gaussian/g09/l401.exe)
 Harris functional with IExCor=32609 diagonalized for initial guess.
 ExpMin= 2.53D-02 ExpMax= 1.17D+07 ExpMxC= 1.33D+04 IAcc=3 IRadAn=         5 AccDes= 0.00D+00
 HarFok:  IExCor=32609 AccDes= 0.00D+00 IRadAn=         5 IDoV= 1
 ScaDFX=  1.000000  1.000000  1.000000  1.000000
 FoFCou: FMM=F IPFlag=           0 FMFlag=      100000 FMFlg1=           0
         NFxFlg=           0 DoJE=T BraDBF=F KetDBF=T FulRan=T
         Omega=  0.000000  0.000000  1.000000  0.000000  0.000000 ICntrl=     500 IOpCl=  0
         NMat0=    1 NMatS0=    1 NMatT0=    0 NMatD0=    1 NMtDS0=    0 NMtDT0=    0
         I1Cent=           4 NGrid=           0.
 Petite list used in FoFCou.
 Harris En= -151.501464407380    
 Initial guess orbital symmetries:
       Occupied  (A) (A) (A) (A) (A) (A) (A) (A) (A)
       Virtual   (A) (A) (A) (A) (A) (A) (A) (A) (A) (A) (A) (A)
                 (A) (A) (A) (A) (A) (A) (A) (A) (A) (A) (A) (A)
                 (A) (A) (A) (A) (A) (A) (A) (A) (A) (A) (A) (A)
                 (A) (A) (A) (A) (A) (A) (A) (A) (A) (A) (A) (A)
                 (A) (A) (A) (A) (A) (A) (A) (A) (A) (A) (A) (A)
                 (A) (A) (A) (A) (A) (A) (A) (A) (A) (A) (A) (A)
                 (A) (A) (A) (A) (A) (A) (A) (A) (A) (A) (A) (A)
                 (A) (A) (A) (A) (A) (A) (A) (A) (A) (A) (A) (A)
                 (A) (A) (A) (A) (A) (A) (A) (A) (A) (A) (A) (A)
                 (A) (A) (A) (A) (A) (A) (A) (A) (A) (A) (A) (A)
                 (A) (A) (A) (A) (A) (A) (A) (A) (A) (A) (A) (A)
                 (A) (A) (A) (A) (A) (A) (A) (A) (A) (A) (A) (A)
                 (A) (A) (A) (A) (A) (A) (A) (A) (A) (A) (A) (A)
                 (A) (A) (A) (A) (A) (A) (A) (A) (A) (A) (A) (A)
                 (A) (A) (A) (A) (A) (A) (A) (A) (A) (A) (A) (A)
                 (A) (A) (A) (A) (A) (A) (A) (A)
 The electronic state of the initial guess is 1-A.
 Leave Link  401 at Fri May  8 01:40:50 2020, MaxMem= 1073741824 cpu:       3.8
 (Enter /home/matheus/.gaussian/g09/l502.exe)
 Closed shell SCF:
 Requested convergence on RMS density matrix=1.00D-08 within 128 cycles.
 Requested convergence on MAX density matrix=1.00D-06.
 Requested convergence on             energy=1.00D-06.
 No special actions if energy rises.
 Using DIIS extrapolation, IDIIS=  1040.
 Integral symmetry usage will be decided dynamically.
       126521 words used for storage of precomputed grid.
 IEnd=      305468 IEndB=      305468 NGot=  1073741824 MDV=  1073505667
 LenX=  1073505667 LenY=  1073452785
 Fock matrices will be formed incrementally for  20 cycles.

 Cycle   1  Pass 1  IDiag  1:
 FoFJK:  IHMeth= 1 ICntrl=     0 DoSepK=T KAlg= 1 I1Cent= 0 FoldK=F
 FoFCou: FMM=F IPFlag=           0 FMFlag=      100000 FMFlg1=           0
         NFxFlg=           0 DoJE=T BraDBF=F KetDBF=F FulRan=T
         Omega=  0.000000  0.000000  1.000000  0.000000  0.000000 ICntrl=     500 IOpCl=  0
         NMat0=    1 NMatS0=    1 NMatT0=    0 NMatD0=    1 NMtDS0=    0 NMtDT0=    0
         I1Cent=           0 NGrid=           0.
 Symmetry not used in FoFCou.
 E= -151.508327675420    
 DIIS: error= 1.22D-02 at cycle   1 NSaved=   1.
 NSaved= 1 IEnMin= 1 EnMin= -151.508327675420     IErMin= 1 ErrMin= 1.22D-02
 ErrMax= 1.22D-02 EMaxC= 1.00D-01 BMatC= 4.01D-02 BMatP= 4.01D-02
 IDIUse=3 WtCom= 8.78D-01 WtEn= 1.22D-01
 Coeff-Com:  0.100D+01
 Coeff-En:   0.100D+01
 Coeff:      0.100D+01
 Gap=     0.553 Goal=   None    Shift=    0.000
 GapD=    0.553 DampG=2.000 DampE=0.500 DampFc=1.0000 IDamp=-1.
 RMSDP=7.29D-04 MaxDP=2.36D-02              OVMax= 5.03D-02

 Cycle   2  Pass 1  IDiag  1:
 RMSU=  5.08D-04    CP:  9.88D-01
 FoFJK:  IHMeth= 1 ICntrl=     0 DoSepK=T KAlg= 1 I1Cent= 0 FoldK=F
 E= -151.524404862861     Delta-E=       -0.016077187440 Rises=F Damp=F
 DIIS: error= 7.04D-03 at cycle   2 NSaved=   2.
 NSaved= 2 IEnMin= 2 EnMin= -151.524404862861     IErMin= 2 ErrMin= 7.04D-03
 ErrMax= 7.04D-03 EMaxC= 1.00D-01 BMatC= 1.53D-02 BMatP= 4.01D-02
 IDIUse=3 WtCom= 9.30D-01 WtEn= 7.04D-02
 Coeff-Com:  0.368D+00 0.632D+00
 Coeff-En:   0.109D+00 0.891D+00
 Coeff:      0.350D+00 0.650D+00
 Gap=     0.472 Goal=   None    Shift=    0.000
 RMSDP=3.93D-04 MaxDP=2.23D-02 DE=-1.61D-02 OVMax= 2.17D-02

 Cycle   3  Pass 1  IDiag  1:
 RMSU=  2.40D-04    CP:  9.84D-01  7.31D-01
 FoFJK:  IHMeth= 1 ICntrl=     0 DoSepK=T KAlg= 1 I1Cent= 0 FoldK=F
 E= -151.532950240757     Delta-E=       -0.008545377896 Rises=F Damp=F
 DIIS: error= 1.18D-03 at cycle   3 NSaved=   3.
 NSaved= 3 IEnMin= 3 EnMin= -151.532950240757     IErMin= 3 ErrMin= 1.18D-03
 ErrMax= 1.18D-03 EMaxC= 1.00D-01 BMatC= 3.64D-04 BMatP= 1.53D-02
 IDIUse=3 WtCom= 9.88D-01 WtEn= 1.18D-02
 Coeff-Com:  0.389D-01 0.153D+00 0.808D+00
 Coeff-En:   0.000D+00 0.000D+00 0.100D+01
 Coeff:      0.385D-01 0.151D+00 0.811D+00
 Gap=     0.464 Goal=   None    Shift=    0.000
 RMSDP=5.68D-05 MaxDP=2.37D-03 DE=-8.55D-03 OVMax= 3.98D-03

 Cycle   4  Pass 1  IDiag  1:
 RMSU=  2.80D-05    CP:  9.82D-01  7.79D-01  1.03D+00
 FoFJK:  IHMeth= 1 ICntrl=     0 DoSepK=T KAlg= 1 I1Cent= 0 FoldK=F
 E= -151.533183980261     Delta-E=       -0.000233739504 Rises=F Damp=F
 DIIS: error= 2.15D-04 at cycle   4 NSaved=   4.
 NSaved= 4 IEnMin= 4 EnMin= -151.533183980261     IErMin= 4 ErrMin= 2.15D-04
 ErrMax= 2.15D-04 EMaxC= 1.00D-01 BMatC= 9.40D-06 BMatP= 3.64D-04
 IDIUse=3 WtCom= 9.98D-01 WtEn= 2.15D-03
 Coeff-Com: -0.888D-02-0.126D-01 0.881D-01 0.933D+00
 Coeff-En:   0.000D+00 0.000D+00 0.000D+00 0.100D+01
 Coeff:     -0.886D-02-0.126D-01 0.879D-01 0.934D+00
 Gap=     0.466 Goal=   None    Shift=    0.000
 RMSDP=1.50D-05 MaxDP=9.88D-04 DE=-2.34D-04 OVMax= 8.20D-04

 Cycle   5  Pass 1  IDiag  1:
 RMSU=  4.41D-06    CP:  9.81D-01  7.79D-01  1.07D+00  1.08D+00
 FoFJK:  IHMeth= 1 ICntrl=     0 DoSepK=T KAlg= 1 I1Cent= 0 FoldK=F
 E= -151.533192585221     Delta-E=       -0.000008604960 Rises=F Damp=F
 DIIS: error= 4.15D-05 at cycle   5 NSaved=   5.
 NSaved= 5 IEnMin= 5 EnMin= -151.533192585221     IErMin= 5 ErrMin= 4.15D-05
 ErrMax= 4.15D-05 EMaxC= 1.00D-01 BMatC= 2.34D-07 BMatP= 9.40D-06
 IDIUse=1 WtCom= 1.00D+00 WtEn= 0.00D+00
 Coeff-Com: -0.428D-03-0.237D-02-0.371D-01-0.123D+00 0.116D+01
 Coeff:     -0.428D-03-0.237D-02-0.371D-01-0.123D+00 0.116D+01
 Gap=     0.466 Goal=   None    Shift=    0.000
 RMSDP=3.82D-06 MaxDP=1.39D-04 DE=-8.60D-06 OVMax= 3.85D-04

 Cycle   6  Pass 1  IDiag  1:
 RMSU=  1.19D-06    CP:  9.81D-01  7.80D-01  1.07D+00  1.13D+00  1.35D+00
 FoFJK:  IHMeth= 1 ICntrl=     0 DoSepK=T KAlg= 1 I1Cent= 0 FoldK=F
 E= -151.533193239717     Delta-E=       -0.000000654495 Rises=F Damp=F
 DIIS: error= 8.20D-06 at cycle   6 NSaved=   6.
 NSaved= 6 IEnMin= 6 EnMin= -151.533193239717     IErMin= 6 ErrMin= 8.20D-06
 ErrMax= 8.20D-06 EMaxC= 1.00D-01 BMatC= 1.24D-08 BMatP= 2.34D-07
 IDIUse=1 WtCom= 1.00D+00 WtEn= 0.00D+00
 Coeff-Com:  0.317D-03 0.907D-03 0.366D-02-0.813D-02-0.195D+00 0.120D+01
 Coeff:      0.317D-03 0.907D-03 0.366D-02-0.813D-02-0.195D+00 0.120D+01
 Gap=     0.466 Goal=   None    Shift=    0.000
 RMSDP=9.54D-07 MaxDP=2.21D-05 DE=-6.54D-07 OVMax= 1.18D-04

 Cycle   7  Pass 1  IDiag  1:
 RMSU=  3.08D-07    CP:  9.81D-01  7.80D-01  1.07D+00  1.14D+00  1.42D+00
                    CP:  1.33D+00
 FoFJK:  IHMeth= 1 ICntrl=     0 DoSepK=T KAlg= 1 I1Cent= 0 FoldK=F
 E= -151.533193278637     Delta-E=       -0.000000038920 Rises=F Damp=F
 DIIS: error= 1.86D-06 at cycle   7 NSaved=   7.
 NSaved= 7 IEnMin= 7 EnMin= -151.533193278637     IErMin= 7 ErrMin= 1.86D-06
 ErrMax= 1.86D-06 EMaxC= 1.00D-01 BMatC= 6.83D-10 BMatP= 1.24D-08
 IDIUse=1 WtCom= 1.00D+00 WtEn= 0.00D+00
 Coeff-Com: -0.155D-04-0.292D-04 0.110D-02 0.658D-02-0.314D-01-0.172D+00
 Coeff-Com:  0.120D+01
 Coeff:     -0.155D-04-0.292D-04 0.110D-02 0.658D-02-0.314D-01-0.172D+00
 Coeff:      0.120D+01
 Gap=     0.466 Goal=   None    Shift=    0.000
 RMSDP=3.33D-07 MaxDP=1.26D-05 DE=-3.89D-08 OVMax= 3.47D-05

 Cycle   8  Pass 1  IDiag  1:
 RMSU=  6.91D-08    CP:  9.81D-01  7.81D-01  1.08D+00  1.14D+00  1.42D+00
                    CP:  1.43D+00  1.39D+00
 FoFJK:  IHMeth= 1 ICntrl=     0 DoSepK=T KAlg= 1 I1Cent= 0 FoldK=F
 E= -151.533193279929     Delta-E=       -0.000000001292 Rises=F Damp=F
 DIIS: error= 4.80D-07 at cycle   8 NSaved=   8.
 NSaved= 8 IEnMin= 8 EnMin= -151.533193279929     IErMin= 8 ErrMin= 4.80D-07
 ErrMax= 4.80D-07 EMaxC= 1.00D-01 BMatC= 5.56D-11 BMatP= 6.83D-10
 IDIUse=1 WtCom= 1.00D+00 WtEn= 0.00D+00
 Coeff-Com: -0.146D-04-0.539D-04-0.409D-03-0.767D-03 0.186D-01-0.531D-01
 Coeff-Com: -0.157D+00 0.119D+01
 Coeff:     -0.146D-04-0.539D-04-0.409D-03-0.767D-03 0.186D-01-0.531D-01
 Coeff:     -0.157D+00 0.119D+01
 Gap=     0.466 Goal=   None    Shift=    0.000
 RMSDP=1.10D-07 MaxDP=5.38D-06 DE=-1.29D-09 OVMax= 1.04D-05

 Cycle   9  Pass 1  IDiag  1:
 RMSU=  1.93D-08    CP:  9.81D-01  7.81D-01  1.08D+00  1.14D+00  1.42D+00
                    CP:  1.44D+00  1.51D+00  1.49D+00
 FoFJK:  IHMeth= 1 ICntrl=     0 DoSepK=T KAlg= 1 I1Cent= 0 FoldK=F
 E= -151.533193280136     Delta-E=       -0.000000000207 Rises=F Damp=F
 DIIS: error= 1.99D-07 at cycle   9 NSaved=   9.
 NSaved= 9 IEnMin= 9 EnMin= -151.533193280136     IErMin= 9 ErrMin= 1.99D-07
 ErrMax= 1.99D-07 EMaxC= 1.00D-01 BMatC= 5.57D-12 BMatP= 5.56D-11
 IDIUse=1 WtCom= 1.00D+00 WtEn= 0.00D+00
 Coeff-Com:  0.461D-05 0.190D-04 0.917D-04-0.116D-03-0.424D-02 0.236D-01
 Coeff-Com:  0.136D-02-0.453D+00 0.143D+01
 Coeff:      0.461D-05 0.190D-04 0.917D-04-0.116D-03-0.424D-02 0.236D-01
 Coeff:      0.136D-02-0.453D+00 0.143D+01
 Gap=     0.466 Goal=   None    Shift=    0.000
 RMSDP=3.67D-08 MaxDP=7.52D-07 DE=-2.07D-10 OVMax= 5.66D-06

 Cycle  10  Pass 1  IDiag  1:
 RMSU=  7.55D-09    CP:  9.81D-01  7.81D-01  1.08D+00  1.14D+00  1.42D+00
                    CP:  1.44D+00  1.53D+00  1.72D+00  1.79D+00
 FoFJK:  IHMeth= 1 ICntrl=     0 DoSepK=T KAlg= 1 I1Cent= 0 FoldK=F
 E= -151.533193280170     Delta-E=       -0.000000000034 Rises=F Damp=F
 DIIS: error= 6.07D-08 at cycle  10 NSaved=  10.
 NSaved=10 IEnMin=10 EnMin= -151.533193280170     IErMin=10 ErrMin= 6.07D-08
 ErrMax= 6.07D-08 EMaxC= 1.00D-01 BMatC= 9.38D-13 BMatP= 5.57D-12
 IDIUse=1 WtCom= 1.00D+00 WtEn= 0.00D+00
 Coeff-Com:  0.119D-05 0.568D-05 0.650D-04 0.230D-03-0.278D-02 0.335D-02
 Coeff-Com:  0.408D-01-0.151D+00-0.233D+00 0.134D+01
 Coeff:      0.119D-05 0.568D-05 0.650D-04 0.230D-03-0.278D-02 0.335D-02
 Coeff:      0.408D-01-0.151D+00-0.233D+00 0.134D+01
 Gap=     0.466 Goal=   None    Shift=    0.000
 RMSDP=1.62D-08 MaxDP=3.49D-07 DE=-3.39D-11 OVMax= 2.54D-06

 Cycle  11  Pass 1  IDiag  1:
 RMSU=  1.44D-09    CP:  9.81D-01  7.81D-01  1.08D+00  1.14D+00  1.42D+00
                    CP:  1.44D+00  1.54D+00  1.80D+00  2.19D+00  1.71D+00
 FoFJK:  IHMeth= 1 ICntrl=     0 DoSepK=T KAlg= 1 I1Cent= 0 FoldK=F
 E= -151.533193280174     Delta-E=       -0.000000000004 Rises=F Damp=F
 DIIS: error= 1.69D-08 at cycle  11 NSaved=  11.
 NSaved=11 IEnMin=11 EnMin= -151.533193280174     IErMin=11 ErrMin= 1.69D-08
 ErrMax= 1.69D-08 EMaxC= 1.00D-01 BMatC= 5.37D-14 BMatP= 9.38D-13
 IDIUse=1 WtCom= 1.00D+00 WtEn= 0.00D+00
 Coeff-Com: -0.234D-06-0.119D-05-0.213D-05 0.366D-04 0.474D-04-0.152D-02
 Coeff-Com:  0.341D-02 0.187D-01-0.906D-01 0.129D-01 0.106D+01
 Coeff:     -0.234D-06-0.119D-05-0.213D-05 0.366D-04 0.474D-04-0.152D-02
 Coeff:      0.341D-02 0.187D-01-0.906D-01 0.129D-01 0.106D+01
 Gap=     0.466 Goal=   None    Shift=    0.000
 RMSDP=2.71D-09 MaxDP=5.74D-08 DE=-3.95D-12 OVMax= 3.94D-07

 SCF Done:  E(RLC-wPBE) =  -151.533193280     A.U. after   11 cycles
             Convg  =    0.2712D-08             -V/T =  2.0071
 KE= 1.504652714462D+02 PE=-4.315431880513D+02 EE= 9.293594780000D+01
 Leave Link  502 at Fri May  8 01:41:22 2020, MaxMem= 1073741824 cpu:     249.9
 (Enter /home/matheus/.gaussian/g09/l601.exe)
 Copying SCF densities to generalized density rwf, IOpCl= 0 IROHF=0.

 **********************************************************************

            Population analysis using the SCF density.

 **********************************************************************

 Orbital symmetries:
       Occupied  (A) (A) (A) (A) (A) (A) (A) (A) (A)
       Virtual   (A) (A) (A) (A) (A) (A) (A) (A) (A) (A) (A) (A)
                 (A) (A) (A) (A) (A) (A) (A) (A) (A) (A) (A) (A)
                 (A) (A) (A) (A) (A) (A) (A) (A) (A) (A) (A) (A)
                 (A) (A) (A) (A) (A) (A) (A) (A) (A) (A) (A) (A)
                 (A) (A) (A) (A) (A) (A) (A) (A) (A) (A) (A) (A)
                 (A) (A) (A) (A) (A) (A) (A) (A) (A) (A) (A) (A)
                 (A) (A) (A) (A) (A) (A) (A) (A) (A) (A) (A) (A)
                 (A) (A) (A) (A) (A) (A) (A) (A) (A) (A) (A) (A)
                 (A) (A) (A) (A) (A) (A) (A) (A) (A) (A) (A) (A)
                 (A) (A) (A) (A) (A) (A) (A) (A) (A) (A) (A) (A)
                 (A) (A) (A) (A) (A) (A) (A) (A) (A) (A) (A) (A)
                 (A) (A) (A) (A) (A) (A) (A) (A) (A) (A) (A) (A)
                 (A) (A) (A) (A) (A) (A) (A) (A) (A) (A) (A) (A)
                 (A) (A) (A) (A) (A) (A) (A) (A) (A) (A) (A) (A)
                 (A) (A) (A) (A) (A) (A) (A) (A) (A) (A) (A) (A)
                 (A) (A) (A) (A) (A) (A) (A) (A)
 The electronic state is 1-A.
 Alpha  occ. eigenvalues --  -19.11345 -19.11339  -1.32171  -1.09754  -0.70826
 Alpha  occ. eigenvalues --   -0.66177  -0.58300  -0.49214  -0.43748
 Alpha virt. eigenvalues --    0.02846   0.03728   0.07261   0.08749   0.10289
 Alpha virt. eigenvalues --    0.11028   0.11521   0.14191   0.16882   0.17194
 Alpha virt. eigenvalues --    0.19244   0.19707   0.21556   0.23463   0.25662
 Alpha virt. eigenvalues --    0.27486   0.30794   0.31774   0.32948   0.33577
 Alpha virt. eigenvalues --    0.34989   0.38212   0.38659   0.40688   0.41051
 Alpha virt. eigenvalues --    0.42828   0.44311   0.47627   0.48954   0.50128
 Alpha virt. eigenvalues --    0.55517   0.58152   0.60780   0.64245   0.69796
 Alpha virt. eigenvalues --    0.72421   0.75055   0.75781   0.77754   0.79217
 Alpha virt. eigenvalues --    0.81391   0.83352   0.89150   0.91281   0.91992
 Alpha virt. eigenvalues --    0.92438   0.95141   0.96803   0.98419   1.00401
 Alpha virt. eigenvalues --    1.01297   1.05262   1.06966   1.09743   1.12661
 Alpha virt. eigenvalues --    1.13782   1.15768   1.18346   1.24022   1.25952
 Alpha virt. eigenvalues --    1.27138   1.30541   1.32207   1.33011   1.33898
 Alpha virt. eigenvalues --    1.34454   1.36305   1.37462   1.38335   1.39758
 Alpha virt. eigenvalues --    1.46528   1.51366   1.54117   1.55591   1.57318
 Alpha virt. eigenvalues --    1.60209   1.65880   1.68649   1.70641   1.81449
 Alpha virt. eigenvalues --    1.85163   1.88583   1.90332   1.99049   2.03831
 Alpha virt. eigenvalues --    2.11170   2.14598   2.18669   2.21127   2.25176
 Alpha virt. eigenvalues --    2.31839   2.33349   2.34730   2.39308   2.47123
 Alpha virt. eigenvalues --    2.49927   2.55501   2.57198   2.66946   2.68919
 Alpha virt. eigenvalues --    2.70623   2.78107   2.87610   2.89414   2.93107
 Alpha virt. eigenvalues --    3.07905   3.12493   3.15138   3.26088   3.30700
 Alpha virt. eigenvalues --    3.41912   3.56207   3.66452   3.70716   3.78875
 Alpha virt. eigenvalues --    3.79199   3.82153   3.82686   3.83396   3.84995
 Alpha virt. eigenvalues --    3.87066   3.90520   3.92072   3.95504   3.97541
 Alpha virt. eigenvalues --    4.02493   4.05307   4.09152   4.11382   4.13816
 Alpha virt. eigenvalues --    4.20299   4.25962   4.28893   4.33058   4.37606
 Alpha virt. eigenvalues --    4.51040   4.56538   4.58086   4.74654   4.94743
 Alpha virt. eigenvalues --    5.02830   5.10768   5.15185   5.15393   5.29088
 Alpha virt. eigenvalues --    5.46979   5.87767   6.10374   6.13024   6.15739
 Alpha virt. eigenvalues --    6.36133   6.40216   6.45630   6.57750   6.67139
 Alpha virt. eigenvalues --    6.79461   6.81433   6.86102   6.88789   6.90339
 Alpha virt. eigenvalues --    6.93294   6.94279   7.00925   7.06662   7.07864
 Alpha virt. eigenvalues --    7.23516   7.29662   7.45037   7.80455   7.81386
 Alpha virt. eigenvalues --    8.09882   8.14722  10.90002  13.93572  14.60000
 Alpha virt. eigenvalues --   14.83480  14.88562  15.10552  29.03244  29.03683
 Alpha virt. eigenvalues --   29.08171  29.13783  29.23270  49.10975 148.31548
 Alpha virt. eigenvalues --  148.38636 148.71054 752.51351
          Condensed to atoms (all electrons):
              1          2          3          4          5
     1  O    8.192941  -0.185069   0.209310  -0.005509   0.000706
     2  O   -0.185069   8.196290   0.009664   0.210831  -0.000296
     3  H    0.209310   0.009664   0.564373   0.004451  -0.000443
     4  H   -0.005509   0.210831   0.004451   0.566281  -0.004140
     5  Kr   0.000706  -0.000296  -0.000443  -0.004140   0.001103
 Mulliken atomic charges:
              1
     1  O   -0.212380
     2  O   -0.231421
     3  H    0.212645
     4  H    0.228086
     5  Kr   0.003070
 Sum of Mulliken atomic charges =   0.00000
 Mulliken charges with hydrogens summed into heavy atoms:
              1
     1  O    0.000265
     2  O   -0.003335
     5  Kr   0.003070
 Sum of Mulliken charges with hydrogens summed into heavy atoms =   0.00000
          Condensed to fragments (all electrons):
     1      -0.003070
     2       0.003070
 Electronic spatial extent (au):  <R**2>=            323.1268
 Charge=              0.0000 electrons
 Dipole moment (field-independent basis, Debye):
    X=              0.5690    Y=             -0.0967    Z=              1.2724  Tot=              1.3972
 Quadrupole moment (field-independent basis, Debye-Ang):
   XX=            -11.9668   YY=            -10.4675   ZZ=            -12.0778
   XY=              3.7087   XZ=             -3.4583   YZ=             -1.3759
 Traceless Quadrupole moment (field-independent basis, Debye-Ang):
   XX=             -0.4628   YY=              1.0366   ZZ=             -0.5738
   XY=              3.7087   XZ=             -3.4583   YZ=             -1.3759
 Octapole moment (field-independent basis, Debye-Ang**2):
  XXX=             66.0138  YYY=             -1.4023  ZZZ=              1.0383  XYY=             21.5986
  XXY=            -13.5467  XXZ=              9.5699  XZZ=             23.5897  YZZ=             -1.3688
  YYZ=              1.7644  XYZ=              3.8385
 Hexadecapole moment (field-independent basis, Debye-Ang**3):
 XXXX=           -269.6839 YYYY=            -44.9599 ZZZZ=            -11.4658 XXXY=             38.0617
 XXXZ=            -26.2448 YYYX=              5.2427 YYYZ=             -1.8621 ZZZX=             -2.2634
 ZZZY=             -1.1648 XXYY=            -52.5047 XXZZ=            -49.8114 YYZZ=            -10.4531
 XXYZ=            -10.5755 YYXZ=             -4.3866 ZZXY=              2.5200
 N-N= 3.660877552490D+01 E-N=-4.315431879146D+02  KE= 1.504652714462D+02
 No NMR shielding tensors so no spin-rotation constants.
 Leave Link  601 at Fri May  8 01:41:22 2020, MaxMem= 1073741824 cpu:       0.8
 (Enter /home/matheus/.gaussian/g09/l122.exe)
 Counterpoise: doing DCBS calculation for fragment   2 NewBq=T
 Leave Link  122 at Fri May  8 01:41:22 2020, MaxMem= 1073741824 cpu:       0.0
 (Enter /home/matheus/.gaussian/g09/l301.exe)
 Basis read from rwf:  (5D, 7F)
 No pseudopotential information found on rwf file.
 There are   197 symmetry adapted basis functions of A   symmetry.
 Integral buffers will be    131072 words long.
 Raffenetti 2 integral format.
 Two-electron integral symmetry is turned on.
   197 basis functions,   415 primitive gaussians,   229 cartesian basis functions
    18 alpha electrons       18 beta electrons
       nuclear repulsion energy         0.0000000000 Hartrees.
 IExCor=32609 DFT=T Ex+Corr=LC-wPBE ExCW=0 ScaHFX=  1.000000
 ScaDFX=  1.000000  0.000000  1.000000  1.000000 ScalE2=  1.000000  1.000000
 IRadAn=      5 IRanWt=     -1 IRanGd=            0 ICorTp=0
  HFx wShort=  0.000000 wLong=  0.550000 cFull=  0.000000 cShort=  0.000000 cLong=  1.000000
  DFx wShort=  0.000000 wLong=  0.550000 cFull=  0.000000 cShort=  0.000000 cLong=  1.000000
 NAtoms=    5 NActive=    5 NUniq=    5 SFac= 1.00D+00 NAtFMM=   60 NAOKFM=F Big=F
 No density basis found on file   718.
 Leave Link  301 at Fri May  8 01:41:22 2020, MaxMem= 1073741824 cpu:       0.2
 (Enter /home/matheus/.gaussian/g09/l302.exe)
 NPDir=0 NMtPBC=     1 NCelOv=     1 NCel=       1 NClECP=     1 NCelD=      1
         NCelK=      1 NCelE2=     1 NClLst=     1 CellRange=     0.0.
 One-electron integrals computed using PRISM.
 NBasis=   197 RedAO= T  NBF=   197
 NBsUse=   197 1.00D-06 NBFU=   197
 Precomputing XC quadrature grid using
 IXCGrd= 2 IRadAn=           5 IRanWt=          -1 IRanGd=           0 AccXCQ= 0.00D+00.
 NRdTot=     427 NPtTot=      123512 NUsed=      126579 NTot=      126611
 NSgBfM=   229   229   229   229   229 NAtAll=     5     5.
 Leave Link  302 at Fri May  8 01:41:22 2020, MaxMem= 1073741824 cpu:       1.0
 (Enter /home/matheus/.gaussian/g09/l303.exe)
 DipDrv:  MaxL=1.
 Leave Link  303 at Fri May  8 01:41:22 2020, MaxMem= 1073741824 cpu:       0.2
 (Enter /home/matheus/.gaussian/g09/l401.exe)
 Harris functional with IExCor=32609 diagonalized for initial guess.
 ExpMin= 2.53D-02 ExpMax= 1.17D+07 ExpMxC= 1.33D+04 IAcc=3 IRadAn=         5 AccDes= 0.00D+00
 HarFok:  IExCor=32609 AccDes= 0.00D+00 IRadAn=         5 IDoV= 1
 ScaDFX=  1.000000  1.000000  1.000000  1.000000
 FoFCou: FMM=F IPFlag=           0 FMFlag=      100000 FMFlg1=           0
         NFxFlg=           0 DoJE=T BraDBF=F KetDBF=T FulRan=T
         Omega=  0.000000  0.000000  1.000000  0.000000  0.000000 ICntrl=     500 IOpCl=  0
         NMat0=    1 NMatS0=    1 NMatT0=    0 NMatD0=    1 NMtDS0=    0 NMtDT0=    0
         I1Cent=           4 NGrid=           0.
 Petite list used in FoFCou.
 Harris En= -2753.24648670955    
 Initial guess orbital symmetries:
       Occupied  (A) (A) (A) (A) (A) (A) (A) (A) (A) (A) (A) (A)
                 (A) (A) (A) (A) (A) (A)
       Virtual   (A) (A) (A) (A) (A) (A) (A) (A) (A) (A) (A) (A)
                 (A) (A) (A) (A) (A) (A) (A) (A) (A) (A) (A) (A)
                 (A) (A) (A) (A) (A) (A) (A) (A) (A) (A) (A) (A)
                 (A) (A) (A) (A) (A) (A) (A) (A) (A) (A) (A) (A)
                 (A) (A) (A) (A) (A) (A) (A) (A) (A) (A) (A) (A)
                 (A) (A) (A) (A) (A) (A) (A) (A) (A) (A) (A) (A)
                 (A) (A) (A) (A) (A) (A) (A) (A) (A) (A) (A) (A)
                 (A) (A) (A) (A) (A) (A) (A) (A) (A) (A) (A) (A)
                 (A) (A) (A) (A) (A) (A) (A) (A) (A) (A) (A) (A)
                 (A) (A) (A) (A) (A) (A) (A) (A) (A) (A) (A) (A)
                 (A) (A) (A) (A) (A) (A) (A) (A) (A) (A) (A) (A)
                 (A) (A) (A) (A) (A) (A) (A) (A) (A) (A) (A) (A)
                 (A) (A) (A) (A) (A) (A) (A) (A) (A) (A) (A) (A)
                 (A) (A) (A) (A) (A) (A) (A) (A) (A) (A) (A) (A)
                 (A) (A) (A) (A) (A) (A) (A) (A) (A) (A) (A)
 The electronic state of the initial guess is 1-A.
 Leave Link  401 at Fri May  8 01:41:22 2020, MaxMem= 1073741824 cpu:       3.7
 (Enter /home/matheus/.gaussian/g09/l502.exe)
 Closed shell SCF:
 Requested convergence on RMS density matrix=1.00D-08 within 128 cycles.
 Requested convergence on MAX density matrix=1.00D-06.
 Requested convergence on             energy=1.00D-06.
 No special actions if energy rises.
 Using DIIS extrapolation, IDIIS=  1040.
 Integral symmetry usage will be decided dynamically.
       126521 words used for storage of precomputed grid.
 IEnd=      305468 IEndB=      305468 NGot=  1073741824 MDV=  1073505667
 LenX=  1073505667 LenY=  1073452785
 Fock matrices will be formed incrementally for  20 cycles.

 Cycle   1  Pass 1  IDiag  1:
 FoFJK:  IHMeth= 1 ICntrl=     0 DoSepK=T KAlg= 1 I1Cent= 0 FoldK=F
 FoFCou: FMM=F IPFlag=           0 FMFlag=      100000 FMFlg1=           0
         NFxFlg=           0 DoJE=T BraDBF=F KetDBF=F FulRan=T
         Omega=  0.000000  0.000000  1.000000  0.000000  0.000000 ICntrl=     500 IOpCl=  0
         NMat0=    1 NMatS0=    1 NMatT0=    0 NMatD0=    1 NMtDS0=    0 NMtDT0=    0
         I1Cent=           0 NGrid=           0.
 Symmetry not used in FoFCou.
 E= -2753.43085697695    
 DIIS: error= 2.85D-02 at cycle   1 NSaved=   1.
 NSaved= 1 IEnMin= 1 EnMin= -2753.43085697695     IErMin= 1 ErrMin= 2.85D-02
 ErrMax= 2.85D-02 EMaxC= 1.00D-01 BMatC= 2.24D-01 BMatP= 2.24D-01
 IDIUse=3 WtCom= 7.15D-01 WtEn= 2.85D-01
 Coeff-Com:  0.100D+01
 Coeff-En:   0.100D+01
 Coeff:      0.100D+01
 Gap=     0.637 Goal=   None    Shift=    0.000
 GapD=    0.637 DampG=2.000 DampE=0.500 DampFc=1.0000 IDamp=-1.
 RMSDP=2.07D-03 MaxDP=1.42D-01              OVMax= 5.14D-02

 Cycle   2  Pass 1  IDiag  1:
 RMSU=  1.43D-03    CP:  1.02D+00
 FoFJK:  IHMeth= 1 ICntrl=     0 DoSepK=T KAlg= 1 I1Cent= 0 FoldK=F
 E= -2753.46431656753     Delta-E=       -0.033459590579 Rises=F Damp=F
 DIIS: error= 1.11D-02 at cycle   2 NSaved=   2.
 NSaved= 2 IEnMin= 2 EnMin= -2753.46431656753     IErMin= 2 ErrMin= 1.11D-02
 ErrMax= 1.11D-02 EMaxC= 1.00D-01 BMatC= 4.97D-02 BMatP= 2.24D-01
 IDIUse=3 WtCom= 8.89D-01 WtEn= 1.11D-01
 Coeff-Com:  0.315D+00 0.685D+00
 Coeff-En:   0.626D-01 0.937D+00
 Coeff:      0.287D+00 0.713D+00
 Gap=     0.550 Goal=   None    Shift=    0.000
 RMSDP=7.65D-04 MaxDP=4.99D-02 DE=-3.35D-02 OVMax= 1.84D-02

 Cycle   3  Pass 1  IDiag  1:
 RMSU=  1.51D-04    CP:  1.01D+00  6.47D-01
 FoFJK:  IHMeth= 1 ICntrl=     0 DoSepK=T KAlg= 1 I1Cent= 0 FoldK=F
 E= -2753.47774214257     Delta-E=       -0.013425575044 Rises=F Damp=F
 DIIS: error= 1.28D-03 at cycle   3 NSaved=   3.
 NSaved= 3 IEnMin= 3 EnMin= -2753.47774214257     IErMin= 3 ErrMin= 1.28D-03
 ErrMax= 1.28D-03 EMaxC= 1.00D-01 BMatC= 5.39D-04 BMatP= 4.97D-02
 IDIUse=3 WtCom= 9.87D-01 WtEn= 1.28D-02
 Coeff-Com: -0.469D-02 0.855D-01 0.919D+00
 Coeff-En:   0.000D+00 0.000D+00 0.100D+01
 Coeff:     -0.463D-02 0.844D-01 0.920D+00
 Gap=     0.556 Goal=   None    Shift=    0.000
 RMSDP=7.05D-05 MaxDP=4.26D-03 DE=-1.34D-02 OVMax= 2.42D-03

 Cycle   4  Pass 1  IDiag  1:
 RMSU=  1.35D-05    CP:  1.01D+00  6.79D-01  9.98D-01
 FoFJK:  IHMeth= 1 ICntrl=     0 DoSepK=T KAlg= 1 I1Cent= 0 FoldK=F
 E= -2753.47789828653     Delta-E=       -0.000156143964 Rises=F Damp=F
 DIIS: error= 3.62D-05 at cycle   4 NSaved=   4.
 NSaved= 4 IEnMin= 4 EnMin= -2753.47789828653     IErMin= 4 ErrMin= 3.62D-05
 ErrMax= 3.62D-05 EMaxC= 1.00D-01 BMatC= 4.27D-07 BMatP= 5.39D-04
 IDIUse=1 WtCom= 1.00D+00 WtEn= 0.00D+00
 Coeff-Com: -0.549D-03-0.197D-01-0.163D+00 0.118D+01
 Coeff:     -0.549D-03-0.197D-01-0.163D+00 0.118D+01
 Gap=     0.556 Goal=   None    Shift=    0.000
 RMSDP=5.75D-06 MaxDP=3.21D-04 DE=-1.56D-04 OVMax= 4.13D-04

 Cycle   5  Pass 1  IDiag  1:
 RMSU=  1.82D-06    CP:  1.01D+00  6.79D-01  1.01D+00  1.19D+00
 FoFJK:  IHMeth= 1 ICntrl=     0 DoSepK=T KAlg= 1 I1Cent= 0 FoldK=F
 E= -2753.47789880786     Delta-E=       -0.000000521329 Rises=F Damp=F
 DIIS: error= 2.34D-06 at cycle   5 NSaved=   5.
 NSaved= 5 IEnMin= 5 EnMin= -2753.47789880786     IErMin= 5 ErrMin= 2.34D-06
 ErrMax= 2.34D-06 EMaxC= 1.00D-01 BMatC= 2.14D-09 BMatP= 4.27D-07
 IDIUse=1 WtCom= 1.00D+00 WtEn= 0.00D+00
 Coeff-Com:  0.971D-04 0.211D-03-0.136D-02-0.178D-01 0.102D+01
 Coeff:      0.971D-04 0.211D-03-0.136D-02-0.178D-01 0.102D+01
 Gap=     0.556 Goal=   None    Shift=    0.000
 RMSDP=3.38D-07 MaxDP=2.19D-05 DE=-5.21D-07 OVMax= 1.48D-05

 Cycle   6  Pass 1  IDiag  1:
 RMSU=  1.64D-07    CP:  1.01D+00  6.79D-01  1.01D+00  1.20D+00  1.03D+00
 FoFJK:  IHMeth= 1 ICntrl=     0 DoSepK=T KAlg= 1 I1Cent= 0 FoldK=F
 E= -2753.47789880975     Delta-E=       -0.000000001884 Rises=F Damp=F
 DIIS: error= 3.90D-07 at cycle   6 NSaved=   6.
 NSaved= 6 IEnMin= 6 EnMin= -2753.47789880975     IErMin= 6 ErrMin= 3.90D-07
 ErrMax= 3.90D-07 EMaxC= 1.00D-01 BMatC= 7.65D-11 BMatP= 2.14D-09
 IDIUse=1 WtCom= 1.00D+00 WtEn= 0.00D+00
 Coeff-Com:  0.347D-05 0.188D-03 0.179D-02-0.167D-01 0.348D-01 0.980D+00
 Coeff:      0.347D-05 0.188D-03 0.179D-02-0.167D-01 0.348D-01 0.980D+00
 Gap=     0.556 Goal=   None    Shift=    0.000
 RMSDP=5.04D-08 MaxDP=2.53D-06 DE=-1.88D-09 OVMax= 3.10D-06

 Cycle   7  Pass 1  IDiag  1:
 RMSU=  1.08D-08    CP:  1.01D+00  6.79D-01  1.01D+00  1.20D+00  1.05D+00
                    CP:  1.10D+00
 FoFJK:  IHMeth= 1 ICntrl=     0 DoSepK=T KAlg= 1 I1Cent= 0 FoldK=F
 E= -2753.47789880980     Delta-E=       -0.000000000053 Rises=F Damp=F
 DIIS: error= 3.13D-08 at cycle   7 NSaved=   7.
 NSaved= 7 IEnMin= 7 EnMin= -2753.47789880980     IErMin= 7 ErrMin= 3.13D-08
 ErrMax= 3.13D-08 EMaxC= 1.00D-01 BMatC= 4.19D-13 BMatP= 7.65D-11
 IDIUse=1 WtCom= 1.00D+00 WtEn= 0.00D+00
 Coeff-Com:  0.221D-06 0.329D-04 0.322D-03-0.287D-02 0.298D-02 0.154D+00
 Coeff-Com:  0.846D+00
 Coeff:      0.221D-06 0.329D-04 0.322D-03-0.287D-02 0.298D-02 0.154D+00
 Coeff:      0.846D+00
 Gap=     0.556 Goal=   None    Shift=    0.000
 RMSDP=5.79D-09 MaxDP=2.28D-07 DE=-5.28D-11 OVMax= 2.41D-07

 SCF Done:  E(RLC-wPBE) =  -2753.47789881     A.U. after    7 cycles
             Convg  =    0.5794D-08             -V/T =  2.0014
 KE= 2.749515144946D+03 PE=-6.579049273771D+03 EE= 1.076056230015D+03
 Leave Link  502 at Fri May  8 01:41:43 2020, MaxMem= 1073741824 cpu:     165.3
 (Enter /home/matheus/.gaussian/g09/l601.exe)
 Copying SCF densities to generalized density rwf, IOpCl= 0 IROHF=0.

 **********************************************************************

            Population analysis using the SCF density.

 **********************************************************************

 Orbital symmetries:
       Occupied  (A) (A) (A) (A) (A) (A) (A) (A) (A) (A) (A) (A)
                 (A) (A) (A) (A) (A) (A)
       Virtual   (A) (A) (A) (A) (A) (A) (A) (A) (A) (A) (A) (A)
                 (A) (A) (A) (A) (A) (A) (A) (A) (A) (A) (A) (A)
                 (A) (A) (A) (A) (A) (A) (A) (A) (A) (A) (A) (A)
                 (A) (A) (A) (A) (A) (A) (A) (A) (A) (A) (A) (A)
                 (A) (A) (A) (A) (A) (A) (A) (A) (A) (A) (A) (A)
                 (A) (A) (A) (A) (A) (A) (A) (A) (A) (A) (A) (A)
                 (A) (A) (A) (A) (A) (A) (A) (A) (A) (A) (A) (A)
                 (A) (A) (A) (A) (A) (A) (A) (A) (A) (A) (A) (A)
                 (A) (A) (A) (A) (A) (A) (A) (A) (A) (A) (A) (A)
                 (A) (A) (A) (A) (A) (A) (A) (A) (A) (A) (A) (A)
                 (A) (A) (A) (A) (A) (A) (A) (A) (A) (A) (A) (A)
                 (A) (A) (A) (A) (A) (A) (A) (A) (A) (A) (A) (A)
                 (A) (A) (A) (A) (A) (A) (A) (A) (A) (A) (A) (A)
                 (A) (A) (A) (A) (A) (A) (A) (A) (A) (A) (A) (A)
                 (A) (A) (A) (A) (A) (A) (A) (A) (A) (A) (A)
 The electronic state is 1-A.
 Alpha  occ. eigenvalues -- -511.18549 -66.73375 -60.39484 -60.39481 -60.39480
 Alpha  occ. eigenvalues --   -9.66932  -7.41183  -7.41181  -7.41181  -3.35590
 Alpha  occ. eigenvalues --   -3.35589  -3.35589  -3.35588  -3.35588  -1.08852
 Alpha  occ. eigenvalues --   -0.52698  -0.52694  -0.52692
 Alpha virt. eigenvalues --    0.02908   0.04886   0.08441   0.09435   0.11273
 Alpha virt. eigenvalues --    0.12192   0.13182   0.14049   0.16520   0.17102
 Alpha virt. eigenvalues --    0.17687   0.19762   0.21128   0.26008   0.27565
 Alpha virt. eigenvalues --    0.28174   0.28591   0.31943   0.33754   0.35341
 Alpha virt. eigenvalues --    0.36391   0.37521   0.38074   0.39508   0.41922
 Alpha virt. eigenvalues --    0.42186   0.43679   0.54803   0.55230   0.58414
 Alpha virt. eigenvalues --    0.59567   0.66370   0.67252   0.70567   0.72937
 Alpha virt. eigenvalues --    0.75146   0.76245   0.78119   0.78356   0.79743
 Alpha virt. eigenvalues --    0.81362   0.81747   0.84232   0.86074   0.86285
 Alpha virt. eigenvalues --    0.88095   0.88772   0.90086   0.92155   0.95516
 Alpha virt. eigenvalues --    0.98002   1.00006   1.00429   1.03661   1.04168
 Alpha virt. eigenvalues --    1.06864   1.07707   1.09778   1.12242   1.13565
 Alpha virt. eigenvalues --    1.16477   1.20890   1.22930   1.23786   1.28680
 Alpha virt. eigenvalues --    1.34380   1.35945   1.40968   1.45760   1.46419
 Alpha virt. eigenvalues --    1.55858   1.60058   1.60526   1.72094   1.79115
 Alpha virt. eigenvalues --    1.80440   1.84481   1.88003   1.94005   2.19785
 Alpha virt. eigenvalues --    2.22911   2.26255   2.29953   2.31547   2.34280
 Alpha virt. eigenvalues --    2.35647   2.36313   2.38611   2.39910   2.42098
 Alpha virt. eigenvalues --    2.45925   2.48414   2.49753   2.51772   2.53352
 Alpha virt. eigenvalues --    2.54311   2.55804   2.57463   2.58310   2.59378
 Alpha virt. eigenvalues --    2.63922   2.64982   2.65967   2.67841   2.70760
 Alpha virt. eigenvalues --    2.74212   2.78237   2.83704   2.88182   2.88440
 Alpha virt. eigenvalues --    2.93808   2.95220   3.04405   3.12940   3.19240
 Alpha virt. eigenvalues --    3.22422   3.27504   3.33803   3.34071   3.50779
 Alpha virt. eigenvalues --    3.61287   3.66725   3.82517   3.87212   4.03572
 Alpha virt. eigenvalues --    4.38169   4.49064   4.52506   4.57157   4.61036
 Alpha virt. eigenvalues --    4.72185   4.87685   4.88772   4.94205   5.02918
 Alpha virt. eigenvalues --    5.16439   5.18060   5.59233   5.63769   5.78734
 Alpha virt. eigenvalues --    5.98503   6.00676   6.17168   6.75947   6.88514
 Alpha virt. eigenvalues --    7.35203   7.39371   7.62280   7.65646   7.70347
 Alpha virt. eigenvalues --    7.86702   7.96289   8.10579   8.17643   8.21563
 Alpha virt. eigenvalues --    8.38758   8.42411   8.62270   8.88088   9.62718
 Alpha virt. eigenvalues --    9.71944   9.81511   9.88672   9.95717  10.02043
 Alpha virt. eigenvalues --   10.15484  10.28231  10.43796  10.95221  11.51241
 Alpha virt. eigenvalues --   11.63218  11.66944  12.04498  12.08176  13.26728
 Alpha virt. eigenvalues --   13.61541  14.53684  62.69725  64.61124
          Condensed to atoms (all electrons):
              1          2          3          4          5
     1  O    0.002882  -0.002128  -0.001699   0.001421  -0.011571
     2  O   -0.002128   0.005845   0.000588  -0.004078   0.000972
     3  H   -0.001699   0.000588   0.001314  -0.000385   0.003344
     4  H    0.001421  -0.004078  -0.000385   0.004562  -0.030748
     5  Kr  -0.011571   0.000972   0.003344  -0.030748  36.073966
 Mulliken atomic charges:
              1
     1  O    0.011096
     2  O   -0.001198
     3  H   -0.003162
     4  H    0.029228
     5  Kr  -0.035964
 Sum of Mulliken atomic charges =   0.00000
 Mulliken charges with hydrogens summed into heavy atoms:
              1
     1  O    0.007934
     2  O    0.028030
     5  Kr  -0.035964
 Sum of Mulliken charges with hydrogens summed into heavy atoms =   0.00000
          Condensed to fragments (all electrons):
     1       0.035964
     2      -0.035964
 Electronic spatial extent (au):  <R**2>=            166.1635
 Charge=              0.0000 electrons
 Dipole moment (field-independent basis, Debye):
    X=             -0.0008    Y=              0.0004    Z=              0.0001  Tot=              0.0009
 Quadrupole moment (field-independent basis, Debye-Ang):
   XX=            -17.5402   YY=            -17.5499   ZZ=            -17.5562
   XY=             -0.0043   XZ=              0.0003   YZ=              0.0004
 Traceless Quadrupole moment (field-independent basis, Debye-Ang):
   XX=              0.0085   YY=             -0.0011   ZZ=             -0.0074
   XY=             -0.0043   XZ=              0.0003   YZ=              0.0004
 Octapole moment (field-independent basis, Debye-Ang**2):
  XXX=            -52.2971  YYY=              0.8486  ZZZ=             -0.1504  XYY=            -17.4433
  XXY=              0.2747  XXZ=             -0.0503  XZZ=            -17.4466  YZZ=              0.2838
  YYZ=             -0.0498  XYZ=              0.0002
 Hexadecapole moment (field-independent basis, Debye-Ang**3):
 XXXX=           -121.9582 YYYY=            -18.0490 ZZZZ=            -18.0443 XXXY=              0.8258
 XXXZ=             -0.1500 YYYX=              0.8303 YYYZ=              0.0019 ZZZX=             -0.1498
 ZZZY=              0.0036 XXYY=            -23.3444 XXZZ=            -23.3447 YYZZ=             -6.0140
 XXYZ=              0.0013 YYXZ=             -0.0499 ZZXY=              0.2753
 N-N= 0.000000000000D+00 E-N=-6.579049271026D+03  KE= 2.749515144946D+03
 No NMR shielding tensors so no spin-rotation constants.
 Leave Link  601 at Fri May  8 01:41:43 2020, MaxMem= 1073741824 cpu:       0.7
 (Enter /home/matheus/.gaussian/g09/l122.exe)
 Counterpoise: doing MCBS calculation for fragment   1
 Leave Link  122 at Fri May  8 01:41:43 2020, MaxMem= 1073741824 cpu:       0.0
 (Enter /home/matheus/.gaussian/g09/l301.exe)
 Basis read from rwf:  (5D, 7F)
 No pseudopotential information found on rwf file.
 There are   138 symmetry adapted basis functions of A   symmetry.
 Integral buffers will be    131072 words long.
 Raffenetti 2 integral format.
 Two-electron integral symmetry is turned on.
   138 basis functions,   198 primitive gaussians,   160 cartesian basis functions
     9 alpha electrons        9 beta electrons
       nuclear repulsion energy        36.6087755249 Hartrees.
 IExCor=32609 DFT=T Ex+Corr=LC-wPBE ExCW=0 ScaHFX=  1.000000
 ScaDFX=  1.000000  0.000000  1.000000  1.000000 ScalE2=  1.000000  1.000000
 IRadAn=      5 IRanWt=     -1 IRanGd=            0 ICorTp=0
  HFx wShort=  0.000000 wLong=  0.550000 cFull=  0.000000 cShort=  0.000000 cLong=  1.000000
  DFx wShort=  0.000000 wLong=  0.550000 cFull=  0.000000 cShort=  0.000000 cLong=  1.000000
 NAtoms=    5 NActive=    4 NUniq=    4 SFac= 1.00D+00 NAtFMM=   60 NAOKFM=F Big=F
 No density basis found on file   718.
 Leave Link  301 at Fri May  8 01:41:43 2020, MaxMem= 1073741824 cpu:       0.2
 (Enter /home/matheus/.gaussian/g09/l302.exe)
 NPDir=0 NMtPBC=     1 NCelOv=     1 NCel=       1 NClECP=     1 NCelD=      1
         NCelK=      1 NCelE2=     1 NClLst=     1 CellRange=     0.0.
 One-electron integrals computed using PRISM.
 NBasis=   138 RedAO= T  NBF=   138
 NBsUse=   138 1.00D-06 NBFU=   138
 Precomputing XC quadrature grid using
 IXCGrd= 2 IRadAn=           5 IRanWt=          -1 IRanGd=           0 AccXCQ= 0.00D+00.
 NRdTot=     344 NPtTot=       92556 NUsed=       95038 NTot=       95070
 NSgBfM=   160   160   160   160   160 NAtAll=     4     4.
 Leave Link  302 at Fri May  8 01:41:43 2020, MaxMem= 1073741824 cpu:       0.8
 (Enter /home/matheus/.gaussian/g09/l303.exe)
 DipDrv:  MaxL=1.
 Leave Link  303 at Fri May  8 01:41:43 2020, MaxMem= 1073741824 cpu:       0.1
 (Enter /home/matheus/.gaussian/g09/l401.exe)
 Harris functional with IExCor=32609 diagonalized for initial guess.
 ExpMin= 2.53D-02 ExpMax= 1.53D+04 ExpMxC= 5.22D+02 IAcc=3 IRadAn=         5 AccDes= 0.00D+00
 HarFok:  IExCor=32609 AccDes= 0.00D+00 IRadAn=         5 IDoV= 1
 ScaDFX=  1.000000  1.000000  1.000000  1.000000
 FoFCou: FMM=F IPFlag=           0 FMFlag=      100000 FMFlg1=           0
         NFxFlg=           0 DoJE=T BraDBF=F KetDBF=T FulRan=T
         Omega=  0.000000  0.000000  1.000000  0.000000  0.000000 ICntrl=     500 IOpCl=  0
         NMat0=    1 NMatS0=    1 NMatT0=    0 NMatD0=    1 NMtDS0=    0 NMtDT0=    0
         I1Cent=           4 NGrid=           0.
 Petite list used in FoFCou.
 Harris En= -151.501379389993    
 Initial guess orbital symmetries:
       Occupied  (A) (A) (A) (A) (A) (A) (A) (A) (A)
       Virtual   (A) (A) (A) (A) (A) (A) (A) (A) (A) (A) (A) (A)
                 (A) (A) (A) (A) (A) (A) (A) (A) (A) (A) (A) (A)
                 (A) (A) (A) (A) (A) (A) (A) (A) (A) (A) (A) (A)
                 (A) (A) (A) (A) (A) (A) (A) (A) (A) (A) (A) (A)
                 (A) (A) (A) (A) (A) (A) (A) (A) (A) (A) (A) (A)
                 (A) (A) (A) (A) (A) (A) (A) (A) (A) (A) (A) (A)
                 (A) (A) (A) (A) (A) (A) (A) (A) (A) (A) (A) (A)
                 (A) (A) (A) (A) (A) (A) (A) (A) (A) (A) (A) (A)
                 (A) (A) (A) (A) (A) (A) (A) (A) (A) (A) (A) (A)
                 (A) (A) (A) (A) (A) (A) (A) (A) (A) (A) (A) (A)
                 (A) (A) (A) (A) (A) (A) (A) (A) (A)
 The electronic state of the initial guess is 1-A.
 Leave Link  401 at Fri May  8 01:41:44 2020, MaxMem= 1073741824 cpu:       2.1
 (Enter /home/matheus/.gaussian/g09/l502.exe)
 Closed shell SCF:
 Requested convergence on RMS density matrix=1.00D-08 within 128 cycles.
 Requested convergence on MAX density matrix=1.00D-06.
 Requested convergence on             energy=1.00D-06.
 No special actions if energy rises.
 Using DIIS extrapolation, IDIIS=  1040.
 Integral symmetry usage will be decided dynamically.
        94980 words used for storage of precomputed grid.
 IEnd=      192360 IEndB=      192360 NGot=  1073741824 MDV=  1073591865
 LenX=  1073591865 LenY=  1073565824
 Fock matrices will be formed incrementally for  20 cycles.

 Cycle   1  Pass 1  IDiag  1:
 FoFJK:  IHMeth= 1 ICntrl=     0 DoSepK=T KAlg= 1 I1Cent= 0 FoldK=F
 FoFCou: FMM=F IPFlag=           0 FMFlag=      100000 FMFlg1=           0
         NFxFlg=           0 DoJE=T BraDBF=F KetDBF=F FulRan=T
         Omega=  0.000000  0.000000  1.000000  0.000000  0.000000 ICntrl=     500 IOpCl=  0
         NMat0=    1 NMatS0=    1 NMatT0=    0 NMatD0=    1 NMtDS0=    0 NMtDT0=    0
         I1Cent=           0 NGrid=           0.
 Symmetry not used in FoFCou.
 E= -151.508283365244    
 DIIS: error= 1.59D-02 at cycle   1 NSaved=   1.
 NSaved= 1 IEnMin= 1 EnMin= -151.508283365244     IErMin= 1 ErrMin= 1.59D-02
 ErrMax= 1.59D-02 EMaxC= 1.00D-01 BMatC= 4.01D-02 BMatP= 4.01D-02
 IDIUse=3 WtCom= 8.41D-01 WtEn= 1.59D-01
 Coeff-Com:  0.100D+01
 Coeff-En:   0.100D+01
 Coeff:      0.100D+01
 Gap=     0.553 Goal=   None    Shift=    0.000
 GapD=    0.553 DampG=2.000 DampE=0.500 DampFc=1.0000 IDamp=-1.
 RMSDP=1.04D-03 MaxDP=2.45D-02              OVMax= 5.02D-02

 Cycle   2  Pass 1  IDiag  1:
 RMSU=  7.22D-04    CP:  9.88D-01
 FoFJK:  IHMeth= 1 ICntrl=     0 DoSepK=T KAlg= 1 I1Cent= 0 FoldK=F
 E= -151.524349654437     Delta-E=       -0.016066289193 Rises=F Damp=F
 DIIS: error= 9.17D-03 at cycle   2 NSaved=   2.
 NSaved= 2 IEnMin= 2 EnMin= -151.524349654437     IErMin= 2 ErrMin= 9.17D-03
 ErrMax= 9.17D-03 EMaxC= 1.00D-01 BMatC= 1.53D-02 BMatP= 4.01D-02
 IDIUse=3 WtCom= 9.08D-01 WtEn= 9.17D-02
 Coeff-Com:  0.368D+00 0.632D+00
 Coeff-En:   0.109D+00 0.891D+00
 Coeff:      0.344D+00 0.656D+00
 Gap=     0.476 Goal=   None    Shift=    0.000
 RMSDP=5.64D-04 MaxDP=2.20D-02 DE=-1.61D-02 OVMax= 2.19D-02

 Cycle   3  Pass 1  IDiag  1:
 RMSU=  3.43D-04    CP:  9.84D-01  7.24D-01
 FoFJK:  IHMeth= 1 ICntrl=     0 DoSepK=T KAlg= 1 I1Cent= 0 FoldK=F
 E= -151.532866355946     Delta-E=       -0.008516701509 Rises=F Damp=F
 DIIS: error= 2.31D-03 at cycle   3 NSaved=   3.
 NSaved= 3 IEnMin= 3 EnMin= -151.532866355946     IErMin= 3 ErrMin= 2.31D-03
 ErrMax= 2.31D-03 EMaxC= 1.00D-01 BMatC= 4.03D-04 BMatP= 1.53D-02
 IDIUse=3 WtCom= 9.77D-01 WtEn= 2.31D-02
 Coeff-Com:  0.390D-01 0.160D+00 0.802D+00
 Coeff-En:   0.000D+00 0.000D+00 0.100D+01
 Coeff:      0.381D-01 0.156D+00 0.806D+00
 Gap=     0.468 Goal=   None    Shift=    0.000
 RMSDP=8.26D-05 MaxDP=2.15D-03 DE=-8.52D-03 OVMax= 4.07D-03

 Cycle   4  Pass 1  IDiag  1:
 RMSU=  3.99D-05    CP:  9.82D-01  7.76D-01  1.03D+00
 FoFJK:  IHMeth= 1 ICntrl=     0 DoSepK=T KAlg= 1 I1Cent= 0 FoldK=F
 E= -151.533122556662     Delta-E=       -0.000256200716 Rises=F Damp=F
 DIIS: error= 3.23D-04 at cycle   4 NSaved=   4.
 NSaved= 4 IEnMin= 4 EnMin= -151.533122556662     IErMin= 4 ErrMin= 3.23D-04
 ErrMax= 3.23D-04 EMaxC= 1.00D-01 BMatC= 9.98D-06 BMatP= 4.03D-04
 IDIUse=3 WtCom= 9.97D-01 WtEn= 3.23D-03
 Coeff-Com: -0.889D-02-0.125D-01 0.903D-01 0.931D+00
 Coeff-En:   0.000D+00 0.000D+00 0.000D+00 0.100D+01
 Coeff:     -0.886D-02-0.124D-01 0.900D-01 0.931D+00
 Gap=     0.469 Goal=   None    Shift=    0.000
 RMSDP=2.16D-05 MaxDP=1.00D-03 DE=-2.56D-04 OVMax= 8.34D-04

 Cycle   5  Pass 1  IDiag  1:
 RMSU=  6.18D-06    CP:  9.82D-01  7.77D-01  1.06D+00  1.07D+00
 FoFJK:  IHMeth= 1 ICntrl=     0 DoSepK=T KAlg= 1 I1Cent= 0 FoldK=F
 E= -151.533131502605     Delta-E=       -0.000008945943 Rises=F Damp=F
 DIIS: error= 5.70D-05 at cycle   5 NSaved=   5.
 NSaved= 5 IEnMin= 5 EnMin= -151.533131502605     IErMin= 5 ErrMin= 5.70D-05
 ErrMax= 5.70D-05 EMaxC= 1.00D-01 BMatC= 2.35D-07 BMatP= 9.98D-06
 IDIUse=1 WtCom= 1.00D+00 WtEn= 0.00D+00
 Coeff-Com: -0.425D-03-0.259D-02-0.373D-01-0.123D+00 0.116D+01
 Coeff:     -0.425D-03-0.259D-02-0.373D-01-0.123D+00 0.116D+01
 Gap=     0.469 Goal=   None    Shift=    0.000
 RMSDP=5.47D-06 MaxDP=1.43D-04 DE=-8.95D-06 OVMax= 3.85D-04

 Cycle   6  Pass 1  IDiag  1:
 RMSU=  1.68D-06    CP:  9.81D-01  7.78D-01  1.07D+00  1.13D+00  1.34D+00
 FoFJK:  IHMeth= 1 ICntrl=     0 DoSepK=T KAlg= 1 I1Cent= 0 FoldK=F
 E= -151.533132117580     Delta-E=       -0.000000614975 Rises=F Damp=F
 DIIS: error= 1.50D-05 at cycle   6 NSaved=   6.
 NSaved= 6 IEnMin= 6 EnMin= -151.533132117580     IErMin= 6 ErrMin= 1.50D-05
 ErrMax= 1.50D-05 EMaxC= 1.00D-01 BMatC= 1.24D-08 BMatP= 2.35D-07
 IDIUse=1 WtCom= 1.00D+00 WtEn= 0.00D+00
 Coeff-Com:  0.316D-03 0.937D-03 0.361D-02-0.806D-02-0.195D+00 0.120D+01
 Coeff:      0.316D-03 0.937D-03 0.361D-02-0.806D-02-0.195D+00 0.120D+01
[...]
 NSaved= 2 IEnMin= 2 EnMin= -2753.47778090662     IErMin= 2 ErrMin= 3.37D-06
 ErrMax= 3.37D-06 EMaxC= 1.00D-01 BMatC= 3.73D-09 BMatP= 5.05D-06
 IDIUse=1 WtCom= 1.00D+00 WtEn= 0.00D+00
 Coeff-Com: -0.777D-02 0.101D+01
 Coeff:     -0.777D-02 0.101D+01
 Gap=     0.555 Goal=   None    Shift=    0.000
 RMSDP=1.69D-06 MaxDP=6.60D-05 DE=-5.49D-07 OVMax= 4.55D-05

 Cycle   3  Pass 1  IDiag  1:
 RMSU=  5.13D-07    CP:  1.00D+00  1.09D+00
 FoFJK:  IHMeth= 1 ICntrl=     0 DoSepK=T KAlg= 1 I1Cent= 0 FoldK=F
 E= -2753.47778091311     Delta-E=       -0.000000006493 Rises=F Damp=F
 DIIS: error= 5.02D-07 at cycle   3 NSaved=   3.
 NSaved= 3 IEnMin= 3 EnMin= -2753.47778091311     IErMin= 3 ErrMin= 5.02D-07
 ErrMax= 5.02D-07 EMaxC= 1.00D-01 BMatC= 9.53D-11 BMatP= 3.73D-09
 IDIUse=1 WtCom= 1.00D+00 WtEn= 0.00D+00
 Coeff-Com:  0.312D-03-0.126D+00 0.113D+01
 Coeff:      0.312D-03-0.126D+00 0.113D+01
 Gap=     0.555 Goal=   None    Shift=    0.000
 RMSDP=2.05D-07 MaxDP=7.21D-06 DE=-6.49D-09 OVMax= 9.12D-06

 Cycle   4  Pass 1  IDiag  1:
 RMSU=  5.36D-08    CP:  1.00D+00  1.10D+00  1.19D+00
 FoFJK:  IHMeth= 1 ICntrl=     0 DoSepK=T KAlg= 1 I1Cent= 0 FoldK=F
 E= -2753.47778091331     Delta-E=       -0.000000000202 Rises=F Damp=F
 DIIS: error= 2.41D-07 at cycle   4 NSaved=   4.
 NSaved= 4 IEnMin= 4 EnMin= -2753.47778091331     IErMin= 4 ErrMin= 2.41D-07
 ErrMax= 2.41D-07 EMaxC= 1.00D-01 BMatC= 8.46D-12 BMatP= 9.53D-11
 IDIUse=1 WtCom= 1.00D+00 WtEn= 0.00D+00
 Coeff-Com:  0.183D-03-0.457D-01 0.275D+00 0.771D+00
 Coeff:      0.183D-03-0.457D-01 0.275D+00 0.771D+00
 Gap=     0.555 Goal=   None    Shift=    0.000
 RMSDP=1.75D-08 MaxDP=7.77D-07 DE=-2.02D-10 OVMax= 8.36D-07

 Cycle   5  Pass 1  IDiag  1:
 RMSU=  7.97D-09    CP:  1.00D+00  1.10D+00  1.20D+00  1.12D+00
 FoFJK:  IHMeth= 1 ICntrl=     0 DoSepK=T KAlg= 1 I1Cent= 0 FoldK=F
 E= -2753.47778091332     Delta-E=       -0.000000000005 Rises=F Damp=F
 DIIS: error= 3.40D-08 at cycle   5 NSaved=   5.
 NSaved= 5 IEnMin= 5 EnMin= -2753.47778091332     IErMin= 5 ErrMin= 3.40D-08
 ErrMax= 3.40D-08 EMaxC= 1.00D-01 BMatC= 2.76D-13 BMatP= 8.46D-12
 IDIUse=1 WtCom= 1.00D+00 WtEn= 0.00D+00
 Coeff-Com: -0.982D-05 0.566D-02-0.541D-01 0.114D-01 0.104D+01
 Coeff:     -0.982D-05 0.566D-02-0.541D-01 0.114D-01 0.104D+01
 Gap=     0.555 Goal=   None    Shift=    0.000
 RMSDP=8.07D-09 MaxDP=4.69D-07 DE=-5.00D-12 OVMax= 3.82D-07

 SCF Done:  E(RLC-wPBE) =  -2753.47778091     A.U. after    5 cycles
             Convg  =    0.8074D-08             -V/T =  2.0014
 KE= 2.749554869094D+03 PE=-6.579092756083D+03 EE= 1.076060106075D+03
 Leave Link  502 at Fri May  8 02:04:00 2020, MaxMem= 1073741824 cpu:      88.9
 (Enter /home/matheus/.gaussian/g09/l122.exe)
 Restoring MOs from calculation   4 to rwf.
 Counterpoise: doing MCBS calculation for fragment   1
 Leave Link  122 at Fri May  8 02:04:00 2020, MaxMem= 1073741824 cpu:       0.0
 (Enter /home/matheus/.gaussian/g09/l301.exe)
 Basis read from rwf:  (5D, 7F)
 No pseudopotential information found on rwf file.
 There are   138 symmetry adapted basis functions of A   symmetry.
 Integral buffers will be    131072 words long.
 Raffenetti 2 integral format.
 Two-electron integral symmetry is turned on.
   138 basis functions,   198 primitive gaussians,   160 cartesian basis functions
     9 alpha electrons        9 beta electrons
       nuclear repulsion energy        36.6087755249 Hartrees.
 IExCor=32609 DFT=T Ex+Corr=LC-wPBE ExCW=0 ScaHFX=  1.000000
 ScaDFX=  1.000000  0.000000  1.000000  1.000000 ScalE2=  1.000000  1.000000
 IRadAn=      5 IRanWt=     -1 IRanGd=            0 ICorTp=0
  HFx wShort=  0.000000 wLong=  0.550000 cFull=  0.000000 cShort=  0.000000 cLong=  1.000000
  DFx wShort=  0.000000 wLong=  0.550000 cFull=  0.000000 cShort=  0.000000 cLong=  1.000000
 NAtoms=    5 NActive=    4 NUniq=    4 SFac= 1.00D+00 NAtFMM=   60 NAOKFM=F Big=F
 No density basis found on file   718.
 Leave Link  301 at Fri May  8 02:04:00 2020, MaxMem= 1073741824 cpu:       0.2
 (Enter /home/matheus/.gaussian/g09/l302.exe)
 NPDir=0 NMtPBC=     1 NCelOv=     1 NCel=       1 NClECP=     1 NCelD=      1
         NCelK=      1 NCelE2=     1 NClLst=     1 CellRange=     0.0.
 One-electron integrals computed using PRISM.
 NBasis=   138 RedAO= T  NBF=   138
 NBsUse=   138 1.00D-06 NBFU=   138
 Precomputing XC quadrature grid using
 IXCGrd= 2 IRadAn=           5 IRanWt=          -1 IRanGd=           0 AccXCQ= 0.00D+00.
 NRdTot=     344 NPtTot=       92556 NUsed=       95038 NTot=       95070
 NSgBfM=   160   160   160   160   160 NAtAll=     4     4.
 Leave Link  302 at Fri May  8 02:04:00 2020, MaxMem= 1073741824 cpu:       0.7
 (Enter /home/matheus/.gaussian/g09/l303.exe)
 DipDrv:  MaxL=1.
 Leave Link  303 at Fri May  8 02:04:00 2020, MaxMem= 1073741824 cpu:       0.1
 (Enter /home/matheus/.gaussian/g09/l401.exe)
 Initial guess read from the read-write file.
 Guess basis will be translated and rotated to current coordinates.
 Initial guess orbital symmetries:
       Occupied  (A) (A) (A) (A) (A) (A) (A) (A) (A)
       Virtual   (A) (A) (A) (A) (A) (A) (A) (A) (A) (A) (A) (A)
                 (A) (A) (A) (A) (A) (A) (A) (A) (A) (A) (A) (A)
                 (A) (A) (A) (A) (A) (A) (A) (A) (A) (A) (A) (A)
                 (A) (A) (A) (A) (A) (A) (A) (A) (A) (A) (A) (A)
                 (A) (A) (A) (A) (A) (A) (A) (A) (A) (A) (A) (A)
                 (A) (A) (A) (A) (A) (A) (A) (A) (A) (A) (A) (A)
                 (A) (A) (A) (A) (A) (A) (A) (A) (A) (A) (A) (A)
                 (A) (A) (A) (A) (A) (A) (A) (A) (A) (A) (A) (A)
                 (A) (A) (A) (A) (A) (A) (A) (A) (A) (A) (A) (A)
                 (A) (A) (A) (A) (A) (A) (A) (A) (A) (A) (A) (A)
                 (A) (A) (A) (A) (A) (A) (A) (A) (A)
 The electronic state of the initial guess is 1-A.
 Generating alternative initial guess.
 Harris functional with IExCor=32609 diagonalized for initial guess.
 ExpMin= 2.53D-02 ExpMax= 1.53D+04 ExpMxC= 5.22D+02 IAcc=3 IRadAn=         5 AccDes= 0.00D+00
 HarFok:  IExCor=32609 AccDes= 0.00D+00 IRadAn=         5 IDoV= 1
 ScaDFX=  1.000000  1.000000  1.000000  1.000000
 FoFCou: FMM=F IPFlag=           0 FMFlag=      100000 FMFlg1=           0
         NFxFlg=           0 DoJE=T BraDBF=F KetDBF=T FulRan=T
         Omega=  0.000000  0.000000  1.000000  0.000000  0.000000 ICntrl=     500 IOpCl=  0
         NMat0=    1 NMatS0=    1 NMatT0=    0 NMatD0=    1 NMtDS0=    0 NMtDT0=    0
         I1Cent=           4 NGrid=           0.
 Petite list used in FoFCou.
 Harris En= -151.501379556677    
 Leave Link  401 at Fri May  8 02:04:01 2020, MaxMem= 1073741824 cpu:       2.3
 (Enter /home/matheus/.gaussian/g09/l502.exe)
 Closed shell SCF:
 Requested convergence on RMS density matrix=1.00D-08 within 128 cycles.
 Requested convergence on MAX density matrix=1.00D-06.
 Requested convergence on             energy=1.00D-06.
 No special actions if energy rises.
 Using DIIS extrapolation, IDIIS=  1040.
 Integral symmetry usage will be decided dynamically.
        94980 words used for storage of precomputed grid.
 IEnd=      192360 IEndB=      192360 NGot=  1073741824 MDV=  1073591865
 LenX=  1073591865 LenY=  1073565824
 Fock matrices will be formed incrementally for  20 cycles.

 Cycle   1  Pass 1  IDiag  1:
 FoFJK:  IHMeth= 1 ICntrl=     0 DoSepK=T KAlg= 1 I1Cent= 0 FoldK=F
 FoFCou: FMM=F IPFlag=           0 FMFlag=      100000 FMFlg1=           0
         NFxFlg=           0 DoJE=T BraDBF=F KetDBF=F FulRan=T
         Omega=  0.000000  0.000000  1.000000  0.000000  0.000000 ICntrl=     500 IOpCl=  0
         NMat0=    1 NMatS0=    1 NMatT0=    0 NMatD0=    1 NMtDS0=    0 NMtDT0=    0
         I1Cent=           0 NGrid=           0.
 Symmetry not used in FoFCou.
 E= -151.533132277480    
 DIIS: error= 2.00D-05 at cycle   1 NSaved=   1.
 NSaved= 1 IEnMin= 1 EnMin= -151.533132277480     IErMin= 1 ErrMin= 2.00D-05
 ErrMax= 2.00D-05 EMaxC= 1.00D-01 BMatC= 5.00D-08 BMatP= 5.00D-08
 IDIUse=1 WtCom= 1.00D+00 WtEn= 0.00D+00
 Coeff-Com:  0.100D+01
 Coeff:      0.100D+01
 Gap=     0.469 Goal=   None    Shift=    0.000
 RMSDP=1.18D-06 MaxDP=2.17D-05              OVMax= 7.01D-05

 Cycle   2  Pass 1  IDiag  1:
 RMSU=  8.31D-07    CP:  1.00D+00
 FoFJK:  IHMeth= 1 ICntrl=     0 DoSepK=T KAlg= 1 I1Cent= 0 FoldK=F
 E= -151.533132322477     Delta-E=       -0.000000044996 Rises=F Damp=F
 DIIS: error= 3.83D-06 at cycle   2 NSaved=   2.
 NSaved= 2 IEnMin= 2 EnMin= -151.533132322477     IErMin= 2 ErrMin= 3.83D-06
 ErrMax= 3.83D-06 EMaxC= 1.00D-01 BMatC= 2.01D-09 BMatP= 5.00D-08
 IDIUse=1 WtCom= 1.00D+00 WtEn= 0.00D+00
 Coeff-Com: -0.131D+00 0.113D+01
 Coeff:     -0.131D+00 0.113D+01
 Gap=     0.469 Goal=   None    Shift=    0.000
 RMSDP=4.00D-07 MaxDP=7.29D-06 DE=-4.50D-08 OVMax= 3.16D-05

 Cycle   3  Pass 1  IDiag  1:
 RMSU=  1.58D-07    CP:  1.00D+00  1.28D+00
 FoFJK:  IHMeth= 1 ICntrl=     0 DoSepK=T KAlg= 1 I1Cent= 0 FoldK=F
 E= -151.533132326962     Delta-E=       -0.000000004485 Rises=F Damp=F
 DIIS: error= 1.17D-06 at cycle   3 NSaved=   3.
 NSaved= 3 IEnMin= 3 EnMin= -151.533132326962     IErMin= 3 ErrMin= 1.17D-06
 ErrMax= 1.17D-06 EMaxC= 1.00D-01 BMatC= 2.39D-10 BMatP= 2.01D-09
 IDIUse=1 WtCom= 1.00D+00 WtEn= 0.00D+00
 Coeff-Com: -0.202D-01-0.305D-01 0.105D+01
 Coeff:     -0.202D-01-0.305D-01 0.105D+01
 Gap=     0.469 Goal=   None    Shift=    0.000
 RMSDP=1.45D-07 MaxDP=3.56D-06 DE=-4.49D-09 OVMax= 1.13D-05

 Cycle   4  Pass 1  IDiag  1:
 RMSU=  6.30D-08    CP:  1.00D+00  1.35D+00  1.34D+00
 FoFJK:  IHMeth= 1 ICntrl=     0 DoSepK=T KAlg= 1 I1Cent= 0 FoldK=F
 E= -151.533132327415     Delta-E=       -0.000000000453 Rises=F Damp=F
 DIIS: error= 8.99D-07 at cycle   4 NSaved=   4.
 NSaved= 4 IEnMin= 4 EnMin= -151.533132327415     IErMin= 4 ErrMin= 8.99D-07
 ErrMax= 8.99D-07 EMaxC= 1.00D-01 BMatC= 1.62D-10 BMatP= 2.39D-10
 IDIUse=1 WtCom= 1.00D+00 WtEn= 0.00D+00
 Coeff-Com:  0.107D-01-0.205D+00 0.552D+00 0.643D+00
 Coeff:      0.107D-01-0.205D+00 0.552D+00 0.643D+00
 Gap=     0.469 Goal=   None    Shift=    0.000
 RMSDP=6.31D-08 MaxDP=1.59D-06 DE=-4.53D-10 OVMax= 4.24D-06

 Cycle   5  Pass 1  IDiag  1:
 RMSU=  2.01D-08    CP:  1.00D+00  1.38D+00  1.54D+00  7.88D-01
 FoFJK:  IHMeth= 1 ICntrl=     0 DoSepK=T KAlg= 1 I1Cent= 0 FoldK=F
 E= -151.533132327568     Delta-E=       -0.000000000153 Rises=F Damp=F
 DIIS: error= 2.31D-07 at cycle   5 NSaved=   5.
 NSaved= 5 IEnMin= 5 EnMin= -151.533132327568     IErMin= 5 ErrMin= 2.31D-07
 ErrMax= 2.31D-07 EMaxC= 1.00D-01 BMatC= 5.72D-12 BMatP= 1.62D-10
 IDIUse=1 WtCom= 1.00D+00 WtEn= 0.00D+00
 Coeff-Com:  0.308D-02-0.132D-01-0.940D-01 0.446D-01 0.106D+01
 Coeff:      0.308D-02-0.132D-01-0.940D-01 0.446D-01 0.106D+01
 Gap=     0.469 Goal=   None    Shift=    0.000
 RMSDP=2.64D-08 MaxDP=4.11D-07 DE=-1.53D-10 OVMax= 2.38D-06

 Cycle   6  Pass 1  IDiag  1:
 RMSU=  7.41D-09    CP:  1.00D+00  1.38D+00  1.61D+00  9.27D-01  1.40D+00
 FoFJK:  IHMeth= 1 ICntrl=     0 DoSepK=T KAlg= 1 I1Cent= 0 FoldK=F
 E= -151.533132327583     Delta-E=       -0.000000000015 Rises=F Damp=F
 DIIS: error= 7.11D-08 at cycle   6 NSaved=   6.
 NSaved= 6 IEnMin= 6 EnMin= -151.533132327583     IErMin= 6 ErrMin= 7.11D-08
 ErrMax= 7.11D-08 EMaxC= 1.00D-01 BMatC= 7.15D-13 BMatP= 5.72D-12
 IDIUse=1 WtCom= 1.00D+00 WtEn= 0.00D+00
 Coeff-Com: -0.632D-03 0.181D-01-0.621D-01-0.546D-01 0.131D+00 0.968D+00
 Coeff:     -0.632D-03 0.181D-01-0.621D-01-0.546D-01 0.131D+00 0.968D+00
 Gap=     0.469 Goal=   None    Shift=    0.000
 RMSDP=9.67D-09 MaxDP=1.42D-07 DE=-1.54D-11 OVMax= 1.01D-06

 SCF Done:  E(RLC-wPBE) =  -151.533132328     A.U. after    6 cycles
             Convg  =    0.9674D-08             -V/T =  2.0071
 KE= 1.504646049402D+02 PE=-4.315416458506D+02 EE= 9.293513305797D+01
 Leave Link  502 at Fri May  8 02:04:06 2020, MaxMem= 1073741824 cpu:      44.7
 (Enter /home/matheus/.gaussian/g09/l122.exe)
 Restoring MOs from calculation   5 to rwf.
 Counterpoise: doing MCBS calculation for fragment   2
 Leave Link  122 at Fri May  8 02:04:06 2020, MaxMem= 1073741824 cpu:       0.0
 (Enter /home/matheus/.gaussian/g09/l301.exe)
 Basis read from rwf:  (5D, 7F)
 No pseudopotential information found on rwf file.
 There are    59 symmetry adapted basis functions of A   symmetry.
 Integral buffers will be    131072 words long.
 Raffenetti 2 integral format.
 Two-electron integral symmetry is turned on.
    59 basis functions,   217 primitive gaussians,    69 cartesian basis functions
    18 alpha electrons       18 beta electrons
       nuclear repulsion energy         0.0000000000 Hartrees.
 IExCor=32609 DFT=T Ex+Corr=LC-wPBE ExCW=0 ScaHFX=  1.000000
 ScaDFX=  1.000000  0.000000  1.000000  1.000000 ScalE2=  1.000000  1.000000
 IRadAn=      5 IRanWt=     -1 IRanGd=            0 ICorTp=0
  HFx wShort=  0.000000 wLong=  0.550000 cFull=  0.000000 cShort=  0.000000 cLong=  1.000000
  DFx wShort=  0.000000 wLong=  0.550000 cFull=  0.000000 cShort=  0.000000 cLong=  1.000000
 NAtoms=    5 NActive=    1 NUniq=    1 SFac= 1.00D+00 NAtFMM=   60 NAOKFM=F Big=F
 No density basis found on file   718.
 Leave Link  301 at Fri May  8 02:04:06 2020, MaxMem= 1073741824 cpu:       0.2
 (Enter /home/matheus/.gaussian/g09/l302.exe)
 NPDir=0 NMtPBC=     1 NCelOv=     1 NCel=       1 NClECP=     1 NCelD=      1
         NCelK=      1 NCelE2=     1 NClLst=     1 CellRange=     0.0.
 One-electron integrals computed using PRISM.
 NBasis=    59 RedAO= T  NBF=    59
 NBsUse=    59 1.00D-06 NBFU=    59
 Precomputing XC quadrature grid using
 IXCGrd= 2 IRadAn=           5 IRanWt=          -1 IRanGd=           0 AccXCQ= 0.00D+00.
 NRdTot=      81 NPtTot=       30352 NUsed=       30981 NTot=       31013
 NSgBfM=    69    69    69    69    69 NAtAll=     1     1.
 Leave Link  302 at Fri May  8 02:04:06 2020, MaxMem= 1073741824 cpu:       0.7
 (Enter /home/matheus/.gaussian/g09/l303.exe)
 DipDrv:  MaxL=1.
 Leave Link  303 at Fri May  8 02:04:06 2020, MaxMem= 1073741824 cpu:       0.1
 (Enter /home/matheus/.gaussian/g09/l401.exe)
 Initial guess read from the read-write file.
 Guess basis will be translated and rotated to current coordinates.
 Initial guess orbital symmetries:
       Occupied  (A) (A) (A) (A) (A) (A) (A) (A) (A) (A) (A) (A)
                 (A) (A) (A) (A) (A) (A)
       Virtual   (A) (A) (A) (A) (A) (A) (A) (A) (A) (A) (A) (A)
                 (A) (A) (A) (A) (A) (A) (A) (A) (A) (A) (A) (A)
                 (A) (A) (A) (A) (A) (A) (A) (A) (A) (A) (A) (A)
                 (A) (A) (A) (A) (A)
 The electronic state of the initial guess is 1-A.
 Generating alternative initial guess.
 Harris functional with IExCor=32609 diagonalized for initial guess.
 ExpMin= 4.00D-02 ExpMax= 1.17D+07 ExpMxC= 1.33D+04 IAcc=3 IRadAn=         5 AccDes= 0.00D+00
 HarFok:  IExCor=32609 AccDes= 0.00D+00 IRadAn=         5 IDoV= 1
 ScaDFX=  1.000000  1.000000  1.000000  1.000000
 FoFCou: FMM=F IPFlag=           0 FMFlag=      100000 FMFlg1=           0
         NFxFlg=           0 DoJE=T BraDBF=F KetDBF=T FulRan=T
         Omega=  0.000000  0.000000  1.000000  0.000000  0.000000 ICntrl=     500 IOpCl=  0
         NMat0=    1 NMatS0=    1 NMatT0=    0 NMatD0=    1 NMtDS0=    0 NMtDT0=    0
         I1Cent=           4 NGrid=           0.
 Petite list used in FoFCou.
 DSYEVD returned Info=          89 IAlg= 4 N=    59 NDim=    59 NE2=    18198841 trying DSYEV.
 Harris En= -2753.24576836237    
 Leave Link  401 at Fri May  8 02:04:07 2020, MaxMem= 1073741824 cpu:       1.1
 (Enter /home/matheus/.gaussian/g09/l502.exe)
 Closed shell SCF:
 Requested convergence on RMS density matrix=1.00D-08 within 128 cycles.
 Requested convergence on MAX density matrix=1.00D-06.
 Requested convergence on             energy=1.00D-06.
 No special actions if energy rises.
 Using DIIS extrapolation, IDIIS=  1040.
 Integral symmetry usage will be decided dynamically.
        30923 words used for storage of precomputed grid.
 IEnd=       64406 IEndB=       64406 NGot=  1073741824 MDV=  1073698889
 LenX=  1073698889 LenY=  1073693687
 Fock matrices will be formed incrementally for  20 cycles.

 Cycle   1  Pass 1  IDiag  1:
 FoFJK:  IHMeth= 1 ICntrl=     0 DoSepK=T KAlg= 1 I1Cent= 0 FoldK=F
 FoFCou: FMM=F IPFlag=           0 FMFlag=      100000 FMFlg1=           0
         NFxFlg=           0 DoJE=T BraDBF=F KetDBF=F FulRan=T
         Omega=  0.000000  0.000000  1.000000  0.000000  0.000000 ICntrl=     500 IOpCl=  0
         NMat0=    1 NMatS0=    1 NMatT0=    0 NMatD0=    1 NMtDS0=    0 NMtDT0=    0
         I1Cent=           0 NGrid=           0.
 Symmetry not used in FoFCou.
 E= -2753.47775989058    
 DIIS: error= 1.20D-13 at cycle   1 NSaved=   1.
 NSaved= 1 IEnMin= 1 EnMin= -2753.47775989058     IErMin= 1 ErrMin= 1.20D-13
 ErrMax= 1.20D-13 EMaxC= 1.00D-01 BMatC= 4.38D-25 BMatP= 4.38D-25
 IDIUse=1 WtCom= 1.00D+00 WtEn= 0.00D+00
 Coeff-Com:  0.100D+01
 Coeff:      0.100D+01
 Gap=     0.626 Goal=   None    Shift=    0.000
 DSYEVD returned Info=          89 IAlg= 4 N=    59 NDim=    59 NE2=    18198197 trying DSYEV.
 RMSDP=1.13D-14 MaxDP=2.84D-13              OVMax= 1.91D-14

 SCF Done:  E(RLC-wPBE) =  -2753.47775989     A.U. after    1 cycles
             Convg  =    0.1128D-13             -V/T =  2.0014
 KE= 2.749561508178D+03 PE=-6.579099712888D+03 EE= 1.076060444820D+03
 Leave Link  502 at Fri May  8 02:04:08 2020, MaxMem= 1073741824 cpu:      11.3
 (Enter /home/matheus/.gaussian/g09/l122.exe)
 Restoring MOs from calculation   1 to rwf.
 Counterpoise: corrected energy =   -2905.010914907528
 Counterpoise: BSSE energy =       0.000024543947
 Leave Link  122 at Fri May  8 02:04:08 2020, MaxMem= 1073741824 cpu:       0.0
 (Enter /home/matheus/.gaussian/g09/l108.exe)
 Scan completed.

 Summary of the potential surface scan:
   N      R1          SCF    
 ----  ---------  -----------
    1     3.0000  -2753.47776
    2     3.1000  -2753.47776
    3     3.2000  -2753.47776
    4     3.3000  -2753.47776
    5     3.4000  -2753.47776
    6     3.5000  -2753.47776
    7     3.6000  -2753.47776
    8     3.7000  -2753.47776
    9     3.8000  -2753.47776
   10     3.9000  -2753.47776
   11     4.0000  -2753.47776
   12     4.1000  -2753.47776
   13     4.2000  -2753.47776
   14     4.3000  -2753.47776
   15     4.4000  -2753.47776
   16     4.5000  -2753.47776
   17     4.6000  -2753.47776
   18     4.7000  -2753.47776
   19     4.8000  -2753.47776
   20     4.9000  -2753.47776
   21     5.0000  -2753.47776
 ----  ---------  -----------
  
 Leave Link  108 at Fri May  8 02:04:08 2020, MaxMem= 1073741824 cpu:       0.0
 (Enter /home/matheus/.gaussian/g09/l9999.exe)

 Test job not archived.
 1\1\GINC-REDGIANT\Scan\RLC-wPBE\Aug-CC-pVTZ\H2Kr1O2\MATHEUS\08-May-202
 0\1\\#p lc-wpbe/aug-cc-PVTz iop(3/107=0550000000) iop(3/108=0550000000
 ) int=ultrafine counterpoise=2 Scan\\TCC\\0,1\O,0,0.,0.,0.725\O,0,0.,0
 .,-0.725\H,0,-0.7037808064,-0.5905422151,1.0235104166\H,0,0.,0.9187205
 947,-1.0235104166\Kr,0,0.,R1,0.\\R1=3.,s,20,0.1\\Version=EM64L-G09RevC
 .01\State=1-A\HF=-2753.4777599,-2753.4777599,-2753.4777599,-2753.47775
 99,-2753.4777599,-2753.4777599,-2753.4777599,-2753.4777599,-2753.47775
 99,-2753.4777599,-2753.4777599,-2753.4777599,-2753.4777599,-2753.47775
 99,-2753.4777599,-2753.4777599,-2753.4777599,-2753.4777599,-2753.47775
 99,-2753.4777599,-2753.4777599\RMSD=1.997e-09,5.419e-11,1.020e-11,4.44
 3e-12,2.190e-12,1.223e-12,6.741e-13,3.734e-13,2.084e-13,1.173e-13,6.01
 5e-14,3.311e-14,1.913e-14,1.379e-14,9.615e-15,4.118e-15,5.356e-15,1.22
 0e-14,9.952e-15,9.832e-15,1.128e-14\PG=C01 [X(H2Kr1O2)]\\@


 IT WAS AN ACT OF DESPARATION. FOR SIX YEARS I HAD STRUGGLED WITH THE
 BLACKBODY THEORY. I KNEW THE PROBLEM WAS FUNDAMENTAL, AND I KNEW
 THE ANSWER. I HAD TO FIND A THEORETICAL EXPLANATION AT ANY COST,
 EXCEPT FOR THE INVIOLABLITY OF THE TWO LAWS OF THERMODYNAMICS.
   -- MAX PLANCK, 1931
 Job cpu time:  0 days  3 hours 10 minutes 11.5 seconds.
 File lengths (MBytes):  RWF=     33 Int=      0 D2E=      0 Chk=      8 Scr=      1
 Normal termination of Gaussian 09 at Fri May  8 02:04:08 2020.
