 Entering Gaussian System, Link 0=g09
 Input=/home/matheus/.tcc/Inputs-lc-wpbe/H2O2-Kr_20.com
 Output=/home/matheus/.tcc/Logs-lc-wpbe/H2O2-Kr_20.log
 Initial command:
 /home/matheus/.gaussian/g09/l1.exe /home/matheus/.gaussian/g09/scratch/Gau-3771.inp -scrdir=/home/matheus/.gaussian/g09/scratch/
 Entering Link 1 = /home/matheus/.gaussian/g09/l1.exe PID=      3774.
  
 Copyright (c) 1988,1990,1992,1993,1995,1998,2003,2009,2011,
            Gaussian, Inc.  All Rights Reserved.
  
 This is part of the Gaussian(R) 09 program.  It is based on
 the Gaussian(R) 03 system (copyright 2003, Gaussian, Inc.),
 the Gaussian(R) 98 system (copyright 1998, Gaussian, Inc.),
 the Gaussian(R) 94 system (copyright 1995, Gaussian, Inc.),
 the Gaussian 92(TM) system (copyright 1992, Gaussian, Inc.),
 the Gaussian 90(TM) system (copyright 1990, Gaussian, Inc.),
 the Gaussian 88(TM) system (copyright 1988, Gaussian, Inc.),
 the Gaussian 86(TM) system (copyright 1986, Carnegie Mellon
 University), and the Gaussian 82(TM) system (copyright 1983,
 Carnegie Mellon University). Gaussian is a federally registered
 trademark of Gaussian, Inc.
  
 This software contains proprietary and confidential information,
 including trade secrets, belonging to Gaussian, Inc.
  
 This software is provided under written license and may be
 used, copied, transmitted, or stored only in accord with that
 written license.
  
 The following legend is applicable only to US Government
 contracts under FAR:
  
                    RESTRICTED RIGHTS LEGEND
  
 Use, reproduction and disclosure by the US Government is
 subject to restrictions as set forth in subparagraphs (a)
 and (c) of the Commercial Computer Software - Restricted
 Rights clause in FAR 52.227-19.
  
 Gaussian, Inc.
 340 Quinnipiac St., Bldg. 40, Wallingford CT 06492
  
  
 ---------------------------------------------------------------
 Warning -- This program may not be used in any manner that
 competes with the business of Gaussian, Inc. or will provide
 assistance to any competitor of Gaussian, Inc.  The licensee
 of this program is prohibited from giving any competitor of
 Gaussian, Inc. access to this program.  By using this program,
 the user acknowledges that Gaussian, Inc. is engaged in the
 business of creating and licensing software in the field of
 computational chemistry and represents and warrants to the
 licensee that it is not a competitor of Gaussian, Inc. and that
 it will not use this program in any manner prohibited above.
 ---------------------------------------------------------------
  

 Cite this work as:
 Gaussian 09, Revision C.01,
 M. J. Frisch, G. W. Trucks, H. B. Schlegel, G. E. Scuseria, 
 M. A. Robb, J. R. Cheeseman, G. Scalmani, V. Barone, B. Mennucci, 
 G. A. Petersson, H. Nakatsuji, M. Caricato, X. Li, H. P. Hratchian, 
 A. F. Izmaylov, J. Bloino, G. Zheng, J. L. Sonnenberg, M. Hada, 
 M. Ehara, K. Toyota, R. Fukuda, J. Hasegawa, M. Ishida, T. Nakajima, 
 Y. Honda, O. Kitao, H. Nakai, T. Vreven, J. A. Montgomery, Jr., 
 J. E. Peralta, F. Ogliaro, M. Bearpark, J. J. Heyd, E. Brothers, 
 K. N. Kudin, V. N. Staroverov, T. Keith, R. Kobayashi, J. Normand, 
 K. Raghavachari, A. Rendell, J. C. Burant, S. S. Iyengar, J. Tomasi, 
 M. Cossi, N. Rega, J. M. Millam, M. Klene, J. E. Knox, J. B. Cross, 
 V. Bakken, C. Adamo, J. Jaramillo, R. Gomperts, R. E. Stratmann, 
 O. Yazyev, A. J. Austin, R. Cammi, C. Pomelli, J. W. Ochterski, 
 R. L. Martin, K. Morokuma, V. G. Zakrzewski, G. A. Voth, 
 P. Salvador, J. J. Dannenberg, S. Dapprich, A. D. Daniels, 
 O. Farkas, J. B. Foresman, J. V. Ortiz, J. Cioslowski, 
 and D. J. Fox, Gaussian, Inc., Wallingford CT, 2010.
 
 ******************************************
 Gaussian 09:  EM64L-G09RevC.01 23-Sep-2011
                 8-May-2020 
 ******************************************
 %mem=8GB
 %nproc=8
 Will use up to    8 processors via shared memory.
 ----------------------------------------------------------------------
 #p lc-wpbe/aug-cc-PVTz iop(3/107=0550000000) iop(3/108=0550000000) int
 =ultrafine counterpoise=2 Scan
 ----------------------------------------------------------------------
 1/38=1,60=1,62=2/1,8;
 2/12=2,17=6,18=5,29=3,40=1/2;
 1/38=1,53=5172,62=2/22;
 3/5=16,6=1,7=10,11=2,16=1,25=1,30=1,74=-41,75=-5,107=550000000,108=550000000/1,2,3;
 4//1;
 5/5=2,38=5/2;
 6/7=2,8=2,9=2,10=2,18=1,28=1/1;
 1/53=4052,62=2,63=1/22;
 3/5=7,6=11,7=10,11=2,16=1,25=1,30=1,74=-41,75=-5,82=7,107=550000000,108=550000000/1,2,3;
 4//1;
 5/5=2,38=5/2;
 6/7=2,8=2,9=2,10=2,18=1,28=1/1;
 1/53=3042,62=2,63=2/22;
 3/5=7,6=11,7=10,11=2,16=1,25=1,30=1,74=-41,75=-5,82=7,107=550000000,108=550000000/1,2,3;
 4//1;
 5/5=2,38=5/2;
 6/7=2,8=2,9=2,10=2,18=1,28=1/1;
 1/53=2032,62=2,63=3/22;
 3/5=7,6=11,7=10,11=2,16=1,25=1,30=1,74=-41,75=-5,82=7,107=550000000,108=550000000/1,2,3;
 4//1;
 5/5=2,38=5/2;
 6/7=2,8=2,9=2,10=2,18=1,28=1/1;
 1/53=1022,62=2,63=4/22;
 3/5=7,6=11,7=10,11=2,16=1,25=1,30=1,74=-41,75=-5,82=7,107=550000000,108=550000000/1,2,3;
 4//1;
 5/5=2,38=5/2;
 6/7=2,8=2,9=2,10=2,18=1,28=1/1;
 1/53=5014,62=2,63=5/22;
 1/60=1,62=2/8(1);
 99/9=1/99;
 2/29=3/2;
 1/53=5173,62=2/22;
 3/5=7,6=11,7=10,11=2,16=1,25=1,30=1,74=-41,75=-5,82=7,107=550000000,108=550000000/1,2,3;
 4/5=5,16=3/1;
 5/5=2,38=5/2;
 1/53=4053,62=2,63=1/22;
 3/5=7,6=11,7=10,11=2,16=1,25=1,30=1,74=-41,75=-5,82=7,107=550000000,108=550000000/1,2,3;
 4/5=5,16=3/1;
 5/5=2,38=5/2;
 1/53=3043,62=2,63=2/22;
 3/5=7,6=11,7=10,11=2,16=1,25=1,30=1,74=-41,75=-5,82=7,107=550000000,108=550000000/1,2,3;
 4/5=5,16=3/1;
 5/5=2,38=5/2;
 1/53=2033,62=2,63=3/22;
 3/5=7,6=11,7=10,11=2,16=1,25=1,30=1,74=-41,75=-5,82=7,107=550000000,108=550000000/1,2,3;
 4/5=5,16=3/1;
 5/5=2,38=5/2;
 1/53=1024,62=2,63=4/22;
 3/5=7,6=11,7=10,11=2,16=1,25=1,30=1,74=-41,75=-5,82=7,107=550000000,108=550000000/1,2,3;
 4/5=5,16=3/1;
 5/5=2,38=5/2;
 1/53=5014,62=2,63=5/22;
 1/60=1,62=2/8(-22);
 99/9=1/99;
 Leave Link    1 at Fri May  8 00:27:31 2020, MaxMem= 1073741824 cpu:       0.3
 (Enter /home/matheus/.gaussian/g09/l101.exe)
 ---
 TCC
 ---
 Charge =  0 Multiplicity = 1 in supermolecule
 Charge =  0 Multiplicity = 1 in fragment  1.
 Charge =  0 Multiplicity = 1 in fragment  2.
 Symbolic Z-Matrix:
 O(Fragment=1)         0.        0.        0.725 
 O(Fragment=1)         0.        0.       -0.725 
 H(Fragment=1)        -0.31422  -0.86331   1.02351 
 H(Fragment=1)         0.        0.91872  -1.02351 
 Kr(Fragment=2)        0.       R1        0. 
       Variables:
  R1                    3.     Scan 20    0.1    
 
 NAtoms=      5 NQM=        0 NQMF=       0 NMMI=      5 NMMIF=      0
                NMic=       0 NMicF=      0.
                    Isotopes and Nuclear Properties:
 (Nuclear quadrupole moments (NQMom) in fm**2, nuclear magnetic moments (NMagM)
  in nuclear magnetons)

  Atom         1           2           3           4           5
 IAtWgt=          16          16           1           1          84
 AtmWgt=  15.9949146  15.9949146   1.0078250   1.0078250  83.9115064
 NucSpn=           0           0           1           1           0
 AtZEff=   0.0000000   0.0000000   0.0000000   0.0000000   0.0000000
 NQMom=    0.0000000   0.0000000   0.0000000   0.0000000   0.0000000
 NMagM=    0.0000000   0.0000000   2.7928460   2.7928460   0.0000000
 Leave Link  101 at Fri May  8 00:27:31 2020, MaxMem= 1073741824 cpu:       0.3
 (Enter /home/matheus/.gaussian/g09/l108.exe)
 Scan the potential surface.
 Variable   Value     No. Steps Step-Size
 -------- ----------- --------- ---------
     1       3.000000      20      0.1000
 A total of     21 points will be computed.
 Leave Link  108 at Fri May  8 00:27:31 2020, MaxMem= 1073741824 cpu:       0.0
 (Enter /home/matheus/.gaussian/g09/l202.exe)
 ---------------------------------------------------------------------------------------------------
                            Z-MATRIX (ANGSTROMS AND DEGREES)
   CD    Cent   Atom    N1       Length/X        N2       Alpha/Y        N3        Beta/Z          J
 ---------------------------------------------------------------------------------------------------
      1      1  O        0   0.000000          0.000000          0.725000
      2      2  O        0   0.000000          0.000000         -0.725000
      3      3  H        0  -0.314221         -0.863315          1.023510
      4      4  H        0   0.000000          0.918721         -1.023510
      5      5  Kr       0   0.000000          3.000000          0.000000
 ---------------------------------------------------------------------------------------------------
                         Z-Matrix orientation:                         
 ---------------------------------------------------------------------
 Center     Atomic      Atomic             Coordinates (Angstroms)
 Number     Number       Type             X           Y           Z
 ---------------------------------------------------------------------
      1          8           0        0.000000    0.000000    0.725000
      2          8           0        0.000000    0.000000   -0.725000
      3          1           0       -0.314221   -0.863315    1.023510
      4          1           0        0.000000    0.918721   -1.023510
      5         36           0        0.000000    3.000000    0.000000
 ---------------------------------------------------------------------
                    Distance matrix (angstroms):
                    1          2          3          4          5
     1  O    0.000000
     2  O    1.450000   0.000000
     3  H    0.966000   1.975180   0.000000
     4  H    1.975180   0.966000   2.732157   0.000000
     5  Kr   3.086361   3.086361   4.008929   2.319331   0.000000
 Stoichiometry    H2KrO2
 Framework group  C1[X(H2KrO2)]
 Deg. of freedom     9
 Full point group                 C1      NOp   1
 Largest Abelian subgroup         C1      NOp   1
 Largest concise Abelian subgroup C1      NOp   1
                         Standard orientation:                         
 ---------------------------------------------------------------------
 Center     Atomic      Atomic             Coordinates (Angstroms)
 Number     Number       Type             X           Y           Z
 ---------------------------------------------------------------------
      1          8           0       -2.013955   -0.686971   -0.042678
      2          8           0       -1.987181    0.762152    0.000071
      3          1           0       -2.885209   -0.978373    0.255914
      4          1           0       -1.063137    1.043301    0.015982
      5         36           0        0.998818   -0.018511    0.001916
 ---------------------------------------------------------------------
 Rotational constants (GHZ):     26.5935251      2.3048996      2.1226538
 Leave Link  202 at Fri May  8 00:27:31 2020, MaxMem= 1073741824 cpu:       0.0
 (Enter /home/matheus/.gaussian/g09/l122.exe)
 Leave Link  122 at Fri May  8 00:27:31 2020, MaxMem= 1073741824 cpu:       0.0
 (Enter /home/matheus/.gaussian/g09/l301.exe)
 Standard basis: Aug-CC-pVTZ (5D, 7F)
 Ernie: Thresh=  0.10000D-02 Tol=  0.10000D-05 Strict=F.
 Ernie:  38 primitive shells out of 205 were deleted.
 There are   197 symmetry adapted basis functions of A   symmetry.
 Integral buffers will be    131072 words long.
 Raffenetti 2 integral format.
 Two-electron integral symmetry is turned on.
   197 basis functions,   415 primitive gaussians,   229 cartesian basis functions
    27 alpha electrons       27 beta electrons
       nuclear repulsion energy       148.3266950462 Hartrees.
 IExCor=32609 DFT=T Ex+Corr=LC-wPBE ExCW=0 ScaHFX=  1.000000
 ScaDFX=  1.000000  0.000000  1.000000  1.000000 ScalE2=  1.000000  1.000000
 IRadAn=      5 IRanWt=     -1 IRanGd=            0 ICorTp=0
  HFx wShort=  0.000000 wLong=  0.550000 cFull=  0.000000 cShort=  0.000000 cLong=  1.000000
  DFx wShort=  0.000000 wLong=  0.550000 cFull=  0.000000 cShort=  0.000000 cLong=  1.000000
 NAtoms=    5 NActive=    5 NUniq=    5 SFac= 1.00D+00 NAtFMM=   60 NAOKFM=F Big=F
 Leave Link  301 at Fri May  8 00:27:31 2020, MaxMem= 1073741824 cpu:       0.2
 (Enter /home/matheus/.gaussian/g09/l302.exe)
 NPDir=0 NMtPBC=     1 NCelOv=     1 NCel=       1 NClECP=     1 NCelD=      1
         NCelK=      1 NCelE2=     1 NClLst=     1 CellRange=     0.0.
 One-electron integrals computed using PRISM.
 NBasis=   197 RedAO= T  NBF=   197
 NBsUse=   197 1.00D-06 NBFU=   197
 Precomputing XC quadrature grid using
 IXCGrd= 2 IRadAn=           5 IRanWt=          -1 IRanGd=           0 AccXCQ= 0.00D+00.
 NRdTot=     427 NPtTot=      123814 NUsed=      126881 NTot=      126913
 NSgBfM=   229   229   229   229   229 NAtAll=     5     5.
 Leave Link  302 at Fri May  8 00:27:31 2020, MaxMem= 1073741824 cpu:       1.0
 (Enter /home/matheus/.gaussian/g09/l303.exe)
 DipDrv:  MaxL=1.
 Leave Link  303 at Fri May  8 00:27:31 2020, MaxMem= 1073741824 cpu:       0.2
 (Enter /home/matheus/.gaussian/g09/l401.exe)
 Harris functional with IExCor=32609 diagonalized for initial guess.
 ExpMin= 2.53D-02 ExpMax= 1.17D+07 ExpMxC= 1.33D+04 IAcc=3 IRadAn=         5 AccDes= 0.00D+00
 HarFok:  IExCor=32609 AccDes= 0.00D+00 IRadAn=         5 IDoV= 1
 ScaDFX=  1.000000  1.000000  1.000000  1.000000
 FoFCou: FMM=F IPFlag=           0 FMFlag=      100000 FMFlg1=           0
         NFxFlg=           0 DoJE=T BraDBF=F KetDBF=T FulRan=T
         Omega=  0.000000  0.000000  1.000000  0.000000  0.000000 ICntrl=     500 IOpCl=  0
         NMat0=    1 NMatS0=    1 NMatT0=    0 NMatD0=    1 NMtDS0=    0 NMtDT0=    0
         I1Cent=           4 NGrid=           0.
 Petite list used in FoFCou.
 Harris En= -2904.73694089148    
 Initial guess orbital symmetries:
       Occupied  (A) (A) (A) (A) (A) (A) (A) (A) (A) (A) (A) (A)
                 (A) (A) (A) (A) (A) (A) (A) (A) (A) (A) (A) (A)
                 (A) (A) (A)
       Virtual   (A) (A) (A) (A) (A) (A) (A) (A) (A) (A) (A) (A)
                 (A) (A) (A) (A) (A) (A) (A) (A) (A) (A) (A) (A)
                 (A) (A) (A) (A) (A) (A) (A) (A) (A) (A) (A) (A)
                 (A) (A) (A) (A) (A) (A) (A) (A) (A) (A) (A) (A)
                 (A) (A) (A) (A) (A) (A) (A) (A) (A) (A) (A) (A)
                 (A) (A) (A) (A) (A) (A) (A) (A) (A) (A) (A) (A)
                 (A) (A) (A) (A) (A) (A) (A) (A) (A) (A) (A) (A)
                 (A) (A) (A) (A) (A) (A) (A) (A) (A) (A) (A) (A)
                 (A) (A) (A) (A) (A) (A) (A) (A) (A) (A) (A) (A)
                 (A) (A) (A) (A) (A) (A) (A) (A) (A) (A) (A) (A)
                 (A) (A) (A) (A) (A) (A) (A) (A) (A) (A) (A) (A)
                 (A) (A) (A) (A) (A) (A) (A) (A) (A) (A) (A) (A)
                 (A) (A) (A) (A) (A) (A) (A) (A) (A) (A) (A) (A)
                 (A) (A) (A) (A) (A) (A) (A) (A) (A) (A) (A) (A)
                 (A) (A)
 The electronic state of the initial guess is 1-A.
 Leave Link  401 at Fri May  8 00:27:32 2020, MaxMem= 1073741824 cpu:       4.2
 (Enter /home/matheus/.gaussian/g09/l502.exe)
 Closed shell SCF:
 Requested convergence on RMS density matrix=1.00D-08 within 128 cycles.
 Requested convergence on MAX density matrix=1.00D-06.
 Requested convergence on             energy=1.00D-06.
 No special actions if energy rises.
 Using DIIS extrapolation, IDIIS=  1040.
 Integral symmetry usage will be decided dynamically.
       126823 words used for storage of precomputed grid.
 IEnd=      305770 IEndB=      305770 NGot=  1073741824 MDV=  1073505365
 LenX=  1073505365 LenY=  1073452483
 Fock matrices will be formed incrementally for  20 cycles.

 Cycle   1  Pass 1  IDiag  1:
 FoFJK:  IHMeth= 1 ICntrl=     0 DoSepK=T KAlg= 1 I1Cent= 0 FoldK=F
 FoFCou: FMM=F IPFlag=           0 FMFlag=      100000 FMFlg1=           0
         NFxFlg=           0 DoJE=T BraDBF=F KetDBF=F FulRan=T
         Omega=  0.000000  0.000000  1.000000  0.000000  0.000000 ICntrl=     500 IOpCl=  0
         NMat0=    1 NMatS0=    1 NMatT0=    0 NMatD0=    1 NMtDS0=    0 NMtDT0=    0
         I1Cent=           0 NGrid=           0.
 Symmetry not used in FoFCou.
 E= -2904.93151368374    
 DIIS: error= 2.91D-02 at cycle   1 NSaved=   1.
 NSaved= 1 IEnMin= 1 EnMin= -2904.93151368374     IErMin= 1 ErrMin= 2.91D-02
 ErrMax= 2.91D-02 EMaxC= 1.00D-01 BMatC= 2.67D-01 BMatP= 2.67D-01
 IDIUse=3 WtCom= 7.09D-01 WtEn= 2.91D-01
 Coeff-Com:  0.100D+01
 Coeff-En:   0.100D+01
 Coeff:      0.100D+01
 Gap=     0.537 Goal=   None    Shift=    0.000
 GapD=    0.537 DampG=2.000 DampE=0.500 DampFc=1.0000 IDamp=-1.
 RMSDP=2.23D-03 MaxDP=1.43D-01              OVMax= 6.14D-02

 Cycle   2  Pass 1  IDiag  1:
 RMSU=  1.56D-03    CP:  1.02D+00
 FoFJK:  IHMeth= 1 ICntrl=     0 DoSepK=T KAlg= 1 I1Cent= 0 FoldK=F
 E= -2904.98174292035     Delta-E=       -0.050229236611 Rises=F Damp=F
 DIIS: error= 1.16D-02 at cycle   2 NSaved=   2.
 NSaved= 2 IEnMin= 2 EnMin= -2904.98174292035     IErMin= 2 ErrMin= 1.16D-02
 ErrMax= 1.16D-02 EMaxC= 1.00D-01 BMatC= 6.67D-02 BMatP= 2.67D-01
 IDIUse=3 WtCom= 8.84D-01 WtEn= 1.16D-01
 Coeff-Com:  0.326D+00 0.674D+00
 Coeff-En:   0.810D-01 0.919D+00
 Coeff:      0.298D+00 0.702D+00
 Gap=     0.467 Goal=   None    Shift=    0.000
 RMSDP=8.76D-04 MaxDP=5.01D-02 DE=-5.02D-02 OVMax= 2.54D-02

 Cycle   3  Pass 1  IDiag  1:
 RMSU=  3.14D-04    CP:  1.01D+00  6.67D-01
 FoFJK:  IHMeth= 1 ICntrl=     0 DoSepK=T KAlg= 1 I1Cent= 0 FoldK=F
 E= -2905.00407111926     Delta-E=       -0.022328198905 Rises=F Damp=F
 DIIS: error= 1.73D-03 at cycle   3 NSaved=   3.
 NSaved= 3 IEnMin= 3 EnMin= -2905.00407111926     IErMin= 3 ErrMin= 1.73D-03
 ErrMax= 1.73D-03 EMaxC= 1.00D-01 BMatC= 1.32D-03 BMatP= 6.67D-02
 IDIUse=3 WtCom= 9.83D-01 WtEn= 1.73D-02
 Coeff-Com:  0.363D-01 0.164D+00 0.800D+00
 Coeff-En:   0.000D+00 0.000D+00 0.100D+01
 Coeff:      0.356D-01 0.161D+00 0.803D+00
 Gap=     0.451 Goal=   None    Shift=    0.000
 RMSDP=9.59D-05 MaxDP=3.18D-03 DE=-2.23D-02 OVMax= 5.73D-03

 Cycle   4  Pass 1  IDiag  1:
 RMSU=  4.61D-05    CP:  1.01D+00  6.98D-01  9.62D-01
 FoFJK:  IHMeth= 1 ICntrl=     0 DoSepK=T KAlg= 1 I1Cent= 0 FoldK=F
 E= -2905.00471297971     Delta-E=       -0.000641860457 Rises=F Damp=F
 DIIS: error= 4.61D-04 at cycle   4 NSaved=   4.
 NSaved= 4 IEnMin= 4 EnMin= -2905.00471297971     IErMin= 4 ErrMin= 4.61D-04
 ErrMax= 4.61D-04 EMaxC= 1.00D-01 BMatC= 7.58D-05 BMatP= 1.32D-03
 IDIUse=3 WtCom= 9.95D-01 WtEn= 4.61D-03
 Coeff-Com: -0.568D-02 0.194D-01 0.269D+00 0.717D+00
 Coeff-En:   0.000D+00 0.000D+00 0.000D+00 0.100D+01
 Coeff:     -0.566D-02 0.194D-01 0.268D+00 0.718D+00
 Gap=     0.455 Goal=   None    Shift=    0.000
 RMSDP=2.87D-05 MaxDP=1.76D-03 DE=-6.42D-04 OVMax= 1.67D-03

 Cycle   5  Pass 1  IDiag  1:
 RMSU=  1.26D-05    CP:  1.01D+00  7.01D-01  1.01D+00  8.67D-01
 FoFJK:  IHMeth= 1 ICntrl=     0 DoSepK=T KAlg= 1 I1Cent= 0 FoldK=F
 E= -2905.00475910713     Delta-E=       -0.000046127417 Rises=F Damp=F
 DIIS: error= 6.53D-05 at cycle   5 NSaved=   5.
 NSaved= 5 IEnMin= 5 EnMin= -2905.00475910713     IErMin= 5 ErrMin= 6.53D-05
 ErrMax= 6.53D-05 EMaxC= 1.00D-01 BMatC= 2.27D-06 BMatP= 7.58D-05
 IDIUse=1 WtCom= 1.00D+00 WtEn= 0.00D+00
 Coeff-Com: -0.223D-02-0.511D-02-0.264D-02 0.110D+00 0.900D+00
 Coeff:     -0.223D-02-0.511D-02-0.264D-02 0.110D+00 0.900D+00
 Gap=     0.455 Goal=   None    Shift=    0.000
 RMSDP=6.67D-06 MaxDP=2.02D-04 DE=-4.61D-05 OVMax= 4.83D-04

 Cycle   6  Pass 1  IDiag  1:
 RMSU=  3.40D-06    CP:  1.01D+00  7.01D-01  1.01D+00  9.26D-01  1.09D+00
 FoFJK:  IHMeth= 1 ICntrl=     0 DoSepK=T KAlg= 1 I1Cent= 0 FoldK=F
 E= -2905.00476108097     Delta-E=       -0.000001973842 Rises=F Damp=F
 DIIS: error= 5.18D-05 at cycle   6 NSaved=   6.
 NSaved= 6 IEnMin= 6 EnMin= -2905.00476108097     IErMin= 6 ErrMin= 5.18D-05
 ErrMax= 5.18D-05 EMaxC= 1.00D-01 BMatC= 6.80D-07 BMatP= 2.27D-06
 IDIUse=1 WtCom= 1.00D+00 WtEn= 0.00D+00
 Coeff-Com: -0.365D-03-0.422D-02-0.288D-01-0.238D-01 0.374D+00 0.683D+00
 Coeff:     -0.365D-03-0.422D-02-0.288D-01-0.238D-01 0.374D+00 0.683D+00
 Gap=     0.455 Goal=   None    Shift=    0.000
 RMSDP=2.89D-06 MaxDP=1.39D-04 DE=-1.97D-06 OVMax= 2.15D-04

 Cycle   7  Pass 1  IDiag  1:
 RMSU=  1.45D-06    CP:  1.01D+00  7.01D-01  1.01D+00  9.41D-01  1.18D+00
                    CP:  8.96D-01
 FoFJK:  IHMeth= 1 ICntrl=     0 DoSepK=T KAlg= 1 I1Cent= 0 FoldK=F
 E= -2905.00476161759     Delta-E=       -0.000000536617 Rises=F Damp=F
 DIIS: error= 1.78D-05 at cycle   7 NSaved=   7.
 NSaved= 7 IEnMin= 7 EnMin= -2905.00476161759     IErMin= 7 ErrMin= 1.78D-05
 ErrMax= 1.78D-05 EMaxC= 1.00D-01 BMatC= 6.85D-08 BMatP= 6.80D-07
 IDIUse=1 WtCom= 1.00D+00 WtEn= 0.00D+00
 Coeff-Com:  0.129D-03-0.802D-03-0.915D-02-0.218D-01-0.493D-02 0.240D+00
 Coeff-Com:  0.796D+00
 Coeff:      0.129D-03-0.802D-03-0.915D-02-0.218D-01-0.493D-02 0.240D+00
 Coeff:      0.796D+00
 Gap=     0.455 Goal=   None    Shift=    0.000
 RMSDP=1.14D-06 MaxDP=4.79D-05 DE=-5.37D-07 OVMax= 9.72D-05

 Cycle   8  Pass 1  IDiag  1:
 RMSU=  4.45D-07    CP:  1.01D+00  7.01D-01  1.01D+00  9.46D-01  1.21D+00
                    CP:  1.02D+00  9.53D-01
 FoFJK:  IHMeth= 1 ICntrl=     0 DoSepK=T KAlg= 1 I1Cent= 0 FoldK=F
 E= -2905.00476168105     Delta-E=       -0.000000063456 Rises=F Damp=F
 DIIS: error= 3.00D-06 at cycle   8 NSaved=   8.
 NSaved= 8 IEnMin= 8 EnMin= -2905.00476168105     IErMin= 8 ErrMin= 3.00D-06
 ErrMax= 3.00D-06 EMaxC= 1.00D-01 BMatC= 2.13D-09 BMatP= 6.85D-08
 IDIUse=1 WtCom= 1.00D+00 WtEn= 0.00D+00
 Coeff-Com:  0.192D-04 0.485D-03 0.374D-02 0.531D-02-0.270D-01-0.100D+00
 Coeff-Com: -0.148D+00 0.127D+01
 Coeff:      0.192D-04 0.485D-03 0.374D-02 0.531D-02-0.270D-01-0.100D+00
 Coeff:     -0.148D+00 0.127D+01
 Gap=     0.455 Goal=   None    Shift=    0.000
 RMSDP=4.73D-07 MaxDP=1.52D-05 DE=-6.35D-08 OVMax= 5.11D-05

 Cycle   9  Pass 1  IDiag  1:
 RMSU=  1.15D-07    CP:  1.01D+00  7.01D-01  1.01D+00  9.48D-01  1.22D+00
                    CP:  1.04D+00  1.02D+00  1.52D+00
 FoFJK:  IHMeth= 1 ICntrl=     0 DoSepK=T KAlg= 1 I1Cent= 0 FoldK=F
 E= -2905.00476168757     Delta-E=       -0.000000006523 Rises=F Damp=F
 DIIS: error= 5.63D-07 at cycle   9 NSaved=   9.
 NSaved= 9 IEnMin= 9 EnMin= -2905.00476168757     IErMin= 9 ErrMin= 5.63D-07
 ErrMax= 5.63D-07 EMaxC= 1.00D-01 BMatC= 5.76D-11 BMatP= 2.13D-09
 IDIUse=1 WtCom= 1.00D+00 WtEn= 0.00D+00
 Coeff-Com: -0.726D-05-0.223D-04-0.755D-04 0.228D-03 0.346D-02 0.315D-03
 Coeff-Com: -0.157D-01-0.123D+00 0.113D+01
 Coeff:     -0.726D-05-0.223D-04-0.755D-04 0.228D-03 0.346D-02 0.315D-03
 Coeff:     -0.157D-01-0.123D+00 0.113D+01
 Gap=     0.455 Goal=   None    Shift=    0.000
 RMSDP=1.09D-07 MaxDP=6.60D-06 DE=-6.52D-09 OVMax= 8.35D-06

 Cycle  10  Pass 1  IDiag  1:
 RMSU=  2.55D-08    CP:  1.01D+00  7.01D-01  1.01D+00  9.48D-01  1.22D+00
                    CP:  1.04D+00  1.02D+00  1.62D+00  1.30D+00
 FoFJK:  IHMeth= 1 ICntrl=     0 DoSepK=T KAlg= 1 I1Cent= 0 FoldK=F
 E= -2905.00476168780     Delta-E=       -0.000000000228 Rises=F Damp=F
 DIIS: error= 1.97D-07 at cycle  10 NSaved=  10.
 NSaved=10 IEnMin=10 EnMin= -2905.00476168780     IErMin=10 ErrMin= 1.97D-07
 ErrMax= 1.97D-07 EMaxC= 1.00D-01 BMatC= 5.48D-12 BMatP= 5.76D-11
 IDIUse=1 WtCom= 1.00D+00 WtEn= 0.00D+00
 Coeff-Com: -0.294D-06-0.203D-04-0.164D-03-0.305D-03 0.117D-02 0.475D-02
 Coeff-Com:  0.817D-02-0.592D-01-0.667D-01 0.111D+01
 Coeff:     -0.294D-06-0.203D-04-0.164D-03-0.305D-03 0.117D-02 0.475D-02
 Coeff:      0.817D-02-0.592D-01-0.667D-01 0.111D+01
 Gap=     0.455 Goal=   None    Shift=    0.000
 RMSDP=3.08D-08 MaxDP=1.70D-06 DE=-2.28D-10 OVMax= 2.95D-06

 Cycle  11  Pass 1  IDiag  1:
 RMSU=  7.88D-09    CP:  1.01D+00  7.01D-01  1.01D+00  9.48D-01  1.22D+00
                    CP:  1.04D+00  1.02D+00  1.64D+00  1.39D+00  1.40D+00
 FoFJK:  IHMeth= 1 ICntrl=     0 DoSepK=T KAlg= 1 I1Cent= 0 FoldK=F
 E= -2905.00476168782     Delta-E=       -0.000000000019 Rises=F Damp=F
 DIIS: error= 9.93D-08 at cycle  11 NSaved=  11.
 NSaved=11 IEnMin=11 EnMin= -2905.00476168782     IErMin=11 ErrMin= 9.93D-08
 ErrMax= 9.93D-08 EMaxC= 1.00D-01 BMatC= 8.18D-13 BMatP= 5.48D-12
 IDIUse=1 WtCom= 1.00D+00 WtEn= 0.00D+00
 Coeff-Com:  0.667D-06 0.503D-05 0.335D-04 0.190D-04-0.514D-03-0.723D-03
 Coeff-Com:  0.675D-03 0.195D-01-0.899D-01-0.194D+00 0.126D+01
 Coeff:      0.667D-06 0.503D-05 0.335D-04 0.190D-04-0.514D-03-0.723D-03
 Coeff:      0.675D-03 0.195D-01-0.899D-01-0.194D+00 0.126D+01
 Gap=     0.455 Goal=   None    Shift=    0.000
 RMSDP=1.25D-08 MaxDP=2.77D-07 DE=-1.86D-11 OVMax= 1.79D-06

 Cycle  12  Pass 1  IDiag  1:
 RMSU=  3.05D-09    CP:  1.01D+00  7.01D-01  1.01D+00  9.48D-01  1.22D+00
                    CP:  1.04D+00  1.02D+00  1.64D+00  1.41D+00  1.63D+00
                    CP:  1.65D+00
 FoFJK:  IHMeth= 1 ICntrl=     0 DoSepK=T KAlg= 1 I1Cent= 0 FoldK=F
 E= -2905.00476168783     Delta-E=       -0.000000000015 Rises=F Damp=F
 DIIS: error= 3.64D-08 at cycle  12 NSaved=  12.
 NSaved=12 IEnMin=12 EnMin= -2905.00476168783     IErMin=12 ErrMin= 3.64D-08
 ErrMax= 3.64D-08 EMaxC= 1.00D-01 BMatC= 1.48D-13 BMatP= 8.18D-13
 IDIUse=1 WtCom= 1.00D+00 WtEn= 0.00D+00
 Coeff-Com: -0.313D-07 0.353D-05 0.296D-04 0.623D-04-0.205D-03-0.915D-03
 Coeff-Com: -0.155D-02 0.103D-01 0.214D-01-0.197D+00-0.874D-01 0.126D+01
 Coeff:     -0.313D-07 0.353D-05 0.296D-04 0.623D-04-0.205D-03-0.915D-03
 Coeff:     -0.155D-02 0.103D-01 0.214D-01-0.197D+00-0.874D-01 0.126D+01
 Gap=     0.455 Goal=   None    Shift=    0.000
 RMSDP=6.36D-09 MaxDP=1.47D-07 DE=-1.50D-11 OVMax= 9.60D-07

 SCF Done:  E(RLC-wPBE) =  -2905.00476169     A.U. after   12 cycles
             Convg  =    0.6357D-08             -V/T =  2.0017
 KE= 2.900026632763D+03 PE=-7.233778153513D+03 EE= 1.280420064016D+03
 Leave Link  502 at Fri May  8 00:28:13 2020, MaxMem= 1073741824 cpu:     330.2
 (Enter /home/matheus/.gaussian/g09/l601.exe)
 Copying SCF densities to generalized density rwf, IOpCl= 0 IROHF=0.

 **********************************************************************

            Population analysis using the SCF density.

 **********************************************************************

 Orbital symmetries:
       Occupied  (A) (A) (A) (A) (A) (A) (A) (A) (A) (A) (A) (A)
                 (A) (A) (A) (A) (A) (A) (A) (A) (A) (A) (A) (A)
                 (A) (A) (A)
       Virtual   (A) (A) (A) (A) (A) (A) (A) (A) (A) (A) (A) (A)
                 (A) (A) (A) (A) (A) (A) (A) (A) (A) (A) (A) (A)
                 (A) (A) (A) (A) (A) (A) (A) (A) (A) (A) (A) (A)
                 (A) (A) (A) (A) (A) (A) (A) (A) (A) (A) (A) (A)
                 (A) (A) (A) (A) (A) (A) (A) (A) (A) (A) (A) (A)
                 (A) (A) (A) (A) (A) (A) (A) (A) (A) (A) (A) (A)
                 (A) (A) (A) (A) (A) (A) (A) (A) (A) (A) (A) (A)
                 (A) (A) (A) (A) (A) (A) (A) (A) (A) (A) (A) (A)
                 (A) (A) (A) (A) (A) (A) (A) (A) (A) (A) (A) (A)
                 (A) (A) (A) (A) (A) (A) (A) (A) (A) (A) (A) (A)
                 (A) (A) (A) (A) (A) (A) (A) (A) (A) (A) (A) (A)
                 (A) (A) (A) (A) (A) (A) (A) (A) (A) (A) (A) (A)
                 (A) (A) (A) (A) (A) (A) (A) (A) (A) (A) (A) (A)
                 (A) (A) (A) (A) (A) (A) (A) (A) (A) (A) (A) (A)
                 (A) (A)
 The electronic state is 1-A.
 Alpha  occ. eigenvalues -- -511.19445 -66.74283 -60.40404 -60.40385 -60.40376
 Alpha  occ. eigenvalues --  -19.11017 -19.10649  -9.67853  -7.42150  -7.42092
 Alpha  occ. eigenvalues --   -7.42069  -3.36549  -3.36537  -3.36521  -3.36478
 Alpha  occ. eigenvalues --   -3.36476  -1.31854  -1.10250  -1.09181  -0.69865
 Alpha  occ. eigenvalues --   -0.67320  -0.57865  -0.54226  -0.53499  -0.52996
 Alpha  occ. eigenvalues --   -0.50035  -0.42119
 Alpha virt. eigenvalues --    0.03397   0.04256   0.08467   0.10307   0.11042
 Alpha virt. eigenvalues --    0.11447   0.13851   0.15195   0.16886   0.17529
 Alpha virt. eigenvalues --    0.19284   0.20765   0.20819   0.23951   0.24515
 Alpha virt. eigenvalues --    0.25570   0.27599   0.29791   0.31650   0.34831
 Alpha virt. eigenvalues --    0.35018   0.35116   0.37475   0.40090   0.41324
 Alpha virt. eigenvalues --    0.41950   0.43594   0.49655   0.54075   0.56621
 Alpha virt. eigenvalues --    0.58674   0.61173   0.65926   0.67221   0.70998
 Alpha virt. eigenvalues --    0.73028   0.74033   0.74667   0.76059   0.77812
 Alpha virt. eigenvalues --    0.78788   0.79708   0.81032   0.81783   0.83692
 Alpha virt. eigenvalues --    0.86272   0.87124   0.89835   0.90928   0.93652
 Alpha virt. eigenvalues --    0.94406   0.96584   0.97647   0.99935   1.01880
 Alpha virt. eigenvalues --    1.05116   1.06157   1.07478   1.09289   1.11705
 Alpha virt. eigenvalues --    1.14683   1.15995   1.19010   1.20390   1.22198
 Alpha virt. eigenvalues --    1.29950   1.34128   1.38275   1.42868   1.43872
 Alpha virt. eigenvalues --    1.49258   1.54720   1.54986   1.58742   1.62758
 Alpha virt. eigenvalues --    1.65474   1.80521   1.83883   1.88691   1.97433
 Alpha virt. eigenvalues --    2.02713   2.03711   2.07220   2.17198   2.18434
 Alpha virt. eigenvalues --    2.19192   2.22527   2.23241   2.23828   2.29089
 Alpha virt. eigenvalues --    2.31806   2.33664   2.35543   2.36874   2.38287
 Alpha virt. eigenvalues --    2.41969   2.43225   2.48771   2.51854   2.53792
 Alpha virt. eigenvalues --    2.53854   2.55014   2.58060   2.59095   2.61165
 Alpha virt. eigenvalues --    2.63981   2.66484   2.70274   2.71851   2.73951
 Alpha virt. eigenvalues --    2.76458   2.78642   2.81232   2.88283   2.93343
 Alpha virt. eigenvalues --    3.00090   3.10847   3.13547   3.19729   3.58798
 Alpha virt. eigenvalues --    3.77021   3.88400   3.97543   4.07973   4.09525
 Alpha virt. eigenvalues --    4.15783   4.20347   4.22499   4.27078   4.29921
 Alpha virt. eigenvalues --    4.45419   4.49328   4.57253   4.58337   4.77310
 Alpha virt. eigenvalues --    4.96339   5.04799   5.08239   5.11176   5.14731
 Alpha virt. eigenvalues --    5.40365   5.47885   5.87615   6.04275   6.12163
 Alpha virt. eigenvalues --    6.17564   6.36429   6.39752   6.46978   6.53552
 Alpha virt. eigenvalues --    6.74371   6.75414   6.79292   6.85835   6.90791
 Alpha virt. eigenvalues --    6.92254   6.96323   6.97677   6.99709   7.03103
 Alpha virt. eigenvalues --    7.07157   7.26971   7.29195   7.42931   7.67585
 Alpha virt. eigenvalues --    7.87636   8.13066   8.17558  14.07829  14.56351
          Condensed to atoms (all electrons):
              1          2          3          4          5
     1  O    8.188070  -0.181466   0.207118  -0.000414  -0.032165
     2  O   -0.181466   8.218419   0.007622   0.220330  -0.008924
     3  H    0.207118   0.007622   0.582745   0.003359   0.003301
     4  H   -0.000414   0.220330   0.003359   0.552918  -0.015032
     5  Kr  -0.032165  -0.008924   0.003301  -0.015032  36.050391
 Mulliken atomic charges:
              1
     1  O   -0.181143
     2  O   -0.255981
     3  H    0.195855
     4  H    0.238839
     5  Kr   0.002429
 Sum of Mulliken atomic charges =   0.00000
 Mulliken charges with hydrogens summed into heavy atoms:
              1
     1  O    0.014713
     2  O   -0.017141
     5  Kr   0.002429
 Sum of Mulliken charges with hydrogens summed into heavy atoms =   0.00000
          Condensed to fragments (all electrons):
     1      -0.002429
     2       0.002429
 Electronic spatial extent (au):  <R**2>=            491.6313
 Charge=              0.0000 electrons
 Dipole moment (field-independent basis, Debye):
    X=              0.2621    Y=             -0.2994    Z=              0.5565  Tot=              0.6841
 Quadrupole moment (field-independent basis, Debye-Ang):
   XX=            -26.5179   YY=            -28.1869   ZZ=            -30.3169
   XY=              3.9124   XZ=             -1.7499   YZ=             -0.5862
 Traceless Quadrupole moment (field-independent basis, Debye-Ang):
   XX=              1.8226   YY=              0.1537   ZZ=             -1.9763
   XY=              3.9124   XZ=             -1.7499   YZ=             -0.5862
 Octapole moment (field-independent basis, Debye-Ang**2):
  XXX=              1.3799  YYY=             -0.6652  ZZZ=              0.2405  XYY=              4.3432
  XXY=            -16.4081  XXZ=              5.2376  XZZ=              8.1672  YZZ=             -0.4683
  YYZ=              0.7000  XYZ=              1.8134
 Hexadecapole moment (field-independent basis, Debye-Ang**3):
 XXXX=           -344.7526 YYYY=            -63.2345 ZZZZ=            -29.0120 XXXY=             51.3641
 XXXZ=            -15.9040 YYYX=              5.7491 YYYZ=             -0.7331 ZZZX=             -0.7782
 ZZZY=             -0.3416 XXYY=            -74.7405 XXZZ=            -78.2720 YYZZ=            -17.1218
 XXYZ=             -5.4625 YYXZ=             -2.0375 ZZXY=              0.8552
 N-N= 1.483266950462D+02 E-N=-7.233778153203D+03  KE= 2.900026632763D+03
 No NMR shielding tensors so no spin-rotation constants.
 Leave Link  601 at Fri May  8 00:28:13 2020, MaxMem= 1073741824 cpu:       0.8
 (Enter /home/matheus/.gaussian/g09/l122.exe)
 Counterpoise: doing DCBS calculation for fragment   1 NewBq=T
 Leave Link  122 at Fri May  8 00:28:13 2020, MaxMem= 1073741824 cpu:       0.0
 (Enter /home/matheus/.gaussian/g09/l301.exe)
 Basis read from rwf:  (5D, 7F)
 No pseudopotential information found on rwf file.
 There are   197 symmetry adapted basis functions of A   symmetry.
 Integral buffers will be    131072 words long.
 Raffenetti 2 integral format.
 Two-electron integral symmetry is turned on.
   197 basis functions,   415 primitive gaussians,   229 cartesian basis functions
     9 alpha electrons        9 beta electrons
       nuclear repulsion energy        36.6019262901 Hartrees.
 IExCor=32609 DFT=T Ex+Corr=LC-wPBE ExCW=0 ScaHFX=  1.000000
 ScaDFX=  1.000000  0.000000  1.000000  1.000000 ScalE2=  1.000000  1.000000
 IRadAn=      5 IRanWt=     -1 IRanGd=            0 ICorTp=0
  HFx wShort=  0.000000 wLong=  0.550000 cFull=  0.000000 cShort=  0.000000 cLong=  1.000000
  DFx wShort=  0.000000 wLong=  0.550000 cFull=  0.000000 cShort=  0.000000 cLong=  1.000000
 NAtoms=    5 NActive=    5 NUniq=    5 SFac= 1.00D+00 NAtFMM=   60 NAOKFM=F Big=F
 No density basis found on file   718.
 Leave Link  301 at Fri May  8 00:28:13 2020, MaxMem= 1073741824 cpu:       0.2
 (Enter /home/matheus/.gaussian/g09/l302.exe)
 NPDir=0 NMtPBC=     1 NCelOv=     1 NCel=       1 NClECP=     1 NCelD=      1
         NCelK=      1 NCelE2=     1 NClLst=     1 CellRange=     0.0.
 One-electron integrals computed using PRISM.
 NBasis=   197 RedAO= T  NBF=   197
 NBsUse=   197 1.00D-06 NBFU=   197
 Precomputing XC quadrature grid using
 IXCGrd= 2 IRadAn=           5 IRanWt=          -1 IRanGd=           0 AccXCQ= 0.00D+00.
 NRdTot=     427 NPtTot=      123814 NUsed=      126881 NTot=      126913
 NSgBfM=   229   229   229   229   229 NAtAll=     5     5.
 Leave Link  302 at Fri May  8 00:28:14 2020, MaxMem= 1073741824 cpu:       1.0
 (Enter /home/matheus/.gaussian/g09/l303.exe)
 DipDrv:  MaxL=1.
 Leave Link  303 at Fri May  8 00:28:14 2020, MaxMem= 1073741824 cpu:       0.2
 (Enter /home/matheus/.gaussian/g09/l401.exe)
 Harris functional with IExCor=32609 diagonalized for initial guess.
 ExpMin= 2.53D-02 ExpMax= 1.17D+07 ExpMxC= 1.33D+04 IAcc=3 IRadAn=         5 AccDes= 0.00D+00
 HarFok:  IExCor=32609 AccDes= 0.00D+00 IRadAn=         5 IDoV= 1
 ScaDFX=  1.000000  1.000000  1.000000  1.000000
 FoFCou: FMM=F IPFlag=           0 FMFlag=      100000 FMFlg1=           0
         NFxFlg=           0 DoJE=T BraDBF=F KetDBF=T FulRan=T
         Omega=  0.000000  0.000000  1.000000  0.000000  0.000000 ICntrl=     500 IOpCl=  0
         NMat0=    1 NMatS0=    1 NMatT0=    0 NMatD0=    1 NMtDS0=    0 NMtDT0=    0
         I1Cent=           4 NGrid=           0.
 Petite list used in FoFCou.
 Harris En= -151.499937676496    
 Initial guess orbital symmetries:
       Occupied  (A) (A) (A) (A) (A) (A) (A) (A) (A)
       Virtual   (A) (A) (A) (A) (A) (A) (A) (A) (A) (A) (A) (A)
                 (A) (A) (A) (A) (A) (A) (A) (A) (A) (A) (A) (A)
                 (A) (A) (A) (A) (A) (A) (A) (A) (A) (A) (A) (A)
                 (A) (A) (A) (A) (A) (A) (A) (A) (A) (A) (A) (A)
                 (A) (A) (A) (A) (A) (A) (A) (A) (A) (A) (A) (A)
                 (A) (A) (A) (A) (A) (A) (A) (A) (A) (A) (A) (A)
                 (A) (A) (A) (A) (A) (A) (A) (A) (A) (A) (A) (A)
                 (A) (A) (A) (A) (A) (A) (A) (A) (A) (A) (A) (A)
                 (A) (A) (A) (A) (A) (A) (A) (A) (A) (A) (A) (A)
                 (A) (A) (A) (A) (A) (A) (A) (A) (A) (A) (A) (A)
                 (A) (A) (A) (A) (A) (A) (A) (A) (A) (A) (A) (A)
                 (A) (A) (A) (A) (A) (A) (A) (A) (A) (A) (A) (A)
                 (A) (A) (A) (A) (A) (A) (A) (A) (A) (A) (A) (A)
                 (A) (A) (A) (A) (A) (A) (A) (A) (A) (A) (A) (A)
                 (A) (A) (A) (A) (A) (A) (A) (A) (A) (A) (A) (A)
                 (A) (A) (A) (A) (A) (A) (A) (A)
 The electronic state of the initial guess is 1-A.
 Leave Link  401 at Fri May  8 00:28:14 2020, MaxMem= 1073741824 cpu:       4.3
 (Enter /home/matheus/.gaussian/g09/l502.exe)
 Closed shell SCF:
 Requested convergence on RMS density matrix=1.00D-08 within 128 cycles.
 Requested convergence on MAX density matrix=1.00D-06.
 Requested convergence on             energy=1.00D-06.
 No special actions if energy rises.
 Using DIIS extrapolation, IDIIS=  1040.
 Integral symmetry usage will be decided dynamically.
       126823 words used for storage of precomputed grid.
 IEnd=      305770 IEndB=      305770 NGot=  1073741824 MDV=  1073505365
 LenX=  1073505365 LenY=  1073452483
 Fock matrices will be formed incrementally for  20 cycles.

 Cycle   1  Pass 1  IDiag  1:
 FoFJK:  IHMeth= 1 ICntrl=     0 DoSepK=T KAlg= 1 I1Cent= 0 FoldK=F
 FoFCou: FMM=F IPFlag=           0 FMFlag=      100000 FMFlg1=           0
         NFxFlg=           0 DoJE=T BraDBF=F KetDBF=F FulRan=T
         Omega=  0.000000  0.000000  1.000000  0.000000  0.000000 ICntrl=     500 IOpCl=  0
         NMat0=    1 NMatS0=    1 NMatT0=    0 NMatD0=    1 NMtDS0=    0 NMtDT0=    0
         I1Cent=           0 NGrid=           0.
 Symmetry not used in FoFCou.
 E= -151.506613562449    
 DIIS: error= 1.24D-02 at cycle   1 NSaved=   1.
 NSaved= 1 IEnMin= 1 EnMin= -151.506613562449     IErMin= 1 ErrMin= 1.24D-02
 ErrMax= 1.24D-02 EMaxC= 1.00D-01 BMatC= 4.02D-02 BMatP= 4.02D-02
 IDIUse=3 WtCom= 8.76D-01 WtEn= 1.24D-01
 Coeff-Com:  0.100D+01
 Coeff-En:   0.100D+01
 Coeff:      0.100D+01
 Gap=     0.539 Goal=   None    Shift=    0.000
 GapD=    0.539 DampG=2.000 DampE=0.500 DampFc=1.0000 IDamp=-1.
 RMSDP=7.17D-04 MaxDP=2.45D-02              OVMax= 4.99D-02

 Cycle   2  Pass 1  IDiag  1:
 RMSU=  4.99D-04    CP:  9.88D-01
 FoFJK:  IHMeth= 1 ICntrl=     0 DoSepK=T KAlg= 1 I1Cent= 0 FoldK=F
 E= -151.522687003323     Delta-E=       -0.016073440875 Rises=F Damp=F
 DIIS: error= 6.91D-03 at cycle   2 NSaved=   2.
 NSaved= 2 IEnMin= 2 EnMin= -151.522687003323     IErMin= 2 ErrMin= 6.91D-03
 ErrMax= 6.91D-03 EMaxC= 1.00D-01 BMatC= 1.52D-02 BMatP= 4.02D-02
 IDIUse=3 WtCom= 9.31D-01 WtEn= 6.91D-02
 Coeff-Com:  0.366D+00 0.634D+00
 Coeff-En:   0.103D+00 0.897D+00
 Coeff:      0.348D+00 0.652D+00
 Gap=     0.459 Goal=   None    Shift=    0.000
 RMSDP=3.84D-04 MaxDP=2.17D-02 DE=-1.61D-02 OVMax= 2.14D-02

 Cycle   3  Pass 1  IDiag  1:
 RMSU=  2.36D-04    CP:  9.84D-01  7.37D-01
 FoFJK:  IHMeth= 1 ICntrl=     0 DoSepK=T KAlg= 1 I1Cent= 0 FoldK=F
 E= -151.531089491981     Delta-E=       -0.008402488658 Rises=F Damp=F
 DIIS: error= 1.26D-03 at cycle   3 NSaved=   3.
 NSaved= 3 IEnMin= 3 EnMin= -151.531089491981     IErMin= 3 ErrMin= 1.26D-03
 ErrMax= 1.26D-03 EMaxC= 1.00D-01 BMatC= 3.57D-04 BMatP= 1.52D-02
 IDIUse=3 WtCom= 9.87D-01 WtEn= 1.26D-02
 Coeff-Com:  0.382D-01 0.152D+00 0.810D+00
 Coeff-En:   0.000D+00 0.000D+00 0.100D+01
 Coeff:      0.377D-01 0.150D+00 0.812D+00
 Gap=     0.452 Goal=   None    Shift=    0.000
 RMSDP=5.65D-05 MaxDP=2.37D-03 DE=-8.40D-03 OVMax= 3.95D-03

 Cycle   4  Pass 1  IDiag  1:
 RMSU=  2.83D-05    CP:  9.82D-01  7.84D-01  1.03D+00
 FoFJK:  IHMeth= 1 ICntrl=     0 DoSepK=T KAlg= 1 I1Cent= 0 FoldK=F
 E= -151.531318554879     Delta-E=       -0.000229062898 Rises=F Damp=F
 DIIS: error= 2.47D-04 at cycle   4 NSaved=   4.
 NSaved= 4 IEnMin= 4 EnMin= -151.531318554879     IErMin= 4 ErrMin= 2.47D-04
 ErrMax= 2.47D-04 EMaxC= 1.00D-01 BMatC= 9.43D-06 BMatP= 3.57D-04
 IDIUse=3 WtCom= 9.98D-01 WtEn= 2.47D-03
 Coeff-Com: -0.858D-02-0.124D-01 0.897D-01 0.931D+00
 Coeff-En:   0.000D+00 0.000D+00 0.000D+00 0.100D+01
 Coeff:     -0.856D-02-0.124D-01 0.895D-01 0.931D+00
 Gap=     0.453 Goal=   None    Shift=    0.000
 RMSDP=1.49D-05 MaxDP=1.00D-03 DE=-2.29D-04 OVMax= 8.13D-04

 Cycle   5  Pass 1  IDiag  1:
 RMSU=  4.37D-06    CP:  9.82D-01  7.85D-01  1.07D+00  1.08D+00
 FoFJK:  IHMeth= 1 ICntrl=     0 DoSepK=T KAlg= 1 I1Cent= 0 FoldK=F
 E= -151.531327225871     Delta-E=       -0.000008670992 Rises=F Damp=F
 DIIS: error= 4.65D-05 at cycle   5 NSaved=   5.
 NSaved= 5 IEnMin= 5 EnMin= -151.531327225871     IErMin= 5 ErrMin= 4.65D-05
 ErrMax= 4.65D-05 EMaxC= 1.00D-01 BMatC= 2.40D-07 BMatP= 9.43D-06
 IDIUse=1 WtCom= 1.00D+00 WtEn= 0.00D+00
 Coeff-Com: -0.467D-03-0.260D-02-0.383D-01-0.123D+00 0.116D+01
 Coeff:     -0.467D-03-0.260D-02-0.383D-01-0.123D+00 0.116D+01
 Gap=     0.453 Goal=   None    Shift=    0.000
 RMSDP=3.93D-06 MaxDP=1.51D-04 DE=-8.67D-06 OVMax= 4.06D-04

 Cycle   6  Pass 1  IDiag  1:
 RMSU=  1.25D-06    CP:  9.82D-01  7.86D-01  1.08D+00  1.14D+00  1.36D+00
 FoFJK:  IHMeth= 1 ICntrl=     0 DoSepK=T KAlg= 1 I1Cent= 0 FoldK=F
 E= -151.531327869471     Delta-E=       -0.000000643600 Rises=F Damp=F
 DIIS: error= 9.10D-06 at cycle   6 NSaved=   6.
 NSaved= 6 IEnMin= 6 EnMin= -151.531327869471     IErMin= 6 ErrMin= 9.10D-06
 ErrMax= 9.10D-06 EMaxC= 1.00D-01 BMatC= 1.23D-08 BMatP= 2.40D-07
 IDIUse=1 WtCom= 1.00D+00 WtEn= 0.00D+00
 Coeff-Com:  0.325D-03 0.957D-03 0.356D-02-0.993D-02-0.190D+00 0.119D+01
 Coeff:      0.325D-03 0.957D-03 0.356D-02-0.993D-02-0.190D+00 0.119D+01
 Gap=     0.453 Goal=   None    Shift=    0.000
 RMSDP=9.34D-07 MaxDP=2.24D-05 DE=-6.44D-07 OVMax= 1.23D-04

 Cycle   7  Pass 1  IDiag  1:
 RMSU=  2.97D-07    CP:  9.82D-01  7.86D-01  1.08D+00  1.15D+00  1.43D+00
                    CP:  1.30D+00
 FoFJK:  IHMeth= 1 ICntrl=     0 DoSepK=T KAlg= 1 I1Cent= 0 FoldK=F
 E= -151.531327902142     Delta-E=       -0.000000032671 Rises=F Damp=F
 DIIS: error= 2.31D-06 at cycle   7 NSaved=   7.
 NSaved= 7 IEnMin= 7 EnMin= -151.531327902142     IErMin= 7 ErrMin= 2.31D-06
 ErrMax= 2.31D-06 EMaxC= 1.00D-01 BMatC= 6.67D-10 BMatP= 1.23D-08
 IDIUse=1 WtCom= 1.00D+00 WtEn= 0.00D+00
 Coeff-Com: -0.308D-05 0.676D-05 0.116D-02 0.583D-02-0.337D-01-0.127D+00
 Coeff-Com:  0.115D+01
 Coeff:     -0.308D-05 0.676D-05 0.116D-02 0.583D-02-0.337D-01-0.127D+00
 Coeff:      0.115D+01
 Gap=     0.453 Goal=   None    Shift=    0.000
 RMSDP=2.85D-07 MaxDP=1.24D-05 DE=-3.27D-08 OVMax= 3.38D-05

 Cycle   8  Pass 1  IDiag  1:
 RMSU=  7.02D-08    CP:  9.82D-01  7.86D-01  1.08D+00  1.16D+00  1.44D+00
                    CP:  1.37D+00  1.34D+00
 FoFJK:  IHMeth= 1 ICntrl=     0 DoSepK=T KAlg= 1 I1Cent= 0 FoldK=F
 E= -151.531327904174     Delta-E=       -0.000000002032 Rises=F Damp=F
 DIIS: error= 9.41D-07 at cycle   8 NSaved=   8.
 NSaved= 8 IEnMin= 8 EnMin= -151.531327904174     IErMin= 8 ErrMin= 9.41D-07
 ErrMax= 9.41D-07 EMaxC= 1.00D-01 BMatC= 2.32D-10 BMatP= 6.67D-10
 IDIUse=1 WtCom= 1.00D+00 WtEn= 0.00D+00
 Coeff-Com: -0.167D-04-0.477D-04 0.279D-03 0.277D-02-0.325D-02-0.118D+00
 Coeff-Com:  0.495D+00 0.623D+00
 Coeff:     -0.167D-04-0.477D-04 0.279D-03 0.277D-02-0.325D-02-0.118D+00
 Coeff:      0.495D+00 0.623D+00
 Gap=     0.453 Goal=   None    Shift=    0.000
 RMSDP=6.37D-08 MaxDP=4.00D-06 DE=-2.03D-09 OVMax= 4.66D-06

 Cycle   9  Pass 1  IDiag  1:
 RMSU=  2.84D-08    CP:  9.82D-01  7.86D-01  1.08D+00  1.16D+00  1.44D+00
                    CP:  1.37D+00  1.40D+00  9.51D-01
 FoFJK:  IHMeth= 1 ICntrl=     0 DoSepK=T KAlg= 1 I1Cent= 0 FoldK=F
 E= -151.531327904361     Delta-E=       -0.000000000187 Rises=F Damp=F
 DIIS: error= 2.87D-07 at cycle   9 NSaved=   9.
 NSaved= 9 IEnMin= 9 EnMin= -151.531327904361     IErMin= 9 ErrMin= 2.87D-07
 ErrMax= 2.87D-07 EMaxC= 1.00D-01 BMatC= 2.43D-11 BMatP= 2.32D-10
 IDIUse=1 WtCom= 1.00D+00 WtEn= 0.00D+00
 Coeff-Com: -0.527D-05-0.206D-04-0.212D-03-0.616D-03 0.882D-02-0.138D-01
 Coeff-Com: -0.126D+00 0.183D+00 0.949D+00
 Coeff:     -0.527D-05-0.206D-04-0.212D-03-0.616D-03 0.882D-02-0.138D-01
 Coeff:     -0.126D+00 0.183D+00 0.949D+00
 Gap=     0.453 Goal=   None    Shift=    0.000
 RMSDP=4.62D-08 MaxDP=2.66D-06 DE=-1.87D-10 OVMax= 3.02D-06

 Cycle  10  Pass 1  IDiag  1:
 RMSU=  8.75D-09    CP:  9.82D-01  7.86D-01  1.08D+00  1.16D+00  1.44D+00
                    CP:  1.37D+00  1.44D+00  1.16D+00  1.15D+00
 FoFJK:  IHMeth= 1 ICntrl=     0 DoSepK=T KAlg= 1 I1Cent= 0 FoldK=F
 E= -151.531327904399     Delta-E=       -0.000000000038 Rises=F Damp=F
 DIIS: error= 8.95D-08 at cycle  10 NSaved=  10.
 NSaved=10 IEnMin=10 EnMin= -151.531327904399     IErMin=10 ErrMin= 8.95D-08
 ErrMax= 8.95D-08 EMaxC= 1.00D-01 BMatC= 7.56D-13 BMatP= 2.43D-11
 IDIUse=1 WtCom= 1.00D+00 WtEn= 0.00D+00
 Coeff-Com:  0.214D-05 0.951D-05 0.671D-04 0.683D-04-0.272D-02 0.880D-02
 Coeff-Com:  0.259D-01-0.904D-01-0.329D+00 0.139D+01
 Coeff:      0.214D-05 0.951D-05 0.671D-04 0.683D-04-0.272D-02 0.880D-02
 Coeff:      0.259D-01-0.904D-01-0.329D+00 0.139D+01
 Gap=     0.453 Goal=   None    Shift=    0.000
 RMSDP=1.22D-08 MaxDP=2.57D-07 DE=-3.81D-11 OVMax= 1.85D-06

 Cycle  11  Pass 1  IDiag  1:
 RMSU=  3.67D-09    CP:  9.82D-01  7.86D-01  1.08D+00  1.16D+00  1.44D+00
                    CP:  1.37D+00  1.45D+00  1.20D+00  1.28D+00  1.69D+00
 FoFJK:  IHMeth= 1 ICntrl=     0 DoSepK=T KAlg= 1 I1Cent= 0 FoldK=F
 E= -151.531327904403     Delta-E=       -0.000000000004 Rises=F Damp=F
 DIIS: error= 3.55D-08 at cycle  11 NSaved=  11.
 NSaved=11 IEnMin=11 EnMin= -151.531327904403     IErMin=11 ErrMin= 3.55D-08
 ErrMax= 3.55D-08 EMaxC= 1.00D-01 BMatC= 1.45D-13 BMatP= 7.56D-13
 IDIUse=1 WtCom= 1.00D+00 WtEn= 0.00D+00
 Coeff-Com: -0.666D-08 0.577D-07 0.117D-04 0.864D-04-0.498D-03-0.121D-02
 Coeff-Com:  0.137D-01-0.221D-04-0.480D-01-0.412D+00 0.145D+01
 Coeff:     -0.666D-08 0.577D-07 0.117D-04 0.864D-04-0.498D-03-0.121D-02
 Coeff:      0.137D-01-0.221D-04-0.480D-01-0.412D+00 0.145D+01
 Gap=     0.453 Goal=   None    Shift=    0.000
 RMSDP=6.57D-09 MaxDP=1.46D-07 DE=-4.26D-12 OVMax= 1.02D-06

 SCF Done:  E(RLC-wPBE) =  -151.531327904     A.U. after   11 cycles
             Convg  =    0.6568D-08             -V/T =  2.0071
 KE= 1.504634063394D+02 PE=-4.315419480814D+02 EE= 9.294528754749D+01
 Leave Link  502 at Fri May  8 00:28:50 2020, MaxMem= 1073741824 cpu:     288.0
 (Enter /home/matheus/.gaussian/g09/l601.exe)
 Copying SCF densities to generalized density rwf, IOpCl= 0 IROHF=0.

 **********************************************************************

            Population analysis using the SCF density.

 **********************************************************************

 Orbital symmetries:
       Occupied  (A) (A) (A) (A) (A) (A) (A) (A) (A)
       Virtual   (A) (A) (A) (A) (A) (A) (A) (A) (A) (A) (A) (A)
                 (A) (A) (A) (A) (A) (A) (A) (A) (A) (A) (A) (A)
                 (A) (A) (A) (A) (A) (A) (A) (A) (A) (A) (A) (A)
                 (A) (A) (A) (A) (A) (A) (A) (A) (A) (A) (A) (A)
                 (A) (A) (A) (A) (A) (A) (A) (A) (A) (A) (A) (A)
                 (A) (A) (A) (A) (A) (A) (A) (A) (A) (A) (A) (A)
                 (A) (A) (A) (A) (A) (A) (A) (A) (A) (A) (A) (A)
                 (A) (A) (A) (A) (A) (A) (A) (A) (A) (A) (A) (A)
                 (A) (A) (A) (A) (A) (A) (A) (A) (A) (A) (A) (A)
                 (A) (A) (A) (A) (A) (A) (A) (A) (A) (A) (A) (A)
                 (A) (A) (A) (A) (A) (A) (A) (A) (A) (A) (A) (A)
                 (A) (A) (A) (A) (A) (A) (A) (A) (A) (A) (A) (A)
                 (A) (A) (A) (A) (A) (A) (A) (A) (A) (A) (A) (A)
                 (A) (A) (A) (A) (A) (A) (A) (A) (A) (A) (A) (A)
                 (A) (A) (A) (A) (A) (A) (A) (A) (A) (A) (A) (A)
                 (A) (A) (A) (A) (A) (A) (A) (A)
 The electronic state is 1-A.
 Alpha  occ. eigenvalues --  -19.11180 -19.11174  -1.32053  -1.09733  -0.69989
 Alpha  occ. eigenvalues --   -0.66850  -0.57958  -0.50649  -0.42365
 Alpha virt. eigenvalues --    0.02959   0.03694   0.07272   0.08960   0.10248
 Alpha virt. eigenvalues --    0.11062   0.11596   0.14382   0.16832   0.17272
 Alpha virt. eigenvalues --    0.19567   0.19740   0.21453   0.23673   0.26692
 Alpha virt. eigenvalues --    0.27862   0.30355   0.31452   0.32088   0.33817
 Alpha virt. eigenvalues --    0.36658   0.38015   0.39020   0.40120   0.42075
 Alpha virt. eigenvalues --    0.43116   0.44028   0.47939   0.49304   0.50146
 Alpha virt. eigenvalues --    0.55530   0.58447   0.61567   0.66901   0.69562
 Alpha virt. eigenvalues --    0.71613   0.75654   0.76355   0.77232   0.78064
 Alpha virt. eigenvalues --    0.80272   0.84293   0.87298   0.89536   0.92496
 Alpha virt. eigenvalues --    0.93008   0.94693   0.97130   0.99438   1.00992
 Alpha virt. eigenvalues --    1.01854   1.06250   1.06945   1.10815   1.13831
 Alpha virt. eigenvalues --    1.14449   1.17103   1.17910   1.21926   1.25030
 Alpha virt. eigenvalues --    1.26966   1.30929   1.32457   1.33554   1.34130
 Alpha virt. eigenvalues --    1.34993   1.35217   1.37107   1.38373   1.45687
 Alpha virt. eigenvalues --    1.49617   1.51556   1.55239   1.55431   1.57841
 Alpha virt. eigenvalues --    1.59899   1.66139   1.68984   1.73931   1.82163
 Alpha virt. eigenvalues --    1.84157   1.86319   1.91600   2.00496   2.05237
 Alpha virt. eigenvalues --    2.05810   2.09788   2.19167   2.19609   2.24956
 Alpha virt. eigenvalues --    2.29311   2.31437   2.35753   2.39699   2.47512
 Alpha virt. eigenvalues --    2.52781   2.58499   2.59937   2.61870   2.70410
 Alpha virt. eigenvalues --    2.72980   2.75644   2.80572   2.89579   2.97444
 Alpha virt. eigenvalues --    3.10000   3.13043   3.15588   3.26139   3.30742
 Alpha virt. eigenvalues --    3.41779   3.53407   3.61153   3.73559   3.78781
 Alpha virt. eigenvalues --    3.79433   3.82292   3.82705   3.82862   3.84541
 Alpha virt. eigenvalues --    3.90371   3.90979   3.92233   3.94646   3.96263
 Alpha virt. eigenvalues --    3.99973   4.06143   4.10704   4.14487   4.14954
 Alpha virt. eigenvalues --    4.16764   4.23613   4.25960   4.32660   4.38254
 Alpha virt. eigenvalues --    4.46958   4.52429   4.60276   4.77598   4.96496
 Alpha virt. eigenvalues --    5.05151   5.08457   5.11328   5.14935   5.40668
 Alpha virt. eigenvalues --    5.47762   5.87507   6.04122   6.11993   6.17283
 Alpha virt. eigenvalues --    6.36337   6.39669   6.46828   6.53391   6.74210
 Alpha virt. eigenvalues --    6.75184   6.79092   6.85667   6.90624   6.92080
 Alpha virt. eigenvalues --    6.95857   6.97460   6.99500   7.02812   7.06998
 Alpha virt. eigenvalues --    7.26749   7.29120   7.42688   7.67344   7.87398
 Alpha virt. eigenvalues --    8.12895   8.17119  10.88750  14.07842  14.54796
 Alpha virt. eigenvalues --   14.83525  14.88665  15.11250  29.03233  29.03806
 Alpha virt. eigenvalues --   29.08147  29.13941  29.23435  49.10437 148.31556
 Alpha virt. eigenvalues --  148.39124 148.72150 752.49339
          Condensed to atoms (all electrons):
              1          2          3          4          5
     1  O    8.202031  -0.178598   0.194327  -0.006520  -0.003987
     2  O   -0.178598   8.181833   0.007676   0.221022   0.000733
     3  H    0.194327   0.007676   0.586178   0.005362   0.000919
     4  H   -0.006520   0.221022   0.005362   0.554607  -0.003842
     5  Kr  -0.003987   0.000733   0.000919  -0.003842   0.001165
 Mulliken atomic charges:
              1
     1  O   -0.207253
     2  O   -0.232666
     3  H    0.205537
     4  H    0.229370
     5  Kr   0.005012
 Sum of Mulliken atomic charges =   0.00000
 Mulliken charges with hydrogens summed into heavy atoms:
              1
     1  O   -0.001716
     2  O   -0.003296
     5  Kr   0.005012
 Sum of Mulliken charges with hydrogens summed into heavy atoms =   0.00000
          Condensed to fragments (all electrons):
     1      -0.005012
     2       0.005012
 Electronic spatial extent (au):  <R**2>=            324.2822
 Charge=              0.0000 electrons
 Dipole moment (field-independent basis, Debye):
    X=              0.0958    Y=             -0.0183    Z=              0.5700  Tot=              0.5782
 Quadrupole moment (field-independent basis, Debye-Ang):
   XX=             -8.9630   YY=            -10.6733   ZZ=            -12.8616
   XY=              4.0912   XZ=             -1.7385   YZ=             -0.5844
 Traceless Quadrupole moment (field-independent basis, Debye-Ang):
   XX=              1.8697   YY=              0.1593   ZZ=             -2.0290
   XY=              4.0912   XZ=             -1.7385   YZ=             -0.5844
 Octapole moment (field-independent basis, Debye-Ang**2):
  XXX=             52.8766  YYY=             -1.2549  ZZZ=              0.3641  XYY=             21.7008
  XXY=            -16.3770  XXZ=              5.2904  XZZ=             25.5728  YZZ=             -0.6630
  YYZ=              0.7401  XYZ=              1.8128
 Hexadecapole moment (field-independent basis, Debye-Ang**3):
 XXXX=           -220.7729 YYYY=            -45.3719 ZZZZ=            -11.2743 XXXY=             50.6661
 XXXZ=            -15.7840 YYYX=              5.1498 YYYZ=             -0.7312 ZZZX=             -0.6556
 ZZZY=             -0.3401 XXYY=            -51.1588 XXZZ=            -54.8427 YYZZ=            -11.1853
 XXYZ=             -5.4655 YYXZ=             -1.9945 ZZXY=              0.6172
 N-N= 3.660192629008D+01 E-N=-4.315419478290D+02  KE= 1.504634063394D+02
 No NMR shielding tensors so no spin-rotation constants.
 Leave Link  601 at Fri May  8 00:28:50 2020, MaxMem= 1073741824 cpu:       0.7
 (Enter /home/matheus/.gaussian/g09/l122.exe)
 Counterpoise: doing DCBS calculation for fragment   2 NewBq=T
 Leave Link  122 at Fri May  8 00:28:50 2020, MaxMem= 1073741824 cpu:       0.0
 (Enter /home/matheus/.gaussian/g09/l301.exe)
 Basis read from rwf:  (5D, 7F)
 No pseudopotential information found on rwf file.
 There are   197 symmetry adapted basis functions of A   symmetry.
 Integral buffers will be    131072 words long.
 Raffenetti 2 integral format.
 Two-electron integral symmetry is turned on.
   197 basis functions,   415 primitive gaussians,   229 cartesian basis functions
    18 alpha electrons       18 beta electrons
       nuclear repulsion energy         0.0000000000 Hartrees.
 IExCor=32609 DFT=T Ex+Corr=LC-wPBE ExCW=0 ScaHFX=  1.000000
 ScaDFX=  1.000000  0.000000  1.000000  1.000000 ScalE2=  1.000000  1.000000
 IRadAn=      5 IRanWt=     -1 IRanGd=            0 ICorTp=0
  HFx wShort=  0.000000 wLong=  0.550000 cFull=  0.000000 cShort=  0.000000 cLong=  1.000000
  DFx wShort=  0.000000 wLong=  0.550000 cFull=  0.000000 cShort=  0.000000 cLong=  1.000000
 NAtoms=    5 NActive=    5 NUniq=    5 SFac= 1.00D+00 NAtFMM=   60 NAOKFM=F Big=F
 No density basis found on file   718.
 Leave Link  301 at Fri May  8 00:28:50 2020, MaxMem= 1073741824 cpu:       0.2
 (Enter /home/matheus/.gaussian/g09/l302.exe)
 NPDir=0 NMtPBC=     1 NCelOv=     1 NCel=       1 NClECP=     1 NCelD=      1
         NCelK=      1 NCelE2=     1 NClLst=     1 CellRange=     0.0.
 One-electron integrals computed using PRISM.
 NBasis=   197 RedAO= T  NBF=   197
 NBsUse=   197 1.00D-06 NBFU=   197
 Precomputing XC quadrature grid using
 IXCGrd= 2 IRadAn=           5 IRanWt=          -1 IRanGd=           0 AccXCQ= 0.00D+00.
 NRdTot=     427 NPtTot=      123814 NUsed=      126881 NTot=      126913
 NSgBfM=   229   229   229   229   229 NAtAll=     5     5.
 Leave Link  302 at Fri May  8 00:28:51 2020, MaxMem= 1073741824 cpu:       1.0
 (Enter /home/matheus/.gaussian/g09/l303.exe)
 DipDrv:  MaxL=1.
 Leave Link  303 at Fri May  8 00:28:51 2020, MaxMem= 1073741824 cpu:       0.2
 (Enter /home/matheus/.gaussian/g09/l401.exe)
 Harris functional with IExCor=32609 diagonalized for initial guess.
 ExpMin= 2.53D-02 ExpMax= 1.17D+07 ExpMxC= 1.33D+04 IAcc=3 IRadAn=         5 AccDes= 0.00D+00
 HarFok:  IExCor=32609 AccDes= 0.00D+00 IRadAn=         5 IDoV= 1
 ScaDFX=  1.000000  1.000000  1.000000  1.000000
 FoFCou: FMM=F IPFlag=           0 FMFlag=      100000 FMFlg1=           0
         NFxFlg=           0 DoJE=T BraDBF=F KetDBF=T FulRan=T
         Omega=  0.000000  0.000000  1.000000  0.000000  0.000000 ICntrl=     500 IOpCl=  0
         NMat0=    1 NMatS0=    1 NMatT0=    0 NMatD0=    1 NMtDS0=    0 NMtDT0=    0
         I1Cent=           4 NGrid=           0.
 Petite list used in FoFCou.
 Harris En= -2753.24649049809    
 Initial guess orbital symmetries:
       Occupied  (A) (A) (A) (A) (A) (A) (A) (A) (A) (A) (A) (A)
                 (A) (A) (A) (A) (A) (A)
       Virtual   (A) (A) (A) (A) (A) (A) (A) (A) (A) (A) (A) (A)
                 (A) (A) (A) (A) (A) (A) (A) (A) (A) (A) (A) (A)
                 (A) (A) (A) (A) (A) (A) (A) (A) (A) (A) (A) (A)
                 (A) (A) (A) (A) (A) (A) (A) (A) (A) (A) (A) (A)
                 (A) (A) (A) (A) (A) (A) (A) (A) (A) (A) (A) (A)
                 (A) (A) (A) (A) (A) (A) (A) (A) (A) (A) (A) (A)
                 (A) (A) (A) (A) (A) (A) (A) (A) (A) (A) (A) (A)
                 (A) (A) (A) (A) (A) (A) (A) (A) (A) (A) (A) (A)
                 (A) (A) (A) (A) (A) (A) (A) (A) (A) (A) (A) (A)
                 (A) (A) (A) (A) (A) (A) (A) (A) (A) (A) (A) (A)
                 (A) (A) (A) (A) (A) (A) (A) (A) (A) (A) (A) (A)
                 (A) (A) (A) (A) (A) (A) (A) (A) (A) (A) (A) (A)
                 (A) (A) (A) (A) (A) (A) (A) (A) (A) (A) (A) (A)
                 (A) (A) (A) (A) (A) (A) (A) (A) (A) (A) (A) (A)
                 (A) (A) (A) (A) (A) (A) (A) (A) (A) (A) (A)
 The electronic state of the initial guess is 1-A.
 Leave Link  401 at Fri May  8 00:28:51 2020, MaxMem= 1073741824 cpu:       4.2
 (Enter /home/matheus/.gaussian/g09/l502.exe)
 Closed shell SCF:
 Requested convergence on RMS density matrix=1.00D-08 within 128 cycles.
 Requested convergence on MAX density matrix=1.00D-06.
 Requested convergence on             energy=1.00D-06.
 No special actions if energy rises.
 Using DIIS extrapolation, IDIIS=  1040.
 Integral symmetry usage will be decided dynamically.
       126823 words used for storage of precomputed grid.
 IEnd=      305770 IEndB=      305770 NGot=  1073741824 MDV=  1073505365
 LenX=  1073505365 LenY=  1073452483
 Fock matrices will be formed incrementally for  20 cycles.

 Cycle   1  Pass 1  IDiag  1:
 FoFJK:  IHMeth= 1 ICntrl=     0 DoSepK=T KAlg= 1 I1Cent= 0 FoldK=F
 FoFCou: FMM=F IPFlag=           0 FMFlag=      100000 FMFlg1=           0
         NFxFlg=           0 DoJE=T BraDBF=F KetDBF=F FulRan=T
         Omega=  0.000000  0.000000  1.000000  0.000000  0.000000 ICntrl=     500 IOpCl=  0
         NMat0=    1 NMatS0=    1 NMatT0=    0 NMatD0=    1 NMtDS0=    0 NMtDT0=    0
         I1Cent=           0 NGrid=           0.
 Symmetry not used in FoFCou.
 E= -2753.43085332732    
 DIIS: error= 2.88D-02 at cycle   1 NSaved=   1.
 NSaved= 1 IEnMin= 1 EnMin= -2753.43085332732     IErMin= 1 ErrMin= 2.88D-02
 ErrMax= 2.88D-02 EMaxC= 1.00D-01 BMatC= 2.24D-01 BMatP= 2.24D-01
 IDIUse=3 WtCom= 7.12D-01 WtEn= 2.88D-01
 Coeff-Com:  0.100D+01
 Coeff-En:   0.100D+01
 Coeff:      0.100D+01
 Gap=     0.637 Goal=   None    Shift=    0.000
 GapD=    0.637 DampG=2.000 DampE=0.500 DampFc=1.0000 IDamp=-1.
 RMSDP=2.08D-03 MaxDP=1.42D-01              OVMax= 5.14D-02

 Cycle   2  Pass 1  IDiag  1:
 RMSU=  1.43D-03    CP:  1.02D+00
 FoFJK:  IHMeth= 1 ICntrl=     0 DoSepK=T KAlg= 1 I1Cent= 0 FoldK=F
 E= -2753.46431481862     Delta-E=       -0.033461491304 Rises=F Damp=F
 DIIS: error= 1.13D-02 at cycle   2 NSaved=   2.
 NSaved= 2 IEnMin= 2 EnMin= -2753.46431481862     IErMin= 2 ErrMin= 1.13D-02
 ErrMax= 1.13D-02 EMaxC= 1.00D-01 BMatC= 4.97D-02 BMatP= 2.24D-01
 IDIUse=3 WtCom= 8.87D-01 WtEn= 1.13D-01
 Coeff-Com:  0.315D+00 0.685D+00
 Coeff-En:   0.627D-01 0.937D+00
 Coeff:      0.287D+00 0.713D+00
 Gap=     0.550 Goal=   None    Shift=    0.000
 RMSDP=7.68D-04 MaxDP=4.99D-02 DE=-3.35D-02 OVMax= 1.84D-02

 Cycle   3  Pass 1  IDiag  1:
 RMSU=  1.53D-04    CP:  1.01D+00  6.47D-01
 FoFJK:  IHMeth= 1 ICntrl=     0 DoSepK=T KAlg= 1 I1Cent= 0 FoldK=F
 E= -2753.47774148966     Delta-E=       -0.013426671040 Rises=F Damp=F
 DIIS: error= 1.30D-03 at cycle   3 NSaved=   3.
 NSaved= 3 IEnMin= 3 EnMin= -2753.47774148966     IErMin= 3 ErrMin= 1.30D-03
 ErrMax= 1.30D-03 EMaxC= 1.00D-01 BMatC= 5.44D-04 BMatP= 4.97D-02
 IDIUse=3 WtCom= 9.87D-01 WtEn= 1.30D-02
 Coeff-Com: -0.470D-02 0.859D-01 0.919D+00
 Coeff-En:   0.000D+00 0.000D+00 0.100D+01
 Coeff:     -0.464D-02 0.848D-01 0.920D+00
 Gap=     0.556 Goal=   None    Shift=    0.000
 RMSDP=7.08D-05 MaxDP=4.28D-03 DE=-1.34D-02 OVMax= 2.43D-03

 Cycle   4  Pass 1  IDiag  1:
 RMSU=  1.35D-05    CP:  1.01D+00  6.79D-01  9.98D-01
 FoFJK:  IHMeth= 1 ICntrl=     0 DoSepK=T KAlg= 1 I1Cent= 0 FoldK=F
 E= -2753.47789901045     Delta-E=       -0.000157520789 Rises=F Damp=F
 DIIS: error= 4.04D-05 at cycle   4 NSaved=   4.
 NSaved= 4 IEnMin= 4 EnMin= -2753.47789901045     IErMin= 4 ErrMin= 4.04D-05
 ErrMax= 4.04D-05 EMaxC= 1.00D-01 BMatC= 4.30D-07 BMatP= 5.44D-04
 IDIUse=1 WtCom= 1.00D+00 WtEn= 0.00D+00
 Coeff-Com: -0.549D-03-0.198D-01-0.163D+00 0.118D+01
 Coeff:     -0.549D-03-0.198D-01-0.163D+00 0.118D+01
 Gap=     0.556 Goal=   None    Shift=    0.000
 RMSDP=5.78D-06 MaxDP=3.21D-04 DE=-1.58D-04 OVMax= 4.13D-04

 Cycle   5  Pass 1  IDiag  1:
 RMSU=  1.84D-06    CP:  1.01D+00  6.79D-01  1.01D+00  1.19D+00
 FoFJK:  IHMeth= 1 ICntrl=     0 DoSepK=T KAlg= 1 I1Cent= 0 FoldK=F
 E= -2753.47789953158     Delta-E=       -0.000000521133 Rises=F Damp=F
 DIIS: error= 2.27D-06 at cycle   5 NSaved=   5.
 NSaved= 5 IEnMin= 5 EnMin= -2753.47789953158     IErMin= 5 ErrMin= 2.27D-06
 ErrMax= 2.27D-06 EMaxC= 1.00D-01 BMatC= 2.14D-09 BMatP= 4.30D-07
 IDIUse=1 WtCom= 1.00D+00 WtEn= 0.00D+00
 Coeff-Com:  0.972D-04 0.212D-03-0.134D-02-0.180D-01 0.102D+01
 Coeff:      0.972D-04 0.212D-03-0.134D-02-0.180D-01 0.102D+01
 Gap=     0.556 Goal=   None    Shift=    0.000
 RMSDP=3.37D-07 MaxDP=2.19D-05 DE=-5.21D-07 OVMax= 1.48D-05

 Cycle   6  Pass 1  IDiag  1:
 RMSU=  1.66D-07    CP:  1.01D+00  6.79D-01  1.01D+00  1.20D+00  1.03D+00
 FoFJK:  IHMeth= 1 ICntrl=     0 DoSepK=T KAlg= 1 I1Cent= 0 FoldK=F
 E= -2753.47789953434     Delta-E=       -0.000000002759 Rises=F Damp=F
 DIIS: error= 4.03D-07 at cycle   6 NSaved=   6.
 NSaved= 6 IEnMin= 6 EnMin= -2753.47789953434     IErMin= 6 ErrMin= 4.03D-07
 ErrMax= 4.03D-07 EMaxC= 1.00D-01 BMatC= 7.66D-11 BMatP= 2.14D-09
 IDIUse=1 WtCom= 1.00D+00 WtEn= 0.00D+00
 Coeff-Com:  0.350D-05 0.190D-03 0.179D-02-0.167D-01 0.351D-01 0.980D+00
 Coeff:      0.350D-05 0.190D-03 0.179D-02-0.167D-01 0.351D-01 0.980D+00
 Gap=     0.556 Goal=   None    Shift=    0.000
 RMSDP=5.05D-08 MaxDP=2.53D-06 DE=-2.76D-09 OVMax= 3.10D-06

 Cycle   7  Pass 1  IDiag  1:
 RMSU=  1.09D-08    CP:  1.01D+00  6.79D-01  1.01D+00  1.20D+00  1.05D+00
                    CP:  1.10D+00
 FoFJK:  IHMeth= 1 ICntrl=     0 DoSepK=T KAlg= 1 I1Cent= 0 FoldK=F
 E= -2753.47789953437     Delta-E=       -0.000000000029 Rises=F Damp=F
 DIIS: error= 3.04D-08 at cycle   7 NSaved=   7.
 NSaved= 7 IEnMin= 7 EnMin= -2753.47789953437     IErMin= 7 ErrMin= 3.04D-08
 ErrMax= 3.04D-08 EMaxC= 1.00D-01 BMatC= 4.27D-13 BMatP= 7.66D-11
 IDIUse=1 WtCom= 1.00D+00 WtEn= 0.00D+00
 Coeff-Com:  0.223D-06 0.333D-04 0.324D-03-0.289D-02 0.302D-02 0.155D+00
 Coeff-Com:  0.844D+00
 Coeff:      0.223D-06 0.333D-04 0.324D-03-0.289D-02 0.302D-02 0.155D+00
 Coeff:      0.844D+00
 Gap=     0.556 Goal=   None    Shift=    0.000
 RMSDP=5.91D-09 MaxDP=2.26D-07 DE=-2.91D-11 OVMax= 2.43D-07

 SCF Done:  E(RLC-wPBE) =  -2753.47789953     A.U. after    7 cycles
             Convg  =    0.5915D-08             -V/T =  2.0014
 KE= 2.749515383890D+03 PE=-6.579049561131D+03 EE= 1.076056277707D+03
 Leave Link  502 at Fri May  8 00:29:16 2020, MaxMem= 1073741824 cpu:     196.6
 (Enter /home/matheus/.gaussian/g09/l601.exe)
 Copying SCF densities to generalized density rwf, IOpCl= 0 IROHF=0.

 **********************************************************************

            Population analysis using the SCF density.

 **********************************************************************

 Orbital symmetries:
       Occupied  (A) (A) (A) (A) (A) (A) (A) (A) (A) (A) (A) (A)
                 (A) (A) (A) (A) (A) (A)
       Virtual   (A) (A) (A) (A) (A) (A) (A) (A) (A) (A) (A) (A)
                 (A) (A) (A) (A) (A) (A) (A) (A) (A) (A) (A) (A)
                 (A) (A) (A) (A) (A) (A) (A) (A) (A) (A) (A) (A)
                 (A) (A) (A) (A) (A) (A) (A) (A) (A) (A) (A) (A)
                 (A) (A) (A) (A) (A) (A) (A) (A) (A) (A) (A) (A)
                 (A) (A) (A) (A) (A) (A) (A) (A) (A) (A) (A) (A)
                 (A) (A) (A) (A) (A) (A) (A) (A) (A) (A) (A) (A)
                 (A) (A) (A) (A) (A) (A) (A) (A) (A) (A) (A) (A)
                 (A) (A) (A) (A) (A) (A) (A) (A) (A) (A) (A) (A)
                 (A) (A) (A) (A) (A) (A) (A) (A) (A) (A) (A) (A)
                 (A) (A) (A) (A) (A) (A) (A) (A) (A) (A) (A) (A)
                 (A) (A) (A) (A) (A) (A) (A) (A) (A) (A) (A) (A)
                 (A) (A) (A) (A) (A) (A) (A) (A) (A) (A) (A) (A)
                 (A) (A) (A) (A) (A) (A) (A) (A) (A) (A) (A) (A)
                 (A) (A) (A) (A) (A) (A) (A) (A) (A) (A) (A)
 The electronic state is 1-A.
 Alpha  occ. eigenvalues -- -511.18549 -66.73374 -60.39484 -60.39481 -60.39480
 Alpha  occ. eigenvalues --   -9.66931  -7.41183  -7.41181  -7.41181  -3.35590
 Alpha  occ. eigenvalues --   -3.35589  -3.35589  -3.35588  -3.35588  -1.08852
 Alpha  occ. eigenvalues --   -0.52698  -0.52694  -0.52692
 Alpha virt. eigenvalues --    0.02865   0.04874   0.08372   0.09826   0.10879
 Alpha virt. eigenvalues --    0.12192   0.13051   0.14391   0.16605   0.17109
 Alpha virt. eigenvalues --    0.17773   0.19638   0.21260   0.26449   0.27470
 Alpha virt. eigenvalues --    0.28077   0.28706   0.33149   0.34029   0.35703
 Alpha virt. eigenvalues --    0.36273   0.37361   0.37877   0.39699   0.41971
 Alpha virt. eigenvalues --    0.43065   0.43968   0.54701   0.56224   0.58935
 Alpha virt. eigenvalues --    0.60158   0.66332   0.67208   0.69564   0.71247
 Alpha virt. eigenvalues --    0.75585   0.76298   0.76911   0.78715   0.79223
 Alpha virt. eigenvalues --    0.81633   0.82461   0.83657   0.85246   0.86044
 Alpha virt. eigenvalues --    0.87421   0.88441   0.89788   0.92733   0.95579
 Alpha virt. eigenvalues --    0.98403   0.99756   1.02556   1.03563   1.05660
 Alpha virt. eigenvalues --    1.07226   1.09452   1.09670   1.13703   1.14488
 Alpha virt. eigenvalues --    1.15905   1.19330   1.20441   1.26786   1.27899
 Alpha virt. eigenvalues --    1.33743   1.35625   1.42644   1.45435   1.46385
 Alpha virt. eigenvalues --    1.58546   1.61010   1.67353   1.75648   1.77010
 Alpha virt. eigenvalues --    1.82830   1.86684   1.87226   1.89176   2.19543
 Alpha virt. eigenvalues --    2.23561   2.26506   2.30242   2.32972   2.34074
 Alpha virt. eigenvalues --    2.35843   2.36749   2.37624   2.41100   2.41909
 Alpha virt. eigenvalues --    2.42512   2.49258   2.50086   2.53182   2.53649
 Alpha virt. eigenvalues --    2.54993   2.55754   2.56334   2.58941   2.60666
 Alpha virt. eigenvalues --    2.63346   2.63807   2.64481   2.67491   2.68711
 Alpha virt. eigenvalues --    2.72271   2.73972   2.79068   2.81818   2.88450
 Alpha virt. eigenvalues --    2.90406   3.01416   3.05658   3.11765   3.14673
 Alpha virt. eigenvalues --    3.23159   3.27989   3.30696   3.36222   3.52807
 Alpha virt. eigenvalues --    3.60091   3.65011   3.84399   3.87317   4.03321
 Alpha virt. eigenvalues --    4.37766   4.45583   4.53490   4.57194   4.61544
 Alpha virt. eigenvalues --    4.72675   4.89124   4.90534   4.94649   5.05434
 Alpha virt. eigenvalues --    5.12314   5.15176   5.59316   5.66925   5.89402
 Alpha virt. eigenvalues --    5.91063   5.95318   6.18516   6.84289   6.89958
 Alpha virt. eigenvalues --    7.27737   7.41162   7.61645   7.64867   7.72635
 Alpha virt. eigenvalues --    7.80938   8.07037   8.10070   8.17504   8.24281
 Alpha virt. eigenvalues --    8.35312   8.38352   8.67738   8.89773   9.63015
 Alpha virt. eigenvalues --    9.70339   9.77582   9.85613   9.96579  10.05192
 Alpha virt. eigenvalues --   10.17006  10.22588  10.49079  10.93217  11.44942
 Alpha virt. eigenvalues --   11.56563  11.62000  12.03176  12.11033  13.22327
 Alpha virt. eigenvalues --   13.67177  14.53087  62.87765  64.53181
          Condensed to atoms (all electrons):
              1          2          3          4          5
     1  O    0.002766  -0.002541  -0.001268   0.001435  -0.009589
     2  O   -0.002541   0.006315   0.000905  -0.004221  -0.001145
     3  H   -0.001268   0.000905   0.000745  -0.000451   0.001635
     4  H    0.001435  -0.004221  -0.000451   0.004737  -0.030357
     5  Kr  -0.009589  -0.001145   0.001635  -0.030357  36.076629
 Mulliken atomic charges:
              1
     1  O    0.009196
     2  O    0.000687
     3  H   -0.001566
     4  H    0.028856
     5  Kr  -0.037173
 Sum of Mulliken atomic charges =   0.00000
 Mulliken charges with hydrogens summed into heavy atoms:
              1
     1  O    0.007630
     2  O    0.029543
     5  Kr  -0.037173
 Sum of Mulliken charges with hydrogens summed into heavy atoms =   0.00000
          Condensed to fragments (all electrons):
     1       0.037173
     2      -0.037173
 Electronic spatial extent (au):  <R**2>=            167.4403
 Charge=              0.0000 electrons
 Dipole moment (field-independent basis, Debye):
    X=             -0.0010    Y=              0.0005    Z=              0.0000  Tot=              0.0011
 Quadrupole moment (field-independent basis, Debye-Ang):
   XX=            -17.5408   YY=            -17.5498   ZZ=            -17.5558
   XY=             -0.0043   XZ=              0.0000   YZ=              0.0002
 Traceless Quadrupole moment (field-independent basis, Debye-Ang):
   XX=              0.0080   YY=             -0.0010   ZZ=             -0.0070
   XY=             -0.0043   XZ=              0.0000   YZ=              0.0002
 Octapole moment (field-independent basis, Debye-Ang**2):
  XXX=            -52.5603  YYY=              0.9762  ZZZ=             -0.1005  XYY=            -17.5301
  XXY=              0.3159  XXZ=             -0.0339  XZZ=            -17.5333  YZZ=              0.3258
  YYZ=             -0.0332  XYZ=              0.0002
 Hexadecapole moment (field-independent basis, Debye-Ang**3):
 XXXX=           -123.0076 YYYY=            -18.0583 ZZZZ=            -18.0414 XXXY=              0.9532
 XXXZ=             -0.1012 YYYX=              0.9598 YYYZ=              0.0014 ZZZX=             -0.1006
 ZZZY=              0.0024 XXYY=            -23.5184 XXZZ=            -23.5171 YYZZ=             -6.0137
 XXYZ=              0.0007 YYXZ=             -0.0336 ZZXY=              0.3190
 N-N= 0.000000000000D+00 E-N=-6.579049558337D+03  KE= 2.749515383890D+03
 No NMR shielding tensors so no spin-rotation constants.
 Leave Link  601 at Fri May  8 00:29:16 2020, MaxMem= 1073741824 cpu:       0.8
 (Enter /home/matheus/.gaussian/g09/l122.exe)
 Counterpoise: doing MCBS calculation for fragment   1
 Leave Link  122 at Fri May  8 00:29:16 2020, MaxMem= 1073741824 cpu:       0.0
 (Enter /home/matheus/.gaussian/g09/l301.exe)
 Basis read from rwf:  (5D, 7F)
 No pseudopotential information found on rwf file.
 There are   138 symmetry adapted basis functions of A   symmetry.
 Integral buffers will be    131072 words long.
 Raffenetti 2 integral format.
 Two-electron integral symmetry is turned on.
   138 basis functions,   198 primitive gaussians,   160 cartesian basis functions
     9 alpha electrons        9 beta electrons
       nuclear repulsion energy        36.6019262901 Hartrees.
 IExCor=32609 DFT=T Ex+Corr=LC-wPBE ExCW=0 ScaHFX=  1.000000
 ScaDFX=  1.000000  0.000000  1.000000  1.000000 ScalE2=  1.000000  1.000000
 IRadAn=      5 IRanWt=     -1 IRanGd=            0 ICorTp=0
  HFx wShort=  0.000000 wLong=  0.550000 cFull=  0.000000 cShort=  0.000000 cLong=  1.000000
  DFx wShort=  0.000000 wLong=  0.550000 cFull=  0.000000 cShort=  0.000000 cLong=  1.000000
 NAtoms=    5 NActive=    4 NUniq=    4 SFac= 1.00D+00 NAtFMM=   60 NAOKFM=F Big=F
 No density basis found on file   718.
 Leave Link  301 at Fri May  8 00:29:16 2020, MaxMem= 1073741824 cpu:       0.2
 (Enter /home/matheus/.gaussian/g09/l302.exe)
 NPDir=0 NMtPBC=     1 NCelOv=     1 NCel=       1 NClECP=     1 NCelD=      1
         NCelK=      1 NCelE2=     1 NClLst=     1 CellRange=     0.0.
 One-electron integrals computed using PRISM.
 NBasis=   138 RedAO= T  NBF=   138
 NBsUse=   138 1.00D-06 NBFU=   138
 Precomputing XC quadrature grid using
 IXCGrd= 2 IRadAn=           5 IRanWt=          -1 IRanGd=           0 AccXCQ= 0.00D+00.
 NRdTot=     344 NPtTot=       92556 NUsed=       95038 NTot=       95070
 NSgBfM=   160   160   160   160   160 NAtAll=     4     4.
 Leave Link  302 at Fri May  8 00:29:16 2020, MaxMem= 1073741824 cpu:       0.8
 (Enter /home/matheus/.gaussian/g09/l303.exe)
 DipDrv:  MaxL=1.
 Leave Link  303 at Fri May  8 00:29:16 2020, MaxMem= 1073741824 cpu:       0.1
 (Enter /home/matheus/.gaussian/g09/l401.exe)
 Harris functional with IExCor=32609 diagonalized for initial guess.
 ExpMin= 2.53D-02 ExpMax= 1.53D+04 ExpMxC= 5.22D+02 IAcc=3 IRadAn=         5 AccDes= 0.00D+00
 HarFok:  IExCor=32609 AccDes= 0.00D+00 IRadAn=         5 IDoV= 1
 ScaDFX=  1.000000  1.000000  1.000000  1.000000
 FoFCou: FMM=F IPFlag=           0 FMFlag=      100000 FMFlg1=           0
         NFxFlg=           0 DoJE=T BraDBF=F KetDBF=T FulRan=T
         Omega=  0.000000  0.000000  1.000000  0.000000  0.000000 ICntrl=     500 IOpCl=  0
         NMat0=    1 NMatS0=    1 NMatT0=    0 NMatD0=    1 NMtDS0=    0 NMtDT0=    0
         I1Cent=           4 NGrid=           0.
 Petite list used in FoFCou.
 Harris En= -151.499868325975    
 Initial guess orbital symmetries:
       Occupied  (A) (A) (A) (A) (A) (A) (A) (A) (A)
       Virtual   (A) (A) (A) (A) (A) (A) (A) (A) (A) (A) (A) (A)
                 (A) (A) (A) (A) (A) (A) (A) (A) (A) (A) (A) (A)
                 (A) (A) (A) (A) (A) (A) (A) (A) (A) (A) (A) (A)
                 (A) (A) (A) (A) (A) (A) (A) (A) (A) (A) (A) (A)
                 (A) (A) (A) (A) (A) (A) (A) (A) (A) (A) (A) (A)
                 (A) (A) (A) (A) (A) (A) (A) (A) (A) (A) (A) (A)
                 (A) (A) (A) (A) (A) (A) (A) (A) (A) (A) (A) (A)
                 (A) (A) (A) (A) (A) (A) (A) (A) (A) (A) (A) (A)
                 (A) (A) (A) (A) (A) (A) (A) (A) (A) (A) (A) (A)
                 (A) (A) (A) (A) (A) (A) (A) (A) (A) (A) (A) (A)
                 (A) (A) (A) (A) (A) (A) (A) (A) (A)
 The electronic state of the initial guess is 1-A.
 Leave Link  401 at Fri May  8 00:29:16 2020, MaxMem= 1073741824 cpu:       2.5
 (Enter /home/matheus/.gaussian/g09/l502.exe)
 Closed shell SCF:
 Requested convergence on RMS density matrix=1.00D-08 within 128 cycles.
 Requested convergence on MAX density matrix=1.00D-06.
 Requested convergence on             energy=1.00D-06.
 No special actions if energy rises.
 Using DIIS extrapolation, IDIIS=  1040.
 Integral symmetry usage will be decided dynamically.
        94980 words used for storage of precomputed grid.
 IEnd=      192360 IEndB=      192360 NGot=  1073741824 MDV=  1073591865
 LenX=  1073591865 LenY=  1073565824
 Fock matrices will be formed incrementally for  20 cycles.

 Cycle   1  Pass 1  IDiag  1:
 FoFJK:  IHMeth= 1 ICntrl=     0 DoSepK=T KAlg= 1 I1Cent= 0 FoldK=F
 FoFCou: FMM=F IPFlag=           0 FMFlag=      100000 FMFlg1=           0
         NFxFlg=           0 DoJE=T BraDBF=F KetDBF=F FulRan=T
         Omega=  0.000000  0.000000  1.000000  0.000000  0.000000 ICntrl=     500 IOpCl=  0
         NMat0=    1 NMatS0=    1 NMatT0=    0 NMatD0=    1 NMtDS0=    0 NMtDT0=    0
         I1Cent=           0 NGrid=           0.
 Symmetry not used in FoFCou.
 E= -151.506575356908    
 DIIS: error= 1.67D-02 at cycle   1 NSaved=   1.
 NSaved= 1 IEnMin= 1 EnMin= -151.506575356908     IErMin= 1 ErrMin= 1.67D-02
 ErrMax= 1.67D-02 EMaxC= 1.00D-01 BMatC= 4.02D-02 BMatP= 4.02D-02
 IDIUse=3 WtCom= 8.33D-01 WtEn= 1.67D-01
 Coeff-Com:  0.100D+01
 Coeff-En:   0.100D+01
 Coeff:      0.100D+01
 Gap=     0.539 Goal=   None    Shift=    0.000
 GapD=    0.539 DampG=2.000 DampE=0.500 DampFc=1.0000 IDamp=-1.
 RMSDP=1.05D-03 MaxDP=2.54D-02              OVMax= 4.98D-02

 Cycle   2  Pass 1  IDiag  1:
 RMSU=  7.34D-04    CP:  9.88D-01
 FoFJK:  IHMeth= 1 ICntrl=     0 DoSepK=T KAlg= 1 I1Cent= 0 FoldK=F
 E= -151.522640113828     Delta-E=       -0.016064756919 Rises=F Damp=F
 DIIS: error= 1.08D-02 at cycle   2 NSaved=   2.
 NSaved= 2 IEnMin= 2 EnMin= -151.522640113828     IErMin= 2 ErrMin= 1.08D-02
 ErrMax= 1.08D-02 EMaxC= 1.00D-01 BMatC= 1.52D-02 BMatP= 4.02D-02
 IDIUse=3 WtCom= 8.92D-01 WtEn= 1.08D-01
 Coeff-Com:  0.366D+00 0.634D+00
 Coeff-En:   0.103D+00 0.897D+00
 Coeff:      0.338D+00 0.662D+00
 Gap=     0.463 Goal=   None    Shift=    0.000
 RMSDP=5.57D-04 MaxDP=2.18D-02 DE=-1.61D-02 OVMax= 2.17D-02

 Cycle   3  Pass 1  IDiag  1:
 RMSU=  3.34D-04    CP:  9.84D-01  7.22D-01
 FoFJK:  IHMeth= 1 ICntrl=     0 DoSepK=T KAlg= 1 I1Cent= 0 FoldK=F
 E= -151.530995762351     Delta-E=       -0.008355648523 Rises=F Damp=F
 DIIS: error= 2.37D-03 at cycle   3 NSaved=   3.
 NSaved= 3 IEnMin= 3 EnMin= -151.530995762351     IErMin= 3 ErrMin= 2.37D-03
 ErrMax= 2.37D-03 EMaxC= 1.00D-01 BMatC= 4.30D-04 BMatP= 1.52D-02
 IDIUse=3 WtCom= 9.76D-01 WtEn= 2.37D-02
 Coeff-Com:  0.382D-01 0.164D+00 0.798D+00
 Coeff-En:   0.000D+00 0.000D+00 0.100D+01
 Coeff:      0.373D-01 0.160D+00 0.802D+00
 Gap=     0.455 Goal=   None    Shift=    0.000
 RMSDP=8.37D-05 MaxDP=2.04D-03 DE=-8.36D-03 OVMax= 4.11D-03

 Cycle   4  Pass 1  IDiag  1:
 RMSU=  4.02D-05    CP:  9.83D-01  7.75D-01  1.02D+00
 FoFJK:  IHMeth= 1 ICntrl=     0 DoSepK=T KAlg= 1 I1Cent= 0 FoldK=F
 E= -151.531267160208     Delta-E=       -0.000271397857 Rises=F Damp=F
 DIIS: error= 3.58D-04 at cycle   4 NSaved=   4.
 NSaved= 4 IEnMin= 4 EnMin= -151.531267160208     IErMin= 4 ErrMin= 3.58D-04
 ErrMax= 3.58D-04 EMaxC= 1.00D-01 BMatC= 1.00D-05 BMatP= 4.30D-04
 IDIUse=3 WtCom= 9.96D-01 WtEn= 3.58D-03
 Coeff-Com: -0.860D-02-0.117D-01 0.912D-01 0.929D+00
 Coeff-En:   0.000D+00 0.000D+00 0.000D+00 0.100D+01
 Coeff:     -0.857D-02-0.116D-01 0.909D-01 0.929D+00
 Gap=     0.456 Goal=   None    Shift=    0.000
 RMSDP=2.12D-05 MaxDP=1.02D-03 DE=-2.71D-04 OVMax= 8.28D-04

 Cycle   5  Pass 1  IDiag  1:
 RMSU=  6.04D-06    CP:  9.82D-01  7.75D-01  1.06D+00  1.08D+00
 FoFJK:  IHMeth= 1 ICntrl=     0 DoSepK=T KAlg= 1 I1Cent= 0 FoldK=F
 E= -151.531276153895     Delta-E=       -0.000008993687 Rises=F Damp=F
 DIIS: error= 6.23D-05 at cycle   5 NSaved=   5.
 NSaved= 5 IEnMin= 5 EnMin= -151.531276153895     IErMin= 5 ErrMin= 6.23D-05
 ErrMax= 6.23D-05 EMaxC= 1.00D-01 BMatC= 2.40D-07 BMatP= 1.00D-05
 IDIUse=1 WtCom= 1.00D+00 WtEn= 0.00D+00
 Coeff-Com: -0.463D-03-0.308D-02-0.383D-01-0.123D+00 0.117D+01
 Coeff:     -0.463D-03-0.308D-02-0.383D-01-0.123D+00 0.117D+01
 Gap=     0.456 Goal=   None    Shift=    0.000
 RMSDP=5.58D-06 MaxDP=1.49D-04 DE=-8.99D-06 OVMax= 4.06D-04

 Cycle   6  Pass 1  IDiag  1:
 RMSU=  1.74D-06    CP:  9.82D-01  7.76D-01  1.06D+00  1.14D+00  1.36D+00
 FoFJK:  IHMeth= 1 ICntrl=     0 DoSepK=T KAlg= 1 I1Cent= 0 FoldK=F
 E= -151.531276845450     Delta-E=       -0.000000691555 Rises=F Damp=F
 DIIS: error= 1.61D-05 at cycle   6 NSaved=   6.
 NSaved= 6 IEnMin= 6 EnMin= -151.531276845450     IErMin= 6 ErrMin= 1.61D-05
 ErrMax= 1.61D-05 EMaxC= 1.00D-01 BMatC= 1.22D-08 BMatP= 2.40D-07
 IDIUse=1 WtCom= 1.00D+00 WtEn= 0.00D+00
 Coeff-Com:  0.326D-03 0.102D-02 0.352D-02-0.984D-02-0.190D+00 0.119D+01
 Coeff:      0.326D-03 0.102D-02 0.352D-02-0.984D-02-0.190D+00 0.119D+01
[...]
 RMSU=  1.36D-05    CP:  1.00D+00
 FoFJK:  IHMeth= 1 ICntrl=     0 DoSepK=T KAlg= 1 I1Cent= 0 FoldK=F
 E= -2753.47778103738     Delta-E=       -0.000000564262 Rises=F Damp=F
 DIIS: error= 3.40D-06 at cycle   2 NSaved=   2.
 NSaved= 2 IEnMin= 2 EnMin= -2753.47778103738     IErMin= 2 ErrMin= 3.40D-06
 ErrMax= 3.40D-06 EMaxC= 1.00D-01 BMatC= 3.83D-09 BMatP= 5.22D-06
 IDIUse=1 WtCom= 1.00D+00 WtEn= 0.00D+00
 Coeff-Com: -0.776D-02 0.101D+01
 Coeff:     -0.776D-02 0.101D+01
 Gap=     0.554 Goal=   None    Shift=    0.000
 RMSDP=1.66D-06 MaxDP=6.12D-05 DE=-5.64D-07 OVMax= 4.61D-05

 Cycle   3  Pass 1  IDiag  1:
 RMSU=  5.48D-07    CP:  1.00D+00  1.08D+00
 FoFJK:  IHMeth= 1 ICntrl=     0 DoSepK=T KAlg= 1 I1Cent= 0 FoldK=F
 E= -2753.47778104400     Delta-E=       -0.000000006626 Rises=F Damp=F
 DIIS: error= 5.22D-07 at cycle   3 NSaved=   3.
 NSaved= 3 IEnMin= 3 EnMin= -2753.47778104400     IErMin= 3 ErrMin= 5.22D-07
 ErrMax= 5.22D-07 EMaxC= 1.00D-01 BMatC= 9.82D-11 BMatP= 3.83D-09
 IDIUse=1 WtCom= 1.00D+00 WtEn= 0.00D+00
 Coeff-Com:  0.323D-03-0.127D+00 0.113D+01
 Coeff:      0.323D-03-0.127D+00 0.113D+01
 Gap=     0.554 Goal=   None    Shift=    0.000
 RMSDP=1.99D-07 MaxDP=7.15D-06 DE=-6.63D-09 OVMax= 9.30D-06

 Cycle   4  Pass 1  IDiag  1:
 RMSU=  5.77D-08    CP:  1.00D+00  1.08D+00  1.20D+00
 FoFJK:  IHMeth= 1 ICntrl=     0 DoSepK=T KAlg= 1 I1Cent= 0 FoldK=F
 E= -2753.47778104420     Delta-E=       -0.000000000195 Rises=F Damp=F
 DIIS: error= 2.91D-07 at cycle   4 NSaved=   4.
 NSaved= 4 IEnMin= 4 EnMin= -2753.47778104420     IErMin= 4 ErrMin= 2.91D-07
 ErrMax= 2.91D-07 EMaxC= 1.00D-01 BMatC= 8.12D-12 BMatP= 9.82D-11
 IDIUse=1 WtCom= 1.00D+00 WtEn= 0.00D+00
 Coeff-Com:  0.181D-03-0.446D-01 0.264D+00 0.780D+00
 Coeff:      0.181D-03-0.446D-01 0.264D+00 0.780D+00
 Gap=     0.554 Goal=   None    Shift=    0.000
 RMSDP=1.94D-08 MaxDP=9.51D-07 DE=-1.95D-10 OVMax= 8.51D-07

 Cycle   5  Pass 1  IDiag  1:
 RMSU=  8.08D-09    CP:  1.00D+00  1.08D+00  1.21D+00  1.13D+00
 FoFJK:  IHMeth= 1 ICntrl=     0 DoSepK=T KAlg= 1 I1Cent= 0 FoldK=F
 E= -2753.47778104421     Delta-E=       -0.000000000010 Rises=F Damp=F
 DIIS: error= 4.32D-08 at cycle   5 NSaved=   5.
 NSaved= 5 IEnMin= 5 EnMin= -2753.47778104421     IErMin= 5 ErrMin= 4.32D-08
 ErrMax= 4.32D-08 EMaxC= 1.00D-01 BMatC= 2.86D-13 BMatP= 8.12D-12
 IDIUse=1 WtCom= 1.00D+00 WtEn= 0.00D+00
 Coeff-Com: -0.107D-04 0.580D-02-0.548D-01 0.157D-01 0.103D+01
 Coeff:     -0.107D-04 0.580D-02-0.548D-01 0.157D-01 0.103D+01
 Gap=     0.554 Goal=   None    Shift=    0.000
 RMSDP=8.82D-09 MaxDP=5.19D-07 DE=-1.05D-11 OVMax= 3.73D-07

 SCF Done:  E(RLC-wPBE) =  -2753.47778104     A.U. after    5 cycles
             Convg  =    0.8820D-08             -V/T =  2.0014
 KE= 2.749554786506D+03 PE=-6.579092657923D+03 EE= 1.076060090373D+03
 Leave Link  502 at Fri May  8 00:51:47 2020, MaxMem= 1073741824 cpu:      89.8
 (Enter /home/matheus/.gaussian/g09/l122.exe)
 Restoring MOs from calculation   4 to rwf.
 Counterpoise: doing MCBS calculation for fragment   1
 Leave Link  122 at Fri May  8 00:51:47 2020, MaxMem= 1073741824 cpu:       0.0
 (Enter /home/matheus/.gaussian/g09/l301.exe)
 Basis read from rwf:  (5D, 7F)
 No pseudopotential information found on rwf file.
 There are   138 symmetry adapted basis functions of A   symmetry.
 Integral buffers will be    131072 words long.
 Raffenetti 2 integral format.
 Two-electron integral symmetry is turned on.
   138 basis functions,   198 primitive gaussians,   160 cartesian basis functions
     9 alpha electrons        9 beta electrons
       nuclear repulsion energy        36.6019262901 Hartrees.
 IExCor=32609 DFT=T Ex+Corr=LC-wPBE ExCW=0 ScaHFX=  1.000000
 ScaDFX=  1.000000  0.000000  1.000000  1.000000 ScalE2=  1.000000  1.000000
 IRadAn=      5 IRanWt=     -1 IRanGd=            0 ICorTp=0
  HFx wShort=  0.000000 wLong=  0.550000 cFull=  0.000000 cShort=  0.000000 cLong=  1.000000
  DFx wShort=  0.000000 wLong=  0.550000 cFull=  0.000000 cShort=  0.000000 cLong=  1.000000
 NAtoms=    5 NActive=    4 NUniq=    4 SFac= 1.00D+00 NAtFMM=   60 NAOKFM=F Big=F
 No density basis found on file   718.
 Leave Link  301 at Fri May  8 00:51:47 2020, MaxMem= 1073741824 cpu:       0.2
 (Enter /home/matheus/.gaussian/g09/l302.exe)
 NPDir=0 NMtPBC=     1 NCelOv=     1 NCel=       1 NClECP=     1 NCelD=      1
         NCelK=      1 NCelE2=     1 NClLst=     1 CellRange=     0.0.
 One-electron integrals computed using PRISM.
 NBasis=   138 RedAO= T  NBF=   138
 NBsUse=   138 1.00D-06 NBFU=   138
 Precomputing XC quadrature grid using
 IXCGrd= 2 IRadAn=           5 IRanWt=          -1 IRanGd=           0 AccXCQ= 0.00D+00.
 NRdTot=     344 NPtTot=       92556 NUsed=       95038 NTot=       95070
 NSgBfM=   160   160   160   160   160 NAtAll=     4     4.
 Leave Link  302 at Fri May  8 00:51:47 2020, MaxMem= 1073741824 cpu:       0.9
 (Enter /home/matheus/.gaussian/g09/l303.exe)
 DipDrv:  MaxL=1.
 Leave Link  303 at Fri May  8 00:51:47 2020, MaxMem= 1073741824 cpu:       0.1
 (Enter /home/matheus/.gaussian/g09/l401.exe)
 Initial guess read from the read-write file.
 Guess basis will be translated and rotated to current coordinates.
 Initial guess orbital symmetries:
       Occupied  (A) (A) (A) (A) (A) (A) (A) (A) (A)
       Virtual   (A) (A) (A) (A) (A) (A) (A) (A) (A) (A) (A) (A)
                 (A) (A) (A) (A) (A) (A) (A) (A) (A) (A) (A) (A)
                 (A) (A) (A) (A) (A) (A) (A) (A) (A) (A) (A) (A)
                 (A) (A) (A) (A) (A) (A) (A) (A) (A) (A) (A) (A)
                 (A) (A) (A) (A) (A) (A) (A) (A) (A) (A) (A) (A)
                 (A) (A) (A) (A) (A) (A) (A) (A) (A) (A) (A) (A)
                 (A) (A) (A) (A) (A) (A) (A) (A) (A) (A) (A) (A)
                 (A) (A) (A) (A) (A) (A) (A) (A) (A) (A) (A) (A)
                 (A) (A) (A) (A) (A) (A) (A) (A) (A) (A) (A) (A)
                 (A) (A) (A) (A) (A) (A) (A) (A) (A) (A) (A) (A)
                 (A) (A) (A) (A) (A) (A) (A) (A) (A)
 The electronic state of the initial guess is 1-A.
 Generating alternative initial guess.
 Harris functional with IExCor=32609 diagonalized for initial guess.
 ExpMin= 2.53D-02 ExpMax= 1.53D+04 ExpMxC= 5.22D+02 IAcc=3 IRadAn=         5 AccDes= 0.00D+00
 HarFok:  IExCor=32609 AccDes= 0.00D+00 IRadAn=         5 IDoV= 1
 ScaDFX=  1.000000  1.000000  1.000000  1.000000
 FoFCou: FMM=F IPFlag=           0 FMFlag=      100000 FMFlg1=           0
         NFxFlg=           0 DoJE=T BraDBF=F KetDBF=T FulRan=T
         Omega=  0.000000  0.000000  1.000000  0.000000  0.000000 ICntrl=     500 IOpCl=  0
         NMat0=    1 NMatS0=    1 NMatT0=    0 NMatD0=    1 NMtDS0=    0 NMtDT0=    0
         I1Cent=           4 NGrid=           0.
 Petite list used in FoFCou.
 Harris En= -151.499868392319    
 Leave Link  401 at Fri May  8 00:51:47 2020, MaxMem= 1073741824 cpu:       2.4
 (Enter /home/matheus/.gaussian/g09/l502.exe)
 Closed shell SCF:
 Requested convergence on RMS density matrix=1.00D-08 within 128 cycles.
 Requested convergence on MAX density matrix=1.00D-06.
 Requested convergence on             energy=1.00D-06.
 No special actions if energy rises.
 Using DIIS extrapolation, IDIIS=  1040.
 Integral symmetry usage will be decided dynamically.
        94980 words used for storage of precomputed grid.
 IEnd=      192360 IEndB=      192360 NGot=  1073741824 MDV=  1073591865
 LenX=  1073591865 LenY=  1073565824
 Fock matrices will be formed incrementally for  20 cycles.

 Cycle   1  Pass 1  IDiag  1:
 FoFJK:  IHMeth= 1 ICntrl=     0 DoSepK=T KAlg= 1 I1Cent= 0 FoldK=F
 FoFCou: FMM=F IPFlag=           0 FMFlag=      100000 FMFlg1=           0
         NFxFlg=           0 DoJE=T BraDBF=F KetDBF=F FulRan=T
         Omega=  0.000000  0.000000  1.000000  0.000000  0.000000 ICntrl=     500 IOpCl=  0
         NMat0=    1 NMatS0=    1 NMatT0=    0 NMatD0=    1 NMtDS0=    0 NMtDT0=    0
         I1Cent=           0 NGrid=           0.
 Symmetry not used in FoFCou.
 E= -151.531276882678    
 DIIS: error= 2.74D-05 at cycle   1 NSaved=   1.
 NSaved= 1 IEnMin= 1 EnMin= -151.531276882678     IErMin= 1 ErrMin= 2.74D-05
 ErrMax= 2.74D-05 EMaxC= 1.00D-01 BMatC= 5.29D-08 BMatP= 5.29D-08
 IDIUse=1 WtCom= 1.00D+00 WtEn= 0.00D+00
 Coeff-Com:  0.100D+01
 Coeff:      0.100D+01
 Gap=     0.456 Goal=   None    Shift=    0.000
 RMSDP=1.01D-06 MaxDP=1.94D-05              OVMax= 8.03D-05

 Cycle   2  Pass 1  IDiag  1:
 RMSU=  7.16D-07    CP:  1.00D+00
 FoFJK:  IHMeth= 1 ICntrl=     0 DoSepK=T KAlg= 1 I1Cent= 0 FoldK=F
 E= -151.531276925148     Delta-E=       -0.000000042470 Rises=F Damp=F
 DIIS: error= 5.06D-06 at cycle   2 NSaved=   2.
 NSaved= 2 IEnMin= 2 EnMin= -151.531276925148     IErMin= 2 ErrMin= 5.06D-06
 ErrMax= 5.06D-06 EMaxC= 1.00D-01 BMatC= 1.98D-09 BMatP= 5.29D-08
 IDIUse=1 WtCom= 1.00D+00 WtEn= 0.00D+00
 Coeff-Com: -0.125D+00 0.113D+01
 Coeff:     -0.125D+00 0.113D+01
 Gap=     0.456 Goal=   None    Shift=    0.000
 RMSDP=3.81D-07 MaxDP=7.09D-06 DE=-4.25D-08 OVMax= 3.60D-05

 Cycle   3  Pass 1  IDiag  1:
 RMSU=  1.53D-07    CP:  1.00D+00  1.31D+00
 FoFJK:  IHMeth= 1 ICntrl=     0 DoSepK=T KAlg= 1 I1Cent= 0 FoldK=F
 E= -151.531276929636     Delta-E=       -0.000000004488 Rises=F Damp=F
 DIIS: error= 1.36D-06 at cycle   3 NSaved=   3.
 NSaved= 3 IEnMin= 3 EnMin= -151.531276929636     IErMin= 3 ErrMin= 1.36D-06
 ErrMax= 1.36D-06 EMaxC= 1.00D-01 BMatC= 1.79D-10 BMatP= 1.98D-09
 IDIUse=1 WtCom= 1.00D+00 WtEn= 0.00D+00
 Coeff-Com: -0.387D-02-0.194D+00 0.120D+01
 Coeff:     -0.387D-02-0.194D+00 0.120D+01
 Gap=     0.456 Goal=   None    Shift=    0.000
 RMSDP=1.51D-07 MaxDP=3.12D-06 DE=-4.49D-09 OVMax= 1.48D-05

 Cycle   4  Pass 1  IDiag  1:
 RMSU=  4.30D-08    CP:  1.00D+00  1.40D+00  1.45D+00
 FoFJK:  IHMeth= 1 ICntrl=     0 DoSepK=T KAlg= 1 I1Cent= 0 FoldK=F
 E= -151.531276930110     Delta-E=       -0.000000000473 Rises=F Damp=F
 DIIS: error= 6.54D-07 at cycle   4 NSaved=   4.
 NSaved= 4 IEnMin= 4 EnMin= -151.531276930110     IErMin= 4 ErrMin= 6.54D-07
 ErrMax= 6.54D-07 EMaxC= 1.00D-01 BMatC= 5.54D-11 BMatP= 1.79D-10
 IDIUse=1 WtCom= 1.00D+00 WtEn= 0.00D+00
 Coeff-Com:  0.102D-01-0.187D+00 0.463D+00 0.713D+00
 Coeff:      0.102D-01-0.187D+00 0.463D+00 0.713D+00
 Gap=     0.456 Goal=   None    Shift=    0.000
 RMSDP=4.48D-08 MaxDP=1.48D-06 DE=-4.73D-10 OVMax= 3.57D-06

 Cycle   5  Pass 1  IDiag  1:
 RMSU=  1.47D-08    CP:  1.00D+00  1.42D+00  1.60D+00  8.33D-01
 FoFJK:  IHMeth= 1 ICntrl=     0 DoSepK=T KAlg= 1 I1Cent= 0 FoldK=F
 E= -151.531276930167     Delta-E=       -0.000000000057 Rises=F Damp=F
 DIIS: error= 1.84D-07 at cycle   5 NSaved=   5.
 NSaved= 5 IEnMin= 5 EnMin= -151.531276930167     IErMin= 5 ErrMin= 1.84D-07
 ErrMax= 1.84D-07 EMaxC= 1.00D-01 BMatC= 3.72D-12 BMatP= 5.54D-11
 IDIUse=1 WtCom= 1.00D+00 WtEn= 0.00D+00
 Coeff-Com:  0.238D-02-0.183D-01-0.302D-01 0.142D+00 0.905D+00
 Coeff:      0.238D-02-0.183D-01-0.302D-01 0.142D+00 0.905D+00
 Gap=     0.456 Goal=   None    Shift=    0.000
 RMSDP=1.54D-08 MaxDP=3.32D-07 DE=-5.68D-11 OVMax= 1.24D-06

 Cycle   6  Pass 1  IDiag  1:
 RMSU=  6.56D-09    CP:  1.00D+00  1.43D+00  1.64D+00  9.42D-01  1.16D+00
 FoFJK:  IHMeth= 1 ICntrl=     0 DoSepK=T KAlg= 1 I1Cent= 0 FoldK=F
 E= -151.531276930172     Delta-E=       -0.000000000006 Rises=F Damp=F
 DIIS: error= 8.25D-08 at cycle   6 NSaved=   6.
 NSaved= 6 IEnMin= 6 EnMin= -151.531276930172     IErMin= 6 ErrMin= 8.25D-08
 ErrMax= 8.25D-08 EMaxC= 1.00D-01 BMatC= 1.22D-12 BMatP= 3.72D-12
 IDIUse=1 WtCom= 1.00D+00 WtEn= 0.00D+00
 Coeff-Com: -0.514D-03 0.206D-01-0.838D-01-0.463D-01 0.412D+00 0.698D+00
 Coeff:     -0.514D-03 0.206D-01-0.838D-01-0.463D-01 0.412D+00 0.698D+00
 Gap=     0.456 Goal=   None    Shift=    0.000
 RMSDP=6.22D-09 MaxDP=9.99D-08 DE=-5.51D-12 OVMax= 5.10D-07

 SCF Done:  E(RLC-wPBE) =  -151.531276930     A.U. after    6 cycles
             Convg  =    0.6225D-08             -V/T =  2.0071
 KE= 1.504629551850D+02 PE=-4.315408250468D+02 EE= 9.294466664154D+01
 Leave Link  502 at Fri May  8 00:51:53 2020, MaxMem= 1073741824 cpu:      45.4
 (Enter /home/matheus/.gaussian/g09/l122.exe)
 Restoring MOs from calculation   5 to rwf.
 Counterpoise: doing MCBS calculation for fragment   2
 Leave Link  122 at Fri May  8 00:51:53 2020, MaxMem= 1073741824 cpu:       0.0
 (Enter /home/matheus/.gaussian/g09/l301.exe)
 Basis read from rwf:  (5D, 7F)
 No pseudopotential information found on rwf file.
 There are    59 symmetry adapted basis functions of A   symmetry.
 Integral buffers will be    131072 words long.
 Raffenetti 2 integral format.
 Two-electron integral symmetry is turned on.
    59 basis functions,   217 primitive gaussians,    69 cartesian basis functions
    18 alpha electrons       18 beta electrons
       nuclear repulsion energy         0.0000000000 Hartrees.
 IExCor=32609 DFT=T Ex+Corr=LC-wPBE ExCW=0 ScaHFX=  1.000000
 ScaDFX=  1.000000  0.000000  1.000000  1.000000 ScalE2=  1.000000  1.000000
 IRadAn=      5 IRanWt=     -1 IRanGd=            0 ICorTp=0
  HFx wShort=  0.000000 wLong=  0.550000 cFull=  0.000000 cShort=  0.000000 cLong=  1.000000
  DFx wShort=  0.000000 wLong=  0.550000 cFull=  0.000000 cShort=  0.000000 cLong=  1.000000
 NAtoms=    5 NActive=    1 NUniq=    1 SFac= 1.00D+00 NAtFMM=   60 NAOKFM=F Big=F
 No density basis found on file   718.
 Leave Link  301 at Fri May  8 00:51:53 2020, MaxMem= 1073741824 cpu:       0.2
 (Enter /home/matheus/.gaussian/g09/l302.exe)
 NPDir=0 NMtPBC=     1 NCelOv=     1 NCel=       1 NClECP=     1 NCelD=      1
         NCelK=      1 NCelE2=     1 NClLst=     1 CellRange=     0.0.
 One-electron integrals computed using PRISM.
 NBasis=    59 RedAO= T  NBF=    59
 NBsUse=    59 1.00D-06 NBFU=    59
 Precomputing XC quadrature grid using
 IXCGrd= 2 IRadAn=           5 IRanWt=          -1 IRanGd=           0 AccXCQ= 0.00D+00.
 NRdTot=      81 NPtTot=       30352 NUsed=       30981 NTot=       31013
 NSgBfM=    69    69    69    69    69 NAtAll=     1     1.
 Leave Link  302 at Fri May  8 00:51:53 2020, MaxMem= 1073741824 cpu:       0.7
 (Enter /home/matheus/.gaussian/g09/l303.exe)
 DipDrv:  MaxL=1.
 Leave Link  303 at Fri May  8 00:51:53 2020, MaxMem= 1073741824 cpu:       0.1
 (Enter /home/matheus/.gaussian/g09/l401.exe)
 Initial guess read from the read-write file.
 Guess basis will be translated and rotated to current coordinates.
 Initial guess orbital symmetries:
       Occupied  (A) (A) (A) (A) (A) (A) (A) (A) (A) (A) (A) (A)
                 (A) (A) (A) (A) (A) (A)
       Virtual   (A) (A) (A) (A) (A) (A) (A) (A) (A) (A) (A) (A)
                 (A) (A) (A) (A) (A) (A) (A) (A) (A) (A) (A) (A)
                 (A) (A) (A) (A) (A) (A) (A) (A) (A) (A) (A) (A)
                 (A) (A) (A) (A) (A)
 The electronic state of the initial guess is 1-A.
 Generating alternative initial guess.
 Harris functional with IExCor=32609 diagonalized for initial guess.
 ExpMin= 4.00D-02 ExpMax= 1.17D+07 ExpMxC= 1.33D+04 IAcc=3 IRadAn=         5 AccDes= 0.00D+00
 HarFok:  IExCor=32609 AccDes= 0.00D+00 IRadAn=         5 IDoV= 1
 ScaDFX=  1.000000  1.000000  1.000000  1.000000
 FoFCou: FMM=F IPFlag=           0 FMFlag=      100000 FMFlg1=           0
         NFxFlg=           0 DoJE=T BraDBF=F KetDBF=T FulRan=T
         Omega=  0.000000  0.000000  1.000000  0.000000  0.000000 ICntrl=     500 IOpCl=  0
         NMat0=    1 NMatS0=    1 NMatT0=    0 NMatD0=    1 NMtDS0=    0 NMtDT0=    0
         I1Cent=           4 NGrid=           0.
 Petite list used in FoFCou.
 DSYEVD returned Info=          89 IAlg= 4 N=    59 NDim=    59 NE2=    18198841 trying DSYEV.
 Harris En= -2753.24576836237    
 Leave Link  401 at Fri May  8 00:51:53 2020, MaxMem= 1073741824 cpu:       1.0
 (Enter /home/matheus/.gaussian/g09/l502.exe)
 Closed shell SCF:
 Requested convergence on RMS density matrix=1.00D-08 within 128 cycles.
 Requested convergence on MAX density matrix=1.00D-06.
 Requested convergence on             energy=1.00D-06.
 No special actions if energy rises.
 Using DIIS extrapolation, IDIIS=  1040.
 Integral symmetry usage will be decided dynamically.
        30923 words used for storage of precomputed grid.
 IEnd=       64406 IEndB=       64406 NGot=  1073741824 MDV=  1073698889
 LenX=  1073698889 LenY=  1073693687
 Fock matrices will be formed incrementally for  20 cycles.

 Cycle   1  Pass 1  IDiag  1:
 FoFJK:  IHMeth= 1 ICntrl=     0 DoSepK=T KAlg= 1 I1Cent= 0 FoldK=F
 FoFCou: FMM=F IPFlag=           0 FMFlag=      100000 FMFlg1=           0
         NFxFlg=           0 DoJE=T BraDBF=F KetDBF=F FulRan=T
         Omega=  0.000000  0.000000  1.000000  0.000000  0.000000 ICntrl=     500 IOpCl=  0
         NMat0=    1 NMatS0=    1 NMatT0=    0 NMatD0=    1 NMtDS0=    0 NMtDT0=    0
         I1Cent=           0 NGrid=           0.
 Symmetry not used in FoFCou.
 E= -2753.47775989058    
 DIIS: error= 1.51D-13 at cycle   1 NSaved=   1.
 NSaved= 1 IEnMin= 1 EnMin= -2753.47775989058     IErMin= 1 ErrMin= 1.51D-13
 ErrMax= 1.51D-13 EMaxC= 1.00D-01 BMatC= 3.62D-25 BMatP= 3.62D-25
 IDIUse=1 WtCom= 1.00D+00 WtEn= 0.00D+00
 Coeff-Com:  0.100D+01
 Coeff:      0.100D+01
 Gap=     0.626 Goal=   None    Shift=    0.000
 DSYEVD returned Info=          89 IAlg= 4 N=    59 NDim=    59 NE2=    18198197 trying DSYEV.
 RMSDP=8.66D-15 MaxDP=2.42D-13              OVMax= 3.70D-14

 SCF Done:  E(RLC-wPBE) =  -2753.47775989     A.U. after    1 cycles
             Convg  =    0.8663D-14             -V/T =  2.0014
 KE= 2.749561508178D+03 PE=-6.579099712888D+03 EE= 1.076060444820D+03
 Leave Link  502 at Fri May  8 00:51:54 2020, MaxMem= 1073741824 cpu:      11.7
 (Enter /home/matheus/.gaussian/g09/l122.exe)
 Restoring MOs from calculation   1 to rwf.
 Counterpoise: corrected energy =   -2905.009058614306
 Counterpoise: BSSE energy =       0.000025108751
 Leave Link  122 at Fri May  8 00:51:54 2020, MaxMem= 1073741824 cpu:       0.0
 (Enter /home/matheus/.gaussian/g09/l108.exe)
 Scan completed.

 Summary of the potential surface scan:
   N      R1          SCF    
 ----  ---------  -----------
    1     3.0000  -2753.47776
    2     3.1000  -2753.47776
    3     3.2000  -2753.47776
    4     3.3000  -2753.47776
    5     3.4000  -2753.47776
    6     3.5000  -2753.47776
    7     3.6000  -2753.47776
    8     3.7000  -2753.47776
    9     3.8000  -2753.47776
   10     3.9000  -2753.47776
   11     4.0000  -2753.47776
   12     4.1000  -2753.47776
   13     4.2000  -2753.47776
   14     4.3000  -2753.47776
   15     4.4000  -2753.47776
   16     4.5000  -2753.47776
   17     4.6000  -2753.47776
   18     4.7000  -2753.47776
   19     4.8000  -2753.47776
   20     4.9000  -2753.47776
   21     5.0000  -2753.47776
 ----  ---------  -----------
  
 Leave Link  108 at Fri May  8 00:51:54 2020, MaxMem= 1073741824 cpu:       0.0
 (Enter /home/matheus/.gaussian/g09/l9999.exe)

 Test job not archived.
 1\1\GINC-REDGIANT\Scan\RLC-wPBE\Aug-CC-pVTZ\H2Kr1O2\MATHEUS\08-May-202
 0\1\\#p lc-wpbe/aug-cc-PVTz iop(3/107=0550000000) iop(3/108=0550000000
 ) int=ultrafine counterpoise=2 Scan\\TCC\\0,1\O,0,0.,0.,0.725\O,0,0.,0
 .,-0.725\H,0,-0.3142209495,-0.8633149634,1.0235104166\H,0,0.,0.9187205
 947,-1.0235104166\Kr,0,0.,R1,0.\\R1=3.,s,20,0.1\\Version=EM64L-G09RevC
 .01\State=1-A\HF=-2753.4777599,-2753.4777599,-2753.4777599,-2753.47775
 99,-2753.4777599,-2753.4777599,-2753.4777599,-2753.4777599,-2753.47775
 99,-2753.4777599,-2753.4777599,-2753.4777599,-2753.4777599,-2753.47775
 99,-2753.4777599,-2753.4777599,-2753.4777599,-2753.4777599,-2753.47775
 99,-2753.4777599,-2753.4777599\RMSD=1.997e-09,5.419e-11,1.021e-11,4.44
 3e-12,2.191e-12,1.233e-12,6.830e-13,3.783e-13,2.126e-13,1.183e-13,6.04
 2e-14,3.365e-14,1.867e-14,1.134e-14,7.519e-15,8.534e-15,4.946e-15,5.36
 4e-15,7.235e-15,1.035e-14,8.663e-15\PG=C01 [X(H2Kr1O2)]\\@


 IT IS NOT EASY TO DESCRIBE
     THE SEA WITH THE MOUTH

                   -- KOKYU
 Job cpu time:  0 days  3 hours 13 minutes 52.8 seconds.
 File lengths (MBytes):  RWF=     33 Int=      0 D2E=      0 Chk=      8 Scr=      1
 Normal termination of Gaussian 09 at Fri May  8 00:51:55 2020.
