 Entering Gaussian System, Link 0=g09
 Input=/home/matheus/.tcc/Inputs-lc-wpbe/H2O2-Kr_35.com
 Output=/home/matheus/.tcc/Logs-lc-wpbe/H2O2-Kr_35.log
 Initial command:
 /home/matheus/.gaussian/g09/l1.exe /home/matheus/.gaussian/g09/scratch/Gau-17702.inp -scrdir=/home/matheus/.gaussian/g09/scratch/
 Entering Link 1 = /home/matheus/.gaussian/g09/l1.exe PID=     17705.
  
 Copyright (c) 1988,1990,1992,1993,1995,1998,2003,2009,2011,
            Gaussian, Inc.  All Rights Reserved.
  
 This is part of the Gaussian(R) 09 program.  It is based on
 the Gaussian(R) 03 system (copyright 2003, Gaussian, Inc.),
 the Gaussian(R) 98 system (copyright 1998, Gaussian, Inc.),
 the Gaussian(R) 94 system (copyright 1995, Gaussian, Inc.),
 the Gaussian 92(TM) system (copyright 1992, Gaussian, Inc.),
 the Gaussian 90(TM) system (copyright 1990, Gaussian, Inc.),
 the Gaussian 88(TM) system (copyright 1988, Gaussian, Inc.),
 the Gaussian 86(TM) system (copyright 1986, Carnegie Mellon
 University), and the Gaussian 82(TM) system (copyright 1983,
 Carnegie Mellon University). Gaussian is a federally registered
 trademark of Gaussian, Inc.
  
 This software contains proprietary and confidential information,
 including trade secrets, belonging to Gaussian, Inc.
  
 This software is provided under written license and may be
 used, copied, transmitted, or stored only in accord with that
 written license.
  
 The following legend is applicable only to US Government
 contracts under FAR:
  
                    RESTRICTED RIGHTS LEGEND
  
 Use, reproduction and disclosure by the US Government is
 subject to restrictions as set forth in subparagraphs (a)
 and (c) of the Commercial Computer Software - Restricted
 Rights clause in FAR 52.227-19.
  
 Gaussian, Inc.
 340 Quinnipiac St., Bldg. 40, Wallingford CT 06492
  
  
 ---------------------------------------------------------------
 Warning -- This program may not be used in any manner that
 competes with the business of Gaussian, Inc. or will provide
 assistance to any competitor of Gaussian, Inc.  The licensee
 of this program is prohibited from giving any competitor of
 Gaussian, Inc. access to this program.  By using this program,
 the user acknowledges that Gaussian, Inc. is engaged in the
 business of creating and licensing software in the field of
 computational chemistry and represents and warrants to the
 licensee that it is not a competitor of Gaussian, Inc. and that
 it will not use this program in any manner prohibited above.
 ---------------------------------------------------------------
  

 Cite this work as:
 Gaussian 09, Revision C.01,
 M. J. Frisch, G. W. Trucks, H. B. Schlegel, G. E. Scuseria, 
 M. A. Robb, J. R. Cheeseman, G. Scalmani, V. Barone, B. Mennucci, 
 G. A. Petersson, H. Nakatsuji, M. Caricato, X. Li, H. P. Hratchian, 
 A. F. Izmaylov, J. Bloino, G. Zheng, J. L. Sonnenberg, M. Hada, 
 M. Ehara, K. Toyota, R. Fukuda, J. Hasegawa, M. Ishida, T. Nakajima, 
 Y. Honda, O. Kitao, H. Nakai, T. Vreven, J. A. Montgomery, Jr., 
 J. E. Peralta, F. Ogliaro, M. Bearpark, J. J. Heyd, E. Brothers, 
 K. N. Kudin, V. N. Staroverov, T. Keith, R. Kobayashi, J. Normand, 
 K. Raghavachari, A. Rendell, J. C. Burant, S. S. Iyengar, J. Tomasi, 
 M. Cossi, N. Rega, J. M. Millam, M. Klene, J. E. Knox, J. B. Cross, 
 V. Bakken, C. Adamo, J. Jaramillo, R. Gomperts, R. E. Stratmann, 
 O. Yazyev, A. J. Austin, R. Cammi, C. Pomelli, J. W. Ochterski, 
 R. L. Martin, K. Morokuma, V. G. Zakrzewski, G. A. Voth, 
 P. Salvador, J. J. Dannenberg, S. Dapprich, A. D. Daniels, 
 O. Farkas, J. B. Foresman, J. V. Ortiz, J. Cioslowski, 
 and D. J. Fox, Gaussian, Inc., Wallingford CT, 2010.
 
 ******************************************
 Gaussian 09:  EM64L-G09RevC.01 23-Sep-2011
                 8-May-2020 
 ******************************************
 %mem=8GB
 %nproc=8
 Will use up to    8 processors via shared memory.
 ----------------------------------------------------------------------
 #p lc-wpbe/aug-cc-PVTz iop(3/107=0550000000) iop(3/108=0550000000) int
 =ultrafine counterpoise=2 Scan
 ----------------------------------------------------------------------
 1/38=1,60=1,62=2/1,8;
 2/12=2,17=6,18=5,29=3,40=1/2;
 1/38=1,53=5172,62=2/22;
 3/5=16,6=1,7=10,11=2,16=1,25=1,30=1,74=-41,75=-5,107=550000000,108=550000000/1,2,3;
 4//1;
 5/5=2,38=5/2;
 6/7=2,8=2,9=2,10=2,18=1,28=1/1;
 1/53=4052,62=2,63=1/22;
 3/5=7,6=11,7=10,11=2,16=1,25=1,30=1,74=-41,75=-5,82=7,107=550000000,108=550000000/1,2,3;
 4//1;
 5/5=2,38=5/2;
 6/7=2,8=2,9=2,10=2,18=1,28=1/1;
 1/53=3042,62=2,63=2/22;
 3/5=7,6=11,7=10,11=2,16=1,25=1,30=1,74=-41,75=-5,82=7,107=550000000,108=550000000/1,2,3;
 4//1;
 5/5=2,38=5/2;
 6/7=2,8=2,9=2,10=2,18=1,28=1/1;
 1/53=2032,62=2,63=3/22;
 3/5=7,6=11,7=10,11=2,16=1,25=1,30=1,74=-41,75=-5,82=7,107=550000000,108=550000000/1,2,3;
 4//1;
 5/5=2,38=5/2;
 6/7=2,8=2,9=2,10=2,18=1,28=1/1;
 1/53=1022,62=2,63=4/22;
 3/5=7,6=11,7=10,11=2,16=1,25=1,30=1,74=-41,75=-5,82=7,107=550000000,108=550000000/1,2,3;
 4//1;
 5/5=2,38=5/2;
 6/7=2,8=2,9=2,10=2,18=1,28=1/1;
 1/53=5014,62=2,63=5/22;
 1/60=1,62=2/8(1);
 99/9=1/99;
 2/29=3/2;
 1/53=5173,62=2/22;
 3/5=7,6=11,7=10,11=2,16=1,25=1,30=1,74=-41,75=-5,82=7,107=550000000,108=550000000/1,2,3;
 4/5=5,16=3/1;
 5/5=2,38=5/2;
 1/53=4053,62=2,63=1/22;
 3/5=7,6=11,7=10,11=2,16=1,25=1,30=1,74=-41,75=-5,82=7,107=550000000,108=550000000/1,2,3;
 4/5=5,16=3/1;
 5/5=2,38=5/2;
 1/53=3043,62=2,63=2/22;
 3/5=7,6=11,7=10,11=2,16=1,25=1,30=1,74=-41,75=-5,82=7,107=550000000,108=550000000/1,2,3;
 4/5=5,16=3/1;
 5/5=2,38=5/2;
 1/53=2033,62=2,63=3/22;
 3/5=7,6=11,7=10,11=2,16=1,25=1,30=1,74=-41,75=-5,82=7,107=550000000,108=550000000/1,2,3;
 4/5=5,16=3/1;
 5/5=2,38=5/2;
 1/53=1024,62=2,63=4/22;
 3/5=7,6=11,7=10,11=2,16=1,25=1,30=1,74=-41,75=-5,82=7,107=550000000,108=550000000/1,2,3;
 4/5=5,16=3/1;
 5/5=2,38=5/2;
 1/53=5014,62=2,63=5/22;
 1/60=1,62=2/8(-22);
 99/9=1/99;
 Leave Link    1 at Fri May  8 06:19:00 2020, MaxMem= 1073741824 cpu:       0.1
 (Enter /home/matheus/.gaussian/g09/l101.exe)
 ---
 TCC
 ---
 Charge =  0 Multiplicity = 1 in supermolecule
 Charge =  0 Multiplicity = 1 in fragment  1.
 Charge =  0 Multiplicity = 1 in fragment  2.
 Symbolic Z-Matrix:
 O(Fragment=1)         0.        0.        0.725 
 O(Fragment=1)         0.        0.       -0.725 
 H(Fragment=1)        -0.15953   0.90476   1.02351 
 H(Fragment=1)         0.        0.91872  -1.02351 
 Kr(Fragment=2)        0.       R1        0. 
       Variables:
  R1                    3.     Scan 20    0.1    
 
 NAtoms=      5 NQM=        0 NQMF=       0 NMMI=      5 NMMIF=      0
                NMic=       0 NMicF=      0.
                    Isotopes and Nuclear Properties:
 (Nuclear quadrupole moments (NQMom) in fm**2, nuclear magnetic moments (NMagM)
  in nuclear magnetons)

  Atom         1           2           3           4           5
 IAtWgt=          16          16           1           1          84
 AtmWgt=  15.9949146  15.9949146   1.0078250   1.0078250  83.9115064
 NucSpn=           0           0           1           1           0
 AtZEff=   0.0000000   0.0000000   0.0000000   0.0000000   0.0000000
 NQMom=    0.0000000   0.0000000   0.0000000   0.0000000   0.0000000
 NMagM=    0.0000000   0.0000000   2.7928460   2.7928460   0.0000000
 Leave Link  101 at Fri May  8 06:19:00 2020, MaxMem= 1073741824 cpu:       0.3
 (Enter /home/matheus/.gaussian/g09/l108.exe)
 Scan the potential surface.
 Variable   Value     No. Steps Step-Size
 -------- ----------- --------- ---------
     1       3.000000      20      0.1000
 A total of     21 points will be computed.
 Leave Link  108 at Fri May  8 06:19:00 2020, MaxMem= 1073741824 cpu:       0.0
 (Enter /home/matheus/.gaussian/g09/l202.exe)
 ---------------------------------------------------------------------------------------------------
                            Z-MATRIX (ANGSTROMS AND DEGREES)
   CD    Cent   Atom    N1       Length/X        N2       Alpha/Y        N3        Beta/Z          J
 ---------------------------------------------------------------------------------------------------
      1      1  O        0   0.000000          0.000000          0.725000
      2      2  O        0   0.000000          0.000000         -0.725000
      3      3  H        0  -0.159534          0.904763          1.023510
      4      4  H        0   0.000000          0.918721         -1.023510
      5      5  Kr       0   0.000000          3.000000          0.000000
 ---------------------------------------------------------------------------------------------------
                         Z-Matrix orientation:                         
 ---------------------------------------------------------------------
 Center     Atomic      Atomic             Coordinates (Angstroms)
 Number     Number       Type             X           Y           Z
 ---------------------------------------------------------------------
      1          8           0        0.000000    0.000000    0.725000
      2          8           0        0.000000    0.000000   -0.725000
      3          1           0       -0.159534    0.904763    1.023510
      4          1           0        0.000000    0.918721   -1.023510
      5         36           0        0.000000    3.000000    0.000000
 ---------------------------------------------------------------------
                    Distance matrix (angstroms):
                    1          2          3          4          5
     1  O    0.000000
     2  O    1.450000   0.000000
     3  H    0.966000   1.975180   0.000000
     4  H    1.975180   0.966000   2.053275   0.000000
     5  Kr   3.086361   3.086361   2.337315   2.319331   0.000000
 Stoichiometry    H2KrO2
 Framework group  C1[X(H2KrO2)]
 Deg. of freedom     9
 Full point group                 C1      NOp   1
 Largest Abelian subgroup         C1      NOp   1
 Largest concise Abelian subgroup C1      NOp   1
                         Standard orientation:                         
 ---------------------------------------------------------------------
 Center     Atomic      Atomic             Coordinates (Angstroms)
 Number     Number       Type             X           Y           Z
 ---------------------------------------------------------------------
      1          8           0       -2.033875   -0.724487   -0.017820
      2          8           0       -2.033645    0.725337    0.004759
      3          1           0       -1.129442   -1.025614    0.138637
      4          1           0       -1.114878    1.023640    0.011023
      5         36           0        0.966235   -0.000134   -0.001255
 ---------------------------------------------------------------------
 Rotational constants (GHZ):     26.6670558      2.3882151      2.1923671
 Leave Link  202 at Fri May  8 06:19:00 2020, MaxMem= 1073741824 cpu:       0.0
 (Enter /home/matheus/.gaussian/g09/l122.exe)
 Leave Link  122 at Fri May  8 06:19:00 2020, MaxMem= 1073741824 cpu:       0.0
 (Enter /home/matheus/.gaussian/g09/l301.exe)
 Standard basis: Aug-CC-pVTZ (5D, 7F)
 Ernie: Thresh=  0.10000D-02 Tol=  0.10000D-05 Strict=F.
 Ernie:  38 primitive shells out of 205 were deleted.
 There are   197 symmetry adapted basis functions of A   symmetry.
 Integral buffers will be    131072 words long.
 Raffenetti 2 integral format.
 Two-electron integral symmetry is turned on.
   197 basis functions,   415 primitive gaussians,   229 cartesian basis functions
    27 alpha electrons       27 beta electrons
       nuclear repulsion energy       151.7892858201 Hartrees.
 IExCor=32609 DFT=T Ex+Corr=LC-wPBE ExCW=0 ScaHFX=  1.000000
 ScaDFX=  1.000000  0.000000  1.000000  1.000000 ScalE2=  1.000000  1.000000
 IRadAn=      5 IRanWt=     -1 IRanGd=            0 ICorTp=0
  HFx wShort=  0.000000 wLong=  0.550000 cFull=  0.000000 cShort=  0.000000 cLong=  1.000000
  DFx wShort=  0.000000 wLong=  0.550000 cFull=  0.000000 cShort=  0.000000 cLong=  1.000000
 NAtoms=    5 NActive=    5 NUniq=    5 SFac= 1.00D+00 NAtFMM=   60 NAOKFM=F Big=F
 Leave Link  301 at Fri May  8 06:19:00 2020, MaxMem= 1073741824 cpu:       0.2
 (Enter /home/matheus/.gaussian/g09/l302.exe)
 NPDir=0 NMtPBC=     1 NCelOv=     1 NCel=       1 NClECP=     1 NCelD=      1
         NCelK=      1 NCelE2=     1 NClLst=     1 CellRange=     0.0.
 One-electron integrals computed using PRISM.
 NBasis=   197 RedAO= T  NBF=   197
 NBsUse=   197 1.00D-06 NBFU=   197
 Precomputing XC quadrature grid using
 IXCGrd= 2 IRadAn=           5 IRanWt=          -1 IRanGd=           0 AccXCQ= 0.00D+00.
 NRdTot=     427 NPtTot=      123512 NUsed=      126579 NTot=      126611
 NSgBfM=   229   229   229   229   229 NAtAll=     5     5.
 Leave Link  302 at Fri May  8 06:19:00 2020, MaxMem= 1073741824 cpu:       0.9
 (Enter /home/matheus/.gaussian/g09/l303.exe)
 DipDrv:  MaxL=1.
 Leave Link  303 at Fri May  8 06:19:00 2020, MaxMem= 1073741824 cpu:       0.2
 (Enter /home/matheus/.gaussian/g09/l401.exe)
 Harris functional with IExCor=32609 diagonalized for initial guess.
 ExpMin= 2.53D-02 ExpMax= 1.17D+07 ExpMxC= 1.33D+04 IAcc=3 IRadAn=         5 AccDes= 0.00D+00
 HarFok:  IExCor=32609 AccDes= 0.00D+00 IRadAn=         5 IDoV= 1
 ScaDFX=  1.000000  1.000000  1.000000  1.000000
 FoFCou: FMM=F IPFlag=           0 FMFlag=      100000 FMFlg1=           0
         NFxFlg=           0 DoJE=T BraDBF=F KetDBF=T FulRan=T
         Omega=  0.000000  0.000000  1.000000  0.000000  0.000000 ICntrl=     500 IOpCl=  0
         NMat0=    1 NMatS0=    1 NMatT0=    0 NMatD0=    1 NMtDS0=    0 NMtDT0=    0
         I1Cent=           4 NGrid=           0.
 Petite list used in FoFCou.
 Harris En= -2904.72952075202    
 Initial guess orbital symmetries:
       Occupied  (A) (A) (A) (A) (A) (A) (A) (A) (A) (A) (A) (A)
                 (A) (A) (A) (A) (A) (A) (A) (A) (A) (A) (A) (A)
                 (A) (A) (A)
       Virtual   (A) (A) (A) (A) (A) (A) (A) (A) (A) (A) (A) (A)
                 (A) (A) (A) (A) (A) (A) (A) (A) (A) (A) (A) (A)
                 (A) (A) (A) (A) (A) (A) (A) (A) (A) (A) (A) (A)
                 (A) (A) (A) (A) (A) (A) (A) (A) (A) (A) (A) (A)
                 (A) (A) (A) (A) (A) (A) (A) (A) (A) (A) (A) (A)
                 (A) (A) (A) (A) (A) (A) (A) (A) (A) (A) (A) (A)
                 (A) (A) (A) (A) (A) (A) (A) (A) (A) (A) (A) (A)
                 (A) (A) (A) (A) (A) (A) (A) (A) (A) (A) (A) (A)
                 (A) (A) (A) (A) (A) (A) (A) (A) (A) (A) (A) (A)
                 (A) (A) (A) (A) (A) (A) (A) (A) (A) (A) (A) (A)
                 (A) (A) (A) (A) (A) (A) (A) (A) (A) (A) (A) (A)
                 (A) (A) (A) (A) (A) (A) (A) (A) (A) (A) (A) (A)
                 (A) (A) (A) (A) (A) (A) (A) (A) (A) (A) (A) (A)
                 (A) (A) (A) (A) (A) (A) (A) (A) (A) (A) (A) (A)
                 (A) (A)
 The electronic state of the initial guess is 1-A.
 Leave Link  401 at Fri May  8 06:19:01 2020, MaxMem= 1073741824 cpu:       3.9
 (Enter /home/matheus/.gaussian/g09/l502.exe)
 Closed shell SCF:
 Requested convergence on RMS density matrix=1.00D-08 within 128 cycles.
 Requested convergence on MAX density matrix=1.00D-06.
 Requested convergence on             energy=1.00D-06.
 No special actions if energy rises.
 Using DIIS extrapolation, IDIIS=  1040.
 Integral symmetry usage will be decided dynamically.
       126521 words used for storage of precomputed grid.
 IEnd=      305468 IEndB=      305468 NGot=  1073741824 MDV=  1073505667
 LenX=  1073505667 LenY=  1073452785
 Fock matrices will be formed incrementally for  20 cycles.

 Cycle   1  Pass 1  IDiag  1:
 FoFJK:  IHMeth= 1 ICntrl=     0 DoSepK=T KAlg= 1 I1Cent= 0 FoldK=F
 FoFCou: FMM=F IPFlag=           0 FMFlag=      100000 FMFlg1=           0
         NFxFlg=           0 DoJE=T BraDBF=F KetDBF=F FulRan=T
         Omega=  0.000000  0.000000  1.000000  0.000000  0.000000 ICntrl=     500 IOpCl=  0
         NMat0=    1 NMatS0=    1 NMatT0=    0 NMatD0=    1 NMtDS0=    0 NMtDT0=    0
         I1Cent=           0 NGrid=           0.
 Symmetry not used in FoFCou.
 E= -2904.91774021085    
 DIIS: error= 3.37D-02 at cycle   1 NSaved=   1.
 NSaved= 1 IEnMin= 1 EnMin= -2904.91774021085     IErMin= 1 ErrMin= 3.37D-02
 ErrMax= 3.37D-02 EMaxC= 1.00D-01 BMatC= 2.78D-01 BMatP= 2.78D-01
 IDIUse=3 WtCom= 6.63D-01 WtEn= 3.37D-01
 Coeff-Com:  0.100D+01
 Coeff-En:   0.100D+01
 Coeff:      0.100D+01
 Gap=     0.539 Goal=   None    Shift=    0.000
 GapD=    0.539 DampG=2.000 DampE=0.500 DampFc=1.0000 IDamp=-1.
 RMSDP=2.37D-03 MaxDP=1.49D-01              OVMax= 7.75D-02

 Cycle   2  Pass 1  IDiag  1:
 RMSU=  1.65D-03    CP:  1.02D+00
 FoFJK:  IHMeth= 1 ICntrl=     0 DoSepK=T KAlg= 1 I1Cent= 0 FoldK=F
 E= -2904.97036032728     Delta-E=       -0.052620116435 Rises=F Damp=F
 DIIS: error= 1.24D-02 at cycle   2 NSaved=   2.
 NSaved= 2 IEnMin= 2 EnMin= -2904.97036032728     IErMin= 2 ErrMin= 1.24D-02
 ErrMax= 1.24D-02 EMaxC= 1.00D-01 BMatC= 7.47D-02 BMatP= 2.78D-01
 IDIUse=3 WtCom= 8.76D-01 WtEn= 1.24D-01
 Coeff-Com:  0.334D+00 0.666D+00
 Coeff-En:   0.120D+00 0.880D+00
 Coeff:      0.308D+00 0.692D+00
 Gap=     0.466 Goal=   None    Shift=    0.000
 RMSDP=9.82D-04 MaxDP=5.24D-02 DE=-5.26D-02 OVMax= 3.12D-02

 Cycle   3  Pass 1  IDiag  1:
 RMSU=  3.29D-04    CP:  1.01D+00  6.40D-01
 FoFJK:  IHMeth= 1 ICntrl=     0 DoSepK=T KAlg= 1 I1Cent= 0 FoldK=F
 E= -2904.99668224926     Delta-E=       -0.026321921981 Rises=F Damp=F
 DIIS: error= 2.97D-03 at cycle   3 NSaved=   3.
 NSaved= 3 IEnMin= 3 EnMin= -2904.99668224926     IErMin= 3 ErrMin= 2.97D-03
 ErrMax= 2.97D-03 EMaxC= 1.00D-01 BMatC= 1.59D-03 BMatP= 7.47D-02
 IDIUse=3 WtCom= 9.70D-01 WtEn= 2.97D-02
 Coeff-Com:  0.454D-01 0.175D+00 0.780D+00
 Coeff-En:   0.000D+00 0.000D+00 0.100D+01
 Coeff:      0.440D-01 0.170D+00 0.786D+00
 Gap=     0.447 Goal=   None    Shift=    0.000
 RMSDP=1.12D-04 MaxDP=2.82D-03 DE=-2.63D-02 OVMax= 6.72D-03

 Cycle   4  Pass 1  IDiag  1:
 RMSU=  5.40D-05    CP:  1.01D+00  6.69D-01  9.10D-01
 FoFJK:  IHMeth= 1 ICntrl=     0 DoSepK=T KAlg= 1 I1Cent= 0 FoldK=F
 E= -2904.99749870091     Delta-E=       -0.000816451642 Rises=F Damp=F
 DIIS: error= 8.15D-04 at cycle   4 NSaved=   4.
 NSaved= 4 IEnMin= 4 EnMin= -2904.99749870091     IErMin= 4 ErrMin= 8.15D-04
 ErrMax= 8.15D-04 EMaxC= 1.00D-01 BMatC= 9.96D-05 BMatP= 1.59D-03
 IDIUse=3 WtCom= 9.92D-01 WtEn= 8.15D-03
 Coeff-Com: -0.684D-02 0.159D-01 0.261D+00 0.730D+00
 Coeff-En:   0.000D+00 0.000D+00 0.000D+00 0.100D+01
 Coeff:     -0.678D-02 0.158D-01 0.259D+00 0.732D+00
 Gap=     0.452 Goal=   None    Shift=    0.000
 RMSDP=3.69D-05 MaxDP=1.56D-03 DE=-8.16D-04 OVMax= 1.83D-03

 Cycle   5  Pass 1  IDiag  1:
 RMSU=  1.29D-05    CP:  1.01D+00  6.72D-01  9.72D-01  8.30D-01
 FoFJK:  IHMeth= 1 ICntrl=     0 DoSepK=T KAlg= 1 I1Cent= 0 FoldK=F
 E= -2904.99755964982     Delta-E=       -0.000060948912 Rises=F Damp=F
 DIIS: error= 9.86D-05 at cycle   5 NSaved=   5.
 NSaved= 5 IEnMin= 5 EnMin= -2904.99755964982     IErMin= 5 ErrMin= 9.86D-05
 ErrMax= 9.86D-05 EMaxC= 1.00D-01 BMatC= 1.62D-06 BMatP= 9.96D-05
 IDIUse=1 WtCom= 1.00D+00 WtEn= 0.00D+00
 Coeff-Com: -0.171D-02-0.624D-02-0.252D-01 0.391D-01 0.994D+00
 Coeff:     -0.171D-02-0.624D-02-0.252D-01 0.391D-01 0.994D+00
 Gap=     0.451 Goal=   None    Shift=    0.000
 RMSDP=6.71D-06 MaxDP=2.45D-04 DE=-6.09D-05 OVMax= 5.30D-04

 Cycle   6  Pass 1  IDiag  1:
 RMSU=  2.68D-06    CP:  1.01D+00  6.72D-01  9.75D-01  8.83D-01  1.17D+00
 FoFJK:  IHMeth= 1 ICntrl=     0 DoSepK=T KAlg= 1 I1Cent= 0 FoldK=F
 E= -2904.99756169295     Delta-E=       -0.000002043131 Rises=F Damp=F
 DIIS: error= 2.73D-05 at cycle   6 NSaved=   6.
 NSaved= 6 IEnMin= 6 EnMin= -2904.99756169295     IErMin= 6 ErrMin= 2.73D-05
 ErrMax= 2.73D-05 EMaxC= 1.00D-01 BMatC= 8.10D-08 BMatP= 1.62D-06
 IDIUse=1 WtCom= 1.00D+00 WtEn= 0.00D+00
 Coeff-Com:  0.143D-03-0.181D-02-0.182D-01-0.356D-01 0.752D-01 0.980D+00
 Coeff:      0.143D-03-0.181D-02-0.182D-01-0.356D-01 0.752D-01 0.980D+00
 Gap=     0.451 Goal=   None    Shift=    0.000
 RMSDP=2.59D-06 MaxDP=8.97D-05 DE=-2.04D-06 OVMax= 1.88D-04

 Cycle   7  Pass 1  IDiag  1:
 RMSU=  8.14D-07    CP:  1.01D+00  6.72D-01  9.78D-01  8.93D-01  1.26D+00
                    CP:  1.18D+00
 FoFJK:  IHMeth= 1 ICntrl=     0 DoSepK=T KAlg= 1 I1Cent= 0 FoldK=F
 E= -2904.99756188439     Delta-E=       -0.000000191445 Rises=F Damp=F
 DIIS: error= 9.49D-06 at cycle   7 NSaved=   7.
 NSaved= 7 IEnMin= 7 EnMin= -2904.99756188439     IErMin= 7 ErrMin= 9.49D-06
 ErrMax= 9.49D-06 EMaxC= 1.00D-01 BMatC= 9.45D-09 BMatP= 8.10D-08
 IDIUse=1 WtCom= 1.00D+00 WtEn= 0.00D+00
 Coeff-Com:  0.665D-04 0.725D-04-0.407D-03-0.389D-02-0.309D-01 0.737D-01
 Coeff-Com:  0.961D+00
 Coeff:      0.665D-04 0.725D-04-0.407D-03-0.389D-02-0.309D-01 0.737D-01
 Coeff:      0.961D+00
 Gap=     0.451 Goal=   None    Shift=    0.000
 RMSDP=7.57D-07 MaxDP=2.90D-05 DE=-1.91D-07 OVMax= 7.34D-05

 Cycle   8  Pass 1  IDiag  1:
 RMSU=  3.08D-07    CP:  1.01D+00  6.72D-01  9.79D-01  8.94D-01  1.28D+00
                    CP:  1.23D+00  1.34D+00
 FoFJK:  IHMeth= 1 ICntrl=     0 DoSepK=T KAlg= 1 I1Cent= 0 FoldK=F
 E= -2904.99756190085     Delta-E=       -0.000000016454 Rises=F Damp=F
 DIIS: error= 5.30D-06 at cycle   8 NSaved=   8.
 NSaved= 8 IEnMin= 8 EnMin= -2904.99756190085     IErMin= 8 ErrMin= 5.30D-06
 ErrMax= 5.30D-06 EMaxC= 1.00D-01 BMatC= 5.67D-09 BMatP= 9.45D-09
 IDIUse=1 WtCom= 1.00D+00 WtEn= 0.00D+00
 Coeff-Com:  0.377D-05 0.448D-03 0.386D-02 0.585D-02-0.331D-01-0.182D+00
 Coeff-Com:  0.509D+00 0.696D+00
 Coeff:      0.377D-05 0.448D-03 0.386D-02 0.585D-02-0.331D-01-0.182D+00
 Coeff:      0.509D+00 0.696D+00
 Gap=     0.451 Goal=   None    Shift=    0.000
 RMSDP=3.81D-07 MaxDP=1.60D-05 DE=-1.65D-08 OVMax= 3.86D-05

 Cycle   9  Pass 1  IDiag  1:
 RMSU=  1.11D-07    CP:  1.01D+00  6.72D-01  9.79D-01  8.95D-01  1.29D+00
                    CP:  1.24D+00  1.58D+00  9.64D-01
 FoFJK:  IHMeth= 1 ICntrl=     0 DoSepK=T KAlg= 1 I1Cent= 0 FoldK=F
 E= -2904.99756190600     Delta-E=       -0.000000005149 Rises=F Damp=F
 DIIS: error= 2.11D-06 at cycle   9 NSaved=   9.
 NSaved= 9 IEnMin= 9 EnMin= -2904.99756190600     IErMin= 9 ErrMin= 2.11D-06
 ErrMax= 2.11D-06 EMaxC= 1.00D-01 BMatC= 1.75D-10 BMatP= 5.67D-09
 IDIUse=1 WtCom= 1.00D+00 WtEn= 0.00D+00
 Coeff-Com: -0.773D-05-0.216D-04-0.998D-04 0.874D-04 0.512D-02 0.784D-03
 Coeff-Com: -0.137D+00-0.341D-01 0.116D+01
 Coeff:     -0.773D-05-0.216D-04-0.998D-04 0.874D-04 0.512D-02 0.784D-03
 Coeff:     -0.137D+00-0.341D-01 0.116D+01
 Gap=     0.451 Goal=   None    Shift=    0.000
 RMSDP=1.74D-07 MaxDP=7.12D-06 DE=-5.15D-09 OVMax= 1.89D-05

 Cycle  10  Pass 1  IDiag  1:
 RMSU=  3.63D-08    CP:  1.01D+00  6.72D-01  9.79D-01  8.95D-01  1.29D+00
                    CP:  1.23D+00  1.66D+00  1.13D+00  1.37D+00
 FoFJK:  IHMeth= 1 ICntrl=     0 DoSepK=T KAlg= 1 I1Cent= 0 FoldK=F
 E= -2904.99756190657     Delta-E=       -0.000000000578 Rises=F Damp=F
 DIIS: error= 5.62D-07 at cycle  10 NSaved=  10.
 NSaved=10 IEnMin=10 EnMin= -2904.99756190657     IErMin=10 ErrMin= 5.62D-07
 ErrMax= 5.62D-07 EMaxC= 1.00D-01 BMatC= 1.56D-11 BMatP= 1.75D-10
 IDIUse=1 WtCom= 1.00D+00 WtEn= 0.00D+00
 Coeff-Com: -0.776D-06-0.440D-04-0.366D-03-0.635D-03 0.330D-02 0.197D-01
 Coeff-Com: -0.621D-01-0.732D-01 0.986D-01 0.101D+01
 Coeff:     -0.776D-06-0.440D-04-0.366D-03-0.635D-03 0.330D-02 0.197D-01
 Coeff:     -0.621D-01-0.732D-01 0.986D-01 0.101D+01
 Gap=     0.451 Goal=   None    Shift=    0.000
 RMSDP=4.45D-08 MaxDP=1.64D-06 DE=-5.78D-10 OVMax= 4.94D-06

 Cycle  11  Pass 1  IDiag  1:
 RMSU=  9.91D-09    CP:  1.01D+00  6.72D-01  9.79D-01  8.95D-01  1.29D+00
                    CP:  1.23D+00  1.68D+00  1.17D+00  1.50D+00  1.19D+00
 FoFJK:  IHMeth= 1 ICntrl=     0 DoSepK=T KAlg= 1 I1Cent= 0 FoldK=F
 E= -2904.99756190659     Delta-E=       -0.000000000013 Rises=F Damp=F
 DIIS: error= 1.01D-07 at cycle  11 NSaved=  11.
 NSaved=11 IEnMin=11 EnMin= -2904.99756190659     IErMin=11 ErrMin= 1.01D-07
 ErrMax= 1.01D-07 EMaxC= 1.00D-01 BMatC= 9.28D-13 BMatP= 1.56D-11
 IDIUse=1 WtCom= 1.00D+00 WtEn= 0.00D+00
 Coeff-Com:  0.651D-06 0.490D-05 0.402D-04 0.208D-04-0.753D-03-0.575D-03
 Coeff-Com:  0.140D-01 0.615D-02-0.984D-01-0.989D-01 0.118D+01
 Coeff:      0.651D-06 0.490D-05 0.402D-04 0.208D-04-0.753D-03-0.575D-03
 Coeff:      0.140D-01 0.615D-02-0.984D-01-0.989D-01 0.118D+01
 Gap=     0.451 Goal=   None    Shift=    0.000
 RMSDP=1.04D-08 MaxDP=1.88D-07 DE=-1.32D-11 OVMax= 1.19D-06

 Cycle  12  Pass 1  IDiag  1:
 RMSU=  2.30D-09    CP:  1.01D+00  6.72D-01  9.79D-01  8.95D-01  1.29D+00
                    CP:  1.23D+00  1.68D+00  1.17D+00  1.53D+00  1.29D+00
                    CP:  1.32D+00
 FoFJK:  IHMeth= 1 ICntrl=     0 DoSepK=T KAlg= 1 I1Cent= 0 FoldK=F
 E= -2904.99756190660     Delta-E=       -0.000000000009 Rises=F Damp=F
 DIIS: error= 1.85D-08 at cycle  12 NSaved=  12.
 NSaved=12 IEnMin=12 EnMin= -2904.99756190660     IErMin=12 ErrMin= 1.85D-08
 ErrMax= 1.85D-08 EMaxC= 1.00D-01 BMatC= 2.86D-14 BMatP= 9.28D-13
 IDIUse=1 WtCom= 1.00D+00 WtEn= 0.00D+00
 Coeff-Com:  0.186D-07 0.196D-05 0.156D-04 0.288D-04-0.184D-03-0.703D-03
 Coeff-Com:  0.263D-02 0.311D-02-0.188D-02-0.377D-01 0.943D-02 0.103D+01
 Coeff:      0.186D-07 0.196D-05 0.156D-04 0.288D-04-0.184D-03-0.703D-03
 Coeff:      0.263D-02 0.311D-02-0.188D-02-0.377D-01 0.943D-02 0.103D+01
 Gap=     0.451 Goal=   None    Shift=    0.000
 RMSDP=1.58D-09 MaxDP=6.86D-08 DE=-8.64D-12 OVMax= 9.27D-08

 SCF Done:  E(RLC-wPBE) =  -2904.99756191     A.U. after   12 cycles
             Convg  =    0.1581D-08             -V/T =  2.0017
 KE= 2.900059723576D+03 PE=-7.239546400005D+03 EE= 1.282699828702D+03
 Leave Link  502 at Fri May  8 06:19:37 2020, MaxMem= 1073741824 cpu:     289.6
 (Enter /home/matheus/.gaussian/g09/l601.exe)
 Copying SCF densities to generalized density rwf, IOpCl= 0 IROHF=0.

 **********************************************************************

            Population analysis using the SCF density.

 **********************************************************************

 Orbital symmetries:
       Occupied  (A) (A) (A) (A) (A) (A) (A) (A) (A) (A) (A) (A)
                 (A) (A) (A) (A) (A) (A) (A) (A) (A) (A) (A) (A)
                 (A) (A) (A)
       Virtual   (A) (A) (A) (A) (A) (A) (A) (A) (A) (A) (A) (A)
                 (A) (A) (A) (A) (A) (A) (A) (A) (A) (A) (A) (A)
                 (A) (A) (A) (A) (A) (A) (A) (A) (A) (A) (A) (A)
                 (A) (A) (A) (A) (A) (A) (A) (A) (A) (A) (A) (A)
                 (A) (A) (A) (A) (A) (A) (A) (A) (A) (A) (A) (A)
                 (A) (A) (A) (A) (A) (A) (A) (A) (A) (A) (A) (A)
                 (A) (A) (A) (A) (A) (A) (A) (A) (A) (A) (A) (A)
                 (A) (A) (A) (A) (A) (A) (A) (A) (A) (A) (A) (A)
                 (A) (A) (A) (A) (A) (A) (A) (A) (A) (A) (A) (A)
                 (A) (A) (A) (A) (A) (A) (A) (A) (A) (A) (A) (A)
                 (A) (A) (A) (A) (A) (A) (A) (A) (A) (A) (A) (A)
                 (A) (A) (A) (A) (A) (A) (A) (A) (A) (A) (A) (A)
                 (A) (A) (A) (A) (A) (A) (A) (A) (A) (A) (A) (A)
                 (A) (A) (A) (A) (A) (A) (A) (A) (A) (A) (A) (A)
                 (A) (A)
 The electronic state is 1-A.
 Alpha  occ. eigenvalues -- -511.22761 -66.77584 -60.43702 -60.43692 -60.43680
 Alpha  occ. eigenvalues --  -19.10793 -19.10772  -9.71146  -7.45430  -7.45398
 Alpha  occ. eigenvalues --   -7.45362  -3.39835  -3.39832  -3.39804  -3.39780
 Alpha  occ. eigenvalues --   -3.39776  -1.32136  -1.13274  -1.09094  -0.74814
 Alpha  occ. eigenvalues --   -0.59739  -0.58471  -0.57681  -0.56327  -0.55527
 Alpha  occ. eigenvalues --   -0.52966  -0.41769
 Alpha virt. eigenvalues --    0.03377   0.04388   0.08282   0.09043   0.10728
 Alpha virt. eigenvalues --    0.12365   0.12963   0.16938   0.17423   0.18227
 Alpha virt. eigenvalues --    0.18775   0.19330   0.21445   0.22279   0.23641
 Alpha virt. eigenvalues --    0.24399   0.25101   0.26789   0.31133   0.34497
 Alpha virt. eigenvalues --    0.35419   0.38229   0.39413   0.39460   0.40528
 Alpha virt. eigenvalues --    0.44262   0.46578   0.50059   0.53241   0.54873
 Alpha virt. eigenvalues --    0.60636   0.63237   0.63707   0.65144   0.65872
 Alpha virt. eigenvalues --    0.70949   0.70986   0.73023   0.74395   0.76443
 Alpha virt. eigenvalues --    0.77029   0.79401   0.81985   0.85228   0.87321
 Alpha virt. eigenvalues --    0.88343   0.88627   0.90765   0.91238   0.93214
 Alpha virt. eigenvalues --    0.95893   0.98628   0.99331   1.01123   1.02765
 Alpha virt. eigenvalues --    1.05532   1.07783   1.09337   1.11964   1.12051
 Alpha virt. eigenvalues --    1.14859   1.21452   1.24571   1.29639   1.31004
 Alpha virt. eigenvalues --    1.33477   1.34604   1.40698   1.43155   1.49280
 Alpha virt. eigenvalues --    1.50812   1.53404   1.57262   1.58799   1.61689
 Alpha virt. eigenvalues --    1.66870   1.69752   1.82492   1.96074   1.97924
 Alpha virt. eigenvalues --    2.00889   2.04472   2.12041   2.15834   2.16975
 Alpha virt. eigenvalues --    2.22541   2.24689   2.25451   2.26503   2.31806
 Alpha virt. eigenvalues --    2.34890   2.36017   2.36561   2.37712   2.40834
 Alpha virt. eigenvalues --    2.42288   2.44218   2.46841   2.51495   2.52095
 Alpha virt. eigenvalues --    2.53328   2.54305   2.61508   2.62659   2.67714
 Alpha virt. eigenvalues --    2.68435   2.69813   2.73377   2.75984   2.76520
 Alpha virt. eigenvalues --    2.77311   2.80978   2.84140   2.92452   2.93929
 Alpha virt. eigenvalues --    2.99240   3.14273   3.16663   3.22163   3.58851
 Alpha virt. eigenvalues --    3.81032   3.87961   4.00627   4.07814   4.14469
 Alpha virt. eigenvalues --    4.15272   4.17645   4.23939   4.25008   4.30420
 Alpha virt. eigenvalues --    4.40578   4.51766   4.61951   4.75075   4.77844
 Alpha virt. eigenvalues --    5.00947   5.05201   5.06766   5.12460   5.18832
 Alpha virt. eigenvalues --    5.22289   5.58265   5.85804   6.04099   6.11275
 Alpha virt. eigenvalues --    6.17744   6.37533   6.43540   6.53486   6.62899
 Alpha virt. eigenvalues --    6.74737   6.75153   6.81091   6.82974   6.86103
 Alpha virt. eigenvalues --    6.91299   6.91858   6.93918   6.97316   7.16269
 Alpha virt. eigenvalues --    7.20495   7.24209   7.32904   7.33436   7.66300
 Alpha virt. eigenvalues --    8.00480   8.09648   8.24247  13.80155  14.72686
          Condensed to atoms (all electrons):
              1          2          3          4          5
     1  O    8.262876  -0.248913   0.176059   0.039470  -0.016069
     2  O   -0.248913   8.259416   0.040772   0.179667  -0.014085
     3  H    0.176059   0.040772   0.611819  -0.023796  -0.016141
     4  H    0.039470   0.179667  -0.023796   0.609507  -0.018661
     5  Kr  -0.016069  -0.014085  -0.016141  -0.018661  36.059774
 Mulliken atomic charges:
              1
     1  O   -0.213423
     2  O   -0.216858
     3  H    0.211287
     4  H    0.213812
     5  Kr   0.005182
 Sum of Mulliken atomic charges =   0.00000
 Mulliken charges with hydrogens summed into heavy atoms:
              1
     1  O   -0.002136
     2  O   -0.003045
     5  Kr   0.005182
 Sum of Mulliken charges with hydrogens summed into heavy atoms =   0.00000
          Condensed to fragments (all electrons):
     1      -0.005182
     2       0.005182
 Electronic spatial extent (au):  <R**2>=            475.1978
 Charge=              0.0000 electrons
 Dipole moment (field-independent basis, Debye):
    X=              3.7888    Y=             -0.0121    Z=              0.2319  Tot=              3.7959
 Quadrupole moment (field-independent basis, Debye-Ang):
   XX=            -38.8597   YY=            -28.0034   ZZ=            -30.3137
   XY=              0.0349   XZ=             -0.2573   YZ=             -0.3114
 Traceless Quadrupole moment (field-independent basis, Debye-Ang):
   XX=             -6.4674   YY=              4.3889   ZZ=              2.0786
   XY=              0.0349   XZ=             -0.2573   YZ=             -0.3114
 Octapole moment (field-independent basis, Debye-Ang**2):
  XXX=             45.6670  YYY=             -0.0288  ZZZ=             -0.0087  XYY=              8.2555
  XXY=             -0.0798  XXZ=             -0.0358  XZZ=              8.9396  YZZ=             -0.0565
  YYZ=              0.3565  XYZ=              0.3370
 Hexadecapole moment (field-independent basis, Debye-Ang**3):
 XXXX=           -454.7211 YYYY=            -62.6382 ZZZZ=            -28.4718 XXXY=              0.0762
 XXXZ=              0.5232 YYYX=              0.0648 YYYZ=             -0.4245 ZZZX=             -0.0984
 ZZZY=             -0.1666 XXYY=            -86.3176 XXZZ=            -75.9844 YYZZ=            -17.0968
 XXYZ=             -0.3431 YYXZ=             -0.4023 ZZXY=              0.0719
 N-N= 1.517892858201D+02 E-N=-7.239546400148D+03  KE= 2.900059723576D+03
 No NMR shielding tensors so no spin-rotation constants.
 Leave Link  601 at Fri May  8 06:19:37 2020, MaxMem= 1073741824 cpu:       0.8
 (Enter /home/matheus/.gaussian/g09/l122.exe)
 Counterpoise: doing DCBS calculation for fragment   1 NewBq=T
 Leave Link  122 at Fri May  8 06:19:37 2020, MaxMem= 1073741824 cpu:       0.0
 (Enter /home/matheus/.gaussian/g09/l301.exe)
 Basis read from rwf:  (5D, 7F)
 No pseudopotential information found on rwf file.
 There are   197 symmetry adapted basis functions of A   symmetry.
 Integral buffers will be    131072 words long.
 Raffenetti 2 integral format.
 Two-electron integral symmetry is turned on.
   197 basis functions,   415 primitive gaussians,   229 cartesian basis functions
     9 alpha electrons        9 beta electrons
       nuclear repulsion energy        36.6659649233 Hartrees.
 IExCor=32609 DFT=T Ex+Corr=LC-wPBE ExCW=0 ScaHFX=  1.000000
 ScaDFX=  1.000000  0.000000  1.000000  1.000000 ScalE2=  1.000000  1.000000
 IRadAn=      5 IRanWt=     -1 IRanGd=            0 ICorTp=0
  HFx wShort=  0.000000 wLong=  0.550000 cFull=  0.000000 cShort=  0.000000 cLong=  1.000000
  DFx wShort=  0.000000 wLong=  0.550000 cFull=  0.000000 cShort=  0.000000 cLong=  1.000000
 NAtoms=    5 NActive=    5 NUniq=    5 SFac= 1.00D+00 NAtFMM=   60 NAOKFM=F Big=F
 No density basis found on file   718.
 Leave Link  301 at Fri May  8 06:19:37 2020, MaxMem= 1073741824 cpu:       0.2
 (Enter /home/matheus/.gaussian/g09/l302.exe)
 NPDir=0 NMtPBC=     1 NCelOv=     1 NCel=       1 NClECP=     1 NCelD=      1
         NCelK=      1 NCelE2=     1 NClLst=     1 CellRange=     0.0.
 One-electron integrals computed using PRISM.
 NBasis=   197 RedAO= T  NBF=   197
 NBsUse=   197 1.00D-06 NBFU=   197
 Precomputing XC quadrature grid using
 IXCGrd= 2 IRadAn=           5 IRanWt=          -1 IRanGd=           0 AccXCQ= 0.00D+00.
 NRdTot=     427 NPtTot=      123512 NUsed=      126579 NTot=      126611
 NSgBfM=   229   229   229   229   229 NAtAll=     5     5.
 Leave Link  302 at Fri May  8 06:19:38 2020, MaxMem= 1073741824 cpu:       1.0
 (Enter /home/matheus/.gaussian/g09/l303.exe)
 DipDrv:  MaxL=1.
 Leave Link  303 at Fri May  8 06:19:38 2020, MaxMem= 1073741824 cpu:       0.2
 (Enter /home/matheus/.gaussian/g09/l401.exe)
 Harris functional with IExCor=32609 diagonalized for initial guess.
 ExpMin= 2.53D-02 ExpMax= 1.17D+07 ExpMxC= 1.33D+04 IAcc=3 IRadAn=         5 AccDes= 0.00D+00
 HarFok:  IExCor=32609 AccDes= 0.00D+00 IRadAn=         5 IDoV= 1
 ScaDFX=  1.000000  1.000000  1.000000  1.000000
 FoFCou: FMM=F IPFlag=           0 FMFlag=      100000 FMFlg1=           0
         NFxFlg=           0 DoJE=T BraDBF=F KetDBF=T FulRan=T
         Omega=  0.000000  0.000000  1.000000  0.000000  0.000000 ICntrl=     500 IOpCl=  0
         NMat0=    1 NMatS0=    1 NMatT0=    0 NMatD0=    1 NMtDS0=    0 NMtDT0=    0
         I1Cent=           4 NGrid=           0.
 Petite list used in FoFCou.
 Harris En= -151.498669390015    
 Initial guess orbital symmetries:
       Occupied  (A) (A) (A) (A) (A) (A) (A) (A) (A)
       Virtual   (A) (A) (A) (A) (A) (A) (A) (A) (A) (A) (A) (A)
                 (A) (A) (A) (A) (A) (A) (A) (A) (A) (A) (A) (A)
                 (A) (A) (A) (A) (A) (A) (A) (A) (A) (A) (A) (A)
                 (A) (A) (A) (A) (A) (A) (A) (A) (A) (A) (A) (A)
                 (A) (A) (A) (A) (A) (A) (A) (A) (A) (A) (A) (A)
                 (A) (A) (A) (A) (A) (A) (A) (A) (A) (A) (A) (A)
                 (A) (A) (A) (A) (A) (A) (A) (A) (A) (A) (A) (A)
                 (A) (A) (A) (A) (A) (A) (A) (A) (A) (A) (A) (A)
                 (A) (A) (A) (A) (A) (A) (A) (A) (A) (A) (A) (A)
                 (A) (A) (A) (A) (A) (A) (A) (A) (A) (A) (A) (A)
                 (A) (A) (A) (A) (A) (A) (A) (A) (A) (A) (A) (A)
                 (A) (A) (A) (A) (A) (A) (A) (A) (A) (A) (A) (A)
                 (A) (A) (A) (A) (A) (A) (A) (A) (A) (A) (A) (A)
                 (A) (A) (A) (A) (A) (A) (A) (A) (A) (A) (A) (A)
                 (A) (A) (A) (A) (A) (A) (A) (A) (A) (A) (A) (A)
                 (A) (A) (A) (A) (A) (A) (A) (A)
 The electronic state of the initial guess is 1-A.
 Leave Link  401 at Fri May  8 06:19:38 2020, MaxMem= 1073741824 cpu:       4.0
 (Enter /home/matheus/.gaussian/g09/l502.exe)
 Closed shell SCF:
 Requested convergence on RMS density matrix=1.00D-08 within 128 cycles.
 Requested convergence on MAX density matrix=1.00D-06.
 Requested convergence on             energy=1.00D-06.
 No special actions if energy rises.
 Using DIIS extrapolation, IDIIS=  1040.
 Integral symmetry usage will be decided dynamically.
       126521 words used for storage of precomputed grid.
 IEnd=      305468 IEndB=      305468 NGot=  1073741824 MDV=  1073505667
 LenX=  1073505667 LenY=  1073452785
 Fock matrices will be formed incrementally for  20 cycles.

 Cycle   1  Pass 1  IDiag  1:
 FoFJK:  IHMeth= 1 ICntrl=     0 DoSepK=T KAlg= 1 I1Cent= 0 FoldK=F
 FoFCou: FMM=F IPFlag=           0 FMFlag=      100000 FMFlg1=           0
         NFxFlg=           0 DoJE=T BraDBF=F KetDBF=F FulRan=T
         Omega=  0.000000  0.000000  1.000000  0.000000  0.000000 ICntrl=     500 IOpCl=  0
         NMat0=    1 NMatS0=    1 NMatT0=    0 NMatD0=    1 NMtDS0=    0 NMtDT0=    0
         I1Cent=           0 NGrid=           0.
 Symmetry not used in FoFCou.
 E= -151.496787117273    
 DIIS: error= 1.42D-02 at cycle   1 NSaved=   1.
 NSaved= 1 IEnMin= 1 EnMin= -151.496787117273     IErMin= 1 ErrMin= 1.42D-02
 ErrMax= 1.42D-02 EMaxC= 1.00D-01 BMatC= 4.44D-02 BMatP= 4.44D-02
 IDIUse=3 WtCom= 8.58D-01 WtEn= 1.42D-01
 Coeff-Com:  0.100D+01
 Coeff-En:   0.100D+01
 Coeff:      0.100D+01
 Gap=     0.541 Goal=   None    Shift=    0.000
 GapD=    0.541 DampG=2.000 DampE=0.500 DampFc=1.0000 IDamp=-1.
 RMSDP=7.80D-04 MaxDP=2.27D-02              OVMax= 6.00D-02

 Cycle   2  Pass 1  IDiag  1:
 RMSU=  5.50D-04    CP:  9.94D-01
 FoFJK:  IHMeth= 1 ICntrl=     0 DoSepK=T KAlg= 1 I1Cent= 0 FoldK=F
 E= -151.514758792320     Delta-E=       -0.017971675047 Rises=F Damp=F
 DIIS: error= 9.30D-03 at cycle   2 NSaved=   2.
 NSaved= 2 IEnMin= 2 EnMin= -151.514758792320     IErMin= 2 ErrMin= 9.30D-03
 ErrMax= 9.30D-03 EMaxC= 1.00D-01 BMatC= 1.87D-02 BMatP= 4.44D-02
 IDIUse=3 WtCom= 9.07D-01 WtEn= 9.30D-02
 Coeff-Com:  0.382D+00 0.618D+00
 Coeff-En:   0.148D+00 0.852D+00
 Coeff:      0.360D+00 0.640D+00
 Gap=     0.450 Goal=   None    Shift=    0.000
 RMSDP=4.76D-04 MaxDP=2.22D-02 DE=-1.80D-02 OVMax= 2.63D-02

 Cycle   3  Pass 1  IDiag  1:
 RMSU=  2.34D-04    CP:  9.89D-01  5.67D-01
 FoFJK:  IHMeth= 1 ICntrl=     0 DoSepK=T KAlg= 1 I1Cent= 0 FoldK=F
 E= -151.525560248617     Delta-E=       -0.010801456297 Rises=F Damp=F
 DIIS: error= 1.84D-03 at cycle   3 NSaved=   3.
 NSaved= 3 IEnMin= 3 EnMin= -151.525560248617     IErMin= 3 ErrMin= 1.84D-03
 ErrMax= 1.84D-03 EMaxC= 1.00D-01 BMatC= 4.34D-04 BMatP= 1.87D-02
 IDIUse=3 WtCom= 9.82D-01 WtEn= 1.84D-02
 Coeff-Com:  0.421D-01 0.154D+00 0.804D+00
 Coeff-En:   0.000D+00 0.000D+00 0.100D+01
 Coeff:      0.413D-01 0.151D+00 0.808D+00
 Gap=     0.442 Goal=   None    Shift=    0.000
 RMSDP=5.45D-05 MaxDP=1.20D-03 DE=-1.08D-02 OVMax= 4.26D-03

 Cycle   4  Pass 1  IDiag  1:
 RMSU=  2.73D-05    CP:  9.88D-01  6.13D-01  1.01D+00
 FoFJK:  IHMeth= 1 ICntrl=     0 DoSepK=T KAlg= 1 I1Cent= 0 FoldK=F
 E= -151.525833743281     Delta-E=       -0.000273494664 Rises=F Damp=F
 DIIS: error= 2.96D-04 at cycle   4 NSaved=   4.
 NSaved= 4 IEnMin= 4 EnMin= -151.525833743281     IErMin= 4 ErrMin= 2.96D-04
 ErrMax= 2.96D-04 EMaxC= 1.00D-01 BMatC= 1.03D-05 BMatP= 4.34D-04
 IDIUse=3 WtCom= 9.97D-01 WtEn= 2.96D-03
 Coeff-Com: -0.100D-01-0.131D-01 0.848D-01 0.938D+00
 Coeff-En:   0.000D+00 0.000D+00 0.000D+00 0.100D+01
 Coeff:     -0.998D-02-0.131D-01 0.846D-01 0.938D+00
 Gap=     0.444 Goal=   None    Shift=    0.000
 RMSDP=1.18D-05 MaxDP=5.69D-04 DE=-2.73D-04 OVMax= 8.19D-04

 Cycle   5  Pass 1  IDiag  1:
 RMSU=  4.58D-06    CP:  9.87D-01  6.10D-01  1.04D+00  1.04D+00
 FoFJK:  IHMeth= 1 ICntrl=     0 DoSepK=T KAlg= 1 I1Cent= 0 FoldK=F
 E= -151.525842502711     Delta-E=       -0.000008759430 Rises=F Damp=F
 DIIS: error= 5.31D-05 at cycle   5 NSaved=   5.
 NSaved= 5 IEnMin= 5 EnMin= -151.525842502711     IErMin= 5 ErrMin= 5.31D-05
 ErrMax= 5.31D-05 EMaxC= 1.00D-01 BMatC= 2.09D-07 BMatP= 1.03D-05
 IDIUse=1 WtCom= 1.00D+00 WtEn= 0.00D+00
 Coeff-Com: -0.217D-03-0.130D-02-0.312D-01-0.117D+00 0.115D+01
 Coeff:     -0.217D-03-0.130D-02-0.312D-01-0.117D+00 0.115D+01
 Gap=     0.444 Goal=   None    Shift=    0.000
 RMSDP=3.17D-06 MaxDP=8.38D-05 DE=-8.76D-06 OVMax= 2.98D-04

 Cycle   6  Pass 1  IDiag  1:
 RMSU=  1.14D-06    CP:  9.87D-01  6.11D-01  1.04D+00  1.09D+00  1.30D+00
 FoFJK:  IHMeth= 1 ICntrl=     0 DoSepK=T KAlg= 1 I1Cent= 0 FoldK=F
 E= -151.525843001967     Delta-E=       -0.000000499256 Rises=F Damp=F
 DIIS: error= 1.22D-05 at cycle   6 NSaved=   6.
 NSaved= 6 IEnMin= 6 EnMin= -151.525843001967     IErMin= 6 ErrMin= 1.22D-05
 ErrMax= 1.22D-05 EMaxC= 1.00D-01 BMatC= 1.10D-08 BMatP= 2.09D-07
 IDIUse=1 WtCom= 1.00D+00 WtEn= 0.00D+00
 Coeff-Com:  0.205D-03 0.609D-03 0.576D-02 0.706D-02-0.271D+00 0.126D+01
 Coeff:      0.205D-03 0.609D-03 0.576D-02 0.706D-02-0.271D+00 0.126D+01
 Gap=     0.444 Goal=   None    Shift=    0.000
 RMSDP=1.07D-06 MaxDP=2.90D-05 DE=-4.99D-07 OVMax= 1.26D-04

 Cycle   7  Pass 1  IDiag  1:
 RMSU=  2.93D-07    CP:  9.87D-01  6.11D-01  1.04D+00  1.10D+00  1.33D+00
                    CP:  1.49D+00
 FoFJK:  IHMeth= 1 ICntrl=     0 DoSepK=T KAlg= 1 I1Cent= 0 FoldK=F
 E= -151.525843040220     Delta-E=       -0.000000038253 Rises=F Damp=F
 DIIS: error= 4.82D-06 at cycle   7 NSaved=   7.
 NSaved= 7 IEnMin= 7 EnMin= -151.525843040220     IErMin= 7 ErrMin= 4.82D-06
 ErrMax= 4.82D-06 EMaxC= 1.00D-01 BMatC= 8.30D-10 BMatP= 1.10D-08
 IDIUse=1 WtCom= 1.00D+00 WtEn= 0.00D+00
 Coeff-Com: -0.245D-04-0.510D-04 0.790D-03 0.531D-02-0.269D-01-0.193D+00
 Coeff-Com:  0.121D+01
 Coeff:     -0.245D-04-0.510D-04 0.790D-03 0.531D-02-0.269D-01-0.193D+00
 Coeff:      0.121D+01
 Gap=     0.444 Goal=   None    Shift=    0.000
 RMSDP=4.27D-07 MaxDP=1.52D-05 DE=-3.83D-08 OVMax= 5.00D-05

 Cycle   8  Pass 1  IDiag  1:
 RMSU=  6.85D-08    CP:  9.87D-01  6.10D-01  1.04D+00  1.10D+00  1.33D+00
                    CP:  1.65D+00  1.45D+00
 FoFJK:  IHMeth= 1 ICntrl=     0 DoSepK=T KAlg= 1 I1Cent= 0 FoldK=F
 E= -151.525843043914     Delta-E=       -0.000000003694 Rises=F Damp=F
 DIIS: error= 1.32D-06 at cycle   8 NSaved=   8.
 NSaved= 8 IEnMin= 8 EnMin= -151.525843043914     IErMin= 8 ErrMin= 1.32D-06
 ErrMax= 1.32D-06 EMaxC= 1.00D-01 BMatC= 1.04D-10 BMatP= 8.30D-10
 IDIUse=1 WtCom= 1.00D+00 WtEn= 0.00D+00
 Coeff-Com: -0.193D-04-0.638D-04-0.568D-03-0.107D-02 0.309D-01-0.135D+00
 Coeff-Com: -0.618D-02 0.111D+01
 Coeff:     -0.193D-04-0.638D-04-0.568D-03-0.107D-02 0.309D-01-0.135D+00
 Coeff:     -0.618D-02 0.111D+01
 Gap=     0.444 Goal=   None    Shift=    0.000
 RMSDP=1.38D-07 MaxDP=6.75D-06 DE=-3.69D-09 OVMax= 1.52D-05

 Cycle   9  Pass 1  IDiag  1:
 RMSU=  2.13D-08    CP:  9.87D-01  6.10D-01  1.04D+00  1.10D+00  1.33D+00
                    CP:  1.68D+00  1.61D+00  1.31D+00
 FoFJK:  IHMeth= 1 ICntrl=     0 DoSepK=T KAlg= 1 I1Cent= 0 FoldK=F
 E= -151.525843044199     Delta-E=       -0.000000000285 Rises=F Damp=F
 DIIS: error= 3.11D-07 at cycle   9 NSaved=   9.
 NSaved= 9 IEnMin= 9 EnMin= -151.525843044199     IErMin= 9 ErrMin= 3.11D-07
 ErrMax= 3.11D-07 EMaxC= 1.00D-01 BMatC= 2.00D-11 BMatP= 1.04D-10
 IDIUse=1 WtCom= 1.00D+00 WtEn= 0.00D+00
 Coeff-Com: -0.681D-05-0.228D-04-0.285D-03-0.883D-03 0.154D-01-0.468D-01
 Coeff-Com: -0.750D-01 0.451D+00 0.657D+00
 Coeff:     -0.681D-05-0.228D-04-0.285D-03-0.883D-03 0.154D-01-0.468D-01
 Coeff:     -0.750D-01 0.451D+00 0.657D+00
 Gap=     0.444 Goal=   None    Shift=    0.000
 RMSDP=1.89D-08 MaxDP=9.71D-07 DE=-2.85D-10 OVMax= 2.22D-06

 Cycle  10  Pass 1  IDiag  1:
 RMSU=  8.37D-09    CP:  9.87D-01  6.10D-01  1.04D+00  1.10D+00  1.33D+00
                    CP:  1.69D+00  1.63D+00  1.38D+00  9.48D-01
 FoFJK:  IHMeth= 1 ICntrl=     0 DoSepK=T KAlg= 1 I1Cent= 0 FoldK=F
 E= -151.525843044219     Delta-E=       -0.000000000020 Rises=F Damp=F
 DIIS: error= 1.08D-07 at cycle  10 NSaved=  10.
 NSaved=10 IEnMin=10 EnMin= -151.525843044219     IErMin=10 ErrMin= 1.08D-07
 ErrMax= 1.08D-07 EMaxC= 1.00D-01 BMatC= 2.55D-12 BMatP= 2.00D-11
 IDIUse=1 WtCom= 1.00D+00 WtEn= 0.00D+00
 Coeff-Com:  0.306D-05 0.121D-04 0.820D-04-0.145D-04-0.376D-02 0.215D-01
 Coeff-Com: -0.974D-02-0.182D+00 0.191D+00 0.983D+00
 Coeff:      0.306D-05 0.121D-04 0.820D-04-0.145D-04-0.376D-02 0.215D-01
 Coeff:     -0.974D-02-0.182D+00 0.191D+00 0.983D+00
 Gap=     0.444 Goal=   None    Shift=    0.000
 RMSDP=8.04D-09 MaxDP=1.65D-07 DE=-1.98D-11 OVMax= 1.10D-06

 SCF Done:  E(RLC-wPBE) =  -151.525843044     A.U. after   10 cycles
             Convg  =    0.8044D-08             -V/T =  2.0068
 KE= 1.504952525746D+02 PE=-4.316192604116D+02 EE= 9.293219986944D+01
 Leave Link  502 at Fri May  8 06:20:08 2020, MaxMem= 1073741824 cpu:     236.3
 (Enter /home/matheus/.gaussian/g09/l601.exe)
 Copying SCF densities to generalized density rwf, IOpCl= 0 IROHF=0.

 **********************************************************************

            Population analysis using the SCF density.

 **********************************************************************

 Orbital symmetries:
       Occupied  (A) (A) (A) (A) (A) (A) (A) (A) (A)
       Virtual   (A) (A) (A) (A) (A) (A) (A) (A) (A) (A) (A) (A)
                 (A) (A) (A) (A) (A) (A) (A) (A) (A) (A) (A) (A)
                 (A) (A) (A) (A) (A) (A) (A) (A) (A) (A) (A) (A)
                 (A) (A) (A) (A) (A) (A) (A) (A) (A) (A) (A) (A)
                 (A) (A) (A) (A) (A) (A) (A) (A) (A) (A) (A) (A)
                 (A) (A) (A) (A) (A) (A) (A) (A) (A) (A) (A) (A)
                 (A) (A) (A) (A) (A) (A) (A) (A) (A) (A) (A) (A)
                 (A) (A) (A) (A) (A) (A) (A) (A) (A) (A) (A) (A)
                 (A) (A) (A) (A) (A) (A) (A) (A) (A) (A) (A) (A)
                 (A) (A) (A) (A) (A) (A) (A) (A) (A) (A) (A) (A)
                 (A) (A) (A) (A) (A) (A) (A) (A) (A) (A) (A) (A)
                 (A) (A) (A) (A) (A) (A) (A) (A) (A) (A) (A) (A)
                 (A) (A) (A) (A) (A) (A) (A) (A) (A) (A) (A) (A)
                 (A) (A) (A) (A) (A) (A) (A) (A) (A) (A) (A) (A)
                 (A) (A) (A) (A) (A) (A) (A) (A) (A) (A) (A) (A)
                 (A) (A) (A) (A) (A) (A) (A) (A)
 The electronic state is 1-A.
 Alpha  occ. eigenvalues --  -19.11661 -19.11655  -1.32795  -1.09785  -0.74894
 Alpha  occ. eigenvalues --   -0.59244  -0.58490  -0.54504  -0.42494
 Alpha virt. eigenvalues --    0.01879   0.03876   0.07255   0.07618   0.09282
 Alpha virt. eigenvalues --    0.10204   0.11493   0.17069   0.17390   0.17992
 Alpha virt. eigenvalues --    0.18897   0.19801   0.20769   0.22017   0.26491
 Alpha virt. eigenvalues --    0.27373   0.28524   0.29089   0.31728   0.35221
 Alpha virt. eigenvalues --    0.35368   0.36149   0.37766   0.41430   0.44242
 Alpha virt. eigenvalues --    0.44964   0.45441   0.47674   0.49313   0.54132
 Alpha virt. eigenvalues --    0.55623   0.58793   0.59744   0.65088   0.66803
 Alpha virt. eigenvalues --    0.70295   0.72582   0.77976   0.78443   0.81704
 Alpha virt. eigenvalues --    0.84028   0.85236   0.87410   0.89625   0.90886
 Alpha virt. eigenvalues --    0.95527   0.97979   0.98270   1.00112   1.01351
 Alpha virt. eigenvalues --    1.03217   1.05062   1.07563   1.10856   1.11545
 Alpha virt. eigenvalues --    1.12687   1.19058   1.23778   1.24723   1.26447
 Alpha virt. eigenvalues --    1.29270   1.30072   1.31835   1.33174   1.33483
 Alpha virt. eigenvalues --    1.34689   1.37827   1.39301   1.44933   1.48968
 Alpha virt. eigenvalues --    1.51434   1.52235   1.54431   1.56419   1.62368
 Alpha virt. eigenvalues --    1.64686   1.65707   1.72695   1.73893   1.81902
 Alpha virt. eigenvalues --    1.84049   1.87300   1.99094   2.00652   2.05218
 Alpha virt. eigenvalues --    2.07073   2.17116   2.24587   2.26181   2.29997
 Alpha virt. eigenvalues --    2.31326   2.35388   2.37824   2.38267   2.46937
 Alpha virt. eigenvalues --    2.49825   2.56974   2.57487   2.66797   2.73144
 Alpha virt. eigenvalues --    2.74682   2.77870   2.88035   2.90485   2.96582
 Alpha virt. eigenvalues --    3.12172   3.15585   3.19671   3.23565   3.35828
 Alpha virt. eigenvalues --    3.37591   3.57063   3.65037   3.74490   3.77666
 Alpha virt. eigenvalues --    3.78715   3.79232   3.81778   3.82891   3.87799
 Alpha virt. eigenvalues --    3.90161   3.91016   3.95225   3.97382   3.98109
 Alpha virt. eigenvalues --    4.01607   4.07184   4.11004   4.14358   4.16572
 Alpha virt. eigenvalues --    4.18084   4.20236   4.29295   4.30477   4.31422
 Alpha virt. eigenvalues --    4.48519   4.63043   4.64489   4.75017   5.00394
 Alpha virt. eigenvalues --    5.04930   5.07092   5.12649   5.18554   5.22106
 Alpha virt. eigenvalues --    5.58235   5.85258   6.03485   6.10867   6.16605
 Alpha virt. eigenvalues --    6.37019   6.42960   6.52897   6.62278   6.73993
 Alpha virt. eigenvalues --    6.74673   6.80240   6.82288   6.85474   6.90672
 Alpha virt. eigenvalues --    6.91240   6.93236   6.96686   7.15796   7.19983
 Alpha virt. eigenvalues --    7.23497   7.32211   7.32640   7.65740   7.99666
 Alpha virt. eigenvalues --    8.08940   8.23636  11.08544  13.79706  14.71858
 Alpha virt. eigenvalues --   14.80599  14.95623  15.09616  29.01571  29.02277
 Alpha virt. eigenvalues --   29.05904  29.20129  29.24473  49.23335 148.28743
 Alpha virt. eigenvalues --  148.51243 148.72206 752.99352
          Condensed to atoms (all electrons):
              1          2          3          4          5
     1  O    8.226134  -0.240162   0.178308   0.034912   0.002475
     2  O   -0.240162   8.221547   0.036413   0.181891   0.001916
     3  H    0.178308   0.036413   0.602139  -0.016648  -0.002604
     4  H    0.034912   0.181891  -0.016648   0.600420  -0.003094
     5  Kr   0.002475   0.001916  -0.002604  -0.003094   0.002945
 Mulliken atomic charges:
              1
     1  O   -0.201667
     2  O   -0.201605
     3  H    0.202392
     4  H    0.202518
     5  Kr  -0.001637
 Sum of Mulliken atomic charges =   0.00000
 Mulliken charges with hydrogens summed into heavy atoms:
              1
     1  O    0.000725
     2  O    0.000913
     5  Kr  -0.001637
 Sum of Mulliken charges with hydrogens summed into heavy atoms =   0.00000
          Condensed to fragments (all electrons):
     1       0.001637
     2      -0.001637
 Electronic spatial extent (au):  <R**2>=            316.5207
 Charge=              0.0000 electrons
 Dipole moment (field-independent basis, Debye):
    X=              3.1981    Y=             -0.0051    Z=              0.2853  Tot=              3.2108
 Quadrupole moment (field-independent basis, Debye-Ang):
   XX=            -21.7101   YY=            -10.5045   ZZ=            -12.9721
   XY=              0.0376   XZ=             -0.2180   YZ=             -0.3222
 Traceless Quadrupole moment (field-independent basis, Debye-Ang):
   XX=             -6.6478   YY=              4.5577   ZZ=              2.0901
   XY=              0.0376   XZ=             -0.2180   YZ=             -0.3222
 Octapole moment (field-independent basis, Debye-Ang**2):
  XXX=             93.4062  YYY=             -0.0292  ZZZ=              0.0021  XYY=             24.6729
  XXY=             -0.0691  XXZ=             -0.0120  XZZ=             25.4590  YZZ=             -0.0577
  YYZ=              0.3653  XYZ=              0.3357
 Hexadecapole moment (field-independent basis, Debye-Ang**3):
 XXXX=           -338.7978 YYYY=            -44.9055 ZZZZ=            -11.0863 XXXY=              0.0640
 XXXZ=              0.5755 YYYX=              0.0661 YYYZ=             -0.4393 ZZZX=             -0.0986
 ZZZY=             -0.1764 XXYY=            -64.0420 XXZZ=            -53.9974 YYZZ=            -11.2366
 XXYZ=             -0.3397 YYXZ=             -0.3964 ZZXY=              0.0703
 N-N= 3.666596492333D+01 E-N=-4.316192616289D+02  KE= 1.504952525746D+02
 No NMR shielding tensors so no spin-rotation constants.
 Leave Link  601 at Fri May  8 06:20:08 2020, MaxMem= 1073741824 cpu:       0.8
 (Enter /home/matheus/.gaussian/g09/l122.exe)
 Counterpoise: doing DCBS calculation for fragment   2 NewBq=T
 Leave Link  122 at Fri May  8 06:20:08 2020, MaxMem= 1073741824 cpu:       0.0
 (Enter /home/matheus/.gaussian/g09/l301.exe)
 Basis read from rwf:  (5D, 7F)
 No pseudopotential information found on rwf file.
 There are   197 symmetry adapted basis functions of A   symmetry.
 Integral buffers will be    131072 words long.
 Raffenetti 2 integral format.
 Two-electron integral symmetry is turned on.
   197 basis functions,   415 primitive gaussians,   229 cartesian basis functions
    18 alpha electrons       18 beta electrons
       nuclear repulsion energy         0.0000000000 Hartrees.
 IExCor=32609 DFT=T Ex+Corr=LC-wPBE ExCW=0 ScaHFX=  1.000000
 ScaDFX=  1.000000  0.000000  1.000000  1.000000 ScalE2=  1.000000  1.000000
 IRadAn=      5 IRanWt=     -1 IRanGd=            0 ICorTp=0
  HFx wShort=  0.000000 wLong=  0.550000 cFull=  0.000000 cShort=  0.000000 cLong=  1.000000
  DFx wShort=  0.000000 wLong=  0.550000 cFull=  0.000000 cShort=  0.000000 cLong=  1.000000
 NAtoms=    5 NActive=    5 NUniq=    5 SFac= 1.00D+00 NAtFMM=   60 NAOKFM=F Big=F
 No density basis found on file   718.
 Leave Link  301 at Fri May  8 06:20:08 2020, MaxMem= 1073741824 cpu:       0.2
 (Enter /home/matheus/.gaussian/g09/l302.exe)
 NPDir=0 NMtPBC=     1 NCelOv=     1 NCel=       1 NClECP=     1 NCelD=      1
         NCelK=      1 NCelE2=     1 NClLst=     1 CellRange=     0.0.
 One-electron integrals computed using PRISM.
 NBasis=   197 RedAO= T  NBF=   197
 NBsUse=   197 1.00D-06 NBFU=   197
 Precomputing XC quadrature grid using
 IXCGrd= 2 IRadAn=           5 IRanWt=          -1 IRanGd=           0 AccXCQ= 0.00D+00.
 NRdTot=     427 NPtTot=      123512 NUsed=      126579 NTot=      126611
 NSgBfM=   229   229   229   229   229 NAtAll=     5     5.
 Leave Link  302 at Fri May  8 06:20:08 2020, MaxMem= 1073741824 cpu:       0.9
 (Enter /home/matheus/.gaussian/g09/l303.exe)
 DipDrv:  MaxL=1.
 Leave Link  303 at Fri May  8 06:20:08 2020, MaxMem= 1073741824 cpu:       0.2
 (Enter /home/matheus/.gaussian/g09/l401.exe)
 Harris functional with IExCor=32609 diagonalized for initial guess.
 ExpMin= 2.53D-02 ExpMax= 1.17D+07 ExpMxC= 1.33D+04 IAcc=3 IRadAn=         5 AccDes= 0.00D+00
 HarFok:  IExCor=32609 AccDes= 0.00D+00 IRadAn=         5 IDoV= 1
 ScaDFX=  1.000000  1.000000  1.000000  1.000000
 FoFCou: FMM=F IPFlag=           0 FMFlag=      100000 FMFlg1=           0
         NFxFlg=           0 DoJE=T BraDBF=F KetDBF=T FulRan=T
         Omega=  0.000000  0.000000  1.000000  0.000000  0.000000 ICntrl=     500 IOpCl=  0
         NMat0=    1 NMatS0=    1 NMatT0=    0 NMatD0=    1 NMtDS0=    0 NMtDT0=    0
         I1Cent=           4 NGrid=           0.
 Petite list used in FoFCou.
 Harris En= -2753.24671075491    
 Initial guess orbital symmetries:
       Occupied  (A) (A) (A) (A) (A) (A) (A) (A) (A) (A) (A) (A)
                 (A) (A) (A) (A) (A) (A)
       Virtual   (A) (A) (A) (A) (A) (A) (A) (A) (A) (A) (A) (A)
                 (A) (A) (A) (A) (A) (A) (A) (A) (A) (A) (A) (A)
                 (A) (A) (A) (A) (A) (A) (A) (A) (A) (A) (A) (A)
                 (A) (A) (A) (A) (A) (A) (A) (A) (A) (A) (A) (A)
                 (A) (A) (A) (A) (A) (A) (A) (A) (A) (A) (A) (A)
                 (A) (A) (A) (A) (A) (A) (A) (A) (A) (A) (A) (A)
                 (A) (A) (A) (A) (A) (A) (A) (A) (A) (A) (A) (A)
                 (A) (A) (A) (A) (A) (A) (A) (A) (A) (A) (A) (A)
                 (A) (A) (A) (A) (A) (A) (A) (A) (A) (A) (A) (A)
                 (A) (A) (A) (A) (A) (A) (A) (A) (A) (A) (A) (A)
                 (A) (A) (A) (A) (A) (A) (A) (A) (A) (A) (A) (A)
                 (A) (A) (A) (A) (A) (A) (A) (A) (A) (A) (A) (A)
                 (A) (A) (A) (A) (A) (A) (A) (A) (A) (A) (A) (A)
                 (A) (A) (A) (A) (A) (A) (A) (A) (A) (A) (A) (A)
                 (A) (A) (A) (A) (A) (A) (A) (A) (A) (A) (A)
 The electronic state of the initial guess is 1-A.
 Leave Link  401 at Fri May  8 06:20:09 2020, MaxMem= 1073741824 cpu:       3.9
 (Enter /home/matheus/.gaussian/g09/l502.exe)
 Closed shell SCF:
 Requested convergence on RMS density matrix=1.00D-08 within 128 cycles.
 Requested convergence on MAX density matrix=1.00D-06.
 Requested convergence on             energy=1.00D-06.
 No special actions if energy rises.
 Using DIIS extrapolation, IDIIS=  1040.
 Integral symmetry usage will be decided dynamically.
       126521 words used for storage of precomputed grid.
 IEnd=      305468 IEndB=      305468 NGot=  1073741824 MDV=  1073505667
 LenX=  1073505667 LenY=  1073452785
 Fock matrices will be formed incrementally for  20 cycles.

 Cycle   1  Pass 1  IDiag  1:
 FoFJK:  IHMeth= 1 ICntrl=     0 DoSepK=T KAlg= 1 I1Cent= 0 FoldK=F
 FoFCou: FMM=F IPFlag=           0 FMFlag=      100000 FMFlg1=           0
         NFxFlg=           0 DoJE=T BraDBF=F KetDBF=F FulRan=T
         Omega=  0.000000  0.000000  1.000000  0.000000  0.000000 ICntrl=     500 IOpCl=  0
         NMat0=    1 NMatS0=    1 NMatT0=    0 NMatD0=    1 NMtDS0=    0 NMtDT0=    0
         I1Cent=           0 NGrid=           0.
 Symmetry not used in FoFCou.
 E= -2753.43069259589    
 DIIS: error= 3.34D-02 at cycle   1 NSaved=   1.
 NSaved= 1 IEnMin= 1 EnMin= -2753.43069259589     IErMin= 1 ErrMin= 3.34D-02
 ErrMax= 3.34D-02 EMaxC= 1.00D-01 BMatC= 2.27D-01 BMatP= 2.27D-01
 IDIUse=3 WtCom= 6.66D-01 WtEn= 3.34D-01
 Coeff-Com:  0.100D+01
 Coeff-En:   0.100D+01
 Coeff:      0.100D+01
 Gap=     0.636 Goal=   None    Shift=    0.000
 GapD=    0.636 DampG=2.000 DampE=0.500 DampFc=1.0000 IDamp=-1.
 RMSDP=2.19D-03 MaxDP=1.48D-01              OVMax= 5.14D-02

 Cycle   2  Pass 1  IDiag  1:
 RMSU=  1.51D-03    CP:  1.02D+00
 FoFJK:  IHMeth= 1 ICntrl=     0 DoSepK=T KAlg= 1 I1Cent= 0 FoldK=F
 E= -2753.46425277946     Delta-E=       -0.033560183573 Rises=F Damp=F
 DIIS: error= 1.20D-02 at cycle   2 NSaved=   2.
 NSaved= 2 IEnMin= 2 EnMin= -2753.46425277946     IErMin= 2 ErrMin= 1.20D-02
 ErrMax= 1.20D-02 EMaxC= 1.00D-01 BMatC= 5.04D-02 BMatP= 2.27D-01
 IDIUse=3 WtCom= 8.80D-01 WtEn= 1.20D-01
 Coeff-Com:  0.315D+00 0.685D+00
 Coeff-En:   0.642D-01 0.936D+00
 Coeff:      0.285D+00 0.715D+00
 Gap=     0.551 Goal=   None    Shift=    0.000
 RMSDP=8.06D-04 MaxDP=5.17D-02 DE=-3.36D-02 OVMax= 1.85D-02

 Cycle   3  Pass 1  IDiag  1:
 RMSU=  1.53D-04    CP:  1.01D+00  6.46D-01
 FoFJK:  IHMeth= 1 ICntrl=     0 DoSepK=T KAlg= 1 I1Cent= 0 FoldK=F
 E= -2753.47777276424     Delta-E=       -0.013519984775 Rises=F Damp=F
 DIIS: error= 1.18D-03 at cycle   3 NSaved=   3.
 NSaved= 3 IEnMin= 3 EnMin= -2753.47777276424     IErMin= 3 ErrMin= 1.18D-03
 ErrMax= 1.18D-03 EMaxC= 1.00D-01 BMatC= 5.84D-04 BMatP= 5.04D-02
 IDIUse=3 WtCom= 9.88D-01 WtEn= 1.18D-02
 Coeff-Com: -0.456D-02 0.887D-01 0.916D+00
 Coeff-En:   0.000D+00 0.000D+00 0.100D+01
 Coeff:     -0.450D-02 0.876D-01 0.917D+00
 Gap=     0.558 Goal=   None    Shift=    0.000
 RMSDP=7.66D-05 MaxDP=4.56D-03 DE=-1.35D-02 OVMax= 2.48D-03

 Cycle   4  Pass 1  IDiag  1:
 RMSU=  1.39D-05    CP:  1.01D+00  6.80D-01  9.93D-01
 FoFJK:  IHMeth= 1 ICntrl=     0 DoSepK=T KAlg= 1 I1Cent= 0 FoldK=F
 E= -2753.47794017753     Delta-E=       -0.000167413292 Rises=F Damp=F
 DIIS: error= 4.35D-05 at cycle   4 NSaved=   4.
 NSaved= 4 IEnMin= 4 EnMin= -2753.47794017753     IErMin= 4 ErrMin= 4.35D-05
 ErrMax= 4.35D-05 EMaxC= 1.00D-01 BMatC= 4.26D-07 BMatP= 5.84D-04
 IDIUse=1 WtCom= 1.00D+00 WtEn= 0.00D+00
 Coeff-Com: -0.555D-03-0.202D-01-0.162D+00 0.118D+01
 Coeff:     -0.555D-03-0.202D-01-0.162D+00 0.118D+01
 Gap=     0.557 Goal=   None    Shift=    0.000
 RMSDP=5.86D-06 MaxDP=3.33D-04 DE=-1.67D-04 OVMax= 4.13D-04

 Cycle   5  Pass 1  IDiag  1:
 RMSU=  1.87D-06    CP:  1.01D+00  6.80D-01  1.01D+00  1.20D+00
 FoFJK:  IHMeth= 1 ICntrl=     0 DoSepK=T KAlg= 1 I1Cent= 0 FoldK=F
 E= -2753.47794069979     Delta-E=       -0.000000522257 Rises=F Damp=F
 DIIS: error= 2.24D-06 at cycle   5 NSaved=   5.
 NSaved= 5 IEnMin= 5 EnMin= -2753.47794069979     IErMin= 5 ErrMin= 2.24D-06
 ErrMax= 2.24D-06 EMaxC= 1.00D-01 BMatC= 2.21D-09 BMatP= 4.26D-07
 IDIUse=1 WtCom= 1.00D+00 WtEn= 0.00D+00
 Coeff-Com:  0.949D-04 0.157D-03-0.173D-02-0.153D-01 0.102D+01
 Coeff:      0.949D-04 0.157D-03-0.173D-02-0.153D-01 0.102D+01
 Gap=     0.557 Goal=   None    Shift=    0.000
 RMSDP=3.33D-07 MaxDP=2.12D-05 DE=-5.22D-07 OVMax= 1.51D-05

 Cycle   6  Pass 1  IDiag  1:
 RMSU=  1.61D-07    CP:  1.01D+00  6.80D-01  1.01D+00  1.20D+00  1.03D+00
 FoFJK:  IHMeth= 1 ICntrl=     0 DoSepK=T KAlg= 1 I1Cent= 0 FoldK=F
 E= -2753.47794070173     Delta-E=       -0.000000001941 Rises=F Damp=F
 DIIS: error= 3.61D-07 at cycle   6 NSaved=   6.
 NSaved= 6 IEnMin= 6 EnMin= -2753.47794070173     IErMin= 6 ErrMin= 3.61D-07
 ErrMax= 3.61D-07 EMaxC= 1.00D-01 BMatC= 8.26D-11 BMatP= 2.21D-09
 IDIUse=1 WtCom= 1.00D+00 WtEn= 0.00D+00
 Coeff-Com:  0.522D-05 0.209D-03 0.186D-02-0.176D-01 0.469D-01 0.969D+00
 Coeff:      0.522D-05 0.209D-03 0.186D-02-0.176D-01 0.469D-01 0.969D+00
 Gap=     0.557 Goal=   None    Shift=    0.000
 RMSDP=4.98D-08 MaxDP=2.53D-06 DE=-1.94D-09 OVMax= 3.14D-06

 Cycle   7  Pass 1  IDiag  1:
 RMSU=  1.33D-08    CP:  1.01D+00  6.80D-01  1.01D+00  1.20D+00  1.05D+00
                    CP:  1.09D+00
 FoFJK:  IHMeth= 1 ICntrl=     0 DoSepK=T KAlg= 1 I1Cent= 0 FoldK=F
 E= -2753.47794070177     Delta-E=       -0.000000000042 Rises=F Damp=F
 DIIS: error= 5.38D-08 at cycle   7 NSaved=   7.
 NSaved= 7 IEnMin= 7 EnMin= -2753.47794070177     IErMin= 7 ErrMin= 5.38D-08
 ErrMax= 5.38D-08 EMaxC= 1.00D-01 BMatC= 8.81D-13 BMatP= 8.26D-11
 IDIUse=1 WtCom= 1.00D+00 WtEn= 0.00D+00
 Coeff-Com:  0.312D-06 0.428D-04 0.408D-03-0.368D-02 0.395D-02 0.195D+00
 Coeff-Com:  0.804D+00
 Coeff:      0.312D-06 0.428D-04 0.408D-03-0.368D-02 0.395D-02 0.195D+00
 Coeff:      0.804D+00
 Gap=     0.557 Goal=   None    Shift=    0.000
 RMSDP=6.08D-09 MaxDP=1.59D-07 DE=-4.18D-11 OVMax= 2.85D-07

 SCF Done:  E(RLC-wPBE) =  -2753.47794070     A.U. after    7 cycles
             Convg  =    0.6076D-08             -V/T =  2.0014
 KE= 2.749501913461D+03 PE=-6.579034739770D+03 EE= 1.076054885607D+03
 Leave Link  502 at Fri May  8 06:20:30 2020, MaxMem= 1073741824 cpu:     171.9
 (Enter /home/matheus/.gaussian/g09/l601.exe)
 Copying SCF densities to generalized density rwf, IOpCl= 0 IROHF=0.

 **********************************************************************

            Population analysis using the SCF density.

 **********************************************************************

 Orbital symmetries:
       Occupied  (A) (A) (A) (A) (A) (A) (A) (A) (A) (A) (A) (A)
                 (A) (A) (A) (A) (A) (A)
       Virtual   (A) (A) (A) (A) (A) (A) (A) (A) (A) (A) (A) (A)
                 (A) (A) (A) (A) (A) (A) (A) (A) (A) (A) (A) (A)
                 (A) (A) (A) (A) (A) (A) (A) (A) (A) (A) (A) (A)
                 (A) (A) (A) (A) (A) (A) (A) (A) (A) (A) (A) (A)
                 (A) (A) (A) (A) (A) (A) (A) (A) (A) (A) (A) (A)
                 (A) (A) (A) (A) (A) (A) (A) (A) (A) (A) (A) (A)
                 (A) (A) (A) (A) (A) (A) (A) (A) (A) (A) (A) (A)
                 (A) (A) (A) (A) (A) (A) (A) (A) (A) (A) (A) (A)
                 (A) (A) (A) (A) (A) (A) (A) (A) (A) (A) (A) (A)
                 (A) (A) (A) (A) (A) (A) (A) (A) (A) (A) (A) (A)
                 (A) (A) (A) (A) (A) (A) (A) (A) (A) (A) (A) (A)
                 (A) (A) (A) (A) (A) (A) (A) (A) (A) (A) (A) (A)
                 (A) (A) (A) (A) (A) (A) (A) (A) (A) (A) (A) (A)
                 (A) (A) (A) (A) (A) (A) (A) (A) (A) (A) (A) (A)
                 (A) (A) (A) (A) (A) (A) (A) (A) (A) (A) (A)
 The electronic state is 1-A.
 Alpha  occ. eigenvalues -- -511.18577 -66.73386 -60.39497 -60.39495 -60.39493
 Alpha  occ. eigenvalues --   -9.66932  -7.41184  -7.41182  -7.41181  -3.35590
 Alpha  occ. eigenvalues --   -3.35590  -3.35589  -3.35588  -3.35588  -1.08851
 Alpha  occ. eigenvalues --   -0.52696  -0.52694  -0.52691
 Alpha virt. eigenvalues --    0.03051   0.04896   0.08497   0.09752   0.12041
 Alpha virt. eigenvalues --    0.13218   0.13741   0.14319   0.15653   0.17271
 Alpha virt. eigenvalues --    0.17692   0.18066   0.21354   0.26781   0.27452
 Alpha virt. eigenvalues --    0.27777   0.29816   0.32129   0.33565   0.38052
 Alpha virt. eigenvalues --    0.38820   0.39900   0.39963   0.40982   0.42077
 Alpha virt. eigenvalues --    0.42799   0.46639   0.55248   0.56109   0.59831
 Alpha virt. eigenvalues --    0.62541   0.63776   0.70004   0.71050   0.71833
 Alpha virt. eigenvalues --    0.73982   0.75230   0.77011   0.77311   0.78751
 Alpha virt. eigenvalues --    0.79110   0.84252   0.85584   0.87440   0.89219
 Alpha virt. eigenvalues --    0.89832   0.90551   0.91012   0.96811   0.99307
 Alpha virt. eigenvalues --    0.99795   1.00421   1.01504   1.02136   1.05611
 Alpha virt. eigenvalues --    1.05851   1.09915   1.12407   1.16017   1.17333
 Alpha virt. eigenvalues --    1.18718   1.25284   1.31031   1.33903   1.41016
 Alpha virt. eigenvalues --    1.42586   1.45506   1.46708   1.50057   1.53336
 Alpha virt. eigenvalues --    1.58174   1.62680   1.67164   1.72752   1.75925
 Alpha virt. eigenvalues --    1.79932   1.85509   1.88762   1.95759   2.19811
 Alpha virt. eigenvalues --    2.23273   2.23861   2.30818   2.31474   2.35578
 Alpha virt. eigenvalues --    2.37002   2.38207   2.39495   2.40504   2.42470
 Alpha virt. eigenvalues --    2.47323   2.49447   2.53148   2.54701   2.55565
 Alpha virt. eigenvalues --    2.56072   2.57119   2.63061   2.63314   2.64589
 Alpha virt. eigenvalues --    2.65091   2.67116   2.67804   2.72607   2.74715
 Alpha virt. eigenvalues --    2.76875   2.79087   2.87036   2.90933   2.91620
 Alpha virt. eigenvalues --    2.98264   3.00104   3.08821   3.15590   3.17313
 Alpha virt. eigenvalues --    3.27687   3.28410   3.28922   3.40560   3.55324
 Alpha virt. eigenvalues --    3.63288   3.66273   3.88344   3.88500   4.02557
 Alpha virt. eigenvalues --    4.44201   4.45806   4.52631   4.61679   4.70137
 Alpha virt. eigenvalues --    4.73222   4.83943   4.88628   4.96598   5.05306
 Alpha virt. eigenvalues --    5.13788   5.31957   5.52640   5.67753   5.70405
 Alpha virt. eigenvalues --    5.93439   6.03802   6.28334   6.71473   6.95896
 Alpha virt. eigenvalues --    7.27070   7.38022   7.65322   7.67026   7.80066
 Alpha virt. eigenvalues --    7.87976   8.03340   8.12409   8.14544   8.28681
 Alpha virt. eigenvalues --    8.30855   8.37961   8.71649   9.02362   9.50542
 Alpha virt. eigenvalues --    9.74435   9.77978   9.88762   9.91153   9.94778
 Alpha virt. eigenvalues --   10.21164  10.22632  10.73440  10.87507  11.44970
 Alpha virt. eigenvalues --   11.63402  11.67999  11.93207  12.06914  13.29945
 Alpha virt. eigenvalues --   13.60027  14.56036  62.37952  64.82543
          Condensed to atoms (all electrons):
              1          2          3          4          5
     1  O    0.002137  -0.000189  -0.001998   0.000360  -0.004808
     2  O   -0.000189   0.002412   0.000257  -0.002280  -0.003565
     3  H   -0.001998   0.000257   0.003108   0.000235  -0.024933
     4  H    0.000360  -0.002280   0.000235   0.003430  -0.026488
     5  Kr  -0.004808  -0.003565  -0.024933  -0.026488  36.115731
 Mulliken atomic charges:
              1
     1  O    0.004498
     2  O    0.003365
     3  H    0.023330
     4  H    0.024743
     5  Kr  -0.055937
 Sum of Mulliken atomic charges =   0.00000
 Mulliken charges with hydrogens summed into heavy atoms:
              1
     1  O    0.027829
     2  O    0.028109
     5  Kr  -0.055937
 Sum of Mulliken charges with hydrogens summed into heavy atoms =   0.00000
          Condensed to fragments (all electrons):
     1       0.055937
     2      -0.055937
 Electronic spatial extent (au):  <R**2>=            159.1631
 Charge=              0.0000 electrons
 Dipole moment (field-independent basis, Debye):
    X=             -0.0015    Y=              0.0000    Z=              0.0000  Tot=              0.0015
 Quadrupole moment (field-independent basis, Debye-Ang):
   XX=            -17.5396   YY=            -17.5473   ZZ=            -17.5570
   XY=             -0.0001   XZ=             -0.0011   YZ=             -0.0006
 Traceless Quadrupole moment (field-independent basis, Debye-Ang):
   XX=              0.0084   YY=              0.0006   ZZ=             -0.0090
   XY=             -0.0001   XZ=             -0.0011   YZ=             -0.0006
 Octapole moment (field-independent basis, Debye-Ang**2):
  XXX=            -50.8398  YYY=              0.0069  ZZZ=              0.0654  XYY=            -16.9591
  XXY=              0.0020  XXZ=              0.0202  XZZ=            -16.9647  YZZ=              0.0024
  YYZ=              0.0216  XYZ=             -0.0002
 Hexadecapole moment (field-independent basis, Debye-Ang**3):
 XXXX=           -116.2467 YYYY=            -18.0253 ZZZZ=            -18.0561 XXXY=              0.0062
 XXXZ=              0.0601 YYYX=              0.0063 YYYZ=             -0.0002 ZZZX=              0.0601
 ZZZY=             -0.0017 XXYY=            -22.3882 XXZZ=            -22.3963 YYZZ=             -6.0107
 XXYZ=             -0.0003 YYXZ=              0.0204 ZZXY=              0.0020
 N-N= 0.000000000000D+00 E-N=-6.579034733272D+03  KE= 2.749501913461D+03
 No NMR shielding tensors so no spin-rotation constants.
 Leave Link  601 at Fri May  8 06:20:30 2020, MaxMem= 1073741824 cpu:       0.7
 (Enter /home/matheus/.gaussian/g09/l122.exe)
 Counterpoise: doing MCBS calculation for fragment   1
 Leave Link  122 at Fri May  8 06:20:30 2020, MaxMem= 1073741824 cpu:       0.0
 (Enter /home/matheus/.gaussian/g09/l301.exe)
 Basis read from rwf:  (5D, 7F)
 No pseudopotential information found on rwf file.
 There are   138 symmetry adapted basis functions of A   symmetry.
 Integral buffers will be    131072 words long.
 Raffenetti 2 integral format.
 Two-electron integral symmetry is turned on.
   138 basis functions,   198 primitive gaussians,   160 cartesian basis functions
     9 alpha electrons        9 beta electrons
       nuclear repulsion energy        36.6659649233 Hartrees.
 IExCor=32609 DFT=T Ex+Corr=LC-wPBE ExCW=0 ScaHFX=  1.000000
 ScaDFX=  1.000000  0.000000  1.000000  1.000000 ScalE2=  1.000000  1.000000
 IRadAn=      5 IRanWt=     -1 IRanGd=            0 ICorTp=0
  HFx wShort=  0.000000 wLong=  0.550000 cFull=  0.000000 cShort=  0.000000 cLong=  1.000000
  DFx wShort=  0.000000 wLong=  0.550000 cFull=  0.000000 cShort=  0.000000 cLong=  1.000000
 NAtoms=    5 NActive=    4 NUniq=    4 SFac= 1.00D+00 NAtFMM=   60 NAOKFM=F Big=F
 No density basis found on file   718.
 Leave Link  301 at Fri May  8 06:20:30 2020, MaxMem= 1073741824 cpu:       0.2
 (Enter /home/matheus/.gaussian/g09/l302.exe)
 NPDir=0 NMtPBC=     1 NCelOv=     1 NCel=       1 NClECP=     1 NCelD=      1
         NCelK=      1 NCelE2=     1 NClLst=     1 CellRange=     0.0.
 One-electron integrals computed using PRISM.
 NBasis=   138 RedAO= T  NBF=   138
 NBsUse=   138 1.00D-06 NBFU=   138
 Precomputing XC quadrature grid using
 IXCGrd= 2 IRadAn=           5 IRanWt=          -1 IRanGd=           0 AccXCQ= 0.00D+00.
 NRdTot=     344 NPtTot=       92556 NUsed=       95038 NTot=       95070
 NSgBfM=   160   160   160   160   160 NAtAll=     4     4.
 Leave Link  302 at Fri May  8 06:20:30 2020, MaxMem= 1073741824 cpu:       0.7
 (Enter /home/matheus/.gaussian/g09/l303.exe)
 DipDrv:  MaxL=1.
 Leave Link  303 at Fri May  8 06:20:30 2020, MaxMem= 1073741824 cpu:       0.1
 (Enter /home/matheus/.gaussian/g09/l401.exe)
 Harris functional with IExCor=32609 diagonalized for initial guess.
 ExpMin= 2.53D-02 ExpMax= 1.53D+04 ExpMxC= 5.22D+02 IAcc=3 IRadAn=         5 AccDes= 0.00D+00
 HarFok:  IExCor=32609 AccDes= 0.00D+00 IRadAn=         5 IDoV= 1
 ScaDFX=  1.000000  1.000000  1.000000  1.000000
 FoFCou: FMM=F IPFlag=           0 FMFlag=      100000 FMFlg1=           0
         NFxFlg=           0 DoJE=T BraDBF=F KetDBF=T FulRan=T
         Omega=  0.000000  0.000000  1.000000  0.000000  0.000000 ICntrl=     500 IOpCl=  0
         NMat0=    1 NMatS0=    1 NMatT0=    0 NMatD0=    1 NMtDS0=    0 NMtDT0=    0
         I1Cent=           4 NGrid=           0.
 Petite list used in FoFCou.
 Harris En= -151.498575464273    
 Initial guess orbital symmetries:
       Occupied  (A) (A) (A) (A) (A) (A) (A) (A) (A)
       Virtual   (A) (A) (A) (A) (A) (A) (A) (A) (A) (A) (A) (A)
                 (A) (A) (A) (A) (A) (A) (A) (A) (A) (A) (A) (A)
                 (A) (A) (A) (A) (A) (A) (A) (A) (A) (A) (A) (A)
                 (A) (A) (A) (A) (A) (A) (A) (A) (A) (A) (A) (A)
                 (A) (A) (A) (A) (A) (A) (A) (A) (A) (A) (A) (A)
                 (A) (A) (A) (A) (A) (A) (A) (A) (A) (A) (A) (A)
                 (A) (A) (A) (A) (A) (A) (A) (A) (A) (A) (A) (A)
                 (A) (A) (A) (A) (A) (A) (A) (A) (A) (A) (A) (A)
                 (A) (A) (A) (A) (A) (A) (A) (A) (A) (A) (A) (A)
                 (A) (A) (A) (A) (A) (A) (A) (A) (A) (A) (A) (A)
                 (A) (A) (A) (A) (A) (A) (A) (A) (A)
 The electronic state of the initial guess is 1-A.
 Leave Link  401 at Fri May  8 06:20:31 2020, MaxMem= 1073741824 cpu:       2.1
 (Enter /home/matheus/.gaussian/g09/l502.exe)
 Closed shell SCF:
 Requested convergence on RMS density matrix=1.00D-08 within 128 cycles.
 Requested convergence on MAX density matrix=1.00D-06.
 Requested convergence on             energy=1.00D-06.
 No special actions if energy rises.
 Using DIIS extrapolation, IDIIS=  1040.
 Integral symmetry usage will be decided dynamically.
        94980 words used for storage of precomputed grid.
 IEnd=      192360 IEndB=      192360 NGot=  1073741824 MDV=  1073591865
 LenX=  1073591865 LenY=  1073565824
 Fock matrices will be formed incrementally for  20 cycles.

 Cycle   1  Pass 1  IDiag  1:
 FoFJK:  IHMeth= 1 ICntrl=     0 DoSepK=T KAlg= 1 I1Cent= 0 FoldK=F
 FoFCou: FMM=F IPFlag=           0 FMFlag=      100000 FMFlg1=           0
         NFxFlg=           0 DoJE=T BraDBF=F KetDBF=F FulRan=T
         Omega=  0.000000  0.000000  1.000000  0.000000  0.000000 ICntrl=     500 IOpCl=  0
         NMat0=    1 NMatS0=    1 NMatT0=    0 NMatD0=    1 NMtDS0=    0 NMtDT0=    0
         I1Cent=           0 NGrid=           0.
 Symmetry not used in FoFCou.
 E= -151.496735230004    
 DIIS: error= 2.15D-02 at cycle   1 NSaved=   1.
 NSaved= 1 IEnMin= 1 EnMin= -151.496735230004     IErMin= 1 ErrMin= 2.15D-02
 ErrMax= 2.15D-02 EMaxC= 1.00D-01 BMatC= 4.43D-02 BMatP= 4.43D-02
 IDIUse=3 WtCom= 7.85D-01 WtEn= 2.15D-01
 Coeff-Com:  0.100D+01
 Coeff-En:   0.100D+01
 Coeff:      0.100D+01
 Gap=     0.541 Goal=   None    Shift=    0.000
 GapD=    0.541 DampG=2.000 DampE=0.500 DampFc=1.0000 IDamp=-1.
 RMSDP=1.13D-03 MaxDP=2.32D-02              OVMax= 5.99D-02

 Cycle   2  Pass 1  IDiag  1:
 RMSU=  7.97D-04    CP:  9.95D-01
 FoFJK:  IHMeth= 1 ICntrl=     0 DoSepK=T KAlg= 1 I1Cent= 0 FoldK=F
 E= -151.514695956808     Delta-E=       -0.017960726804 Rises=F Damp=F
 DIIS: error= 1.34D-02 at cycle   2 NSaved=   2.
 NSaved= 2 IEnMin= 2 EnMin= -151.514695956808     IErMin= 2 ErrMin= 1.34D-02
 ErrMax= 1.34D-02 EMaxC= 1.00D-01 BMatC= 1.87D-02 BMatP= 4.43D-02
 IDIUse=3 WtCom= 8.66D-01 WtEn= 1.34D-01
 Coeff-Com:  0.382D+00 0.618D+00
 Coeff-En:   0.148D+00 0.852D+00
 Coeff:      0.351D+00 0.649D+00
 Gap=     0.455 Goal=   None    Shift=    0.000
 RMSDP=6.73D-04 MaxDP=2.26D-02 DE=-1.80D-02 OVMax= 2.67D-02

 Cycle   3  Pass 1  IDiag  1:
 RMSU=  3.24D-04    CP:  9.90D-01  5.68D-01
 FoFJK:  IHMeth= 1 ICntrl=     0 DoSepK=T KAlg= 1 I1Cent= 0 FoldK=F
 E= -151.525439809220     Delta-E=       -0.010743852412 Rises=F Damp=F
 DIIS: error= 2.32D-03 at cycle   3 NSaved=   3.
 NSaved= 3 IEnMin= 3 EnMin= -151.525439809220     IErMin= 3 ErrMin= 2.32D-03
 ErrMax= 2.32D-03 EMaxC= 1.00D-01 BMatC= 5.19D-04 BMatP= 1.87D-02
 IDIUse=3 WtCom= 9.77D-01 WtEn= 2.32D-02
 Coeff-Com:  0.421D-01 0.165D+00 0.792D+00
 Coeff-En:   0.000D+00 0.000D+00 0.100D+01
 Coeff:      0.412D-01 0.162D+00 0.797D+00
 Gap=     0.446 Goal=   None    Shift=    0.000
 RMSDP=8.46D-05 MaxDP=1.38D-03 DE=-1.07D-02 OVMax= 4.39D-03

 Cycle   4  Pass 1  IDiag  1:
 RMSU=  3.94D-05    CP:  9.89D-01  6.22D-01  9.99D-01
 FoFJK:  IHMeth= 1 ICntrl=     0 DoSepK=T KAlg= 1 I1Cent= 0 FoldK=F
 E= -151.525763380022     Delta-E=       -0.000323570802 Rises=F Damp=F
 DIIS: error= 3.53D-04 at cycle   4 NSaved=   4.
 NSaved= 4 IEnMin= 4 EnMin= -151.525763380022     IErMin= 4 ErrMin= 3.53D-04
 ErrMax= 3.53D-04 EMaxC= 1.00D-01 BMatC= 1.06D-05 BMatP= 5.19D-04
 IDIUse=3 WtCom= 9.96D-01 WtEn= 3.53D-03
 Coeff-Com: -0.100D-01-0.123D-01 0.848D-01 0.938D+00
 Coeff-En:   0.000D+00 0.000D+00 0.000D+00 0.100D+01
 Coeff:     -0.100D-01-0.123D-01 0.845D-01 0.938D+00
 Gap=     0.448 Goal=   None    Shift=    0.000
 RMSDP=1.69D-05 MaxDP=5.85D-04 DE=-3.24D-04 OVMax= 8.27D-04

 Cycle   5  Pass 1  IDiag  1:
 RMSU=  6.32D-06    CP:  9.88D-01  6.19D-01  1.03D+00  1.05D+00
 FoFJK:  IHMeth= 1 ICntrl=     0 DoSepK=T KAlg= 1 I1Cent= 0 FoldK=F
 E= -151.525772210335     Delta-E=       -0.000008830313 Rises=F Damp=F
 DIIS: error= 6.89D-05 at cycle   5 NSaved=   5.
 NSaved= 5 IEnMin= 5 EnMin= -151.525772210335     IErMin= 5 ErrMin= 6.89D-05
 ErrMax= 6.89D-05 EMaxC= 1.00D-01 BMatC= 2.10D-07 BMatP= 1.06D-05
 IDIUse=1 WtCom= 1.00D+00 WtEn= 0.00D+00
 Coeff-Com: -0.209D-03-0.169D-02-0.311D-01-0.117D+00 0.115D+01
 Coeff:     -0.209D-03-0.169D-02-0.311D-01-0.117D+00 0.115D+01
 Gap=     0.448 Goal=   None    Shift=    0.000
 RMSDP=4.51D-06 MaxDP=7.92D-05 DE=-8.83D-06 OVMax= 2.98D-04

 Cycle   6  Pass 1  IDiag  1:
 RMSU=  1.61D-06    CP:  9.88D-01  6.20D-01  1.03D+00  1.09D+00  1.29D+00
 FoFJK:  IHMeth= 1 ICntrl=     0 DoSepK=T KAlg= 1 I1Cent= 0 FoldK=F
 E= -151.525772766450     Delta-E=       -0.000000556114 Rises=F Damp=F
 DIIS: error= 1.59D-05 at cycle   6 NSaved=   6.
 NSaved= 6 IEnMin= 6 EnMin= -151.525772766450     IErMin= 6 ErrMin= 1.59D-05
 ErrMax= 1.59D-05 EMaxC= 1.00D-01 BMatC= 1.09D-08 BMatP= 2.10D-07
 IDIUse=1 WtCom= 1.00D+00 WtEn= 0.00D+00
 Coeff-Com:  0.204D-03 0.685D-03 0.578D-02 0.743D-02-0.273D+00 0.126D+01
 Coeff:      0.204D-03 0.685D-03 0.578D-02 0.743D-02-0.273D+00 0.126D+01
 Gap=     0.448 Goal=   None    Shift=    0.000
 RMSDP=1.51D-06 MaxDP=2.83D-05 DE=-5.56D-07 OVMax= 1.26D-04

 Cycle   7  Pass 1  IDiag  1:
 RMSU=  4.00D-07    CP:  9.88D-01  6.20D-01  1.03D+00  1.10D+00  1.33D+00
                    CP:  1.49D+00
 FoFJK:  IHMeth= 1 ICntrl=     0 DoSepK=T KAlg= 1 I1Cent= 0 FoldK=F
 E= -151.525772776787     Delta-E=       -0.000000010338 Rises=F Damp=F
 DIIS: error= 5.91D-06 at cycle   7 NSaved=   7.
 NSaved= 7 IEnMin= 7 EnMin= -151.525772776787     IErMin= 7 ErrMin= 5.91D-06
 ErrMax= 5.91D-06 EMaxC= 1.00D-01 BMatC= 8.19D-10 BMatP= 1.09D-08
 IDIUse=1 WtCom= 1.00D+00 WtEn= 0.00D+00
 Coeff-Com: -0.257D-04-0.442D-04 0.762D-03 0.528D-02-0.257D-01-0.197D+00
 Coeff-Com:  0.122D+01
 Coeff:     -0.257D-04-0.442D-04 0.762D-03 0.528D-02-0.257D-01-0.197D+00
 Coeff:      0.122D+01
 Gap=     0.448 Goal=   None    Shift=    0.000
 RMSDP=5.95D-07 MaxDP=1.45D-05 DE=-1.03D-08 OVMax= 4.99D-05

[...]
         NFxFlg=           0 DoJE=T BraDBF=F KetDBF=T FulRan=T
         Omega=  0.000000  0.000000  1.000000  0.000000  0.000000 ICntrl=     500 IOpCl=  0
         NMat0=    1 NMatS0=    1 NMatT0=    0 NMatD0=    1 NMtDS0=    0 NMtDT0=    0
         I1Cent=           4 NGrid=           0.
 Petite list used in FoFCou.
 Harris En= -2753.24587748904    
 Leave Link  401 at Fri May  8 06:40:30 2020, MaxMem= 1073741824 cpu:       3.8
 (Enter /home/matheus/.gaussian/g09/l502.exe)
 Closed shell SCF:
 Requested convergence on RMS density matrix=1.00D-08 within 128 cycles.
 Requested convergence on MAX density matrix=1.00D-06.
 Requested convergence on             energy=1.00D-06.
 No special actions if energy rises.
 Using DIIS extrapolation, IDIIS=  1040.
 Integral symmetry usage will be decided dynamically.
       126823 words used for storage of precomputed grid.
 IEnd=      305770 IEndB=      305770 NGot=  1073741824 MDV=  1073505365
 LenX=  1073505365 LenY=  1073452483
 Fock matrices will be formed incrementally for  20 cycles.

 Cycle   1  Pass 1  IDiag  1:
 FoFJK:  IHMeth= 1 ICntrl=     0 DoSepK=T KAlg= 1 I1Cent= 0 FoldK=F
 FoFCou: FMM=F IPFlag=           0 FMFlag=      100000 FMFlg1=           0
         NFxFlg=           0 DoJE=T BraDBF=F KetDBF=F FulRan=T
         Omega=  0.000000  0.000000  1.000000  0.000000  0.000000 ICntrl=     500 IOpCl=  0
         NMat0=    1 NMatS0=    1 NMatT0=    0 NMatD0=    1 NMtDS0=    0 NMtDT0=    0
         I1Cent=           0 NGrid=           0.
 Symmetry not used in FoFCou.
 E= -2753.47778123194    
 DIIS: error= 2.07D-04 at cycle   1 NSaved=   1.
 NSaved= 1 IEnMin= 1 EnMin= -2753.47778123194     IErMin= 1 ErrMin= 2.07D-04
 ErrMax= 2.07D-04 EMaxC= 1.00D-01 BMatC= 5.32D-06 BMatP= 5.32D-06
 IDIUse=3 WtCom= 9.98D-01 WtEn= 2.07D-03
 Coeff-Com:  0.100D+01
 Coeff-En:   0.100D+01
 Coeff:      0.100D+01
 Gap=     0.556 Goal=   None    Shift=    0.000
 RMSDP=1.36D-05 MaxDP=6.41D-04              OVMax= 3.50D-04

 Cycle   2  Pass 1  IDiag  1:
 RMSU=  9.61D-06    CP:  1.00D+00
 FoFJK:  IHMeth= 1 ICntrl=     0 DoSepK=T KAlg= 1 I1Cent= 0 FoldK=F
 E= -2753.47778197069     Delta-E=       -0.000000738753 Rises=F Damp=F
 DIIS: error= 6.79D-06 at cycle   2 NSaved=   2.
 NSaved= 2 IEnMin= 2 EnMin= -2753.47778197069     IErMin= 2 ErrMin= 6.79D-06
 ErrMax= 6.79D-06 EMaxC= 1.00D-01 BMatC= 5.35D-09 BMatP= 5.32D-06
 IDIUse=1 WtCom= 1.00D+00 WtEn= 0.00D+00
 Coeff-Com: -0.981D-02 0.101D+01
 Coeff:     -0.981D-02 0.101D+01
 Gap=     0.556 Goal=   None    Shift=    0.000
 RMSDP=1.26D-06 MaxDP=4.99D-05 DE=-7.39D-07 OVMax= 5.33D-05

 Cycle   3  Pass 1  IDiag  1:
 RMSU=  4.89D-07    CP:  1.00D+00  1.08D+00
 FoFJK:  IHMeth= 1 ICntrl=     0 DoSepK=T KAlg= 1 I1Cent= 0 FoldK=F
 E= -2753.47778197983     Delta-E=       -0.000000009140 Rises=F Damp=F
 DIIS: error= 1.11D-06 at cycle   3 NSaved=   3.
 NSaved= 3 IEnMin= 3 EnMin= -2753.47778197983     IErMin= 3 ErrMin= 1.11D-06
 ErrMax= 1.11D-06 EMaxC= 1.00D-01 BMatC= 1.30D-10 BMatP= 5.35D-09
 IDIUse=1 WtCom= 1.00D+00 WtEn= 0.00D+00
 Coeff-Com:  0.303D-03-0.125D+00 0.112D+01
 Coeff:      0.303D-03-0.125D+00 0.112D+01
 Gap=     0.556 Goal=   None    Shift=    0.000
 RMSDP=1.71D-07 MaxDP=5.68D-06 DE=-9.14D-09 OVMax= 1.07D-05

 Cycle   4  Pass 1  IDiag  1:
 RMSU=  5.21D-08    CP:  1.00D+00  1.08D+00  1.21D+00
 FoFJK:  IHMeth= 1 ICntrl=     0 DoSepK=T KAlg= 1 I1Cent= 0 FoldK=F
 E= -2753.47778198008     Delta-E=       -0.000000000251 Rises=F Damp=F
 DIIS: error= 4.06D-07 at cycle   4 NSaved=   4.
 NSaved= 4 IEnMin= 4 EnMin= -2753.47778198008     IErMin= 4 ErrMin= 4.06D-07
 ErrMax= 4.06D-07 EMaxC= 1.00D-01 BMatC= 7.73D-12 BMatP= 1.30D-10
 IDIUse=1 WtCom= 1.00D+00 WtEn= 0.00D+00
 Coeff-Com:  0.200D-03-0.395D-01 0.227D+00 0.813D+00
 Coeff:      0.200D-03-0.395D-01 0.227D+00 0.813D+00
 Gap=     0.556 Goal=   None    Shift=    0.000
 RMSDP=2.08D-08 MaxDP=7.58D-07 DE=-2.51D-10 OVMax= 1.06D-06

 Cycle   5  Pass 1  IDiag  1:
 RMSU=  8.44D-09    CP:  1.00D+00  1.08D+00  1.23D+00  1.12D+00
 FoFJK:  IHMeth= 1 ICntrl=     0 DoSepK=T KAlg= 1 I1Cent= 0 FoldK=F
 E= -2753.47778198008     Delta-E=       -0.000000000003 Rises=F Damp=F
 DIIS: error= 4.00D-08 at cycle   5 NSaved=   5.
 NSaved= 5 IEnMin= 5 EnMin= -2753.47778198008     IErMin= 5 ErrMin= 4.00D-08
 ErrMax= 4.00D-08 EMaxC= 1.00D-01 BMatC= 2.34D-13 BMatP= 7.73D-12
 IDIUse=1 WtCom= 1.00D+00 WtEn= 0.00D+00
 Coeff-Com: -0.194D-04 0.645D-02-0.551D-01-0.750D-02 0.106D+01
 Coeff:     -0.194D-04 0.645D-02-0.551D-01-0.750D-02 0.106D+01
 Gap=     0.556 Goal=   None    Shift=    0.000
 RMSDP=8.12D-09 MaxDP=3.37D-07 DE=-3.18D-12 OVMax= 3.62D-07

 SCF Done:  E(RLC-wPBE) =  -2753.47778198     A.U. after    5 cycles
             Convg  =    0.8124D-08             -V/T =  2.0014
 KE= 2.749554975037D+03 PE=-6.579092880944D+03 EE= 1.076060123926D+03
 Leave Link  502 at Fri May  8 06:40:41 2020, MaxMem= 1073741824 cpu:      89.7
 (Enter /home/matheus/.gaussian/g09/l122.exe)
 Restoring MOs from calculation   4 to rwf.
 Counterpoise: doing MCBS calculation for fragment   1
 Leave Link  122 at Fri May  8 06:40:41 2020, MaxMem= 1073741824 cpu:       0.0
 (Enter /home/matheus/.gaussian/g09/l301.exe)
 Basis read from rwf:  (5D, 7F)
 No pseudopotential information found on rwf file.
 There are   138 symmetry adapted basis functions of A   symmetry.
 Integral buffers will be    131072 words long.
 Raffenetti 2 integral format.
 Two-electron integral symmetry is turned on.
   138 basis functions,   198 primitive gaussians,   160 cartesian basis functions
     9 alpha electrons        9 beta electrons
       nuclear repulsion energy        36.6659649233 Hartrees.
 IExCor=32609 DFT=T Ex+Corr=LC-wPBE ExCW=0 ScaHFX=  1.000000
 ScaDFX=  1.000000  0.000000  1.000000  1.000000 ScalE2=  1.000000  1.000000
 IRadAn=      5 IRanWt=     -1 IRanGd=            0 ICorTp=0
  HFx wShort=  0.000000 wLong=  0.550000 cFull=  0.000000 cShort=  0.000000 cLong=  1.000000
  DFx wShort=  0.000000 wLong=  0.550000 cFull=  0.000000 cShort=  0.000000 cLong=  1.000000
 NAtoms=    5 NActive=    4 NUniq=    4 SFac= 1.00D+00 NAtFMM=   60 NAOKFM=F Big=F
 No density basis found on file   718.
 Leave Link  301 at Fri May  8 06:40:41 2020, MaxMem= 1073741824 cpu:       0.2
 (Enter /home/matheus/.gaussian/g09/l302.exe)
 NPDir=0 NMtPBC=     1 NCelOv=     1 NCel=       1 NClECP=     1 NCelD=      1
         NCelK=      1 NCelE2=     1 NClLst=     1 CellRange=     0.0.
 One-electron integrals computed using PRISM.
 NBasis=   138 RedAO= T  NBF=   138
 NBsUse=   138 1.00D-06 NBFU=   138
 Precomputing XC quadrature grid using
 IXCGrd= 2 IRadAn=           5 IRanWt=          -1 IRanGd=           0 AccXCQ= 0.00D+00.
 NRdTot=     344 NPtTot=       92556 NUsed=       95038 NTot=       95070
 NSgBfM=   160   160   160   160   160 NAtAll=     4     4.
 Leave Link  302 at Fri May  8 06:40:41 2020, MaxMem= 1073741824 cpu:       0.8
 (Enter /home/matheus/.gaussian/g09/l303.exe)
 DipDrv:  MaxL=1.
 Leave Link  303 at Fri May  8 06:40:41 2020, MaxMem= 1073741824 cpu:       0.1
 (Enter /home/matheus/.gaussian/g09/l401.exe)
 Initial guess read from the read-write file.
 Guess basis will be translated and rotated to current coordinates.
 Initial guess orbital symmetries:
       Occupied  (A) (A) (A) (A) (A) (A) (A) (A) (A)
       Virtual   (A) (A) (A) (A) (A) (A) (A) (A) (A) (A) (A) (A)
                 (A) (A) (A) (A) (A) (A) (A) (A) (A) (A) (A) (A)
                 (A) (A) (A) (A) (A) (A) (A) (A) (A) (A) (A) (A)
                 (A) (A) (A) (A) (A) (A) (A) (A) (A) (A) (A) (A)
                 (A) (A) (A) (A) (A) (A) (A) (A) (A) (A) (A) (A)
                 (A) (A) (A) (A) (A) (A) (A) (A) (A) (A) (A) (A)
                 (A) (A) (A) (A) (A) (A) (A) (A) (A) (A) (A) (A)
                 (A) (A) (A) (A) (A) (A) (A) (A) (A) (A) (A) (A)
                 (A) (A) (A) (A) (A) (A) (A) (A) (A) (A) (A) (A)
                 (A) (A) (A) (A) (A) (A) (A) (A) (A) (A) (A) (A)
                 (A) (A) (A) (A) (A) (A) (A) (A) (A)
 The electronic state of the initial guess is 1-A.
 Generating alternative initial guess.
 Harris functional with IExCor=32609 diagonalized for initial guess.
 ExpMin= 2.53D-02 ExpMax= 1.53D+04 ExpMxC= 5.22D+02 IAcc=3 IRadAn=         5 AccDes= 0.00D+00
 HarFok:  IExCor=32609 AccDes= 0.00D+00 IRadAn=         5 IDoV= 1
 ScaDFX=  1.000000  1.000000  1.000000  1.000000
 FoFCou: FMM=F IPFlag=           0 FMFlag=      100000 FMFlg1=           0
         NFxFlg=           0 DoJE=T BraDBF=F KetDBF=T FulRan=T
         Omega=  0.000000  0.000000  1.000000  0.000000  0.000000 ICntrl=     500 IOpCl=  0
         NMat0=    1 NMatS0=    1 NMatT0=    0 NMatD0=    1 NMtDS0=    0 NMtDT0=    0
         I1Cent=           4 NGrid=           0.
 Petite list used in FoFCou.
 Harris En= -151.498575473348    
 Leave Link  401 at Fri May  8 06:40:42 2020, MaxMem= 1073741824 cpu:       2.5
 (Enter /home/matheus/.gaussian/g09/l502.exe)
 Closed shell SCF:
 Requested convergence on RMS density matrix=1.00D-08 within 128 cycles.
 Requested convergence on MAX density matrix=1.00D-06.
 Requested convergence on             energy=1.00D-06.
 No special actions if energy rises.
 Using DIIS extrapolation, IDIIS=  1040.
 Integral symmetry usage will be decided dynamically.
        94980 words used for storage of precomputed grid.
 IEnd=      192360 IEndB=      192360 NGot=  1073741824 MDV=  1073591865
 LenX=  1073591865 LenY=  1073565824
 Fock matrices will be formed incrementally for  20 cycles.

 Cycle   1  Pass 1  IDiag  1:
 FoFJK:  IHMeth= 1 ICntrl=     0 DoSepK=T KAlg= 1 I1Cent= 0 FoldK=F
 FoFCou: FMM=F IPFlag=           0 FMFlag=      100000 FMFlg1=           0
         NFxFlg=           0 DoJE=T BraDBF=F KetDBF=F FulRan=T
         Omega=  0.000000  0.000000  1.000000  0.000000  0.000000 ICntrl=     500 IOpCl=  0
         NMat0=    1 NMatS0=    1 NMatT0=    0 NMatD0=    1 NMtDS0=    0 NMtDT0=    0
         I1Cent=           0 NGrid=           0.
 Symmetry not used in FoFCou.
 E= -151.525772861606    
 DIIS: error= 9.22D-07 at cycle   1 NSaved=   1.
 NSaved= 1 IEnMin= 1 EnMin= -151.525772861606     IErMin= 1 ErrMin= 9.22D-07
 ErrMax= 9.22D-07 EMaxC= 1.00D-01 BMatC= 9.83D-11 BMatP= 9.83D-11
 IDIUse=1 WtCom= 1.00D+00 WtEn= 0.00D+00
 Coeff-Com:  0.100D+01
 Coeff:      0.100D+01
 Gap=     0.448 Goal=   None    Shift=    0.000
 RMSDP=8.14D-08 MaxDP=1.99D-06              OVMax= 3.07D-06

 Cycle   2  Pass 1  IDiag  1:
 RMSU=  5.76D-08    CP:  1.00D+00
 FoFJK:  IHMeth= 1 ICntrl=     0 DoSepK=T KAlg= 1 I1Cent= 0 FoldK=F
 E= -151.525772861703     Delta-E=       -0.000000000097 Rises=F Damp=F
 DIIS: error= 2.03D-07 at cycle   2 NSaved=   2.
 NSaved= 2 IEnMin= 2 EnMin= -151.525772861703     IErMin= 2 ErrMin= 2.03D-07
 ErrMax= 2.03D-07 EMaxC= 1.00D-01 BMatC= 5.19D-12 BMatP= 9.83D-11
 IDIUse=1 WtCom= 1.00D+00 WtEn= 0.00D+00
 Coeff-Com: -0.137D+00 0.114D+01
 Coeff:     -0.137D+00 0.114D+01
 Gap=     0.448 Goal=   None    Shift=    0.000
 RMSDP=2.16D-08 MaxDP=6.65D-07 DE=-9.73D-11 OVMax= 1.14D-06

 Cycle   3  Pass 1  IDiag  1:
 RMSU=  6.53D-09    CP:  1.00D+00  1.24D+00
 FoFJK:  IHMeth= 1 ICntrl=     0 DoSepK=T KAlg= 1 I1Cent= 0 FoldK=F
 E= -151.525772861711     Delta-E=       -0.000000000008 Rises=F Damp=F
 DIIS: error= 9.55D-08 at cycle   3 NSaved=   3.
 NSaved= 3 IEnMin= 3 EnMin= -151.525772861711     IErMin= 3 ErrMin= 9.55D-08
 ErrMax= 9.55D-08 EMaxC= 1.00D-01 BMatC= 1.11D-12 BMatP= 5.19D-12
 IDIUse=1 WtCom= 1.00D+00 WtEn= 0.00D+00
 Coeff-Com: -0.622D-01 0.311D+00 0.751D+00
 Coeff:     -0.622D-01 0.311D+00 0.751D+00
 Gap=     0.448 Goal=   None    Shift=    0.000
 RMSDP=6.09D-09 MaxDP=1.31D-07 DE=-7.50D-12 OVMax= 3.81D-07

 SCF Done:  E(RLC-wPBE) =  -151.525772862     A.U. after    3 cycles
             Convg  =    0.6087D-08             -V/T =  2.0069
 KE= 1.504943540691D+02 PE=-4.316171852018D+02 EE= 9.293109334763D+01
 Leave Link  502 at Fri May  8 06:40:45 2020, MaxMem= 1073741824 cpu:      22.3
 (Enter /home/matheus/.gaussian/g09/l122.exe)
 Restoring MOs from calculation   5 to rwf.
 Counterpoise: doing MCBS calculation for fragment   2
 Leave Link  122 at Fri May  8 06:40:45 2020, MaxMem= 1073741824 cpu:       0.0
 (Enter /home/matheus/.gaussian/g09/l301.exe)
 Basis read from rwf:  (5D, 7F)
 No pseudopotential information found on rwf file.
 There are    59 symmetry adapted basis functions of A   symmetry.
 Integral buffers will be    131072 words long.
 Raffenetti 2 integral format.
 Two-electron integral symmetry is turned on.
    59 basis functions,   217 primitive gaussians,    69 cartesian basis functions
    18 alpha electrons       18 beta electrons
       nuclear repulsion energy         0.0000000000 Hartrees.
 IExCor=32609 DFT=T Ex+Corr=LC-wPBE ExCW=0 ScaHFX=  1.000000
 ScaDFX=  1.000000  0.000000  1.000000  1.000000 ScalE2=  1.000000  1.000000
 IRadAn=      5 IRanWt=     -1 IRanGd=            0 ICorTp=0
  HFx wShort=  0.000000 wLong=  0.550000 cFull=  0.000000 cShort=  0.000000 cLong=  1.000000
  DFx wShort=  0.000000 wLong=  0.550000 cFull=  0.000000 cShort=  0.000000 cLong=  1.000000
 NAtoms=    5 NActive=    1 NUniq=    1 SFac= 1.00D+00 NAtFMM=   60 NAOKFM=F Big=F
 No density basis found on file   718.
 Leave Link  301 at Fri May  8 06:40:45 2020, MaxMem= 1073741824 cpu:       0.2
 (Enter /home/matheus/.gaussian/g09/l302.exe)
 NPDir=0 NMtPBC=     1 NCelOv=     1 NCel=       1 NClECP=     1 NCelD=      1
         NCelK=      1 NCelE2=     1 NClLst=     1 CellRange=     0.0.
 One-electron integrals computed using PRISM.
 NBasis=    59 RedAO= T  NBF=    59
 NBsUse=    59 1.00D-06 NBFU=    59
 Precomputing XC quadrature grid using
 IXCGrd= 2 IRadAn=           5 IRanWt=          -1 IRanGd=           0 AccXCQ= 0.00D+00.
 NRdTot=      81 NPtTot=       30352 NUsed=       30981 NTot=       31013
 NSgBfM=    69    69    69    69    69 NAtAll=     1     1.
 Leave Link  302 at Fri May  8 06:40:45 2020, MaxMem= 1073741824 cpu:       0.6
 (Enter /home/matheus/.gaussian/g09/l303.exe)
 DipDrv:  MaxL=1.
 Leave Link  303 at Fri May  8 06:40:45 2020, MaxMem= 1073741824 cpu:       0.1
 (Enter /home/matheus/.gaussian/g09/l401.exe)
 Initial guess read from the read-write file.
 Guess basis will be translated and rotated to current coordinates.
 Initial guess orbital symmetries:
       Occupied  (A) (A) (A) (A) (A) (A) (A) (A) (A) (A) (A) (A)
                 (A) (A) (A) (A) (A) (A)
       Virtual   (A) (A) (A) (A) (A) (A) (A) (A) (A) (A) (A) (A)
                 (A) (A) (A) (A) (A) (A) (A) (A) (A) (A) (A) (A)
                 (A) (A) (A) (A) (A) (A) (A) (A) (A) (A) (A) (A)
                 (A) (A) (A) (A) (A)
 The electronic state of the initial guess is 1-A.
 Generating alternative initial guess.
 Harris functional with IExCor=32609 diagonalized for initial guess.
 ExpMin= 4.00D-02 ExpMax= 1.17D+07 ExpMxC= 1.33D+04 IAcc=3 IRadAn=         5 AccDes= 0.00D+00
 HarFok:  IExCor=32609 AccDes= 0.00D+00 IRadAn=         5 IDoV= 1
 ScaDFX=  1.000000  1.000000  1.000000  1.000000
 FoFCou: FMM=F IPFlag=           0 FMFlag=      100000 FMFlg1=           0
         NFxFlg=           0 DoJE=T BraDBF=F KetDBF=T FulRan=T
         Omega=  0.000000  0.000000  1.000000  0.000000  0.000000 ICntrl=     500 IOpCl=  0
         NMat0=    1 NMatS0=    1 NMatT0=    0 NMatD0=    1 NMtDS0=    0 NMtDT0=    0
         I1Cent=           4 NGrid=           0.
 Petite list used in FoFCou.
 DSYEVD returned Info=          89 IAlg= 4 N=    59 NDim=    59 NE2=    18198841 trying DSYEV.
 Harris En= -2753.24576836237    
 Leave Link  401 at Fri May  8 06:40:45 2020, MaxMem= 1073741824 cpu:       1.0
 (Enter /home/matheus/.gaussian/g09/l502.exe)
 Closed shell SCF:
 Requested convergence on RMS density matrix=1.00D-08 within 128 cycles.
 Requested convergence on MAX density matrix=1.00D-06.
 Requested convergence on             energy=1.00D-06.
 No special actions if energy rises.
 Using DIIS extrapolation, IDIIS=  1040.
 Integral symmetry usage will be decided dynamically.
        30923 words used for storage of precomputed grid.
 IEnd=       64406 IEndB=       64406 NGot=  1073741824 MDV=  1073698889
 LenX=  1073698889 LenY=  1073693687
 Fock matrices will be formed incrementally for  20 cycles.

 Cycle   1  Pass 1  IDiag  1:
 FoFJK:  IHMeth= 1 ICntrl=     0 DoSepK=T KAlg= 1 I1Cent= 0 FoldK=F
 FoFCou: FMM=F IPFlag=           0 FMFlag=      100000 FMFlg1=           0
         NFxFlg=           0 DoJE=T BraDBF=F KetDBF=F FulRan=T
         Omega=  0.000000  0.000000  1.000000  0.000000  0.000000 ICntrl=     500 IOpCl=  0
         NMat0=    1 NMatS0=    1 NMatT0=    0 NMatD0=    1 NMtDS0=    0 NMtDT0=    0
         I1Cent=           0 NGrid=           0.
 Symmetry not used in FoFCou.
 E= -2753.47775989058    
 DIIS: error= 9.68D-14 at cycle   1 NSaved=   1.
 NSaved= 1 IEnMin= 1 EnMin= -2753.47775989058     IErMin= 1 ErrMin= 9.68D-14
 ErrMax= 9.68D-14 EMaxC= 1.00D-01 BMatC= 2.07D-25 BMatP= 2.07D-25
 IDIUse=1 WtCom= 1.00D+00 WtEn= 0.00D+00
 Coeff-Com:  0.100D+01
 Coeff:      0.100D+01
 Gap=     0.626 Goal=   None    Shift=    0.000
 DSYEVD returned Info=        1859 IAlg= 4 N=    59 NDim=    59 NE2=    18198197 trying DSYEV.
 RMSDP=4.20D-15 MaxDP=7.25D-14              OVMax= 2.05D-14

 SCF Done:  E(RLC-wPBE) =  -2753.47775989     A.U. after    1 cycles
             Convg  =    0.4198D-14             -V/T =  2.0014
 KE= 2.749561508178D+03 PE=-6.579099712888D+03 EE= 1.076060444820D+03
 Leave Link  502 at Fri May  8 06:40:46 2020, MaxMem= 1073741824 cpu:      11.8
 (Enter /home/matheus/.gaussian/g09/l122.exe)
 Restoring MOs from calculation   1 to rwf.
 Counterpoise: corrected energy =   -2905.003652582795
 Counterpoise: BSSE energy =       0.000025014036
 Leave Link  122 at Fri May  8 06:40:46 2020, MaxMem= 1073741824 cpu:       0.0
 (Enter /home/matheus/.gaussian/g09/l108.exe)
 Scan completed.

 Summary of the potential surface scan:
   N      R1          SCF    
 ----  ---------  -----------
    1     3.0000  -2753.47776
    2     3.1000  -2753.47776
    3     3.2000  -2753.47776
    4     3.3000  -2753.47776
    5     3.4000  -2753.47776
    6     3.5000  -2753.47776
    7     3.6000  -2753.47776
    8     3.7000  -2753.47776
    9     3.8000  -2753.47776
   10     3.9000  -2753.47776
   11     4.0000  -2753.47776
   12     4.1000  -2753.47776
   13     4.2000  -2753.47776
   14     4.3000  -2753.47776
   15     4.4000  -2753.47776
   16     4.5000  -2753.47776
   17     4.6000  -2753.47776
   18     4.7000  -2753.47776
   19     4.8000  -2753.47776
   20     4.9000  -2753.47776
   21     5.0000  -2753.47776
 ----  ---------  -----------
  
 Leave Link  108 at Fri May  8 06:40:46 2020, MaxMem= 1073741824 cpu:       0.0
 (Enter /home/matheus/.gaussian/g09/l9999.exe)

 Test job not archived.
 1\1\GINC-REDGIANT\Scan\RLC-wPBE\Aug-CC-pVTZ\H2Kr1O2\MATHEUS\08-May-202
 0\1\\#p lc-wpbe/aug-cc-PVTz iop(3/107=0550000000) iop(3/108=0550000000
 ) int=ultrafine counterpoise=2 Scan\\TCC\\0,1\O,0,0.,0.,0.725\O,0,0.,0
 .,-0.725\H,0,-0.1595341571,0.9047631646,1.0235104166\H,0,0.,0.91872059
 47,-1.0235104166\Kr,0,0.,R1,0.\\R1=3.,s,20,0.1\\Version=EM64L-G09RevC.
 01\State=1-A\HF=-2753.4777599,-2753.4777599,-2753.4777599,-2753.477759
 9,-2753.4777599,-2753.4777599,-2753.4777599,-2753.4777599,-2753.477759
 9,-2753.4777599,-2753.4777599,-2753.4777599,-2753.4777599,-2753.477759
 9,-2753.4777599,-2753.4777599,-2753.4777599,-2753.4777599,-2753.477759
 9,-2753.4777599,-2753.4777599\RMSD=1.997e-09,5.419e-11,1.021e-11,4.445
 e-12,2.198e-12,1.232e-12,6.772e-13,3.838e-13,2.192e-13,1.190e-13,6.301
 e-14,3.307e-14,2.284e-14,3.702e-14,1.905e-14,1.449e-14,5.669e-15,1.378
 e-14,1.304e-14,9.589e-15,4.198e-15\PG=C01 [X(H2Kr1O2)]\\@


 IF AT FIRST YOU DON'T SUCCEED, TRY, TRY AGAIN.
 THEN GIVE UP;
 THERE'S NO USE BEING A DAMN FOOL ABOUT IT.

                                 -- W. C. FIELDS
 Job cpu time:  0 days  2 hours 53 minutes  4.9 seconds.
 File lengths (MBytes):  RWF=     33 Int=      0 D2E=      0 Chk=      8 Scr=      1
 Normal termination of Gaussian 09 at Fri May  8 06:40:46 2020.
