 Entering Gaussian System, Link 0=g09
 Input=/home/matheus/.tcc/Inputs-lc-wpbe/H2O2-Kr_2.com
 Output=/home/matheus/.tcc/Logs-lc-wpbe/H2O2-Kr_2.log
 Initial command:
 /home/matheus/.gaussian/g09/l1.exe /home/matheus/.gaussian/g09/scratch/Gau-4499.inp -scrdir=/home/matheus/.gaussian/g09/scratch/
 Entering Link 1 = /home/matheus/.gaussian/g09/l1.exe PID=      4505.
  
 Copyright (c) 1988,1990,1992,1993,1995,1998,2003,2009,2011,
            Gaussian, Inc.  All Rights Reserved.
  
 This is part of the Gaussian(R) 09 program.  It is based on
 the Gaussian(R) 03 system (copyright 2003, Gaussian, Inc.),
 the Gaussian(R) 98 system (copyright 1998, Gaussian, Inc.),
 the Gaussian(R) 94 system (copyright 1995, Gaussian, Inc.),
 the Gaussian 92(TM) system (copyright 1992, Gaussian, Inc.),
 the Gaussian 90(TM) system (copyright 1990, Gaussian, Inc.),
 the Gaussian 88(TM) system (copyright 1988, Gaussian, Inc.),
 the Gaussian 86(TM) system (copyright 1986, Carnegie Mellon
 University), and the Gaussian 82(TM) system (copyright 1983,
 Carnegie Mellon University). Gaussian is a federally registered
 trademark of Gaussian, Inc.
  
 This software contains proprietary and confidential information,
 including trade secrets, belonging to Gaussian, Inc.
  
 This software is provided under written license and may be
 used, copied, transmitted, or stored only in accord with that
 written license.
  
 The following legend is applicable only to US Government
 contracts under FAR:
  
                    RESTRICTED RIGHTS LEGEND
  
 Use, reproduction and disclosure by the US Government is
 subject to restrictions as set forth in subparagraphs (a)
 and (c) of the Commercial Computer Software - Restricted
 Rights clause in FAR 52.227-19.
  
 Gaussian, Inc.
 340 Quinnipiac St., Bldg. 40, Wallingford CT 06492
  
  
 ---------------------------------------------------------------
 Warning -- This program may not be used in any manner that
 competes with the business of Gaussian, Inc. or will provide
 assistance to any competitor of Gaussian, Inc.  The licensee
 of this program is prohibited from giving any competitor of
 Gaussian, Inc. access to this program.  By using this program,
 the user acknowledges that Gaussian, Inc. is engaged in the
 business of creating and licensing software in the field of
 computational chemistry and represents and warrants to the
 licensee that it is not a competitor of Gaussian, Inc. and that
 it will not use this program in any manner prohibited above.
 ---------------------------------------------------------------
  

 Cite this work as:
 Gaussian 09, Revision C.01,
 M. J. Frisch, G. W. Trucks, H. B. Schlegel, G. E. Scuseria, 
 M. A. Robb, J. R. Cheeseman, G. Scalmani, V. Barone, B. Mennucci, 
 G. A. Petersson, H. Nakatsuji, M. Caricato, X. Li, H. P. Hratchian, 
 A. F. Izmaylov, J. Bloino, G. Zheng, J. L. Sonnenberg, M. Hada, 
 M. Ehara, K. Toyota, R. Fukuda, J. Hasegawa, M. Ishida, T. Nakajima, 
 Y. Honda, O. Kitao, H. Nakai, T. Vreven, J. A. Montgomery, Jr., 
 J. E. Peralta, F. Ogliaro, M. Bearpark, J. J. Heyd, E. Brothers, 
 K. N. Kudin, V. N. Staroverov, T. Keith, R. Kobayashi, J. Normand, 
 K. Raghavachari, A. Rendell, J. C. Burant, S. S. Iyengar, J. Tomasi, 
 M. Cossi, N. Rega, J. M. Millam, M. Klene, J. E. Knox, J. B. Cross, 
 V. Bakken, C. Adamo, J. Jaramillo, R. Gomperts, R. E. Stratmann, 
 O. Yazyev, A. J. Austin, R. Cammi, C. Pomelli, J. W. Ochterski, 
 R. L. Martin, K. Morokuma, V. G. Zakrzewski, G. A. Voth, 
 P. Salvador, J. J. Dannenberg, S. Dapprich, A. D. Daniels, 
 O. Farkas, J. B. Foresman, J. V. Ortiz, J. Cioslowski, 
 and D. J. Fox, Gaussian, Inc., Wallingford CT, 2010.
 
 ******************************************
 Gaussian 09:  EM64L-G09RevC.01 23-Sep-2011
                 8-May-2020 
 ******************************************
 %mem=8GB
 %nproc=8
 Will use up to    8 processors via shared memory.
 ----------------------------------------------------------------------
 #p lc-wpbe/aug-cc-PVTz iop(3/107=0550000000) iop(3/108=0550000000) int
 =ultrafine counterpoise=2 Scan
 ----------------------------------------------------------------------
 1/38=1,60=1,62=2/1,8;
 2/12=2,17=6,18=5,29=3,40=1/2;
 1/38=1,53=5172,62=2/22;
 3/5=16,6=1,7=10,11=2,16=1,25=1,30=1,74=-41,75=-5,107=550000000,108=550000000/1,2,3;
 4//1;
 5/5=2,38=5/2;
 6/7=2,8=2,9=2,10=2,18=1,28=1/1;
 1/53=4052,62=2,63=1/22;
 3/5=7,6=11,7=10,11=2,16=1,25=1,30=1,74=-41,75=-5,82=7,107=550000000,108=550000000/1,2,3;
 4//1;
 5/5=2,38=5/2;
 6/7=2,8=2,9=2,10=2,18=1,28=1/1;
 1/53=3042,62=2,63=2/22;
 3/5=7,6=11,7=10,11=2,16=1,25=1,30=1,74=-41,75=-5,82=7,107=550000000,108=550000000/1,2,3;
 4//1;
 5/5=2,38=5/2;
 6/7=2,8=2,9=2,10=2,18=1,28=1/1;
 1/53=2032,62=2,63=3/22;
 3/5=7,6=11,7=10,11=2,16=1,25=1,30=1,74=-41,75=-5,82=7,107=550000000,108=550000000/1,2,3;
 4//1;
 5/5=2,38=5/2;
 6/7=2,8=2,9=2,10=2,18=1,28=1/1;
 1/53=1022,62=2,63=4/22;
 3/5=7,6=11,7=10,11=2,16=1,25=1,30=1,74=-41,75=-5,82=7,107=550000000,108=550000000/1,2,3;
 4//1;
 5/5=2,38=5/2;
 6/7=2,8=2,9=2,10=2,18=1,28=1/1;
 1/53=5014,62=2,63=5/22;
 1/60=1,62=2/8(1);
 99/9=1/99;
 2/29=3/2;
 1/53=5173,62=2/22;
 3/5=7,6=11,7=10,11=2,16=1,25=1,30=1,74=-41,75=-5,82=7,107=550000000,108=550000000/1,2,3;
 4/5=5,16=3/1;
 5/5=2,38=5/2;
 1/53=4053,62=2,63=1/22;
 3/5=7,6=11,7=10,11=2,16=1,25=1,30=1,74=-41,75=-5,82=7,107=550000000,108=550000000/1,2,3;
 4/5=5,16=3/1;
 5/5=2,38=5/2;
 1/53=3043,62=2,63=2/22;
 3/5=7,6=11,7=10,11=2,16=1,25=1,30=1,74=-41,75=-5,82=7,107=550000000,108=550000000/1,2,3;
 4/5=5,16=3/1;
 5/5=2,38=5/2;
 1/53=2033,62=2,63=3/22;
 3/5=7,6=11,7=10,11=2,16=1,25=1,30=1,74=-41,75=-5,82=7,107=550000000,108=550000000/1,2,3;
 4/5=5,16=3/1;
 5/5=2,38=5/2;
 1/53=1024,62=2,63=4/22;
 3/5=7,6=11,7=10,11=2,16=1,25=1,30=1,74=-41,75=-5,82=7,107=550000000,108=550000000/1,2,3;
 4/5=5,16=3/1;
 5/5=2,38=5/2;
 1/53=5014,62=2,63=5/22;
 1/60=1,62=2/8(-22);
 99/9=1/99;
 Leave Link    1 at Fri May  8 08:47:54 2020, MaxMem= 1073741824 cpu:       0.1
 (Enter /home/matheus/.gaussian/g09/l101.exe)
 ---
 TCC
 ---
 Charge =  0 Multiplicity = 1 in supermolecule
 Charge =  0 Multiplicity = 1 in fragment  1.
 Charge =  0 Multiplicity = 1 in fragment  2.
 Symbolic Z-Matrix:
 O(Fragment=1)         0.        0.        0.725 
 O(Fragment=1)         0.        0.       -0.725 
 H(Fragment=1)         0.31422   0.86331   1.02351 
 H(Fragment=1)         0.        0.91872  -1.02351 
 Kr(Fragment=2)        0.       R1        0. 
       Variables:
  R1                    3.     Scan 20    0.1    
 
 NAtoms=      5 NQM=        0 NQMF=       0 NMMI=      5 NMMIF=      0
                NMic=       0 NMicF=      0.
                    Isotopes and Nuclear Properties:
 (Nuclear quadrupole moments (NQMom) in fm**2, nuclear magnetic moments (NMagM)
  in nuclear magnetons)

  Atom         1           2           3           4           5
 IAtWgt=          16          16           1           1          84
 AtmWgt=  15.9949146  15.9949146   1.0078250   1.0078250  83.9115064
 NucSpn=           0           0           1           1           0
 AtZEff=   0.0000000   0.0000000   0.0000000   0.0000000   0.0000000
 NQMom=    0.0000000   0.0000000   0.0000000   0.0000000   0.0000000
 NMagM=    0.0000000   0.0000000   2.7928460   2.7928460   0.0000000
 Leave Link  101 at Fri May  8 08:47:54 2020, MaxMem= 1073741824 cpu:       0.4
 (Enter /home/matheus/.gaussian/g09/l108.exe)
 Scan the potential surface.
 Variable   Value     No. Steps Step-Size
 -------- ----------- --------- ---------
     1       3.000000      20      0.1000
 A total of     21 points will be computed.
 Leave Link  108 at Fri May  8 08:47:54 2020, MaxMem= 1073741824 cpu:       0.0
 (Enter /home/matheus/.gaussian/g09/l202.exe)
 ---------------------------------------------------------------------------------------------------
                            Z-MATRIX (ANGSTROMS AND DEGREES)
   CD    Cent   Atom    N1       Length/X        N2       Alpha/Y        N3        Beta/Z          J
 ---------------------------------------------------------------------------------------------------
      1      1  O        0   0.000000          0.000000          0.725000
      2      2  O        0   0.000000          0.000000         -0.725000
      3      3  H        0   0.314221          0.863315          1.023510
      4      4  H        0   0.000000          0.918721         -1.023510
      5      5  Kr       0   0.000000          3.000000          0.000000
 ---------------------------------------------------------------------------------------------------
                         Z-Matrix orientation:                         
 ---------------------------------------------------------------------
 Center     Atomic      Atomic             Coordinates (Angstroms)
 Number     Number       Type             X           Y           Z
 ---------------------------------------------------------------------
      1          8           0        0.000000    0.000000    0.725000
      2          8           0        0.000000    0.000000   -0.725000
      3          1           0        0.314221    0.863315    1.023510
      4          1           0        0.000000    0.918721   -1.023510
      5         36           0        0.000000    3.000000    0.000000
 ---------------------------------------------------------------------
                    Distance matrix (angstroms):
                    1          2          3          4          5
     1  O    0.000000
     2  O    1.450000   0.000000
     3  H    0.966000   1.975180   0.000000
     4  H    1.975180   0.966000   2.071738   0.000000
     5  Kr   3.086361   3.086361   2.389923   2.319331   0.000000
 Stoichiometry    H2KrO2
 Framework group  C1[X(H2KrO2)]
 Deg. of freedom     9
 Full point group                 C1      NOp   1
 Largest Abelian subgroup         C1      NOp   1
 Largest concise Abelian subgroup C1      NOp   1
                         Standard orientation:                         
 ---------------------------------------------------------------------
 Center     Atomic      Atomic             Coordinates (Angstroms)
 Number     Number       Type             X           Y           Z
 ---------------------------------------------------------------------
      1          8           0        2.033423   -0.722971   -0.035434
      2          8           0        2.032510    0.726339    0.009272
      3          1           0        1.171431   -1.031666    0.272517
      4          1           0        1.113607    1.024028    0.021759
      5         36           0       -0.967014   -0.000536   -0.002361
 ---------------------------------------------------------------------
 Rotational constants (GHZ):     26.5652681      2.3862430      2.1913165
 Leave Link  202 at Fri May  8 08:47:54 2020, MaxMem= 1073741824 cpu:       0.0
 (Enter /home/matheus/.gaussian/g09/l122.exe)
 Leave Link  122 at Fri May  8 08:47:54 2020, MaxMem= 1073741824 cpu:       0.0
 (Enter /home/matheus/.gaussian/g09/l301.exe)
 Standard basis: Aug-CC-pVTZ (5D, 7F)
 Ernie: Thresh=  0.10000D-02 Tol=  0.10000D-05 Strict=F.
 Ernie:  38 primitive shells out of 205 were deleted.
 There are   197 symmetry adapted basis functions of A   symmetry.
 Integral buffers will be    131072 words long.
 Raffenetti 2 integral format.
 Two-electron integral symmetry is turned on.
   197 basis functions,   415 primitive gaussians,   229 cartesian basis functions
    27 alpha electrons       27 beta electrons
       nuclear repulsion energy       151.6075768884 Hartrees.
 IExCor=32609 DFT=T Ex+Corr=LC-wPBE ExCW=0 ScaHFX=  1.000000
 ScaDFX=  1.000000  0.000000  1.000000  1.000000 ScalE2=  1.000000  1.000000
 IRadAn=      5 IRanWt=     -1 IRanGd=            0 ICorTp=0
  HFx wShort=  0.000000 wLong=  0.550000 cFull=  0.000000 cShort=  0.000000 cLong=  1.000000
  DFx wShort=  0.000000 wLong=  0.550000 cFull=  0.000000 cShort=  0.000000 cLong=  1.000000
 NAtoms=    5 NActive=    5 NUniq=    5 SFac= 1.00D+00 NAtFMM=   60 NAOKFM=F Big=F
 Leave Link  301 at Fri May  8 08:47:55 2020, MaxMem= 1073741824 cpu:       0.2
 (Enter /home/matheus/.gaussian/g09/l302.exe)
 NPDir=0 NMtPBC=     1 NCelOv=     1 NCel=       1 NClECP=     1 NCelD=      1
         NCelK=      1 NCelE2=     1 NClLst=     1 CellRange=     0.0.
 One-electron integrals computed using PRISM.
 NBasis=   197 RedAO= T  NBF=   197
 NBsUse=   197 1.00D-06 NBFU=   197
 Precomputing XC quadrature grid using
 IXCGrd= 2 IRadAn=           5 IRanWt=          -1 IRanGd=           0 AccXCQ= 0.00D+00.
 NRdTot=     427 NPtTot=      123512 NUsed=      126579 NTot=      126611
 NSgBfM=   229   229   229   229   229 NAtAll=     5     5.
 Leave Link  302 at Fri May  8 08:47:55 2020, MaxMem= 1073741824 cpu:       1.1
 (Enter /home/matheus/.gaussian/g09/l303.exe)
 DipDrv:  MaxL=1.
 Leave Link  303 at Fri May  8 08:47:55 2020, MaxMem= 1073741824 cpu:       0.2
 (Enter /home/matheus/.gaussian/g09/l401.exe)
 Harris functional with IExCor=32609 diagonalized for initial guess.
 ExpMin= 2.53D-02 ExpMax= 1.17D+07 ExpMxC= 1.33D+04 IAcc=3 IRadAn=         5 AccDes= 0.00D+00
 HarFok:  IExCor=32609 AccDes= 0.00D+00 IRadAn=         5 IDoV= 1
 ScaDFX=  1.000000  1.000000  1.000000  1.000000
 FoFCou: FMM=F IPFlag=           0 FMFlag=      100000 FMFlg1=           0
         NFxFlg=           0 DoJE=T BraDBF=F KetDBF=T FulRan=T
         Omega=  0.000000  0.000000  1.000000  0.000000  0.000000 ICntrl=     500 IOpCl=  0
         NMat0=    1 NMatS0=    1 NMatT0=    0 NMatD0=    1 NMtDS0=    0 NMtDT0=    0
         I1Cent=           4 NGrid=           0.
 Petite list used in FoFCou.
 Harris En= -2904.73051641144    
 Initial guess orbital symmetries:
       Occupied  (A) (A) (A) (A) (A) (A) (A) (A) (A) (A) (A) (A)
                 (A) (A) (A) (A) (A) (A) (A) (A) (A) (A) (A) (A)
                 (A) (A) (A)
       Virtual   (A) (A) (A) (A) (A) (A) (A) (A) (A) (A) (A) (A)
                 (A) (A) (A) (A) (A) (A) (A) (A) (A) (A) (A) (A)
                 (A) (A) (A) (A) (A) (A) (A) (A) (A) (A) (A) (A)
                 (A) (A) (A) (A) (A) (A) (A) (A) (A) (A) (A) (A)
                 (A) (A) (A) (A) (A) (A) (A) (A) (A) (A) (A) (A)
                 (A) (A) (A) (A) (A) (A) (A) (A) (A) (A) (A) (A)
                 (A) (A) (A) (A) (A) (A) (A) (A) (A) (A) (A) (A)
                 (A) (A) (A) (A) (A) (A) (A) (A) (A) (A) (A) (A)
                 (A) (A) (A) (A) (A) (A) (A) (A) (A) (A) (A) (A)
                 (A) (A) (A) (A) (A) (A) (A) (A) (A) (A) (A) (A)
                 (A) (A) (A) (A) (A) (A) (A) (A) (A) (A) (A) (A)
                 (A) (A) (A) (A) (A) (A) (A) (A) (A) (A) (A) (A)
                 (A) (A) (A) (A) (A) (A) (A) (A) (A) (A) (A) (A)
                 (A) (A) (A) (A) (A) (A) (A) (A) (A) (A) (A) (A)
                 (A) (A)
 The electronic state of the initial guess is 1-A.
 Leave Link  401 at Fri May  8 08:47:55 2020, MaxMem= 1073741824 cpu:       4.8
 (Enter /home/matheus/.gaussian/g09/l502.exe)
 Closed shell SCF:
 Requested convergence on RMS density matrix=1.00D-08 within 128 cycles.
 Requested convergence on MAX density matrix=1.00D-06.
 Requested convergence on             energy=1.00D-06.
 No special actions if energy rises.
 Using DIIS extrapolation, IDIIS=  1040.
 Integral symmetry usage will be decided dynamically.
       126521 words used for storage of precomputed grid.
 IEnd=      305468 IEndB=      305468 NGot=  1073741824 MDV=  1073505667
 LenX=  1073505667 LenY=  1073452785
 Fock matrices will be formed incrementally for  20 cycles.

 Cycle   1  Pass 1  IDiag  1:
 FoFJK:  IHMeth= 1 ICntrl=     0 DoSepK=T KAlg= 1 I1Cent= 0 FoldK=F
 FoFCou: FMM=F IPFlag=           0 FMFlag=      100000 FMFlg1=           0
         NFxFlg=           0 DoJE=T BraDBF=F KetDBF=F FulRan=T
         Omega=  0.000000  0.000000  1.000000  0.000000  0.000000 ICntrl=     500 IOpCl=  0
         NMat0=    1 NMatS0=    1 NMatT0=    0 NMatD0=    1 NMtDS0=    0 NMtDT0=    0
         I1Cent=           0 NGrid=           0.
 Symmetry not used in FoFCou.
 E= -2904.91936066625    
 DIIS: error= 3.10D-02 at cycle   1 NSaved=   1.
 NSaved= 1 IEnMin= 1 EnMin= -2904.91936066625     IErMin= 1 ErrMin= 3.10D-02
 ErrMax= 3.10D-02 EMaxC= 1.00D-01 BMatC= 2.76D-01 BMatP= 2.76D-01
 IDIUse=3 WtCom= 6.90D-01 WtEn= 3.10D-01
 Coeff-Com:  0.100D+01
 Coeff-En:   0.100D+01
 Coeff:      0.100D+01
 Gap=     0.540 Goal=   None    Shift=    0.000
 GapD=    0.540 DampG=2.000 DampE=0.500 DampFc=1.0000 IDamp=-1.
 RMSDP=2.33D-03 MaxDP=1.49D-01              OVMax= 7.56D-02

 Cycle   2  Pass 1  IDiag  1:
 RMSU=  1.62D-03    CP:  1.02D+00
 FoFJK:  IHMeth= 1 ICntrl=     0 DoSepK=T KAlg= 1 I1Cent= 0 FoldK=F
 E= -2904.97164589265     Delta-E=       -0.052285226397 Rises=F Damp=F
 DIIS: error= 1.19D-02 at cycle   2 NSaved=   2.
 NSaved= 2 IEnMin= 2 EnMin= -2904.97164589265     IErMin= 2 ErrMin= 1.19D-02
 ErrMax= 1.19D-02 EMaxC= 1.00D-01 BMatC= 7.38D-02 BMatP= 2.76D-01
 IDIUse=3 WtCom= 8.81D-01 WtEn= 1.19D-01
 Coeff-Com:  0.333D+00 0.667D+00
 Coeff-En:   0.117D+00 0.883D+00
 Coeff:      0.308D+00 0.692D+00
 Gap=     0.468 Goal=   None    Shift=    0.000
 RMSDP=9.58D-04 MaxDP=5.21D-02 DE=-5.23D-02 OVMax= 3.06D-02

 Cycle   3  Pass 1  IDiag  1:
 RMSU=  3.24D-04    CP:  1.01D+00  6.43D-01
 FoFJK:  IHMeth= 1 ICntrl=     0 DoSepK=T KAlg= 1 I1Cent= 0 FoldK=F
 E= -2904.99760222054     Delta-E=       -0.025956327892 Rises=F Damp=F
 DIIS: error= 1.86D-03 at cycle   3 NSaved=   3.
 NSaved= 3 IEnMin= 3 EnMin= -2904.99760222054     IErMin= 3 ErrMin= 1.86D-03
 ErrMax= 1.86D-03 EMaxC= 1.00D-01 BMatC= 1.54D-03 BMatP= 7.38D-02
 IDIUse=3 WtCom= 9.81D-01 WtEn= 1.86D-02
 Coeff-Com:  0.450D-01 0.174D+00 0.781D+00
 Coeff-En:   0.000D+00 0.000D+00 0.100D+01
 Coeff:      0.442D-01 0.171D+00 0.785D+00
 Gap=     0.449 Goal=   None    Shift=    0.000
 RMSDP=1.09D-04 MaxDP=2.74D-03 DE=-2.60D-02 OVMax= 6.53D-03

 Cycle   4  Pass 1  IDiag  1:
 RMSU=  5.33D-05    CP:  1.01D+00  6.72D-01  9.15D-01
 FoFJK:  IHMeth= 1 ICntrl=     0 DoSepK=T KAlg= 1 I1Cent= 0 FoldK=F
 E= -2904.99839695431     Delta-E=       -0.000794733770 Rises=F Damp=F
 DIIS: error= 5.03D-04 at cycle   4 NSaved=   4.
 NSaved= 4 IEnMin= 4 EnMin= -2904.99839695431     IErMin= 4 ErrMin= 5.03D-04
 ErrMax= 5.03D-04 EMaxC= 1.00D-01 BMatC= 9.58D-05 BMatP= 1.54D-03
 IDIUse=3 WtCom= 9.95D-01 WtEn= 5.03D-03
 Coeff-Com: -0.673D-02 0.162D-01 0.260D+00 0.731D+00
 Coeff-En:   0.000D+00 0.000D+00 0.000D+00 0.100D+01
 Coeff:     -0.670D-02 0.161D-01 0.258D+00 0.732D+00
 Gap=     0.454 Goal=   None    Shift=    0.000
 RMSDP=3.55D-05 MaxDP=1.57D-03 DE=-7.95D-04 OVMax= 1.80D-03

 Cycle   5  Pass 1  IDiag  1:
 RMSU=  1.27D-05    CP:  1.01D+00  6.75D-01  9.74D-01  8.38D-01
 FoFJK:  IHMeth= 1 ICntrl=     0 DoSepK=T KAlg= 1 I1Cent= 0 FoldK=F
 E= -2904.99845526858     Delta-E=       -0.000058314266 Rises=F Damp=F
 DIIS: error= 9.18D-05 at cycle   5 NSaved=   5.
 NSaved= 5 IEnMin= 5 EnMin= -2904.99845526858     IErMin= 5 ErrMin= 9.18D-05
 ErrMax= 9.18D-05 EMaxC= 1.00D-01 BMatC= 1.62D-06 BMatP= 9.58D-05
 IDIUse=1 WtCom= 1.00D+00 WtEn= 0.00D+00
 Coeff-Com: -0.176D-02-0.611D-02-0.234D-01 0.423D-01 0.989D+00
 Coeff:     -0.176D-02-0.611D-02-0.234D-01 0.423D-01 0.989D+00
 Gap=     0.454 Goal=   None    Shift=    0.000
 RMSDP=6.68D-06 MaxDP=2.38D-04 DE=-5.83D-05 OVMax= 5.08D-04

 Cycle   6  Pass 1  IDiag  1:
 RMSU=  2.72D-06    CP:  1.01D+00  6.75D-01  9.78D-01  8.92D-01  1.17D+00
 FoFJK:  IHMeth= 1 ICntrl=     0 DoSepK=T KAlg= 1 I1Cent= 0 FoldK=F
 E= -2904.99845716295     Delta-E=       -0.000001894378 Rises=F Damp=F
 DIIS: error= 2.65D-05 at cycle   6 NSaved=   6.
 NSaved= 6 IEnMin= 6 EnMin= -2904.99845716295     IErMin= 6 ErrMin= 2.65D-05
 ErrMax= 2.65D-05 EMaxC= 1.00D-01 BMatC= 1.28D-07 BMatP= 1.62D-06
 IDIUse=1 WtCom= 1.00D+00 WtEn= 0.00D+00
 Coeff-Com:  0.403D-04-0.222D-02-0.199D-01-0.342D-01 0.141D+00 0.915D+00
 Coeff:      0.403D-04-0.222D-02-0.199D-01-0.342D-01 0.141D+00 0.915D+00
 Gap=     0.454 Goal=   None    Shift=    0.000
 RMSDP=2.57D-06 MaxDP=1.06D-04 DE=-1.89D-06 OVMax= 1.93D-04

 Cycle   7  Pass 1  IDiag  1:
 RMSU=  1.00D-06    CP:  1.01D+00  6.75D-01  9.80D-01  9.02D-01  1.26D+00
                    CP:  1.12D+00
 FoFJK:  IHMeth= 1 ICntrl=     0 DoSepK=T KAlg= 1 I1Cent= 0 FoldK=F
 E= -2904.99845734017     Delta-E=       -0.000000177213 Rises=F Damp=F
 DIIS: error= 1.28D-05 at cycle   7 NSaved=   7.
 NSaved= 7 IEnMin= 7 EnMin= -2904.99845734017     IErMin= 7 ErrMin= 1.28D-05
 ErrMax= 1.28D-05 EMaxC= 1.00D-01 BMatC= 4.84D-08 BMatP= 1.28D-07
 IDIUse=1 WtCom= 1.00D+00 WtEn= 0.00D+00
 Coeff-Com:  0.117D-03-0.626D-03-0.732D-02-0.175D-01-0.139D-02 0.416D+00
 Coeff-Com:  0.611D+00
 Coeff:      0.117D-03-0.626D-03-0.732D-02-0.175D-01-0.139D-02 0.416D+00
 Coeff:      0.611D+00
 Gap=     0.454 Goal=   None    Shift=    0.000
 RMSDP=7.74D-07 MaxDP=3.67D-05 DE=-1.77D-07 OVMax= 6.04D-05

 Cycle   8  Pass 1  IDiag  1:
 RMSU=  4.35D-07    CP:  1.01D+00  6.74D-01  9.81D-01  9.04D-01  1.27D+00
                    CP:  1.19D+00  9.68D-01
 FoFJK:  IHMeth= 1 ICntrl=     0 DoSepK=T KAlg= 1 I1Cent= 0 FoldK=F
 E= -2904.99845738085     Delta-E=       -0.000000040678 Rises=F Damp=F
 DIIS: error= 6.47D-06 at cycle   8 NSaved=   8.
 NSaved= 8 IEnMin= 8 EnMin= -2904.99845738085     IErMin= 8 ErrMin= 6.47D-06
 ErrMax= 6.47D-06 EMaxC= 1.00D-01 BMatC= 3.77D-09 BMatP= 4.84D-08
 IDIUse=1 WtCom= 1.00D+00 WtEn= 0.00D+00
 Coeff-Com:  0.542D-05 0.467D-03 0.399D-02 0.613D-02-0.342D-01-0.177D+00
 Coeff-Com:  0.654D-01 0.114D+01
 Coeff:      0.542D-05 0.467D-03 0.399D-02 0.613D-02-0.342D-01-0.177D+00
 Coeff:      0.654D-01 0.114D+01
 Gap=     0.454 Goal=   None    Shift=    0.000
 RMSDP=6.05D-07 MaxDP=2.03D-05 DE=-4.07D-08 OVMax= 6.17D-05

 Cycle   9  Pass 1  IDiag  1:
 RMSU=  1.20D-07    CP:  1.01D+00  6.74D-01  9.82D-01  9.05D-01  1.28D+00
                    CP:  1.21D+00  1.24D+00  1.41D+00
 FoFJK:  IHMeth= 1 ICntrl=     0 DoSepK=T KAlg= 1 I1Cent= 0 FoldK=F
 E= -2904.99845738990     Delta-E=       -0.000000009051 Rises=F Damp=F
 DIIS: error= 1.95D-06 at cycle   9 NSaved=   9.
 NSaved= 9 IEnMin= 9 EnMin= -2904.99845738990     IErMin= 9 ErrMin= 1.95D-06
 ErrMax= 1.95D-06 EMaxC= 1.00D-01 BMatC= 1.47D-10 BMatP= 3.77D-09
 IDIUse=1 WtCom= 1.00D+00 WtEn= 0.00D+00
 Coeff-Com: -0.794D-05-0.226D-04-0.990D-04 0.861D-04 0.506D-02 0.114D-02
 Coeff-Com: -0.472D-01-0.167D+00 0.121D+01
 Coeff:     -0.794D-05-0.226D-04-0.990D-04 0.861D-04 0.506D-02 0.114D-02
 Coeff:     -0.472D-01-0.167D+00 0.121D+01
 Gap=     0.454 Goal=   None    Shift=    0.000
 RMSDP=1.75D-07 MaxDP=6.72D-06 DE=-9.05D-09 OVMax= 1.85D-05

 Cycle  10  Pass 1  IDiag  1:
 RMSU=  3.62D-08    CP:  1.01D+00  6.74D-01  9.82D-01  9.05D-01  1.29D+00
                    CP:  1.21D+00  1.29D+00  1.56D+00  1.40D+00
 FoFJK:  IHMeth= 1 ICntrl=     0 DoSepK=T KAlg= 1 I1Cent= 0 FoldK=F
 E= -2904.99845739044     Delta-E=       -0.000000000540 Rises=F Damp=F
 DIIS: error= 5.22D-07 at cycle  10 NSaved=  10.
 NSaved=10 IEnMin=10 EnMin= -2904.99845739044     IErMin=10 ErrMin= 5.22D-07
 ErrMax= 5.22D-07 EMaxC= 1.00D-01 BMatC= 1.52D-11 BMatP= 1.47D-10
 IDIUse=1 WtCom= 1.00D+00 WtEn= 0.00D+00
 Coeff-Com: -0.819D-06-0.436D-04-0.360D-03-0.639D-03 0.323D-02 0.184D-01
 Coeff-Com: -0.863D-02-0.123D+00 0.900D-01 0.102D+01
 Coeff:     -0.819D-06-0.436D-04-0.360D-03-0.639D-03 0.323D-02 0.184D-01
 Coeff:     -0.863D-02-0.123D+00 0.900D-01 0.102D+01
 Gap=     0.454 Goal=   None    Shift=    0.000
 RMSDP=4.44D-08 MaxDP=1.59D-06 DE=-5.40D-10 OVMax= 4.93D-06

 Cycle  11  Pass 1  IDiag  1:
 RMSU=  1.01D-08    CP:  1.01D+00  6.74D-01  9.82D-01  9.05D-01  1.29D+00
                    CP:  1.21D+00  1.30D+00  1.59D+00  1.54D+00  1.20D+00
 FoFJK:  IHMeth= 1 ICntrl=     0 DoSepK=T KAlg= 1 I1Cent= 0 FoldK=F
 E= -2904.99845739048     Delta-E=       -0.000000000046 Rises=F Damp=F
 DIIS: error= 1.00D-07 at cycle  11 NSaved=  11.
 NSaved=11 IEnMin=11 EnMin= -2904.99845739048     IErMin=11 ErrMin= 1.00D-07
 ErrMax= 1.00D-07 EMaxC= 1.00D-01 BMatC= 9.92D-13 BMatP= 1.52D-11
 IDIUse=1 WtCom= 1.00D+00 WtEn= 0.00D+00
 Coeff-Com:  0.696D-06 0.553D-05 0.442D-04 0.282D-04-0.788D-03-0.791D-03
 Coeff-Com:  0.477D-02 0.204D-01-0.105D+00-0.106D+00 0.119D+01
 Coeff:      0.696D-06 0.553D-05 0.442D-04 0.282D-04-0.788D-03-0.791D-03
 Coeff:      0.477D-02 0.204D-01-0.105D+00-0.106D+00 0.119D+01
 Gap=     0.454 Goal=   None    Shift=    0.000
 RMSDP=1.09D-08 MaxDP=1.97D-07 DE=-4.64D-11 OVMax= 1.31D-06

 Cycle  12  Pass 1  IDiag  1:
 RMSU=  2.47D-09    CP:  1.01D+00  6.74D-01  9.82D-01  9.05D-01  1.29D+00
                    CP:  1.21D+00  1.30D+00  1.60D+00  1.56D+00  1.32D+00
                    CP:  1.34D+00
 FoFJK:  IHMeth= 1 ICntrl=     0 DoSepK=T KAlg= 1 I1Cent= 0 FoldK=F
 E= -2904.99845739050     Delta-E=       -0.000000000013 Rises=F Damp=F
 DIIS: error= 1.74D-08 at cycle  12 NSaved=  12.
 NSaved=12 IEnMin=12 EnMin= -2904.99845739050     IErMin=12 ErrMin= 1.74D-08
 ErrMax= 1.74D-08 EMaxC= 1.00D-01 BMatC= 3.91D-14 BMatP= 9.92D-13
 IDIUse=1 WtCom= 1.00D+00 WtEn= 0.00D+00
 Coeff-Com:  0.409D-08 0.208D-05 0.167D-04 0.330D-04-0.186D-03-0.765D-03
 Coeff-Com:  0.443D-03 0.545D-02 0.212D-03-0.412D-01-0.182D-01 0.105D+01
 Coeff:      0.409D-08 0.208D-05 0.167D-04 0.330D-04-0.186D-03-0.765D-03
 Coeff:      0.443D-03 0.545D-02 0.212D-03-0.412D-01-0.182D-01 0.105D+01
 Gap=     0.454 Goal=   None    Shift=    0.000
 RMSDP=1.83D-09 MaxDP=6.91D-08 DE=-1.27D-11 OVMax= 1.18D-07

 SCF Done:  E(RLC-wPBE) =  -2904.99845739     A.U. after   12 cycles
             Convg  =    0.1833D-08             -V/T =  2.0017
 KE= 2.900057537079D+03 PE=-7.239253028781D+03 EE= 1.282589457423D+03
 Leave Link  502 at Fri May  8 08:48:39 2020, MaxMem= 1073741824 cpu:     346.2
 (Enter /home/matheus/.gaussian/g09/l601.exe)
 Copying SCF densities to generalized density rwf, IOpCl= 0 IROHF=0.

 **********************************************************************

            Population analysis using the SCF density.

 **********************************************************************

 Orbital symmetries:
       Occupied  (A) (A) (A) (A) (A) (A) (A) (A) (A) (A) (A) (A)
                 (A) (A) (A) (A) (A) (A) (A) (A) (A) (A) (A) (A)
                 (A) (A) (A)
       Virtual   (A) (A) (A) (A) (A) (A) (A) (A) (A) (A) (A) (A)
                 (A) (A) (A) (A) (A) (A) (A) (A) (A) (A) (A) (A)
                 (A) (A) (A) (A) (A) (A) (A) (A) (A) (A) (A) (A)
                 (A) (A) (A) (A) (A) (A) (A) (A) (A) (A) (A) (A)
                 (A) (A) (A) (A) (A) (A) (A) (A) (A) (A) (A) (A)
                 (A) (A) (A) (A) (A) (A) (A) (A) (A) (A) (A) (A)
                 (A) (A) (A) (A) (A) (A) (A) (A) (A) (A) (A) (A)
                 (A) (A) (A) (A) (A) (A) (A) (A) (A) (A) (A) (A)
                 (A) (A) (A) (A) (A) (A) (A) (A) (A) (A) (A) (A)
                 (A) (A) (A) (A) (A) (A) (A) (A) (A) (A) (A) (A)
                 (A) (A) (A) (A) (A) (A) (A) (A) (A) (A) (A) (A)
                 (A) (A) (A) (A) (A) (A) (A) (A) (A) (A) (A) (A)
                 (A) (A) (A) (A) (A) (A) (A) (A) (A) (A) (A) (A)
                 (A) (A) (A) (A) (A) (A) (A) (A) (A) (A) (A) (A)
                 (A) (A)
 The electronic state is 1-A.
 Alpha  occ. eigenvalues -- -511.22536 -66.77361 -60.43478 -60.43469 -60.43456
 Alpha  occ. eigenvalues --  -19.10893 -19.10820  -9.70923  -7.45207  -7.45176
 Alpha  occ. eigenvalues --   -7.45140  -3.39612  -3.39609  -3.39581  -3.39558
 Alpha  occ. eigenvalues --   -3.39554  -1.32176  -1.13043  -1.09153  -0.74709
 Alpha  occ. eigenvalues --   -0.59774  -0.58997  -0.57318  -0.56266  -0.55347
 Alpha  occ. eigenvalues --   -0.52481  -0.42005
 Alpha virt. eigenvalues --    0.03365   0.04383   0.08278   0.09077   0.10775
 Alpha virt. eigenvalues --    0.12269   0.13031   0.16210   0.17465   0.18374
 Alpha virt. eigenvalues --    0.18628   0.19597   0.21292   0.22156   0.23905
 Alpha virt. eigenvalues --    0.24483   0.25126   0.27380   0.31291   0.34484
 Alpha virt. eigenvalues --    0.35273   0.37402   0.39155   0.39346   0.40614
 Alpha virt. eigenvalues --    0.43779   0.46111   0.49635   0.53604   0.55076
 Alpha virt. eigenvalues --    0.60386   0.62774   0.63066   0.65193   0.66787
 Alpha virt. eigenvalues --    0.70620   0.71242   0.73870   0.74797   0.76418
 Alpha virt. eigenvalues --    0.77274   0.79194   0.82422   0.84422   0.87590
 Alpha virt. eigenvalues --    0.88132   0.88808   0.90504   0.91212   0.93553
 Alpha virt. eigenvalues --    0.95741   0.97509   0.98840   1.00942   1.02266
 Alpha virt. eigenvalues --    1.05771   1.06551   1.08376   1.10913   1.12638
 Alpha virt. eigenvalues --    1.15627   1.21007   1.24495   1.27622   1.29203
 Alpha virt. eigenvalues --    1.33644   1.35136   1.41087   1.42132   1.48965
 Alpha virt. eigenvalues --    1.51509   1.55326   1.57016   1.58150   1.61131
 Alpha virt. eigenvalues --    1.65093   1.69750   1.85120   1.93228   1.97662
 Alpha virt. eigenvalues --    2.01392   2.08002   2.11376   2.16348   2.17069
 Alpha virt. eigenvalues --    2.20353   2.24282   2.25099   2.25700   2.32420
 Alpha virt. eigenvalues --    2.33974   2.35476   2.36603   2.37725   2.39373
 Alpha virt. eigenvalues --    2.42053   2.43916   2.46679   2.51583   2.52356
 Alpha virt. eigenvalues --    2.54272   2.54419   2.60828   2.62339   2.64033
 Alpha virt. eigenvalues --    2.67236   2.70690   2.71867   2.74986   2.76613
 Alpha virt. eigenvalues --    2.77563   2.81330   2.84668   2.93080   2.93599
 Alpha virt. eigenvalues --    2.98530   3.12471   3.16496   3.18235   3.60254
 Alpha virt. eigenvalues --    3.77489   3.91362   4.02131   4.06078   4.13319
 Alpha virt. eigenvalues --    4.18970   4.19680   4.23368   4.24863   4.28431
 Alpha virt. eigenvalues --    4.44668   4.53808   4.59906   4.72430   4.76015
 Alpha virt. eigenvalues --    5.01661   5.05138   5.08583   5.13352   5.15914
 Alpha virt. eigenvalues --    5.19792   5.55507   5.86530   6.06852   6.09470
 Alpha virt. eigenvalues --    6.17190   6.40067   6.42270   6.52606   6.62070
 Alpha virt. eigenvalues --    6.73617   6.75686   6.81826   6.85629   6.87514
 Alpha virt. eigenvalues --    6.90424   6.93050   6.94115   6.96624   7.14351
 Alpha virt. eigenvalues --    7.20692   7.21276   7.30785   7.37504   7.63605
 Alpha virt. eigenvalues --    8.01621   8.06268   8.21606  13.81014  14.69393
          Condensed to atoms (all electrons):
              1          2          3          4          5
     1  O    8.264235  -0.243275   0.173576   0.034619  -0.018987
     2  O   -0.243275   8.254556   0.038436   0.183622  -0.013029
     3  H    0.173576   0.038436   0.610828  -0.019912  -0.011606
     4  H    0.034619   0.183622  -0.019912   0.604801  -0.019332
     5  Kr  -0.018987  -0.013029  -0.011606  -0.019332  36.057357
 Mulliken atomic charges:
              1
     1  O   -0.210168
     2  O   -0.220310
     3  H    0.208678
     4  H    0.216202
     5  Kr   0.005598
 Sum of Mulliken atomic charges =   0.00000
 Mulliken charges with hydrogens summed into heavy atoms:
              1
     1  O   -0.001490
     2  O   -0.004108
     5  Kr   0.005598
 Sum of Mulliken charges with hydrogens summed into heavy atoms =   0.00000
          Condensed to fragments (all electrons):
     1      -0.005598
     2       0.005598
 Electronic spatial extent (au):  <R**2>=            475.6054
 Charge=              0.0000 electrons
 Dipole moment (field-independent basis, Debye):
    X=             -3.6716    Y=             -0.0463    Z=              0.4629  Tot=              3.7010
 Quadrupole moment (field-independent basis, Debye-Ang):
   XX=            -38.7704   YY=            -27.9748   ZZ=            -30.1767
   XY=             -0.1388   XZ=              0.5340   YZ=             -0.6179
 Traceless Quadrupole moment (field-independent basis, Debye-Ang):
   XX=             -6.4631   YY=              4.3325   ZZ=              2.1306
   XY=             -0.1388   XZ=              0.5340   YZ=             -0.6179
 Octapole moment (field-independent basis, Debye-Ang**2):
  XXX=            -45.4785  YYY=             -0.1123  ZZZ=              0.0230  XYY=             -8.0793
  XXY=             -0.3204  XXZ=              0.0179  XZZ=             -8.6983  YZZ=             -0.2200
  YYZ=              0.7142  XYZ=             -0.6994
 Hexadecapole moment (field-independent basis, Debye-Ang**3):
 XXXX=           -455.8206 YYYY=            -62.5865 ZZZZ=            -28.6103 XXXY=             -0.3249
 XXXZ=             -0.8484 YYYX=             -0.2598 YYYZ=             -0.8511 ZZZX=              0.2319
 ZZZY=             -0.3637 XXYY=            -86.1316 XXZZ=            -75.7496 YYZZ=            -16.9632
 XXYZ=             -0.7602 YYXZ=              0.8348 ZZXY=             -0.2856
 N-N= 1.516075768884D+02 E-N=-7.239253028794D+03  KE= 2.900057537079D+03
 No NMR shielding tensors so no spin-rotation constants.
 Leave Link  601 at Fri May  8 08:48:39 2020, MaxMem= 1073741824 cpu:       0.8
 (Enter /home/matheus/.gaussian/g09/l122.exe)
 Counterpoise: doing DCBS calculation for fragment   1 NewBq=T
 Leave Link  122 at Fri May  8 08:48:39 2020, MaxMem= 1073741824 cpu:       0.0
 (Enter /home/matheus/.gaussian/g09/l301.exe)
 Basis read from rwf:  (5D, 7F)
 No pseudopotential information found on rwf file.
 There are   197 symmetry adapted basis functions of A   symmetry.
 Integral buffers will be    131072 words long.
 Raffenetti 2 integral format.
 Two-electron integral symmetry is turned on.
   197 basis functions,   415 primitive gaussians,   229 cartesian basis functions
     9 alpha electrons        9 beta electrons
       nuclear repulsion energy        36.6636681782 Hartrees.
 IExCor=32609 DFT=T Ex+Corr=LC-wPBE ExCW=0 ScaHFX=  1.000000
 ScaDFX=  1.000000  0.000000  1.000000  1.000000 ScalE2=  1.000000  1.000000
 IRadAn=      5 IRanWt=     -1 IRanGd=            0 ICorTp=0
  HFx wShort=  0.000000 wLong=  0.550000 cFull=  0.000000 cShort=  0.000000 cLong=  1.000000
  DFx wShort=  0.000000 wLong=  0.550000 cFull=  0.000000 cShort=  0.000000 cLong=  1.000000
 NAtoms=    5 NActive=    5 NUniq=    5 SFac= 1.00D+00 NAtFMM=   60 NAOKFM=F Big=F
 No density basis found on file   718.
 Leave Link  301 at Fri May  8 08:48:39 2020, MaxMem= 1073741824 cpu:       0.2
 (Enter /home/matheus/.gaussian/g09/l302.exe)
 NPDir=0 NMtPBC=     1 NCelOv=     1 NCel=       1 NClECP=     1 NCelD=      1
         NCelK=      1 NCelE2=     1 NClLst=     1 CellRange=     0.0.
 One-electron integrals computed using PRISM.
 NBasis=   197 RedAO= T  NBF=   197
 NBsUse=   197 1.00D-06 NBFU=   197
 Precomputing XC quadrature grid using
 IXCGrd= 2 IRadAn=           5 IRanWt=          -1 IRanGd=           0 AccXCQ= 0.00D+00.
 NRdTot=     427 NPtTot=      123512 NUsed=      126579 NTot=      126611
 NSgBfM=   229   229   229   229   229 NAtAll=     5     5.
 Leave Link  302 at Fri May  8 08:48:39 2020, MaxMem= 1073741824 cpu:       1.0
 (Enter /home/matheus/.gaussian/g09/l303.exe)
 DipDrv:  MaxL=1.
 Leave Link  303 at Fri May  8 08:48:39 2020, MaxMem= 1073741824 cpu:       0.2
 (Enter /home/matheus/.gaussian/g09/l401.exe)
 Harris functional with IExCor=32609 diagonalized for initial guess.
 ExpMin= 2.53D-02 ExpMax= 1.17D+07 ExpMxC= 1.33D+04 IAcc=3 IRadAn=         5 AccDes= 0.00D+00
 HarFok:  IExCor=32609 AccDes= 0.00D+00 IRadAn=         5 IDoV= 1
 ScaDFX=  1.000000  1.000000  1.000000  1.000000
 FoFCou: FMM=F IPFlag=           0 FMFlag=      100000 FMFlg1=           0
         NFxFlg=           0 DoJE=T BraDBF=F KetDBF=T FulRan=T
         Omega=  0.000000  0.000000  1.000000  0.000000  0.000000 ICntrl=     500 IOpCl=  0
         NMat0=    1 NMatS0=    1 NMatT0=    0 NMatD0=    1 NMtDS0=    0 NMtDT0=    0
         I1Cent=           4 NGrid=           0.
 Petite list used in FoFCou.
 Harris En= -151.499062313106    
 Initial guess orbital symmetries:
       Occupied  (A) (A) (A) (A) (A) (A) (A) (A) (A)
       Virtual   (A) (A) (A) (A) (A) (A) (A) (A) (A) (A) (A) (A)
                 (A) (A) (A) (A) (A) (A) (A) (A) (A) (A) (A) (A)
                 (A) (A) (A) (A) (A) (A) (A) (A) (A) (A) (A) (A)
                 (A) (A) (A) (A) (A) (A) (A) (A) (A) (A) (A) (A)
                 (A) (A) (A) (A) (A) (A) (A) (A) (A) (A) (A) (A)
                 (A) (A) (A) (A) (A) (A) (A) (A) (A) (A) (A) (A)
                 (A) (A) (A) (A) (A) (A) (A) (A) (A) (A) (A) (A)
                 (A) (A) (A) (A) (A) (A) (A) (A) (A) (A) (A) (A)
                 (A) (A) (A) (A) (A) (A) (A) (A) (A) (A) (A) (A)
                 (A) (A) (A) (A) (A) (A) (A) (A) (A) (A) (A) (A)
                 (A) (A) (A) (A) (A) (A) (A) (A) (A) (A) (A) (A)
                 (A) (A) (A) (A) (A) (A) (A) (A) (A) (A) (A) (A)
                 (A) (A) (A) (A) (A) (A) (A) (A) (A) (A) (A) (A)
                 (A) (A) (A) (A) (A) (A) (A) (A) (A) (A) (A) (A)
                 (A) (A) (A) (A) (A) (A) (A) (A) (A) (A) (A) (A)
                 (A) (A) (A) (A) (A) (A) (A) (A)
 The electronic state of the initial guess is 1-A.
 Leave Link  401 at Fri May  8 08:48:40 2020, MaxMem= 1073741824 cpu:       4.3
 (Enter /home/matheus/.gaussian/g09/l502.exe)
 Closed shell SCF:
 Requested convergence on RMS density matrix=1.00D-08 within 128 cycles.
 Requested convergence on MAX density matrix=1.00D-06.
 Requested convergence on             energy=1.00D-06.
 No special actions if energy rises.
 Using DIIS extrapolation, IDIIS=  1040.
 Integral symmetry usage will be decided dynamically.
       126521 words used for storage of precomputed grid.
 IEnd=      305468 IEndB=      305468 NGot=  1073741824 MDV=  1073505667
 LenX=  1073505667 LenY=  1073452785
 Fock matrices will be formed incrementally for  20 cycles.

 Cycle   1  Pass 1  IDiag  1:
 FoFJK:  IHMeth= 1 ICntrl=     0 DoSepK=T KAlg= 1 I1Cent= 0 FoldK=F
 FoFCou: FMM=F IPFlag=           0 FMFlag=      100000 FMFlg1=           0
         NFxFlg=           0 DoJE=T BraDBF=F KetDBF=F FulRan=T
         Omega=  0.000000  0.000000  1.000000  0.000000  0.000000 ICntrl=     500 IOpCl=  0
         NMat0=    1 NMatS0=    1 NMatT0=    0 NMatD0=    1 NMtDS0=    0 NMtDT0=    0
         I1Cent=           0 NGrid=           0.
 Symmetry not used in FoFCou.
 E= -151.497688252226    
 DIIS: error= 1.36D-02 at cycle   1 NSaved=   1.
 NSaved= 1 IEnMin= 1 EnMin= -151.497688252226     IErMin= 1 ErrMin= 1.36D-02
 ErrMax= 1.36D-02 EMaxC= 1.00D-01 BMatC= 4.41D-02 BMatP= 4.41D-02
 IDIUse=3 WtCom= 8.64D-01 WtEn= 1.36D-01
 Coeff-Com:  0.100D+01
 Coeff-En:   0.100D+01
 Coeff:      0.100D+01
 Gap=     0.543 Goal=   None    Shift=    0.000
 GapD=    0.543 DampG=2.000 DampE=0.500 DampFc=1.0000 IDamp=-1.
 RMSDP=7.68D-04 MaxDP=2.27D-02              OVMax= 5.95D-02

 Cycle   2  Pass 1  IDiag  1:
 RMSU=  5.42D-04    CP:  9.94D-01
 FoFJK:  IHMeth= 1 ICntrl=     0 DoSepK=T KAlg= 1 I1Cent= 0 FoldK=F
 E= -151.515552494379     Delta-E=       -0.017864242153 Rises=F Damp=F
 DIIS: error= 8.57D-03 at cycle   2 NSaved=   2.
 NSaved= 2 IEnMin= 2 EnMin= -151.515552494379     IErMin= 2 ErrMin= 8.57D-03
 ErrMax= 8.57D-03 EMaxC= 1.00D-01 BMatC= 1.86D-02 BMatP= 4.41D-02
 IDIUse=3 WtCom= 9.14D-01 WtEn= 8.57D-02
 Coeff-Com:  0.382D+00 0.618D+00
 Coeff-En:   0.147D+00 0.853D+00
 Coeff:      0.361D+00 0.639D+00
 Gap=     0.452 Goal=   None    Shift=    0.000
 RMSDP=4.66D-04 MaxDP=2.22D-02 DE=-1.79D-02 OVMax= 2.58D-02

 Cycle   3  Pass 1  IDiag  1:
 RMSU=  2.35D-04    CP:  9.88D-01  5.78D-01
 FoFJK:  IHMeth= 1 ICntrl=     0 DoSepK=T KAlg= 1 I1Cent= 0 FoldK=F
 E= -151.526251540716     Delta-E=       -0.010699046336 Rises=F Damp=F
 DIIS: error= 1.38D-03 at cycle   3 NSaved=   3.
 NSaved= 3 IEnMin= 3 EnMin= -151.526251540716     IErMin= 3 ErrMin= 1.38D-03
 ErrMax= 1.38D-03 EMaxC= 1.00D-01 BMatC= 4.19D-04 BMatP= 1.86D-02
 IDIUse=3 WtCom= 9.86D-01 WtEn= 1.38D-02
 Coeff-Com:  0.420D-01 0.152D+00 0.806D+00
 Coeff-En:   0.000D+00 0.000D+00 0.100D+01
 Coeff:      0.414D-01 0.150D+00 0.809D+00
 Gap=     0.444 Goal=   None    Shift=    0.000
 RMSDP=5.40D-05 MaxDP=1.26D-03 DE=-1.07D-02 OVMax= 4.22D-03

 Cycle   4  Pass 1  IDiag  1:
 RMSU=  2.73D-05    CP:  9.87D-01  6.24D-01  1.02D+00
 FoFJK:  IHMeth= 1 ICntrl=     0 DoSepK=T KAlg= 1 I1Cent= 0 FoldK=F
 E= -151.526516196173     Delta-E=       -0.000264655457 Rises=F Damp=F
 DIIS: error= 2.50D-04 at cycle   4 NSaved=   4.
 NSaved= 4 IEnMin= 4 EnMin= -151.526516196173     IErMin= 4 ErrMin= 2.50D-04
 ErrMax= 2.50D-04 EMaxC= 1.00D-01 BMatC= 9.98D-06 BMatP= 4.19D-04
 IDIUse=3 WtCom= 9.98D-01 WtEn= 2.50D-03
 Coeff-Com: -0.999D-02-0.131D-01 0.839D-01 0.939D+00
 Coeff-En:   0.000D+00 0.000D+00 0.000D+00 0.100D+01
 Coeff:     -0.996D-02-0.130D-01 0.837D-01 0.939D+00
 Gap=     0.446 Goal=   None    Shift=    0.000
 RMSDP=1.20D-05 MaxDP=5.86D-04 DE=-2.65D-04 OVMax= 8.10D-04

 Cycle   5  Pass 1  IDiag  1:
 RMSU=  4.72D-06    CP:  9.87D-01  6.21D-01  1.04D+00  1.05D+00
 FoFJK:  IHMeth= 1 ICntrl=     0 DoSepK=T KAlg= 1 I1Cent= 0 FoldK=F
 E= -151.526524616546     Delta-E=       -0.000008420373 Rises=F Damp=F
 DIIS: error= 4.92D-05 at cycle   5 NSaved=   5.
 NSaved= 5 IEnMin= 5 EnMin= -151.526524616546     IErMin= 5 ErrMin= 4.92D-05
 ErrMax= 4.92D-05 EMaxC= 1.00D-01 BMatC= 2.10D-07 BMatP= 9.98D-06
 IDIUse=1 WtCom= 1.00D+00 WtEn= 0.00D+00
 Coeff-Com: -0.220D-03-0.129D-02-0.313D-01-0.118D+00 0.115D+01
 Coeff:     -0.220D-03-0.129D-02-0.313D-01-0.118D+00 0.115D+01
 Gap=     0.446 Goal=   None    Shift=    0.000
 RMSDP=3.25D-06 MaxDP=8.35D-05 DE=-8.42D-06 OVMax= 2.70D-04

 Cycle   6  Pass 1  IDiag  1:
 RMSU=  1.15D-06    CP:  9.87D-01  6.22D-01  1.05D+00  1.09D+00  1.30D+00
 FoFJK:  IHMeth= 1 ICntrl=     0 DoSepK=T KAlg= 1 I1Cent= 0 FoldK=F
 E= -151.526525125253     Delta-E=       -0.000000508706 Rises=F Damp=F
 DIIS: error= 1.11D-05 at cycle   6 NSaved=   6.
 NSaved= 6 IEnMin= 6 EnMin= -151.526525125253     IErMin= 6 ErrMin= 1.11D-05
 ErrMax= 1.11D-05 EMaxC= 1.00D-01 BMatC= 1.12D-08 BMatP= 2.10D-07
 IDIUse=1 WtCom= 1.00D+00 WtEn= 0.00D+00
 Coeff-Com:  0.212D-03 0.612D-03 0.566D-02 0.641D-02-0.267D+00 0.125D+01
 Coeff:      0.212D-03 0.612D-03 0.566D-02 0.641D-02-0.267D+00 0.125D+01
 Gap=     0.446 Goal=   None    Shift=    0.000
 RMSDP=1.06D-06 MaxDP=2.86D-05 DE=-5.09D-07 OVMax= 1.15D-04

 Cycle   7  Pass 1  IDiag  1:
 RMSU=  2.95D-07    CP:  9.87D-01  6.22D-01  1.05D+00  1.11D+00  1.34D+00
                    CP:  1.48D+00
 FoFJK:  IHMeth= 1 ICntrl=     0 DoSepK=T KAlg= 1 I1Cent= 0 FoldK=F
 E= -151.526525170854     Delta-E=       -0.000000045601 Rises=F Damp=F
 DIIS: error= 4.40D-06 at cycle   7 NSaved=   7.
 NSaved= 7 IEnMin= 7 EnMin= -151.526525170854     IErMin= 7 ErrMin= 4.40D-06
 ErrMax= 4.40D-06 EMaxC= 1.00D-01 BMatC= 8.85D-10 BMatP= 1.12D-08
 IDIUse=1 WtCom= 1.00D+00 WtEn= 0.00D+00
 Coeff-Com: -0.201D-04-0.386D-04 0.931D-03 0.561D-02-0.332D-01-0.169D+00
 Coeff-Com:  0.120D+01
 Coeff:     -0.201D-04-0.386D-04 0.931D-03 0.561D-02-0.332D-01-0.169D+00
 Coeff:      0.120D+01
 Gap=     0.446 Goal=   None    Shift=    0.000
 RMSDP=4.22D-07 MaxDP=1.58D-05 DE=-4.56D-08 OVMax= 4.59D-05

 Cycle   8  Pass 1  IDiag  1:
 RMSU=  7.44D-08    CP:  9.87D-01  6.22D-01  1.05D+00  1.11D+00  1.34D+00
                    CP:  1.64D+00  1.44D+00
 FoFJK:  IHMeth= 1 ICntrl=     0 DoSepK=T KAlg= 1 I1Cent= 0 FoldK=F
 E= -151.526525174620     Delta-E=       -0.000000003766 Rises=F Damp=F
 DIIS: error= 1.29D-06 at cycle   8 NSaved=   8.
 NSaved= 8 IEnMin= 8 EnMin= -151.526525174620     IErMin= 8 ErrMin= 1.29D-06
 ErrMax= 1.29D-06 EMaxC= 1.00D-01 BMatC= 1.88D-10 BMatP= 8.85D-10
 IDIUse=1 WtCom= 1.00D+00 WtEn= 0.00D+00
 Coeff-Com: -0.231D-04-0.680D-04-0.302D-03 0.426D-03 0.197D-01-0.161D+00
 Coeff-Com:  0.280D+00 0.861D+00
 Coeff:     -0.231D-04-0.680D-04-0.302D-03 0.426D-03 0.197D-01-0.161D+00
 Coeff:      0.280D+00 0.861D+00
 Gap=     0.446 Goal=   None    Shift=    0.000
 RMSDP=1.18D-07 MaxDP=6.33D-06 DE=-3.77D-09 OVMax= 1.22D-05

 Cycle   9  Pass 1  IDiag  1:
 RMSU=  3.09D-08    CP:  9.87D-01  6.22D-01  1.05D+00  1.11D+00  1.33D+00
                    CP:  1.67D+00  1.58D+00  1.14D+00
 FoFJK:  IHMeth= 1 ICntrl=     0 DoSepK=T KAlg= 1 I1Cent= 0 FoldK=F
 E= -151.526525174936     Delta-E=       -0.000000000316 Rises=F Damp=F
 DIIS: error= 4.28D-07 at cycle   9 NSaved=   9.
 NSaved= 9 IEnMin= 9 EnMin= -151.526525174936     IErMin= 9 ErrMin= 4.28D-07
 ErrMax= 4.28D-07 EMaxC= 1.00D-01 BMatC= 6.14D-11 BMatP= 1.88D-10
 IDIUse=1 WtCom= 1.00D+00 WtEn= 0.00D+00
 Coeff-Com: -0.895D-05-0.300D-04-0.357D-03-0.103D-02 0.190D-01-0.595D-01
 Coeff-Com: -0.891D-01 0.432D+00 0.699D+00
 Coeff:     -0.895D-05-0.300D-04-0.357D-03-0.103D-02 0.190D-01-0.595D-01
 Coeff:     -0.891D-01 0.432D+00 0.699D+00
 Gap=     0.446 Goal=   None    Shift=    0.000
 RMSDP=4.60D-08 MaxDP=2.45D-06 DE=-3.16D-10 OVMax= 5.12D-06

 Cycle  10  Pass 1  IDiag  1:
 RMSU=  1.05D-08    CP:  9.87D-01  6.22D-01  1.05D+00  1.11D+00  1.33D+00
                    CP:  1.68D+00  1.63D+00  1.31D+00  9.12D-01
 FoFJK:  IHMeth= 1 ICntrl=     0 DoSepK=T KAlg= 1 I1Cent= 0 FoldK=F
 E= -151.526525175005     Delta-E=       -0.000000000069 Rises=F Damp=F
 DIIS: error= 1.23D-07 at cycle  10 NSaved=  10.
 NSaved=10 IEnMin=10 EnMin= -151.526525175005     IErMin=10 ErrMin= 1.23D-07
 ErrMax= 1.23D-07 EMaxC= 1.00D-01 BMatC= 1.38D-12 BMatP= 6.14D-11
 IDIUse=1 WtCom= 1.00D+00 WtEn= 0.00D+00
 Coeff-Com:  0.321D-05 0.125D-04 0.861D-04-0.729D-05-0.398D-02 0.223D-01
 Coeff-Com: -0.902D-02-0.149D+00-0.880D-01 0.123D+01
 Coeff:      0.321D-05 0.125D-04 0.861D-04-0.729D-05-0.398D-02 0.223D-01
 Coeff:     -0.902D-02-0.149D+00-0.880D-01 0.123D+01
 Gap=     0.446 Goal=   None    Shift=    0.000
 RMSDP=1.00D-08 MaxDP=1.85D-07 DE=-6.91D-11 OVMax= 1.49D-06

 Cycle  11  Pass 1  IDiag  1:
 RMSU=  3.73D-09    CP:  9.87D-01  6.22D-01  1.05D+00  1.11D+00  1.33D+00
                    CP:  1.68D+00  1.63D+00  1.35D+00  1.02D+00  1.32D+00
 FoFJK:  IHMeth= 1 ICntrl=     0 DoSepK=T KAlg= 1 I1Cent= 0 FoldK=F
 E= -151.526525175009     Delta-E=       -0.000000000004 Rises=F Damp=F
 DIIS: error= 2.34D-08 at cycle  11 NSaved=  11.
 NSaved=11 IEnMin=11 EnMin= -151.526525175009     IErMin=11 ErrMin= 2.34D-08
 ErrMax= 2.34D-08 EMaxC= 1.00D-01 BMatC= 4.74D-14 BMatP= 1.38D-12
 IDIUse=1 WtCom= 1.00D+00 WtEn= 0.00D+00
 Coeff-Com: -0.429D-06-0.107D-05-0.379D-05 0.376D-04 0.136D-03-0.290D-02
 Coeff-Com:  0.740D-02 0.125D-01-0.130D-01-0.259D+00 0.125D+01
 Coeff:     -0.429D-06-0.107D-05-0.379D-05 0.376D-04 0.136D-03-0.290D-02
 Coeff:      0.740D-02 0.125D-01-0.130D-01-0.259D+00 0.125D+01
 Gap=     0.446 Goal=   None    Shift=    0.000
 RMSDP=2.45D-09 MaxDP=4.72D-08 DE=-3.64D-12 OVMax= 2.35D-07

 SCF Done:  E(RLC-wPBE) =  -151.526525175     A.U. after   11 cycles
             Convg  =    0.2454D-08             -V/T =  2.0069
 KE= 1.504938407455D+02 PE=-4.316152408851D+02 EE= 9.293120678635D+01
 Leave Link  502 at Fri May  8 08:49:17 2020, MaxMem= 1073741824 cpu:     298.6
 (Enter /home/matheus/.gaussian/g09/l601.exe)
 Copying SCF densities to generalized density rwf, IOpCl= 0 IROHF=0.

 **********************************************************************

            Population analysis using the SCF density.

 **********************************************************************

 Orbital symmetries:
       Occupied  (A) (A) (A) (A) (A) (A) (A) (A) (A)
       Virtual   (A) (A) (A) (A) (A) (A) (A) (A) (A) (A) (A) (A)
                 (A) (A) (A) (A) (A) (A) (A) (A) (A) (A) (A) (A)
                 (A) (A) (A) (A) (A) (A) (A) (A) (A) (A) (A) (A)
                 (A) (A) (A) (A) (A) (A) (A) (A) (A) (A) (A) (A)
                 (A) (A) (A) (A) (A) (A) (A) (A) (A) (A) (A) (A)
                 (A) (A) (A) (A) (A) (A) (A) (A) (A) (A) (A) (A)
                 (A) (A) (A) (A) (A) (A) (A) (A) (A) (A) (A) (A)
                 (A) (A) (A) (A) (A) (A) (A) (A) (A) (A) (A) (A)
                 (A) (A) (A) (A) (A) (A) (A) (A) (A) (A) (A) (A)
                 (A) (A) (A) (A) (A) (A) (A) (A) (A) (A) (A) (A)
                 (A) (A) (A) (A) (A) (A) (A) (A) (A) (A) (A) (A)
                 (A) (A) (A) (A) (A) (A) (A) (A) (A) (A) (A) (A)
                 (A) (A) (A) (A) (A) (A) (A) (A) (A) (A) (A) (A)
                 (A) (A) (A) (A) (A) (A) (A) (A) (A) (A) (A) (A)
                 (A) (A) (A) (A) (A) (A) (A) (A) (A) (A) (A) (A)
                 (A) (A) (A) (A) (A) (A) (A) (A)
 The electronic state is 1-A.
 Alpha  occ. eigenvalues --  -19.11665 -19.11659  -1.32776  -1.09786  -0.74782
 Alpha  occ. eigenvalues --   -0.59229  -0.59139  -0.53787  -0.42671
 Alpha virt. eigenvalues --    0.01919   0.03884   0.07190   0.07689   0.09398
 Alpha virt. eigenvalues --    0.10214   0.11482   0.16496   0.17273   0.18011
 Alpha virt. eigenvalues --    0.18910   0.20237   0.20775   0.21924   0.26257
 Alpha virt. eigenvalues --    0.27460   0.28739   0.29136   0.32148   0.35096
 Alpha virt. eigenvalues --    0.35591   0.35965   0.37948   0.41390   0.42959
 Alpha virt. eigenvalues --    0.44861   0.45251   0.47149   0.49333   0.53549
 Alpha virt. eigenvalues --    0.55462   0.58641   0.59608   0.64194   0.67543
 Alpha virt. eigenvalues --    0.70742   0.73060   0.77840   0.78526   0.81847
 Alpha virt. eigenvalues --    0.84212   0.85276   0.88168   0.89353   0.91219
 Alpha virt. eigenvalues --    0.94946   0.97637   0.97939   0.99870   1.01573
 Alpha virt. eigenvalues --    1.03016   1.04811   1.07947   1.10488   1.11799
 Alpha virt. eigenvalues --    1.12078   1.17860   1.22414   1.24441   1.26722
 Alpha virt. eigenvalues --    1.27895   1.29741   1.31872   1.32610   1.34036
 Alpha virt. eigenvalues --    1.34745   1.38155   1.38825   1.45169   1.47342
 Alpha virt. eigenvalues --    1.51161   1.52134   1.55318   1.57785   1.60678
 Alpha virt. eigenvalues --    1.64257   1.65487   1.71323   1.74986   1.80428
 Alpha virt. eigenvalues --    1.85711   1.86830   1.97032   2.00173   2.05422
 Alpha virt. eigenvalues --    2.09733   2.17982   2.21015   2.25409   2.28318
 Alpha virt. eigenvalues --    2.31337   2.36914   2.37415   2.37553   2.45428
 Alpha virt. eigenvalues --    2.50778   2.56665   2.59328   2.68807   2.70836
 Alpha virt. eigenvalues --    2.73111   2.75224   2.90121   2.91325   2.95664
 Alpha virt. eigenvalues --    3.10046   3.14970   3.16168   3.23917   3.34001
 Alpha virt. eigenvalues --    3.40263   3.57022   3.63837   3.71792   3.77477
 Alpha virt. eigenvalues --    3.78513   3.79783   3.81928   3.82385   3.88160
 Alpha virt. eigenvalues --    3.91421   3.92238   3.94688   3.95985   3.97922
 Alpha virt. eigenvalues --    4.01987   4.05804   4.10281   4.14701   4.17208
 Alpha virt. eigenvalues --    4.22294   4.24454   4.27732   4.29263   4.31857
 Alpha virt. eigenvalues --    4.53207   4.60196   4.62078   4.72769   5.01428
 Alpha virt. eigenvalues --    5.04973   5.08752   5.13401   5.15772   5.19650
 Alpha virt. eigenvalues --    5.55360   5.86048   6.06207   6.09048   6.16251
 Alpha virt. eigenvalues --    6.39564   6.41729   6.52127   6.61505   6.73083
 Alpha virt. eigenvalues --    6.74936   6.81002   6.85088   6.86942   6.89817
 Alpha virt. eigenvalues --    6.92455   6.93540   6.96020   7.13910   7.20049
 Alpha virt. eigenvalues --    7.20846   7.30128   7.36774   7.63072   8.00860
 Alpha virt. eigenvalues --    8.05602   8.21002  11.07667  13.80079  14.68461
 Alpha virt. eigenvalues --   14.80908  14.93443  15.09785  29.01440  29.02126
 Alpha virt. eigenvalues --   29.05969  29.19851  29.23085  49.22486 148.29113
 Alpha virt. eigenvalues --  148.47971 148.71597 752.96154
          Condensed to atoms (all electrons):
              1          2          3          4          5
     1  O    8.230689  -0.236258   0.176298   0.030590   0.003249
     2  O   -0.236258   8.217995   0.035201   0.185900   0.001449
     3  H    0.176298   0.035201   0.599759  -0.013354  -0.002339
     4  H    0.030590   0.185900  -0.013354   0.595542  -0.003888
     5  Kr   0.003249   0.001449  -0.002339  -0.003888   0.002316
 Mulliken atomic charges:
              1
     1  O   -0.204568
     2  O   -0.204288
     3  H    0.204434
     4  H    0.205210
     5  Kr  -0.000787
 Sum of Mulliken atomic charges =   0.00000
 Mulliken charges with hydrogens summed into heavy atoms:
              1
     1  O   -0.000134
     2  O    0.000921
     5  Kr  -0.000787
 Sum of Mulliken charges with hydrogens summed into heavy atoms =   0.00000
          Condensed to fragments (all electrons):
     1       0.000787
     2      -0.000787
 Electronic spatial extent (au):  <R**2>=            316.7076
 Charge=              0.0000 electrons
 Dipole moment (field-independent basis, Debye):
    X=             -3.1254    Y=             -0.0196    Z=              0.5622  Tot=              3.1756
 Quadrupole moment (field-independent basis, Debye-Ang):
   XX=            -21.6035   YY=            -10.4743   ZZ=            -12.8180
   XY=             -0.1496   XZ=              0.4616   YZ=             -0.6379
 Traceless Quadrupole moment (field-independent basis, Debye-Ang):
   XX=             -6.6382   YY=              4.4909   ZZ=              2.1473
   XY=             -0.1496   XZ=              0.4616   YZ=             -0.6379
 Octapole moment (field-independent basis, Debye-Ang**2):
  XXX=            -93.4767  YYY=             -0.1145  ZZZ=              0.0458  XYY=            -24.5524
  XXY=             -0.2821  XXZ=              0.0626  XZZ=            -25.2620  YZZ=             -0.2242
  YYZ=              0.7298  XYZ=             -0.6974
 Hexadecapole moment (field-independent basis, Debye-Ang**3):
 XXXX=           -339.7573 YYYY=            -44.8435 ZZZZ=            -11.1797 XXXY=             -0.2800
 XXXZ=             -0.9404 YYYX=             -0.2633 YYYZ=             -0.8793 ZZZX=              0.2342
 ZZZY=             -0.3846 XXYY=            -63.8363 XXZZ=            -53.7237 YYZZ=            -11.0922
 XXYZ=             -0.7566 YYXZ=              0.8247 ZZXY=             -0.2790
 N-N= 3.666366817825D+01 E-N=-4.316152405013D+02  KE= 1.504938407455D+02
 No NMR shielding tensors so no spin-rotation constants.
 Leave Link  601 at Fri May  8 08:49:17 2020, MaxMem= 1073741824 cpu:       0.7
 (Enter /home/matheus/.gaussian/g09/l122.exe)
 Counterpoise: doing DCBS calculation for fragment   2 NewBq=T
 Leave Link  122 at Fri May  8 08:49:17 2020, MaxMem= 1073741824 cpu:       0.0
 (Enter /home/matheus/.gaussian/g09/l301.exe)
 Basis read from rwf:  (5D, 7F)
 No pseudopotential information found on rwf file.
 There are   197 symmetry adapted basis functions of A   symmetry.
 Integral buffers will be    131072 words long.
 Raffenetti 2 integral format.
 Two-electron integral symmetry is turned on.
   197 basis functions,   415 primitive gaussians,   229 cartesian basis functions
    18 alpha electrons       18 beta electrons
       nuclear repulsion energy         0.0000000000 Hartrees.
 IExCor=32609 DFT=T Ex+Corr=LC-wPBE ExCW=0 ScaHFX=  1.000000
 ScaDFX=  1.000000  0.000000  1.000000  1.000000 ScalE2=  1.000000  1.000000
 IRadAn=      5 IRanWt=     -1 IRanGd=            0 ICorTp=0
  HFx wShort=  0.000000 wLong=  0.550000 cFull=  0.000000 cShort=  0.000000 cLong=  1.000000
  DFx wShort=  0.000000 wLong=  0.550000 cFull=  0.000000 cShort=  0.000000 cLong=  1.000000
 NAtoms=    5 NActive=    5 NUniq=    5 SFac= 1.00D+00 NAtFMM=   60 NAOKFM=F Big=F
 No density basis found on file   718.
 Leave Link  301 at Fri May  8 08:49:17 2020, MaxMem= 1073741824 cpu:       0.2
 (Enter /home/matheus/.gaussian/g09/l302.exe)
 NPDir=0 NMtPBC=     1 NCelOv=     1 NCel=       1 NClECP=     1 NCelD=      1
         NCelK=      1 NCelE2=     1 NClLst=     1 CellRange=     0.0.
 One-electron integrals computed using PRISM.
 NBasis=   197 RedAO= T  NBF=   197
 NBsUse=   197 1.00D-06 NBFU=   197
 Precomputing XC quadrature grid using
 IXCGrd= 2 IRadAn=           5 IRanWt=          -1 IRanGd=           0 AccXCQ= 0.00D+00.
 NRdTot=     427 NPtTot=      123512 NUsed=      126579 NTot=      126611
 NSgBfM=   229   229   229   229   229 NAtAll=     5     5.
 Leave Link  302 at Fri May  8 08:49:17 2020, MaxMem= 1073741824 cpu:       1.1
 (Enter /home/matheus/.gaussian/g09/l303.exe)
 DipDrv:  MaxL=1.
 Leave Link  303 at Fri May  8 08:49:17 2020, MaxMem= 1073741824 cpu:       0.2
 (Enter /home/matheus/.gaussian/g09/l401.exe)
 Harris functional with IExCor=32609 diagonalized for initial guess.
 ExpMin= 2.53D-02 ExpMax= 1.17D+07 ExpMxC= 1.33D+04 IAcc=3 IRadAn=         5 AccDes= 0.00D+00
 HarFok:  IExCor=32609 AccDes= 0.00D+00 IRadAn=         5 IDoV= 1
 ScaDFX=  1.000000  1.000000  1.000000  1.000000
 FoFCou: FMM=F IPFlag=           0 FMFlag=      100000 FMFlg1=           0
         NFxFlg=           0 DoJE=T BraDBF=F KetDBF=T FulRan=T
         Omega=  0.000000  0.000000  1.000000  0.000000  0.000000 ICntrl=     500 IOpCl=  0
         NMat0=    1 NMatS0=    1 NMatT0=    0 NMatD0=    1 NMtDS0=    0 NMtDT0=    0
         I1Cent=           4 NGrid=           0.
 Petite list used in FoFCou.
 Harris En= -2753.24668166174    
 Initial guess orbital symmetries:
       Occupied  (A) (A) (A) (A) (A) (A) (A) (A) (A) (A) (A) (A)
                 (A) (A) (A) (A) (A) (A)
       Virtual   (A) (A) (A) (A) (A) (A) (A) (A) (A) (A) (A) (A)
                 (A) (A) (A) (A) (A) (A) (A) (A) (A) (A) (A) (A)
                 (A) (A) (A) (A) (A) (A) (A) (A) (A) (A) (A) (A)
                 (A) (A) (A) (A) (A) (A) (A) (A) (A) (A) (A) (A)
                 (A) (A) (A) (A) (A) (A) (A) (A) (A) (A) (A) (A)
                 (A) (A) (A) (A) (A) (A) (A) (A) (A) (A) (A) (A)
                 (A) (A) (A) (A) (A) (A) (A) (A) (A) (A) (A) (A)
                 (A) (A) (A) (A) (A) (A) (A) (A) (A) (A) (A) (A)
                 (A) (A) (A) (A) (A) (A) (A) (A) (A) (A) (A) (A)
                 (A) (A) (A) (A) (A) (A) (A) (A) (A) (A) (A) (A)
                 (A) (A) (A) (A) (A) (A) (A) (A) (A) (A) (A) (A)
                 (A) (A) (A) (A) (A) (A) (A) (A) (A) (A) (A) (A)
                 (A) (A) (A) (A) (A) (A) (A) (A) (A) (A) (A) (A)
                 (A) (A) (A) (A) (A) (A) (A) (A) (A) (A) (A) (A)
                 (A) (A) (A) (A) (A) (A) (A) (A) (A) (A) (A)
 The electronic state of the initial guess is 1-A.
 Leave Link  401 at Fri May  8 08:49:18 2020, MaxMem= 1073741824 cpu:       4.2
 (Enter /home/matheus/.gaussian/g09/l502.exe)
 Closed shell SCF:
 Requested convergence on RMS density matrix=1.00D-08 within 128 cycles.
 Requested convergence on MAX density matrix=1.00D-06.
 Requested convergence on             energy=1.00D-06.
 No special actions if energy rises.
 Using DIIS extrapolation, IDIIS=  1040.
 Integral symmetry usage will be decided dynamically.
       126521 words used for storage of precomputed grid.
 IEnd=      305468 IEndB=      305468 NGot=  1073741824 MDV=  1073505667
 LenX=  1073505667 LenY=  1073452785
 Fock matrices will be formed incrementally for  20 cycles.

 Cycle   1  Pass 1  IDiag  1:
 FoFJK:  IHMeth= 1 ICntrl=     0 DoSepK=T KAlg= 1 I1Cent= 0 FoldK=F
 FoFCou: FMM=F IPFlag=           0 FMFlag=      100000 FMFlg1=           0
         NFxFlg=           0 DoJE=T BraDBF=F KetDBF=F FulRan=T
         Omega=  0.000000  0.000000  1.000000  0.000000  0.000000 ICntrl=     500 IOpCl=  0
         NMat0=    1 NMatS0=    1 NMatT0=    0 NMatD0=    1 NMtDS0=    0 NMtDT0=    0
         I1Cent=           0 NGrid=           0.
 Symmetry not used in FoFCou.
 E= -2753.43072059260    
 DIIS: error= 3.06D-02 at cycle   1 NSaved=   1.
 NSaved= 1 IEnMin= 1 EnMin= -2753.43072059260     IErMin= 1 ErrMin= 3.06D-02
 ErrMax= 3.06D-02 EMaxC= 1.00D-01 BMatC= 2.27D-01 BMatP= 2.27D-01
 IDIUse=3 WtCom= 6.94D-01 WtEn= 3.06D-01
 Coeff-Com:  0.100D+01
 Coeff-En:   0.100D+01
 Coeff:      0.100D+01
 Gap=     0.636 Goal=   None    Shift=    0.000
 GapD=    0.636 DampG=2.000 DampE=0.500 DampFc=1.0000 IDamp=-1.
 RMSDP=2.15D-03 MaxDP=1.47D-01              OVMax= 5.14D-02

 Cycle   2  Pass 1  IDiag  1:
 RMSU=  1.48D-03    CP:  1.02D+00
 FoFJK:  IHMeth= 1 ICntrl=     0 DoSepK=T KAlg= 1 I1Cent= 0 FoldK=F
 E= -2753.46426630738     Delta-E=       -0.033545714783 Rises=F Damp=F
 DIIS: error= 1.12D-02 at cycle   2 NSaved=   2.
 NSaved= 2 IEnMin= 2 EnMin= -2753.46426630738     IErMin= 2 ErrMin= 1.12D-02
 ErrMax= 1.12D-02 EMaxC= 1.00D-01 BMatC= 5.03D-02 BMatP= 2.27D-01
 IDIUse=3 WtCom= 8.88D-01 WtEn= 1.12D-01
 Coeff-Com:  0.315D+00 0.685D+00
 Coeff-En:   0.639D-01 0.936D+00
 Coeff:      0.287D+00 0.713D+00
 Gap=     0.551 Goal=   None    Shift=    0.000
 RMSDP=7.88D-04 MaxDP=5.14D-02 DE=-3.35D-02 OVMax= 1.85D-02

 Cycle   3  Pass 1  IDiag  1:
 RMSU=  1.49D-04    CP:  1.01D+00  6.48D-01
 FoFJK:  IHMeth= 1 ICntrl=     0 DoSepK=T KAlg= 1 I1Cent= 0 FoldK=F
 E= -2753.47777849849     Delta-E=       -0.013512191108 Rises=F Damp=F
 DIIS: error= 1.11D-03 at cycle   3 NSaved=   3.
 NSaved= 3 IEnMin= 3 EnMin= -2753.47777849849     IErMin= 3 ErrMin= 1.11D-03
 ErrMax= 1.11D-03 EMaxC= 1.00D-01 BMatC= 5.49D-04 BMatP= 5.03D-02
 IDIUse=3 WtCom= 9.89D-01 WtEn= 1.11D-02
 Coeff-Com: -0.456D-02 0.860D-01 0.919D+00
 Coeff-En:   0.000D+00 0.000D+00 0.100D+01
 Coeff:     -0.451D-02 0.851D-01 0.919D+00
 Gap=     0.558 Goal=   None    Shift=    0.000
 RMSDP=7.33D-05 MaxDP=4.41D-03 DE=-1.35D-02 OVMax= 2.43D-03

 Cycle   4  Pass 1  IDiag  1:
 RMSU=  1.38D-05    CP:  1.01D+00  6.80D-01  9.95D-01
 FoFJK:  IHMeth= 1 ICntrl=     0 DoSepK=T KAlg= 1 I1Cent= 0 FoldK=F
 E= -2753.47793663068     Delta-E=       -0.000158132186 Rises=F Damp=F
 DIIS: error= 4.13D-05 at cycle   4 NSaved=   4.
 NSaved= 4 IEnMin= 4 EnMin= -2753.47793663068     IErMin= 4 ErrMin= 4.13D-05
 ErrMax= 4.13D-05 EMaxC= 1.00D-01 BMatC= 4.16D-07 BMatP= 5.49D-04
 IDIUse=1 WtCom= 1.00D+00 WtEn= 0.00D+00
 Coeff-Com: -0.556D-03-0.197D-01-0.163D+00 0.118D+01
 Coeff:     -0.556D-03-0.197D-01-0.163D+00 0.118D+01
 Gap=     0.557 Goal=   None    Shift=    0.000
 RMSDP=5.81D-06 MaxDP=3.30D-04 DE=-1.58D-04 OVMax= 4.13D-04

 Cycle   5  Pass 1  IDiag  1:
 RMSU=  1.84D-06    CP:  1.01D+00  6.80D-01  1.01D+00  1.20D+00
 FoFJK:  IHMeth= 1 ICntrl=     0 DoSepK=T KAlg= 1 I1Cent= 0 FoldK=F
 E= -2753.47793714972     Delta-E=       -0.000000519046 Rises=F Damp=F
 DIIS: error= 2.04D-06 at cycle   5 NSaved=   5.
 NSaved= 5 IEnMin= 5 EnMin= -2753.47793714972     IErMin= 5 ErrMin= 2.04D-06
 ErrMax= 2.04D-06 EMaxC= 1.00D-01 BMatC= 2.22D-09 BMatP= 4.16D-07
 IDIUse=1 WtCom= 1.00D+00 WtEn= 0.00D+00
 Coeff-Com:  0.950D-04 0.159D-03-0.177D-02-0.152D-01 0.102D+01
 Coeff:      0.950D-04 0.159D-03-0.177D-02-0.152D-01 0.102D+01
 Gap=     0.557 Goal=   None    Shift=    0.000
 RMSDP=3.28D-07 MaxDP=2.12D-05 DE=-5.19D-07 OVMax= 1.51D-05

 Cycle   6  Pass 1  IDiag  1:
 RMSU=  1.57D-07    CP:  1.01D+00  6.80D-01  1.01D+00  1.21D+00  1.03D+00
 FoFJK:  IHMeth= 1 ICntrl=     0 DoSepK=T KAlg= 1 I1Cent= 0 FoldK=F
 E= -2753.47793715165     Delta-E=       -0.000000001929 Rises=F Damp=F
 DIIS: error= 3.31D-07 at cycle   6 NSaved=   6.
 NSaved= 6 IEnMin= 6 EnMin= -2753.47793715165     IErMin= 6 ErrMin= 3.31D-07
 ErrMax= 3.31D-07 EMaxC= 1.00D-01 BMatC= 8.14D-11 BMatP= 2.22D-09
 IDIUse=1 WtCom= 1.00D+00 WtEn= 0.00D+00
 Coeff-Com:  0.485D-05 0.200D-03 0.185D-02-0.174D-01 0.438D-01 0.972D+00
 Coeff:      0.485D-05 0.200D-03 0.185D-02-0.174D-01 0.438D-01 0.972D+00
 Gap=     0.557 Goal=   None    Shift=    0.000
 RMSDP=4.92D-08 MaxDP=2.52D-06 DE=-1.93D-09 OVMax= 3.13D-06

 Cycle   7  Pass 1  IDiag  1:
 RMSU=  1.28D-08    CP:  1.01D+00  6.80D-01  1.01D+00  1.21D+00  1.05D+00
                    CP:  1.09D+00
 FoFJK:  IHMeth= 1 ICntrl=     0 DoSepK=T KAlg= 1 I1Cent= 0 FoldK=F
 E= -2753.47793715170     Delta-E=       -0.000000000047 Rises=F Damp=F
 DIIS: error= 5.08D-08 at cycle   7 NSaved=   7.
 NSaved= 7 IEnMin= 7 EnMin= -2753.47793715170     IErMin= 7 ErrMin= 5.08D-08
 ErrMax= 5.08D-08 EMaxC= 1.00D-01 BMatC= 7.95D-13 BMatP= 8.14D-11
 IDIUse=1 WtCom= 1.00D+00 WtEn= 0.00D+00
 Coeff-Com:  0.299D-06 0.407D-04 0.402D-03-0.360D-02 0.371D-02 0.192D+00
 Coeff-Com:  0.807D+00
 Coeff:      0.299D-06 0.407D-04 0.402D-03-0.360D-02 0.371D-02 0.192D+00
 Coeff:      0.807D+00
 Gap=     0.557 Goal=   None    Shift=    0.000
 RMSDP=5.80D-09 MaxDP=1.58D-07 DE=-4.73D-11 OVMax= 2.77D-07

 SCF Done:  E(RLC-wPBE) =  -2753.47793715     A.U. after    7 cycles
             Convg  =    0.5797D-08             -V/T =  2.0014
 KE= 2.749503314275D+03 PE=-6.579036403340D+03 EE= 1.076055151913D+03
 Leave Link  502 at Fri May  8 08:49:42 2020, MaxMem= 1073741824 cpu:     192.1
 (Enter /home/matheus/.gaussian/g09/l601.exe)
 Copying SCF densities to generalized density rwf, IOpCl= 0 IROHF=0.

 **********************************************************************

            Population analysis using the SCF density.

 **********************************************************************

 Orbital symmetries:
       Occupied  (A) (A) (A) (A) (A) (A) (A) (A) (A) (A) (A) (A)
                 (A) (A) (A) (A) (A) (A)
       Virtual   (A) (A) (A) (A) (A) (A) (A) (A) (A) (A) (A) (A)
                 (A) (A) (A) (A) (A) (A) (A) (A) (A) (A) (A) (A)
                 (A) (A) (A) (A) (A) (A) (A) (A) (A) (A) (A) (A)
                 (A) (A) (A) (A) (A) (A) (A) (A) (A) (A) (A) (A)
                 (A) (A) (A) (A) (A) (A) (A) (A) (A) (A) (A) (A)
                 (A) (A) (A) (A) (A) (A) (A) (A) (A) (A) (A) (A)
                 (A) (A) (A) (A) (A) (A) (A) (A) (A) (A) (A) (A)
                 (A) (A) (A) (A) (A) (A) (A) (A) (A) (A) (A) (A)
                 (A) (A) (A) (A) (A) (A) (A) (A) (A) (A) (A) (A)
                 (A) (A) (A) (A) (A) (A) (A) (A) (A) (A) (A) (A)
                 (A) (A) (A) (A) (A) (A) (A) (A) (A) (A) (A) (A)
                 (A) (A) (A) (A) (A) (A) (A) (A) (A) (A) (A) (A)
                 (A) (A) (A) (A) (A) (A) (A) (A) (A) (A) (A) (A)
                 (A) (A) (A) (A) (A) (A) (A) (A) (A) (A) (A) (A)
                 (A) (A) (A) (A) (A) (A) (A) (A) (A) (A) (A)
 The electronic state is 1-A.
 Alpha  occ. eigenvalues -- -511.18573 -66.73384 -60.39495 -60.39492 -60.39491
 Alpha  occ. eigenvalues --   -9.66931  -7.41183  -7.41181  -7.41181  -3.35590
 Alpha  occ. eigenvalues --   -3.35590  -3.35589  -3.35588  -3.35588  -1.08851
 Alpha  occ. eigenvalues --   -0.52696  -0.52693  -0.52691
 Alpha virt. eigenvalues --    0.03049   0.04915   0.08502   0.09668   0.12066
 Alpha virt. eigenvalues --    0.13245   0.13686   0.13955   0.15811   0.17174
 Alpha virt. eigenvalues --    0.17719   0.18360   0.21351   0.26633   0.27504
 Alpha virt. eigenvalues --    0.27714   0.29756   0.32178   0.33634   0.37940
 Alpha virt. eigenvalues --    0.38261   0.39376   0.39750   0.40734   0.42152
 Alpha virt. eigenvalues --    0.42370   0.46444   0.54912   0.56422   0.59743
 Alpha virt. eigenvalues --    0.62621   0.64405   0.69632   0.70795   0.72352
 Alpha virt. eigenvalues --    0.73482   0.74972   0.76822   0.77497   0.78563
 Alpha virt. eigenvalues --    0.79496   0.84207   0.85453   0.86656   0.89183
 Alpha virt. eigenvalues --    0.90100   0.90466   0.91735   0.94939   0.98775
 Alpha virt. eigenvalues --    1.00056   1.00533   1.01226   1.02627   1.04992
 Alpha virt. eigenvalues --    1.06087   1.09203   1.11715   1.15584   1.17046
 Alpha virt. eigenvalues --    1.20217   1.24112   1.30530   1.34181   1.40165
 Alpha virt. eigenvalues --    1.41678   1.43800   1.46749   1.48613   1.53198
 Alpha virt. eigenvalues --    1.58510   1.61939   1.64730   1.75359   1.76265
 Alpha virt. eigenvalues --    1.81428   1.85544   1.88078   1.93366   2.20043
 Alpha virt. eigenvalues --    2.23262   2.24636   2.29430   2.31441   2.35987
 Alpha virt. eigenvalues --    2.37516   2.37995   2.39225   2.39643   2.42954
 Alpha virt. eigenvalues --    2.47117   2.47851   2.52069   2.54613   2.55735
 Alpha virt. eigenvalues --    2.56628   2.57963   2.62014   2.62321   2.63263
 Alpha virt. eigenvalues --    2.65214   2.67626   2.68048   2.71429   2.73878
 Alpha virt. eigenvalues --    2.76975   2.79852   2.86018   2.90631   2.92604
 Alpha virt. eigenvalues --    2.97846   2.99863   3.06456   3.13512   3.19956
 Alpha virt. eigenvalues --    3.26376   3.27834   3.29881   3.41414   3.52375
 Alpha virt. eigenvalues --    3.62122   3.65570   3.87242   3.88238   4.02362
 Alpha virt. eigenvalues --    4.44288   4.47304   4.52707   4.60673   4.70539
 Alpha virt. eigenvalues --    4.72506   4.86540   4.89471   4.97597   5.03672
 Alpha virt. eigenvalues --    5.14536   5.28749   5.55741   5.65254   5.70786
 Alpha virt. eigenvalues --    5.97451   6.01486   6.22175   6.73259   6.93242
 Alpha virt. eigenvalues --    7.29918   7.37123   7.65998   7.67504   7.79022
 Alpha virt. eigenvalues --    7.87133   8.02299   8.13318   8.17678   8.27335
 Alpha virt. eigenvalues --    8.27775   8.39463   8.70147   9.00140   9.50277
 Alpha virt. eigenvalues --    9.73089   9.79464   9.90158   9.91725   9.94554
 Alpha virt. eigenvalues --   10.20463  10.22265  10.69494  10.88456  11.48648
 Alpha virt. eigenvalues --   11.63140  11.69221  11.94762  12.04553  13.27480
 Alpha virt. eigenvalues --   13.60460  14.55065  62.36461  64.76858
          Condensed to atoms (all electrons):
              1          2          3          4          5
     1  O    0.001641  -0.000139  -0.001426   0.000387  -0.006495
     2  O   -0.000139   0.002663   0.000055  -0.002452  -0.002554
     3  H   -0.001426   0.000055   0.002409   0.000229  -0.021414
     4  H    0.000387  -0.002452   0.000229   0.003579  -0.026870
     5  Kr  -0.006495  -0.002554  -0.021414  -0.026870  36.111066
 Mulliken atomic charges:
              1
     1  O    0.006032
     2  O    0.002426
     3  H    0.020148
     4  H    0.025127
     5  Kr  -0.053733
 Sum of Mulliken atomic charges =   0.00000
 Mulliken charges with hydrogens summed into heavy atoms:
              1
     1  O    0.026180
     2  O    0.027553
     5  Kr  -0.053733
 Sum of Mulliken charges with hydrogens summed into heavy atoms =   0.00000
          Condensed to fragments (all electrons):
     1       0.053733
     2      -0.053733
 Electronic spatial extent (au):  <R**2>=            159.3572
 Charge=              0.0000 electrons
 Dipole moment (field-independent basis, Debye):
    X=              0.0014    Y=              0.0000    Z=              0.0000  Tot=              0.0014
 Quadrupole moment (field-independent basis, Debye-Ang):
   XX=            -17.5393   YY=            -17.5478   ZZ=            -17.5569
   XY=              0.0005   XZ=              0.0019   YZ=             -0.0011
 Traceless Quadrupole moment (field-independent basis, Debye-Ang):
   XX=              0.0087   YY=              0.0002   ZZ=             -0.0089
   XY=              0.0005   XZ=              0.0019   YZ=             -0.0011
 Octapole moment (field-independent basis, Debye-Ang**2):
  XXX=             50.8799  YYY=              0.0277  ZZZ=              0.1232  XYY=             16.9727
  XXY=              0.0083  XXZ=              0.0383  XZZ=             16.9778  YZZ=              0.0096
  YYZ=              0.0410  XYZ=              0.0004
 Hexadecapole moment (field-independent basis, Debye-Ang**3):
 XXXX=           -116.4027 YYYY=            -18.0257 ZZZZ=            -18.0553 XXXY=             -0.0253
 XXXZ=             -0.1138 YYYX=             -0.0256 YYYZ=             -0.0004 ZZZX=             -0.1139
 ZZZY=             -0.0027 XXYY=            -22.4140 XXZZ=            -22.4218 YYZZ=             -6.0116
 XXYZ=             -0.0005 YYXZ=             -0.0385 ZZXY=             -0.0081
 N-N= 0.000000000000D+00 E-N=-6.579036397557D+03  KE= 2.749503314275D+03
 No NMR shielding tensors so no spin-rotation constants.
 Leave Link  601 at Fri May  8 08:49:42 2020, MaxMem= 1073741824 cpu:       0.8
 (Enter /home/matheus/.gaussian/g09/l122.exe)
 Counterpoise: doing MCBS calculation for fragment   1
 Leave Link  122 at Fri May  8 08:49:42 2020, MaxMem= 1073741824 cpu:       0.0
 (Enter /home/matheus/.gaussian/g09/l301.exe)
 Basis read from rwf:  (5D, 7F)
 No pseudopotential information found on rwf file.
 There are   138 symmetry adapted basis functions of A   symmetry.
 Integral buffers will be    131072 words long.
 Raffenetti 2 integral format.
 Two-electron integral symmetry is turned on.
   138 basis functions,   198 primitive gaussians,   160 cartesian basis functions
     9 alpha electrons        9 beta electrons
       nuclear repulsion energy        36.6636681782 Hartrees.
 IExCor=32609 DFT=T Ex+Corr=LC-wPBE ExCW=0 ScaHFX=  1.000000
 ScaDFX=  1.000000  0.000000  1.000000  1.000000 ScalE2=  1.000000  1.000000
 IRadAn=      5 IRanWt=     -1 IRanGd=            0 ICorTp=0
  HFx wShort=  0.000000 wLong=  0.550000 cFull=  0.000000 cShort=  0.000000 cLong=  1.000000
  DFx wShort=  0.000000 wLong=  0.550000 cFull=  0.000000 cShort=  0.000000 cLong=  1.000000
 NAtoms=    5 NActive=    4 NUniq=    4 SFac= 1.00D+00 NAtFMM=   60 NAOKFM=F Big=F
 No density basis found on file   718.
 Leave Link  301 at Fri May  8 08:49:42 2020, MaxMem= 1073741824 cpu:       0.2
 (Enter /home/matheus/.gaussian/g09/l302.exe)
 NPDir=0 NMtPBC=     1 NCelOv=     1 NCel=       1 NClECP=     1 NCelD=      1
         NCelK=      1 NCelE2=     1 NClLst=     1 CellRange=     0.0.
 One-electron integrals computed using PRISM.
 NBasis=   138 RedAO= T  NBF=   138
 NBsUse=   138 1.00D-06 NBFU=   138
 Precomputing XC quadrature grid using
 IXCGrd= 2 IRadAn=           5 IRanWt=          -1 IRanGd=           0 AccXCQ= 0.00D+00.
 NRdTot=     344 NPtTot=       92556 NUsed=       95038 NTot=       95070
 NSgBfM=   160   160   160   160   160 NAtAll=     4     4.
 Leave Link  302 at Fri May  8 08:49:42 2020, MaxMem= 1073741824 cpu:       0.8
 (Enter /home/matheus/.gaussian/g09/l303.exe)
 DipDrv:  MaxL=1.
 Leave Link  303 at Fri May  8 08:49:42 2020, MaxMem= 1073741824 cpu:       0.2
 (Enter /home/matheus/.gaussian/g09/l401.exe)
 Harris functional with IExCor=32609 diagonalized for initial guess.
 ExpMin= 2.53D-02 ExpMax= 1.53D+04 ExpMxC= 5.22D+02 IAcc=3 IRadAn=         5 AccDes= 0.00D+00
 HarFok:  IExCor=32609 AccDes= 0.00D+00 IRadAn=         5 IDoV= 1
 ScaDFX=  1.000000  1.000000  1.000000  1.000000
 FoFCou: FMM=F IPFlag=           0 FMFlag=      100000 FMFlg1=           0
         NFxFlg=           0 DoJE=T BraDBF=F KetDBF=T FulRan=T
         Omega=  0.000000  0.000000  1.000000  0.000000  0.000000 ICntrl=     500 IOpCl=  0
         NMat0=    1 NMatS0=    1 NMatT0=    0 NMatD0=    1 NMtDS0=    0 NMtDT0=    0
         I1Cent=           4 NGrid=           0.
 Petite list used in FoFCou.
 Harris En= -151.498971792361    
 Initial guess orbital symmetries:
       Occupied  (A) (A) (A) (A) (A) (A) (A) (A) (A)
       Virtual   (A) (A) (A) (A) (A) (A) (A) (A) (A) (A) (A) (A)
                 (A) (A) (A) (A) (A) (A) (A) (A) (A) (A) (A) (A)
                 (A) (A) (A) (A) (A) (A) (A) (A) (A) (A) (A) (A)
                 (A) (A) (A) (A) (A) (A) (A) (A) (A) (A) (A) (A)
                 (A) (A) (A) (A) (A) (A) (A) (A) (A) (A) (A) (A)
                 (A) (A) (A) (A) (A) (A) (A) (A) (A) (A) (A) (A)
                 (A) (A) (A) (A) (A) (A) (A) (A) (A) (A) (A) (A)
                 (A) (A) (A) (A) (A) (A) (A) (A) (A) (A) (A) (A)
                 (A) (A) (A) (A) (A) (A) (A) (A) (A) (A) (A) (A)
                 (A) (A) (A) (A) (A) (A) (A) (A) (A) (A) (A) (A)
                 (A) (A) (A) (A) (A) (A) (A) (A) (A)
 The electronic state of the initial guess is 1-A.
 Leave Link  401 at Fri May  8 08:49:43 2020, MaxMem= 1073741824 cpu:       2.4
 (Enter /home/matheus/.gaussian/g09/l502.exe)
 Closed shell SCF:
 Requested convergence on RMS density matrix=1.00D-08 within 128 cycles.
 Requested convergence on MAX density matrix=1.00D-06.
 Requested convergence on             energy=1.00D-06.
 No special actions if energy rises.
 Using DIIS extrapolation, IDIIS=  1040.
 Integral symmetry usage will be decided dynamically.
        94980 words used for storage of precomputed grid.
 IEnd=      192360 IEndB=      192360 NGot=  1073741824 MDV=  1073591865
 LenX=  1073591865 LenY=  1073565824
 Fock matrices will be formed incrementally for  20 cycles.

 Cycle   1  Pass 1  IDiag  1:
 FoFJK:  IHMeth= 1 ICntrl=     0 DoSepK=T KAlg= 1 I1Cent= 0 FoldK=F
 FoFCou: FMM=F IPFlag=           0 FMFlag=      100000 FMFlg1=           0
         NFxFlg=           0 DoJE=T BraDBF=F KetDBF=F FulRan=T
         Omega=  0.000000  0.000000  1.000000  0.000000  0.000000 ICntrl=     500 IOpCl=  0
         NMat0=    1 NMatS0=    1 NMatT0=    0 NMatD0=    1 NMtDS0=    0 NMtDT0=    0
         I1Cent=           0 NGrid=           0.
 Symmetry not used in FoFCou.
 E= -151.497639011293    
 DIIS: error= 2.07D-02 at cycle   1 NSaved=   1.
 NSaved= 1 IEnMin= 1 EnMin= -151.497639011293     IErMin= 1 ErrMin= 2.07D-02
 ErrMax= 2.07D-02 EMaxC= 1.00D-01 BMatC= 4.41D-02 BMatP= 4.41D-02
 IDIUse=3 WtCom= 7.93D-01 WtEn= 2.07D-01
 Coeff-Com:  0.100D+01
 Coeff-En:   0.100D+01
 Coeff:      0.100D+01
 Gap=     0.543 Goal=   None    Shift=    0.000
 GapD=    0.543 DampG=2.000 DampE=0.500 DampFc=1.0000 IDamp=-1.
 RMSDP=1.12D-03 MaxDP=2.33D-02              OVMax= 5.94D-02

 Cycle   2  Pass 1  IDiag  1:
 RMSU=  7.89D-04    CP:  9.94D-01
 FoFJK:  IHMeth= 1 ICntrl=     0 DoSepK=T KAlg= 1 I1Cent= 0 FoldK=F
 E= -151.515492632696     Delta-E=       -0.017853621403 Rises=F Damp=F
 DIIS: error= 1.34D-02 at cycle   2 NSaved=   2.
 NSaved= 2 IEnMin= 2 EnMin= -151.515492632696     IErMin= 2 ErrMin= 1.34D-02
 ErrMax= 1.34D-02 EMaxC= 1.00D-01 BMatC= 1.85D-02 BMatP= 4.41D-02
 IDIUse=3 WtCom= 8.66D-01 WtEn= 1.34D-01
 Coeff-Com:  0.382D+00 0.618D+00
 Coeff-En:   0.147D+00 0.853D+00
 Coeff:      0.350D+00 0.650D+00
 Gap=     0.457 Goal=   None    Shift=    0.000
 RMSDP=6.65D-04 MaxDP=2.26D-02 DE=-1.79D-02 OVMax= 2.62D-02

 Cycle   3  Pass 1  IDiag  1:
 RMSU=  3.25D-04    CP:  9.89D-01  5.74D-01
 FoFJK:  IHMeth= 1 ICntrl=     0 DoSepK=T KAlg= 1 I1Cent= 0 FoldK=F
 E= -151.526125717432     Delta-E=       -0.010633084736 Rises=F Damp=F
 DIIS: error= 2.28D-03 at cycle   3 NSaved=   3.
 NSaved= 3 IEnMin= 3 EnMin= -151.526125717432     IErMin= 3 ErrMin= 2.28D-03
 ErrMax= 2.28D-03 EMaxC= 1.00D-01 BMatC= 5.18D-04 BMatP= 1.85D-02
 IDIUse=3 WtCom= 9.77D-01 WtEn= 2.28D-02
 Coeff-Com:  0.420D-01 0.166D+00 0.792D+00
 Coeff-En:   0.000D+00 0.000D+00 0.100D+01
 Coeff:      0.411D-01 0.162D+00 0.797D+00
 Gap=     0.448 Goal=   None    Shift=    0.000
 RMSDP=8.37D-05 MaxDP=1.40D-03 DE=-1.06D-02 OVMax= 4.38D-03

 Cycle   4  Pass 1  IDiag  1:
 RMSU=  3.92D-05    CP:  9.88D-01  6.28D-01  1.00D+00
 FoFJK:  IHMeth= 1 ICntrl=     0 DoSepK=T KAlg= 1 I1Cent= 0 FoldK=F
 E= -151.526448565869     Delta-E=       -0.000322848437 Rises=F Damp=F
 DIIS: error= 3.42D-04 at cycle   4 NSaved=   4.
 NSaved= 4 IEnMin= 4 EnMin= -151.526448565869     IErMin= 4 ErrMin= 3.42D-04
 ErrMax= 3.42D-04 EMaxC= 1.00D-01 BMatC= 1.05D-05 BMatP= 5.18D-04
 IDIUse=3 WtCom= 9.97D-01 WtEn= 3.42D-03
 Coeff-Com: -0.100D-01-0.123D-01 0.848D-01 0.937D+00
 Coeff-En:   0.000D+00 0.000D+00 0.000D+00 0.100D+01
 Coeff:     -0.998D-02-0.122D-01 0.845D-01 0.938D+00
 Gap=     0.450 Goal=   None    Shift=    0.000
 RMSDP=1.71D-05 MaxDP=6.01D-04 DE=-3.23D-04 OVMax= 8.23D-04

 Cycle   5  Pass 1  IDiag  1:
 RMSU=  6.38D-06    CP:  9.88D-01  6.25D-01  1.03D+00  1.05D+00
 FoFJK:  IHMeth= 1 ICntrl=     0 DoSepK=T KAlg= 1 I1Cent= 0 FoldK=F
 E= -151.526457327161     Delta-E=       -0.000008761292 Rises=F Damp=F
 DIIS: error= 6.85D-05 at cycle   5 NSaved=   5.
 NSaved= 5 IEnMin= 5 EnMin= -151.526457327161     IErMin= 5 ErrMin= 6.85D-05
 ErrMax= 6.85D-05 EMaxC= 1.00D-01 BMatC= 2.12D-07 BMatP= 1.05D-05
 IDIUse=1 WtCom= 1.00D+00 WtEn= 0.00D+00
 Coeff-Com: -0.211D-03-0.173D-02-0.313D-01-0.118D+00 0.115D+01
 Coeff:     -0.211D-03-0.173D-02-0.313D-01-0.118D+00 0.115D+01
 Gap=     0.450 Goal=   None    Shift=    0.000
 RMSDP=4.56D-06 MaxDP=8.02D-05 DE=-8.76D-06 OVMax= 2.70D-04

 Cycle   6  Pass 1  IDiag  1:
 RMSU=  1.61D-06    CP:  9.88D-01  6.26D-01  1.03D+00  1.09D+00  1.30D+00
 FoFJK:  IHMeth= 1 ICntrl=     0 DoSepK=T KAlg= 1 I1Cent= 0 FoldK=F
 E= -151.526457840977     Delta-E=       -0.000000513816 Rises=F Damp=F
 DIIS: error= 1.48D-05 at cycle   6 NSaved=   6.
 NSaved= 6 IEnMin= 6 EnMin= -151.526457840977     IErMin= 6 ErrMin= 1.48D-05
 ErrMax= 1.48D-05 EMaxC= 1.00D-01 BMatC= 1.12D-08 BMatP= 2.12D-07
 IDIUse=1 WtCom= 1.00D+00 WtEn= 0.00D+00
 Coeff-Com:  0.211D-03 0.701D-03 0.572D-02 0.690D-02-0.271D+00 0.126D+01
 Coeff:      0.211D-03 0.701D-03 0.572D-02 0.690D-02-0.271D+00 0.126D+01
[...]

 Cycle   1  Pass 1  IDiag  1:
 FoFJK:  IHMeth= 1 ICntrl=     0 DoSepK=T KAlg= 1 I1Cent= 0 FoldK=F
 FoFCou: FMM=F IPFlag=           0 FMFlag=      100000 FMFlg1=           0
         NFxFlg=           0 DoJE=T BraDBF=F KetDBF=F FulRan=T
         Omega=  0.000000  0.000000  1.000000  0.000000  0.000000 ICntrl=     500 IOpCl=  0
         NMat0=    1 NMatS0=    1 NMatT0=    0 NMatD0=    1 NMtDS0=    0 NMtDT0=    0
         I1Cent=           0 NGrid=           0.
 Symmetry not used in FoFCou.
 E= -2753.47778103921    
 DIIS: error= 2.00D-04 at cycle   1 NSaved=   1.
 NSaved= 1 IEnMin= 1 EnMin= -2753.47778103921     IErMin= 1 ErrMin= 2.00D-04
 ErrMax= 2.00D-04 EMaxC= 1.00D-01 BMatC= 5.23D-06 BMatP= 5.23D-06
 IDIUse=3 WtCom= 9.98D-01 WtEn= 2.00D-03
 Coeff-Com:  0.100D+01
 Coeff-En:   0.100D+01
 Coeff:      0.100D+01
 Gap=     0.556 Goal=   None    Shift=    0.000
 RMSDP=1.34D-05 MaxDP=6.24D-04              OVMax= 3.46D-04

 Cycle   2  Pass 1  IDiag  1:
 RMSU=  9.49D-06    CP:  1.00D+00
 FoFJK:  IHMeth= 1 ICntrl=     0 DoSepK=T KAlg= 1 I1Cent= 0 FoldK=F
 E= -2753.47778173340     Delta-E=       -0.000000694188 Rises=F Damp=F
 DIIS: error= 6.45D-06 at cycle   2 NSaved=   2.
 NSaved= 2 IEnMin= 2 EnMin= -2753.47778173340     IErMin= 2 ErrMin= 6.45D-06
 ErrMax= 6.45D-06 EMaxC= 1.00D-01 BMatC= 5.15D-09 BMatP= 5.23D-06
 IDIUse=1 WtCom= 1.00D+00 WtEn= 0.00D+00
 Coeff-Com: -0.971D-02 0.101D+01
 Coeff:     -0.971D-02 0.101D+01
 Gap=     0.556 Goal=   None    Shift=    0.000
 RMSDP=1.22D-06 MaxDP=4.64D-05 DE=-6.94D-07 OVMax= 5.25D-05

 Cycle   3  Pass 1  IDiag  1:
 RMSU=  4.80D-07    CP:  1.00D+00  1.08D+00
 FoFJK:  IHMeth= 1 ICntrl=     0 DoSepK=T KAlg= 1 I1Cent= 0 FoldK=F
 E= -2753.47778174223     Delta-E=       -0.000000008833 Rises=F Damp=F
 DIIS: error= 9.12D-07 at cycle   3 NSaved=   3.
 NSaved= 3 IEnMin= 3 EnMin= -2753.47778174223     IErMin= 3 ErrMin= 9.12D-07
 ErrMax= 9.12D-07 EMaxC= 1.00D-01 BMatC= 1.22D-10 BMatP= 5.15D-09
 IDIUse=1 WtCom= 1.00D+00 WtEn= 0.00D+00
 Coeff-Com:  0.321D-03-0.126D+00 0.113D+01
 Coeff:      0.321D-03-0.126D+00 0.113D+01
 Gap=     0.556 Goal=   None    Shift=    0.000
 RMSDP=1.69D-07 MaxDP=5.89D-06 DE=-8.83D-09 OVMax= 1.05D-05

 Cycle   4  Pass 1  IDiag  1:
 RMSU=  5.07D-08    CP:  1.00D+00  1.08D+00  1.21D+00
 FoFJK:  IHMeth= 1 ICntrl=     0 DoSepK=T KAlg= 1 I1Cent= 0 FoldK=F
 E= -2753.47778174247     Delta-E=       -0.000000000244 Rises=F Damp=F
 DIIS: error= 3.63D-07 at cycle   4 NSaved=   4.
 NSaved= 4 IEnMin= 4 EnMin= -2753.47778174247     IErMin= 4 ErrMin= 3.63D-07
 ErrMax= 3.63D-07 EMaxC= 1.00D-01 BMatC= 6.64D-12 BMatP= 1.22D-10
 IDIUse=1 WtCom= 1.00D+00 WtEn= 0.00D+00
 Coeff-Com:  0.192D-03-0.379D-01 0.217D+00 0.821D+00
 Coeff:      0.192D-03-0.379D-01 0.217D+00 0.821D+00
 Gap=     0.556 Goal=   None    Shift=    0.000
 RMSDP=2.04D-08 MaxDP=7.53D-07 DE=-2.44D-10 OVMax= 1.04D-06

 Cycle   5  Pass 1  IDiag  1:
 RMSU=  7.89D-09    CP:  1.00D+00  1.08D+00  1.23D+00  1.13D+00
 FoFJK:  IHMeth= 1 ICntrl=     0 DoSepK=T KAlg= 1 I1Cent= 0 FoldK=F
 E= -2753.47778174249     Delta-E=       -0.000000000014 Rises=F Damp=F
 DIIS: error= 2.83D-08 at cycle   5 NSaved=   5.
 NSaved= 5 IEnMin= 5 EnMin= -2753.47778174249     IErMin= 5 ErrMin= 2.83D-08
 ErrMax= 2.83D-08 EMaxC= 1.00D-01 BMatC= 2.02D-13 BMatP= 6.64D-12
 IDIUse=1 WtCom= 1.00D+00 WtEn= 0.00D+00
 Coeff-Com: -0.235D-04 0.722D-02-0.595D-01-0.204D-01 0.107D+01
 Coeff:     -0.235D-04 0.722D-02-0.595D-01-0.204D-01 0.107D+01
 Gap=     0.556 Goal=   None    Shift=    0.000
 RMSDP=7.94D-09 MaxDP=3.33D-07 DE=-1.36D-11 OVMax= 3.63D-07

 SCF Done:  E(RLC-wPBE) =  -2753.47778174     A.U. after    5 cycles
             Convg  =    0.7937D-08             -V/T =  2.0014
 KE= 2.749555064132D+03 PE=-6.579092976912D+03 EE= 1.076060131038D+03
 Leave Link  502 at Fri May  8 09:13:20 2020, MaxMem= 1073741824 cpu:     106.0
 (Enter /home/matheus/.gaussian/g09/l122.exe)
 Restoring MOs from calculation   4 to rwf.
 Counterpoise: doing MCBS calculation for fragment   1
 Leave Link  122 at Fri May  8 09:13:20 2020, MaxMem= 1073741824 cpu:       0.0
 (Enter /home/matheus/.gaussian/g09/l301.exe)
 Basis read from rwf:  (5D, 7F)
 No pseudopotential information found on rwf file.
 There are   138 symmetry adapted basis functions of A   symmetry.
 Integral buffers will be    131072 words long.
 Raffenetti 2 integral format.
 Two-electron integral symmetry is turned on.
   138 basis functions,   198 primitive gaussians,   160 cartesian basis functions
     9 alpha electrons        9 beta electrons
       nuclear repulsion energy        36.6636681782 Hartrees.
 IExCor=32609 DFT=T Ex+Corr=LC-wPBE ExCW=0 ScaHFX=  1.000000
 ScaDFX=  1.000000  0.000000  1.000000  1.000000 ScalE2=  1.000000  1.000000
 IRadAn=      5 IRanWt=     -1 IRanGd=            0 ICorTp=0
  HFx wShort=  0.000000 wLong=  0.550000 cFull=  0.000000 cShort=  0.000000 cLong=  1.000000
  DFx wShort=  0.000000 wLong=  0.550000 cFull=  0.000000 cShort=  0.000000 cLong=  1.000000
 NAtoms=    5 NActive=    4 NUniq=    4 SFac= 1.00D+00 NAtFMM=   60 NAOKFM=F Big=F
 No density basis found on file   718.
 Leave Link  301 at Fri May  8 09:13:20 2020, MaxMem= 1073741824 cpu:       0.2
 (Enter /home/matheus/.gaussian/g09/l302.exe)
 NPDir=0 NMtPBC=     1 NCelOv=     1 NCel=       1 NClECP=     1 NCelD=      1
         NCelK=      1 NCelE2=     1 NClLst=     1 CellRange=     0.0.
 One-electron integrals computed using PRISM.
 NBasis=   138 RedAO= T  NBF=   138
 NBsUse=   138 1.00D-06 NBFU=   138
 Precomputing XC quadrature grid using
 IXCGrd= 2 IRadAn=           5 IRanWt=          -1 IRanGd=           0 AccXCQ= 0.00D+00.
 NRdTot=     344 NPtTot=       92556 NUsed=       95038 NTot=       95070
 NSgBfM=   160   160   160   160   160 NAtAll=     4     4.
 Leave Link  302 at Fri May  8 09:13:21 2020, MaxMem= 1073741824 cpu:       0.8
 (Enter /home/matheus/.gaussian/g09/l303.exe)
 DipDrv:  MaxL=1.
 Leave Link  303 at Fri May  8 09:13:21 2020, MaxMem= 1073741824 cpu:       0.2
 (Enter /home/matheus/.gaussian/g09/l401.exe)
 Initial guess read from the read-write file.
 Guess basis will be translated and rotated to current coordinates.
 Initial guess orbital symmetries:
       Occupied  (A) (A) (A) (A) (A) (A) (A) (A) (A)
       Virtual   (A) (A) (A) (A) (A) (A) (A) (A) (A) (A) (A) (A)
                 (A) (A) (A) (A) (A) (A) (A) (A) (A) (A) (A) (A)
                 (A) (A) (A) (A) (A) (A) (A) (A) (A) (A) (A) (A)
                 (A) (A) (A) (A) (A) (A) (A) (A) (A) (A) (A) (A)
                 (A) (A) (A) (A) (A) (A) (A) (A) (A) (A) (A) (A)
                 (A) (A) (A) (A) (A) (A) (A) (A) (A) (A) (A) (A)
                 (A) (A) (A) (A) (A) (A) (A) (A) (A) (A) (A) (A)
                 (A) (A) (A) (A) (A) (A) (A) (A) (A) (A) (A) (A)
                 (A) (A) (A) (A) (A) (A) (A) (A) (A) (A) (A) (A)
                 (A) (A) (A) (A) (A) (A) (A) (A) (A) (A) (A) (A)
                 (A) (A) (A) (A) (A) (A) (A) (A) (A)
 The electronic state of the initial guess is 1-A.
 Generating alternative initial guess.
 Harris functional with IExCor=32609 diagonalized for initial guess.
 ExpMin= 2.53D-02 ExpMax= 1.53D+04 ExpMxC= 5.22D+02 IAcc=3 IRadAn=         5 AccDes= 0.00D+00
 HarFok:  IExCor=32609 AccDes= 0.00D+00 IRadAn=         5 IDoV= 1
 ScaDFX=  1.000000  1.000000  1.000000  1.000000
 FoFCou: FMM=F IPFlag=           0 FMFlag=      100000 FMFlg1=           0
         NFxFlg=           0 DoJE=T BraDBF=F KetDBF=T FulRan=T
         Omega=  0.000000  0.000000  1.000000  0.000000  0.000000 ICntrl=     500 IOpCl=  0
         NMat0=    1 NMatS0=    1 NMatT0=    0 NMatD0=    1 NMtDS0=    0 NMtDT0=    0
         I1Cent=           4 NGrid=           0.
 Petite list used in FoFCou.
 Harris En= -151.498971791333    
 Leave Link  401 at Fri May  8 09:13:21 2020, MaxMem= 1073741824 cpu:       2.8
 (Enter /home/matheus/.gaussian/g09/l502.exe)
 Closed shell SCF:
 Requested convergence on RMS density matrix=1.00D-08 within 128 cycles.
 Requested convergence on MAX density matrix=1.00D-06.
 Requested convergence on             energy=1.00D-06.
 No special actions if energy rises.
 Using DIIS extrapolation, IDIIS=  1040.
 Integral symmetry usage will be decided dynamically.
        94980 words used for storage of precomputed grid.
 IEnd=      192360 IEndB=      192360 NGot=  1073741824 MDV=  1073591865
 LenX=  1073591865 LenY=  1073565824
 Fock matrices will be formed incrementally for  20 cycles.

 Cycle   1  Pass 1  IDiag  1:
 FoFJK:  IHMeth= 1 ICntrl=     0 DoSepK=T KAlg= 1 I1Cent= 0 FoldK=F
 FoFCou: FMM=F IPFlag=           0 FMFlag=      100000 FMFlg1=           0
         NFxFlg=           0 DoJE=T BraDBF=F KetDBF=F FulRan=T
         Omega=  0.000000  0.000000  1.000000  0.000000  0.000000 ICntrl=     500 IOpCl=  0
         NMat0=    1 NMatS0=    1 NMatT0=    0 NMatD0=    1 NMtDS0=    0 NMtDT0=    0
         I1Cent=           0 NGrid=           0.
 Symmetry not used in FoFCou.
 E= -151.526457881238    
 DIIS: error= 1.73D-06 at cycle   1 NSaved=   1.
 NSaved= 1 IEnMin= 1 EnMin= -151.526457881238     IErMin= 1 ErrMin= 1.73D-06
 ErrMax= 1.73D-06 EMaxC= 1.00D-01 BMatC= 4.60D-10 BMatP= 4.60D-10
 IDIUse=1 WtCom= 1.00D+00 WtEn= 0.00D+00
 Coeff-Com:  0.100D+01
 Coeff:      0.100D+01
 Gap=     0.450 Goal=   None    Shift=    0.000
 RMSDP=1.66D-07 MaxDP=3.96D-06              OVMax= 5.99D-06

 Cycle   2  Pass 1  IDiag  1:
 RMSU=  1.18D-07    CP:  1.00D+00
 FoFJK:  IHMeth= 1 ICntrl=     0 DoSepK=T KAlg= 1 I1Cent= 0 FoldK=F
 E= -151.526457881677     Delta-E=       -0.000000000439 Rises=F Damp=F
 DIIS: error= 3.84D-07 at cycle   2 NSaved=   2.
 NSaved= 2 IEnMin= 2 EnMin= -151.526457881677     IErMin= 2 ErrMin= 3.84D-07
 ErrMax= 3.84D-07 EMaxC= 1.00D-01 BMatC= 2.07D-11 BMatP= 4.60D-10
 IDIUse=1 WtCom= 1.00D+00 WtEn= 0.00D+00
 Coeff-Com: -0.147D+00 0.115D+01
 Coeff:     -0.147D+00 0.115D+01
 Gap=     0.450 Goal=   None    Shift=    0.000
 RMSDP=4.35D-08 MaxDP=1.34D-06 DE=-4.39D-10 OVMax= 2.15D-06

 Cycle   3  Pass 1  IDiag  1:
 RMSU=  1.26D-08    CP:  1.00D+00  1.24D+00
 FoFJK:  IHMeth= 1 ICntrl=     0 DoSepK=T KAlg= 1 I1Cent= 0 FoldK=F
 E= -151.526457881712     Delta-E=       -0.000000000035 Rises=F Damp=F
 DIIS: error= 1.21D-07 at cycle   3 NSaved=   3.
 NSaved= 3 IEnMin= 3 EnMin= -151.526457881712     IErMin= 3 ErrMin= 1.21D-07
 ErrMax= 1.21D-07 EMaxC= 1.00D-01 BMatC= 9.26D-13 BMatP= 2.07D-11
 IDIUse=1 WtCom= 1.00D+00 WtEn= 0.00D+00
 Coeff-Com: -0.112D-01-0.616D-01 0.107D+01
 Coeff:     -0.112D-01-0.616D-01 0.107D+01
 Gap=     0.450 Goal=   None    Shift=    0.000
 RMSDP=1.09D-08 MaxDP=3.07D-07 DE=-3.47D-11 OVMax= 7.61D-07

 Cycle   4  Pass 1  IDiag  1:
 RMSU=  3.09D-09    CP:  1.00D+00  1.29D+00  1.27D+00
 FoFJK:  IHMeth= 1 ICntrl=     0 DoSepK=T KAlg= 1 I1Cent= 0 FoldK=F
 E= -151.526457881714     Delta-E=       -0.000000000002 Rises=F Damp=F
 DIIS: error= 3.93D-08 at cycle   4 NSaved=   4.
 NSaved= 4 IEnMin= 4 EnMin= -151.526457881714     IErMin= 4 ErrMin= 3.93D-08
 ErrMax= 3.93D-08 EMaxC= 1.00D-01 BMatC= 1.76D-13 BMatP= 9.26D-13
 IDIUse=1 WtCom= 1.00D+00 WtEn= 0.00D+00
 Coeff-Com:  0.847D-02-0.932D-01 0.123D+00 0.962D+00
 Coeff:      0.847D-02-0.932D-01 0.123D+00 0.962D+00
 Gap=     0.450 Goal=   None    Shift=    0.000
 RMSDP=3.71D-09 MaxDP=7.88D-08 DE=-2.19D-12 OVMax= 2.91D-07

 SCF Done:  E(RLC-wPBE) =  -151.526457882     A.U. after    4 cycles
             Convg  =    0.3708D-08             -V/T =  2.0069
 KE= 1.504928920182D+02 PE=-4.316131522394D+02 EE= 9.293013416123D+01
 Leave Link  502 at Fri May  8 09:13:25 2020, MaxMem= 1073741824 cpu:      34.7
 (Enter /home/matheus/.gaussian/g09/l122.exe)
 Restoring MOs from calculation   5 to rwf.
 Counterpoise: doing MCBS calculation for fragment   2
 Leave Link  122 at Fri May  8 09:13:25 2020, MaxMem= 1073741824 cpu:       0.0
 (Enter /home/matheus/.gaussian/g09/l301.exe)
 Basis read from rwf:  (5D, 7F)
 No pseudopotential information found on rwf file.
 There are    59 symmetry adapted basis functions of A   symmetry.
 Integral buffers will be    131072 words long.
 Raffenetti 2 integral format.
 Two-electron integral symmetry is turned on.
    59 basis functions,   217 primitive gaussians,    69 cartesian basis functions
    18 alpha electrons       18 beta electrons
       nuclear repulsion energy         0.0000000000 Hartrees.
 IExCor=32609 DFT=T Ex+Corr=LC-wPBE ExCW=0 ScaHFX=  1.000000
 ScaDFX=  1.000000  0.000000  1.000000  1.000000 ScalE2=  1.000000  1.000000
 IRadAn=      5 IRanWt=     -1 IRanGd=            0 ICorTp=0
  HFx wShort=  0.000000 wLong=  0.550000 cFull=  0.000000 cShort=  0.000000 cLong=  1.000000
  DFx wShort=  0.000000 wLong=  0.550000 cFull=  0.000000 cShort=  0.000000 cLong=  1.000000
 NAtoms=    5 NActive=    1 NUniq=    1 SFac= 1.00D+00 NAtFMM=   60 NAOKFM=F Big=F
 No density basis found on file   718.
 Leave Link  301 at Fri May  8 09:13:25 2020, MaxMem= 1073741824 cpu:       0.2
 (Enter /home/matheus/.gaussian/g09/l302.exe)
 NPDir=0 NMtPBC=     1 NCelOv=     1 NCel=       1 NClECP=     1 NCelD=      1
         NCelK=      1 NCelE2=     1 NClLst=     1 CellRange=     0.0.
 One-electron integrals computed using PRISM.
 NBasis=    59 RedAO= T  NBF=    59
 NBsUse=    59 1.00D-06 NBFU=    59
 Precomputing XC quadrature grid using
 IXCGrd= 2 IRadAn=           5 IRanWt=          -1 IRanGd=           0 AccXCQ= 0.00D+00.
 NRdTot=      81 NPtTot=       30352 NUsed=       30981 NTot=       31013
 NSgBfM=    69    69    69    69    69 NAtAll=     1     1.
 Leave Link  302 at Fri May  8 09:13:25 2020, MaxMem= 1073741824 cpu:       0.7
 (Enter /home/matheus/.gaussian/g09/l303.exe)
 DipDrv:  MaxL=1.
 Leave Link  303 at Fri May  8 09:13:25 2020, MaxMem= 1073741824 cpu:       0.1
 (Enter /home/matheus/.gaussian/g09/l401.exe)
 Initial guess read from the read-write file.
 Guess basis will be translated and rotated to current coordinates.
 Initial guess orbital symmetries:
       Occupied  (A) (A) (A) (A) (A) (A) (A) (A) (A) (A) (A) (A)
                 (A) (A) (A) (A) (A) (A)
       Virtual   (A) (A) (A) (A) (A) (A) (A) (A) (A) (A) (A) (A)
                 (A) (A) (A) (A) (A) (A) (A) (A) (A) (A) (A) (A)
                 (A) (A) (A) (A) (A) (A) (A) (A) (A) (A) (A) (A)
                 (A) (A) (A) (A) (A)
 The electronic state of the initial guess is 1-A.
 Generating alternative initial guess.
 Harris functional with IExCor=32609 diagonalized for initial guess.
 ExpMin= 4.00D-02 ExpMax= 1.17D+07 ExpMxC= 1.33D+04 IAcc=3 IRadAn=         5 AccDes= 0.00D+00
 HarFok:  IExCor=32609 AccDes= 0.00D+00 IRadAn=         5 IDoV= 1
 ScaDFX=  1.000000  1.000000  1.000000  1.000000
 FoFCou: FMM=F IPFlag=           0 FMFlag=      100000 FMFlg1=           0
         NFxFlg=           0 DoJE=T BraDBF=F KetDBF=T FulRan=T
         Omega=  0.000000  0.000000  1.000000  0.000000  0.000000 ICntrl=     500 IOpCl=  0
         NMat0=    1 NMatS0=    1 NMatT0=    0 NMatD0=    1 NMtDS0=    0 NMtDT0=    0
         I1Cent=           4 NGrid=           0.
 Petite list used in FoFCou.
 Harris En= -2753.24576836237    
 Leave Link  401 at Fri May  8 09:13:26 2020, MaxMem= 1073741824 cpu:       1.1
 (Enter /home/matheus/.gaussian/g09/l502.exe)
 Closed shell SCF:
 Requested convergence on RMS density matrix=1.00D-08 within 128 cycles.
 Requested convergence on MAX density matrix=1.00D-06.
 Requested convergence on             energy=1.00D-06.
 No special actions if energy rises.
 Using DIIS extrapolation, IDIIS=  1040.
 Integral symmetry usage will be decided dynamically.
        30923 words used for storage of precomputed grid.
 IEnd=       64406 IEndB=       64406 NGot=  1073741824 MDV=  1073698889
 LenX=  1073698889 LenY=  1073693687
 Fock matrices will be formed incrementally for  20 cycles.

 Cycle   1  Pass 1  IDiag  1:
 FoFJK:  IHMeth= 1 ICntrl=     0 DoSepK=T KAlg= 1 I1Cent= 0 FoldK=F
 FoFCou: FMM=F IPFlag=           0 FMFlag=      100000 FMFlg1=           0
         NFxFlg=           0 DoJE=T BraDBF=F KetDBF=F FulRan=T
         Omega=  0.000000  0.000000  1.000000  0.000000  0.000000 ICntrl=     500 IOpCl=  0
         NMat0=    1 NMatS0=    1 NMatT0=    0 NMatD0=    1 NMtDS0=    0 NMtDT0=    0
         I1Cent=           0 NGrid=           0.
 Symmetry not used in FoFCou.
 E= -2753.47775989058    
 DIIS: error= 1.21D-13 at cycle   1 NSaved=   1.
 NSaved= 1 IEnMin= 1 EnMin= -2753.47775989058     IErMin= 1 ErrMin= 1.21D-13
 ErrMax= 1.21D-13 EMaxC= 1.00D-01 BMatC= 3.25D-25 BMatP= 3.25D-25
 IDIUse=1 WtCom= 1.00D+00 WtEn= 0.00D+00
 Coeff-Com:  0.100D+01
 Coeff:      0.100D+01
 Gap=     0.626 Goal=   None    Shift=    0.000
 DSYEVD returned Info=          89 IAlg= 4 N=    59 NDim=    59 NE2=    18198197 trying DSYEV.
 RMSDP=5.89D-15 MaxDP=1.56D-13              OVMax= 3.32D-14

 SCF Done:  E(RLC-wPBE) =  -2753.47775989     A.U. after    1 cycles
             Convg  =    0.5893D-14             -V/T =  2.0014
 KE= 2.749561508178D+03 PE=-6.579099712888D+03 EE= 1.076060444820D+03
 Leave Link  502 at Fri May  8 09:13:27 2020, MaxMem= 1073741824 cpu:      12.3
 (Enter /home/matheus/.gaussian/g09/l122.exe)
 Restoring MOs from calculation   1 to rwf.
 Counterpoise: corrected energy =   -2905.004328488828
 Counterpoise: BSSE energy =       0.000024883112
 Leave Link  122 at Fri May  8 09:13:27 2020, MaxMem= 1073741824 cpu:       0.0
 (Enter /home/matheus/.gaussian/g09/l108.exe)
 Scan completed.

 Summary of the potential surface scan:
   N      R1          SCF    
 ----  ---------  -----------
    1     3.0000  -2753.47776
    2     3.1000  -2753.47776
    3     3.2000  -2753.47776
    4     3.3000  -2753.47776
    5     3.4000  -2753.47776
    6     3.5000  -2753.47776
    7     3.6000  -2753.47776
    8     3.7000  -2753.47776
    9     3.8000  -2753.47776
   10     3.9000  -2753.47776
   11     4.0000  -2753.47776
   12     4.1000  -2753.47776
   13     4.2000  -2753.47776
   14     4.3000  -2753.47776
   15     4.4000  -2753.47776
   16     4.5000  -2753.47776
   17     4.6000  -2753.47776
   18     4.7000  -2753.47776
   19     4.8000  -2753.47776
   20     4.9000  -2753.47776
   21     5.0000  -2753.47776
 ----  ---------  -----------
  
 Leave Link  108 at Fri May  8 09:13:27 2020, MaxMem= 1073741824 cpu:       0.0
 (Enter /home/matheus/.gaussian/g09/l9999.exe)

 Test job not archived.
 1\1\GINC-REDGIANT\Scan\RLC-wPBE\Aug-CC-pVTZ\H2Kr1O2\MATHEUS\08-May-202
 0\1\\#p lc-wpbe/aug-cc-PVTz iop(3/107=0550000000) iop(3/108=0550000000
 ) int=ultrafine counterpoise=2 Scan\\TCC\\0,1\O,0,0.,0.,0.725\O,0,0.,0
 .,-0.725\H,0,0.3142209495,0.8633149634,1.0235104166\H,0,0.,0.918720594
 7,-1.0235104166\Kr,0,0.,R1,0.\\R1=3.,s,20,0.1\\Version=EM64L-G09RevC.0
 1\State=1-A\HF=-2753.4777599,-2753.4777599,-2753.4777599,-2753.4777599
 ,-2753.4777599,-2753.4777599,-2753.4777599,-2753.4777599,-2753.4777599
 ,-2753.4777599,-2753.4777599,-2753.4777599,-2753.4777599,-2753.4777599
 ,-2753.4777599,-2753.4777599,-2753.4777599,-2753.4777599,-2753.4777599
 ,-2753.4777599,-2753.4777599\RMSD=1.997e-09,5.420e-11,1.020e-11,4.442e
 -12,2.190e-12,1.226e-12,6.738e-13,3.808e-13,2.218e-13,1.244e-13,7.045e
 -14,4.999e-14,3.480e-14,2.032e-14,9.222e-15,1.112e-14,8.689e-15,6.742e
 -15,7.855e-15,8.062e-15,5.893e-15\PG=C01 [X(H2Kr1O2)]\\@


 I (ERNEST RUTHERFORD) CAME INTO THE ROOM, WHICH WAS HALF DARK, AND PRESENTLY
 SPOTTED LORD KELVIN IN THE AUDIENCE AND REALIZED I WAS IN TROUBLE AT
 THE LAST PART OF MY SPEECH DEALING THE AGE OF THE EARTH, WHERE MY VIEWS
 CONFLICTED WITH HIS.  TO MY RELIEF KELVIN FELL FAST ASLEEP, BUT AS I CAME
 TO THE IMPORTANT POINT, I SAW THE OLD BIRD SIT UP AND COCK A BALEFUL GLANCE
 AT ME! THEN A SUDDEN INSPIRATION CAME AND I SAID LORD KELVIN HAD LIMITED
 THE AGE OF THE EARTH PROVIDED NO NEW SOURCE WAS DISCOVERED. THAT
 PROPHETIC UTTERANCE REFERS TO WHAT WE ARE NOW CONSIDERING TONIGHT, RADIUM!
 BEHOLD!  THE OLD BOY BEAMED UPON ME.
 Job cpu time:  0 days  3 hours 22 minutes 52.9 seconds.
 File lengths (MBytes):  RWF=     33 Int=      0 D2E=      0 Chk=      8 Scr=      1
 Normal termination of Gaussian 09 at Fri May  8 09:13:27 2020.
