 Entering Gaussian System, Link 0=g09
 Input=/home/matheus/.tcc/Inputs-lc-wpbe/H2O2-Kr_8.com
 Output=/home/matheus/.tcc/Logs-lc-wpbe/H2O2-Kr_8.log
 Initial command:
 /home/matheus/.gaussian/g09/l1.exe /home/matheus/.gaussian/g09/scratch/Gau-11333.inp -scrdir=/home/matheus/.gaussian/g09/scratch/
 Entering Link 1 = /home/matheus/.gaussian/g09/l1.exe PID=     11336.
  
 Copyright (c) 1988,1990,1992,1993,1995,1998,2003,2009,2011,
            Gaussian, Inc.  All Rights Reserved.
  
 This is part of the Gaussian(R) 09 program.  It is based on
 the Gaussian(R) 03 system (copyright 2003, Gaussian, Inc.),
 the Gaussian(R) 98 system (copyright 1998, Gaussian, Inc.),
 the Gaussian(R) 94 system (copyright 1995, Gaussian, Inc.),
 the Gaussian 92(TM) system (copyright 1992, Gaussian, Inc.),
 the Gaussian 90(TM) system (copyright 1990, Gaussian, Inc.),
 the Gaussian 88(TM) system (copyright 1988, Gaussian, Inc.),
 the Gaussian 86(TM) system (copyright 1986, Carnegie Mellon
 University), and the Gaussian 82(TM) system (copyright 1983,
 Carnegie Mellon University). Gaussian is a federally registered
 trademark of Gaussian, Inc.
  
 This software contains proprietary and confidential information,
 including trade secrets, belonging to Gaussian, Inc.
  
 This software is provided under written license and may be
 used, copied, transmitted, or stored only in accord with that
 written license.
  
 The following legend is applicable only to US Government
 contracts under FAR:
  
                    RESTRICTED RIGHTS LEGEND
  
 Use, reproduction and disclosure by the US Government is
 subject to restrictions as set forth in subparagraphs (a)
 and (c) of the Commercial Computer Software - Restricted
 Rights clause in FAR 52.227-19.
  
 Gaussian, Inc.
 340 Quinnipiac St., Bldg. 40, Wallingford CT 06492
  
  
 ---------------------------------------------------------------
 Warning -- This program may not be used in any manner that
 competes with the business of Gaussian, Inc. or will provide
 assistance to any competitor of Gaussian, Inc.  The licensee
 of this program is prohibited from giving any competitor of
 Gaussian, Inc. access to this program.  By using this program,
 the user acknowledges that Gaussian, Inc. is engaged in the
 business of creating and licensing software in the field of
 computational chemistry and represents and warrants to the
 licensee that it is not a competitor of Gaussian, Inc. and that
 it will not use this program in any manner prohibited above.
 ---------------------------------------------------------------
  

 Cite this work as:
 Gaussian 09, Revision C.01,
 M. J. Frisch, G. W. Trucks, H. B. Schlegel, G. E. Scuseria, 
 M. A. Robb, J. R. Cheeseman, G. Scalmani, V. Barone, B. Mennucci, 
 G. A. Petersson, H. Nakatsuji, M. Caricato, X. Li, H. P. Hratchian, 
 A. F. Izmaylov, J. Bloino, G. Zheng, J. L. Sonnenberg, M. Hada, 
 M. Ehara, K. Toyota, R. Fukuda, J. Hasegawa, M. Ishida, T. Nakajima, 
 Y. Honda, O. Kitao, H. Nakai, T. Vreven, J. A. Montgomery, Jr., 
 J. E. Peralta, F. Ogliaro, M. Bearpark, J. J. Heyd, E. Brothers, 
 K. N. Kudin, V. N. Staroverov, T. Keith, R. Kobayashi, J. Normand, 
 K. Raghavachari, A. Rendell, J. C. Burant, S. S. Iyengar, J. Tomasi, 
 M. Cossi, N. Rega, J. M. Millam, M. Klene, J. E. Knox, J. B. Cross, 
 V. Bakken, C. Adamo, J. Jaramillo, R. Gomperts, R. E. Stratmann, 
 O. Yazyev, A. J. Austin, R. Cammi, C. Pomelli, J. W. Ochterski, 
 R. L. Martin, K. Morokuma, V. G. Zakrzewski, G. A. Voth, 
 P. Salvador, J. J. Dannenberg, S. Dapprich, A. D. Daniels, 
 O. Farkas, J. B. Foresman, J. V. Ortiz, J. Cioslowski, 
 and D. J. Fox, Gaussian, Inc., Wallingford CT, 2010.
 
 ******************************************
 Gaussian 09:  EM64L-G09RevC.01 23-Sep-2011
                 8-May-2020 
 ******************************************
 %mem=8GB
 %nproc=8
 Will use up to    8 processors via shared memory.
 ----------------------------------------------------------------------
 #p lc-wpbe/aug-cc-PVTz iop(3/107=0550000000) iop(3/108=0550000000) int
 =ultrafine counterpoise=2 Scan
 ----------------------------------------------------------------------
 1/38=1,60=1,62=2/1,8;
 2/12=2,17=6,18=5,29=3,40=1/2;
 1/38=1,53=5172,62=2/22;
 3/5=16,6=1,7=10,11=2,16=1,25=1,30=1,74=-41,75=-5,107=550000000,108=550000000/1,2,3;
 4//1;
 5/5=2,38=5/2;
 6/7=2,8=2,9=2,10=2,18=1,28=1/1;
 1/53=4052,62=2,63=1/22;
 3/5=7,6=11,7=10,11=2,16=1,25=1,30=1,74=-41,75=-5,82=7,107=550000000,108=550000000/1,2,3;
 4//1;
 5/5=2,38=5/2;
 6/7=2,8=2,9=2,10=2,18=1,28=1/1;
 1/53=3042,62=2,63=2/22;
 3/5=7,6=11,7=10,11=2,16=1,25=1,30=1,74=-41,75=-5,82=7,107=550000000,108=550000000/1,2,3;
 4//1;
 5/5=2,38=5/2;
 6/7=2,8=2,9=2,10=2,18=1,28=1/1;
 1/53=2032,62=2,63=3/22;
 3/5=7,6=11,7=10,11=2,16=1,25=1,30=1,74=-41,75=-5,82=7,107=550000000,108=550000000/1,2,3;
 4//1;
 5/5=2,38=5/2;
 6/7=2,8=2,9=2,10=2,18=1,28=1/1;
 1/53=1022,62=2,63=4/22;
 3/5=7,6=11,7=10,11=2,16=1,25=1,30=1,74=-41,75=-5,82=7,107=550000000,108=550000000/1,2,3;
 4//1;
 5/5=2,38=5/2;
 6/7=2,8=2,9=2,10=2,18=1,28=1/1;
 1/53=5014,62=2,63=5/22;
 1/60=1,62=2/8(1);
 99/9=1/99;
 2/29=3/2;
 1/53=5173,62=2/22;
 3/5=7,6=11,7=10,11=2,16=1,25=1,30=1,74=-41,75=-5,82=7,107=550000000,108=550000000/1,2,3;
 4/5=5,16=3/1;
 5/5=2,38=5/2;
 1/53=4053,62=2,63=1/22;
 3/5=7,6=11,7=10,11=2,16=1,25=1,30=1,74=-41,75=-5,82=7,107=550000000,108=550000000/1,2,3;
 4/5=5,16=3/1;
 5/5=2,38=5/2;
 1/53=3043,62=2,63=2/22;
 3/5=7,6=11,7=10,11=2,16=1,25=1,30=1,74=-41,75=-5,82=7,107=550000000,108=550000000/1,2,3;
 4/5=5,16=3/1;
 5/5=2,38=5/2;
 1/53=2033,62=2,63=3/22;
 3/5=7,6=11,7=10,11=2,16=1,25=1,30=1,74=-41,75=-5,82=7,107=550000000,108=550000000/1,2,3;
 4/5=5,16=3/1;
 5/5=2,38=5/2;
 1/53=1024,62=2,63=4/22;
 3/5=7,6=11,7=10,11=2,16=1,25=1,30=1,74=-41,75=-5,82=7,107=550000000,108=550000000/1,2,3;
 4/5=5,16=3/1;
 5/5=2,38=5/2;
 1/53=5014,62=2,63=5/22;
 1/60=1,62=2/8(-22);
 99/9=1/99;
 Leave Link    1 at Fri May  8 11:26:07 2020, MaxMem= 1073741824 cpu:       0.2
 (Enter /home/matheus/.gaussian/g09/l101.exe)
 ---
 TCC
 ---
 Charge =  0 Multiplicity = 1 in supermolecule
 Charge =  0 Multiplicity = 1 in fragment  1.
 Charge =  0 Multiplicity = 1 in fragment  2.
 Symbolic Z-Matrix:
 O(Fragment=1)         0.        0.        0.725 
 O(Fragment=1)         0.        0.       -0.725 
 H(Fragment=1)         0.90476   0.15953   1.02351 
 H(Fragment=1)         0.        0.91872  -1.02351 
 Kr(Fragment=2)        0.       R1        0. 
       Variables:
  R1                    3.     Scan 20    0.1    
 
 NAtoms=      5 NQM=        0 NQMF=       0 NMMI=      5 NMMIF=      0
                NMic=       0 NMicF=      0.
                    Isotopes and Nuclear Properties:
 (Nuclear quadrupole moments (NQMom) in fm**2, nuclear magnetic moments (NMagM)
  in nuclear magnetons)

  Atom         1           2           3           4           5
 IAtWgt=          16          16           1           1          84
 AtmWgt=  15.9949146  15.9949146   1.0078250   1.0078250  83.9115064
 NucSpn=           0           0           1           1           0
 AtZEff=   0.0000000   0.0000000   0.0000000   0.0000000   0.0000000
 NQMom=    0.0000000   0.0000000   0.0000000   0.0000000   0.0000000
 NMagM=    0.0000000   0.0000000   2.7928460   2.7928460   0.0000000
 Leave Link  101 at Fri May  8 11:26:07 2020, MaxMem= 1073741824 cpu:       0.4
 (Enter /home/matheus/.gaussian/g09/l108.exe)
 Scan the potential surface.
 Variable   Value     No. Steps Step-Size
 -------- ----------- --------- ---------
     1       3.000000      20      0.1000
 A total of     21 points will be computed.
 Leave Link  108 at Fri May  8 11:26:07 2020, MaxMem= 1073741824 cpu:       0.0
 (Enter /home/matheus/.gaussian/g09/l202.exe)
 ---------------------------------------------------------------------------------------------------
                            Z-MATRIX (ANGSTROMS AND DEGREES)
   CD    Cent   Atom    N1       Length/X        N2       Alpha/Y        N3        Beta/Z          J
 ---------------------------------------------------------------------------------------------------
      1      1  O        0   0.000000          0.000000          0.725000
      2      2  O        0   0.000000          0.000000         -0.725000
      3      3  H        0   0.904763          0.159534          1.023510
      4      4  H        0   0.000000          0.918721         -1.023510
      5      5  Kr       0   0.000000          3.000000          0.000000
 ---------------------------------------------------------------------------------------------------
                         Z-Matrix orientation:                         
 ---------------------------------------------------------------------
 Center     Atomic      Atomic             Coordinates (Angstroms)
 Number     Number       Type             X           Y           Z
 ---------------------------------------------------------------------
      1          8           0        0.000000    0.000000    0.725000
      2          8           0        0.000000    0.000000   -0.725000
      3          1           0        0.904763    0.159534    1.023510
      4          1           0        0.000000    0.918721   -1.023510
      5         36           0        0.000000    3.000000    0.000000
 ---------------------------------------------------------------------
                    Distance matrix (angstroms):
                    1          2          3          4          5
     1  O    0.000000
     2  O    1.450000   0.000000
     3  H    0.966000   1.975180   0.000000
     4  H    1.975180   0.966000   2.363314   0.000000
     5  Kr   3.086361   3.086361   3.151891   2.319331   0.000000
 Stoichiometry    H2KrO2
 Framework group  C1[X(H2KrO2)]
 Deg. of freedom     9
 Full point group                 C1      NOp   1
 Largest Abelian subgroup         C1      NOp   1
 Largest concise Abelian subgroup C1      NOp   1
                         Standard orientation:                         
 ---------------------------------------------------------------------
 Center     Atomic      Atomic             Coordinates (Angstroms)
 Number     Number       Type             X           Y           Z
 ---------------------------------------------------------------------
      1          8           0        2.025459   -0.700316   -0.115097
      2          8           0        2.013251    0.743386    0.019343
      3          1           0        1.883208   -1.082864    0.760447
      4          1           0        1.092171    1.031511    0.061209
      5         36           0       -0.980140   -0.008145   -0.001545
 ---------------------------------------------------------------------
 Rotational constants (GHZ):     25.6204873      2.3529019      2.1689661
 Leave Link  202 at Fri May  8 11:26:07 2020, MaxMem= 1073741824 cpu:       0.0
 (Enter /home/matheus/.gaussian/g09/l122.exe)
 Leave Link  122 at Fri May  8 11:26:07 2020, MaxMem= 1073741824 cpu:       0.0
 (Enter /home/matheus/.gaussian/g09/l301.exe)
 Standard basis: Aug-CC-pVTZ (5D, 7F)
 Ernie: Thresh=  0.10000D-02 Tol=  0.10000D-05 Strict=F.
 Ernie:  38 primitive shells out of 205 were deleted.
 There are   197 symmetry adapted basis functions of A   symmetry.
 Integral buffers will be    131072 words long.
 Raffenetti 2 integral format.
 Two-electron integral symmetry is turned on.
   197 basis functions,   415 primitive gaussians,   229 cartesian basis functions
    27 alpha electrons       27 beta electrons
       nuclear repulsion energy       149.6490473971 Hartrees.
 IExCor=32609 DFT=T Ex+Corr=LC-wPBE ExCW=0 ScaHFX=  1.000000
 ScaDFX=  1.000000  0.000000  1.000000  1.000000 ScalE2=  1.000000  1.000000
 IRadAn=      5 IRanWt=     -1 IRanGd=            0 ICorTp=0
  HFx wShort=  0.000000 wLong=  0.550000 cFull=  0.000000 cShort=  0.000000 cLong=  1.000000
  DFx wShort=  0.000000 wLong=  0.550000 cFull=  0.000000 cShort=  0.000000 cLong=  1.000000
 NAtoms=    5 NActive=    5 NUniq=    5 SFac= 1.00D+00 NAtFMM=   60 NAOKFM=F Big=F
 Leave Link  301 at Fri May  8 11:26:07 2020, MaxMem= 1073741824 cpu:       0.2
 (Enter /home/matheus/.gaussian/g09/l302.exe)
 NPDir=0 NMtPBC=     1 NCelOv=     1 NCel=       1 NClECP=     1 NCelD=      1
         NCelK=      1 NCelE2=     1 NClLst=     1 CellRange=     0.0.
 One-electron integrals computed using PRISM.
 NBasis=   197 RedAO= T  NBF=   197
 NBsUse=   197 1.00D-06 NBFU=   197
 Precomputing XC quadrature grid using
 IXCGrd= 2 IRadAn=           5 IRanWt=          -1 IRanGd=           0 AccXCQ= 0.00D+00.
 NRdTot=     427 NPtTot=      123512 NUsed=      126579 NTot=      126611
 NSgBfM=   229   229   229   229   229 NAtAll=     5     5.
 Leave Link  302 at Fri May  8 11:26:08 2020, MaxMem= 1073741824 cpu:       1.3
 (Enter /home/matheus/.gaussian/g09/l303.exe)
 DipDrv:  MaxL=1.
 Leave Link  303 at Fri May  8 11:26:08 2020, MaxMem= 1073741824 cpu:       0.2
 (Enter /home/matheus/.gaussian/g09/l401.exe)
 Harris functional with IExCor=32609 diagonalized for initial guess.
 ExpMin= 2.53D-02 ExpMax= 1.17D+07 ExpMxC= 1.33D+04 IAcc=3 IRadAn=         5 AccDes= 0.00D+00
 HarFok:  IExCor=32609 AccDes= 0.00D+00 IRadAn=         5 IDoV= 1
 ScaDFX=  1.000000  1.000000  1.000000  1.000000
 FoFCou: FMM=F IPFlag=           0 FMFlag=      100000 FMFlg1=           0
         NFxFlg=           0 DoJE=T BraDBF=F KetDBF=T FulRan=T
         Omega=  0.000000  0.000000  1.000000  0.000000  0.000000 ICntrl=     500 IOpCl=  0
         NMat0=    1 NMatS0=    1 NMatT0=    0 NMatD0=    1 NMtDS0=    0 NMtDT0=    0
         I1Cent=           4 NGrid=           0.
 Petite list used in FoFCou.
 Harris En= -2904.73926553181    
 Initial guess orbital symmetries:
       Occupied  (A) (A) (A) (A) (A) (A) (A) (A) (A) (A) (A) (A)
                 (A) (A) (A) (A) (A) (A) (A) (A) (A) (A) (A) (A)
                 (A) (A) (A)
       Virtual   (A) (A) (A) (A) (A) (A) (A) (A) (A) (A) (A) (A)
                 (A) (A) (A) (A) (A) (A) (A) (A) (A) (A) (A) (A)
                 (A) (A) (A) (A) (A) (A) (A) (A) (A) (A) (A) (A)
                 (A) (A) (A) (A) (A) (A) (A) (A) (A) (A) (A) (A)
                 (A) (A) (A) (A) (A) (A) (A) (A) (A) (A) (A) (A)
                 (A) (A) (A) (A) (A) (A) (A) (A) (A) (A) (A) (A)
                 (A) (A) (A) (A) (A) (A) (A) (A) (A) (A) (A) (A)
                 (A) (A) (A) (A) (A) (A) (A) (A) (A) (A) (A) (A)
                 (A) (A) (A) (A) (A) (A) (A) (A) (A) (A) (A) (A)
                 (A) (A) (A) (A) (A) (A) (A) (A) (A) (A) (A) (A)
                 (A) (A) (A) (A) (A) (A) (A) (A) (A) (A) (A) (A)
                 (A) (A) (A) (A) (A) (A) (A) (A) (A) (A) (A) (A)
                 (A) (A) (A) (A) (A) (A) (A) (A) (A) (A) (A) (A)
                 (A) (A) (A) (A) (A) (A) (A) (A) (A) (A) (A) (A)
                 (A) (A)
 The electronic state of the initial guess is 1-A.
 Leave Link  401 at Fri May  8 11:26:08 2020, MaxMem= 1073741824 cpu:       5.0
 (Enter /home/matheus/.gaussian/g09/l502.exe)
 Closed shell SCF:
 Requested convergence on RMS density matrix=1.00D-08 within 128 cycles.
 Requested convergence on MAX density matrix=1.00D-06.
 Requested convergence on             energy=1.00D-06.
 No special actions if energy rises.
 Using DIIS extrapolation, IDIIS=  1040.
 Integral symmetry usage will be decided dynamically.
       126521 words used for storage of precomputed grid.
 IEnd=      305468 IEndB=      305468 NGot=  1073741824 MDV=  1073505667
 LenX=  1073505667 LenY=  1073452785
 Fock matrices will be formed incrementally for  20 cycles.

 Cycle   1  Pass 1  IDiag  1:
 FoFJK:  IHMeth= 1 ICntrl=     0 DoSepK=T KAlg= 1 I1Cent= 0 FoldK=F
 FoFCou: FMM=F IPFlag=           0 FMFlag=      100000 FMFlg1=           0
         NFxFlg=           0 DoJE=T BraDBF=F KetDBF=F FulRan=T
         Omega=  0.000000  0.000000  1.000000  0.000000  0.000000 ICntrl=     500 IOpCl=  0
         NMat0=    1 NMatS0=    1 NMatT0=    0 NMatD0=    1 NMtDS0=    0 NMtDT0=    0
         I1Cent=           0 NGrid=           0.
 Symmetry not used in FoFCou.
 E= -2904.93273071344    
 DIIS: error= 2.34D-02 at cycle   1 NSaved=   1.
 NSaved= 1 IEnMin= 1 EnMin= -2904.93273071344     IErMin= 1 ErrMin= 2.34D-02
 ErrMax= 2.34D-02 EMaxC= 1.00D-01 BMatC= 2.67D-01 BMatP= 2.67D-01
 IDIUse=3 WtCom= 7.66D-01 WtEn= 2.34D-01
 Coeff-Com:  0.100D+01
 Coeff-En:   0.100D+01
 Coeff:      0.100D+01
 Gap=     0.574 Goal=   None    Shift=    0.000
 GapD=    0.574 DampG=2.000 DampE=0.500 DampFc=1.0000 IDamp=-1.
 RMSDP=2.20D-03 MaxDP=1.43D-01              OVMax= 5.72D-02

 Cycle   2  Pass 1  IDiag  1:
 RMSU=  1.53D-03    CP:  1.02D+00
 FoFJK:  IHMeth= 1 ICntrl=     0 DoSepK=T KAlg= 1 I1Cent= 0 FoldK=F
 E= -2904.98276788329     Delta-E=       -0.050037169848 Rises=F Damp=F
 DIIS: error= 9.25D-03 at cycle   2 NSaved=   2.
 NSaved= 2 IEnMin= 2 EnMin= -2904.98276788329     IErMin= 2 ErrMin= 9.25D-03
 ErrMax= 9.25D-03 EMaxC= 1.00D-01 BMatC= 6.76D-02 BMatP= 2.67D-01
 IDIUse=3 WtCom= 9.08D-01 WtEn= 9.25D-02
 Coeff-Com:  0.327D+00 0.673D+00
 Coeff-En:   0.928D-01 0.907D+00
 Coeff:      0.306D+00 0.694D+00
 Gap=     0.498 Goal=   None    Shift=    0.000
 RMSDP=8.76D-04 MaxDP=4.96D-02 DE=-5.00D-02 OVMax= 2.58D-02

 Cycle   3  Pass 1  IDiag  1:
 RMSU=  3.07D-04    CP:  1.01D+00  6.59D-01
 FoFJK:  IHMeth= 1 ICntrl=     0 DoSepK=T KAlg= 1 I1Cent= 0 FoldK=F
 E= -2905.00587273019     Delta-E=       -0.023104846903 Rises=F Damp=F
 DIIS: error= 1.82D-03 at cycle   3 NSaved=   3.
 NSaved= 3 IEnMin= 3 EnMin= -2905.00587273019     IErMin= 3 ErrMin= 1.82D-03
 ErrMax= 1.82D-03 EMaxC= 1.00D-01 BMatC= 1.28D-03 BMatP= 6.76D-02
 IDIUse=3 WtCom= 9.82D-01 WtEn= 1.82D-02
 Coeff-Com:  0.407D-01 0.165D+00 0.794D+00
 Coeff-En:   0.000D+00 0.000D+00 0.100D+01
 Coeff:      0.400D-01 0.162D+00 0.798D+00
 Gap=     0.482 Goal=   None    Shift=    0.000
 RMSDP=9.64D-05 MaxDP=2.61D-03 DE=-2.31D-02 OVMax= 5.72D-03

 Cycle   4  Pass 1  IDiag  1:
 RMSU=  5.00D-05    CP:  1.01D+00  6.88D-01  9.48D-01
 FoFJK:  IHMeth= 1 ICntrl=     0 DoSepK=T KAlg= 1 I1Cent= 0 FoldK=F
 E= -2905.00651729314     Delta-E=       -0.000644562942 Rises=F Damp=F
 DIIS: error= 3.90D-04 at cycle   4 NSaved=   4.
 NSaved= 4 IEnMin= 4 EnMin= -2905.00651729314     IErMin= 4 ErrMin= 3.90D-04
 ErrMax= 3.90D-04 EMaxC= 1.00D-01 BMatC= 8.65D-05 BMatP= 1.28D-03
 IDIUse=3 WtCom= 9.96D-01 WtEn= 3.90D-03
 Coeff-Com: -0.597D-02 0.170D-01 0.269D+00 0.719D+00
 Coeff-En:   0.000D+00 0.000D+00 0.000D+00 0.100D+01
 Coeff:     -0.594D-02 0.170D-01 0.268D+00 0.721D+00
 Gap=     0.486 Goal=   None    Shift=    0.000
 RMSDP=3.14D-05 MaxDP=1.83D-03 DE=-6.45D-04 OVMax= 1.70D-03

 Cycle   5  Pass 1  IDiag  1:
 RMSU=  1.26D-05    CP:  1.01D+00  6.91D-01  1.00D+00  8.64D-01
 FoFJK:  IHMeth= 1 ICntrl=     0 DoSepK=T KAlg= 1 I1Cent= 0 FoldK=F
 E= -2905.00657002314     Delta-E=       -0.000052730001 Rises=F Damp=F
 DIIS: error= 8.04D-05 at cycle   5 NSaved=   5.
 NSaved= 5 IEnMin= 5 EnMin= -2905.00657002314     IErMin= 5 ErrMin= 8.04D-05
 ErrMax= 8.04D-05 EMaxC= 1.00D-01 BMatC= 2.59D-06 BMatP= 8.65D-05
 IDIUse=1 WtCom= 1.00D+00 WtEn= 0.00D+00
 Coeff-Com: -0.252D-02-0.480D-02 0.388D-02 0.122D+00 0.881D+00
 Coeff:     -0.252D-02-0.480D-02 0.388D-02 0.122D+00 0.881D+00
 Gap=     0.486 Goal=   None    Shift=    0.000
 RMSDP=7.14D-06 MaxDP=2.42D-04 DE=-5.27D-05 OVMax= 5.40D-04

 Cycle   6  Pass 1  IDiag  1:
 RMSU=  3.71D-06    CP:  1.01D+00  6.91D-01  1.01D+00  9.22D-01  1.09D+00
 FoFJK:  IHMeth= 1 ICntrl=     0 DoSepK=T KAlg= 1 I1Cent= 0 FoldK=F
 E= -2905.00657219482     Delta-E=       -0.000002171687 Rises=F Damp=F
 DIIS: error= 4.51D-05 at cycle   6 NSaved=   6.
 NSaved= 6 IEnMin= 6 EnMin= -2905.00657219482     IErMin= 6 ErrMin= 4.51D-05
 ErrMax= 4.51D-05 EMaxC= 1.00D-01 BMatC= 8.19D-07 BMatP= 2.59D-06
 IDIUse=1 WtCom= 1.00D+00 WtEn= 0.00D+00
 Coeff-Com: -0.425D-03-0.417D-02-0.296D-01-0.255D-01 0.383D+00 0.677D+00
 Coeff:     -0.425D-03-0.417D-02-0.296D-01-0.255D-01 0.383D+00 0.677D+00
 Gap=     0.486 Goal=   None    Shift=    0.000
 RMSDP=3.24D-06 MaxDP=1.41D-04 DE=-2.17D-06 OVMax= 2.12D-04

 Cycle   7  Pass 1  IDiag  1:
 RMSU=  1.52D-06    CP:  1.01D+00  6.91D-01  1.01D+00  9.39D-01  1.20D+00
                    CP:  8.60D-01
 FoFJK:  IHMeth= 1 ICntrl=     0 DoSepK=T KAlg= 1 I1Cent= 0 FoldK=F
 E= -2905.00657274753     Delta-E=       -0.000000552703 Rises=F Damp=F
 DIIS: error= 1.27D-05 at cycle   7 NSaved=   7.
 NSaved= 7 IEnMin= 7 EnMin= -2905.00657274753     IErMin= 7 ErrMin= 1.27D-05
 ErrMax= 1.27D-05 EMaxC= 1.00D-01 BMatC= 6.35D-08 BMatP= 8.19D-07
 IDIUse=1 WtCom= 1.00D+00 WtEn= 0.00D+00
 Coeff-Com:  0.125D-03-0.738D-03-0.911D-02-0.209D-01-0.128D-02 0.217D+00
 Coeff-Com:  0.815D+00
 Coeff:      0.125D-03-0.738D-03-0.911D-02-0.209D-01-0.128D-02 0.217D+00
 Coeff:      0.815D+00
 Gap=     0.486 Goal=   None    Shift=    0.000
 RMSDP=1.24D-06 MaxDP=5.94D-05 DE=-5.53D-07 OVMax= 8.58D-05

 Cycle   8  Pass 1  IDiag  1:
 RMSU=  4.76D-07    CP:  1.01D+00  6.91D-01  1.01D+00  9.45D-01  1.23D+00
                    CP:  9.78D-01  1.00D+00
 FoFJK:  IHMeth= 1 ICntrl=     0 DoSepK=T KAlg= 1 I1Cent= 0 FoldK=F
 E= -2905.00657288972     Delta-E=       -0.000000142193 Rises=F Damp=F
 DIIS: error= 2.65D-06 at cycle   8 NSaved=   8.
 NSaved= 8 IEnMin= 8 EnMin= -2905.00657288972     IErMin= 8 ErrMin= 2.65D-06
 ErrMax= 2.65D-06 EMaxC= 1.00D-01 BMatC= 2.29D-09 BMatP= 6.35D-08
 IDIUse=1 WtCom= 1.00D+00 WtEn= 0.00D+00
 Coeff-Com:  0.135D-04 0.467D-03 0.398D-02 0.590D-02-0.275D-01-0.967D-01
 Coeff-Com: -0.178D+00 0.129D+01
 Coeff:      0.135D-04 0.467D-03 0.398D-02 0.590D-02-0.275D-01-0.967D-01
 Coeff:     -0.178D+00 0.129D+01
 Gap=     0.486 Goal=   None    Shift=    0.000
 RMSDP=5.75D-07 MaxDP=1.87D-05 DE=-1.42D-07 OVMax= 5.14D-05

 Cycle   9  Pass 1  IDiag  1:
 RMSU=  1.19D-07    CP:  1.01D+00  6.91D-01  1.01D+00  9.47D-01  1.24D+00
                    CP:  9.96D-01  1.09D+00  1.58D+00
 FoFJK:  IHMeth= 1 ICntrl=     0 DoSepK=T KAlg= 1 I1Cent= 0 FoldK=F
 E= -2905.00657288004     Delta-E=        0.000000009679 Rises=F Damp=F
 DIIS: error= 7.23D-07 at cycle   9 NSaved=   9.
 NSaved= 9 IEnMin= 8 EnMin= -2905.00657288972     IErMin= 9 ErrMin= 7.23D-07
 ErrMax= 7.23D-07 EMaxC= 1.00D-01 BMatC= 1.25D-10 BMatP= 2.29D-09
 IDIUse=1 WtCom= 1.00D+00 WtEn= 0.00D+00
 Coeff-Com: -0.933D-05-0.446D-04-0.234D-03-0.489D-04 0.486D-02 0.635D-02
 Coeff-Com: -0.996D-02-0.215D+00 0.121D+01
 Coeff:     -0.933D-05-0.446D-04-0.234D-03-0.489D-04 0.486D-02 0.635D-02
 Coeff:     -0.996D-02-0.215D+00 0.121D+01
 Gap=     0.486 Goal=   None    Shift=    0.000
 RMSDP=1.64D-07 MaxDP=6.68D-06 DE= 9.68D-09 OVMax= 1.76D-05

 Cycle  10  Pass 1  IDiag  1:
 RMSU=  3.71D-08    CP:  1.01D+00  6.91D-01  1.01D+00  9.47D-01  1.24D+00
                    CP:  9.94D-01  1.09D+00  1.74D+00  1.42D+00
 FoFJK:  IHMeth= 1 ICntrl=     0 DoSepK=T KAlg= 1 I1Cent= 0 FoldK=F
 E= -2905.00657288058     Delta-E=       -0.000000000537 Rises=F Damp=F
 DIIS: error= 2.39D-07 at cycle  10 NSaved=  10.
 NSaved=10 IEnMin= 8 EnMin= -2905.00657288972     IErMin=10 ErrMin= 2.39D-07
 ErrMax= 2.39D-07 EMaxC= 1.00D-01 BMatC= 1.70D-11 BMatP= 1.25D-10
 IDIUse=1 WtCom= 1.00D+00 WtEn= 0.00D+00
 Coeff-Com: -0.464D-06-0.366D-04-0.318D-03-0.586D-03 0.208D-02 0.880D-02
 Coeff-Com:  0.176D-01-0.112D+00-0.657D-01 0.115D+01
 Coeff:     -0.464D-06-0.366D-04-0.318D-03-0.586D-03 0.208D-02 0.880D-02
 Coeff:      0.176D-01-0.112D+00-0.657D-01 0.115D+01
 Gap=     0.486 Goal=   None    Shift=    0.000
 RMSDP=5.56D-08 MaxDP=1.77D-06 DE=-5.37D-10 OVMax= 7.16D-06

 Cycle  11  Pass 1  IDiag  1:
 RMSU=  1.20D-08    CP:  1.01D+00  6.91D-01  1.01D+00  9.47D-01  1.24D+00
                    CP:  9.93D-01  1.09D+00  1.78D+00  1.59D+00  1.43D+00
 FoFJK:  IHMeth= 1 ICntrl=     0 DoSepK=T KAlg= 1 I1Cent= 0 FoldK=F
 E= -2905.00657288063     Delta-E=       -0.000000000055 Rises=F Damp=F
 DIIS: error= 7.07D-08 at cycle  11 NSaved=  11.
 NSaved=11 IEnMin= 8 EnMin= -2905.00657288972     IErMin=11 ErrMin= 7.07D-08
 ErrMax= 7.07D-08 EMaxC= 1.00D-01 BMatC= 1.87D-12 BMatP= 1.70D-11
 IDIUse=1 WtCom= 1.00D+00 WtEn= 0.00D+00
 Coeff-Com:  0.115D-05 0.103D-04 0.750D-04 0.688D-04-0.944D-03-0.167D-02
 Coeff-Com: -0.103D-04 0.383D-01-0.148D+00-0.125D+00 0.124D+01
 Coeff:      0.115D-05 0.103D-04 0.750D-04 0.688D-04-0.944D-03-0.167D-02
 Coeff:     -0.103D-04 0.383D-01-0.148D+00-0.125D+00 0.124D+01
 Gap=     0.486 Goal=   None    Shift=    0.000
 RMSDP=1.87D-08 MaxDP=3.39D-07 DE=-5.55D-11 OVMax= 2.84D-06

 Cycle  12  Pass 1  IDiag  1:
 RMSU=  3.75D-09    CP:  1.01D+00  6.91D-01  1.01D+00  9.47D-01  1.24D+00
                    CP:  9.93D-01  1.09D+00  1.79D+00  1.63D+00  1.67D+00
                    CP:  1.45D+00
 FoFJK:  IHMeth= 1 ICntrl=     0 DoSepK=T KAlg= 1 I1Cent= 0 FoldK=F
 E= -2905.00657288064     Delta-E=       -0.000000000008 Rises=F Damp=F
 DIIS: error= 2.94D-08 at cycle  12 NSaved=  12.
 NSaved=12 IEnMin= 8 EnMin= -2905.00657288972     IErMin=12 ErrMin= 2.94D-08
 ErrMax= 2.94D-08 EMaxC= 1.00D-01 BMatC= 1.33D-13 BMatP= 1.87D-12
 IDIUse=1 WtCom= 1.00D+00 WtEn= 0.00D+00
 Coeff-Com: -0.567D-07 0.324D-05 0.295D-04 0.632D-04-0.213D-03-0.862D-03
 Coeff-Com: -0.158D-02 0.107D-01 0.115D-01-0.945D-01-0.459D-01 0.112D+01
 Coeff:     -0.567D-07 0.324D-05 0.295D-04 0.632D-04-0.213D-03-0.862D-03
 Coeff:     -0.158D-02 0.107D-01 0.115D-01-0.945D-01-0.459D-01 0.112D+01
 Gap=     0.486 Goal=   None    Shift=    0.000
 RMSDP=4.03D-09 MaxDP=1.19D-07 DE=-7.73D-12 OVMax= 5.16D-07

 SCF Done:  E(RLC-wPBE) =  -2905.00657288     A.U. after   12 cycles
             Convg  =    0.4030D-08             -V/T =  2.0017
 KE= 2.900042417494D+03 PE=-7.236060228366D+03 EE= 1.281362190594D+03
 Leave Link  502 at Fri May  8 11:26:55 2020, MaxMem= 1073741824 cpu:     369.4
 (Enter /home/matheus/.gaussian/g09/l601.exe)
 Copying SCF densities to generalized density rwf, IOpCl= 0 IROHF=0.

 **********************************************************************

            Population analysis using the SCF density.

 **********************************************************************

 Orbital symmetries:
       Occupied  (A) (A) (A) (A) (A) (A) (A) (A) (A) (A) (A) (A)
                 (A) (A) (A) (A) (A) (A) (A) (A) (A) (A) (A) (A)
                 (A) (A) (A)
       Virtual   (A) (A) (A) (A) (A) (A) (A) (A) (A) (A) (A) (A)
                 (A) (A) (A) (A) (A) (A) (A) (A) (A) (A) (A) (A)
                 (A) (A) (A) (A) (A) (A) (A) (A) (A) (A) (A) (A)
                 (A) (A) (A) (A) (A) (A) (A) (A) (A) (A) (A) (A)
                 (A) (A) (A) (A) (A) (A) (A) (A) (A) (A) (A) (A)
                 (A) (A) (A) (A) (A) (A) (A) (A) (A) (A) (A) (A)
                 (A) (A) (A) (A) (A) (A) (A) (A) (A) (A) (A) (A)
                 (A) (A) (A) (A) (A) (A) (A) (A) (A) (A) (A) (A)
                 (A) (A) (A) (A) (A) (A) (A) (A) (A) (A) (A) (A)
                 (A) (A) (A) (A) (A) (A) (A) (A) (A) (A) (A) (A)
                 (A) (A) (A) (A) (A) (A) (A) (A) (A) (A) (A) (A)
                 (A) (A) (A) (A) (A) (A) (A) (A) (A) (A) (A) (A)
                 (A) (A) (A) (A) (A) (A) (A) (A) (A) (A) (A) (A)
                 (A) (A) (A) (A) (A) (A) (A) (A) (A) (A) (A) (A)
                 (A) (A)
 The electronic state is 1-A.
 Alpha  occ. eigenvalues -- -511.20374 -66.75213 -60.41332 -60.41317 -60.41306
 Alpha  occ. eigenvalues --  -19.11391 -19.11066  -9.68785  -7.43076  -7.43030
 Alpha  occ. eigenvalues --   -7.43000  -3.37477  -3.37469  -3.37448  -3.37414
 Alpha  occ. eigenvalues --   -3.37411  -1.32247  -1.10954  -1.09436  -0.72869
 Alpha  occ. eigenvalues --   -0.64094  -0.59066  -0.54881  -0.54491  -0.53610
 Alpha  occ. eigenvalues --   -0.47482  -0.45365
 Alpha virt. eigenvalues --    0.03214   0.04285   0.08448   0.09515   0.11178
 Alpha virt. eigenvalues --    0.11479   0.13684   0.14247   0.17438   0.18125
 Alpha virt. eigenvalues --    0.18517   0.20459   0.20631   0.22513   0.24296
 Alpha virt. eigenvalues --    0.25260   0.26582   0.29092   0.31878   0.32956
 Alpha virt. eigenvalues --    0.34240   0.36008   0.37947   0.39695   0.40145
 Alpha virt. eigenvalues --    0.41566   0.43973   0.48624   0.54162   0.55984
 Alpha virt. eigenvalues --    0.56946   0.61929   0.63037   0.65747   0.69766
 Alpha virt. eigenvalues --    0.72831   0.73451   0.75301   0.77452   0.77498
 Alpha virt. eigenvalues --    0.78639   0.79299   0.81017   0.82787   0.84884
 Alpha virt. eigenvalues --    0.85794   0.88445   0.90466   0.92026   0.93221
 Alpha virt. eigenvalues --    0.93989   0.94772   0.97081   0.97541   1.00306
 Alpha virt. eigenvalues --    1.01599   1.05589   1.08345   1.09724   1.10788
 Alpha virt. eigenvalues --    1.12382   1.17347   1.19965   1.25016   1.26893
 Alpha virt. eigenvalues --    1.27730   1.31785   1.38199   1.39908   1.43011
 Alpha virt. eigenvalues --    1.45914   1.50776   1.53117   1.57198   1.61848
 Alpha virt. eigenvalues --    1.71700   1.73615   1.86060   1.95389   1.98067
 Alpha virt. eigenvalues --    2.03407   2.06428   2.08411   2.13366   2.18054
 Alpha virt. eigenvalues --    2.20213   2.22006   2.24277   2.27556   2.29107
 Alpha virt. eigenvalues --    2.31023   2.33555   2.34842   2.35565   2.36569
 Alpha virt. eigenvalues --    2.41004   2.42805   2.49508   2.51422   2.52769
 Alpha virt. eigenvalues --    2.53586   2.54161   2.56022   2.60656   2.62016
 Alpha virt. eigenvalues --    2.64283   2.67063   2.69871   2.73826   2.75902
 Alpha virt. eigenvalues --    2.77049   2.79175   2.80441   2.87937   2.92588
 Alpha virt. eigenvalues --    2.99350   3.07940   3.14340   3.16999   3.66136
 Alpha virt. eigenvalues --    3.70788   3.96488   3.98149   4.03914   4.12580
 Alpha virt. eigenvalues --    4.17288   4.20296   4.26277   4.28853   4.33508
 Alpha virt. eigenvalues --    4.38428   4.53731   4.54297   4.61095   4.75241
 Alpha virt. eigenvalues --    4.97292   5.01271   5.04003   5.19792   5.20337
 Alpha virt. eigenvalues --    5.24381   5.47773   5.89436   6.07291   6.18826
 Alpha virt. eigenvalues --    6.26336   6.30603   6.35551   6.48535   6.53593
 Alpha virt. eigenvalues --    6.65364   6.81274   6.81998   6.86223   6.89288
 Alpha virt. eigenvalues --    6.93467   6.94674   6.97384   7.02092   7.05286
 Alpha virt. eigenvalues --    7.11888   7.17198   7.27954   7.50419   7.61575
 Alpha virt. eigenvalues --    7.83161   8.13766   8.16593  14.08156  14.63721
          Condensed to atoms (all electrons):
              1          2          3          4          5
     1  O    8.245521  -0.201654   0.195880   0.003588  -0.022639
     2  O   -0.201654   8.246207   0.014043   0.194531  -0.013554
     3  H    0.195880   0.014043   0.568146   0.000031  -0.003467
     4  H    0.003588   0.194531   0.000031   0.584887  -0.012990
     5  Kr  -0.022639  -0.013554  -0.003467  -0.012990  36.047703
 Mulliken atomic charges:
              1
     1  O   -0.220696
     2  O   -0.239572
     3  H    0.225367
     4  H    0.229955
     5  Kr   0.004947
 Sum of Mulliken atomic charges =   0.00000
 Mulliken charges with hydrogens summed into heavy atoms:
              1
     1  O    0.004671
     2  O   -0.009618
     5  Kr   0.004947
 Sum of Mulliken charges with hydrogens summed into heavy atoms =   0.00000
          Condensed to fragments (all electrons):
     1      -0.004947
     2       0.004947
 Electronic spatial extent (au):  <R**2>=            482.3394
 Charge=              0.0000 electrons
 Dipole moment (field-independent basis, Debye):
    X=             -2.1122    Y=             -0.3747    Z=              1.4960  Tot=              2.6153
 Quadrupole moment (field-independent basis, Debye-Ang):
   XX=            -35.7856   YY=            -27.7190   ZZ=            -28.8383
   XY=             -1.9570   XZ=              2.9626   YZ=             -1.8790
 Traceless Quadrupole moment (field-independent basis, Debye-Ang):
   XX=             -5.0046   YY=              3.0619   ZZ=              1.9427
   XY=             -1.9570   XZ=              2.9626   YZ=             -1.8790
 Octapole moment (field-independent basis, Debye-Ang**2):
  XXX=            -38.0222  YYY=             -1.0436  ZZZ=              1.2124  XYY=             -5.5893
  XXY=             -5.7921  XXZ=              5.1487  XZZ=             -5.5719  YZZ=             -1.8581
  YYZ=              2.3604  XYZ=             -3.6637
 Hexadecapole moment (field-independent basis, Debye-Ang**3):
 XXXX=           -456.2031 YYYY=            -62.1453 ZZZZ=            -28.9670 XXXY=            -11.5075
 XXXZ=             10.3419 YYYX=             -3.7231 YYYZ=             -2.8019 ZZZX=              2.7933
 ZZZY=             -2.0562 XXYY=            -81.4684 XXZZ=            -71.6588 YYZZ=            -15.5573
 XXYZ=             -7.2867 YYXZ=              4.4681 ZZXY=             -3.3958
 N-N= 1.496490473971D+02 E-N=-7.236060227393D+03  KE= 2.900042417494D+03
 No NMR shielding tensors so no spin-rotation constants.
 Leave Link  601 at Fri May  8 11:26:55 2020, MaxMem= 1073741824 cpu:       0.8
 (Enter /home/matheus/.gaussian/g09/l122.exe)
 Counterpoise: doing DCBS calculation for fragment   1 NewBq=T
 Leave Link  122 at Fri May  8 11:26:55 2020, MaxMem= 1073741824 cpu:       0.0
 (Enter /home/matheus/.gaussian/g09/l301.exe)
 Basis read from rwf:  (5D, 7F)
 No pseudopotential information found on rwf file.
 There are   197 symmetry adapted basis functions of A   symmetry.
 Integral buffers will be    131072 words long.
 Raffenetti 2 integral format.
 Two-electron integral symmetry is turned on.
   197 basis functions,   415 primitive gaussians,   229 cartesian basis functions
     9 alpha electrons        9 beta electrons
       nuclear repulsion energy        36.6321546607 Hartrees.
 IExCor=32609 DFT=T Ex+Corr=LC-wPBE ExCW=0 ScaHFX=  1.000000
 ScaDFX=  1.000000  0.000000  1.000000  1.000000 ScalE2=  1.000000  1.000000
 IRadAn=      5 IRanWt=     -1 IRanGd=            0 ICorTp=0
  HFx wShort=  0.000000 wLong=  0.550000 cFull=  0.000000 cShort=  0.000000 cLong=  1.000000
  DFx wShort=  0.000000 wLong=  0.550000 cFull=  0.000000 cShort=  0.000000 cLong=  1.000000
 NAtoms=    5 NActive=    5 NUniq=    5 SFac= 1.00D+00 NAtFMM=   60 NAOKFM=F Big=F
 No density basis found on file   718.
 Leave Link  301 at Fri May  8 11:26:55 2020, MaxMem= 1073741824 cpu:       0.2
 (Enter /home/matheus/.gaussian/g09/l302.exe)
 NPDir=0 NMtPBC=     1 NCelOv=     1 NCel=       1 NClECP=     1 NCelD=      1
         NCelK=      1 NCelE2=     1 NClLst=     1 CellRange=     0.0.
 One-electron integrals computed using PRISM.
 NBasis=   197 RedAO= T  NBF=   197
 NBsUse=   197 1.00D-06 NBFU=   197
 Precomputing XC quadrature grid using
 IXCGrd= 2 IRadAn=           5 IRanWt=          -1 IRanGd=           0 AccXCQ= 0.00D+00.
 NRdTot=     427 NPtTot=      123512 NUsed=      126579 NTot=      126611
 NSgBfM=   229   229   229   229   229 NAtAll=     5     5.
 Leave Link  302 at Fri May  8 11:26:55 2020, MaxMem= 1073741824 cpu:       1.1
 (Enter /home/matheus/.gaussian/g09/l303.exe)
 DipDrv:  MaxL=1.
 Leave Link  303 at Fri May  8 11:26:55 2020, MaxMem= 1073741824 cpu:       0.2
 (Enter /home/matheus/.gaussian/g09/l401.exe)
 Harris functional with IExCor=32609 diagonalized for initial guess.
 ExpMin= 2.53D-02 ExpMax= 1.17D+07 ExpMxC= 1.33D+04 IAcc=3 IRadAn=         5 AccDes= 0.00D+00
 HarFok:  IExCor=32609 AccDes= 0.00D+00 IRadAn=         5 IDoV= 1
 ScaDFX=  1.000000  1.000000  1.000000  1.000000
 FoFCou: FMM=F IPFlag=           0 FMFlag=      100000 FMFlg1=           0
         NFxFlg=           0 DoJE=T BraDBF=F KetDBF=T FulRan=T
         Omega=  0.000000  0.000000  1.000000  0.000000  0.000000 ICntrl=     500 IOpCl=  0
         NMat0=    1 NMatS0=    1 NMatT0=    0 NMatD0=    1 NMtDS0=    0 NMtDT0=    0
         I1Cent=           4 NGrid=           0.
 Petite list used in FoFCou.
 Harris En= -151.502682189445    
 Initial guess orbital symmetries:
       Occupied  (A) (A) (A) (A) (A) (A) (A) (A) (A)
       Virtual   (A) (A) (A) (A) (A) (A) (A) (A) (A) (A) (A) (A)
                 (A) (A) (A) (A) (A) (A) (A) (A) (A) (A) (A) (A)
                 (A) (A) (A) (A) (A) (A) (A) (A) (A) (A) (A) (A)
                 (A) (A) (A) (A) (A) (A) (A) (A) (A) (A) (A) (A)
                 (A) (A) (A) (A) (A) (A) (A) (A) (A) (A) (A) (A)
                 (A) (A) (A) (A) (A) (A) (A) (A) (A) (A) (A) (A)
                 (A) (A) (A) (A) (A) (A) (A) (A) (A) (A) (A) (A)
                 (A) (A) (A) (A) (A) (A) (A) (A) (A) (A) (A) (A)
                 (A) (A) (A) (A) (A) (A) (A) (A) (A) (A) (A) (A)
                 (A) (A) (A) (A) (A) (A) (A) (A) (A) (A) (A) (A)
                 (A) (A) (A) (A) (A) (A) (A) (A) (A) (A) (A) (A)
                 (A) (A) (A) (A) (A) (A) (A) (A) (A) (A) (A) (A)
                 (A) (A) (A) (A) (A) (A) (A) (A) (A) (A) (A) (A)
                 (A) (A) (A) (A) (A) (A) (A) (A) (A) (A) (A) (A)
                 (A) (A) (A) (A) (A) (A) (A) (A) (A) (A) (A) (A)
                 (A) (A) (A) (A) (A) (A) (A) (A)
 The electronic state of the initial guess is 1-A.
 Leave Link  401 at Fri May  8 11:26:56 2020, MaxMem= 1073741824 cpu:       4.9
 (Enter /home/matheus/.gaussian/g09/l502.exe)
 Closed shell SCF:
 Requested convergence on RMS density matrix=1.00D-08 within 128 cycles.
 Requested convergence on MAX density matrix=1.00D-06.
 Requested convergence on             energy=1.00D-06.
 No special actions if energy rises.
 Using DIIS extrapolation, IDIIS=  1040.
 Integral symmetry usage will be decided dynamically.
       126521 words used for storage of precomputed grid.
 IEnd=      305468 IEndB=      305468 NGot=  1073741824 MDV=  1073505667
 LenX=  1073505667 LenY=  1073452785
 Fock matrices will be formed incrementally for  20 cycles.

 Cycle   1  Pass 1  IDiag  1:
 FoFJK:  IHMeth= 1 ICntrl=     0 DoSepK=T KAlg= 1 I1Cent= 0 FoldK=F
 FoFCou: FMM=F IPFlag=           0 FMFlag=      100000 FMFlg1=           0
         NFxFlg=           0 DoJE=T BraDBF=F KetDBF=F FulRan=T
         Omega=  0.000000  0.000000  1.000000  0.000000  0.000000 ICntrl=     500 IOpCl=  0
         NMat0=    1 NMatS0=    1 NMatT0=    0 NMatD0=    1 NMtDS0=    0 NMtDT0=    0
         I1Cent=           0 NGrid=           0.
 Symmetry not used in FoFCou.
 E= -151.507365569452    
 DIIS: error= 1.27D-02 at cycle   1 NSaved=   1.
 NSaved= 1 IEnMin= 1 EnMin= -151.507365569452     IErMin= 1 ErrMin= 1.27D-02
 ErrMax= 1.27D-02 EMaxC= 1.00D-01 BMatC= 4.12D-02 BMatP= 4.12D-02
 IDIUse=3 WtCom= 8.73D-01 WtEn= 1.27D-01
 Coeff-Com:  0.100D+01
 Coeff-En:   0.100D+01
 Coeff:      0.100D+01
 Gap=     0.575 Goal=   None    Shift=    0.000
 GapD=    0.575 DampG=2.000 DampE=0.500 DampFc=1.0000 IDamp=-1.
 RMSDP=7.30D-04 MaxDP=2.26D-02              OVMax= 5.34D-02

 Cycle   2  Pass 1  IDiag  1:
 RMSU=  5.11D-04    CP:  9.90D-01
 FoFJK:  IHMeth= 1 ICntrl=     0 DoSepK=T KAlg= 1 I1Cent= 0 FoldK=F
 E= -151.523949030968     Delta-E=       -0.016583461516 Rises=F Damp=F
 DIIS: error= 7.84D-03 at cycle   2 NSaved=   2.
 NSaved= 2 IEnMin= 2 EnMin= -151.523949030968     IErMin= 2 ErrMin= 7.84D-03
 ErrMax= 7.84D-03 EMaxC= 1.00D-01 BMatC= 1.64D-02 BMatP= 4.12D-02
 IDIUse=3 WtCom= 9.22D-01 WtEn= 7.84D-02
 Coeff-Com:  0.374D+00 0.626D+00
 Coeff-En:   0.126D+00 0.874D+00
 Coeff:      0.354D+00 0.646D+00
 Gap=     0.487 Goal=   None    Shift=    0.000
 RMSDP=4.20D-04 MaxDP=2.26D-02 DE=-1.66D-02 OVMax= 2.32D-02

 Cycle   3  Pass 1  IDiag  1:
 RMSU=  2.41D-04    CP:  9.85D-01  6.66D-01
 FoFJK:  IHMeth= 1 ICntrl=     0 DoSepK=T KAlg= 1 I1Cent= 0 FoldK=F
 E= -151.533248591712     Delta-E=       -0.009299560745 Rises=F Damp=F
 DIIS: error= 1.53D-03 at cycle   3 NSaved=   3.
 NSaved= 3 IEnMin= 3 EnMin= -151.533248591712     IErMin= 3 ErrMin= 1.53D-03
 ErrMax= 1.53D-03 EMaxC= 1.00D-01 BMatC= 3.92D-04 BMatP= 1.64D-02
 IDIUse=3 WtCom= 9.85D-01 WtEn= 1.53D-02
 Coeff-Com:  0.405D-01 0.154D+00 0.805D+00
 Coeff-En:   0.000D+00 0.000D+00 0.100D+01
 Coeff:      0.399D-01 0.152D+00 0.808D+00
 Gap=     0.480 Goal=   None    Shift=    0.000
 RMSDP=5.50D-05 MaxDP=1.94D-03 DE=-9.30D-03 OVMax= 4.09D-03

 Cycle   4  Pass 1  IDiag  1:
 RMSU=  2.74D-05    CP:  9.84D-01  7.13D-01  1.03D+00
 FoFJK:  IHMeth= 1 ICntrl=     0 DoSepK=T KAlg= 1 I1Cent= 0 FoldK=F
 E= -151.533498442379     Delta-E=       -0.000249850667 Rises=F Damp=F
 DIIS: error= 1.58D-04 at cycle   4 NSaved=   4.
 NSaved= 4 IEnMin= 4 EnMin= -151.533498442379     IErMin= 4 ErrMin= 1.58D-04
 ErrMax= 1.58D-04 EMaxC= 1.00D-01 BMatC= 9.72D-06 BMatP= 3.92D-04
 IDIUse=3 WtCom= 9.98D-01 WtEn= 1.58D-03
 Coeff-Com: -0.956D-02-0.130D-01 0.862D-01 0.936D+00
 Coeff-En:   0.000D+00 0.000D+00 0.000D+00 0.100D+01
 Coeff:     -0.954D-02-0.130D-01 0.860D-01 0.937D+00
 Gap=     0.482 Goal=   None    Shift=    0.000
 RMSDP=1.40D-05 MaxDP=8.44D-04 DE=-2.50D-04 OVMax= 7.85D-04

 Cycle   5  Pass 1  IDiag  1:
 RMSU=  4.51D-06    CP:  9.83D-01  7.12D-01  1.06D+00  1.06D+00
 FoFJK:  IHMeth= 1 ICntrl=     0 DoSepK=T KAlg= 1 I1Cent= 0 FoldK=F
 E= -151.533507126906     Delta-E=       -0.000008684527 Rises=F Damp=F
 DIIS: error= 4.52D-05 at cycle   5 NSaved=   5.
 NSaved= 5 IEnMin= 5 EnMin= -151.533507126906     IErMin= 5 ErrMin= 4.52D-05
 ErrMax= 4.52D-05 EMaxC= 1.00D-01 BMatC= 2.26D-07 BMatP= 9.72D-06
 IDIUse=1 WtCom= 1.00D+00 WtEn= 0.00D+00
 Coeff-Com: -0.305D-03-0.179D-02-0.344D-01-0.123D+00 0.116D+01
 Coeff:     -0.305D-03-0.179D-02-0.344D-01-0.123D+00 0.116D+01
 Gap=     0.482 Goal=   None    Shift=    0.000
 RMSDP=3.51D-06 MaxDP=9.38D-05 DE=-8.68D-06 OVMax= 3.29D-04

 Cycle   6  Pass 1  IDiag  1:
 RMSU=  1.15D-06    CP:  9.83D-01  7.13D-01  1.06D+00  1.11D+00  1.33D+00
 FoFJK:  IHMeth= 1 ICntrl=     0 DoSepK=T KAlg= 1 I1Cent= 0 FoldK=F
 E= -151.533507737067     Delta-E=       -0.000000610160 Rises=F Damp=F
 DIIS: error= 6.07D-06 at cycle   6 NSaved=   6.
 NSaved= 6 IEnMin= 6 EnMin= -151.533507737067     IErMin= 6 ErrMin= 6.07D-06
 ErrMax= 6.07D-06 EMaxC= 1.00D-01 BMatC= 1.29D-08 BMatP= 2.26D-07
 IDIUse=1 WtCom= 1.00D+00 WtEn= 0.00D+00
 Coeff-Com:  0.284D-03 0.793D-03 0.452D-02-0.170D-02-0.228D+00 0.122D+01
 Coeff:      0.284D-03 0.793D-03 0.452D-02-0.170D-02-0.228D+00 0.122D+01
 Gap=     0.482 Goal=   None    Shift=    0.000
 RMSDP=1.03D-06 MaxDP=2.47D-05 DE=-6.10D-07 OVMax= 1.07D-04

 Cycle   7  Pass 1  IDiag  1:
 RMSU=  3.13D-07    CP:  9.83D-01  7.13D-01  1.06D+00  1.12D+00  1.39D+00
                    CP:  1.42D+00
 FoFJK:  IHMeth= 1 ICntrl=     0 DoSepK=T KAlg= 1 I1Cent= 0 FoldK=F
 E= -151.533507781125     Delta-E=       -0.000000044058 Rises=F Damp=F
 DIIS: error= 1.89D-06 at cycle   7 NSaved=   7.
 NSaved= 7 IEnMin= 7 EnMin= -151.533507781125     IErMin= 7 ErrMin= 1.89D-06
 ErrMax= 1.89D-06 EMaxC= 1.00D-01 BMatC= 9.37D-10 BMatP= 1.29D-08
 IDIUse=1 WtCom= 1.00D+00 WtEn= 0.00D+00
 Coeff-Com: -0.116D-04-0.144D-04 0.128D-02 0.690D-02-0.433D-01-0.141D+00
 Coeff-Com:  0.118D+01
 Coeff:     -0.116D-04-0.144D-04 0.128D-02 0.690D-02-0.433D-01-0.141D+00
 Coeff:      0.118D+01
 Gap=     0.482 Goal=   None    Shift=    0.000
 RMSDP=3.99D-07 MaxDP=1.58D-05 DE=-4.41D-08 OVMax= 3.55D-05

 Cycle   8  Pass 1  IDiag  1:
 RMSU=  7.80D-08    CP:  9.83D-01  7.13D-01  1.07D+00  1.12D+00  1.39D+00
                    CP:  1.56D+00  1.40D+00
 FoFJK:  IHMeth= 1 ICntrl=     0 DoSepK=T KAlg= 1 I1Cent= 0 FoldK=F
 E= -151.533507790013     Delta-E=       -0.000000008888 Rises=F Damp=F
 DIIS: error= 6.43D-07 at cycle   8 NSaved=   8.
 NSaved= 8 IEnMin= 8 EnMin= -151.533507790013     IErMin= 8 ErrMin= 6.43D-07
 ErrMax= 6.43D-07 EMaxC= 1.00D-01 BMatC= 2.22D-10 BMatP= 9.37D-10
 IDIUse=1 WtCom= 1.00D+00 WtEn= 0.00D+00
 Coeff-Com: -0.222D-04-0.655D-04 0.614D-05 0.177D-02 0.670D-02-0.132D+00
 Coeff-Com:  0.339D+00 0.785D+00
 Coeff:     -0.222D-04-0.655D-04 0.614D-05 0.177D-02 0.670D-02-0.132D+00
 Coeff:      0.339D+00 0.785D+00
 Gap=     0.482 Goal=   None    Shift=    0.000
 RMSDP=1.05D-07 MaxDP=5.94D-06 DE=-8.89D-09 OVMax= 1.04D-05

 Cycle   9  Pass 1  IDiag  1:
 RMSU=  3.50D-08    CP:  9.83D-01  7.13D-01  1.07D+00  1.12D+00  1.39D+00
                    CP:  1.58D+00  1.51D+00  1.16D+00
 FoFJK:  IHMeth= 1 ICntrl=     0 DoSepK=T KAlg= 1 I1Cent= 0 FoldK=F
 E= -151.533507790356     Delta-E=       -0.000000000344 Rises=F Damp=F
 DIIS: error= 4.22D-07 at cycle   9 NSaved=   9.
 NSaved= 9 IEnMin= 9 EnMin= -151.533507790356     IErMin= 9 ErrMin= 4.22D-07
 ErrMax= 4.22D-07 EMaxC= 1.00D-01 BMatC= 6.84D-11 BMatP= 2.22D-10
 IDIUse=1 WtCom= 1.00D+00 WtEn= 0.00D+00
 Coeff-Com: -0.931D-05-0.334D-04-0.347D-03-0.101D-02 0.166D-01-0.380D-01
 Coeff-Com: -0.136D+00 0.363D+00 0.796D+00
 Coeff:     -0.931D-05-0.334D-04-0.347D-03-0.101D-02 0.166D-01-0.380D-01
 Coeff:     -0.136D+00 0.363D+00 0.796D+00
 Gap=     0.482 Goal=   None    Shift=    0.000
 RMSDP=6.13D-08 MaxDP=3.14D-06 DE=-3.44D-10 OVMax= 7.27D-06

 Cycle  10  Pass 1  IDiag  1:
 RMSU=  1.40D-08    CP:  9.83D-01  7.13D-01  1.07D+00  1.12D+00  1.39D+00
                    CP:  1.60D+00  1.57D+00  1.41D+00  1.05D+00
 FoFJK:  IHMeth= 1 ICntrl=     0 DoSepK=T KAlg= 1 I1Cent= 0 FoldK=F
 E= -151.533507790469     Delta-E=       -0.000000000113 Rises=F Damp=F
 DIIS: error= 1.28D-07 at cycle  10 NSaved=  10.
 NSaved=10 IEnMin=10 EnMin= -151.533507790469     IErMin=10 ErrMin= 1.28D-07
 ErrMax= 1.28D-07 EMaxC= 1.00D-01 BMatC= 3.41D-12 BMatP= 6.84D-11
 IDIUse=1 WtCom= 1.00D+00 WtEn= 0.00D+00
 Coeff-Com:  0.428D-05 0.173D-04 0.107D-03 0.232D-04-0.506D-02 0.241D-01
 Coeff-Com:  0.442D-02-0.203D+00-0.201D+00 0.138D+01
 Coeff:      0.428D-05 0.173D-04 0.107D-03 0.232D-04-0.506D-02 0.241D-01
 Coeff:      0.442D-02-0.203D+00-0.201D+00 0.138D+01
 Gap=     0.482 Goal=   None    Shift=    0.000
 RMSDP=2.41D-08 MaxDP=4.76D-07 DE=-1.13D-10 OVMax= 3.99D-06

 Cycle  11  Pass 1  IDiag  1:
 RMSU=  5.14D-09    CP:  9.83D-01  7.13D-01  1.07D+00  1.12D+00  1.39D+00
                    CP:  1.60D+00  1.59D+00  1.52D+00  1.26D+00  1.64D+00
 FoFJK:  IHMeth= 1 ICntrl=     0 DoSepK=T KAlg= 1 I1Cent= 0 FoldK=F
 E= -151.533507790486     Delta-E=       -0.000000000017 Rises=F Damp=F
 DIIS: error= 3.79D-08 at cycle  11 NSaved=  11.
 NSaved=11 IEnMin=11 EnMin= -151.533507790486     IErMin=11 ErrMin= 3.79D-08
 ErrMax= 3.79D-08 EMaxC= 1.00D-01 BMatC= 2.61D-13 BMatP= 3.41D-12
 IDIUse=1 WtCom= 1.00D+00 WtEn= 0.00D+00
 Coeff-Com:  0.519D-07 0.843D-06 0.224D-04 0.126D-03-0.106D-02 0.867D-04
 Coeff-Com:  0.166D-01-0.120D-01-0.587D-01-0.186D+00 0.124D+01
 Coeff:      0.519D-07 0.843D-06 0.224D-04 0.126D-03-0.106D-02 0.867D-04
 Coeff:      0.166D-01-0.120D-01-0.587D-01-0.186D+00 0.124D+01
 Gap=     0.482 Goal=   None    Shift=    0.000
 RMSDP=6.86D-09 MaxDP=1.48D-07 DE=-1.65D-11 OVMax= 1.03D-06

 SCF Done:  E(RLC-wPBE) =  -151.533507790     A.U. after   11 cycles
             Convg  =    0.6856D-08             -V/T =  2.0070
 KE= 1.504762422546D+02 PE=-4.315661502325D+02 EE= 9.292424552670D+01
 Leave Link  502 at Fri May  8 11:27:36 2020, MaxMem= 1073741824 cpu:     322.8
 (Enter /home/matheus/.gaussian/g09/l601.exe)
 Copying SCF densities to generalized density rwf, IOpCl= 0 IROHF=0.

 **********************************************************************

            Population analysis using the SCF density.

 **********************************************************************

 Orbital symmetries:
       Occupied  (A) (A) (A) (A) (A) (A) (A) (A) (A)
       Virtual   (A) (A) (A) (A) (A) (A) (A) (A) (A) (A) (A) (A)
                 (A) (A) (A) (A) (A) (A) (A) (A) (A) (A) (A) (A)
                 (A) (A) (A) (A) (A) (A) (A) (A) (A) (A) (A) (A)
                 (A) (A) (A) (A) (A) (A) (A) (A) (A) (A) (A) (A)
                 (A) (A) (A) (A) (A) (A) (A) (A) (A) (A) (A) (A)
                 (A) (A) (A) (A) (A) (A) (A) (A) (A) (A) (A) (A)
                 (A) (A) (A) (A) (A) (A) (A) (A) (A) (A) (A) (A)
                 (A) (A) (A) (A) (A) (A) (A) (A) (A) (A) (A) (A)
                 (A) (A) (A) (A) (A) (A) (A) (A) (A) (A) (A) (A)
                 (A) (A) (A) (A) (A) (A) (A) (A) (A) (A) (A) (A)
                 (A) (A) (A) (A) (A) (A) (A) (A) (A) (A) (A) (A)
                 (A) (A) (A) (A) (A) (A) (A) (A) (A) (A) (A) (A)
                 (A) (A) (A) (A) (A) (A) (A) (A) (A) (A) (A) (A)
                 (A) (A) (A) (A) (A) (A) (A) (A) (A) (A) (A) (A)
                 (A) (A) (A) (A) (A) (A) (A) (A) (A) (A) (A) (A)
                 (A) (A) (A) (A) (A) (A) (A) (A)
 The electronic state is 1-A.
 Alpha  occ. eigenvalues --  -19.11620 -19.11613  -1.32480  -1.09790  -0.72915
 Alpha  occ. eigenvalues --   -0.63736  -0.58899  -0.47890  -0.45714
 Alpha virt. eigenvalues --    0.02453   0.03816   0.07118   0.08274   0.10312
 Alpha virt. eigenvalues --    0.10628   0.11370   0.14174   0.17232   0.17751
 Alpha virt. eigenvalues --    0.18791   0.19572   0.21296   0.22791   0.25824
 Alpha virt. eigenvalues --    0.27395   0.30620   0.31324   0.32722   0.34076
 Alpha virt. eigenvalues --    0.34425   0.36977   0.37561   0.40030   0.40922
 Alpha virt. eigenvalues --    0.43399   0.44661   0.46996   0.48219   0.50064
 Alpha virt. eigenvalues --    0.53655   0.58312   0.61997   0.63645   0.67272
 Alpha virt. eigenvalues --    0.71706   0.76526   0.78075   0.78366   0.80941
 Alpha virt. eigenvalues --    0.82162   0.83027   0.89647   0.90801   0.92650
 Alpha virt. eigenvalues --    0.93083   0.94915   0.96049   0.97446   0.98640
 Alpha virt. eigenvalues --    1.00560   1.01856   1.05587   1.10905   1.13244
 Alpha virt. eigenvalues --    1.14312   1.16420   1.21798   1.23173   1.24789
 Alpha virt. eigenvalues --    1.26798   1.29920   1.30144   1.31772   1.33643
 Alpha virt. eigenvalues --    1.34523   1.34764   1.38705   1.39894   1.42183
 Alpha virt. eigenvalues --    1.46151   1.49655   1.51885   1.53369   1.56553
 Alpha virt. eigenvalues --    1.60874   1.67044   1.67573   1.74377   1.79747
 Alpha virt. eigenvalues --    1.84837   1.88401   1.97285   2.00724   2.05979
 Alpha virt. eigenvalues --    2.07260   2.10540   2.18692   2.24144   2.26024
 Alpha virt. eigenvalues --    2.31570   2.32875   2.37703   2.40517   2.41182
 Alpha virt. eigenvalues --    2.52158   2.56918   2.60015   2.64906   2.68263
 Alpha virt. eigenvalues --    2.70160   2.77451   2.82173   2.90260   2.98033
 Alpha virt. eigenvalues --    3.06080   3.13435   3.14764   3.25646   3.30008
 Alpha virt. eigenvalues --    3.41342   3.55120   3.64097   3.69576   3.78055
 Alpha virt. eigenvalues --    3.78396   3.81762   3.81907   3.82925   3.83963
 Alpha virt. eigenvalues --    3.88319   3.89800   3.94665   3.96320   3.97071
 Alpha virt. eigenvalues --    3.99867   4.04291   4.08957   4.13273   4.18178
 Alpha virt. eigenvalues --    4.21048   4.26301   4.29399   4.35841   4.39001
 Alpha virt. eigenvalues --    4.41727   4.54187   4.61670   4.75277   4.97240
 Alpha virt. eigenvalues --    5.01560   5.04230   5.19855   5.20546   5.24662
 Alpha virt. eigenvalues --    5.47532   5.89226   6.06730   6.18805   6.26185
 Alpha virt. eigenvalues --    6.30500   6.35385   6.48380   6.53525   6.65153
 Alpha virt. eigenvalues --    6.80988   6.81813   6.85805   6.89029   6.93300
 Alpha virt. eigenvalues --    6.94385   6.97149   7.01899   7.04991   7.11679
 Alpha virt. eigenvalues --    7.16941   7.27727   7.50141   7.61349   7.82863
 Alpha virt. eigenvalues --    8.13512   8.15597  10.88866  14.07713  14.63050
 Alpha virt. eigenvalues --   14.82988  14.87794  15.09473  29.02607  29.02780
 Alpha virt. eigenvalues --   29.07438  29.13114  29.22614  49.09666 148.31231
 Alpha virt. eigenvalues --  148.38477 148.70547 752.49302
          Condensed to atoms (all electrons):
              1          2          3          4          5
     1  O    8.208854  -0.194648   0.196500   0.000817  -0.000158
     2  O   -0.194648   8.212972   0.014511   0.196116  -0.000655
     3  H    0.196500   0.014511   0.579262   0.000981  -0.001139
     4  H    0.000817   0.196116   0.000981   0.580287  -0.003489
     5  Kr  -0.000158  -0.000655  -0.001139  -0.003489   0.000952
 Mulliken atomic charges:
              1
     1  O   -0.211365
     2  O   -0.228296
     3  H    0.209885
     4  H    0.225288
     5  Kr   0.004489
 Sum of Mulliken atomic charges =   0.00000
 Mulliken charges with hydrogens summed into heavy atoms:
              1
     1  O   -0.001481
     2  O   -0.003008
     5  Kr   0.004489
 Sum of Mulliken charges with hydrogens summed into heavy atoms =   0.00000
          Condensed to fragments (all electrons):
     1      -0.004489
     2       0.004489
 Electronic spatial extent (au):  <R**2>=            319.8549
 Charge=              0.0000 electrons
 Dipole moment (field-independent basis, Debye):
    X=             -1.8851    Y=             -0.1672    Z=              1.6255  Tot=              2.4948
 Quadrupole moment (field-independent basis, Debye-Ang):
   XX=            -18.3398   YY=            -10.2030   ZZ=            -11.3802
   XY=             -2.0752   XZ=              2.8684   YZ=             -1.8985
 Traceless Quadrupole moment (field-independent basis, Debye-Ang):
   XX=             -5.0321   YY=              3.1046   ZZ=              1.9275
   XY=             -2.0752   XZ=              2.8684   YZ=             -1.8985
 Octapole moment (field-independent basis, Debye-Ang**2):
  XXX=            -88.2480  YYY=             -1.2140  ZZZ=              1.3526  XYY=            -22.5774
  XXY=             -5.6710  XXZ=              5.2557  XZZ=            -22.6013  YZZ=             -1.9186
  YYZ=              2.4079  XYZ=             -3.6685
 Hexadecapole moment (field-independent basis, Debye-Ang**3):
 XXXX=           -336.7080 YYYY=            -44.3184 ZZZZ=            -11.2270 XXXY=            -11.2054
 XXXZ=             10.1602 YYYX=             -3.5593 YYYZ=             -2.8371 ZZZX=              2.7122
 ZZZY=             -2.0900 XXYY=            -58.6205 XXZZ=            -48.9534 YYZZ=             -9.6231
 XXYZ=             -7.3030 YYXZ=              4.4283 ZZXY=             -3.3113
 N-N= 3.663215466067D+01 E-N=-4.315661498625D+02  KE= 1.504762422546D+02
 No NMR shielding tensors so no spin-rotation constants.
 Leave Link  601 at Fri May  8 11:27:36 2020, MaxMem= 1073741824 cpu:       0.9
 (Enter /home/matheus/.gaussian/g09/l122.exe)
 Counterpoise: doing DCBS calculation for fragment   2 NewBq=T
 Leave Link  122 at Fri May  8 11:27:36 2020, MaxMem= 1073741824 cpu:       0.0
 (Enter /home/matheus/.gaussian/g09/l301.exe)
 Basis read from rwf:  (5D, 7F)
 No pseudopotential information found on rwf file.
 There are   197 symmetry adapted basis functions of A   symmetry.
 Integral buffers will be    131072 words long.
 Raffenetti 2 integral format.
 Two-electron integral symmetry is turned on.
   197 basis functions,   415 primitive gaussians,   229 cartesian basis functions
    18 alpha electrons       18 beta electrons
       nuclear repulsion energy         0.0000000000 Hartrees.
 IExCor=32609 DFT=T Ex+Corr=LC-wPBE ExCW=0 ScaHFX=  1.000000
 ScaDFX=  1.000000  0.000000  1.000000  1.000000 ScalE2=  1.000000  1.000000
 IRadAn=      5 IRanWt=     -1 IRanGd=            0 ICorTp=0
  HFx wShort=  0.000000 wLong=  0.550000 cFull=  0.000000 cShort=  0.000000 cLong=  1.000000
  DFx wShort=  0.000000 wLong=  0.550000 cFull=  0.000000 cShort=  0.000000 cLong=  1.000000
 NAtoms=    5 NActive=    5 NUniq=    5 SFac= 1.00D+00 NAtFMM=   60 NAOKFM=F Big=F
 No density basis found on file   718.
 Leave Link  301 at Fri May  8 11:27:36 2020, MaxMem= 1073741824 cpu:       0.3
 (Enter /home/matheus/.gaussian/g09/l302.exe)
 NPDir=0 NMtPBC=     1 NCelOv=     1 NCel=       1 NClECP=     1 NCelD=      1
         NCelK=      1 NCelE2=     1 NClLst=     1 CellRange=     0.0.
 One-electron integrals computed using PRISM.
 NBasis=   197 RedAO= T  NBF=   197
 NBsUse=   197 1.00D-06 NBFU=   197
 Precomputing XC quadrature grid using
 IXCGrd= 2 IRadAn=           5 IRanWt=          -1 IRanGd=           0 AccXCQ= 0.00D+00.
 NRdTot=     427 NPtTot=      123512 NUsed=      126579 NTot=      126611
 NSgBfM=   229   229   229   229   229 NAtAll=     5     5.
 Leave Link  302 at Fri May  8 11:27:36 2020, MaxMem= 1073741824 cpu:       1.1
 (Enter /home/matheus/.gaussian/g09/l303.exe)
 DipDrv:  MaxL=1.
 Leave Link  303 at Fri May  8 11:27:36 2020, MaxMem= 1073741824 cpu:       0.2
 (Enter /home/matheus/.gaussian/g09/l401.exe)
 Harris functional with IExCor=32609 diagonalized for initial guess.
 ExpMin= 2.53D-02 ExpMax= 1.17D+07 ExpMxC= 1.33D+04 IAcc=3 IRadAn=         5 AccDes= 0.00D+00
 HarFok:  IExCor=32609 AccDes= 0.00D+00 IRadAn=         5 IDoV= 1
 ScaDFX=  1.000000  1.000000  1.000000  1.000000
 FoFCou: FMM=F IPFlag=           0 FMFlag=      100000 FMFlg1=           0
         NFxFlg=           0 DoJE=T BraDBF=F KetDBF=T FulRan=T
         Omega=  0.000000  0.000000  1.000000  0.000000  0.000000 ICntrl=     500 IOpCl=  0
         NMat0=    1 NMatS0=    1 NMatT0=    0 NMatD0=    1 NMtDS0=    0 NMtDT0=    0
         I1Cent=           4 NGrid=           0.
 Petite list used in FoFCou.
 Harris En= -2753.24649194649    
 Initial guess orbital symmetries:
       Occupied  (A) (A) (A) (A) (A) (A) (A) (A) (A) (A) (A) (A)
                 (A) (A) (A) (A) (A) (A)
       Virtual   (A) (A) (A) (A) (A) (A) (A) (A) (A) (A) (A) (A)
                 (A) (A) (A) (A) (A) (A) (A) (A) (A) (A) (A) (A)
                 (A) (A) (A) (A) (A) (A) (A) (A) (A) (A) (A) (A)
                 (A) (A) (A) (A) (A) (A) (A) (A) (A) (A) (A) (A)
                 (A) (A) (A) (A) (A) (A) (A) (A) (A) (A) (A) (A)
                 (A) (A) (A) (A) (A) (A) (A) (A) (A) (A) (A) (A)
                 (A) (A) (A) (A) (A) (A) (A) (A) (A) (A) (A) (A)
                 (A) (A) (A) (A) (A) (A) (A) (A) (A) (A) (A) (A)
                 (A) (A) (A) (A) (A) (A) (A) (A) (A) (A) (A) (A)
                 (A) (A) (A) (A) (A) (A) (A) (A) (A) (A) (A) (A)
                 (A) (A) (A) (A) (A) (A) (A) (A) (A) (A) (A) (A)
                 (A) (A) (A) (A) (A) (A) (A) (A) (A) (A) (A) (A)
                 (A) (A) (A) (A) (A) (A) (A) (A) (A) (A) (A) (A)
                 (A) (A) (A) (A) (A) (A) (A) (A) (A) (A) (A) (A)
                 (A) (A) (A) (A) (A) (A) (A) (A) (A) (A) (A)
 The electronic state of the initial guess is 1-A.
 Leave Link  401 at Fri May  8 11:27:37 2020, MaxMem= 1073741824 cpu:       4.7
 (Enter /home/matheus/.gaussian/g09/l502.exe)
 Closed shell SCF:
 Requested convergence on RMS density matrix=1.00D-08 within 128 cycles.
 Requested convergence on MAX density matrix=1.00D-06.
 Requested convergence on             energy=1.00D-06.
 No special actions if energy rises.
 Using DIIS extrapolation, IDIIS=  1040.
 Integral symmetry usage will be decided dynamically.
       126521 words used for storage of precomputed grid.
 IEnd=      305468 IEndB=      305468 NGot=  1073741824 MDV=  1073505667
 LenX=  1073505667 LenY=  1073452785
 Fock matrices will be formed incrementally for  20 cycles.

 Cycle   1  Pass 1  IDiag  1:
 FoFJK:  IHMeth= 1 ICntrl=     0 DoSepK=T KAlg= 1 I1Cent= 0 FoldK=F
 FoFCou: FMM=F IPFlag=           0 FMFlag=      100000 FMFlg1=           0
         NFxFlg=           0 DoJE=T BraDBF=F KetDBF=F FulRan=T
         Omega=  0.000000  0.000000  1.000000  0.000000  0.000000 ICntrl=     500 IOpCl=  0
         NMat0=    1 NMatS0=    1 NMatT0=    0 NMatD0=    1 NMtDS0=    0 NMtDT0=    0
         I1Cent=           0 NGrid=           0.
 Symmetry not used in FoFCou.
 E= -2753.43085135257    
 DIIS: error= 2.31D-02 at cycle   1 NSaved=   1.
 NSaved= 1 IEnMin= 1 EnMin= -2753.43085135257     IErMin= 1 ErrMin= 2.31D-02
 ErrMax= 2.31D-02 EMaxC= 1.00D-01 BMatC= 2.24D-01 BMatP= 2.24D-01
 IDIUse=3 WtCom= 7.69D-01 WtEn= 2.31D-01
 Coeff-Com:  0.100D+01
 Coeff-En:   0.100D+01
 Coeff:      0.100D+01
 Gap=     0.637 Goal=   None    Shift=    0.000
 GapD=    0.637 DampG=2.000 DampE=0.500 DampFc=1.0000 IDamp=-1.
 RMSDP=2.05D-03 MaxDP=1.42D-01              OVMax= 5.14D-02

 Cycle   2  Pass 1  IDiag  1:
 RMSU=  1.41D-03    CP:  1.02D+00
 FoFJK:  IHMeth= 1 ICntrl=     0 DoSepK=T KAlg= 1 I1Cent= 0 FoldK=F
 E= -2753.46431378455     Delta-E=       -0.033462431973 Rises=F Damp=F
 DIIS: error= 9.22D-03 at cycle   2 NSaved=   2.
 NSaved= 2 IEnMin= 2 EnMin= -2753.46431378455     IErMin= 2 ErrMin= 9.22D-03
 ErrMax= 9.22D-03 EMaxC= 1.00D-01 BMatC= 4.97D-02 BMatP= 2.24D-01
 IDIUse=3 WtCom= 9.08D-01 WtEn= 9.22D-02
 Coeff-Com:  0.315D+00 0.685D+00
 Coeff-En:   0.627D-01 0.937D+00
 Coeff:      0.292D+00 0.708D+00
 Gap=     0.551 Goal=   None    Shift=    0.000
 RMSDP=7.50D-04 MaxDP=4.96D-02 DE=-3.35D-02 OVMax= 1.83D-02

 Cycle   3  Pass 1  IDiag  1:
 RMSU=  1.44D-04    CP:  1.01D+00  6.49D-01
 FoFJK:  IHMeth= 1 ICntrl=     0 DoSepK=T KAlg= 1 I1Cent= 0 FoldK=F
 E= -2753.47776334216     Delta-E=       -0.013449557619 Rises=F Damp=F
 DIIS: error= 8.67D-04 at cycle   3 NSaved=   3.
 NSaved= 3 IEnMin= 3 EnMin= -2753.47776334216     IErMin= 3 ErrMin= 8.67D-04
 ErrMax= 8.67D-04 EMaxC= 1.00D-01 BMatC= 4.62D-04 BMatP= 4.97D-02
 IDIUse=3 WtCom= 9.91D-01 WtEn= 8.67D-03
 Coeff-Com: -0.468D-02 0.790D-01 0.926D+00
 Coeff-En:   0.000D+00 0.000D+00 0.100D+01
 Coeff:     -0.464D-02 0.783D-01 0.926D+00
 Gap=     0.557 Goal=   None    Shift=    0.000
 RMSDP=6.52D-05 MaxDP=3.92D-03 DE=-1.34D-02 OVMax= 2.29D-03

 Cycle   4  Pass 1  IDiag  1:
 RMSU=  1.33D-05    CP:  1.01D+00  6.80D-01  1.00D+00
 FoFJK:  IHMeth= 1 ICntrl=     0 DoSepK=T KAlg= 1 I1Cent= 0 FoldK=F
 E= -2753.47789891924     Delta-E=       -0.000135577080 Rises=F Damp=F
 DIIS: error= 3.14D-05 at cycle   4 NSaved=   4.
 NSaved= 4 IEnMin= 4 EnMin= -2753.47789891924     IErMin= 4 ErrMin= 3.14D-05
 ErrMax= 3.14D-05 EMaxC= 1.00D-01 BMatC= 3.92D-07 BMatP= 4.62D-04
 IDIUse=1 WtCom= 1.00D+00 WtEn= 0.00D+00
 Coeff-Com: -0.554D-03-0.184D-01-0.165D+00 0.118D+01
 Coeff:     -0.554D-03-0.184D-01-0.165D+00 0.118D+01
 Gap=     0.557 Goal=   None    Shift=    0.000
 RMSDP=5.66D-06 MaxDP=3.20D-04 DE=-1.36D-04 OVMax= 4.10D-04

 Cycle   5  Pass 1  IDiag  1:
 RMSU=  1.78D-06    CP:  1.01D+00  6.79D-01  1.02D+00  1.20D+00
 FoFJK:  IHMeth= 1 ICntrl=     0 DoSepK=T KAlg= 1 I1Cent= 0 FoldK=F
 E= -2753.47789942911     Delta-E=       -0.000000509869 Rises=F Damp=F
 DIIS: error= 2.50D-06 at cycle   5 NSaved=   5.
 NSaved= 5 IEnMin= 5 EnMin= -2753.47789942911     IErMin= 5 ErrMin= 2.50D-06
 ErrMax= 2.50D-06 EMaxC= 1.00D-01 BMatC= 2.19D-09 BMatP= 3.92D-07
 IDIUse=1 WtCom= 1.00D+00 WtEn= 0.00D+00
 Coeff-Com:  0.966D-04 0.192D-03-0.162D-02-0.162D-01 0.102D+01
 Coeff:      0.966D-04 0.192D-03-0.162D-02-0.162D-01 0.102D+01
 Gap=     0.557 Goal=   None    Shift=    0.000
 RMSDP=3.28D-07 MaxDP=2.18D-05 DE=-5.10D-07 OVMax= 1.49D-05

 Cycle   6  Pass 1  IDiag  1:
 RMSU=  1.58D-07    CP:  1.01D+00  6.79D-01  1.02D+00  1.20D+00  1.03D+00
 FoFJK:  IHMeth= 1 ICntrl=     0 DoSepK=T KAlg= 1 I1Cent= 0 FoldK=F
 E= -2753.47789943103     Delta-E=       -0.000000001915 Rises=F Damp=F
 DIIS: error= 3.73D-07 at cycle   6 NSaved=   6.
 NSaved= 6 IEnMin= 6 EnMin= -2753.47789943103     IErMin= 6 ErrMin= 3.73D-07
 ErrMax= 3.73D-07 EMaxC= 1.00D-01 BMatC= 7.61D-11 BMatP= 2.19D-09
 IDIUse=1 WtCom= 1.00D+00 WtEn= 0.00D+00
 Coeff-Com:  0.337D-05 0.172D-03 0.181D-02-0.167D-01 0.324D-01 0.982D+00
 Coeff:      0.337D-05 0.172D-03 0.181D-02-0.167D-01 0.324D-01 0.982D+00
 Gap=     0.557 Goal=   None    Shift=    0.000
 RMSDP=4.90D-08 MaxDP=2.54D-06 DE=-1.91D-09 OVMax= 3.11D-06

 Cycle   7  Pass 1  IDiag  1:
 RMSU=  1.06D-08    CP:  1.01D+00  6.79D-01  1.02D+00  1.20D+00  1.05D+00
                    CP:  1.10D+00
 FoFJK:  IHMeth= 1 ICntrl=     0 DoSepK=T KAlg= 1 I1Cent= 0 FoldK=F
 E= -2753.47789943108     Delta-E=       -0.000000000055 Rises=F Damp=F
 DIIS: error= 3.29D-08 at cycle   7 NSaved=   7.
 NSaved= 7 IEnMin= 7 EnMin= -2753.47789943108     IErMin= 7 ErrMin= 3.29D-08
 ErrMax= 3.29D-08 EMaxC= 1.00D-01 BMatC= 4.12D-13 BMatP= 7.61D-11
 IDIUse=1 WtCom= 1.00D+00 WtEn= 0.00D+00
 Coeff-Com:  0.219D-06 0.302D-04 0.329D-03-0.287D-02 0.268D-02 0.155D+00
 Coeff-Com:  0.845D+00
 Coeff:      0.219D-06 0.302D-04 0.329D-03-0.287D-02 0.268D-02 0.155D+00
 Coeff:      0.845D+00
 Gap=     0.557 Goal=   None    Shift=    0.000
 RMSDP=5.46D-09 MaxDP=1.91D-07 DE=-5.46D-11 OVMax= 2.40D-07

 SCF Done:  E(RLC-wPBE) =  -2753.47789943     A.U. after    7 cycles
             Convg  =    0.5455D-08             -V/T =  2.0014
 KE= 2.749515185497D+03 PE=-6.579049321996D+03 EE= 1.076056237067D+03
 Leave Link  502 at Fri May  8 11:28:04 2020, MaxMem= 1073741824 cpu:     212.7
 (Enter /home/matheus/.gaussian/g09/l601.exe)
 Copying SCF densities to generalized density rwf, IOpCl= 0 IROHF=0.

 **********************************************************************

            Population analysis using the SCF density.

 **********************************************************************

 Orbital symmetries:
       Occupied  (A) (A) (A) (A) (A) (A) (A) (A) (A) (A) (A) (A)
                 (A) (A) (A) (A) (A) (A)
       Virtual   (A) (A) (A) (A) (A) (A) (A) (A) (A) (A) (A) (A)
                 (A) (A) (A) (A) (A) (A) (A) (A) (A) (A) (A) (A)
                 (A) (A) (A) (A) (A) (A) (A) (A) (A) (A) (A) (A)
                 (A) (A) (A) (A) (A) (A) (A) (A) (A) (A) (A) (A)
                 (A) (A) (A) (A) (A) (A) (A) (A) (A) (A) (A) (A)
                 (A) (A) (A) (A) (A) (A) (A) (A) (A) (A) (A) (A)
                 (A) (A) (A) (A) (A) (A) (A) (A) (A) (A) (A) (A)
                 (A) (A) (A) (A) (A) (A) (A) (A) (A) (A) (A) (A)
                 (A) (A) (A) (A) (A) (A) (A) (A) (A) (A) (A) (A)
                 (A) (A) (A) (A) (A) (A) (A) (A) (A) (A) (A) (A)
                 (A) (A) (A) (A) (A) (A) (A) (A) (A) (A) (A) (A)
                 (A) (A) (A) (A) (A) (A) (A) (A) (A) (A) (A) (A)
                 (A) (A) (A) (A) (A) (A) (A) (A) (A) (A) (A) (A)
                 (A) (A) (A) (A) (A) (A) (A) (A) (A) (A) (A) (A)
                 (A) (A) (A) (A) (A) (A) (A) (A) (A) (A) (A)
 The electronic state is 1-A.
 Alpha  occ. eigenvalues -- -511.18549 -66.73375 -60.39484 -60.39481 -60.39480
 Alpha  occ. eigenvalues --   -9.66931  -7.41183  -7.41181  -7.41181  -3.35590
 Alpha  occ. eigenvalues --   -3.35589  -3.35589  -3.35588  -3.35588  -1.08852
 Alpha  occ. eigenvalues --   -0.52698  -0.52694  -0.52692
 Alpha virt. eigenvalues --    0.02990   0.04938   0.08531   0.09148   0.11993
 Alpha virt. eigenvalues --    0.12327   0.13352   0.13654   0.16141   0.17056
 Alpha virt. eigenvalues --    0.17863   0.19621   0.20973   0.26318   0.27429
 Alpha virt. eigenvalues --    0.28173   0.28816   0.31251   0.33604   0.34759
 Alpha virt. eigenvalues --    0.36021   0.37614   0.38867   0.40287   0.41521
 Alpha virt. eigenvalues --    0.42258   0.44016   0.54221   0.55360   0.59053
 Alpha virt. eigenvalues --    0.59702   0.66556   0.68947   0.69360   0.72024
 Alpha virt. eigenvalues --    0.75005   0.75729   0.77958   0.79374   0.79806
 Alpha virt. eigenvalues --    0.81527   0.81721   0.84687   0.85494   0.87985
 Alpha virt. eigenvalues --    0.88839   0.89384   0.91546   0.91838   0.96974
 Alpha virt. eigenvalues --    0.97692   0.98698   0.99807   1.00541   1.02774
 Alpha virt. eigenvalues --    1.05768   1.08013   1.10291   1.12178   1.13770
 Alpha virt. eigenvalues --    1.17993   1.21035   1.25458   1.29201   1.31911
 Alpha virt. eigenvalues --    1.33084   1.38748   1.40485   1.46908   1.47764
 Alpha virt. eigenvalues --    1.55151   1.57307   1.60886   1.74146   1.75219
 Alpha virt. eigenvalues --    1.81828   1.82447   1.86866   1.98617   2.20075
 Alpha virt. eigenvalues --    2.23195   2.25746   2.30466   2.32105   2.33636
 Alpha virt. eigenvalues --    2.34895   2.36447   2.37395   2.38784   2.43082
 Alpha virt. eigenvalues --    2.44582   2.46097   2.49069   2.51748   2.52553
 Alpha virt. eigenvalues --    2.54847   2.55464   2.58031   2.59575   2.60764
 Alpha virt. eigenvalues --    2.64432   2.65665   2.67847   2.71376   2.73504
 Alpha virt. eigenvalues --    2.76503   2.80308   2.85111   2.88560   2.90852
 Alpha virt. eigenvalues --    2.96521   3.00027   3.04690   3.08931   3.18556
 Alpha virt. eigenvalues --    3.21375   3.28559   3.30640   3.38994   3.45905
 Alpha virt. eigenvalues --    3.60969   3.65224   3.82167   3.86542   4.03741
 Alpha virt. eigenvalues --    4.36532   4.44272   4.55990   4.58521   4.63134
 Alpha virt. eigenvalues --    4.72321   4.87260   4.89533   4.97072   5.03275
 Alpha virt. eigenvalues --    5.11883   5.27026   5.60144   5.64169   5.81851
 Alpha virt. eigenvalues --    5.90823   6.00902   6.10974   6.77468   6.83874
 Alpha virt. eigenvalues --    7.38208   7.50147   7.53789   7.62337   7.75830
 Alpha virt. eigenvalues --    7.78611   7.94599   8.15878   8.16620   8.21479
 Alpha virt. eigenvalues --    8.38931   8.51088   8.56113   8.86623   9.64386
 Alpha virt. eigenvalues --    9.76618   9.83446   9.86905   9.93039   9.99285
 Alpha virt. eigenvalues --   10.15312  10.28894  10.42031  10.96918  11.53534
 Alpha virt. eigenvalues --   11.63830  11.82081  12.06104  12.09241  13.20065
 Alpha virt. eigenvalues --   13.68792  14.51396  62.84469  64.69440
          Condensed to atoms (all electrons):
              1          2          3          4          5
     1  O    0.001125  -0.001501  -0.000491   0.001094  -0.006687
     2  O   -0.001501   0.005270   0.000464  -0.004078   0.000296
     3  H   -0.000491   0.000464   0.000374  -0.000237  -0.001257
     4  H    0.001094  -0.004078  -0.000237   0.004701  -0.029854
     5  Kr  -0.006687   0.000296  -0.001257  -0.029854  36.073032
 Mulliken atomic charges:
              1
     1  O    0.006460
     2  O   -0.000451
     3  H    0.001147
     4  H    0.028374
     5  Kr  -0.035530
 Sum of Mulliken atomic charges =   0.00000
 Mulliken charges with hydrogens summed into heavy atoms:
              1
     1  O    0.007607
     2  O    0.027923
     5  Kr  -0.035530
 Sum of Mulliken charges with hydrogens summed into heavy atoms =   0.00000
          Condensed to fragments (all electrons):
     1       0.035530
     2      -0.035530
 Electronic spatial extent (au):  <R**2>=            162.6526
 Charge=              0.0000 electrons
 Dipole moment (field-independent basis, Debye):
    X=              0.0008    Y=              0.0004    Z=              0.0001  Tot=              0.0009
 Quadrupole moment (field-independent basis, Debye-Ang):
   XX=            -17.5386   YY=            -17.5503   ZZ=            -17.5570
   XY=              0.0030   XZ=              0.0015   YZ=             -0.0005
 Traceless Quadrupole moment (field-independent basis, Debye-Ang):
   XX=              0.0100   YY=             -0.0017   ZZ=             -0.0083
   XY=              0.0030   XZ=              0.0015   YZ=             -0.0005
 Octapole moment (field-independent basis, Debye-Ang**2):
  XXX=             51.5697  YYY=              0.4291  ZZZ=              0.0819  XYY=             17.2024
  XXY=              0.1372  XXZ=              0.0247  XZZ=             17.2062  YZZ=              0.1435
  YYZ=              0.0275  XYZ=              0.0001
 Hexadecapole moment (field-independent basis, Debye-Ang**3):
 XXXX=           -119.0863 YYYY=            -18.0330 ZZZZ=            -18.0493 XXXY=             -0.4105
 XXXZ=             -0.0748 YYYX=             -0.4104 YYYZ=             -0.0008 ZZZX=             -0.0772
 ZZZY=             -0.0006 XXYY=            -22.8637 XXZZ=            -22.8674 YYZZ=             -6.0125
 XXYZ=             -0.0011 YYXZ=             -0.0257 ZZXY=             -0.1361
 N-N= 0.000000000000D+00 E-N=-6.579049319306D+03  KE= 2.749515185497D+03
 No NMR shielding tensors so no spin-rotation constants.
 Leave Link  601 at Fri May  8 11:28:04 2020, MaxMem= 1073741824 cpu:       0.8
 (Enter /home/matheus/.gaussian/g09/l122.exe)
 Counterpoise: doing MCBS calculation for fragment   1
 Leave Link  122 at Fri May  8 11:28:04 2020, MaxMem= 1073741824 cpu:       0.0
 (Enter /home/matheus/.gaussian/g09/l301.exe)
 Basis read from rwf:  (5D, 7F)
 No pseudopotential information found on rwf file.
 There are   138 symmetry adapted basis functions of A   symmetry.
 Integral buffers will be    131072 words long.
 Raffenetti 2 integral format.
 Two-electron integral symmetry is turned on.
   138 basis functions,   198 primitive gaussians,   160 cartesian basis functions
     9 alpha electrons        9 beta electrons
       nuclear repulsion energy        36.6321546607 Hartrees.
 IExCor=32609 DFT=T Ex+Corr=LC-wPBE ExCW=0 ScaHFX=  1.000000
 ScaDFX=  1.000000  0.000000  1.000000  1.000000 ScalE2=  1.000000  1.000000
 IRadAn=      5 IRanWt=     -1 IRanGd=            0 ICorTp=0
  HFx wShort=  0.000000 wLong=  0.550000 cFull=  0.000000 cShort=  0.000000 cLong=  1.000000
  DFx wShort=  0.000000 wLong=  0.550000 cFull=  0.000000 cShort=  0.000000 cLong=  1.000000
 NAtoms=    5 NActive=    4 NUniq=    4 SFac= 1.00D+00 NAtFMM=   60 NAOKFM=F Big=F
 No density basis found on file   718.
 Leave Link  301 at Fri May  8 11:28:04 2020, MaxMem= 1073741824 cpu:       0.2
 (Enter /home/matheus/.gaussian/g09/l302.exe)
 NPDir=0 NMtPBC=     1 NCelOv=     1 NCel=       1 NClECP=     1 NCelD=      1
         NCelK=      1 NCelE2=     1 NClLst=     1 CellRange=     0.0.
 One-electron integrals computed using PRISM.
 NBasis=   138 RedAO= T  NBF=   138
 NBsUse=   138 1.00D-06 NBFU=   138
 Precomputing XC quadrature grid using
 IXCGrd= 2 IRadAn=           5 IRanWt=          -1 IRanGd=           0 AccXCQ= 0.00D+00.
 NRdTot=     344 NPtTot=       92556 NUsed=       95038 NTot=       95070
 NSgBfM=   160   160   160   160   160 NAtAll=     4     4.
 Leave Link  302 at Fri May  8 11:28:04 2020, MaxMem= 1073741824 cpu:       0.8
 (Enter /home/matheus/.gaussian/g09/l303.exe)
 DipDrv:  MaxL=1.
 Leave Link  303 at Fri May  8 11:28:04 2020, MaxMem= 1073741824 cpu:       0.2
 (Enter /home/matheus/.gaussian/g09/l401.exe)
 Harris functional with IExCor=32609 diagonalized for initial guess.
 ExpMin= 2.53D-02 ExpMax= 1.53D+04 ExpMxC= 5.22D+02 IAcc=3 IRadAn=         5 AccDes= 0.00D+00
 HarFok:  IExCor=32609 AccDes= 0.00D+00 IRadAn=         5 IDoV= 1
 ScaDFX=  1.000000  1.000000  1.000000  1.000000
 FoFCou: FMM=F IPFlag=           0 FMFlag=      100000 FMFlg1=           0
         NFxFlg=           0 DoJE=T BraDBF=F KetDBF=T FulRan=T
         Omega=  0.000000  0.000000  1.000000  0.000000  0.000000 ICntrl=     500 IOpCl=  0
         NMat0=    1 NMatS0=    1 NMatT0=    0 NMatD0=    1 NMtDS0=    0 NMtDT0=    0
         I1Cent=           4 NGrid=           0.
 Petite list used in FoFCou.
 Harris En= -151.502591917129    
 Initial guess orbital symmetries:
       Occupied  (A) (A) (A) (A) (A) (A) (A) (A) (A)
       Virtual   (A) (A) (A) (A) (A) (A) (A) (A) (A) (A) (A) (A)
                 (A) (A) (A) (A) (A) (A) (A) (A) (A) (A) (A) (A)
                 (A) (A) (A) (A) (A) (A) (A) (A) (A) (A) (A) (A)
                 (A) (A) (A) (A) (A) (A) (A) (A) (A) (A) (A) (A)
                 (A) (A) (A) (A) (A) (A) (A) (A) (A) (A) (A) (A)
                 (A) (A) (A) (A) (A) (A) (A) (A) (A) (A) (A) (A)
                 (A) (A) (A) (A) (A) (A) (A) (A) (A) (A) (A) (A)
                 (A) (A) (A) (A) (A) (A) (A) (A) (A) (A) (A) (A)
                 (A) (A) (A) (A) (A) (A) (A) (A) (A) (A) (A) (A)
                 (A) (A) (A) (A) (A) (A) (A) (A) (A) (A) (A) (A)
                 (A) (A) (A) (A) (A) (A) (A) (A) (A)
 The electronic state of the initial guess is 1-A.
 Leave Link  401 at Fri May  8 11:28:04 2020, MaxMem= 1073741824 cpu:       2.6
 (Enter /home/matheus/.gaussian/g09/l502.exe)
 Closed shell SCF:
 Requested convergence on RMS density matrix=1.00D-08 within 128 cycles.
 Requested convergence on MAX density matrix=1.00D-06.
 Requested convergence on             energy=1.00D-06.
 No special actions if energy rises.
 Using DIIS extrapolation, IDIIS=  1040.
 Integral symmetry usage will be decided dynamically.
        94980 words used for storage of precomputed grid.
 IEnd=      192360 IEndB=      192360 NGot=  1073741824 MDV=  1073591865
 LenX=  1073591865 LenY=  1073565824
 Fock matrices will be formed incrementally for  20 cycles.

 Cycle   1  Pass 1  IDiag  1:
 FoFJK:  IHMeth= 1 ICntrl=     0 DoSepK=T KAlg= 1 I1Cent= 0 FoldK=F
 FoFCou: FMM=F IPFlag=           0 FMFlag=      100000 FMFlg1=           0
         NFxFlg=           0 DoJE=T BraDBF=F KetDBF=F FulRan=T
         Omega=  0.000000  0.000000  1.000000  0.000000  0.000000 ICntrl=     500 IOpCl=  0
         NMat0=    1 NMatS0=    1 NMatT0=    0 NMatD0=    1 NMtDS0=    0 NMtDT0=    0
         I1Cent=           0 NGrid=           0.
 Symmetry not used in FoFCou.
 E= -151.507311953419    
 DIIS: error= 1.61D-02 at cycle   1 NSaved=   1.
 NSaved= 1 IEnMin= 1 EnMin= -151.507311953419     IErMin= 1 ErrMin= 1.61D-02
 ErrMax= 1.61D-02 EMaxC= 1.00D-01 BMatC= 4.11D-02 BMatP= 4.11D-02
 IDIUse=3 WtCom= 8.39D-01 WtEn= 1.61D-01
 Coeff-Com:  0.100D+01
 Coeff-En:   0.100D+01
 Coeff:      0.100D+01
 Gap=     0.575 Goal=   None    Shift=    0.000
 GapD=    0.575 DampG=2.000 DampE=0.500 DampFc=1.0000 IDamp=-1.
 RMSDP=1.03D-03 MaxDP=2.35D-02              OVMax= 5.33D-02

 Cycle   2  Pass 1  IDiag  1:
 RMSU=  7.20D-04    CP:  9.90D-01
 FoFJK:  IHMeth= 1 ICntrl=     0 DoSepK=T KAlg= 1 I1Cent= 0 FoldK=F
 E= -151.523885714662     Delta-E=       -0.016573761243 Rises=F Damp=F
 DIIS: error= 9.77D-03 at cycle   2 NSaved=   2.
 NSaved= 2 IEnMin= 2 EnMin= -151.523885714662     IErMin= 2 ErrMin= 9.77D-03
 ErrMax= 9.77D-03 EMaxC= 1.00D-01 BMatC= 1.64D-02 BMatP= 4.11D-02
 IDIUse=3 WtCom= 9.02D-01 WtEn= 9.77D-02
 Coeff-Com:  0.374D+00 0.626D+00
 Coeff-En:   0.126D+00 0.874D+00
 Coeff:      0.350D+00 0.650D+00
 Gap=     0.491 Goal=   None    Shift=    0.000
 RMSDP=5.91D-04 MaxDP=2.22D-02 DE=-1.66D-02 OVMax= 2.34D-02

 Cycle   3  Pass 1  IDiag  1:
 RMSU=  3.40D-04    CP:  9.86D-01  6.67D-01
 FoFJK:  IHMeth= 1 ICntrl=     0 DoSepK=T KAlg= 1 I1Cent= 0 FoldK=F
 E= -151.533158332422     Delta-E=       -0.009272617760 Rises=F Damp=F
 DIIS: error= 2.23D-03 at cycle   3 NSaved=   3.
 NSaved= 3 IEnMin= 3 EnMin= -151.533158332422     IErMin= 3 ErrMin= 2.23D-03
 ErrMax= 2.23D-03 EMaxC= 1.00D-01 BMatC= 4.28D-04 BMatP= 1.64D-02
 IDIUse=3 WtCom= 9.78D-01 WtEn= 2.23D-02
 Coeff-Com:  0.405D-01 0.160D+00 0.799D+00
 Coeff-En:   0.000D+00 0.000D+00 0.100D+01
 Coeff:      0.396D-01 0.156D+00 0.804D+00
 Gap=     0.484 Goal=   None    Shift=    0.000
 RMSDP=7.97D-05 MaxDP=1.74D-03 DE=-9.27D-03 OVMax= 4.16D-03

 Cycle   4  Pass 1  IDiag  1:
 RMSU=  3.88D-05    CP:  9.84D-01  7.18D-01  1.02D+00
 FoFJK:  IHMeth= 1 ICntrl=     0 DoSepK=T KAlg= 1 I1Cent= 0 FoldK=F
 E= -151.533429244128     Delta-E=       -0.000270911706 Rises=F Damp=F
 DIIS: error= 2.59D-04 at cycle   4 NSaved=   4.
 NSaved= 4 IEnMin= 4 EnMin= -151.533429244128     IErMin= 4 ErrMin= 2.59D-04
 ErrMax= 2.59D-04 EMaxC= 1.00D-01 BMatC= 1.01D-05 BMatP= 4.28D-04
 IDIUse=3 WtCom= 9.97D-01 WtEn= 2.59D-03
 Coeff-Com: -0.957D-02-0.128D-01 0.874D-01 0.935D+00
 Coeff-En:   0.000D+00 0.000D+00 0.000D+00 0.100D+01
 Coeff:     -0.955D-02-0.128D-01 0.872D-01 0.935D+00
 Gap=     0.485 Goal=   None    Shift=    0.000
 RMSDP=2.00D-05 MaxDP=8.41D-04 DE=-2.71D-04 OVMax= 7.94D-04

 Cycle   5  Pass 1  IDiag  1:
 RMSU=  6.25D-06    CP:  9.84D-01  7.17D-01  1.06D+00  1.06D+00
 FoFJK:  IHMeth= 1 ICntrl=     0 DoSepK=T KAlg= 1 I1Cent= 0 FoldK=F
 E= -151.533438147094     Delta-E=       -0.000008902966 Rises=F Damp=F
 DIIS: error= 6.48D-05 at cycle   5 NSaved=   5.
 NSaved= 5 IEnMin= 5 EnMin= -151.533438147094     IErMin= 5 ErrMin= 6.48D-05
 ErrMax= 6.48D-05 EMaxC= 1.00D-01 BMatC= 2.27D-07 BMatP= 1.01D-05
 IDIUse=1 WtCom= 1.00D+00 WtEn= 0.00D+00
 Coeff-Com: -0.301D-03-0.197D-02-0.346D-01-0.124D+00 0.116D+01
 Coeff:     -0.301D-03-0.197D-02-0.346D-01-0.124D+00 0.116D+01
 Gap=     0.485 Goal=   None    Shift=    0.000
 RMSDP=4.99D-06 MaxDP=9.66D-05 DE=-8.90D-06 OVMax= 3.29D-04

 Cycle   6  Pass 1  IDiag  1:
 RMSU=  1.63D-06    CP:  9.83D-01  7.18D-01  1.06D+00  1.11D+00  1.33D+00
 FoFJK:  IHMeth= 1 ICntrl=     0 DoSepK=T KAlg= 1 I1Cent= 0 FoldK=F
 E= -151.533438759347     Delta-E=       -0.000000612252 Rises=F Damp=F
 DIIS: error= 1.09D-05 at cycle   6 NSaved=   6.
 NSaved= 6 IEnMin= 6 EnMin= -151.533438759347     IErMin= 6 ErrMin= 1.09D-05
 ErrMax= 1.09D-05 EMaxC= 1.00D-01 BMatC= 1.28D-08 BMatP= 2.27D-07
 IDIUse=1 WtCom= 1.00D+00 WtEn= 0.00D+00
 Coeff-Com:  0.284D-03 0.824D-03 0.455D-02-0.141D-02-0.229D+00 0.123D+01
 Coeff:      0.284D-03 0.824D-03 0.455D-02-0.141D-02-0.229D+00 0.123D+01
[...]
 RMSU=  1.08D-05    CP:  1.00D+00
 FoFJK:  IHMeth= 1 ICntrl=     0 DoSepK=T KAlg= 1 I1Cent= 0 FoldK=F
 E= -2753.47778041476     Delta-E=       -0.000000545928 Rises=F Damp=F
 DIIS: error= 4.65D-06 at cycle   2 NSaved=   2.
 NSaved= 2 IEnMin= 2 EnMin= -2753.47778041476     IErMin= 2 ErrMin= 4.65D-06
 ErrMax= 4.65D-06 EMaxC= 1.00D-01 BMatC= 3.73D-09 BMatP= 4.74D-06
 IDIUse=1 WtCom= 1.00D+00 WtEn= 0.00D+00
 Coeff-Com: -0.817D-02 0.101D+01
 Coeff:     -0.817D-02 0.101D+01
 Gap=     0.555 Goal=   None    Shift=    0.000
 RMSDP=1.64D-06 MaxDP=6.88D-05 DE=-5.46D-07 OVMax= 4.56D-05

 Cycle   3  Pass 1  IDiag  1:
 RMSU=  5.26D-07    CP:  1.00D+00  1.10D+00
 FoFJK:  IHMeth= 1 ICntrl=     0 DoSepK=T KAlg= 1 I1Cent= 0 FoldK=F
 E= -2753.47778042128     Delta-E=       -0.000000006523 Rises=F Damp=F
 DIIS: error= 7.42D-07 at cycle   3 NSaved=   3.
 NSaved= 3 IEnMin= 3 EnMin= -2753.47778042128     IErMin= 3 ErrMin= 7.42D-07
 ErrMax= 7.42D-07 EMaxC= 1.00D-01 BMatC= 9.09D-11 BMatP= 3.73D-09
 IDIUse=1 WtCom= 1.00D+00 WtEn= 0.00D+00
 Coeff-Com:  0.339D-03-0.128D+00 0.113D+01
 Coeff:      0.339D-03-0.128D+00 0.113D+01
 Gap=     0.555 Goal=   None    Shift=    0.000
 RMSDP=2.16D-07 MaxDP=1.02D-05 DE=-6.52D-09 OVMax= 9.08D-06

 Cycle   4  Pass 1  IDiag  1:
 RMSU=  4.89D-08    CP:  1.00D+00  1.11D+00  1.20D+00
 FoFJK:  IHMeth= 1 ICntrl=     0 DoSepK=T KAlg= 1 I1Cent= 0 FoldK=F
 E= -2753.47778042143     Delta-E=       -0.000000000150 Rises=F Damp=F
 DIIS: error= 2.47D-07 at cycle   4 NSaved=   4.
 NSaved= 4 IEnMin= 4 EnMin= -2753.47778042143     IErMin= 4 ErrMin= 2.47D-07
 ErrMax= 2.47D-07 EMaxC= 1.00D-01 BMatC= 6.76D-12 BMatP= 9.09D-11
 IDIUse=1 WtCom= 1.00D+00 WtEn= 0.00D+00
 Coeff-Com:  0.178D-03-0.426D-01 0.256D+00 0.786D+00
 Coeff:      0.178D-03-0.426D-01 0.256D+00 0.786D+00
 Gap=     0.555 Goal=   None    Shift=    0.000
 RMSDP=1.68D-08 MaxDP=7.06D-07 DE=-1.50D-10 OVMax= 8.23D-07

 Cycle   5  Pass 1  IDiag  1:
 RMSU=  7.33D-09    CP:  1.00D+00  1.10D+00  1.22D+00  1.12D+00
 FoFJK:  IHMeth= 1 ICntrl=     0 DoSepK=T KAlg= 1 I1Cent= 0 FoldK=F
 E= -2753.47778042142     Delta-E=        0.000000000007 Rises=F Damp=F
 DIIS: error= 3.31D-08 at cycle   5 NSaved=   5.
 NSaved= 5 IEnMin= 4 EnMin= -2753.47778042143     IErMin= 5 ErrMin= 3.31D-08
 ErrMax= 3.31D-08 EMaxC= 1.00D-01 BMatC= 2.49D-13 BMatP= 6.76D-12
 IDIUse=1 WtCom= 1.00D+00 WtEn= 0.00D+00
 Coeff-Com: -0.120D-04 0.603D-02-0.561D-01 0.160D-01 0.103D+01
 Coeff:     -0.120D-04 0.603D-02-0.561D-01 0.160D-01 0.103D+01
 Gap=     0.555 Goal=   None    Shift=    0.000
 RMSDP=7.39D-09 MaxDP=4.14D-07 DE= 7.28D-12 OVMax= 3.77D-07

 SCF Done:  E(RLC-wPBE) =  -2753.47778042     A.U. after    5 cycles
             Convg  =    0.7391D-08             -V/T =  2.0014
 KE= 2.749555204722D+03 PE=-6.579093131392D+03 EE= 1.076060146249D+03
 Leave Link  502 at Fri May  8 11:54:19 2020, MaxMem= 1073741824 cpu:     117.4
 (Enter /home/matheus/.gaussian/g09/l122.exe)
 Restoring MOs from calculation   4 to rwf.
 Counterpoise: doing MCBS calculation for fragment   1
 Leave Link  122 at Fri May  8 11:54:19 2020, MaxMem= 1073741824 cpu:       0.0
 (Enter /home/matheus/.gaussian/g09/l301.exe)
 Basis read from rwf:  (5D, 7F)
 No pseudopotential information found on rwf file.
 There are   138 symmetry adapted basis functions of A   symmetry.
 Integral buffers will be    131072 words long.
 Raffenetti 2 integral format.
 Two-electron integral symmetry is turned on.
   138 basis functions,   198 primitive gaussians,   160 cartesian basis functions
     9 alpha electrons        9 beta electrons
       nuclear repulsion energy        36.6321546607 Hartrees.
 IExCor=32609 DFT=T Ex+Corr=LC-wPBE ExCW=0 ScaHFX=  1.000000
 ScaDFX=  1.000000  0.000000  1.000000  1.000000 ScalE2=  1.000000  1.000000
 IRadAn=      5 IRanWt=     -1 IRanGd=            0 ICorTp=0
  HFx wShort=  0.000000 wLong=  0.550000 cFull=  0.000000 cShort=  0.000000 cLong=  1.000000
  DFx wShort=  0.000000 wLong=  0.550000 cFull=  0.000000 cShort=  0.000000 cLong=  1.000000
 NAtoms=    5 NActive=    4 NUniq=    4 SFac= 1.00D+00 NAtFMM=   60 NAOKFM=F Big=F
 No density basis found on file   718.
 Leave Link  301 at Fri May  8 11:54:19 2020, MaxMem= 1073741824 cpu:       0.2
 (Enter /home/matheus/.gaussian/g09/l302.exe)
 NPDir=0 NMtPBC=     1 NCelOv=     1 NCel=       1 NClECP=     1 NCelD=      1
         NCelK=      1 NCelE2=     1 NClLst=     1 CellRange=     0.0.
 One-electron integrals computed using PRISM.
 NBasis=   138 RedAO= T  NBF=   138
 NBsUse=   138 1.00D-06 NBFU=   138
 Precomputing XC quadrature grid using
 IXCGrd= 2 IRadAn=           5 IRanWt=          -1 IRanGd=           0 AccXCQ= 0.00D+00.
 NRdTot=     344 NPtTot=       92556 NUsed=       95038 NTot=       95070
 NSgBfM=   160   160   160   160   160 NAtAll=     4     4.
 Leave Link  302 at Fri May  8 11:54:19 2020, MaxMem= 1073741824 cpu:       0.8
 (Enter /home/matheus/.gaussian/g09/l303.exe)
 DipDrv:  MaxL=1.
 Leave Link  303 at Fri May  8 11:54:19 2020, MaxMem= 1073741824 cpu:       0.2
 (Enter /home/matheus/.gaussian/g09/l401.exe)
 Initial guess read from the read-write file.
 Guess basis will be translated and rotated to current coordinates.
 Initial guess orbital symmetries:
       Occupied  (A) (A) (A) (A) (A) (A) (A) (A) (A)
       Virtual   (A) (A) (A) (A) (A) (A) (A) (A) (A) (A) (A) (A)
                 (A) (A) (A) (A) (A) (A) (A) (A) (A) (A) (A) (A)
                 (A) (A) (A) (A) (A) (A) (A) (A) (A) (A) (A) (A)
                 (A) (A) (A) (A) (A) (A) (A) (A) (A) (A) (A) (A)
                 (A) (A) (A) (A) (A) (A) (A) (A) (A) (A) (A) (A)
                 (A) (A) (A) (A) (A) (A) (A) (A) (A) (A) (A) (A)
                 (A) (A) (A) (A) (A) (A) (A) (A) (A) (A) (A) (A)
                 (A) (A) (A) (A) (A) (A) (A) (A) (A) (A) (A) (A)
                 (A) (A) (A) (A) (A) (A) (A) (A) (A) (A) (A) (A)
                 (A) (A) (A) (A) (A) (A) (A) (A) (A) (A) (A) (A)
                 (A) (A) (A) (A) (A) (A) (A) (A) (A)
 The electronic state of the initial guess is 1-A.
 Generating alternative initial guess.
 Harris functional with IExCor=32609 diagonalized for initial guess.
 ExpMin= 2.53D-02 ExpMax= 1.53D+04 ExpMxC= 5.22D+02 IAcc=3 IRadAn=         5 AccDes= 0.00D+00
 HarFok:  IExCor=32609 AccDes= 0.00D+00 IRadAn=         5 IDoV= 1
 ScaDFX=  1.000000  1.000000  1.000000  1.000000
 FoFCou: FMM=F IPFlag=           0 FMFlag=      100000 FMFlg1=           0
         NFxFlg=           0 DoJE=T BraDBF=F KetDBF=T FulRan=T
         Omega=  0.000000  0.000000  1.000000  0.000000  0.000000 ICntrl=     500 IOpCl=  0
         NMat0=    1 NMatS0=    1 NMatT0=    0 NMatD0=    1 NMtDS0=    0 NMtDT0=    0
         I1Cent=           4 NGrid=           0.
 Petite list used in FoFCou.
 Harris En= -151.502591887922    
 Leave Link  401 at Fri May  8 11:54:20 2020, MaxMem= 1073741824 cpu:       3.0
 (Enter /home/matheus/.gaussian/g09/l502.exe)
 Closed shell SCF:
 Requested convergence on RMS density matrix=1.00D-08 within 128 cycles.
 Requested convergence on MAX density matrix=1.00D-06.
 Requested convergence on             energy=1.00D-06.
 No special actions if energy rises.
 Using DIIS extrapolation, IDIIS=  1040.
 Integral symmetry usage will be decided dynamically.
        94980 words used for storage of precomputed grid.
 IEnd=      192360 IEndB=      192360 NGot=  1073741824 MDV=  1073591865
 LenX=  1073591865 LenY=  1073565824
 Fock matrices will be formed incrementally for  20 cycles.

 Cycle   1  Pass 1  IDiag  1:
 FoFJK:  IHMeth= 1 ICntrl=     0 DoSepK=T KAlg= 1 I1Cent= 0 FoldK=F
 FoFCou: FMM=F IPFlag=           0 FMFlag=      100000 FMFlg1=           0
         NFxFlg=           0 DoJE=T BraDBF=F KetDBF=F FulRan=T
         Omega=  0.000000  0.000000  1.000000  0.000000  0.000000 ICntrl=     500 IOpCl=  0
         NMat0=    1 NMatS0=    1 NMatT0=    0 NMatD0=    1 NMtDS0=    0 NMtDT0=    0
         I1Cent=           0 NGrid=           0.
 Symmetry not used in FoFCou.
 E= -151.533438516324    
 DIIS: error= 9.62D-06 at cycle   1 NSaved=   1.
 NSaved= 1 IEnMin= 1 EnMin= -151.533438516324     IErMin= 1 ErrMin= 9.62D-06
 ErrMax= 9.62D-06 EMaxC= 1.00D-01 BMatC= 2.10D-08 BMatP= 2.10D-08
 IDIUse=1 WtCom= 1.00D+00 WtEn= 0.00D+00
 Coeff-Com:  0.100D+01
 Coeff:      0.100D+01
 Gap=     0.485 Goal=   None    Shift=    0.000
 RMSDP=8.94D-07 MaxDP=2.09D-05              OVMax= 3.50D-05

 Cycle   2  Pass 1  IDiag  1:
 RMSU=  6.32D-07    CP:  1.00D+00
 FoFJK:  IHMeth= 1 ICntrl=     0 DoSepK=T KAlg= 1 I1Cent= 0 FoldK=F
 E= -151.533438535628     Delta-E=       -0.000000019304 Rises=F Damp=F
 DIIS: error= 2.24D-06 at cycle   2 NSaved=   2.
 NSaved= 2 IEnMin= 2 EnMin= -151.533438535628     IErMin= 2 ErrMin= 2.24D-06
 ErrMax= 2.24D-06 EMaxC= 1.00D-01 BMatC= 8.69D-10 BMatP= 2.10D-08
 IDIUse=1 WtCom= 1.00D+00 WtEn= 0.00D+00
 Coeff-Com: -0.141D+00 0.114D+01
 Coeff:     -0.141D+00 0.114D+01
 Gap=     0.485 Goal=   None    Shift=    0.000
 RMSDP=2.75D-07 MaxDP=7.95D-06 DE=-1.93D-08 OVMax= 1.46D-05

 Cycle   3  Pass 1  IDiag  1:
 RMSU=  1.03D-07    CP:  1.00D+00  1.26D+00
 FoFJK:  IHMeth= 1 ICntrl=     0 DoSepK=T KAlg= 1 I1Cent= 0 FoldK=F
 E= -151.533438537537     Delta-E=       -0.000000001909 Rises=F Damp=F
 DIIS: error= 7.10D-07 at cycle   3 NSaved=   3.
 NSaved= 3 IEnMin= 3 EnMin= -151.533438537537     IErMin= 3 ErrMin= 7.10D-07
 ErrMax= 7.10D-07 EMaxC= 1.00D-01 BMatC= 7.11D-11 BMatP= 8.69D-10
 IDIUse=1 WtCom= 1.00D+00 WtEn= 0.00D+00
 Coeff-Com: -0.364D-02-0.157D+00 0.116D+01
 Coeff:     -0.364D-02-0.157D+00 0.116D+01
 Gap=     0.485 Goal=   None    Shift=    0.000
 RMSDP=9.36D-08 MaxDP=2.09D-06 DE=-1.91D-09 OVMax= 6.15D-06

 Cycle   4  Pass 1  IDiag  1:
 RMSU=  2.93D-08    CP:  1.00D+00  1.33D+00  1.42D+00
 FoFJK:  IHMeth= 1 ICntrl=     0 DoSepK=T KAlg= 1 I1Cent= 0 FoldK=F
 E= -151.533438537738     Delta-E=       -0.000000000201 Rises=F Damp=F
 DIIS: error= 3.83D-07 at cycle   4 NSaved=   4.
 NSaved= 4 IEnMin= 4 EnMin= -151.533438537738     IErMin= 4 ErrMin= 3.83D-07
 ErrMax= 3.83D-07 EMaxC= 1.00D-01 BMatC= 3.01D-11 BMatP= 7.11D-11
 IDIUse=1 WtCom= 1.00D+00 WtEn= 0.00D+00
 Coeff-Com:  0.100D-01-0.166D+00 0.480D+00 0.676D+00
 Coeff:      0.100D-01-0.166D+00 0.480D+00 0.676D+00
 Gap=     0.485 Goal=   None    Shift=    0.000
 RMSDP=2.93D-08 MaxDP=4.68D-07 DE=-2.01D-10 OVMax= 1.99D-06

 Cycle   5  Pass 1  IDiag  1:
 RMSU=  1.42D-08    CP:  1.00D+00  1.34D+00  1.54D+00  8.75D-01
 FoFJK:  IHMeth= 1 ICntrl=     0 DoSepK=T KAlg= 1 I1Cent= 0 FoldK=F
 E= -151.533438537772     Delta-E=       -0.000000000033 Rises=F Damp=F
 DIIS: error= 1.64D-07 at cycle   5 NSaved=   5.
 NSaved= 5 IEnMin= 5 EnMin= -151.533438537772     IErMin= 5 ErrMin= 1.64D-07
 ErrMax= 1.64D-07 EMaxC= 1.00D-01 BMatC= 4.07D-12 BMatP= 3.01D-11
 IDIUse=1 WtCom= 1.00D+00 WtEn= 0.00D+00
 Coeff-Com:  0.350D-02-0.129D-01-0.138D+00 0.210D+00 0.937D+00
 Coeff:      0.350D-02-0.129D-01-0.138D+00 0.210D+00 0.937D+00
 Gap=     0.485 Goal=   None    Shift=    0.000
 RMSDP=1.72D-08 MaxDP=3.47D-07 DE=-3.34D-11 OVMax= 1.42D-06

 Cycle   6  Pass 1  IDiag  1:
 RMSU=  4.25D-09    CP:  1.00D+00  1.34D+00  1.61D+00  1.14D+00  1.24D+00
 FoFJK:  IHMeth= 1 ICntrl=     0 DoSepK=T KAlg= 1 I1Cent= 0 FoldK=F
 E= -151.533438537779     Delta-E=       -0.000000000007 Rises=F Damp=F
 DIIS: error= 3.84D-08 at cycle   6 NSaved=   6.
 NSaved= 6 IEnMin= 6 EnMin= -151.533438537779     IErMin= 6 ErrMin= 3.84D-08
 ErrMax= 3.84D-08 EMaxC= 1.00D-01 BMatC= 2.24D-13 BMatP= 4.07D-12
 IDIUse=1 WtCom= 1.00D+00 WtEn= 0.00D+00
 Coeff-Com: -0.140D-02 0.205D-01-0.490D-01-0.766D-01-0.224D-01 0.113D+01
 Coeff:     -0.140D-02 0.205D-01-0.490D-01-0.766D-01-0.224D-01 0.113D+01
 Gap=     0.485 Goal=   None    Shift=    0.000
 RMSDP=6.59D-09 MaxDP=1.35D-07 DE=-6.96D-12 OVMax= 5.91D-07

 SCF Done:  E(RLC-wPBE) =  -151.533438538     A.U. after    6 cycles
             Convg  =    0.6589D-08             -V/T =  2.0070
 KE= 1.504750222013D+02 PE=-4.315640166928D+02 EE= 9.292340129306D+01
 Leave Link  502 at Fri May  8 11:54:27 2020, MaxMem= 1073741824 cpu:      59.1
 (Enter /home/matheus/.gaussian/g09/l122.exe)
 Restoring MOs from calculation   5 to rwf.
 Counterpoise: doing MCBS calculation for fragment   2
 Leave Link  122 at Fri May  8 11:54:27 2020, MaxMem= 1073741824 cpu:       0.0
 (Enter /home/matheus/.gaussian/g09/l301.exe)
 Basis read from rwf:  (5D, 7F)
 No pseudopotential information found on rwf file.
 There are    59 symmetry adapted basis functions of A   symmetry.
 Integral buffers will be    131072 words long.
 Raffenetti 2 integral format.
 Two-electron integral symmetry is turned on.
    59 basis functions,   217 primitive gaussians,    69 cartesian basis functions
    18 alpha electrons       18 beta electrons
       nuclear repulsion energy         0.0000000000 Hartrees.
 IExCor=32609 DFT=T Ex+Corr=LC-wPBE ExCW=0 ScaHFX=  1.000000
 ScaDFX=  1.000000  0.000000  1.000000  1.000000 ScalE2=  1.000000  1.000000
 IRadAn=      5 IRanWt=     -1 IRanGd=            0 ICorTp=0
  HFx wShort=  0.000000 wLong=  0.550000 cFull=  0.000000 cShort=  0.000000 cLong=  1.000000
  DFx wShort=  0.000000 wLong=  0.550000 cFull=  0.000000 cShort=  0.000000 cLong=  1.000000
 NAtoms=    5 NActive=    1 NUniq=    1 SFac= 1.00D+00 NAtFMM=   60 NAOKFM=F Big=F
 No density basis found on file   718.
 Leave Link  301 at Fri May  8 11:54:27 2020, MaxMem= 1073741824 cpu:       0.2
 (Enter /home/matheus/.gaussian/g09/l302.exe)
 NPDir=0 NMtPBC=     1 NCelOv=     1 NCel=       1 NClECP=     1 NCelD=      1
         NCelK=      1 NCelE2=     1 NClLst=     1 CellRange=     0.0.
 One-electron integrals computed using PRISM.
 NBasis=    59 RedAO= T  NBF=    59
 NBsUse=    59 1.00D-06 NBFU=    59
 Precomputing XC quadrature grid using
 IXCGrd= 2 IRadAn=           5 IRanWt=          -1 IRanGd=           0 AccXCQ= 0.00D+00.
 NRdTot=      81 NPtTot=       30352 NUsed=       30981 NTot=       31013
 NSgBfM=    69    69    69    69    69 NAtAll=     1     1.
 Leave Link  302 at Fri May  8 11:54:27 2020, MaxMem= 1073741824 cpu:       0.7
 (Enter /home/matheus/.gaussian/g09/l303.exe)
 DipDrv:  MaxL=1.
 Leave Link  303 at Fri May  8 11:54:27 2020, MaxMem= 1073741824 cpu:       0.2
 (Enter /home/matheus/.gaussian/g09/l401.exe)
 Initial guess read from the read-write file.
 Guess basis will be translated and rotated to current coordinates.
 Initial guess orbital symmetries:
       Occupied  (A) (A) (A) (A) (A) (A) (A) (A) (A) (A) (A) (A)
                 (A) (A) (A) (A) (A) (A)
       Virtual   (A) (A) (A) (A) (A) (A) (A) (A) (A) (A) (A) (A)
                 (A) (A) (A) (A) (A) (A) (A) (A) (A) (A) (A) (A)
                 (A) (A) (A) (A) (A) (A) (A) (A) (A) (A) (A) (A)
                 (A) (A) (A) (A) (A)
 The electronic state of the initial guess is 1-A.
 Generating alternative initial guess.
 Harris functional with IExCor=32609 diagonalized for initial guess.
 ExpMin= 4.00D-02 ExpMax= 1.17D+07 ExpMxC= 1.33D+04 IAcc=3 IRadAn=         5 AccDes= 0.00D+00
 HarFok:  IExCor=32609 AccDes= 0.00D+00 IRadAn=         5 IDoV= 1
 ScaDFX=  1.000000  1.000000  1.000000  1.000000
 FoFCou: FMM=F IPFlag=           0 FMFlag=      100000 FMFlg1=           0
         NFxFlg=           0 DoJE=T BraDBF=F KetDBF=T FulRan=T
         Omega=  0.000000  0.000000  1.000000  0.000000  0.000000 ICntrl=     500 IOpCl=  0
         NMat0=    1 NMatS0=    1 NMatT0=    0 NMatD0=    1 NMtDS0=    0 NMtDT0=    0
         I1Cent=           4 NGrid=           0.
 Petite list used in FoFCou.
 DSYEVD returned Info=          89 IAlg= 4 N=    59 NDim=    59 NE2=    18198841 trying DSYEV.
 Harris En= -2753.24576836237    
 Leave Link  401 at Fri May  8 11:54:28 2020, MaxMem= 1073741824 cpu:       1.2
 (Enter /home/matheus/.gaussian/g09/l502.exe)
 Closed shell SCF:
 Requested convergence on RMS density matrix=1.00D-08 within 128 cycles.
 Requested convergence on MAX density matrix=1.00D-06.
 Requested convergence on             energy=1.00D-06.
 No special actions if energy rises.
 Using DIIS extrapolation, IDIIS=  1040.
 Integral symmetry usage will be decided dynamically.
        30923 words used for storage of precomputed grid.
 IEnd=       64406 IEndB=       64406 NGot=  1073741824 MDV=  1073698889
 LenX=  1073698889 LenY=  1073693687
 Fock matrices will be formed incrementally for  20 cycles.

 Cycle   1  Pass 1  IDiag  1:
 FoFJK:  IHMeth= 1 ICntrl=     0 DoSepK=T KAlg= 1 I1Cent= 0 FoldK=F
 FoFCou: FMM=F IPFlag=           0 FMFlag=      100000 FMFlg1=           0
         NFxFlg=           0 DoJE=T BraDBF=F KetDBF=F FulRan=T
         Omega=  0.000000  0.000000  1.000000  0.000000  0.000000 ICntrl=     500 IOpCl=  0
         NMat0=    1 NMatS0=    1 NMatT0=    0 NMatD0=    1 NMtDS0=    0 NMtDT0=    0
         I1Cent=           0 NGrid=           0.
 Symmetry not used in FoFCou.
 E= -2753.47775989058    
 DIIS: error= 7.28D-14 at cycle   1 NSaved=   1.
 NSaved= 1 IEnMin= 1 EnMin= -2753.47775989058     IErMin= 1 ErrMin= 7.28D-14
 ErrMax= 7.28D-14 EMaxC= 1.00D-01 BMatC= 1.68D-25 BMatP= 1.68D-25
 IDIUse=1 WtCom= 1.00D+00 WtEn= 0.00D+00
 Coeff-Com:  0.100D+01
 Coeff:      0.100D+01
 Gap=     0.626 Goal=   None    Shift=    0.000
 DSYEVD returned Info=          89 IAlg= 4 N=    59 NDim=    59 NE2=    18198197 trying DSYEV.
 RMSDP=4.92D-15 MaxDP=1.27D-13              OVMax= 2.16D-14

 SCF Done:  E(RLC-wPBE) =  -2753.47775989     A.U. after    1 cycles
             Convg  =    0.4922D-14             -V/T =  2.0014
 KE= 2.749561508178D+03 PE=-6.579099712888D+03 EE= 1.076060444820D+03
 Leave Link  502 at Fri May  8 11:54:29 2020, MaxMem= 1073741824 cpu:      13.6
 (Enter /home/matheus/.gaussian/g09/l122.exe)
 Restoring MOs from calculation   1 to rwf.
 Counterpoise: corrected energy =   -2905.011235943749
 Counterpoise: BSSE energy =       0.000024180397
 Leave Link  122 at Fri May  8 11:54:29 2020, MaxMem= 1073741824 cpu:       0.0
 (Enter /home/matheus/.gaussian/g09/l108.exe)
 Scan completed.

 Summary of the potential surface scan:
   N      R1          SCF    
 ----  ---------  -----------
    1     3.0000  -2753.47776
    2     3.1000  -2753.47776
    3     3.2000  -2753.47776
    4     3.3000  -2753.47776
    5     3.4000  -2753.47776
    6     3.5000  -2753.47776
    7     3.6000  -2753.47776
    8     3.7000  -2753.47776
    9     3.8000  -2753.47776
   10     3.9000  -2753.47776
   11     4.0000  -2753.47776
   12     4.1000  -2753.47776
   13     4.2000  -2753.47776
   14     4.3000  -2753.47776
   15     4.4000  -2753.47776
   16     4.5000  -2753.47776
   17     4.6000  -2753.47776
   18     4.7000  -2753.47776
   19     4.8000  -2753.47776
   20     4.9000  -2753.47776
   21     5.0000  -2753.47776
 ----  ---------  -----------
  
 Leave Link  108 at Fri May  8 11:54:29 2020, MaxMem= 1073741824 cpu:       0.0
 (Enter /home/matheus/.gaussian/g09/l9999.exe)

 Test job not archived.
 1\1\GINC-REDGIANT\Scan\RLC-wPBE\Aug-CC-pVTZ\H2Kr1O2\MATHEUS\08-May-202
 0\1\\#p lc-wpbe/aug-cc-PVTz iop(3/107=0550000000) iop(3/108=0550000000
 ) int=ultrafine counterpoise=2 Scan\\TCC\\0,1\O,0,0.,0.,0.725\O,0,0.,0
 .,-0.725\H,0,0.9047631646,0.1595341571,1.0235104166\H,0,0.,0.918720594
 7,-1.0235104166\Kr,0,0.,R1,0.\\R1=3.,s,20,0.1\\Version=EM64L-G09RevC.0
 1\State=1-A\HF=-2753.4777599,-2753.4777599,-2753.4777599,-2753.4777599
 ,-2753.4777599,-2753.4777599,-2753.4777599,-2753.4777599,-2753.4777599
 ,-2753.4777599,-2753.4777599,-2753.4777599,-2753.4777599,-2753.4777599
 ,-2753.4777599,-2753.4777599,-2753.4777599,-2753.4777599,-2753.4777599
 ,-2753.4777599,-2753.4777599\RMSD=1.997e-09,5.419e-11,1.019e-11,4.440e
 -12,2.196e-12,1.227e-12,6.781e-13,3.792e-13,2.101e-13,1.153e-13,6.228e
 -14,3.752e-14,2.128e-14,1.119e-14,9.150e-15,9.670e-15,1.118e-14,8.951e
 -15,6.513e-15,5.540e-15,4.922e-15\PG=C01 [X(H2Kr1O2)]\\@


 THOSE WITH THE GOLD MAKE THE RULES.

             -- PETER'S GOLDEN RULE
 Job cpu time:  0 days  3 hours 45 minutes 18.4 seconds.
 File lengths (MBytes):  RWF=     33 Int=      0 D2E=      0 Chk=      8 Scr=      1
 Normal termination of Gaussian 09 at Fri May  8 11:54:29 2020.
