 Entering Gaussian System, Link 0=g09
 Input=/home/matheus/.tcc/Inputs-lc-wpbe/H2O2-Kr_25.com
 Output=/home/matheus/.tcc/Logs-lc-wpbe/H2O2-Kr_25.log
 Initial command:
 /home/matheus/.gaussian/g09/l1.exe /home/matheus/.gaussian/g09/scratch/Gau-30180.inp -scrdir=/home/matheus/.gaussian/g09/scratch/
 Entering Link 1 = /home/matheus/.gaussian/g09/l1.exe PID=     30183.
  
 Copyright (c) 1988,1990,1992,1993,1995,1998,2003,2009,2011,
            Gaussian, Inc.  All Rights Reserved.
  
 This is part of the Gaussian(R) 09 program.  It is based on
 the Gaussian(R) 03 system (copyright 2003, Gaussian, Inc.),
 the Gaussian(R) 98 system (copyright 1998, Gaussian, Inc.),
 the Gaussian(R) 94 system (copyright 1995, Gaussian, Inc.),
 the Gaussian 92(TM) system (copyright 1992, Gaussian, Inc.),
 the Gaussian 90(TM) system (copyright 1990, Gaussian, Inc.),
 the Gaussian 88(TM) system (copyright 1988, Gaussian, Inc.),
 the Gaussian 86(TM) system (copyright 1986, Carnegie Mellon
 University), and the Gaussian 82(TM) system (copyright 1983,
 Carnegie Mellon University). Gaussian is a federally registered
 trademark of Gaussian, Inc.
  
 This software contains proprietary and confidential information,
 including trade secrets, belonging to Gaussian, Inc.
  
 This software is provided under written license and may be
 used, copied, transmitted, or stored only in accord with that
 written license.
  
 The following legend is applicable only to US Government
 contracts under FAR:
  
                    RESTRICTED RIGHTS LEGEND
  
 Use, reproduction and disclosure by the US Government is
 subject to restrictions as set forth in subparagraphs (a)
 and (c) of the Commercial Computer Software - Restricted
 Rights clause in FAR 52.227-19.
  
 Gaussian, Inc.
 340 Quinnipiac St., Bldg. 40, Wallingford CT 06492
  
  
 ---------------------------------------------------------------
 Warning -- This program may not be used in any manner that
 competes with the business of Gaussian, Inc. or will provide
 assistance to any competitor of Gaussian, Inc.  The licensee
 of this program is prohibited from giving any competitor of
 Gaussian, Inc. access to this program.  By using this program,
 the user acknowledges that Gaussian, Inc. is engaged in the
 business of creating and licensing software in the field of
 computational chemistry and represents and warrants to the
 licensee that it is not a competitor of Gaussian, Inc. and that
 it will not use this program in any manner prohibited above.
 ---------------------------------------------------------------
  

 Cite this work as:
 Gaussian 09, Revision C.01,
 M. J. Frisch, G. W. Trucks, H. B. Schlegel, G. E. Scuseria, 
 M. A. Robb, J. R. Cheeseman, G. Scalmani, V. Barone, B. Mennucci, 
 G. A. Petersson, H. Nakatsuji, M. Caricato, X. Li, H. P. Hratchian, 
 A. F. Izmaylov, J. Bloino, G. Zheng, J. L. Sonnenberg, M. Hada, 
 M. Ehara, K. Toyota, R. Fukuda, J. Hasegawa, M. Ishida, T. Nakajima, 
 Y. Honda, O. Kitao, H. Nakai, T. Vreven, J. A. Montgomery, Jr., 
 J. E. Peralta, F. Ogliaro, M. Bearpark, J. J. Heyd, E. Brothers, 
 K. N. Kudin, V. N. Staroverov, T. Keith, R. Kobayashi, J. Normand, 
 K. Raghavachari, A. Rendell, J. C. Burant, S. S. Iyengar, J. Tomasi, 
 M. Cossi, N. Rega, J. M. Millam, M. Klene, J. E. Knox, J. B. Cross, 
 V. Bakken, C. Adamo, J. Jaramillo, R. Gomperts, R. E. Stratmann, 
 O. Yazyev, A. J. Austin, R. Cammi, C. Pomelli, J. W. Ochterski, 
 R. L. Martin, K. Morokuma, V. G. Zakrzewski, G. A. Voth, 
 P. Salvador, J. J. Dannenberg, S. Dapprich, A. D. Daniels, 
 O. Farkas, J. B. Foresman, J. V. Ortiz, J. Cioslowski, 
 and D. J. Fox, Gaussian, Inc., Wallingford CT, 2010.
 
 ******************************************
 Gaussian 09:  EM64L-G09RevC.01 23-Sep-2011
                 8-May-2020 
 ******************************************
 %mem=8GB
 %nproc=8
 Will use up to    8 processors via shared memory.
 ----------------------------------------------------------------------
 #p lc-wpbe/aug-cc-PVTz iop(3/107=0550000000) iop(3/108=0550000000) int
 =ultrafine counterpoise=2 Scan
 ----------------------------------------------------------------------
 1/38=1,60=1,62=2/1,8;
 2/12=2,17=6,18=5,29=3,40=1/2;
 1/38=1,53=5172,62=2/22;
 3/5=16,6=1,7=10,11=2,16=1,25=1,30=1,74=-41,75=-5,107=550000000,108=550000000/1,2,3;
 4//1;
 5/5=2,38=5/2;
 6/7=2,8=2,9=2,10=2,18=1,28=1/1;
 1/53=4052,62=2,63=1/22;
 3/5=7,6=11,7=10,11=2,16=1,25=1,30=1,74=-41,75=-5,82=7,107=550000000,108=550000000/1,2,3;
 4//1;
 5/5=2,38=5/2;
 6/7=2,8=2,9=2,10=2,18=1,28=1/1;
 1/53=3042,62=2,63=2/22;
 3/5=7,6=11,7=10,11=2,16=1,25=1,30=1,74=-41,75=-5,82=7,107=550000000,108=550000000/1,2,3;
 4//1;
 5/5=2,38=5/2;
 6/7=2,8=2,9=2,10=2,18=1,28=1/1;
 1/53=2032,62=2,63=3/22;
 3/5=7,6=11,7=10,11=2,16=1,25=1,30=1,74=-41,75=-5,82=7,107=550000000,108=550000000/1,2,3;
 4//1;
 5/5=2,38=5/2;
 6/7=2,8=2,9=2,10=2,18=1,28=1/1;
 1/53=1022,62=2,63=4/22;
 3/5=7,6=11,7=10,11=2,16=1,25=1,30=1,74=-41,75=-5,82=7,107=550000000,108=550000000/1,2,3;
 4//1;
 5/5=2,38=5/2;
 6/7=2,8=2,9=2,10=2,18=1,28=1/1;
 1/53=5014,62=2,63=5/22;
 1/60=1,62=2/8(1);
 99/9=1/99;
 2/29=3/2;
 1/53=5173,62=2/22;
 3/5=7,6=11,7=10,11=2,16=1,25=1,30=1,74=-41,75=-5,82=7,107=550000000,108=550000000/1,2,3;
 4/5=5,16=3/1;
 5/5=2,38=5/2;
 1/53=4053,62=2,63=1/22;
 3/5=7,6=11,7=10,11=2,16=1,25=1,30=1,74=-41,75=-5,82=7,107=550000000,108=550000000/1,2,3;
 4/5=5,16=3/1;
 5/5=2,38=5/2;
 1/53=3043,62=2,63=2/22;
 3/5=7,6=11,7=10,11=2,16=1,25=1,30=1,74=-41,75=-5,82=7,107=550000000,108=550000000/1,2,3;
 4/5=5,16=3/1;
 5/5=2,38=5/2;
 1/53=2033,62=2,63=3/22;
 3/5=7,6=11,7=10,11=2,16=1,25=1,30=1,74=-41,75=-5,82=7,107=550000000,108=550000000/1,2,3;
 4/5=5,16=3/1;
 5/5=2,38=5/2;
 1/53=1024,62=2,63=4/22;
 3/5=7,6=11,7=10,11=2,16=1,25=1,30=1,74=-41,75=-5,82=7,107=550000000,108=550000000/1,2,3;
 4/5=5,16=3/1;
 5/5=2,38=5/2;
 1/53=5014,62=2,63=5/22;
 1/60=1,62=2/8(-22);
 99/9=1/99;
 Leave Link    1 at Fri May  8 02:28:24 2020, MaxMem= 1073741824 cpu:       0.1
 (Enter /home/matheus/.gaussian/g09/l101.exe)
 ---
 TCC
 ---
 Charge =  0 Multiplicity = 1 in supermolecule
 Charge =  0 Multiplicity = 1 in fragment  1.
 Charge =  0 Multiplicity = 1 in fragment  2.
 Symbolic Z-Matrix:
 O(Fragment=1)         0.        0.        0.725 
 O(Fragment=1)         0.        0.       -0.725 
 H(Fragment=1)        -0.86331  -0.31422   1.02351 
 H(Fragment=1)         0.        0.91872  -1.02351 
 Kr(Fragment=2)        0.       R1        0. 
       Variables:
  R1                    3.     Scan 20    0.1    
 
 NAtoms=      5 NQM=        0 NQMF=       0 NMMI=      5 NMMIF=      0
                NMic=       0 NMicF=      0.
                    Isotopes and Nuclear Properties:
 (Nuclear quadrupole moments (NQMom) in fm**2, nuclear magnetic moments (NMagM)
  in nuclear magnetons)

  Atom         1           2           3           4           5
 IAtWgt=          16          16           1           1          84
 AtmWgt=  15.9949146  15.9949146   1.0078250   1.0078250  83.9115064
 NucSpn=           0           0           1           1           0
 AtZEff=   0.0000000   0.0000000   0.0000000   0.0000000   0.0000000
 NQMom=    0.0000000   0.0000000   0.0000000   0.0000000   0.0000000
 NMagM=    0.0000000   0.0000000   2.7928460   2.7928460   0.0000000
 Leave Link  101 at Fri May  8 02:28:24 2020, MaxMem= 1073741824 cpu:       0.3
 (Enter /home/matheus/.gaussian/g09/l108.exe)
 Scan the potential surface.
 Variable   Value     No. Steps Step-Size
 -------- ----------- --------- ---------
     1       3.000000      20      0.1000
 A total of     21 points will be computed.
 Leave Link  108 at Fri May  8 02:28:24 2020, MaxMem= 1073741824 cpu:       0.0
 (Enter /home/matheus/.gaussian/g09/l202.exe)
 ---------------------------------------------------------------------------------------------------
                            Z-MATRIX (ANGSTROMS AND DEGREES)
   CD    Cent   Atom    N1       Length/X        N2       Alpha/Y        N3        Beta/Z          J
 ---------------------------------------------------------------------------------------------------
      1      1  O        0   0.000000          0.000000          0.725000
      2      2  O        0   0.000000          0.000000         -0.725000
      3      3  H        0  -0.863315         -0.314221          1.023510
      4      4  H        0   0.000000          0.918721         -1.023510
      5      5  Kr       0   0.000000          3.000000          0.000000
 ---------------------------------------------------------------------------------------------------
                         Z-Matrix orientation:                         
 ---------------------------------------------------------------------
 Center     Atomic      Atomic             Coordinates (Angstroms)
 Number     Number       Type             X           Y           Z
 ---------------------------------------------------------------------
      1          8           0        0.000000    0.000000    0.725000
      2          8           0        0.000000    0.000000   -0.725000
      3          1           0       -0.863315   -0.314221    1.023510
      4          1           0        0.000000    0.918721   -1.023510
      5         36           0        0.000000    3.000000    0.000000
 ---------------------------------------------------------------------
                    Distance matrix (angstroms):
                    1          2          3          4          5
     1  O    0.000000
     2  O    1.450000   0.000000
     3  H    0.966000   1.975180   0.000000
     4  H    1.975180   0.966000   2.540817   0.000000
     5  Kr   3.086361   3.086361   3.574486   2.319331   0.000000
 Stoichiometry    H2KrO2
 Framework group  C1[X(H2KrO2)]
 Deg. of freedom     9
 Full point group                 C1      NOp   1
 Largest Abelian subgroup         C1      NOp   1
 Largest concise Abelian subgroup C1      NOp   1
                         Standard orientation:                         
 ---------------------------------------------------------------------
 Center     Atomic      Atomic             Coordinates (Angstroms)
 Number     Number       Type             X           Y           Z
 ---------------------------------------------------------------------
      1          8           0       -2.019994   -0.690833   -0.114713
      2          8           0       -2.000697    0.753572    0.011068
      3          1           0       -2.354569   -1.058170    0.713707
      4          1           0       -1.078253    1.037233    0.053361
      5         36           0        0.988843   -0.013360    0.001725
 ---------------------------------------------------------------------
 Rotational constants (GHZ):     25.7302436      2.3305908      2.1494082
 Leave Link  202 at Fri May  8 02:28:24 2020, MaxMem= 1073741824 cpu:       0.0
 (Enter /home/matheus/.gaussian/g09/l122.exe)
 Leave Link  122 at Fri May  8 02:28:24 2020, MaxMem= 1073741824 cpu:       0.0
 (Enter /home/matheus/.gaussian/g09/l301.exe)
 Standard basis: Aug-CC-pVTZ (5D, 7F)
 Ernie: Thresh=  0.10000D-02 Tol=  0.10000D-05 Strict=F.
 Ernie:  38 primitive shells out of 205 were deleted.
 There are   197 symmetry adapted basis functions of A   symmetry.
 Integral buffers will be    131072 words long.
 Raffenetti 2 integral format.
 Two-electron integral symmetry is turned on.
   197 basis functions,   415 primitive gaussians,   229 cartesian basis functions
    27 alpha electrons       27 beta electrons
       nuclear repulsion energy       148.9188377957 Hartrees.
 IExCor=32609 DFT=T Ex+Corr=LC-wPBE ExCW=0 ScaHFX=  1.000000
 ScaDFX=  1.000000  0.000000  1.000000  1.000000 ScalE2=  1.000000  1.000000
 IRadAn=      5 IRanWt=     -1 IRanGd=            0 ICorTp=0
  HFx wShort=  0.000000 wLong=  0.550000 cFull=  0.000000 cShort=  0.000000 cLong=  1.000000
  DFx wShort=  0.000000 wLong=  0.550000 cFull=  0.000000 cShort=  0.000000 cLong=  1.000000
 NAtoms=    5 NActive=    5 NUniq=    5 SFac= 1.00D+00 NAtFMM=   60 NAOKFM=F Big=F
 Leave Link  301 at Fri May  8 02:28:24 2020, MaxMem= 1073741824 cpu:       0.2
 (Enter /home/matheus/.gaussian/g09/l302.exe)
 NPDir=0 NMtPBC=     1 NCelOv=     1 NCel=       1 NClECP=     1 NCelD=      1
         NCelK=      1 NCelE2=     1 NClLst=     1 CellRange=     0.0.
 One-electron integrals computed using PRISM.
 NBasis=   197 RedAO= T  NBF=   197
 NBsUse=   197 1.00D-06 NBFU=   197
 Precomputing XC quadrature grid using
 IXCGrd= 2 IRadAn=           5 IRanWt=          -1 IRanGd=           0 AccXCQ= 0.00D+00.
 NRdTot=     427 NPtTot=      123512 NUsed=      126579 NTot=      126611
 NSgBfM=   229   229   229   229   229 NAtAll=     5     5.
 Leave Link  302 at Fri May  8 02:28:25 2020, MaxMem= 1073741824 cpu:       1.0
 (Enter /home/matheus/.gaussian/g09/l303.exe)
 DipDrv:  MaxL=1.
 Leave Link  303 at Fri May  8 02:28:25 2020, MaxMem= 1073741824 cpu:       0.2
 (Enter /home/matheus/.gaussian/g09/l401.exe)
 Harris functional with IExCor=32609 diagonalized for initial guess.
 ExpMin= 2.53D-02 ExpMax= 1.17D+07 ExpMxC= 1.33D+04 IAcc=3 IRadAn=         5 AccDes= 0.00D+00
 HarFok:  IExCor=32609 AccDes= 0.00D+00 IRadAn=         5 IDoV= 1
 ScaDFX=  1.000000  1.000000  1.000000  1.000000
 FoFCou: FMM=F IPFlag=           0 FMFlag=      100000 FMFlg1=           0
         NFxFlg=           0 DoJE=T BraDBF=F KetDBF=T FulRan=T
         Omega=  0.000000  0.000000  1.000000  0.000000  0.000000 ICntrl=     500 IOpCl=  0
         NMat0=    1 NMatS0=    1 NMatT0=    0 NMatD0=    1 NMtDS0=    0 NMtDT0=    0
         I1Cent=           4 NGrid=           0.
 Petite list used in FoFCou.
 Harris En= -2904.73980782292    
 Initial guess orbital symmetries:
       Occupied  (A) (A) (A) (A) (A) (A) (A) (A) (A) (A) (A) (A)
                 (A) (A) (A) (A) (A) (A) (A) (A) (A) (A) (A) (A)
                 (A) (A) (A)
       Virtual   (A) (A) (A) (A) (A) (A) (A) (A) (A) (A) (A) (A)
                 (A) (A) (A) (A) (A) (A) (A) (A) (A) (A) (A) (A)
                 (A) (A) (A) (A) (A) (A) (A) (A) (A) (A) (A) (A)
                 (A) (A) (A) (A) (A) (A) (A) (A) (A) (A) (A) (A)
                 (A) (A) (A) (A) (A) (A) (A) (A) (A) (A) (A) (A)
                 (A) (A) (A) (A) (A) (A) (A) (A) (A) (A) (A) (A)
                 (A) (A) (A) (A) (A) (A) (A) (A) (A) (A) (A) (A)
                 (A) (A) (A) (A) (A) (A) (A) (A) (A) (A) (A) (A)
                 (A) (A) (A) (A) (A) (A) (A) (A) (A) (A) (A) (A)
                 (A) (A) (A) (A) (A) (A) (A) (A) (A) (A) (A) (A)
                 (A) (A) (A) (A) (A) (A) (A) (A) (A) (A) (A) (A)
                 (A) (A) (A) (A) (A) (A) (A) (A) (A) (A) (A) (A)
                 (A) (A) (A) (A) (A) (A) (A) (A) (A) (A) (A) (A)
                 (A) (A) (A) (A) (A) (A) (A) (A) (A) (A) (A) (A)
                 (A) (A)
 The electronic state of the initial guess is 1-A.
 Leave Link  401 at Fri May  8 02:28:25 2020, MaxMem= 1073741824 cpu:       4.2
 (Enter /home/matheus/.gaussian/g09/l502.exe)
 Closed shell SCF:
 Requested convergence on RMS density matrix=1.00D-08 within 128 cycles.
 Requested convergence on MAX density matrix=1.00D-06.
 Requested convergence on             energy=1.00D-06.
 No special actions if energy rises.
 Using DIIS extrapolation, IDIIS=  1040.
 Integral symmetry usage will be decided dynamically.
       126521 words used for storage of precomputed grid.
 IEnd=      305468 IEndB=      305468 NGot=  1073741824 MDV=  1073505667
 LenX=  1073505667 LenY=  1073452785
 Fock matrices will be formed incrementally for  20 cycles.

 Cycle   1  Pass 1  IDiag  1:
 FoFJK:  IHMeth= 1 ICntrl=     0 DoSepK=T KAlg= 1 I1Cent= 0 FoldK=F
 FoFCou: FMM=F IPFlag=           0 FMFlag=      100000 FMFlg1=           0
         NFxFlg=           0 DoJE=T BraDBF=F KetDBF=F FulRan=T
         Omega=  0.000000  0.000000  1.000000  0.000000  0.000000 ICntrl=     500 IOpCl=  0
         NMat0=    1 NMatS0=    1 NMatT0=    0 NMatD0=    1 NMtDS0=    0 NMtDT0=    0
         I1Cent=           0 NGrid=           0.
 Symmetry not used in FoFCou.
 E= -2904.93438416043    
 DIIS: error= 2.50D-02 at cycle   1 NSaved=   1.
 NSaved= 1 IEnMin= 1 EnMin= -2904.93438416043     IErMin= 1 ErrMin= 2.50D-02
 ErrMax= 2.50D-02 EMaxC= 1.00D-01 BMatC= 2.66D-01 BMatP= 2.66D-01
 IDIUse=3 WtCom= 7.50D-01 WtEn= 2.50D-01
 Coeff-Com:  0.100D+01
 Coeff-En:   0.100D+01
 Coeff:      0.100D+01
 Gap=     0.568 Goal=   None    Shift=    0.000
 GapD=    0.568 DampG=2.000 DampE=0.500 DampFc=1.0000 IDamp=-1.
 RMSDP=2.22D-03 MaxDP=1.43D-01              OVMax= 6.01D-02

 Cycle   2  Pass 1  IDiag  1:
 RMSU=  1.55D-03    CP:  1.02D+00
 FoFJK:  IHMeth= 1 ICntrl=     0 DoSepK=T KAlg= 1 I1Cent= 0 FoldK=F
 E= -2904.98422958270     Delta-E=       -0.049845422277 Rises=F Damp=F
 DIIS: error= 9.33D-03 at cycle   2 NSaved=   2.
 NSaved= 2 IEnMin= 2 EnMin= -2904.98422958270     IErMin= 2 ErrMin= 9.33D-03
 ErrMax= 9.33D-03 EMaxC= 1.00D-01 BMatC= 6.66D-02 BMatP= 2.66D-01
 IDIUse=3 WtCom= 9.07D-01 WtEn= 9.33D-02
 Coeff-Com:  0.326D+00 0.674D+00
 Coeff-En:   0.852D-01 0.915D+00
 Coeff:      0.304D+00 0.696D+00
 Gap=     0.493 Goal=   None    Shift=    0.000
 RMSDP=8.73D-04 MaxDP=4.97D-02 DE=-4.98D-02 OVMax= 2.48D-02

 Cycle   3  Pass 1  IDiag  1:
 RMSU=  3.11D-04    CP:  1.01D+00  6.66D-01
 FoFJK:  IHMeth= 1 ICntrl=     0 DoSepK=T KAlg= 1 I1Cent= 0 FoldK=F
 E= -2905.00673463658     Delta-E=       -0.022505053881 Rises=F Damp=F
 DIIS: error= 1.53D-03 at cycle   3 NSaved=   3.
 NSaved= 3 IEnMin= 3 EnMin= -2905.00673463658     IErMin= 3 ErrMin= 1.53D-03
 ErrMax= 1.53D-03 EMaxC= 1.00D-01 BMatC= 1.23D-03 BMatP= 6.66D-02
 IDIUse=3 WtCom= 9.85D-01 WtEn= 1.53D-02
 Coeff-Com:  0.385D-01 0.162D+00 0.799D+00
 Coeff-En:   0.000D+00 0.000D+00 0.100D+01
 Coeff:      0.379D-01 0.160D+00 0.802D+00
 Gap=     0.478 Goal=   None    Shift=    0.000
 RMSDP=9.51D-05 MaxDP=2.73D-03 DE=-2.25D-02 OVMax= 5.64D-03

 Cycle   4  Pass 1  IDiag  1:
 RMSU=  4.90D-05    CP:  1.01D+00  6.95D-01  9.62D-01
 FoFJK:  IHMeth= 1 ICntrl=     0 DoSepK=T KAlg= 1 I1Cent= 0 FoldK=F
 E= -2905.00735112604     Delta-E=       -0.000616489456 Rises=F Damp=F
 DIIS: error= 4.32D-04 at cycle   4 NSaved=   4.
 NSaved= 4 IEnMin= 4 EnMin= -2905.00735112604     IErMin= 4 ErrMin= 4.32D-04
 ErrMax= 4.32D-04 EMaxC= 1.00D-01 BMatC= 8.13D-05 BMatP= 1.23D-03
 IDIUse=3 WtCom= 9.96D-01 WtEn= 4.32D-03
 Coeff-Com: -0.582D-02 0.176D-01 0.270D+00 0.718D+00
 Coeff-En:   0.000D+00 0.000D+00 0.000D+00 0.100D+01
 Coeff:     -0.580D-02 0.175D-01 0.269D+00 0.719D+00
 Gap=     0.482 Goal=   None    Shift=    0.000
 RMSDP=3.05D-05 MaxDP=1.86D-03 DE=-6.16D-04 OVMax= 1.71D-03

 Cycle   5  Pass 1  IDiag  1:
 RMSU=  1.28D-05    CP:  1.01D+00  6.98D-01  1.01D+00  8.72D-01
 FoFJK:  IHMeth= 1 ICntrl=     0 DoSepK=T KAlg= 1 I1Cent= 0 FoldK=F
 E= -2905.00740066812     Delta-E=       -0.000049542077 Rises=F Damp=F
 DIIS: error= 7.72D-05 at cycle   5 NSaved=   5.
 NSaved= 5 IEnMin= 5 EnMin= -2905.00740066812     IErMin= 5 ErrMin= 7.72D-05
 ErrMax= 7.72D-05 EMaxC= 1.00D-01 BMatC= 2.59D-06 BMatP= 8.13D-05
 IDIUse=1 WtCom= 1.00D+00 WtEn= 0.00D+00
 Coeff-Com: -0.248D-02-0.487D-02 0.302D-02 0.124D+00 0.880D+00
 Coeff:     -0.248D-02-0.487D-02 0.302D-02 0.124D+00 0.880D+00
 Gap=     0.482 Goal=   None    Shift=    0.000
 RMSDP=7.27D-06 MaxDP=2.17D-04 DE=-4.95D-05 OVMax= 4.74D-04

 Cycle   6  Pass 1  IDiag  1:
 RMSU=  3.75D-06    CP:  1.01D+00  6.98D-01  1.01D+00  9.32D-01  1.09D+00
 FoFJK:  IHMeth= 1 ICntrl=     0 DoSepK=T KAlg= 1 I1Cent= 0 FoldK=F
 E= -2905.00740292976     Delta-E=       -0.000002261647 Rises=F Damp=F
 DIIS: error= 4.57D-05 at cycle   6 NSaved=   6.
 NSaved= 6 IEnMin= 6 EnMin= -2905.00740292976     IErMin= 6 ErrMin= 4.57D-05
 ErrMax= 4.57D-05 EMaxC= 1.00D-01 BMatC= 8.14D-07 BMatP= 2.59D-06
 IDIUse=1 WtCom= 1.00D+00 WtEn= 0.00D+00
 Coeff-Com: -0.418D-03-0.424D-02-0.300D-01-0.243D-01 0.382D+00 0.677D+00
 Coeff:     -0.418D-03-0.424D-02-0.300D-01-0.243D-01 0.382D+00 0.677D+00
 Gap=     0.482 Goal=   None    Shift=    0.000
 RMSDP=3.23D-06 MaxDP=1.49D-04 DE=-2.26D-06 OVMax= 2.14D-04

 Cycle   7  Pass 1  IDiag  1:
 RMSU=  1.52D-06    CP:  1.01D+00  6.98D-01  1.02D+00  9.50D-01  1.19D+00
                    CP:  8.77D-01
 FoFJK:  IHMeth= 1 ICntrl=     0 DoSepK=T KAlg= 1 I1Cent= 0 FoldK=F
 E= -2905.00740352945     Delta-E=       -0.000000599686 Rises=F Damp=F
 DIIS: error= 1.38D-05 at cycle   7 NSaved=   7.
 NSaved= 7 IEnMin= 7 EnMin= -2905.00740352945     IErMin= 7 ErrMin= 1.38D-05
 ErrMax= 1.38D-05 EMaxC= 1.00D-01 BMatC= 6.34D-08 BMatP= 8.14D-07
 IDIUse=1 WtCom= 1.00D+00 WtEn= 0.00D+00
 Coeff-Com:  0.128D-03-0.748D-03-0.923D-02-0.212D-01-0.299D-02 0.216D+00
 Coeff-Com:  0.818D+00
 Coeff:      0.128D-03-0.748D-03-0.923D-02-0.212D-01-0.299D-02 0.216D+00
 Coeff:      0.818D+00
 Gap=     0.482 Goal=   None    Shift=    0.000
 RMSDP=1.25D-06 MaxDP=5.74D-05 DE=-6.00D-07 OVMax= 9.30D-05

 Cycle   8  Pass 1  IDiag  1:
 RMSU=  4.65D-07    CP:  1.01D+00  6.98D-01  1.02D+00  9.56D-01  1.23D+00
                    CP:  9.99D-01  9.90D-01
 FoFJK:  IHMeth= 1 ICntrl=     0 DoSepK=T KAlg= 1 I1Cent= 0 FoldK=F
 E= -2905.00740360172     Delta-E=       -0.000000072269 Rises=F Damp=F
 DIIS: error= 2.75D-06 at cycle   8 NSaved=   8.
 NSaved= 8 IEnMin= 8 EnMin= -2905.00740360172     IErMin= 8 ErrMin= 2.75D-06
 ErrMax= 2.75D-06 EMaxC= 1.00D-01 BMatC= 2.26D-09 BMatP= 6.34D-08
 IDIUse=1 WtCom= 1.00D+00 WtEn= 0.00D+00
 Coeff-Com:  0.158D-04 0.470D-03 0.392D-02 0.571D-02-0.266D-01-0.957D-01
 Coeff-Com: -0.173D+00 0.129D+01
 Coeff:      0.158D-04 0.470D-03 0.392D-02 0.571D-02-0.266D-01-0.957D-01
 Coeff:     -0.173D+00 0.129D+01
 Gap=     0.482 Goal=   None    Shift=    0.000
 RMSDP=5.53D-07 MaxDP=1.76D-05 DE=-7.23D-08 OVMax= 4.89D-05

 Cycle   9  Pass 1  IDiag  1:
 RMSU=  1.21D-07    CP:  1.01D+00  6.98D-01  1.02D+00  9.58D-01  1.24D+00
                    CP:  1.02D+00  1.07D+00  1.57D+00
 FoFJK:  IHMeth= 1 ICntrl=     0 DoSepK=T KAlg= 1 I1Cent= 0 FoldK=F
 E= -2905.00740360134     Delta-E=        0.000000000378 Rises=F Damp=F
 DIIS: error= 8.09D-07 at cycle   9 NSaved=   9.
 NSaved= 9 IEnMin= 8 EnMin= -2905.00740360172     IErMin= 9 ErrMin= 8.09D-07
 ErrMax= 8.09D-07 EMaxC= 1.00D-01 BMatC= 1.12D-10 BMatP= 2.26D-09
 IDIUse=1 WtCom= 1.00D+00 WtEn= 0.00D+00
 Coeff-Com: -0.918D-05-0.450D-04-0.238D-03-0.203D-04 0.477D-02 0.569D-02
 Coeff-Com: -0.102D-01-0.200D+00 0.120D+01
 Coeff:     -0.918D-05-0.450D-04-0.238D-03-0.203D-04 0.477D-02 0.569D-02
 Coeff:     -0.102D-01-0.200D+00 0.120D+01
 Gap=     0.482 Goal=   None    Shift=    0.000
 RMSDP=1.56D-07 MaxDP=6.80D-06 DE= 3.78D-10 OVMax= 1.64D-05

 Cycle  10  Pass 1  IDiag  1:
 RMSU=  3.90D-08    CP:  1.01D+00  6.98D-01  1.02D+00  9.58D-01  1.24D+00
                    CP:  1.02D+00  1.07D+00  1.71D+00  1.42D+00
 FoFJK:  IHMeth= 1 ICntrl=     0 DoSepK=T KAlg= 1 I1Cent= 0 FoldK=F
 E= -2905.00740360183     Delta-E=       -0.000000000490 Rises=F Damp=F
 DIIS: error= 3.23D-07 at cycle  10 NSaved=  10.
 NSaved=10 IEnMin=10 EnMin= -2905.00740360183     IErMin=10 ErrMin= 3.23D-07
 ErrMax= 3.23D-07 EMaxC= 1.00D-01 BMatC= 1.70D-11 BMatP= 1.12D-10
 IDIUse=1 WtCom= 1.00D+00 WtEn= 0.00D+00
 Coeff-Com:  0.799D-07-0.311D-04-0.275D-03-0.532D-03 0.160D-02 0.760D-02
 Coeff-Com:  0.163D-01-0.900D-01-0.160D+00 0.123D+01
 Coeff:      0.799D-07-0.311D-04-0.275D-03-0.532D-03 0.160D-02 0.760D-02
 Coeff:      0.163D-01-0.900D-01-0.160D+00 0.123D+01
 Gap=     0.482 Goal=   None    Shift=    0.000
 RMSDP=6.03D-08 MaxDP=2.00D-06 DE=-4.90D-10 OVMax= 7.91D-06

 Cycle  11  Pass 1  IDiag  1:
 RMSU=  1.23D-08    CP:  1.01D+00  6.98D-01  1.02D+00  9.58D-01  1.24D+00
                    CP:  1.02D+00  1.07D+00  1.75D+00  1.61D+00  1.55D+00
 FoFJK:  IHMeth= 1 ICntrl=     0 DoSepK=T KAlg= 1 I1Cent= 0 FoldK=F
 E= -2905.00740360192     Delta-E=       -0.000000000091 Rises=F Damp=F
 DIIS: error= 9.17D-08 at cycle  11 NSaved=  11.
 NSaved=11 IEnMin=11 EnMin= -2905.00740360192     IErMin=11 ErrMin= 9.17D-08
 ErrMax= 9.17D-08 EMaxC= 1.00D-01 BMatC= 2.24D-12 BMatP= 1.70D-11
 IDIUse=1 WtCom= 1.00D+00 WtEn= 0.00D+00
 Coeff-Com:  0.122D-05 0.115D-04 0.834D-04 0.828D-04-0.102D-02-0.191D-02
 Coeff-Com: -0.353D-03 0.425D-01-0.152D+00-0.178D+00 0.129D+01
 Coeff:      0.122D-05 0.115D-04 0.834D-04 0.828D-04-0.102D-02-0.191D-02
 Coeff:     -0.353D-03 0.425D-01-0.152D+00-0.178D+00 0.129D+01
 Gap=     0.482 Goal=   None    Shift=    0.000
 RMSDP=2.33D-08 MaxDP=4.86D-07 DE=-9.09D-11 OVMax= 3.55D-06

 Cycle  12  Pass 1  IDiag  1:
 RMSU=  4.16D-09    CP:  1.01D+00  6.98D-01  1.02D+00  9.58D-01  1.24D+00
                    CP:  1.02D+00  1.07D+00  1.76D+00  1.66D+00  1.85D+00
                    CP:  1.55D+00
 FoFJK:  IHMeth= 1 ICntrl=     0 DoSepK=T KAlg= 1 I1Cent= 0 FoldK=F
 E= -2905.00740360191     Delta-E=        0.000000000007 Rises=F Damp=F
 DIIS: error= 2.35D-08 at cycle  12 NSaved=  12.
 NSaved=12 IEnMin=11 EnMin= -2905.00740360192     IErMin=12 ErrMin= 2.35D-08
 ErrMax= 2.35D-08 EMaxC= 1.00D-01 BMatC= 1.84D-13 BMatP= 2.24D-12
 IDIUse=1 WtCom= 1.00D+00 WtEn= 0.00D+00
 Coeff-Com: -0.680D-07 0.374D-05 0.340D-04 0.731D-04-0.228D-03-0.987D-03
 Coeff-Com: -0.188D-02 0.120D-01 0.178D-01-0.134D+00-0.401D-02 0.111D+01
 Coeff:     -0.680D-07 0.374D-05 0.340D-04 0.731D-04-0.228D-03-0.987D-03
 Coeff:     -0.188D-02 0.120D-01 0.178D-01-0.134D+00-0.401D-02 0.111D+01
 Gap=     0.482 Goal=   None    Shift=    0.000
 RMSDP=5.53D-09 MaxDP=1.22D-07 DE= 7.28D-12 OVMax= 7.92D-07

 SCF Done:  E(RLC-wPBE) =  -2905.00740360     A.U. after   12 cycles
             Convg  =    0.5525D-08             -V/T =  2.0017
 KE= 2.900033778267D+03 PE=-7.234828280176D+03 EE= 1.280868260512D+03
 Leave Link  502 at Fri May  8 02:29:01 2020, MaxMem= 1073741824 cpu:     283.8
 (Enter /home/matheus/.gaussian/g09/l601.exe)
 Copying SCF densities to generalized density rwf, IOpCl= 0 IROHF=0.

 **********************************************************************

            Population analysis using the SCF density.

 **********************************************************************

 Orbital symmetries:
       Occupied  (A) (A) (A) (A) (A) (A) (A) (A) (A) (A) (A) (A)
                 (A) (A) (A) (A) (A) (A) (A) (A) (A) (A) (A) (A)
                 (A) (A) (A)
       Virtual   (A) (A) (A) (A) (A) (A) (A) (A) (A) (A) (A) (A)
                 (A) (A) (A) (A) (A) (A) (A) (A) (A) (A) (A) (A)
                 (A) (A) (A) (A) (A) (A) (A) (A) (A) (A) (A) (A)
                 (A) (A) (A) (A) (A) (A) (A) (A) (A) (A) (A) (A)
                 (A) (A) (A) (A) (A) (A) (A) (A) (A) (A) (A) (A)
                 (A) (A) (A) (A) (A) (A) (A) (A) (A) (A) (A) (A)
                 (A) (A) (A) (A) (A) (A) (A) (A) (A) (A) (A) (A)
                 (A) (A) (A) (A) (A) (A) (A) (A) (A) (A) (A) (A)
                 (A) (A) (A) (A) (A) (A) (A) (A) (A) (A) (A) (A)
                 (A) (A) (A) (A) (A) (A) (A) (A) (A) (A) (A) (A)
                 (A) (A) (A) (A) (A) (A) (A) (A) (A) (A) (A) (A)
                 (A) (A) (A) (A) (A) (A) (A) (A) (A) (A) (A) (A)
                 (A) (A) (A) (A) (A) (A) (A) (A) (A) (A) (A) (A)
                 (A) (A) (A) (A) (A) (A) (A) (A) (A) (A) (A) (A)
                 (A) (A)
 The electronic state is 1-A.
 Alpha  occ. eigenvalues -- -511.19752 -66.74591 -60.40712 -60.40694 -60.40684
 Alpha  occ. eigenvalues --  -19.11304 -19.10965  -9.68163  -7.42458  -7.42406
 Alpha  occ. eigenvalues --   -7.42377  -3.36858  -3.36848  -3.36828  -3.36789
 Alpha  occ. eigenvalues --   -3.36787  -1.32099  -1.10451  -1.09341  -0.71553
 Alpha  occ. eigenvalues --   -0.65840  -0.58666  -0.54292  -0.53872  -0.53099
 Alpha  occ. eigenvalues --   -0.47507  -0.44906
 Alpha virt. eigenvalues --    0.03267   0.04268   0.08517   0.09799   0.11224
 Alpha virt. eigenvalues --    0.11413   0.13989   0.14177   0.17097   0.18049
 Alpha virt. eigenvalues --    0.18705   0.20524   0.20832   0.22598   0.24390
 Alpha virt. eigenvalues --    0.25293   0.26834   0.29263   0.32340   0.33880
 Alpha virt. eigenvalues --    0.34635   0.35831   0.36809   0.39778   0.40487
 Alpha virt. eigenvalues --    0.41841   0.43964   0.48913   0.54108   0.56907
 Alpha virt. eigenvalues --    0.57564   0.60946   0.63207   0.67303   0.69932
 Alpha virt. eigenvalues --    0.71900   0.73688   0.74739   0.77223   0.77808
 Alpha virt. eigenvalues --    0.78139   0.79558   0.80217   0.82156   0.84785
 Alpha virt. eigenvalues --    0.87101   0.87957   0.90211   0.91492   0.92467
 Alpha virt. eigenvalues --    0.94593   0.95990   0.96502   0.98191   1.02008
 Alpha virt. eigenvalues --    1.03108   1.05172   1.07857   1.08519   1.10759
 Alpha virt. eigenvalues --    1.11939   1.18066   1.19183   1.20846   1.25049
 Alpha virt. eigenvalues --    1.27255   1.32359   1.36639   1.40053   1.44146
 Alpha virt. eigenvalues --    1.47307   1.52728   1.53351   1.55760   1.61531
 Alpha virt. eigenvalues --    1.70173   1.75633   1.85738   1.92262   1.97646
 Alpha virt. eigenvalues --    2.01494   2.05225   2.12622   2.17001   2.18397
 Alpha virt. eigenvalues --    2.18915   2.21384   2.22151   2.25655   2.29767
 Alpha virt. eigenvalues --    2.31384   2.33944   2.35711   2.36052   2.39169
 Alpha virt. eigenvalues --    2.41969   2.44311   2.47183   2.48461   2.52075
 Alpha virt. eigenvalues --    2.53788   2.54164   2.58532   2.59886   2.62224
 Alpha virt. eigenvalues --    2.63305   2.66375   2.67447   2.72548   2.75919
 Alpha virt. eigenvalues --    2.77528   2.80609   2.82401   2.90586   2.91275
 Alpha virt. eigenvalues --    2.95759   3.08900   3.14986   3.18713   3.64921
 Alpha virt. eigenvalues --    3.71100   3.92593   3.97770   4.05524   4.13776
 Alpha virt. eigenvalues --    4.15266   4.22854   4.27322   4.30241   4.31452
 Alpha virt. eigenvalues --    4.42071   4.53020   4.55842   4.59138   4.71783
 Alpha virt. eigenvalues --    4.93083   5.00752   5.06990   5.18479   5.19104
 Alpha virt. eigenvalues --    5.25933   5.47796   5.88248   6.10062   6.16432
 Alpha virt. eigenvalues --    6.19519   6.34959   6.37862   6.49274   6.59598
 Alpha virt. eigenvalues --    6.60954   6.82516   6.83936   6.85255   6.87149
 Alpha virt. eigenvalues --    6.91280   6.92794   6.93340   7.02027   7.05313
 Alpha virt. eigenvalues --    7.10665   7.20065   7.28860   7.48447   7.72142
 Alpha virt. eigenvalues --    7.84955   8.12238   8.15762  13.95623  14.63390
          Condensed to atoms (all electrons):
              1          2          3          4          5
     1  O    8.212591  -0.192683   0.212133  -0.000464  -0.028621
     2  O   -0.192683   8.237129   0.009674   0.203667  -0.009409
     3  H    0.212133   0.009674   0.563265   0.002057   0.001481
     4  H   -0.000464   0.203667   0.002057   0.573800  -0.014110
     5  Kr  -0.028621  -0.009409   0.001481  -0.014110  36.045764
 Mulliken atomic charges:
              1
     1  O   -0.202957
     2  O   -0.248379
     3  H    0.211390
     4  H    0.235051
     5  Kr   0.004895
 Sum of Mulliken atomic charges =   0.00000
 Mulliken charges with hydrogens summed into heavy atoms:
              1
     1  O    0.008433
     2  O   -0.013328
     5  Kr   0.004895
 Sum of Mulliken charges with hydrogens summed into heavy atoms =   0.00000
          Condensed to fragments (all electrons):
     1      -0.004895
     2       0.004895
 Electronic spatial extent (au):  <R**2>=            486.7071
 Charge=              0.0000 electrons
 Dipole moment (field-independent basis, Debye):
    X=              1.2215    Y=             -0.4073    Z=              1.4792  Tot=              1.9611
 Quadrupole moment (field-independent basis, Debye-Ang):
   XX=            -32.1800   YY=            -27.8249   ZZ=            -29.0330
   XY=              3.0384   XZ=             -3.7512   YZ=             -1.7466
 Traceless Quadrupole moment (field-independent basis, Debye-Ang):
   XX=             -2.5007   YY=              1.8544   ZZ=              0.6463
   XY=              3.0384   XZ=             -3.7512   YZ=             -1.7466
 Octapole moment (field-independent basis, Debye-Ang**2):
  XXX=             25.5269  YYY=             -1.0893  ZZZ=              1.1884  XYY=              4.5647
  XXY=            -10.6537  XXZ=              8.9630  XZZ=              5.3280  YZZ=             -1.7098
  YYZ=              2.1864  XYZ=              4.3354
 Hexadecapole moment (field-independent basis, Debye-Ang**3):
 XXXX=           -426.3155 YYYY=            -62.4458 ZZZZ=            -29.1165 XXXY=             27.0435
 XXXZ=            -22.7765 YYYX=              5.3207 YYYZ=             -2.4983 ZZZX=             -3.3131
 ZZZY=             -1.7838 XXYY=            -77.6874 XXZZ=            -70.9524 YYZZ=            -15.8361
 XXYZ=            -10.7551 YYXZ=             -5.1783 ZZXY=              3.6820
 N-N= 1.489188377957D+02 E-N=-7.234828279209D+03  KE= 2.900033778267D+03
 No NMR shielding tensors so no spin-rotation constants.
 Leave Link  601 at Fri May  8 02:29:01 2020, MaxMem= 1073741824 cpu:       0.7
 (Enter /home/matheus/.gaussian/g09/l122.exe)
 Counterpoise: doing DCBS calculation for fragment   1 NewBq=T
 Leave Link  122 at Fri May  8 02:29:01 2020, MaxMem= 1073741824 cpu:       0.0
 (Enter /home/matheus/.gaussian/g09/l301.exe)
 Basis read from rwf:  (5D, 7F)
 No pseudopotential information found on rwf file.
 There are   197 symmetry adapted basis functions of A   symmetry.
 Integral buffers will be    131072 words long.
 Raffenetti 2 integral format.
 Two-electron integral symmetry is turned on.
   197 basis functions,   415 primitive gaussians,   229 cartesian basis functions
     9 alpha electrons        9 beta electrons
       nuclear repulsion energy        36.6165119696 Hartrees.
 IExCor=32609 DFT=T Ex+Corr=LC-wPBE ExCW=0 ScaHFX=  1.000000
 ScaDFX=  1.000000  0.000000  1.000000  1.000000 ScalE2=  1.000000  1.000000
 IRadAn=      5 IRanWt=     -1 IRanGd=            0 ICorTp=0
  HFx wShort=  0.000000 wLong=  0.550000 cFull=  0.000000 cShort=  0.000000 cLong=  1.000000
  DFx wShort=  0.000000 wLong=  0.550000 cFull=  0.000000 cShort=  0.000000 cLong=  1.000000
 NAtoms=    5 NActive=    5 NUniq=    5 SFac= 1.00D+00 NAtFMM=   60 NAOKFM=F Big=F
 No density basis found on file   718.
 Leave Link  301 at Fri May  8 02:29:01 2020, MaxMem= 1073741824 cpu:       0.2
 (Enter /home/matheus/.gaussian/g09/l302.exe)
 NPDir=0 NMtPBC=     1 NCelOv=     1 NCel=       1 NClECP=     1 NCelD=      1
         NCelK=      1 NCelE2=     1 NClLst=     1 CellRange=     0.0.
 One-electron integrals computed using PRISM.
 NBasis=   197 RedAO= T  NBF=   197
 NBsUse=   197 1.00D-06 NBFU=   197
 Precomputing XC quadrature grid using
 IXCGrd= 2 IRadAn=           5 IRanWt=          -1 IRanGd=           0 AccXCQ= 0.00D+00.
 NRdTot=     427 NPtTot=      123512 NUsed=      126579 NTot=      126611
 NSgBfM=   229   229   229   229   229 NAtAll=     5     5.
 Leave Link  302 at Fri May  8 02:29:01 2020, MaxMem= 1073741824 cpu:       1.0
 (Enter /home/matheus/.gaussian/g09/l303.exe)
 DipDrv:  MaxL=1.
 Leave Link  303 at Fri May  8 02:29:01 2020, MaxMem= 1073741824 cpu:       0.2
 (Enter /home/matheus/.gaussian/g09/l401.exe)
 Harris functional with IExCor=32609 diagonalized for initial guess.
 ExpMin= 2.53D-02 ExpMax= 1.17D+07 ExpMxC= 1.33D+04 IAcc=3 IRadAn=         5 AccDes= 0.00D+00
 HarFok:  IExCor=32609 AccDes= 0.00D+00 IRadAn=         5 IDoV= 1
 ScaDFX=  1.000000  1.000000  1.000000  1.000000
 FoFCou: FMM=F IPFlag=           0 FMFlag=      100000 FMFlg1=           0
         NFxFlg=           0 DoJE=T BraDBF=F KetDBF=T FulRan=T
         Omega=  0.000000  0.000000  1.000000  0.000000  0.000000 ICntrl=     500 IOpCl=  0
         NMat0=    1 NMatS0=    1 NMatT0=    0 NMatD0=    1 NMtDS0=    0 NMtDT0=    0
         I1Cent=           4 NGrid=           0.
 Petite list used in FoFCou.
 Harris En= -151.502451186026    
 Initial guess orbital symmetries:
       Occupied  (A) (A) (A) (A) (A) (A) (A) (A) (A)
       Virtual   (A) (A) (A) (A) (A) (A) (A) (A) (A) (A) (A) (A)
                 (A) (A) (A) (A) (A) (A) (A) (A) (A) (A) (A) (A)
                 (A) (A) (A) (A) (A) (A) (A) (A) (A) (A) (A) (A)
                 (A) (A) (A) (A) (A) (A) (A) (A) (A) (A) (A) (A)
                 (A) (A) (A) (A) (A) (A) (A) (A) (A) (A) (A) (A)
                 (A) (A) (A) (A) (A) (A) (A) (A) (A) (A) (A) (A)
                 (A) (A) (A) (A) (A) (A) (A) (A) (A) (A) (A) (A)
                 (A) (A) (A) (A) (A) (A) (A) (A) (A) (A) (A) (A)
                 (A) (A) (A) (A) (A) (A) (A) (A) (A) (A) (A) (A)
                 (A) (A) (A) (A) (A) (A) (A) (A) (A) (A) (A) (A)
                 (A) (A) (A) (A) (A) (A) (A) (A) (A) (A) (A) (A)
                 (A) (A) (A) (A) (A) (A) (A) (A) (A) (A) (A) (A)
                 (A) (A) (A) (A) (A) (A) (A) (A) (A) (A) (A) (A)
                 (A) (A) (A) (A) (A) (A) (A) (A) (A) (A) (A) (A)
                 (A) (A) (A) (A) (A) (A) (A) (A) (A) (A) (A) (A)
                 (A) (A) (A) (A) (A) (A) (A) (A)
 The electronic state of the initial guess is 1-A.
 Leave Link  401 at Fri May  8 02:29:01 2020, MaxMem= 1073741824 cpu:       3.9
 (Enter /home/matheus/.gaussian/g09/l502.exe)
 Closed shell SCF:
 Requested convergence on RMS density matrix=1.00D-08 within 128 cycles.
 Requested convergence on MAX density matrix=1.00D-06.
 Requested convergence on             energy=1.00D-06.
 No special actions if energy rises.
 Using DIIS extrapolation, IDIIS=  1040.
 Integral symmetry usage will be decided dynamically.
       126521 words used for storage of precomputed grid.
 IEnd=      305468 IEndB=      305468 NGot=  1073741824 MDV=  1073505667
 LenX=  1073505667 LenY=  1073452785
 Fock matrices will be formed incrementally for  20 cycles.

 Cycle   1  Pass 1  IDiag  1:
 FoFJK:  IHMeth= 1 ICntrl=     0 DoSepK=T KAlg= 1 I1Cent= 0 FoldK=F
 FoFCou: FMM=F IPFlag=           0 FMFlag=      100000 FMFlg1=           0
         NFxFlg=           0 DoJE=T BraDBF=F KetDBF=F FulRan=T
         Omega=  0.000000  0.000000  1.000000  0.000000  0.000000 ICntrl=     500 IOpCl=  0
         NMat0=    1 NMatS0=    1 NMatT0=    0 NMatD0=    1 NMtDS0=    0 NMtDT0=    0
         I1Cent=           0 NGrid=           0.
 Symmetry not used in FoFCou.
 E= -151.508964860436    
 DIIS: error= 1.39D-02 at cycle   1 NSaved=   1.
 NSaved= 1 IEnMin= 1 EnMin= -151.508964860436     IErMin= 1 ErrMin= 1.39D-02
 ErrMax= 1.39D-02 EMaxC= 1.00D-01 BMatC= 4.03D-02 BMatP= 4.03D-02
 IDIUse=3 WtCom= 8.61D-01 WtEn= 1.39D-01
 Coeff-Com:  0.100D+01
 Coeff-En:   0.100D+01
 Coeff:      0.100D+01
 Gap=     0.568 Goal=   None    Shift=    0.000
 GapD=    0.568 DampG=2.000 DampE=0.500 DampFc=1.0000 IDamp=-1.
 RMSDP=7.32D-04 MaxDP=2.30D-02              OVMax= 5.11D-02

 Cycle   2  Pass 1  IDiag  1:
 RMSU=  5.11D-04    CP:  9.88D-01
 FoFJK:  IHMeth= 1 ICntrl=     0 DoSepK=T KAlg= 1 I1Cent= 0 FoldK=F
 E= -151.525144544439     Delta-E=       -0.016179684003 Rises=F Damp=F
 DIIS: error= 8.25D-03 at cycle   2 NSaved=   2.
 NSaved= 2 IEnMin= 2 EnMin= -151.525144544439     IErMin= 2 ErrMin= 8.25D-03
 ErrMax= 8.25D-03 EMaxC= 1.00D-01 BMatC= 1.56D-02 BMatP= 4.03D-02
 IDIUse=3 WtCom= 9.18D-01 WtEn= 8.25D-02
 Coeff-Com:  0.370D+00 0.630D+00
 Coeff-En:   0.115D+00 0.885D+00
 Coeff:      0.349D+00 0.651D+00
 Gap=     0.485 Goal=   None    Shift=    0.000
 RMSDP=4.05D-04 MaxDP=2.28D-02 DE=-1.62D-02 OVMax= 2.23D-02

 Cycle   3  Pass 1  IDiag  1:
 RMSU=  2.45D-04    CP:  9.84D-01  7.15D-01
 FoFJK:  IHMeth= 1 ICntrl=     0 DoSepK=T KAlg= 1 I1Cent= 0 FoldK=F
 E= -151.533890302887     Delta-E=       -0.008745758448 Rises=F Damp=F
 DIIS: error= 1.25D-03 at cycle   3 NSaved=   3.
 NSaved= 3 IEnMin= 3 EnMin= -151.533890302887     IErMin= 3 ErrMin= 1.25D-03
 ErrMax= 1.25D-03 EMaxC= 1.00D-01 BMatC= 3.91D-04 BMatP= 1.56D-02
 IDIUse=3 WtCom= 9.88D-01 WtEn= 1.25D-02
 Coeff-Com:  0.395D-01 0.157D+00 0.804D+00
 Coeff-En:   0.000D+00 0.000D+00 0.100D+01
 Coeff:      0.391D-01 0.155D+00 0.806D+00
 Gap=     0.478 Goal=   None    Shift=    0.000
 RMSDP=5.68D-05 MaxDP=2.25D-03 DE=-8.75D-03 OVMax= 4.05D-03

 Cycle   4  Pass 1  IDiag  1:
 RMSU=  2.78D-05    CP:  9.82D-01  7.64D-01  1.03D+00
 FoFJK:  IHMeth= 1 ICntrl=     0 DoSepK=T KAlg= 1 I1Cent= 0 FoldK=F
 E= -151.534139587298     Delta-E=       -0.000249284411 Rises=F Damp=F
 DIIS: error= 1.84D-04 at cycle   4 NSaved=   4.
 NSaved= 4 IEnMin= 4 EnMin= -151.534139587298     IErMin= 4 ErrMin= 1.84D-04
 ErrMax= 1.84D-04 EMaxC= 1.00D-01 BMatC= 9.46D-06 BMatP= 3.91D-04
 IDIUse=3 WtCom= 9.98D-01 WtEn= 1.84D-03
 Coeff-Com: -0.916D-02-0.125D-01 0.867D-01 0.935D+00
 Coeff-En:   0.000D+00 0.000D+00 0.000D+00 0.100D+01
 Coeff:     -0.915D-02-0.125D-01 0.865D-01 0.935D+00
 Gap=     0.479 Goal=   None    Shift=    0.000
 RMSDP=1.50D-05 MaxDP=9.58D-04 DE=-2.49D-04 OVMax= 8.20D-04

 Cycle   5  Pass 1  IDiag  1:
 RMSU=  4.50D-06    CP:  9.81D-01  7.65D-01  1.06D+00  1.07D+00
 FoFJK:  IHMeth= 1 ICntrl=     0 DoSepK=T KAlg= 1 I1Cent= 0 FoldK=F
 E= -151.534148221071     Delta-E=       -0.000008633773 Rises=F Damp=F
 DIIS: error= 4.40D-05 at cycle   5 NSaved=   5.
 NSaved= 5 IEnMin= 5 EnMin= -151.534148221071     IErMin= 5 ErrMin= 4.40D-05
 ErrMax= 4.40D-05 EMaxC= 1.00D-01 BMatC= 2.31D-07 BMatP= 9.46D-06
 IDIUse=1 WtCom= 1.00D+00 WtEn= 0.00D+00
 Coeff-Com: -0.383D-03-0.228D-02-0.359D-01-0.123D+00 0.116D+01
 Coeff:     -0.383D-03-0.228D-02-0.359D-01-0.123D+00 0.116D+01
 Gap=     0.479 Goal=   None    Shift=    0.000
 RMSDP=3.73D-06 MaxDP=1.24D-04 DE=-8.63D-06 OVMax= 3.65D-04

 Cycle   6  Pass 1  IDiag  1:
 RMSU=  1.17D-06    CP:  9.81D-01  7.66D-01  1.07D+00  1.12D+00  1.34D+00
 FoFJK:  IHMeth= 1 ICntrl=     0 DoSepK=T KAlg= 1 I1Cent= 0 FoldK=F
 E= -151.534148841438     Delta-E=       -0.000000620367 Rises=F Damp=F
 DIIS: error= 7.45D-06 at cycle   6 NSaved=   6.
 NSaved= 6 IEnMin= 6 EnMin= -151.534148841438     IErMin= 6 ErrMin= 7.45D-06
 ErrMax= 7.45D-06 EMaxC= 1.00D-01 BMatC= 1.27D-08 BMatP= 2.31D-07
 IDIUse=1 WtCom= 1.00D+00 WtEn= 0.00D+00
 Coeff-Com:  0.307D-03 0.879D-03 0.388D-02-0.606D-02-0.205D+00 0.121D+01
 Coeff:      0.307D-03 0.879D-03 0.388D-02-0.606D-02-0.205D+00 0.121D+01
 Gap=     0.479 Goal=   None    Shift=    0.000
 RMSDP=9.88D-07 MaxDP=2.25D-05 DE=-6.20D-07 OVMax= 1.14D-04

 Cycle   7  Pass 1  IDiag  1:
 RMSU=  3.14D-07    CP:  9.81D-01  7.66D-01  1.07D+00  1.13D+00  1.41D+00
                    CP:  1.37D+00
 FoFJK:  IHMeth= 1 ICntrl=     0 DoSepK=T KAlg= 1 I1Cent= 0 FoldK=F
 E= -151.534148882621     Delta-E=       -0.000000041183 Rises=F Damp=F
 DIIS: error= 1.76D-06 at cycle   7 NSaved=   7.
 NSaved= 7 IEnMin= 7 EnMin= -151.534148882621     IErMin= 7 ErrMin= 1.76D-06
 ErrMax= 1.76D-06 EMaxC= 1.00D-01 BMatC= 7.79D-10 BMatP= 1.27D-08
 IDIUse=1 WtCom= 1.00D+00 WtEn= 0.00D+00
 Coeff-Com: -0.162D-04-0.247D-04 0.116D-02 0.689D-02-0.353D-01-0.170D+00
 Coeff-Com:  0.120D+01
 Coeff:     -0.162D-04-0.247D-04 0.116D-02 0.689D-02-0.353D-01-0.170D+00
 Coeff:      0.120D+01
 Gap=     0.479 Goal=   None    Shift=    0.000
 RMSDP=3.68D-07 MaxDP=1.38D-05 DE=-4.12D-08 OVMax= 3.44D-05

 Cycle   8  Pass 1  IDiag  1:
 RMSU=  7.35D-08    CP:  9.81D-01  7.66D-01  1.07D+00  1.14D+00  1.41D+00
                    CP:  1.49D+00  1.40D+00
 FoFJK:  IHMeth= 1 ICntrl=     0 DoSepK=T KAlg= 1 I1Cent= 0 FoldK=F
 E= -151.534148885965     Delta-E=       -0.000000003344 Rises=F Damp=F
 DIIS: error= 5.82D-07 at cycle   8 NSaved=   8.
 NSaved= 8 IEnMin= 8 EnMin= -151.534148885965     IErMin= 8 ErrMin= 5.82D-07
 ErrMax= 5.82D-07 EMaxC= 1.00D-01 BMatC= 7.61D-11 BMatP= 7.79D-10
 IDIUse=1 WtCom= 1.00D+00 WtEn= 0.00D+00
 Coeff-Com: -0.171D-04-0.634D-04-0.457D-03-0.830D-03 0.218D-01-0.677D-01
 Coeff-Com: -0.144D+00 0.119D+01
 Coeff:     -0.171D-04-0.634D-04-0.457D-03-0.830D-03 0.218D-01-0.677D-01
 Coeff:     -0.144D+00 0.119D+01
 Gap=     0.479 Goal=   None    Shift=    0.000
 RMSDP=1.26D-07 MaxDP=6.06D-06 DE=-3.34D-09 OVMax= 1.30D-05

 Cycle   9  Pass 1  IDiag  1:
 RMSU=  2.12D-08    CP:  9.81D-01  7.66D-01  1.07D+00  1.14D+00  1.41D+00
                    CP:  1.50D+00  1.54D+00  1.50D+00
 FoFJK:  IHMeth= 1 ICntrl=     0 DoSepK=T KAlg= 1 I1Cent= 0 FoldK=F
 E= -151.534148886253     Delta-E=       -0.000000000288 Rises=F Damp=F
 DIIS: error= 2.10D-07 at cycle   9 NSaved=   9.
 NSaved= 9 IEnMin= 9 EnMin= -151.534148886253     IErMin= 9 ErrMin= 2.10D-07
 ErrMax= 2.10D-07 EMaxC= 1.00D-01 BMatC= 9.22D-12 BMatP= 7.61D-11
 IDIUse=1 WtCom= 1.00D+00 WtEn= 0.00D+00
 Coeff-Com:  0.172D-05 0.770D-05-0.928D-05-0.363D-03 0.212D-03 0.144D-01
 Coeff-Com: -0.471D-01-0.173D+00 0.121D+01
 Coeff:      0.172D-05 0.770D-05-0.928D-05-0.363D-03 0.212D-03 0.144D-01
 Coeff:     -0.471D-01-0.173D+00 0.121D+01
 Gap=     0.479 Goal=   None    Shift=    0.000
 RMSDP=3.71D-08 MaxDP=1.07D-06 DE=-2.88D-10 OVMax= 5.68D-06

 Cycle  10  Pass 1  IDiag  1:
 RMSU=  1.01D-08    CP:  9.81D-01  7.66D-01  1.07D+00  1.14D+00  1.41D+00
                    CP:  1.51D+00  1.57D+00  1.71D+00  1.60D+00
 FoFJK:  IHMeth= 1 ICntrl=     0 DoSepK=T KAlg= 1 I1Cent= 0 FoldK=F
 E= -151.534148886293     Delta-E=       -0.000000000039 Rises=F Damp=F
 DIIS: error= 1.44D-07 at cycle  10 NSaved=  10.
 NSaved=10 IEnMin=10 EnMin= -151.534148886293     IErMin=10 ErrMin= 1.44D-07
 ErrMax= 1.44D-07 EMaxC= 1.00D-01 BMatC= 5.64D-12 BMatP= 9.22D-12
 IDIUse=1 WtCom= 1.00D+00 WtEn= 0.00D+00
 Coeff-Com:  0.414D-05 0.174D-04 0.103D-03 0.434D-04-0.480D-02 0.205D-01
 Coeff-Com:  0.171D-01-0.358D+00 0.632D+00 0.692D+00
 Coeff:      0.414D-05 0.174D-04 0.103D-03 0.434D-04-0.480D-02 0.205D-01
 Coeff:      0.171D-01-0.358D+00 0.632D+00 0.692D+00
 Gap=     0.479 Goal=   None    Shift=    0.000
 RMSDP=1.45D-08 MaxDP=2.84D-07 DE=-3.93D-11 OVMax= 2.24D-06

 Cycle  11  Pass 1  IDiag  1:
 RMSU=  4.29D-09    CP:  9.81D-01  7.66D-01  1.07D+00  1.14D+00  1.41D+00
                    CP:  1.51D+00  1.58D+00  1.78D+00  1.91D+00  1.09D+00
 FoFJK:  IHMeth= 1 ICntrl=     0 DoSepK=T KAlg= 1 I1Cent= 0 FoldK=F
 E= -151.534148886302     Delta-E=       -0.000000000009 Rises=F Damp=F
 DIIS: error= 3.48D-08 at cycle  11 NSaved=  11.
 NSaved=11 IEnMin=11 EnMin= -151.534148886302     IErMin=11 ErrMin= 3.48D-08
 ErrMax= 3.48D-08 EMaxC= 1.00D-01 BMatC= 4.34D-13 BMatP= 5.64D-12
 IDIUse=1 WtCom= 1.00D+00 WtEn= 0.00D+00
 Coeff-Com:  0.268D-06 0.173D-05 0.298D-04 0.148D-03-0.133D-02 0.322D-03
 Coeff-Com:  0.219D-01-0.445D-01-0.185D+00 0.780D-01 0.113D+01
 Coeff:      0.268D-06 0.173D-05 0.298D-04 0.148D-03-0.133D-02 0.322D-03
 Coeff:      0.219D-01-0.445D-01-0.185D+00 0.780D-01 0.113D+01
 Gap=     0.479 Goal=   None    Shift=    0.000
 RMSDP=9.00D-09 MaxDP=1.89D-07 DE=-9.27D-12 OVMax= 1.39D-06

 SCF Done:  E(RLC-wPBE) =  -151.534148886     A.U. after   11 cycles
             Convg  =    0.9002D-08             -V/T =  2.0071
 KE= 1.504685005618D+02 PE=-4.315486145070D+02 EE= 9.292945308923D+01
 Leave Link  502 at Fri May  8 02:29:33 2020, MaxMem= 1073741824 cpu:     249.1
 (Enter /home/matheus/.gaussian/g09/l601.exe)
 Copying SCF densities to generalized density rwf, IOpCl= 0 IROHF=0.

 **********************************************************************

            Population analysis using the SCF density.

 **********************************************************************

 Orbital symmetries:
       Occupied  (A) (A) (A) (A) (A) (A) (A) (A) (A)
       Virtual   (A) (A) (A) (A) (A) (A) (A) (A) (A) (A) (A) (A)
                 (A) (A) (A) (A) (A) (A) (A) (A) (A) (A) (A) (A)
                 (A) (A) (A) (A) (A) (A) (A) (A) (A) (A) (A) (A)
                 (A) (A) (A) (A) (A) (A) (A) (A) (A) (A) (A) (A)
                 (A) (A) (A) (A) (A) (A) (A) (A) (A) (A) (A) (A)
                 (A) (A) (A) (A) (A) (A) (A) (A) (A) (A) (A) (A)
                 (A) (A) (A) (A) (A) (A) (A) (A) (A) (A) (A) (A)
                 (A) (A) (A) (A) (A) (A) (A) (A) (A) (A) (A) (A)
                 (A) (A) (A) (A) (A) (A) (A) (A) (A) (A) (A) (A)
                 (A) (A) (A) (A) (A) (A) (A) (A) (A) (A) (A) (A)
                 (A) (A) (A) (A) (A) (A) (A) (A) (A) (A) (A) (A)
                 (A) (A) (A) (A) (A) (A) (A) (A) (A) (A) (A) (A)
                 (A) (A) (A) (A) (A) (A) (A) (A) (A) (A) (A) (A)
                 (A) (A) (A) (A) (A) (A) (A) (A) (A) (A) (A) (A)
                 (A) (A) (A) (A) (A) (A) (A) (A) (A) (A) (A) (A)
                 (A) (A) (A) (A) (A) (A) (A) (A)
 The electronic state is 1-A.
 Alpha  occ. eigenvalues --  -19.11474 -19.11468  -1.32286  -1.09771  -0.71622
 Alpha  occ. eigenvalues --   -0.65397  -0.58563  -0.47871  -0.45194
 Alpha virt. eigenvalues --    0.02714   0.03760   0.07220   0.08567   0.10317
 Alpha virt. eigenvalues --    0.10952   0.11453   0.14002   0.16975   0.17413
 Alpha virt. eigenvalues --    0.18949   0.19637   0.21498   0.23162   0.25672
 Alpha virt. eigenvalues --    0.27201   0.31073   0.31637   0.33207   0.33345
 Alpha virt. eigenvalues --    0.34368   0.37574   0.38135   0.40310   0.41453
 Alpha virt. eigenvalues --    0.43151   0.44320   0.47481   0.48629   0.49974
 Alpha virt. eigenvalues --    0.54643   0.58090   0.61237   0.63465   0.68564
 Alpha virt. eigenvalues --    0.72865   0.74435   0.76487   0.79312   0.79947
 Alpha virt. eigenvalues --    0.81898   0.82921   0.89090   0.91239   0.91914
 Alpha virt. eigenvalues --    0.92509   0.93816   0.96241   0.98018   0.98913
 Alpha virt. eigenvalues --    1.00654   1.03177   1.06729   1.10761   1.12554
 Alpha virt. eigenvalues --    1.14132   1.15668   1.19334   1.23951   1.26425
 Alpha virt. eigenvalues --    1.28015   1.28743   1.30975   1.32573   1.33239
 Alpha virt. eigenvalues --    1.34264   1.35866   1.37882   1.39762   1.41232
 Alpha virt. eigenvalues --    1.45124   1.51046   1.51672   1.53748   1.57608
 Alpha virt. eigenvalues --    1.60463   1.66566   1.67774   1.71119   1.80465
 Alpha virt. eigenvalues --    1.84836   1.88318   1.94027   1.98729   2.05552
 Alpha virt. eigenvalues --    2.10170   2.13981   2.19801   2.20828   2.26121
 Alpha virt. eigenvalues --    2.30297   2.34834   2.37474   2.41047   2.45392
 Alpha virt. eigenvalues --    2.48354   2.54425   2.57673   2.64222   2.68293
 Alpha virt. eigenvalues --    2.70777   2.76078   2.87885   2.88891   2.94865
 Alpha virt. eigenvalues --    3.07845   3.13119   3.16168   3.26000   3.30633
 Alpha virt. eigenvalues --    3.41777   3.55043   3.65559   3.69778   3.78584
 Alpha virt. eigenvalues --    3.78977   3.82113   3.82543   3.83171   3.84078
 Alpha virt. eigenvalues --    3.88189   3.89185   3.93759   3.95131   3.97377
 Alpha virt. eigenvalues --    3.99876   4.03209   4.10784   4.13051   4.16492
 Alpha virt. eigenvalues --    4.24080   4.26917   4.29847   4.33645   4.36007
 Alpha virt. eigenvalues --    4.47032   4.54843   4.60434   4.71710   4.93522
 Alpha virt. eigenvalues --    5.00953   5.07004   5.18495   5.19381   5.26263
 Alpha virt. eigenvalues --    5.47618   5.88112   6.09859   6.16299   6.19310
 Alpha virt. eigenvalues --    6.34946   6.37818   6.49189   6.59461   6.60846
 Alpha virt. eigenvalues --    6.82352   6.83501   6.85113   6.86799   6.91111
 Alpha virt. eigenvalues --    6.92546   6.93173   7.01803   7.05242   7.10521
 Alpha virt. eigenvalues --    7.19879   7.28520   7.48305   7.71938   7.84770
 Alpha virt. eigenvalues --    8.12049   8.15035  10.88943  13.95347  14.62214
 Alpha virt. eigenvalues --   14.83358  14.88014  15.09929  29.03140  29.03426
 Alpha virt. eigenvalues --   29.08064  29.13534  29.23080  49.10155 148.31470
 Alpha virt. eigenvalues --  148.38067 148.70404 752.49873
          Condensed to atoms (all electrons):
              1          2          3          4          5
     1  O    8.199029  -0.186335   0.203100  -0.004041   0.000057
     2  O   -0.186335   8.205100   0.009921   0.204044  -0.000379
     3  H    0.203100   0.009921   0.573141   0.003452  -0.001038
     4  H   -0.004041   0.204044   0.003452   0.571931  -0.003940
     5  Kr   0.000057  -0.000379  -0.001038  -0.003940   0.001120
 Mulliken atomic charges:
              1
     1  O   -0.211810
     2  O   -0.232351
     3  H    0.211425
     4  H    0.228555
     5  Kr   0.004181
 Sum of Mulliken atomic charges =   0.00000
 Mulliken charges with hydrogens summed into heavy atoms:
              1
     1  O   -0.000385
     2  O   -0.003796
     5  Kr   0.004181
 Sum of Mulliken charges with hydrogens summed into heavy atoms =   0.00000
          Condensed to fragments (all electrons):
     1      -0.004181
     2       0.004181
 Electronic spatial extent (au):  <R**2>=            321.9355
 Charge=              0.0000 electrons
 Dipole moment (field-independent basis, Debye):
    X=              1.0518    Y=             -0.1497    Z=              1.5565  Tot=              1.8845
 Quadrupole moment (field-independent basis, Debye-Ang):
   XX=            -14.6457   YY=            -10.3097   ZZ=            -11.5689
   XY=              3.1967   XZ=             -3.6931   YZ=             -1.7530
 Traceless Quadrupole moment (field-independent basis, Debye-Ang):
   XX=             -2.4709   YY=              1.8651   ZZ=              0.6058
   XY=              3.1967   XZ=             -3.6931   YZ=             -1.7530
 Octapole moment (field-independent basis, Debye-Ang**2):
  XXX=             76.4787  YYY=             -1.4510  ZZZ=              1.4111  XYY=             21.7522
  XXY=            -10.5765  XXZ=              9.0852  XZZ=             22.5552  YZZ=             -1.8314
  YYZ=              2.2595  XYZ=              4.3391
 Hexadecapole moment (field-independent basis, Debye-Ang**3):
 XXXX=           -304.5974 YYYY=            -44.6074 ZZZZ=            -11.3525 XXXY=             26.5890
 XXXZ=            -22.5542 YYYX=              4.9577 YYYZ=             -2.5120 ZZZX=             -3.1201
 ZZZY=             -1.7975 XXYY=            -54.4805 XXZZ=            -47.8799 YYZZ=             -9.8969
 XXYZ=            -10.7726 YYXZ=             -5.1063 ZZXY=              3.5275
 N-N= 3.661651196964D+01 E-N=-4.315486141874D+02  KE= 1.504685005618D+02
 No NMR shielding tensors so no spin-rotation constants.
 Leave Link  601 at Fri May  8 02:29:33 2020, MaxMem= 1073741824 cpu:       0.8
 (Enter /home/matheus/.gaussian/g09/l122.exe)
 Counterpoise: doing DCBS calculation for fragment   2 NewBq=T
 Leave Link  122 at Fri May  8 02:29:33 2020, MaxMem= 1073741824 cpu:       0.0
 (Enter /home/matheus/.gaussian/g09/l301.exe)
 Basis read from rwf:  (5D, 7F)
 No pseudopotential information found on rwf file.
 There are   197 symmetry adapted basis functions of A   symmetry.
 Integral buffers will be    131072 words long.
 Raffenetti 2 integral format.
 Two-electron integral symmetry is turned on.
   197 basis functions,   415 primitive gaussians,   229 cartesian basis functions
    18 alpha electrons       18 beta electrons
       nuclear repulsion energy         0.0000000000 Hartrees.
 IExCor=32609 DFT=T Ex+Corr=LC-wPBE ExCW=0 ScaHFX=  1.000000
 ScaDFX=  1.000000  0.000000  1.000000  1.000000 ScalE2=  1.000000  1.000000
 IRadAn=      5 IRanWt=     -1 IRanGd=            0 ICorTp=0
  HFx wShort=  0.000000 wLong=  0.550000 cFull=  0.000000 cShort=  0.000000 cLong=  1.000000
  DFx wShort=  0.000000 wLong=  0.550000 cFull=  0.000000 cShort=  0.000000 cLong=  1.000000
 NAtoms=    5 NActive=    5 NUniq=    5 SFac= 1.00D+00 NAtFMM=   60 NAOKFM=F Big=F
 No density basis found on file   718.
 Leave Link  301 at Fri May  8 02:29:33 2020, MaxMem= 1073741824 cpu:       0.2
 (Enter /home/matheus/.gaussian/g09/l302.exe)
 NPDir=0 NMtPBC=     1 NCelOv=     1 NCel=       1 NClECP=     1 NCelD=      1
         NCelK=      1 NCelE2=     1 NClLst=     1 CellRange=     0.0.
 One-electron integrals computed using PRISM.
 NBasis=   197 RedAO= T  NBF=   197
 NBsUse=   197 1.00D-06 NBFU=   197
 Precomputing XC quadrature grid using
 IXCGrd= 2 IRadAn=           5 IRanWt=          -1 IRanGd=           0 AccXCQ= 0.00D+00.
 NRdTot=     427 NPtTot=      123512 NUsed=      126579 NTot=      126611
 NSgBfM=   229   229   229   229   229 NAtAll=     5     5.
 Leave Link  302 at Fri May  8 02:29:33 2020, MaxMem= 1073741824 cpu:       1.0
 (Enter /home/matheus/.gaussian/g09/l303.exe)
 DipDrv:  MaxL=1.
 Leave Link  303 at Fri May  8 02:29:33 2020, MaxMem= 1073741824 cpu:       0.2
 (Enter /home/matheus/.gaussian/g09/l401.exe)
 Harris functional with IExCor=32609 diagonalized for initial guess.
 ExpMin= 2.53D-02 ExpMax= 1.17D+07 ExpMxC= 1.33D+04 IAcc=3 IRadAn=         5 AccDes= 0.00D+00
 HarFok:  IExCor=32609 AccDes= 0.00D+00 IRadAn=         5 IDoV= 1
 ScaDFX=  1.000000  1.000000  1.000000  1.000000
 FoFCou: FMM=F IPFlag=           0 FMFlag=      100000 FMFlg1=           0
         NFxFlg=           0 DoJE=T BraDBF=F KetDBF=T FulRan=T
         Omega=  0.000000  0.000000  1.000000  0.000000  0.000000 ICntrl=     500 IOpCl=  0
         NMat0=    1 NMatS0=    1 NMatT0=    0 NMatD0=    1 NMtDS0=    0 NMtDT0=    0
         I1Cent=           4 NGrid=           0.
 Petite list used in FoFCou.
 Harris En= -2753.24648006033    
 Initial guess orbital symmetries:
       Occupied  (A) (A) (A) (A) (A) (A) (A) (A) (A) (A) (A) (A)
                 (A) (A) (A) (A) (A) (A)
       Virtual   (A) (A) (A) (A) (A) (A) (A) (A) (A) (A) (A) (A)
                 (A) (A) (A) (A) (A) (A) (A) (A) (A) (A) (A) (A)
                 (A) (A) (A) (A) (A) (A) (A) (A) (A) (A) (A) (A)
                 (A) (A) (A) (A) (A) (A) (A) (A) (A) (A) (A) (A)
                 (A) (A) (A) (A) (A) (A) (A) (A) (A) (A) (A) (A)
                 (A) (A) (A) (A) (A) (A) (A) (A) (A) (A) (A) (A)
                 (A) (A) (A) (A) (A) (A) (A) (A) (A) (A) (A) (A)
                 (A) (A) (A) (A) (A) (A) (A) (A) (A) (A) (A) (A)
                 (A) (A) (A) (A) (A) (A) (A) (A) (A) (A) (A) (A)
                 (A) (A) (A) (A) (A) (A) (A) (A) (A) (A) (A) (A)
                 (A) (A) (A) (A) (A) (A) (A) (A) (A) (A) (A) (A)
                 (A) (A) (A) (A) (A) (A) (A) (A) (A) (A) (A) (A)
                 (A) (A) (A) (A) (A) (A) (A) (A) (A) (A) (A) (A)
                 (A) (A) (A) (A) (A) (A) (A) (A) (A) (A) (A) (A)
                 (A) (A) (A) (A) (A) (A) (A) (A) (A) (A) (A)
 The electronic state of the initial guess is 1-A.
 Leave Link  401 at Fri May  8 02:29:33 2020, MaxMem= 1073741824 cpu:       3.8
 (Enter /home/matheus/.gaussian/g09/l502.exe)
 Closed shell SCF:
 Requested convergence on RMS density matrix=1.00D-08 within 128 cycles.
 Requested convergence on MAX density matrix=1.00D-06.
 Requested convergence on             energy=1.00D-06.
 No special actions if energy rises.
 Using DIIS extrapolation, IDIIS=  1040.
 Integral symmetry usage will be decided dynamically.
       126521 words used for storage of precomputed grid.
 IEnd=      305468 IEndB=      305468 NGot=  1073741824 MDV=  1073505667
 LenX=  1073505667 LenY=  1073452785
 Fock matrices will be formed incrementally for  20 cycles.

 Cycle   1  Pass 1  IDiag  1:
 FoFJK:  IHMeth= 1 ICntrl=     0 DoSepK=T KAlg= 1 I1Cent= 0 FoldK=F
 FoFCou: FMM=F IPFlag=           0 FMFlag=      100000 FMFlg1=           0
         NFxFlg=           0 DoJE=T BraDBF=F KetDBF=F FulRan=T
         Omega=  0.000000  0.000000  1.000000  0.000000  0.000000 ICntrl=     500 IOpCl=  0
         NMat0=    1 NMatS0=    1 NMatT0=    0 NMatD0=    1 NMtDS0=    0 NMtDT0=    0
         I1Cent=           0 NGrid=           0.
 Symmetry not used in FoFCou.
 E= -2753.43085959343    
 DIIS: error= 2.49D-02 at cycle   1 NSaved=   1.
 NSaved= 1 IEnMin= 1 EnMin= -2753.43085959343     IErMin= 1 ErrMin= 2.49D-02
 ErrMax= 2.49D-02 EMaxC= 1.00D-01 BMatC= 2.24D-01 BMatP= 2.24D-01
 IDIUse=3 WtCom= 7.51D-01 WtEn= 2.49D-01
 Coeff-Com:  0.100D+01
 Coeff-En:   0.100D+01
 Coeff:      0.100D+01
 Gap=     0.637 Goal=   None    Shift=    0.000
 GapD=    0.637 DampG=2.000 DampE=0.500 DampFc=1.0000 IDamp=-1.
 RMSDP=2.07D-03 MaxDP=1.42D-01              OVMax= 5.14D-02

 Cycle   2  Pass 1  IDiag  1:
 RMSU=  1.42D-03    CP:  1.02D+00
 FoFJK:  IHMeth= 1 ICntrl=     0 DoSepK=T KAlg= 1 I1Cent= 0 FoldK=F
 E= -2753.46431689171     Delta-E=       -0.033457298282 Rises=F Damp=F
 DIIS: error= 9.57D-03 at cycle   2 NSaved=   2.
 NSaved= 2 IEnMin= 2 EnMin= -2753.46431689171     IErMin= 2 ErrMin= 9.57D-03
 ErrMax= 9.57D-03 EMaxC= 1.00D-01 BMatC= 4.97D-02 BMatP= 2.24D-01
 IDIUse=3 WtCom= 9.04D-01 WtEn= 9.57D-02
 Coeff-Com:  0.315D+00 0.685D+00
 Coeff-En:   0.626D-01 0.937D+00
 Coeff:      0.291D+00 0.709D+00
 Gap=     0.551 Goal=   None    Shift=    0.000
 RMSDP=7.59D-04 MaxDP=4.96D-02 DE=-3.35D-02 OVMax= 1.83D-02

 Cycle   3  Pass 1  IDiag  1:
 RMSU=  1.50D-04    CP:  1.01D+00  6.49D-01
 FoFJK:  IHMeth= 1 ICntrl=     0 DoSepK=T KAlg= 1 I1Cent= 0 FoldK=F
 E= -2753.47775744452     Delta-E=       -0.013440552815 Rises=F Damp=F
 DIIS: error= 9.81D-04 at cycle   3 NSaved=   3.
 NSaved= 3 IEnMin= 3 EnMin= -2753.47775744452     IErMin= 3 ErrMin= 9.81D-04
 ErrMax= 9.81D-04 EMaxC= 1.00D-01 BMatC= 4.76D-04 BMatP= 4.97D-02
 IDIUse=3 WtCom= 9.90D-01 WtEn= 9.81D-03
 Coeff-Com: -0.468D-02 0.802D-01 0.924D+00
 Coeff-En:   0.000D+00 0.000D+00 0.100D+01
 Coeff:     -0.464D-02 0.794D-01 0.925D+00
 Gap=     0.557 Goal=   None    Shift=    0.000
 RMSDP=6.65D-05 MaxDP=3.98D-03 DE=-1.34D-02 OVMax= 2.32D-03

 Cycle   4  Pass 1  IDiag  1:
 RMSU=  1.34D-05    CP:  1.01D+00  6.80D-01  1.00D+00
 FoFJK:  IHMeth= 1 ICntrl=     0 DoSepK=T KAlg= 1 I1Cent= 0 FoldK=F
 E= -2753.47789659248     Delta-E=       -0.000139147954 Rises=F Damp=F
 DIIS: error= 3.81D-05 at cycle   4 NSaved=   4.
 NSaved= 4 IEnMin= 4 EnMin= -2753.47789659248     IErMin= 4 ErrMin= 3.81D-05
 ErrMax= 3.81D-05 EMaxC= 1.00D-01 BMatC= 4.00D-07 BMatP= 4.76D-04
 IDIUse=1 WtCom= 1.00D+00 WtEn= 0.00D+00
 Coeff-Com: -0.552D-03-0.186D-01-0.165D+00 0.118D+01
 Coeff:     -0.552D-03-0.186D-01-0.165D+00 0.118D+01
 Gap=     0.556 Goal=   None    Shift=    0.000
 RMSDP=5.70D-06 MaxDP=3.21D-04 DE=-1.39D-04 OVMax= 4.11D-04

 Cycle   5  Pass 1  IDiag  1:
 RMSU=  1.82D-06    CP:  1.01D+00  6.79D-01  1.02D+00  1.19D+00
 FoFJK:  IHMeth= 1 ICntrl=     0 DoSepK=T KAlg= 1 I1Cent= 0 FoldK=F
 E= -2753.47789710494     Delta-E=       -0.000000512458 Rises=F Damp=F
 DIIS: error= 1.61D-06 at cycle   5 NSaved=   5.
 NSaved= 5 IEnMin= 5 EnMin= -2753.47789710494     IErMin= 5 ErrMin= 1.61D-06
 ErrMax= 1.61D-06 EMaxC= 1.00D-01 BMatC= 2.18D-09 BMatP= 4.00D-07
 IDIUse=1 WtCom= 1.00D+00 WtEn= 0.00D+00
 Coeff-Com:  0.967D-04 0.196D-03-0.157D-02-0.165D-01 0.102D+01
 Coeff:      0.967D-04 0.196D-03-0.157D-02-0.165D-01 0.102D+01
 Gap=     0.556 Goal=   None    Shift=    0.000
 RMSDP=3.37D-07 MaxDP=2.18D-05 DE=-5.12D-07 OVMax= 1.48D-05

 Cycle   6  Pass 1  IDiag  1:
 RMSU=  1.64D-07    CP:  1.01D+00  6.79D-01  1.02D+00  1.20D+00  1.03D+00
 FoFJK:  IHMeth= 1 ICntrl=     0 DoSepK=T KAlg= 1 I1Cent= 0 FoldK=F
 E= -2753.47789710682     Delta-E=       -0.000000001889 Rises=F Damp=F
 DIIS: error= 3.80D-07 at cycle   6 NSaved=   6.
 NSaved= 6 IEnMin= 6 EnMin= -2753.47789710682     IErMin= 6 ErrMin= 3.80D-07
 ErrMax= 3.80D-07 EMaxC= 1.00D-01 BMatC= 7.61D-11 BMatP= 2.18D-09
 IDIUse=1 WtCom= 1.00D+00 WtEn= 0.00D+00
 Coeff-Com:  0.339D-05 0.176D-03 0.181D-02-0.167D-01 0.330D-01 0.982D+00
 Coeff:      0.339D-05 0.176D-03 0.181D-02-0.167D-01 0.330D-01 0.982D+00
 Gap=     0.556 Goal=   None    Shift=    0.000
 RMSDP=5.01D-08 MaxDP=2.53D-06 DE=-1.89D-09 OVMax= 3.10D-06

 Cycle   7  Pass 1  IDiag  1:
 RMSU=  1.07D-08    CP:  1.01D+00  6.79D-01  1.02D+00  1.20D+00  1.05D+00
                    CP:  1.10D+00
 FoFJK:  IHMeth= 1 ICntrl=     0 DoSepK=T KAlg= 1 I1Cent= 0 FoldK=F
 E= -2753.47789710688     Delta-E=       -0.000000000052 Rises=F Damp=F
 DIIS: error= 2.81D-08 at cycle   7 NSaved=   7.
 NSaved= 7 IEnMin= 7 EnMin= -2753.47789710688     IErMin= 7 ErrMin= 2.81D-08
 ErrMax= 2.81D-08 EMaxC= 1.00D-01 BMatC= 4.14D-13 BMatP= 7.61D-11
 IDIUse=1 WtCom= 1.00D+00 WtEn= 0.00D+00
 Coeff-Com:  0.221D-06 0.309D-04 0.329D-03-0.289D-02 0.280D-02 0.155D+00
 Coeff-Com:  0.844D+00
 Coeff:      0.221D-06 0.309D-04 0.329D-03-0.289D-02 0.280D-02 0.155D+00
 Coeff:      0.844D+00
 Gap=     0.556 Goal=   None    Shift=    0.000
 RMSDP=5.64D-09 MaxDP=2.20D-07 DE=-5.18D-11 OVMax= 2.38D-07

 SCF Done:  E(RLC-wPBE) =  -2753.47789711     A.U. after    7 cycles
             Convg  =    0.5639D-08             -V/T =  2.0014
 KE= 2.749515562829D+03 PE=-6.579049680808D+03 EE= 1.076056220872D+03
 Leave Link  502 at Fri May  8 02:29:54 2020, MaxMem= 1073741824 cpu:     165.7
 (Enter /home/matheus/.gaussian/g09/l601.exe)
 Copying SCF densities to generalized density rwf, IOpCl= 0 IROHF=0.

 **********************************************************************

            Population analysis using the SCF density.

 **********************************************************************

 Orbital symmetries:
       Occupied  (A) (A) (A) (A) (A) (A) (A) (A) (A) (A) (A) (A)
                 (A) (A) (A) (A) (A) (A)
       Virtual   (A) (A) (A) (A) (A) (A) (A) (A) (A) (A) (A) (A)
                 (A) (A) (A) (A) (A) (A) (A) (A) (A) (A) (A) (A)
                 (A) (A) (A) (A) (A) (A) (A) (A) (A) (A) (A) (A)
                 (A) (A) (A) (A) (A) (A) (A) (A) (A) (A) (A) (A)
                 (A) (A) (A) (A) (A) (A) (A) (A) (A) (A) (A) (A)
                 (A) (A) (A) (A) (A) (A) (A) (A) (A) (A) (A) (A)
                 (A) (A) (A) (A) (A) (A) (A) (A) (A) (A) (A) (A)
                 (A) (A) (A) (A) (A) (A) (A) (A) (A) (A) (A) (A)
                 (A) (A) (A) (A) (A) (A) (A) (A) (A) (A) (A) (A)
                 (A) (A) (A) (A) (A) (A) (A) (A) (A) (A) (A) (A)
                 (A) (A) (A) (A) (A) (A) (A) (A) (A) (A) (A) (A)
                 (A) (A) (A) (A) (A) (A) (A) (A) (A) (A) (A) (A)
                 (A) (A) (A) (A) (A) (A) (A) (A) (A) (A) (A) (A)
                 (A) (A) (A) (A) (A) (A) (A) (A) (A) (A) (A) (A)
                 (A) (A) (A) (A) (A) (A) (A) (A) (A) (A) (A)
 The electronic state is 1-A.
 Alpha  occ. eigenvalues -- -511.18549 -66.73374 -60.39484 -60.39481 -60.39480
 Alpha  occ. eigenvalues --   -9.66932  -7.41183  -7.41181  -7.41181  -3.35590
 Alpha  occ. eigenvalues --   -3.35590  -3.35589  -3.35588  -3.35588  -1.08852
 Alpha  occ. eigenvalues --   -0.52697  -0.52694  -0.52692
 Alpha virt. eigenvalues --    0.02941   0.04906   0.08493   0.09223   0.11579
 Alpha virt. eigenvalues --    0.12209   0.13269   0.13819   0.16381   0.17015
 Alpha virt. eigenvalues --    0.17758   0.19767   0.20937   0.26116   0.27518
 Alpha virt. eigenvalues --    0.28131   0.28613   0.31221   0.33717   0.34704
 Alpha virt. eigenvalues --    0.36407   0.37532   0.38705   0.39606   0.41723
 Alpha virt. eigenvalues --    0.42218   0.43300   0.54187   0.54895   0.58723
 Alpha virt. eigenvalues --    0.59510   0.66573   0.67858   0.70118   0.72369
 Alpha virt. eigenvalues --    0.75516   0.75924   0.77855   0.78757   0.80595
 Alpha virt. eigenvalues --    0.81060   0.81748   0.84271   0.86174   0.86920
 Alpha virt. eigenvalues --    0.88747   0.89144   0.90497   0.92179   0.96471
 Alpha virt. eigenvalues --    0.96866   0.99345   0.99815   1.01792   1.02964
 Alpha virt. eigenvalues --    1.05700   1.08502   1.09153   1.11685   1.12777
 Alpha virt. eigenvalues --    1.16689   1.21511   1.24022   1.26198   1.29172
 Alpha virt. eigenvalues --    1.34555   1.35304   1.39329   1.45434   1.46713
 Alpha virt. eigenvalues --    1.53823   1.57785   1.60733   1.74660   1.77642
 Alpha virt. eigenvalues --    1.78773   1.83347   1.87450   1.98092   2.19901
 Alpha virt. eigenvalues --    2.22833   2.25273   2.30218   2.31298   2.33918
 Alpha virt. eigenvalues --    2.35556   2.36189   2.38919   2.41488   2.42167
 Alpha virt. eigenvalues --    2.44789   2.47274   2.47553   2.52507   2.53270
 Alpha virt. eigenvalues --    2.54517   2.56150   2.56974   2.57740   2.59435
 Alpha virt. eigenvalues --    2.63836   2.64502   2.67089   2.69697   2.72263
 Alpha virt. eigenvalues --    2.74865   2.79655   2.85512   2.87908   2.90029
 Alpha virt. eigenvalues --    2.95590   2.98531   3.03970   3.13065   3.20737
 Alpha virt. eigenvalues --    3.23223   3.25713   3.30886   3.35831   3.49517
 Alpha virt. eigenvalues --    3.61302   3.64850   3.82710   3.87089   4.03918
 Alpha virt. eigenvalues --    4.37617   4.43405   4.51625   4.57625   4.65781
 Alpha virt. eigenvalues --    4.72749   4.87147   4.91183   4.94189   5.00094
 Alpha virt. eigenvalues --    5.15611   5.20151   5.58899   5.66202   5.74404
 Alpha virt. eigenvalues --    5.91112   6.01578   6.16431   6.73776   6.89904
 Alpha virt. eigenvalues --    7.37413   7.42997   7.60274   7.63301   7.74143
 Alpha virt. eigenvalues --    7.86977   7.90434   8.11672   8.17097   8.21846
 Alpha virt. eigenvalues --    8.40190   8.45905   8.58759   8.86497   9.65064
 Alpha virt. eigenvalues --    9.74688   9.84297   9.89341   9.91619  10.00192
 Alpha virt. eigenvalues --   10.14810  10.32353  10.37977  10.97296  11.51557
 Alpha virt. eigenvalues --   11.65960  11.75755  12.05378  12.10690  13.25341
 Alpha virt. eigenvalues --   13.61227  14.52774  62.73922  64.67062
          Condensed to atoms (all electrons):
              1          2          3          4          5
     1  O    0.002482  -0.001974  -0.001561   0.001361  -0.009827
     2  O   -0.001974   0.005704   0.000589  -0.004180   0.001732
     3  H   -0.001561   0.000589   0.001268  -0.000375   0.002563
     4  H    0.001361  -0.004180  -0.000375   0.004702  -0.030936
     5  Kr  -0.009827   0.001732   0.002563  -0.030936  36.071058
 Mulliken atomic charges:
              1
     1  O    0.009519
     2  O   -0.001871
     3  H   -0.002485
     4  H    0.029427
     5  Kr  -0.034590
 Sum of Mulliken atomic charges =   0.00000
 Mulliken charges with hydrogens summed into heavy atoms:
              1
     1  O    0.007034
     2  O    0.027556
     5  Kr  -0.034590
 Sum of Mulliken charges with hydrogens summed into heavy atoms =   0.00000
          Condensed to fragments (all electrons):
     1       0.034590
     2      -0.034590
 Electronic spatial extent (au):  <R**2>=            164.8702
 Charge=              0.0000 electrons
 Dipole moment (field-independent basis, Debye):
    X=             -0.0007    Y=              0.0004    Z=              0.0001  Tot=              0.0009
 Quadrupole moment (field-independent basis, Debye-Ang):
   XX=            -17.5399   YY=            -17.5500   ZZ=            -17.5564
   XY=             -0.0041   XZ=             -0.0002   YZ=              0.0003
 Traceless Quadrupole moment (field-independent basis, Debye-Ang):
   XX=              0.0089   YY=             -0.0012   ZZ=             -0.0077
   XY=             -0.0041   XZ=             -0.0002   YZ=              0.0003
 Octapole moment (field-independent basis, Debye-Ang**2):
  XXX=            -52.0310  YYY=              0.7029  ZZZ=             -0.0896  XYY=            -17.3550
  XXY=              0.2269  XXZ=             -0.0308  XZZ=            -17.3584  YZZ=              0.2354
  YYZ=             -0.0297  XYZ=              0.0001
 Hexadecapole moment (field-independent basis, Debye-Ang**3):
 XXXX=           -120.9012 YYYY=            -18.0409 ZZZZ=            -18.0455 XXXY=              0.6803
 XXXZ=             -0.0905 YYYX=              0.6830 YYYZ=              0.0010 ZZZX=             -0.0900
 ZZZY=              0.0022 XXYY=            -23.1677 XXZZ=            -23.1691 YYZZ=             -6.0135
 XXYZ=              0.0008 YYXZ=             -0.0296 ZZXY=              0.2263
 N-N= 0.000000000000D+00 E-N=-6.579049678083D+03  KE= 2.749515562829D+03
 No NMR shielding tensors so no spin-rotation constants.
 Leave Link  601 at Fri May  8 02:29:54 2020, MaxMem= 1073741824 cpu:       0.7
 (Enter /home/matheus/.gaussian/g09/l122.exe)
 Counterpoise: doing MCBS calculation for fragment   1
 Leave Link  122 at Fri May  8 02:29:54 2020, MaxMem= 1073741824 cpu:       0.0
 (Enter /home/matheus/.gaussian/g09/l301.exe)
 Basis read from rwf:  (5D, 7F)
 No pseudopotential information found on rwf file.
 There are   138 symmetry adapted basis functions of A   symmetry.
 Integral buffers will be    131072 words long.
 Raffenetti 2 integral format.
 Two-electron integral symmetry is turned on.
   138 basis functions,   198 primitive gaussians,   160 cartesian basis functions
     9 alpha electrons        9 beta electrons
       nuclear repulsion energy        36.6165119696 Hartrees.
 IExCor=32609 DFT=T Ex+Corr=LC-wPBE ExCW=0 ScaHFX=  1.000000
 ScaDFX=  1.000000  0.000000  1.000000  1.000000 ScalE2=  1.000000  1.000000
 IRadAn=      5 IRanWt=     -1 IRanGd=            0 ICorTp=0
  HFx wShort=  0.000000 wLong=  0.550000 cFull=  0.000000 cShort=  0.000000 cLong=  1.000000
  DFx wShort=  0.000000 wLong=  0.550000 cFull=  0.000000 cShort=  0.000000 cLong=  1.000000
 NAtoms=    5 NActive=    4 NUniq=    4 SFac= 1.00D+00 NAtFMM=   60 NAOKFM=F Big=F
 No density basis found on file   718.
 Leave Link  301 at Fri May  8 02:29:54 2020, MaxMem= 1073741824 cpu:       0.2
 (Enter /home/matheus/.gaussian/g09/l302.exe)
 NPDir=0 NMtPBC=     1 NCelOv=     1 NCel=       1 NClECP=     1 NCelD=      1
         NCelK=      1 NCelE2=     1 NClLst=     1 CellRange=     0.0.
 One-electron integrals computed using PRISM.
 NBasis=   138 RedAO= T  NBF=   138
 NBsUse=   138 1.00D-06 NBFU=   138
 Precomputing XC quadrature grid using
 IXCGrd= 2 IRadAn=           5 IRanWt=          -1 IRanGd=           0 AccXCQ= 0.00D+00.
 NRdTot=     344 NPtTot=       92556 NUsed=       95038 NTot=       95070
 NSgBfM=   160   160   160   160   160 NAtAll=     4     4.
 Leave Link  302 at Fri May  8 02:29:55 2020, MaxMem= 1073741824 cpu:       0.8
 (Enter /home/matheus/.gaussian/g09/l303.exe)
 DipDrv:  MaxL=1.
 Leave Link  303 at Fri May  8 02:29:55 2020, MaxMem= 1073741824 cpu:       0.1
 (Enter /home/matheus/.gaussian/g09/l401.exe)
 Harris functional with IExCor=32609 diagonalized for initial guess.
 ExpMin= 2.53D-02 ExpMax= 1.53D+04 ExpMxC= 5.22D+02 IAcc=3 IRadAn=         5 AccDes= 0.00D+00
 HarFok:  IExCor=32609 AccDes= 0.00D+00 IRadAn=         5 IDoV= 1
 ScaDFX=  1.000000  1.000000  1.000000  1.000000
 FoFCou: FMM=F IPFlag=           0 FMFlag=      100000 FMFlg1=           0
         NFxFlg=           0 DoJE=T BraDBF=F KetDBF=T FulRan=T
         Omega=  0.000000  0.000000  1.000000  0.000000  0.000000 ICntrl=     500 IOpCl=  0
         NMat0=    1 NMatS0=    1 NMatT0=    0 NMatD0=    1 NMtDS0=    0 NMtDT0=    0
         I1Cent=           4 NGrid=           0.
 Petite list used in FoFCou.
 Harris En= -151.502350764712    
 Initial guess orbital symmetries:
       Occupied  (A) (A) (A) (A) (A) (A) (A) (A) (A)
       Virtual   (A) (A) (A) (A) (A) (A) (A) (A) (A) (A) (A) (A)
                 (A) (A) (A) (A) (A) (A) (A) (A) (A) (A) (A) (A)
                 (A) (A) (A) (A) (A) (A) (A) (A) (A) (A) (A) (A)
                 (A) (A) (A) (A) (A) (A) (A) (A) (A) (A) (A) (A)
                 (A) (A) (A) (A) (A) (A) (A) (A) (A) (A) (A) (A)
                 (A) (A) (A) (A) (A) (A) (A) (A) (A) (A) (A) (A)
                 (A) (A) (A) (A) (A) (A) (A) (A) (A) (A) (A) (A)
                 (A) (A) (A) (A) (A) (A) (A) (A) (A) (A) (A) (A)
                 (A) (A) (A) (A) (A) (A) (A) (A) (A) (A) (A) (A)
                 (A) (A) (A) (A) (A) (A) (A) (A) (A) (A) (A) (A)
                 (A) (A) (A) (A) (A) (A) (A) (A) (A)
 The electronic state of the initial guess is 1-A.
 Leave Link  401 at Fri May  8 02:29:55 2020, MaxMem= 1073741824 cpu:       2.1
 (Enter /home/matheus/.gaussian/g09/l502.exe)
 Closed shell SCF:
 Requested convergence on RMS density matrix=1.00D-08 within 128 cycles.
 Requested convergence on MAX density matrix=1.00D-06.
 Requested convergence on             energy=1.00D-06.
 No special actions if energy rises.
 Using DIIS extrapolation, IDIIS=  1040.
 Integral symmetry usage will be decided dynamically.
        94980 words used for storage of precomputed grid.
 IEnd=      192360 IEndB=      192360 NGot=  1073741824 MDV=  1073591865
 LenX=  1073591865 LenY=  1073565824
 Fock matrices will be formed incrementally for  20 cycles.

 Cycle   1  Pass 1  IDiag  1:
 FoFJK:  IHMeth= 1 ICntrl=     0 DoSepK=T KAlg= 1 I1Cent= 0 FoldK=F
 FoFCou: FMM=F IPFlag=           0 FMFlag=      100000 FMFlg1=           0
         NFxFlg=           0 DoJE=T BraDBF=F KetDBF=F FulRan=T
         Omega=  0.000000  0.000000  1.000000  0.000000  0.000000 ICntrl=     500 IOpCl=  0
         NMat0=    1 NMatS0=    1 NMatT0=    0 NMatD0=    1 NMtDS0=    0 NMtDT0=    0
         I1Cent=           0 NGrid=           0.
 Symmetry not used in FoFCou.
 E= -151.508910857494    
 DIIS: error= 1.64D-02 at cycle   1 NSaved=   1.
 NSaved= 1 IEnMin= 1 EnMin= -151.508910857494     IErMin= 1 ErrMin= 1.64D-02
 ErrMax= 1.64D-02 EMaxC= 1.00D-01 BMatC= 4.02D-02 BMatP= 4.02D-02
 IDIUse=3 WtCom= 8.36D-01 WtEn= 1.64D-01
 Coeff-Com:  0.100D+01
 Coeff-En:   0.100D+01
 Coeff:      0.100D+01
 Gap=     0.568 Goal=   None    Shift=    0.000
 GapD=    0.568 DampG=2.000 DampE=0.500 DampFc=1.0000 IDamp=-1.
 RMSDP=1.02D-03 MaxDP=2.40D-02              OVMax= 5.10D-02

 Cycle   2  Pass 1  IDiag  1:
 RMSU=  7.14D-04    CP:  9.88D-01
 FoFJK:  IHMeth= 1 ICntrl=     0 DoSepK=T KAlg= 1 I1Cent= 0 FoldK=F
 E= -151.525078528164     Delta-E=       -0.016167670670 Rises=F Damp=F
 DIIS: error= 9.30D-03 at cycle   2 NSaved=   2.
 NSaved= 2 IEnMin= 2 EnMin= -151.525078528164     IErMin= 2 ErrMin= 9.30D-03
 ErrMax= 9.30D-03 EMaxC= 1.00D-01 BMatC= 1.56D-02 BMatP= 4.02D-02
 IDIUse=3 WtCom= 9.07D-01 WtEn= 9.30D-02
 Coeff-Com:  0.370D+00 0.630D+00
 Coeff-En:   0.115D+00 0.885D+00
 Coeff:      0.346D+00 0.654D+00
 Gap=     0.489 Goal=   None    Shift=    0.000
 RMSDP=5.73D-04 MaxDP=2.22D-02 DE=-1.62D-02 OVMax= 2.24D-02

 Cycle   3  Pass 1  IDiag  1:
 RMSU=  3.46D-04    CP:  9.84D-01  7.11D-01
 FoFJK:  IHMeth= 1 ICntrl=     0 DoSepK=T KAlg= 1 I1Cent= 0 FoldK=F
 E= -151.533806552512     Delta-E=       -0.008728024348 Rises=F Damp=F
 DIIS: error= 2.30D-03 at cycle   3 NSaved=   3.
 NSaved= 3 IEnMin= 3 EnMin= -151.533806552512     IErMin= 3 ErrMin= 2.30D-03
 ErrMax= 2.30D-03 EMaxC= 1.00D-01 BMatC= 4.10D-04 BMatP= 1.56D-02
 IDIUse=3 WtCom= 9.77D-01 WtEn= 2.30D-02
 Coeff-Com:  0.396D-01 0.160D+00 0.801D+00
 Coeff-En:   0.000D+00 0.000D+00 0.100D+01
 Coeff:      0.387D-01 0.156D+00 0.805D+00
 Gap=     0.481 Goal=   None    Shift=    0.000
 RMSDP=8.17D-05 MaxDP=2.04D-03 DE=-8.73D-03 OVMax= 4.09D-03

 Cycle   4  Pass 1  IDiag  1:
 RMSU=  3.95D-05    CP:  9.82D-01  7.63D-01  1.02D+00
 FoFJK:  IHMeth= 1 ICntrl=     0 DoSepK=T KAlg= 1 I1Cent= 0 FoldK=F
 E= -151.534066836663     Delta-E=       -0.000260284151 Rises=F Damp=F
 DIIS: error= 2.90D-04 at cycle   4 NSaved=   4.
 NSaved= 4 IEnMin= 4 EnMin= -151.534066836663     IErMin= 4 ErrMin= 2.90D-04
 ErrMax= 2.90D-04 EMaxC= 1.00D-01 BMatC= 1.00D-05 BMatP= 4.10D-04
 IDIUse=3 WtCom= 9.97D-01 WtEn= 2.90D-03
 Coeff-Com: -0.917D-02-0.127D-01 0.891D-01 0.933D+00
 Coeff-En:   0.000D+00 0.000D+00 0.000D+00 0.100D+01
 Coeff:     -0.914D-02-0.127D-01 0.889D-01 0.933D+00
 Gap=     0.483 Goal=   None    Shift=    0.000
 RMSDP=2.15D-05 MaxDP=9.58D-04 DE=-2.60D-04 OVMax= 8.33D-04

 Cycle   5  Pass 1  IDiag  1:
 RMSU=  6.30D-06    CP:  9.82D-01  7.64D-01  1.06D+00  1.07D+00
 FoFJK:  IHMeth= 1 ICntrl=     0 DoSepK=T KAlg= 1 I1Cent= 0 FoldK=F
 E= -151.534075769620     Delta-E=       -0.000008932957 Rises=F Damp=F
 DIIS: error= 5.93D-05 at cycle   5 NSaved=   5.
 NSaved= 5 IEnMin= 5 EnMin= -151.534075769620     IErMin= 5 ErrMin= 5.93D-05
 ErrMax= 5.93D-05 EMaxC= 1.00D-01 BMatC= 2.32D-07 BMatP= 1.00D-05
 IDIUse=1 WtCom= 1.00D+00 WtEn= 0.00D+00
 Coeff-Com: -0.381D-03-0.234D-02-0.363D-01-0.124D+00 0.116D+01
 Coeff:     -0.381D-03-0.234D-02-0.363D-01-0.124D+00 0.116D+01
 Gap=     0.483 Goal=   None    Shift=    0.000
 RMSDP=5.34D-06 MaxDP=1.30D-04 DE=-8.93D-06 OVMax= 3.65D-04

 Cycle   6  Pass 1  IDiag  1:
 RMSU=  1.65D-06    CP:  9.82D-01  7.65D-01  1.07D+00  1.12D+00  1.33D+00
 FoFJK:  IHMeth= 1 ICntrl=     0 DoSepK=T KAlg= 1 I1Cent= 0 FoldK=F
 E= -151.534076402058     Delta-E=       -0.000000632439 Rises=F Damp=F
 DIIS: error= 1.36D-05 at cycle   6 NSaved=   6.
 NSaved= 6 IEnMin= 6 EnMin= -151.534076402058     IErMin= 6 ErrMin= 1.36D-05
 ErrMax= 1.36D-05 EMaxC= 1.00D-01 BMatC= 1.26D-08 BMatP= 2.32D-07
 IDIUse=1 WtCom= 1.00D+00 WtEn= 0.00D+00
 Coeff-Com:  0.307D-03 0.894D-03 0.386D-02-0.592D-02-0.205D+00 0.121D+01
 Coeff:      0.307D-03 0.894D-03 0.386D-02-0.592D-02-0.205D+00 0.121D+01
[...]

 Cycle   2  Pass 1  IDiag  1:
 RMSU=  1.19D-05    CP:  1.00D+00
 FoFJK:  IHMeth= 1 ICntrl=     0 DoSepK=T KAlg= 1 I1Cent= 0 FoldK=F
 E= -2753.47778064095     Delta-E=       -0.000000544007 Rises=F Damp=F
 DIIS: error= 3.78D-06 at cycle   2 NSaved=   2.
 NSaved= 2 IEnMin= 2 EnMin= -2753.47778064095     IErMin= 2 ErrMin= 3.78D-06
 ErrMax= 3.78D-06 EMaxC= 1.00D-01 BMatC= 3.70D-09 BMatP= 4.87D-06
 IDIUse=1 WtCom= 1.00D+00 WtEn= 0.00D+00
 Coeff-Com: -0.794D-02 0.101D+01
 Coeff:     -0.794D-02 0.101D+01
 Gap=     0.555 Goal=   None    Shift=    0.000
 RMSDP=1.75D-06 MaxDP=6.85D-05 DE=-5.44D-07 OVMax= 4.54D-05

 Cycle   3  Pass 1  IDiag  1:
 RMSU=  5.46D-07    CP:  1.00D+00  1.09D+00
 FoFJK:  IHMeth= 1 ICntrl=     0 DoSepK=T KAlg= 1 I1Cent= 0 FoldK=F
 E= -2753.47778064742     Delta-E=       -0.000000006471 Rises=F Damp=F
 DIIS: error= 6.18D-07 at cycle   3 NSaved=   3.
 NSaved= 3 IEnMin= 3 EnMin= -2753.47778064742     IErMin= 3 ErrMin= 6.18D-07
 ErrMax= 6.18D-07 EMaxC= 1.00D-01 BMatC= 9.24D-11 BMatP= 3.70D-09
 IDIUse=1 WtCom= 1.00D+00 WtEn= 0.00D+00
 Coeff-Com:  0.321D-03-0.127D+00 0.113D+01
 Coeff:      0.321D-03-0.127D+00 0.113D+01
 Gap=     0.555 Goal=   None    Shift=    0.000
 RMSDP=2.15D-07 MaxDP=8.72D-06 DE=-6.47D-09 OVMax= 9.04D-06

 Cycle   4  Pass 1  IDiag  1:
 RMSU=  5.11D-08    CP:  1.00D+00  1.10D+00  1.19D+00
 FoFJK:  IHMeth= 1 ICntrl=     0 DoSepK=T KAlg= 1 I1Cent= 0 FoldK=F
 E= -2753.47778064760     Delta-E=       -0.000000000180 Rises=F Damp=F
 DIIS: error= 2.54D-07 at cycle   4 NSaved=   4.
 NSaved= 4 IEnMin= 4 EnMin= -2753.47778064760     IErMin= 4 ErrMin= 2.54D-07
 ErrMax= 2.54D-07 EMaxC= 1.00D-01 BMatC= 7.71D-12 BMatP= 9.24D-11
 IDIUse=1 WtCom= 1.00D+00 WtEn= 0.00D+00
 Coeff-Com:  0.181D-03-0.446D-01 0.269D+00 0.775D+00
 Coeff:      0.181D-03-0.446D-01 0.269D+00 0.775D+00
 Gap=     0.555 Goal=   None    Shift=    0.000
 RMSDP=1.67D-08 MaxDP=7.07D-07 DE=-1.80D-10 OVMax= 8.20D-07

 Cycle   5  Pass 1  IDiag  1:
 RMSU=  7.69D-09    CP:  1.00D+00  1.10D+00  1.20D+00  1.12D+00
 FoFJK:  IHMeth= 1 ICntrl=     0 DoSepK=T KAlg= 1 I1Cent= 0 FoldK=F
 E= -2753.47778064761     Delta-E=       -0.000000000012 Rises=F Damp=F
 DIIS: error= 3.39D-08 at cycle   5 NSaved=   5.
 NSaved= 5 IEnMin= 5 EnMin= -2753.47778064761     IErMin= 5 ErrMin= 3.39D-08
 ErrMax= 3.39D-08 EMaxC= 1.00D-01 BMatC= 2.60D-13 BMatP= 7.71D-12
 IDIUse=1 WtCom= 1.00D+00 WtEn= 0.00D+00
 Coeff-Com: -0.103D-04 0.572D-02-0.543D-01 0.133D-01 0.104D+01
 Coeff:     -0.103D-04 0.572D-02-0.543D-01 0.133D-01 0.104D+01
 Gap=     0.555 Goal=   None    Shift=    0.000
 RMSDP=7.66D-09 MaxDP=4.39D-07 DE=-1.23D-11 OVMax= 3.77D-07

 SCF Done:  E(RLC-wPBE) =  -2753.47778065     A.U. after    5 cycles
             Convg  =    0.7663D-08             -V/T =  2.0014
 KE= 2.749554996516D+03 PE=-6.579092902195D+03 EE= 1.076060125031D+03
 Leave Link  502 at Fri May  8 02:52:02 2020, MaxMem= 1073741824 cpu:      87.6
 (Enter /home/matheus/.gaussian/g09/l122.exe)
 Restoring MOs from calculation   4 to rwf.
 Counterpoise: doing MCBS calculation for fragment   1
 Leave Link  122 at Fri May  8 02:52:02 2020, MaxMem= 1073741824 cpu:       0.0
 (Enter /home/matheus/.gaussian/g09/l301.exe)
 Basis read from rwf:  (5D, 7F)
 No pseudopotential information found on rwf file.
 There are   138 symmetry adapted basis functions of A   symmetry.
 Integral buffers will be    131072 words long.
 Raffenetti 2 integral format.
 Two-electron integral symmetry is turned on.
   138 basis functions,   198 primitive gaussians,   160 cartesian basis functions
     9 alpha electrons        9 beta electrons
       nuclear repulsion energy        36.6165119696 Hartrees.
 IExCor=32609 DFT=T Ex+Corr=LC-wPBE ExCW=0 ScaHFX=  1.000000
 ScaDFX=  1.000000  0.000000  1.000000  1.000000 ScalE2=  1.000000  1.000000
 IRadAn=      5 IRanWt=     -1 IRanGd=            0 ICorTp=0
  HFx wShort=  0.000000 wLong=  0.550000 cFull=  0.000000 cShort=  0.000000 cLong=  1.000000
  DFx wShort=  0.000000 wLong=  0.550000 cFull=  0.000000 cShort=  0.000000 cLong=  1.000000
 NAtoms=    5 NActive=    4 NUniq=    4 SFac= 1.00D+00 NAtFMM=   60 NAOKFM=F Big=F
 No density basis found on file   718.
 Leave Link  301 at Fri May  8 02:52:02 2020, MaxMem= 1073741824 cpu:       0.2
 (Enter /home/matheus/.gaussian/g09/l302.exe)
 NPDir=0 NMtPBC=     1 NCelOv=     1 NCel=       1 NClECP=     1 NCelD=      1
         NCelK=      1 NCelE2=     1 NClLst=     1 CellRange=     0.0.
 One-electron integrals computed using PRISM.
 NBasis=   138 RedAO= T  NBF=   138
 NBsUse=   138 1.00D-06 NBFU=   138
 Precomputing XC quadrature grid using
 IXCGrd= 2 IRadAn=           5 IRanWt=          -1 IRanGd=           0 AccXCQ= 0.00D+00.
 NRdTot=     344 NPtTot=       92556 NUsed=       95038 NTot=       95070
 NSgBfM=   160   160   160   160   160 NAtAll=     4     4.
 Leave Link  302 at Fri May  8 02:52:02 2020, MaxMem= 1073741824 cpu:       0.7
 (Enter /home/matheus/.gaussian/g09/l303.exe)
 DipDrv:  MaxL=1.
 Leave Link  303 at Fri May  8 02:52:02 2020, MaxMem= 1073741824 cpu:       0.2
 (Enter /home/matheus/.gaussian/g09/l401.exe)
 Initial guess read from the read-write file.
 Guess basis will be translated and rotated to current coordinates.
 Initial guess orbital symmetries:
       Occupied  (A) (A) (A) (A) (A) (A) (A) (A) (A)
       Virtual   (A) (A) (A) (A) (A) (A) (A) (A) (A) (A) (A) (A)
                 (A) (A) (A) (A) (A) (A) (A) (A) (A) (A) (A) (A)
                 (A) (A) (A) (A) (A) (A) (A) (A) (A) (A) (A) (A)
                 (A) (A) (A) (A) (A) (A) (A) (A) (A) (A) (A) (A)
                 (A) (A) (A) (A) (A) (A) (A) (A) (A) (A) (A) (A)
                 (A) (A) (A) (A) (A) (A) (A) (A) (A) (A) (A) (A)
                 (A) (A) (A) (A) (A) (A) (A) (A) (A) (A) (A) (A)
                 (A) (A) (A) (A) (A) (A) (A) (A) (A) (A) (A) (A)
                 (A) (A) (A) (A) (A) (A) (A) (A) (A) (A) (A) (A)
                 (A) (A) (A) (A) (A) (A) (A) (A) (A) (A) (A) (A)
                 (A) (A) (A) (A) (A) (A) (A) (A) (A)
 The electronic state of the initial guess is 1-A.
 Generating alternative initial guess.
 Harris functional with IExCor=32609 diagonalized for initial guess.
 ExpMin= 2.53D-02 ExpMax= 1.53D+04 ExpMxC= 5.22D+02 IAcc=3 IRadAn=         5 AccDes= 0.00D+00
 HarFok:  IExCor=32609 AccDes= 0.00D+00 IRadAn=         5 IDoV= 1
 ScaDFX=  1.000000  1.000000  1.000000  1.000000
 FoFCou: FMM=F IPFlag=           0 FMFlag=      100000 FMFlg1=           0
         NFxFlg=           0 DoJE=T BraDBF=F KetDBF=T FulRan=T
         Omega=  0.000000  0.000000  1.000000  0.000000  0.000000 ICntrl=     500 IOpCl=  0
         NMat0=    1 NMatS0=    1 NMatT0=    0 NMatD0=    1 NMtDS0=    0 NMtDT0=    0
         I1Cent=           4 NGrid=           0.
 Petite list used in FoFCou.
 Harris En= -151.502350795681    
 Leave Link  401 at Fri May  8 02:52:03 2020, MaxMem= 1073741824 cpu:       2.5
 (Enter /home/matheus/.gaussian/g09/l502.exe)
 Closed shell SCF:
 Requested convergence on RMS density matrix=1.00D-08 within 128 cycles.
 Requested convergence on MAX density matrix=1.00D-06.
 Requested convergence on             energy=1.00D-06.
 No special actions if energy rises.
 Using DIIS extrapolation, IDIIS=  1040.
 Integral symmetry usage will be decided dynamically.
        94980 words used for storage of precomputed grid.
 IEnd=      192360 IEndB=      192360 NGot=  1073741824 MDV=  1073591865
 LenX=  1073591865 LenY=  1073565824
 Fock matrices will be formed incrementally for  20 cycles.

 Cycle   1  Pass 1  IDiag  1:
 FoFJK:  IHMeth= 1 ICntrl=     0 DoSepK=T KAlg= 1 I1Cent= 0 FoldK=F
 FoFCou: FMM=F IPFlag=           0 FMFlag=      100000 FMFlg1=           0
         NFxFlg=           0 DoJE=T BraDBF=F KetDBF=F FulRan=T
         Omega=  0.000000  0.000000  1.000000  0.000000  0.000000 ICntrl=     500 IOpCl=  0
         NMat0=    1 NMatS0=    1 NMatT0=    0 NMatD0=    1 NMtDS0=    0 NMtDT0=    0
         I1Cent=           0 NGrid=           0.
 Symmetry not used in FoFCou.
 E= -151.534076125804    
 DIIS: error= 1.45D-05 at cycle   1 NSaved=   1.
 NSaved= 1 IEnMin= 1 EnMin= -151.534076125804     IErMin= 1 ErrMin= 1.45D-05
 ErrMax= 1.45D-05 EMaxC= 1.00D-01 BMatC= 4.10D-08 BMatP= 4.10D-08
 IDIUse=1 WtCom= 1.00D+00 WtEn= 0.00D+00
 Coeff-Com:  0.100D+01
 Coeff:      0.100D+01
 Gap=     0.483 Goal=   None    Shift=    0.000
 RMSDP=1.16D-06 MaxDP=2.47D-05              OVMax= 5.73D-05

 Cycle   2  Pass 1  IDiag  1:
 RMSU=  8.18D-07    CP:  1.00D+00
 FoFJK:  IHMeth= 1 ICntrl=     0 DoSepK=T KAlg= 1 I1Cent= 0 FoldK=F
 E= -151.534076231550     Delta-E=       -0.000000105746 Rises=F Damp=F
 DIIS: error= 3.01D-06 at cycle   2 NSaved=   2.
 NSaved= 2 IEnMin= 2 EnMin= -151.534076231550     IErMin= 2 ErrMin= 3.01D-06
 ErrMax= 3.01D-06 EMaxC= 1.00D-01 BMatC= 1.73D-09 BMatP= 4.10D-08
 IDIUse=1 WtCom= 1.00D+00 WtEn= 0.00D+00
 Coeff-Com: -0.134D+00 0.113D+01
 Coeff:     -0.134D+00 0.113D+01
 Gap=     0.483 Goal=   None    Shift=    0.000
 RMSDP=3.79D-07 MaxDP=9.25D-06 DE=-1.06D-07 OVMax= 2.59D-05

 Cycle   3  Pass 1  IDiag  1:
 RMSU=  1.48D-07    CP:  1.00D+00  1.27D+00
 FoFJK:  IHMeth= 1 ICntrl=     0 DoSepK=T KAlg= 1 I1Cent= 0 FoldK=F
 E= -151.534076235356     Delta-E=       -0.000000003806 Rises=F Damp=F
 DIIS: error= 1.11D-06 at cycle   3 NSaved=   3.
 NSaved= 3 IEnMin= 3 EnMin= -151.534076235356     IErMin= 3 ErrMin= 1.11D-06
 ErrMax= 1.11D-06 EMaxC= 1.00D-01 BMatC= 2.33D-10 BMatP= 1.73D-09
 IDIUse=1 WtCom= 1.00D+00 WtEn= 0.00D+00
 Coeff-Com: -0.287D-01 0.451D-01 0.984D+00
 Coeff:     -0.287D-01 0.451D-01 0.984D+00
 Gap=     0.483 Goal=   None    Shift=    0.000
 RMSDP=1.30D-07 MaxDP=3.24D-06 DE=-3.81D-09 OVMax= 8.85D-06

 Cycle   4  Pass 1  IDiag  1:
 RMSU=  6.23D-08    CP:  1.00D+00  1.34D+00  1.28D+00
 FoFJK:  IHMeth= 1 ICntrl=     0 DoSepK=T KAlg= 1 I1Cent= 0 FoldK=F
 E= -151.534076235747     Delta-E=       -0.000000000391 Rises=F Damp=F
 DIIS: error= 7.94D-07 at cycle   4 NSaved=   4.
 NSaved= 4 IEnMin= 4 EnMin= -151.534076235747     IErMin= 4 ErrMin= 7.94D-07
 ErrMax= 7.94D-07 EMaxC= 1.00D-01 BMatC= 1.54D-10 BMatP= 2.33D-10
 IDIUse=1 WtCom= 1.00D+00 WtEn= 0.00D+00
 Coeff-Com:  0.110D-01-0.202D+00 0.520D+00 0.671D+00
 Coeff:      0.110D-01-0.202D+00 0.520D+00 0.671D+00
 Gap=     0.483 Goal=   None    Shift=    0.000
 RMSDP=6.36D-08 MaxDP=1.29D-06 DE=-3.91D-10 OVMax= 4.12D-06

 Cycle   5  Pass 1  IDiag  1:
 RMSU=  1.99D-08    CP:  1.00D+00  1.36D+00  1.51D+00  8.17D-01
 FoFJK:  IHMeth= 1 ICntrl=     0 DoSepK=T KAlg= 1 I1Cent= 0 FoldK=F
 E= -151.534076235902     Delta-E=       -0.000000000155 Rises=F Damp=F
 DIIS: error= 2.16D-07 at cycle   5 NSaved=   5.
 NSaved= 5 IEnMin= 5 EnMin= -151.534076235902     IErMin= 5 ErrMin= 2.16D-07
 ErrMax= 2.16D-07 EMaxC= 1.00D-01 BMatC= 5.09D-12 BMatP= 1.54D-10
 IDIUse=1 WtCom= 1.00D+00 WtEn= 0.00D+00
 Coeff-Com:  0.331D-02-0.112D-01-0.113D+00 0.119D-01 0.111D+01
 Coeff:      0.331D-02-0.112D-01-0.113D+00 0.119D-01 0.111D+01
 Gap=     0.483 Goal=   None    Shift=    0.000
 RMSDP=2.70D-08 MaxDP=5.16D-07 DE=-1.55D-10 OVMax= 2.49D-06

 Cycle   6  Pass 1  IDiag  1:
 RMSU=  6.82D-09    CP:  1.00D+00  1.37D+00  1.58D+00  9.59D-01  1.46D+00
 FoFJK:  IHMeth= 1 ICntrl=     0 DoSepK=T KAlg= 1 I1Cent= 0 FoldK=F
 E= -151.534076235919     Delta-E=       -0.000000000017 Rises=F Damp=F
 DIIS: error= 6.75D-08 at cycle   6 NSaved=   6.
 NSaved= 6 IEnMin= 6 EnMin= -151.534076235919     IErMin= 6 ErrMin= 6.75D-08
 ErrMax= 6.75D-08 EMaxC= 1.00D-01 BMatC= 5.28D-13 BMatP= 5.09D-12
 IDIUse=1 WtCom= 1.00D+00 WtEn= 0.00D+00
 Coeff-Com: -0.978D-03 0.188D-01-0.479D-01-0.598D-01 0.219D-01 0.107D+01
 Coeff:     -0.978D-03 0.188D-01-0.479D-01-0.598D-01 0.219D-01 0.107D+01
 Gap=     0.483 Goal=   None    Shift=    0.000
 RMSDP=9.74D-09 MaxDP=1.76D-07 DE=-1.69D-11 OVMax= 9.97D-07

 SCF Done:  E(RLC-wPBE) =  -151.534076236     A.U. after    6 cycles
             Convg  =    0.9742D-08             -V/T =  2.0071
 KE= 1.504674899442D+02 PE=-4.315465464987D+02 EE= 9.292846834888D+01
 Leave Link  502 at Fri May  8 02:52:08 2020, MaxMem= 1073741824 cpu:      44.2
 (Enter /home/matheus/.gaussian/g09/l122.exe)
 Restoring MOs from calculation   5 to rwf.
 Counterpoise: doing MCBS calculation for fragment   2
 Leave Link  122 at Fri May  8 02:52:08 2020, MaxMem= 1073741824 cpu:       0.0
 (Enter /home/matheus/.gaussian/g09/l301.exe)
 Basis read from rwf:  (5D, 7F)
 No pseudopotential information found on rwf file.
 There are    59 symmetry adapted basis functions of A   symmetry.
 Integral buffers will be    131072 words long.
 Raffenetti 2 integral format.
 Two-electron integral symmetry is turned on.
    59 basis functions,   217 primitive gaussians,    69 cartesian basis functions
    18 alpha electrons       18 beta electrons
       nuclear repulsion energy         0.0000000000 Hartrees.
 IExCor=32609 DFT=T Ex+Corr=LC-wPBE ExCW=0 ScaHFX=  1.000000
 ScaDFX=  1.000000  0.000000  1.000000  1.000000 ScalE2=  1.000000  1.000000
 IRadAn=      5 IRanWt=     -1 IRanGd=            0 ICorTp=0
  HFx wShort=  0.000000 wLong=  0.550000 cFull=  0.000000 cShort=  0.000000 cLong=  1.000000
  DFx wShort=  0.000000 wLong=  0.550000 cFull=  0.000000 cShort=  0.000000 cLong=  1.000000
 NAtoms=    5 NActive=    1 NUniq=    1 SFac= 1.00D+00 NAtFMM=   60 NAOKFM=F Big=F
 No density basis found on file   718.
 Leave Link  301 at Fri May  8 02:52:08 2020, MaxMem= 1073741824 cpu:       0.2
 (Enter /home/matheus/.gaussian/g09/l302.exe)
 NPDir=0 NMtPBC=     1 NCelOv=     1 NCel=       1 NClECP=     1 NCelD=      1
         NCelK=      1 NCelE2=     1 NClLst=     1 CellRange=     0.0.
 One-electron integrals computed using PRISM.
 NBasis=    59 RedAO= T  NBF=    59
 NBsUse=    59 1.00D-06 NBFU=    59
 Precomputing XC quadrature grid using
 IXCGrd= 2 IRadAn=           5 IRanWt=          -1 IRanGd=           0 AccXCQ= 0.00D+00.
 NRdTot=      81 NPtTot=       30352 NUsed=       30981 NTot=       31013
 NSgBfM=    69    69    69    69    69 NAtAll=     1     1.
 Leave Link  302 at Fri May  8 02:52:08 2020, MaxMem= 1073741824 cpu:       0.6
 (Enter /home/matheus/.gaussian/g09/l303.exe)
 DipDrv:  MaxL=1.
 Leave Link  303 at Fri May  8 02:52:08 2020, MaxMem= 1073741824 cpu:       0.2
 (Enter /home/matheus/.gaussian/g09/l401.exe)
 Initial guess read from the read-write file.
 Guess basis will be translated and rotated to current coordinates.
 Initial guess orbital symmetries:
       Occupied  (A) (A) (A) (A) (A) (A) (A) (A) (A) (A) (A) (A)
                 (A) (A) (A) (A) (A) (A)
       Virtual   (A) (A) (A) (A) (A) (A) (A) (A) (A) (A) (A) (A)
                 (A) (A) (A) (A) (A) (A) (A) (A) (A) (A) (A) (A)
                 (A) (A) (A) (A) (A) (A) (A) (A) (A) (A) (A) (A)
                 (A) (A) (A) (A) (A)
 The electronic state of the initial guess is 1-A.
 Generating alternative initial guess.
 Harris functional with IExCor=32609 diagonalized for initial guess.
 ExpMin= 4.00D-02 ExpMax= 1.17D+07 ExpMxC= 1.33D+04 IAcc=3 IRadAn=         5 AccDes= 0.00D+00
 HarFok:  IExCor=32609 AccDes= 0.00D+00 IRadAn=         5 IDoV= 1
 ScaDFX=  1.000000  1.000000  1.000000  1.000000
 FoFCou: FMM=F IPFlag=           0 FMFlag=      100000 FMFlg1=           0
         NFxFlg=           0 DoJE=T BraDBF=F KetDBF=T FulRan=T
         Omega=  0.000000  0.000000  1.000000  0.000000  0.000000 ICntrl=     500 IOpCl=  0
         NMat0=    1 NMatS0=    1 NMatT0=    0 NMatD0=    1 NMtDS0=    0 NMtDT0=    0
         I1Cent=           4 NGrid=           0.
 Petite list used in FoFCou.
 Harris En= -2753.24576836237    
 Leave Link  401 at Fri May  8 02:52:09 2020, MaxMem= 1073741824 cpu:       1.0
 (Enter /home/matheus/.gaussian/g09/l502.exe)
 Closed shell SCF:
 Requested convergence on RMS density matrix=1.00D-08 within 128 cycles.
 Requested convergence on MAX density matrix=1.00D-06.
 Requested convergence on             energy=1.00D-06.
 No special actions if energy rises.
 Using DIIS extrapolation, IDIIS=  1040.
 Integral symmetry usage will be decided dynamically.
        30923 words used for storage of precomputed grid.
 IEnd=       64406 IEndB=       64406 NGot=  1073741824 MDV=  1073698889
 LenX=  1073698889 LenY=  1073693687
 Fock matrices will be formed incrementally for  20 cycles.

 Cycle   1  Pass 1  IDiag  1:
 FoFJK:  IHMeth= 1 ICntrl=     0 DoSepK=T KAlg= 1 I1Cent= 0 FoldK=F
 FoFCou: FMM=F IPFlag=           0 FMFlag=      100000 FMFlg1=           0
         NFxFlg=           0 DoJE=T BraDBF=F KetDBF=F FulRan=T
         Omega=  0.000000  0.000000  1.000000  0.000000  0.000000 ICntrl=     500 IOpCl=  0
         NMat0=    1 NMatS0=    1 NMatT0=    0 NMatD0=    1 NMtDS0=    0 NMtDT0=    0
         I1Cent=           0 NGrid=           0.
 Symmetry not used in FoFCou.
 E= -2753.47775989058    
 DIIS: error= 1.46D-13 at cycle   1 NSaved=   1.
 NSaved= 1 IEnMin= 1 EnMin= -2753.47775989058     IErMin= 1 ErrMin= 1.46D-13
 ErrMax= 1.46D-13 EMaxC= 1.00D-01 BMatC= 2.70D-25 BMatP= 2.70D-25
 IDIUse=1 WtCom= 1.00D+00 WtEn= 0.00D+00
 Coeff-Com:  0.100D+01
 Coeff:      0.100D+01
 Gap=     0.626 Goal=   None    Shift=    0.000
 RMSDP=1.07D-14 MaxDP=2.71D-13              OVMax= 6.83D-14

 SCF Done:  E(RLC-wPBE) =  -2753.47775989     A.U. after    1 cycles
             Convg  =    0.1070D-13             -V/T =  2.0014
 KE= 2.749561508178D+03 PE=-6.579099712888D+03 EE= 1.076060444820D+03
 Leave Link  502 at Fri May  8 02:52:10 2020, MaxMem= 1073741824 cpu:      10.9
 (Enter /home/matheus/.gaussian/g09/l122.exe)
 Restoring MOs from calculation   1 to rwf.
 Counterpoise: corrected energy =   -2905.011861503845
 Counterpoise: BSSE energy =       0.000024436131
 Leave Link  122 at Fri May  8 02:52:10 2020, MaxMem= 1073741824 cpu:       0.0
 (Enter /home/matheus/.gaussian/g09/l108.exe)
 Scan completed.

 Summary of the potential surface scan:
   N      R1          SCF    
 ----  ---------  -----------
    1     3.0000  -2753.47776
    2     3.1000  -2753.47776
    3     3.2000  -2753.47776
    4     3.3000  -2753.47776
    5     3.4000  -2753.47776
    6     3.5000  -2753.47776
    7     3.6000  -2753.47776
    8     3.7000  -2753.47776
    9     3.8000  -2753.47776
   10     3.9000  -2753.47776
   11     4.0000  -2753.47776
   12     4.1000  -2753.47776
   13     4.2000  -2753.47776
   14     4.3000  -2753.47776
   15     4.4000  -2753.47776
   16     4.5000  -2753.47776
   17     4.6000  -2753.47776
   18     4.7000  -2753.47776
   19     4.8000  -2753.47776
   20     4.9000  -2753.47776
   21     5.0000  -2753.47776
 ----  ---------  -----------
  
 Leave Link  108 at Fri May  8 02:52:10 2020, MaxMem= 1073741824 cpu:       0.0
 (Enter /home/matheus/.gaussian/g09/l9999.exe)

 Test job not archived.
 1\1\GINC-REDGIANT\Scan\RLC-wPBE\Aug-CC-pVTZ\H2Kr1O2\MATHEUS\08-May-202
 0\1\\#p lc-wpbe/aug-cc-PVTz iop(3/107=0550000000) iop(3/108=0550000000
 ) int=ultrafine counterpoise=2 Scan\\TCC\\0,1\O,0,0.,0.,0.725\O,0,0.,0
 .,-0.725\H,0,-0.8633149634,-0.3142209495,1.0235104166\H,0,0.,0.9187205
 947,-1.0235104166\Kr,0,0.,R1,0.\\R1=3.,s,20,0.1\\Version=EM64L-G09RevC
 .01\State=1-A\HF=-2753.4777599,-2753.4777599,-2753.4777599,-2753.47775
 99,-2753.4777599,-2753.4777599,-2753.4777599,-2753.4777599,-2753.47775
 99,-2753.4777599,-2753.4777599,-2753.4777599,-2753.4777599,-2753.47775
 99,-2753.4777599,-2753.4777599,-2753.4777599,-2753.4777599,-2753.47775
 99,-2753.4777599,-2753.4777599\RMSD=1.997e-09,5.419e-11,1.020e-11,4.44
 0e-12,2.187e-12,1.225e-12,6.752e-13,3.822e-13,2.161e-13,1.178e-13,5.99
 7e-14,3.487e-14,2.561e-14,1.458e-14,1.165e-14,7.752e-15,8.618e-15,4.24
 3e-15,9.872e-15,5.777e-15,1.070e-14\PG=C01 [X(H2Kr1O2)]\\@


 FROM AN ANONYMOUS WRITER, ON PERSPECTIVE:

 MAN, DESPITE HIS ARTISTIC PRETENSIONS, HIS SOPHISTICATION AND MANY 
 ACCOMPLISHMENTS, OWES THE FACT OF HIS EXISTENCE TO A SIX-INCH LAYER OF 
 TOPSOIL AND THE FACT THAT IT RAINS.
 Job cpu time:  0 days  3 hours  8 minutes 58.4 seconds.
 File lengths (MBytes):  RWF=     33 Int=      0 D2E=      0 Chk=      8 Scr=      1
 Normal termination of Gaussian 09 at Fri May  8 02:52:10 2020.
