 Entering Gaussian System, Link 0=g09
 Input=/home/matheus/.tcc/Inputs-lc-wpbe/H2O2-Kr_10.com
 Output=/home/matheus/.tcc/Logs-lc-wpbe/H2O2-Kr_10.log
 Initial command:
 /home/matheus/.gaussian/g09/l1.exe /home/matheus/.gaussian/g09/scratch/Gau-22416.inp -scrdir=/home/matheus/.gaussian/g09/scratch/
 Entering Link 1 = /home/matheus/.gaussian/g09/l1.exe PID=     22419.
  
 Copyright (c) 1988,1990,1992,1993,1995,1998,2003,2009,2011,
            Gaussian, Inc.  All Rights Reserved.
  
 This is part of the Gaussian(R) 09 program.  It is based on
 the Gaussian(R) 03 system (copyright 2003, Gaussian, Inc.),
 the Gaussian(R) 98 system (copyright 1998, Gaussian, Inc.),
 the Gaussian(R) 94 system (copyright 1995, Gaussian, Inc.),
 the Gaussian 92(TM) system (copyright 1992, Gaussian, Inc.),
 the Gaussian 90(TM) system (copyright 1990, Gaussian, Inc.),
 the Gaussian 88(TM) system (copyright 1988, Gaussian, Inc.),
 the Gaussian 86(TM) system (copyright 1986, Carnegie Mellon
 University), and the Gaussian 82(TM) system (copyright 1983,
 Carnegie Mellon University). Gaussian is a federally registered
 trademark of Gaussian, Inc.
  
 This software contains proprietary and confidential information,
 including trade secrets, belonging to Gaussian, Inc.
  
 This software is provided under written license and may be
 used, copied, transmitted, or stored only in accord with that
 written license.
  
 The following legend is applicable only to US Government
 contracts under FAR:
  
                    RESTRICTED RIGHTS LEGEND
  
 Use, reproduction and disclosure by the US Government is
 subject to restrictions as set forth in subparagraphs (a)
 and (c) of the Commercial Computer Software - Restricted
 Rights clause in FAR 52.227-19.
  
 Gaussian, Inc.
 340 Quinnipiac St., Bldg. 40, Wallingford CT 06492
  
  
 ---------------------------------------------------------------
 Warning -- This program may not be used in any manner that
 competes with the business of Gaussian, Inc. or will provide
 assistance to any competitor of Gaussian, Inc.  The licensee
 of this program is prohibited from giving any competitor of
 Gaussian, Inc. access to this program.  By using this program,
 the user acknowledges that Gaussian, Inc. is engaged in the
 business of creating and licensing software in the field of
 computational chemistry and represents and warrants to the
 licensee that it is not a competitor of Gaussian, Inc. and that
 it will not use this program in any manner prohibited above.
 ---------------------------------------------------------------
  

 Cite this work as:
 Gaussian 09, Revision C.01,
 M. J. Frisch, G. W. Trucks, H. B. Schlegel, G. E. Scuseria, 
 M. A. Robb, J. R. Cheeseman, G. Scalmani, V. Barone, B. Mennucci, 
 G. A. Petersson, H. Nakatsuji, M. Caricato, X. Li, H. P. Hratchian, 
 A. F. Izmaylov, J. Bloino, G. Zheng, J. L. Sonnenberg, M. Hada, 
 M. Ehara, K. Toyota, R. Fukuda, J. Hasegawa, M. Ishida, T. Nakajima, 
 Y. Honda, O. Kitao, H. Nakai, T. Vreven, J. A. Montgomery, Jr., 
 J. E. Peralta, F. Ogliaro, M. Bearpark, J. J. Heyd, E. Brothers, 
 K. N. Kudin, V. N. Staroverov, T. Keith, R. Kobayashi, J. Normand, 
 K. Raghavachari, A. Rendell, J. C. Burant, S. S. Iyengar, J. Tomasi, 
 M. Cossi, N. Rega, J. M. Millam, M. Klene, J. E. Knox, J. B. Cross, 
 V. Bakken, C. Adamo, J. Jaramillo, R. Gomperts, R. E. Stratmann, 
 O. Yazyev, A. J. Austin, R. Cammi, C. Pomelli, J. W. Ochterski, 
 R. L. Martin, K. Morokuma, V. G. Zakrzewski, G. A. Voth, 
 P. Salvador, J. J. Dannenberg, S. Dapprich, A. D. Daniels, 
 O. Farkas, J. B. Foresman, J. V. Ortiz, J. Cioslowski, 
 and D. J. Fox, Gaussian, Inc., Wallingford CT, 2010.
 
 ******************************************
 Gaussian 09:  EM64L-G09RevC.01 23-Sep-2011
                 8-May-2020 
 ******************************************
 %mem=8GB
 %nproc=8
 Will use up to    8 processors via shared memory.
 ----------------------------------------------------------------------
 #p lc-wpbe/aug-cc-PVTz iop(3/107=0550000000) iop(3/108=0550000000) int
 =ultrafine counterpoise=2 Scan
 ----------------------------------------------------------------------
 1/38=1,60=1,62=2/1,8;
 2/12=2,17=6,18=5,29=3,40=1/2;
 1/38=1,53=5172,62=2/22;
 3/5=16,6=1,7=10,11=2,16=1,25=1,30=1,74=-41,75=-5,107=550000000,108=550000000/1,2,3;
 4//1;
 5/5=2,38=5/2;
 6/7=2,8=2,9=2,10=2,18=1,28=1/1;
 1/53=4052,62=2,63=1/22;
 3/5=7,6=11,7=10,11=2,16=1,25=1,30=1,74=-41,75=-5,82=7,107=550000000,108=550000000/1,2,3;
 4//1;
 5/5=2,38=5/2;
 6/7=2,8=2,9=2,10=2,18=1,28=1/1;
 1/53=3042,62=2,63=2/22;
 3/5=7,6=11,7=10,11=2,16=1,25=1,30=1,74=-41,75=-5,82=7,107=550000000,108=550000000/1,2,3;
 4//1;
 5/5=2,38=5/2;
 6/7=2,8=2,9=2,10=2,18=1,28=1/1;
 1/53=2032,62=2,63=3/22;
 3/5=7,6=11,7=10,11=2,16=1,25=1,30=1,74=-41,75=-5,82=7,107=550000000,108=550000000/1,2,3;
 4//1;
 5/5=2,38=5/2;
 6/7=2,8=2,9=2,10=2,18=1,28=1/1;
 1/53=1022,62=2,63=4/22;
 3/5=7,6=11,7=10,11=2,16=1,25=1,30=1,74=-41,75=-5,82=7,107=550000000,108=550000000/1,2,3;
 4//1;
 5/5=2,38=5/2;
 6/7=2,8=2,9=2,10=2,18=1,28=1/1;
 1/53=5014,62=2,63=5/22;
 1/60=1,62=2/8(1);
 99/9=1/99;
 2/29=3/2;
 1/53=5173,62=2/22;
 3/5=7,6=11,7=10,11=2,16=1,25=1,30=1,74=-41,75=-5,82=7,107=550000000,108=550000000/1,2,3;
 4/5=5,16=3/1;
 5/5=2,38=5/2;
 1/53=4053,62=2,63=1/22;
 3/5=7,6=11,7=10,11=2,16=1,25=1,30=1,74=-41,75=-5,82=7,107=550000000,108=550000000/1,2,3;
 4/5=5,16=3/1;
 5/5=2,38=5/2;
 1/53=3043,62=2,63=2/22;
 3/5=7,6=11,7=10,11=2,16=1,25=1,30=1,74=-41,75=-5,82=7,107=550000000,108=550000000/1,2,3;
 4/5=5,16=3/1;
 5/5=2,38=5/2;
 1/53=2033,62=2,63=3/22;
 3/5=7,6=11,7=10,11=2,16=1,25=1,30=1,74=-41,75=-5,82=7,107=550000000,108=550000000/1,2,3;
 4/5=5,16=3/1;
 5/5=2,38=5/2;
 1/53=1024,62=2,63=4/22;
 3/5=7,6=11,7=10,11=2,16=1,25=1,30=1,74=-41,75=-5,82=7,107=550000000,108=550000000/1,2,3;
 4/5=5,16=3/1;
 5/5=2,38=5/2;
 1/53=5014,62=2,63=5/22;
 1/60=1,62=2/8(-22);
 99/9=1/99;
 Leave Link    1 at Fri May  8 12:25:13 2020, MaxMem= 1073741824 cpu:       0.2
 (Enter /home/matheus/.gaussian/g09/l101.exe)
 ---
 TCC
 ---
 Charge =  0 Multiplicity = 1 in supermolecule
 Charge =  0 Multiplicity = 1 in fragment  1.
 Charge =  0 Multiplicity = 1 in fragment  2.
 Symbolic Z-Matrix:
 O(Fragment=1)         0.        0.        0.725 
 O(Fragment=1)         0.        0.       -0.725 
 H(Fragment=1)         0.90476  -0.15953   1.02351 
 H(Fragment=1)         0.        0.91872  -1.02351 
 Kr(Fragment=2)        0.       R1        0. 
       Variables:
  R1                    3.     Scan 20    0.1    
 
 NAtoms=      5 NQM=        0 NQMF=       0 NMMI=      5 NMMIF=      0
                NMic=       0 NMicF=      0.
                    Isotopes and Nuclear Properties:
 (Nuclear quadrupole moments (NQMom) in fm**2, nuclear magnetic moments (NMagM)
  in nuclear magnetons)

  Atom         1           2           3           4           5
 IAtWgt=          16          16           1           1          84
 AtmWgt=  15.9949146  15.9949146   1.0078250   1.0078250  83.9115064
 NucSpn=           0           0           1           1           0
 AtZEff=   0.0000000   0.0000000   0.0000000   0.0000000   0.0000000
 NQMom=    0.0000000   0.0000000   0.0000000   0.0000000   0.0000000
 NMagM=    0.0000000   0.0000000   2.7928460   2.7928460   0.0000000
 Leave Link  101 at Fri May  8 12:25:13 2020, MaxMem= 1073741824 cpu:       0.4
 (Enter /home/matheus/.gaussian/g09/l108.exe)
 Scan the potential surface.
 Variable   Value     No. Steps Step-Size
 -------- ----------- --------- ---------
     1       3.000000      20      0.1000
 A total of     21 points will be computed.
 Leave Link  108 at Fri May  8 12:25:13 2020, MaxMem= 1073741824 cpu:       0.0
 (Enter /home/matheus/.gaussian/g09/l202.exe)
 ---------------------------------------------------------------------------------------------------
                            Z-MATRIX (ANGSTROMS AND DEGREES)
   CD    Cent   Atom    N1       Length/X        N2       Alpha/Y        N3        Beta/Z          J
 ---------------------------------------------------------------------------------------------------
      1      1  O        0   0.000000          0.000000          0.725000
      2      2  O        0   0.000000          0.000000         -0.725000
      3      3  H        0   0.904763         -0.159534          1.023510
      4      4  H        0   0.000000          0.918721         -1.023510
      5      5  Kr       0   0.000000          3.000000          0.000000
 ---------------------------------------------------------------------------------------------------
                         Z-Matrix orientation:                         
 ---------------------------------------------------------------------
 Center     Atomic      Atomic             Coordinates (Angstroms)
 Number     Number       Type             X           Y           Z
 ---------------------------------------------------------------------
      1          8           0        0.000000    0.000000    0.725000
      2          8           0        0.000000    0.000000   -0.725000
      3          1           0        0.904763   -0.159534    1.023510
      4          1           0        0.000000    0.918721   -1.023510
      5         36           0        0.000000    3.000000    0.000000
 ---------------------------------------------------------------------
                    Distance matrix (angstroms):
                    1          2          3          4          5
     1  O    0.000000
     2  O    1.450000   0.000000
     3  H    0.966000   1.975180   0.000000
     4  H    1.975180   0.966000   2.484255   0.000000
     5  Kr   3.086361   3.086361   3.442212   2.319331   0.000000
 Stoichiometry    H2KrO2
 Framework group  C1[X(H2KrO2)]
 Deg. of freedom     9
 Full point group                 C1      NOp   1
 Largest Abelian subgroup         C1      NOp   1
 Largest concise Abelian subgroup C1      NOp   1
                         Standard orientation:                         
 ---------------------------------------------------------------------
 Center     Atomic      Atomic             Coordinates (Angstroms)
 Number     Number       Type             X           Y           Z
 ---------------------------------------------------------------------
      1          8           0        2.021768   -0.693300   -0.118861
      2          8           0        2.004728    0.750466    0.014370
      3          1           0        2.201795   -1.071309    0.751687
      4          1           0        1.082725    1.035355    0.058021
      5         36           0       -0.986014   -0.011705    0.000728
 ---------------------------------------------------------------------
 Rotational constants (GHZ):     25.6313314      2.3378634      2.1561704
 Leave Link  202 at Fri May  8 12:25:13 2020, MaxMem= 1073741824 cpu:       0.0
 (Enter /home/matheus/.gaussian/g09/l122.exe)
 Leave Link  122 at Fri May  8 12:25:13 2020, MaxMem= 1073741824 cpu:       0.0
 (Enter /home/matheus/.gaussian/g09/l301.exe)
 Standard basis: Aug-CC-pVTZ (5D, 7F)
 Ernie: Thresh=  0.10000D-02 Tol=  0.10000D-05 Strict=F.
 Ernie:  38 primitive shells out of 205 were deleted.
 There are   197 symmetry adapted basis functions of A   symmetry.
 Integral buffers will be    131072 words long.
 Raffenetti 2 integral format.
 Two-electron integral symmetry is turned on.
   197 basis functions,   415 primitive gaussians,   229 cartesian basis functions
    27 alpha electrons       27 beta electrons
       nuclear repulsion energy       149.1283769891 Hartrees.
 IExCor=32609 DFT=T Ex+Corr=LC-wPBE ExCW=0 ScaHFX=  1.000000
 ScaDFX=  1.000000  0.000000  1.000000  1.000000 ScalE2=  1.000000  1.000000
 IRadAn=      5 IRanWt=     -1 IRanGd=            0 ICorTp=0
  HFx wShort=  0.000000 wLong=  0.550000 cFull=  0.000000 cShort=  0.000000 cLong=  1.000000
  DFx wShort=  0.000000 wLong=  0.550000 cFull=  0.000000 cShort=  0.000000 cLong=  1.000000
 NAtoms=    5 NActive=    5 NUniq=    5 SFac= 1.00D+00 NAtFMM=   60 NAOKFM=F Big=F
 Leave Link  301 at Fri May  8 12:25:13 2020, MaxMem= 1073741824 cpu:       0.2
 (Enter /home/matheus/.gaussian/g09/l302.exe)
 NPDir=0 NMtPBC=     1 NCelOv=     1 NCel=       1 NClECP=     1 NCelD=      1
         NCelK=      1 NCelE2=     1 NClLst=     1 CellRange=     0.0.
 One-electron integrals computed using PRISM.
 NBasis=   197 RedAO= T  NBF=   197
 NBsUse=   197 1.00D-06 NBFU=   197
 Precomputing XC quadrature grid using
 IXCGrd= 2 IRadAn=           5 IRanWt=          -1 IRanGd=           0 AccXCQ= 0.00D+00.
 NRdTot=     427 NPtTot=      123512 NUsed=      126579 NTot=      126611
 NSgBfM=   229   229   229   229   229 NAtAll=     5     5.
 Leave Link  302 at Fri May  8 12:25:13 2020, MaxMem= 1073741824 cpu:       1.1
 (Enter /home/matheus/.gaussian/g09/l303.exe)
 DipDrv:  MaxL=1.
 Leave Link  303 at Fri May  8 12:25:13 2020, MaxMem= 1073741824 cpu:       0.2
 (Enter /home/matheus/.gaussian/g09/l401.exe)
 Harris functional with IExCor=32609 diagonalized for initial guess.
 ExpMin= 2.53D-02 ExpMax= 1.17D+07 ExpMxC= 1.33D+04 IAcc=3 IRadAn=         5 AccDes= 0.00D+00
 HarFok:  IExCor=32609 AccDes= 0.00D+00 IRadAn=         5 IDoV= 1
 ScaDFX=  1.000000  1.000000  1.000000  1.000000
 FoFCou: FMM=F IPFlag=           0 FMFlag=      100000 FMFlg1=           0
         NFxFlg=           0 DoJE=T BraDBF=F KetDBF=T FulRan=T
         Omega=  0.000000  0.000000  1.000000  0.000000  0.000000 ICntrl=     500 IOpCl=  0
         NMat0=    1 NMatS0=    1 NMatT0=    0 NMatD0=    1 NMtDS0=    0 NMtDT0=    0
         I1Cent=           4 NGrid=           0.
 Petite list used in FoFCou.
 Harris En= -2904.73996631590    
 Initial guess orbital symmetries:
       Occupied  (A) (A) (A) (A) (A) (A) (A) (A) (A) (A) (A) (A)
                 (A) (A) (A) (A) (A) (A) (A) (A) (A) (A) (A) (A)
                 (A) (A) (A)
       Virtual   (A) (A) (A) (A) (A) (A) (A) (A) (A) (A) (A) (A)
                 (A) (A) (A) (A) (A) (A) (A) (A) (A) (A) (A) (A)
                 (A) (A) (A) (A) (A) (A) (A) (A) (A) (A) (A) (A)
                 (A) (A) (A) (A) (A) (A) (A) (A) (A) (A) (A) (A)
                 (A) (A) (A) (A) (A) (A) (A) (A) (A) (A) (A) (A)
                 (A) (A) (A) (A) (A) (A) (A) (A) (A) (A) (A) (A)
                 (A) (A) (A) (A) (A) (A) (A) (A) (A) (A) (A) (A)
                 (A) (A) (A) (A) (A) (A) (A) (A) (A) (A) (A) (A)
                 (A) (A) (A) (A) (A) (A) (A) (A) (A) (A) (A) (A)
                 (A) (A) (A) (A) (A) (A) (A) (A) (A) (A) (A) (A)
                 (A) (A) (A) (A) (A) (A) (A) (A) (A) (A) (A) (A)
                 (A) (A) (A) (A) (A) (A) (A) (A) (A) (A) (A) (A)
                 (A) (A) (A) (A) (A) (A) (A) (A) (A) (A) (A) (A)
                 (A) (A) (A) (A) (A) (A) (A) (A) (A) (A) (A) (A)
                 (A) (A)
 The electronic state of the initial guess is 1-A.
 Leave Link  401 at Fri May  8 12:25:14 2020, MaxMem= 1073741824 cpu:       4.9
 (Enter /home/matheus/.gaussian/g09/l502.exe)
 Closed shell SCF:
 Requested convergence on RMS density matrix=1.00D-08 within 128 cycles.
 Requested convergence on MAX density matrix=1.00D-06.
 Requested convergence on             energy=1.00D-06.
 No special actions if energy rises.
 Using DIIS extrapolation, IDIIS=  1040.
 Integral symmetry usage will be decided dynamically.
       126521 words used for storage of precomputed grid.
 IEnd=      305468 IEndB=      305468 NGot=  1073741824 MDV=  1073505667
 LenX=  1073505667 LenY=  1073452785
 Fock matrices will be formed incrementally for  20 cycles.

 Cycle   1  Pass 1  IDiag  1:
 FoFJK:  IHMeth= 1 ICntrl=     0 DoSepK=T KAlg= 1 I1Cent= 0 FoldK=F
 FoFCou: FMM=F IPFlag=           0 FMFlag=      100000 FMFlg1=           0
         NFxFlg=           0 DoJE=T BraDBF=F KetDBF=F FulRan=T
         Omega=  0.000000  0.000000  1.000000  0.000000  0.000000 ICntrl=     500 IOpCl=  0
         NMat0=    1 NMatS0=    1 NMatT0=    0 NMatD0=    1 NMtDS0=    0 NMtDT0=    0
         I1Cent=           0 NGrid=           0.
 Symmetry not used in FoFCou.
 E= -2904.93429941690    
 DIIS: error= 2.34D-02 at cycle   1 NSaved=   1.
 NSaved= 1 IEnMin= 1 EnMin= -2904.93429941690     IErMin= 1 ErrMin= 2.34D-02
 ErrMax= 2.34D-02 EMaxC= 1.00D-01 BMatC= 2.66D-01 BMatP= 2.66D-01
 IDIUse=3 WtCom= 7.66D-01 WtEn= 2.34D-01
 Coeff-Com:  0.100D+01
 Coeff-En:   0.100D+01
 Coeff:      0.100D+01
 Gap=     0.577 Goal=   None    Shift=    0.000
 GapD=    0.577 DampG=2.000 DampE=0.500 DampFc=1.0000 IDamp=-1.
 RMSDP=2.21D-03 MaxDP=1.43D-01              OVMax= 5.95D-02

 Cycle   2  Pass 1  IDiag  1:
 RMSU=  1.54D-03    CP:  1.02D+00
 FoFJK:  IHMeth= 1 ICntrl=     0 DoSepK=T KAlg= 1 I1Cent= 0 FoldK=F
 E= -2904.98414309763     Delta-E=       -0.049843680731 Rises=F Damp=F
 DIIS: error= 9.36D-03 at cycle   2 NSaved=   2.
 NSaved= 2 IEnMin= 2 EnMin= -2904.98414309763     IErMin= 2 ErrMin= 9.36D-03
 ErrMax= 9.36D-03 EMaxC= 1.00D-01 BMatC= 6.68D-02 BMatP= 2.66D-01
 IDIUse=3 WtCom= 9.06D-01 WtEn= 9.36D-02
 Coeff-Com:  0.326D+00 0.674D+00
 Coeff-En:   0.872D-01 0.913D+00
 Coeff:      0.304D+00 0.696D+00
 Gap=     0.502 Goal=   None    Shift=    0.000
 RMSDP=8.72D-04 MaxDP=4.96D-02 DE=-4.98D-02 OVMax= 2.49D-02

 Cycle   3  Pass 1  IDiag  1:
 RMSU=  3.09D-04    CP:  1.01D+00  6.64D-01
 FoFJK:  IHMeth= 1 ICntrl=     0 DoSepK=T KAlg= 1 I1Cent= 0 FoldK=F
 E= -2905.00677943328     Delta-E=       -0.022636335654 Rises=F Damp=F
 DIIS: error= 1.64D-03 at cycle   3 NSaved=   3.
 NSaved= 3 IEnMin= 3 EnMin= -2905.00677943328     IErMin= 3 ErrMin= 1.64D-03
 ErrMax= 1.64D-03 EMaxC= 1.00D-01 BMatC= 1.25D-03 BMatP= 6.68D-02
 IDIUse=3 WtCom= 9.84D-01 WtEn= 1.64D-02
 Coeff-Com:  0.392D-01 0.163D+00 0.797D+00
 Coeff-En:   0.000D+00 0.000D+00 0.100D+01
 Coeff:      0.386D-01 0.161D+00 0.801D+00
 Gap=     0.486 Goal=   None    Shift=    0.000
 RMSDP=9.56D-05 MaxDP=2.70D-03 DE=-2.26D-02 OVMax= 5.68D-03

 Cycle   4  Pass 1  IDiag  1:
 RMSU=  4.93D-05    CP:  1.01D+00  6.93D-01  9.58D-01
 FoFJK:  IHMeth= 1 ICntrl=     0 DoSepK=T KAlg= 1 I1Cent= 0 FoldK=F
 E= -2905.00740621377     Delta-E=       -0.000626780487 Rises=F Damp=F
 DIIS: error= 4.23D-04 at cycle   4 NSaved=   4.
 NSaved= 4 IEnMin= 4 EnMin= -2905.00740621377     IErMin= 4 ErrMin= 4.23D-04
 ErrMax= 4.23D-04 EMaxC= 1.00D-01 BMatC= 8.30D-05 BMatP= 1.25D-03
 IDIUse=3 WtCom= 9.96D-01 WtEn= 4.23D-03
 Coeff-Com: -0.587D-02 0.175D-01 0.270D+00 0.718D+00
 Coeff-En:   0.000D+00 0.000D+00 0.000D+00 0.100D+01
 Coeff:     -0.584D-02 0.174D-01 0.269D+00 0.719D+00
 Gap=     0.490 Goal=   None    Shift=    0.000
 RMSDP=3.08D-05 MaxDP=1.86D-03 DE=-6.27D-04 OVMax= 1.71D-03

 Cycle   5  Pass 1  IDiag  1:
 RMSU=  1.28D-05    CP:  1.01D+00  6.96D-01  1.01D+00  8.70D-01
 FoFJK:  IHMeth= 1 ICntrl=     0 DoSepK=T KAlg= 1 I1Cent= 0 FoldK=F
 E= -2905.00745693769     Delta-E=       -0.000050723922 Rises=F Damp=F
 DIIS: error= 7.30D-05 at cycle   5 NSaved=   5.
 NSaved= 5 IEnMin= 5 EnMin= -2905.00745693769     IErMin= 5 ErrMin= 7.30D-05
 ErrMax= 7.30D-05 EMaxC= 1.00D-01 BMatC= 2.63D-06 BMatP= 8.30D-05
 IDIUse=1 WtCom= 1.00D+00 WtEn= 0.00D+00
 Coeff-Com: -0.251D-02-0.482D-02 0.403D-02 0.125D+00 0.878D+00
 Coeff:     -0.251D-02-0.482D-02 0.403D-02 0.125D+00 0.878D+00
 Gap=     0.490 Goal=   None    Shift=    0.000
 RMSDP=7.27D-06 MaxDP=2.33D-04 DE=-5.07D-05 OVMax= 5.00D-04

 Cycle   6  Pass 1  IDiag  1:
 RMSU=  3.77D-06    CP:  1.01D+00  6.96D-01  1.01D+00  9.30D-01  1.09D+00
 FoFJK:  IHMeth= 1 ICntrl=     0 DoSepK=T KAlg= 1 I1Cent= 0 FoldK=F
 E= -2905.00745915231     Delta-E=       -0.000002214619 Rises=F Damp=F
 DIIS: error= 4.02D-05 at cycle   6 NSaved=   6.
 NSaved= 6 IEnMin= 6 EnMin= -2905.00745915231     IErMin= 6 ErrMin= 4.02D-05
 ErrMax= 4.02D-05 EMaxC= 1.00D-01 BMatC= 8.32D-07 BMatP= 2.63D-06
 IDIUse=1 WtCom= 1.00D+00 WtEn= 0.00D+00
 Coeff-Com: -0.425D-03-0.425D-02-0.300D-01-0.246D-01 0.383D+00 0.677D+00
 Coeff:     -0.425D-03-0.425D-02-0.300D-01-0.246D-01 0.383D+00 0.677D+00
 Gap=     0.490 Goal=   None    Shift=    0.000
 RMSDP=3.27D-06 MaxDP=1.48D-04 DE=-2.21D-06 OVMax= 2.14D-04

 Cycle   7  Pass 1  IDiag  1:
 RMSU=  1.53D-06    CP:  1.01D+00  6.96D-01  1.01D+00  9.48D-01  1.19D+00
                    CP:  8.72D-01
 FoFJK:  IHMeth= 1 ICntrl=     0 DoSepK=T KAlg= 1 I1Cent= 0 FoldK=F
 E= -2905.00745981091     Delta-E=       -0.000000658597 Rises=F Damp=F
 DIIS: error= 1.33D-05 at cycle   7 NSaved=   7.
 NSaved= 7 IEnMin= 7 EnMin= -2905.00745981091     IErMin= 7 ErrMin= 1.33D-05
 ErrMax= 1.33D-05 EMaxC= 1.00D-01 BMatC= 6.27D-08 BMatP= 8.32D-07
 IDIUse=1 WtCom= 1.00D+00 WtEn= 0.00D+00
 Coeff-Com:  0.127D-03-0.748D-03-0.921D-02-0.211D-01-0.245D-02 0.213D+00
 Coeff-Com:  0.820D+00
 Coeff:      0.127D-03-0.748D-03-0.921D-02-0.211D-01-0.245D-02 0.213D+00
 Coeff:      0.820D+00
 Gap=     0.490 Goal=   None    Shift=    0.000
 RMSDP=1.26D-06 MaxDP=5.84D-05 DE=-6.59D-07 OVMax= 9.11D-05

 Cycle   8  Pass 1  IDiag  1:
 RMSU=  4.67D-07    CP:  1.01D+00  6.96D-01  1.01D+00  9.54D-01  1.23D+00
                    CP:  9.92D-01  9.97D-01
 FoFJK:  IHMeth= 1 ICntrl=     0 DoSepK=T KAlg= 1 I1Cent= 0 FoldK=F
 E= -2905.00745987004     Delta-E=       -0.000000059131 Rises=F Damp=F
 DIIS: error= 2.75D-06 at cycle   8 NSaved=   8.
 NSaved= 8 IEnMin= 8 EnMin= -2905.00745987004     IErMin= 8 ErrMin= 2.75D-06
 ErrMax= 2.75D-06 EMaxC= 1.00D-01 BMatC= 2.27D-09 BMatP= 6.27D-08
 IDIUse=1 WtCom= 1.00D+00 WtEn= 0.00D+00
 Coeff-Com:  0.150D-04 0.471D-03 0.394D-02 0.578D-02-0.267D-01-0.952D-01
 Coeff-Com: -0.177D+00 0.129D+01
 Coeff:      0.150D-04 0.471D-03 0.394D-02 0.578D-02-0.267D-01-0.952D-01
 Coeff:     -0.177D+00 0.129D+01
 Gap=     0.490 Goal=   None    Shift=    0.000
 RMSDP=5.63D-07 MaxDP=1.80D-05 DE=-5.91D-08 OVMax= 4.84D-05

 Cycle   9  Pass 1  IDiag  1:
 RMSU=  1.21D-07    CP:  1.01D+00  6.96D-01  1.02D+00  9.56D-01  1.24D+00
                    CP:  1.01D+00  1.08D+00  1.57D+00
 FoFJK:  IHMeth= 1 ICntrl=     0 DoSepK=T KAlg= 1 I1Cent= 0 FoldK=F
 E= -2905.00745987823     Delta-E=       -0.000000008189 Rises=F Damp=F
 DIIS: error= 8.04D-07 at cycle   9 NSaved=   9.
 NSaved= 9 IEnMin= 9 EnMin= -2905.00745987823     IErMin= 9 ErrMin= 8.04D-07
 ErrMax= 8.04D-07 EMaxC= 1.00D-01 BMatC= 1.18D-10 BMatP= 2.27D-09
 IDIUse=1 WtCom= 1.00D+00 WtEn= 0.00D+00
 Coeff-Com: -0.934D-05-0.468D-04-0.250D-03-0.480D-04 0.486D-02 0.625D-02
 Coeff-Com: -0.954D-02-0.210D+00 0.121D+01
 Coeff:     -0.934D-05-0.468D-04-0.250D-03-0.480D-04 0.486D-02 0.625D-02
 Coeff:     -0.954D-02-0.210D+00 0.121D+01
 Gap=     0.490 Goal=   None    Shift=    0.000
 RMSDP=1.60D-07 MaxDP=6.64D-06 DE=-8.19D-09 OVMax= 1.72D-05

 Cycle  10  Pass 1  IDiag  1:
 RMSU=  3.88D-08    CP:  1.01D+00  6.96D-01  1.02D+00  9.56D-01  1.24D+00
                    CP:  1.01D+00  1.08D+00  1.72D+00  1.43D+00
 FoFJK:  IHMeth= 1 ICntrl=     0 DoSepK=T KAlg= 1 I1Cent= 0 FoldK=F
 E= -2905.00745987875     Delta-E=       -0.000000000519 Rises=F Damp=F
 DIIS: error= 3.05D-07 at cycle  10 NSaved=  10.
 NSaved=10 IEnMin=10 EnMin= -2905.00745987875     IErMin=10 ErrMin= 3.05D-07
 ErrMax= 3.05D-07 EMaxC= 1.00D-01 BMatC= 1.75D-11 BMatP= 1.18D-10
 IDIUse=1 WtCom= 1.00D+00 WtEn= 0.00D+00
 Coeff-Com: -0.720D-07-0.332D-04-0.292D-03-0.556D-03 0.175D-02 0.798D-02
 Coeff-Com:  0.171D-01-0.977D-01-0.134D+00 0.121D+01
 Coeff:     -0.720D-07-0.332D-04-0.292D-03-0.556D-03 0.175D-02 0.798D-02
 Coeff:      0.171D-01-0.977D-01-0.134D+00 0.121D+01
 Gap=     0.490 Goal=   None    Shift=    0.000
 RMSDP=6.01D-08 MaxDP=1.91D-06 DE=-5.19D-10 OVMax= 7.88D-06

 Cycle  11  Pass 1  IDiag  1:
 RMSU=  1.23D-08    CP:  1.01D+00  6.96D-01  1.02D+00  9.56D-01  1.24D+00
                    CP:  1.01D+00  1.08D+00  1.77D+00  1.61D+00  1.52D+00
 FoFJK:  IHMeth= 1 ICntrl=     0 DoSepK=T KAlg= 1 I1Cent= 0 FoldK=F
 E= -2905.00745987976     Delta-E=       -0.000000001014 Rises=F Damp=F
 DIIS: error= 7.71D-08 at cycle  11 NSaved=  11.
 NSaved=11 IEnMin=11 EnMin= -2905.00745987976     IErMin=11 ErrMin= 7.71D-08
 ErrMax= 7.71D-08 EMaxC= 1.00D-01 BMatC= 2.17D-12 BMatP= 1.75D-11
 IDIUse=1 WtCom= 1.00D+00 WtEn= 0.00D+00
 Coeff-Com:  0.122D-05 0.113D-04 0.823D-04 0.799D-04-0.100D-02-0.187D-02
 Coeff-Com: -0.298D-03 0.419D-01-0.153D+00-0.153D+00 0.127D+01
 Coeff:      0.122D-05 0.113D-04 0.823D-04 0.799D-04-0.100D-02-0.187D-02
 Coeff:     -0.298D-03 0.419D-01-0.153D+00-0.153D+00 0.127D+01
 Gap=     0.490 Goal=   None    Shift=    0.000
 RMSDP=2.19D-08 MaxDP=4.41D-07 DE=-1.01D-09 OVMax= 3.35D-06

 Cycle  12  Pass 1  IDiag  1:
 RMSU=  4.07D-09    CP:  1.01D+00  6.96D-01  1.02D+00  9.56D-01  1.24D+00
                    CP:  1.01D+00  1.08D+00  1.78D+00  1.66D+00  1.79D+00
                    CP:  1.51D+00
 FoFJK:  IHMeth= 1 ICntrl=     0 DoSepK=T KAlg= 1 I1Cent= 0 FoldK=F
 E= -2905.00745987977     Delta-E=       -0.000000000010 Rises=F Damp=F
 DIIS: error= 2.23D-08 at cycle  12 NSaved=  12.
 NSaved=12 IEnMin=12 EnMin= -2905.00745987977     IErMin=12 ErrMin= 2.23D-08
 ErrMax= 2.23D-08 EMaxC= 1.00D-01 BMatC= 1.68D-13 BMatP= 2.17D-12
 IDIUse=1 WtCom= 1.00D+00 WtEn= 0.00D+00
 Coeff-Com: -0.671D-07 0.362D-05 0.328D-04 0.707D-04-0.223D-03-0.949D-03
 Coeff-Com: -0.181D-02 0.117D-01 0.156D-01-0.120D+00-0.184D-01 0.111D+01
 Coeff:     -0.671D-07 0.362D-05 0.328D-04 0.707D-04-0.223D-03-0.949D-03
 Coeff:     -0.181D-02 0.117D-01 0.156D-01-0.120D+00-0.184D-01 0.111D+01
 Gap=     0.490 Goal=   None    Shift=    0.000
 RMSDP=5.01D-09 MaxDP=1.25D-07 DE=-1.00D-11 OVMax= 6.94D-07

 SCF Done:  E(RLC-wPBE) =  -2905.00745988     A.U. after   12 cycles
             Convg  =    0.5007D-08             -V/T =  2.0017
 KE= 2.900036816256D+03 PE=-7.235186963363D+03 EE= 1.281014310238D+03
 Leave Link  502 at Fri May  8 12:26:05 2020, MaxMem= 1073741824 cpu:     402.9
 (Enter /home/matheus/.gaussian/g09/l601.exe)
 Copying SCF densities to generalized density rwf, IOpCl= 0 IROHF=0.

 **********************************************************************

            Population analysis using the SCF density.

 **********************************************************************

 Orbital symmetries:
       Occupied  (A) (A) (A) (A) (A) (A) (A) (A) (A) (A) (A) (A)
                 (A) (A) (A) (A) (A) (A) (A) (A) (A) (A) (A) (A)
                 (A) (A) (A)
       Virtual   (A) (A) (A) (A) (A) (A) (A) (A) (A) (A) (A) (A)
                 (A) (A) (A) (A) (A) (A) (A) (A) (A) (A) (A) (A)
                 (A) (A) (A) (A) (A) (A) (A) (A) (A) (A) (A) (A)
                 (A) (A) (A) (A) (A) (A) (A) (A) (A) (A) (A) (A)
                 (A) (A) (A) (A) (A) (A) (A) (A) (A) (A) (A) (A)
                 (A) (A) (A) (A) (A) (A) (A) (A) (A) (A) (A) (A)
                 (A) (A) (A) (A) (A) (A) (A) (A) (A) (A) (A) (A)
                 (A) (A) (A) (A) (A) (A) (A) (A) (A) (A) (A) (A)
                 (A) (A) (A) (A) (A) (A) (A) (A) (A) (A) (A) (A)
                 (A) (A) (A) (A) (A) (A) (A) (A) (A) (A) (A) (A)
                 (A) (A) (A) (A) (A) (A) (A) (A) (A) (A) (A) (A)
                 (A) (A) (A) (A) (A) (A) (A) (A) (A) (A) (A) (A)
                 (A) (A) (A) (A) (A) (A) (A) (A) (A) (A) (A) (A)
                 (A) (A) (A) (A) (A) (A) (A) (A) (A) (A) (A) (A)
                 (A) (A)
 The electronic state is 1-A.
 Alpha  occ. eigenvalues -- -511.19912 -66.74752 -60.40871 -60.40855 -60.40844
 Alpha  occ. eigenvalues --  -19.11350 -19.11015  -9.68324  -7.42617  -7.42567
 Alpha  occ. eigenvalues --   -7.42538  -3.37018  -3.37009  -3.36988  -3.36951
 Alpha  occ. eigenvalues --   -3.36948  -1.32154  -1.10570  -1.09383  -0.71993
 Alpha  occ. eigenvalues --   -0.65331  -0.58814  -0.54433  -0.54037  -0.53225
 Alpha  occ. eigenvalues --   -0.46803  -0.45720
 Alpha virt. eigenvalues --    0.03239   0.04273   0.08505   0.09700   0.11221
 Alpha virt. eigenvalues --    0.11429   0.13968   0.14085   0.17214   0.18082
 Alpha virt. eigenvalues --    0.18639   0.20478   0.20777   0.22560   0.24282
 Alpha virt. eigenvalues --    0.25316   0.26759   0.29159   0.32118   0.33547
 Alpha virt. eigenvalues --    0.34487   0.36022   0.37164   0.39677   0.40351
 Alpha virt. eigenvalues --    0.41692   0.44066   0.48809   0.54050   0.56590
 Alpha virt. eigenvalues --    0.57312   0.61404   0.62989   0.66645   0.70186
 Alpha virt. eigenvalues --    0.72111   0.73545   0.75052   0.77507   0.77723
 Alpha virt. eigenvalues --    0.78762   0.79135   0.80343   0.81980   0.84902
 Alpha virt. eigenvalues --    0.86718   0.88356   0.90463   0.91299   0.92358
 Alpha virt. eigenvalues --    0.94308   0.95503   0.96298   0.97837   1.01057
 Alpha virt. eigenvalues --    1.02782   1.05345   1.08133   1.08400   1.10613
 Alpha virt. eigenvalues --    1.11961   1.18134   1.20232   1.22337   1.24765
 Alpha virt. eigenvalues --    1.27353   1.31274   1.37440   1.39914   1.43618
 Alpha virt. eigenvalues --    1.47166   1.51992   1.53564   1.55704   1.61521
 Alpha virt. eigenvalues --    1.70970   1.74846   1.85632   1.93735   1.98294
 Alpha virt. eigenvalues --    2.01751   2.06174   2.10446   2.15514   2.18397
 Alpha virt. eigenvalues --    2.20663   2.21038   2.22140   2.26155   2.30238
 Alpha virt. eigenvalues --    2.31833   2.33454   2.35549   2.36037   2.37650
 Alpha virt. eigenvalues --    2.42331   2.43978   2.47603   2.49414   2.51415
 Alpha virt. eigenvalues --    2.53804   2.53963   2.57185   2.60023   2.61846
 Alpha virt. eigenvalues --    2.63798   2.66264   2.68514   2.73891   2.74360
 Alpha virt. eigenvalues --    2.77738   2.79872   2.81883   2.89354   2.91537
 Alpha virt. eigenvalues --    2.97515   3.08915   3.15206   3.18412   3.65301
 Alpha virt. eigenvalues --    3.69689   3.93535   3.96924   4.05053   4.13594
 Alpha virt. eigenvalues --    4.18394   4.23907   4.26727   4.29455   4.31139
 Alpha virt. eigenvalues --    4.38512   4.52885   4.56040   4.59698   4.71992
 Alpha virt. eigenvalues --    4.93908   5.00873   5.04402   5.19622   5.20343
 Alpha virt. eigenvalues --    5.25740   5.47933   5.88602   6.09354   6.17440
 Alpha virt. eigenvalues --    6.21905   6.34313   6.36250   6.50579   6.55646
 Alpha virt. eigenvalues --    6.62144   6.82432   6.83932   6.85037   6.87905
 Alpha virt. eigenvalues --    6.91703   6.93238   6.94562   7.02419   7.04992
 Alpha virt. eigenvalues --    7.11513   7.18576   7.28136   7.49232   7.68276
 Alpha virt. eigenvalues --    7.84214   8.13089   8.16129  13.99758  14.63801
          Condensed to atoms (all electrons):
              1          2          3          4          5
     1  O    8.223686  -0.194214   0.206677   0.000279  -0.026613
     2  O   -0.194214   8.240351   0.010339   0.200033  -0.010556
     3  H    0.206677   0.010339   0.565220   0.001568  -0.000400
     4  H    0.000279   0.200033   0.001568   0.577902  -0.013690
     5  Kr  -0.026613  -0.010556  -0.000400  -0.013690  36.045992
 Mulliken atomic charges:
              1
     1  O   -0.209816
     2  O   -0.245954
     3  H    0.216595
     4  H    0.233907
     5  Kr   0.005267
 Sum of Mulliken atomic charges =   0.00000
 Mulliken charges with hydrogens summed into heavy atoms:
              1
     1  O    0.006780
     2  O   -0.012047
     5  Kr   0.005267
 Sum of Mulliken charges with hydrogens summed into heavy atoms =   0.00000
          Condensed to fragments (all electrons):
     1      -0.005267
     2       0.005267
 Electronic spatial extent (au):  <R**2>=            485.2932
 Charge=              0.0000 electrons
 Dipole moment (field-independent basis, Debye):
    X=             -1.5053    Y=             -0.4107    Z=              1.5343  Tot=              2.1883
 Quadrupole moment (field-independent basis, Debye-Ang):
   XX=            -33.4928   YY=            -27.7657   ZZ=            -28.8750
   XY=             -2.7126   XZ=              3.6161   YZ=             -1.8552
 Traceless Quadrupole moment (field-independent basis, Debye-Ang):
   XX=             -3.4483   YY=              2.2788   ZZ=              1.1695
   XY=             -2.7126   XZ=              3.6161   YZ=             -1.8552
 Octapole moment (field-independent basis, Debye-Ang**2):
  XXX=            -30.3995  YYY=             -1.1249  ZZZ=              1.2911  XYY=             -4.8209
  XXY=             -9.0143  XXZ=              7.9361  XZZ=             -5.1781  YZZ=             -1.8626
  YYZ=              2.3349  XYZ=             -4.2841
 Hexadecapole moment (field-independent basis, Debye-Ang**3):
 XXXX=           -439.5700 YYYY=            -62.2945 ZZZZ=            -29.0337 XXXY=            -21.3098
 XXXZ=             18.9402 YYYX=             -4.9170 YYYZ=             -2.7115 ZZZX=              3.3878
 ZZZY=             -2.0013 XXYY=            -78.8685 XXZZ=            -70.7412 YYZZ=            -15.6396
 XXYZ=             -9.9570 YYXZ=              5.1702 ZZXY=             -3.8352
 N-N= 1.491283769891D+02 E-N=-7.235186962346D+03  KE= 2.900036816256D+03
 No NMR shielding tensors so no spin-rotation constants.
 Leave Link  601 at Fri May  8 12:26:05 2020, MaxMem= 1073741824 cpu:       0.8
 (Enter /home/matheus/.gaussian/g09/l122.exe)
 Counterpoise: doing DCBS calculation for fragment   1 NewBq=T
 Leave Link  122 at Fri May  8 12:26:05 2020, MaxMem= 1073741824 cpu:       0.0
 (Enter /home/matheus/.gaussian/g09/l301.exe)
 Basis read from rwf:  (5D, 7F)
 No pseudopotential information found on rwf file.
 There are   197 symmetry adapted basis functions of A   symmetry.
 Integral buffers will be    131072 words long.
 Raffenetti 2 integral format.
 Two-electron integral symmetry is turned on.
   197 basis functions,   415 primitive gaussians,   229 cartesian basis functions
     9 alpha electrons        9 beta electrons
       nuclear repulsion energy        36.6212539076 Hartrees.
 IExCor=32609 DFT=T Ex+Corr=LC-wPBE ExCW=0 ScaHFX=  1.000000
 ScaDFX=  1.000000  0.000000  1.000000  1.000000 ScalE2=  1.000000  1.000000
 IRadAn=      5 IRanWt=     -1 IRanGd=            0 ICorTp=0
  HFx wShort=  0.000000 wLong=  0.550000 cFull=  0.000000 cShort=  0.000000 cLong=  1.000000
  DFx wShort=  0.000000 wLong=  0.550000 cFull=  0.000000 cShort=  0.000000 cLong=  1.000000
 NAtoms=    5 NActive=    5 NUniq=    5 SFac= 1.00D+00 NAtFMM=   60 NAOKFM=F Big=F
 No density basis found on file   718.
 Leave Link  301 at Fri May  8 12:26:05 2020, MaxMem= 1073741824 cpu:       0.2
 (Enter /home/matheus/.gaussian/g09/l302.exe)
 NPDir=0 NMtPBC=     1 NCelOv=     1 NCel=       1 NClECP=     1 NCelD=      1
         NCelK=      1 NCelE2=     1 NClLst=     1 CellRange=     0.0.
 One-electron integrals computed using PRISM.
 NBasis=   197 RedAO= T  NBF=   197
 NBsUse=   197 1.00D-06 NBFU=   197
 Precomputing XC quadrature grid using
 IXCGrd= 2 IRadAn=           5 IRanWt=          -1 IRanGd=           0 AccXCQ= 0.00D+00.
 NRdTot=     427 NPtTot=      123512 NUsed=      126579 NTot=      126611
 NSgBfM=   229   229   229   229   229 NAtAll=     5     5.
 Leave Link  302 at Fri May  8 12:26:05 2020, MaxMem= 1073741824 cpu:       1.2
 (Enter /home/matheus/.gaussian/g09/l303.exe)
 DipDrv:  MaxL=1.
 Leave Link  303 at Fri May  8 12:26:05 2020, MaxMem= 1073741824 cpu:       0.2
 (Enter /home/matheus/.gaussian/g09/l401.exe)
 Harris functional with IExCor=32609 diagonalized for initial guess.
 ExpMin= 2.53D-02 ExpMax= 1.17D+07 ExpMxC= 1.33D+04 IAcc=3 IRadAn=         5 AccDes= 0.00D+00
 HarFok:  IExCor=32609 AccDes= 0.00D+00 IRadAn=         5 IDoV= 1
 ScaDFX=  1.000000  1.000000  1.000000  1.000000
 FoFCou: FMM=F IPFlag=           0 FMFlag=      100000 FMFlg1=           0
         NFxFlg=           0 DoJE=T BraDBF=F KetDBF=T FulRan=T
         Omega=  0.000000  0.000000  1.000000  0.000000  0.000000 ICntrl=     500 IOpCl=  0
         NMat0=    1 NMatS0=    1 NMatT0=    0 NMatD0=    1 NMtDS0=    0 NMtDT0=    0
         I1Cent=           4 NGrid=           0.
 Petite list used in FoFCou.
 Harris En= -151.502736849915    
 Initial guess orbital symmetries:
       Occupied  (A) (A) (A) (A) (A) (A) (A) (A) (A)
       Virtual   (A) (A) (A) (A) (A) (A) (A) (A) (A) (A) (A) (A)
                 (A) (A) (A) (A) (A) (A) (A) (A) (A) (A) (A) (A)
                 (A) (A) (A) (A) (A) (A) (A) (A) (A) (A) (A) (A)
                 (A) (A) (A) (A) (A) (A) (A) (A) (A) (A) (A) (A)
                 (A) (A) (A) (A) (A) (A) (A) (A) (A) (A) (A) (A)
                 (A) (A) (A) (A) (A) (A) (A) (A) (A) (A) (A) (A)
                 (A) (A) (A) (A) (A) (A) (A) (A) (A) (A) (A) (A)
                 (A) (A) (A) (A) (A) (A) (A) (A) (A) (A) (A) (A)
                 (A) (A) (A) (A) (A) (A) (A) (A) (A) (A) (A) (A)
                 (A) (A) (A) (A) (A) (A) (A) (A) (A) (A) (A) (A)
                 (A) (A) (A) (A) (A) (A) (A) (A) (A) (A) (A) (A)
                 (A) (A) (A) (A) (A) (A) (A) (A) (A) (A) (A) (A)
                 (A) (A) (A) (A) (A) (A) (A) (A) (A) (A) (A) (A)
                 (A) (A) (A) (A) (A) (A) (A) (A) (A) (A) (A) (A)
                 (A) (A) (A) (A) (A) (A) (A) (A) (A) (A) (A) (A)
                 (A) (A) (A) (A) (A) (A) (A) (A)
 The electronic state of the initial guess is 1-A.
 Leave Link  401 at Fri May  8 12:26:06 2020, MaxMem= 1073741824 cpu:       5.3
 (Enter /home/matheus/.gaussian/g09/l502.exe)
 Closed shell SCF:
 Requested convergence on RMS density matrix=1.00D-08 within 128 cycles.
 Requested convergence on MAX density matrix=1.00D-06.
 Requested convergence on             energy=1.00D-06.
 No special actions if energy rises.
 Using DIIS extrapolation, IDIIS=  1040.
 Integral symmetry usage will be decided dynamically.
       126521 words used for storage of precomputed grid.
 IEnd=      305468 IEndB=      305468 NGot=  1073741824 MDV=  1073505667
 LenX=  1073505667 LenY=  1073452785
 Fock matrices will be formed incrementally for  20 cycles.

 Cycle   1  Pass 1  IDiag  1:
 FoFJK:  IHMeth= 1 ICntrl=     0 DoSepK=T KAlg= 1 I1Cent= 0 FoldK=F
 FoFCou: FMM=F IPFlag=           0 FMFlag=      100000 FMFlg1=           0
         NFxFlg=           0 DoJE=T BraDBF=F KetDBF=F FulRan=T
         Omega=  0.000000  0.000000  1.000000  0.000000  0.000000 ICntrl=     500 IOpCl=  0
         NMat0=    1 NMatS0=    1 NMatT0=    0 NMatD0=    1 NMtDS0=    0 NMtDT0=    0
         I1Cent=           0 NGrid=           0.
 Symmetry not used in FoFCou.
 E= -151.508826261432    
 DIIS: error= 1.37D-02 at cycle   1 NSaved=   1.
 NSaved= 1 IEnMin= 1 EnMin= -151.508826261432     IErMin= 1 ErrMin= 1.37D-02
 ErrMax= 1.37D-02 EMaxC= 1.00D-01 BMatC= 4.05D-02 BMatP= 4.05D-02
 IDIUse=3 WtCom= 8.63D-01 WtEn= 1.37D-01
 Coeff-Com:  0.100D+01
 Coeff-En:   0.100D+01
 Coeff:      0.100D+01
 Gap=     0.577 Goal=   None    Shift=    0.000
 GapD=    0.577 DampG=2.000 DampE=0.500 DampFc=1.0000 IDamp=-1.
 RMSDP=7.30D-04 MaxDP=2.28D-02              OVMax= 5.17D-02

 Cycle   2  Pass 1  IDiag  1:
 RMSU=  5.10D-04    CP:  9.89D-01
 FoFJK:  IHMeth= 1 ICntrl=     0 DoSepK=T KAlg= 1 I1Cent= 0 FoldK=F
 E= -151.525104733205     Delta-E=       -0.016278471773 Rises=F Damp=F
 DIIS: error= 8.28D-03 at cycle   2 NSaved=   2.
 NSaved= 2 IEnMin= 2 EnMin= -151.525104733205     IErMin= 2 ErrMin= 8.28D-03
 ErrMax= 8.28D-03 EMaxC= 1.00D-01 BMatC= 1.58D-02 BMatP= 4.05D-02
 IDIUse=3 WtCom= 9.17D-01 WtEn= 8.28D-02
 Coeff-Com:  0.371D+00 0.629D+00
 Coeff-En:   0.118D+00 0.882D+00
 Coeff:      0.350D+00 0.650D+00
 Gap=     0.493 Goal=   None    Shift=    0.000
 RMSDP=4.10D-04 MaxDP=2.28D-02 DE=-1.63D-02 OVMax= 2.26D-02

 Cycle   3  Pass 1  IDiag  1:
 RMSU=  2.44D-04    CP:  9.84D-01  7.00D-01
 FoFJK:  IHMeth= 1 ICntrl=     0 DoSepK=T KAlg= 1 I1Cent= 0 FoldK=F
 E= -151.534001250399     Delta-E=       -0.008896517194 Rises=F Damp=F
 DIIS: error= 1.35D-03 at cycle   3 NSaved=   3.
 NSaved= 3 IEnMin= 3 EnMin= -151.534001250399     IErMin= 3 ErrMin= 1.35D-03
 ErrMax= 1.35D-03 EMaxC= 1.00D-01 BMatC= 3.94D-04 BMatP= 1.58D-02
 IDIUse=3 WtCom= 9.86D-01 WtEn= 1.35D-02
 Coeff-Com:  0.399D-01 0.156D+00 0.804D+00
 Coeff-En:   0.000D+00 0.000D+00 0.100D+01
 Coeff:      0.393D-01 0.154D+00 0.806D+00
 Gap=     0.485 Goal=   None    Shift=    0.000
 RMSDP=5.63D-05 MaxDP=2.16D-03 DE=-8.90D-03 OVMax= 4.07D-03

 Cycle   4  Pass 1  IDiag  1:
 RMSU=  2.77D-05    CP:  9.82D-01  7.49D-01  1.03D+00
 FoFJK:  IHMeth= 1 ICntrl=     0 DoSepK=T KAlg= 1 I1Cent= 0 FoldK=F
 E= -151.534252836386     Delta-E=       -0.000251585987 Rises=F Damp=F
 DIIS: error= 1.65D-04 at cycle   4 NSaved=   4.
 NSaved= 4 IEnMin= 4 EnMin= -151.534252836386     IErMin= 4 ErrMin= 1.65D-04
 ErrMax= 1.65D-04 EMaxC= 1.00D-01 BMatC= 9.55D-06 BMatP= 3.94D-04
 IDIUse=3 WtCom= 9.98D-01 WtEn= 1.65D-03
 Coeff-Com: -0.930D-02-0.126D-01 0.864D-01 0.936D+00
 Coeff-En:   0.000D+00 0.000D+00 0.000D+00 0.100D+01
 Coeff:     -0.929D-02-0.126D-01 0.863D-01 0.936D+00
 Gap=     0.487 Goal=   None    Shift=    0.000
 RMSDP=1.48D-05 MaxDP=9.30D-04 DE=-2.52D-04 OVMax= 8.15D-04

 Cycle   5  Pass 1  IDiag  1:
 RMSU=  4.52D-06    CP:  9.82D-01  7.49D-01  1.06D+00  1.07D+00
 FoFJK:  IHMeth= 1 ICntrl=     0 DoSepK=T KAlg= 1 I1Cent= 0 FoldK=F
 E= -151.534261419491     Delta-E=       -0.000008583105 Rises=F Damp=F
 DIIS: error= 4.57D-05 at cycle   5 NSaved=   5.
 NSaved= 5 IEnMin= 5 EnMin= -151.534261419491     IErMin= 5 ErrMin= 4.57D-05
 ErrMax= 4.57D-05 EMaxC= 1.00D-01 BMatC= 2.29D-07 BMatP= 9.55D-06
 IDIUse=1 WtCom= 1.00D+00 WtEn= 0.00D+00
 Coeff-Com: -0.357D-03-0.214D-02-0.354D-01-0.124D+00 0.116D+01
 Coeff:     -0.357D-03-0.214D-02-0.354D-01-0.124D+00 0.116D+01
 Gap=     0.487 Goal=   None    Shift=    0.000
 RMSDP=3.68D-06 MaxDP=1.14D-04 DE=-8.58D-06 OVMax= 3.53D-04

 Cycle   6  Pass 1  IDiag  1:
 RMSU=  1.16D-06    CP:  9.82D-01  7.50D-01  1.07D+00  1.12D+00  1.34D+00
 FoFJK:  IHMeth= 1 ICntrl=     0 DoSepK=T KAlg= 1 I1Cent= 0 FoldK=F
 E= -151.534262030831     Delta-E=       -0.000000611340 Rises=F Damp=F
 DIIS: error= 7.01D-06 at cycle   6 NSaved=   6.
 NSaved= 6 IEnMin= 6 EnMin= -151.534262030831     IErMin= 6 ErrMin= 7.01D-06
 ErrMax= 7.01D-06 EMaxC= 1.00D-01 BMatC= 1.28D-08 BMatP= 2.29D-07
 IDIUse=1 WtCom= 1.00D+00 WtEn= 0.00D+00
 Coeff-Com:  0.301D-03 0.856D-03 0.406D-02-0.472D-02-0.212D+00 0.121D+01
 Coeff:      0.301D-03 0.856D-03 0.406D-02-0.472D-02-0.212D+00 0.121D+01
 Gap=     0.487 Goal=   None    Shift=    0.000
 RMSDP=1.00D-06 MaxDP=2.28D-05 DE=-6.11D-07 OVMax= 1.12D-04

 Cycle   7  Pass 1  IDiag  1:
 RMSU=  3.15D-07    CP:  9.82D-01  7.50D-01  1.07D+00  1.13D+00  1.40D+00
                    CP:  1.39D+00
 FoFJK:  IHMeth= 1 ICntrl=     0 DoSepK=T KAlg= 1 I1Cent= 0 FoldK=F
 E= -151.534262071827     Delta-E=       -0.000000040997 Rises=F Damp=F
 DIIS: error= 1.72D-06 at cycle   7 NSaved=   7.
 NSaved= 7 IEnMin= 7 EnMin= -151.534262071827     IErMin= 7 ErrMin= 1.72D-06
 ErrMax= 1.72D-06 EMaxC= 1.00D-01 BMatC= 8.28D-10 BMatP= 1.28D-08
 IDIUse=1 WtCom= 1.00D+00 WtEn= 0.00D+00
 Coeff-Com: -0.156D-04-0.231D-04 0.119D-02 0.695D-02-0.375D-01-0.165D+00
 Coeff-Com:  0.119D+01
 Coeff:     -0.156D-04-0.231D-04 0.119D-02 0.695D-02-0.375D-01-0.165D+00
 Coeff:      0.119D+01
 Gap=     0.487 Goal=   None    Shift=    0.000
 RMSDP=3.82D-07 MaxDP=1.46D-05 DE=-4.10D-08 OVMax= 3.40D-05

 Cycle   8  Pass 1  IDiag  1:
 RMSU=  7.41D-08    CP:  9.82D-01  7.50D-01  1.07D+00  1.13D+00  1.41D+00
                    CP:  1.51D+00  1.41D+00
 FoFJK:  IHMeth= 1 ICntrl=     0 DoSepK=T KAlg= 1 I1Cent= 0 FoldK=F
 E= -151.534262075406     Delta-E=       -0.000000003578 Rises=F Damp=F
 DIIS: error= 5.91D-07 at cycle   8 NSaved=   8.
 NSaved= 8 IEnMin= 8 EnMin= -151.534262075406     IErMin= 8 ErrMin= 5.91D-07
 ErrMax= 5.91D-07 EMaxC= 1.00D-01 BMatC= 1.03D-10 BMatP= 8.28D-10
 IDIUse=1 WtCom= 1.00D+00 WtEn= 0.00D+00
 Coeff-Com: -0.189D-04-0.644D-04-0.304D-03 0.463D-04 0.171D-01-0.903D-01
 Coeff-Com:  0.191D-01 0.105D+01
 Coeff:     -0.189D-04-0.644D-04-0.304D-03 0.463D-04 0.171D-01-0.903D-01
 Coeff:      0.191D-01 0.105D+01
 Gap=     0.487 Goal=   None    Shift=    0.000
 RMSDP=1.19D-07 MaxDP=6.22D-06 DE=-3.58D-09 OVMax= 1.23D-05

 Cycle   9  Pass 1  IDiag  1:
 RMSU=  2.62D-08    CP:  9.82D-01  7.50D-01  1.07D+00  1.13D+00  1.41D+00
                    CP:  1.53D+00  1.54D+00  1.41D+00
 FoFJK:  IHMeth= 1 ICntrl=     0 DoSepK=T KAlg= 1 I1Cent= 0 FoldK=F
 E= -151.534262075699     Delta-E=       -0.000000000294 Rises=F Damp=F
 DIIS: error= 3.39D-07 at cycle   9 NSaved=   9.
 NSaved= 9 IEnMin= 9 EnMin= -151.534262075699     IErMin= 9 ErrMin= 3.39D-07
 ErrMax= 3.39D-07 EMaxC= 1.00D-01 BMatC= 4.05D-11 BMatP= 1.03D-10
 IDIUse=1 WtCom= 1.00D+00 WtEn= 0.00D+00
 Coeff-Com: -0.778D-05-0.291D-04-0.294D-03-0.892D-03 0.135D-01-0.254D-01
 Coeff-Com: -0.137D+00 0.472D+00 0.679D+00
 Coeff:     -0.778D-05-0.291D-04-0.294D-03-0.892D-03 0.135D-01-0.254D-01
 Coeff:     -0.137D+00 0.472D+00 0.679D+00
 Gap=     0.487 Goal=   None    Shift=    0.000
 RMSDP=3.73D-08 MaxDP=1.81D-06 DE=-2.94D-10 OVMax= 4.80D-06

 Cycle  10  Pass 1  IDiag  1:
 RMSU=  1.33D-08    CP:  9.82D-01  7.50D-01  1.07D+00  1.13D+00  1.41D+00
                    CP:  1.54D+00  1.57D+00  1.59D+00  1.04D+00
 FoFJK:  IHMeth= 1 ICntrl=     0 DoSepK=T KAlg= 1 I1Cent= 0 FoldK=F
 E= -151.534262075760     Delta-E=       -0.000000000060 Rises=F Damp=F
 DIIS: error= 1.27D-07 at cycle  10 NSaved=  10.
 NSaved=10 IEnMin=10 EnMin= -151.534262075760     IErMin=10 ErrMin= 1.27D-07
 ErrMax= 1.27D-07 EMaxC= 1.00D-01 BMatC= 5.37D-12 BMatP= 4.05D-11
 IDIUse=1 WtCom= 1.00D+00 WtEn= 0.00D+00
 Coeff-Com:  0.442D-05 0.184D-04 0.108D-03 0.248D-04-0.505D-02 0.229D-01
 Coeff-Com:  0.116D-01-0.326D+00 0.532D-01 0.124D+01
 Coeff:      0.442D-05 0.184D-04 0.108D-03 0.248D-04-0.505D-02 0.229D-01
 Coeff:      0.116D-01-0.326D+00 0.532D-01 0.124D+01
 Gap=     0.487 Goal=   None    Shift=    0.000
 RMSDP=2.72D-08 MaxDP=5.38D-07 DE=-6.04D-11 OVMax= 4.43D-06

 Cycle  11  Pass 1  IDiag  1:
 RMSU=  5.21D-09    CP:  9.82D-01  7.50D-01  1.07D+00  1.13D+00  1.41D+00
                    CP:  1.55D+00  1.59D+00  1.73D+00  1.44D+00  1.55D+00
 FoFJK:  IHMeth= 1 ICntrl=     0 DoSepK=T KAlg= 1 I1Cent= 0 FoldK=F
 E= -151.534262075780     Delta-E=       -0.000000000020 Rises=F Damp=F
 DIIS: error= 3.24D-08 at cycle  11 NSaved=  11.
 NSaved=11 IEnMin=11 EnMin= -151.534262075780     IErMin=11 ErrMin= 3.24D-08
 ErrMax= 3.24D-08 EMaxC= 1.00D-01 BMatC= 3.40D-13 BMatP= 5.37D-12
 IDIUse=1 WtCom= 1.00D+00 WtEn= 0.00D+00
 Coeff-Com:  0.208D-06 0.152D-05 0.281D-04 0.143D-03-0.128D-02 0.340D-03
 Coeff-Com:  0.203D-01-0.340D-01-0.892D-01-0.133D+00 0.124D+01
 Coeff:      0.208D-06 0.152D-05 0.281D-04 0.143D-03-0.128D-02 0.340D-03
 Coeff:      0.203D-01-0.340D-01-0.892D-01-0.133D+00 0.124D+01
 Gap=     0.487 Goal=   None    Shift=    0.000
 RMSDP=8.65D-09 MaxDP=1.81D-07 DE=-2.01D-11 OVMax= 1.33D-06

 SCF Done:  E(RLC-wPBE) =  -151.534262076     A.U. after   11 cycles
             Convg  =    0.8654D-08             -V/T =  2.0071
 KE= 1.504707290261D+02 PE=-4.315531777000D+02 EE= 9.292693269048D+01
 Leave Link  502 at Fri May  8 12:26:47 2020, MaxMem= 1073741824 cpu:     329.4
 (Enter /home/matheus/.gaussian/g09/l601.exe)
 Copying SCF densities to generalized density rwf, IOpCl= 0 IROHF=0.

 **********************************************************************

            Population analysis using the SCF density.

 **********************************************************************

 Orbital symmetries:
       Occupied  (A) (A) (A) (A) (A) (A) (A) (A) (A)
       Virtual   (A) (A) (A) (A) (A) (A) (A) (A) (A) (A) (A) (A)
                 (A) (A) (A) (A) (A) (A) (A) (A) (A) (A) (A) (A)
                 (A) (A) (A) (A) (A) (A) (A) (A) (A) (A) (A) (A)
                 (A) (A) (A) (A) (A) (A) (A) (A) (A) (A) (A) (A)
                 (A) (A) (A) (A) (A) (A) (A) (A) (A) (A) (A) (A)
                 (A) (A) (A) (A) (A) (A) (A) (A) (A) (A) (A) (A)
                 (A) (A) (A) (A) (A) (A) (A) (A) (A) (A) (A) (A)
                 (A) (A) (A) (A) (A) (A) (A) (A) (A) (A) (A) (A)
                 (A) (A) (A) (A) (A) (A) (A) (A) (A) (A) (A) (A)
                 (A) (A) (A) (A) (A) (A) (A) (A) (A) (A) (A) (A)
                 (A) (A) (A) (A) (A) (A) (A) (A) (A) (A) (A) (A)
                 (A) (A) (A) (A) (A) (A) (A) (A) (A) (A) (A) (A)
                 (A) (A) (A) (A) (A) (A) (A) (A) (A) (A) (A) (A)
                 (A) (A) (A) (A) (A) (A) (A) (A) (A) (A) (A) (A)
                 (A) (A) (A) (A) (A) (A) (A) (A) (A) (A) (A) (A)
                 (A) (A) (A) (A) (A) (A) (A) (A)
 The electronic state is 1-A.
 Alpha  occ. eigenvalues --  -19.11532 -19.11525  -1.32349  -1.09779  -0.72052
 Alpha  occ. eigenvalues --   -0.64907  -0.58686  -0.47150  -0.46036
 Alpha virt. eigenvalues --    0.02634   0.03777   0.07189   0.08471   0.10323
 Alpha virt. eigenvalues --    0.10880   0.11418   0.13998   0.17062   0.17534
 Alpha virt. eigenvalues --    0.18854   0.19589   0.21437   0.23036   0.25738
 Alpha virt. eigenvalues --    0.27189   0.31290   0.31370   0.32938   0.33525
 Alpha virt. eigenvalues --    0.34332   0.37445   0.37763   0.40173   0.41398
 Alpha virt. eigenvalues --    0.43366   0.44338   0.47381   0.48480   0.49867
 Alpha virt. eigenvalues --    0.54205   0.58162   0.61719   0.63336   0.67921
 Alpha virt. eigenvalues --    0.72507   0.75004   0.77081   0.79497   0.80368
 Alpha virt. eigenvalues --    0.82014   0.82741   0.89250   0.91415   0.91708
 Alpha virt. eigenvalues --    0.92632   0.93711   0.95792   0.98061   0.98208
 Alpha virt. eigenvalues --    1.00471   1.02299   1.06519   1.10951   1.13138
 Alpha virt. eigenvalues --    1.14067   1.15768   1.20658   1.23750   1.25769
 Alpha virt. eigenvalues --    1.27621   1.28750   1.30762   1.32102   1.33208
 Alpha virt. eigenvalues --    1.34319   1.35507   1.38151   1.40175   1.42505
 Alpha virt. eigenvalues --    1.45065   1.50462   1.50780   1.52782   1.57066
 Alpha virt. eigenvalues --    1.60737   1.66984   1.68108   1.71879   1.80193
 Alpha virt. eigenvalues --    1.84716   1.88195   1.95861   1.99086   2.06872
 Alpha virt. eigenvalues --    2.08684   2.11731   2.19378   2.22063   2.27348
 Alpha virt. eigenvalues --    2.29732   2.34518   2.38826   2.41053   2.43076
 Alpha virt. eigenvalues --    2.49558   2.54760   2.58231   2.63648   2.67833
 Alpha virt. eigenvalues --    2.72500   2.73813   2.85931   2.89577   2.96478
 Alpha virt. eigenvalues --    3.07642   3.13811   3.15892   3.25921   3.30422
 Alpha virt. eigenvalues --    3.41634   3.54943   3.63279   3.69505   3.78545
 Alpha virt. eigenvalues --    3.78814   3.82117   3.82378   3.83277   3.83802
 Alpha virt. eigenvalues --    3.88432   3.89361   3.94779   3.95149   3.97208
 Alpha virt. eigenvalues --    3.99165   4.03477   4.09726   4.13062   4.19528
 Alpha virt. eigenvalues --    4.24194   4.25102   4.30326   4.33539   4.36713
 Alpha virt. eigenvalues --    4.44657   4.54921   4.60839   4.71912   4.94232
 Alpha virt. eigenvalues --    5.01094   5.04520   5.19631   5.20644   5.26044
 Alpha virt. eigenvalues --    5.47773   5.88486   6.09005   6.17373   6.21721
 Alpha virt. eigenvalues --    6.34262   6.36185   6.50510   6.55518   6.62008
 Alpha virt. eigenvalues --    6.82305   6.83551   6.84729   6.87637   6.91585
 Alpha virt. eigenvalues --    6.92985   6.94335   7.02181   7.04878   7.11372
 Alpha virt. eigenvalues --    7.18370   7.27881   7.49067   7.68072   7.83997
 Alpha virt. eigenvalues --    8.12800   8.15446  10.87922  13.99391  14.62997
 Alpha virt. eigenvalues --   14.83297  14.87733  15.09574  29.03053  29.03222
 Alpha virt. eigenvalues --   29.07963  29.13198  29.22916  49.09349 148.31453
 Alpha virt. eigenvalues --  148.37947 148.70249 752.47784
          Condensed to atoms (all electrons):
              1          2          3          4          5
     1  O    8.202276  -0.187597   0.200274  -0.002946  -0.000314
     2  O   -0.187597   8.208331   0.010648   0.200979  -0.000427
     3  H    0.200274   0.010648   0.576564   0.002781  -0.001121
     4  H   -0.002946   0.200979   0.002781   0.574695  -0.003741
     5  Kr  -0.000314  -0.000427  -0.001121  -0.003741   0.001066
 Mulliken atomic charges:
              1
     1  O   -0.211692
     2  O   -0.231933
     3  H    0.210855
     4  H    0.228233
     5  Kr   0.004537
 Sum of Mulliken atomic charges =   0.00000
 Mulliken charges with hydrogens summed into heavy atoms:
              1
     1  O   -0.000837
     2  O   -0.003700
     5  Kr   0.004537
 Sum of Mulliken charges with hydrogens summed into heavy atoms =   0.00000
          Condensed to fragments (all electrons):
     1      -0.004537
     2       0.004537
 Electronic spatial extent (au):  <R**2>=            321.2606
 Charge=              0.0000 electrons
 Dipole moment (field-independent basis, Debye):
    X=             -1.3232    Y=             -0.1660    Z=              1.6290  Tot=              2.1053
 Quadrupole moment (field-independent basis, Debye-Ang):
   XX=            -15.9791   YY=            -10.2499   ZZ=            -11.4111
   XY=             -2.8603   XZ=              3.5456   YZ=             -1.8656
 Traceless Quadrupole moment (field-independent basis, Debye-Ang):
   XX=             -3.4324   YY=              2.2968   ZZ=              1.1356
   XY=             -2.8603   XZ=              3.5456   YZ=             -1.8656
 Octapole moment (field-independent basis, Debye-Ang**2):
  XXX=            -81.1454  YYY=             -1.4216  ZZZ=              1.4917  XYY=            -21.9492
  XXY=             -8.9218  XXZ=              8.0566  XZZ=            -22.3456  YZZ=             -1.9635
  YYZ=              2.4012  XYZ=             -4.2887
 Hexadecapole moment (field-independent basis, Debye-Ang**3):
 XXXX=           -318.5520 YYYY=            -44.4600 ZZZZ=            -11.2721 XXXY=            -20.9104
 XXXZ=             18.7274 YYYX=             -4.6216 YYYZ=             -2.7319 ZZZX=              3.2266
 ZZZY=             -2.0211 XXYY=            -55.7744 XXZZ=            -47.7802 YYZZ=             -9.7009
 XXYZ=             -9.9754 YYXZ=              5.1073 ZZXY=             -3.7049
 N-N= 3.662125390757D+01 E-N=-4.315531773501D+02  KE= 1.504707290261D+02
 No NMR shielding tensors so no spin-rotation constants.
 Leave Link  601 at Fri May  8 12:26:47 2020, MaxMem= 1073741824 cpu:       0.8
 (Enter /home/matheus/.gaussian/g09/l122.exe)
 Counterpoise: doing DCBS calculation for fragment   2 NewBq=T
 Leave Link  122 at Fri May  8 12:26:47 2020, MaxMem= 1073741824 cpu:       0.0
 (Enter /home/matheus/.gaussian/g09/l301.exe)
 Basis read from rwf:  (5D, 7F)
 No pseudopotential information found on rwf file.
 There are   197 symmetry adapted basis functions of A   symmetry.
 Integral buffers will be    131072 words long.
 Raffenetti 2 integral format.
 Two-electron integral symmetry is turned on.
   197 basis functions,   415 primitive gaussians,   229 cartesian basis functions
    18 alpha electrons       18 beta electrons
       nuclear repulsion energy         0.0000000000 Hartrees.
 IExCor=32609 DFT=T Ex+Corr=LC-wPBE ExCW=0 ScaHFX=  1.000000
 ScaDFX=  1.000000  0.000000  1.000000  1.000000 ScalE2=  1.000000  1.000000
 IRadAn=      5 IRanWt=     -1 IRanGd=            0 ICorTp=0
  HFx wShort=  0.000000 wLong=  0.550000 cFull=  0.000000 cShort=  0.000000 cLong=  1.000000
  DFx wShort=  0.000000 wLong=  0.550000 cFull=  0.000000 cShort=  0.000000 cLong=  1.000000
 NAtoms=    5 NActive=    5 NUniq=    5 SFac= 1.00D+00 NAtFMM=   60 NAOKFM=F Big=F
 No density basis found on file   718.
 Leave Link  301 at Fri May  8 12:26:47 2020, MaxMem= 1073741824 cpu:       0.2
 (Enter /home/matheus/.gaussian/g09/l302.exe)
 NPDir=0 NMtPBC=     1 NCelOv=     1 NCel=       1 NClECP=     1 NCelD=      1
         NCelK=      1 NCelE2=     1 NClLst=     1 CellRange=     0.0.
 One-electron integrals computed using PRISM.
 NBasis=   197 RedAO= T  NBF=   197
 NBsUse=   197 1.00D-06 NBFU=   197
 Precomputing XC quadrature grid using
 IXCGrd= 2 IRadAn=           5 IRanWt=          -1 IRanGd=           0 AccXCQ= 0.00D+00.
 NRdTot=     427 NPtTot=      123512 NUsed=      126579 NTot=      126611
 NSgBfM=   229   229   229   229   229 NAtAll=     5     5.
 Leave Link  302 at Fri May  8 12:26:47 2020, MaxMem= 1073741824 cpu:       1.0
 (Enter /home/matheus/.gaussian/g09/l303.exe)
 DipDrv:  MaxL=1.
 Leave Link  303 at Fri May  8 12:26:47 2020, MaxMem= 1073741824 cpu:       0.3
 (Enter /home/matheus/.gaussian/g09/l401.exe)
 Harris functional with IExCor=32609 diagonalized for initial guess.
 ExpMin= 2.53D-02 ExpMax= 1.17D+07 ExpMxC= 1.33D+04 IAcc=3 IRadAn=         5 AccDes= 0.00D+00
 HarFok:  IExCor=32609 AccDes= 0.00D+00 IRadAn=         5 IDoV= 1
 ScaDFX=  1.000000  1.000000  1.000000  1.000000
 FoFCou: FMM=F IPFlag=           0 FMFlag=      100000 FMFlg1=           0
         NFxFlg=           0 DoJE=T BraDBF=F KetDBF=T FulRan=T
         Omega=  0.000000  0.000000  1.000000  0.000000  0.000000 ICntrl=     500 IOpCl=  0
         NMat0=    1 NMatS0=    1 NMatT0=    0 NMatD0=    1 NMtDS0=    0 NMtDT0=    0
         I1Cent=           4 NGrid=           0.
 Petite list used in FoFCou.
 Harris En= -2753.24647730613    
 Initial guess orbital symmetries:
       Occupied  (A) (A) (A) (A) (A) (A) (A) (A) (A) (A) (A) (A)
                 (A) (A) (A) (A) (A) (A)
       Virtual   (A) (A) (A) (A) (A) (A) (A) (A) (A) (A) (A) (A)
                 (A) (A) (A) (A) (A) (A) (A) (A) (A) (A) (A) (A)
                 (A) (A) (A) (A) (A) (A) (A) (A) (A) (A) (A) (A)
                 (A) (A) (A) (A) (A) (A) (A) (A) (A) (A) (A) (A)
                 (A) (A) (A) (A) (A) (A) (A) (A) (A) (A) (A) (A)
                 (A) (A) (A) (A) (A) (A) (A) (A) (A) (A) (A) (A)
                 (A) (A) (A) (A) (A) (A) (A) (A) (A) (A) (A) (A)
                 (A) (A) (A) (A) (A) (A) (A) (A) (A) (A) (A) (A)
                 (A) (A) (A) (A) (A) (A) (A) (A) (A) (A) (A) (A)
                 (A) (A) (A) (A) (A) (A) (A) (A) (A) (A) (A) (A)
                 (A) (A) (A) (A) (A) (A) (A) (A) (A) (A) (A) (A)
                 (A) (A) (A) (A) (A) (A) (A) (A) (A) (A) (A) (A)
                 (A) (A) (A) (A) (A) (A) (A) (A) (A) (A) (A) (A)
                 (A) (A) (A) (A) (A) (A) (A) (A) (A) (A) (A) (A)
                 (A) (A) (A) (A) (A) (A) (A) (A) (A) (A) (A)
 The electronic state of the initial guess is 1-A.
 Leave Link  401 at Fri May  8 12:26:48 2020, MaxMem= 1073741824 cpu:       4.6
 (Enter /home/matheus/.gaussian/g09/l502.exe)
 Closed shell SCF:
 Requested convergence on RMS density matrix=1.00D-08 within 128 cycles.
 Requested convergence on MAX density matrix=1.00D-06.
 Requested convergence on             energy=1.00D-06.
 No special actions if energy rises.
 Using DIIS extrapolation, IDIIS=  1040.
 Integral symmetry usage will be decided dynamically.
       126521 words used for storage of precomputed grid.
 IEnd=      305468 IEndB=      305468 NGot=  1073741824 MDV=  1073505667
 LenX=  1073505667 LenY=  1073452785
 Fock matrices will be formed incrementally for  20 cycles.

 Cycle   1  Pass 1  IDiag  1:
 FoFJK:  IHMeth= 1 ICntrl=     0 DoSepK=T KAlg= 1 I1Cent= 0 FoldK=F
 FoFCou: FMM=F IPFlag=           0 FMFlag=      100000 FMFlg1=           0
         NFxFlg=           0 DoJE=T BraDBF=F KetDBF=F FulRan=T
         Omega=  0.000000  0.000000  1.000000  0.000000  0.000000 ICntrl=     500 IOpCl=  0
         NMat0=    1 NMatS0=    1 NMatT0=    0 NMatD0=    1 NMtDS0=    0 NMtDT0=    0
         I1Cent=           0 NGrid=           0.
 Symmetry not used in FoFCou.
 E= -2753.43086075727    
 DIIS: error= 2.32D-02 at cycle   1 NSaved=   1.
 NSaved= 1 IEnMin= 1 EnMin= -2753.43086075727     IErMin= 1 ErrMin= 2.32D-02
 ErrMax= 2.32D-02 EMaxC= 1.00D-01 BMatC= 2.24D-01 BMatP= 2.24D-01
 IDIUse=3 WtCom= 7.68D-01 WtEn= 2.32D-01
 Coeff-Com:  0.100D+01
 Coeff-En:   0.100D+01
 Coeff:      0.100D+01
 Gap=     0.637 Goal=   None    Shift=    0.000
 GapD=    0.637 DampG=2.000 DampE=0.500 DampFc=1.0000 IDamp=-1.
 RMSDP=2.06D-03 MaxDP=1.42D-01              OVMax= 5.14D-02

 Cycle   2  Pass 1  IDiag  1:
 RMSU=  1.41D-03    CP:  1.02D+00
 FoFJK:  IHMeth= 1 ICntrl=     0 DoSepK=T KAlg= 1 I1Cent= 0 FoldK=F
 E= -2753.46431687392     Delta-E=       -0.033456116646 Rises=F Damp=F
 DIIS: error= 9.08D-03 at cycle   2 NSaved=   2.
 NSaved= 2 IEnMin= 2 EnMin= -2753.46431687392     IErMin= 2 ErrMin= 9.08D-03
 ErrMax= 9.08D-03 EMaxC= 1.00D-01 BMatC= 4.96D-02 BMatP= 2.24D-01
 IDIUse=3 WtCom= 9.09D-01 WtEn= 9.08D-02
 Coeff-Com:  0.315D+00 0.685D+00
 Coeff-En:   0.626D-01 0.937D+00
 Coeff:      0.292D+00 0.708D+00
 Gap=     0.551 Goal=   None    Shift=    0.000
 RMSDP=7.54D-04 MaxDP=4.95D-02 DE=-3.35D-02 OVMax= 1.83D-02

 Cycle   3  Pass 1  IDiag  1:
 RMSU=  1.47D-04    CP:  1.01D+00  6.49D-01
 FoFJK:  IHMeth= 1 ICntrl=     0 DoSepK=T KAlg= 1 I1Cent= 0 FoldK=F
 E= -2753.47776192623     Delta-E=       -0.013445052319 Rises=F Damp=F
 DIIS: error= 9.68D-04 at cycle   3 NSaved=   3.
 NSaved= 3 IEnMin= 3 EnMin= -2753.47776192623     IErMin= 3 ErrMin= 9.68D-04
 ErrMax= 9.68D-04 EMaxC= 1.00D-01 BMatC= 4.57D-04 BMatP= 4.96D-02
 IDIUse=3 WtCom= 9.90D-01 WtEn= 9.68D-03
 Coeff-Com: -0.468D-02 0.785D-01 0.926D+00
 Coeff-En:   0.000D+00 0.000D+00 0.100D+01
 Coeff:     -0.464D-02 0.778D-01 0.927D+00
 Gap=     0.557 Goal=   None    Shift=    0.000
 RMSDP=6.50D-05 MaxDP=3.89D-03 DE=-1.34D-02 OVMax= 2.29D-03

 Cycle   4  Pass 1  IDiag  1:
 RMSU=  1.34D-05    CP:  1.01D+00  6.79D-01  1.01D+00
 FoFJK:  IHMeth= 1 ICntrl=     0 DoSepK=T KAlg= 1 I1Cent= 0 FoldK=F
 E= -2753.47789593701     Delta-E=       -0.000134010773 Rises=F Damp=F
 DIIS: error= 3.47D-05 at cycle   4 NSaved=   4.
 NSaved= 4 IEnMin= 4 EnMin= -2753.47789593701     IErMin= 4 ErrMin= 3.47D-05
 ErrMax= 3.47D-05 EMaxC= 1.00D-01 BMatC= 3.98D-07 BMatP= 4.57D-04
 IDIUse=1 WtCom= 1.00D+00 WtEn= 0.00D+00
 Coeff-Com: -0.553D-03-0.183D-01-0.165D+00 0.118D+01
 Coeff:     -0.553D-03-0.183D-01-0.165D+00 0.118D+01
 Gap=     0.556 Goal=   None    Shift=    0.000
 RMSDP=5.68D-06 MaxDP=3.20D-04 DE=-1.34D-04 OVMax= 4.11D-04

 Cycle   5  Pass 1  IDiag  1:
 RMSU=  1.80D-06    CP:  1.01D+00  6.79D-01  1.02D+00  1.19D+00
 FoFJK:  IHMeth= 1 ICntrl=     0 DoSepK=T KAlg= 1 I1Cent= 0 FoldK=F
 E= -2753.47789644887     Delta-E=       -0.000000511863 Rises=F Damp=F
 DIIS: error= 2.10D-06 at cycle   5 NSaved=   5.
 NSaved= 5 IEnMin= 5 EnMin= -2753.47789644887     IErMin= 5 ErrMin= 2.10D-06
 ErrMax= 2.10D-06 EMaxC= 1.00D-01 BMatC= 2.19D-09 BMatP= 3.98D-07
 IDIUse=1 WtCom= 1.00D+00 WtEn= 0.00D+00
 Coeff-Com:  0.966D-04 0.193D-03-0.163D-02-0.162D-01 0.102D+01
 Coeff:      0.966D-04 0.193D-03-0.163D-02-0.162D-01 0.102D+01
 Gap=     0.556 Goal=   None    Shift=    0.000
 RMSDP=3.34D-07 MaxDP=2.18D-05 DE=-5.12D-07 OVMax= 1.48D-05

 Cycle   6  Pass 1  IDiag  1:
 RMSU=  1.61D-07    CP:  1.01D+00  6.79D-01  1.02D+00  1.20D+00  1.03D+00
 FoFJK:  IHMeth= 1 ICntrl=     0 DoSepK=T KAlg= 1 I1Cent= 0 FoldK=F
 E= -2753.47789645077     Delta-E=       -0.000000001902 Rises=F Damp=F
 DIIS: error= 4.29D-07 at cycle   6 NSaved=   6.
 NSaved= 6 IEnMin= 6 EnMin= -2753.47789645077     IErMin= 6 ErrMin= 4.29D-07
 ErrMax= 4.29D-07 EMaxC= 1.00D-01 BMatC= 7.59D-11 BMatP= 2.19D-09
 IDIUse=1 WtCom= 1.00D+00 WtEn= 0.00D+00
 Coeff-Com:  0.335D-05 0.172D-03 0.181D-02-0.167D-01 0.323D-01 0.982D+00
 Coeff:      0.335D-05 0.172D-03 0.181D-02-0.167D-01 0.323D-01 0.982D+00
 Gap=     0.556 Goal=   None    Shift=    0.000
 RMSDP=4.97D-08 MaxDP=2.54D-06 DE=-1.90D-09 OVMax= 3.11D-06

 Cycle   7  Pass 1  IDiag  1:
 RMSU=  1.06D-08    CP:  1.01D+00  6.79D-01  1.02D+00  1.20D+00  1.05D+00
                    CP:  1.10D+00
 FoFJK:  IHMeth= 1 ICntrl=     0 DoSepK=T KAlg= 1 I1Cent= 0 FoldK=F
 E= -2753.47789645081     Delta-E=       -0.000000000042 Rises=F Damp=F
 DIIS: error= 3.22D-08 at cycle   7 NSaved=   7.
 NSaved= 7 IEnMin= 7 EnMin= -2753.47789645081     IErMin= 7 ErrMin= 3.22D-08
 ErrMax= 3.22D-08 EMaxC= 1.00D-01 BMatC= 4.09D-13 BMatP= 7.59D-11
 IDIUse=1 WtCom= 1.00D+00 WtEn= 0.00D+00
 Coeff-Com:  0.219D-06 0.302D-04 0.329D-03-0.288D-02 0.271D-02 0.155D+00
 Coeff-Com:  0.845D+00
 Coeff:      0.219D-06 0.302D-04 0.329D-03-0.288D-02 0.271D-02 0.155D+00
 Coeff:      0.845D+00
 Gap=     0.556 Goal=   None    Shift=    0.000
 RMSDP=5.55D-09 MaxDP=2.13D-07 DE=-4.23D-11 OVMax= 2.37D-07

 SCF Done:  E(RLC-wPBE) =  -2753.47789645     A.U. after    7 cycles
             Convg  =    0.5549D-08             -V/T =  2.0014
 KE= 2.749515933055D+03 PE=-6.579050088425D+03 EE= 1.076056258919D+03
 Leave Link  502 at Fri May  8 12:27:16 2020, MaxMem= 1073741824 cpu:     223.9
 (Enter /home/matheus/.gaussian/g09/l601.exe)
 Copying SCF densities to generalized density rwf, IOpCl= 0 IROHF=0.

 **********************************************************************

            Population analysis using the SCF density.

 **********************************************************************

 Orbital symmetries:
       Occupied  (A) (A) (A) (A) (A) (A) (A) (A) (A) (A) (A) (A)
                 (A) (A) (A) (A) (A) (A)
       Virtual   (A) (A) (A) (A) (A) (A) (A) (A) (A) (A) (A) (A)
                 (A) (A) (A) (A) (A) (A) (A) (A) (A) (A) (A) (A)
                 (A) (A) (A) (A) (A) (A) (A) (A) (A) (A) (A) (A)
                 (A) (A) (A) (A) (A) (A) (A) (A) (A) (A) (A) (A)
                 (A) (A) (A) (A) (A) (A) (A) (A) (A) (A) (A) (A)
                 (A) (A) (A) (A) (A) (A) (A) (A) (A) (A) (A) (A)
                 (A) (A) (A) (A) (A) (A) (A) (A) (A) (A) (A) (A)
                 (A) (A) (A) (A) (A) (A) (A) (A) (A) (A) (A) (A)
                 (A) (A) (A) (A) (A) (A) (A) (A) (A) (A) (A) (A)
                 (A) (A) (A) (A) (A) (A) (A) (A) (A) (A) (A) (A)
                 (A) (A) (A) (A) (A) (A) (A) (A) (A) (A) (A) (A)
                 (A) (A) (A) (A) (A) (A) (A) (A) (A) (A) (A) (A)
                 (A) (A) (A) (A) (A) (A) (A) (A) (A) (A) (A) (A)
                 (A) (A) (A) (A) (A) (A) (A) (A) (A) (A) (A) (A)
                 (A) (A) (A) (A) (A) (A) (A) (A) (A) (A) (A)
 The electronic state is 1-A.
 Alpha  occ. eigenvalues -- -511.18548 -66.73374 -60.39483 -60.39480 -60.39480
 Alpha  occ. eigenvalues --   -9.66932  -7.41183  -7.41181  -7.41181  -3.35590
 Alpha  occ. eigenvalues --   -3.35589  -3.35589  -3.35588  -3.35588  -1.08852
 Alpha  occ. eigenvalues --   -0.52698  -0.52694  -0.52692
 Alpha virt. eigenvalues --    0.02957   0.04917   0.08514   0.09165   0.11732
 Alpha virt. eigenvalues --    0.12229   0.13301   0.13740   0.16295   0.17006
 Alpha virt. eigenvalues --    0.17803   0.19740   0.20919   0.26236   0.27471
 Alpha virt. eigenvalues --    0.28133   0.28651   0.31093   0.33701   0.34556
 Alpha virt. eigenvalues --    0.36310   0.37513   0.38824   0.39867   0.41628
 Alpha virt. eigenvalues --    0.42295   0.43311   0.54053   0.54970   0.58801
 Alpha virt. eigenvalues --    0.59550   0.66627   0.68300   0.69876   0.72186
 Alpha virt. eigenvalues --    0.75551   0.75824   0.77845   0.78973   0.80514
 Alpha virt. eigenvalues --    0.81289   0.81757   0.84080   0.85910   0.87419
 Alpha virt. eigenvalues --    0.88853   0.89217   0.90987   0.92199   0.96244
 Alpha virt. eigenvalues --    0.97585   0.98861   0.99716   1.00326   1.02742
 Alpha virt. eigenvalues --    1.05671   1.08712   1.09177   1.11577   1.12783
 Alpha virt. eigenvalues --    1.16904   1.21390   1.24987   1.28078   1.29235
 Alpha virt. eigenvalues --    1.33806   1.35681   1.39045   1.45841   1.46872
 Alpha virt. eigenvalues --    1.54210   1.57273   1.60877   1.74605   1.77239
 Alpha virt. eigenvalues --    1.79318   1.82976   1.87185   1.99046   2.19988
 Alpha virt. eigenvalues --    2.22869   2.25324   2.30317   2.31440   2.33586
 Alpha virt. eigenvalues --    2.35586   2.36199   2.38848   2.40445   2.42984
 Alpha virt. eigenvalues --    2.44618   2.46375   2.47695   2.52083   2.53206
 Alpha virt. eigenvalues --    2.54616   2.55717   2.57066   2.58013   2.59943
 Alpha virt. eigenvalues --    2.63897   2.64761   2.67376   2.70445   2.72855
 Alpha virt. eigenvalues --    2.75437   2.80141   2.84720   2.88776   2.90269
 Alpha virt. eigenvalues --    2.96051   2.99937   3.03760   3.11628   3.20186
 Alpha virt. eigenvalues --    3.24114   3.24842   3.30811   3.37253   3.48473
 Alpha virt. eigenvalues --    3.60991   3.64198   3.82838   3.86751   4.03995
 Alpha virt. eigenvalues --    4.37620   4.42338   4.50772   4.57767   4.66003
 Alpha virt. eigenvalues --    4.72902   4.87449   4.91428   4.94736   5.00279
 Alpha virt. eigenvalues --    5.14141   5.22183   5.59471   5.65265   5.75873
 Alpha virt. eigenvalues --    5.92002   6.02432   6.11917   6.74289   6.88457
 Alpha virt. eigenvalues --    7.37810   7.45540   7.58614   7.62178   7.75654
 Alpha virt. eigenvalues --    7.82783   7.91820   8.12807   8.16847   8.22043
 Alpha virt. eigenvalues --    8.40501   8.47694   8.57362   8.86028   9.65697
 Alpha virt. eigenvalues --    9.75952   9.84477   9.89383   9.90464   9.99683
 Alpha virt. eigenvalues --   10.14693  10.33952  10.35976  10.97723  11.51878
 Alpha virt. eigenvalues --   11.66070  11.79129  12.06685  12.10191  13.23198
 Alpha virt. eigenvalues --   13.62877  14.52061  62.78574  64.69110
          Condensed to atoms (all electrons):
              1          2          3          4          5
     1  O    0.001871  -0.001819  -0.001080   0.001265  -0.008306
     2  O   -0.001819   0.005588   0.000563  -0.004191   0.001433
     3  H   -0.001080   0.000563   0.000843  -0.000329   0.001338
     4  H    0.001265  -0.004191  -0.000329   0.004742  -0.030669
     5  Kr  -0.008306   0.001433   0.001338  -0.030669  36.070550
 Mulliken atomic charges:
              1
     1  O    0.008070
     2  O   -0.001573
     3  H   -0.001333
     4  H    0.029182
     5  Kr  -0.034345
 Sum of Mulliken atomic charges =   0.00000
 Mulliken charges with hydrogens summed into heavy atoms:
              1
     1  O    0.006736
     2  O    0.027609
     5  Kr  -0.034345
 Sum of Mulliken charges with hydrogens summed into heavy atoms =   0.00000
          Condensed to fragments (all electrons):
     1       0.034345
     2      -0.034345
 Electronic spatial extent (au):  <R**2>=            164.1462
 Charge=              0.0000 electrons
 Dipole moment (field-independent basis, Debye):
    X=              0.0008    Y=              0.0004    Z=              0.0001  Tot=              0.0009
 Quadrupole moment (field-independent basis, Debye-Ang):
   XX=            -17.5395   YY=            -17.5501   ZZ=            -17.5566
   XY=              0.0038   XZ=              0.0006   YZ=              0.0001
 Traceless Quadrupole moment (field-independent basis, Debye-Ang):
   XX=              0.0092   YY=             -0.0013   ZZ=             -0.0079
   XY=              0.0038   XZ=              0.0006   YZ=              0.0001
 Octapole moment (field-independent basis, Debye-Ang**2):
  XXX=             51.8812  YYY=              0.6158  ZZZ=             -0.0371  XYY=             17.3054
  XXY=              0.1984  XXZ=             -0.0139  XZZ=             17.3090  YZZ=              0.2062
  YYZ=             -0.0123  XYZ=              0.0000
 Hexadecapole moment (field-independent basis, Debye-Ang**3):
 XXXX=           -120.3096 YYYY=            -18.0375 ZZZZ=            -18.0464 XXXY=             -0.5939
 XXXZ=              0.0398 YYYX=             -0.5957 YYYZ=              0.0004 ZZZX=              0.0388
 ZZZY=              0.0012 XXYY=            -23.0687 XXZZ=            -23.0707 YYZZ=             -6.0131
 XXYZ=              0.0002 YYXZ=              0.0125 ZZXY=             -0.1975
 N-N= 0.000000000000D+00 E-N=-6.579050085741D+03  KE= 2.749515933055D+03
 No NMR shielding tensors so no spin-rotation constants.
 Leave Link  601 at Fri May  8 12:27:16 2020, MaxMem= 1073741824 cpu:       0.8
 (Enter /home/matheus/.gaussian/g09/l122.exe)
 Counterpoise: doing MCBS calculation for fragment   1
 Leave Link  122 at Fri May  8 12:27:16 2020, MaxMem= 1073741824 cpu:       0.0
 (Enter /home/matheus/.gaussian/g09/l301.exe)
 Basis read from rwf:  (5D, 7F)
 No pseudopotential information found on rwf file.
 There are   138 symmetry adapted basis functions of A   symmetry.
 Integral buffers will be    131072 words long.
 Raffenetti 2 integral format.
 Two-electron integral symmetry is turned on.
   138 basis functions,   198 primitive gaussians,   160 cartesian basis functions
     9 alpha electrons        9 beta electrons
       nuclear repulsion energy        36.6212539076 Hartrees.
 IExCor=32609 DFT=T Ex+Corr=LC-wPBE ExCW=0 ScaHFX=  1.000000
 ScaDFX=  1.000000  0.000000  1.000000  1.000000 ScalE2=  1.000000  1.000000
 IRadAn=      5 IRanWt=     -1 IRanGd=            0 ICorTp=0
  HFx wShort=  0.000000 wLong=  0.550000 cFull=  0.000000 cShort=  0.000000 cLong=  1.000000
  DFx wShort=  0.000000 wLong=  0.550000 cFull=  0.000000 cShort=  0.000000 cLong=  1.000000
 NAtoms=    5 NActive=    4 NUniq=    4 SFac= 1.00D+00 NAtFMM=   60 NAOKFM=F Big=F
 No density basis found on file   718.
 Leave Link  301 at Fri May  8 12:27:16 2020, MaxMem= 1073741824 cpu:       0.3
 (Enter /home/matheus/.gaussian/g09/l302.exe)
 NPDir=0 NMtPBC=     1 NCelOv=     1 NCel=       1 NClECP=     1 NCelD=      1
         NCelK=      1 NCelE2=     1 NClLst=     1 CellRange=     0.0.
 One-electron integrals computed using PRISM.
 NBasis=   138 RedAO= T  NBF=   138
 NBsUse=   138 1.00D-06 NBFU=   138
 Precomputing XC quadrature grid using
 IXCGrd= 2 IRadAn=           5 IRanWt=          -1 IRanGd=           0 AccXCQ= 0.00D+00.
 NRdTot=     344 NPtTot=       92556 NUsed=       95038 NTot=       95070
 NSgBfM=   160   160   160   160   160 NAtAll=     4     4.
 Leave Link  302 at Fri May  8 12:27:16 2020, MaxMem= 1073741824 cpu:       1.3
 (Enter /home/matheus/.gaussian/g09/l303.exe)
 DipDrv:  MaxL=1.
 Leave Link  303 at Fri May  8 12:27:16 2020, MaxMem= 1073741824 cpu:       0.2
 (Enter /home/matheus/.gaussian/g09/l401.exe)
 Harris functional with IExCor=32609 diagonalized for initial guess.
 ExpMin= 2.53D-02 ExpMax= 1.53D+04 ExpMxC= 5.22D+02 IAcc=3 IRadAn=         5 AccDes= 0.00D+00
 HarFok:  IExCor=32609 AccDes= 0.00D+00 IRadAn=         5 IDoV= 1
 ScaDFX=  1.000000  1.000000  1.000000  1.000000
 FoFCou: FMM=F IPFlag=           0 FMFlag=      100000 FMFlg1=           0
         NFxFlg=           0 DoJE=T BraDBF=F KetDBF=T FulRan=T
         Omega=  0.000000  0.000000  1.000000  0.000000  0.000000 ICntrl=     500 IOpCl=  0
         NMat0=    1 NMatS0=    1 NMatT0=    0 NMatD0=    1 NMtDS0=    0 NMtDT0=    0
         I1Cent=           4 NGrid=           0.
 Petite list used in FoFCou.
 Harris En= -151.502636081728    
 Initial guess orbital symmetries:
       Occupied  (A) (A) (A) (A) (A) (A) (A) (A) (A)
       Virtual   (A) (A) (A) (A) (A) (A) (A) (A) (A) (A) (A) (A)
                 (A) (A) (A) (A) (A) (A) (A) (A) (A) (A) (A) (A)
                 (A) (A) (A) (A) (A) (A) (A) (A) (A) (A) (A) (A)
                 (A) (A) (A) (A) (A) (A) (A) (A) (A) (A) (A) (A)
                 (A) (A) (A) (A) (A) (A) (A) (A) (A) (A) (A) (A)
                 (A) (A) (A) (A) (A) (A) (A) (A) (A) (A) (A) (A)
                 (A) (A) (A) (A) (A) (A) (A) (A) (A) (A) (A) (A)
                 (A) (A) (A) (A) (A) (A) (A) (A) (A) (A) (A) (A)
                 (A) (A) (A) (A) (A) (A) (A) (A) (A) (A) (A) (A)
                 (A) (A) (A) (A) (A) (A) (A) (A) (A) (A) (A) (A)
                 (A) (A) (A) (A) (A) (A) (A) (A) (A)
 The electronic state of the initial guess is 1-A.
 Leave Link  401 at Fri May  8 12:27:17 2020, MaxMem= 1073741824 cpu:       2.7
 (Enter /home/matheus/.gaussian/g09/l502.exe)
 Closed shell SCF:
 Requested convergence on RMS density matrix=1.00D-08 within 128 cycles.
 Requested convergence on MAX density matrix=1.00D-06.
 Requested convergence on             energy=1.00D-06.
 No special actions if energy rises.
 Using DIIS extrapolation, IDIIS=  1040.
 Integral symmetry usage will be decided dynamically.
        94980 words used for storage of precomputed grid.
 IEnd=      192360 IEndB=      192360 NGot=  1073741824 MDV=  1073591865
 LenX=  1073591865 LenY=  1073565824
 Fock matrices will be formed incrementally for  20 cycles.

 Cycle   1  Pass 1  IDiag  1:
 FoFJK:  IHMeth= 1 ICntrl=     0 DoSepK=T KAlg= 1 I1Cent= 0 FoldK=F
 FoFCou: FMM=F IPFlag=           0 FMFlag=      100000 FMFlg1=           0
         NFxFlg=           0 DoJE=T BraDBF=F KetDBF=F FulRan=T
         Omega=  0.000000  0.000000  1.000000  0.000000  0.000000 ICntrl=     500 IOpCl=  0
         NMat0=    1 NMatS0=    1 NMatT0=    0 NMatD0=    1 NMtDS0=    0 NMtDT0=    0
         I1Cent=           0 NGrid=           0.
 Symmetry not used in FoFCou.
 E= -151.508769995943    
 DIIS: error= 1.67D-02 at cycle   1 NSaved=   1.
 NSaved= 1 IEnMin= 1 EnMin= -151.508769995943     IErMin= 1 ErrMin= 1.67D-02
 ErrMax= 1.67D-02 EMaxC= 1.00D-01 BMatC= 4.04D-02 BMatP= 4.04D-02
 IDIUse=3 WtCom= 8.33D-01 WtEn= 1.67D-01
 Coeff-Com:  0.100D+01
 Coeff-En:   0.100D+01
 Coeff:      0.100D+01
 Gap=     0.577 Goal=   None    Shift=    0.000
 GapD=    0.577 DampG=2.000 DampE=0.500 DampFc=1.0000 IDamp=-1.
 RMSDP=1.02D-03 MaxDP=2.38D-02              OVMax= 5.16D-02

 Cycle   2  Pass 1  IDiag  1:
 RMSU=  7.13D-04    CP:  9.89D-01
 FoFJK:  IHMeth= 1 ICntrl=     0 DoSepK=T KAlg= 1 I1Cent= 0 FoldK=F
 E= -151.525037031396     Delta-E=       -0.016267035453 Rises=F Damp=F
 DIIS: error= 9.42D-03 at cycle   2 NSaved=   2.
 NSaved= 2 IEnMin= 2 EnMin= -151.525037031396     IErMin= 2 ErrMin= 9.42D-03
 ErrMax= 9.42D-03 EMaxC= 1.00D-01 BMatC= 1.58D-02 BMatP= 4.04D-02
 IDIUse=3 WtCom= 9.06D-01 WtEn= 9.42D-02
 Coeff-Com:  0.371D+00 0.629D+00
 Coeff-En:   0.118D+00 0.882D+00
 Coeff:      0.347D+00 0.653D+00
 Gap=     0.496 Goal=   None    Shift=    0.000
 RMSDP=5.78D-04 MaxDP=2.22D-02 DE=-1.63D-02 OVMax= 2.27D-02

 Cycle   3  Pass 1  IDiag  1:
 RMSU=  3.45D-04    CP:  9.84D-01  6.98D-01
 FoFJK:  IHMeth= 1 ICntrl=     0 DoSepK=T KAlg= 1 I1Cent= 0 FoldK=F
 E= -151.533914948536     Delta-E=       -0.008877917140 Rises=F Damp=F
 DIIS: error= 2.29D-03 at cycle   3 NSaved=   3.
 NSaved= 3 IEnMin= 3 EnMin= -151.533914948536     IErMin= 3 ErrMin= 2.29D-03
 ErrMax= 2.29D-03 EMaxC= 1.00D-01 BMatC= 4.15D-04 BMatP= 1.58D-02
 IDIUse=3 WtCom= 9.77D-01 WtEn= 2.29D-02
 Coeff-Com:  0.399D-01 0.160D+00 0.800D+00
 Coeff-En:   0.000D+00 0.000D+00 0.100D+01
 Coeff:      0.390D-01 0.156D+00 0.805D+00
 Gap=     0.489 Goal=   None    Shift=    0.000
 RMSDP=8.11D-05 MaxDP=1.96D-03 DE=-8.88D-03 OVMax= 4.11D-03

 Cycle   4  Pass 1  IDiag  1:
 RMSU=  3.92D-05    CP:  9.83D-01  7.50D-01  1.02D+00
 FoFJK:  IHMeth= 1 ICntrl=     0 DoSepK=T KAlg= 1 I1Cent= 0 FoldK=F
 E= -151.534178613130     Delta-E=       -0.000263664594 Rises=F Damp=F
 DIIS: error= 2.71D-04 at cycle   4 NSaved=   4.
 NSaved= 4 IEnMin= 4 EnMin= -151.534178613130     IErMin= 4 ErrMin= 2.71D-04
 ErrMax= 2.71D-04 EMaxC= 1.00D-01 BMatC= 1.00D-05 BMatP= 4.15D-04
 IDIUse=3 WtCom= 9.97D-01 WtEn= 2.71D-03
 Coeff-Com: -0.931D-02-0.128D-01 0.886D-01 0.934D+00
 Coeff-En:   0.000D+00 0.000D+00 0.000D+00 0.100D+01
 Coeff:     -0.929D-02-0.127D-01 0.883D-01 0.934D+00
 Gap=     0.490 Goal=   None    Shift=    0.000
 RMSDP=2.12D-05 MaxDP=9.25D-04 DE=-2.64D-04 OVMax= 8.26D-04

 Cycle   5  Pass 1  IDiag  1:
 RMSU=  6.32D-06    CP:  9.82D-01  7.51D-01  1.06D+00  1.06D+00
 FoFJK:  IHMeth= 1 ICntrl=     0 DoSepK=T KAlg= 1 I1Cent= 0 FoldK=F
 E= -151.534187490265     Delta-E=       -0.000008877134 Rises=F Damp=F
 DIIS: error= 6.07D-05 at cycle   5 NSaved=   5.
 NSaved= 5 IEnMin= 5 EnMin= -151.534187490265     IErMin= 5 ErrMin= 6.07D-05
 ErrMax= 6.07D-05 EMaxC= 1.00D-01 BMatC= 2.30D-07 BMatP= 1.00D-05
 IDIUse=1 WtCom= 1.00D+00 WtEn= 0.00D+00
 Coeff-Com: -0.354D-03-0.221D-02-0.357D-01-0.124D+00 0.116D+01
 Coeff:     -0.354D-03-0.221D-02-0.357D-01-0.124D+00 0.116D+01
 Gap=     0.490 Goal=   None    Shift=    0.000
 RMSDP=5.25D-06 MaxDP=1.20D-04 DE=-8.88D-06 OVMax= 3.53D-04

 Cycle   6  Pass 1  IDiag  1:
 RMSU=  1.64D-06    CP:  9.82D-01  7.52D-01  1.07D+00  1.12D+00  1.33D+00
 FoFJK:  IHMeth= 1 ICntrl=     0 DoSepK=T KAlg= 1 I1Cent= 0 FoldK=F
 E= -151.534188107151     Delta-E=       -0.000000616886 Rises=F Damp=F
 DIIS: error= 1.28D-05 at cycle   6 NSaved=   6.
 NSaved= 6 IEnMin= 6 EnMin= -151.534188107151     IErMin= 6 ErrMin= 1.28D-05
 ErrMax= 1.28D-05 EMaxC= 1.00D-01 BMatC= 1.27D-08 BMatP= 2.30D-07
 IDIUse=1 WtCom= 1.00D+00 WtEn= 0.00D+00
 Coeff-Com:  0.301D-03 0.872D-03 0.406D-02-0.455D-02-0.212D+00 0.121D+01
 Coeff:      0.301D-03 0.872D-03 0.406D-02-0.455D-02-0.212D+00 0.121D+01
[...]
 Coeff-En:   0.100D+01
 Coeff:      0.100D+01
 Gap=     0.555 Goal=   None    Shift=    0.000
 RMSDP=1.66D-05 MaxDP=8.43D-04              OVMax= 3.03D-04

 Cycle   2  Pass 1  IDiag  1:
 RMSU=  1.17D-05    CP:  1.00D+00
 FoFJK:  IHMeth= 1 ICntrl=     0 DoSepK=T KAlg= 1 I1Cent= 0 FoldK=F
 E= -2753.47778050099     Delta-E=       -0.000000539544 Rises=F Damp=F
 DIIS: error= 3.74D-06 at cycle   2 NSaved=   2.
 NSaved= 2 IEnMin= 2 EnMin= -2753.47778050099     IErMin= 2 ErrMin= 3.74D-06
 ErrMax= 3.74D-06 EMaxC= 1.00D-01 BMatC= 3.68D-09 BMatP= 4.77D-06
 IDIUse=1 WtCom= 1.00D+00 WtEn= 0.00D+00
 Coeff-Com: -0.803D-02 0.101D+01
 Coeff:     -0.803D-02 0.101D+01
 Gap=     0.555 Goal=   None    Shift=    0.000
 RMSDP=1.75D-06 MaxDP=7.12D-05 DE=-5.40D-07 OVMax= 4.53D-05

 Cycle   3  Pass 1  IDiag  1:
 RMSU=  5.47D-07    CP:  1.00D+00  1.09D+00
 FoFJK:  IHMeth= 1 ICntrl=     0 DoSepK=T KAlg= 1 I1Cent= 0 FoldK=F
 E= -2753.47778050743     Delta-E=       -0.000000006438 Rises=F Damp=F
 DIIS: error= 6.00D-07 at cycle   3 NSaved=   3.
 NSaved= 3 IEnMin= 3 EnMin= -2753.47778050743     IErMin= 3 ErrMin= 6.00D-07
 ErrMax= 6.00D-07 EMaxC= 1.00D-01 BMatC= 9.11D-11 BMatP= 3.68D-09
 IDIUse=1 WtCom= 1.00D+00 WtEn= 0.00D+00
 Coeff-Com:  0.326D-03-0.127D+00 0.113D+01
 Coeff:      0.326D-03-0.127D+00 0.113D+01
 Gap=     0.555 Goal=   None    Shift=    0.000
 RMSDP=2.18D-07 MaxDP=9.50D-06 DE=-6.44D-09 OVMax= 9.01D-06

 Cycle   4  Pass 1  IDiag  1:
 RMSU=  5.00D-08    CP:  1.00D+00  1.10D+00  1.19D+00
 FoFJK:  IHMeth= 1 ICntrl=     0 DoSepK=T KAlg= 1 I1Cent= 0 FoldK=F
 E= -2753.47778050760     Delta-E=       -0.000000000167 Rises=F Damp=F
 DIIS: error= 2.72D-07 at cycle   4 NSaved=   4.
 NSaved= 4 IEnMin= 4 EnMin= -2753.47778050760     IErMin= 4 ErrMin= 2.72D-07
 ErrMax= 2.72D-07 EMaxC= 1.00D-01 BMatC= 7.36D-12 BMatP= 9.11D-11
 IDIUse=1 WtCom= 1.00D+00 WtEn= 0.00D+00
 Coeff-Com:  0.180D-03-0.441D-01 0.267D+00 0.777D+00
 Coeff:      0.180D-03-0.441D-01 0.267D+00 0.777D+00
 Gap=     0.555 Goal=   None    Shift=    0.000
 RMSDP=1.65D-08 MaxDP=6.99D-07 DE=-1.67D-10 OVMax= 8.14D-07

 Cycle   5  Pass 1  IDiag  1:
 RMSU=  7.54D-09    CP:  1.00D+00  1.10D+00  1.20D+00  1.12D+00
 FoFJK:  IHMeth= 1 ICntrl=     0 DoSepK=T KAlg= 1 I1Cent= 0 FoldK=F
 E= -2753.47778050761     Delta-E=       -0.000000000018 Rises=F Damp=F
 DIIS: error= 3.52D-08 at cycle   5 NSaved=   5.
 NSaved= 5 IEnMin= 5 EnMin= -2753.47778050761     IErMin= 5 ErrMin= 3.52D-08
 ErrMax= 3.52D-08 EMaxC= 1.00D-01 BMatC= 2.53D-13 BMatP= 7.36D-12
 IDIUse=1 WtCom= 1.00D+00 WtEn= 0.00D+00
 Coeff-Com: -0.106D-04 0.576D-02-0.544D-01 0.144D-01 0.103D+01
 Coeff:     -0.106D-04 0.576D-02-0.544D-01 0.144D-01 0.103D+01
 Gap=     0.555 Goal=   None    Shift=    0.000
 RMSDP=7.57D-09 MaxDP=4.34D-07 DE=-1.82D-11 OVMax= 3.74D-07

 SCF Done:  E(RLC-wPBE) =  -2753.47778051     A.U. after    5 cycles
             Convg  =    0.7572D-08             -V/T =  2.0014
 KE= 2.749555085435D+03 PE=-6.579093002918D+03 EE= 1.076060136976D+03
 Leave Link  502 at Fri May  8 12:52:21 2020, MaxMem= 1073741824 cpu:      88.4
 (Enter /home/matheus/.gaussian/g09/l122.exe)
 Restoring MOs from calculation   4 to rwf.
 Counterpoise: doing MCBS calculation for fragment   1
 Leave Link  122 at Fri May  8 12:52:21 2020, MaxMem= 1073741824 cpu:       0.0
 (Enter /home/matheus/.gaussian/g09/l301.exe)
 Basis read from rwf:  (5D, 7F)
 No pseudopotential information found on rwf file.
 There are   138 symmetry adapted basis functions of A   symmetry.
 Integral buffers will be    131072 words long.
 Raffenetti 2 integral format.
 Two-electron integral symmetry is turned on.
   138 basis functions,   198 primitive gaussians,   160 cartesian basis functions
     9 alpha electrons        9 beta electrons
       nuclear repulsion energy        36.6212539076 Hartrees.
 IExCor=32609 DFT=T Ex+Corr=LC-wPBE ExCW=0 ScaHFX=  1.000000
 ScaDFX=  1.000000  0.000000  1.000000  1.000000 ScalE2=  1.000000  1.000000
 IRadAn=      5 IRanWt=     -1 IRanGd=            0 ICorTp=0
  HFx wShort=  0.000000 wLong=  0.550000 cFull=  0.000000 cShort=  0.000000 cLong=  1.000000
  DFx wShort=  0.000000 wLong=  0.550000 cFull=  0.000000 cShort=  0.000000 cLong=  1.000000
 NAtoms=    5 NActive=    4 NUniq=    4 SFac= 1.00D+00 NAtFMM=   60 NAOKFM=F Big=F
 No density basis found on file   718.
 Leave Link  301 at Fri May  8 12:52:21 2020, MaxMem= 1073741824 cpu:       0.2
 (Enter /home/matheus/.gaussian/g09/l302.exe)
 NPDir=0 NMtPBC=     1 NCelOv=     1 NCel=       1 NClECP=     1 NCelD=      1
         NCelK=      1 NCelE2=     1 NClLst=     1 CellRange=     0.0.
 One-electron integrals computed using PRISM.
 NBasis=   138 RedAO= T  NBF=   138
 NBsUse=   138 1.00D-06 NBFU=   138
 Precomputing XC quadrature grid using
 IXCGrd= 2 IRadAn=           5 IRanWt=          -1 IRanGd=           0 AccXCQ= 0.00D+00.
 NRdTot=     344 NPtTot=       92556 NUsed=       95038 NTot=       95070
 NSgBfM=   160   160   160   160   160 NAtAll=     4     4.
 Leave Link  302 at Fri May  8 12:52:21 2020, MaxMem= 1073741824 cpu:       0.7
 (Enter /home/matheus/.gaussian/g09/l303.exe)
 DipDrv:  MaxL=1.
 Leave Link  303 at Fri May  8 12:52:21 2020, MaxMem= 1073741824 cpu:       0.1
 (Enter /home/matheus/.gaussian/g09/l401.exe)
 Initial guess read from the read-write file.
 Guess basis will be translated and rotated to current coordinates.
 Initial guess orbital symmetries:
       Occupied  (A) (A) (A) (A) (A) (A) (A) (A) (A)
       Virtual   (A) (A) (A) (A) (A) (A) (A) (A) (A) (A) (A) (A)
                 (A) (A) (A) (A) (A) (A) (A) (A) (A) (A) (A) (A)
                 (A) (A) (A) (A) (A) (A) (A) (A) (A) (A) (A) (A)
                 (A) (A) (A) (A) (A) (A) (A) (A) (A) (A) (A) (A)
                 (A) (A) (A) (A) (A) (A) (A) (A) (A) (A) (A) (A)
                 (A) (A) (A) (A) (A) (A) (A) (A) (A) (A) (A) (A)
                 (A) (A) (A) (A) (A) (A) (A) (A) (A) (A) (A) (A)
                 (A) (A) (A) (A) (A) (A) (A) (A) (A) (A) (A) (A)
                 (A) (A) (A) (A) (A) (A) (A) (A) (A) (A) (A) (A)
                 (A) (A) (A) (A) (A) (A) (A) (A) (A) (A) (A) (A)
                 (A) (A) (A) (A) (A) (A) (A) (A) (A)
 The electronic state of the initial guess is 1-A.
 Generating alternative initial guess.
 Harris functional with IExCor=32609 diagonalized for initial guess.
 ExpMin= 2.53D-02 ExpMax= 1.53D+04 ExpMxC= 5.22D+02 IAcc=3 IRadAn=         5 AccDes= 0.00D+00
 HarFok:  IExCor=32609 AccDes= 0.00D+00 IRadAn=         5 IDoV= 1
 ScaDFX=  1.000000  1.000000  1.000000  1.000000
 FoFCou: FMM=F IPFlag=           0 FMFlag=      100000 FMFlg1=           0
         NFxFlg=           0 DoJE=T BraDBF=F KetDBF=T FulRan=T
         Omega=  0.000000  0.000000  1.000000  0.000000  0.000000 ICntrl=     500 IOpCl=  0
         NMat0=    1 NMatS0=    1 NMatT0=    0 NMatD0=    1 NMtDS0=    0 NMtDT0=    0
         I1Cent=           4 NGrid=           0.
 Petite list used in FoFCou.
 Harris En= -151.502636020807    
 Leave Link  401 at Fri May  8 12:52:21 2020, MaxMem= 1073741824 cpu:       2.3
 (Enter /home/matheus/.gaussian/g09/l502.exe)
 Closed shell SCF:
 Requested convergence on RMS density matrix=1.00D-08 within 128 cycles.
 Requested convergence on MAX density matrix=1.00D-06.
 Requested convergence on             energy=1.00D-06.
 No special actions if energy rises.
 Using DIIS extrapolation, IDIIS=  1040.
 Integral symmetry usage will be decided dynamically.
        94980 words used for storage of precomputed grid.
 IEnd=      192360 IEndB=      192360 NGot=  1073741824 MDV=  1073591865
 LenX=  1073591865 LenY=  1073565824
 Fock matrices will be formed incrementally for  20 cycles.

 Cycle   1  Pass 1  IDiag  1:
 FoFJK:  IHMeth= 1 ICntrl=     0 DoSepK=T KAlg= 1 I1Cent= 0 FoldK=F
 FoFCou: FMM=F IPFlag=           0 FMFlag=      100000 FMFlg1=           0
         NFxFlg=           0 DoJE=T BraDBF=F KetDBF=F FulRan=T
         Omega=  0.000000  0.000000  1.000000  0.000000  0.000000 ICntrl=     500 IOpCl=  0
         NMat0=    1 NMatS0=    1 NMatT0=    0 NMatD0=    1 NMtDS0=    0 NMtDT0=    0
         I1Cent=           0 NGrid=           0.
 Symmetry not used in FoFCou.
 E= -151.534188046507    
 DIIS: error= 1.21D-05 at cycle   1 NSaved=   1.
 NSaved= 1 IEnMin= 1 EnMin= -151.534188046507     IErMin= 1 ErrMin= 1.21D-05
 ErrMax= 1.21D-05 EMaxC= 1.00D-01 BMatC= 3.47D-08 BMatP= 3.47D-08
 IDIUse=1 WtCom= 1.00D+00 WtEn= 0.00D+00
 Coeff-Com:  0.100D+01
 Coeff:      0.100D+01
 Gap=     0.490 Goal=   None    Shift=    0.000
 RMSDP=1.10D-06 MaxDP=2.49D-05              OVMax= 4.94D-05

 Cycle   2  Pass 1  IDiag  1:
 RMSU=  7.75D-07    CP:  1.00D+00
 FoFJK:  IHMeth= 1 ICntrl=     0 DoSepK=T KAlg= 1 I1Cent= 0 FoldK=F
 E= -151.534188078262     Delta-E=       -0.000000031755 Rises=F Damp=F
 DIIS: error= 2.86D-06 at cycle   2 NSaved=   2.
 NSaved= 2 IEnMin= 2 EnMin= -151.534188078262     IErMin= 2 ErrMin= 2.86D-06
 ErrMax= 2.86D-06 EMaxC= 1.00D-01 BMatC= 1.47D-09 BMatP= 3.47D-08
 IDIUse=1 WtCom= 1.00D+00 WtEn= 0.00D+00
 Coeff-Com: -0.137D+00 0.114D+01
 Coeff:     -0.137D+00 0.114D+01
 Gap=     0.490 Goal=   None    Shift=    0.000
 RMSDP=3.52D-07 MaxDP=9.39D-06 DE=-3.18D-08 OVMax= 2.23D-05

 Cycle   3  Pass 1  IDiag  1:
 RMSU=  1.36D-07    CP:  1.00D+00  1.27D+00
 FoFJK:  IHMeth= 1 ICntrl=     0 DoSepK=T KAlg= 1 I1Cent= 0 FoldK=F
 E= -151.534188081502     Delta-E=       -0.000000003240 Rises=F Damp=F
 DIIS: error= 1.01D-06 at cycle   3 NSaved=   3.
 NSaved= 3 IEnMin= 3 EnMin= -151.534188081502     IErMin= 3 ErrMin= 1.01D-06
 ErrMax= 1.01D-06 EMaxC= 1.00D-01 BMatC= 1.81D-10 BMatP= 1.47D-09
 IDIUse=1 WtCom= 1.00D+00 WtEn= 0.00D+00
 Coeff-Com: -0.246D-01 0.117D-01 0.101D+01
 Coeff:     -0.246D-01 0.117D-01 0.101D+01
 Gap=     0.490 Goal=   None    Shift=    0.000
 RMSDP=1.20D-07 MaxDP=2.91D-06 DE=-3.24D-09 OVMax= 7.83D-06

 Cycle   4  Pass 1  IDiag  1:
 RMSU=  5.48D-08    CP:  1.00D+00  1.33D+00  1.31D+00
 FoFJK:  IHMeth= 1 ICntrl=     0 DoSepK=T KAlg= 1 I1Cent= 0 FoldK=F
 E= -151.534188081834     Delta-E=       -0.000000000332 Rises=F Damp=F
 DIIS: error= 7.22D-07 at cycle   4 NSaved=   4.
 NSaved= 4 IEnMin= 4 EnMin= -151.534188081834     IErMin= 4 ErrMin= 7.22D-07
 ErrMax= 7.22D-07 EMaxC= 1.00D-01 BMatC= 1.22D-10 BMatP= 1.81D-10
 IDIUse=1 WtCom= 1.00D+00 WtEn= 0.00D+00
 Coeff-Com:  0.110D-01-0.198D+00 0.529D+00 0.657D+00
 Coeff:      0.110D-01-0.198D+00 0.529D+00 0.657D+00
 Gap=     0.490 Goal=   None    Shift=    0.000
 RMSDP=5.51D-08 MaxDP=1.03D-06 DE=-3.32D-10 OVMax= 3.62D-06

 Cycle   5  Pass 1  IDiag  1:
 RMSU=  1.86D-08    CP:  1.00D+00  1.35D+00  1.52D+00  8.04D-01
 FoFJK:  IHMeth= 1 ICntrl=     0 DoSepK=T KAlg= 1 I1Cent= 0 FoldK=F
 E= -151.534188081954     Delta-E=       -0.000000000121 Rises=F Damp=F
 DIIS: error= 1.95D-07 at cycle   5 NSaved=   5.
 NSaved= 5 IEnMin= 5 EnMin= -151.534188081954     IErMin= 5 ErrMin= 1.95D-07
 ErrMax= 1.95D-07 EMaxC= 1.00D-01 BMatC= 4.57D-12 BMatP= 1.22D-10
 IDIUse=1 WtCom= 1.00D+00 WtEn= 0.00D+00
 Coeff-Com:  0.332D-02-0.102D-01-0.125D+00 0.228D-01 0.111D+01
 Coeff:      0.332D-02-0.102D-01-0.125D+00 0.228D-01 0.111D+01
 Gap=     0.490 Goal=   None    Shift=    0.000
 RMSDP=2.52D-08 MaxDP=5.12D-07 DE=-1.21D-10 OVMax= 2.30D-06

 Cycle   6  Pass 1  IDiag  1:
 RMSU=  6.11D-09    CP:  1.00D+00  1.36D+00  1.59D+00  9.58D-01  1.45D+00
 FoFJK:  IHMeth= 1 ICntrl=     0 DoSepK=T KAlg= 1 I1Cent= 0 FoldK=F
 E= -151.534188081969     Delta-E=       -0.000000000014 Rises=F Damp=F
 DIIS: error= 6.00D-08 at cycle   6 NSaved=   6.
 NSaved= 6 IEnMin= 6 EnMin= -151.534188081969     IErMin= 6 ErrMin= 6.00D-08
 ErrMax= 6.00D-08 EMaxC= 1.00D-01 BMatC= 4.01D-13 BMatP= 4.57D-12
 IDIUse=1 WtCom= 1.00D+00 WtEn= 0.00D+00
 Coeff-Com: -0.123D-02 0.196D-01-0.429D-01-0.605D-01-0.393D-01 0.112D+01
 Coeff:     -0.123D-02 0.196D-01-0.429D-01-0.605D-01-0.393D-01 0.112D+01
 Gap=     0.490 Goal=   None    Shift=    0.000
 RMSDP=9.12D-09 MaxDP=1.77D-07 DE=-1.44D-11 OVMax= 9.09D-07

 SCF Done:  E(RLC-wPBE) =  -151.534188082     A.U. after    6 cycles
             Convg  =    0.9123D-08             -V/T =  2.0071
 KE= 1.504695997712D+02 PE=-4.315509973433D+02 EE= 9.292595558260D+01
 Leave Link  502 at Fri May  8 12:52:27 2020, MaxMem= 1073741824 cpu:      44.2
 (Enter /home/matheus/.gaussian/g09/l122.exe)
 Restoring MOs from calculation   5 to rwf.
 Counterpoise: doing MCBS calculation for fragment   2
 Leave Link  122 at Fri May  8 12:52:27 2020, MaxMem= 1073741824 cpu:       0.0
 (Enter /home/matheus/.gaussian/g09/l301.exe)
 Basis read from rwf:  (5D, 7F)
 No pseudopotential information found on rwf file.
 There are    59 symmetry adapted basis functions of A   symmetry.
 Integral buffers will be    131072 words long.
 Raffenetti 2 integral format.
 Two-electron integral symmetry is turned on.
    59 basis functions,   217 primitive gaussians,    69 cartesian basis functions
    18 alpha electrons       18 beta electrons
       nuclear repulsion energy         0.0000000000 Hartrees.
 IExCor=32609 DFT=T Ex+Corr=LC-wPBE ExCW=0 ScaHFX=  1.000000
 ScaDFX=  1.000000  0.000000  1.000000  1.000000 ScalE2=  1.000000  1.000000
 IRadAn=      5 IRanWt=     -1 IRanGd=            0 ICorTp=0
  HFx wShort=  0.000000 wLong=  0.550000 cFull=  0.000000 cShort=  0.000000 cLong=  1.000000
  DFx wShort=  0.000000 wLong=  0.550000 cFull=  0.000000 cShort=  0.000000 cLong=  1.000000
 NAtoms=    5 NActive=    1 NUniq=    1 SFac= 1.00D+00 NAtFMM=   60 NAOKFM=F Big=F
 No density basis found on file   718.
 Leave Link  301 at Fri May  8 12:52:27 2020, MaxMem= 1073741824 cpu:       0.2
 (Enter /home/matheus/.gaussian/g09/l302.exe)
 NPDir=0 NMtPBC=     1 NCelOv=     1 NCel=       1 NClECP=     1 NCelD=      1
         NCelK=      1 NCelE2=     1 NClLst=     1 CellRange=     0.0.
 One-electron integrals computed using PRISM.
 NBasis=    59 RedAO= T  NBF=    59
 NBsUse=    59 1.00D-06 NBFU=    59
 Precomputing XC quadrature grid using
 IXCGrd= 2 IRadAn=           5 IRanWt=          -1 IRanGd=           0 AccXCQ= 0.00D+00.
 NRdTot=      81 NPtTot=       30352 NUsed=       30981 NTot=       31013
 NSgBfM=    69    69    69    69    69 NAtAll=     1     1.
 Leave Link  302 at Fri May  8 12:52:27 2020, MaxMem= 1073741824 cpu:       0.6
 (Enter /home/matheus/.gaussian/g09/l303.exe)
 DipDrv:  MaxL=1.
 Leave Link  303 at Fri May  8 12:52:27 2020, MaxMem= 1073741824 cpu:       0.1
 (Enter /home/matheus/.gaussian/g09/l401.exe)
 Initial guess read from the read-write file.
 Guess basis will be translated and rotated to current coordinates.
 Initial guess orbital symmetries:
       Occupied  (A) (A) (A) (A) (A) (A) (A) (A) (A) (A) (A) (A)
                 (A) (A) (A) (A) (A) (A)
       Virtual   (A) (A) (A) (A) (A) (A) (A) (A) (A) (A) (A) (A)
                 (A) (A) (A) (A) (A) (A) (A) (A) (A) (A) (A) (A)
                 (A) (A) (A) (A) (A) (A) (A) (A) (A) (A) (A) (A)
                 (A) (A) (A) (A) (A)
 The electronic state of the initial guess is 1-A.
 Generating alternative initial guess.
 Harris functional with IExCor=32609 diagonalized for initial guess.
 ExpMin= 4.00D-02 ExpMax= 1.17D+07 ExpMxC= 1.33D+04 IAcc=3 IRadAn=         5 AccDes= 0.00D+00
 HarFok:  IExCor=32609 AccDes= 0.00D+00 IRadAn=         5 IDoV= 1
 ScaDFX=  1.000000  1.000000  1.000000  1.000000
 FoFCou: FMM=F IPFlag=           0 FMFlag=      100000 FMFlg1=           0
         NFxFlg=           0 DoJE=T BraDBF=F KetDBF=T FulRan=T
         Omega=  0.000000  0.000000  1.000000  0.000000  0.000000 ICntrl=     500 IOpCl=  0
         NMat0=    1 NMatS0=    1 NMatT0=    0 NMatD0=    1 NMtDS0=    0 NMtDT0=    0
         I1Cent=           4 NGrid=           0.
 Petite list used in FoFCou.
 Harris En= -2753.24576836237    
 Leave Link  401 at Fri May  8 12:52:27 2020, MaxMem= 1073741824 cpu:       1.1
 (Enter /home/matheus/.gaussian/g09/l502.exe)
 Closed shell SCF:
 Requested convergence on RMS density matrix=1.00D-08 within 128 cycles.
 Requested convergence on MAX density matrix=1.00D-06.
 Requested convergence on             energy=1.00D-06.
 No special actions if energy rises.
 Using DIIS extrapolation, IDIIS=  1040.
 Integral symmetry usage will be decided dynamically.
        30923 words used for storage of precomputed grid.
 IEnd=       64406 IEndB=       64406 NGot=  1073741824 MDV=  1073698889
 LenX=  1073698889 LenY=  1073693687
 Fock matrices will be formed incrementally for  20 cycles.

 Cycle   1  Pass 1  IDiag  1:
 FoFJK:  IHMeth= 1 ICntrl=     0 DoSepK=T KAlg= 1 I1Cent= 0 FoldK=F
 FoFCou: FMM=F IPFlag=           0 FMFlag=      100000 FMFlg1=           0
         NFxFlg=           0 DoJE=T BraDBF=F KetDBF=F FulRan=T
         Omega=  0.000000  0.000000  1.000000  0.000000  0.000000 ICntrl=     500 IOpCl=  0
         NMat0=    1 NMatS0=    1 NMatT0=    0 NMatD0=    1 NMtDS0=    0 NMtDT0=    0
         I1Cent=           0 NGrid=           0.
 Symmetry not used in FoFCou.
 E= -2753.47775989058    
 DIIS: error= 6.02D-14 at cycle   1 NSaved=   1.
 NSaved= 1 IEnMin= 1 EnMin= -2753.47775989058     IErMin= 1 ErrMin= 6.02D-14
 ErrMax= 6.02D-14 EMaxC= 1.00D-01 BMatC= 2.17D-25 BMatP= 2.17D-25
 IDIUse=1 WtCom= 1.00D+00 WtEn= 0.00D+00
 Coeff-Com:  0.100D+01
 Coeff:      0.100D+01
 Gap=     0.626 Goal=   None    Shift=    0.000
 RMSDP=9.00D-15 MaxDP=9.89D-14              OVMax= 1.79D-13

 SCF Done:  E(RLC-wPBE) =  -2753.47775989     A.U. after    1 cycles
             Convg  =    0.9001D-14             -V/T =  2.0014
 KE= 2.749561508178D+03 PE=-6.579099712888D+03 EE= 1.076060444820D+03
 Leave Link  502 at Fri May  8 12:52:28 2020, MaxMem= 1073741824 cpu:      11.1
 (Enter /home/matheus/.gaussian/g09/l122.exe)
 Restoring MOs from calculation   1 to rwf.
 Counterpoise: corrected energy =   -2905.011975886544
 Counterpoise: BSSE energy =       0.000024322601
 Leave Link  122 at Fri May  8 12:52:28 2020, MaxMem= 1073741824 cpu:       0.0
 (Enter /home/matheus/.gaussian/g09/l108.exe)
 Scan completed.

 Summary of the potential surface scan:
   N      R1          SCF    
 ----  ---------  -----------
    1     3.0000  -2753.47776
    2     3.1000  -2753.47776
    3     3.2000  -2753.47776
    4     3.3000  -2753.47776
    5     3.4000  -2753.47776
    6     3.5000  -2753.47776
    7     3.6000  -2753.47776
    8     3.7000  -2753.47776
    9     3.8000  -2753.47776
   10     3.9000  -2753.47776
   11     4.0000  -2753.47776
   12     4.1000  -2753.47776
   13     4.2000  -2753.47776
   14     4.3000  -2753.47776
   15     4.4000  -2753.47776
   16     4.5000  -2753.47776
   17     4.6000  -2753.47776
   18     4.7000  -2753.47776
   19     4.8000  -2753.47776
   20     4.9000  -2753.47776
   21     5.0000  -2753.47776
 ----  ---------  -----------
  
 Leave Link  108 at Fri May  8 12:52:28 2020, MaxMem= 1073741824 cpu:       0.0
 (Enter /home/matheus/.gaussian/g09/l9999.exe)

 Test job not archived.
 1\1\GINC-REDGIANT\Scan\RLC-wPBE\Aug-CC-pVTZ\H2Kr1O2\MATHEUS\08-May-202
 0\1\\#p lc-wpbe/aug-cc-PVTz iop(3/107=0550000000) iop(3/108=0550000000
 ) int=ultrafine counterpoise=2 Scan\\TCC\\0,1\O,0,0.,0.,0.725\O,0,0.,0
 .,-0.725\H,0,0.9047631646,-0.1595341571,1.0235104166\H,0,0.,0.91872059
 47,-1.0235104166\Kr,0,0.,R1,0.\\R1=3.,s,20,0.1\\Version=EM64L-G09RevC.
 01\State=1-A\HF=-2753.4777599,-2753.4777599,-2753.4777599,-2753.477759
 9,-2753.4777599,-2753.4777599,-2753.4777599,-2753.4777599,-2753.477759
 9,-2753.4777599,-2753.4777599,-2753.4777599,-2753.4777599,-2753.477759
 9,-2753.4777599,-2753.4777599,-2753.4777599,-2753.4777599,-2753.477759
 9,-2753.4777599,-2753.4777599\RMSD=1.997e-09,5.419e-11,1.021e-11,4.446
 e-12,2.201e-12,1.230e-12,6.735e-13,3.800e-13,2.114e-13,1.138e-13,6.090
 e-14,3.505e-14,2.037e-14,1.288e-14,7.207e-15,7.548e-15,1.074e-14,1.103
 e-14,5.156e-15,7.772e-15,9.001e-15\PG=C01 [X(H2Kr1O2)]\\@


 IT IS A SIMPLE TASK TO MAKE THINGS COMPLEX,
 BUT A COMPLEX TASK TO MAKE THEM SIMPLE.
 Job cpu time:  0 days  3 hours 36 minutes 28.4 seconds.
 File lengths (MBytes):  RWF=     33 Int=      0 D2E=      0 Chk=      8 Scr=      1
 Normal termination of Gaussian 09 at Fri May  8 12:52:28 2020.
