 Entering Gaussian System, Link 0=g09
 Input=/home/matheus/.tcc/Inputs-lc-wpbe/H2O2-Kr_7.com
 Output=/home/matheus/.tcc/Logs-lc-wpbe/H2O2-Kr_7.log
 Initial command:
 /home/matheus/.gaussian/g09/l1.exe /home/matheus/.gaussian/g09/scratch/Gau-5378.inp -scrdir=/home/matheus/.gaussian/g09/scratch/
 Entering Link 1 = /home/matheus/.gaussian/g09/l1.exe PID=      5381.
  
 Copyright (c) 1988,1990,1992,1993,1995,1998,2003,2009,2011,
            Gaussian, Inc.  All Rights Reserved.
  
 This is part of the Gaussian(R) 09 program.  It is based on
 the Gaussian(R) 03 system (copyright 2003, Gaussian, Inc.),
 the Gaussian(R) 98 system (copyright 1998, Gaussian, Inc.),
 the Gaussian(R) 94 system (copyright 1995, Gaussian, Inc.),
 the Gaussian 92(TM) system (copyright 1992, Gaussian, Inc.),
 the Gaussian 90(TM) system (copyright 1990, Gaussian, Inc.),
 the Gaussian 88(TM) system (copyright 1988, Gaussian, Inc.),
 the Gaussian 86(TM) system (copyright 1986, Carnegie Mellon
 University), and the Gaussian 82(TM) system (copyright 1983,
 Carnegie Mellon University). Gaussian is a federally registered
 trademark of Gaussian, Inc.
  
 This software contains proprietary and confidential information,
 including trade secrets, belonging to Gaussian, Inc.
  
 This software is provided under written license and may be
 used, copied, transmitted, or stored only in accord with that
 written license.
  
 The following legend is applicable only to US Government
 contracts under FAR:
  
                    RESTRICTED RIGHTS LEGEND
  
 Use, reproduction and disclosure by the US Government is
 subject to restrictions as set forth in subparagraphs (a)
 and (c) of the Commercial Computer Software - Restricted
 Rights clause in FAR 52.227-19.
  
 Gaussian, Inc.
 340 Quinnipiac St., Bldg. 40, Wallingford CT 06492
  
  
 ---------------------------------------------------------------
 Warning -- This program may not be used in any manner that
 competes with the business of Gaussian, Inc. or will provide
 assistance to any competitor of Gaussian, Inc.  The licensee
 of this program is prohibited from giving any competitor of
 Gaussian, Inc. access to this program.  By using this program,
 the user acknowledges that Gaussian, Inc. is engaged in the
 business of creating and licensing software in the field of
 computational chemistry and represents and warrants to the
 licensee that it is not a competitor of Gaussian, Inc. and that
 it will not use this program in any manner prohibited above.
 ---------------------------------------------------------------
  

 Cite this work as:
 Gaussian 09, Revision C.01,
 M. J. Frisch, G. W. Trucks, H. B. Schlegel, G. E. Scuseria, 
 M. A. Robb, J. R. Cheeseman, G. Scalmani, V. Barone, B. Mennucci, 
 G. A. Petersson, H. Nakatsuji, M. Caricato, X. Li, H. P. Hratchian, 
 A. F. Izmaylov, J. Bloino, G. Zheng, J. L. Sonnenberg, M. Hada, 
 M. Ehara, K. Toyota, R. Fukuda, J. Hasegawa, M. Ishida, T. Nakajima, 
 Y. Honda, O. Kitao, H. Nakai, T. Vreven, J. A. Montgomery, Jr., 
 J. E. Peralta, F. Ogliaro, M. Bearpark, J. J. Heyd, E. Brothers, 
 K. N. Kudin, V. N. Staroverov, T. Keith, R. Kobayashi, J. Normand, 
 K. Raghavachari, A. Rendell, J. C. Burant, S. S. Iyengar, J. Tomasi, 
 M. Cossi, N. Rega, J. M. Millam, M. Klene, J. E. Knox, J. B. Cross, 
 V. Bakken, C. Adamo, J. Jaramillo, R. Gomperts, R. E. Stratmann, 
 O. Yazyev, A. J. Austin, R. Cammi, C. Pomelli, J. W. Ochterski, 
 R. L. Martin, K. Morokuma, V. G. Zakrzewski, G. A. Voth, 
 P. Salvador, J. J. Dannenberg, S. Dapprich, A. D. Daniels, 
 O. Farkas, J. B. Foresman, J. V. Ortiz, J. Cioslowski, 
 and D. J. Fox, Gaussian, Inc., Wallingford CT, 2010.
 
 ******************************************
 Gaussian 09:  EM64L-G09RevC.01 23-Sep-2011
                 8-May-2020 
 ******************************************
 %mem=8GB
 %nproc=8
 Will use up to    8 processors via shared memory.
 ----------------------------------------------------------------------
 #p lc-wpbe/aug-cc-PVTz iop(3/107=0550000000) iop(3/108=0550000000) int
 =ultrafine counterpoise=2 Scan
 ----------------------------------------------------------------------
 1/38=1,60=1,62=2/1,8;
 2/12=2,17=6,18=5,29=3,40=1/2;
 1/38=1,53=5172,62=2/22;
 3/5=16,6=1,7=10,11=2,16=1,25=1,30=1,74=-41,75=-5,107=550000000,108=550000000/1,2,3;
 4//1;
 5/5=2,38=5/2;
 6/7=2,8=2,9=2,10=2,18=1,28=1/1;
 1/53=4052,62=2,63=1/22;
 3/5=7,6=11,7=10,11=2,16=1,25=1,30=1,74=-41,75=-5,82=7,107=550000000,108=550000000/1,2,3;
 4//1;
 5/5=2,38=5/2;
 6/7=2,8=2,9=2,10=2,18=1,28=1/1;
 1/53=3042,62=2,63=2/22;
 3/5=7,6=11,7=10,11=2,16=1,25=1,30=1,74=-41,75=-5,82=7,107=550000000,108=550000000/1,2,3;
 4//1;
 5/5=2,38=5/2;
 6/7=2,8=2,9=2,10=2,18=1,28=1/1;
 1/53=2032,62=2,63=3/22;
 3/5=7,6=11,7=10,11=2,16=1,25=1,30=1,74=-41,75=-5,82=7,107=550000000,108=550000000/1,2,3;
 4//1;
 5/5=2,38=5/2;
 6/7=2,8=2,9=2,10=2,18=1,28=1/1;
 1/53=1022,62=2,63=4/22;
 3/5=7,6=11,7=10,11=2,16=1,25=1,30=1,74=-41,75=-5,82=7,107=550000000,108=550000000/1,2,3;
 4//1;
 5/5=2,38=5/2;
 6/7=2,8=2,9=2,10=2,18=1,28=1/1;
 1/53=5014,62=2,63=5/22;
 1/60=1,62=2/8(1);
 99/9=1/99;
 2/29=3/2;
 1/53=5173,62=2/22;
 3/5=7,6=11,7=10,11=2,16=1,25=1,30=1,74=-41,75=-5,82=7,107=550000000,108=550000000/1,2,3;
 4/5=5,16=3/1;
 5/5=2,38=5/2;
 1/53=4053,62=2,63=1/22;
 3/5=7,6=11,7=10,11=2,16=1,25=1,30=1,74=-41,75=-5,82=7,107=550000000,108=550000000/1,2,3;
 4/5=5,16=3/1;
 5/5=2,38=5/2;
 1/53=3043,62=2,63=2/22;
 3/5=7,6=11,7=10,11=2,16=1,25=1,30=1,74=-41,75=-5,82=7,107=550000000,108=550000000/1,2,3;
 4/5=5,16=3/1;
 5/5=2,38=5/2;
 1/53=2033,62=2,63=3/22;
 3/5=7,6=11,7=10,11=2,16=1,25=1,30=1,74=-41,75=-5,82=7,107=550000000,108=550000000/1,2,3;
 4/5=5,16=3/1;
 5/5=2,38=5/2;
 1/53=1024,62=2,63=4/22;
 3/5=7,6=11,7=10,11=2,16=1,25=1,30=1,74=-41,75=-5,82=7,107=550000000,108=550000000/1,2,3;
 4/5=5,16=3/1;
 5/5=2,38=5/2;
 1/53=5014,62=2,63=5/22;
 1/60=1,62=2/8(-22);
 99/9=1/99;
 Leave Link    1 at Fri May  8 10:55:27 2020, MaxMem= 1073741824 cpu:       0.2
 (Enter /home/matheus/.gaussian/g09/l101.exe)
 ---
 TCC
 ---
 Charge =  0 Multiplicity = 1 in supermolecule
 Charge =  0 Multiplicity = 1 in fragment  1.
 Charge =  0 Multiplicity = 1 in fragment  2.
 Symbolic Z-Matrix:
 O(Fragment=1)         0.        0.        0.725 
 O(Fragment=1)         0.        0.       -0.725 
 H(Fragment=1)         0.86331   0.31422   1.02351 
 H(Fragment=1)         0.        0.91872  -1.02351 
 Kr(Fragment=2)        0.       R1        0. 
       Variables:
  R1                    3.     Scan 20    0.1    
 
 NAtoms=      5 NQM=        0 NQMF=       0 NMMI=      5 NMMIF=      0
                NMic=       0 NMicF=      0.
                    Isotopes and Nuclear Properties:
 (Nuclear quadrupole moments (NQMom) in fm**2, nuclear magnetic moments (NMagM)
  in nuclear magnetons)

  Atom         1           2           3           4           5
 IAtWgt=          16          16           1           1          84
 AtmWgt=  15.9949146  15.9949146   1.0078250   1.0078250  83.9115064
 NucSpn=           0           0           1           1           0
 AtZEff=   0.0000000   0.0000000   0.0000000   0.0000000   0.0000000
 NQMom=    0.0000000   0.0000000   0.0000000   0.0000000   0.0000000
 NMagM=    0.0000000   0.0000000   2.7928460   2.7928460   0.0000000
 Leave Link  101 at Fri May  8 10:55:27 2020, MaxMem= 1073741824 cpu:       0.4
 (Enter /home/matheus/.gaussian/g09/l108.exe)
 Scan the potential surface.
 Variable   Value     No. Steps Step-Size
 -------- ----------- --------- ---------
     1       3.000000      20      0.1000
 A total of     21 points will be computed.
 Leave Link  108 at Fri May  8 10:55:27 2020, MaxMem= 1073741824 cpu:       0.0
 (Enter /home/matheus/.gaussian/g09/l202.exe)
 ---------------------------------------------------------------------------------------------------
                            Z-MATRIX (ANGSTROMS AND DEGREES)
   CD    Cent   Atom    N1       Length/X        N2       Alpha/Y        N3        Beta/Z          J
 ---------------------------------------------------------------------------------------------------
      1      1  O        0   0.000000          0.000000          0.725000
      2      2  O        0   0.000000          0.000000         -0.725000
      3      3  H        0   0.863315          0.314221          1.023510
      4      4  H        0   0.000000          0.918721         -1.023510
      5      5  Kr       0   0.000000          3.000000          0.000000
 ---------------------------------------------------------------------------------------------------
                         Z-Matrix orientation:                         
 ---------------------------------------------------------------------
 Center     Atomic      Atomic             Coordinates (Angstroms)
 Number     Number       Type             X           Y           Z
 ---------------------------------------------------------------------
      1          8           0        0.000000    0.000000    0.725000
      2          8           0        0.000000    0.000000   -0.725000
      3          1           0        0.863315    0.314221    1.023510
      4          1           0        0.000000    0.918721   -1.023510
      5         36           0        0.000000    3.000000    0.000000
 ---------------------------------------------------------------------
                    Distance matrix (angstroms):
                    1          2          3          4          5
     1  O    0.000000
     2  O    1.450000   0.000000
     3  H    0.966000   1.975180   0.000000
     4  H    1.975180   0.966000   2.302396   0.000000
     5  Kr   3.086361   3.086361   3.001049   2.319331   0.000000
 Stoichiometry    H2KrO2
 Framework group  C1[X(H2KrO2)]
 Deg. of freedom     9
 Full point group                 C1      NOp   1
 Largest Abelian subgroup         C1      NOp   1
 Largest concise Abelian subgroup C1      NOp   1
                         Standard orientation:                         
 ---------------------------------------------------------------------
 Center     Atomic      Atomic             Coordinates (Angstroms)
 Number     Number       Type             X           Y           Z
 ---------------------------------------------------------------------
      1          8           0        2.027244   -0.704579   -0.107619
      2          8           0        2.017454    0.739726    0.020400
      3          1           0        1.727457   -1.080559    0.730189
      4          1           0        1.096833    1.029722    0.059329
      5         36           0       -0.977274   -0.006398   -0.002549
 ---------------------------------------------------------------------
 Rotational constants (GHZ):     25.7099481      2.3602095      2.1745891
 Leave Link  202 at Fri May  8 10:55:27 2020, MaxMem= 1073741824 cpu:       0.0
 (Enter /home/matheus/.gaussian/g09/l122.exe)
 Leave Link  122 at Fri May  8 10:55:27 2020, MaxMem= 1073741824 cpu:       0.0
 (Enter /home/matheus/.gaussian/g09/l301.exe)
 Standard basis: Aug-CC-pVTZ (5D, 7F)
 Ernie: Thresh=  0.10000D-02 Tol=  0.10000D-05 Strict=F.
 Ernie:  38 primitive shells out of 205 were deleted.
 There are   197 symmetry adapted basis functions of A   symmetry.
 Integral buffers will be    131072 words long.
 Raffenetti 2 integral format.
 Two-electron integral symmetry is turned on.
   197 basis functions,   415 primitive gaussians,   229 cartesian basis functions
    27 alpha electrons       27 beta electrons
       nuclear repulsion energy       149.9587672391 Hartrees.
 IExCor=32609 DFT=T Ex+Corr=LC-wPBE ExCW=0 ScaHFX=  1.000000
 ScaDFX=  1.000000  0.000000  1.000000  1.000000 ScalE2=  1.000000  1.000000
 IRadAn=      5 IRanWt=     -1 IRanGd=            0 ICorTp=0
  HFx wShort=  0.000000 wLong=  0.550000 cFull=  0.000000 cShort=  0.000000 cLong=  1.000000
  DFx wShort=  0.000000 wLong=  0.550000 cFull=  0.000000 cShort=  0.000000 cLong=  1.000000
 NAtoms=    5 NActive=    5 NUniq=    5 SFac= 1.00D+00 NAtFMM=   60 NAOKFM=F Big=F
 Leave Link  301 at Fri May  8 10:55:27 2020, MaxMem= 1073741824 cpu:       0.2
 (Enter /home/matheus/.gaussian/g09/l302.exe)
 NPDir=0 NMtPBC=     1 NCelOv=     1 NCel=       1 NClECP=     1 NCelD=      1
         NCelK=      1 NCelE2=     1 NClLst=     1 CellRange=     0.0.
 One-electron integrals computed using PRISM.
 NBasis=   197 RedAO= T  NBF=   197
 NBsUse=   197 1.00D-06 NBFU=   197
 Precomputing XC quadrature grid using
 IXCGrd= 2 IRadAn=           5 IRanWt=          -1 IRanGd=           0 AccXCQ= 0.00D+00.
 NRdTot=     427 NPtTot=      123512 NUsed=      126579 NTot=      126611
 NSgBfM=   229   229   229   229   229 NAtAll=     5     5.
 Leave Link  302 at Fri May  8 10:55:27 2020, MaxMem= 1073741824 cpu:       1.0
 (Enter /home/matheus/.gaussian/g09/l303.exe)
 DipDrv:  MaxL=1.
 Leave Link  303 at Fri May  8 10:55:27 2020, MaxMem= 1073741824 cpu:       0.2
 (Enter /home/matheus/.gaussian/g09/l401.exe)
 Harris functional with IExCor=32609 diagonalized for initial guess.
 ExpMin= 2.53D-02 ExpMax= 1.17D+07 ExpMxC= 1.33D+04 IAcc=3 IRadAn=         5 AccDes= 0.00D+00
 HarFok:  IExCor=32609 AccDes= 0.00D+00 IRadAn=         5 IDoV= 1
 ScaDFX=  1.000000  1.000000  1.000000  1.000000
 FoFCou: FMM=F IPFlag=           0 FMFlag=      100000 FMFlg1=           0
         NFxFlg=           0 DoJE=T BraDBF=F KetDBF=T FulRan=T
         Omega=  0.000000  0.000000  1.000000  0.000000  0.000000 ICntrl=     500 IOpCl=  0
         NMat0=    1 NMatS0=    1 NMatT0=    0 NMatD0=    1 NMtDS0=    0 NMtDT0=    0
         I1Cent=           4 NGrid=           0.
 Petite list used in FoFCou.
 Harris En= -2904.73835793041    
 Initial guess orbital symmetries:
       Occupied  (A) (A) (A) (A) (A) (A) (A) (A) (A) (A) (A) (A)
                 (A) (A) (A) (A) (A) (A) (A) (A) (A) (A) (A) (A)
                 (A) (A) (A)
       Virtual   (A) (A) (A) (A) (A) (A) (A) (A) (A) (A) (A) (A)
                 (A) (A) (A) (A) (A) (A) (A) (A) (A) (A) (A) (A)
                 (A) (A) (A) (A) (A) (A) (A) (A) (A) (A) (A) (A)
                 (A) (A) (A) (A) (A) (A) (A) (A) (A) (A) (A) (A)
                 (A) (A) (A) (A) (A) (A) (A) (A) (A) (A) (A) (A)
                 (A) (A) (A) (A) (A) (A) (A) (A) (A) (A) (A) (A)
                 (A) (A) (A) (A) (A) (A) (A) (A) (A) (A) (A) (A)
                 (A) (A) (A) (A) (A) (A) (A) (A) (A) (A) (A) (A)
                 (A) (A) (A) (A) (A) (A) (A) (A) (A) (A) (A) (A)
                 (A) (A) (A) (A) (A) (A) (A) (A) (A) (A) (A) (A)
                 (A) (A) (A) (A) (A) (A) (A) (A) (A) (A) (A) (A)
                 (A) (A) (A) (A) (A) (A) (A) (A) (A) (A) (A) (A)
                 (A) (A) (A) (A) (A) (A) (A) (A) (A) (A) (A) (A)
                 (A) (A) (A) (A) (A) (A) (A) (A) (A) (A) (A) (A)
                 (A) (A)
 The electronic state of the initial guess is 1-A.
 Leave Link  401 at Fri May  8 10:55:28 2020, MaxMem= 1073741824 cpu:       4.7
 (Enter /home/matheus/.gaussian/g09/l502.exe)
 Closed shell SCF:
 Requested convergence on RMS density matrix=1.00D-08 within 128 cycles.
 Requested convergence on MAX density matrix=1.00D-06.
 Requested convergence on             energy=1.00D-06.
 No special actions if energy rises.
 Using DIIS extrapolation, IDIIS=  1040.
 Integral symmetry usage will be decided dynamically.
       126521 words used for storage of precomputed grid.
 IEnd=      305468 IEndB=      305468 NGot=  1073741824 MDV=  1073505667
 LenX=  1073505667 LenY=  1073452785
 Fock matrices will be formed incrementally for  20 cycles.

 Cycle   1  Pass 1  IDiag  1:
 FoFJK:  IHMeth= 1 ICntrl=     0 DoSepK=T KAlg= 1 I1Cent= 0 FoldK=F
 FoFCou: FMM=F IPFlag=           0 FMFlag=      100000 FMFlg1=           0
         NFxFlg=           0 DoJE=T BraDBF=F KetDBF=F FulRan=T
         Omega=  0.000000  0.000000  1.000000  0.000000  0.000000 ICntrl=     500 IOpCl=  0
         NMat0=    1 NMatS0=    1 NMatT0=    0 NMatD0=    1 NMtDS0=    0 NMtDT0=    0
         I1Cent=           0 NGrid=           0.
 Symmetry not used in FoFCou.
 E= -2904.93120456390    
 DIIS: error= 2.74D-02 at cycle   1 NSaved=   1.
 NSaved= 1 IEnMin= 1 EnMin= -2904.93120456390     IErMin= 1 ErrMin= 2.74D-02
 ErrMax= 2.74D-02 EMaxC= 1.00D-01 BMatC= 2.68D-01 BMatP= 2.68D-01
 IDIUse=3 WtCom= 7.26D-01 WtEn= 2.74D-01
 Coeff-Com:  0.100D+01
 Coeff-En:   0.100D+01
 Coeff:      0.100D+01
 Gap=     0.567 Goal=   None    Shift=    0.000
 GapD=    0.567 DampG=2.000 DampE=0.500 DampFc=1.0000 IDamp=-1.
 RMSDP=2.21D-03 MaxDP=1.43D-01              OVMax= 5.64D-02

 Cycle   2  Pass 1  IDiag  1:
 RMSU=  1.54D-03    CP:  1.02D+00
 FoFJK:  IHMeth= 1 ICntrl=     0 DoSepK=T KAlg= 1 I1Cent= 0 FoldK=F
 E= -2904.98145467186     Delta-E=       -0.050250107961 Rises=F Damp=F
 DIIS: error= 1.05D-02 at cycle   2 NSaved=   2.
 NSaved= 2 IEnMin= 2 EnMin= -2904.98145467186     IErMin= 2 ErrMin= 1.05D-02
 ErrMax= 1.05D-02 EMaxC= 1.00D-01 BMatC= 6.83D-02 BMatP= 2.68D-01
 IDIUse=3 WtCom= 8.95D-01 WtEn= 1.05D-01
 Coeff-Com:  0.328D+00 0.672D+00
 Coeff-En:   0.963D-01 0.904D+00
 Coeff:      0.304D+00 0.696D+00
 Gap=     0.491 Goal=   None    Shift=    0.000
 RMSDP=8.86D-04 MaxDP=5.00D-02 DE=-5.03D-02 OVMax= 2.66D-02

 Cycle   3  Pass 1  IDiag  1:
 RMSU=  3.08D-04    CP:  1.01D+00  6.56D-01
 FoFJK:  IHMeth= 1 ICntrl=     0 DoSepK=T KAlg= 1 I1Cent= 0 FoldK=F
 E= -2905.00487148167     Delta-E=       -0.023416809816 Rises=F Damp=F
 DIIS: error= 1.83D-03 at cycle   3 NSaved=   3.
 NSaved= 3 IEnMin= 3 EnMin= -2905.00487148167     IErMin= 3 ErrMin= 1.83D-03
 ErrMax= 1.83D-03 EMaxC= 1.00D-01 BMatC= 1.37D-03 BMatP= 6.83D-02
 IDIUse=3 WtCom= 9.82D-01 WtEn= 1.83D-02
 Coeff-Com:  0.415D-01 0.169D+00 0.789D+00
 Coeff-En:   0.000D+00 0.000D+00 0.100D+01
 Coeff:      0.408D-01 0.166D+00 0.793D+00
 Gap=     0.475 Goal=   None    Shift=    0.000
 RMSDP=9.96D-05 MaxDP=2.75D-03 DE=-2.34D-02 OVMax= 5.89D-03

 Cycle   4  Pass 1  IDiag  1:
 RMSU=  5.03D-05    CP:  1.01D+00  6.85D-01  9.39D-01
 FoFJK:  IHMeth= 1 ICntrl=     0 DoSepK=T KAlg= 1 I1Cent= 0 FoldK=F
 E= -2905.00556142427     Delta-E=       -0.000689942598 Rises=F Damp=F
 DIIS: error= 3.57D-04 at cycle   4 NSaved=   4.
 NSaved= 4 IEnMin= 4 EnMin= -2905.00556142427     IErMin= 4 ErrMin= 3.57D-04
 ErrMax= 3.57D-04 EMaxC= 1.00D-01 BMatC= 8.79D-05 BMatP= 1.37D-03
 IDIUse=3 WtCom= 9.96D-01 WtEn= 3.57D-03
 Coeff-Com: -0.604D-02 0.178D-01 0.267D+00 0.721D+00
 Coeff-En:   0.000D+00 0.000D+00 0.000D+00 0.100D+01
 Coeff:     -0.602D-02 0.178D-01 0.266D+00 0.722D+00
 Gap=     0.479 Goal=   None    Shift=    0.000
 RMSDP=3.17D-05 MaxDP=1.80D-03 DE=-6.90D-04 OVMax= 1.73D-03

 Cycle   5  Pass 1  IDiag  1:
 RMSU=  1.25D-05    CP:  1.01D+00  6.89D-01  9.93D-01  8.61D-01
 FoFJK:  IHMeth= 1 ICntrl=     0 DoSepK=T KAlg= 1 I1Cent= 0 FoldK=F
 E= -2905.00561499877     Delta-E=       -0.000053574499 Rises=F Damp=F
 DIIS: error= 8.04D-05 at cycle   5 NSaved=   5.
 NSaved= 5 IEnMin= 5 EnMin= -2905.00561499877     IErMin= 5 ErrMin= 8.04D-05
 ErrMax= 8.04D-05 EMaxC= 1.00D-01 BMatC= 2.48D-06 BMatP= 8.79D-05
 IDIUse=1 WtCom= 1.00D+00 WtEn= 0.00D+00
 Coeff-Com: -0.246D-02-0.484D-02 0.209D-02 0.116D+00 0.889D+00
 Coeff:     -0.246D-02-0.484D-02 0.209D-02 0.116D+00 0.889D+00
 Gap=     0.479 Goal=   None    Shift=    0.000
 RMSDP=7.02D-06 MaxDP=2.39D-04 DE=-5.36D-05 OVMax= 5.48D-04

 Cycle   6  Pass 1  IDiag  1:
 RMSU=  3.63D-06    CP:  1.01D+00  6.89D-01  9.97D-01  9.17D-01  1.10D+00
 FoFJK:  IHMeth= 1 ICntrl=     0 DoSepK=T KAlg= 1 I1Cent= 0 FoldK=F
 E= -2905.00561702182     Delta-E=       -0.000002023051 Rises=F Damp=F
 DIIS: error= 4.44D-05 at cycle   6 NSaved=   6.
 NSaved= 6 IEnMin= 6 EnMin= -2905.00561702182     IErMin= 6 ErrMin= 4.44D-05
 ErrMax= 4.44D-05 EMaxC= 1.00D-01 BMatC= 7.79D-07 BMatP= 2.48D-06
 IDIUse=1 WtCom= 1.00D+00 WtEn= 0.00D+00
 Coeff-Com: -0.414D-03-0.419D-02-0.290D-01-0.259D-01 0.382D+00 0.678D+00
 Coeff:     -0.414D-03-0.419D-02-0.290D-01-0.259D-01 0.382D+00 0.678D+00
 Gap=     0.479 Goal=   None    Shift=    0.000
 RMSDP=3.18D-06 MaxDP=1.37D-04 DE=-2.02D-06 OVMax= 2.10D-04

 Cycle   7  Pass 1  IDiag  1:
 RMSU=  1.50D-06    CP:  1.01D+00  6.89D-01  9.98D-01  9.34D-01  1.20D+00
                    CP:  8.57D-01
 FoFJK:  IHMeth= 1 ICntrl=     0 DoSepK=T KAlg= 1 I1Cent= 0 FoldK=F
 E= -2905.00561772239     Delta-E=       -0.000000700566 Rises=F Damp=F
 DIIS: error= 1.33D-05 at cycle   7 NSaved=   7.
 NSaved= 7 IEnMin= 7 EnMin= -2905.00561772239     IErMin= 7 ErrMin= 1.33D-05
 ErrMax= 1.33D-05 EMaxC= 1.00D-01 BMatC= 6.56D-08 BMatP= 7.79D-07
 IDIUse=1 WtCom= 1.00D+00 WtEn= 0.00D+00
 Coeff-Com:  0.124D-03-0.769D-03-0.899D-02-0.207D-01-0.567D-03 0.225D+00
 Coeff-Com:  0.806D+00
 Coeff:      0.124D-03-0.769D-03-0.899D-02-0.207D-01-0.567D-03 0.225D+00
 Coeff:      0.806D+00
 Gap=     0.479 Goal=   None    Shift=    0.000
 RMSDP=1.23D-06 MaxDP=5.98D-05 DE=-7.01D-07 OVMax= 8.26D-05

 Cycle   8  Pass 1  IDiag  1:
 RMSU=  4.83D-07    CP:  1.01D+00  6.89D-01  1.00D+00  9.39D-01  1.23D+00
                    CP:  9.74D-01  9.95D-01
 FoFJK:  IHMeth= 1 ICntrl=     0 DoSepK=T KAlg= 1 I1Cent= 0 FoldK=F
 E= -2905.00561779389     Delta-E=       -0.000000071501 Rises=F Damp=F
 DIIS: error= 3.15D-06 at cycle   8 NSaved=   8.
 NSaved= 8 IEnMin= 8 EnMin= -2905.00561779389     IErMin= 8 ErrMin= 3.15D-06
 ErrMax= 3.15D-06 EMaxC= 1.00D-01 BMatC= 2.31D-09 BMatP= 6.56D-08
 IDIUse=1 WtCom= 1.00D+00 WtEn= 0.00D+00
 Coeff-Com:  0.126D-04 0.481D-03 0.398D-02 0.597D-02-0.283D-01-0.997D-01
 Coeff-Com: -0.176D+00 0.129D+01
 Coeff:      0.126D-04 0.481D-03 0.398D-02 0.597D-02-0.283D-01-0.997D-01
 Coeff:     -0.176D+00 0.129D+01
 Gap=     0.479 Goal=   None    Shift=    0.000
 RMSDP=5.82D-07 MaxDP=1.90D-05 DE=-7.15D-08 OVMax= 5.30D-05

 Cycle   9  Pass 1  IDiag  1:
 RMSU=  1.19D-07    CP:  1.01D+00  6.89D-01  1.00D+00  9.41D-01  1.24D+00
                    CP:  9.91D-01  1.09D+00  1.59D+00
 FoFJK:  IHMeth= 1 ICntrl=     0 DoSepK=T KAlg= 1 I1Cent= 0 FoldK=F
 E= -2905.00561780238     Delta-E=       -0.000000008495 Rises=F Damp=F
 DIIS: error= 9.55D-07 at cycle   9 NSaved=   9.
 NSaved= 9 IEnMin= 9 EnMin= -2905.00561780238     IErMin= 9 ErrMin= 9.55D-07
 ErrMax= 9.55D-07 EMaxC= 1.00D-01 BMatC= 1.27D-10 BMatP= 2.31D-09
 IDIUse=1 WtCom= 1.00D+00 WtEn= 0.00D+00
 Coeff-Com: -0.919D-05-0.418D-04-0.207D-03-0.189D-04 0.479D-02 0.589D-02
 Coeff-Com: -0.112D-01-0.212D+00 0.121D+01
 Coeff:     -0.919D-05-0.418D-04-0.207D-03-0.189D-04 0.479D-02 0.589D-02
 Coeff:     -0.112D-01-0.212D+00 0.121D+01
 Gap=     0.479 Goal=   None    Shift=    0.000
 RMSDP=1.65D-07 MaxDP=6.77D-06 DE=-8.49D-09 OVMax= 1.74D-05

 Cycle  10  Pass 1  IDiag  1:
 RMSU=  3.64D-08    CP:  1.01D+00  6.89D-01  1.00D+00  9.41D-01  1.24D+00
                    CP:  9.89D-01  1.10D+00  1.74D+00  1.41D+00
 FoFJK:  IHMeth= 1 ICntrl=     0 DoSepK=T KAlg= 1 I1Cent= 0 FoldK=F
 E= -2905.00561780289     Delta-E=       -0.000000000507 Rises=F Damp=F
 DIIS: error= 3.08D-07 at cycle  10 NSaved=  10.
 NSaved=10 IEnMin=10 EnMin= -2905.00561780289     IErMin=10 ErrMin= 3.08D-07
 ErrMax= 3.08D-07 EMaxC= 1.00D-01 BMatC= 1.63D-11 BMatP= 1.27D-10
 IDIUse=1 WtCom= 1.00D+00 WtEn= 0.00D+00
 Coeff-Com: -0.634D-06-0.393D-04-0.326D-03-0.597D-03 0.226D-02 0.935D-02
 Coeff-Com:  0.175D-01-0.119D+00-0.295D-01 0.112D+01
 Coeff:     -0.634D-06-0.393D-04-0.326D-03-0.597D-03 0.226D-02 0.935D-02
 Coeff:      0.175D-01-0.119D+00-0.295D-01 0.112D+01
 Gap=     0.479 Goal=   None    Shift=    0.000
 RMSDP=5.26D-08 MaxDP=1.75D-06 DE=-5.07D-10 OVMax= 6.65D-06

 Cycle  11  Pass 1  IDiag  1:
 RMSU=  1.17D-08    CP:  1.01D+00  6.89D-01  1.00D+00  9.41D-01  1.24D+00
                    CP:  9.88D-01  1.09D+00  1.78D+00  1.57D+00  1.39D+00
 FoFJK:  IHMeth= 1 ICntrl=     0 DoSepK=T KAlg= 1 I1Cent= 0 FoldK=F
 E= -2905.00561780296     Delta-E=       -0.000000000068 Rises=F Damp=F
 DIIS: error= 7.24D-08 at cycle  11 NSaved=  11.
 NSaved=11 IEnMin=11 EnMin= -2905.00561780296     IErMin=11 ErrMin= 7.24D-08
 ErrMax= 7.24D-08 EMaxC= 1.00D-01 BMatC= 1.70D-12 BMatP= 1.63D-11
 IDIUse=1 WtCom= 1.00D+00 WtEn= 0.00D+00
 Coeff-Com:  0.109D-05 0.982D-05 0.699D-04 0.620D-04-0.913D-03-0.156D-02
 Coeff-Com:  0.181D-03 0.359D-01-0.141D+00-0.122D+00 0.123D+01
 Coeff:      0.109D-05 0.982D-05 0.699D-04 0.620D-04-0.913D-03-0.156D-02
 Coeff:      0.181D-03 0.359D-01-0.141D+00-0.122D+00 0.123D+01
 Gap=     0.479 Goal=   None    Shift=    0.000
 RMSDP=1.71D-08 MaxDP=3.15D-07 DE=-6.82D-11 OVMax= 2.56D-06

 Cycle  12  Pass 1  IDiag  1:
 RMSU=  3.53D-09    CP:  1.01D+00  6.89D-01  1.00D+00  9.41D-01  1.24D+00
                    CP:  9.88D-01  1.09D+00  1.79D+00  1.61D+00  1.60D+00
                    CP:  1.43D+00
 FoFJK:  IHMeth= 1 ICntrl=     0 DoSepK=T KAlg= 1 I1Cent= 0 FoldK=F
 E= -2905.00561780294     Delta-E=        0.000000000021 Rises=F Damp=F
 DIIS: error= 3.04D-08 at cycle  12 NSaved=  12.
 NSaved=12 IEnMin=11 EnMin= -2905.00561780296     IErMin=12 ErrMin= 3.04D-08
 ErrMax= 3.04D-08 EMaxC= 1.00D-01 BMatC= 1.14D-13 BMatP= 1.70D-12
 IDIUse=1 WtCom= 1.00D+00 WtEn= 0.00D+00
 Coeff-Com: -0.513D-07 0.313D-05 0.273D-04 0.590D-04-0.209D-03-0.822D-03
 Coeff-Com: -0.143D-02 0.100D-01 0.950D-02-0.833D-01-0.565D-01 0.112D+01
 Coeff:     -0.513D-07 0.313D-05 0.273D-04 0.590D-04-0.209D-03-0.822D-03
 Coeff:     -0.143D-02 0.100D-01 0.950D-02-0.833D-01-0.565D-01 0.112D+01
 Gap=     0.479 Goal=   None    Shift=    0.000
 RMSDP=3.59D-09 MaxDP=1.10D-07 DE= 2.14D-11 OVMax= 4.40D-07

 SCF Done:  E(RLC-wPBE) =  -2905.00561780     A.U. after   12 cycles
             Convg  =    0.3586D-08             -V/T =  2.0017
 KE= 2.900044697352D+03 PE=-7.236571652036D+03 EE= 1.281562569641D+03
 Leave Link  502 at Fri May  8 10:56:15 2020, MaxMem= 1073741824 cpu:     372.2
 (Enter /home/matheus/.gaussian/g09/l601.exe)
 Copying SCF densities to generalized density rwf, IOpCl= 0 IROHF=0.

 **********************************************************************

            Population analysis using the SCF density.

 **********************************************************************

 Orbital symmetries:
       Occupied  (A) (A) (A) (A) (A) (A) (A) (A) (A) (A) (A) (A)
                 (A) (A) (A) (A) (A) (A) (A) (A) (A) (A) (A) (A)
                 (A) (A) (A)
       Virtual   (A) (A) (A) (A) (A) (A) (A) (A) (A) (A) (A) (A)
                 (A) (A) (A) (A) (A) (A) (A) (A) (A) (A) (A) (A)
                 (A) (A) (A) (A) (A) (A) (A) (A) (A) (A) (A) (A)
                 (A) (A) (A) (A) (A) (A) (A) (A) (A) (A) (A) (A)
                 (A) (A) (A) (A) (A) (A) (A) (A) (A) (A) (A) (A)
                 (A) (A) (A) (A) (A) (A) (A) (A) (A) (A) (A) (A)
                 (A) (A) (A) (A) (A) (A) (A) (A) (A) (A) (A) (A)
                 (A) (A) (A) (A) (A) (A) (A) (A) (A) (A) (A) (A)
                 (A) (A) (A) (A) (A) (A) (A) (A) (A) (A) (A) (A)
                 (A) (A) (A) (A) (A) (A) (A) (A) (A) (A) (A) (A)
                 (A) (A) (A) (A) (A) (A) (A) (A) (A) (A) (A) (A)
                 (A) (A) (A) (A) (A) (A) (A) (A) (A) (A) (A) (A)
                 (A) (A) (A) (A) (A) (A) (A) (A) (A) (A) (A) (A)
                 (A) (A) (A) (A) (A) (A) (A) (A) (A) (A) (A) (A)
                 (A) (A)
 The electronic state is 1-A.
 Alpha  occ. eigenvalues -- -511.20679 -66.75517 -60.41635 -60.41621 -60.41611
 Alpha  occ. eigenvalues --  -19.11379 -19.11065  -9.69088  -7.43376  -7.43334
 Alpha  occ. eigenvalues --   -7.43304  -3.37779  -3.37771  -3.37750  -3.37718
 Alpha  occ. eigenvalues --   -3.37715  -1.32279  -1.11228  -1.09437  -0.73283
 Alpha  occ. eigenvalues --   -0.63372  -0.59170  -0.55194  -0.54779  -0.53868
 Alpha  occ. eigenvalues --   -0.48396  -0.44668
 Alpha virt. eigenvalues --    0.03222   0.04293   0.08407   0.09429   0.11135
 Alpha virt. eigenvalues --    0.11535   0.13560   0.14359   0.17527   0.18133
 Alpha virt. eigenvalues --    0.18461   0.20469   0.20570   0.22467   0.24354
 Alpha virt. eigenvalues --    0.25171   0.26371   0.29156   0.31810   0.32863
 Alpha virt. eigenvalues --    0.34177   0.35927   0.38060   0.39758   0.40351
 Alpha virt. eigenvalues --    0.41641   0.43871   0.48563   0.54314   0.55945
 Alpha virt. eigenvalues --    0.56901   0.61647   0.63100   0.65529   0.69589
 Alpha virt. eigenvalues --    0.72306   0.73462   0.75281   0.77382   0.77518
 Alpha virt. eigenvalues --    0.78838   0.79187   0.81262   0.82426   0.85209
 Alpha virt. eigenvalues --    0.85924   0.88557   0.90371   0.92152   0.93384
 Alpha virt. eigenvalues --    0.93678   0.95903   0.97040   0.98832   1.00487
 Alpha virt. eigenvalues --    1.01147   1.05470   1.08156   1.09838   1.11848
 Alpha virt. eigenvalues --    1.12910   1.16695   1.19600   1.24900   1.26982
 Alpha virt. eigenvalues --    1.28539   1.34596   1.38730   1.40366   1.43378
 Alpha virt. eigenvalues --    1.45612   1.50411   1.52810   1.57319   1.61974
 Alpha virt. eigenvalues --    1.71715   1.72920   1.86488   1.95549   1.96879
 Alpha virt. eigenvalues --    2.04506   2.06457   2.09474   2.13467   2.17764
 Alpha virt. eigenvalues --    2.19786   2.21937   2.24213   2.26690   2.29877
 Alpha virt. eigenvalues --    2.30400   2.33516   2.34847   2.35551   2.36970
 Alpha virt. eigenvalues --    2.40357   2.42692   2.48949   2.52063   2.53022
 Alpha virt. eigenvalues --    2.53685   2.54915   2.56646   2.61497   2.61827
 Alpha virt. eigenvalues --    2.63991   2.66691   2.69160   2.75064   2.75472
 Alpha virt. eigenvalues --    2.76792   2.79694   2.82519   2.88756   2.93036
 Alpha virt. eigenvalues --    2.99129   3.06856   3.13476   3.16733   3.65269
 Alpha virt. eigenvalues --    3.73072   3.98049   3.99387   4.03500   4.11460
 Alpha virt. eigenvalues --    4.14367   4.17589   4.28672   4.28807   4.33150
 Alpha virt. eigenvalues --    4.40879   4.52370   4.55942   4.62307   4.76287
 Alpha virt. eigenvalues --    4.98924   5.01787   5.04612   5.17961   5.20816
 Alpha virt. eigenvalues --    5.23484   5.47679   5.89605   6.06367   6.18785
 Alpha virt. eigenvalues --    6.25262   6.30498   6.37534   6.46850   6.54821
 Alpha virt. eigenvalues --    6.67090   6.80372   6.81881   6.86731   6.89480
 Alpha virt. eigenvalues --    6.94073   6.94947   6.97871   7.00845   7.06232
 Alpha virt. eigenvalues --    7.12037   7.17886   7.28370   7.51276   7.58073
 Alpha virt. eigenvalues --    7.84303   8.12636   8.17375  14.09442  14.63191
          Condensed to atoms (all electrons):
              1          2          3          4          5
     1  O    8.255455  -0.207534   0.190455   0.006814  -0.022430
     2  O   -0.207534   8.248549   0.016960   0.192713  -0.014420
     3  H    0.190455   0.016960   0.571129  -0.001430  -0.003472
     4  H    0.006814   0.192713  -0.001430   0.587679  -0.013458
     5  Kr  -0.022430  -0.014420  -0.003472  -0.013458  36.048792
 Mulliken atomic charges:
              1
     1  O   -0.222760
     2  O   -0.236268
     3  H    0.226359
     4  H    0.227682
     5  Kr   0.004987
 Sum of Mulliken atomic charges =   0.00000
 Mulliken charges with hydrogens summed into heavy atoms:
              1
     1  O    0.003599
     2  O   -0.008586
     5  Kr   0.004987
 Sum of Mulliken charges with hydrogens summed into heavy atoms =   0.00000
          Condensed to fragments (all electrons):
     1      -0.004987
     2       0.004987
 Electronic spatial extent (au):  <R**2>=            480.8878
 Charge=              0.0000 electrons
 Dipole moment (field-independent basis, Debye):
    X=             -2.4194    Y=             -0.3346    Z=              1.4054  Tot=              2.8179
 Quadrupole moment (field-independent basis, Debye-Ang):
   XX=            -36.6889   YY=            -27.7348   ZZ=            -28.9640
   XY=             -1.5625   XZ=              2.5233   YZ=             -1.7900
 Traceless Quadrupole moment (field-independent basis, Debye-Ang):
   XX=             -5.5597   YY=              3.3944   ZZ=              2.1652
   XY=             -1.5625   XZ=              2.5233   YZ=             -1.7900
 Octapole moment (field-independent basis, Debye-Ang**2):
  XXX=            -40.6361  YYY=             -0.9243  ZZZ=              1.0331  XYY=             -6.0590
  XXY=             -4.3629  XXZ=              3.7251  XZZ=             -6.0434  YZZ=             -1.6917
  YYZ=              2.2308  XYZ=             -3.1748
 Hexadecapole moment (field-independent basis, Debye-Ang**3):
 XXXX=           -459.8616 YYYY=            -62.1599 ZZZZ=            -28.9913 XXXY=             -7.8166
 XXXZ=              6.5485 YYYX=             -3.0076 YYYZ=             -2.6625 ZZZX=              2.2539
 ZZZY=             -1.8775 XXYY=            -82.6983 XXZZ=            -72.4769 YYZZ=            -15.6874
 XXYZ=             -5.7692 YYXZ=              3.8707 ZZXY=             -2.8885
 N-N= 1.499587672391D+02 E-N=-7.236571651134D+03  KE= 2.900044697352D+03
 No NMR shielding tensors so no spin-rotation constants.
 Leave Link  601 at Fri May  8 10:56:15 2020, MaxMem= 1073741824 cpu:       0.8
 (Enter /home/matheus/.gaussian/g09/l122.exe)
 Counterpoise: doing DCBS calculation for fragment   1 NewBq=T
 Leave Link  122 at Fri May  8 10:56:15 2020, MaxMem= 1073741824 cpu:       0.0
 (Enter /home/matheus/.gaussian/g09/l301.exe)
 Basis read from rwf:  (5D, 7F)
 No pseudopotential information found on rwf file.
 There are   197 symmetry adapted basis functions of A   symmetry.
 Integral buffers will be    131072 words long.
 Raffenetti 2 integral format.
 Two-electron integral symmetry is turned on.
   197 basis functions,   415 primitive gaussians,   229 cartesian basis functions
     9 alpha electrons        9 beta electrons
       nuclear repulsion energy        36.6380791177 Hartrees.
 IExCor=32609 DFT=T Ex+Corr=LC-wPBE ExCW=0 ScaHFX=  1.000000
 ScaDFX=  1.000000  0.000000  1.000000  1.000000 ScalE2=  1.000000  1.000000
 IRadAn=      5 IRanWt=     -1 IRanGd=            0 ICorTp=0
  HFx wShort=  0.000000 wLong=  0.550000 cFull=  0.000000 cShort=  0.000000 cLong=  1.000000
  DFx wShort=  0.000000 wLong=  0.550000 cFull=  0.000000 cShort=  0.000000 cLong=  1.000000
 NAtoms=    5 NActive=    5 NUniq=    5 SFac= 1.00D+00 NAtFMM=   60 NAOKFM=F Big=F
 No density basis found on file   718.
 Leave Link  301 at Fri May  8 10:56:15 2020, MaxMem= 1073741824 cpu:       0.3
 (Enter /home/matheus/.gaussian/g09/l302.exe)
 NPDir=0 NMtPBC=     1 NCelOv=     1 NCel=       1 NClECP=     1 NCelD=      1
         NCelK=      1 NCelE2=     1 NClLst=     1 CellRange=     0.0.
 One-electron integrals computed using PRISM.
 NBasis=   197 RedAO= T  NBF=   197
 NBsUse=   197 1.00D-06 NBFU=   197
 Precomputing XC quadrature grid using
 IXCGrd= 2 IRadAn=           5 IRanWt=          -1 IRanGd=           0 AccXCQ= 0.00D+00.
 NRdTot=     427 NPtTot=      123512 NUsed=      126579 NTot=      126611
 NSgBfM=   229   229   229   229   229 NAtAll=     5     5.
 Leave Link  302 at Fri May  8 10:56:15 2020, MaxMem= 1073741824 cpu:       1.3
 (Enter /home/matheus/.gaussian/g09/l303.exe)
 DipDrv:  MaxL=1.
 Leave Link  303 at Fri May  8 10:56:15 2020, MaxMem= 1073741824 cpu:       0.2
 (Enter /home/matheus/.gaussian/g09/l401.exe)
 Harris functional with IExCor=32609 diagonalized for initial guess.
 ExpMin= 2.53D-02 ExpMax= 1.17D+07 ExpMxC= 1.33D+04 IAcc=3 IRadAn=         5 AccDes= 0.00D+00
 HarFok:  IExCor=32609 AccDes= 0.00D+00 IRadAn=         5 IDoV= 1
 ScaDFX=  1.000000  1.000000  1.000000  1.000000
 FoFCou: FMM=F IPFlag=           0 FMFlag=      100000 FMFlg1=           0
         NFxFlg=           0 DoJE=T BraDBF=F KetDBF=T FulRan=T
         Omega=  0.000000  0.000000  1.000000  0.000000  0.000000 ICntrl=     500 IOpCl=  0
         NMat0=    1 NMatS0=    1 NMatT0=    0 NMatD0=    1 NMtDS0=    0 NMtDT0=    0
         I1Cent=           4 NGrid=           0.
 Petite list used in FoFCou.
 Harris En= -151.502323172259    
 Initial guess orbital symmetries:
       Occupied  (A) (A) (A) (A) (A) (A) (A) (A) (A)
       Virtual   (A) (A) (A) (A) (A) (A) (A) (A) (A) (A) (A) (A)
                 (A) (A) (A) (A) (A) (A) (A) (A) (A) (A) (A) (A)
                 (A) (A) (A) (A) (A) (A) (A) (A) (A) (A) (A) (A)
                 (A) (A) (A) (A) (A) (A) (A) (A) (A) (A) (A) (A)
                 (A) (A) (A) (A) (A) (A) (A) (A) (A) (A) (A) (A)
                 (A) (A) (A) (A) (A) (A) (A) (A) (A) (A) (A) (A)
                 (A) (A) (A) (A) (A) (A) (A) (A) (A) (A) (A) (A)
                 (A) (A) (A) (A) (A) (A) (A) (A) (A) (A) (A) (A)
                 (A) (A) (A) (A) (A) (A) (A) (A) (A) (A) (A) (A)
                 (A) (A) (A) (A) (A) (A) (A) (A) (A) (A) (A) (A)
                 (A) (A) (A) (A) (A) (A) (A) (A) (A) (A) (A) (A)
                 (A) (A) (A) (A) (A) (A) (A) (A) (A) (A) (A) (A)
                 (A) (A) (A) (A) (A) (A) (A) (A) (A) (A) (A) (A)
                 (A) (A) (A) (A) (A) (A) (A) (A) (A) (A) (A) (A)
                 (A) (A) (A) (A) (A) (A) (A) (A) (A) (A) (A) (A)
                 (A) (A) (A) (A) (A) (A) (A) (A)
 The electronic state of the initial guess is 1-A.
 Leave Link  401 at Fri May  8 10:56:16 2020, MaxMem= 1073741824 cpu:       4.6
 (Enter /home/matheus/.gaussian/g09/l502.exe)
 Closed shell SCF:
 Requested convergence on RMS density matrix=1.00D-08 within 128 cycles.
 Requested convergence on MAX density matrix=1.00D-06.
 Requested convergence on             energy=1.00D-06.
 No special actions if energy rises.
 Using DIIS extrapolation, IDIIS=  1040.
 Integral symmetry usage will be decided dynamically.
       126521 words used for storage of precomputed grid.
 IEnd=      305468 IEndB=      305468 NGot=  1073741824 MDV=  1073505667
 LenX=  1073505667 LenY=  1073452785
 Fock matrices will be formed incrementally for  20 cycles.

 Cycle   1  Pass 1  IDiag  1:
 FoFJK:  IHMeth= 1 ICntrl=     0 DoSepK=T KAlg= 1 I1Cent= 0 FoldK=F
 FoFCou: FMM=F IPFlag=           0 FMFlag=      100000 FMFlg1=           0
         NFxFlg=           0 DoJE=T BraDBF=F KetDBF=F FulRan=T
         Omega=  0.000000  0.000000  1.000000  0.000000  0.000000 ICntrl=     500 IOpCl=  0
         NMat0=    1 NMatS0=    1 NMatT0=    0 NMatD0=    1 NMtDS0=    0 NMtDT0=    0
         I1Cent=           0 NGrid=           0.
 Symmetry not used in FoFCou.
 E= -151.506052377907    
 DIIS: error= 1.19D-02 at cycle   1 NSaved=   1.
 NSaved= 1 IEnMin= 1 EnMin= -151.506052377907     IErMin= 1 ErrMin= 1.19D-02
 ErrMax= 1.19D-02 EMaxC= 1.00D-01 BMatC= 4.16D-02 BMatP= 4.16D-02
 IDIUse=3 WtCom= 8.81D-01 WtEn= 1.19D-01
 Coeff-Com:  0.100D+01
 Coeff-En:   0.100D+01
 Coeff:      0.100D+01
 Gap=     0.568 Goal=   None    Shift=    0.000
 GapD=    0.568 DampG=2.000 DampE=0.500 DampFc=1.0000 IDamp=-1.
 RMSDP=7.33D-04 MaxDP=2.26D-02              OVMax= 5.44D-02

 Cycle   2  Pass 1  IDiag  1:
 RMSU=  5.14D-04    CP:  9.91D-01
 FoFJK:  IHMeth= 1 ICntrl=     0 DoSepK=T KAlg= 1 I1Cent= 0 FoldK=F
 E= -151.522838920498     Delta-E=       -0.016786542591 Rises=F Damp=F
 DIIS: error= 7.39D-03 at cycle   2 NSaved=   2.
 NSaved= 2 IEnMin= 2 EnMin= -151.522838920498     IErMin= 2 ErrMin= 7.39D-03
 ErrMax= 7.39D-03 EMaxC= 1.00D-01 BMatC= 1.68D-02 BMatP= 4.16D-02
 IDIUse=3 WtCom= 9.26D-01 WtEn= 7.39D-02
 Coeff-Com:  0.375D+00 0.625D+00
 Coeff-En:   0.130D+00 0.870D+00
 Coeff:      0.357D+00 0.643D+00
 Gap=     0.480 Goal=   None    Shift=    0.000
 RMSDP=4.25D-04 MaxDP=2.24D-02 DE=-1.68D-02 OVMax= 2.35D-02

 Cycle   3  Pass 1  IDiag  1:
 RMSU=  2.38D-04    CP:  9.86D-01  6.50D-01
 FoFJK:  IHMeth= 1 ICntrl=     0 DoSepK=T KAlg= 1 I1Cent= 0 FoldK=F
 E= -151.532383061819     Delta-E=       -0.009544141321 Rises=F Damp=F
 DIIS: error= 1.53D-03 at cycle   3 NSaved=   3.
 NSaved= 3 IEnMin= 3 EnMin= -151.532383061819     IErMin= 3 ErrMin= 1.53D-03
 ErrMax= 1.53D-03 EMaxC= 1.00D-01 BMatC= 3.86D-04 BMatP= 1.68D-02
 IDIUse=3 WtCom= 9.85D-01 WtEn= 1.53D-02
 Coeff-Com:  0.408D-01 0.152D+00 0.807D+00
 Coeff-En:   0.000D+00 0.000D+00 0.100D+01
 Coeff:      0.402D-01 0.150D+00 0.810D+00
 Gap=     0.472 Goal=   None    Shift=    0.000
 RMSDP=5.43D-05 MaxDP=1.84D-03 DE=-9.54D-03 OVMax= 4.10D-03

 Cycle   4  Pass 1  IDiag  1:
 RMSU=  2.73D-05    CP:  9.84D-01  6.96D-01  1.03D+00
 FoFJK:  IHMeth= 1 ICntrl=     0 DoSepK=T KAlg= 1 I1Cent= 0 FoldK=F
 E= -151.532629786321     Delta-E=       -0.000246724502 Rises=F Damp=F
 DIIS: error= 1.46D-04 at cycle   4 NSaved=   4.
 NSaved= 4 IEnMin= 4 EnMin= -151.532629786321     IErMin= 4 ErrMin= 1.46D-04
 ErrMax= 1.46D-04 EMaxC= 1.00D-01 BMatC= 9.77D-06 BMatP= 3.86D-04
 IDIUse=3 WtCom= 9.99D-01 WtEn= 1.46D-03
 Coeff-Com: -0.966D-02-0.132D-01 0.860D-01 0.937D+00
 Coeff-En:   0.000D+00 0.000D+00 0.000D+00 0.100D+01
 Coeff:     -0.965D-02-0.132D-01 0.859D-01 0.937D+00
 Gap=     0.474 Goal=   None    Shift=    0.000
 RMSDP=1.35D-05 MaxDP=7.94D-04 DE=-2.47D-04 OVMax= 7.68D-04

 Cycle   5  Pass 1  IDiag  1:
 RMSU=  4.51D-06    CP:  9.84D-01  6.94D-01  1.06D+00  1.06D+00
 FoFJK:  IHMeth= 1 ICntrl=     0 DoSepK=T KAlg= 1 I1Cent= 0 FoldK=F
 E= -151.532638493219     Delta-E=       -0.000008706898 Rises=F Damp=F
 DIIS: error= 4.16D-05 at cycle   5 NSaved=   5.
 NSaved= 5 IEnMin= 5 EnMin= -151.532638493219     IErMin= 5 ErrMin= 4.16D-05
 ErrMax= 4.16D-05 EMaxC= 1.00D-01 BMatC= 2.24D-07 BMatP= 9.77D-06
 IDIUse=1 WtCom= 1.00D+00 WtEn= 0.00D+00
 Coeff-Com: -0.282D-03-0.160D-02-0.339D-01-0.123D+00 0.116D+01
 Coeff:     -0.282D-03-0.160D-02-0.339D-01-0.123D+00 0.116D+01
 Gap=     0.474 Goal=   None    Shift=    0.000
 RMSDP=3.43D-06 MaxDP=8.48D-05 DE=-8.71D-06 OVMax= 3.15D-04

 Cycle   6  Pass 1  IDiag  1:
 RMSU=  1.15D-06    CP:  9.84D-01  6.95D-01  1.06D+00  1.10D+00  1.32D+00
 FoFJK:  IHMeth= 1 ICntrl=     0 DoSepK=T KAlg= 1 I1Cent= 0 FoldK=F
 E= -151.532639052870     Delta-E=       -0.000000559651 Rises=F Damp=F
 DIIS: error= 5.89D-06 at cycle   6 NSaved=   6.
 NSaved= 6 IEnMin= 6 EnMin= -151.532639052870     IErMin= 6 ErrMin= 5.89D-06
 ErrMax= 5.89D-06 EMaxC= 1.00D-01 BMatC= 1.28D-08 BMatP= 2.24D-07
 IDIUse=1 WtCom= 1.00D+00 WtEn= 0.00D+00
 Coeff-Com:  0.273D-03 0.753D-03 0.476D-02-0.103D-03-0.236D+00 0.123D+01
 Coeff:      0.273D-03 0.753D-03 0.476D-02-0.103D-03-0.236D+00 0.123D+01
 Gap=     0.474 Goal=   None    Shift=    0.000
 RMSDP=1.04D-06 MaxDP=2.57D-05 DE=-5.60D-07 OVMax= 1.04D-04

 Cycle   7  Pass 1  IDiag  1:
 RMSU=  3.11D-07    CP:  9.84D-01  6.95D-01  1.06D+00  1.11D+00  1.38D+00
                    CP:  1.44D+00
 FoFJK:  IHMeth= 1 ICntrl=     0 DoSepK=T KAlg= 1 I1Cent= 0 FoldK=F
 E= -151.532639094691     Delta-E=       -0.000000041821 Rises=F Damp=F
 DIIS: error= 1.99D-06 at cycle   7 NSaved=   7.
 NSaved= 7 IEnMin= 7 EnMin= -151.532639094691     IErMin= 7 ErrMin= 1.99D-06
 ErrMax= 1.99D-06 EMaxC= 1.00D-01 BMatC= 9.77D-10 BMatP= 1.28D-08
 IDIUse=1 WtCom= 1.00D+00 WtEn= 0.00D+00
 Coeff-Com: -0.103D-04-0.134D-04 0.130D-02 0.681D-02-0.451D-01-0.132D+00
 Coeff-Com:  0.117D+01
 Coeff:     -0.103D-04-0.134D-04 0.130D-02 0.681D-02-0.451D-01-0.132D+00
 Coeff:      0.117D+01
 Gap=     0.474 Goal=   None    Shift=    0.000
 RMSDP=4.05D-07 MaxDP=1.61D-05 DE=-4.18D-08 OVMax= 3.64D-05

 Cycle   8  Pass 1  IDiag  1:
 RMSU=  8.00D-08    CP:  9.84D-01  6.95D-01  1.06D+00  1.12D+00  1.38D+00
                    CP:  1.58D+00  1.40D+00
 FoFJK:  IHMeth= 1 ICntrl=     0 DoSepK=T KAlg= 1 I1Cent= 0 FoldK=F
 E= -151.532639098665     Delta-E=       -0.000000003974 Rises=F Damp=F
 DIIS: error= 7.28D-07 at cycle   8 NSaved=   8.
 NSaved= 8 IEnMin= 8 EnMin= -151.532639098665     IErMin= 8 ErrMin= 7.28D-07
 ErrMax= 7.28D-07 EMaxC= 1.00D-01 BMatC= 2.72D-10 BMatP= 9.77D-10
 IDIUse=1 WtCom= 1.00D+00 WtEn= 0.00D+00
 Coeff-Com: -0.231D-04-0.667D-04 0.290D-04 0.194D-02 0.599D-02-0.143D+00
 Coeff-Com:  0.390D+00 0.745D+00
 Coeff:     -0.231D-04-0.667D-04 0.290D-04 0.194D-02 0.599D-02-0.143D+00
 Coeff:      0.390D+00 0.745D+00
 Gap=     0.474 Goal=   None    Shift=    0.000
 RMSDP=1.05D-07 MaxDP=6.03D-06 DE=-3.97D-09 OVMax= 1.02D-05

 Cycle   9  Pass 1  IDiag  1:
 RMSU=  3.64D-08    CP:  9.84D-01  6.95D-01  1.06D+00  1.12D+00  1.38D+00
                    CP:  1.60D+00  1.52D+00  1.10D+00
 FoFJK:  IHMeth= 1 ICntrl=     0 DoSepK=T KAlg= 1 I1Cent= 0 FoldK=F
 E= -151.532639099044     Delta-E=       -0.000000000379 Rises=F Damp=F
 DIIS: error= 4.08D-07 at cycle   9 NSaved=   9.
 NSaved= 9 IEnMin= 9 EnMin= -151.532639099044     IErMin= 9 ErrMin= 4.08D-07
 ErrMax= 4.08D-07 EMaxC= 1.00D-01 BMatC= 6.78D-11 BMatP= 2.72D-10
 IDIUse=1 WtCom= 1.00D+00 WtEn= 0.00D+00
 Coeff-Com: -0.936D-05-0.324D-04-0.353D-03-0.102D-02 0.173D-01-0.421D-01
 Coeff-Com: -0.128D+00 0.322D+00 0.833D+00
 Coeff:     -0.936D-05-0.324D-04-0.353D-03-0.102D-02 0.173D-01-0.421D-01
 Coeff:     -0.128D+00 0.322D+00 0.833D+00
 Gap=     0.474 Goal=   None    Shift=    0.000
 RMSDP=6.42D-08 MaxDP=3.28D-06 DE=-3.79D-10 OVMax= 7.46D-06

 Cycle  10  Pass 1  IDiag  1:
 RMSU=  1.37D-08    CP:  9.84D-01  6.95D-01  1.06D+00  1.12D+00  1.38D+00
                    CP:  1.62D+00  1.58D+00  1.35D+00  1.07D+00
 FoFJK:  IHMeth= 1 ICntrl=     0 DoSepK=T KAlg= 1 I1Cent= 0 FoldK=F
 E= -151.532639099159     Delta-E=       -0.000000000115 Rises=F Damp=F
 DIIS: error= 1.28D-07 at cycle  10 NSaved=  10.
 NSaved=10 IEnMin=10 EnMin= -151.532639099159     IErMin=10 ErrMin= 1.28D-07
 ErrMax= 1.28D-07 EMaxC= 1.00D-01 BMatC= 2.93D-12 BMatP= 6.78D-11
 IDIUse=1 WtCom= 1.00D+00 WtEn= 0.00D+00
 Coeff-Com:  0.412D-05 0.164D-04 0.105D-03 0.226D-04-0.498D-02 0.243D-01
 Coeff-Com:  0.123D-02-0.171D+00-0.215D+00 0.137D+01
 Coeff:      0.412D-05 0.164D-04 0.105D-03 0.226D-04-0.498D-02 0.243D-01
 Coeff:      0.123D-02-0.171D+00-0.215D+00 0.137D+01
 Gap=     0.474 Goal=   None    Shift=    0.000
 RMSDP=2.13D-08 MaxDP=4.33D-07 DE=-1.15D-10 OVMax= 3.54D-06

 Cycle  11  Pass 1  IDiag  1:
 RMSU=  5.06D-09    CP:  9.84D-01  6.95D-01  1.06D+00  1.12D+00  1.38D+00
                    CP:  1.62D+00  1.59D+00  1.43D+00  1.26D+00  1.60D+00
 FoFJK:  IHMeth= 1 ICntrl=     0 DoSepK=T KAlg= 1 I1Cent= 0 FoldK=F
 E= -151.532639099173     Delta-E=       -0.000000000014 Rises=F Damp=F
 DIIS: error= 4.05D-08 at cycle  11 NSaved=  11.
 NSaved=11 IEnMin=11 EnMin= -151.532639099173     IErMin=11 ErrMin= 4.05D-08
 ErrMax= 4.05D-08 EMaxC= 1.00D-01 BMatC= 2.19D-13 BMatP= 2.93D-12
 IDIUse=1 WtCom= 1.00D+00 WtEn= 0.00D+00
 Coeff-Com: -0.332D-07 0.447D-06 0.186D-04 0.114D-03-0.905D-03-0.202D-03
 Coeff-Com:  0.147D-01-0.591D-02-0.500D-01-0.203D+00 0.124D+01
 Coeff:     -0.332D-07 0.447D-06 0.186D-04 0.114D-03-0.905D-03-0.202D-03
 Coeff:      0.147D-01-0.591D-02-0.500D-01-0.203D+00 0.124D+01
 Gap=     0.474 Goal=   None    Shift=    0.000
 RMSDP=5.98D-09 MaxDP=1.28D-07 DE=-1.40D-11 OVMax= 8.81D-07

 SCF Done:  E(RLC-wPBE) =  -151.532639099     A.U. after   11 cycles
             Convg  =    0.5983D-08             -V/T =  2.0070
 KE= 1.504793799681D+02 PE=-4.315742824215D+02 EE= 9.292418423646D+01
 Leave Link  502 at Fri May  8 10:56:57 2020, MaxMem= 1073741824 cpu:     325.8
 (Enter /home/matheus/.gaussian/g09/l601.exe)
 Copying SCF densities to generalized density rwf, IOpCl= 0 IROHF=0.

 **********************************************************************

            Population analysis using the SCF density.

 **********************************************************************

 Orbital symmetries:
       Occupied  (A) (A) (A) (A) (A) (A) (A) (A) (A)
       Virtual   (A) (A) (A) (A) (A) (A) (A) (A) (A) (A) (A) (A)
                 (A) (A) (A) (A) (A) (A) (A) (A) (A) (A) (A) (A)
                 (A) (A) (A) (A) (A) (A) (A) (A) (A) (A) (A) (A)
                 (A) (A) (A) (A) (A) (A) (A) (A) (A) (A) (A) (A)
                 (A) (A) (A) (A) (A) (A) (A) (A) (A) (A) (A) (A)
                 (A) (A) (A) (A) (A) (A) (A) (A) (A) (A) (A) (A)
                 (A) (A) (A) (A) (A) (A) (A) (A) (A) (A) (A) (A)
                 (A) (A) (A) (A) (A) (A) (A) (A) (A) (A) (A) (A)
                 (A) (A) (A) (A) (A) (A) (A) (A) (A) (A) (A) (A)
                 (A) (A) (A) (A) (A) (A) (A) (A) (A) (A) (A) (A)
                 (A) (A) (A) (A) (A) (A) (A) (A) (A) (A) (A) (A)
                 (A) (A) (A) (A) (A) (A) (A) (A) (A) (A) (A) (A)
                 (A) (A) (A) (A) (A) (A) (A) (A) (A) (A) (A) (A)
                 (A) (A) (A) (A) (A) (A) (A) (A) (A) (A) (A) (A)
                 (A) (A) (A) (A) (A) (A) (A) (A) (A) (A) (A) (A)
                 (A) (A) (A) (A) (A) (A) (A) (A)
 The electronic state is 1-A.
 Alpha  occ. eigenvalues --  -19.11648 -19.11641  -1.32544  -1.09793  -0.73326
 Alpha  occ. eigenvalues --   -0.63060  -0.58986  -0.48876  -0.45034
 Alpha virt. eigenvalues --    0.02354   0.03836   0.07086   0.08172   0.10295
 Alpha virt. eigenvalues --    0.10451   0.11366   0.14346   0.17292   0.17842
 Alpha virt. eigenvalues --    0.18795   0.19664   0.21221   0.22641   0.25834
 Alpha virt. eigenvalues --    0.27522   0.30195   0.30960   0.33047   0.34119
 Alpha virt. eigenvalues --    0.34652   0.36674   0.37681   0.40132   0.40660
 Alpha virt. eigenvalues --    0.43294   0.44912   0.46728   0.48199   0.50442
 Alpha virt. eigenvalues --    0.53562   0.58303   0.61681   0.63645   0.67536
 Alpha virt. eigenvalues --    0.71484   0.76452   0.77830   0.78748   0.80986
 Alpha virt. eigenvalues --    0.82223   0.83569   0.88950   0.91474   0.92564
 Alpha virt. eigenvalues --    0.93205   0.95151   0.96580   0.97417   0.99856
 Alpha virt. eigenvalues --    1.01084   1.02741   1.05259   1.10665   1.12836
 Alpha virt. eigenvalues --    1.13889   1.16750   1.21154   1.22502   1.24700
 Alpha virt. eigenvalues --    1.27474   1.29878   1.30856   1.31639   1.33381
 Alpha virt. eigenvalues --    1.34394   1.35170   1.39074   1.39959   1.41073
 Alpha virt. eigenvalues --    1.47327   1.50005   1.53080   1.54495   1.56854
 Alpha virt. eigenvalues --    1.60879   1.66232   1.67540   1.75266   1.79320
 Alpha virt. eigenvalues --    1.84939   1.88641   1.96557   2.01209   2.05859
 Alpha virt. eigenvalues --    2.07541   2.11921   2.18547   2.23500   2.25824
 Alpha virt. eigenvalues --    2.31991   2.32774   2.36647   2.40291   2.40957
 Alpha virt. eigenvalues --    2.53176   2.58031   2.60829   2.64815   2.67051
 Alpha virt. eigenvalues --    2.71019   2.78453   2.83919   2.90292   2.97787
 Alpha virt. eigenvalues --    3.04548   3.12490   3.14702   3.25414   3.29904
 Alpha virt. eigenvalues --    3.41411   3.55977   3.66164   3.70047   3.77528
 Alpha virt. eigenvalues --    3.78141   3.81526   3.81716   3.82241   3.84668
 Alpha virt. eigenvalues --    3.88431   3.90110   3.93569   3.96349   3.97275
 Alpha virt. eigenvalues --    4.01213   4.04455   4.08935   4.13398   4.15580
 Alpha virt. eigenvalues --    4.19291   4.28996   4.30061   4.33736   4.40088
 Alpha virt. eigenvalues --    4.41447   4.53685   4.62849   4.76407   4.98725
 Alpha virt. eigenvalues --    5.02176   5.04741   5.18166   5.20819   5.23759
 Alpha virt. eigenvalues --    5.47368   5.89336   6.05752   6.18690   6.25094
 Alpha virt. eigenvalues --    6.30383   6.37336   6.46663   6.54711   6.66843
 Alpha virt. eigenvalues --    6.80038   6.81674   6.86270   6.89215   6.93821
 Alpha virt. eigenvalues --    6.94653   6.97597   7.00633   7.05906   7.11768
 Alpha virt. eigenvalues --    7.17611   7.28096   7.50941   7.57825   7.83961
 Alpha virt. eigenvalues --    8.12375   8.16197  10.91482  14.09042  14.62165
 Alpha virt. eigenvalues --   14.82701  14.88042  15.09745  29.02277  29.02520
 Alpha virt. eigenvalues --   29.07076  29.13288  29.22418  49.11336 148.30966
 Alpha virt. eigenvalues --  148.38978 148.70850 752.54818
          Condensed to atoms (all electrons):
              1          2          3          4          5
     1  O    8.213877  -0.200499   0.194657   0.004064   0.000267
     2  O   -0.200499   8.214574   0.017438   0.194376  -0.000755
     3  H    0.194657   0.017438   0.579006  -0.000318  -0.001206
     4  H    0.004064   0.194376  -0.000318   0.582684  -0.003551
     5  Kr   0.000267  -0.000755  -0.001206  -0.003551   0.000914
 Mulliken atomic charges:
              1
     1  O   -0.212365
     2  O   -0.225135
     3  H    0.210423
     4  H    0.222746
     5  Kr   0.004332
 Sum of Mulliken atomic charges =   0.00000
 Mulliken charges with hydrogens summed into heavy atoms:
              1
     1  O   -0.001942
     2  O   -0.002390
     5  Kr   0.004332
 Sum of Mulliken charges with hydrogens summed into heavy atoms =   0.00000
          Condensed to fragments (all electrons):
     1      -0.004332
     2       0.004332
 Electronic spatial extent (au):  <R**2>=            319.1680
 Charge=              0.0000 electrons
 Dipole moment (field-independent basis, Debye):
    X=             -2.1581    Y=             -0.1518    Z=              1.5497  Tot=              2.6612
 Quadrupole moment (field-independent basis, Debye-Ang):
   XX=            -19.2901   YY=            -10.2197   ZZ=            -11.5127
   XY=             -1.6623   XZ=              2.4196   YZ=             -1.8141
 Traceless Quadrupole moment (field-independent basis, Debye-Ang):
   XX=             -5.6159   YY=              3.4545   ZZ=              2.1615
   XY=             -1.6623   XZ=              2.4196   YZ=             -1.8141
 Octapole moment (field-independent basis, Debye-Ang**2):
  XXX=            -90.5486  YYY=             -1.0409  ZZZ=              1.1443  XYY=            -22.9679
  XXY=             -4.2327  XXZ=              3.8236  XZZ=            -22.9964  YZZ=             -1.7351
  YYZ=              2.2696  XYZ=             -3.1788
 Hexadecapole moment (field-independent basis, Debye-Ang**3):
 XXXX=           -341.1424 YYYY=            -44.3392 ZZZZ=            -11.2748 XXXY=             -7.5570
 XXXZ=              6.3846 YYYX=             -2.9000 YYYZ=             -2.7044 ZZZX=              2.2092
 ZZZY=             -1.9180 XXYY=            -59.9766 XXZZ=            -49.9089 YYZZ=             -9.7579
 XXYZ=             -5.7838 YYXZ=              3.8415 ZZXY=             -2.8233
 N-N= 3.663807911772D+01 E-N=-4.315742820458D+02  KE= 1.504793799681D+02
 No NMR shielding tensors so no spin-rotation constants.
 Leave Link  601 at Fri May  8 10:56:57 2020, MaxMem= 1073741824 cpu:       0.9
 (Enter /home/matheus/.gaussian/g09/l122.exe)
 Counterpoise: doing DCBS calculation for fragment   2 NewBq=T
 Leave Link  122 at Fri May  8 10:56:57 2020, MaxMem= 1073741824 cpu:       0.0
 (Enter /home/matheus/.gaussian/g09/l301.exe)
 Basis read from rwf:  (5D, 7F)
 No pseudopotential information found on rwf file.
 There are   197 symmetry adapted basis functions of A   symmetry.
 Integral buffers will be    131072 words long.
 Raffenetti 2 integral format.
 Two-electron integral symmetry is turned on.
   197 basis functions,   415 primitive gaussians,   229 cartesian basis functions
    18 alpha electrons       18 beta electrons
       nuclear repulsion energy         0.0000000000 Hartrees.
 IExCor=32609 DFT=T Ex+Corr=LC-wPBE ExCW=0 ScaHFX=  1.000000
 ScaDFX=  1.000000  0.000000  1.000000  1.000000 ScalE2=  1.000000  1.000000
 IRadAn=      5 IRanWt=     -1 IRanGd=            0 ICorTp=0
  HFx wShort=  0.000000 wLong=  0.550000 cFull=  0.000000 cShort=  0.000000 cLong=  1.000000
  DFx wShort=  0.000000 wLong=  0.550000 cFull=  0.000000 cShort=  0.000000 cLong=  1.000000
 NAtoms=    5 NActive=    5 NUniq=    5 SFac= 1.00D+00 NAtFMM=   60 NAOKFM=F Big=F
 No density basis found on file   718.
 Leave Link  301 at Fri May  8 10:56:57 2020, MaxMem= 1073741824 cpu:       0.2
 (Enter /home/matheus/.gaussian/g09/l302.exe)
 NPDir=0 NMtPBC=     1 NCelOv=     1 NCel=       1 NClECP=     1 NCelD=      1
         NCelK=      1 NCelE2=     1 NClLst=     1 CellRange=     0.0.
 One-electron integrals computed using PRISM.
 NBasis=   197 RedAO= T  NBF=   197
 NBsUse=   197 1.00D-06 NBFU=   197
 Precomputing XC quadrature grid using
 IXCGrd= 2 IRadAn=           5 IRanWt=          -1 IRanGd=           0 AccXCQ= 0.00D+00.
 NRdTot=     427 NPtTot=      123512 NUsed=      126579 NTot=      126611
 NSgBfM=   229   229   229   229   229 NAtAll=     5     5.
 Leave Link  302 at Fri May  8 10:56:57 2020, MaxMem= 1073741824 cpu:       1.0
 (Enter /home/matheus/.gaussian/g09/l303.exe)
 DipDrv:  MaxL=1.
 Leave Link  303 at Fri May  8 10:56:57 2020, MaxMem= 1073741824 cpu:       0.2
 (Enter /home/matheus/.gaussian/g09/l401.exe)
 Harris functional with IExCor=32609 diagonalized for initial guess.
 ExpMin= 2.53D-02 ExpMax= 1.17D+07 ExpMxC= 1.33D+04 IAcc=3 IRadAn=         5 AccDes= 0.00D+00
 HarFok:  IExCor=32609 AccDes= 0.00D+00 IRadAn=         5 IDoV= 1
 ScaDFX=  1.000000  1.000000  1.000000  1.000000
 FoFCou: FMM=F IPFlag=           0 FMFlag=      100000 FMFlg1=           0
         NFxFlg=           0 DoJE=T BraDBF=F KetDBF=T FulRan=T
         Omega=  0.000000  0.000000  1.000000  0.000000  0.000000 ICntrl=     500 IOpCl=  0
         NMat0=    1 NMatS0=    1 NMatT0=    0 NMatD0=    1 NMtDS0=    0 NMtDT0=    0
         I1Cent=           4 NGrid=           0.
 Petite list used in FoFCou.
 Harris En= -2753.24651097224    
 Initial guess orbital symmetries:
       Occupied  (A) (A) (A) (A) (A) (A) (A) (A) (A) (A) (A) (A)
                 (A) (A) (A) (A) (A) (A)
       Virtual   (A) (A) (A) (A) (A) (A) (A) (A) (A) (A) (A) (A)
                 (A) (A) (A) (A) (A) (A) (A) (A) (A) (A) (A) (A)
                 (A) (A) (A) (A) (A) (A) (A) (A) (A) (A) (A) (A)
                 (A) (A) (A) (A) (A) (A) (A) (A) (A) (A) (A) (A)
                 (A) (A) (A) (A) (A) (A) (A) (A) (A) (A) (A) (A)
                 (A) (A) (A) (A) (A) (A) (A) (A) (A) (A) (A) (A)
                 (A) (A) (A) (A) (A) (A) (A) (A) (A) (A) (A) (A)
                 (A) (A) (A) (A) (A) (A) (A) (A) (A) (A) (A) (A)
                 (A) (A) (A) (A) (A) (A) (A) (A) (A) (A) (A) (A)
                 (A) (A) (A) (A) (A) (A) (A) (A) (A) (A) (A) (A)
                 (A) (A) (A) (A) (A) (A) (A) (A) (A) (A) (A) (A)
                 (A) (A) (A) (A) (A) (A) (A) (A) (A) (A) (A) (A)
                 (A) (A) (A) (A) (A) (A) (A) (A) (A) (A) (A) (A)
                 (A) (A) (A) (A) (A) (A) (A) (A) (A) (A) (A) (A)
                 (A) (A) (A) (A) (A) (A) (A) (A) (A) (A) (A)
 The electronic state of the initial guess is 1-A.
 Leave Link  401 at Fri May  8 10:56:58 2020, MaxMem= 1073741824 cpu:       4.8
 (Enter /home/matheus/.gaussian/g09/l502.exe)
 Closed shell SCF:
 Requested convergence on RMS density matrix=1.00D-08 within 128 cycles.
 Requested convergence on MAX density matrix=1.00D-06.
 Requested convergence on             energy=1.00D-06.
 No special actions if energy rises.
 Using DIIS extrapolation, IDIIS=  1040.
 Integral symmetry usage will be decided dynamically.
       126521 words used for storage of precomputed grid.
 IEnd=      305468 IEndB=      305468 NGot=  1073741824 MDV=  1073505667
 LenX=  1073505667 LenY=  1073452785
 Fock matrices will be formed incrementally for  20 cycles.

 Cycle   1  Pass 1  IDiag  1:
 FoFJK:  IHMeth= 1 ICntrl=     0 DoSepK=T KAlg= 1 I1Cent= 0 FoldK=F
 FoFCou: FMM=F IPFlag=           0 FMFlag=      100000 FMFlg1=           0
         NFxFlg=           0 DoJE=T BraDBF=F KetDBF=F FulRan=T
         Omega=  0.000000  0.000000  1.000000  0.000000  0.000000 ICntrl=     500 IOpCl=  0
         NMat0=    1 NMatS0=    1 NMatT0=    0 NMatD0=    1 NMtDS0=    0 NMtDT0=    0
         I1Cent=           0 NGrid=           0.
 Symmetry not used in FoFCou.
 E= -2753.43084031822    
 DIIS: error= 2.71D-02 at cycle   1 NSaved=   1.
 NSaved= 1 IEnMin= 1 EnMin= -2753.43084031822     IErMin= 1 ErrMin= 2.71D-02
 ErrMax= 2.71D-02 EMaxC= 1.00D-01 BMatC= 2.25D-01 BMatP= 2.25D-01
 IDIUse=3 WtCom= 7.29D-01 WtEn= 2.71D-01
 Coeff-Com:  0.100D+01
 Coeff-En:   0.100D+01
 Coeff:      0.100D+01
 Gap=     0.637 Goal=   None    Shift=    0.000
 GapD=    0.637 DampG=2.000 DampE=0.500 DampFc=1.0000 IDamp=-1.
 RMSDP=2.06D-03 MaxDP=1.43D-01              OVMax= 5.14D-02

 Cycle   2  Pass 1  IDiag  1:
 RMSU=  1.41D-03    CP:  1.02D+00
 FoFJK:  IHMeth= 1 ICntrl=     0 DoSepK=T KAlg= 1 I1Cent= 0 FoldK=F
 E= -2753.46431056844     Delta-E=       -0.033470250230 Rises=F Damp=F
 DIIS: error= 1.00D-02 at cycle   2 NSaved=   2.
 NSaved= 2 IEnMin= 2 EnMin= -2753.46431056844     IErMin= 2 ErrMin= 1.00D-02
 ErrMax= 1.00D-02 EMaxC= 1.00D-01 BMatC= 4.97D-02 BMatP= 2.25D-01
 IDIUse=3 WtCom= 9.00D-01 WtEn= 1.00D-01
 Coeff-Com:  0.315D+00 0.685D+00
 Coeff-En:   0.628D-01 0.937D+00
 Coeff:      0.290D+00 0.710D+00
 Gap=     0.551 Goal=   None    Shift=    0.000
 RMSDP=7.53D-04 MaxDP=4.99D-02 DE=-3.35D-02 OVMax= 1.84D-02

 Cycle   3  Pass 1  IDiag  1:
 RMSU=  1.45D-04    CP:  1.01D+00  6.49D-01
 FoFJK:  IHMeth= 1 ICntrl=     0 DoSepK=T KAlg= 1 I1Cent= 0 FoldK=F
 E= -2753.47775841289     Delta-E=       -0.013447844447 Rises=F Damp=F
 DIIS: error= 9.64D-04 at cycle   3 NSaved=   3.
 NSaved= 3 IEnMin= 3 EnMin= -2753.47775841289     IErMin= 3 ErrMin= 9.64D-04
 ErrMax= 9.64D-04 EMaxC= 1.00D-01 BMatC= 4.95D-04 BMatP= 4.97D-02
 IDIUse=3 WtCom= 9.90D-01 WtEn= 9.64D-03
 Coeff-Com: -0.467D-02 0.818D-01 0.923D+00
 Coeff-En:   0.000D+00 0.000D+00 0.100D+01
 Coeff:     -0.462D-02 0.810D-01 0.924D+00
 Gap=     0.557 Goal=   None    Shift=    0.000
 RMSDP=6.74D-05 MaxDP=4.07D-03 DE=-1.34D-02 OVMax= 2.35D-03

 Cycle   4  Pass 1  IDiag  1:
 RMSU=  1.34D-05    CP:  1.01D+00  6.80D-01  1.00D+00
 FoFJK:  IHMeth= 1 ICntrl=     0 DoSepK=T KAlg= 1 I1Cent= 0 FoldK=F
 E= -2753.47790264134     Delta-E=       -0.000144228447 Rises=F Damp=F
 DIIS: error= 3.03D-05 at cycle   4 NSaved=   4.
 NSaved= 4 IEnMin= 4 EnMin= -2753.47790264134     IErMin= 4 ErrMin= 3.03D-05
 ErrMax= 3.03D-05 EMaxC= 1.00D-01 BMatC= 4.01D-07 BMatP= 4.95D-04
 IDIUse=1 WtCom= 1.00D+00 WtEn= 0.00D+00
 Coeff-Com: -0.553D-03-0.189D-01-0.164D+00 0.118D+01
 Coeff:     -0.553D-03-0.189D-01-0.164D+00 0.118D+01
 Gap=     0.557 Goal=   None    Shift=    0.000
 RMSDP=5.69D-06 MaxDP=3.20D-04 DE=-1.44D-04 OVMax= 4.11D-04

 Cycle   5  Pass 1  IDiag  1:
 RMSU=  1.78D-06    CP:  1.01D+00  6.80D-01  1.02D+00  1.20D+00
 FoFJK:  IHMeth= 1 ICntrl=     0 DoSepK=T KAlg= 1 I1Cent= 0 FoldK=F
 E= -2753.47790315431     Delta-E=       -0.000000512966 Rises=F Damp=F
 DIIS: error= 2.09D-06 at cycle   5 NSaved=   5.
 NSaved= 5 IEnMin= 5 EnMin= -2753.47790315431     IErMin= 5 ErrMin= 2.09D-06
 ErrMax= 2.09D-06 EMaxC= 1.00D-01 BMatC= 2.18D-09 BMatP= 4.01D-07
 IDIUse=1 WtCom= 1.00D+00 WtEn= 0.00D+00
 Coeff-Com:  0.967D-04 0.196D-03-0.153D-02-0.167D-01 0.102D+01
 Coeff:      0.967D-04 0.196D-03-0.153D-02-0.167D-01 0.102D+01
 Gap=     0.557 Goal=   None    Shift=    0.000
 RMSDP=3.26D-07 MaxDP=2.17D-05 DE=-5.13D-07 OVMax= 1.49D-05

 Cycle   6  Pass 1  IDiag  1:
 RMSU=  1.58D-07    CP:  1.01D+00  6.80D-01  1.02D+00  1.21D+00  1.03D+00
 FoFJK:  IHMeth= 1 ICntrl=     0 DoSepK=T KAlg= 1 I1Cent= 0 FoldK=F
 E= -2753.47790315622     Delta-E=       -0.000000001915 Rises=F Damp=F
 DIIS: error= 3.99D-07 at cycle   6 NSaved=   6.
 NSaved= 6 IEnMin= 6 EnMin= -2753.47790315622     IErMin= 6 ErrMin= 3.99D-07
 ErrMax= 3.99D-07 EMaxC= 1.00D-01 BMatC= 7.65D-11 BMatP= 2.18D-09
 IDIUse=1 WtCom= 1.00D+00 WtEn= 0.00D+00
 Coeff-Com:  0.344D-05 0.179D-03 0.181D-02-0.167D-01 0.334D-01 0.981D+00
 Coeff:      0.344D-05 0.179D-03 0.181D-02-0.167D-01 0.334D-01 0.981D+00
 Gap=     0.557 Goal=   None    Shift=    0.000
 RMSDP=4.88D-08 MaxDP=2.53D-06 DE=-1.92D-09 OVMax= 3.11D-06

 Cycle   7  Pass 1  IDiag  1:
 RMSU=  1.07D-08    CP:  1.01D+00  6.80D-01  1.02D+00  1.21D+00  1.05D+00
                    CP:  1.10D+00
 FoFJK:  IHMeth= 1 ICntrl=     0 DoSepK=T KAlg= 1 I1Cent= 0 FoldK=F
 E= -2753.47790315625     Delta-E=       -0.000000000025 Rises=F Damp=F
 DIIS: error= 3.37D-08 at cycle   7 NSaved=   7.
 NSaved= 7 IEnMin= 7 EnMin= -2753.47790315625     IErMin= 7 ErrMin= 3.37D-08
 ErrMax= 3.37D-08 EMaxC= 1.00D-01 BMatC= 4.23D-13 BMatP= 7.65D-11
 IDIUse=1 WtCom= 1.00D+00 WtEn= 0.00D+00
 Coeff-Com:  0.221D-06 0.314D-04 0.328D-03-0.288D-02 0.278D-02 0.155D+00
 Coeff-Com:  0.845D+00
 Coeff:      0.221D-06 0.314D-04 0.328D-03-0.288D-02 0.278D-02 0.155D+00
 Coeff:      0.845D+00
 Gap=     0.557 Goal=   None    Shift=    0.000
 RMSDP=5.47D-09 MaxDP=1.79D-07 DE=-2.46D-11 OVMax= 2.43D-07

 SCF Done:  E(RLC-wPBE) =  -2753.47790316     A.U. after    7 cycles
             Convg  =    0.5466D-08             -V/T =  2.0014
 KE= 2.749513799659D+03 PE=-6.579047866086D+03 EE= 1.076056163271D+03
 Leave Link  502 at Fri May  8 10:57:26 2020, MaxMem= 1073741824 cpu:     225.0
 (Enter /home/matheus/.gaussian/g09/l601.exe)
 Copying SCF densities to generalized density rwf, IOpCl= 0 IROHF=0.

 **********************************************************************

            Population analysis using the SCF density.

 **********************************************************************

 Orbital symmetries:
       Occupied  (A) (A) (A) (A) (A) (A) (A) (A) (A) (A) (A) (A)
                 (A) (A) (A) (A) (A) (A)
       Virtual   (A) (A) (A) (A) (A) (A) (A) (A) (A) (A) (A) (A)
                 (A) (A) (A) (A) (A) (A) (A) (A) (A) (A) (A) (A)
                 (A) (A) (A) (A) (A) (A) (A) (A) (A) (A) (A) (A)
                 (A) (A) (A) (A) (A) (A) (A) (A) (A) (A) (A) (A)
                 (A) (A) (A) (A) (A) (A) (A) (A) (A) (A) (A) (A)
                 (A) (A) (A) (A) (A) (A) (A) (A) (A) (A) (A) (A)
                 (A) (A) (A) (A) (A) (A) (A) (A) (A) (A) (A) (A)
                 (A) (A) (A) (A) (A) (A) (A) (A) (A) (A) (A) (A)
                 (A) (A) (A) (A) (A) (A) (A) (A) (A) (A) (A) (A)
                 (A) (A) (A) (A) (A) (A) (A) (A) (A) (A) (A) (A)
                 (A) (A) (A) (A) (A) (A) (A) (A) (A) (A) (A) (A)
                 (A) (A) (A) (A) (A) (A) (A) (A) (A) (A) (A) (A)
                 (A) (A) (A) (A) (A) (A) (A) (A) (A) (A) (A) (A)
                 (A) (A) (A) (A) (A) (A) (A) (A) (A) (A) (A) (A)
                 (A) (A) (A) (A) (A) (A) (A) (A) (A) (A) (A)
 The electronic state is 1-A.
 Alpha  occ. eigenvalues -- -511.18552 -66.73375 -60.39485 -60.39482 -60.39481
 Alpha  occ. eigenvalues --   -9.66931  -7.41183  -7.41181  -7.41181  -3.35590
 Alpha  occ. eigenvalues --   -3.35589  -3.35589  -3.35587  -3.35587  -1.08852
 Alpha  occ. eigenvalues --   -0.52697  -0.52694  -0.52692
 Alpha virt. eigenvalues --    0.03006   0.04946   0.08528   0.09185   0.12067
 Alpha virt. eigenvalues --    0.12432   0.13381   0.13637   0.16084   0.17095
 Alpha virt. eigenvalues --    0.17869   0.19516   0.21022   0.26275   0.27437
 Alpha virt. eigenvalues --    0.28139   0.28971   0.31490   0.33546   0.35116
 Alpha virt. eigenvalues --    0.35899   0.37782   0.38881   0.40384   0.41557
 Alpha virt. eigenvalues --    0.42198   0.44522   0.54297   0.55757   0.59383
 Alpha virt. eigenvalues --    0.59834   0.66452   0.68876   0.69232   0.72004
 Alpha virt. eigenvalues --    0.74287   0.75654   0.77910   0.79197   0.79790
 Alpha virt. eigenvalues --    0.81364   0.81743   0.84997   0.85718   0.88125
 Alpha virt. eigenvalues --    0.89053   0.89502   0.91116   0.92129   0.97076
 Alpha virt. eigenvalues --    0.97766   0.99045   1.00450   1.01151   1.03399
 Alpha virt. eigenvalues --    1.05664   1.07830   1.10086   1.12892   1.15345
 Alpha virt. eigenvalues --    1.18371   1.21657   1.24803   1.29655   1.32091
 Alpha virt. eigenvalues --    1.33633   1.39535   1.44954   1.46757   1.49062
 Alpha virt. eigenvalues --    1.55408   1.57482   1.60780   1.72245   1.76739
 Alpha virt. eigenvalues --    1.82190   1.82398   1.86800   1.97348   2.20045
 Alpha virt. eigenvalues --    2.23570   2.25580   2.30566   2.31871   2.33945
 Alpha virt. eigenvalues --    2.34513   2.36683   2.37807   2.38567   2.42632
 Alpha virt. eigenvalues --    2.44902   2.46313   2.47700   2.52254   2.53061
 Alpha virt. eigenvalues --    2.54917   2.56174   2.57816   2.61020   2.61528
 Alpha virt. eigenvalues --    2.64600   2.66061   2.68183   2.71785   2.73628
 Alpha virt. eigenvalues --    2.76271   2.80538   2.85550   2.88000   2.90912
 Alpha virt. eigenvalues --    2.97126   2.99709   3.05794   3.08394   3.18144
 Alpha virt. eigenvalues --    3.19951   3.29702   3.30605   3.39450   3.45270
 Alpha virt. eigenvalues --    3.61216   3.66153   3.81812   3.86605   4.03425
 Alpha virt. eigenvalues --    4.37329   4.47284   4.54581   4.58808   4.65595
 Alpha virt. eigenvalues --    4.72191   4.86682   4.87660   4.97565   5.06274
 Alpha virt. eigenvalues --    5.10865   5.28255   5.57371   5.67595   5.84958
 Alpha virt. eigenvalues --    5.88650   5.96636   6.15138   6.79198   6.82373
 Alpha virt. eigenvalues --    7.38128   7.48520   7.54360   7.64216   7.73935
 Alpha virt. eigenvalues --    7.79633   7.96039   8.16163   8.17494   8.21845
 Alpha virt. eigenvalues --    8.36931   8.51384   8.57107   8.87933   9.62449
 Alpha virt. eigenvalues --    9.75760   9.83818   9.86099   9.94036   9.98851
 Alpha virt. eigenvalues --   10.16007  10.26397  10.46067  10.95869  11.54874
 Alpha virt. eigenvalues --   11.62043  11.81492  12.03475  12.09116  13.19502
 Alpha virt. eigenvalues --   13.70936  14.51442  62.82903  64.68283
          Condensed to atoms (all electrons):
              1          2          3          4          5
     1  O    0.001012  -0.001353  -0.000402   0.001049  -0.007249
     2  O   -0.001353   0.005067   0.000401  -0.003977   0.000038
     3  H   -0.000402   0.000401   0.000345  -0.000207  -0.002299
     4  H    0.001049  -0.003977  -0.000207   0.004662  -0.029728
     5  Kr  -0.007249   0.000038  -0.002299  -0.029728  36.076368
 Mulliken atomic charges:
              1
     1  O    0.006945
     2  O   -0.000176
     3  H    0.002162
     4  H    0.028201
     5  Kr  -0.037131
 Sum of Mulliken atomic charges =   0.00000
 Mulliken charges with hydrogens summed into heavy atoms:
              1
     1  O    0.009107
     2  O    0.028024
     5  Kr  -0.037131
 Sum of Mulliken charges with hydrogens summed into heavy atoms =   0.00000
          Condensed to fragments (all electrons):
     1       0.037131
     2      -0.037131
 Electronic spatial extent (au):  <R**2>=            161.9284
 Charge=              0.0000 electrons
 Dipole moment (field-independent basis, Debye):
    X=              0.0008    Y=              0.0004    Z=              0.0001  Tot=              0.0009
 Quadrupole moment (field-independent basis, Debye-Ang):
   XX=            -17.5382   YY=            -17.5503   ZZ=            -17.5572
   XY=              0.0025   XZ=              0.0019   YZ=             -0.0008
 Traceless Quadrupole moment (field-independent basis, Debye-Ang):
   XX=              0.0104   YY=             -0.0018   ZZ=             -0.0086
   XY=              0.0025   XZ=              0.0019   YZ=             -0.0008
 Octapole moment (field-independent basis, Debye-Ang**2):
  XXX=             51.4176  YYY=              0.3375  ZZZ=              0.1341  XYY=             17.1523
  XXY=              0.1072  XXZ=              0.0418  XZZ=             17.1560  YZZ=              0.1127
  YYZ=              0.0451  XYZ=              0.0001
 Hexadecapole moment (field-independent basis, Debye-Ang**3):
 XXXX=           -118.4920 YYYY=            -18.0318 ZZZZ=            -18.0513 XXXY=             -0.3211
 XXXZ=             -0.1249 YYYX=             -0.3206 YYYZ=             -0.0012 ZZZX=             -0.1276
 ZZZY=             -0.0011 XXYY=            -22.7642 XXZZ=            -22.7687 YYZZ=             -6.0127
 XXYZ=             -0.0016 YYXZ=             -0.0423 ZZXY=             -0.1062
 N-N= 0.000000000000D+00 E-N=-6.579047863325D+03  KE= 2.749513799659D+03
 No NMR shielding tensors so no spin-rotation constants.
 Leave Link  601 at Fri May  8 10:57:26 2020, MaxMem= 1073741824 cpu:       0.9
 (Enter /home/matheus/.gaussian/g09/l122.exe)
 Counterpoise: doing MCBS calculation for fragment   1
 Leave Link  122 at Fri May  8 10:57:26 2020, MaxMem= 1073741824 cpu:       0.0
 (Enter /home/matheus/.gaussian/g09/l301.exe)
 Basis read from rwf:  (5D, 7F)
 No pseudopotential information found on rwf file.
 There are   138 symmetry adapted basis functions of A   symmetry.
 Integral buffers will be    131072 words long.
 Raffenetti 2 integral format.
 Two-electron integral symmetry is turned on.
   138 basis functions,   198 primitive gaussians,   160 cartesian basis functions
     9 alpha electrons        9 beta electrons
       nuclear repulsion energy        36.6380791177 Hartrees.
 IExCor=32609 DFT=T Ex+Corr=LC-wPBE ExCW=0 ScaHFX=  1.000000
 ScaDFX=  1.000000  0.000000  1.000000  1.000000 ScalE2=  1.000000  1.000000
 IRadAn=      5 IRanWt=     -1 IRanGd=            0 ICorTp=0
  HFx wShort=  0.000000 wLong=  0.550000 cFull=  0.000000 cShort=  0.000000 cLong=  1.000000
  DFx wShort=  0.000000 wLong=  0.550000 cFull=  0.000000 cShort=  0.000000 cLong=  1.000000
 NAtoms=    5 NActive=    4 NUniq=    4 SFac= 1.00D+00 NAtFMM=   60 NAOKFM=F Big=F
 No density basis found on file   718.
 Leave Link  301 at Fri May  8 10:57:26 2020, MaxMem= 1073741824 cpu:       0.2
 (Enter /home/matheus/.gaussian/g09/l302.exe)
 NPDir=0 NMtPBC=     1 NCelOv=     1 NCel=       1 NClECP=     1 NCelD=      1
         NCelK=      1 NCelE2=     1 NClLst=     1 CellRange=     0.0.
 One-electron integrals computed using PRISM.
 NBasis=   138 RedAO= T  NBF=   138
 NBsUse=   138 1.00D-06 NBFU=   138
 Precomputing XC quadrature grid using
 IXCGrd= 2 IRadAn=           5 IRanWt=          -1 IRanGd=           0 AccXCQ= 0.00D+00.
 NRdTot=     344 NPtTot=       92556 NUsed=       95038 NTot=       95070
 NSgBfM=   160   160   160   160   160 NAtAll=     4     4.
 Leave Link  302 at Fri May  8 10:57:26 2020, MaxMem= 1073741824 cpu:       0.9
 (Enter /home/matheus/.gaussian/g09/l303.exe)
 DipDrv:  MaxL=1.
 Leave Link  303 at Fri May  8 10:57:26 2020, MaxMem= 1073741824 cpu:       0.2
 (Enter /home/matheus/.gaussian/g09/l401.exe)
 Harris functional with IExCor=32609 diagonalized for initial guess.
 ExpMin= 2.53D-02 ExpMax= 1.53D+04 ExpMxC= 5.22D+02 IAcc=3 IRadAn=         5 AccDes= 0.00D+00
 HarFok:  IExCor=32609 AccDes= 0.00D+00 IRadAn=         5 IDoV= 1
 ScaDFX=  1.000000  1.000000  1.000000  1.000000
 FoFCou: FMM=F IPFlag=           0 FMFlag=      100000 FMFlg1=           0
         NFxFlg=           0 DoJE=T BraDBF=F KetDBF=T FulRan=T
         Omega=  0.000000  0.000000  1.000000  0.000000  0.000000 ICntrl=     500 IOpCl=  0
         NMat0=    1 NMatS0=    1 NMatT0=    0 NMatD0=    1 NMtDS0=    0 NMtDT0=    0
         I1Cent=           4 NGrid=           0.
 Petite list used in FoFCou.
 Harris En= -151.502239870003    
 Initial guess orbital symmetries:
       Occupied  (A) (A) (A) (A) (A) (A) (A) (A) (A)
       Virtual   (A) (A) (A) (A) (A) (A) (A) (A) (A) (A) (A) (A)
                 (A) (A) (A) (A) (A) (A) (A) (A) (A) (A) (A) (A)
                 (A) (A) (A) (A) (A) (A) (A) (A) (A) (A) (A) (A)
                 (A) (A) (A) (A) (A) (A) (A) (A) (A) (A) (A) (A)
                 (A) (A) (A) (A) (A) (A) (A) (A) (A) (A) (A) (A)
                 (A) (A) (A) (A) (A) (A) (A) (A) (A) (A) (A) (A)
                 (A) (A) (A) (A) (A) (A) (A) (A) (A) (A) (A) (A)
                 (A) (A) (A) (A) (A) (A) (A) (A) (A) (A) (A) (A)
                 (A) (A) (A) (A) (A) (A) (A) (A) (A) (A) (A) (A)
                 (A) (A) (A) (A) (A) (A) (A) (A) (A) (A) (A) (A)
                 (A) (A) (A) (A) (A) (A) (A) (A) (A)
 The electronic state of the initial guess is 1-A.
 Leave Link  401 at Fri May  8 10:57:27 2020, MaxMem= 1073741824 cpu:       2.7
 (Enter /home/matheus/.gaussian/g09/l502.exe)
 Closed shell SCF:
 Requested convergence on RMS density matrix=1.00D-08 within 128 cycles.
 Requested convergence on MAX density matrix=1.00D-06.
 Requested convergence on             energy=1.00D-06.
 No special actions if energy rises.
 Using DIIS extrapolation, IDIIS=  1040.
 Integral symmetry usage will be decided dynamically.
        94980 words used for storage of precomputed grid.
 IEnd=      192360 IEndB=      192360 NGot=  1073741824 MDV=  1073591865
 LenX=  1073591865 LenY=  1073565824
 Fock matrices will be formed incrementally for  20 cycles.

 Cycle   1  Pass 1  IDiag  1:
 FoFJK:  IHMeth= 1 ICntrl=     0 DoSepK=T KAlg= 1 I1Cent= 0 FoldK=F
 FoFCou: FMM=F IPFlag=           0 FMFlag=      100000 FMFlg1=           0
         NFxFlg=           0 DoJE=T BraDBF=F KetDBF=F FulRan=T
         Omega=  0.000000  0.000000  1.000000  0.000000  0.000000 ICntrl=     500 IOpCl=  0
         NMat0=    1 NMatS0=    1 NMatT0=    0 NMatD0=    1 NMtDS0=    0 NMtDT0=    0
         I1Cent=           0 NGrid=           0.
 Symmetry not used in FoFCou.
 E= -151.506002147767    
 DIIS: error= 1.74D-02 at cycle   1 NSaved=   1.
 NSaved= 1 IEnMin= 1 EnMin= -151.506002147767     IErMin= 1 ErrMin= 1.74D-02
 ErrMax= 1.74D-02 EMaxC= 1.00D-01 BMatC= 4.16D-02 BMatP= 4.16D-02
 IDIUse=3 WtCom= 8.26D-01 WtEn= 1.74D-01
 Coeff-Com:  0.100D+01
 Coeff-En:   0.100D+01
 Coeff:      0.100D+01
 Gap=     0.568 Goal=   None    Shift=    0.000
 GapD=    0.568 DampG=2.000 DampE=0.500 DampFc=1.0000 IDamp=-1.
 RMSDP=1.04D-03 MaxDP=2.34D-02              OVMax= 5.44D-02

 Cycle   2  Pass 1  IDiag  1:
 RMSU=  7.28D-04    CP:  9.91D-01
 FoFJK:  IHMeth= 1 ICntrl=     0 DoSepK=T KAlg= 1 I1Cent= 0 FoldK=F
 E= -151.522779545246     Delta-E=       -0.016777397479 Rises=F Damp=F
 DIIS: error= 9.69D-03 at cycle   2 NSaved=   2.
 NSaved= 2 IEnMin= 2 EnMin= -151.522779545246     IErMin= 2 ErrMin= 9.69D-03
 ErrMax= 9.69D-03 EMaxC= 1.00D-01 BMatC= 1.68D-02 BMatP= 4.16D-02
 IDIUse=3 WtCom= 9.03D-01 WtEn= 9.69D-02
 Coeff-Com:  0.375D+00 0.625D+00
 Coeff-En:   0.130D+00 0.870D+00
 Coeff:      0.352D+00 0.648D+00
 Gap=     0.484 Goal=   None    Shift=    0.000
 RMSDP=6.00D-04 MaxDP=2.22D-02 DE=-1.68D-02 OVMax= 2.37D-02

 Cycle   3  Pass 1  IDiag  1:
 RMSU=  3.36D-04    CP:  9.86D-01  6.50D-01
 FoFJK:  IHMeth= 1 ICntrl=     0 DoSepK=T KAlg= 1 I1Cent= 0 FoldK=F
 E= -151.532292688781     Delta-E=       -0.009513143534 Rises=F Damp=F
 DIIS: error= 2.10D-03 at cycle   3 NSaved=   3.
 NSaved= 3 IEnMin= 3 EnMin= -151.532292688781     IErMin= 3 ErrMin= 2.10D-03
 ErrMax= 2.10D-03 EMaxC= 1.00D-01 BMatC= 4.29D-04 BMatP= 1.68D-02
 IDIUse=3 WtCom= 9.79D-01 WtEn= 2.10D-02
 Coeff-Com:  0.408D-01 0.159D+00 0.800D+00
 Coeff-En:   0.000D+00 0.000D+00 0.100D+01
 Coeff:      0.400D-01 0.156D+00 0.804D+00
 Gap=     0.476 Goal=   None    Shift=    0.000
 RMSDP=7.90D-05 MaxDP=1.63D-03 DE=-9.51D-03 OVMax= 4.18D-03

 Cycle   4  Pass 1  IDiag  1:
 RMSU=  3.86D-05    CP:  9.85D-01  7.00D-01  1.02D+00
 FoFJK:  IHMeth= 1 ICntrl=     0 DoSepK=T KAlg= 1 I1Cent= 0 FoldK=F
 E= -151.532564608785     Delta-E=       -0.000271920004 Rises=F Damp=F
 DIIS: error= 2.60D-04 at cycle   4 NSaved=   4.
 NSaved= 4 IEnMin= 4 EnMin= -151.532564608785     IErMin= 4 ErrMin= 2.60D-04
 ErrMax= 2.60D-04 EMaxC= 1.00D-01 BMatC= 1.01D-05 BMatP= 4.29D-04
 IDIUse=3 WtCom= 9.97D-01 WtEn= 2.60D-03
 Coeff-Com: -0.968D-02-0.129D-01 0.867D-01 0.936D+00
 Coeff-En:   0.000D+00 0.000D+00 0.000D+00 0.100D+01
 Coeff:     -0.965D-02-0.128D-01 0.865D-01 0.936D+00
 Gap=     0.478 Goal=   None    Shift=    0.000
 RMSDP=1.92D-05 MaxDP=7.93D-04 DE=-2.72D-04 OVMax= 7.75D-04

 Cycle   5  Pass 1  IDiag  1:
 RMSU=  6.22D-06    CP:  9.84D-01  6.99D-01  1.05D+00  1.05D+00
 FoFJK:  IHMeth= 1 ICntrl=     0 DoSepK=T KAlg= 1 I1Cent= 0 FoldK=F
 E= -151.532573520760     Delta-E=       -0.000008911976 Rises=F Damp=F
 DIIS: error= 5.96D-05 at cycle   5 NSaved=   5.
 NSaved= 5 IEnMin= 5 EnMin= -151.532573520760     IErMin= 5 ErrMin= 5.96D-05
 ErrMax= 5.96D-05 EMaxC= 1.00D-01 BMatC= 2.25D-07 BMatP= 1.01D-05
 IDIUse=1 WtCom= 1.00D+00 WtEn= 0.00D+00
 Coeff-Com: -0.277D-03-0.183D-02-0.340D-01-0.123D+00 0.116D+01
 Coeff:     -0.277D-03-0.183D-02-0.340D-01-0.123D+00 0.116D+01
 Gap=     0.478 Goal=   None    Shift=    0.000
 RMSDP=4.87D-06 MaxDP=8.37D-05 DE=-8.91D-06 OVMax= 3.15D-04

 Cycle   6  Pass 1  IDiag  1:
 RMSU=  1.62D-06    CP:  9.84D-01  7.00D-01  1.06D+00  1.10D+00  1.32D+00
 FoFJK:  IHMeth= 1 ICntrl=     0 DoSepK=T KAlg= 1 I1Cent= 0 FoldK=F
 E= -151.532574107611     Delta-E=       -0.000000586851 Rises=F Damp=F
 DIIS: error= 9.77D-06 at cycle   6 NSaved=   6.
 NSaved= 6 IEnMin= 6 EnMin= -151.532574107611     IErMin= 6 ErrMin= 9.77D-06
 ErrMax= 9.77D-06 EMaxC= 1.00D-01 BMatC= 1.27D-08 BMatP= 2.25D-07
 IDIUse=1 WtCom= 1.00D+00 WtEn= 0.00D+00
 Coeff-Com:  0.273D-03 0.791D-03 0.481D-02 0.236D-03-0.238D+00 0.123D+01
 Coeff:      0.273D-03 0.791D-03 0.481D-02 0.236D-03-0.238D+00 0.123D+01
[...]
 NSaved= 1 IEnMin= 1 EnMin= -2753.47777996165     IErMin= 1 ErrMin= 1.78D-04
 ErrMax= 1.78D-04 EMaxC= 1.00D-01 BMatC= 4.84D-06 BMatP= 4.84D-06
 IDIUse=3 WtCom= 9.98D-01 WtEn= 1.78D-03
 Coeff-Com:  0.100D+01
 Coeff-En:   0.100D+01
 Coeff:      0.100D+01
 Gap=     0.555 Goal=   None    Shift=    0.000
 RMSDP=1.41D-05 MaxDP=6.97D-04              OVMax= 3.11D-04

 Cycle   2  Pass 1  IDiag  1:
 RMSU=  9.99D-06    CP:  1.00D+00
 FoFJK:  IHMeth= 1 ICntrl=     0 DoSepK=T KAlg= 1 I1Cent= 0 FoldK=F
 E= -2753.47778052594     Delta-E=       -0.000000564298 Rises=F Damp=F
 DIIS: error= 3.93D-06 at cycle   2 NSaved=   2.
 NSaved= 2 IEnMin= 2 EnMin= -2753.47778052594     IErMin= 2 ErrMin= 3.93D-06
 ErrMax= 3.93D-06 EMaxC= 1.00D-01 BMatC= 3.86D-09 BMatP= 4.84D-06
 IDIUse=1 WtCom= 1.00D+00 WtEn= 0.00D+00
 Coeff-Com: -0.829D-02 0.101D+01
 Coeff:     -0.829D-02 0.101D+01
 Gap=     0.555 Goal=   None    Shift=    0.000
 DSYEVD returned Info=       19799 IAlg= 4 N=   197 NDim=   197 NE2=     5448996 trying DSYEV.
 RMSDP=1.53D-06 MaxDP=6.31D-05 DE=-5.64D-07 OVMax= 4.64D-05

 Cycle   3  Pass 1  IDiag  1:
 RMSU=  5.24D-07    CP:  1.00D+00  1.10D+00
 FoFJK:  IHMeth= 1 ICntrl=     0 DoSepK=T KAlg= 1 I1Cent= 0 FoldK=F
 E= -2753.47778053270     Delta-E=       -0.000000006756 Rises=F Damp=F
 DIIS: error= 7.35D-07 at cycle   3 NSaved=   3.
 NSaved= 3 IEnMin= 3 EnMin= -2753.47778053270     IErMin= 3 ErrMin= 7.35D-07
 ErrMax= 7.35D-07 EMaxC= 1.00D-01 BMatC= 9.28D-11 BMatP= 3.86D-09
 IDIUse=1 WtCom= 1.00D+00 WtEn= 0.00D+00
 Coeff-Com:  0.351D-03-0.130D+00 0.113D+01
 Coeff:      0.351D-03-0.130D+00 0.113D+01
 Gap=     0.555 Goal=   None    Shift=    0.000
 RMSDP=2.13D-07 MaxDP=1.02D-05 DE=-6.76D-09 OVMax= 9.26D-06

 Cycle   4  Pass 1  IDiag  1:
 RMSU=  4.89D-08    CP:  1.00D+00  1.10D+00  1.21D+00
 FoFJK:  IHMeth= 1 ICntrl=     0 DoSepK=T KAlg= 1 I1Cent= 0 FoldK=F
 E= -2753.47778053289     Delta-E=       -0.000000000194 Rises=F Damp=F
 DIIS: error= 2.16D-07 at cycle   4 NSaved=   4.
 NSaved= 4 IEnMin= 4 EnMin= -2753.47778053289     IErMin= 4 ErrMin= 2.16D-07
 ErrMax= 2.16D-07 EMaxC= 1.00D-01 BMatC= 6.03D-12 BMatP= 9.28D-11
 IDIUse=1 WtCom= 1.00D+00 WtEn= 0.00D+00
 Coeff-Com:  0.174D-03-0.403D-01 0.239D+00 0.801D+00
 Coeff:      0.174D-03-0.403D-01 0.239D+00 0.801D+00
 Gap=     0.555 Goal=   None    Shift=    0.000
 RMSDP=1.74D-08 MaxDP=7.22D-07 DE=-1.94D-10 OVMax= 8.39D-07

 Cycle   5  Pass 1  IDiag  1:
 RMSU=  7.11D-09    CP:  1.00D+00  1.10D+00  1.23D+00  1.13D+00
 FoFJK:  IHMeth= 1 ICntrl=     0 DoSepK=T KAlg= 1 I1Cent= 0 FoldK=F
 E= -2753.47778053289     Delta-E=        0.000000000001 Rises=F Damp=F
 DIIS: error= 3.27D-08 at cycle   5 NSaved=   5.
 NSaved= 5 IEnMin= 4 EnMin= -2753.47778053289     IErMin= 5 ErrMin= 3.27D-08
 ErrMax= 3.27D-08 EMaxC= 1.00D-01 BMatC= 2.37D-13 BMatP= 6.03D-12
 IDIUse=1 WtCom= 1.00D+00 WtEn= 0.00D+00
 Coeff-Com: -0.144D-04 0.641D-02-0.577D-01 0.140D-01 0.104D+01
 Coeff:     -0.144D-04 0.641D-02-0.577D-01 0.140D-01 0.104D+01
 Gap=     0.555 Goal=   None    Shift=    0.000
 RMSDP=7.20D-09 MaxDP=3.97D-07 DE= 1.36D-12 OVMax= 3.72D-07

 SCF Done:  E(RLC-wPBE) =  -2753.47778053     A.U. after    5 cycles
             Convg  =    0.7204D-08             -V/T =  2.0014
 KE= 2.749555212993D+03 PE=-6.579093134607D+03 EE= 1.076060141080D+03
 Leave Link  502 at Fri May  8 11:25:47 2020, MaxMem= 1073741824 cpu:     112.3
 (Enter /home/matheus/.gaussian/g09/l122.exe)
 Restoring MOs from calculation   4 to rwf.
 Counterpoise: doing MCBS calculation for fragment   1
 Leave Link  122 at Fri May  8 11:25:47 2020, MaxMem= 1073741824 cpu:       0.0
 (Enter /home/matheus/.gaussian/g09/l301.exe)
 Basis read from rwf:  (5D, 7F)
 No pseudopotential information found on rwf file.
 There are   138 symmetry adapted basis functions of A   symmetry.
 Integral buffers will be    131072 words long.
 Raffenetti 2 integral format.
 Two-electron integral symmetry is turned on.
   138 basis functions,   198 primitive gaussians,   160 cartesian basis functions
     9 alpha electrons        9 beta electrons
       nuclear repulsion energy        36.6380791177 Hartrees.
 IExCor=32609 DFT=T Ex+Corr=LC-wPBE ExCW=0 ScaHFX=  1.000000
 ScaDFX=  1.000000  0.000000  1.000000  1.000000 ScalE2=  1.000000  1.000000
 IRadAn=      5 IRanWt=     -1 IRanGd=            0 ICorTp=0
  HFx wShort=  0.000000 wLong=  0.550000 cFull=  0.000000 cShort=  0.000000 cLong=  1.000000
  DFx wShort=  0.000000 wLong=  0.550000 cFull=  0.000000 cShort=  0.000000 cLong=  1.000000
 NAtoms=    5 NActive=    4 NUniq=    4 SFac= 1.00D+00 NAtFMM=   60 NAOKFM=F Big=F
 No density basis found on file   718.
 Leave Link  301 at Fri May  8 11:25:47 2020, MaxMem= 1073741824 cpu:       0.3
 (Enter /home/matheus/.gaussian/g09/l302.exe)
 NPDir=0 NMtPBC=     1 NCelOv=     1 NCel=       1 NClECP=     1 NCelD=      1
         NCelK=      1 NCelE2=     1 NClLst=     1 CellRange=     0.0.
 One-electron integrals computed using PRISM.
 NBasis=   138 RedAO= T  NBF=   138
 NBsUse=   138 1.00D-06 NBFU=   138
 Precomputing XC quadrature grid using
 IXCGrd= 2 IRadAn=           5 IRanWt=          -1 IRanGd=           0 AccXCQ= 0.00D+00.
 NRdTot=     344 NPtTot=       92556 NUsed=       95038 NTot=       95070
 NSgBfM=   160   160   160   160   160 NAtAll=     4     4.
 Leave Link  302 at Fri May  8 11:25:47 2020, MaxMem= 1073741824 cpu:       0.8
 (Enter /home/matheus/.gaussian/g09/l303.exe)
 DipDrv:  MaxL=1.
 Leave Link  303 at Fri May  8 11:25:47 2020, MaxMem= 1073741824 cpu:       0.2
 (Enter /home/matheus/.gaussian/g09/l401.exe)
 Initial guess read from the read-write file.
 Guess basis will be translated and rotated to current coordinates.
 Initial guess orbital symmetries:
       Occupied  (A) (A) (A) (A) (A) (A) (A) (A) (A)
       Virtual   (A) (A) (A) (A) (A) (A) (A) (A) (A) (A) (A) (A)
                 (A) (A) (A) (A) (A) (A) (A) (A) (A) (A) (A) (A)
                 (A) (A) (A) (A) (A) (A) (A) (A) (A) (A) (A) (A)
                 (A) (A) (A) (A) (A) (A) (A) (A) (A) (A) (A) (A)
                 (A) (A) (A) (A) (A) (A) (A) (A) (A) (A) (A) (A)
                 (A) (A) (A) (A) (A) (A) (A) (A) (A) (A) (A) (A)
                 (A) (A) (A) (A) (A) (A) (A) (A) (A) (A) (A) (A)
                 (A) (A) (A) (A) (A) (A) (A) (A) (A) (A) (A) (A)
                 (A) (A) (A) (A) (A) (A) (A) (A) (A) (A) (A) (A)
                 (A) (A) (A) (A) (A) (A) (A) (A) (A) (A) (A) (A)
                 (A) (A) (A) (A) (A) (A) (A) (A) (A)
 The electronic state of the initial guess is 1-A.
 Generating alternative initial guess.
 Harris functional with IExCor=32609 diagonalized for initial guess.
 ExpMin= 2.53D-02 ExpMax= 1.53D+04 ExpMxC= 5.22D+02 IAcc=3 IRadAn=         5 AccDes= 0.00D+00
 HarFok:  IExCor=32609 AccDes= 0.00D+00 IRadAn=         5 IDoV= 1
 ScaDFX=  1.000000  1.000000  1.000000  1.000000
 FoFCou: FMM=F IPFlag=           0 FMFlag=      100000 FMFlg1=           0
         NFxFlg=           0 DoJE=T BraDBF=F KetDBF=T FulRan=T
         Omega=  0.000000  0.000000  1.000000  0.000000  0.000000 ICntrl=     500 IOpCl=  0
         NMat0=    1 NMatS0=    1 NMatT0=    0 NMatD0=    1 NMtDS0=    0 NMtDT0=    0
         I1Cent=           4 NGrid=           0.
 Petite list used in FoFCou.
 Harris En= -151.502239850645    
 Leave Link  401 at Fri May  8 11:25:47 2020, MaxMem= 1073741824 cpu:       3.0
 (Enter /home/matheus/.gaussian/g09/l502.exe)
 Closed shell SCF:
 Requested convergence on RMS density matrix=1.00D-08 within 128 cycles.
 Requested convergence on MAX density matrix=1.00D-06.
 Requested convergence on             energy=1.00D-06.
 No special actions if energy rises.
 Using DIIS extrapolation, IDIIS=  1040.
 Integral symmetry usage will be decided dynamically.
        94980 words used for storage of precomputed grid.
 IEnd=      192360 IEndB=      192360 NGot=  1073741824 MDV=  1073591865
 LenX=  1073591865 LenY=  1073565824
 Fock matrices will be formed incrementally for  20 cycles.

 Cycle   1  Pass 1  IDiag  1:
 FoFJK:  IHMeth= 1 ICntrl=     0 DoSepK=T KAlg= 1 I1Cent= 0 FoldK=F
 FoFCou: FMM=F IPFlag=           0 FMFlag=      100000 FMFlg1=           0
         NFxFlg=           0 DoJE=T BraDBF=F KetDBF=F FulRan=T
         Omega=  0.000000  0.000000  1.000000  0.000000  0.000000 ICntrl=     500 IOpCl=  0
         NMat0=    1 NMatS0=    1 NMatT0=    0 NMatD0=    1 NMtDS0=    0 NMtDT0=    0
         I1Cent=           0 NGrid=           0.
 Symmetry not used in FoFCou.
 E= -151.532574126809    
 DIIS: error= 6.77D-06 at cycle   1 NSaved=   1.
 NSaved= 1 IEnMin= 1 EnMin= -151.532574126809     IErMin= 1 ErrMin= 6.77D-06
 ErrMax= 6.77D-06 EMaxC= 1.00D-01 BMatC= 1.48D-08 BMatP= 1.48D-08
 IDIUse=1 WtCom= 1.00D+00 WtEn= 0.00D+00
 Coeff-Com:  0.100D+01
 Coeff:      0.100D+01
 Gap=     0.478 Goal=   None    Shift=    0.000
 RMSDP=7.66D-07 MaxDP=1.74D-05              OVMax= 2.92D-05

 Cycle   2  Pass 1  IDiag  1:
 RMSU=  5.42D-07    CP:  1.00D+00
 FoFJK:  IHMeth= 1 ICntrl=     0 DoSepK=T KAlg= 1 I1Cent= 0 FoldK=F
 E= -151.532574140356     Delta-E=       -0.000000013546 Rises=F Damp=F
 DIIS: error= 1.84D-06 at cycle   2 NSaved=   2.
 NSaved= 2 IEnMin= 2 EnMin= -151.532574140356     IErMin= 2 ErrMin= 1.84D-06
 ErrMax= 1.84D-06 EMaxC= 1.00D-01 BMatC= 6.06D-10 BMatP= 1.48D-08
 IDIUse=1 WtCom= 1.00D+00 WtEn= 0.00D+00
 Coeff-Com: -0.141D+00 0.114D+01
 Coeff:     -0.141D+00 0.114D+01
 Gap=     0.478 Goal=   None    Shift=    0.000
 RMSDP=2.31D-07 MaxDP=6.58D-06 DE=-1.35D-08 OVMax= 1.18D-05

 Cycle   3  Pass 1  IDiag  1:
 RMSU=  8.51D-08    CP:  1.00D+00  1.26D+00
 FoFJK:  IHMeth= 1 ICntrl=     0 DoSepK=T KAlg= 1 I1Cent= 0 FoldK=F
 E= -151.532574146202     Delta-E=       -0.000000005846 Rises=F Damp=F
 DIIS: error= 5.65D-07 at cycle   3 NSaved=   3.
 NSaved= 3 IEnMin= 3 EnMin= -151.532574146202     IErMin= 3 ErrMin= 5.65D-07
 ErrMax= 5.65D-07 EMaxC= 1.00D-01 BMatC= 4.14D-11 BMatP= 6.06D-10
 IDIUse=1 WtCom= 1.00D+00 WtEn= 0.00D+00
 Coeff-Com:  0.357D-02-0.213D+00 0.121D+01
 Coeff:      0.357D-02-0.213D+00 0.121D+01
 Gap=     0.478 Goal=   None    Shift=    0.000
 RMSDP=7.64D-08 MaxDP=1.77D-06 DE=-5.85D-09 OVMax= 5.03D-06

 Cycle   4  Pass 1  IDiag  1:
 RMSU=  1.75D-08    CP:  1.00D+00  1.32D+00  1.44D+00
 FoFJK:  IHMeth= 1 ICntrl=     0 DoSepK=T KAlg= 1 I1Cent= 0 FoldK=F
 E= -151.532574146343     Delta-E=       -0.000000000141 Rises=F Damp=F
 DIIS: error= 2.13D-07 at cycle   4 NSaved=   4.
 NSaved= 4 IEnMin= 4 EnMin= -151.532574146343     IErMin= 4 ErrMin= 2.13D-07
 ErrMax= 2.13D-07 EMaxC= 1.00D-01 BMatC= 4.36D-12 BMatP= 4.14D-11
 IDIUse=1 WtCom= 1.00D+00 WtEn= 0.00D+00
 Coeff-Com:  0.841D-02-0.759D-01-0.284D-01 0.110D+01
 Coeff:      0.841D-02-0.759D-01-0.284D-01 0.110D+01
 Gap=     0.478 Goal=   None    Shift=    0.000
 RMSDP=2.41D-08 MaxDP=4.47D-07 DE=-1.41D-10 OVMax= 1.88D-06

 Cycle   5  Pass 1  IDiag  1:
 RMSU=  7.14D-09    CP:  1.00D+00  1.33D+00  1.58D+00  1.46D+00
 FoFJK:  IHMeth= 1 ICntrl=     0 DoSepK=T KAlg= 1 I1Cent= 0 FoldK=F
 E= -151.532574146357     Delta-E=       -0.000000000014 Rises=F Damp=F
 DIIS: error= 8.98D-08 at cycle   5 NSaved=   5.
 NSaved= 5 IEnMin= 5 EnMin= -151.532574146357     IErMin= 5 ErrMin= 8.98D-08
 ErrMax= 8.98D-08 EMaxC= 1.00D-01 BMatC= 1.04D-12 BMatP= 4.36D-12
 IDIUse=1 WtCom= 1.00D+00 WtEn= 0.00D+00
 Coeff-Com:  0.193D-02-0.827D-03-0.125D+00 0.350D+00 0.774D+00
 Coeff:      0.193D-02-0.827D-03-0.125D+00 0.350D+00 0.774D+00
 Gap=     0.478 Goal=   None    Shift=    0.000
 RMSDP=7.20D-09 MaxDP=1.57D-07 DE=-1.38D-11 OVMax= 5.35D-07

 SCF Done:  E(RLC-wPBE) =  -151.532574146     A.U. after    5 cycles
             Convg  =    0.7200D-08             -V/T =  2.0070
 KE= 1.504781580625D+02 PE=-4.315722169889D+02 EE= 9.292340566234D+01
 Leave Link  502 at Fri May  8 11:25:53 2020, MaxMem= 1073741824 cpu:      46.2
 (Enter /home/matheus/.gaussian/g09/l122.exe)
 Restoring MOs from calculation   5 to rwf.
 Counterpoise: doing MCBS calculation for fragment   2
 Leave Link  122 at Fri May  8 11:25:53 2020, MaxMem= 1073741824 cpu:       0.0
 (Enter /home/matheus/.gaussian/g09/l301.exe)
 Basis read from rwf:  (5D, 7F)
 No pseudopotential information found on rwf file.
 There are    59 symmetry adapted basis functions of A   symmetry.
 Integral buffers will be    131072 words long.
 Raffenetti 2 integral format.
 Two-electron integral symmetry is turned on.
    59 basis functions,   217 primitive gaussians,    69 cartesian basis functions
    18 alpha electrons       18 beta electrons
       nuclear repulsion energy         0.0000000000 Hartrees.
 IExCor=32609 DFT=T Ex+Corr=LC-wPBE ExCW=0 ScaHFX=  1.000000
 ScaDFX=  1.000000  0.000000  1.000000  1.000000 ScalE2=  1.000000  1.000000
 IRadAn=      5 IRanWt=     -1 IRanGd=            0 ICorTp=0
  HFx wShort=  0.000000 wLong=  0.550000 cFull=  0.000000 cShort=  0.000000 cLong=  1.000000
  DFx wShort=  0.000000 wLong=  0.550000 cFull=  0.000000 cShort=  0.000000 cLong=  1.000000
 NAtoms=    5 NActive=    1 NUniq=    1 SFac= 1.00D+00 NAtFMM=   60 NAOKFM=F Big=F
 No density basis found on file   718.
 Leave Link  301 at Fri May  8 11:25:53 2020, MaxMem= 1073741824 cpu:       0.3
 (Enter /home/matheus/.gaussian/g09/l302.exe)
 NPDir=0 NMtPBC=     1 NCelOv=     1 NCel=       1 NClECP=     1 NCelD=      1
         NCelK=      1 NCelE2=     1 NClLst=     1 CellRange=     0.0.
 One-electron integrals computed using PRISM.
 NBasis=    59 RedAO= T  NBF=    59
 NBsUse=    59 1.00D-06 NBFU=    59
 Precomputing XC quadrature grid using
 IXCGrd= 2 IRadAn=           5 IRanWt=          -1 IRanGd=           0 AccXCQ= 0.00D+00.
 NRdTot=      81 NPtTot=       30352 NUsed=       30981 NTot=       31013
 NSgBfM=    69    69    69    69    69 NAtAll=     1     1.
 Leave Link  302 at Fri May  8 11:25:53 2020, MaxMem= 1073741824 cpu:       0.8
 (Enter /home/matheus/.gaussian/g09/l303.exe)
 DipDrv:  MaxL=1.
 Leave Link  303 at Fri May  8 11:25:53 2020, MaxMem= 1073741824 cpu:       0.2
 (Enter /home/matheus/.gaussian/g09/l401.exe)
 Initial guess read from the read-write file.
 Guess basis will be translated and rotated to current coordinates.
 Initial guess orbital symmetries:
       Occupied  (A) (A) (A) (A) (A) (A) (A) (A) (A) (A) (A) (A)
                 (A) (A) (A) (A) (A) (A)
       Virtual   (A) (A) (A) (A) (A) (A) (A) (A) (A) (A) (A) (A)
                 (A) (A) (A) (A) (A) (A) (A) (A) (A) (A) (A) (A)
                 (A) (A) (A) (A) (A) (A) (A) (A) (A) (A) (A) (A)
                 (A) (A) (A) (A) (A)
 The electronic state of the initial guess is 1-A.
 Generating alternative initial guess.
 Harris functional with IExCor=32609 diagonalized for initial guess.
 ExpMin= 4.00D-02 ExpMax= 1.17D+07 ExpMxC= 1.33D+04 IAcc=3 IRadAn=         5 AccDes= 0.00D+00
 HarFok:  IExCor=32609 AccDes= 0.00D+00 IRadAn=         5 IDoV= 1
 ScaDFX=  1.000000  1.000000  1.000000  1.000000
 FoFCou: FMM=F IPFlag=           0 FMFlag=      100000 FMFlg1=           0
         NFxFlg=           0 DoJE=T BraDBF=F KetDBF=T FulRan=T
         Omega=  0.000000  0.000000  1.000000  0.000000  0.000000 ICntrl=     500 IOpCl=  0
         NMat0=    1 NMatS0=    1 NMatT0=    0 NMatD0=    1 NMtDS0=    0 NMtDT0=    0
         I1Cent=           4 NGrid=           0.
 Petite list used in FoFCou.
 DSYEVD returned Info=          89 IAlg= 4 N=    59 NDim=    59 NE2=    18198841 trying DSYEV.
 Harris En= -2753.24576836237    
 Leave Link  401 at Fri May  8 11:25:53 2020, MaxMem= 1073741824 cpu:       1.3
 (Enter /home/matheus/.gaussian/g09/l502.exe)
 Closed shell SCF:
 Requested convergence on RMS density matrix=1.00D-08 within 128 cycles.
 Requested convergence on MAX density matrix=1.00D-06.
 Requested convergence on             energy=1.00D-06.
 No special actions if energy rises.
 Using DIIS extrapolation, IDIIS=  1040.
 Integral symmetry usage will be decided dynamically.
        30923 words used for storage of precomputed grid.
 IEnd=       64406 IEndB=       64406 NGot=  1073741824 MDV=  1073698889
 LenX=  1073698889 LenY=  1073693687
 Fock matrices will be formed incrementally for  20 cycles.

 Cycle   1  Pass 1  IDiag  1:
 FoFJK:  IHMeth= 1 ICntrl=     0 DoSepK=T KAlg= 1 I1Cent= 0 FoldK=F
 FoFCou: FMM=F IPFlag=           0 FMFlag=      100000 FMFlg1=           0
         NFxFlg=           0 DoJE=T BraDBF=F KetDBF=F FulRan=T
         Omega=  0.000000  0.000000  1.000000  0.000000  0.000000 ICntrl=     500 IOpCl=  0
         NMat0=    1 NMatS0=    1 NMatT0=    0 NMatD0=    1 NMtDS0=    0 NMtDT0=    0
         I1Cent=           0 NGrid=           0.
 Symmetry not used in FoFCou.
 E= -2753.47775989058    
 DIIS: error= 1.01D-13 at cycle   1 NSaved=   1.
 NSaved= 1 IEnMin= 1 EnMin= -2753.47775989058     IErMin= 1 ErrMin= 1.01D-13
 ErrMax= 1.01D-13 EMaxC= 1.00D-01 BMatC= 1.84D-25 BMatP= 1.84D-25
 IDIUse=1 WtCom= 1.00D+00 WtEn= 0.00D+00
 Coeff-Com:  0.100D+01
 Coeff:      0.100D+01
 Gap=     0.626 Goal=   None    Shift=    0.000
 RMSDP=7.96D-15 MaxDP=1.79D-13              OVMax= 6.06D-14

 SCF Done:  E(RLC-wPBE) =  -2753.47775989     A.U. after    1 cycles
             Convg  =    0.7963D-14             -V/T =  2.0014
 KE= 2.749561508178D+03 PE=-6.579099712888D+03 EE= 1.076060444820D+03
 Leave Link  502 at Fri May  8 11:25:55 2020, MaxMem= 1073741824 cpu:      13.0
 (Enter /home/matheus/.gaussian/g09/l122.exe)
 Restoring MOs from calculation   1 to rwf.
 Counterpoise: corrected energy =   -2905.010379555920
 Counterpoise: BSSE energy =       0.000024260140
 Leave Link  122 at Fri May  8 11:25:55 2020, MaxMem= 1073741824 cpu:       0.0
 (Enter /home/matheus/.gaussian/g09/l108.exe)
 Scan completed.

 Summary of the potential surface scan:
   N      R1          SCF    
 ----  ---------  -----------
    1     3.0000  -2753.47776
    2     3.1000  -2753.47776
    3     3.2000  -2753.47776
    4     3.3000  -2753.47776
    5     3.4000  -2753.47776
    6     3.5000  -2753.47776
    7     3.6000  -2753.47776
    8     3.7000  -2753.47776
    9     3.8000  -2753.47776
   10     3.9000  -2753.47776
   11     4.0000  -2753.47776
   12     4.1000  -2753.47776
   13     4.2000  -2753.47776
   14     4.3000  -2753.47776
   15     4.4000  -2753.47776
   16     4.5000  -2753.47776
   17     4.6000  -2753.47776
   18     4.7000  -2753.47776
   19     4.8000  -2753.47776
   20     4.9000  -2753.47776
   21     5.0000  -2753.47776
 ----  ---------  -----------
  
 Leave Link  108 at Fri May  8 11:25:55 2020, MaxMem= 1073741824 cpu:       0.1
 (Enter /home/matheus/.gaussian/g09/l9999.exe)

 Test job not archived.
 1\1\GINC-REDGIANT\Scan\RLC-wPBE\Aug-CC-pVTZ\H2Kr1O2\MATHEUS\08-May-202
 0\1\\#p lc-wpbe/aug-cc-PVTz iop(3/107=0550000000) iop(3/108=0550000000
 ) int=ultrafine counterpoise=2 Scan\\TCC\\0,1\O,0,0.,0.,0.725\O,0,0.,0
 .,-0.725\H,0,0.8633149634,0.3142209495,1.0235104166\H,0,0.,0.918720594
 7,-1.0235104166\Kr,0,0.,R1,0.\\R1=3.,s,20,0.1\\Version=EM64L-G09RevC.0
 1\State=1-A\HF=-2753.4777599,-2753.4777599,-2753.4777599,-2753.4777599
 ,-2753.4777599,-2753.4777599,-2753.4777599,-2753.4777599,-2753.4777599
 ,-2753.4777599,-2753.4777599,-2753.4777599,-2753.4777599,-2753.4777599
 ,-2753.4777599,-2753.4777599,-2753.4777599,-2753.4777599,-2753.4777599
 ,-2753.4777599,-2753.4777599\RMSD=1.997e-09,5.419e-11,1.021e-11,4.443e
 -12,2.187e-12,1.222e-12,6.749e-13,3.799e-13,2.167e-13,1.208e-13,6.819e
 -14,3.663e-14,1.993e-14,1.658e-14,1.043e-14,9.005e-15,7.850e-15,5.007e
 -15,4.662e-15,5.069e-15,7.963e-15\PG=C01 [X(H2Kr1O2)]\\@


 PENOTUS DIED A HUNDRED YEARS OLD WANTING BUT TWO...
 AND HE USED TO SAY BEFORE HE DIED, HAVING SPENT HIS
 WHOLE LIFE IN VAINLY SEARCHING AFTER THE PHILOSOPHER'S
 STONE, THAT IF HE HAD A MORTAL ENEMY HE DID NOT DARE
 TO ENCOUNTER OPENLY, HE WOULD ADVISE HIM ABOVE ALL
 THINGS TO GIVE HIMSELF UP TO THE STUDY AND PRACTICE
 OF ALCHEMY.  --  NICOLAS LEMERY, M.D.
 "A COURSE OF CHYMISTRY", WALTER KETTILBY, LONDON, 1686
 Job cpu time:  0 days  4 hours  1 minutes 49.7 seconds.
 File lengths (MBytes):  RWF=     33 Int=      0 D2E=      0 Chk=      8 Scr=      1
 Normal termination of Gaussian 09 at Fri May  8 11:25:55 2020.
