 Entering Gaussian System, Link 0=g09
 Input=/home/matheus/.tcc/Inputs-lc-wpbe/H2O2-Kr_32.com
 Output=/home/matheus/.tcc/Logs-lc-wpbe/H2O2-Kr_32.log
 Initial command:
 /home/matheus/.gaussian/g09/l1.exe /home/matheus/.gaussian/g09/scratch/Gau-2249.inp -scrdir=/home/matheus/.gaussian/g09/scratch/
 Entering Link 1 = /home/matheus/.gaussian/g09/l1.exe PID=      2253.
  
 Copyright (c) 1988,1990,1992,1993,1995,1998,2003,2009,2011,
            Gaussian, Inc.  All Rights Reserved.
  
 This is part of the Gaussian(R) 09 program.  It is based on
 the Gaussian(R) 03 system (copyright 2003, Gaussian, Inc.),
 the Gaussian(R) 98 system (copyright 1998, Gaussian, Inc.),
 the Gaussian(R) 94 system (copyright 1995, Gaussian, Inc.),
 the Gaussian 92(TM) system (copyright 1992, Gaussian, Inc.),
 the Gaussian 90(TM) system (copyright 1990, Gaussian, Inc.),
 the Gaussian 88(TM) system (copyright 1988, Gaussian, Inc.),
 the Gaussian 86(TM) system (copyright 1986, Carnegie Mellon
 University), and the Gaussian 82(TM) system (copyright 1983,
 Carnegie Mellon University). Gaussian is a federally registered
 trademark of Gaussian, Inc.
  
 This software contains proprietary and confidential information,
 including trade secrets, belonging to Gaussian, Inc.
  
 This software is provided under written license and may be
 used, copied, transmitted, or stored only in accord with that
 written license.
  
 The following legend is applicable only to US Government
 contracts under FAR:
  
                    RESTRICTED RIGHTS LEGEND
  
 Use, reproduction and disclosure by the US Government is
 subject to restrictions as set forth in subparagraphs (a)
 and (c) of the Commercial Computer Software - Restricted
 Rights clause in FAR 52.227-19.
  
 Gaussian, Inc.
 340 Quinnipiac St., Bldg. 40, Wallingford CT 06492
  
  
 ---------------------------------------------------------------
 Warning -- This program may not be used in any manner that
 competes with the business of Gaussian, Inc. or will provide
 assistance to any competitor of Gaussian, Inc.  The licensee
 of this program is prohibited from giving any competitor of
 Gaussian, Inc. access to this program.  By using this program,
 the user acknowledges that Gaussian, Inc. is engaged in the
 business of creating and licensing software in the field of
 computational chemistry and represents and warrants to the
 licensee that it is not a competitor of Gaussian, Inc. and that
 it will not use this program in any manner prohibited above.
 ---------------------------------------------------------------
  

 Cite this work as:
 Gaussian 09, Revision C.01,
 M. J. Frisch, G. W. Trucks, H. B. Schlegel, G. E. Scuseria, 
 M. A. Robb, J. R. Cheeseman, G. Scalmani, V. Barone, B. Mennucci, 
 G. A. Petersson, H. Nakatsuji, M. Caricato, X. Li, H. P. Hratchian, 
 A. F. Izmaylov, J. Bloino, G. Zheng, J. L. Sonnenberg, M. Hada, 
 M. Ehara, K. Toyota, R. Fukuda, J. Hasegawa, M. Ishida, T. Nakajima, 
 Y. Honda, O. Kitao, H. Nakai, T. Vreven, J. A. Montgomery, Jr., 
 J. E. Peralta, F. Ogliaro, M. Bearpark, J. J. Heyd, E. Brothers, 
 K. N. Kudin, V. N. Staroverov, T. Keith, R. Kobayashi, J. Normand, 
 K. Raghavachari, A. Rendell, J. C. Burant, S. S. Iyengar, J. Tomasi, 
 M. Cossi, N. Rega, J. M. Millam, M. Klene, J. E. Knox, J. B. Cross, 
 V. Bakken, C. Adamo, J. Jaramillo, R. Gomperts, R. E. Stratmann, 
 O. Yazyev, A. J. Austin, R. Cammi, C. Pomelli, J. W. Ochterski, 
 R. L. Martin, K. Morokuma, V. G. Zakrzewski, G. A. Voth, 
 P. Salvador, J. J. Dannenberg, S. Dapprich, A. D. Daniels, 
 O. Farkas, J. B. Foresman, J. V. Ortiz, J. Cioslowski, 
 and D. J. Fox, Gaussian, Inc., Wallingford CT, 2010.
 
 ******************************************
 Gaussian 09:  EM64L-G09RevC.01 23-Sep-2011
                 8-May-2020 
 ******************************************
 %mem=8GB
 %nproc=8
 Will use up to    8 processors via shared memory.
 ----------------------------------------------------------------------
 #p lc-wpbe/aug-cc-PVTz iop(3/107=0550000000) iop(3/108=0550000000) int
 =ultrafine counterpoise=2 Scan
 ----------------------------------------------------------------------
 1/38=1,60=1,62=2/1,8;
 2/12=2,17=6,18=5,29=3,40=1/2;
 1/38=1,53=5172,62=2/22;
 3/5=16,6=1,7=10,11=2,16=1,25=1,30=1,74=-41,75=-5,107=550000000,108=550000000/1,2,3;
 4//1;
 5/5=2,38=5/2;
 6/7=2,8=2,9=2,10=2,18=1,28=1/1;
 1/53=4052,62=2,63=1/22;
 3/5=7,6=11,7=10,11=2,16=1,25=1,30=1,74=-41,75=-5,82=7,107=550000000,108=550000000/1,2,3;
 4//1;
 5/5=2,38=5/2;
 6/7=2,8=2,9=2,10=2,18=1,28=1/1;
 1/53=3042,62=2,63=2/22;
 3/5=7,6=11,7=10,11=2,16=1,25=1,30=1,74=-41,75=-5,82=7,107=550000000,108=550000000/1,2,3;
 4//1;
 5/5=2,38=5/2;
 6/7=2,8=2,9=2,10=2,18=1,28=1/1;
 1/53=2032,62=2,63=3/22;
 3/5=7,6=11,7=10,11=2,16=1,25=1,30=1,74=-41,75=-5,82=7,107=550000000,108=550000000/1,2,3;
 4//1;
 5/5=2,38=5/2;
 6/7=2,8=2,9=2,10=2,18=1,28=1/1;
 1/53=1022,62=2,63=4/22;
 3/5=7,6=11,7=10,11=2,16=1,25=1,30=1,74=-41,75=-5,82=7,107=550000000,108=550000000/1,2,3;
 4//1;
 5/5=2,38=5/2;
 6/7=2,8=2,9=2,10=2,18=1,28=1/1;
 1/53=5014,62=2,63=5/22;
 1/60=1,62=2/8(1);
 99/9=1/99;
 2/29=3/2;
 1/53=5173,62=2/22;
 3/5=7,6=11,7=10,11=2,16=1,25=1,30=1,74=-41,75=-5,82=7,107=550000000,108=550000000/1,2,3;
 4/5=5,16=3/1;
 5/5=2,38=5/2;
 1/53=4053,62=2,63=1/22;
 3/5=7,6=11,7=10,11=2,16=1,25=1,30=1,74=-41,75=-5,82=7,107=550000000,108=550000000/1,2,3;
 4/5=5,16=3/1;
 5/5=2,38=5/2;
 1/53=3043,62=2,63=2/22;
 3/5=7,6=11,7=10,11=2,16=1,25=1,30=1,74=-41,75=-5,82=7,107=550000000,108=550000000/1,2,3;
 4/5=5,16=3/1;
 5/5=2,38=5/2;
 1/53=2033,62=2,63=3/22;
 3/5=7,6=11,7=10,11=2,16=1,25=1,30=1,74=-41,75=-5,82=7,107=550000000,108=550000000/1,2,3;
 4/5=5,16=3/1;
 5/5=2,38=5/2;
 1/53=1024,62=2,63=4/22;
 3/5=7,6=11,7=10,11=2,16=1,25=1,30=1,74=-41,75=-5,82=7,107=550000000,108=550000000/1,2,3;
 4/5=5,16=3/1;
 5/5=2,38=5/2;
 1/53=5014,62=2,63=5/22;
 1/60=1,62=2/8(-22);
 99/9=1/99;
 Leave Link    1 at Fri May  8 05:11:16 2020, MaxMem= 1073741824 cpu:       0.1
 (Enter /home/matheus/.gaussian/g09/l101.exe)
 ---
 TCC
 ---
 Charge =  0 Multiplicity = 1 in supermolecule
 Charge =  0 Multiplicity = 1 in fragment  1.
 Charge =  0 Multiplicity = 1 in fragment  2.
 Symbolic Z-Matrix:
 O(Fragment=1)         0.        0.        0.725 
 O(Fragment=1)         0.        0.       -0.725 
 H(Fragment=1)        -0.59054   0.70378   1.02351 
 H(Fragment=1)         0.        0.91872  -1.02351 
 Kr(Fragment=2)        0.       R1        0. 
       Variables:
  R1                    3.     Scan 20    0.1    
 
 NAtoms=      5 NQM=        0 NQMF=       0 NMMI=      5 NMMIF=      0
                NMic=       0 NMicF=      0.
                    Isotopes and Nuclear Properties:
 (Nuclear quadrupole moments (NQMom) in fm**2, nuclear magnetic moments (NMagM)
  in nuclear magnetons)

  Atom         1           2           3           4           5
 IAtWgt=          16          16           1           1          84
 AtmWgt=  15.9949146  15.9949146   1.0078250   1.0078250  83.9115064
 NucSpn=           0           0           1           1           0
 AtZEff=   0.0000000   0.0000000   0.0000000   0.0000000   0.0000000
 NQMom=    0.0000000   0.0000000   0.0000000   0.0000000   0.0000000
 NMagM=    0.0000000   0.0000000   2.7928460   2.7928460   0.0000000
 Leave Link  101 at Fri May  8 05:11:16 2020, MaxMem= 1073741824 cpu:       0.4
 (Enter /home/matheus/.gaussian/g09/l108.exe)
 Scan the potential surface.
 Variable   Value     No. Steps Step-Size
 -------- ----------- --------- ---------
     1       3.000000      20      0.1000
 A total of     21 points will be computed.
 Leave Link  108 at Fri May  8 05:11:16 2020, MaxMem= 1073741824 cpu:       0.0
 (Enter /home/matheus/.gaussian/g09/l202.exe)
 ---------------------------------------------------------------------------------------------------
                            Z-MATRIX (ANGSTROMS AND DEGREES)
   CD    Cent   Atom    N1       Length/X        N2       Alpha/Y        N3        Beta/Z          J
 ---------------------------------------------------------------------------------------------------
      1      1  O        0   0.000000          0.000000          0.725000
      2      2  O        0   0.000000          0.000000         -0.725000
      3      3  H        0  -0.590542          0.703781          1.023510
      4      4  H        0   0.000000          0.918721         -1.023510
      5      5  Kr       0   0.000000          3.000000          0.000000
 ---------------------------------------------------------------------------------------------------
                         Z-Matrix orientation:                         
 ---------------------------------------------------------------------
 Center     Atomic      Atomic             Coordinates (Angstroms)
 Number     Number       Type             X           Y           Z
 ---------------------------------------------------------------------
      1          8           0        0.000000    0.000000    0.725000
      2          8           0        0.000000    0.000000   -0.725000
      3          1           0       -0.590542    0.703781    1.023510
      4          1           0        0.000000    0.918721   -1.023510
      5         36           0        0.000000    3.000000    0.000000
 ---------------------------------------------------------------------
                    Distance matrix (angstroms):
                    1          2          3          4          5
     1  O    0.000000
     2  O    1.450000   0.000000
     3  H    0.966000   1.975180   0.000000
     4  H    1.975180   0.966000   2.141316   0.000000
     5  Kr   3.086361   3.086361   2.582428   2.319331   0.000000
 Stoichiometry    H2KrO2
 Framework group  C1[X(H2KrO2)]
 Deg. of freedom     9
 Full point group                 C1      NOp   1
 Largest Abelian subgroup         C1      NOp   1
 Largest concise Abelian subgroup C1      NOp   1
                         Standard orientation:                         
 ---------------------------------------------------------------------
 Center     Atomic      Atomic             Coordinates (Angstroms)
 Number     Number       Type             X           Y           Z
 ---------------------------------------------------------------------
      1          8           0       -2.031661   -0.717244   -0.068894
      2          8           0       -2.028133    0.730229    0.016606
      3          1           0       -1.333152   -1.052071    0.508282
      4          1           0       -1.108715    1.025573    0.041099
      5         36           0        0.970006   -0.002150   -0.003641
 ---------------------------------------------------------------------
 Rotational constants (GHZ):     26.2249700      2.3786625      2.1869902
 Leave Link  202 at Fri May  8 05:11:16 2020, MaxMem= 1073741824 cpu:       0.0
 (Enter /home/matheus/.gaussian/g09/l122.exe)
 Leave Link  122 at Fri May  8 05:11:16 2020, MaxMem= 1073741824 cpu:       0.0
 (Enter /home/matheus/.gaussian/g09/l301.exe)
 Standard basis: Aug-CC-pVTZ (5D, 7F)
 Ernie: Thresh=  0.10000D-02 Tol=  0.10000D-05 Strict=F.
 Ernie:  38 primitive shells out of 205 were deleted.
 There are   197 symmetry adapted basis functions of A   symmetry.
 Integral buffers will be    131072 words long.
 Raffenetti 2 integral format.
 Two-electron integral symmetry is turned on.
   197 basis functions,   415 primitive gaussians,   229 cartesian basis functions
    27 alpha electrons       27 beta electrons
       nuclear repulsion energy       151.0050746500 Hartrees.
 IExCor=32609 DFT=T Ex+Corr=LC-wPBE ExCW=0 ScaHFX=  1.000000
 ScaDFX=  1.000000  0.000000  1.000000  1.000000 ScalE2=  1.000000  1.000000
 IRadAn=      5 IRanWt=     -1 IRanGd=            0 ICorTp=0
  HFx wShort=  0.000000 wLong=  0.550000 cFull=  0.000000 cShort=  0.000000 cLong=  1.000000
  DFx wShort=  0.000000 wLong=  0.550000 cFull=  0.000000 cShort=  0.000000 cLong=  1.000000
 NAtoms=    5 NActive=    5 NUniq=    5 SFac= 1.00D+00 NAtFMM=   60 NAOKFM=F Big=F
 Leave Link  301 at Fri May  8 05:11:16 2020, MaxMem= 1073741824 cpu:       0.2
 (Enter /home/matheus/.gaussian/g09/l302.exe)
 NPDir=0 NMtPBC=     1 NCelOv=     1 NCel=       1 NClECP=     1 NCelD=      1
         NCelK=      1 NCelE2=     1 NClLst=     1 CellRange=     0.0.
 One-electron integrals computed using PRISM.
 NBasis=   197 RedAO= T  NBF=   197
 NBsUse=   197 1.00D-06 NBFU=   197
 Precomputing XC quadrature grid using
 IXCGrd= 2 IRadAn=           5 IRanWt=          -1 IRanGd=           0 AccXCQ= 0.00D+00.
 NRdTot=     427 NPtTot=      123512 NUsed=      126579 NTot=      126611
 NSgBfM=   229   229   229   229   229 NAtAll=     5     5.
 Leave Link  302 at Fri May  8 05:11:17 2020, MaxMem= 1073741824 cpu:       1.0
 (Enter /home/matheus/.gaussian/g09/l303.exe)
 DipDrv:  MaxL=1.
 Leave Link  303 at Fri May  8 05:11:17 2020, MaxMem= 1073741824 cpu:       0.2
 (Enter /home/matheus/.gaussian/g09/l401.exe)
 Harris functional with IExCor=32609 diagonalized for initial guess.
 ExpMin= 2.53D-02 ExpMax= 1.17D+07 ExpMxC= 1.33D+04 IAcc=3 IRadAn=         5 AccDes= 0.00D+00
 HarFok:  IExCor=32609 AccDes= 0.00D+00 IRadAn=         5 IDoV= 1
 ScaDFX=  1.000000  1.000000  1.000000  1.000000
 FoFCou: FMM=F IPFlag=           0 FMFlag=      100000 FMFlg1=           0
         NFxFlg=           0 DoJE=T BraDBF=F KetDBF=T FulRan=T
         Omega=  0.000000  0.000000  1.000000  0.000000  0.000000 ICntrl=     500 IOpCl=  0
         NMat0=    1 NMatS0=    1 NMatT0=    0 NMatD0=    1 NMtDS0=    0 NMtDT0=    0
         I1Cent=           4 NGrid=           0.
 Petite list used in FoFCou.
 Harris En= -2904.73373135575    
 Initial guess orbital symmetries:
       Occupied  (A) (A) (A) (A) (A) (A) (A) (A) (A) (A) (A) (A)
                 (A) (A) (A) (A) (A) (A) (A) (A) (A) (A) (A) (A)
                 (A) (A) (A)
       Virtual   (A) (A) (A) (A) (A) (A) (A) (A) (A) (A) (A) (A)
                 (A) (A) (A) (A) (A) (A) (A) (A) (A) (A) (A) (A)
                 (A) (A) (A) (A) (A) (A) (A) (A) (A) (A) (A) (A)
                 (A) (A) (A) (A) (A) (A) (A) (A) (A) (A) (A) (A)
                 (A) (A) (A) (A) (A) (A) (A) (A) (A) (A) (A) (A)
                 (A) (A) (A) (A) (A) (A) (A) (A) (A) (A) (A) (A)
                 (A) (A) (A) (A) (A) (A) (A) (A) (A) (A) (A) (A)
                 (A) (A) (A) (A) (A) (A) (A) (A) (A) (A) (A) (A)
                 (A) (A) (A) (A) (A) (A) (A) (A) (A) (A) (A) (A)
                 (A) (A) (A) (A) (A) (A) (A) (A) (A) (A) (A) (A)
                 (A) (A) (A) (A) (A) (A) (A) (A) (A) (A) (A) (A)
                 (A) (A) (A) (A) (A) (A) (A) (A) (A) (A) (A) (A)
                 (A) (A) (A) (A) (A) (A) (A) (A) (A) (A) (A) (A)
                 (A) (A) (A) (A) (A) (A) (A) (A) (A) (A) (A) (A)
                 (A) (A)
 The electronic state of the initial guess is 1-A.
 Leave Link  401 at Fri May  8 05:11:17 2020, MaxMem= 1073741824 cpu:       3.9
 (Enter /home/matheus/.gaussian/g09/l502.exe)
 Closed shell SCF:
 Requested convergence on RMS density matrix=1.00D-08 within 128 cycles.
 Requested convergence on MAX density matrix=1.00D-06.
 Requested convergence on             energy=1.00D-06.
 No special actions if energy rises.
 Using DIIS extrapolation, IDIIS=  1040.
 Integral symmetry usage will be decided dynamically.
       126521 words used for storage of precomputed grid.
 IEnd=      305468 IEndB=      305468 NGot=  1073741824 MDV=  1073505667
 LenX=  1073505667 LenY=  1073452785
 Fock matrices will be formed incrementally for  20 cycles.

 Cycle   1  Pass 1  IDiag  1:
 FoFJK:  IHMeth= 1 ICntrl=     0 DoSepK=T KAlg= 1 I1Cent= 0 FoldK=F
 FoFCou: FMM=F IPFlag=           0 FMFlag=      100000 FMFlg1=           0
         NFxFlg=           0 DoJE=T BraDBF=F KetDBF=F FulRan=T
         Omega=  0.000000  0.000000  1.000000  0.000000  0.000000 ICntrl=     500 IOpCl=  0
         NMat0=    1 NMatS0=    1 NMatT0=    0 NMatD0=    1 NMtDS0=    0 NMtDT0=    0
         I1Cent=           0 NGrid=           0.
 Symmetry not used in FoFCou.
 E= -2904.92427776012    
 DIIS: error= 2.78D-02 at cycle   1 NSaved=   1.
 NSaved= 1 IEnMin= 1 EnMin= -2904.92427776012     IErMin= 1 ErrMin= 2.78D-02
 ErrMax= 2.78D-02 EMaxC= 1.00D-01 BMatC= 2.73D-01 BMatP= 2.73D-01
 IDIUse=3 WtCom= 7.22D-01 WtEn= 2.78D-01
 Coeff-Com:  0.100D+01
 Coeff-En:   0.100D+01
 Coeff:      0.100D+01
 Gap=     0.548 Goal=   None    Shift=    0.000
 GapD=    0.548 DampG=2.000 DampE=0.500 DampFc=1.0000 IDamp=-1.
 RMSDP=2.27D-03 MaxDP=1.47D-01              OVMax= 6.85D-02

 Cycle   2  Pass 1  IDiag  1:
 RMSU=  1.57D-03    CP:  1.02D+00
 FoFJK:  IHMeth= 1 ICntrl=     0 DoSepK=T KAlg= 1 I1Cent= 0 FoldK=F
 E= -2904.97563398976     Delta-E=       -0.051356229634 Rises=F Damp=F
 DIIS: error= 1.05D-02 at cycle   2 NSaved=   2.
 NSaved= 2 IEnMin= 2 EnMin= -2904.97563398976     IErMin= 2 ErrMin= 1.05D-02
 ErrMax= 1.05D-02 EMaxC= 1.00D-01 BMatC= 7.13D-02 BMatP= 2.73D-01
 IDIUse=3 WtCom= 8.95D-01 WtEn= 1.05D-01
 Coeff-Com:  0.331D+00 0.669D+00
 Coeff-En:   0.109D+00 0.891D+00
 Coeff:      0.308D+00 0.692D+00
 Gap=     0.475 Goal=   None    Shift=    0.000
 RMSDP=9.18D-04 MaxDP=5.12D-02 DE=-5.14D-02 OVMax= 2.90D-02

 Cycle   3  Pass 1  IDiag  1:
 RMSU=  3.14D-04    CP:  1.01D+00  6.50D-01
 FoFJK:  IHMeth= 1 ICntrl=     0 DoSepK=T KAlg= 1 I1Cent= 0 FoldK=F
 E= -2905.00051990948     Delta-E=       -0.024885919728 Rises=F Damp=F
 DIIS: error= 1.57D-03 at cycle   3 NSaved=   3.
 NSaved= 3 IEnMin= 3 EnMin= -2905.00051990948     IErMin= 3 ErrMin= 1.57D-03
 ErrMax= 1.57D-03 EMaxC= 1.00D-01 BMatC= 1.43D-03 BMatP= 7.13D-02
 IDIUse=3 WtCom= 9.84D-01 WtEn= 1.57D-02
 Coeff-Com:  0.439D-01 0.171D+00 0.785D+00
 Coeff-En:   0.000D+00 0.000D+00 0.100D+01
 Coeff:      0.432D-01 0.168D+00 0.789D+00
 Gap=     0.457 Goal=   None    Shift=    0.000
 RMSDP=1.03D-04 MaxDP=2.62D-03 DE=-2.49D-02 OVMax= 6.23D-03

 Cycle   4  Pass 1  IDiag  1:
 RMSU=  5.19D-05    CP:  1.01D+00  6.78D-01  9.25D-01
 FoFJK:  IHMeth= 1 ICntrl=     0 DoSepK=T KAlg= 1 I1Cent= 0 FoldK=F
 E= -2905.00125292610     Delta-E=       -0.000733016614 Rises=F Damp=F
 DIIS: error= 4.19D-04 at cycle   4 NSaved=   4.
 NSaved= 4 IEnMin= 4 EnMin= -2905.00125292610     IErMin= 4 ErrMin= 4.19D-04
 ErrMax= 4.19D-04 EMaxC= 1.00D-01 BMatC= 9.19D-05 BMatP= 1.43D-03
 IDIUse=3 WtCom= 9.96D-01 WtEn= 4.19D-03
 Coeff-Com: -0.639D-02 0.165D-01 0.262D+00 0.727D+00
 Coeff-En:   0.000D+00 0.000D+00 0.000D+00 0.100D+01
 Coeff:     -0.636D-02 0.164D-01 0.261D+00 0.729D+00
 Gap=     0.462 Goal=   None    Shift=    0.000
 RMSDP=3.32D-05 MaxDP=1.67D-03 DE=-7.33D-04 OVMax= 1.78D-03

 Cycle   5  Pass 1  IDiag  1:
 RMSU=  1.25D-05    CP:  1.01D+00  6.81D-01  9.81D-01  8.50D-01
 FoFJK:  IHMeth= 1 ICntrl=     0 DoSepK=T KAlg= 1 I1Cent= 0 FoldK=F
 E= -2905.00130864382     Delta-E=       -0.000055717720 Rises=F Damp=F
 DIIS: error= 7.45D-05 at cycle   5 NSaved=   5.
 NSaved= 5 IEnMin= 5 EnMin= -2905.00130864382     IErMin= 5 ErrMin= 7.45D-05
 ErrMax= 7.45D-05 EMaxC= 1.00D-01 BMatC= 1.90D-06 BMatP= 9.19D-05
 IDIUse=1 WtCom= 1.00D+00 WtEn= 0.00D+00
 Coeff-Com: -0.205D-02-0.549D-02-0.125D-01 0.727D-01 0.947D+00
 Coeff:     -0.205D-02-0.549D-02-0.125D-01 0.727D-01 0.947D+00
 Gap=     0.462 Goal=   None    Shift=    0.000
 RMSDP=6.64D-06 MaxDP=2.11D-04 DE=-5.57D-05 OVMax= 5.19D-04

 Cycle   6  Pass 1  IDiag  1:
 RMSU=  3.08D-06    CP:  1.01D+00  6.81D-01  9.85D-01  9.04D-01  1.14D+00
 FoFJK:  IHMeth= 1 ICntrl=     0 DoSepK=T KAlg= 1 I1Cent= 0 FoldK=F
 E= -2905.00131054474     Delta-E=       -0.000001900922 Rises=F Damp=F
 DIIS: error= 3.41D-05 at cycle   6 NSaved=   6.
 NSaved= 6 IEnMin= 6 EnMin= -2905.00131054474     IErMin= 6 ErrMin= 3.41D-05
 ErrMax= 3.41D-05 EMaxC= 1.00D-01 BMatC= 4.35D-07 BMatP= 1.90D-06
 IDIUse=1 WtCom= 1.00D+00 WtEn= 0.00D+00
 Coeff-Com: -0.276D-03-0.346D-02-0.258D-01-0.288D-01 0.331D+00 0.727D+00
 Coeff:     -0.276D-03-0.346D-02-0.258D-01-0.288D-01 0.331D+00 0.727D+00
 Gap=     0.462 Goal=   None    Shift=    0.000
 RMSDP=2.77D-06 MaxDP=1.23D-04 DE=-1.90D-06 OVMax= 1.97D-04

 Cycle   7  Pass 1  IDiag  1:
 RMSU=  1.36D-06    CP:  1.01D+00  6.81D-01  9.86D-01  9.17D-01  1.22D+00
                    CP:  9.26D-01
 FoFJK:  IHMeth= 1 ICntrl=     0 DoSepK=T KAlg= 1 I1Cent= 0 FoldK=F
 E= -2905.00131089625     Delta-E=       -0.000000351511 Rises=F Damp=F
 DIIS: error= 1.39D-05 at cycle   7 NSaved=   7.
 NSaved= 7 IEnMin= 7 EnMin= -2905.00131089625     IErMin= 7 ErrMin= 1.39D-05
 ErrMax= 1.39D-05 EMaxC= 1.00D-01 BMatC= 8.52D-08 BMatP= 4.35D-07
 IDIUse=1 WtCom= 1.00D+00 WtEn= 0.00D+00
 Coeff-Com:  0.122D-03-0.733D-03-0.863D-02-0.202D-01 0.149D-02 0.318D+00
 Coeff-Com:  0.710D+00
 Coeff:      0.122D-03-0.733D-03-0.863D-02-0.202D-01 0.149D-02 0.318D+00
 Coeff:      0.710D+00
 Gap=     0.462 Goal=   None    Shift=    0.000
 RMSDP=1.13D-06 MaxDP=5.75D-05 DE=-3.52D-07 OVMax= 9.16D-05

 Cycle   8  Pass 1  IDiag  1:
 RMSU=  5.00D-07    CP:  1.01D+00  6.81D-01  9.87D-01  9.20D-01  1.25D+00
                    CP:  1.05D+00  9.28D-01
 FoFJK:  IHMeth= 1 ICntrl=     0 DoSepK=T KAlg= 1 I1Cent= 0 FoldK=F
 E= -2905.00131098128     Delta-E=       -0.000000085032 Rises=F Damp=F
 DIIS: error= 4.78D-06 at cycle   8 NSaved=   8.
 NSaved= 8 IEnMin= 8 EnMin= -2905.00131098128     IErMin= 8 ErrMin= 4.78D-06
 ErrMax= 4.78D-06 EMaxC= 1.00D-01 BMatC= 2.55D-09 BMatP= 8.52D-08
 IDIUse=1 WtCom= 1.00D+00 WtEn= 0.00D+00
 Coeff-Com:  0.878D-05 0.472D-03 0.404D-02 0.622D-02-0.323D-01-0.131D+00
 Coeff-Com: -0.135D+00 0.129D+01
 Coeff:      0.878D-05 0.472D-03 0.404D-02 0.622D-02-0.323D-01-0.131D+00
 Coeff:     -0.135D+00 0.129D+01
 Gap=     0.462 Goal=   None    Shift=    0.000
 RMSDP=6.17D-07 MaxDP=1.97D-05 DE=-8.50D-08 OVMax= 5.95D-05

 Cycle   9  Pass 1  IDiag  1:
 RMSU=  1.20D-07    CP:  1.01D+00  6.81D-01  9.88D-01  9.22D-01  1.26D+00
                    CP:  1.07D+00  1.06D+00  1.58D+00
 FoFJK:  IHMeth= 1 ICntrl=     0 DoSepK=T KAlg= 1 I1Cent= 0 FoldK=F
 E= -2905.00131099032     Delta-E=       -0.000000009031 Rises=F Damp=F
 DIIS: error= 1.30D-06 at cycle   9 NSaved=   9.
 NSaved= 9 IEnMin= 9 EnMin= -2905.00131099032     IErMin= 9 ErrMin= 1.30D-06
 ErrMax= 1.30D-06 EMaxC= 1.00D-01 BMatC= 1.37D-10 BMatP= 2.55D-09
 IDIUse=1 WtCom= 1.00D+00 WtEn= 0.00D+00
 Coeff-Com: -0.848D-05-0.282D-04-0.123D-03 0.685D-04 0.483D-02 0.338D-02
 Coeff-Com: -0.181D-01-0.196D+00 0.121D+01
 Coeff:     -0.848D-05-0.282D-04-0.123D-03 0.685D-04 0.483D-02 0.338D-02
 Coeff:     -0.181D-01-0.196D+00 0.121D+01
 Gap=     0.462 Goal=   None    Shift=    0.000
 RMSDP=1.69D-07 MaxDP=6.75D-06 DE=-9.03D-09 OVMax= 1.73D-05

 Cycle  10  Pass 1  IDiag  1:
 RMSU=  3.58D-08    CP:  1.01D+00  6.81D-01  9.88D-01  9.22D-01  1.26D+00
                    CP:  1.06D+00  1.07D+00  1.73D+00  1.39D+00
 FoFJK:  IHMeth= 1 ICntrl=     0 DoSepK=T KAlg= 1 I1Cent= 0 FoldK=F
 E= -2905.00131099085     Delta-E=       -0.000000000538 Rises=F Damp=F
 DIIS: error= 3.65D-07 at cycle  10 NSaved=  10.
 NSaved=10 IEnMin=10 EnMin= -2905.00131099085     IErMin=10 ErrMin= 3.65D-07
 ErrMax= 3.65D-07 EMaxC= 1.00D-01 BMatC= 1.50D-11 BMatP= 1.37D-10
 IDIUse=1 WtCom= 1.00D+00 WtEn= 0.00D+00
 Coeff-Com: -0.887D-06-0.416D-04-0.348D-03-0.625D-03 0.288D-02 0.130D-01
 Coeff-Com:  0.131D-01-0.132D+00 0.593D-01 0.104D+01
 Coeff:     -0.887D-06-0.416D-04-0.348D-03-0.625D-03 0.288D-02 0.130D-01
 Coeff:      0.131D-01-0.132D+00 0.593D-01 0.104D+01
 Gap=     0.462 Goal=   None    Shift=    0.000
 RMSDP=4.57D-08 MaxDP=1.60D-06 DE=-5.38D-10 OVMax= 5.26D-06

 Cycle  11  Pass 1  IDiag  1:
 RMSU=  1.06D-08    CP:  1.01D+00  6.81D-01  9.88D-01  9.22D-01  1.27D+00
                    CP:  1.06D+00  1.07D+00  1.77D+00  1.53D+00  1.25D+00
 FoFJK:  IHMeth= 1 ICntrl=     0 DoSepK=T KAlg= 1 I1Cent= 0 FoldK=F
 E= -2905.00131098753     Delta-E=        0.000000003324 Rises=F Damp=F
 DIIS: error= 8.15D-08 at cycle  11 NSaved=  11.
 NSaved=11 IEnMin=10 EnMin= -2905.00131099085     IErMin=11 ErrMin= 8.15D-08
 ErrMax= 8.15D-08 EMaxC= 1.00D-01 BMatC= 1.21D-12 BMatP= 1.50D-11
 IDIUse=1 WtCom= 1.00D+00 WtEn= 0.00D+00
 Coeff-Com:  0.844D-06 0.722D-05 0.552D-04 0.437D-04-0.849D-03-0.119D-02
 Coeff-Com:  0.118D-02 0.281D-01-0.118D+00-0.119D+00 0.121D+01
 Coeff:      0.844D-06 0.722D-05 0.552D-04 0.437D-04-0.849D-03-0.119D-02
 Coeff:      0.118D-02 0.281D-01-0.118D+00-0.119D+00 0.121D+01
 Gap=     0.462 Goal=   None    Shift=    0.000
 RMSDP=1.29D-08 MaxDP=2.30D-07 DE= 3.32D-09 OVMax= 1.73D-06

 Cycle  12  Pass 1  IDiag  1:
 RMSU=  2.88D-09    CP:  1.01D+00  6.81D-01  9.88D-01  9.22D-01  1.27D+00
                    CP:  1.06D+00  1.07D+00  1.78D+00  1.56D+00  1.40D+00
                    CP:  1.39D+00
 FoFJK:  IHMeth= 1 ICntrl=     0 DoSepK=T KAlg= 1 I1Cent= 0 FoldK=F
 E= -2905.00131098755     Delta-E=       -0.000000000020 Rises=F Damp=F
 DIIS: error= 1.93D-08 at cycle  12 NSaved=  12.
 NSaved=12 IEnMin=10 EnMin= -2905.00131099085     IErMin=12 ErrMin= 1.93D-08
 ErrMax= 1.93D-08 EMaxC= 1.00D-01 BMatC= 6.61D-14 BMatP= 1.21D-12
 IDIUse=1 WtCom= 1.00D+00 WtEn= 0.00D+00
 Coeff-Com: -0.238D-07 0.243D-05 0.206D-04 0.437D-04-0.196D-03-0.765D-03
 Coeff-Com: -0.735D-03 0.750D-02 0.391D-02-0.543D-01-0.581D-01 0.110D+01
 Coeff:     -0.238D-07 0.243D-05 0.206D-04 0.437D-04-0.196D-03-0.765D-03
 Coeff:     -0.735D-03 0.750D-02 0.391D-02-0.543D-01-0.581D-01 0.110D+01
 Gap=     0.462 Goal=   None    Shift=    0.000
 RMSDP=2.45D-09 MaxDP=7.74D-08 DE=-2.00D-11 OVMax= 2.31D-07

 SCF Done:  E(RLC-wPBE) =  -2905.00131099     A.U. after   12 cycles
             Convg  =    0.2454D-08             -V/T =  2.0017
 KE= 2.900051222671D+03 PE=-7.238277598936D+03 EE= 1.282219990627D+03
 Leave Link  502 at Fri May  8 05:11:54 2020, MaxMem= 1073741824 cpu:     291.0
 (Enter /home/matheus/.gaussian/g09/l601.exe)
 Copying SCF densities to generalized density rwf, IOpCl= 0 IROHF=0.

 **********************************************************************

            Population analysis using the SCF density.

 **********************************************************************

 Orbital symmetries:
       Occupied  (A) (A) (A) (A) (A) (A) (A) (A) (A) (A) (A) (A)
                 (A) (A) (A) (A) (A) (A) (A) (A) (A) (A) (A) (A)
                 (A) (A) (A)
       Virtual   (A) (A) (A) (A) (A) (A) (A) (A) (A) (A) (A) (A)
                 (A) (A) (A) (A) (A) (A) (A) (A) (A) (A) (A) (A)
                 (A) (A) (A) (A) (A) (A) (A) (A) (A) (A) (A) (A)
                 (A) (A) (A) (A) (A) (A) (A) (A) (A) (A) (A) (A)
                 (A) (A) (A) (A) (A) (A) (A) (A) (A) (A) (A) (A)
                 (A) (A) (A) (A) (A) (A) (A) (A) (A) (A) (A) (A)
                 (A) (A) (A) (A) (A) (A) (A) (A) (A) (A) (A) (A)
                 (A) (A) (A) (A) (A) (A) (A) (A) (A) (A) (A) (A)
                 (A) (A) (A) (A) (A) (A) (A) (A) (A) (A) (A) (A)
                 (A) (A) (A) (A) (A) (A) (A) (A) (A) (A) (A) (A)
                 (A) (A) (A) (A) (A) (A) (A) (A) (A) (A) (A) (A)
                 (A) (A) (A) (A) (A) (A) (A) (A) (A) (A) (A) (A)
                 (A) (A) (A) (A) (A) (A) (A) (A) (A) (A) (A) (A)
                 (A) (A) (A) (A) (A) (A) (A) (A) (A) (A) (A) (A)
                 (A) (A)
 The electronic state is 1-A.
 Alpha  occ. eigenvalues -- -511.21819 -66.76648 -60.42765 -60.42754 -60.42743
 Alpha  occ. eigenvalues --  -19.11157 -19.10949  -9.70213  -7.44497  -7.44465
 Alpha  occ. eigenvalues --   -7.44430  -3.38902  -3.38897  -3.38871  -3.38848
 Alpha  occ. eigenvalues --   -3.38844  -1.32268  -1.12320  -1.09312  -0.74303
 Alpha  occ. eigenvalues --   -0.60902  -0.59382  -0.56437  -0.55780  -0.54796
 Alpha  occ. eigenvalues --   -0.51043  -0.42843
 Alpha virt. eigenvalues --    0.03311   0.04347   0.08296   0.09195   0.10921
 Alpha virt. eigenvalues --    0.11929   0.13237   0.15080   0.17590   0.18270
 Alpha virt. eigenvalues --    0.18422   0.20081   0.20860   0.22259   0.24296
 Alpha virt. eigenvalues --    0.24746   0.25459   0.28687   0.31594   0.33930
 Alpha virt. eigenvalues --    0.34623   0.35864   0.38439   0.39470   0.40738
 Alpha virt. eigenvalues --    0.43290   0.44519   0.48785   0.54161   0.55442
 Alpha virt. eigenvalues --    0.59963   0.61034   0.62386   0.65573   0.68871
 Alpha virt. eigenvalues --    0.69530   0.72003   0.75145   0.76538   0.77478
 Alpha virt. eigenvalues --    0.78031   0.78890   0.81348   0.83587   0.86359
 Alpha virt. eigenvalues --    0.87794   0.88804   0.89946   0.91617   0.93476
 Alpha virt. eigenvalues --    0.94056   0.96941   0.98829   1.00117   1.03268
 Alpha virt. eigenvalues --    1.04057   1.04944   1.07863   1.08571   1.12987
 Alpha virt. eigenvalues --    1.14906   1.20681   1.21510   1.24605   1.26292
 Alpha virt. eigenvalues --    1.32870   1.37348   1.39443   1.42843   1.46756
 Alpha virt. eigenvalues --    1.49937   1.51644   1.54254   1.57740   1.62332
 Alpha virt. eigenvalues --    1.66201   1.71461   1.87013   1.92540   1.96930
 Alpha virt. eigenvalues --    2.03198   2.09947   2.12700   2.15372   2.16944
 Alpha virt. eigenvalues --    2.17909   2.23020   2.24490   2.25180   2.30918
 Alpha virt. eigenvalues --    2.33310   2.34285   2.35306   2.36627   2.37068
 Alpha virt. eigenvalues --    2.42307   2.43264   2.48284   2.51733   2.52481
 Alpha virt. eigenvalues --    2.54780   2.55542   2.58994   2.60327   2.62103
 Alpha virt. eigenvalues --    2.62708   2.69326   2.69817   2.74581   2.76221
 Alpha virt. eigenvalues --    2.77412   2.81344   2.84654   2.93355   2.94474
 Alpha virt. eigenvalues --    2.97365   3.07108   3.13419   3.16059   3.66531
 Alpha virt. eigenvalues --    3.69924   3.96631   4.03967   4.04676   4.07511
 Alpha virt. eigenvalues --    4.16892   4.19471   4.26130   4.27668   4.28442
 Alpha virt. eigenvalues --    4.48512   4.53096   4.65447   4.68377   4.69294
 Alpha virt. eigenvalues --    5.02549   5.05337   5.09038   5.10439   5.15799
 Alpha virt. eigenvalues --    5.20354   5.50118   5.88407   6.06196   6.13878
 Alpha virt. eigenvalues --    6.17320   6.38108   6.43948   6.47430   6.59638
 Alpha virt. eigenvalues --    6.71160   6.77868   6.82741   6.88256   6.89462
 Alpha virt. eigenvalues --    6.92916   6.93995   6.95144   6.96057   7.10393
 Alpha virt. eigenvalues --    7.16975   7.21608   7.27498   7.45293   7.56883
 Alpha virt. eigenvalues --    7.96216   8.05669   8.19222  13.93929  14.64401
          Condensed to atoms (all electrons):
              1          2          3          4          5
     1  O    8.264365  -0.228446   0.177577   0.022927  -0.023371
     2  O   -0.228446   8.250898   0.029409   0.188370  -0.013079
     3  H    0.177577   0.029409   0.595440  -0.010799  -0.004546
     4  H    0.022927   0.188370  -0.010799   0.596124  -0.018301
     5  Kr  -0.023371  -0.013079  -0.004546  -0.018301  36.053690
 Mulliken atomic charges:
              1
     1  O   -0.213052
     2  O   -0.227154
     3  H    0.212919
     4  H    0.221679
     5  Kr   0.005607
 Sum of Mulliken atomic charges =   0.00000
 Mulliken charges with hydrogens summed into heavy atoms:
              1
     1  O   -0.000132
     2  O   -0.005475
     5  Kr   0.005607
 Sum of Mulliken charges with hydrogens summed into heavy atoms =   0.00000
          Condensed to fragments (all electrons):
     1      -0.005607
     2       0.005607
 Electronic spatial extent (au):  <R**2>=            477.1629
 Charge=              0.0000 electrons
 Dipole moment (field-independent basis, Debye):
    X=              3.2639    Y=             -0.1580    Z=              0.9059  Tot=              3.3910
 Quadrupole moment (field-independent basis, Debye-Ang):
   XX=            -38.3435   YY=            -27.8781   ZZ=            -29.7042
   XY=              0.5457   XZ=             -1.2076   YZ=             -1.1890
 Traceless Quadrupole moment (field-independent basis, Debye-Ang):
   XX=             -6.3683   YY=              4.0972   ZZ=              2.2711
   XY=              0.5457   XZ=             -1.2076   YZ=             -1.1890
 Octapole moment (field-independent basis, Debye-Ang**2):
  XXX=             44.6204  YYY=             -0.4051  ZZZ=              0.2984  XYY=              7.4398
  XXY=             -1.3200  XXZ=              0.7043  XZZ=              7.8093  YZZ=             -0.7850
  YYZ=              1.4175  XYZ=              1.5716
 Hexadecapole moment (field-independent basis, Debye-Ang**3):
 XXXX=           -459.2149 YYYY=            -62.4132 ZZZZ=            -28.9240 XXXY=              1.6500
 XXXZ=              0.1261 YYYX=              1.0427 YYYZ=             -1.6943 ZZZX=             -0.7391
 ZZZY=             -0.9172 XXYY=            -85.3239 XXZZ=            -74.8208 YYZZ=            -16.4827
 XXYZ=             -2.0880 YYXZ=             -1.8880 ZZXY=              1.1051
 N-N= 1.510050746500D+02 E-N=-7.238277598542D+03  KE= 2.900051222671D+03
 No NMR shielding tensors so no spin-rotation constants.
 Leave Link  601 at Fri May  8 05:11:54 2020, MaxMem= 1073741824 cpu:       0.8
 (Enter /home/matheus/.gaussian/g09/l122.exe)
 Counterpoise: doing DCBS calculation for fragment   1 NewBq=T
 Leave Link  122 at Fri May  8 05:11:54 2020, MaxMem= 1073741824 cpu:       0.0
 (Enter /home/matheus/.gaussian/g09/l301.exe)
 Basis read from rwf:  (5D, 7F)
 No pseudopotential information found on rwf file.
 There are   197 symmetry adapted basis functions of A   symmetry.
 Integral buffers will be    131072 words long.
 Raffenetti 2 integral format.
 Two-electron integral symmetry is turned on.
   197 basis functions,   415 primitive gaussians,   229 cartesian basis functions
     9 alpha electrons        9 beta electrons
       nuclear repulsion energy        36.6553686071 Hartrees.
 IExCor=32609 DFT=T Ex+Corr=LC-wPBE ExCW=0 ScaHFX=  1.000000
 ScaDFX=  1.000000  0.000000  1.000000  1.000000 ScalE2=  1.000000  1.000000
 IRadAn=      5 IRanWt=     -1 IRanGd=            0 ICorTp=0
  HFx wShort=  0.000000 wLong=  0.550000 cFull=  0.000000 cShort=  0.000000 cLong=  1.000000
  DFx wShort=  0.000000 wLong=  0.550000 cFull=  0.000000 cShort=  0.000000 cLong=  1.000000
 NAtoms=    5 NActive=    5 NUniq=    5 SFac= 1.00D+00 NAtFMM=   60 NAOKFM=F Big=F
 No density basis found on file   718.
 Leave Link  301 at Fri May  8 05:11:54 2020, MaxMem= 1073741824 cpu:       0.2
 (Enter /home/matheus/.gaussian/g09/l302.exe)
 NPDir=0 NMtPBC=     1 NCelOv=     1 NCel=       1 NClECP=     1 NCelD=      1
         NCelK=      1 NCelE2=     1 NClLst=     1 CellRange=     0.0.
 One-electron integrals computed using PRISM.
 NBasis=   197 RedAO= T  NBF=   197
 NBsUse=   197 1.00D-06 NBFU=   197
 Precomputing XC quadrature grid using
 IXCGrd= 2 IRadAn=           5 IRanWt=          -1 IRanGd=           0 AccXCQ= 0.00D+00.
 NRdTot=     427 NPtTot=      123512 NUsed=      126579 NTot=      126611
 NSgBfM=   229   229   229   229   229 NAtAll=     5     5.
 Leave Link  302 at Fri May  8 05:11:54 2020, MaxMem= 1073741824 cpu:       1.0
 (Enter /home/matheus/.gaussian/g09/l303.exe)
 DipDrv:  MaxL=1.
 Leave Link  303 at Fri May  8 05:11:54 2020, MaxMem= 1073741824 cpu:       0.2
 (Enter /home/matheus/.gaussian/g09/l401.exe)
 Harris functional with IExCor=32609 diagonalized for initial guess.
 ExpMin= 2.53D-02 ExpMax= 1.17D+07 ExpMxC= 1.33D+04 IAcc=3 IRadAn=         5 AccDes= 0.00D+00
 HarFok:  IExCor=32609 AccDes= 0.00D+00 IRadAn=         5 IDoV= 1
 ScaDFX=  1.000000  1.000000  1.000000  1.000000
 FoFCou: FMM=F IPFlag=           0 FMFlag=      100000 FMFlg1=           0
         NFxFlg=           0 DoJE=T BraDBF=F KetDBF=T FulRan=T
         Omega=  0.000000  0.000000  1.000000  0.000000  0.000000 ICntrl=     500 IOpCl=  0
         NMat0=    1 NMatS0=    1 NMatT0=    0 NMatD0=    1 NMtDS0=    0 NMtDT0=    0
         I1Cent=           4 NGrid=           0.
 Petite list used in FoFCou.
 Harris En= -151.500359737578    
 Initial guess orbital symmetries:
       Occupied  (A) (A) (A) (A) (A) (A) (A) (A) (A)
       Virtual   (A) (A) (A) (A) (A) (A) (A) (A) (A) (A) (A) (A)
                 (A) (A) (A) (A) (A) (A) (A) (A) (A) (A) (A) (A)
                 (A) (A) (A) (A) (A) (A) (A) (A) (A) (A) (A) (A)
                 (A) (A) (A) (A) (A) (A) (A) (A) (A) (A) (A) (A)
                 (A) (A) (A) (A) (A) (A) (A) (A) (A) (A) (A) (A)
                 (A) (A) (A) (A) (A) (A) (A) (A) (A) (A) (A) (A)
                 (A) (A) (A) (A) (A) (A) (A) (A) (A) (A) (A) (A)
                 (A) (A) (A) (A) (A) (A) (A) (A) (A) (A) (A) (A)
                 (A) (A) (A) (A) (A) (A) (A) (A) (A) (A) (A) (A)
                 (A) (A) (A) (A) (A) (A) (A) (A) (A) (A) (A) (A)
                 (A) (A) (A) (A) (A) (A) (A) (A) (A) (A) (A) (A)
                 (A) (A) (A) (A) (A) (A) (A) (A) (A) (A) (A) (A)
                 (A) (A) (A) (A) (A) (A) (A) (A) (A) (A) (A) (A)
                 (A) (A) (A) (A) (A) (A) (A) (A) (A) (A) (A) (A)
                 (A) (A) (A) (A) (A) (A) (A) (A) (A) (A) (A) (A)
                 (A) (A) (A) (A) (A) (A) (A) (A)
 The electronic state of the initial guess is 1-A.
 Leave Link  401 at Fri May  8 05:11:54 2020, MaxMem= 1073741824 cpu:       3.9
 (Enter /home/matheus/.gaussian/g09/l502.exe)
 Closed shell SCF:
 Requested convergence on RMS density matrix=1.00D-08 within 128 cycles.
 Requested convergence on MAX density matrix=1.00D-06.
 Requested convergence on             energy=1.00D-06.
 No special actions if energy rises.
 Using DIIS extrapolation, IDIIS=  1040.
 Integral symmetry usage will be decided dynamically.
       126521 words used for storage of precomputed grid.
 IEnd=      305468 IEndB=      305468 NGot=  1073741824 MDV=  1073505667
 LenX=  1073505667 LenY=  1073452785
 Fock matrices will be formed incrementally for  20 cycles.

 Cycle   1  Pass 1  IDiag  1:
 FoFJK:  IHMeth= 1 ICntrl=     0 DoSepK=T KAlg= 1 I1Cent= 0 FoldK=F
 FoFCou: FMM=F IPFlag=           0 FMFlag=      100000 FMFlg1=           0
         NFxFlg=           0 DoJE=T BraDBF=F KetDBF=F FulRan=T
         Omega=  0.000000  0.000000  1.000000  0.000000  0.000000 ICntrl=     500 IOpCl=  0
         NMat0=    1 NMatS0=    1 NMatT0=    0 NMatD0=    1 NMtDS0=    0 NMtDT0=    0
         I1Cent=           0 NGrid=           0.
 Symmetry not used in FoFCou.
 E= -151.500772991638    
 DIIS: error= 1.20D-02 at cycle   1 NSaved=   1.
 NSaved= 1 IEnMin= 1 EnMin= -151.500772991638     IErMin= 1 ErrMin= 1.20D-02
 ErrMax= 1.20D-02 EMaxC= 1.00D-01 BMatC= 4.32D-02 BMatP= 4.32D-02
 IDIUse=3 WtCom= 8.80D-01 WtEn= 1.20D-01
 Coeff-Com:  0.100D+01
 Coeff-En:   0.100D+01
 Coeff:      0.100D+01
 Gap=     0.550 Goal=   None    Shift=    0.000
 GapD=    0.550 DampG=2.000 DampE=0.500 DampFc=1.0000 IDamp=-1.
 RMSDP=7.49D-04 MaxDP=2.27D-02              OVMax= 5.78D-02

 Cycle   2  Pass 1  IDiag  1:
 RMSU=  5.27D-04    CP:  9.92D-01
 FoFJK:  IHMeth= 1 ICntrl=     0 DoSepK=T KAlg= 1 I1Cent= 0 FoldK=F
 E= -151.518260970197     Delta-E=       -0.017487978559 Rises=F Damp=F
 DIIS: error= 7.09D-03 at cycle   2 NSaved=   2.
 NSaved= 2 IEnMin= 2 EnMin= -151.518260970197     IErMin= 2 ErrMin= 7.09D-03
 ErrMax= 7.09D-03 EMaxC= 1.00D-01 BMatC= 1.79D-02 BMatP= 4.32D-02
 IDIUse=3 WtCom= 9.29D-01 WtEn= 7.09D-02
 Coeff-Com:  0.380D+00 0.620D+00
 Coeff-En:   0.142D+00 0.858D+00
 Coeff:      0.363D+00 0.637D+00
 Gap=     0.460 Goal=   None    Shift=    0.000
 RMSDP=4.45D-04 MaxDP=2.22D-02 DE=-1.75D-02 OVMax= 2.47D-02

 Cycle   3  Pass 1  IDiag  1:
 RMSU=  2.34D-04    CP:  9.88D-01  6.07D-01
 FoFJK:  IHMeth= 1 ICntrl=     0 DoSepK=T KAlg= 1 I1Cent= 0 FoldK=F
 E= -151.528579370283     Delta-E=       -0.010318400086 Rises=F Damp=F
 DIIS: error= 1.14D-03 at cycle   3 NSaved=   3.
 NSaved= 3 IEnMin= 3 EnMin= -151.528579370283     IErMin= 3 ErrMin= 1.14D-03
 ErrMax= 1.14D-03 EMaxC= 1.00D-01 BMatC= 3.88D-04 BMatP= 1.79D-02
 IDIUse=3 WtCom= 9.89D-01 WtEn= 1.14D-02
 Coeff-Com:  0.416D-01 0.149D+00 0.810D+00
 Coeff-En:   0.000D+00 0.000D+00 0.100D+01
 Coeff:      0.412D-01 0.147D+00 0.812D+00
 Gap=     0.453 Goal=   None    Shift=    0.000
 RMSDP=5.33D-05 MaxDP=1.54D-03 DE=-1.03D-02 OVMax= 4.15D-03

 Cycle   4  Pass 1  IDiag  1:
 RMSU=  2.73D-05    CP:  9.86D-01  6.52D-01  1.02D+00
 FoFJK:  IHMeth= 1 ICntrl=     0 DoSepK=T KAlg= 1 I1Cent= 0 FoldK=F
 E= -151.528826685490     Delta-E=       -0.000247315207 Rises=F Damp=F
 DIIS: error= 2.12D-04 at cycle   4 NSaved=   4.
 NSaved= 4 IEnMin= 4 EnMin= -151.528826685490     IErMin= 4 ErrMin= 2.12D-04
 ErrMax= 2.12D-04 EMaxC= 1.00D-01 BMatC= 9.76D-06 BMatP= 3.88D-04
 IDIUse=3 WtCom= 9.98D-01 WtEn= 2.12D-03
 Coeff-Com: -0.989D-02-0.133D-01 0.842D-01 0.939D+00
 Coeff-En:   0.000D+00 0.000D+00 0.000D+00 0.100D+01
 Coeff:     -0.987D-02-0.133D-01 0.840D-01 0.939D+00
 Gap=     0.454 Goal=   None    Shift=    0.000
 RMSDP=1.24D-05 MaxDP=6.50D-04 DE=-2.47D-04 OVMax= 7.96D-04

 Cycle   5  Pass 1  IDiag  1:
 RMSU=  4.68D-06    CP:  9.86D-01  6.49D-01  1.05D+00  1.05D+00
 FoFJK:  IHMeth= 1 ICntrl=     0 DoSepK=T KAlg= 1 I1Cent= 0 FoldK=F
 E= -151.528835146249     Delta-E=       -0.000008460759 Rises=F Damp=F
 DIIS: error= 4.22D-05 at cycle   5 NSaved=   5.
 NSaved= 5 IEnMin= 5 EnMin= -151.528835146249     IErMin= 5 ErrMin= 4.22D-05
 ErrMax= 4.22D-05 EMaxC= 1.00D-01 BMatC= 2.15D-07 BMatP= 9.76D-06
 IDIUse=1 WtCom= 1.00D+00 WtEn= 0.00D+00
 Coeff-Com: -0.235D-03-0.126D-02-0.322D-01-0.120D+00 0.115D+01
 Coeff:     -0.235D-03-0.126D-02-0.322D-01-0.120D+00 0.115D+01
 Gap=     0.454 Goal=   None    Shift=    0.000
 RMSDP=3.31D-06 MaxDP=8.35D-05 DE=-8.46D-06 OVMax= 2.63D-04

 Cycle   6  Pass 1  IDiag  1:
 RMSU=  1.15D-06    CP:  9.86D-01  6.50D-01  1.06D+00  1.10D+00  1.31D+00
 FoFJK:  IHMeth= 1 ICntrl=     0 DoSepK=T KAlg= 1 I1Cent= 0 FoldK=F
 E= -151.528835667659     Delta-E=       -0.000000521410 Rises=F Damp=F
 DIIS: error= 8.14D-06 at cycle   6 NSaved=   6.
 NSaved= 6 IEnMin= 6 EnMin= -151.528835667659     IErMin= 6 ErrMin= 8.14D-06
 ErrMax= 8.14D-06 EMaxC= 1.00D-01 BMatC= 1.20D-08 BMatP= 2.15D-07
 IDIUse=1 WtCom= 1.00D+00 WtEn= 0.00D+00
 Coeff-Com:  0.234D-03 0.640D-03 0.539D-02 0.429D-02-0.257D+00 0.125D+01
 Coeff:      0.234D-03 0.640D-03 0.539D-02 0.429D-02-0.257D+00 0.125D+01
 Gap=     0.454 Goal=   None    Shift=    0.000
 RMSDP=1.06D-06 MaxDP=2.76D-05 DE=-5.21D-07 OVMax= 9.67D-05

 Cycle   7  Pass 1  IDiag  1:
 RMSU=  3.01D-07    CP:  9.86D-01  6.50D-01  1.06D+00  1.11D+00  1.35D+00
                    CP:  1.47D+00
 FoFJK:  IHMeth= 1 ICntrl=     0 DoSepK=T KAlg= 1 I1Cent= 0 FoldK=F
 E= -151.528835709481     Delta-E=       -0.000000041822 Rises=F Damp=F
 DIIS: error= 3.08D-06 at cycle   7 NSaved=   7.
 NSaved= 7 IEnMin= 7 EnMin= -151.528835709481     IErMin= 7 ErrMin= 3.08D-06
 ErrMax= 3.08D-06 EMaxC= 1.00D-01 BMatC= 9.76D-10 BMatP= 1.20D-08
 IDIUse=1 WtCom= 1.00D+00 WtEn= 0.00D+00
 Coeff-Com: -0.134D-04-0.236D-04 0.116D-02 0.622D-02-0.423D-01-0.137D+00
 Coeff-Com:  0.117D+01
 Coeff:     -0.134D-04-0.236D-04 0.116D-02 0.622D-02-0.423D-01-0.137D+00
 Coeff:      0.117D+01
 Gap=     0.454 Goal=   None    Shift=    0.000
 RMSDP=4.15D-07 MaxDP=1.62D-05 DE=-4.18D-08 OVMax= 4.03D-05

 Cycle   8  Pass 1  IDiag  1:
 RMSU=  8.07D-08    CP:  9.86D-01  6.50D-01  1.06D+00  1.11D+00  1.35D+00
                    CP:  1.62D+00  1.42D+00
 FoFJK:  IHMeth= 1 ICntrl=     0 DoSepK=T KAlg= 1 I1Cent= 0 FoldK=F
 E= -151.528835713450     Delta-E=       -0.000000003969 Rises=F Damp=F
 DIIS: error= 1.02D-06 at cycle   8 NSaved=   8.
 NSaved= 8 IEnMin= 8 EnMin= -151.528835713450     IErMin= 8 ErrMin= 1.02D-06
 ErrMax= 1.02D-06 EMaxC= 1.00D-01 BMatC= 2.91D-10 BMatP= 9.76D-10
 IDIUse=1 WtCom= 1.00D+00 WtEn= 0.00D+00
 Coeff-Com: -0.244D-04-0.687D-04-0.103D-03 0.144D-02 0.114D-01-0.164D+00
 Coeff-Com:  0.404D+00 0.747D+00
 Coeff:     -0.244D-04-0.687D-04-0.103D-03 0.144D-02 0.114D-01-0.164D+00
 Coeff:      0.404D+00 0.747D+00
 Gap=     0.454 Goal=   None    Shift=    0.000
 RMSDP=1.11D-07 MaxDP=6.24D-06 DE=-3.97D-09 OVMax= 1.07D-05

 Cycle   9  Pass 1  IDiag  1:
 RMSU=  3.61D-08    CP:  9.86D-01  6.50D-01  1.06D+00  1.11D+00  1.35D+00
                    CP:  1.64D+00  1.55D+00  1.06D+00
 FoFJK:  IHMeth= 1 ICntrl=     0 DoSepK=T KAlg= 1 I1Cent= 0 FoldK=F
 E= -151.528835713847     Delta-E=       -0.000000000397 Rises=F Damp=F
 DIIS: error= 3.49D-07 at cycle   9 NSaved=   9.
 NSaved= 9 IEnMin= 9 EnMin= -151.528835713847     IErMin= 9 ErrMin= 3.49D-07
 ErrMax= 3.49D-07 EMaxC= 1.00D-01 BMatC= 6.55D-11 BMatP= 2.91D-10
 IDIUse=1 WtCom= 1.00D+00 WtEn= 0.00D+00
 Coeff-Com: -0.920D-05-0.299D-04-0.361D-03-0.104D-02 0.187D-01-0.539D-01
 Coeff-Com: -0.104D+00 0.325D+00 0.816D+00
 Coeff:     -0.920D-05-0.299D-04-0.361D-03-0.104D-02 0.187D-01-0.539D-01
 Coeff:     -0.104D+00 0.325D+00 0.816D+00
 Gap=     0.454 Goal=   None    Shift=    0.000
 RMSDP=6.04D-08 MaxDP=3.08D-06 DE=-3.97D-10 OVMax= 6.68D-06

 Cycle  10  Pass 1  IDiag  1:
 RMSU=  1.19D-08    CP:  9.86D-01  6.50D-01  1.06D+00  1.11D+00  1.35D+00
                    CP:  1.66D+00  1.61D+00  1.28D+00  1.04D+00
 FoFJK:  IHMeth= 1 ICntrl=     0 DoSepK=T KAlg= 1 I1Cent= 0 FoldK=F
 E= -151.528835713944     Delta-E=       -0.000000000098 Rises=F Damp=F
 DIIS: error= 1.11D-07 at cycle  10 NSaved=  10.
 NSaved=10 IEnMin=10 EnMin= -151.528835713944     IErMin=10 ErrMin= 1.11D-07
 ErrMax= 1.11D-07 EMaxC= 1.00D-01 BMatC= 1.79D-12 BMatP= 6.55D-11
 IDIUse=1 WtCom= 1.00D+00 WtEn= 0.00D+00
 Coeff-Com:  0.359D-05 0.137D-04 0.956D-04 0.894D-05-0.448D-02 0.238D-01
 Coeff-Com: -0.639D-02-0.136D+00-0.169D+00 0.129D+01
 Coeff:      0.359D-05 0.137D-04 0.956D-04 0.894D-05-0.448D-02 0.238D-01
 Coeff:     -0.639D-02-0.136D+00-0.169D+00 0.129D+01
 Gap=     0.454 Goal=   None    Shift=    0.000
 RMSDP=1.39D-08 MaxDP=2.71D-07 DE=-9.77D-11 OVMax= 2.21D-06

 Cycle  11  Pass 1  IDiag  1:
 RMSU=  4.37D-09    CP:  9.86D-01  6.50D-01  1.06D+00  1.11D+00  1.35D+00
                    CP:  1.66D+00  1.62D+00  1.32D+00  1.16D+00  1.45D+00
 FoFJK:  IHMeth= 1 ICntrl=     0 DoSepK=T KAlg= 1 I1Cent= 0 FoldK=F
 E= -151.528835713952     Delta-E=       -0.000000000007 Rises=F Damp=F
 DIIS: error= 2.48D-08 at cycle  11 NSaved=  11.
 NSaved=11 IEnMin=11 EnMin= -151.528835713952     IErMin=11 ErrMin= 2.48D-08
 ErrMax= 2.48D-08 EMaxC= 1.00D-01 BMatC= 1.04D-13 BMatP= 1.79D-12
 IDIUse=1 WtCom= 1.00D+00 WtEn= 0.00D+00
 Coeff-Com: -0.308D-06-0.646D-06 0.414D-05 0.679D-04-0.261D-03-0.182D-02
 Coeff-Com:  0.974D-02 0.599D-02-0.206D-01-0.256D+00 0.126D+01
 Coeff:     -0.308D-06-0.646D-06 0.414D-05 0.679D-04-0.261D-03-0.182D-02
 Coeff:      0.974D-02 0.599D-02-0.206D-01-0.256D+00 0.126D+01
 Gap=     0.454 Goal=   None    Shift=    0.000
 RMSDP=3.66D-09 MaxDP=7.44D-08 DE=-7.39D-12 OVMax= 4.62D-07

 SCF Done:  E(RLC-wPBE) =  -151.528835714     A.U. after   11 cycles
             Convg  =    0.3665D-08             -V/T =  2.0069
 KE= 1.504890323504D+02 PE=-4.316011397457D+02 EE= 9.292790307428D+01
 Leave Link  502 at Fri May  8 05:12:27 2020, MaxMem= 1073741824 cpu:     256.5
 (Enter /home/matheus/.gaussian/g09/l601.exe)
 Copying SCF densities to generalized density rwf, IOpCl= 0 IROHF=0.

 **********************************************************************

            Population analysis using the SCF density.

 **********************************************************************

 Orbital symmetries:
       Occupied  (A) (A) (A) (A) (A) (A) (A) (A) (A)
       Virtual   (A) (A) (A) (A) (A) (A) (A) (A) (A) (A) (A) (A)
                 (A) (A) (A) (A) (A) (A) (A) (A) (A) (A) (A) (A)
                 (A) (A) (A) (A) (A) (A) (A) (A) (A) (A) (A) (A)
                 (A) (A) (A) (A) (A) (A) (A) (A) (A) (A) (A) (A)
                 (A) (A) (A) (A) (A) (A) (A) (A) (A) (A) (A) (A)
                 (A) (A) (A) (A) (A) (A) (A) (A) (A) (A) (A) (A)
                 (A) (A) (A) (A) (A) (A) (A) (A) (A) (A) (A) (A)
                 (A) (A) (A) (A) (A) (A) (A) (A) (A) (A) (A) (A)
                 (A) (A) (A) (A) (A) (A) (A) (A) (A) (A) (A) (A)
                 (A) (A) (A) (A) (A) (A) (A) (A) (A) (A) (A) (A)
                 (A) (A) (A) (A) (A) (A) (A) (A) (A) (A) (A) (A)
                 (A) (A) (A) (A) (A) (A) (A) (A) (A) (A) (A) (A)
                 (A) (A) (A) (A) (A) (A) (A) (A) (A) (A) (A) (A)
                 (A) (A) (A) (A) (A) (A) (A) (A) (A) (A) (A) (A)
                 (A) (A) (A) (A) (A) (A) (A) (A) (A) (A) (A) (A)
                 (A) (A) (A) (A) (A) (A) (A) (A)
 The electronic state is 1-A.
 Alpha  occ. eigenvalues --  -19.11674 -19.11667  -1.32707  -1.09792  -0.74356
 Alpha  occ. eigenvalues --   -0.60747  -0.59169  -0.51911  -0.43353
 Alpha virt. eigenvalues --    0.02062   0.03885   0.07083   0.07871   0.09781
 Alpha virt. eigenvalues --    0.10247   0.11427   0.15292   0.17344   0.18016
 Alpha virt. eigenvalues --    0.18846   0.20427   0.20873   0.22023   0.25917
 Alpha virt. eigenvalues --    0.27616   0.29160   0.29660   0.33164   0.34500
 Alpha virt. eigenvalues --    0.35501   0.36138   0.38141   0.40274   0.41662
 Alpha virt. eigenvalues --    0.43569   0.45616   0.46353   0.48801   0.52064
 Alpha virt. eigenvalues --    0.54559   0.58077   0.60330   0.63274   0.68562
 Alpha virt. eigenvalues --    0.71213   0.73965   0.78284   0.78856   0.81671
 Alpha virt. eigenvalues --    0.83564   0.85012   0.88385   0.90251   0.92088
 Alpha virt. eigenvalues --    0.94090   0.95630   0.97202   0.99284   1.00258
 Alpha virt. eigenvalues --    1.03944   1.06911   1.08004   1.08540   1.10753
 Alpha virt. eigenvalues --    1.12614   1.16522   1.21298   1.22066   1.25012
 Alpha virt. eigenvalues --    1.28382   1.29794   1.31089   1.31847   1.33365
 Alpha virt. eigenvalues --    1.34961   1.35749   1.38628   1.43684   1.47216
 Alpha virt. eigenvalues --    1.48842   1.51421   1.54293   1.56234   1.61724
 Alpha virt. eigenvalues --    1.62440   1.64806   1.68769   1.75717   1.78233
 Alpha virt. eigenvalues --    1.84299   1.89012   1.94597   2.01355   2.06177
 Alpha virt. eigenvalues --    2.13132   2.13788   2.19164   2.23185   2.26621
 Alpha virt. eigenvalues --    2.31610   2.35250   2.37039   2.38858   2.42432
 Alpha virt. eigenvalues --    2.54005   2.56796   2.62891   2.65077   2.67208
 Alpha virt. eigenvalues --    2.69460   2.78701   2.89893   2.92408   2.96378
 Alpha virt. eigenvalues --    3.03716   3.11878   3.14221   3.24502   3.30714
 Alpha virt. eigenvalues --    3.43367   3.60135   3.63082   3.67936   3.77291
 Alpha virt. eigenvalues --    3.78308   3.80785   3.81628   3.82358   3.87161
 Alpha virt. eigenvalues --    3.90119   3.92315   3.92900   3.95016   3.99583
 Alpha virt. eigenvalues --    4.02359   4.06454   4.08036   4.13386   4.17436
 Alpha virt. eigenvalues --    4.20771   4.23374   4.27673   4.31998   4.36747
 Alpha virt. eigenvalues --    4.54213   4.54763   4.66851   4.68821   5.02390
 Alpha virt. eigenvalues --    5.05272   5.08804   5.10813   5.15896   5.20243
 Alpha virt. eigenvalues --    5.49817   5.88059   6.05498   6.13357   6.16844
 Alpha virt. eigenvalues --    6.37738   6.43570   6.47165   6.59252   6.70728
 Alpha virt. eigenvalues --    6.77254   6.82283   6.87599   6.89002   6.92490
 Alpha virt. eigenvalues --    6.93525   6.94751   6.95535   7.10022   7.16529
 Alpha virt. eigenvalues --    7.21235   7.26908   7.44843   7.56431   7.95683
 Alpha virt. eigenvalues --    8.05167   8.18134  11.04450  13.93326  14.62088
 Alpha virt. eigenvalues --   14.81591  14.89613  15.10357  29.01330  29.02021
 Alpha virt. eigenvalues --   29.06238  29.17044  29.21305  49.20093 148.29836
 Alpha virt. eigenvalues --  148.41647 148.70760 752.85400
          Condensed to atoms (all electrons):
              1          2          3          4          5
     1  O    8.229640  -0.223051   0.182917   0.019841   0.002904
     2  O   -0.223051   8.216174   0.028852   0.190378  -0.000017
     3  H    0.182917   0.028852   0.587142  -0.006699  -0.001782
     4  H    0.019841   0.190378  -0.006699   0.588121  -0.004432
     5  Kr   0.002904  -0.000017  -0.001782  -0.004432   0.001104
 Mulliken atomic charges:
              1
     1  O   -0.212250
     2  O   -0.212335
     3  H    0.209571
     4  H    0.212792
     5  Kr   0.002223
 Sum of Mulliken atomic charges =   0.00000
 Mulliken charges with hydrogens summed into heavy atoms:
              1
     1  O   -0.002679
     2  O    0.000457
     5  Kr   0.002223
 Sum of Mulliken charges with hydrogens summed into heavy atoms =   0.00000
          Condensed to fragments (all electrons):
     1      -0.002223
     2       0.002223
 Electronic spatial extent (au):  <R**2>=            317.4255
 Charge=              0.0000 electrons
 Dipole moment (field-independent basis, Debye):
    X=              2.8451    Y=             -0.0695    Z=              1.0579  Tot=              3.0362
 Quadrupole moment (field-independent basis, Debye-Ang):
   XX=            -21.1039   YY=            -10.3715   ZZ=            -12.2993
   XY=              0.5860   XZ=             -1.0990   YZ=             -1.2189
 Traceless Quadrupole moment (field-independent basis, Debye-Ang):
   XX=             -6.5123   YY=              4.2200   ZZ=              2.2923
   XY=              0.5860   XZ=             -1.0990   YZ=             -1.2189
 Octapole moment (field-independent basis, Debye-Ang**2):
  XXX=             93.3948  YYY=             -0.4245  ZZZ=              0.3491  XYY=             24.0832
  XXY=             -1.2167  XXZ=              0.7771  XZZ=             24.5168  YZZ=             -0.7978
  YYZ=              1.4409  XYZ=              1.5706
 Hexadecapole moment (field-independent basis, Debye-Ang**3):
 XXXX=           -342.4685 YYYY=            -44.6354 ZZZZ=            -11.3588 XXXY=              1.5145
 XXXZ=              0.2537 YYYX=              1.0346 YYYZ=             -1.7400 ZZZX=             -0.7447
 ZZZY=             -0.9585 XXYY=            -62.9227 XXZZ=            -52.6339 YYZZ=            -10.5829
 XXYZ=             -2.0927 YYXZ=             -1.8742 ZZXY=              1.0813
 N-N= 3.665536860714D+01 E-N=-4.316011393574D+02  KE= 1.504890323504D+02
 No NMR shielding tensors so no spin-rotation constants.
 Leave Link  601 at Fri May  8 05:12:27 2020, MaxMem= 1073741824 cpu:       0.8
 (Enter /home/matheus/.gaussian/g09/l122.exe)
 Counterpoise: doing DCBS calculation for fragment   2 NewBq=T
 Leave Link  122 at Fri May  8 05:12:27 2020, MaxMem= 1073741824 cpu:       0.0
 (Enter /home/matheus/.gaussian/g09/l301.exe)
 Basis read from rwf:  (5D, 7F)
 No pseudopotential information found on rwf file.
 There are   197 symmetry adapted basis functions of A   symmetry.
 Integral buffers will be    131072 words long.
 Raffenetti 2 integral format.
 Two-electron integral symmetry is turned on.
   197 basis functions,   415 primitive gaussians,   229 cartesian basis functions
    18 alpha electrons       18 beta electrons
       nuclear repulsion energy         0.0000000000 Hartrees.
 IExCor=32609 DFT=T Ex+Corr=LC-wPBE ExCW=0 ScaHFX=  1.000000
 ScaDFX=  1.000000  0.000000  1.000000  1.000000 ScalE2=  1.000000  1.000000
 IRadAn=      5 IRanWt=     -1 IRanGd=            0 ICorTp=0
  HFx wShort=  0.000000 wLong=  0.550000 cFull=  0.000000 cShort=  0.000000 cLong=  1.000000
  DFx wShort=  0.000000 wLong=  0.550000 cFull=  0.000000 cShort=  0.000000 cLong=  1.000000
 NAtoms=    5 NActive=    5 NUniq=    5 SFac= 1.00D+00 NAtFMM=   60 NAOKFM=F Big=F
 No density basis found on file   718.
 Leave Link  301 at Fri May  8 05:12:27 2020, MaxMem= 1073741824 cpu:       0.2
 (Enter /home/matheus/.gaussian/g09/l302.exe)
 NPDir=0 NMtPBC=     1 NCelOv=     1 NCel=       1 NClECP=     1 NCelD=      1
         NCelK=      1 NCelE2=     1 NClLst=     1 CellRange=     0.0.
 One-electron integrals computed using PRISM.
 NBasis=   197 RedAO= T  NBF=   197
 NBsUse=   197 1.00D-06 NBFU=   197
 Precomputing XC quadrature grid using
 IXCGrd= 2 IRadAn=           5 IRanWt=          -1 IRanGd=           0 AccXCQ= 0.00D+00.
 NRdTot=     427 NPtTot=      123512 NUsed=      126579 NTot=      126611
 NSgBfM=   229   229   229   229   229 NAtAll=     5     5.
 Leave Link  302 at Fri May  8 05:12:27 2020, MaxMem= 1073741824 cpu:       1.0
 (Enter /home/matheus/.gaussian/g09/l303.exe)
 DipDrv:  MaxL=1.
 Leave Link  303 at Fri May  8 05:12:27 2020, MaxMem= 1073741824 cpu:       0.2
 (Enter /home/matheus/.gaussian/g09/l401.exe)
 Harris functional with IExCor=32609 diagonalized for initial guess.
 ExpMin= 2.53D-02 ExpMax= 1.17D+07 ExpMxC= 1.33D+04 IAcc=3 IRadAn=         5 AccDes= 0.00D+00
 HarFok:  IExCor=32609 AccDes= 0.00D+00 IRadAn=         5 IDoV= 1
 ScaDFX=  1.000000  1.000000  1.000000  1.000000
 FoFCou: FMM=F IPFlag=           0 FMFlag=      100000 FMFlg1=           0
         NFxFlg=           0 DoJE=T BraDBF=F KetDBF=T FulRan=T
         Omega=  0.000000  0.000000  1.000000  0.000000  0.000000 ICntrl=     500 IOpCl=  0
         NMat0=    1 NMatS0=    1 NMatT0=    0 NMatD0=    1 NMtDS0=    0 NMtDT0=    0
         I1Cent=           4 NGrid=           0.
 Petite list used in FoFCou.
 Harris En= -2753.24660203353    
 Initial guess orbital symmetries:
       Occupied  (A) (A) (A) (A) (A) (A) (A) (A) (A) (A) (A) (A)
                 (A) (A) (A) (A) (A) (A)
       Virtual   (A) (A) (A) (A) (A) (A) (A) (A) (A) (A) (A) (A)
                 (A) (A) (A) (A) (A) (A) (A) (A) (A) (A) (A) (A)
                 (A) (A) (A) (A) (A) (A) (A) (A) (A) (A) (A) (A)
                 (A) (A) (A) (A) (A) (A) (A) (A) (A) (A) (A) (A)
                 (A) (A) (A) (A) (A) (A) (A) (A) (A) (A) (A) (A)
                 (A) (A) (A) (A) (A) (A) (A) (A) (A) (A) (A) (A)
                 (A) (A) (A) (A) (A) (A) (A) (A) (A) (A) (A) (A)
                 (A) (A) (A) (A) (A) (A) (A) (A) (A) (A) (A) (A)
                 (A) (A) (A) (A) (A) (A) (A) (A) (A) (A) (A) (A)
                 (A) (A) (A) (A) (A) (A) (A) (A) (A) (A) (A) (A)
                 (A) (A) (A) (A) (A) (A) (A) (A) (A) (A) (A) (A)
                 (A) (A) (A) (A) (A) (A) (A) (A) (A) (A) (A) (A)
                 (A) (A) (A) (A) (A) (A) (A) (A) (A) (A) (A) (A)
                 (A) (A) (A) (A) (A) (A) (A) (A) (A) (A) (A) (A)
                 (A) (A) (A) (A) (A) (A) (A) (A) (A) (A) (A)
 The electronic state of the initial guess is 1-A.
 Leave Link  401 at Fri May  8 05:12:27 2020, MaxMem= 1073741824 cpu:       3.9
 (Enter /home/matheus/.gaussian/g09/l502.exe)
 Closed shell SCF:
 Requested convergence on RMS density matrix=1.00D-08 within 128 cycles.
 Requested convergence on MAX density matrix=1.00D-06.
 Requested convergence on             energy=1.00D-06.
 No special actions if energy rises.
 Using DIIS extrapolation, IDIIS=  1040.
 Integral symmetry usage will be decided dynamically.
       126521 words used for storage of precomputed grid.
 IEnd=      305468 IEndB=      305468 NGot=  1073741824 MDV=  1073505667
 LenX=  1073505667 LenY=  1073452785
 Fock matrices will be formed incrementally for  20 cycles.

 Cycle   1  Pass 1  IDiag  1:
 FoFJK:  IHMeth= 1 ICntrl=     0 DoSepK=T KAlg= 1 I1Cent= 0 FoldK=F
 FoFCou: FMM=F IPFlag=           0 FMFlag=      100000 FMFlg1=           0
         NFxFlg=           0 DoJE=T BraDBF=F KetDBF=F FulRan=T
         Omega=  0.000000  0.000000  1.000000  0.000000  0.000000 ICntrl=     500 IOpCl=  0
         NMat0=    1 NMatS0=    1 NMatT0=    0 NMatD0=    1 NMtDS0=    0 NMtDT0=    0
         I1Cent=           0 NGrid=           0.
 Symmetry not used in FoFCou.
 E= -2753.43078273542    
 DIIS: error= 2.75D-02 at cycle   1 NSaved=   1.
 NSaved= 1 IEnMin= 1 EnMin= -2753.43078273542     IErMin= 1 ErrMin= 2.75D-02
 ErrMax= 2.75D-02 EMaxC= 1.00D-01 BMatC= 2.26D-01 BMatP= 2.26D-01
 IDIUse=3 WtCom= 7.25D-01 WtEn= 2.75D-01
 Coeff-Com:  0.100D+01
 Coeff-En:   0.100D+01
 Coeff:      0.100D+01
 Gap=     0.637 Goal=   None    Shift=    0.000
 GapD=    0.637 DampG=2.000 DampE=0.500 DampFc=1.0000 IDamp=-1.
 RMSDP=2.10D-03 MaxDP=1.46D-01              OVMax= 5.14D-02

 Cycle   2  Pass 1  IDiag  1:
 RMSU=  1.45D-03    CP:  1.02D+00
 FoFJK:  IHMeth= 1 ICntrl=     0 DoSepK=T KAlg= 1 I1Cent= 0 FoldK=F
 E= -2753.46429337913     Delta-E=       -0.033510643716 Rises=F Damp=F
 DIIS: error= 9.97D-03 at cycle   2 NSaved=   2.
 NSaved= 2 IEnMin= 2 EnMin= -2753.46429337913     IErMin= 2 ErrMin= 9.97D-03
 ErrMax= 9.97D-03 EMaxC= 1.00D-01 BMatC= 5.00D-02 BMatP= 2.26D-01
 IDIUse=3 WtCom= 9.00D-01 WtEn= 9.97D-02
 Coeff-Com:  0.315D+00 0.685D+00
 Coeff-En:   0.633D-01 0.937D+00
 Coeff:      0.290D+00 0.710D+00
 Gap=     0.552 Goal=   None    Shift=    0.000
 RMSDP=7.66D-04 MaxDP=5.08D-02 DE=-3.35D-02 OVMax= 1.84D-02

 Cycle   3  Pass 1  IDiag  1:
 RMSU=  1.46D-04    CP:  1.01D+00  6.50D-01
 FoFJK:  IHMeth= 1 ICntrl=     0 DoSepK=T KAlg= 1 I1Cent= 0 FoldK=F
 E= -2753.47777790030     Delta-E=       -0.013484521170 Rises=F Damp=F
 DIIS: error= 9.32D-04 at cycle   3 NSaved=   3.
 NSaved= 3 IEnMin= 3 EnMin= -2753.47777790030     IErMin= 3 ErrMin= 9.32D-04
 ErrMax= 9.32D-04 EMaxC= 1.00D-01 BMatC= 4.98D-04 BMatP= 5.00D-02
 IDIUse=3 WtCom= 9.91D-01 WtEn= 9.32D-03
 Coeff-Com: -0.458D-02 0.820D-01 0.923D+00
 Coeff-En:   0.000D+00 0.000D+00 0.100D+01
 Coeff:     -0.454D-02 0.812D-01 0.923D+00
 Gap=     0.558 Goal=   None    Shift=    0.000
 RMSDP=6.86D-05 MaxDP=4.16D-03 DE=-1.35D-02 OVMax= 2.35D-03

 Cycle   4  Pass 1  IDiag  1:
 RMSU=  1.37D-05    CP:  1.01D+00  6.81D-01  9.99D-01
 FoFJK:  IHMeth= 1 ICntrl=     0 DoSepK=T KAlg= 1 I1Cent= 0 FoldK=F
 E= -2753.47792260424     Delta-E=       -0.000144703936 Rises=F Damp=F
 DIIS: error= 3.96D-05 at cycle   4 NSaved=   4.
 NSaved= 4 IEnMin= 4 EnMin= -2753.47792260424     IErMin= 4 ErrMin= 3.96D-05
 ErrMax= 3.96D-05 EMaxC= 1.00D-01 BMatC= 4.00D-07 BMatP= 4.98D-04
 IDIUse=1 WtCom= 1.00D+00 WtEn= 0.00D+00
 Coeff-Com: -0.556D-03-0.189D-01-0.164D+00 0.118D+01
 Coeff:     -0.556D-03-0.189D-01-0.164D+00 0.118D+01
 Gap=     0.557 Goal=   None    Shift=    0.000
 RMSDP=5.75D-06 MaxDP=3.24D-04 DE=-1.45D-04 OVMax= 4.11D-04

 Cycle   5  Pass 1  IDiag  1:
 RMSU=  1.81D-06    CP:  1.01D+00  6.81D-01  1.02D+00  1.20D+00
 FoFJK:  IHMeth= 1 ICntrl=     0 DoSepK=T KAlg= 1 I1Cent= 0 FoldK=F
 E= -2753.47792311727     Delta-E=       -0.000000513036 Rises=F Damp=F
 DIIS: error= 2.10D-06 at cycle   5 NSaved=   5.
 NSaved= 5 IEnMin= 5 EnMin= -2753.47792311727     IErMin= 5 ErrMin= 2.10D-06
 ErrMax= 2.10D-06 EMaxC= 1.00D-01 BMatC= 2.22D-09 BMatP= 4.00D-07
 IDIUse=1 WtCom= 1.00D+00 WtEn= 0.00D+00
 Coeff-Com:  0.955D-04 0.173D-03-0.173D-02-0.155D-01 0.102D+01
 Coeff:      0.955D-04 0.173D-03-0.173D-02-0.155D-01 0.102D+01
 Gap=     0.557 Goal=   None    Shift=    0.000
 RMSDP=3.26D-07 MaxDP=2.13D-05 DE=-5.13D-07 OVMax= 1.50D-05

 Cycle   6  Pass 1  IDiag  1:
 RMSU=  1.57D-07    CP:  1.01D+00  6.81D-01  1.02D+00  1.21D+00  1.03D+00
 FoFJK:  IHMeth= 1 ICntrl=     0 DoSepK=T KAlg= 1 I1Cent= 0 FoldK=F
 E= -2753.47792311959     Delta-E=       -0.000000002320 Rises=F Damp=F
 DIIS: error= 3.64D-07 at cycle   6 NSaved=   6.
 NSaved= 6 IEnMin= 6 EnMin= -2753.47792311959     IErMin= 6 ErrMin= 3.64D-07
 ErrMax= 3.64D-07 EMaxC= 1.00D-01 BMatC= 7.86D-11 BMatP= 2.22D-09
 IDIUse=1 WtCom= 1.00D+00 WtEn= 0.00D+00
 Coeff-Com:  0.398D-05 0.183D-03 0.183D-02-0.170D-01 0.370D-01 0.978D+00
 Coeff:      0.398D-05 0.183D-03 0.183D-02-0.170D-01 0.370D-01 0.978D+00
 Gap=     0.557 Goal=   None    Shift=    0.000
 RMSDP=4.86D-08 MaxDP=2.52D-06 DE=-2.32D-09 OVMax= 3.12D-06

 Cycle   7  Pass 1  IDiag  1:
 RMSU=  1.16D-08    CP:  1.01D+00  6.81D-01  1.02D+00  1.21D+00  1.04D+00
                    CP:  1.09D+00
 FoFJK:  IHMeth= 1 ICntrl=     0 DoSepK=T KAlg= 1 I1Cent= 0 FoldK=F
 E= -2753.47792311965     Delta-E=       -0.000000000053 Rises=F Damp=F
 DIIS: error= 3.86D-08 at cycle   7 NSaved=   7.
 NSaved= 7 IEnMin= 7 EnMin= -2753.47792311965     IErMin= 7 ErrMin= 3.86D-08
 ErrMax= 3.86D-08 EMaxC= 1.00D-01 BMatC= 5.74D-13 BMatP= 7.86D-11
 IDIUse=1 WtCom= 1.00D+00 WtEn= 0.00D+00
 Coeff-Com:  0.259D-06 0.353D-04 0.370D-03-0.327D-02 0.315D-02 0.177D+00
 Coeff-Com:  0.823D+00
 Coeff:      0.259D-06 0.353D-04 0.370D-03-0.327D-02 0.315D-02 0.177D+00
 Coeff:      0.823D+00
 Gap=     0.557 Goal=   None    Shift=    0.000
 RMSDP=5.46D-09 MaxDP=1.57D-07 DE=-5.28D-11 OVMax= 2.58D-07

 SCF Done:  E(RLC-wPBE) =  -2753.47792312     A.U. after    7 cycles
             Convg  =    0.5455D-08             -V/T =  2.0014
 KE= 2.749506888718D+03 PE=-6.579040479297D+03 EE= 1.076055667460D+03
 Leave Link  502 at Fri May  8 05:12:49 2020, MaxMem= 1073741824 cpu:     170.2
 (Enter /home/matheus/.gaussian/g09/l601.exe)
 Copying SCF densities to generalized density rwf, IOpCl= 0 IROHF=0.

 **********************************************************************

            Population analysis using the SCF density.

 **********************************************************************

 Orbital symmetries:
       Occupied  (A) (A) (A) (A) (A) (A) (A) (A) (A) (A) (A) (A)
                 (A) (A) (A) (A) (A) (A)
       Virtual   (A) (A) (A) (A) (A) (A) (A) (A) (A) (A) (A) (A)
                 (A) (A) (A) (A) (A) (A) (A) (A) (A) (A) (A) (A)
                 (A) (A) (A) (A) (A) (A) (A) (A) (A) (A) (A) (A)
                 (A) (A) (A) (A) (A) (A) (A) (A) (A) (A) (A) (A)
                 (A) (A) (A) (A) (A) (A) (A) (A) (A) (A) (A) (A)
                 (A) (A) (A) (A) (A) (A) (A) (A) (A) (A) (A) (A)
                 (A) (A) (A) (A) (A) (A) (A) (A) (A) (A) (A) (A)
                 (A) (A) (A) (A) (A) (A) (A) (A) (A) (A) (A) (A)
                 (A) (A) (A) (A) (A) (A) (A) (A) (A) (A) (A) (A)
                 (A) (A) (A) (A) (A) (A) (A) (A) (A) (A) (A) (A)
                 (A) (A) (A) (A) (A) (A) (A) (A) (A) (A) (A) (A)
                 (A) (A) (A) (A) (A) (A) (A) (A) (A) (A) (A) (A)
                 (A) (A) (A) (A) (A) (A) (A) (A) (A) (A) (A) (A)
                 (A) (A) (A) (A) (A) (A) (A) (A) (A) (A) (A) (A)
                 (A) (A) (A) (A) (A) (A) (A) (A) (A) (A) (A)
 The electronic state is 1-A.
 Alpha  occ. eigenvalues -- -511.18565 -66.73380 -60.39491 -60.39488 -60.39487
 Alpha  occ. eigenvalues --   -9.66931  -7.41183  -7.41181  -7.41180  -3.35590
 Alpha  occ. eigenvalues --   -3.35589  -3.35589  -3.35587  -3.35587  -1.08851
 Alpha  occ. eigenvalues --   -0.52697  -0.52693  -0.52691
 Alpha virt. eigenvalues --    0.03040   0.04947   0.08509   0.09442   0.12108
 Alpha virt. eigenvalues --    0.12986   0.13484   0.13672   0.15974   0.17142
 Alpha virt. eigenvalues --    0.17797   0.18947   0.21247   0.26328   0.27485
 Alpha virt. eigenvalues --    0.27812   0.29509   0.32183   0.33663   0.36526
 Alpha virt. eigenvalues --    0.36990   0.38539   0.39233   0.40487   0.41911
 Alpha virt. eigenvalues --    0.42127   0.45938   0.54522   0.56693   0.59611
 Alpha virt. eigenvalues --    0.62572   0.65301   0.68145   0.70057   0.72028
 Alpha virt. eigenvalues --    0.73031   0.74976   0.77530   0.78018   0.79122
 Alpha virt. eigenvalues --    0.80374   0.82582   0.85550   0.85884   0.89062
 Alpha virt. eigenvalues --    0.89416   0.90725   0.91593   0.93236   0.97471
 Alpha virt. eigenvalues --    0.99480   0.99988   1.01797   1.02289   1.03701
 Alpha virt. eigenvalues --    1.07886   1.08360   1.08637   1.14884   1.17242
 Alpha virt. eigenvalues --    1.20127   1.23490   1.27902   1.34226   1.35893
 Alpha virt. eigenvalues --    1.37013   1.40659   1.46375   1.49211   1.53998
 Alpha virt. eigenvalues --    1.57929   1.59355   1.60881   1.72768   1.79215
 Alpha virt. eigenvalues --    1.84001   1.85700   1.87204   1.89899   2.20086
 Alpha virt. eigenvalues --    2.23504   2.25929   2.27814   2.31565   2.35727
 Alpha virt. eigenvalues --    2.36578   2.37085   2.38247   2.40403   2.43146
 Alpha virt. eigenvalues --    2.44314   2.47384   2.50747   2.52220   2.54428
 Alpha virt. eigenvalues --    2.55675   2.56634   2.60819   2.61873   2.62559
 Alpha virt. eigenvalues --    2.65577   2.66953   2.68609   2.72207   2.73494
 Alpha virt. eigenvalues --    2.75970   2.82067   2.85178   2.89562   2.93372
 Alpha virt. eigenvalues --    2.95340   2.99781   3.05405   3.09717   3.18903
 Alpha virt. eigenvalues --    3.22789   3.26643   3.32445   3.41007   3.47093
 Alpha virt. eigenvalues --    3.61152   3.66083   3.83848   3.87424   4.02372
 Alpha virt. eigenvalues --    4.46602   4.47045   4.54512   4.57576   4.69664
 Alpha virt. eigenvalues --    4.71858   4.86284   4.88570   4.98353   5.07369
 Alpha virt. eigenvalues --    5.19383   5.20747   5.57201   5.64987   5.78238
 Alpha virt. eigenvalues --    5.94255   6.06208   6.08611   6.78231   6.86314
 Alpha virt. eigenvalues --    7.36260   7.37388   7.62240   7.70091   7.74085
 Alpha virt. eigenvalues --    7.84208   8.00312   8.15232   8.17742   8.26607
 Alpha virt. eigenvalues --    8.29226   8.44812   8.65518   8.94661   9.54301
 Alpha virt. eigenvalues --    9.72700   9.81939   9.89147   9.94661   9.95378
 Alpha virt. eigenvalues --   10.18421  10.22224  10.59923  10.91540  11.55358
 Alpha virt. eigenvalues --   11.60922  11.73951  11.99292  12.01281  13.22243
 Alpha virt. eigenvalues --   13.65257  14.52970  62.54947  64.69187
          Condensed to atoms (all electrons):
              1          2          3          4          5
     1  O    0.001028  -0.000668  -0.000498   0.000711  -0.008621
     2  O   -0.000668   0.003884   0.000065  -0.003237  -0.000600
     3  H   -0.000498   0.000065   0.000940   0.000056  -0.012018
     4  H    0.000711  -0.003237   0.000056   0.004198  -0.028511
     5  Kr  -0.008621  -0.000600  -0.012018  -0.028511  36.096594
 Mulliken atomic charges:
              1
     1  O    0.008049
     2  O    0.000556
     3  H    0.011455
     4  H    0.026783
     5  Kr  -0.046843
 Sum of Mulliken atomic charges =   0.00000
 Mulliken charges with hydrogens summed into heavy atoms:
              1
     1  O    0.019504
     2  O    0.027339
     5  Kr  -0.046843
 Sum of Mulliken charges with hydrogens summed into heavy atoms =   0.00000
          Condensed to fragments (all electrons):
     1       0.046843
     2      -0.046843
 Electronic spatial extent (au):  <R**2>=            160.1044
 Charge=              0.0000 electrons
 Dipole moment (field-independent basis, Debye):
    X=             -0.0011    Y=              0.0001    Z=              0.0000  Tot=              0.0011
 Quadrupole moment (field-independent basis, Debye-Ang):
   XX=            -17.5383   YY=            -17.5492   ZZ=            -17.5572
   XY=             -0.0012   XZ=             -0.0026   YZ=             -0.0014
 Traceless Quadrupole moment (field-independent basis, Debye-Ang):
   XX=              0.0099   YY=             -0.0010   ZZ=             -0.0089
   XY=             -0.0012   XZ=             -0.0026   YZ=             -0.0014
 Octapole moment (field-independent basis, Debye-Ang**2):
  XXX=            -51.0350  YYY=              0.1129  ZZZ=              0.1902  XYY=            -17.0252
  XXY=              0.0349  XXZ=              0.0600  XZZ=            -17.0294  YZZ=              0.0381
  YYZ=              0.0640  XYZ=             -0.0001
 Hexadecapole moment (field-independent basis, Debye-Ang**3):
 XXXX=           -117.0041 YYYY=            -18.0280 ZZZZ=            -18.0546 XXXY=              0.1055
 XXXZ=              0.1779 YYYX=              0.1055 YYYZ=             -0.0010 ZZZX=              0.1788
 ZZZY=             -0.0023 XXYY=            -22.5148 XXZZ=            -22.5219 YYZZ=             -6.0131
 XXYZ=             -0.0010 YYXZ=              0.0597 ZZXY=              0.0342
 N-N= 0.000000000000D+00 E-N=-6.579040475313D+03  KE= 2.749506888718D+03
 No NMR shielding tensors so no spin-rotation constants.
 Leave Link  601 at Fri May  8 05:12:49 2020, MaxMem= 1073741824 cpu:       0.8
 (Enter /home/matheus/.gaussian/g09/l122.exe)
 Counterpoise: doing MCBS calculation for fragment   1
 Leave Link  122 at Fri May  8 05:12:49 2020, MaxMem= 1073741824 cpu:       0.0
 (Enter /home/matheus/.gaussian/g09/l301.exe)
 Basis read from rwf:  (5D, 7F)
 No pseudopotential information found on rwf file.
 There are   138 symmetry adapted basis functions of A   symmetry.
 Integral buffers will be    131072 words long.
 Raffenetti 2 integral format.
 Two-electron integral symmetry is turned on.
   138 basis functions,   198 primitive gaussians,   160 cartesian basis functions
     9 alpha electrons        9 beta electrons
       nuclear repulsion energy        36.6553686071 Hartrees.
 IExCor=32609 DFT=T Ex+Corr=LC-wPBE ExCW=0 ScaHFX=  1.000000
 ScaDFX=  1.000000  0.000000  1.000000  1.000000 ScalE2=  1.000000  1.000000
 IRadAn=      5 IRanWt=     -1 IRanGd=            0 ICorTp=0
  HFx wShort=  0.000000 wLong=  0.550000 cFull=  0.000000 cShort=  0.000000 cLong=  1.000000
  DFx wShort=  0.000000 wLong=  0.550000 cFull=  0.000000 cShort=  0.000000 cLong=  1.000000
 NAtoms=    5 NActive=    4 NUniq=    4 SFac= 1.00D+00 NAtFMM=   60 NAOKFM=F Big=F
 No density basis found on file   718.
 Leave Link  301 at Fri May  8 05:12:49 2020, MaxMem= 1073741824 cpu:       0.2
 (Enter /home/matheus/.gaussian/g09/l302.exe)
 NPDir=0 NMtPBC=     1 NCelOv=     1 NCel=       1 NClECP=     1 NCelD=      1
         NCelK=      1 NCelE2=     1 NClLst=     1 CellRange=     0.0.
 One-electron integrals computed using PRISM.
 NBasis=   138 RedAO= T  NBF=   138
 NBsUse=   138 1.00D-06 NBFU=   138
 Precomputing XC quadrature grid using
 IXCGrd= 2 IRadAn=           5 IRanWt=          -1 IRanGd=           0 AccXCQ= 0.00D+00.
 NRdTot=     344 NPtTot=       92556 NUsed=       95038 NTot=       95070
 NSgBfM=   160   160   160   160   160 NAtAll=     4     4.
 Leave Link  302 at Fri May  8 05:12:49 2020, MaxMem= 1073741824 cpu:       0.8
 (Enter /home/matheus/.gaussian/g09/l303.exe)
 DipDrv:  MaxL=1.
 Leave Link  303 at Fri May  8 05:12:49 2020, MaxMem= 1073741824 cpu:       0.1
 (Enter /home/matheus/.gaussian/g09/l401.exe)
 Harris functional with IExCor=32609 diagonalized for initial guess.
 ExpMin= 2.53D-02 ExpMax= 1.53D+04 ExpMxC= 5.22D+02 IAcc=3 IRadAn=         5 AccDes= 0.00D+00
 HarFok:  IExCor=32609 AccDes= 0.00D+00 IRadAn=         5 IDoV= 1
 ScaDFX=  1.000000  1.000000  1.000000  1.000000
 FoFCou: FMM=F IPFlag=           0 FMFlag=      100000 FMFlg1=           0
         NFxFlg=           0 DoJE=T BraDBF=F KetDBF=T FulRan=T
         Omega=  0.000000  0.000000  1.000000  0.000000  0.000000 ICntrl=     500 IOpCl=  0
         NMat0=    1 NMatS0=    1 NMatT0=    0 NMatD0=    1 NMtDS0=    0 NMtDT0=    0
         I1Cent=           4 NGrid=           0.
 Petite list used in FoFCou.
 Harris En= -151.500280973464    
 Initial guess orbital symmetries:
       Occupied  (A) (A) (A) (A) (A) (A) (A) (A) (A)
       Virtual   (A) (A) (A) (A) (A) (A) (A) (A) (A) (A) (A) (A)
                 (A) (A) (A) (A) (A) (A) (A) (A) (A) (A) (A) (A)
                 (A) (A) (A) (A) (A) (A) (A) (A) (A) (A) (A) (A)
                 (A) (A) (A) (A) (A) (A) (A) (A) (A) (A) (A) (A)
                 (A) (A) (A) (A) (A) (A) (A) (A) (A) (A) (A) (A)
                 (A) (A) (A) (A) (A) (A) (A) (A) (A) (A) (A) (A)
                 (A) (A) (A) (A) (A) (A) (A) (A) (A) (A) (A) (A)
                 (A) (A) (A) (A) (A) (A) (A) (A) (A) (A) (A) (A)
                 (A) (A) (A) (A) (A) (A) (A) (A) (A) (A) (A) (A)
                 (A) (A) (A) (A) (A) (A) (A) (A) (A) (A) (A) (A)
                 (A) (A) (A) (A) (A) (A) (A) (A) (A)
 The electronic state of the initial guess is 1-A.
 Leave Link  401 at Fri May  8 05:12:49 2020, MaxMem= 1073741824 cpu:       2.3
 (Enter /home/matheus/.gaussian/g09/l502.exe)
 Closed shell SCF:
 Requested convergence on RMS density matrix=1.00D-08 within 128 cycles.
 Requested convergence on MAX density matrix=1.00D-06.
 Requested convergence on             energy=1.00D-06.
 No special actions if energy rises.
 Using DIIS extrapolation, IDIIS=  1040.
 Integral symmetry usage will be decided dynamically.
        94980 words used for storage of precomputed grid.
 IEnd=      192360 IEndB=      192360 NGot=  1073741824 MDV=  1073591865
 LenX=  1073591865 LenY=  1073565824
 Fock matrices will be formed incrementally for  20 cycles.

 Cycle   1  Pass 1  IDiag  1:
 FoFJK:  IHMeth= 1 ICntrl=     0 DoSepK=T KAlg= 1 I1Cent= 0 FoldK=F
 FoFCou: FMM=F IPFlag=           0 FMFlag=      100000 FMFlg1=           0
         NFxFlg=           0 DoJE=T BraDBF=F KetDBF=F FulRan=T
         Omega=  0.000000  0.000000  1.000000  0.000000  0.000000 ICntrl=     500 IOpCl=  0
         NMat0=    1 NMatS0=    1 NMatT0=    0 NMatD0=    1 NMtDS0=    0 NMtDT0=    0
         I1Cent=           0 NGrid=           0.
 Symmetry not used in FoFCou.
 E= -151.500728597164    
 DIIS: error= 1.86D-02 at cycle   1 NSaved=   1.
 NSaved= 1 IEnMin= 1 EnMin= -151.500728597164     IErMin= 1 ErrMin= 1.86D-02
 ErrMax= 1.86D-02 EMaxC= 1.00D-01 BMatC= 4.32D-02 BMatP= 4.32D-02
 IDIUse=3 WtCom= 8.14D-01 WtEn= 1.86D-01
 Coeff-Com:  0.100D+01
 Coeff-En:   0.100D+01
 Coeff:      0.100D+01
 Gap=     0.550 Goal=   None    Shift=    0.000
 GapD=    0.550 DampG=2.000 DampE=0.500 DampFc=1.0000 IDamp=-1.
 RMSDP=1.09D-03 MaxDP=2.34D-02              OVMax= 5.77D-02

 Cycle   2  Pass 1  IDiag  1:
 RMSU=  7.64D-04    CP:  9.93D-01
 FoFJK:  IHMeth= 1 ICntrl=     0 DoSepK=T KAlg= 1 I1Cent= 0 FoldK=F
 E= -151.518206996211     Delta-E=       -0.017478399046 Rises=F Damp=F
 DIIS: error= 1.15D-02 at cycle   2 NSaved=   2.
 NSaved= 2 IEnMin= 2 EnMin= -151.518206996211     IErMin= 2 ErrMin= 1.15D-02
 ErrMax= 1.15D-02 EMaxC= 1.00D-01 BMatC= 1.79D-02 BMatP= 4.32D-02
 IDIUse=3 WtCom= 8.85D-01 WtEn= 1.15D-01
 Coeff-Com:  0.380D+00 0.620D+00
 Coeff-En:   0.142D+00 0.858D+00
 Coeff:      0.352D+00 0.648D+00
 Gap=     0.465 Goal=   None    Shift=    0.000
 RMSDP=6.37D-04 MaxDP=2.24D-02 DE=-1.75D-02 OVMax= 2.51D-02

 Cycle   3  Pass 1  IDiag  1:
 RMSU=  3.27D-04    CP:  9.88D-01  5.99D-01
 FoFJK:  IHMeth= 1 ICntrl=     0 DoSepK=T KAlg= 1 I1Cent= 0 FoldK=F
 E= -151.528467754063     Delta-E=       -0.010260757852 Rises=F Damp=F
 DIIS: error= 2.06D-03 at cycle   3 NSaved=   3.
 NSaved= 3 IEnMin= 3 EnMin= -151.528467754063     IErMin= 3 ErrMin= 2.06D-03
 ErrMax= 2.06D-03 EMaxC= 1.00D-01 BMatC= 4.74D-04 BMatP= 1.79D-02
 IDIUse=3 WtCom= 9.79D-01 WtEn= 2.06D-02
 Coeff-Com:  0.417D-01 0.162D+00 0.796D+00
 Coeff-En:   0.000D+00 0.000D+00 0.100D+01
 Coeff:      0.408D-01 0.159D+00 0.801D+00
 Gap=     0.457 Goal=   None    Shift=    0.000
 RMSDP=8.02D-05 MaxDP=1.39D-03 DE=-1.03D-02 OVMax= 4.29D-03

 Cycle   4  Pass 1  IDiag  1:
 RMSU=  3.87D-05    CP:  9.87D-01  6.51D-01  1.01D+00
 FoFJK:  IHMeth= 1 ICntrl=     0 DoSepK=T KAlg= 1 I1Cent= 0 FoldK=F
 E= -151.528765736269     Delta-E=       -0.000297982206 Rises=F Damp=F
 DIIS: error= 3.00D-04 at cycle   4 NSaved=   4.
 NSaved= 4 IEnMin= 4 EnMin= -151.528765736269     IErMin= 4 ErrMin= 3.00D-04
 ErrMax= 3.00D-04 EMaxC= 1.00D-01 BMatC= 1.03D-05 BMatP= 4.74D-04
 IDIUse=3 WtCom= 9.97D-01 WtEn= 3.00D-03
 Coeff-Com: -0.993D-02-0.125D-01 0.851D-01 0.937D+00
 Coeff-En:   0.000D+00 0.000D+00 0.000D+00 0.100D+01
 Coeff:     -0.990D-02-0.125D-01 0.849D-01 0.937D+00
 Gap=     0.458 Goal=   None    Shift=    0.000
 RMSDP=1.76D-05 MaxDP=6.59D-04 DE=-2.98D-04 OVMax= 8.07D-04

 Cycle   5  Pass 1  IDiag  1:
 RMSU=  6.33D-06    CP:  9.87D-01  6.48D-01  1.04D+00  1.05D+00
 FoFJK:  IHMeth= 1 ICntrl=     0 DoSepK=T KAlg= 1 I1Cent= 0 FoldK=F
 E= -151.528774562567     Delta-E=       -0.000008826298 Rises=F Damp=F
 DIIS: error= 6.65D-05 at cycle   5 NSaved=   5.
 NSaved= 5 IEnMin= 5 EnMin= -151.528774562567     IErMin= 5 ErrMin= 6.65D-05
 ErrMax= 6.65D-05 EMaxC= 1.00D-01 BMatC= 2.16D-07 BMatP= 1.03D-05
 IDIUse=1 WtCom= 1.00D+00 WtEn= 0.00D+00
 Coeff-Com: -0.226D-03-0.169D-02-0.322D-01-0.120D+00 0.115D+01
 Coeff:     -0.226D-03-0.169D-02-0.322D-01-0.120D+00 0.115D+01
 Gap=     0.458 Goal=   None    Shift=    0.000
 RMSDP=4.64D-06 MaxDP=8.28D-05 DE=-8.83D-06 OVMax= 2.62D-04

 Cycle   6  Pass 1  IDiag  1:
 RMSU=  1.61D-06    CP:  9.87D-01  6.49D-01  1.04D+00  1.09D+00  1.31D+00
 FoFJK:  IHMeth= 1 ICntrl=     0 DoSepK=T KAlg= 1 I1Cent= 0 FoldK=F
 E= -151.528775041883     Delta-E=       -0.000000479316 Rises=F Damp=F
 DIIS: error= 1.20D-05 at cycle   6 NSaved=   6.
 NSaved= 6 IEnMin= 6 EnMin= -151.528775041883     IErMin= 6 ErrMin= 1.20D-05
 ErrMax= 1.20D-05 EMaxC= 1.00D-01 BMatC= 1.19D-08 BMatP= 2.16D-07
 IDIUse=1 WtCom= 1.00D+00 WtEn= 0.00D+00
 Coeff-Com:  0.234D-03 0.721D-03 0.546D-02 0.483D-02-0.261D+00 0.125D+01
 Coeff:      0.234D-03 0.721D-03 0.546D-02 0.483D-02-0.261D+00 0.125D+01
[...]
 Closed shell SCF:
 Requested convergence on RMS density matrix=1.00D-08 within 128 cycles.
 Requested convergence on MAX density matrix=1.00D-06.
 Requested convergence on             energy=1.00D-06.
 No special actions if energy rises.
 Using DIIS extrapolation, IDIIS=  1040.
 Integral symmetry usage will be decided dynamically.
       126823 words used for storage of precomputed grid.
 IEnd=      305770 IEndB=      305770 NGot=  1073741824 MDV=  1073505365
 LenX=  1073505365 LenY=  1073452483
 Fock matrices will be formed incrementally for  20 cycles.

 Cycle   1  Pass 1  IDiag  1:
 FoFJK:  IHMeth= 1 ICntrl=     0 DoSepK=T KAlg= 1 I1Cent= 0 FoldK=F
 FoFCou: FMM=F IPFlag=           0 FMFlag=      100000 FMFlg1=           0
         NFxFlg=           0 DoJE=T BraDBF=F KetDBF=F FulRan=T
         Omega=  0.000000  0.000000  1.000000  0.000000  0.000000 ICntrl=     500 IOpCl=  0
         NMat0=    1 NMatS0=    1 NMatT0=    0 NMatD0=    1 NMtDS0=    0 NMtDT0=    0
         I1Cent=           0 NGrid=           0.
 Symmetry not used in FoFCou.
 E= -2753.47778011540    
 DIIS: error= 1.98D-04 at cycle   1 NSaved=   1.
 NSaved= 1 IEnMin= 1 EnMin= -2753.47778011540     IErMin= 1 ErrMin= 1.98D-04
 ErrMax= 1.98D-04 EMaxC= 1.00D-01 BMatC= 5.13D-06 BMatP= 5.13D-06
 IDIUse=3 WtCom= 9.98D-01 WtEn= 1.98D-03
 Coeff-Com:  0.100D+01
 Coeff-En:   0.100D+01
 Coeff:      0.100D+01
 Gap=     0.556 Goal=   None    Shift=    0.000
 RMSDP=1.22D-05 MaxDP=5.98D-04              OVMax= 3.34D-04

 Cycle   2  Pass 1  IDiag  1:
 RMSU=  8.60D-06    CP:  1.00D+00
 FoFJK:  IHMeth= 1 ICntrl=     0 DoSepK=T KAlg= 1 I1Cent= 0 FoldK=F
 E= -2753.47778076521     Delta-E=       -0.000000649808 Rises=F Damp=F
 DIIS: error= 4.70D-06 at cycle   2 NSaved=   2.
 NSaved= 2 IEnMin= 2 EnMin= -2753.47778076521     IErMin= 2 ErrMin= 4.70D-06
 ErrMax= 4.70D-06 EMaxC= 1.00D-01 BMatC= 4.60D-09 BMatP= 5.13D-06
 IDIUse=1 WtCom= 1.00D+00 WtEn= 0.00D+00
 Coeff-Com: -0.911D-02 0.101D+01
 Coeff:     -0.911D-02 0.101D+01
 Gap=     0.556 Goal=   None    Shift=    0.000
 RMSDP=1.16D-06 MaxDP=5.75D-05 DE=-6.50D-07 OVMax= 5.03D-05

 Cycle   3  Pass 1  IDiag  1:
 RMSU=  5.09D-07    CP:  1.00D+00  1.08D+00
 FoFJK:  IHMeth= 1 ICntrl=     0 DoSepK=T KAlg= 1 I1Cent= 0 FoldK=F
 E= -2753.47778077318     Delta-E=       -0.000000007969 Rises=F Damp=F
 DIIS: error= 7.97D-07 at cycle   3 NSaved=   3.
 NSaved= 3 IEnMin= 3 EnMin= -2753.47778077318     IErMin= 3 ErrMin= 7.97D-07
 ErrMax= 7.97D-07 EMaxC= 1.00D-01 BMatC= 1.08D-10 BMatP= 4.60D-09
 IDIUse=1 WtCom= 1.00D+00 WtEn= 0.00D+00
 Coeff-Com:  0.344D-03-0.128D+00 0.113D+01
 Coeff:      0.344D-03-0.128D+00 0.113D+01
 Gap=     0.556 Goal=   None    Shift=    0.000
 RMSDP=1.83D-07 MaxDP=6.62D-06 DE=-7.97D-09 OVMax= 1.01D-05

 Cycle   4  Pass 1  IDiag  1:
 RMSU=  4.92D-08    CP:  1.00D+00  1.08D+00  1.22D+00
 FoFJK:  IHMeth= 1 ICntrl=     0 DoSepK=T KAlg= 1 I1Cent= 0 FoldK=F
 E= -2753.47778077340     Delta-E=       -0.000000000229 Rises=F Damp=F
 DIIS: error= 2.82D-07 at cycle   4 NSaved=   4.
 NSaved= 4 IEnMin= 4 EnMin= -2753.47778077340     IErMin= 4 ErrMin= 2.82D-07
 ErrMax= 2.82D-07 EMaxC= 1.00D-01 BMatC= 5.16D-12 BMatP= 1.08D-10
 IDIUse=1 WtCom= 1.00D+00 WtEn= 0.00D+00
 Coeff-Com:  0.175D-03-0.356D-01 0.199D+00 0.836D+00
 Coeff:      0.175D-03-0.356D-01 0.199D+00 0.836D+00
 Gap=     0.556 Goal=   None    Shift=    0.000
 RMSDP=2.01D-08 MaxDP=7.60D-07 DE=-2.29D-10 OVMax= 9.85D-07

 Cycle   5  Pass 1  IDiag  1:
 RMSU=  7.08D-09    CP:  1.00D+00  1.08D+00  1.24D+00  1.13D+00
 FoFJK:  IHMeth= 1 ICntrl=     0 DoSepK=T KAlg= 1 I1Cent= 0 FoldK=F
 E= -2753.47778077341     Delta-E=       -0.000000000008 Rises=F Damp=F
 DIIS: error= 3.07D-08 at cycle   5 NSaved=   5.
 NSaved= 5 IEnMin= 5 EnMin= -2753.47778077341     IErMin= 5 ErrMin= 3.07D-08
 ErrMax= 3.07D-08 EMaxC= 1.00D-01 BMatC= 1.57D-13 BMatP= 5.16D-12
 IDIUse=1 WtCom= 1.00D+00 WtEn= 0.00D+00
 Coeff-Com: -0.309D-04 0.892D-02-0.690D-01-0.531D-01 0.111D+01
 Coeff:     -0.309D-04 0.892D-02-0.690D-01-0.531D-01 0.111D+01
 Gap=     0.556 Goal=   None    Shift=    0.000
 RMSDP=7.42D-09 MaxDP=3.45D-07 DE=-8.19D-12 OVMax= 3.80D-07

 SCF Done:  E(RLC-wPBE) =  -2753.47778077     A.U. after    5 cycles
             Convg  =    0.7419D-08             -V/T =  2.0014
 KE= 2.749555175496D+03 PE=-6.579093078792D+03 EE= 1.076060122522D+03
 Leave Link  502 at Fri May  8 05:33:38 2020, MaxMem= 1073741824 cpu:      90.3
 (Enter /home/matheus/.gaussian/g09/l122.exe)
 Restoring MOs from calculation   4 to rwf.
 Counterpoise: doing MCBS calculation for fragment   1
 Leave Link  122 at Fri May  8 05:33:38 2020, MaxMem= 1073741824 cpu:       0.0
 (Enter /home/matheus/.gaussian/g09/l301.exe)
 Basis read from rwf:  (5D, 7F)
 No pseudopotential information found on rwf file.
 There are   138 symmetry adapted basis functions of A   symmetry.
 Integral buffers will be    131072 words long.
 Raffenetti 2 integral format.
 Two-electron integral symmetry is turned on.
   138 basis functions,   198 primitive gaussians,   160 cartesian basis functions
     9 alpha electrons        9 beta electrons
       nuclear repulsion energy        36.6553686071 Hartrees.
 IExCor=32609 DFT=T Ex+Corr=LC-wPBE ExCW=0 ScaHFX=  1.000000
 ScaDFX=  1.000000  0.000000  1.000000  1.000000 ScalE2=  1.000000  1.000000
 IRadAn=      5 IRanWt=     -1 IRanGd=            0 ICorTp=0
  HFx wShort=  0.000000 wLong=  0.550000 cFull=  0.000000 cShort=  0.000000 cLong=  1.000000
  DFx wShort=  0.000000 wLong=  0.550000 cFull=  0.000000 cShort=  0.000000 cLong=  1.000000
 NAtoms=    5 NActive=    4 NUniq=    4 SFac= 1.00D+00 NAtFMM=   60 NAOKFM=F Big=F
 No density basis found on file   718.
 Leave Link  301 at Fri May  8 05:33:38 2020, MaxMem= 1073741824 cpu:       0.2
 (Enter /home/matheus/.gaussian/g09/l302.exe)
 NPDir=0 NMtPBC=     1 NCelOv=     1 NCel=       1 NClECP=     1 NCelD=      1
         NCelK=      1 NCelE2=     1 NClLst=     1 CellRange=     0.0.
 One-electron integrals computed using PRISM.
 NBasis=   138 RedAO= T  NBF=   138
 NBsUse=   138 1.00D-06 NBFU=   138
 Precomputing XC quadrature grid using
 IXCGrd= 2 IRadAn=           5 IRanWt=          -1 IRanGd=           0 AccXCQ= 0.00D+00.
 NRdTot=     344 NPtTot=       92556 NUsed=       95038 NTot=       95070
 NSgBfM=   160   160   160   160   160 NAtAll=     4     4.
 Leave Link  302 at Fri May  8 05:33:38 2020, MaxMem= 1073741824 cpu:       0.7
 (Enter /home/matheus/.gaussian/g09/l303.exe)
 DipDrv:  MaxL=1.
 Leave Link  303 at Fri May  8 05:33:38 2020, MaxMem= 1073741824 cpu:       0.2
 (Enter /home/matheus/.gaussian/g09/l401.exe)
 Initial guess read from the read-write file.
 Guess basis will be translated and rotated to current coordinates.
 Initial guess orbital symmetries:
       Occupied  (A) (A) (A) (A) (A) (A) (A) (A) (A)
       Virtual   (A) (A) (A) (A) (A) (A) (A) (A) (A) (A) (A) (A)
                 (A) (A) (A) (A) (A) (A) (A) (A) (A) (A) (A) (A)
                 (A) (A) (A) (A) (A) (A) (A) (A) (A) (A) (A) (A)
                 (A) (A) (A) (A) (A) (A) (A) (A) (A) (A) (A) (A)
                 (A) (A) (A) (A) (A) (A) (A) (A) (A) (A) (A) (A)
                 (A) (A) (A) (A) (A) (A) (A) (A) (A) (A) (A) (A)
                 (A) (A) (A) (A) (A) (A) (A) (A) (A) (A) (A) (A)
                 (A) (A) (A) (A) (A) (A) (A) (A) (A) (A) (A) (A)
                 (A) (A) (A) (A) (A) (A) (A) (A) (A) (A) (A) (A)
                 (A) (A) (A) (A) (A) (A) (A) (A) (A) (A) (A) (A)
                 (A) (A) (A) (A) (A) (A) (A) (A) (A)
 The electronic state of the initial guess is 1-A.
 Generating alternative initial guess.
 Harris functional with IExCor=32609 diagonalized for initial guess.
 ExpMin= 2.53D-02 ExpMax= 1.53D+04 ExpMxC= 5.22D+02 IAcc=3 IRadAn=         5 AccDes= 0.00D+00
 HarFok:  IExCor=32609 AccDes= 0.00D+00 IRadAn=         5 IDoV= 1
 ScaDFX=  1.000000  1.000000  1.000000  1.000000
 FoFCou: FMM=F IPFlag=           0 FMFlag=      100000 FMFlg1=           0
         NFxFlg=           0 DoJE=T BraDBF=F KetDBF=T FulRan=T
         Omega=  0.000000  0.000000  1.000000  0.000000  0.000000 ICntrl=     500 IOpCl=  0
         NMat0=    1 NMatS0=    1 NMatT0=    0 NMatD0=    1 NMtDS0=    0 NMtDT0=    0
         I1Cent=           4 NGrid=           0.
 Petite list used in FoFCou.
 Harris En= -151.500280964659    
 Leave Link  401 at Fri May  8 05:33:39 2020, MaxMem= 1073741824 cpu:       2.6
 (Enter /home/matheus/.gaussian/g09/l502.exe)
 Closed shell SCF:
 Requested convergence on RMS density matrix=1.00D-08 within 128 cycles.
 Requested convergence on MAX density matrix=1.00D-06.
 Requested convergence on             energy=1.00D-06.
 No special actions if energy rises.
 Using DIIS extrapolation, IDIIS=  1040.
 Integral symmetry usage will be decided dynamically.
        94980 words used for storage of precomputed grid.
 IEnd=      192360 IEndB=      192360 NGot=  1073741824 MDV=  1073591865
 LenX=  1073591865 LenY=  1073565824
 Fock matrices will be formed incrementally for  20 cycles.

 Cycle   1  Pass 1  IDiag  1:
 FoFJK:  IHMeth= 1 ICntrl=     0 DoSepK=T KAlg= 1 I1Cent= 0 FoldK=F
 FoFCou: FMM=F IPFlag=           0 FMFlag=      100000 FMFlg1=           0
         NFxFlg=           0 DoJE=T BraDBF=F KetDBF=F FulRan=T
         Omega=  0.000000  0.000000  1.000000  0.000000  0.000000 ICntrl=     500 IOpCl=  0
         NMat0=    1 NMatS0=    1 NMatT0=    0 NMatD0=    1 NMtDS0=    0 NMtDT0=    0
         I1Cent=           0 NGrid=           0.
 Symmetry not used in FoFCou.
 E= -151.528775180273    
 DIIS: error= 3.90D-06 at cycle   1 NSaved=   1.
 NSaved= 1 IEnMin= 1 EnMin= -151.528775180273     IErMin= 1 ErrMin= 3.90D-06
 ErrMax= 3.90D-06 EMaxC= 1.00D-01 BMatC= 2.91D-09 BMatP= 2.91D-09
 IDIUse=1 WtCom= 1.00D+00 WtEn= 0.00D+00
 Coeff-Com:  0.100D+01
 Coeff:      0.100D+01
 Gap=     0.458 Goal=   None    Shift=    0.000
 RMSDP=3.76D-07 MaxDP=8.54D-06              OVMax= 1.28D-05

 Cycle   2  Pass 1  IDiag  1:
 RMSU=  2.66D-07    CP:  1.00D+00
 FoFJK:  IHMeth= 1 ICntrl=     0 DoSepK=T KAlg= 1 I1Cent= 0 FoldK=F
 E= -151.528775182955     Delta-E=       -0.000000002682 Rises=F Damp=F
 DIIS: error= 7.59D-07 at cycle   2 NSaved=   2.
 NSaved= 2 IEnMin= 2 EnMin= -151.528775182955     IErMin= 2 ErrMin= 7.59D-07
 ErrMax= 7.59D-07 EMaxC= 1.00D-01 BMatC= 1.22D-10 BMatP= 2.91D-09
 IDIUse=1 WtCom= 1.00D+00 WtEn= 0.00D+00
 Coeff-Com: -0.143D+00 0.114D+01
 Coeff:     -0.143D+00 0.114D+01
 Gap=     0.458 Goal=   None    Shift=    0.000
 RMSDP=1.03D-07 MaxDP=2.97D-06 DE=-2.68D-09 OVMax= 4.67D-06

 Cycle   3  Pass 1  IDiag  1:
 RMSU=  3.52D-08    CP:  1.00D+00  1.24D+00
 FoFJK:  IHMeth= 1 ICntrl=     0 DoSepK=T KAlg= 1 I1Cent= 0 FoldK=F
 E= -151.528775183184     Delta-E=       -0.000000000229 Rises=F Damp=F
 DIIS: error= 2.48D-07 at cycle   3 NSaved=   3.
 NSaved= 3 IEnMin= 3 EnMin= -151.528775183184     IErMin= 3 ErrMin= 2.48D-07
 ErrMax= 2.48D-07 EMaxC= 1.00D-01 BMatC= 7.47D-12 BMatP= 1.22D-10
 IDIUse=1 WtCom= 1.00D+00 WtEn= 0.00D+00
 Coeff-Com: -0.835D-02-0.962D-01 0.110D+01
 Coeff:     -0.835D-02-0.962D-01 0.110D+01
 Gap=     0.458 Goal=   None    Shift=    0.000
 RMSDP=2.83D-08 MaxDP=7.04D-07 DE=-2.29D-10 OVMax= 1.74D-06

 Cycle   4  Pass 1  IDiag  1:
 RMSU=  8.79D-09    CP:  1.00D+00  1.29D+00  1.31D+00
 FoFJK:  IHMeth= 1 ICntrl=     0 DoSepK=T KAlg= 1 I1Cent= 0 FoldK=F
 E= -151.528775183203     Delta-E=       -0.000000000019 Rises=F Damp=F
 DIIS: error= 1.20D-07 at cycle   4 NSaved=   4.
 NSaved= 4 IEnMin= 4 EnMin= -151.528775183203     IErMin= 4 ErrMin= 1.20D-07
 ErrMax= 1.20D-07 EMaxC= 1.00D-01 BMatC= 2.36D-12 BMatP= 7.47D-12
 IDIUse=1 WtCom= 1.00D+00 WtEn= 0.00D+00
 Coeff-Com:  0.716D-02-0.117D+00 0.357D+00 0.753D+00
 Coeff:      0.716D-02-0.117D+00 0.357D+00 0.753D+00
 Gap=     0.458 Goal=   None    Shift=    0.000
 RMSDP=9.81D-09 MaxDP=2.49D-07 DE=-1.88D-11 OVMax= 7.48D-07

 SCF Done:  E(RLC-wPBE) =  -151.528775183     A.U. after    4 cycles
             Convg  =    0.9813D-08             -V/T =  2.0069
 KE= 1.504878355533D+02 PE=-4.315990387095D+02 EE= 9.292705936587D+01
 Leave Link  502 at Fri May  8 05:33:42 2020, MaxMem= 1073741824 cpu:      29.2
 (Enter /home/matheus/.gaussian/g09/l122.exe)
 Restoring MOs from calculation   5 to rwf.
 Counterpoise: doing MCBS calculation for fragment   2
 Leave Link  122 at Fri May  8 05:33:42 2020, MaxMem= 1073741824 cpu:       0.0
 (Enter /home/matheus/.gaussian/g09/l301.exe)
 Basis read from rwf:  (5D, 7F)
 No pseudopotential information found on rwf file.
 There are    59 symmetry adapted basis functions of A   symmetry.
 Integral buffers will be    131072 words long.
 Raffenetti 2 integral format.
 Two-electron integral symmetry is turned on.
    59 basis functions,   217 primitive gaussians,    69 cartesian basis functions
    18 alpha electrons       18 beta electrons
       nuclear repulsion energy         0.0000000000 Hartrees.
 IExCor=32609 DFT=T Ex+Corr=LC-wPBE ExCW=0 ScaHFX=  1.000000
 ScaDFX=  1.000000  0.000000  1.000000  1.000000 ScalE2=  1.000000  1.000000
 IRadAn=      5 IRanWt=     -1 IRanGd=            0 ICorTp=0
  HFx wShort=  0.000000 wLong=  0.550000 cFull=  0.000000 cShort=  0.000000 cLong=  1.000000
  DFx wShort=  0.000000 wLong=  0.550000 cFull=  0.000000 cShort=  0.000000 cLong=  1.000000
 NAtoms=    5 NActive=    1 NUniq=    1 SFac= 1.00D+00 NAtFMM=   60 NAOKFM=F Big=F
 No density basis found on file   718.
 Leave Link  301 at Fri May  8 05:33:42 2020, MaxMem= 1073741824 cpu:       0.2
 (Enter /home/matheus/.gaussian/g09/l302.exe)
 NPDir=0 NMtPBC=     1 NCelOv=     1 NCel=       1 NClECP=     1 NCelD=      1
         NCelK=      1 NCelE2=     1 NClLst=     1 CellRange=     0.0.
 One-electron integrals computed using PRISM.
 NBasis=    59 RedAO= T  NBF=    59
 NBsUse=    59 1.00D-06 NBFU=    59
 Precomputing XC quadrature grid using
 IXCGrd= 2 IRadAn=           5 IRanWt=          -1 IRanGd=           0 AccXCQ= 0.00D+00.
 NRdTot=      81 NPtTot=       30352 NUsed=       30981 NTot=       31013
 NSgBfM=    69    69    69    69    69 NAtAll=     1     1.
 Leave Link  302 at Fri May  8 05:33:42 2020, MaxMem= 1073741824 cpu:       0.7
 (Enter /home/matheus/.gaussian/g09/l303.exe)
 DipDrv:  MaxL=1.
 Leave Link  303 at Fri May  8 05:33:42 2020, MaxMem= 1073741824 cpu:       0.1
 (Enter /home/matheus/.gaussian/g09/l401.exe)
 Initial guess read from the read-write file.
 Guess basis will be translated and rotated to current coordinates.
 Initial guess orbital symmetries:
       Occupied  (A) (A) (A) (A) (A) (A) (A) (A) (A) (A) (A) (A)
                 (A) (A) (A) (A) (A) (A)
       Virtual   (A) (A) (A) (A) (A) (A) (A) (A) (A) (A) (A) (A)
                 (A) (A) (A) (A) (A) (A) (A) (A) (A) (A) (A) (A)
                 (A) (A) (A) (A) (A) (A) (A) (A) (A) (A) (A) (A)
                 (A) (A) (A) (A) (A)
 The electronic state of the initial guess is 1-A.
 Generating alternative initial guess.
 Harris functional with IExCor=32609 diagonalized for initial guess.
 ExpMin= 4.00D-02 ExpMax= 1.17D+07 ExpMxC= 1.33D+04 IAcc=3 IRadAn=         5 AccDes= 0.00D+00
 HarFok:  IExCor=32609 AccDes= 0.00D+00 IRadAn=         5 IDoV= 1
 ScaDFX=  1.000000  1.000000  1.000000  1.000000
 FoFCou: FMM=F IPFlag=           0 FMFlag=      100000 FMFlg1=           0
         NFxFlg=           0 DoJE=T BraDBF=F KetDBF=T FulRan=T
         Omega=  0.000000  0.000000  1.000000  0.000000  0.000000 ICntrl=     500 IOpCl=  0
         NMat0=    1 NMatS0=    1 NMatT0=    0 NMatD0=    1 NMtDS0=    0 NMtDT0=    0
         I1Cent=           4 NGrid=           0.
 Petite list used in FoFCou.
 DSYEVD returned Info=          89 IAlg= 4 N=    59 NDim=    59 NE2=    18198841 trying DSYEV.
 Harris En= -2753.24576836237    
 Leave Link  401 at Fri May  8 05:33:42 2020, MaxMem= 1073741824 cpu:       1.0
 (Enter /home/matheus/.gaussian/g09/l502.exe)
 Closed shell SCF:
 Requested convergence on RMS density matrix=1.00D-08 within 128 cycles.
 Requested convergence on MAX density matrix=1.00D-06.
 Requested convergence on             energy=1.00D-06.
 No special actions if energy rises.
 Using DIIS extrapolation, IDIIS=  1040.
 Integral symmetry usage will be decided dynamically.
        30923 words used for storage of precomputed grid.
 IEnd=       64406 IEndB=       64406 NGot=  1073741824 MDV=  1073698889
 LenX=  1073698889 LenY=  1073693687
 Fock matrices will be formed incrementally for  20 cycles.

 Cycle   1  Pass 1  IDiag  1:
 FoFJK:  IHMeth= 1 ICntrl=     0 DoSepK=T KAlg= 1 I1Cent= 0 FoldK=F
 FoFCou: FMM=F IPFlag=           0 FMFlag=      100000 FMFlg1=           0
         NFxFlg=           0 DoJE=T BraDBF=F KetDBF=F FulRan=T
         Omega=  0.000000  0.000000  1.000000  0.000000  0.000000 ICntrl=     500 IOpCl=  0
         NMat0=    1 NMatS0=    1 NMatT0=    0 NMatD0=    1 NMtDS0=    0 NMtDT0=    0
         I1Cent=           0 NGrid=           0.
 Symmetry not used in FoFCou.
 E= -2753.47775989058    
 DIIS: error= 9.97D-14 at cycle   1 NSaved=   1.
 NSaved= 1 IEnMin= 1 EnMin= -2753.47775989058     IErMin= 1 ErrMin= 9.97D-14
 ErrMax= 9.97D-14 EMaxC= 1.00D-01 BMatC= 2.19D-25 BMatP= 2.19D-25
 IDIUse=1 WtCom= 1.00D+00 WtEn= 0.00D+00
 Coeff-Com:  0.100D+01
 Coeff:      0.100D+01
 Gap=     0.626 Goal=   None    Shift=    0.000
 RMSDP=6.19D-15 MaxDP=1.39D-13              OVMax= 4.14D-14

 SCF Done:  E(RLC-wPBE) =  -2753.47775989     A.U. after    1 cycles
             Convg  =    0.6191D-14             -V/T =  2.0014
 KE= 2.749561508178D+03 PE=-6.579099712888D+03 EE= 1.076060444820D+03
 Leave Link  502 at Fri May  8 05:33:44 2020, MaxMem= 1073741824 cpu:      11.1
 (Enter /home/matheus/.gaussian/g09/l122.exe)
 Restoring MOs from calculation   1 to rwf.
 Counterpoise: corrected energy =   -2905.006617748456
 Counterpoise: BSSE energy =       0.000024295272
 Leave Link  122 at Fri May  8 05:33:44 2020, MaxMem= 1073741824 cpu:       0.0
 (Enter /home/matheus/.gaussian/g09/l108.exe)
 Scan completed.

 Summary of the potential surface scan:
   N      R1          SCF    
 ----  ---------  -----------
    1     3.0000  -2753.47776
    2     3.1000  -2753.47776
    3     3.2000  -2753.47776
    4     3.3000  -2753.47776
    5     3.4000  -2753.47776
    6     3.5000  -2753.47776
    7     3.6000  -2753.47776
    8     3.7000  -2753.47776
    9     3.8000  -2753.47776
   10     3.9000  -2753.47776
   11     4.0000  -2753.47776
   12     4.1000  -2753.47776
   13     4.2000  -2753.47776
   14     4.3000  -2753.47776
   15     4.4000  -2753.47776
   16     4.5000  -2753.47776
   17     4.6000  -2753.47776
   18     4.7000  -2753.47776
   19     4.8000  -2753.47776
   20     4.9000  -2753.47776
   21     5.0000  -2753.47776
 ----  ---------  -----------
  
 Leave Link  108 at Fri May  8 05:33:44 2020, MaxMem= 1073741824 cpu:       0.0
 (Enter /home/matheus/.gaussian/g09/l9999.exe)

 Test job not archived.
 1\1\GINC-REDGIANT\Scan\RLC-wPBE\Aug-CC-pVTZ\H2Kr1O2\MATHEUS\08-May-202
 0\1\\#p lc-wpbe/aug-cc-PVTz iop(3/107=0550000000) iop(3/108=0550000000
 ) int=ultrafine counterpoise=2 Scan\\TCC\\0,1\O,0,0.,0.,0.725\O,0,0.,0
 .,-0.725\H,0,-0.5905422151,0.7037808064,1.0235104166\H,0,0.,0.91872059
 47,-1.0235104166\Kr,0,0.,R1,0.\\R1=3.,s,20,0.1\\Version=EM64L-G09RevC.
 01\State=1-A\HF=-2753.4777599,-2753.4777599,-2753.4777599,-2753.477759
 9,-2753.4777599,-2753.4777599,-2753.4777599,-2753.4777599,-2753.477759
 9,-2753.4777599,-2753.4777599,-2753.4777599,-2753.4777599,-2753.477759
 9,-2753.4777599,-2753.4777599,-2753.4777599,-2753.4777599,-2753.477759
 9,-2753.4777599,-2753.4777599\RMSD=1.997e-09,5.419e-11,1.020e-11,4.441
 e-12,2.191e-12,1.229e-12,6.730e-13,3.808e-13,2.202e-13,1.237e-13,7.082
 e-14,4.653e-14,2.899e-14,1.622e-14,9.251e-15,8.779e-15,8.303e-15,6.763
 e-15,6.517e-15,5.971e-15,6.191e-15\PG=C01 [X(H2Kr1O2)]\\@


 IT IS A SIMPLE TASK TO MAKE THINGS COMPLEX,
 BUT A COMPLEX TASK TO MAKE THEM SIMPLE.
 Job cpu time:  0 days  2 hours 58 minutes 35.6 seconds.
 File lengths (MBytes):  RWF=     33 Int=      0 D2E=      0 Chk=      8 Scr=      1
 Normal termination of Gaussian 09 at Fri May  8 05:33:44 2020.
