 Entering Gaussian System, Link 0=g09
 Input=/home/matheus/.tcc/Inputs-lc-wpbe/H2O2-Kr_30.com
 Output=/home/matheus/.tcc/Logs-lc-wpbe/H2O2-Kr_30.log
 Initial command:
 /home/matheus/.gaussian/g09/l1.exe /home/matheus/.gaussian/g09/scratch/Gau-23641.inp -scrdir=/home/matheus/.gaussian/g09/scratch/
 Entering Link 1 = /home/matheus/.gaussian/g09/l1.exe PID=     23644.
  
 Copyright (c) 1988,1990,1992,1993,1995,1998,2003,2009,2011,
            Gaussian, Inc.  All Rights Reserved.
  
 This is part of the Gaussian(R) 09 program.  It is based on
 the Gaussian(R) 03 system (copyright 2003, Gaussian, Inc.),
 the Gaussian(R) 98 system (copyright 1998, Gaussian, Inc.),
 the Gaussian(R) 94 system (copyright 1995, Gaussian, Inc.),
 the Gaussian 92(TM) system (copyright 1992, Gaussian, Inc.),
 the Gaussian 90(TM) system (copyright 1990, Gaussian, Inc.),
 the Gaussian 88(TM) system (copyright 1988, Gaussian, Inc.),
 the Gaussian 86(TM) system (copyright 1986, Carnegie Mellon
 University), and the Gaussian 82(TM) system (copyright 1983,
 Carnegie Mellon University). Gaussian is a federally registered
 trademark of Gaussian, Inc.
  
 This software contains proprietary and confidential information,
 including trade secrets, belonging to Gaussian, Inc.
  
 This software is provided under written license and may be
 used, copied, transmitted, or stored only in accord with that
 written license.
  
 The following legend is applicable only to US Government
 contracts under FAR:
  
                    RESTRICTED RIGHTS LEGEND
  
 Use, reproduction and disclosure by the US Government is
 subject to restrictions as set forth in subparagraphs (a)
 and (c) of the Commercial Computer Software - Restricted
 Rights clause in FAR 52.227-19.
  
 Gaussian, Inc.
 340 Quinnipiac St., Bldg. 40, Wallingford CT 06492
  
  
 ---------------------------------------------------------------
 Warning -- This program may not be used in any manner that
 competes with the business of Gaussian, Inc. or will provide
 assistance to any competitor of Gaussian, Inc.  The licensee
 of this program is prohibited from giving any competitor of
 Gaussian, Inc. access to this program.  By using this program,
 the user acknowledges that Gaussian, Inc. is engaged in the
 business of creating and licensing software in the field of
 computational chemistry and represents and warrants to the
 licensee that it is not a competitor of Gaussian, Inc. and that
 it will not use this program in any manner prohibited above.
 ---------------------------------------------------------------
  

 Cite this work as:
 Gaussian 09, Revision C.01,
 M. J. Frisch, G. W. Trucks, H. B. Schlegel, G. E. Scuseria, 
 M. A. Robb, J. R. Cheeseman, G. Scalmani, V. Barone, B. Mennucci, 
 G. A. Petersson, H. Nakatsuji, M. Caricato, X. Li, H. P. Hratchian, 
 A. F. Izmaylov, J. Bloino, G. Zheng, J. L. Sonnenberg, M. Hada, 
 M. Ehara, K. Toyota, R. Fukuda, J. Hasegawa, M. Ishida, T. Nakajima, 
 Y. Honda, O. Kitao, H. Nakai, T. Vreven, J. A. Montgomery, Jr., 
 J. E. Peralta, F. Ogliaro, M. Bearpark, J. J. Heyd, E. Brothers, 
 K. N. Kudin, V. N. Staroverov, T. Keith, R. Kobayashi, J. Normand, 
 K. Raghavachari, A. Rendell, J. C. Burant, S. S. Iyengar, J. Tomasi, 
 M. Cossi, N. Rega, J. M. Millam, M. Klene, J. E. Knox, J. B. Cross, 
 V. Bakken, C. Adamo, J. Jaramillo, R. Gomperts, R. E. Stratmann, 
 O. Yazyev, A. J. Austin, R. Cammi, C. Pomelli, J. W. Ochterski, 
 R. L. Martin, K. Morokuma, V. G. Zakrzewski, G. A. Voth, 
 P. Salvador, J. J. Dannenberg, S. Dapprich, A. D. Daniels, 
 O. Farkas, J. B. Foresman, J. V. Ortiz, J. Cioslowski, 
 and D. J. Fox, Gaussian, Inc., Wallingford CT, 2010.
 
 ******************************************
 Gaussian 09:  EM64L-G09RevC.01 23-Sep-2011
                 8-May-2020 
 ******************************************
 %mem=8GB
 %nproc=8
 Will use up to    8 processors via shared memory.
 ----------------------------------------------------------------------
 #p lc-wpbe/aug-cc-PVTz iop(3/107=0550000000) iop(3/108=0550000000) int
 =ultrafine counterpoise=2 Scan
 ----------------------------------------------------------------------
 1/38=1,60=1,62=2/1,8;
 2/12=2,17=6,18=5,29=3,40=1/2;
 1/38=1,53=5172,62=2/22;
 3/5=16,6=1,7=10,11=2,16=1,25=1,30=1,74=-41,75=-5,107=550000000,108=550000000/1,2,3;
 4//1;
 5/5=2,38=5/2;
 6/7=2,8=2,9=2,10=2,18=1,28=1/1;
 1/53=4052,62=2,63=1/22;
 3/5=7,6=11,7=10,11=2,16=1,25=1,30=1,74=-41,75=-5,82=7,107=550000000,108=550000000/1,2,3;
 4//1;
 5/5=2,38=5/2;
 6/7=2,8=2,9=2,10=2,18=1,28=1/1;
 1/53=3042,62=2,63=2/22;
 3/5=7,6=11,7=10,11=2,16=1,25=1,30=1,74=-41,75=-5,82=7,107=550000000,108=550000000/1,2,3;
 4//1;
 5/5=2,38=5/2;
 6/7=2,8=2,9=2,10=2,18=1,28=1/1;
 1/53=2032,62=2,63=3/22;
 3/5=7,6=11,7=10,11=2,16=1,25=1,30=1,74=-41,75=-5,82=7,107=550000000,108=550000000/1,2,3;
 4//1;
 5/5=2,38=5/2;
 6/7=2,8=2,9=2,10=2,18=1,28=1/1;
 1/53=1022,62=2,63=4/22;
 3/5=7,6=11,7=10,11=2,16=1,25=1,30=1,74=-41,75=-5,82=7,107=550000000,108=550000000/1,2,3;
 4//1;
 5/5=2,38=5/2;
 6/7=2,8=2,9=2,10=2,18=1,28=1/1;
 1/53=5014,62=2,63=5/22;
 1/60=1,62=2/8(1);
 99/9=1/99;
 2/29=3/2;
 1/53=5173,62=2/22;
 3/5=7,6=11,7=10,11=2,16=1,25=1,30=1,74=-41,75=-5,82=7,107=550000000,108=550000000/1,2,3;
 4/5=5,16=3/1;
 5/5=2,38=5/2;
 1/53=4053,62=2,63=1/22;
 3/5=7,6=11,7=10,11=2,16=1,25=1,30=1,74=-41,75=-5,82=7,107=550000000,108=550000000/1,2,3;
 4/5=5,16=3/1;
 5/5=2,38=5/2;
 1/53=3043,62=2,63=2/22;
 3/5=7,6=11,7=10,11=2,16=1,25=1,30=1,74=-41,75=-5,82=7,107=550000000,108=550000000/1,2,3;
 4/5=5,16=3/1;
 5/5=2,38=5/2;
 1/53=2033,62=2,63=3/22;
 3/5=7,6=11,7=10,11=2,16=1,25=1,30=1,74=-41,75=-5,82=7,107=550000000,108=550000000/1,2,3;
 4/5=5,16=3/1;
 5/5=2,38=5/2;
 1/53=1024,62=2,63=4/22;
 3/5=7,6=11,7=10,11=2,16=1,25=1,30=1,74=-41,75=-5,82=7,107=550000000,108=550000000/1,2,3;
 4/5=5,16=3/1;
 5/5=2,38=5/2;
 1/53=5014,62=2,63=5/22;
 1/60=1,62=2/8(-22);
 99/9=1/99;
 Leave Link    1 at Fri May  8 04:25:44 2020, MaxMem= 1073741824 cpu:       0.1
 (Enter /home/matheus/.gaussian/g09/l101.exe)
 ---
 TCC
 ---
 Charge =  0 Multiplicity = 1 in supermolecule
 Charge =  0 Multiplicity = 1 in fragment  1.
 Charge =  0 Multiplicity = 1 in fragment  2.
 Symbolic Z-Matrix:
 O(Fragment=1)         0.        0.        0.725 
 O(Fragment=1)         0.        0.       -0.725 
 H(Fragment=1)        -0.79564   0.45936   1.02351 
 H(Fragment=1)         0.        0.91872  -1.02351 
 Kr(Fragment=2)        0.       R1        0. 
       Variables:
  R1                    3.     Scan 20    0.1    
 
 NAtoms=      5 NQM=        0 NQMF=       0 NMMI=      5 NMMIF=      0
                NMic=       0 NMicF=      0.
                    Isotopes and Nuclear Properties:
 (Nuclear quadrupole moments (NQMom) in fm**2, nuclear magnetic moments (NMagM)
  in nuclear magnetons)

  Atom         1           2           3           4           5
 IAtWgt=          16          16           1           1          84
 AtmWgt=  15.9949146  15.9949146   1.0078250   1.0078250  83.9115064
 NucSpn=           0           0           1           1           0
 AtZEff=   0.0000000   0.0000000   0.0000000   0.0000000   0.0000000
 NQMom=    0.0000000   0.0000000   0.0000000   0.0000000   0.0000000
 NMagM=    0.0000000   0.0000000   2.7928460   2.7928460   0.0000000
 Leave Link  101 at Fri May  8 04:25:44 2020, MaxMem= 1073741824 cpu:       0.3
 (Enter /home/matheus/.gaussian/g09/l108.exe)
 Scan the potential surface.
 Variable   Value     No. Steps Step-Size
 -------- ----------- --------- ---------
     1       3.000000      20      0.1000
 A total of     21 points will be computed.
 Leave Link  108 at Fri May  8 04:25:44 2020, MaxMem= 1073741824 cpu:       0.0
 (Enter /home/matheus/.gaussian/g09/l202.exe)
 ---------------------------------------------------------------------------------------------------
                            Z-MATRIX (ANGSTROMS AND DEGREES)
   CD    Cent   Atom    N1       Length/X        N2       Alpha/Y        N3        Beta/Z          J
 ---------------------------------------------------------------------------------------------------
      1      1  O        0   0.000000          0.000000          0.725000
      2      2  O        0   0.000000          0.000000         -0.725000
      3      3  H        0  -0.795635          0.459360          1.023510
      4      4  H        0   0.000000          0.918721         -1.023510
      5      5  Kr       0   0.000000          3.000000          0.000000
 ---------------------------------------------------------------------------------------------------
                         Z-Matrix orientation:                         
 ---------------------------------------------------------------------
 Center     Atomic      Atomic             Coordinates (Angstroms)
 Number     Number       Type             X           Y           Z
 ---------------------------------------------------------------------
      1          8           0        0.000000    0.000000    0.725000
      2          8           0        0.000000    0.000000   -0.725000
      3          1           0       -0.795635    0.459360    1.023510
      4          1           0        0.000000    0.918721   -1.023510
      5         36           0        0.000000    3.000000    0.000000
 ---------------------------------------------------------------------
                    Distance matrix (angstroms):
                    1          2          3          4          5
     1  O    0.000000
     2  O    1.450000   0.000000
     3  H    0.966000   1.975180   0.000000
     4  H    1.975180   0.966000   2.243734   0.000000
     5  Kr   3.086361   3.086361   2.852273   2.319331   0.000000
 Stoichiometry    H2KrO2
 Framework group  C1[X(H2KrO2)]
 Deg. of freedom     9
 Full point group                 C1      NOp   1
 Largest Abelian subgroup         C1      NOp   1
 Largest concise Abelian subgroup C1      NOp   1
                         Standard orientation:                         
 ---------------------------------------------------------------------
 Center     Atomic      Atomic             Coordinates (Angstroms)
 Number     Number       Type             X           Y           Z
 ---------------------------------------------------------------------
      1          8           0       -2.028906   -0.709015   -0.097019
      2          8           0       -2.021423    0.736213    0.020285
      3          1           0       -1.580792   -1.073669    0.677176
      4          1           0       -1.101242    1.028113    0.055175
      5         36           0        0.974574   -0.004779   -0.003291
 ---------------------------------------------------------------------
 Rotational constants (GHZ):     25.8520084      2.3670759      2.1795084
 Leave Link  202 at Fri May  8 04:25:44 2020, MaxMem= 1073741824 cpu:       0.0
 (Enter /home/matheus/.gaussian/g09/l122.exe)
 Leave Link  122 at Fri May  8 04:25:44 2020, MaxMem= 1073741824 cpu:       0.0
 (Enter /home/matheus/.gaussian/g09/l301.exe)
 Standard basis: Aug-CC-pVTZ (5D, 7F)
 Ernie: Thresh=  0.10000D-02 Tol=  0.10000D-05 Strict=F.
 Ernie:  38 primitive shells out of 205 were deleted.
 There are   197 symmetry adapted basis functions of A   symmetry.
 Integral buffers will be    131072 words long.
 Raffenetti 2 integral format.
 Two-electron integral symmetry is turned on.
   197 basis functions,   415 primitive gaussians,   229 cartesian basis functions
    27 alpha electrons       27 beta electrons
       nuclear repulsion energy       150.2958872335 Hartrees.
 IExCor=32609 DFT=T Ex+Corr=LC-wPBE ExCW=0 ScaHFX=  1.000000
 ScaDFX=  1.000000  0.000000  1.000000  1.000000 ScalE2=  1.000000  1.000000
 IRadAn=      5 IRanWt=     -1 IRanGd=            0 ICorTp=0
  HFx wShort=  0.000000 wLong=  0.550000 cFull=  0.000000 cShort=  0.000000 cLong=  1.000000
  DFx wShort=  0.000000 wLong=  0.550000 cFull=  0.000000 cShort=  0.000000 cLong=  1.000000
 NAtoms=    5 NActive=    5 NUniq=    5 SFac= 1.00D+00 NAtFMM=   60 NAOKFM=F Big=F
 Leave Link  301 at Fri May  8 04:25:44 2020, MaxMem= 1073741824 cpu:       0.2
 (Enter /home/matheus/.gaussian/g09/l302.exe)
 NPDir=0 NMtPBC=     1 NCelOv=     1 NCel=       1 NClECP=     1 NCelD=      1
         NCelK=      1 NCelE2=     1 NClLst=     1 CellRange=     0.0.
 One-electron integrals computed using PRISM.
 NBasis=   197 RedAO= T  NBF=   197
 NBsUse=   197 1.00D-06 NBFU=   197
 Precomputing XC quadrature grid using
 IXCGrd= 2 IRadAn=           5 IRanWt=          -1 IRanGd=           0 AccXCQ= 0.00D+00.
 NRdTot=     427 NPtTot=      123512 NUsed=      126579 NTot=      126611
 NSgBfM=   229   229   229   229   229 NAtAll=     5     5.
 Leave Link  302 at Fri May  8 04:25:44 2020, MaxMem= 1073741824 cpu:       1.0
 (Enter /home/matheus/.gaussian/g09/l303.exe)
 DipDrv:  MaxL=1.
 Leave Link  303 at Fri May  8 04:25:44 2020, MaxMem= 1073741824 cpu:       0.2
 (Enter /home/matheus/.gaussian/g09/l401.exe)
 Harris functional with IExCor=32609 diagonalized for initial guess.
 ExpMin= 2.53D-02 ExpMax= 1.17D+07 ExpMxC= 1.33D+04 IAcc=3 IRadAn=         5 AccDes= 0.00D+00
 HarFok:  IExCor=32609 AccDes= 0.00D+00 IRadAn=         5 IDoV= 1
 ScaDFX=  1.000000  1.000000  1.000000  1.000000
 FoFCou: FMM=F IPFlag=           0 FMFlag=      100000 FMFlg1=           0
         NFxFlg=           0 DoJE=T BraDBF=F KetDBF=T FulRan=T
         Omega=  0.000000  0.000000  1.000000  0.000000  0.000000 ICntrl=     500 IOpCl=  0
         NMat0=    1 NMatS0=    1 NMatT0=    0 NMatD0=    1 NMtDS0=    0 NMtDT0=    0
         I1Cent=           4 NGrid=           0.
 Petite list used in FoFCou.
 Harris En= -2904.73707885165    
 Initial guess orbital symmetries:
       Occupied  (A) (A) (A) (A) (A) (A) (A) (A) (A) (A) (A) (A)
                 (A) (A) (A) (A) (A) (A) (A) (A) (A) (A) (A) (A)
                 (A) (A) (A)
       Virtual   (A) (A) (A) (A) (A) (A) (A) (A) (A) (A) (A) (A)
                 (A) (A) (A) (A) (A) (A) (A) (A) (A) (A) (A) (A)
                 (A) (A) (A) (A) (A) (A) (A) (A) (A) (A) (A) (A)
                 (A) (A) (A) (A) (A) (A) (A) (A) (A) (A) (A) (A)
                 (A) (A) (A) (A) (A) (A) (A) (A) (A) (A) (A) (A)
                 (A) (A) (A) (A) (A) (A) (A) (A) (A) (A) (A) (A)
                 (A) (A) (A) (A) (A) (A) (A) (A) (A) (A) (A) (A)
                 (A) (A) (A) (A) (A) (A) (A) (A) (A) (A) (A) (A)
                 (A) (A) (A) (A) (A) (A) (A) (A) (A) (A) (A) (A)
                 (A) (A) (A) (A) (A) (A) (A) (A) (A) (A) (A) (A)
                 (A) (A) (A) (A) (A) (A) (A) (A) (A) (A) (A) (A)
                 (A) (A) (A) (A) (A) (A) (A) (A) (A) (A) (A) (A)
                 (A) (A) (A) (A) (A) (A) (A) (A) (A) (A) (A) (A)
                 (A) (A) (A) (A) (A) (A) (A) (A) (A) (A) (A) (A)
                 (A) (A)
 The electronic state of the initial guess is 1-A.
 Leave Link  401 at Fri May  8 04:25:45 2020, MaxMem= 1073741824 cpu:       4.1
 (Enter /home/matheus/.gaussian/g09/l502.exe)
 Closed shell SCF:
 Requested convergence on RMS density matrix=1.00D-08 within 128 cycles.
 Requested convergence on MAX density matrix=1.00D-06.
 Requested convergence on             energy=1.00D-06.
 No special actions if energy rises.
 Using DIIS extrapolation, IDIIS=  1040.
 Integral symmetry usage will be decided dynamically.
       126521 words used for storage of precomputed grid.
 IEnd=      305468 IEndB=      305468 NGot=  1073741824 MDV=  1073505667
 LenX=  1073505667 LenY=  1073452785
 Fock matrices will be formed incrementally for  20 cycles.

 Cycle   1  Pass 1  IDiag  1:
 FoFJK:  IHMeth= 1 ICntrl=     0 DoSepK=T KAlg= 1 I1Cent= 0 FoldK=F
 FoFCou: FMM=F IPFlag=           0 FMFlag=      100000 FMFlg1=           0
         NFxFlg=           0 DoJE=T BraDBF=F KetDBF=F FulRan=T
         Omega=  0.000000  0.000000  1.000000  0.000000  0.000000 ICntrl=     500 IOpCl=  0
         NMat0=    1 NMatS0=    1 NMatT0=    0 NMatD0=    1 NMtDS0=    0 NMtDT0=    0
         I1Cent=           0 NGrid=           0.
 Symmetry not used in FoFCou.
 E= -2904.92922449922    
 DIIS: error= 2.73D-02 at cycle   1 NSaved=   1.
 NSaved= 1 IEnMin= 1 EnMin= -2904.92922449922     IErMin= 1 ErrMin= 2.73D-02
 ErrMax= 2.73D-02 EMaxC= 1.00D-01 BMatC= 2.69D-01 BMatP= 2.69D-01
 IDIUse=3 WtCom= 7.27D-01 WtEn= 2.73D-01
 Coeff-Com:  0.100D+01
 Coeff-En:   0.100D+01
 Coeff:      0.100D+01
 Gap=     0.560 Goal=   None    Shift=    0.000
 GapD=    0.560 DampG=2.000 DampE=0.500 DampFc=1.0000 IDamp=-1.
 RMSDP=2.23D-03 MaxDP=1.44D-01              OVMax= 5.95D-02

 Cycle   2  Pass 1  IDiag  1:
 RMSU=  1.55D-03    CP:  1.02D+00
 FoFJK:  IHMeth= 1 ICntrl=     0 DoSepK=T KAlg= 1 I1Cent= 0 FoldK=F
 E= -2904.97976823654     Delta-E=       -0.050543737323 Rises=F Damp=F
 DIIS: error= 1.04D-02 at cycle   2 NSaved=   2.
 NSaved= 2 IEnMin= 2 EnMin= -2904.97976823654     IErMin= 2 ErrMin= 1.04D-02
 ErrMax= 1.04D-02 EMaxC= 1.00D-01 BMatC= 6.91D-02 BMatP= 2.69D-01
 IDIUse=3 WtCom= 8.96D-01 WtEn= 1.04D-01
 Coeff-Com:  0.329D+00 0.671D+00
 Coeff-En:   0.100D+00 0.900D+00
 Coeff:      0.305D+00 0.695D+00
 Gap=     0.485 Goal=   None    Shift=    0.000
 RMSDP=8.95D-04 MaxDP=5.03D-02 DE=-5.05D-02 OVMax= 2.74D-02

 Cycle   3  Pass 1  IDiag  1:
 RMSU=  3.09D-04    CP:  1.01D+00  6.54D-01
 FoFJK:  IHMeth= 1 ICntrl=     0 DoSepK=T KAlg= 1 I1Cent= 0 FoldK=F
 E= -2905.00360759397     Delta-E=       -0.023839357425 Rises=F Damp=F
 DIIS: error= 1.72D-03 at cycle   3 NSaved=   3.
 NSaved= 3 IEnMin= 3 EnMin= -2905.00360759397     IErMin= 3 ErrMin= 1.72D-03
 ErrMax= 1.72D-03 EMaxC= 1.00D-01 BMatC= 1.38D-03 BMatP= 6.91D-02
 IDIUse=3 WtCom= 9.83D-01 WtEn= 1.72D-02
 Coeff-Com:  0.423D-01 0.170D+00 0.788D+00
 Coeff-En:   0.000D+00 0.000D+00 0.100D+01
 Coeff:      0.416D-01 0.167D+00 0.792D+00
 Gap=     0.468 Goal=   None    Shift=    0.000
 RMSDP=1.00D-04 MaxDP=2.69D-03 DE=-2.38D-02 OVMax= 6.00D-03

 Cycle   4  Pass 1  IDiag  1:
 RMSU=  5.07D-05    CP:  1.01D+00  6.83D-01  9.34D-01
 FoFJK:  IHMeth= 1 ICntrl=     0 DoSepK=T KAlg= 1 I1Cent= 0 FoldK=F
 E= -2905.00430929444     Delta-E=       -0.000701700466 Rises=F Damp=F
 DIIS: error= 3.79D-04 at cycle   4 NSaved=   4.
 NSaved= 4 IEnMin= 4 EnMin= -2905.00430929444     IErMin= 4 ErrMin= 3.79D-04
 ErrMax= 3.79D-04 EMaxC= 1.00D-01 BMatC= 8.92D-05 BMatP= 1.38D-03
 IDIUse=3 WtCom= 9.96D-01 WtEn= 3.79D-03
 Coeff-Com: -0.612D-02 0.174D-01 0.266D+00 0.723D+00
 Coeff-En:   0.000D+00 0.000D+00 0.000D+00 0.100D+01
 Coeff:     -0.610D-02 0.174D-01 0.265D+00 0.724D+00
 Gap=     0.473 Goal=   None    Shift=    0.000
 RMSDP=3.21D-05 MaxDP=1.76D-03 DE=-7.02D-04 OVMax= 1.75D-03

 Cycle   5  Pass 1  IDiag  1:
 RMSU=  1.25D-05    CP:  1.01D+00  6.86D-01  9.88D-01  8.57D-01
 FoFJK:  IHMeth= 1 ICntrl=     0 DoSepK=T KAlg= 1 I1Cent= 0 FoldK=F
 E= -2905.00436336924     Delta-E=       -0.000054074807 Rises=F Damp=F
 DIIS: error= 7.38D-05 at cycle   5 NSaved=   5.
 NSaved= 5 IEnMin= 5 EnMin= -2905.00436336924     IErMin= 5 ErrMin= 7.38D-05
 ErrMax= 7.38D-05 EMaxC= 1.00D-01 BMatC= 2.32D-06 BMatP= 8.92D-05
 IDIUse=1 WtCom= 1.00D+00 WtEn= 0.00D+00
 Coeff-Com: -0.237D-02-0.496D-02-0.114D-02 0.106D+00 0.903D+00
 Coeff:     -0.237D-02-0.496D-02-0.114D-02 0.106D+00 0.903D+00
 Gap=     0.473 Goal=   None    Shift=    0.000
 RMSDP=6.88D-06 MaxDP=2.28D-04 DE=-5.41D-05 OVMax= 5.48D-04

 Cycle   6  Pass 1  IDiag  1:
 RMSU=  3.49D-06    CP:  1.01D+00  6.86D-01  9.92D-01  9.13D-01  1.11D+00
 FoFJK:  IHMeth= 1 ICntrl=     0 DoSepK=T KAlg= 1 I1Cent= 0 FoldK=F
 E= -2905.00436548563     Delta-E=       -0.000002116387 Rises=F Damp=F
 DIIS: error= 4.16D-05 at cycle   6 NSaved=   6.
 NSaved= 6 IEnMin= 6 EnMin= -2905.00436548563     IErMin= 6 ErrMin= 4.16D-05
 ErrMax= 4.16D-05 EMaxC= 1.00D-01 BMatC= 7.06D-07 BMatP= 2.32D-06
 IDIUse=1 WtCom= 1.00D+00 WtEn= 0.00D+00
 Coeff-Com: -0.392D-03-0.403D-02-0.283D-01-0.265D-01 0.378D+00 0.682D+00
 Coeff:     -0.392D-03-0.403D-02-0.283D-01-0.265D-01 0.378D+00 0.682D+00
 Gap=     0.472 Goal=   None    Shift=    0.000
 RMSDP=3.07D-06 MaxDP=1.32D-04 DE=-2.12D-06 OVMax= 2.05D-04

 Cycle   7  Pass 1  IDiag  1:
 RMSU=  1.47D-06    CP:  1.01D+00  6.86D-01  9.94D-01  9.28D-01  1.20D+00
                    CP:  8.60D-01
 FoFJK:  IHMeth= 1 ICntrl=     0 DoSepK=T KAlg= 1 I1Cent= 0 FoldK=F
 E= -2905.00436605356     Delta-E=       -0.000000567934 Rises=F Damp=F
 DIIS: error= 1.20D-05 at cycle   7 NSaved=   7.
 NSaved= 7 IEnMin= 7 EnMin= -2905.00436605356     IErMin= 7 ErrMin= 1.20D-05
 ErrMax= 1.20D-05 EMaxC= 1.00D-01 BMatC= 6.98D-08 BMatP= 7.06D-07
 IDIUse=1 WtCom= 1.00D+00 WtEn= 0.00D+00
 Coeff-Com:  0.123D-03-0.758D-03-0.889D-02-0.206D-01 0.869D-04 0.241D+00
 Coeff-Com:  0.789D+00
 Coeff:      0.123D-03-0.758D-03-0.889D-02-0.206D-01 0.869D-04 0.241D+00
 Coeff:      0.789D+00
 Gap=     0.472 Goal=   None    Shift=    0.000
 RMSDP=1.21D-06 MaxDP=6.02D-05 DE=-5.68D-07 OVMax= 8.54D-05

 Cycle   8  Pass 1  IDiag  1:
 RMSU=  4.90D-07    CP:  1.01D+00  6.86D-01  9.95D-01  9.33D-01  1.23D+00
                    CP:  9.79D-01  9.84D-01
 FoFJK:  IHMeth= 1 ICntrl=     0 DoSepK=T KAlg= 1 I1Cent= 0 FoldK=F
 E= -2905.00436612737     Delta-E=       -0.000000073803 Rises=F Damp=F
 DIIS: error= 3.55D-06 at cycle   8 NSaved=   8.
 NSaved= 8 IEnMin= 8 EnMin= -2905.00436612737     IErMin= 8 ErrMin= 3.55D-06
 ErrMax= 3.55D-06 EMaxC= 1.00D-01 BMatC= 2.36D-09 BMatP= 6.98D-08
 IDIUse=1 WtCom= 1.00D+00 WtEn= 0.00D+00
 Coeff-Com:  0.116D-04 0.478D-03 0.400D-02 0.606D-02-0.294D-01-0.105D+00
 Coeff-Com: -0.171D+00 0.130D+01
 Coeff:      0.116D-04 0.478D-03 0.400D-02 0.606D-02-0.294D-01-0.105D+00
 Coeff:     -0.171D+00 0.130D+01
 Gap=     0.472 Goal=   None    Shift=    0.000
 RMSDP=5.92D-07 MaxDP=1.93D-05 DE=-7.38D-08 OVMax= 5.48D-05

 Cycle   9  Pass 1  IDiag  1:
 RMSU=  1.18D-07    CP:  1.01D+00  6.86D-01  9.96D-01  9.35D-01  1.25D+00
                    CP:  9.95D-01  1.09D+00  1.59D+00
 FoFJK:  IHMeth= 1 ICntrl=     0 DoSepK=T KAlg= 1 I1Cent= 0 FoldK=F
 E= -2905.00436612391     Delta-E=        0.000000003460 Rises=F Damp=F
 DIIS: error= 1.15D-06 at cycle   9 NSaved=   9.
 NSaved= 9 IEnMin= 8 EnMin= -2905.00436612737     IErMin= 9 ErrMin= 1.15D-06
 ErrMax= 1.15D-06 EMaxC= 1.00D-01 BMatC= 1.29D-10 BMatP= 2.36D-09
 IDIUse=1 WtCom= 1.00D+00 WtEn= 0.00D+00
 Coeff-Com: -0.898D-05-0.373D-04-0.178D-03 0.122D-04 0.476D-02 0.526D-02
 Coeff-Com: -0.129D-01-0.207D+00 0.121D+01
 Coeff:     -0.898D-05-0.373D-04-0.178D-03 0.122D-04 0.476D-02 0.526D-02
 Coeff:     -0.129D-01-0.207D+00 0.121D+01
 Gap=     0.472 Goal=   None    Shift=    0.000
 RMSDP=1.65D-07 MaxDP=6.79D-06 DE= 3.46D-09 OVMax= 1.73D-05

 Cycle  10  Pass 1  IDiag  1:
 RMSU=  3.59D-08    CP:  1.01D+00  6.86D-01  9.96D-01  9.35D-01  1.25D+00
                    CP:  9.93D-01  1.09D+00  1.75D+00  1.40D+00
 FoFJK:  IHMeth= 1 ICntrl=     0 DoSepK=T KAlg= 1 I1Cent= 0 FoldK=F
 E= -2905.00436612444     Delta-E=       -0.000000000530 Rises=F Damp=F
 DIIS: error= 3.60D-07 at cycle  10 NSaved=  10.
 NSaved=10 IEnMin= 8 EnMin= -2905.00436612737     IErMin=10 ErrMin= 3.60D-07
 ErrMax= 3.60D-07 EMaxC= 1.00D-01 BMatC= 1.57D-11 BMatP= 1.29D-10
 IDIUse=1 WtCom= 1.00D+00 WtEn= 0.00D+00
 Coeff-Com: -0.772D-06-0.402D-04-0.334D-03-0.607D-03 0.246D-02 0.101D-01
 Coeff-Com:  0.170D-01-0.124D+00 0.454D-02 0.109D+01
 Coeff:     -0.772D-06-0.402D-04-0.334D-03-0.607D-03 0.246D-02 0.101D-01
 Coeff:      0.170D-01-0.124D+00 0.454D-02 0.109D+01
 Gap=     0.472 Goal=   None    Shift=    0.000
 RMSDP=4.98D-08 MaxDP=1.70D-06 DE=-5.30D-10 OVMax= 6.13D-06

 Cycle  11  Pass 1  IDiag  1:
 RMSU=  1.13D-08    CP:  1.01D+00  6.86D-01  9.96D-01  9.35D-01  1.25D+00
                    CP:  9.91D-01  1.09D+00  1.78D+00  1.55D+00  1.34D+00
 FoFJK:  IHMeth= 1 ICntrl=     0 DoSepK=T KAlg= 1 I1Cent= 0 FoldK=F
 E= -2905.00436612449     Delta-E=       -0.000000000053 Rises=F Damp=F
 DIIS: error= 7.30D-08 at cycle  11 NSaved=  11.
 NSaved=11 IEnMin= 8 EnMin= -2905.00436612737     IErMin=11 ErrMin= 7.30D-08
 ErrMax= 7.30D-08 EMaxC= 1.00D-01 BMatC= 1.52D-12 BMatP= 1.57D-11
 IDIUse=1 WtCom= 1.00D+00 WtEn= 0.00D+00
 Coeff-Com:  0.101D-05 0.900D-05 0.654D-04 0.565D-04-0.890D-03-0.145D-02
 Coeff-Com:  0.404D-03 0.334D-01-0.134D+00-0.122D+00 0.122D+01
 Coeff:      0.101D-05 0.900D-05 0.654D-04 0.565D-04-0.890D-03-0.145D-02
 Coeff:      0.404D-03 0.334D-01-0.134D+00-0.122D+00 0.122D+01
 Gap=     0.472 Goal=   None    Shift=    0.000
 RMSDP=1.56D-08 MaxDP=2.91D-07 DE=-5.32D-11 OVMax= 2.27D-06

 Cycle  12  Pass 1  IDiag  1:
 RMSU=  3.30D-09    CP:  1.01D+00  6.86D-01  9.96D-01  9.35D-01  1.25D+00
                    CP:  9.91D-01  1.09D+00  1.79D+00  1.58D+00  1.53D+00
                    CP:  1.42D+00
 FoFJK:  IHMeth= 1 ICntrl=     0 DoSepK=T KAlg= 1 I1Cent= 0 FoldK=F
 E= -2905.00436612450     Delta-E=       -0.000000000011 Rises=F Damp=F
 DIIS: error= 2.86D-08 at cycle  12 NSaved=  12.
 NSaved=12 IEnMin= 8 EnMin= -2905.00436612737     IErMin=12 ErrMin= 2.86D-08
 ErrMax= 2.86D-08 EMaxC= 1.00D-01 BMatC= 9.70D-14 BMatP= 1.52D-12
 IDIUse=1 WtCom= 1.00D+00 WtEn= 0.00D+00
 Coeff-Com: -0.430D-07 0.289D-05 0.251D-04 0.541D-04-0.205D-03-0.788D-03
 Coeff-Com: -0.124D-02 0.923D-02 0.754D-02-0.728D-01-0.627D-01 0.112D+01
 Coeff:     -0.430D-07 0.289D-05 0.251D-04 0.541D-04-0.205D-03-0.788D-03
 Coeff:     -0.124D-02 0.923D-02 0.754D-02-0.728D-01-0.627D-01 0.112D+01
 Gap=     0.472 Goal=   None    Shift=    0.000
 RMSDP=3.17D-09 MaxDP=9.87D-08 DE=-1.14D-11 OVMax= 3.68D-07

 SCF Done:  E(RLC-wPBE) =  -2905.00436612     A.U. after   12 cycles
             Convg  =    0.3167D-08             -V/T =  2.0017
 KE= 2.900046745904D+03 PE=-7.237124130685D+03 EE= 1.281777131422D+03
 Leave Link  502 at Fri May  8 04:26:21 2020, MaxMem= 1073741824 cpu:     289.3
 (Enter /home/matheus/.gaussian/g09/l601.exe)
 Copying SCF densities to generalized density rwf, IOpCl= 0 IROHF=0.

 **********************************************************************

            Population analysis using the SCF density.

 **********************************************************************

 Orbital symmetries:
       Occupied  (A) (A) (A) (A) (A) (A) (A) (A) (A) (A) (A) (A)
                 (A) (A) (A) (A) (A) (A) (A) (A) (A) (A) (A) (A)
                 (A) (A) (A)
       Virtual   (A) (A) (A) (A) (A) (A) (A) (A) (A) (A) (A) (A)
                 (A) (A) (A) (A) (A) (A) (A) (A) (A) (A) (A) (A)
                 (A) (A) (A) (A) (A) (A) (A) (A) (A) (A) (A) (A)
                 (A) (A) (A) (A) (A) (A) (A) (A) (A) (A) (A) (A)
                 (A) (A) (A) (A) (A) (A) (A) (A) (A) (A) (A) (A)
                 (A) (A) (A) (A) (A) (A) (A) (A) (A) (A) (A) (A)
                 (A) (A) (A) (A) (A) (A) (A) (A) (A) (A) (A) (A)
                 (A) (A) (A) (A) (A) (A) (A) (A) (A) (A) (A) (A)
                 (A) (A) (A) (A) (A) (A) (A) (A) (A) (A) (A) (A)
                 (A) (A) (A) (A) (A) (A) (A) (A) (A) (A) (A) (A)
                 (A) (A) (A) (A) (A) (A) (A) (A) (A) (A) (A) (A)
                 (A) (A) (A) (A) (A) (A) (A) (A) (A) (A) (A) (A)
                 (A) (A) (A) (A) (A) (A) (A) (A) (A) (A) (A) (A)
                 (A) (A) (A) (A) (A) (A) (A) (A) (A) (A) (A) (A)
                 (A) (A)
 The electronic state is 1-A.
 Alpha  occ. eigenvalues -- -511.21030 -66.75865 -60.41983 -60.41970 -60.41959
 Alpha  occ. eigenvalues --  -19.11338 -19.11044  -9.69434  -7.43721  -7.43683
 Alpha  occ. eigenvalues --   -7.43651  -3.38125  -3.38118  -3.38095  -3.38066
 Alpha  occ. eigenvalues --   -3.38063  -1.32295  -1.11555  -1.09418  -0.73667
 Alpha  occ. eigenvalues --   -0.62586  -0.59260  -0.55564  -0.55102  -0.54160
 Alpha  occ. eigenvalues --   -0.49309  -0.44007
 Alpha virt. eigenvalues --    0.03243   0.04306   0.08364   0.09346   0.11074
 Alpha virt. eigenvalues --    0.11627   0.13447   0.14513   0.17586   0.18143
 Alpha virt. eigenvalues --    0.18426   0.20393   0.20611   0.22408   0.24389
 Alpha virt. eigenvalues --    0.25048   0.26074   0.29212   0.31712   0.33017
 Alpha virt. eigenvalues --    0.34190   0.35836   0.38100   0.39676   0.40669
 Alpha virt. eigenvalues --    0.42062   0.43797   0.48546   0.54310   0.55985
 Alpha virt. eigenvalues --    0.57439   0.61262   0.62812   0.65555   0.69477
 Alpha virt. eigenvalues --    0.71384   0.73060   0.75303   0.77317   0.77685
 Alpha virt. eigenvalues --    0.78730   0.79327   0.81191   0.82130   0.85608
 Alpha virt. eigenvalues --    0.86549   0.88670   0.90360   0.91644   0.93132
 Alpha virt. eigenvalues --    0.93568   0.96927   0.97855   1.00246   1.00679
 Alpha virt. eigenvalues --    1.01526   1.05177   1.07905   1.09686   1.13053
 Alpha virt. eigenvalues --    1.13271   1.16423   1.19993   1.24485   1.27058
 Alpha virt. eigenvalues --    1.29685   1.36032   1.40210   1.41782   1.43626
 Alpha virt. eigenvalues --    1.45767   1.50399   1.52704   1.57222   1.61989
 Alpha virt. eigenvalues --    1.70772   1.72579   1.86754   1.94793   1.96486
 Alpha virt. eigenvalues --    2.04300   2.08336   2.10850   2.13796   2.17483
 Alpha virt. eigenvalues --    2.19789   2.21582   2.23476   2.25826   2.29735
 Alpha virt. eigenvalues --    2.31673   2.33608   2.34647   2.35776   2.37123
 Alpha virt. eigenvalues --    2.40762   2.42618   2.48731   2.52261   2.52864
 Alpha virt. eigenvalues --    2.53660   2.55377   2.57674   2.61087   2.62095
 Alpha virt. eigenvalues --    2.63290   2.65932   2.69997   2.73697   2.76166
 Alpha virt. eigenvalues --    2.77003   2.80202   2.85698   2.90259   2.93252
 Alpha virt. eigenvalues --    2.98691   3.05606   3.12967   3.16557   3.64984
 Alpha virt. eigenvalues --    3.73669   3.98683   4.00417   4.03718   4.09918
 Alpha virt. eigenvalues --    4.13411   4.16306   4.28479   4.29253   4.32254
 Alpha virt. eigenvalues --    4.43976   4.51287   4.58886   4.63964   4.75796
 Alpha virt. eigenvalues --    5.00332   5.03161   5.04729   5.14992   5.21566
 Alpha virt. eigenvalues --    5.22224   5.47819   5.89518   6.05824   6.18311
 Alpha virt. eigenvalues --    6.21437   6.32997   6.40455   6.45746   6.56299
 Alpha virt. eigenvalues --    6.68677   6.79532   6.82128   6.87225   6.89753
 Alpha virt. eigenvalues --    6.94152   6.95083   6.97196   6.98915   7.07592
 Alpha virt. eigenvalues --    7.13024   7.19171   7.28567   7.52420   7.54133
 Alpha virt. eigenvalues --    7.86986   8.10660   8.18251  14.07268  14.62934
          Condensed to atoms (all electrons):
              1          2          3          4          5
     1  O    8.262121  -0.214197   0.185788   0.011366  -0.023291
     2  O   -0.214197   8.250172   0.020428   0.191195  -0.014441
     3  H    0.185788   0.020428   0.576278  -0.003688  -0.002893
     4  H    0.011366   0.191195  -0.003688   0.590254  -0.014782
     5  Kr  -0.023291  -0.014441  -0.002893  -0.014782  36.050207
 Mulliken atomic charges:
              1
     1  O   -0.221786
     2  O   -0.233156
     3  H    0.224088
     4  H    0.225655
     5  Kr   0.005199
 Sum of Mulliken atomic charges =   0.00000
 Mulliken charges with hydrogens summed into heavy atoms:
              1
     1  O    0.002302
     2  O   -0.007501
     5  Kr   0.005199
 Sum of Mulliken charges with hydrogens summed into heavy atoms =   0.00000
          Condensed to fragments (all electrons):
     1      -0.005199
     2       0.005199
 Electronic spatial extent (au):  <R**2>=            479.5124
 Charge=              0.0000 electrons
 Dipole moment (field-independent basis, Debye):
    X=              2.7187    Y=             -0.2823    Z=              1.2724  Tot=              3.0150
 Quadrupole moment (field-independent basis, Debye-Ang):
   XX=            -37.4094   YY=            -27.7716   ZZ=            -29.1689
   XY=              1.1840   XZ=             -2.0633   YZ=             -1.6390
 Traceless Quadrupole moment (field-independent basis, Debye-Ang):
   XX=             -5.9595   YY=              3.6783   ZZ=              2.2811
   XY=              1.1840   XZ=             -2.0633   YZ=             -1.6390
 Octapole moment (field-independent basis, Debye-Ang**2):
  XXX=             42.5159  YYY=             -0.7657  ZZZ=              0.7929  XYY=              6.5443
  XXY=             -3.1292  XXZ=              2.4619  XZZ=              6.6177  YZZ=             -1.4352
  YYZ=              2.0179  XYZ=              2.6335
 Hexadecapole moment (field-independent basis, Debye-Ang**3):
 XXXX=           -461.1095 YYYY=            -62.2220 ZZZZ=            -29.0174 XXXY=              5.0024
 XXXZ=             -3.4855 YYYX=              2.2874 YYYZ=             -2.4141 ZZZX=             -1.6808
 ZZZY=             -1.5952 XXYY=            -83.7736 XXZZ=            -73.3369 YYZZ=            -15.9098
 XXYZ=             -4.3375 YYXZ=             -3.1998 ZZXY=              2.2875
 N-N= 1.502958872335D+02 E-N=-7.237124129906D+03  KE= 2.900046745904D+03
 No NMR shielding tensors so no spin-rotation constants.
 Leave Link  601 at Fri May  8 04:26:21 2020, MaxMem= 1073741824 cpu:       1.0
 (Enter /home/matheus/.gaussian/g09/l122.exe)
 Counterpoise: doing DCBS calculation for fragment   1 NewBq=T
 Leave Link  122 at Fri May  8 04:26:21 2020, MaxMem= 1073741824 cpu:       0.0
 (Enter /home/matheus/.gaussian/g09/l301.exe)
 Basis read from rwf:  (5D, 7F)
 No pseudopotential information found on rwf file.
 There are   197 symmetry adapted basis functions of A   symmetry.
 Integral buffers will be    131072 words long.
 Raffenetti 2 integral format.
 Two-electron integral symmetry is turned on.
   197 basis functions,   415 primitive gaussians,   229 cartesian basis functions
     9 alpha electrons        9 beta electrons
       nuclear repulsion energy        36.6440881780 Hartrees.
 IExCor=32609 DFT=T Ex+Corr=LC-wPBE ExCW=0 ScaHFX=  1.000000
 ScaDFX=  1.000000  0.000000  1.000000  1.000000 ScalE2=  1.000000  1.000000
 IRadAn=      5 IRanWt=     -1 IRanGd=            0 ICorTp=0
  HFx wShort=  0.000000 wLong=  0.550000 cFull=  0.000000 cShort=  0.000000 cLong=  1.000000
  DFx wShort=  0.000000 wLong=  0.550000 cFull=  0.000000 cShort=  0.000000 cLong=  1.000000
 NAtoms=    5 NActive=    5 NUniq=    5 SFac= 1.00D+00 NAtFMM=   60 NAOKFM=F Big=F
 No density basis found on file   718.
 Leave Link  301 at Fri May  8 04:26:21 2020, MaxMem= 1073741824 cpu:       0.2
 (Enter /home/matheus/.gaussian/g09/l302.exe)
 NPDir=0 NMtPBC=     1 NCelOv=     1 NCel=       1 NClECP=     1 NCelD=      1
         NCelK=      1 NCelE2=     1 NClLst=     1 CellRange=     0.0.
 One-electron integrals computed using PRISM.
 NBasis=   197 RedAO= T  NBF=   197
 NBsUse=   197 1.00D-06 NBFU=   197
 Precomputing XC quadrature grid using
 IXCGrd= 2 IRadAn=           5 IRanWt=          -1 IRanGd=           0 AccXCQ= 0.00D+00.
 NRdTot=     427 NPtTot=      123512 NUsed=      126579 NTot=      126611
 NSgBfM=   229   229   229   229   229 NAtAll=     5     5.
 Leave Link  302 at Fri May  8 04:26:21 2020, MaxMem= 1073741824 cpu:       0.9
 (Enter /home/matheus/.gaussian/g09/l303.exe)
 DipDrv:  MaxL=1.
 Leave Link  303 at Fri May  8 04:26:21 2020, MaxMem= 1073741824 cpu:       0.2
 (Enter /home/matheus/.gaussian/g09/l401.exe)
 Harris functional with IExCor=32609 diagonalized for initial guess.
 ExpMin= 2.53D-02 ExpMax= 1.17D+07 ExpMxC= 1.33D+04 IAcc=3 IRadAn=         5 AccDes= 0.00D+00
 HarFok:  IExCor=32609 AccDes= 0.00D+00 IRadAn=         5 IDoV= 1
 ScaDFX=  1.000000  1.000000  1.000000  1.000000
 FoFCou: FMM=F IPFlag=           0 FMFlag=      100000 FMFlg1=           0
         NFxFlg=           0 DoJE=T BraDBF=F KetDBF=T FulRan=T
         Omega=  0.000000  0.000000  1.000000  0.000000  0.000000 ICntrl=     500 IOpCl=  0
         NMat0=    1 NMatS0=    1 NMatT0=    0 NMatD0=    1 NMtDS0=    0 NMtDT0=    0
         I1Cent=           4 NGrid=           0.
 Petite list used in FoFCou.
 Harris En= -151.501775673436    
 Initial guess orbital symmetries:
       Occupied  (A) (A) (A) (A) (A) (A) (A) (A) (A)
       Virtual   (A) (A) (A) (A) (A) (A) (A) (A) (A) (A) (A) (A)
                 (A) (A) (A) (A) (A) (A) (A) (A) (A) (A) (A) (A)
                 (A) (A) (A) (A) (A) (A) (A) (A) (A) (A) (A) (A)
                 (A) (A) (A) (A) (A) (A) (A) (A) (A) (A) (A) (A)
                 (A) (A) (A) (A) (A) (A) (A) (A) (A) (A) (A) (A)
                 (A) (A) (A) (A) (A) (A) (A) (A) (A) (A) (A) (A)
                 (A) (A) (A) (A) (A) (A) (A) (A) (A) (A) (A) (A)
                 (A) (A) (A) (A) (A) (A) (A) (A) (A) (A) (A) (A)
                 (A) (A) (A) (A) (A) (A) (A) (A) (A) (A) (A) (A)
                 (A) (A) (A) (A) (A) (A) (A) (A) (A) (A) (A) (A)
                 (A) (A) (A) (A) (A) (A) (A) (A) (A) (A) (A) (A)
                 (A) (A) (A) (A) (A) (A) (A) (A) (A) (A) (A) (A)
                 (A) (A) (A) (A) (A) (A) (A) (A) (A) (A) (A) (A)
                 (A) (A) (A) (A) (A) (A) (A) (A) (A) (A) (A) (A)
                 (A) (A) (A) (A) (A) (A) (A) (A) (A) (A) (A) (A)
                 (A) (A) (A) (A) (A) (A) (A) (A)
 The electronic state of the initial guess is 1-A.
 Leave Link  401 at Fri May  8 04:26:22 2020, MaxMem= 1073741824 cpu:       3.9
 (Enter /home/matheus/.gaussian/g09/l502.exe)
 Closed shell SCF:
 Requested convergence on RMS density matrix=1.00D-08 within 128 cycles.
 Requested convergence on MAX density matrix=1.00D-06.
 Requested convergence on             energy=1.00D-06.
 No special actions if energy rises.
 Using DIIS extrapolation, IDIIS=  1040.
 Integral symmetry usage will be decided dynamically.
       126521 words used for storage of precomputed grid.
 IEnd=      305468 IEndB=      305468 NGot=  1073741824 MDV=  1073505667
 LenX=  1073505667 LenY=  1073452785
 Fock matrices will be formed incrementally for  20 cycles.

 Cycle   1  Pass 1  IDiag  1:
 FoFJK:  IHMeth= 1 ICntrl=     0 DoSepK=T KAlg= 1 I1Cent= 0 FoldK=F
 FoFCou: FMM=F IPFlag=           0 FMFlag=      100000 FMFlg1=           0
         NFxFlg=           0 DoJE=T BraDBF=F KetDBF=F FulRan=T
         Omega=  0.000000  0.000000  1.000000  0.000000  0.000000 ICntrl=     500 IOpCl=  0
         NMat0=    1 NMatS0=    1 NMatT0=    0 NMatD0=    1 NMtDS0=    0 NMtDT0=    0
         I1Cent=           0 NGrid=           0.
 Symmetry not used in FoFCou.
 E= -151.504430832989    
 DIIS: error= 1.16D-02 at cycle   1 NSaved=   1.
 NSaved= 1 IEnMin= 1 EnMin= -151.504430832989     IErMin= 1 ErrMin= 1.16D-02
 ErrMax= 1.16D-02 EMaxC= 1.00D-01 BMatC= 4.21D-02 BMatP= 4.21D-02
 IDIUse=3 WtCom= 8.84D-01 WtEn= 1.16D-01
 Coeff-Com:  0.100D+01
 Coeff-En:   0.100D+01
 Coeff:      0.100D+01
 Gap=     0.561 Goal=   None    Shift=    0.000
 GapD=    0.561 DampG=2.000 DampE=0.500 DampFc=1.0000 IDamp=-1.
 RMSDP=7.38D-04 MaxDP=2.27D-02              OVMax= 5.55D-02

 Cycle   2  Pass 1  IDiag  1:
 RMSU=  5.18D-04    CP:  9.91D-01
 FoFJK:  IHMeth= 1 ICntrl=     0 DoSepK=T KAlg= 1 I1Cent= 0 FoldK=F
 E= -151.521445804982     Delta-E=       -0.017014971993 Rises=F Damp=F
 DIIS: error= 7.03D-03 at cycle   2 NSaved=   2.
 NSaved= 2 IEnMin= 2 EnMin= -151.521445804982     IErMin= 2 ErrMin= 7.03D-03
 ErrMax= 7.03D-03 EMaxC= 1.00D-01 BMatC= 1.72D-02 BMatP= 4.21D-02
 IDIUse=3 WtCom= 9.30D-01 WtEn= 7.03D-02
 Coeff-Com:  0.377D+00 0.623D+00
 Coeff-En:   0.134D+00 0.866D+00
 Coeff:      0.360D+00 0.640D+00
 Gap=     0.472 Goal=   None    Shift=    0.000
 RMSDP=4.30D-04 MaxDP=2.23D-02 DE=-1.70D-02 OVMax= 2.39D-02

 Cycle   3  Pass 1  IDiag  1:
 RMSU=  2.36D-04    CP:  9.87D-01  6.35D-01
 FoFJK:  IHMeth= 1 ICntrl=     0 DoSepK=T KAlg= 1 I1Cent= 0 FoldK=F
 E= -151.531251151065     Delta-E=       -0.009805346082 Rises=F Damp=F
 DIIS: error= 1.44D-03 at cycle   3 NSaved=   3.
 NSaved= 3 IEnMin= 3 EnMin= -151.531251151065     IErMin= 3 ErrMin= 1.44D-03
 ErrMax= 1.44D-03 EMaxC= 1.00D-01 BMatC= 3.83D-04 BMatP= 1.72D-02
 IDIUse=3 WtCom= 9.86D-01 WtEn= 1.44D-02
 Coeff-Com:  0.411D-01 0.150D+00 0.809D+00
 Coeff-En:   0.000D+00 0.000D+00 0.100D+01
 Coeff:      0.405D-01 0.148D+00 0.811D+00
 Gap=     0.465 Goal=   None    Shift=    0.000
 RMSDP=5.38D-05 MaxDP=1.74D-03 DE=-9.81D-03 OVMax= 4.11D-03

 Cycle   4  Pass 1  IDiag  1:
 RMSU=  2.72D-05    CP:  9.85D-01  6.80D-01  1.03D+00
 FoFJK:  IHMeth= 1 ICntrl=     0 DoSepK=T KAlg= 1 I1Cent= 0 FoldK=F
 E= -151.531495339027     Delta-E=       -0.000244187963 Rises=F Damp=F
 DIIS: error= 1.66D-04 at cycle   4 NSaved=   4.
 NSaved= 4 IEnMin= 4 EnMin= -151.531495339027     IErMin= 4 ErrMin= 1.66D-04
 ErrMax= 1.66D-04 EMaxC= 1.00D-01 BMatC= 9.79D-06 BMatP= 3.83D-04
 IDIUse=3 WtCom= 9.98D-01 WtEn= 1.66D-03
 Coeff-Com: -0.975D-02-0.133D-01 0.856D-01 0.938D+00
 Coeff-En:   0.000D+00 0.000D+00 0.000D+00 0.100D+01
 Coeff:     -0.973D-02-0.133D-01 0.854D-01 0.938D+00
 Gap=     0.467 Goal=   None    Shift=    0.000
 RMSDP=1.30D-05 MaxDP=7.44D-04 DE=-2.44D-04 OVMax= 7.80D-04

 Cycle   5  Pass 1  IDiag  1:
 RMSU=  4.53D-06    CP:  9.85D-01  6.78D-01  1.06D+00  1.05D+00
 FoFJK:  IHMeth= 1 ICntrl=     0 DoSepK=T KAlg= 1 I1Cent= 0 FoldK=F
 E= -151.531504120005     Delta-E=       -0.000008780978 Rises=F Damp=F
 DIIS: error= 3.66D-05 at cycle   5 NSaved=   5.
 NSaved= 5 IEnMin= 5 EnMin= -151.531504120005     IErMin= 5 ErrMin= 3.66D-05
 ErrMax= 3.66D-05 EMaxC= 1.00D-01 BMatC= 2.21D-07 BMatP= 9.79D-06
 IDIUse=1 WtCom= 1.00D+00 WtEn= 0.00D+00
 Coeff-Com: -0.262D-03-0.144D-02-0.334D-01-0.122D+00 0.116D+01
 Coeff:     -0.262D-03-0.144D-02-0.334D-01-0.122D+00 0.116D+01
 Gap=     0.467 Goal=   None    Shift=    0.000
 RMSDP=3.36D-06 MaxDP=8.43D-05 DE=-8.78D-06 OVMax= 3.00D-04

 Cycle   6  Pass 1  IDiag  1:
 RMSU=  1.14D-06    CP:  9.85D-01  6.79D-01  1.06D+00  1.10D+00  1.32D+00
 FoFJK:  IHMeth= 1 ICntrl=     0 DoSepK=T KAlg= 1 I1Cent= 0 FoldK=F
 E= -151.531504690468     Delta-E=       -0.000000570463 Rises=F Damp=F
 DIIS: error= 6.25D-06 at cycle   6 NSaved=   6.
 NSaved= 6 IEnMin= 6 EnMin= -151.531504690468     IErMin= 6 ErrMin= 6.25D-06
 ErrMax= 6.25D-06 EMaxC= 1.00D-01 BMatC= 1.26D-08 BMatP= 2.21D-07
 IDIUse=1 WtCom= 1.00D+00 WtEn= 0.00D+00
 Coeff-Com:  0.261D-03 0.711D-03 0.500D-02 0.150D-02-0.244D+00 0.124D+01
 Coeff:      0.261D-03 0.711D-03 0.500D-02 0.150D-02-0.244D+00 0.124D+01
 Gap=     0.467 Goal=   None    Shift=    0.000
 RMSDP=1.05D-06 MaxDP=2.64D-05 DE=-5.70D-07 OVMax= 1.01D-04

 Cycle   7  Pass 1  IDiag  1:
 RMSU=  3.07D-07    CP:  9.85D-01  6.79D-01  1.06D+00  1.11D+00  1.37D+00
                    CP:  1.45D+00
 FoFJK:  IHMeth= 1 ICntrl=     0 DoSepK=T KAlg= 1 I1Cent= 0 FoldK=F
 E= -151.531504741764     Delta-E=       -0.000000051296 Rises=F Damp=F
 DIIS: error= 2.55D-06 at cycle   7 NSaved=   7.
 NSaved= 7 IEnMin= 7 EnMin= -151.531504741764     IErMin= 7 ErrMin= 2.55D-06
 ErrMax= 2.55D-06 EMaxC= 1.00D-01 BMatC= 9.86D-10 BMatP= 1.26D-08
 IDIUse=1 WtCom= 1.00D+00 WtEn= 0.00D+00
 Coeff-Com: -0.113D-04-0.184D-04 0.127D-02 0.665D-02-0.446D-01-0.133D+00
 Coeff-Com:  0.117D+01
 Coeff:     -0.113D-04-0.184D-04 0.127D-02 0.665D-02-0.446D-01-0.133D+00
 Coeff:      0.117D+01
 Gap=     0.467 Goal=   None    Shift=    0.000
 RMSDP=4.09D-07 MaxDP=1.61D-05 DE=-5.13D-08 OVMax= 3.75D-05

 Cycle   8  Pass 1  IDiag  1:
 RMSU=  7.98D-08    CP:  9.85D-01  6.79D-01  1.06D+00  1.11D+00  1.37D+00
                    CP:  1.60D+00  1.41D+00
 FoFJK:  IHMeth= 1 ICntrl=     0 DoSepK=T KAlg= 1 I1Cent= 0 FoldK=F
 E= -151.531504745793     Delta-E=       -0.000000004029 Rises=F Damp=F
 DIIS: error= 7.28D-07 at cycle   8 NSaved=   8.
 NSaved= 8 IEnMin= 8 EnMin= -151.531504745793     IErMin= 8 ErrMin= 7.28D-07
 ErrMax= 7.28D-07 EMaxC= 1.00D-01 BMatC= 2.78D-10 BMatP= 9.86D-10
 IDIUse=1 WtCom= 1.00D+00 WtEn= 0.00D+00
 Coeff-Com: -0.235D-04-0.676D-04-0.151D-04 0.177D-02 0.775D-02-0.149D+00
 Coeff-Com:  0.392D+00 0.748D+00
 Coeff:     -0.235D-04-0.676D-04-0.151D-04 0.177D-02 0.775D-02-0.149D+00
 Coeff:      0.392D+00 0.748D+00
 Gap=     0.467 Goal=   None    Shift=    0.000
 RMSDP=1.07D-07 MaxDP=6.13D-06 DE=-4.03D-09 OVMax= 1.03D-05

 Cycle   9  Pass 1  IDiag  1:
 RMSU=  3.64D-08    CP:  9.85D-01  6.79D-01  1.06D+00  1.11D+00  1.37D+00
                    CP:  1.62D+00  1.53D+00  1.09D+00
 FoFJK:  IHMeth= 1 ICntrl=     0 DoSepK=T KAlg= 1 I1Cent= 0 FoldK=F
 E= -151.531504746179     Delta-E=       -0.000000000386 Rises=F Damp=F
 DIIS: error= 3.75D-07 at cycle   9 NSaved=   9.
 NSaved= 9 IEnMin= 9 EnMin= -151.531504746179     IErMin= 9 ErrMin= 3.75D-07
 ErrMax= 3.75D-07 EMaxC= 1.00D-01 BMatC= 6.78D-11 BMatP= 2.78D-10
 IDIUse=1 WtCom= 1.00D+00 WtEn= 0.00D+00
 Coeff-Com: -0.931D-05-0.313D-04-0.357D-03-0.103D-02 0.178D-01-0.460D-01
 Coeff-Com: -0.120D+00 0.326D+00 0.824D+00
 Coeff:     -0.931D-05-0.313D-04-0.357D-03-0.103D-02 0.178D-01-0.460D-01
 Coeff:     -0.120D+00 0.326D+00 0.824D+00
 Gap=     0.467 Goal=   None    Shift=    0.000
 RMSDP=6.26D-08 MaxDP=3.20D-06 DE=-3.86D-10 OVMax= 7.14D-06

 Cycle  10  Pass 1  IDiag  1:
 RMSU=  1.32D-08    CP:  9.85D-01  6.79D-01  1.06D+00  1.12D+00  1.37D+00
                    CP:  1.63D+00  1.59D+00  1.33D+00  1.05D+00
 FoFJK:  IHMeth= 1 ICntrl=     0 DoSepK=T KAlg= 1 I1Cent= 0 FoldK=F
 E= -151.531504746289     Delta-E=       -0.000000000110 Rises=F Damp=F
 DIIS: error= 1.16D-07 at cycle  10 NSaved=  10.
 NSaved=10 IEnMin=10 EnMin= -151.531504746289     IErMin=10 ErrMin= 1.16D-07
 ErrMax= 1.16D-07 EMaxC= 1.00D-01 BMatC= 2.52D-12 BMatP= 6.78D-11
 IDIUse=1 WtCom= 1.00D+00 WtEn= 0.00D+00
 Coeff-Com:  0.395D-05 0.154D-04 0.103D-03 0.203D-04-0.485D-02 0.243D-01
 Coeff-Com: -0.175D-02-0.159D+00-0.198D+00 0.134D+01
 Coeff:      0.395D-05 0.154D-04 0.103D-03 0.203D-04-0.485D-02 0.243D-01
 Coeff:     -0.175D-02-0.159D+00-0.198D+00 0.134D+01
 Gap=     0.467 Goal=   None    Shift=    0.000
 RMSDP=1.87D-08 MaxDP=3.80D-07 DE=-1.10D-10 OVMax= 3.07D-06

 Cycle  11  Pass 1  IDiag  1:
 RMSU=  4.87D-09    CP:  9.85D-01  6.79D-01  1.06D+00  1.12D+00  1.37D+00
                    CP:  1.64D+00  1.60D+00  1.40D+00  1.21D+00  1.55D+00
 FoFJK:  IHMeth= 1 ICntrl=     0 DoSepK=T KAlg= 1 I1Cent= 0 FoldK=F
 E= -151.531504746299     Delta-E=       -0.000000000010 Rises=F Damp=F
 DIIS: error= 3.93D-08 at cycle  11 NSaved=  11.
 NSaved=11 IEnMin=11 EnMin= -151.531504746299     IErMin=11 ErrMin= 3.93D-08
 ErrMax= 3.93D-08 EMaxC= 1.00D-01 BMatC= 1.78D-13 BMatP= 2.52D-12
 IDIUse=1 WtCom= 1.00D+00 WtEn= 0.00D+00
 Coeff-Com: -0.123D-06 0.566D-07 0.141D-04 0.996D-04-0.714D-03-0.617D-03
 Coeff-Com:  0.129D-01-0.209D-02-0.403D-01-0.219D+00 0.125D+01
 Coeff:     -0.123D-06 0.566D-07 0.141D-04 0.996D-04-0.714D-03-0.617D-03
 Coeff:      0.129D-01-0.209D-02-0.403D-01-0.219D+00 0.125D+01
 Gap=     0.467 Goal=   None    Shift=    0.000
 RMSDP=5.14D-09 MaxDP=1.08D-07 DE=-1.03D-11 OVMax= 7.33D-07

 SCF Done:  E(RLC-wPBE) =  -151.531504746     A.U. after   11 cycles
             Convg  =    0.5143D-08             -V/T =  2.0070
 KE= 1.504826493197D+02 PE=-4.315831322771D+02 EE= 9.292489003315D+01
 Leave Link  502 at Fri May  8 04:26:54 2020, MaxMem= 1073741824 cpu:     254.3
 (Enter /home/matheus/.gaussian/g09/l601.exe)
 Copying SCF densities to generalized density rwf, IOpCl= 0 IROHF=0.

 **********************************************************************

            Population analysis using the SCF density.

 **********************************************************************

 Orbital symmetries:
       Occupied  (A) (A) (A) (A) (A) (A) (A) (A) (A)
       Virtual   (A) (A) (A) (A) (A) (A) (A) (A) (A) (A) (A) (A)
                 (A) (A) (A) (A) (A) (A) (A) (A) (A) (A) (A) (A)
                 (A) (A) (A) (A) (A) (A) (A) (A) (A) (A) (A) (A)
                 (A) (A) (A) (A) (A) (A) (A) (A) (A) (A) (A) (A)
                 (A) (A) (A) (A) (A) (A) (A) (A) (A) (A) (A) (A)
                 (A) (A) (A) (A) (A) (A) (A) (A) (A) (A) (A) (A)
                 (A) (A) (A) (A) (A) (A) (A) (A) (A) (A) (A) (A)
                 (A) (A) (A) (A) (A) (A) (A) (A) (A) (A) (A) (A)
                 (A) (A) (A) (A) (A) (A) (A) (A) (A) (A) (A) (A)
                 (A) (A) (A) (A) (A) (A) (A) (A) (A) (A) (A) (A)
                 (A) (A) (A) (A) (A) (A) (A) (A) (A) (A) (A) (A)
                 (A) (A) (A) (A) (A) (A) (A) (A) (A) (A) (A) (A)
                 (A) (A) (A) (A) (A) (A) (A) (A) (A) (A) (A) (A)
                 (A) (A) (A) (A) (A) (A) (A) (A) (A) (A) (A) (A)
                 (A) (A) (A) (A) (A) (A) (A) (A) (A) (A) (A) (A)
                 (A) (A) (A) (A) (A) (A) (A) (A)
 The electronic state is 1-A.
 Alpha  occ. eigenvalues --  -19.11665 -19.11659  -1.32604  -1.09795  -0.73710
 Alpha  occ. eigenvalues --   -0.62331  -0.59060  -0.49885  -0.44404
 Alpha virt. eigenvalues --    0.02253   0.03856   0.07066   0.08071   0.10219
 Alpha virt. eigenvalues --    0.10300   0.11375   0.14579   0.17328   0.17920
 Alpha virt. eigenvalues --    0.18806   0.19850   0.21137   0.22458   0.25837
 Alpha virt. eigenvalues --    0.27611   0.29787   0.30521   0.33434   0.34030
 Alpha virt. eigenvalues --    0.34944   0.36465   0.37817   0.40164   0.40714
 Alpha virt. eigenvalues --    0.43226   0.45213   0.46454   0.48294   0.50946
 Alpha virt. eigenvalues --    0.53652   0.58220   0.61250   0.63430   0.68082
 Alpha virt. eigenvalues --    0.71368   0.75517   0.78164   0.78970   0.81125
 Alpha virt. eigenvalues --    0.82496   0.84120   0.88452   0.91847   0.92248
 Alpha virt. eigenvalues --    0.93371   0.94967   0.97045   0.97675   0.99852
 Alpha virt. eigenvalues --    1.03336   1.04192   1.05327   1.10165   1.12242
 Alpha virt. eigenvalues --    1.13195   1.16655   1.20731   1.21925   1.24550
 Alpha virt. eigenvalues --    1.28968   1.29777   1.30890   1.31455   1.33069
 Alpha virt. eigenvalues --    1.34333   1.35348   1.39350   1.40706   1.41364
 Alpha virt. eigenvalues --    1.48634   1.50541   1.53745   1.55332   1.57974
 Alpha virt. eigenvalues --    1.61014   1.65671   1.67541   1.75783   1.78846
 Alpha virt. eigenvalues --    1.84793   1.88751   1.95575   2.01425   2.05983
 Alpha virt. eigenvalues --    2.09358   2.13387   2.18253   2.22479   2.26072
 Alpha virt. eigenvalues --    2.31997   2.33264   2.36506   2.40058   2.40714
 Alpha virt. eigenvalues --    2.53913   2.58913   2.61008   2.65319   2.66054
 Alpha virt. eigenvalues --    2.69799   2.79692   2.87461   2.90349   2.97392
 Alpha virt. eigenvalues --    3.02755   3.11849   3.14597   3.25121   3.29790
 Alpha virt. eigenvalues --    3.41840   3.57208   3.66999   3.70488   3.77476
 Alpha virt. eigenvalues --    3.77942   3.81459   3.81550   3.81766   3.85780
 Alpha virt. eigenvalues --    3.88323   3.90544   3.92319   3.95980   3.98587
 Alpha virt. eigenvalues --    4.01384   4.05226   4.08509   4.13182   4.14931
 Alpha virt. eigenvalues --    4.18727   4.28385   4.29198   4.32611   4.38754
 Alpha virt. eigenvalues --    4.45209   4.53428   4.64410   4.76013   5.00168
 Alpha virt. eigenvalues --    5.03355   5.04843   5.15191   5.21549   5.22447
 Alpha virt. eigenvalues --    5.47459   5.89219   6.05152   6.18096   6.21222
 Alpha virt. eigenvalues --    6.32830   6.40255   6.45515   6.56118   6.68386
 Alpha virt. eigenvalues --    6.79138   6.81865   6.86694   6.89451   6.93798
 Alpha virt. eigenvalues --    6.94757   6.96870   6.98655   7.07264   7.12707
 Alpha virt. eigenvalues --    7.18841   7.28231   7.52032   7.53855   7.86589
 Alpha virt. eigenvalues --    8.10347   8.16958  10.95513  14.06940  14.61234
 Alpha virt. eigenvalues --   14.82350  14.88333  15.10028  29.01930  29.02274
 Alpha virt. eigenvalues --   29.06779  29.13716  29.22111  49.14028 148.30619
 Alpha virt. eigenvalues --  148.39442 148.70901 752.63776
          Condensed to atoms (all electrons):
              1          2          3          4          5
     1  O    8.219613  -0.207499   0.192249   0.008555   0.000924
     2  O   -0.207499   8.215749   0.020840   0.192893  -0.000741
     3  H    0.192249   0.020840   0.578966  -0.002018  -0.001346
     4  H    0.008555   0.192893  -0.002018   0.584605  -0.003770
     5  Kr   0.000924  -0.000741  -0.001346  -0.003770   0.000890
 Mulliken atomic charges:
              1
     1  O   -0.213842
     2  O   -0.221243
     3  H    0.211308
     4  H    0.219734
     5  Kr   0.004043
 Sum of Mulliken atomic charges =   0.00000
 Mulliken charges with hydrogens summed into heavy atoms:
              1
     1  O   -0.002534
     2  O   -0.001508
     5  Kr   0.004043
 Sum of Mulliken charges with hydrogens summed into heavy atoms =   0.00000
          Condensed to fragments (all electrons):
     1      -0.004043
     2       0.004043
 Electronic spatial extent (au):  <R**2>=            318.5207
 Charge=              0.0000 electrons
 Dipole moment (field-independent basis, Debye):
    X=              2.4143    Y=             -0.1281    Z=              1.4271  Tot=              2.8075
 Quadrupole moment (field-independent basis, Debye-Ang):
   XX=            -20.0637   YY=            -10.2586   ZZ=            -11.7283
   XY=              1.2639   XZ=             -1.9529   YZ=             -1.6668
 Traceless Quadrupole moment (field-independent basis, Debye-Ang):
   XX=             -6.0468   YY=              3.7583   ZZ=              2.2886
   XY=              1.2639   XZ=             -1.9529   YZ=             -1.6668
 Octapole moment (field-independent basis, Debye-Ang**2):
  XXX=             92.0801  YYY=             -0.8387  ZZZ=              0.8796  XYY=             23.3688
  XXY=             -2.9971  XXZ=              2.5521  XZZ=             23.4905  YZZ=             -1.4648
  YYZ=              2.0497  XYZ=              2.6360
 Hexadecapole moment (field-independent basis, Debye-Ang**3):
 XXXX=           -343.1339 YYYY=            -44.4113 ZZZZ=            -11.3369 XXXY=              4.7829
 XXXZ=             -3.3374 YYYX=              2.2254 YYYZ=             -2.4608 ZZZX=             -1.6635
 ZZZY=             -1.6402 XXYY=            -61.1732 XXZZ=            -50.9055 YYZZ=             -9.9874
 XXYZ=             -4.3499 YYXZ=             -3.1786 ZZXY=              2.2387
 N-N= 3.664408817804D+01 E-N=-4.315831318968D+02  KE= 1.504826493197D+02
 No NMR shielding tensors so no spin-rotation constants.
 Leave Link  601 at Fri May  8 04:26:54 2020, MaxMem= 1073741824 cpu:       0.8
 (Enter /home/matheus/.gaussian/g09/l122.exe)
 Counterpoise: doing DCBS calculation for fragment   2 NewBq=T
 Leave Link  122 at Fri May  8 04:26:54 2020, MaxMem= 1073741824 cpu:       0.0
 (Enter /home/matheus/.gaussian/g09/l301.exe)
 Basis read from rwf:  (5D, 7F)
 No pseudopotential information found on rwf file.
 There are   197 symmetry adapted basis functions of A   symmetry.
 Integral buffers will be    131072 words long.
 Raffenetti 2 integral format.
 Two-electron integral symmetry is turned on.
   197 basis functions,   415 primitive gaussians,   229 cartesian basis functions
    18 alpha electrons       18 beta electrons
       nuclear repulsion energy         0.0000000000 Hartrees.
 IExCor=32609 DFT=T Ex+Corr=LC-wPBE ExCW=0 ScaHFX=  1.000000
 ScaDFX=  1.000000  0.000000  1.000000  1.000000 ScalE2=  1.000000  1.000000
 IRadAn=      5 IRanWt=     -1 IRanGd=            0 ICorTp=0
  HFx wShort=  0.000000 wLong=  0.550000 cFull=  0.000000 cShort=  0.000000 cLong=  1.000000
  DFx wShort=  0.000000 wLong=  0.550000 cFull=  0.000000 cShort=  0.000000 cLong=  1.000000
 NAtoms=    5 NActive=    5 NUniq=    5 SFac= 1.00D+00 NAtFMM=   60 NAOKFM=F Big=F
 No density basis found on file   718.
 Leave Link  301 at Fri May  8 04:26:54 2020, MaxMem= 1073741824 cpu:       0.2
 (Enter /home/matheus/.gaussian/g09/l302.exe)
 NPDir=0 NMtPBC=     1 NCelOv=     1 NCel=       1 NClECP=     1 NCelD=      1
         NCelK=      1 NCelE2=     1 NClLst=     1 CellRange=     0.0.
 One-electron integrals computed using PRISM.
 NBasis=   197 RedAO= T  NBF=   197
 NBsUse=   197 1.00D-06 NBFU=   197
 Precomputing XC quadrature grid using
 IXCGrd= 2 IRadAn=           5 IRanWt=          -1 IRanGd=           0 AccXCQ= 0.00D+00.
 NRdTot=     427 NPtTot=      123512 NUsed=      126579 NTot=      126611
 NSgBfM=   229   229   229   229   229 NAtAll=     5     5.
 Leave Link  302 at Fri May  8 04:26:54 2020, MaxMem= 1073741824 cpu:       1.0
 (Enter /home/matheus/.gaussian/g09/l303.exe)
 DipDrv:  MaxL=1.
 Leave Link  303 at Fri May  8 04:26:54 2020, MaxMem= 1073741824 cpu:       0.2
 (Enter /home/matheus/.gaussian/g09/l401.exe)
 Harris functional with IExCor=32609 diagonalized for initial guess.
 ExpMin= 2.53D-02 ExpMax= 1.17D+07 ExpMxC= 1.33D+04 IAcc=3 IRadAn=         5 AccDes= 0.00D+00
 HarFok:  IExCor=32609 AccDes= 0.00D+00 IRadAn=         5 IDoV= 1
 ScaDFX=  1.000000  1.000000  1.000000  1.000000
 FoFCou: FMM=F IPFlag=           0 FMFlag=      100000 FMFlg1=           0
         NFxFlg=           0 DoJE=T BraDBF=F KetDBF=T FulRan=T
         Omega=  0.000000  0.000000  1.000000  0.000000  0.000000 ICntrl=     500 IOpCl=  0
         NMat0=    1 NMatS0=    1 NMatT0=    0 NMatD0=    1 NMtDS0=    0 NMtDT0=    0
         I1Cent=           4 NGrid=           0.
 Petite list used in FoFCou.
 Harris En= -2753.24653525127    
 Initial guess orbital symmetries:
       Occupied  (A) (A) (A) (A) (A) (A) (A) (A) (A) (A) (A) (A)
                 (A) (A) (A) (A) (A) (A)
       Virtual   (A) (A) (A) (A) (A) (A) (A) (A) (A) (A) (A) (A)
                 (A) (A) (A) (A) (A) (A) (A) (A) (A) (A) (A) (A)
                 (A) (A) (A) (A) (A) (A) (A) (A) (A) (A) (A) (A)
                 (A) (A) (A) (A) (A) (A) (A) (A) (A) (A) (A) (A)
                 (A) (A) (A) (A) (A) (A) (A) (A) (A) (A) (A) (A)
                 (A) (A) (A) (A) (A) (A) (A) (A) (A) (A) (A) (A)
                 (A) (A) (A) (A) (A) (A) (A) (A) (A) (A) (A) (A)
                 (A) (A) (A) (A) (A) (A) (A) (A) (A) (A) (A) (A)
                 (A) (A) (A) (A) (A) (A) (A) (A) (A) (A) (A) (A)
                 (A) (A) (A) (A) (A) (A) (A) (A) (A) (A) (A) (A)
                 (A) (A) (A) (A) (A) (A) (A) (A) (A) (A) (A) (A)
                 (A) (A) (A) (A) (A) (A) (A) (A) (A) (A) (A) (A)
                 (A) (A) (A) (A) (A) (A) (A) (A) (A) (A) (A) (A)
                 (A) (A) (A) (A) (A) (A) (A) (A) (A) (A) (A) (A)
                 (A) (A) (A) (A) (A) (A) (A) (A) (A) (A) (A)
 The electronic state of the initial guess is 1-A.
 Leave Link  401 at Fri May  8 04:26:55 2020, MaxMem= 1073741824 cpu:       3.8
 (Enter /home/matheus/.gaussian/g09/l502.exe)
 Closed shell SCF:
 Requested convergence on RMS density matrix=1.00D-08 within 128 cycles.
 Requested convergence on MAX density matrix=1.00D-06.
 Requested convergence on             energy=1.00D-06.
 No special actions if energy rises.
 Using DIIS extrapolation, IDIIS=  1040.
 Integral symmetry usage will be decided dynamically.
       126521 words used for storage of precomputed grid.
 IEnd=      305468 IEndB=      305468 NGot=  1073741824 MDV=  1073505667
 LenX=  1073505667 LenY=  1073452785
 Fock matrices will be formed incrementally for  20 cycles.

 Cycle   1  Pass 1  IDiag  1:
 FoFJK:  IHMeth= 1 ICntrl=     0 DoSepK=T KAlg= 1 I1Cent= 0 FoldK=F
 FoFCou: FMM=F IPFlag=           0 FMFlag=      100000 FMFlg1=           0
         NFxFlg=           0 DoJE=T BraDBF=F KetDBF=F FulRan=T
         Omega=  0.000000  0.000000  1.000000  0.000000  0.000000 ICntrl=     500 IOpCl=  0
         NMat0=    1 NMatS0=    1 NMatT0=    0 NMatD0=    1 NMtDS0=    0 NMtDT0=    0
         I1Cent=           0 NGrid=           0.
 Symmetry not used in FoFCou.
 E= -2753.43082628612    
 DIIS: error= 2.71D-02 at cycle   1 NSaved=   1.
 NSaved= 1 IEnMin= 1 EnMin= -2753.43082628612     IErMin= 1 ErrMin= 2.71D-02
 ErrMax= 2.71D-02 EMaxC= 1.00D-01 BMatC= 2.25D-01 BMatP= 2.25D-01
 IDIUse=3 WtCom= 7.29D-01 WtEn= 2.71D-01
 Coeff-Com:  0.100D+01
 Coeff-En:   0.100D+01
 Coeff:      0.100D+01
 Gap=     0.637 Goal=   None    Shift=    0.000
 GapD=    0.637 DampG=2.000 DampE=0.500 DampFc=1.0000 IDamp=-1.
 RMSDP=2.07D-03 MaxDP=1.44D-01              OVMax= 5.14D-02

 Cycle   2  Pass 1  IDiag  1:
 RMSU=  1.42D-03    CP:  1.02D+00
 FoFJK:  IHMeth= 1 ICntrl=     0 DoSepK=T KAlg= 1 I1Cent= 0 FoldK=F
 E= -2753.46430721697     Delta-E=       -0.033480930848 Rises=F Damp=F
 DIIS: error= 9.92D-03 at cycle   2 NSaved=   2.
 NSaved= 2 IEnMin= 2 EnMin= -2753.46430721697     IErMin= 2 ErrMin= 9.92D-03
 ErrMax= 9.92D-03 EMaxC= 1.00D-01 BMatC= 4.98D-02 BMatP= 2.25D-01
 IDIUse=3 WtCom= 9.01D-01 WtEn= 9.92D-02
 Coeff-Com:  0.315D+00 0.685D+00
 Coeff-En:   0.629D-01 0.937D+00
 Coeff:      0.290D+00 0.710D+00
 Gap=     0.551 Goal=   None    Shift=    0.000
 RMSDP=7.57D-04 MaxDP=5.01D-02 DE=-3.35D-02 OVMax= 1.84D-02

 Cycle   3  Pass 1  IDiag  1:
 RMSU=  1.45D-04    CP:  1.01D+00  6.49D-01
 FoFJK:  IHMeth= 1 ICntrl=     0 DoSepK=T KAlg= 1 I1Cent= 0 FoldK=F
 E= -2753.47776455332     Delta-E=       -0.013457336354 Rises=F Damp=F
 DIIS: error= 9.37D-04 at cycle   3 NSaved=   3.
 NSaved= 3 IEnMin= 3 EnMin= -2753.47776455332     IErMin= 3 ErrMin= 9.37D-04
 ErrMax= 9.37D-04 EMaxC= 1.00D-01 BMatC= 4.92D-04 BMatP= 4.98D-02
 IDIUse=3 WtCom= 9.91D-01 WtEn= 9.37D-03
 Coeff-Com: -0.464D-02 0.816D-01 0.923D+00
 Coeff-En:   0.000D+00 0.000D+00 0.100D+01
 Coeff:     -0.460D-02 0.808D-01 0.924D+00
 Gap=     0.557 Goal=   None    Shift=    0.000
 RMSDP=6.75D-05 MaxDP=4.08D-03 DE=-1.35D-02 OVMax= 2.34D-03

 Cycle   4  Pass 1  IDiag  1:
 RMSU=  1.35D-05    CP:  1.01D+00  6.81D-01  1.00D+00
 FoFJK:  IHMeth= 1 ICntrl=     0 DoSepK=T KAlg= 1 I1Cent= 0 FoldK=F
 E= -2753.47790812926     Delta-E=       -0.000143575931 Rises=F Damp=F
 DIIS: error= 3.22D-05 at cycle   4 NSaved=   4.
 NSaved= 4 IEnMin= 4 EnMin= -2753.47790812926     IErMin= 4 ErrMin= 3.22D-05
 ErrMax= 3.22D-05 EMaxC= 1.00D-01 BMatC= 3.99D-07 BMatP= 4.92D-04
 IDIUse=1 WtCom= 1.00D+00 WtEn= 0.00D+00
 Coeff-Com: -0.554D-03-0.188D-01-0.165D+00 0.118D+01
 Coeff:     -0.554D-03-0.188D-01-0.165D+00 0.118D+01
 Gap=     0.557 Goal=   None    Shift=    0.000
 RMSDP=5.71D-06 MaxDP=3.21D-04 DE=-1.44D-04 OVMax= 4.11D-04

 Cycle   5  Pass 1  IDiag  1:
 RMSU=  1.79D-06    CP:  1.01D+00  6.80D-01  1.02D+00  1.20D+00
 FoFJK:  IHMeth= 1 ICntrl=     0 DoSepK=T KAlg= 1 I1Cent= 0 FoldK=F
 E= -2753.47790864191     Delta-E=       -0.000000512658 Rises=F Damp=F
 DIIS: error= 2.41D-06 at cycle   5 NSaved=   5.
 NSaved= 5 IEnMin= 5 EnMin= -2753.47790864191     IErMin= 5 ErrMin= 2.41D-06
 ErrMax= 2.41D-06 EMaxC= 1.00D-01 BMatC= 2.19D-09 BMatP= 3.99D-07
 IDIUse=1 WtCom= 1.00D+00 WtEn= 0.00D+00
 Coeff-Com:  0.964D-04 0.190D-03-0.159D-02-0.163D-01 0.102D+01
 Coeff:      0.964D-04 0.190D-03-0.159D-02-0.163D-01 0.102D+01
 Gap=     0.557 Goal=   None    Shift=    0.000
 RMSDP=3.26D-07 MaxDP=2.16D-05 DE=-5.13D-07 OVMax= 1.49D-05

 Cycle   6  Pass 1  IDiag  1:
 RMSU=  1.58D-07    CP:  1.01D+00  6.80D-01  1.02D+00  1.21D+00  1.03D+00
 FoFJK:  IHMeth= 1 ICntrl=     0 DoSepK=T KAlg= 1 I1Cent= 0 FoldK=F
 E= -2753.47790864383     Delta-E=       -0.000000001917 Rises=F Damp=F
 DIIS: error= 4.02D-07 at cycle   6 NSaved=   6.
 NSaved= 6 IEnMin= 6 EnMin= -2753.47790864383     IErMin= 6 ErrMin= 4.02D-07
 ErrMax= 4.02D-07 EMaxC= 1.00D-01 BMatC= 7.69D-11 BMatP= 2.19D-09
 IDIUse=1 WtCom= 1.00D+00 WtEn= 0.00D+00
 Coeff-Com:  0.352D-05 0.179D-03 0.181D-02-0.167D-01 0.338D-01 0.981D+00
 Coeff:      0.352D-05 0.179D-03 0.181D-02-0.167D-01 0.338D-01 0.981D+00
 Gap=     0.557 Goal=   None    Shift=    0.000
 RMSDP=4.87D-08 MaxDP=2.53D-06 DE=-1.92D-09 OVMax= 3.12D-06

 Cycle   7  Pass 1  IDiag  1:
 RMSU=  1.09D-08    CP:  1.01D+00  6.80D-01  1.02D+00  1.21D+00  1.04D+00
                    CP:  1.10D+00
 FoFJK:  IHMeth= 1 ICntrl=     0 DoSepK=T KAlg= 1 I1Cent= 0 FoldK=F
 E= -2753.47790864387     Delta-E=       -0.000000000035 Rises=F Damp=F
 DIIS: error= 2.94D-08 at cycle   7 NSaved=   7.
 NSaved= 7 IEnMin= 7 EnMin= -2753.47790864387     IErMin= 7 ErrMin= 2.94D-08
 ErrMax= 2.94D-08 EMaxC= 1.00D-01 BMatC= 4.47D-13 BMatP= 7.69D-11
 IDIUse=1 WtCom= 1.00D+00 WtEn= 0.00D+00
 Coeff-Com:  0.228D-06 0.320D-04 0.336D-03-0.296D-02 0.282D-02 0.159D+00
 Coeff-Com:  0.840D+00
 Coeff:      0.228D-06 0.320D-04 0.336D-03-0.296D-02 0.282D-02 0.159D+00
 Coeff:      0.840D+00
 Gap=     0.557 Goal=   None    Shift=    0.000
 RMSDP=5.45D-09 MaxDP=1.65D-07 DE=-3.55D-11 OVMax= 2.46D-07

 SCF Done:  E(RLC-wPBE) =  -2753.47790864     A.U. after    7 cycles
             Convg  =    0.5446D-08             -V/T =  2.0014
 KE= 2.749511807256D+03 PE=-6.579045779265D+03 EE= 1.076056063365D+03
 Leave Link  502 at Fri May  8 04:27:16 2020, MaxMem= 1073741824 cpu:     169.0
 (Enter /home/matheus/.gaussian/g09/l601.exe)
 Copying SCF densities to generalized density rwf, IOpCl= 0 IROHF=0.

 **********************************************************************

            Population analysis using the SCF density.

 **********************************************************************

 Orbital symmetries:
       Occupied  (A) (A) (A) (A) (A) (A) (A) (A) (A) (A) (A) (A)
                 (A) (A) (A) (A) (A) (A)
       Virtual   (A) (A) (A) (A) (A) (A) (A) (A) (A) (A) (A) (A)
                 (A) (A) (A) (A) (A) (A) (A) (A) (A) (A) (A) (A)
                 (A) (A) (A) (A) (A) (A) (A) (A) (A) (A) (A) (A)
                 (A) (A) (A) (A) (A) (A) (A) (A) (A) (A) (A) (A)
                 (A) (A) (A) (A) (A) (A) (A) (A) (A) (A) (A) (A)
                 (A) (A) (A) (A) (A) (A) (A) (A) (A) (A) (A) (A)
                 (A) (A) (A) (A) (A) (A) (A) (A) (A) (A) (A) (A)
                 (A) (A) (A) (A) (A) (A) (A) (A) (A) (A) (A) (A)
                 (A) (A) (A) (A) (A) (A) (A) (A) (A) (A) (A) (A)
                 (A) (A) (A) (A) (A) (A) (A) (A) (A) (A) (A) (A)
                 (A) (A) (A) (A) (A) (A) (A) (A) (A) (A) (A) (A)
                 (A) (A) (A) (A) (A) (A) (A) (A) (A) (A) (A) (A)
                 (A) (A) (A) (A) (A) (A) (A) (A) (A) (A) (A) (A)
                 (A) (A) (A) (A) (A) (A) (A) (A) (A) (A) (A) (A)
                 (A) (A) (A) (A) (A) (A) (A) (A) (A) (A) (A)
 The electronic state is 1-A.
 Alpha  occ. eigenvalues -- -511.18555 -66.73377 -60.39486 -60.39483 -60.39483
 Alpha  occ. eigenvalues --   -9.66931  -7.41183  -7.41181  -7.41180  -3.35590
 Alpha  occ. eigenvalues --   -3.35589  -3.35589  -3.35587  -3.35587  -1.08851
 Alpha  occ. eigenvalues --   -0.52697  -0.52694  -0.52692
 Alpha virt. eigenvalues --    0.03020   0.04952   0.08521   0.09249   0.12102
 Alpha virt. eigenvalues --    0.12578   0.13413   0.13634   0.16042   0.17128
 Alpha virt. eigenvalues --    0.17859   0.19373   0.21087   0.26238   0.27448
 Alpha virt. eigenvalues --    0.28051   0.29153   0.31787   0.33532   0.35619
 Alpha virt. eigenvalues --    0.35872   0.38025   0.38927   0.40425   0.41651
 Alpha virt. eigenvalues --    0.42147   0.45043   0.54348   0.56185   0.59603
 Alpha virt. eigenvalues --    0.60441   0.66268   0.68323   0.69477   0.71983
 Alpha virt. eigenvalues --    0.73511   0.75512   0.77756   0.79017   0.79752
 Alpha virt. eigenvalues --    0.81109   0.81812   0.85077   0.85905   0.88417
 Alpha virt. eigenvalues --    0.89223   0.89964   0.90884   0.92447   0.96941
 Alpha virt. eigenvalues --    0.98100   0.99564   1.00944   1.01800   1.04168
 Alpha virt. eigenvalues --    1.05528   1.07887   1.09687   1.13680   1.17189
 Alpha virt. eigenvalues --    1.18274   1.23009   1.24525   1.30826   1.32701
 Alpha virt. eigenvalues --    1.34070   1.39823   1.46545   1.48879   1.51160
 Alpha virt. eigenvalues --    1.55688   1.57794   1.60667   1.70671   1.79184
 Alpha virt. eigenvalues --    1.81713   1.82879   1.86763   1.95407   2.20008
 Alpha virt. eigenvalues --    2.23990   2.25109   2.30699   2.31031   2.34060
 Alpha virt. eigenvalues --    2.35344   2.37014   2.38266   2.38838   2.42442
 Alpha virt. eigenvalues --    2.45040   2.46645   2.46928   2.52304   2.53708
 Alpha virt. eigenvalues --    2.55003   2.56677   2.58312   2.61384   2.62658
 Alpha virt. eigenvalues --    2.64869   2.66304   2.68513   2.72160   2.73753
 Alpha virt. eigenvalues --    2.75834   2.80935   2.86267   2.87468   2.90989
 Alpha virt. eigenvalues --    2.97321   2.99731   3.06386   3.08370   3.18114
 Alpha virt. eigenvalues --    3.19602   3.28376   3.31851   3.40026   3.45173
 Alpha virt. eigenvalues --    3.61354   3.66770   3.81849   3.86749   4.03046
 Alpha virt. eigenvalues --    4.40148   4.50038   4.51704   4.59079   4.67907
 Alpha virt. eigenvalues --    4.72294   4.85548   4.86493   4.97920   5.09721
 Alpha virt. eigenvalues --    5.10341   5.27643   5.55564   5.69753   5.84902
 Alpha virt. eigenvalues --    5.88781   5.95593   6.16377   6.80098   6.82304
 Alpha virt. eigenvalues --    7.37793   7.44695   7.56877   7.67135   7.72377
 Alpha virt. eigenvalues --    7.80972   7.97539   8.16252   8.17216   8.23829
 Alpha virt. eigenvalues --    8.34417   8.50031   8.59451   8.89863   9.59990
 Alpha virt. eigenvalues --    9.74673   9.83740   9.86355   9.94605   9.98063
 Alpha virt. eigenvalues --   10.16792  10.24295  10.50502  10.94579  11.56434
 Alpha virt. eigenvalues --   11.60247  11.79737  12.00998  12.07544  13.19662
 Alpha virt. eigenvalues --   13.70970  14.51702  62.77235  64.67528
          Condensed to atoms (all electrons):
              1          2          3          4          5
     1  O    0.000979  -0.001191  -0.000374   0.000998  -0.008204
     2  O   -0.001191   0.004806   0.000321  -0.003835   0.000014
     3  H   -0.000374   0.000321   0.000404  -0.000164  -0.004013
     4  H    0.000998  -0.003835  -0.000164   0.004608  -0.029696
     5  Kr  -0.008204   0.000014  -0.004013  -0.029696  36.081494
 Mulliken atomic charges:
              1
     1  O    0.007792
     2  O   -0.000115
     3  H    0.003827
     4  H    0.028090
     5  Kr  -0.039594
 Sum of Mulliken atomic charges =   0.00000
 Mulliken charges with hydrogens summed into heavy atoms:
              1
     1  O    0.011619
     2  O    0.027976
     5  Kr  -0.039594
 Sum of Mulliken charges with hydrogens summed into heavy atoms =   0.00000
          Condensed to fragments (all electrons):
     1       0.039594
     2      -0.039594
 Electronic spatial extent (au):  <R**2>=            161.2489
 Charge=              0.0000 electrons
 Dipole moment (field-independent basis, Debye):
    X=             -0.0009    Y=              0.0003    Z=              0.0001  Tot=              0.0010
 Quadrupole moment (field-independent basis, Debye-Ang):
   XX=            -17.5379   YY=            -17.5502   ZZ=            -17.5573
   XY=             -0.0021   XZ=             -0.0022   YZ=             -0.0011
 Traceless Quadrupole moment (field-independent basis, Debye-Ang):
   XX=              0.0105   YY=             -0.0017   ZZ=             -0.0088
   XY=             -0.0021   XZ=             -0.0022   YZ=             -0.0011
 Octapole moment (field-independent basis, Debye-Ang**2):
  XXX=            -51.2747  YYY=              0.2523  ZZZ=              0.1724  XYY=            -17.1051
  XXY=              0.0795  XXZ=              0.0544  XZZ=            -17.1088  YZZ=              0.0842
  YYZ=              0.0582  XYZ=              0.0000
 Hexadecapole moment (field-independent basis, Debye-Ang**3):
 XXXX=           -117.9352 YYYY=            -18.0307 ZZZZ=            -18.0531 XXXY=              0.2385
 XXXZ=              0.1616 YYYX=              0.2380 YYYZ=             -0.0013 ZZZX=              0.1641
 ZZZY=             -0.0015 XXYY=            -22.6710 XXZZ=            -22.6764 YYZZ=             -6.0130
 XXYZ=             -0.0016 YYXZ=              0.0544 ZZXY=              0.0786
 N-N= 0.000000000000D+00 E-N=-6.579045776307D+03  KE= 2.749511807256D+03
 No NMR shielding tensors so no spin-rotation constants.
 Leave Link  601 at Fri May  8 04:27:16 2020, MaxMem= 1073741824 cpu:       0.8
 (Enter /home/matheus/.gaussian/g09/l122.exe)
 Counterpoise: doing MCBS calculation for fragment   1
 Leave Link  122 at Fri May  8 04:27:16 2020, MaxMem= 1073741824 cpu:       0.0
 (Enter /home/matheus/.gaussian/g09/l301.exe)
 Basis read from rwf:  (5D, 7F)
 No pseudopotential information found on rwf file.
 There are   138 symmetry adapted basis functions of A   symmetry.
 Integral buffers will be    131072 words long.
 Raffenetti 2 integral format.
 Two-electron integral symmetry is turned on.
   138 basis functions,   198 primitive gaussians,   160 cartesian basis functions
     9 alpha electrons        9 beta electrons
       nuclear repulsion energy        36.6440881780 Hartrees.
 IExCor=32609 DFT=T Ex+Corr=LC-wPBE ExCW=0 ScaHFX=  1.000000
 ScaDFX=  1.000000  0.000000  1.000000  1.000000 ScalE2=  1.000000  1.000000
 IRadAn=      5 IRanWt=     -1 IRanGd=            0 ICorTp=0
  HFx wShort=  0.000000 wLong=  0.550000 cFull=  0.000000 cShort=  0.000000 cLong=  1.000000
  DFx wShort=  0.000000 wLong=  0.550000 cFull=  0.000000 cShort=  0.000000 cLong=  1.000000
 NAtoms=    5 NActive=    4 NUniq=    4 SFac= 1.00D+00 NAtFMM=   60 NAOKFM=F Big=F
 No density basis found on file   718.
 Leave Link  301 at Fri May  8 04:27:16 2020, MaxMem= 1073741824 cpu:       0.2
 (Enter /home/matheus/.gaussian/g09/l302.exe)
 NPDir=0 NMtPBC=     1 NCelOv=     1 NCel=       1 NClECP=     1 NCelD=      1
         NCelK=      1 NCelE2=     1 NClLst=     1 CellRange=     0.0.
 One-electron integrals computed using PRISM.
 NBasis=   138 RedAO= T  NBF=   138
 NBsUse=   138 1.00D-06 NBFU=   138
 Precomputing XC quadrature grid using
 IXCGrd= 2 IRadAn=           5 IRanWt=          -1 IRanGd=           0 AccXCQ= 0.00D+00.
 NRdTot=     344 NPtTot=       92556 NUsed=       95038 NTot=       95070
 NSgBfM=   160   160   160   160   160 NAtAll=     4     4.
 Leave Link  302 at Fri May  8 04:27:16 2020, MaxMem= 1073741824 cpu:       0.7
 (Enter /home/matheus/.gaussian/g09/l303.exe)
 DipDrv:  MaxL=1.
 Leave Link  303 at Fri May  8 04:27:16 2020, MaxMem= 1073741824 cpu:       0.1
 (Enter /home/matheus/.gaussian/g09/l401.exe)
 Harris functional with IExCor=32609 diagonalized for initial guess.
 ExpMin= 2.53D-02 ExpMax= 1.53D+04 ExpMxC= 5.22D+02 IAcc=3 IRadAn=         5 AccDes= 0.00D+00
 HarFok:  IExCor=32609 AccDes= 0.00D+00 IRadAn=         5 IDoV= 1
 ScaDFX=  1.000000  1.000000  1.000000  1.000000
 FoFCou: FMM=F IPFlag=           0 FMFlag=      100000 FMFlg1=           0
         NFxFlg=           0 DoJE=T BraDBF=F KetDBF=T FulRan=T
         Omega=  0.000000  0.000000  1.000000  0.000000  0.000000 ICntrl=     500 IOpCl=  0
         NMat0=    1 NMatS0=    1 NMatT0=    0 NMatD0=    1 NMtDS0=    0 NMtDT0=    0
         I1Cent=           4 NGrid=           0.
 Petite list used in FoFCou.
 Harris En= -151.501697703283    
 Initial guess orbital symmetries:
       Occupied  (A) (A) (A) (A) (A) (A) (A) (A) (A)
       Virtual   (A) (A) (A) (A) (A) (A) (A) (A) (A) (A) (A) (A)
                 (A) (A) (A) (A) (A) (A) (A) (A) (A) (A) (A) (A)
                 (A) (A) (A) (A) (A) (A) (A) (A) (A) (A) (A) (A)
                 (A) (A) (A) (A) (A) (A) (A) (A) (A) (A) (A) (A)
                 (A) (A) (A) (A) (A) (A) (A) (A) (A) (A) (A) (A)
                 (A) (A) (A) (A) (A) (A) (A) (A) (A) (A) (A) (A)
                 (A) (A) (A) (A) (A) (A) (A) (A) (A) (A) (A) (A)
                 (A) (A) (A) (A) (A) (A) (A) (A) (A) (A) (A) (A)
                 (A) (A) (A) (A) (A) (A) (A) (A) (A) (A) (A) (A)
                 (A) (A) (A) (A) (A) (A) (A) (A) (A) (A) (A) (A)
                 (A) (A) (A) (A) (A) (A) (A) (A) (A)
 The electronic state of the initial guess is 1-A.
 Leave Link  401 at Fri May  8 04:27:16 2020, MaxMem= 1073741824 cpu:       2.1
 (Enter /home/matheus/.gaussian/g09/l502.exe)
 Closed shell SCF:
 Requested convergence on RMS density matrix=1.00D-08 within 128 cycles.
 Requested convergence on MAX density matrix=1.00D-06.
 Requested convergence on             energy=1.00D-06.
 No special actions if energy rises.
 Using DIIS extrapolation, IDIIS=  1040.
 Integral symmetry usage will be decided dynamically.
        94980 words used for storage of precomputed grid.
 IEnd=      192360 IEndB=      192360 NGot=  1073741824 MDV=  1073591865
 LenX=  1073591865 LenY=  1073565824
 Fock matrices will be formed incrementally for  20 cycles.

 Cycle   1  Pass 1  IDiag  1:
 FoFJK:  IHMeth= 1 ICntrl=     0 DoSepK=T KAlg= 1 I1Cent= 0 FoldK=F
 FoFCou: FMM=F IPFlag=           0 FMFlag=      100000 FMFlg1=           0
         NFxFlg=           0 DoJE=T BraDBF=F KetDBF=F FulRan=T
         Omega=  0.000000  0.000000  1.000000  0.000000  0.000000 ICntrl=     500 IOpCl=  0
         NMat0=    1 NMatS0=    1 NMatT0=    0 NMatD0=    1 NMtDS0=    0 NMtDT0=    0
         I1Cent=           0 NGrid=           0.
 Symmetry not used in FoFCou.
 E= -151.504383873569    
 DIIS: error= 1.75D-02 at cycle   1 NSaved=   1.
 NSaved= 1 IEnMin= 1 EnMin= -151.504383873569     IErMin= 1 ErrMin= 1.75D-02
 ErrMax= 1.75D-02 EMaxC= 1.00D-01 BMatC= 4.21D-02 BMatP= 4.21D-02
 IDIUse=3 WtCom= 8.25D-01 WtEn= 1.75D-01
 Coeff-Com:  0.100D+01
 Coeff-En:   0.100D+01
 Coeff:      0.100D+01
 Gap=     0.561 Goal=   None    Shift=    0.000
 GapD=    0.561 DampG=2.000 DampE=0.500 DampFc=1.0000 IDamp=-1.
 RMSDP=1.05D-03 MaxDP=2.34D-02              OVMax= 5.55D-02

 Cycle   2  Pass 1  IDiag  1:
 RMSU=  7.39D-04    CP:  9.91D-01
 FoFJK:  IHMeth= 1 ICntrl=     0 DoSepK=T KAlg= 1 I1Cent= 0 FoldK=F
 E= -151.521389987515     Delta-E=       -0.017006113946 Rises=F Damp=F
 DIIS: error= 1.08D-02 at cycle   2 NSaved=   2.
 NSaved= 2 IEnMin= 2 EnMin= -151.521389987515     IErMin= 2 ErrMin= 1.08D-02
 ErrMax= 1.08D-02 EMaxC= 1.00D-01 BMatC= 1.71D-02 BMatP= 4.21D-02
 IDIUse=3 WtCom= 8.92D-01 WtEn= 1.08D-01
 Coeff-Com:  0.377D+00 0.623D+00
 Coeff-En:   0.134D+00 0.866D+00
 Coeff:      0.351D+00 0.649D+00
 Gap=     0.477 Goal=   None    Shift=    0.000
 RMSDP=6.12D-04 MaxDP=2.23D-02 DE=-1.70D-02 OVMax= 2.42D-02

 Cycle   3  Pass 1  IDiag  1:
 RMSU=  3.34D-04    CP:  9.87D-01  6.32D-01
 FoFJK:  IHMeth= 1 ICntrl=     0 DoSepK=T KAlg= 1 I1Cent= 0 FoldK=F
 E= -151.531147222523     Delta-E=       -0.009757235008 Rises=F Damp=F
 DIIS: error= 2.14D-03 at cycle   3 NSaved=   3.
 NSaved= 3 IEnMin= 3 EnMin= -151.531147222523     IErMin= 3 ErrMin= 2.14D-03
 ErrMax= 2.14D-03 EMaxC= 1.00D-01 BMatC= 4.54D-04 BMatP= 1.71D-02
 IDIUse=3 WtCom= 9.79D-01 WtEn= 2.14D-02
 Coeff-Com:  0.411D-01 0.161D+00 0.797D+00
 Coeff-En:   0.000D+00 0.000D+00 0.100D+01
 Coeff:      0.402D-01 0.158D+00 0.802D+00
 Gap=     0.469 Goal=   None    Shift=    0.000
 RMSDP=7.94D-05 MaxDP=1.42D-03 DE=-9.76D-03 OVMax= 4.23D-03

 Cycle   4  Pass 1  IDiag  1:
 RMSU=  3.86D-05    CP:  9.85D-01  6.83D-01  1.01D+00
 FoFJK:  IHMeth= 1 ICntrl=     0 DoSepK=T KAlg= 1 I1Cent= 0 FoldK=F
 E= -151.531433567970     Delta-E=       -0.000286345447 Rises=F Damp=F
 DIIS: error= 2.72D-04 at cycle   4 NSaved=   4.
 NSaved= 4 IEnMin= 4 EnMin= -151.531433567970     IErMin= 4 ErrMin= 2.72D-04
 ErrMax= 2.72D-04 EMaxC= 1.00D-01 BMatC= 1.02D-05 BMatP= 4.54D-04
 IDIUse=3 WtCom= 9.97D-01 WtEn= 2.72D-03
 Coeff-Com: -0.978D-02-0.126D-01 0.861D-01 0.936D+00
 Coeff-En:   0.000D+00 0.000D+00 0.000D+00 0.100D+01
 Coeff:     -0.975D-02-0.126D-01 0.859D-01 0.936D+00
 Gap=     0.470 Goal=   None    Shift=    0.000
 RMSDP=1.86D-05 MaxDP=7.46D-04 DE=-2.86D-04 OVMax= 7.89D-04

 Cycle   5  Pass 1  IDiag  1:
 RMSU=  6.22D-06    CP:  9.85D-01  6.81D-01  1.05D+00  1.05D+00
 FoFJK:  IHMeth= 1 ICntrl=     0 DoSepK=T KAlg= 1 I1Cent= 0 FoldK=F
 E= -151.531442607537     Delta-E=       -0.000009039567 Rises=F Damp=F
 DIIS: error= 6.24D-05 at cycle   5 NSaved=   5.
 NSaved= 5 IEnMin= 5 EnMin= -151.531442607537     IErMin= 5 ErrMin= 6.24D-05
 ErrMax= 6.24D-05 EMaxC= 1.00D-01 BMatC= 2.22D-07 BMatP= 1.02D-05
 IDIUse=1 WtCom= 1.00D+00 WtEn= 0.00D+00
 Coeff-Com: -0.254D-03-0.182D-02-0.333D-01-0.123D+00 0.116D+01
 Coeff:     -0.254D-03-0.182D-02-0.333D-01-0.123D+00 0.116D+01
 Gap=     0.470 Goal=   None    Shift=    0.000
 RMSDP=4.76D-06 MaxDP=8.36D-05 DE=-9.04D-06 OVMax= 3.00D-04

 Cycle   6  Pass 1  IDiag  1:
 RMSU=  1.61D-06    CP:  9.85D-01  6.82D-01  1.05D+00  1.10D+00  1.32D+00
 FoFJK:  IHMeth= 1 ICntrl=     0 DoSepK=T KAlg= 1 I1Cent= 0 FoldK=F
 E= -151.531443184233     Delta-E=       -0.000000576696 Rises=F Damp=F
 DIIS: error= 1.01D-05 at cycle   6 NSaved=   6.
 NSaved= 6 IEnMin= 6 EnMin= -151.531443184233     IErMin= 6 ErrMin= 1.01D-05
 ErrMax= 1.01D-05 EMaxC= 1.00D-01 BMatC= 1.25D-08 BMatP= 2.22D-07
 IDIUse=1 WtCom= 1.00D+00 WtEn= 0.00D+00
 Coeff-Com:  0.261D-03 0.777D-03 0.506D-02 0.191D-02-0.247D+00 0.124D+01
 Coeff:      0.261D-03 0.777D-03 0.506D-02 0.191D-02-0.247D+00 0.124D+01
[...]
 Symmetry not used in FoFCou.
 E= -2753.47778037456    
 DIIS: error= 2.01D-04 at cycle   1 NSaved=   1.
 NSaved= 1 IEnMin= 1 EnMin= -2753.47778037456     IErMin= 1 ErrMin= 2.01D-04
 ErrMax= 2.01D-04 EMaxC= 1.00D-01 BMatC= 4.97D-06 BMatP= 4.97D-06
 IDIUse=3 WtCom= 9.98D-01 WtEn= 2.01D-03
 Coeff-Com:  0.100D+01
 Coeff-En:   0.100D+01
 Coeff:      0.100D+01
 Gap=     0.556 Goal=   None    Shift=    0.000
 RMSDP=1.29D-05 MaxDP=6.78D-04              OVMax= 3.18D-04

 Cycle   2  Pass 1  IDiag  1:
 RMSU=  9.12D-06    CP:  1.00D+00
 FoFJK:  IHMeth= 1 ICntrl=     0 DoSepK=T KAlg= 1 I1Cent= 0 FoldK=F
 E= -2753.47778096529     Delta-E=       -0.000000590730 Rises=F Damp=F
 DIIS: error= 3.60D-06 at cycle   2 NSaved=   2.
 NSaved= 2 IEnMin= 2 EnMin= -2753.47778096529     IErMin= 2 ErrMin= 3.60D-06
 ErrMax= 3.60D-06 EMaxC= 1.00D-01 BMatC= 4.06D-09 BMatP= 4.97D-06
 IDIUse=1 WtCom= 1.00D+00 WtEn= 0.00D+00
 Coeff-Com: -0.847D-02 0.101D+01
 Coeff:     -0.847D-02 0.101D+01
 Gap=     0.555 Goal=   None    Shift=    0.000
 RMSDP=1.40D-06 MaxDP=6.14D-05 DE=-5.91D-07 OVMax= 4.77D-05

 Cycle   3  Pass 1  IDiag  1:
 RMSU=  5.33D-07    CP:  1.00D+00  1.09D+00
 FoFJK:  IHMeth= 1 ICntrl=     0 DoSepK=T KAlg= 1 I1Cent= 0 FoldK=F
 E= -2753.47778097241     Delta-E=       -0.000000007115 Rises=F Damp=F
 DIIS: error= 5.95D-07 at cycle   3 NSaved=   3.
 NSaved= 3 IEnMin= 3 EnMin= -2753.47778097241     IErMin= 3 ErrMin= 5.95D-07
 ErrMax= 5.95D-07 EMaxC= 1.00D-01 BMatC= 9.64D-11 BMatP= 4.06D-09
 IDIUse=1 WtCom= 1.00D+00 WtEn= 0.00D+00
 Coeff-Com:  0.365D-03-0.131D+00 0.113D+01
 Coeff:      0.365D-03-0.131D+00 0.113D+01
 Gap=     0.555 Goal=   None    Shift=    0.000
 RMSDP=2.09D-07 MaxDP=9.76D-06 DE=-7.11D-09 OVMax= 9.56D-06

 Cycle   4  Pass 1  IDiag  1:
 RMSU=  4.89D-08    CP:  1.00D+00  1.10D+00  1.22D+00
 FoFJK:  IHMeth= 1 ICntrl=     0 DoSepK=T KAlg= 1 I1Cent= 0 FoldK=F
 E= -2753.47778097261     Delta-E=       -0.000000000201 Rises=F Damp=F
 DIIS: error= 2.16D-07 at cycle   4 NSaved=   4.
 NSaved= 4 IEnMin= 4 EnMin= -2753.47778097261     IErMin= 4 ErrMin= 2.16D-07
 ErrMax= 2.16D-07 EMaxC= 1.00D-01 BMatC= 5.12D-12 BMatP= 9.64D-11
 IDIUse=1 WtCom= 1.00D+00 WtEn= 0.00D+00
 Coeff-Com:  0.168D-03-0.371D-01 0.213D+00 0.824D+00
 Coeff:      0.168D-03-0.371D-01 0.213D+00 0.824D+00
 Gap=     0.555 Goal=   None    Shift=    0.000
 RMSDP=1.83D-08 MaxDP=7.43D-07 DE=-2.01D-10 OVMax= 8.75D-07

 Cycle   5  Pass 1  IDiag  1:
 RMSU=  6.83D-09    CP:  1.00D+00  1.10D+00  1.24D+00  1.13D+00
 FoFJK:  IHMeth= 1 ICntrl=     0 DoSepK=T KAlg= 1 I1Cent= 0 FoldK=F
 E= -2753.47778097262     Delta-E=       -0.000000000006 Rises=F Damp=F
 DIIS: error= 2.71D-08 at cycle   5 NSaved=   5.
 NSaved= 5 IEnMin= 5 EnMin= -2753.47778097262     IErMin= 5 ErrMin= 2.71D-08
 ErrMax= 2.71D-08 EMaxC= 1.00D-01 BMatC= 2.03D-13 BMatP= 5.12D-12
 IDIUse=1 WtCom= 1.00D+00 WtEn= 0.00D+00
 Coeff-Com: -0.207D-04 0.748D-02-0.627D-01-0.518D-02 0.106D+01
 Coeff:     -0.207D-04 0.748D-02-0.627D-01-0.518D-02 0.106D+01
 Gap=     0.555 Goal=   None    Shift=    0.000
 RMSDP=7.00D-09 MaxDP=3.71D-07 DE=-5.91D-12 OVMax= 3.74D-07

 SCF Done:  E(RLC-wPBE) =  -2753.47778097     A.U. after    5 cycles
             Convg  =    0.7001D-08             -V/T =  2.0014
 KE= 2.749555204780D+03 PE=-6.579093119286D+03 EE= 1.076060133533D+03
 Leave Link  502 at Fri May  8 04:48:15 2020, MaxMem= 1073741824 cpu:      89.0
 (Enter /home/matheus/.gaussian/g09/l122.exe)
 Restoring MOs from calculation   4 to rwf.
 Counterpoise: doing MCBS calculation for fragment   1
 Leave Link  122 at Fri May  8 04:48:15 2020, MaxMem= 1073741824 cpu:       0.0
 (Enter /home/matheus/.gaussian/g09/l301.exe)
 Basis read from rwf:  (5D, 7F)
 No pseudopotential information found on rwf file.
 There are   138 symmetry adapted basis functions of A   symmetry.
 Integral buffers will be    131072 words long.
 Raffenetti 2 integral format.
 Two-electron integral symmetry is turned on.
   138 basis functions,   198 primitive gaussians,   160 cartesian basis functions
     9 alpha electrons        9 beta electrons
       nuclear repulsion energy        36.6440881780 Hartrees.
 IExCor=32609 DFT=T Ex+Corr=LC-wPBE ExCW=0 ScaHFX=  1.000000
 ScaDFX=  1.000000  0.000000  1.000000  1.000000 ScalE2=  1.000000  1.000000
 IRadAn=      5 IRanWt=     -1 IRanGd=            0 ICorTp=0
  HFx wShort=  0.000000 wLong=  0.550000 cFull=  0.000000 cShort=  0.000000 cLong=  1.000000
  DFx wShort=  0.000000 wLong=  0.550000 cFull=  0.000000 cShort=  0.000000 cLong=  1.000000
 NAtoms=    5 NActive=    4 NUniq=    4 SFac= 1.00D+00 NAtFMM=   60 NAOKFM=F Big=F
 No density basis found on file   718.
 Leave Link  301 at Fri May  8 04:48:15 2020, MaxMem= 1073741824 cpu:       0.2
 (Enter /home/matheus/.gaussian/g09/l302.exe)
 NPDir=0 NMtPBC=     1 NCelOv=     1 NCel=       1 NClECP=     1 NCelD=      1
         NCelK=      1 NCelE2=     1 NClLst=     1 CellRange=     0.0.
 One-electron integrals computed using PRISM.
 NBasis=   138 RedAO= T  NBF=   138
 NBsUse=   138 1.00D-06 NBFU=   138
 Precomputing XC quadrature grid using
 IXCGrd= 2 IRadAn=           5 IRanWt=          -1 IRanGd=           0 AccXCQ= 0.00D+00.
 NRdTot=     344 NPtTot=       92556 NUsed=       95038 NTot=       95070
 NSgBfM=   160   160   160   160   160 NAtAll=     4     4.
 Leave Link  302 at Fri May  8 04:48:16 2020, MaxMem= 1073741824 cpu:       0.9
 (Enter /home/matheus/.gaussian/g09/l303.exe)
 DipDrv:  MaxL=1.
 Leave Link  303 at Fri May  8 04:48:16 2020, MaxMem= 1073741824 cpu:       0.2
 (Enter /home/matheus/.gaussian/g09/l401.exe)
 Initial guess read from the read-write file.
 Guess basis will be translated and rotated to current coordinates.
 Initial guess orbital symmetries:
       Occupied  (A) (A) (A) (A) (A) (A) (A) (A) (A)
       Virtual   (A) (A) (A) (A) (A) (A) (A) (A) (A) (A) (A) (A)
                 (A) (A) (A) (A) (A) (A) (A) (A) (A) (A) (A) (A)
                 (A) (A) (A) (A) (A) (A) (A) (A) (A) (A) (A) (A)
                 (A) (A) (A) (A) (A) (A) (A) (A) (A) (A) (A) (A)
                 (A) (A) (A) (A) (A) (A) (A) (A) (A) (A) (A) (A)
                 (A) (A) (A) (A) (A) (A) (A) (A) (A) (A) (A) (A)
                 (A) (A) (A) (A) (A) (A) (A) (A) (A) (A) (A) (A)
                 (A) (A) (A) (A) (A) (A) (A) (A) (A) (A) (A) (A)
                 (A) (A) (A) (A) (A) (A) (A) (A) (A) (A) (A) (A)
                 (A) (A) (A) (A) (A) (A) (A) (A) (A) (A) (A) (A)
                 (A) (A) (A) (A) (A) (A) (A) (A) (A)
 The electronic state of the initial guess is 1-A.
 Generating alternative initial guess.
 Harris functional with IExCor=32609 diagonalized for initial guess.
 ExpMin= 2.53D-02 ExpMax= 1.53D+04 ExpMxC= 5.22D+02 IAcc=3 IRadAn=         5 AccDes= 0.00D+00
 HarFok:  IExCor=32609 AccDes= 0.00D+00 IRadAn=         5 IDoV= 1
 ScaDFX=  1.000000  1.000000  1.000000  1.000000
 FoFCou: FMM=F IPFlag=           0 FMFlag=      100000 FMFlg1=           0
         NFxFlg=           0 DoJE=T BraDBF=F KetDBF=T FulRan=T
         Omega=  0.000000  0.000000  1.000000  0.000000  0.000000 ICntrl=     500 IOpCl=  0
         NMat0=    1 NMatS0=    1 NMatT0=    0 NMatD0=    1 NMtDS0=    0 NMtDT0=    0
         I1Cent=           4 NGrid=           0.
 Petite list used in FoFCou.
 Harris En= -151.501697769253    
 Leave Link  401 at Fri May  8 04:48:16 2020, MaxMem= 1073741824 cpu:       2.5
 (Enter /home/matheus/.gaussian/g09/l502.exe)
 Closed shell SCF:
 Requested convergence on RMS density matrix=1.00D-08 within 128 cycles.
 Requested convergence on MAX density matrix=1.00D-06.
 Requested convergence on             energy=1.00D-06.
 No special actions if energy rises.
 Using DIIS extrapolation, IDIIS=  1040.
 Integral symmetry usage will be decided dynamically.
        94980 words used for storage of precomputed grid.
 IEnd=      192360 IEndB=      192360 NGot=  1073741824 MDV=  1073591865
 LenX=  1073591865 LenY=  1073565824
 Fock matrices will be formed incrementally for  20 cycles.

 Cycle   1  Pass 1  IDiag  1:
 FoFJK:  IHMeth= 1 ICntrl=     0 DoSepK=T KAlg= 1 I1Cent= 0 FoldK=F
 FoFCou: FMM=F IPFlag=           0 FMFlag=      100000 FMFlg1=           0
         NFxFlg=           0 DoJE=T BraDBF=F KetDBF=F FulRan=T
         Omega=  0.000000  0.000000  1.000000  0.000000  0.000000 ICntrl=     500 IOpCl=  0
         NMat0=    1 NMatS0=    1 NMatT0=    0 NMatD0=    1 NMtDS0=    0 NMtDT0=    0
         I1Cent=           0 NGrid=           0.
 Symmetry not used in FoFCou.
 E= -151.531443125566    
 DIIS: error= 6.80D-06 at cycle   1 NSaved=   1.
 NSaved= 1 IEnMin= 1 EnMin= -151.531443125566     IErMin= 1 ErrMin= 6.80D-06
 ErrMax= 6.80D-06 EMaxC= 1.00D-01 BMatC= 9.55D-09 BMatP= 9.55D-09
 IDIUse=1 WtCom= 1.00D+00 WtEn= 0.00D+00
 Coeff-Com:  0.100D+01
 Coeff:      0.100D+01
 Gap=     0.470 Goal=   None    Shift=    0.000
 RMSDP=6.33D-07 MaxDP=1.38D-05              OVMax= 2.31D-05

 Cycle   2  Pass 1  IDiag  1:
 RMSU=  4.47D-07    CP:  1.00D+00
 FoFJK:  IHMeth= 1 ICntrl=     0 DoSepK=T KAlg= 1 I1Cent= 0 FoldK=F
 E= -151.531443130657     Delta-E=       -0.000000005091 Rises=F Damp=F
 DIIS: error= 1.41D-06 at cycle   2 NSaved=   2.
 NSaved= 2 IEnMin= 2 EnMin= -151.531443130657     IErMin= 2 ErrMin= 1.41D-06
 ErrMax= 1.41D-06 EMaxC= 1.00D-01 BMatC= 3.90D-10 BMatP= 9.55D-09
 IDIUse=1 WtCom= 1.00D+00 WtEn= 0.00D+00
 Coeff-Com: -0.142D+00 0.114D+01
 Coeff:     -0.142D+00 0.114D+01
 Gap=     0.470 Goal=   None    Shift=    0.000
 RMSDP=1.85D-07 MaxDP=5.04D-06 DE=-5.09D-09 OVMax= 9.05D-06

 Cycle   3  Pass 1  IDiag  1:
 RMSU=  6.71D-08    CP:  1.00D+00  1.25D+00
 FoFJK:  IHMeth= 1 ICntrl=     0 DoSepK=T KAlg= 1 I1Cent= 0 FoldK=F
 E= -151.531443131469     Delta-E=       -0.000000000812 Rises=F Damp=F
 DIIS: error= 4.04D-07 at cycle   3 NSaved=   3.
 NSaved= 3 IEnMin= 3 EnMin= -151.531443131469     IErMin= 3 ErrMin= 4.04D-07
 ErrMax= 4.04D-07 EMaxC= 1.00D-01 BMatC= 2.48D-11 BMatP= 3.90D-10
 IDIUse=1 WtCom= 1.00D+00 WtEn= 0.00D+00
 Coeff-Com:  0.216D-02-0.194D+00 0.119D+01
 Coeff:      0.216D-02-0.194D+00 0.119D+01
 Gap=     0.470 Goal=   None    Shift=    0.000
 RMSDP=5.81D-08 MaxDP=1.33D-06 DE=-8.12D-10 OVMax= 3.69D-06

 Cycle   4  Pass 1  IDiag  1:
 RMSU=  1.35D-08    CP:  1.00D+00  1.31D+00  1.41D+00
 FoFJK:  IHMeth= 1 ICntrl=     0 DoSepK=T KAlg= 1 I1Cent= 0 FoldK=F
 E= -151.531443131551     Delta-E=       -0.000000000082 Rises=F Damp=F
 DIIS: error= 1.48D-07 at cycle   4 NSaved=   4.
 NSaved= 4 IEnMin= 4 EnMin= -151.531443131551     IErMin= 4 ErrMin= 1.48D-07
 ErrMax= 1.48D-07 EMaxC= 1.00D-01 BMatC= 2.32D-12 BMatP= 2.48D-11
 IDIUse=1 WtCom= 1.00D+00 WtEn= 0.00D+00
 Coeff-Com:  0.840D-02-0.674D-01-0.895D-01 0.115D+01
 Coeff:      0.840D-02-0.674D-01-0.895D-01 0.115D+01
 Gap=     0.470 Goal=   None    Shift=    0.000
 RMSDP=1.91D-08 MaxDP=3.27D-07 DE=-8.19D-11 OVMax= 1.40D-06

 Cycle   5  Pass 1  IDiag  1:
 RMSU=  4.34D-09    CP:  1.00D+00  1.32D+00  1.55D+00  1.53D+00
 FoFJK:  IHMeth= 1 ICntrl=     0 DoSepK=T KAlg= 1 I1Cent= 0 FoldK=F
 E= -151.531443131560     Delta-E=       -0.000000000009 Rises=F Damp=F
 DIIS: error= 3.25D-08 at cycle   5 NSaved=   5.
 NSaved= 5 IEnMin= 5 EnMin= -151.531443131560     IErMin= 5 ErrMin= 3.25D-08
 ErrMax= 3.25D-08 EMaxC= 1.00D-01 BMatC= 2.11D-13 BMatP= 2.32D-12
 IDIUse=1 WtCom= 1.00D+00 WtEn= 0.00D+00
 Coeff-Com: -0.104D-02 0.223D-01-0.908D-01-0.477D-01 0.112D+01
 Coeff:     -0.104D-02 0.223D-01-0.908D-01-0.477D-01 0.112D+01
 Gap=     0.470 Goal=   None    Shift=    0.000
 RMSDP=5.73D-09 MaxDP=1.07D-07 DE=-9.09D-12 OVMax= 4.55D-07

 SCF Done:  E(RLC-wPBE) =  -151.531443132     A.U. after    5 cycles
             Convg  =    0.5732D-08             -V/T =  2.0070
 KE= 1.504814252944D+02 PE=-4.315811077115D+02 EE= 9.292415110744D+01
 Leave Link  502 at Fri May  8 04:48:21 2020, MaxMem= 1073741824 cpu:      36.8
 (Enter /home/matheus/.gaussian/g09/l122.exe)
 Restoring MOs from calculation   5 to rwf.
 Counterpoise: doing MCBS calculation for fragment   2
 Leave Link  122 at Fri May  8 04:48:21 2020, MaxMem= 1073741824 cpu:       0.0
 (Enter /home/matheus/.gaussian/g09/l301.exe)
 Basis read from rwf:  (5D, 7F)
 No pseudopotential information found on rwf file.
 There are    59 symmetry adapted basis functions of A   symmetry.
 Integral buffers will be    131072 words long.
 Raffenetti 2 integral format.
 Two-electron integral symmetry is turned on.
    59 basis functions,   217 primitive gaussians,    69 cartesian basis functions
    18 alpha electrons       18 beta electrons
       nuclear repulsion energy         0.0000000000 Hartrees.
 IExCor=32609 DFT=T Ex+Corr=LC-wPBE ExCW=0 ScaHFX=  1.000000
 ScaDFX=  1.000000  0.000000  1.000000  1.000000 ScalE2=  1.000000  1.000000
 IRadAn=      5 IRanWt=     -1 IRanGd=            0 ICorTp=0
  HFx wShort=  0.000000 wLong=  0.550000 cFull=  0.000000 cShort=  0.000000 cLong=  1.000000
  DFx wShort=  0.000000 wLong=  0.550000 cFull=  0.000000 cShort=  0.000000 cLong=  1.000000
 NAtoms=    5 NActive=    1 NUniq=    1 SFac= 1.00D+00 NAtFMM=   60 NAOKFM=F Big=F
 No density basis found on file   718.
 Leave Link  301 at Fri May  8 04:48:21 2020, MaxMem= 1073741824 cpu:       0.2
 (Enter /home/matheus/.gaussian/g09/l302.exe)
 NPDir=0 NMtPBC=     1 NCelOv=     1 NCel=       1 NClECP=     1 NCelD=      1
         NCelK=      1 NCelE2=     1 NClLst=     1 CellRange=     0.0.
 One-electron integrals computed using PRISM.
 NBasis=    59 RedAO= T  NBF=    59
 NBsUse=    59 1.00D-06 NBFU=    59
 Precomputing XC quadrature grid using
 IXCGrd= 2 IRadAn=           5 IRanWt=          -1 IRanGd=           0 AccXCQ= 0.00D+00.
 NRdTot=      81 NPtTot=       30352 NUsed=       30981 NTot=       31013
 NSgBfM=    69    69    69    69    69 NAtAll=     1     1.
 Leave Link  302 at Fri May  8 04:48:21 2020, MaxMem= 1073741824 cpu:       0.7
 (Enter /home/matheus/.gaussian/g09/l303.exe)
 DipDrv:  MaxL=1.
 Leave Link  303 at Fri May  8 04:48:21 2020, MaxMem= 1073741824 cpu:       0.1
 (Enter /home/matheus/.gaussian/g09/l401.exe)
 Initial guess read from the read-write file.
 Guess basis will be translated and rotated to current coordinates.
 Initial guess orbital symmetries:
       Occupied  (A) (A) (A) (A) (A) (A) (A) (A) (A) (A) (A) (A)
                 (A) (A) (A) (A) (A) (A)
       Virtual   (A) (A) (A) (A) (A) (A) (A) (A) (A) (A) (A) (A)
                 (A) (A) (A) (A) (A) (A) (A) (A) (A) (A) (A) (A)
                 (A) (A) (A) (A) (A) (A) (A) (A) (A) (A) (A) (A)
                 (A) (A) (A) (A) (A)
 The electronic state of the initial guess is 1-A.
 Generating alternative initial guess.
 Harris functional with IExCor=32609 diagonalized for initial guess.
 ExpMin= 4.00D-02 ExpMax= 1.17D+07 ExpMxC= 1.33D+04 IAcc=3 IRadAn=         5 AccDes= 0.00D+00
 HarFok:  IExCor=32609 AccDes= 0.00D+00 IRadAn=         5 IDoV= 1
 ScaDFX=  1.000000  1.000000  1.000000  1.000000
 FoFCou: FMM=F IPFlag=           0 FMFlag=      100000 FMFlg1=           0
         NFxFlg=           0 DoJE=T BraDBF=F KetDBF=T FulRan=T
         Omega=  0.000000  0.000000  1.000000  0.000000  0.000000 ICntrl=     500 IOpCl=  0
         NMat0=    1 NMatS0=    1 NMatT0=    0 NMatD0=    1 NMtDS0=    0 NMtDT0=    0
         I1Cent=           4 NGrid=           0.
 Petite list used in FoFCou.
 DSYEVD returned Info=          89 IAlg= 4 N=    59 NDim=    59 NE2=    18198841 trying DSYEV.
 Harris En= -2753.24576836237    
 Leave Link  401 at Fri May  8 04:48:21 2020, MaxMem= 1073741824 cpu:       1.0
 (Enter /home/matheus/.gaussian/g09/l502.exe)
 Closed shell SCF:
 Requested convergence on RMS density matrix=1.00D-08 within 128 cycles.
 Requested convergence on MAX density matrix=1.00D-06.
 Requested convergence on             energy=1.00D-06.
 No special actions if energy rises.
 Using DIIS extrapolation, IDIIS=  1040.
 Integral symmetry usage will be decided dynamically.
        30923 words used for storage of precomputed grid.
 IEnd=       64406 IEndB=       64406 NGot=  1073741824 MDV=  1073698889
 LenX=  1073698889 LenY=  1073693687
 Fock matrices will be formed incrementally for  20 cycles.

 Cycle   1  Pass 1  IDiag  1:
 FoFJK:  IHMeth= 1 ICntrl=     0 DoSepK=T KAlg= 1 I1Cent= 0 FoldK=F
 FoFCou: FMM=F IPFlag=           0 FMFlag=      100000 FMFlg1=           0
         NFxFlg=           0 DoJE=T BraDBF=F KetDBF=F FulRan=T
         Omega=  0.000000  0.000000  1.000000  0.000000  0.000000 ICntrl=     500 IOpCl=  0
         NMat0=    1 NMatS0=    1 NMatT0=    0 NMatD0=    1 NMtDS0=    0 NMtDT0=    0
         I1Cent=           0 NGrid=           0.
 Symmetry not used in FoFCou.
 E= -2753.47775989058    
 DIIS: error= 5.95D-14 at cycle   1 NSaved=   1.
 NSaved= 1 IEnMin= 1 EnMin= -2753.47775989058     IErMin= 1 ErrMin= 5.95D-14
 ErrMax= 5.95D-14 EMaxC= 1.00D-01 BMatC= 1.17D-25 BMatP= 1.17D-25
 IDIUse=1 WtCom= 1.00D+00 WtEn= 0.00D+00
 Coeff-Com:  0.100D+01
 Coeff:      0.100D+01
 Gap=     0.626 Goal=   None    Shift=    0.000
 DSYEVD returned Info=          89 IAlg= 4 N=    59 NDim=    59 NE2=    18198197 trying DSYEV.
 RMSDP=4.48D-15 MaxDP=9.73D-14              OVMax= 1.06D-14

 SCF Done:  E(RLC-wPBE) =  -2753.47775989     A.U. after    1 cycles
             Convg  =    0.4484D-14             -V/T =  2.0014
 KE= 2.749561508178D+03 PE=-6.579099712888D+03 EE= 1.076060444820D+03
 Leave Link  502 at Fri May  8 04:48:22 2020, MaxMem= 1073741824 cpu:      11.1
 (Enter /home/matheus/.gaussian/g09/l122.exe)
 Restoring MOs from calculation   1 to rwf.
 Counterpoise: corrected energy =   -2905.009258679037
 Counterpoise: BSSE energy =       0.000024699947
 Leave Link  122 at Fri May  8 04:48:22 2020, MaxMem= 1073741824 cpu:       0.0
 (Enter /home/matheus/.gaussian/g09/l108.exe)
 Scan completed.

 Summary of the potential surface scan:
   N      R1          SCF    
 ----  ---------  -----------
    1     3.0000  -2753.47776
    2     3.1000  -2753.47776
    3     3.2000  -2753.47776
    4     3.3000  -2753.47776
    5     3.4000  -2753.47776
    6     3.5000  -2753.47776
    7     3.6000  -2753.47776
    8     3.7000  -2753.47776
    9     3.8000  -2753.47776
   10     3.9000  -2753.47776
   11     4.0000  -2753.47776
   12     4.1000  -2753.47776
   13     4.2000  -2753.47776
   14     4.3000  -2753.47776
   15     4.4000  -2753.47776
   16     4.5000  -2753.47776
   17     4.6000  -2753.47776
   18     4.7000  -2753.47776
   19     4.8000  -2753.47776
   20     4.9000  -2753.47776
   21     5.0000  -2753.47776
 ----  ---------  -----------
  
 Leave Link  108 at Fri May  8 04:48:22 2020, MaxMem= 1073741824 cpu:       0.0
 (Enter /home/matheus/.gaussian/g09/l9999.exe)

 Test job not archived.
 1\1\GINC-REDGIANT\Scan\RLC-wPBE\Aug-CC-pVTZ\H2Kr1O2\MATHEUS\08-May-202
 0\1\\#p lc-wpbe/aug-cc-PVTz iop(3/107=0550000000) iop(3/108=0550000000
 ) int=ultrafine counterpoise=2 Scan\\TCC\\0,1\O,0,0.,0.,0.725\O,0,0.,0
 .,-0.725\H,0,-0.795635374,0.4593602974,1.0235104166\H,0,0.,0.918720594
 7,-1.0235104166\Kr,0,0.,R1,0.\\R1=3.,s,20,0.1\\Version=EM64L-G09RevC.0
 1\State=1-A\HF=-2753.4777599,-2753.4777599,-2753.4777599,-2753.4777599
 ,-2753.4777599,-2753.4777599,-2753.4777599,-2753.4777599,-2753.4777599
 ,-2753.4777599,-2753.4777599,-2753.4777599,-2753.4777599,-2753.4777599
 ,-2753.4777599,-2753.4777599,-2753.4777599,-2753.4777599,-2753.4777599
 ,-2753.4777599,-2753.4777599\RMSD=1.997e-09,5.419e-11,1.020e-11,4.441e
 -12,2.185e-12,1.225e-12,6.748e-13,3.786e-13,2.186e-13,1.254e-13,6.946e
 -14,4.176e-14,2.132e-14,1.140e-14,9.256e-15,9.290e-15,8.790e-15,7.345e
 -15,3.722e-15,2.958e-15,4.484e-15\PG=C01 [X(H2Kr1O2)]\\@


 WE HAVE LEARNED THAT NOTHING IS SIMPLE AND
 RATIONAL EXCEPT WHAT WE OURSELVES HAVE INVENTED;
 THAT GOD THINKS IN TERMS NEITHER OF EUCLID OR RIEMANN; THAT SCIENCE HAS "EXPLAINED" NOTHING;
 THAT THE MORE WE KNOW THE MORE FANTASTIC THE WORLD BECOMES
 AND THE PROFOUNDER THE SURROUNDING DARKNESS.
   --  ALDOUS HUXLEY
 Job cpu time:  0 days  3 hours  0 minutes  0.4 seconds.
 File lengths (MBytes):  RWF=     33 Int=      0 D2E=      0 Chk=      8 Scr=      1
 Normal termination of Gaussian 09 at Fri May  8 04:48:22 2020.
