 Entering Gaussian System, Link 0=g09
 Input=/home/matheus/.tcc/Inputs-lc-wpbe/H2O2-Kr_19.com
 Output=/home/matheus/.tcc/Logs-lc-wpbe/H2O2-Kr_19.log
 Initial command:
 /home/matheus/.gaussian/g09/l1.exe /home/matheus/.gaussian/g09/scratch/Gau-29725.inp -scrdir=/home/matheus/.gaussian/g09/scratch/
 Entering Link 1 = /home/matheus/.gaussian/g09/l1.exe PID=     29728.
  
 Copyright (c) 1988,1990,1992,1993,1995,1998,2003,2009,2011,
            Gaussian, Inc.  All Rights Reserved.
  
 This is part of the Gaussian(R) 09 program.  It is based on
 the Gaussian(R) 03 system (copyright 2003, Gaussian, Inc.),
 the Gaussian(R) 98 system (copyright 1998, Gaussian, Inc.),
 the Gaussian(R) 94 system (copyright 1995, Gaussian, Inc.),
 the Gaussian 92(TM) system (copyright 1992, Gaussian, Inc.),
 the Gaussian 90(TM) system (copyright 1990, Gaussian, Inc.),
 the Gaussian 88(TM) system (copyright 1988, Gaussian, Inc.),
 the Gaussian 86(TM) system (copyright 1986, Carnegie Mellon
 University), and the Gaussian 82(TM) system (copyright 1983,
 Carnegie Mellon University). Gaussian is a federally registered
 trademark of Gaussian, Inc.
  
 This software contains proprietary and confidential information,
 including trade secrets, belonging to Gaussian, Inc.
  
 This software is provided under written license and may be
 used, copied, transmitted, or stored only in accord with that
 written license.
  
 The following legend is applicable only to US Government
 contracts under FAR:
  
                    RESTRICTED RIGHTS LEGEND
  
 Use, reproduction and disclosure by the US Government is
 subject to restrictions as set forth in subparagraphs (a)
 and (c) of the Commercial Computer Software - Restricted
 Rights clause in FAR 52.227-19.
  
 Gaussian, Inc.
 340 Quinnipiac St., Bldg. 40, Wallingford CT 06492
  
  
 ---------------------------------------------------------------
 Warning -- This program may not be used in any manner that
 competes with the business of Gaussian, Inc. or will provide
 assistance to any competitor of Gaussian, Inc.  The licensee
 of this program is prohibited from giving any competitor of
 Gaussian, Inc. access to this program.  By using this program,
 the user acknowledges that Gaussian, Inc. is engaged in the
 business of creating and licensing software in the field of
 computational chemistry and represents and warrants to the
 licensee that it is not a competitor of Gaussian, Inc. and that
 it will not use this program in any manner prohibited above.
 ---------------------------------------------------------------
  

 Cite this work as:
 Gaussian 09, Revision C.01,
 M. J. Frisch, G. W. Trucks, H. B. Schlegel, G. E. Scuseria, 
 M. A. Robb, J. R. Cheeseman, G. Scalmani, V. Barone, B. Mennucci, 
 G. A. Petersson, H. Nakatsuji, M. Caricato, X. Li, H. P. Hratchian, 
 A. F. Izmaylov, J. Bloino, G. Zheng, J. L. Sonnenberg, M. Hada, 
 M. Ehara, K. Toyota, R. Fukuda, J. Hasegawa, M. Ishida, T. Nakajima, 
 Y. Honda, O. Kitao, H. Nakai, T. Vreven, J. A. Montgomery, Jr., 
 J. E. Peralta, F. Ogliaro, M. Bearpark, J. J. Heyd, E. Brothers, 
 K. N. Kudin, V. N. Staroverov, T. Keith, R. Kobayashi, J. Normand, 
 K. Raghavachari, A. Rendell, J. C. Burant, S. S. Iyengar, J. Tomasi, 
 M. Cossi, N. Rega, J. M. Millam, M. Klene, J. E. Knox, J. B. Cross, 
 V. Bakken, C. Adamo, J. Jaramillo, R. Gomperts, R. E. Stratmann, 
 O. Yazyev, A. J. Austin, R. Cammi, C. Pomelli, J. W. Ochterski, 
 R. L. Martin, K. Morokuma, V. G. Zakrzewski, G. A. Voth, 
 P. Salvador, J. J. Dannenberg, S. Dapprich, A. D. Daniels, 
 O. Farkas, J. B. Foresman, J. V. Ortiz, J. Cioslowski, 
 and D. J. Fox, Gaussian, Inc., Wallingford CT, 2010.
 
 ******************************************
 Gaussian 09:  EM64L-G09RevC.01 23-Sep-2011
                 8-May-2020 
 ******************************************
 %mem=8GB
 %nproc=8
 Will use up to    8 processors via shared memory.
 ----------------------------------------------------------------------
 #p lc-wpbe/aug-cc-PVTz iop(3/107=0550000000) iop(3/108=0550000000) int
 =ultrafine counterpoise=2 Scan
 ----------------------------------------------------------------------
 1/38=1,60=1,62=2/1,8;
 2/12=2,17=6,18=5,29=3,40=1/2;
 1/38=1,53=5172,62=2/22;
 3/5=16,6=1,7=10,11=2,16=1,25=1,30=1,74=-41,75=-5,107=550000000,108=550000000/1,2,3;
 4//1;
 5/5=2,38=5/2;
 6/7=2,8=2,9=2,10=2,18=1,28=1/1;
 1/53=4052,62=2,63=1/22;
 3/5=7,6=11,7=10,11=2,16=1,25=1,30=1,74=-41,75=-5,82=7,107=550000000,108=550000000/1,2,3;
 4//1;
 5/5=2,38=5/2;
 6/7=2,8=2,9=2,10=2,18=1,28=1/1;
 1/53=3042,62=2,63=2/22;
 3/5=7,6=11,7=10,11=2,16=1,25=1,30=1,74=-41,75=-5,82=7,107=550000000,108=550000000/1,2,3;
 4//1;
 5/5=2,38=5/2;
 6/7=2,8=2,9=2,10=2,18=1,28=1/1;
 1/53=2032,62=2,63=3/22;
 3/5=7,6=11,7=10,11=2,16=1,25=1,30=1,74=-41,75=-5,82=7,107=550000000,108=550000000/1,2,3;
 4//1;
 5/5=2,38=5/2;
 6/7=2,8=2,9=2,10=2,18=1,28=1/1;
 1/53=1022,62=2,63=4/22;
 3/5=7,6=11,7=10,11=2,16=1,25=1,30=1,74=-41,75=-5,82=7,107=550000000,108=550000000/1,2,3;
 4//1;
 5/5=2,38=5/2;
 6/7=2,8=2,9=2,10=2,18=1,28=1/1;
 1/53=5014,62=2,63=5/22;
 1/60=1,62=2/8(1);
 99/9=1/99;
 2/29=3/2;
 1/53=5173,62=2/22;
 3/5=7,6=11,7=10,11=2,16=1,25=1,30=1,74=-41,75=-5,82=7,107=550000000,108=550000000/1,2,3;
 4/5=5,16=3/1;
 5/5=2,38=5/2;
 1/53=4053,62=2,63=1/22;
 3/5=7,6=11,7=10,11=2,16=1,25=1,30=1,74=-41,75=-5,82=7,107=550000000,108=550000000/1,2,3;
 4/5=5,16=3/1;
 5/5=2,38=5/2;
 1/53=3043,62=2,63=2/22;
 3/5=7,6=11,7=10,11=2,16=1,25=1,30=1,74=-41,75=-5,82=7,107=550000000,108=550000000/1,2,3;
 4/5=5,16=3/1;
 5/5=2,38=5/2;
 1/53=2033,62=2,63=3/22;
 3/5=7,6=11,7=10,11=2,16=1,25=1,30=1,74=-41,75=-5,82=7,107=550000000,108=550000000/1,2,3;
 4/5=5,16=3/1;
 5/5=2,38=5/2;
 1/53=1024,62=2,63=4/22;
 3/5=7,6=11,7=10,11=2,16=1,25=1,30=1,74=-41,75=-5,82=7,107=550000000,108=550000000/1,2,3;
 4/5=5,16=3/1;
 5/5=2,38=5/2;
 1/53=5014,62=2,63=5/22;
 1/60=1,62=2/8(-22);
 99/9=1/99;
 Leave Link    1 at Fri May  8 00:02:45 2020, MaxMem= 1073741824 cpu:       0.2
 (Enter /home/matheus/.gaussian/g09/l101.exe)
 ---
 TCC
 ---
 Charge =  0 Multiplicity = 1 in supermolecule
 Charge =  0 Multiplicity = 1 in fragment  1.
 Charge =  0 Multiplicity = 1 in fragment  2.
 Symbolic Z-Matrix:
 O(Fragment=1)         0.        0.        0.725 
 O(Fragment=1)         0.        0.       -0.725 
 H(Fragment=1)        -0.15953  -0.90476   1.02351 
 H(Fragment=1)         0.        0.91872  -1.02351 
 Kr(Fragment=2)        0.       R1        0. 
       Variables:
  R1                    3.     Scan 20    0.1    
 
 NAtoms=      5 NQM=        0 NQMF=       0 NMMI=      5 NMMIF=      0
                NMic=       0 NMicF=      0.
                    Isotopes and Nuclear Properties:
 (Nuclear quadrupole moments (NQMom) in fm**2, nuclear magnetic moments (NMagM)
  in nuclear magnetons)

  Atom         1           2           3           4           5
 IAtWgt=          16          16           1           1          84
 AtmWgt=  15.9949146  15.9949146   1.0078250   1.0078250  83.9115064
 NucSpn=           0           0           1           1           0
 AtZEff=   0.0000000   0.0000000   0.0000000   0.0000000   0.0000000
 NQMom=    0.0000000   0.0000000   0.0000000   0.0000000   0.0000000
 NMagM=    0.0000000   0.0000000   2.7928460   2.7928460   0.0000000
 Leave Link  101 at Fri May  8 00:02:45 2020, MaxMem= 1073741824 cpu:       0.4
 (Enter /home/matheus/.gaussian/g09/l108.exe)
 Scan the potential surface.
 Variable   Value     No. Steps Step-Size
 -------- ----------- --------- ---------
     1       3.000000      20      0.1000
 A total of     21 points will be computed.
 Leave Link  108 at Fri May  8 00:02:45 2020, MaxMem= 1073741824 cpu:       0.0
 (Enter /home/matheus/.gaussian/g09/l202.exe)
 ---------------------------------------------------------------------------------------------------
                            Z-MATRIX (ANGSTROMS AND DEGREES)
   CD    Cent   Atom    N1       Length/X        N2       Alpha/Y        N3        Beta/Z          J
 ---------------------------------------------------------------------------------------------------
      1      1  O        0   0.000000          0.000000          0.725000
      2      2  O        0   0.000000          0.000000         -0.725000
      3      3  H        0  -0.159534         -0.904763          1.023510
      4      4  H        0   0.000000          0.918721         -1.023510
      5      5  Kr       0   0.000000          3.000000          0.000000
 ---------------------------------------------------------------------------------------------------
                         Z-Matrix orientation:                         
 ---------------------------------------------------------------------
 Center     Atomic      Atomic             Coordinates (Angstroms)
 Number     Number       Type             X           Y           Z
 ---------------------------------------------------------------------
      1          8           0        0.000000    0.000000    0.725000
      2          8           0        0.000000    0.000000   -0.725000
      3          1           0       -0.159534   -0.904763    1.023510
      4          1           0        0.000000    0.918721   -1.023510
      5         36           0        0.000000    3.000000    0.000000
 ---------------------------------------------------------------------
                    Distance matrix (angstroms):
                    1          2          3          4          5
     1  O    0.000000
     2  O    1.450000   0.000000
     3  H    0.966000   1.975180   0.000000
     4  H    1.975180   0.966000   2.746059   0.000000
     5  Kr   3.086361   3.086361   4.039827   2.319331   0.000000
 Stoichiometry    H2KrO2
 Framework group  C1[X(H2KrO2)]
 Deg. of freedom     9
 Full point group                 C1      NOp   1
 Largest Abelian subgroup         C1      NOp   1
 Largest concise Abelian subgroup C1      NOp   1
                         Standard orientation:                         
 ---------------------------------------------------------------------
 Center     Atomic      Atomic             Coordinates (Angstroms)
 Number     Number       Type             X           Y           Z
 ---------------------------------------------------------------------
      1          8           0       -2.013524   -0.686962   -0.021683
      2          8           0       -1.986222    0.762620   -0.000129
      3          1           0       -2.924418   -0.970655    0.129799
      4          1           0       -1.062052    1.043690    0.007960
      5         36           0        0.999568   -0.018842    0.001020
 ---------------------------------------------------------------------
 Rotational constants (GHZ):     26.6931850      2.3029701      2.1204694
 Leave Link  202 at Fri May  8 00:02:45 2020, MaxMem= 1073741824 cpu:       0.1
 (Enter /home/matheus/.gaussian/g09/l122.exe)
 Leave Link  122 at Fri May  8 00:02:45 2020, MaxMem= 1073741824 cpu:       0.0
 (Enter /home/matheus/.gaussian/g09/l301.exe)
 Standard basis: Aug-CC-pVTZ (5D, 7F)
 Ernie: Thresh=  0.10000D-02 Tol=  0.10000D-05 Strict=F.
 Ernie:  38 primitive shells out of 205 were deleted.
 There are   197 symmetry adapted basis functions of A   symmetry.
 Integral buffers will be    131072 words long.
 Raffenetti 2 integral format.
 Two-electron integral symmetry is turned on.
   197 basis functions,   415 primitive gaussians,   229 cartesian basis functions
    27 alpha electrons       27 beta electrons
       nuclear repulsion energy       148.2893698349 Hartrees.
 IExCor=32609 DFT=T Ex+Corr=LC-wPBE ExCW=0 ScaHFX=  1.000000
 ScaDFX=  1.000000  0.000000  1.000000  1.000000 ScalE2=  1.000000  1.000000
 IRadAn=      5 IRanWt=     -1 IRanGd=            0 ICorTp=0
  HFx wShort=  0.000000 wLong=  0.550000 cFull=  0.000000 cShort=  0.000000 cLong=  1.000000
  DFx wShort=  0.000000 wLong=  0.550000 cFull=  0.000000 cShort=  0.000000 cLong=  1.000000
 NAtoms=    5 NActive=    5 NUniq=    5 SFac= 1.00D+00 NAtFMM=   60 NAOKFM=F Big=F
 Leave Link  301 at Fri May  8 00:02:45 2020, MaxMem= 1073741824 cpu:       0.4
 (Enter /home/matheus/.gaussian/g09/l302.exe)
 NPDir=0 NMtPBC=     1 NCelOv=     1 NCel=       1 NClECP=     1 NCelD=      1
         NCelK=      1 NCelE2=     1 NClLst=     1 CellRange=     0.0.
 One-electron integrals computed using PRISM.
 NBasis=   197 RedAO= T  NBF=   197
 NBsUse=   197 1.00D-06 NBFU=   197
 Precomputing XC quadrature grid using
 IXCGrd= 2 IRadAn=           5 IRanWt=          -1 IRanGd=           0 AccXCQ= 0.00D+00.
 NRdTot=     427 NPtTot=      123814 NUsed=      126881 NTot=      126913
 NSgBfM=   229   229   229   229   229 NAtAll=     5     5.
 Leave Link  302 at Fri May  8 00:02:46 2020, MaxMem= 1073741824 cpu:       1.3
 (Enter /home/matheus/.gaussian/g09/l303.exe)
 DipDrv:  MaxL=1.
 Leave Link  303 at Fri May  8 00:02:46 2020, MaxMem= 1073741824 cpu:       0.6
 (Enter /home/matheus/.gaussian/g09/l401.exe)
 Harris functional with IExCor=32609 diagonalized for initial guess.
 ExpMin= 2.53D-02 ExpMax= 1.17D+07 ExpMxC= 1.33D+04 IAcc=3 IRadAn=         5 AccDes= 0.00D+00
 HarFok:  IExCor=32609 AccDes= 0.00D+00 IRadAn=         5 IDoV= 1
 ScaDFX=  1.000000  1.000000  1.000000  1.000000
 FoFCou: FMM=F IPFlag=           0 FMFlag=      100000 FMFlg1=           0
         NFxFlg=           0 DoJE=T BraDBF=F KetDBF=T FulRan=T
         Omega=  0.000000  0.000000  1.000000  0.000000  0.000000 ICntrl=     500 IOpCl=  0
         NMat0=    1 NMatS0=    1 NMatT0=    0 NMatD0=    1 NMtDS0=    0 NMtDT0=    0
         I1Cent=           4 NGrid=           0.
 Petite list used in FoFCou.
 Harris En= -2904.73660851790    
 Initial guess orbital symmetries:
       Occupied  (A) (A) (A) (A) (A) (A) (A) (A) (A) (A) (A) (A)
                 (A) (A) (A) (A) (A) (A) (A) (A) (A) (A) (A) (A)
                 (A) (A) (A)
       Virtual   (A) (A) (A) (A) (A) (A) (A) (A) (A) (A) (A) (A)
                 (A) (A) (A) (A) (A) (A) (A) (A) (A) (A) (A) (A)
                 (A) (A) (A) (A) (A) (A) (A) (A) (A) (A) (A) (A)
                 (A) (A) (A) (A) (A) (A) (A) (A) (A) (A) (A) (A)
                 (A) (A) (A) (A) (A) (A) (A) (A) (A) (A) (A) (A)
                 (A) (A) (A) (A) (A) (A) (A) (A) (A) (A) (A) (A)
                 (A) (A) (A) (A) (A) (A) (A) (A) (A) (A) (A) (A)
                 (A) (A) (A) (A) (A) (A) (A) (A) (A) (A) (A) (A)
                 (A) (A) (A) (A) (A) (A) (A) (A) (A) (A) (A) (A)
                 (A) (A) (A) (A) (A) (A) (A) (A) (A) (A) (A) (A)
                 (A) (A) (A) (A) (A) (A) (A) (A) (A) (A) (A) (A)
                 (A) (A) (A) (A) (A) (A) (A) (A) (A) (A) (A) (A)
                 (A) (A) (A) (A) (A) (A) (A) (A) (A) (A) (A) (A)
                 (A) (A) (A) (A) (A) (A) (A) (A) (A) (A) (A) (A)
                 (A) (A)
 The electronic state of the initial guess is 1-A.
 Leave Link  401 at Fri May  8 00:02:46 2020, MaxMem= 1073741824 cpu:       4.5
 (Enter /home/matheus/.gaussian/g09/l502.exe)
 Closed shell SCF:
 Requested convergence on RMS density matrix=1.00D-08 within 128 cycles.
 Requested convergence on MAX density matrix=1.00D-06.
 Requested convergence on             energy=1.00D-06.
 No special actions if energy rises.
 Using DIIS extrapolation, IDIIS=  1040.
 Integral symmetry usage will be decided dynamically.
       126823 words used for storage of precomputed grid.
 IEnd=      305770 IEndB=      305770 NGot=  1073741824 MDV=  1073505365
 LenX=  1073505365 LenY=  1073452483
 Fock matrices will be formed incrementally for  20 cycles.

 Cycle   1  Pass 1  IDiag  1:
 FoFJK:  IHMeth= 1 ICntrl=     0 DoSepK=T KAlg= 1 I1Cent= 0 FoldK=F
 FoFCou: FMM=F IPFlag=           0 FMFlag=      100000 FMFlg1=           0
         NFxFlg=           0 DoJE=T BraDBF=F KetDBF=F FulRan=T
         Omega=  0.000000  0.000000  1.000000  0.000000  0.000000 ICntrl=     500 IOpCl=  0
         NMat0=    1 NMatS0=    1 NMatT0=    0 NMatD0=    1 NMtDS0=    0 NMtDT0=    0
         I1Cent=           0 NGrid=           0.
 Symmetry not used in FoFCou.
 E= -2904.93110179059    
 DIIS: error= 3.02D-02 at cycle   1 NSaved=   1.
 NSaved= 1 IEnMin= 1 EnMin= -2904.93110179059     IErMin= 1 ErrMin= 3.02D-02
 ErrMax= 3.02D-02 EMaxC= 1.00D-01 BMatC= 2.67D-01 BMatP= 2.67D-01
 IDIUse=3 WtCom= 6.98D-01 WtEn= 3.02D-01
 Coeff-Com:  0.100D+01
 Coeff-En:   0.100D+01
 Coeff:      0.100D+01
 Gap=     0.535 Goal=   None    Shift=    0.000
 GapD=    0.535 DampG=2.000 DampE=0.500 DampFc=1.0000 IDamp=-1.
 RMSDP=2.25D-03 MaxDP=1.43D-01              OVMax= 6.15D-02

 Cycle   2  Pass 1  IDiag  1:
 RMSU=  1.57D-03    CP:  1.02D+00
 FoFJK:  IHMeth= 1 ICntrl=     0 DoSepK=T KAlg= 1 I1Cent= 0 FoldK=F
 E= -2904.98138548874     Delta-E=       -0.050283698152 Rises=F Damp=F
 DIIS: error= 1.20D-02 at cycle   2 NSaved=   2.
 NSaved= 2 IEnMin= 2 EnMin= -2904.98138548874     IErMin= 2 ErrMin= 1.20D-02
 ErrMax= 1.20D-02 EMaxC= 1.00D-01 BMatC= 6.67D-02 BMatP= 2.67D-01
 IDIUse=3 WtCom= 8.80D-01 WtEn= 1.20D-01
 Coeff-Com:  0.326D+00 0.674D+00
 Coeff-En:   0.809D-01 0.919D+00
 Coeff:      0.297D+00 0.703D+00
 Gap=     0.465 Goal=   None    Shift=    0.000
 RMSDP=8.82D-04 MaxDP=5.03D-02 DE=-5.03D-02 OVMax= 2.55D-02

 Cycle   3  Pass 1  IDiag  1:
 RMSU=  3.19D-04    CP:  1.01D+00  6.68D-01
 FoFJK:  IHMeth= 1 ICntrl=     0 DoSepK=T KAlg= 1 I1Cent= 0 FoldK=F
 E= -2905.00371635448     Delta-E=       -0.022330865741 Rises=F Damp=F
 DIIS: error= 1.63D-03 at cycle   3 NSaved=   3.
 NSaved= 3 IEnMin= 3 EnMin= -2905.00371635448     IErMin= 3 ErrMin= 1.63D-03
 ErrMax= 1.63D-03 EMaxC= 1.00D-01 BMatC= 1.35D-03 BMatP= 6.67D-02
 IDIUse=3 WtCom= 9.84D-01 WtEn= 1.63D-02
 Coeff-Com:  0.361D-01 0.165D+00 0.799D+00
 Coeff-En:   0.000D+00 0.000D+00 0.100D+01
 Coeff:      0.355D-01 0.162D+00 0.802D+00
 Gap=     0.449 Goal=   None    Shift=    0.000
 RMSDP=9.65D-05 MaxDP=3.26D-03 DE=-2.23D-02 OVMax= 5.75D-03

 Cycle   4  Pass 1  IDiag  1:
 RMSU=  4.58D-05    CP:  1.01D+00  6.99D-01  9.62D-01
 FoFJK:  IHMeth= 1 ICntrl=     0 DoSepK=T KAlg= 1 I1Cent= 0 FoldK=F
 E= -2905.00436678508     Delta-E=       -0.000650430597 Rises=F Damp=F
 DIIS: error= 4.71D-04 at cycle   4 NSaved=   4.
 NSaved= 4 IEnMin= 4 EnMin= -2905.00436678508     IErMin= 4 ErrMin= 4.71D-04
 ErrMax= 4.71D-04 EMaxC= 1.00D-01 BMatC= 7.52D-05 BMatP= 1.35D-03
 IDIUse=3 WtCom= 9.95D-01 WtEn= 4.71D-03
 Coeff-Com: -0.567D-02 0.198D-01 0.268D+00 0.717D+00
 Coeff-En:   0.000D+00 0.000D+00 0.000D+00 0.100D+01
 Coeff:     -0.564D-02 0.198D-01 0.267D+00 0.719D+00
 Gap=     0.453 Goal=   None    Shift=    0.000
 RMSDP=2.87D-05 MaxDP=1.74D-03 DE=-6.50D-04 OVMax= 1.65D-03

 Cycle   5  Pass 1  IDiag  1:
 RMSU=  1.26D-05    CP:  1.01D+00  7.03D-01  1.00D+00  8.67D-01
 FoFJK:  IHMeth= 1 ICntrl=     0 DoSepK=T KAlg= 1 I1Cent= 0 FoldK=F
 E= -2905.00441292376     Delta-E=       -0.000046138677 Rises=F Damp=F
 DIIS: error= 6.80D-05 at cycle   5 NSaved=   5.
 NSaved= 5 IEnMin= 5 EnMin= -2905.00441292376     IErMin= 5 ErrMin= 6.80D-05
 ErrMax= 6.80D-05 EMaxC= 1.00D-01 BMatC= 2.24D-06 BMatP= 7.52D-05
 IDIUse=1 WtCom= 1.00D+00 WtEn= 0.00D+00
 Coeff-Com: -0.221D-02-0.513D-02-0.323D-02 0.108D+00 0.902D+00
 Coeff:     -0.221D-02-0.513D-02-0.323D-02 0.108D+00 0.902D+00
 Gap=     0.453 Goal=   None    Shift=    0.000
 RMSDP=6.57D-06 MaxDP=2.02D-04 DE=-4.61D-05 OVMax= 4.80D-04

 Cycle   6  Pass 1  IDiag  1:
 RMSU=  3.35D-06    CP:  1.01D+00  7.03D-01  1.01D+00  9.25D-01  1.09D+00
 FoFJK:  IHMeth= 1 ICntrl=     0 DoSepK=T KAlg= 1 I1Cent= 0 FoldK=F
 E= -2905.00441500142     Delta-E=       -0.000002077664 Rises=F Damp=F
 DIIS: error= 4.84D-05 at cycle   6 NSaved=   6.
 NSaved= 6 IEnMin= 6 EnMin= -2905.00441500142     IErMin= 6 ErrMin= 4.84D-05
 ErrMax= 4.84D-05 EMaxC= 1.00D-01 BMatC= 6.64D-07 BMatP= 2.24D-06
 IDIUse=1 WtCom= 1.00D+00 WtEn= 0.00D+00
 Coeff-Com: -0.359D-03-0.423D-02-0.286D-01-0.238D-01 0.373D+00 0.684D+00
 Coeff:     -0.359D-03-0.423D-02-0.286D-01-0.238D-01 0.373D+00 0.684D+00
 Gap=     0.453 Goal=   None    Shift=    0.000
 RMSDP=2.85D-06 MaxDP=1.36D-04 DE=-2.08D-06 OVMax= 2.15D-04

 Cycle   7  Pass 1  IDiag  1:
 RMSU=  1.45D-06    CP:  1.01D+00  7.03D-01  1.01D+00  9.39D-01  1.18D+00
                    CP:  8.98D-01
 FoFJK:  IHMeth= 1 ICntrl=     0 DoSepK=T KAlg= 1 I1Cent= 0 FoldK=F
 E= -2905.00441539930     Delta-E=       -0.000000397875 Rises=F Damp=F
 DIIS: error= 1.81D-05 at cycle   7 NSaved=   7.
 NSaved= 7 IEnMin= 7 EnMin= -2905.00441539930     IErMin= 7 ErrMin= 1.81D-05
 ErrMax= 1.81D-05 EMaxC= 1.00D-01 BMatC= 6.90D-08 BMatP= 6.64D-07
 IDIUse=1 WtCom= 1.00D+00 WtEn= 0.00D+00
 Coeff-Com:  0.128D-03-0.814D-03-0.911D-02-0.218D-01-0.511D-02 0.244D+00
 Coeff-Com:  0.793D+00
 Coeff:      0.128D-03-0.814D-03-0.911D-02-0.218D-01-0.511D-02 0.244D+00
 Coeff:      0.793D+00
 Gap=     0.453 Goal=   None    Shift=    0.000
 RMSDP=1.12D-06 MaxDP=4.70D-05 DE=-3.98D-07 OVMax= 9.72D-05

 Cycle   8  Pass 1  IDiag  1:
 RMSU=  4.45D-07    CP:  1.01D+00  7.03D-01  1.01D+00  9.44D-01  1.20D+00
                    CP:  1.03D+00  9.52D-01
 FoFJK:  IHMeth= 1 ICntrl=     0 DoSepK=T KAlg= 1 I1Cent= 0 FoldK=F
 E= -2905.00441547008     Delta-E=       -0.000000070787 Rises=F Damp=F
 DIIS: error= 3.02D-06 at cycle   8 NSaved=   8.
 NSaved= 8 IEnMin= 8 EnMin= -2905.00441547008     IErMin= 8 ErrMin= 3.02D-06
 ErrMax= 3.02D-06 EMaxC= 1.00D-01 BMatC= 2.12D-09 BMatP= 6.90D-08
 IDIUse=1 WtCom= 1.00D+00 WtEn= 0.00D+00
 Coeff-Com:  0.196D-04 0.490D-03 0.372D-02 0.528D-02-0.271D-01-0.101D+00
 Coeff-Com: -0.145D+00 0.126D+01
 Coeff:      0.196D-04 0.490D-03 0.372D-02 0.528D-02-0.271D-01-0.101D+00
 Coeff:     -0.145D+00 0.126D+01
 Gap=     0.453 Goal=   None    Shift=    0.000
 RMSDP=4.64D-07 MaxDP=1.51D-05 DE=-7.08D-08 OVMax= 5.13D-05

 Cycle   9  Pass 1  IDiag  1:
 RMSU=  1.14D-07    CP:  1.01D+00  7.03D-01  1.01D+00  9.46D-01  1.21D+00
                    CP:  1.05D+00  1.02D+00  1.51D+00
 FoFJK:  IHMeth= 1 ICntrl=     0 DoSepK=T KAlg= 1 I1Cent= 0 FoldK=F
 E= -2905.00441547649     Delta-E=       -0.000000006407 Rises=F Damp=F
 DIIS: error= 5.48D-07 at cycle   9 NSaved=   9.
 NSaved= 9 IEnMin= 9 EnMin= -2905.00441547649     IErMin= 9 ErrMin= 5.48D-07
 ErrMax= 5.48D-07 EMaxC= 1.00D-01 BMatC= 5.14D-11 BMatP= 2.12D-09
 IDIUse=1 WtCom= 1.00D+00 WtEn= 0.00D+00
 Coeff-Com: -0.701D-05-0.195D-04-0.566D-04 0.255D-03 0.330D-02-0.327D-03
 Coeff-Com: -0.163D-01-0.114D+00 0.113D+01
 Coeff:     -0.701D-05-0.195D-04-0.566D-04 0.255D-03 0.330D-02-0.327D-03
 Coeff:     -0.163D-01-0.114D+00 0.113D+01
 Gap=     0.453 Goal=   None    Shift=    0.000
 RMSDP=1.04D-07 MaxDP=6.61D-06 DE=-6.41D-09 OVMax= 8.30D-06

 Cycle  10  Pass 1  IDiag  1:
 RMSU=  2.25D-08    CP:  1.01D+00  7.03D-01  1.01D+00  9.46D-01  1.21D+00
                    CP:  1.04D+00  1.02D+00  1.61D+00  1.29D+00
 FoFJK:  IHMeth= 1 ICntrl=     0 DoSepK=T KAlg= 1 I1Cent= 0 FoldK=F
 E= -2905.00441547667     Delta-E=       -0.000000000177 Rises=F Damp=F
 DIIS: error= 1.31D-07 at cycle  10 NSaved=  10.
 NSaved=10 IEnMin=10 EnMin= -2905.00441547667     IErMin=10 ErrMin= 1.31D-07
 ErrMax= 1.31D-07 EMaxC= 1.00D-01 BMatC= 3.66D-12 BMatP= 5.14D-11
 IDIUse=1 WtCom= 1.00D+00 WtEn= 0.00D+00
 Coeff-Com: -0.444D-06-0.188D-04-0.148D-03-0.268D-03 0.115D-02 0.427D-02
 Coeff-Com:  0.681D-02-0.565D-01-0.291D-01 0.107D+01
 Coeff:     -0.444D-06-0.188D-04-0.148D-03-0.268D-03 0.115D-02 0.427D-02
 Coeff:      0.681D-02-0.565D-01-0.291D-01 0.107D+01
 Gap=     0.453 Goal=   None    Shift=    0.000
 RMSDP=2.48D-08 MaxDP=1.62D-06 DE=-1.77D-10 OVMax= 1.48D-06

 Cycle  11  Pass 1  IDiag  1:
 RMSU=  5.82D-09    CP:  1.01D+00  7.03D-01  1.01D+00  9.46D-01  1.21D+00
                    CP:  1.04D+00  1.02D+00  1.62D+00  1.36D+00  1.29D+00
 FoFJK:  IHMeth= 1 ICntrl=     0 DoSepK=T KAlg= 1 I1Cent= 0 FoldK=F
 E= -2905.00441547667     Delta-E=        0.000000000002 Rises=F Damp=F
 DIIS: error= 5.58D-08 at cycle  11 NSaved=  11.
 NSaved=11 IEnMin=10 EnMin= -2905.00441547667     IErMin=11 ErrMin= 5.58D-08
 ErrMax= 5.58D-08 EMaxC= 1.00D-01 BMatC= 3.67D-13 BMatP= 3.66D-12
 IDIUse=1 WtCom= 1.00D+00 WtEn= 0.00D+00
 Coeff-Com:  0.435D-06 0.194D-05 0.109D-04-0.119D-04-0.265D-03-0.139D-03
 Coeff-Com:  0.116D-02 0.870D-02-0.656D-01-0.724D-01 0.113D+01
 Coeff:      0.435D-06 0.194D-05 0.109D-04-0.119D-04-0.265D-03-0.139D-03
 Coeff:      0.116D-02 0.870D-02-0.656D-01-0.724D-01 0.113D+01
 Gap=     0.453 Goal=   None    Shift=    0.000
 RMSDP=6.80D-09 MaxDP=1.97D-07 DE= 1.82D-12 OVMax= 8.27D-07

 SCF Done:  E(RLC-wPBE) =  -2905.00441548     A.U. after   11 cycles
             Convg  =    0.6800D-08             -V/T =  2.0017
 KE= 2.900025964431D+03 PE=-7.233708909480D+03 EE= 1.280389159738D+03
 Leave Link  502 at Fri May  8 00:03:20 2020, MaxMem= 1073741824 cpu:     264.0
 (Enter /home/matheus/.gaussian/g09/l601.exe)
 Copying SCF densities to generalized density rwf, IOpCl= 0 IROHF=0.

 **********************************************************************

            Population analysis using the SCF density.

 **********************************************************************

 Orbital symmetries:
       Occupied  (A) (A) (A) (A) (A) (A) (A) (A) (A) (A) (A) (A)
                 (A) (A) (A) (A) (A) (A) (A) (A) (A) (A) (A) (A)
                 (A) (A) (A)
       Virtual   (A) (A) (A) (A) (A) (A) (A) (A) (A) (A) (A) (A)
                 (A) (A) (A) (A) (A) (A) (A) (A) (A) (A) (A) (A)
                 (A) (A) (A) (A) (A) (A) (A) (A) (A) (A) (A) (A)
                 (A) (A) (A) (A) (A) (A) (A) (A) (A) (A) (A) (A)
                 (A) (A) (A) (A) (A) (A) (A) (A) (A) (A) (A) (A)
                 (A) (A) (A) (A) (A) (A) (A) (A) (A) (A) (A) (A)
                 (A) (A) (A) (A) (A) (A) (A) (A) (A) (A) (A) (A)
                 (A) (A) (A) (A) (A) (A) (A) (A) (A) (A) (A) (A)
                 (A) (A) (A) (A) (A) (A) (A) (A) (A) (A) (A) (A)
                 (A) (A) (A) (A) (A) (A) (A) (A) (A) (A) (A) (A)
                 (A) (A) (A) (A) (A) (A) (A) (A) (A) (A) (A) (A)
                 (A) (A) (A) (A) (A) (A) (A) (A) (A) (A) (A) (A)
                 (A) (A) (A) (A) (A) (A) (A) (A) (A) (A) (A) (A)
                 (A) (A) (A) (A) (A) (A) (A) (A) (A) (A) (A) (A)
                 (A) (A)
 The electronic state is 1-A.
 Alpha  occ. eigenvalues -- -511.19437 -66.74275 -60.40396 -60.40376 -60.40368
 Alpha  occ. eigenvalues --  -19.10986 -19.10616  -9.67845  -7.42141  -7.42084
 Alpha  occ. eigenvalues --   -7.42061  -3.36540  -3.36528  -3.36512  -3.36469
 Alpha  occ. eigenvalues --   -3.36468  -1.31831  -1.10245  -1.09170  -0.69726
 Alpha  occ. eigenvalues --   -0.67414  -0.57772  -0.54264  -0.53480  -0.53018
 Alpha  occ. eigenvalues --   -0.50219  -0.41911
 Alpha virt. eigenvalues --    0.03405   0.04256   0.08458   0.10369   0.11011
 Alpha virt. eigenvalues --    0.11455   0.13832   0.15236   0.17022   0.17370
 Alpha virt. eigenvalues --    0.19359   0.20747   0.20823   0.24079   0.24634
 Alpha virt. eigenvalues --    0.25589   0.27810   0.29538   0.31465   0.34761
 Alpha virt. eigenvalues --    0.35122   0.35221   0.37534   0.40087   0.41388
 Alpha virt. eigenvalues --    0.41719   0.43860   0.49786   0.54029   0.56427
 Alpha virt. eigenvalues --    0.58714   0.61397   0.66346   0.67233   0.71069
 Alpha virt. eigenvalues --    0.72952   0.73824   0.75180   0.76565   0.77929
 Alpha virt. eigenvalues --    0.78923   0.79322   0.80832   0.81966   0.83032
 Alpha virt. eigenvalues --    0.85128   0.87583   0.89838   0.90822   0.93501
 Alpha virt. eigenvalues --    0.93794   0.96323   0.98007   1.00201   1.02349
 Alpha virt. eigenvalues --    1.05318   1.06821   1.07633   1.08811   1.11287
 Alpha virt. eigenvalues --    1.15321   1.15700   1.18733   1.20829   1.21654
 Alpha virt. eigenvalues --    1.29594   1.34243   1.38647   1.43605   1.44124
 Alpha virt. eigenvalues --    1.51559   1.54611   1.55977   1.58640   1.61530
 Alpha virt. eigenvalues --    1.64918   1.81114   1.83021   1.89202   1.97685
 Alpha virt. eigenvalues --    2.02479   2.02820   2.08273   2.17232   2.18593
 Alpha virt. eigenvalues --    2.19353   2.21221   2.22063   2.23389   2.30212
 Alpha virt. eigenvalues --    2.31880   2.33346   2.35511   2.37463   2.38897
 Alpha virt. eigenvalues --    2.42382   2.43403   2.48700   2.51320   2.53422
 Alpha virt. eigenvalues --    2.53682   2.54300   2.57299   2.60296   2.61608
 Alpha virt. eigenvalues --    2.64181   2.66917   2.70206   2.73024   2.74464
 Alpha virt. eigenvalues --    2.75297   2.78820   2.80137   2.85688   2.93504
 Alpha virt. eigenvalues --    3.00631   3.11441   3.13680   3.20029   3.56847
 Alpha virt. eigenvalues --    3.79786   3.87363   3.95646   4.08617   4.09957
 Alpha virt. eigenvalues --    4.16389   4.19868   4.24128   4.27761   4.31106
 Alpha virt. eigenvalues --    4.42811   4.47424   4.56553   4.59179   4.77524
 Alpha virt. eigenvalues --    4.94749   5.06716   5.08152   5.12682   5.12801
 Alpha virt. eigenvalues --    5.41909   5.48244   5.87520   6.02690   6.12998
 Alpha virt. eigenvalues --    6.18428   6.34924   6.41060   6.48608   6.52125
 Alpha virt. eigenvalues --    6.74772   6.75899   6.78679   6.85117   6.90942
 Alpha virt. eigenvalues --    6.93627   6.96332   6.98391   6.99167   7.02336
 Alpha virt. eigenvalues --    7.05921   7.26178   7.29234   7.43406   7.65755
 Alpha virt. eigenvalues --    7.87730   8.15251   8.18349  14.12138  14.55537
          Condensed to atoms (all electrons):
              1          2          3          4          5
     1  O    8.194860  -0.179863   0.193869   0.000742  -0.033599
     2  O   -0.179863   8.216764   0.007481   0.221844  -0.008933
     3  H    0.193869   0.007481   0.601814   0.003104   0.003170
     4  H    0.000742   0.221844   0.003104   0.550024  -0.014998
     5  Kr  -0.033599  -0.008933   0.003170  -0.014998  36.050904
 Mulliken atomic charges:
              1
     1  O   -0.176009
     2  O   -0.257294
     3  H    0.190563
     4  H    0.239284
     5  Kr   0.003456
 Sum of Mulliken atomic charges =   0.00000
 Mulliken charges with hydrogens summed into heavy atoms:
              1
     1  O    0.014554
     2  O   -0.018010
     5  Kr   0.003456
 Sum of Mulliken charges with hydrogens summed into heavy atoms =   0.00000
          Condensed to fragments (all electrons):
     1      -0.003456
     2       0.003456
 Electronic spatial extent (au):  <R**2>=            491.9971
 Charge=              0.0000 electrons
 Dipole moment (field-independent basis, Debye):
    X=              0.1928    Y=             -0.2861    Z=              0.2832  Tot=              0.4463
 Quadrupole moment (field-independent basis, Debye-Ang):
   XX=            -26.0305   YY=            -28.2215   ZZ=            -30.4586
   XY=              3.9590   XZ=             -0.9030   YZ=             -0.2953
 Traceless Quadrupole moment (field-independent basis, Debye-Ang):
   XX=              2.2064   YY=              0.0154   ZZ=             -2.2218
   XY=              3.9590   XZ=             -0.9030   YZ=             -0.2953
 Octapole moment (field-independent basis, Debye-Ang**2):
  XXX=             -0.8973  YYY=             -0.6200  ZZZ=              0.1106  XYY=              4.3699
  XXY=            -16.8196  XXZ=              2.7397  XZZ=              8.5499  YZZ=             -0.3371
  YYZ=              0.3508  XYZ=              0.9270
 Hexadecapole moment (field-independent basis, Debye-Ang**3):
 XXXX=           -336.0931 YYYY=            -63.3031 ZZZZ=            -28.9259 XXXY=             53.3811
 XXXZ=             -8.4173 YYYX=              5.7224 YYYZ=             -0.3643 ZZZX=             -0.3580
 ZZZY=             -0.1583 XXYY=            -74.6261 XXZZ=            -79.4076 YYZZ=            -17.2433
 XXYZ=             -2.8281 YYXZ=             -1.0353 ZZXY=              0.4930
 N-N= 1.482893698349D+02 E-N=-7.233708909534D+03  KE= 2.900025964431D+03
 No NMR shielding tensors so no spin-rotation constants.
 Leave Link  601 at Fri May  8 00:03:20 2020, MaxMem= 1073741824 cpu:       1.2
 (Enter /home/matheus/.gaussian/g09/l122.exe)
 Counterpoise: doing DCBS calculation for fragment   1 NewBq=T
 Leave Link  122 at Fri May  8 00:03:20 2020, MaxMem= 1073741824 cpu:       0.0
 (Enter /home/matheus/.gaussian/g09/l301.exe)
 Basis read from rwf:  (5D, 7F)
 No pseudopotential information found on rwf file.
 There are   197 symmetry adapted basis functions of A   symmetry.
 Integral buffers will be    131072 words long.
 Raffenetti 2 integral format.
 Two-electron integral symmetry is turned on.
   197 basis functions,   415 primitive gaussians,   229 cartesian basis functions
     9 alpha electrons        9 beta electrons
       nuclear repulsion energy        36.6009457491 Hartrees.
 IExCor=32609 DFT=T Ex+Corr=LC-wPBE ExCW=0 ScaHFX=  1.000000
 ScaDFX=  1.000000  0.000000  1.000000  1.000000 ScalE2=  1.000000  1.000000
 IRadAn=      5 IRanWt=     -1 IRanGd=            0 ICorTp=0
  HFx wShort=  0.000000 wLong=  0.550000 cFull=  0.000000 cShort=  0.000000 cLong=  1.000000
  DFx wShort=  0.000000 wLong=  0.550000 cFull=  0.000000 cShort=  0.000000 cLong=  1.000000
 NAtoms=    5 NActive=    5 NUniq=    5 SFac= 1.00D+00 NAtFMM=   60 NAOKFM=F Big=F
 No density basis found on file   718.
 Leave Link  301 at Fri May  8 00:03:20 2020, MaxMem= 1073741824 cpu:       0.2
 (Enter /home/matheus/.gaussian/g09/l302.exe)
 NPDir=0 NMtPBC=     1 NCelOv=     1 NCel=       1 NClECP=     1 NCelD=      1
         NCelK=      1 NCelE2=     1 NClLst=     1 CellRange=     0.0.
 One-electron integrals computed using PRISM.
 NBasis=   197 RedAO= T  NBF=   197
 NBsUse=   197 1.00D-06 NBFU=   197
 Precomputing XC quadrature grid using
 IXCGrd= 2 IRadAn=           5 IRanWt=          -1 IRanGd=           0 AccXCQ= 0.00D+00.
 NRdTot=     427 NPtTot=      123814 NUsed=      126881 NTot=      126913
 NSgBfM=   229   229   229   229   229 NAtAll=     5     5.
 Leave Link  302 at Fri May  8 00:03:20 2020, MaxMem= 1073741824 cpu:       0.9
 (Enter /home/matheus/.gaussian/g09/l303.exe)
 DipDrv:  MaxL=1.
 Leave Link  303 at Fri May  8 00:03:20 2020, MaxMem= 1073741824 cpu:       0.2
 (Enter /home/matheus/.gaussian/g09/l401.exe)
 Harris functional with IExCor=32609 diagonalized for initial guess.
 ExpMin= 2.53D-02 ExpMax= 1.17D+07 ExpMxC= 1.33D+04 IAcc=3 IRadAn=         5 AccDes= 0.00D+00
 HarFok:  IExCor=32609 AccDes= 0.00D+00 IRadAn=         5 IDoV= 1
 ScaDFX=  1.000000  1.000000  1.000000  1.000000
 FoFCou: FMM=F IPFlag=           0 FMFlag=      100000 FMFlg1=           0
         NFxFlg=           0 DoJE=T BraDBF=F KetDBF=T FulRan=T
         Omega=  0.000000  0.000000  1.000000  0.000000  0.000000 ICntrl=     500 IOpCl=  0
         NMat0=    1 NMatS0=    1 NMatT0=    0 NMatD0=    1 NMtDS0=    0 NMtDT0=    0
         I1Cent=           4 NGrid=           0.
 Petite list used in FoFCou.
 Harris En= -151.499663538551    
 Initial guess orbital symmetries:
       Occupied  (A) (A) (A) (A) (A) (A) (A) (A) (A)
       Virtual   (A) (A) (A) (A) (A) (A) (A) (A) (A) (A) (A) (A)
                 (A) (A) (A) (A) (A) (A) (A) (A) (A) (A) (A) (A)
                 (A) (A) (A) (A) (A) (A) (A) (A) (A) (A) (A) (A)
                 (A) (A) (A) (A) (A) (A) (A) (A) (A) (A) (A) (A)
                 (A) (A) (A) (A) (A) (A) (A) (A) (A) (A) (A) (A)
                 (A) (A) (A) (A) (A) (A) (A) (A) (A) (A) (A) (A)
                 (A) (A) (A) (A) (A) (A) (A) (A) (A) (A) (A) (A)
                 (A) (A) (A) (A) (A) (A) (A) (A) (A) (A) (A) (A)
                 (A) (A) (A) (A) (A) (A) (A) (A) (A) (A) (A) (A)
                 (A) (A) (A) (A) (A) (A) (A) (A) (A) (A) (A) (A)
                 (A) (A) (A) (A) (A) (A) (A) (A) (A) (A) (A) (A)
                 (A) (A) (A) (A) (A) (A) (A) (A) (A) (A) (A) (A)
                 (A) (A) (A) (A) (A) (A) (A) (A) (A) (A) (A) (A)
                 (A) (A) (A) (A) (A) (A) (A) (A) (A) (A) (A) (A)
                 (A) (A) (A) (A) (A) (A) (A) (A) (A) (A) (A) (A)
                 (A) (A) (A) (A) (A) (A) (A) (A)
 The electronic state of the initial guess is 1-A.
 Leave Link  401 at Fri May  8 00:03:21 2020, MaxMem= 1073741824 cpu:       4.0
 (Enter /home/matheus/.gaussian/g09/l502.exe)
 Closed shell SCF:
 Requested convergence on RMS density matrix=1.00D-08 within 128 cycles.
 Requested convergence on MAX density matrix=1.00D-06.
 Requested convergence on             energy=1.00D-06.
 No special actions if energy rises.
 Using DIIS extrapolation, IDIIS=  1040.
 Integral symmetry usage will be decided dynamically.
       126823 words used for storage of precomputed grid.
 IEnd=      305770 IEndB=      305770 NGot=  1073741824 MDV=  1073505365
 LenX=  1073505365 LenY=  1073452483
 Fock matrices will be formed incrementally for  20 cycles.

 Cycle   1  Pass 1  IDiag  1:
 FoFJK:  IHMeth= 1 ICntrl=     0 DoSepK=T KAlg= 1 I1Cent= 0 FoldK=F
 FoFCou: FMM=F IPFlag=           0 FMFlag=      100000 FMFlg1=           0
         NFxFlg=           0 DoJE=T BraDBF=F KetDBF=F FulRan=T
         Omega=  0.000000  0.000000  1.000000  0.000000  0.000000 ICntrl=     500 IOpCl=  0
         NMat0=    1 NMatS0=    1 NMatT0=    0 NMatD0=    1 NMtDS0=    0 NMtDT0=    0
         I1Cent=           0 NGrid=           0.
 Symmetry not used in FoFCou.
 E= -151.506261631064    
 DIIS: error= 1.26D-02 at cycle   1 NSaved=   1.
 NSaved= 1 IEnMin= 1 EnMin= -151.506261631064     IErMin= 1 ErrMin= 1.26D-02
 ErrMax= 1.26D-02 EMaxC= 1.00D-01 BMatC= 4.02D-02 BMatP= 4.02D-02
 IDIUse=3 WtCom= 8.74D-01 WtEn= 1.26D-01
 Coeff-Com:  0.100D+01
 Coeff-En:   0.100D+01
 Coeff:      0.100D+01
 Gap=     0.536 Goal=   None    Shift=    0.000
 GapD=    0.536 DampG=2.000 DampE=0.500 DampFc=1.0000 IDamp=-1.
 RMSDP=7.15D-04 MaxDP=2.49D-02              OVMax= 4.99D-02

 Cycle   2  Pass 1  IDiag  1:
 RMSU=  4.98D-04    CP:  9.87D-01
 FoFJK:  IHMeth= 1 ICntrl=     0 DoSepK=T KAlg= 1 I1Cent= 0 FoldK=F
 E= -151.522343263257     Delta-E=       -0.016081632193 Rises=F Damp=F
 DIIS: error= 6.94D-03 at cycle   2 NSaved=   2.
 NSaved= 2 IEnMin= 2 EnMin= -151.522343263257     IErMin= 2 ErrMin= 6.94D-03
 ErrMax= 6.94D-03 EMaxC= 1.00D-01 BMatC= 1.52D-02 BMatP= 4.02D-02
 IDIUse=3 WtCom= 9.31D-01 WtEn= 6.94D-02
 Coeff-Com:  0.366D+00 0.634D+00
 Coeff-En:   0.103D+00 0.897D+00
 Coeff:      0.348D+00 0.652D+00
 Gap=     0.457 Goal=   None    Shift=    0.000
 RMSDP=3.83D-04 MaxDP=2.16D-02 DE=-1.61D-02 OVMax= 2.14D-02

 Cycle   3  Pass 1  IDiag  1:
 RMSU=  2.37D-04    CP:  9.84D-01  7.41D-01
 FoFJK:  IHMeth= 1 ICntrl=     0 DoSepK=T KAlg= 1 I1Cent= 0 FoldK=F
 E= -151.530729213739     Delta-E=       -0.008385950482 Rises=F Damp=F
 DIIS: error= 1.27D-03 at cycle   3 NSaved=   3.
 NSaved= 3 IEnMin= 3 EnMin= -151.530729213739     IErMin= 3 ErrMin= 1.27D-03
 ErrMax= 1.27D-03 EMaxC= 1.00D-01 BMatC= 3.57D-04 BMatP= 1.52D-02
 IDIUse=3 WtCom= 9.87D-01 WtEn= 1.27D-02
 Coeff-Com:  0.381D-01 0.152D+00 0.810D+00
 Coeff-En:   0.000D+00 0.000D+00 0.100D+01
 Coeff:      0.376D-01 0.150D+00 0.813D+00
 Gap=     0.450 Goal=   None    Shift=    0.000
 RMSDP=5.64D-05 MaxDP=2.39D-03 DE=-8.39D-03 OVMax= 3.95D-03

 Cycle   4  Pass 1  IDiag  1:
 RMSU=  2.83D-05    CP:  9.82D-01  7.88D-01  1.03D+00
 FoFJK:  IHMeth= 1 ICntrl=     0 DoSepK=T KAlg= 1 I1Cent= 0 FoldK=F
 E= -151.530958129401     Delta-E=       -0.000228915662 Rises=F Damp=F
 DIIS: error= 2.53D-04 at cycle   4 NSaved=   4.
 NSaved= 4 IEnMin= 4 EnMin= -151.530958129401     IErMin= 4 ErrMin= 2.53D-04
 ErrMax= 2.53D-04 EMaxC= 1.00D-01 BMatC= 9.44D-06 BMatP= 3.57D-04
 IDIUse=3 WtCom= 9.97D-01 WtEn= 2.53D-03
 Coeff-Com: -0.854D-02-0.123D-01 0.900D-01 0.931D+00
 Coeff-En:   0.000D+00 0.000D+00 0.000D+00 0.100D+01
 Coeff:     -0.852D-02-0.123D-01 0.897D-01 0.931D+00
 Gap=     0.451 Goal=   None    Shift=    0.000
 RMSDP=1.48D-05 MaxDP=1.00D-03 DE=-2.29D-04 OVMax= 8.12D-04

 Cycle   5  Pass 1  IDiag  1:
 RMSU=  4.40D-06    CP:  9.81D-01  7.89D-01  1.07D+00  1.09D+00
 FoFJK:  IHMeth= 1 ICntrl=     0 DoSepK=T KAlg= 1 I1Cent= 0 FoldK=F
 E= -151.530966969273     Delta-E=       -0.000008839872 Rises=F Damp=F
 DIIS: error= 4.75D-05 at cycle   5 NSaved=   5.
 NSaved= 5 IEnMin= 5 EnMin= -151.530966969273     IErMin= 5 ErrMin= 4.75D-05
 ErrMax= 4.75D-05 EMaxC= 1.00D-01 BMatC= 2.41D-07 BMatP= 9.44D-06
 IDIUse=1 WtCom= 1.00D+00 WtEn= 0.00D+00
 Coeff-Com: -0.472D-03-0.264D-02-0.385D-01-0.123D+00 0.116D+01
 Coeff:     -0.472D-03-0.264D-02-0.385D-01-0.123D+00 0.116D+01
 Gap=     0.451 Goal=   None    Shift=    0.000
 RMSDP=3.95D-06 MaxDP=1.50D-04 DE=-8.84D-06 OVMax= 4.09D-04

 Cycle   6  Pass 1  IDiag  1:
 RMSU=  1.27D-06    CP:  9.81D-01  7.90D-01  1.07D+00  1.14D+00  1.36D+00
 FoFJK:  IHMeth= 1 ICntrl=     0 DoSepK=T KAlg= 1 I1Cent= 0 FoldK=F
 E= -151.530967609577     Delta-E=       -0.000000640304 Rises=F Damp=F
 DIIS: error= 9.29D-06 at cycle   6 NSaved=   6.
 NSaved= 6 IEnMin= 6 EnMin= -151.530967609577     IErMin= 6 ErrMin= 9.29D-06
 ErrMax= 9.29D-06 EMaxC= 1.00D-01 BMatC= 1.23D-08 BMatP= 2.41D-07
 IDIUse=1 WtCom= 1.00D+00 WtEn= 0.00D+00
 Coeff-Com:  0.327D-03 0.965D-03 0.354D-02-0.102D-01-0.189D+00 0.119D+01
 Coeff:      0.327D-03 0.965D-03 0.354D-02-0.102D-01-0.189D+00 0.119D+01
 Gap=     0.451 Goal=   None    Shift=    0.000
 RMSDP=9.36D-07 MaxDP=2.25D-05 DE=-6.40D-07 OVMax= 1.23D-04

 Cycle   7  Pass 1  IDiag  1:
 RMSU=  2.95D-07    CP:  9.81D-01  7.90D-01  1.07D+00  1.15D+00  1.44D+00
                    CP:  1.29D+00
 FoFJK:  IHMeth= 1 ICntrl=     0 DoSepK=T KAlg= 1 I1Cent= 0 FoldK=F
 E= -151.530967646211     Delta-E=       -0.000000036634 Rises=F Damp=F
 DIIS: error= 2.42D-06 at cycle   7 NSaved=   7.
 NSaved= 7 IEnMin= 7 EnMin= -151.530967646211     IErMin= 7 ErrMin= 2.42D-06
 ErrMax= 2.42D-06 EMaxC= 1.00D-01 BMatC= 6.98D-10 BMatP= 1.23D-08
 IDIUse=1 WtCom= 1.00D+00 WtEn= 0.00D+00
 Coeff-Com:  0.267D-05 0.247D-04 0.121D-02 0.559D-02-0.363D-01-0.106D+00
 Coeff-Com:  0.114D+01
 Coeff:      0.267D-05 0.247D-04 0.121D-02 0.559D-02-0.363D-01-0.106D+00
 Coeff:      0.114D+01
 Gap=     0.451 Goal=   None    Shift=    0.000
 RMSDP=2.78D-07 MaxDP=1.25D-05 DE=-3.66D-08 OVMax= 3.33D-05

 Cycle   8  Pass 1  IDiag  1:
 RMSU=  7.38D-08    CP:  9.81D-01  7.90D-01  1.08D+00  1.16D+00  1.44D+00
                    CP:  1.36D+00  1.32D+00
 FoFJK:  IHMeth= 1 ICntrl=     0 DoSepK=T KAlg= 1 I1Cent= 0 FoldK=F
 E= -151.530967584547     Delta-E=        0.000000061664 Rises=F Damp=F
 DIIS: error= 1.08D-06 at cycle   8 NSaved=   8.
 NSaved= 8 IEnMin= 7 EnMin= -151.530967646211     IErMin= 8 ErrMin= 1.08D-06
 ErrMax= 1.08D-06 EMaxC= 1.00D-01 BMatC= 3.12D-10 BMatP= 6.98D-10
 IDIUse=1 WtCom= 1.00D+00 WtEn= 0.00D+00
 Coeff-Com: -0.169D-04-0.473D-04 0.319D-03 0.298D-02-0.435D-02-0.122D+00
 Coeff-Com:  0.531D+00 0.592D+00
 Coeff:     -0.169D-04-0.473D-04 0.319D-03 0.298D-02-0.435D-02-0.122D+00
 Coeff:      0.531D+00 0.592D+00
 Gap=     0.451 Goal=   None    Shift=    0.000
 RMSDP=6.49D-08 MaxDP=4.06D-06 DE= 6.17D-08 OVMax= 4.98D-06

 Cycle   9  Pass 1  IDiag  1:
 RMSU=  2.85D-08    CP:  9.81D-01  7.90D-01  1.08D+00  1.16D+00  1.44D+00
                    CP:  1.36D+00  1.39D+00  8.76D-01
 FoFJK:  IHMeth= 1 ICntrl=     0 DoSepK=T KAlg= 1 I1Cent= 0 FoldK=F
 E= -151.530967584779     Delta-E=       -0.000000000232 Rises=F Damp=F
 DIIS: error= 2.74D-07 at cycle   9 NSaved=   9.
 NSaved= 9 IEnMin= 7 EnMin= -151.530967646211     IErMin= 9 ErrMin= 2.74D-07
 ErrMax= 2.74D-07 EMaxC= 1.00D-01 BMatC= 1.81D-11 BMatP= 3.12D-10
 IDIUse=1 WtCom= 1.00D+00 WtEn= 0.00D+00
 Coeff-Com: -0.486D-05-0.191D-04-0.201D-03-0.594D-03 0.827D-02-0.122D-01
 Coeff-Com: -0.123D+00 0.119D+00 0.101D+01
 Coeff:     -0.486D-05-0.191D-04-0.201D-03-0.594D-03 0.827D-02-0.122D-01
 Coeff:     -0.123D+00 0.119D+00 0.101D+01
 Gap=     0.451 Goal=   None    Shift=    0.000
 RMSDP=4.53D-08 MaxDP=2.71D-06 DE=-2.32D-10 OVMax= 3.18D-06

 Cycle  10  Pass 1  IDiag  1:
 RMSU=  6.69D-09    CP:  9.81D-01  7.90D-01  1.08D+00  1.16D+00  1.44D+00
                    CP:  1.36D+00  1.43D+00  1.05D+00  1.16D+00
 FoFJK:  IHMeth= 1 ICntrl=     0 DoSepK=T KAlg= 1 I1Cent= 0 FoldK=F
 E= -151.530967584806     Delta-E=       -0.000000000028 Rises=F Damp=F
 DIIS: error= 4.76D-08 at cycle  10 NSaved=  10.
 NSaved=10 IEnMin= 7 EnMin= -151.530967646211     IErMin=10 ErrMin= 4.76D-08
 ErrMax= 4.76D-08 EMaxC= 1.00D-01 BMatC= 2.80D-13 BMatP= 1.81D-11
 IDIUse=1 WtCom= 1.00D+00 WtEn= 0.00D+00
 Coeff-Com:  0.149D-05 0.683D-05 0.466D-04 0.336D-04-0.181D-02 0.607D-02
 Coeff-Com:  0.175D-01-0.456D-01-0.254D+00 0.128D+01
 Coeff:      0.149D-05 0.683D-05 0.466D-04 0.336D-04-0.181D-02 0.607D-02
 Coeff:      0.175D-01-0.456D-01-0.254D+00 0.128D+01
 Gap=     0.451 Goal=   None    Shift=    0.000
 RMSDP=6.37D-09 MaxDP=1.32D-07 DE=-2.77D-11 OVMax= 8.57D-07

 SCF Done:  E(RLC-wPBE) =  -151.530967585     A.U. after   10 cycles
             Convg  =    0.6368D-08             -V/T =  2.0071
 KE= 1.504633093054D+02 PE=-4.315422578132D+02 EE= 9.294703517394D+01
 Leave Link  502 at Fri May  8 00:03:50 2020, MaxMem= 1073741824 cpu:     234.6
 (Enter /home/matheus/.gaussian/g09/l601.exe)
 Copying SCF densities to generalized density rwf, IOpCl= 0 IROHF=0.

 **********************************************************************

            Population analysis using the SCF density.

 **********************************************************************

 Orbital symmetries:
       Occupied  (A) (A) (A) (A) (A) (A) (A) (A) (A)
       Virtual   (A) (A) (A) (A) (A) (A) (A) (A) (A) (A) (A) (A)
                 (A) (A) (A) (A) (A) (A) (A) (A) (A) (A) (A) (A)
                 (A) (A) (A) (A) (A) (A) (A) (A) (A) (A) (A) (A)
                 (A) (A) (A) (A) (A) (A) (A) (A) (A) (A) (A) (A)
                 (A) (A) (A) (A) (A) (A) (A) (A) (A) (A) (A) (A)
                 (A) (A) (A) (A) (A) (A) (A) (A) (A) (A) (A) (A)
                 (A) (A) (A) (A) (A) (A) (A) (A) (A) (A) (A) (A)
                 (A) (A) (A) (A) (A) (A) (A) (A) (A) (A) (A) (A)
                 (A) (A) (A) (A) (A) (A) (A) (A) (A) (A) (A) (A)
                 (A) (A) (A) (A) (A) (A) (A) (A) (A) (A) (A) (A)
                 (A) (A) (A) (A) (A) (A) (A) (A) (A) (A) (A) (A)
                 (A) (A) (A) (A) (A) (A) (A) (A) (A) (A) (A) (A)
                 (A) (A) (A) (A) (A) (A) (A) (A) (A) (A) (A) (A)
                 (A) (A) (A) (A) (A) (A) (A) (A) (A) (A) (A) (A)
                 (A) (A) (A) (A) (A) (A) (A) (A) (A) (A) (A) (A)
                 (A) (A) (A) (A) (A) (A) (A) (A)
 The electronic state is 1-A.
 Alpha  occ. eigenvalues --  -19.11151 -19.11145  -1.32035  -1.09729  -0.69856
 Alpha  occ. eigenvalues --   -0.66945  -0.57895  -0.50881  -0.42157
 Alpha virt. eigenvalues --    0.02973   0.03689   0.07271   0.08998   0.10241
 Alpha virt. eigenvalues --    0.11061   0.11608   0.14368   0.16783   0.17382
 Alpha virt. eigenvalues --    0.19578   0.19779   0.21412   0.23660   0.27201
 Alpha virt. eigenvalues --    0.27874   0.30053   0.31390   0.31857   0.33856
 Alpha virt. eigenvalues --    0.37147   0.37788   0.38988   0.39945   0.42202
 Alpha virt. eigenvalues --    0.43436   0.43886   0.48025   0.49258   0.50235
 Alpha virt. eigenvalues --    0.55315   0.58442   0.62131   0.67604   0.69320
 Alpha virt. eigenvalues --    0.71370   0.74990   0.76781   0.77321   0.78327
 Alpha virt. eigenvalues --    0.79999   0.84528   0.86890   0.89052   0.92544
 Alpha virt. eigenvalues --    0.92728   0.94129   0.97134   0.99140   1.01095
 Alpha virt. eigenvalues --    1.02492   1.06415   1.06927   1.11137   1.13879
 Alpha virt. eigenvalues --    1.15336   1.17106   1.17563   1.20695   1.25504
 Alpha virt. eigenvalues --    1.27515   1.30250   1.32611   1.33463   1.34051
 Alpha virt. eigenvalues --    1.34651   1.35850   1.37229   1.37885   1.47274
 Alpha virt. eigenvalues --    1.49885   1.51991   1.55294   1.55379   1.58603
 Alpha virt. eigenvalues --    1.60412   1.66561   1.68153   1.74385   1.82094
 Alpha virt. eigenvalues --    1.83164   1.86640   1.92162   2.01285   2.03997
 Alpha virt. eigenvalues --    2.05510   2.10075   2.18251   2.19598   2.23571
 Alpha virt. eigenvalues --    2.29272   2.32395   2.34895   2.40969   2.47535
 Alpha virt. eigenvalues --    2.52765   2.59509   2.60331   2.62060   2.70623
 Alpha virt. eigenvalues --    2.72796   2.74177   2.78268   2.89926   2.97928
 Alpha virt. eigenvalues --    3.10557   3.13313   3.16382   3.26109   3.30723
 Alpha virt. eigenvalues --    3.41336   3.51720   3.61942   3.74264   3.78589
 Alpha virt. eigenvalues --    3.79544   3.82166   3.82380   3.82797   3.84485
 Alpha virt. eigenvalues --    3.90438   3.91082   3.92462   3.93786   3.96036
 Alpha virt. eigenvalues --    3.98851   4.08349   4.11437   4.13977   4.15337
 Alpha virt. eigenvalues --    4.17604   4.24550   4.25695   4.32366   4.37126
 Alpha virt. eigenvalues --    4.45437   4.50258   4.61250   4.77916   4.94857
 Alpha virt. eigenvalues --    5.06907   5.08761   5.12781   5.12804   5.42181
 Alpha virt. eigenvalues --    5.48134   5.87454   6.02524   6.12783   6.18171
 Alpha virt. eigenvalues --    6.34833   6.40986   6.48448   6.51952   6.74538
 Alpha virt. eigenvalues --    6.75737   6.78478   6.84962   6.90811   6.93468
 Alpha virt. eigenvalues --    6.95978   6.98010   6.98756   7.02107   7.05757
 Alpha virt. eigenvalues --    7.25949   7.29155   7.43131   7.65463   7.87512
 Alpha virt. eigenvalues --    8.15046   8.17954  10.89684  14.12147  14.54009
 Alpha virt. eigenvalues --   14.83467  14.88639  15.11410  29.03199  29.03822
 Alpha virt. eigenvalues --   29.08108  29.14125  29.23534  49.11079 148.31460
 Alpha virt. eigenvalues --  148.39143 148.72309 752.51726
          Condensed to atoms (all electrons):
              1          2          3          4          5
     1  O    8.207448  -0.177042   0.184533  -0.006132  -0.006097
     2  O   -0.177042   8.179458   0.007108   0.223184   0.001140
     3  H    0.184533   0.007108   0.601356   0.005336   0.001278
     4  H   -0.006132   0.223184   0.005336   0.551271  -0.003704
     5  Kr  -0.006097   0.001140   0.001278  -0.003704   0.001263
 Mulliken atomic charges:
              1
     1  O   -0.202709
     2  O   -0.233847
     3  H    0.200389
     4  H    0.230046
     5  Kr   0.006120
 Sum of Mulliken atomic charges =   0.00000
 Mulliken charges with hydrogens summed into heavy atoms:
              1
     1  O   -0.002319
     2  O   -0.003801
     5  Kr   0.006120
 Sum of Mulliken charges with hydrogens summed into heavy atoms =   0.00000
          Condensed to fragments (all electrons):
     1      -0.006120
     2       0.006120
 Electronic spatial extent (au):  <R**2>=            324.4558
 Charge=              0.0000 electrons
 Dipole moment (field-independent basis, Debye):
    X=              0.0242    Y=             -0.0044    Z=              0.2895  Tot=              0.2906
 Quadrupole moment (field-independent basis, Debye-Ang):
   XX=             -8.4767   YY=            -10.7079   ZZ=            -13.0048
   XY=              4.1385   XZ=             -0.8974   YZ=             -0.2942
 Traceless Quadrupole moment (field-independent basis, Debye-Ang):
   XX=              2.2531   YY=              0.0219   ZZ=             -2.2750
   XY=              4.1385   XZ=             -0.8974   YZ=             -0.2942
 Octapole moment (field-independent basis, Debye-Ang**2):
  XXX=             50.6301  YYY=             -1.2262  ZZZ=              0.1750  XYY=             21.7376
  XXY=            -16.7910  XXZ=              2.7669  XZZ=             25.9666  YZZ=             -0.5371
  YYZ=              0.3716  XYZ=              0.9265
 Hexadecapole moment (field-independent basis, Debye-Ang**3):
 XXXX=           -211.9554 YYYY=            -45.4372 ZZZZ=            -11.1931 XXXY=             52.6624
 XXXZ=             -8.3543 YYYX=              5.1070 YYYZ=             -0.3631 ZZZX=             -0.2936
 ZZZY=             -0.1572 XXYY=            -51.0166 XXZZ=            -55.9525 YYZZ=            -11.3070
 XXYZ=             -2.8293 YYXZ=             -1.0129 ZZXY=              0.2498
 N-N= 3.660094574909D+01 E-N=-4.315422583455D+02  KE= 1.504633093054D+02
 No NMR shielding tensors so no spin-rotation constants.
 Leave Link  601 at Fri May  8 00:03:50 2020, MaxMem= 1073741824 cpu:       0.8
 (Enter /home/matheus/.gaussian/g09/l122.exe)
 Counterpoise: doing DCBS calculation for fragment   2 NewBq=T
 Leave Link  122 at Fri May  8 00:03:50 2020, MaxMem= 1073741824 cpu:       0.0
 (Enter /home/matheus/.gaussian/g09/l301.exe)
 Basis read from rwf:  (5D, 7F)
 No pseudopotential information found on rwf file.
 There are   197 symmetry adapted basis functions of A   symmetry.
 Integral buffers will be    131072 words long.
 Raffenetti 2 integral format.
 Two-electron integral symmetry is turned on.
   197 basis functions,   415 primitive gaussians,   229 cartesian basis functions
    18 alpha electrons       18 beta electrons
       nuclear repulsion energy         0.0000000000 Hartrees.
 IExCor=32609 DFT=T Ex+Corr=LC-wPBE ExCW=0 ScaHFX=  1.000000
 ScaDFX=  1.000000  0.000000  1.000000  1.000000 ScalE2=  1.000000  1.000000
 IRadAn=      5 IRanWt=     -1 IRanGd=            0 ICorTp=0
  HFx wShort=  0.000000 wLong=  0.550000 cFull=  0.000000 cShort=  0.000000 cLong=  1.000000
  DFx wShort=  0.000000 wLong=  0.550000 cFull=  0.000000 cShort=  0.000000 cLong=  1.000000
 NAtoms=    5 NActive=    5 NUniq=    5 SFac= 1.00D+00 NAtFMM=   60 NAOKFM=F Big=F
 No density basis found on file   718.
 Leave Link  301 at Fri May  8 00:03:50 2020, MaxMem= 1073741824 cpu:       0.2
 (Enter /home/matheus/.gaussian/g09/l302.exe)
 NPDir=0 NMtPBC=     1 NCelOv=     1 NCel=       1 NClECP=     1 NCelD=      1
         NCelK=      1 NCelE2=     1 NClLst=     1 CellRange=     0.0.
 One-electron integrals computed using PRISM.
 NBasis=   197 RedAO= T  NBF=   197
 NBsUse=   197 1.00D-06 NBFU=   197
 Precomputing XC quadrature grid using
 IXCGrd= 2 IRadAn=           5 IRanWt=          -1 IRanGd=           0 AccXCQ= 0.00D+00.
 NRdTot=     427 NPtTot=      123814 NUsed=      126881 NTot=      126913
 NSgBfM=   229   229   229   229   229 NAtAll=     5     5.
 Leave Link  302 at Fri May  8 00:03:50 2020, MaxMem= 1073741824 cpu:       1.0
 (Enter /home/matheus/.gaussian/g09/l303.exe)
 DipDrv:  MaxL=1.
 Leave Link  303 at Fri May  8 00:03:50 2020, MaxMem= 1073741824 cpu:       0.2
 (Enter /home/matheus/.gaussian/g09/l401.exe)
 Harris functional with IExCor=32609 diagonalized for initial guess.
 ExpMin= 2.53D-02 ExpMax= 1.17D+07 ExpMxC= 1.33D+04 IAcc=3 IRadAn=         5 AccDes= 0.00D+00
 HarFok:  IExCor=32609 AccDes= 0.00D+00 IRadAn=         5 IDoV= 1
 ScaDFX=  1.000000  1.000000  1.000000  1.000000
 FoFCou: FMM=F IPFlag=           0 FMFlag=      100000 FMFlg1=           0
         NFxFlg=           0 DoJE=T BraDBF=F KetDBF=T FulRan=T
         Omega=  0.000000  0.000000  1.000000  0.000000  0.000000 ICntrl=     500 IOpCl=  0
         NMat0=    1 NMatS0=    1 NMatT0=    0 NMatD0=    1 NMtDS0=    0 NMtDT0=    0
         I1Cent=           4 NGrid=           0.
 Petite list used in FoFCou.
 Harris En= -2753.24649421478    
 Initial guess orbital symmetries:
       Occupied  (A) (A) (A) (A) (A) (A) (A) (A) (A) (A) (A) (A)
                 (A) (A) (A) (A) (A) (A)
       Virtual   (A) (A) (A) (A) (A) (A) (A) (A) (A) (A) (A) (A)
                 (A) (A) (A) (A) (A) (A) (A) (A) (A) (A) (A) (A)
                 (A) (A) (A) (A) (A) (A) (A) (A) (A) (A) (A) (A)
                 (A) (A) (A) (A) (A) (A) (A) (A) (A) (A) (A) (A)
                 (A) (A) (A) (A) (A) (A) (A) (A) (A) (A) (A) (A)
                 (A) (A) (A) (A) (A) (A) (A) (A) (A) (A) (A) (A)
                 (A) (A) (A) (A) (A) (A) (A) (A) (A) (A) (A) (A)
                 (A) (A) (A) (A) (A) (A) (A) (A) (A) (A) (A) (A)
                 (A) (A) (A) (A) (A) (A) (A) (A) (A) (A) (A) (A)
                 (A) (A) (A) (A) (A) (A) (A) (A) (A) (A) (A) (A)
                 (A) (A) (A) (A) (A) (A) (A) (A) (A) (A) (A) (A)
                 (A) (A) (A) (A) (A) (A) (A) (A) (A) (A) (A) (A)
                 (A) (A) (A) (A) (A) (A) (A) (A) (A) (A) (A) (A)
                 (A) (A) (A) (A) (A) (A) (A) (A) (A) (A) (A) (A)
                 (A) (A) (A) (A) (A) (A) (A) (A) (A) (A) (A)
 The electronic state of the initial guess is 1-A.
 Leave Link  401 at Fri May  8 00:03:51 2020, MaxMem= 1073741824 cpu:       3.8
 (Enter /home/matheus/.gaussian/g09/l502.exe)
 Closed shell SCF:
 Requested convergence on RMS density matrix=1.00D-08 within 128 cycles.
 Requested convergence on MAX density matrix=1.00D-06.
 Requested convergence on             energy=1.00D-06.
 No special actions if energy rises.
 Using DIIS extrapolation, IDIIS=  1040.
 Integral symmetry usage will be decided dynamically.
       126823 words used for storage of precomputed grid.
 IEnd=      305770 IEndB=      305770 NGot=  1073741824 MDV=  1073505365
 LenX=  1073505365 LenY=  1073452483
 Fock matrices will be formed incrementally for  20 cycles.

 Cycle   1  Pass 1  IDiag  1:
 FoFJK:  IHMeth= 1 ICntrl=     0 DoSepK=T KAlg= 1 I1Cent= 0 FoldK=F
 FoFCou: FMM=F IPFlag=           0 FMFlag=      100000 FMFlg1=           0
         NFxFlg=           0 DoJE=T BraDBF=F KetDBF=F FulRan=T
         Omega=  0.000000  0.000000  1.000000  0.000000  0.000000 ICntrl=     500 IOpCl=  0
         NMat0=    1 NMatS0=    1 NMatT0=    0 NMatD0=    1 NMtDS0=    0 NMtDT0=    0
         I1Cent=           0 NGrid=           0.
 Symmetry not used in FoFCou.
 E= -2753.43085066995    
 DIIS: error= 2.99D-02 at cycle   1 NSaved=   1.
 NSaved= 1 IEnMin= 1 EnMin= -2753.43085066995     IErMin= 1 ErrMin= 2.99D-02
 ErrMax= 2.99D-02 EMaxC= 1.00D-01 BMatC= 2.24D-01 BMatP= 2.24D-01
 IDIUse=3 WtCom= 7.01D-01 WtEn= 2.99D-01
 Coeff-Com:  0.100D+01
 Coeff-En:   0.100D+01
 Coeff:      0.100D+01
 Gap=     0.637 Goal=   None    Shift=    0.000
 GapD=    0.637 DampG=2.000 DampE=0.500 DampFc=1.0000 IDamp=-1.
 RMSDP=2.09D-03 MaxDP=1.42D-01              OVMax= 5.14D-02

 Cycle   2  Pass 1  IDiag  1:
 RMSU=  1.44D-03    CP:  1.02D+00
 FoFJK:  IHMeth= 1 ICntrl=     0 DoSepK=T KAlg= 1 I1Cent= 0 FoldK=F
 E= -2753.46431424350     Delta-E=       -0.033463573549 Rises=F Damp=F
 DIIS: error= 1.17D-02 at cycle   2 NSaved=   2.
 NSaved= 2 IEnMin= 2 EnMin= -2753.46431424350     IErMin= 2 ErrMin= 1.17D-02
 ErrMax= 1.17D-02 EMaxC= 1.00D-01 BMatC= 4.97D-02 BMatP= 2.24D-01
 IDIUse=3 WtCom= 8.83D-01 WtEn= 1.17D-01
 Coeff-Com:  0.315D+00 0.685D+00
 Coeff-En:   0.627D-01 0.937D+00
 Coeff:      0.286D+00 0.714D+00
 Gap=     0.549 Goal=   None    Shift=    0.000
 RMSDP=7.74D-04 MaxDP=5.00D-02 DE=-3.35D-02 OVMax= 1.85D-02

 Cycle   3  Pass 1  IDiag  1:
 RMSU=  1.55D-04    CP:  1.01D+00  6.47D-01
 FoFJK:  IHMeth= 1 ICntrl=     0 DoSepK=T KAlg= 1 I1Cent= 0 FoldK=F
 E= -2753.47773756768     Delta-E=       -0.013423324179 Rises=F Damp=F
 DIIS: error= 1.37D-03 at cycle   3 NSaved=   3.
 NSaved= 3 IEnMin= 3 EnMin= -2753.47773756768     IErMin= 3 ErrMin= 1.37D-03
 ErrMax= 1.37D-03 EMaxC= 1.00D-01 BMatC= 5.62D-04 BMatP= 4.97D-02
 IDIUse=3 WtCom= 9.86D-01 WtEn= 1.37D-02
 Coeff-Com: -0.470D-02 0.873D-01 0.917D+00
 Coeff-En:   0.000D+00 0.000D+00 0.100D+01
 Coeff:     -0.463D-02 0.861D-01 0.919D+00
 Gap=     0.556 Goal=   None    Shift=    0.000
 RMSDP=7.23D-05 MaxDP=4.36D-03 DE=-1.34D-02 OVMax= 2.46D-03

 Cycle   4  Pass 1  IDiag  1:
 RMSU=  1.37D-05    CP:  1.01D+00  6.80D-01  9.95D-01
 FoFJK:  IHMeth= 1 ICntrl=     0 DoSepK=T KAlg= 1 I1Cent= 0 FoldK=F
 E= -2753.47789975271     Delta-E=       -0.000162185026 Rises=F Damp=F
 DIIS: error= 4.01D-05 at cycle   4 NSaved=   4.
 NSaved= 4 IEnMin= 4 EnMin= -2753.47789975271     IErMin= 4 ErrMin= 4.01D-05
 ErrMax= 4.01D-05 EMaxC= 1.00D-01 BMatC= 4.37D-07 BMatP= 5.62D-04
 IDIUse=1 WtCom= 1.00D+00 WtEn= 0.00D+00
 Coeff-Com: -0.548D-03-0.201D-01-0.163D+00 0.118D+01
 Coeff:     -0.548D-03-0.201D-01-0.163D+00 0.118D+01
 Gap=     0.555 Goal=   None    Shift=    0.000
 RMSDP=5.80D-06 MaxDP=3.22D-04 DE=-1.62D-04 OVMax= 4.14D-04

 Cycle   5  Pass 1  IDiag  1:
 RMSU=  1.87D-06    CP:  1.01D+00  6.80D-01  1.01D+00  1.19D+00
 FoFJK:  IHMeth= 1 ICntrl=     0 DoSepK=T KAlg= 1 I1Cent= 0 FoldK=F
 E= -2753.47790027720     Delta-E=       -0.000000524493 Rises=F Damp=F
 DIIS: error= 2.18D-06 at cycle   5 NSaved=   5.
 NSaved= 5 IEnMin= 5 EnMin= -2753.47790027720     IErMin= 5 ErrMin= 2.18D-06
 ErrMax= 2.18D-06 EMaxC= 1.00D-01 BMatC= 2.13D-09 BMatP= 4.37D-07
 IDIUse=1 WtCom= 1.00D+00 WtEn= 0.00D+00
 Coeff-Com:  0.972D-04 0.217D-03-0.129D-02-0.183D-01 0.102D+01
 Coeff:      0.972D-04 0.217D-03-0.129D-02-0.183D-01 0.102D+01
 Gap=     0.555 Goal=   None    Shift=    0.000
 RMSDP=3.40D-07 MaxDP=2.19D-05 DE=-5.24D-07 OVMax= 1.48D-05

 Cycle   6  Pass 1  IDiag  1:
 RMSU=  1.70D-07    CP:  1.01D+00  6.80D-01  1.01D+00  1.20D+00  1.03D+00
 FoFJK:  IHMeth= 1 ICntrl=     0 DoSepK=T KAlg= 1 I1Cent= 0 FoldK=F
 E= -2753.47790027907     Delta-E=       -0.000000001870 Rises=F Damp=F
 DIIS: error= 4.18D-07 at cycle   6 NSaved=   6.
 NSaved= 6 IEnMin= 6 EnMin= -2753.47790027907     IErMin= 6 ErrMin= 4.18D-07
 ErrMax= 4.18D-07 EMaxC= 1.00D-01 BMatC= 7.67D-11 BMatP= 2.13D-09
 IDIUse=1 WtCom= 1.00D+00 WtEn= 0.00D+00
 Coeff-Com:  0.353D-05 0.193D-03 0.178D-02-0.167D-01 0.357D-01 0.979D+00
 Coeff:      0.353D-05 0.193D-03 0.178D-02-0.167D-01 0.357D-01 0.979D+00
 Gap=     0.555 Goal=   None    Shift=    0.000
 RMSDP=5.07D-08 MaxDP=2.53D-06 DE=-1.87D-09 OVMax= 3.10D-06

 Cycle   7  Pass 1  IDiag  1:
 RMSU=  1.11D-08    CP:  1.01D+00  6.80D-01  1.01D+00  1.20D+00  1.04D+00
                    CP:  1.10D+00
 FoFJK:  IHMeth= 1 ICntrl=     0 DoSepK=T KAlg= 1 I1Cent= 0 FoldK=F
 E= -2753.47790027912     Delta-E=       -0.000000000050 Rises=F Damp=F
 DIIS: error= 2.87D-08 at cycle   7 NSaved=   7.
 NSaved= 7 IEnMin= 7 EnMin= -2753.47790027912     IErMin= 7 ErrMin= 2.87D-08
 ErrMax= 2.87D-08 EMaxC= 1.00D-01 BMatC= 4.31D-13 BMatP= 7.67D-11
 IDIUse=1 WtCom= 1.00D+00 WtEn= 0.00D+00
 Coeff-Com:  0.224D-06 0.339D-04 0.324D-03-0.289D-02 0.308D-02 0.155D+00
 Coeff-Com:  0.844D+00
 Coeff:      0.224D-06 0.339D-04 0.324D-03-0.289D-02 0.308D-02 0.155D+00
 Coeff:      0.844D+00
 Gap=     0.555 Goal=   None    Shift=    0.000
 RMSDP=6.00D-09 MaxDP=2.26D-07 DE=-4.96D-11 OVMax= 2.44D-07

 SCF Done:  E(RLC-wPBE) =  -2753.47790028     A.U. after    7 cycles
             Convg  =    0.5997D-08             -V/T =  2.0014
 KE= 2.749514982648D+03 PE=-6.579049126654D+03 EE= 1.076056243728D+03
 Leave Link  502 at Fri May  8 00:04:12 2020, MaxMem= 1073741824 cpu:     166.5
 (Enter /home/matheus/.gaussian/g09/l601.exe)
 Copying SCF densities to generalized density rwf, IOpCl= 0 IROHF=0.

 **********************************************************************

            Population analysis using the SCF density.

 **********************************************************************

 Orbital symmetries:
       Occupied  (A) (A) (A) (A) (A) (A) (A) (A) (A) (A) (A) (A)
                 (A) (A) (A) (A) (A) (A)
       Virtual   (A) (A) (A) (A) (A) (A) (A) (A) (A) (A) (A) (A)
                 (A) (A) (A) (A) (A) (A) (A) (A) (A) (A) (A) (A)
                 (A) (A) (A) (A) (A) (A) (A) (A) (A) (A) (A) (A)
                 (A) (A) (A) (A) (A) (A) (A) (A) (A) (A) (A) (A)
                 (A) (A) (A) (A) (A) (A) (A) (A) (A) (A) (A) (A)
                 (A) (A) (A) (A) (A) (A) (A) (A) (A) (A) (A) (A)
                 (A) (A) (A) (A) (A) (A) (A) (A) (A) (A) (A) (A)
                 (A) (A) (A) (A) (A) (A) (A) (A) (A) (A) (A) (A)
                 (A) (A) (A) (A) (A) (A) (A) (A) (A) (A) (A) (A)
                 (A) (A) (A) (A) (A) (A) (A) (A) (A) (A) (A) (A)
                 (A) (A) (A) (A) (A) (A) (A) (A) (A) (A) (A) (A)
                 (A) (A) (A) (A) (A) (A) (A) (A) (A) (A) (A) (A)
                 (A) (A) (A) (A) (A) (A) (A) (A) (A) (A) (A) (A)
                 (A) (A) (A) (A) (A) (A) (A) (A) (A) (A) (A) (A)
                 (A) (A) (A) (A) (A) (A) (A) (A) (A) (A) (A)
 The electronic state is 1-A.
 Alpha  occ. eigenvalues -- -511.18550 -66.73375 -60.39484 -60.39481 -60.39480
 Alpha  occ. eigenvalues --   -9.66931  -7.41183  -7.41181  -7.41181  -3.35590
 Alpha  occ. eigenvalues --   -3.35589  -3.35589  -3.35588  -3.35588  -1.08852
 Alpha  occ. eigenvalues --   -0.52697  -0.52694  -0.52692
 Alpha virt. eigenvalues --    0.02857   0.04873   0.08359   0.09915   0.10791
 Alpha virt. eigenvalues --    0.12193   0.13028   0.14455   0.16609   0.17084
 Alpha virt. eigenvalues --    0.17819   0.19600   0.21225   0.26603   0.27421
 Alpha virt. eigenvalues --    0.28022   0.28742   0.33263   0.34175   0.35822
 Alpha virt. eigenvalues --    0.36177   0.37062   0.38115   0.39690   0.41961
 Alpha virt. eigenvalues --    0.43388   0.43970   0.54672   0.56004   0.58898
 Alpha virt. eigenvalues --    0.61539   0.65408   0.67556   0.68817   0.70837
 Alpha virt. eigenvalues --    0.75690   0.75795   0.76973   0.78812   0.79253
 Alpha virt. eigenvalues --    0.81869   0.82356   0.84048   0.84981   0.86015
 Alpha virt. eigenvalues --    0.87208   0.88538   0.89479   0.92851   0.95469
 Alpha virt. eigenvalues --    0.98464   1.00273   1.02118   1.03754   1.05722
 Alpha virt. eigenvalues --    1.07307   1.09612   1.09924   1.13192   1.14725
 Alpha virt. eigenvalues --    1.16426   1.19367   1.20276   1.26713   1.28609
 Alpha virt. eigenvalues --    1.33559   1.35395   1.42744   1.44863   1.46378
 Alpha virt. eigenvalues --    1.58221   1.61276   1.70708   1.75242   1.77371
 Alpha virt. eigenvalues --    1.82681   1.86235   1.87611   1.89115   2.19388
 Alpha virt. eigenvalues --    2.23895   2.25531   2.30655   2.33179   2.34779
 Alpha virt. eigenvalues --    2.35716   2.36321   2.38060   2.41403   2.42076
 Alpha virt. eigenvalues --    2.42603   2.48647   2.49968   2.52847   2.53869
 Alpha virt. eigenvalues --    2.54958   2.55700   2.56694   2.59300   2.60846
 Alpha virt. eigenvalues --    2.62639   2.63403   2.64204   2.67428   2.69027
 Alpha virt. eigenvalues --    2.71128   2.72178   2.79680   2.80859   2.88037
 Alpha virt. eigenvalues --    2.90372   3.02649   3.05890   3.11271   3.15244
 Alpha virt. eigenvalues --    3.23895   3.27758   3.28767   3.35309   3.52917
 Alpha virt. eigenvalues --    3.59694   3.64658   3.85114   3.87373   4.03348
 Alpha virt. eigenvalues --    4.36830   4.43647   4.56059   4.57539   4.62553
 Alpha virt. eigenvalues --    4.73513   4.90358   4.91702   4.93801   5.04114
 Alpha virt. eigenvalues --    5.12169   5.14796   5.59630   5.66991   5.86051
 Alpha virt. eigenvalues --    5.88058   5.94924   6.21794   6.84476   6.94234
 Alpha virt. eigenvalues --    7.26148   7.42229   7.60472   7.65545   7.74518
 Alpha virt. eigenvalues --    7.79151   8.09086   8.09837   8.16912   8.25437
 Alpha virt. eigenvalues --    8.33866   8.37915   8.68943   8.89991   9.64061
 Alpha virt. eigenvalues --    9.70645   9.76928   9.83848   9.95877  10.06097
 Alpha virt. eigenvalues --   10.17745  10.20715  10.49701  10.93230  11.42538
 Alpha virt. eigenvalues --   11.56375  11.61559  12.03125  12.13501  13.21732
 Alpha virt. eigenvalues --   13.69158  14.53074  62.93873  64.52179
          Condensed to atoms (all electrons):
              1          2          3          4          5
     1  O    0.003161  -0.002755  -0.001559   0.001495  -0.009081
     2  O   -0.002755   0.006500   0.001076  -0.004335  -0.001458
     3  H   -0.001559   0.001076   0.000974  -0.000515   0.001200
     4  H    0.001495  -0.004335  -0.000515   0.004879  -0.030450
     5  Kr  -0.009081  -0.001458   0.001200  -0.030450  36.077250
 Mulliken atomic charges:
              1
     1  O    0.008738
     2  O    0.000973
     3  H   -0.001176
     4  H    0.028925
     5  Kr  -0.037460
 Sum of Mulliken atomic charges =   0.00000
 Mulliken charges with hydrogens summed into heavy atoms:
              1
     1  O    0.007562
     2  O    0.029898
     5  Kr  -0.037460
 Sum of Mulliken charges with hydrogens summed into heavy atoms =   0.00000
          Condensed to fragments (all electrons):
     1       0.037460
     2      -0.037460
 Electronic spatial extent (au):  <R**2>=            167.6343
 Charge=              0.0000 electrons
 Dipole moment (field-independent basis, Debye):
    X=             -0.0010    Y=              0.0005    Z=              0.0000  Tot=              0.0011
 Quadrupole moment (field-independent basis, Debye-Ang):
   XX=            -17.5410   YY=            -17.5498   ZZ=            -17.5556
   XY=             -0.0044   XZ=              0.0000   YZ=              0.0001
 Traceless Quadrupole moment (field-independent basis, Debye-Ang):
   XX=              0.0078   YY=             -0.0010   ZZ=             -0.0068
   XY=             -0.0044   XZ=              0.0000   YZ=              0.0001
 Octapole moment (field-independent basis, Debye-Ang**2):
  XXX=            -52.6007  YYY=              0.9939  ZZZ=             -0.0536  XYY=            -17.5432
  XXY=              0.3215  XXZ=             -0.0181  XZZ=            -17.5463  YZZ=              0.3317
  YYZ=             -0.0177  XYZ=              0.0001
 Hexadecapole moment (field-independent basis, Debye-Ang**3):
 XXXX=           -123.1687 YYYY=            -18.0596 ZZZZ=            -18.0401 XXXY=              0.9707
 XXXZ=             -0.0541 YYYX=              0.9776 YYYZ=              0.0008 ZZZX=             -0.0537
 ZZZY=              0.0013 XXYY=            -23.5449 XXZZ=            -23.5433 YYZZ=             -6.0135
 XXYZ=              0.0004 YYXZ=             -0.0179 ZZXY=              0.3249
 N-N= 0.000000000000D+00 E-N=-6.579049123833D+03  KE= 2.749514982648D+03
 No NMR shielding tensors so no spin-rotation constants.
 Leave Link  601 at Fri May  8 00:04:12 2020, MaxMem= 1073741824 cpu:       0.7
 (Enter /home/matheus/.gaussian/g09/l122.exe)
 Counterpoise: doing MCBS calculation for fragment   1
 Leave Link  122 at Fri May  8 00:04:12 2020, MaxMem= 1073741824 cpu:       0.0
 (Enter /home/matheus/.gaussian/g09/l301.exe)
 Basis read from rwf:  (5D, 7F)
 No pseudopotential information found on rwf file.
 There are   138 symmetry adapted basis functions of A   symmetry.
 Integral buffers will be    131072 words long.
 Raffenetti 2 integral format.
 Two-electron integral symmetry is turned on.
   138 basis functions,   198 primitive gaussians,   160 cartesian basis functions
     9 alpha electrons        9 beta electrons
       nuclear repulsion energy        36.6009457491 Hartrees.
 IExCor=32609 DFT=T Ex+Corr=LC-wPBE ExCW=0 ScaHFX=  1.000000
 ScaDFX=  1.000000  0.000000  1.000000  1.000000 ScalE2=  1.000000  1.000000
 IRadAn=      5 IRanWt=     -1 IRanGd=            0 ICorTp=0
  HFx wShort=  0.000000 wLong=  0.550000 cFull=  0.000000 cShort=  0.000000 cLong=  1.000000
  DFx wShort=  0.000000 wLong=  0.550000 cFull=  0.000000 cShort=  0.000000 cLong=  1.000000
 NAtoms=    5 NActive=    4 NUniq=    4 SFac= 1.00D+00 NAtFMM=   60 NAOKFM=F Big=F
 No density basis found on file   718.
 Leave Link  301 at Fri May  8 00:04:12 2020, MaxMem= 1073741824 cpu:       0.2
 (Enter /home/matheus/.gaussian/g09/l302.exe)
 NPDir=0 NMtPBC=     1 NCelOv=     1 NCel=       1 NClECP=     1 NCelD=      1
         NCelK=      1 NCelE2=     1 NClLst=     1 CellRange=     0.0.
 One-electron integrals computed using PRISM.
 NBasis=   138 RedAO= T  NBF=   138
 NBsUse=   138 1.00D-06 NBFU=   138
 Precomputing XC quadrature grid using
 IXCGrd= 2 IRadAn=           5 IRanWt=          -1 IRanGd=           0 AccXCQ= 0.00D+00.
 NRdTot=     344 NPtTot=       92556 NUsed=       95038 NTot=       95070
 NSgBfM=   160   160   160   160   160 NAtAll=     4     4.
 Leave Link  302 at Fri May  8 00:04:12 2020, MaxMem= 1073741824 cpu:       0.8
 (Enter /home/matheus/.gaussian/g09/l303.exe)
 DipDrv:  MaxL=1.
 Leave Link  303 at Fri May  8 00:04:12 2020, MaxMem= 1073741824 cpu:       0.1
 (Enter /home/matheus/.gaussian/g09/l401.exe)
 Harris functional with IExCor=32609 diagonalized for initial guess.
 ExpMin= 2.53D-02 ExpMax= 1.53D+04 ExpMxC= 5.22D+02 IAcc=3 IRadAn=         5 AccDes= 0.00D+00
 HarFok:  IExCor=32609 AccDes= 0.00D+00 IRadAn=         5 IDoV= 1
 ScaDFX=  1.000000  1.000000  1.000000  1.000000
 FoFCou: FMM=F IPFlag=           0 FMFlag=      100000 FMFlg1=           0
         NFxFlg=           0 DoJE=T BraDBF=F KetDBF=T FulRan=T
         Omega=  0.000000  0.000000  1.000000  0.000000  0.000000 ICntrl=     500 IOpCl=  0
         NMat0=    1 NMatS0=    1 NMatT0=    0 NMatD0=    1 NMtDS0=    0 NMtDT0=    0
         I1Cent=           4 NGrid=           0.
 Petite list used in FoFCou.
 Harris En= -151.499592648327    
 Initial guess orbital symmetries:
       Occupied  (A) (A) (A) (A) (A) (A) (A) (A) (A)
       Virtual   (A) (A) (A) (A) (A) (A) (A) (A) (A) (A) (A) (A)
                 (A) (A) (A) (A) (A) (A) (A) (A) (A) (A) (A) (A)
                 (A) (A) (A) (A) (A) (A) (A) (A) (A) (A) (A) (A)
                 (A) (A) (A) (A) (A) (A) (A) (A) (A) (A) (A) (A)
                 (A) (A) (A) (A) (A) (A) (A) (A) (A) (A) (A) (A)
                 (A) (A) (A) (A) (A) (A) (A) (A) (A) (A) (A) (A)
                 (A) (A) (A) (A) (A) (A) (A) (A) (A) (A) (A) (A)
                 (A) (A) (A) (A) (A) (A) (A) (A) (A) (A) (A) (A)
                 (A) (A) (A) (A) (A) (A) (A) (A) (A) (A) (A) (A)
                 (A) (A) (A) (A) (A) (A) (A) (A) (A) (A) (A) (A)
                 (A) (A) (A) (A) (A) (A) (A) (A) (A)
 The electronic state of the initial guess is 1-A.
 Leave Link  401 at Fri May  8 00:04:12 2020, MaxMem= 1073741824 cpu:       2.2
 (Enter /home/matheus/.gaussian/g09/l502.exe)
 Closed shell SCF:
 Requested convergence on RMS density matrix=1.00D-08 within 128 cycles.
 Requested convergence on MAX density matrix=1.00D-06.
 Requested convergence on             energy=1.00D-06.
 No special actions if energy rises.
 Using DIIS extrapolation, IDIIS=  1040.
 Integral symmetry usage will be decided dynamically.
        94980 words used for storage of precomputed grid.
 IEnd=      192360 IEndB=      192360 NGot=  1073741824 MDV=  1073591865
 LenX=  1073591865 LenY=  1073565824
 Fock matrices will be formed incrementally for  20 cycles.

 Cycle   1  Pass 1  IDiag  1:
 FoFJK:  IHMeth= 1 ICntrl=     0 DoSepK=T KAlg= 1 I1Cent= 0 FoldK=F
 FoFCou: FMM=F IPFlag=           0 FMFlag=      100000 FMFlg1=           0
         NFxFlg=           0 DoJE=T BraDBF=F KetDBF=F FulRan=T
         Omega=  0.000000  0.000000  1.000000  0.000000  0.000000 ICntrl=     500 IOpCl=  0
         NMat0=    1 NMatS0=    1 NMatT0=    0 NMatD0=    1 NMtDS0=    0 NMtDT0=    0
         I1Cent=           0 NGrid=           0.
 Symmetry not used in FoFCou.
 E= -151.506221791247    
 DIIS: error= 1.69D-02 at cycle   1 NSaved=   1.
 NSaved= 1 IEnMin= 1 EnMin= -151.506221791247     IErMin= 1 ErrMin= 1.69D-02
 ErrMax= 1.69D-02 EMaxC= 1.00D-01 BMatC= 4.02D-02 BMatP= 4.02D-02
 IDIUse=3 WtCom= 8.31D-01 WtEn= 1.69D-01
 Coeff-Com:  0.100D+01
 Coeff-En:   0.100D+01
 Coeff:      0.100D+01
 Gap=     0.536 Goal=   None    Shift=    0.000
 GapD=    0.536 DampG=2.000 DampE=0.500 DampFc=1.0000 IDamp=-1.
 RMSDP=1.06D-03 MaxDP=2.55D-02              OVMax= 4.98D-02

 Cycle   2  Pass 1  IDiag  1:
 RMSU=  7.37D-04    CP:  9.88D-01
 FoFJK:  IHMeth= 1 ICntrl=     0 DoSepK=T KAlg= 1 I1Cent= 0 FoldK=F
 E= -151.522294850552     Delta-E=       -0.016073059304 Rises=F Damp=F
 DIIS: error= 1.26D-02 at cycle   2 NSaved=   2.
 NSaved= 2 IEnMin= 2 EnMin= -151.522294850552     IErMin= 2 ErrMin= 1.26D-02
 ErrMax= 1.26D-02 EMaxC= 1.00D-01 BMatC= 1.52D-02 BMatP= 4.02D-02
 IDIUse=3 WtCom= 8.74D-01 WtEn= 1.26D-01
 Coeff-Com:  0.366D+00 0.634D+00
 Coeff-En:   0.103D+00 0.897D+00
 Coeff:      0.333D+00 0.667D+00
 Gap=     0.462 Goal=   None    Shift=    0.000
 RMSDP=5.59D-04 MaxDP=2.19D-02 DE=-1.61D-02 OVMax= 2.19D-02

 Cycle   3  Pass 1  IDiag  1:
 RMSU=  3.34D-04    CP:  9.85D-01  7.19D-01
 FoFJK:  IHMeth= 1 ICntrl=     0 DoSepK=T KAlg= 1 I1Cent= 0 FoldK=F
 E= -151.530612603786     Delta-E=       -0.008317753235 Rises=F Damp=F
 DIIS: error= 2.42D-03 at cycle   3 NSaved=   3.
 NSaved= 3 IEnMin= 3 EnMin= -151.530612603786     IErMin= 3 ErrMin= 2.42D-03
 ErrMax= 2.42D-03 EMaxC= 1.00D-01 BMatC= 4.67D-04 BMatP= 1.52D-02
 IDIUse=3 WtCom= 9.76D-01 WtEn= 2.42D-02
 Coeff-Com:  0.381D-01 0.170D+00 0.792D+00
 Coeff-En:   0.000D+00 0.000D+00 0.100D+01
 Coeff:      0.372D-01 0.166D+00 0.797D+00
 Gap=     0.453 Goal=   None    Shift=    0.000
 RMSDP=8.46D-05 MaxDP=1.88D-03 DE=-8.32D-03 OVMax= 4.17D-03

 Cycle   4  Pass 1  IDiag  1:
 RMSU=  4.02D-05    CP:  9.83D-01  7.74D-01  1.01D+00
 FoFJK:  IHMeth= 1 ICntrl=     0 DoSepK=T KAlg= 1 I1Cent= 0 FoldK=F
 E= -151.530905501639     Delta-E=       -0.000292897853 Rises=F Damp=F
 DIIS: error= 3.63D-04 at cycle   4 NSaved=   4.
 NSaved= 4 IEnMin= 4 EnMin= -151.530905501639     IErMin= 4 ErrMin= 3.63D-04
 ErrMax= 3.63D-04 EMaxC= 1.00D-01 BMatC= 1.01D-05 BMatP= 4.67D-04
 IDIUse=3 WtCom= 9.96D-01 WtEn= 3.63D-03
 Coeff-Com: -0.856D-02-0.111D-01 0.910D-01 0.929D+00
 Coeff-En:   0.000D+00 0.000D+00 0.000D+00 0.100D+01
 Coeff:     -0.853D-02-0.110D-01 0.906D-01 0.929D+00
 Gap=     0.454 Goal=   None    Shift=    0.000
 RMSDP=2.11D-05 MaxDP=1.01D-03 DE=-2.93D-04 OVMax= 8.28D-04

 Cycle   5  Pass 1  IDiag  1:
 RMSU=  6.03D-06    CP:  9.83D-01  7.74D-01  1.05D+00  1.08D+00
 FoFJK:  IHMeth= 1 ICntrl=     0 DoSepK=T KAlg= 1 I1Cent= 0 FoldK=F
 E= -151.530914740870     Delta-E=       -0.000009239231 Rises=F Damp=F
 DIIS: error= 6.35D-05 at cycle   5 NSaved=   5.
 NSaved= 5 IEnMin= 5 EnMin= -151.530914740870     IErMin= 5 ErrMin= 6.35D-05
 ErrMax= 6.35D-05 EMaxC= 1.00D-01 BMatC= 2.42D-07 BMatP= 1.01D-05
 IDIUse=1 WtCom= 1.00D+00 WtEn= 0.00D+00
 Coeff-Com: -0.468D-03-0.339D-02-0.383D-01-0.123D+00 0.117D+01
 Coeff:     -0.468D-03-0.339D-02-0.383D-01-0.123D+00 0.117D+01
 Gap=     0.454 Goal=   None    Shift=    0.000
 RMSDP=5.60D-06 MaxDP=1.48D-04 DE=-9.24D-06 OVMax= 4.09D-04

 Cycle   6  Pass 1  IDiag  1:
 RMSU=  1.75D-06    CP:  9.82D-01  7.75D-01  1.05D+00  1.14D+00  1.36D+00
 FoFJK:  IHMeth= 1 ICntrl=     0 DoSepK=T KAlg= 1 I1Cent= 0 FoldK=F
 E= -151.530915367564     Delta-E=       -0.000000626694 Rises=F Damp=F
 DIIS: error= 1.62D-05 at cycle   6 NSaved=   6.
 NSaved= 6 IEnMin= 6 EnMin= -151.530915367564     IErMin= 6 ErrMin= 1.62D-05
 ErrMax= 1.62D-05 EMaxC= 1.00D-01 BMatC= 1.21D-08 BMatP= 2.42D-07
 IDIUse=1 WtCom= 1.00D+00 WtEn= 0.00D+00
 Coeff-Com:  0.328D-03 0.105D-02 0.351D-02-0.101D-01-0.189D+00 0.119D+01
 Coeff:      0.328D-03 0.105D-02 0.351D-02-0.101D-01-0.189D+00 0.119D+01
 Gap=     0.454 Goal=   None    Shift=    0.000
 RMSDP=1.30D-06 MaxDP=2.15D-05 DE=-6.27D-07 OVMax= 1.23D-04

 Cycle   7  Pass 1  IDiag  1:
 RMSU=  3.96D-07    CP:  9.82D-01  7.75D-01  1.05D+00  1.15D+00  1.43D+00
                    CP:  1.30D+00
 FoFJK:  IHMeth= 1 ICntrl=     0 DoSepK=T KAlg= 1 I1Cent= 0 FoldK=F
 E= -151.530915340411     Delta-E=        0.000000027152 Rises=F Damp=F
 DIIS: error= 4.24D-06 at cycle   7 NSaved=   7.
 NSaved= 7 IEnMin= 6 EnMin= -151.530915367564     IErMin= 7 ErrMin= 4.24D-06
 ErrMax= 4.24D-06 EMaxC= 1.00D-01 BMatC= 5.53D-10 BMatP= 1.21D-08
 IDIUse=1 WtCom= 1.00D+00 WtEn= 0.00D+00
 Coeff-Com: -0.170D-04-0.171D-04 0.987D-03 0.617D-02-0.250D-01-0.178D+00
 Coeff-Com:  0.120D+01
 Coeff:     -0.170D-04-0.171D-04 0.987D-03 0.617D-02-0.250D-01-0.178D+00
 Coeff:      0.120D+01
 Gap=     0.454 Goal=   None    Shift=    0.000
 RMSDP=3.99D-07 MaxDP=1.04D-05 DE= 2.72D-08 OVMax= 3.46D-05

 Cycle   8  Pass 1  IDiag  1:
 RMSU=  7.49D-08    CP:  9.82D-01  7.75D-01  1.06D+00  1.15D+00  1.44D+00
                    CP:  1.37D+00  1.36D+00
 FoFJK:  IHMeth= 1 ICntrl=     0 DoSepK=T KAlg= 1 I1Cent= 0 FoldK=F
 E= -151.530915342411     Delta-E=       -0.000000001999 Rises=F Damp=F
 DIIS: error= 6.67D-07 at cycle   8 NSaved=   8.
 NSaved= 8 IEnMin= 6 EnMin= -151.530915367564     IErMin= 8 ErrMin= 6.67D-07
 ErrMax= 6.67D-07 EMaxC= 1.00D-01 BMatC= 2.29D-11 BMatP= 5.53D-10
 IDIUse=1 WtCom= 1.00D+00 WtEn= 0.00D+00
 Coeff-Com: -0.920D-05-0.430D-04-0.329D-03-0.812D-03 0.139D-01-0.291D-01
 Coeff-Com: -0.183D+00 0.120D+01
 Coeff:     -0.920D-05-0.430D-04-0.329D-03-0.812D-03 0.139D-01-0.291D-01
 Coeff:     -0.183D+00 0.120D+01
 Gap=     0.454 Goal=   None    Shift=    0.000
 RMSDP=1.10D-07 MaxDP=4.47D-06 DE=-2.00D-09 OVMax= 5.99D-06

 Cycle   9  Pass 1  IDiag  1:
 RMSU=  1.60D-08    CP:  9.82D-01  7.75D-01  1.06D+00  1.15D+00  1.44D+00
                    CP:  1.38D+00  1.45D+00  1.35D+00
[...]

 Cycle   2  Pass 1  IDiag  1:
 RMSU=  1.41D-05    CP:  1.00D+00
 FoFJK:  IHMeth= 1 ICntrl=     0 DoSepK=T KAlg= 1 I1Cent= 0 FoldK=F
 E= -2753.47778109223     Delta-E=       -0.000000571195 Rises=F Damp=F
 DIIS: error= 3.55D-06 at cycle   2 NSaved=   2.
 NSaved= 2 IEnMin= 2 EnMin= -2753.47778109223     IErMin= 2 ErrMin= 3.55D-06
 ErrMax= 3.55D-06 EMaxC= 1.00D-01 BMatC= 3.87D-09 BMatP= 5.27D-06
 IDIUse=1 WtCom= 1.00D+00 WtEn= 0.00D+00
 Coeff-Com: -0.778D-02 0.101D+01
 Coeff:     -0.778D-02 0.101D+01
 Gap=     0.554 Goal=   None    Shift=    0.000
 RMSDP=1.68D-06 MaxDP=6.15D-05 DE=-5.71D-07 OVMax= 4.63D-05

 Cycle   3  Pass 1  IDiag  1:
 RMSU=  5.65D-07    CP:  1.00D+00  1.07D+00
 FoFJK:  IHMeth= 1 ICntrl=     0 DoSepK=T KAlg= 1 I1Cent= 0 FoldK=F
 E= -2753.47778109897     Delta-E=       -0.000000006745 Rises=F Damp=F
 DIIS: error= 5.20D-07 at cycle   3 NSaved=   3.
 NSaved= 3 IEnMin= 3 EnMin= -2753.47778109897     IErMin= 3 ErrMin= 5.20D-07
 ErrMax= 5.20D-07 EMaxC= 1.00D-01 BMatC= 9.87D-11 BMatP= 3.87D-09
 IDIUse=1 WtCom= 1.00D+00 WtEn= 0.00D+00
 Coeff-Com:  0.329D-03-0.127D+00 0.113D+01
 Coeff:      0.329D-03-0.127D+00 0.113D+01
 Gap=     0.554 Goal=   None    Shift=    0.000
 RMSDP=2.00D-07 MaxDP=7.07D-06 DE=-6.74D-09 OVMax= 9.35D-06

 Cycle   4  Pass 1  IDiag  1:
 RMSU=  5.90D-08    CP:  1.00D+00  1.08D+00  1.19D+00
 FoFJK:  IHMeth= 1 ICntrl=     0 DoSepK=T KAlg= 1 I1Cent= 0 FoldK=F
 E= -2753.47778109918     Delta-E=       -0.000000000204 Rises=F Damp=F
 DIIS: error= 3.10D-07 at cycle   4 NSaved=   4.
 NSaved= 4 IEnMin= 4 EnMin= -2753.47778109918     IErMin= 4 ErrMin= 3.10D-07
 ErrMax= 3.10D-07 EMaxC= 1.00D-01 BMatC= 7.86D-12 BMatP= 9.87D-11
 IDIUse=1 WtCom= 1.00D+00 WtEn= 0.00D+00
 Coeff-Com:  0.180D-03-0.439D-01 0.259D+00 0.785D+00
 Coeff:      0.180D-03-0.439D-01 0.259D+00 0.785D+00
 Gap=     0.554 Goal=   None    Shift=    0.000
 RMSDP=1.99D-08 MaxDP=9.84D-07 DE=-2.04D-10 OVMax= 8.56D-07

 Cycle   5  Pass 1  IDiag  1:
 RMSU=  8.06D-09    CP:  1.00D+00  1.08D+00  1.21D+00  1.13D+00
 FoFJK:  IHMeth= 1 ICntrl=     0 DoSepK=T KAlg= 1 I1Cent= 0 FoldK=F
 E= -2753.47778109918     Delta-E=       -0.000000000005 Rises=F Damp=F
 DIIS: error= 4.40D-08 at cycle   5 NSaved=   5.
 NSaved= 5 IEnMin= 5 EnMin= -2753.47778109918     IErMin= 5 ErrMin= 4.40D-08
 ErrMax= 4.40D-08 EMaxC= 1.00D-01 BMatC= 2.86D-13 BMatP= 7.86D-12
 IDIUse=1 WtCom= 1.00D+00 WtEn= 0.00D+00
 Coeff-Com: -0.113D-04 0.590D-02-0.554D-01 0.168D-01 0.103D+01
 Coeff:     -0.113D-04 0.590D-02-0.554D-01 0.168D-01 0.103D+01
 Gap=     0.554 Goal=   None    Shift=    0.000
 RMSDP=8.96D-09 MaxDP=5.26D-07 DE=-4.55D-12 OVMax= 3.71D-07

 SCF Done:  E(RLC-wPBE) =  -2753.47778110     A.U. after    5 cycles
             Convg  =    0.8961D-08             -V/T =  2.0014
 KE= 2.749554763371D+03 PE=-6.579092629604D+03 EE= 1.076060085134D+03
 Leave Link  502 at Fri May  8 00:27:10 2020, MaxMem= 1073741824 cpu:     106.6
 (Enter /home/matheus/.gaussian/g09/l122.exe)
 Restoring MOs from calculation   4 to rwf.
 Counterpoise: doing MCBS calculation for fragment   1
 Leave Link  122 at Fri May  8 00:27:10 2020, MaxMem= 1073741824 cpu:       0.0
 (Enter /home/matheus/.gaussian/g09/l301.exe)
 Basis read from rwf:  (5D, 7F)
 No pseudopotential information found on rwf file.
 There are   138 symmetry adapted basis functions of A   symmetry.
 Integral buffers will be    131072 words long.
 Raffenetti 2 integral format.
 Two-electron integral symmetry is turned on.
   138 basis functions,   198 primitive gaussians,   160 cartesian basis functions
     9 alpha electrons        9 beta electrons
       nuclear repulsion energy        36.6009457491 Hartrees.
 IExCor=32609 DFT=T Ex+Corr=LC-wPBE ExCW=0 ScaHFX=  1.000000
 ScaDFX=  1.000000  0.000000  1.000000  1.000000 ScalE2=  1.000000  1.000000
 IRadAn=      5 IRanWt=     -1 IRanGd=            0 ICorTp=0
  HFx wShort=  0.000000 wLong=  0.550000 cFull=  0.000000 cShort=  0.000000 cLong=  1.000000
  DFx wShort=  0.000000 wLong=  0.550000 cFull=  0.000000 cShort=  0.000000 cLong=  1.000000
 NAtoms=    5 NActive=    4 NUniq=    4 SFac= 1.00D+00 NAtFMM=   60 NAOKFM=F Big=F
 No density basis found on file   718.
 Leave Link  301 at Fri May  8 00:27:10 2020, MaxMem= 1073741824 cpu:       0.3
 (Enter /home/matheus/.gaussian/g09/l302.exe)
 NPDir=0 NMtPBC=     1 NCelOv=     1 NCel=       1 NClECP=     1 NCelD=      1
         NCelK=      1 NCelE2=     1 NClLst=     1 CellRange=     0.0.
 One-electron integrals computed using PRISM.
 NBasis=   138 RedAO= T  NBF=   138
 NBsUse=   138 1.00D-06 NBFU=   138
 Precomputing XC quadrature grid using
 IXCGrd= 2 IRadAn=           5 IRanWt=          -1 IRanGd=           0 AccXCQ= 0.00D+00.
 NRdTot=     344 NPtTot=       92556 NUsed=       95038 NTot=       95070
 NSgBfM=   160   160   160   160   160 NAtAll=     4     4.
 Leave Link  302 at Fri May  8 00:27:10 2020, MaxMem= 1073741824 cpu:       0.8
 (Enter /home/matheus/.gaussian/g09/l303.exe)
 DipDrv:  MaxL=1.
 Leave Link  303 at Fri May  8 00:27:10 2020, MaxMem= 1073741824 cpu:       0.2
 (Enter /home/matheus/.gaussian/g09/l401.exe)
 Initial guess read from the read-write file.
 Guess basis will be translated and rotated to current coordinates.
 Initial guess orbital symmetries:
       Occupied  (A) (A) (A) (A) (A) (A) (A) (A) (A)
       Virtual   (A) (A) (A) (A) (A) (A) (A) (A) (A) (A) (A) (A)
                 (A) (A) (A) (A) (A) (A) (A) (A) (A) (A) (A) (A)
                 (A) (A) (A) (A) (A) (A) (A) (A) (A) (A) (A) (A)
                 (A) (A) (A) (A) (A) (A) (A) (A) (A) (A) (A) (A)
                 (A) (A) (A) (A) (A) (A) (A) (A) (A) (A) (A) (A)
                 (A) (A) (A) (A) (A) (A) (A) (A) (A) (A) (A) (A)
                 (A) (A) (A) (A) (A) (A) (A) (A) (A) (A) (A) (A)
                 (A) (A) (A) (A) (A) (A) (A) (A) (A) (A) (A) (A)
                 (A) (A) (A) (A) (A) (A) (A) (A) (A) (A) (A) (A)
                 (A) (A) (A) (A) (A) (A) (A) (A) (A) (A) (A) (A)
                 (A) (A) (A) (A) (A) (A) (A) (A) (A)
 The electronic state of the initial guess is 1-A.
 Generating alternative initial guess.
 Harris functional with IExCor=32609 diagonalized for initial guess.
 ExpMin= 2.53D-02 ExpMax= 1.53D+04 ExpMxC= 5.22D+02 IAcc=3 IRadAn=         5 AccDes= 0.00D+00
 HarFok:  IExCor=32609 AccDes= 0.00D+00 IRadAn=         5 IDoV= 1
 ScaDFX=  1.000000  1.000000  1.000000  1.000000
 FoFCou: FMM=F IPFlag=           0 FMFlag=      100000 FMFlg1=           0
         NFxFlg=           0 DoJE=T BraDBF=F KetDBF=T FulRan=T
         Omega=  0.000000  0.000000  1.000000  0.000000  0.000000 ICntrl=     500 IOpCl=  0
         NMat0=    1 NMatS0=    1 NMatT0=    0 NMatD0=    1 NMtDS0=    0 NMtDT0=    0
         I1Cent=           4 NGrid=           0.
 Petite list used in FoFCou.
 Harris En= -151.499592744864    
 Leave Link  401 at Fri May  8 00:27:10 2020, MaxMem= 1073741824 cpu:       2.7
 (Enter /home/matheus/.gaussian/g09/l502.exe)
 Closed shell SCF:
 Requested convergence on RMS density matrix=1.00D-08 within 128 cycles.
 Requested convergence on MAX density matrix=1.00D-06.
 Requested convergence on             energy=1.00D-06.
 No special actions if energy rises.
 Using DIIS extrapolation, IDIIS=  1040.
 Integral symmetry usage will be decided dynamically.
        94980 words used for storage of precomputed grid.
 IEnd=      192360 IEndB=      192360 NGot=  1073741824 MDV=  1073591865
 LenX=  1073591865 LenY=  1073565824
 Fock matrices will be formed incrementally for  20 cycles.

 Cycle   1  Pass 1  IDiag  1:
 FoFJK:  IHMeth= 1 ICntrl=     0 DoSepK=T KAlg= 1 I1Cent= 0 FoldK=F
 FoFCou: FMM=F IPFlag=           0 FMFlag=      100000 FMFlg1=           0
         NFxFlg=           0 DoJE=T BraDBF=F KetDBF=F FulRan=T
         Omega=  0.000000  0.000000  1.000000  0.000000  0.000000 ICntrl=     500 IOpCl=  0
         NMat0=    1 NMatS0=    1 NMatT0=    0 NMatD0=    1 NMtDS0=    0 NMtDT0=    0
         I1Cent=           0 NGrid=           0.
 Symmetry not used in FoFCou.
 E= -151.530915237278    
 DIIS: error= 3.01D-05 at cycle   1 NSaved=   1.
 NSaved= 1 IEnMin= 1 EnMin= -151.530915237278     IErMin= 1 ErrMin= 3.01D-05
 ErrMax= 3.01D-05 EMaxC= 1.00D-01 BMatC= 5.25D-08 BMatP= 5.25D-08
 IDIUse=1 WtCom= 1.00D+00 WtEn= 0.00D+00
 Coeff-Com:  0.100D+01
 Coeff:      0.100D+01
 Gap=     0.454 Goal=   None    Shift=    0.000
 RMSDP=9.61D-07 MaxDP=1.96D-05              OVMax= 8.16D-05

 Cycle   2  Pass 1  IDiag  1:
 RMSU=  6.80D-07    CP:  1.00D+00
 FoFJK:  IHMeth= 1 ICntrl=     0 DoSepK=T KAlg= 1 I1Cent= 0 FoldK=F
 E= -151.530915278770     Delta-E=       -0.000000041493 Rises=F Damp=F
 DIIS: error= 5.49D-06 at cycle   2 NSaved=   2.
 NSaved= 2 IEnMin= 2 EnMin= -151.530915278770     IErMin= 2 ErrMin= 5.49D-06
 ErrMax= 5.49D-06 EMaxC= 1.00D-01 BMatC= 1.95D-09 BMatP= 5.25D-08
 IDIUse=1 WtCom= 1.00D+00 WtEn= 0.00D+00
 Coeff-Com: -0.123D+00 0.112D+01
 Coeff:     -0.123D+00 0.112D+01
 Gap=     0.454 Goal=   None    Shift=    0.000
 RMSDP=3.74D-07 MaxDP=7.12D-06 DE=-4.15D-08 OVMax= 3.65D-05

 Cycle   3  Pass 1  IDiag  1:
 RMSU=  1.52D-07    CP:  1.00D+00  1.32D+00
 FoFJK:  IHMeth= 1 ICntrl=     0 DoSepK=T KAlg= 1 I1Cent= 0 FoldK=F
 E= -151.530915283185     Delta-E=       -0.000000004415 Rises=F Damp=F
 DIIS: error= 1.42D-06 at cycle   3 NSaved=   3.
 NSaved= 3 IEnMin= 3 EnMin= -151.530915283185     IErMin= 3 ErrMin= 1.42D-06
 ErrMax= 1.42D-06 EMaxC= 1.00D-01 BMatC= 1.82D-10 BMatP= 1.95D-09
 IDIUse=1 WtCom= 1.00D+00 WtEn= 0.00D+00
 Coeff-Com: -0.687D-02-0.170D+00 0.118D+01
 Coeff:     -0.687D-02-0.170D+00 0.118D+01
 Gap=     0.454 Goal=   None    Shift=    0.000
 RMSDP=1.47D-07 MaxDP=3.17D-06 DE=-4.42D-09 OVMax= 1.49D-05

 Cycle   4  Pass 1  IDiag  1:
 RMSU=  4.38D-08    CP:  1.00D+00  1.42D+00  1.42D+00
 FoFJK:  IHMeth= 1 ICntrl=     0 DoSepK=T KAlg= 1 I1Cent= 0 FoldK=F
 E= -151.530915283647     Delta-E=       -0.000000000461 Rises=F Damp=F
 DIIS: error= 7.25D-07 at cycle   4 NSaved=   4.
 NSaved= 4 IEnMin= 4 EnMin= -151.530915283647     IErMin= 4 ErrMin= 7.25D-07
 ErrMax= 7.25D-07 EMaxC= 1.00D-01 BMatC= 5.36D-11 BMatP= 1.82D-10
 IDIUse=1 WtCom= 1.00D+00 WtEn= 0.00D+00
 Coeff-Com:  0.104D-01-0.189D+00 0.439D+00 0.740D+00
 Coeff:      0.104D-01-0.189D+00 0.439D+00 0.740D+00
 Gap=     0.454 Goal=   None    Shift=    0.000
 RMSDP=4.66D-08 MaxDP=1.45D-06 DE=-4.61D-10 OVMax= 3.94D-06

 Cycle   5  Pass 1  IDiag  1:
 RMSU=  1.25D-08    CP:  1.00D+00  1.44D+00  1.59D+00  8.38D-01
 FoFJK:  IHMeth= 1 ICntrl=     0 DoSepK=T KAlg= 1 I1Cent= 0 FoldK=F
 E= -151.530915283703     Delta-E=       -0.000000000057 Rises=F Damp=F
 DIIS: error= 1.76D-07 at cycle   5 NSaved=   5.
 NSaved= 5 IEnMin= 5 EnMin= -151.530915283703     IErMin= 5 ErrMin= 1.76D-07
 ErrMax= 1.76D-07 EMaxC= 1.00D-01 BMatC= 1.63D-12 BMatP= 5.36D-11
 IDIUse=1 WtCom= 1.00D+00 WtEn= 0.00D+00
 Coeff-Com:  0.475D-03 0.128D-01-0.916D-01-0.296D-03 0.108D+01
 Coeff:      0.475D-03 0.128D-01-0.916D-01-0.296D-03 0.108D+01
 Gap=     0.454 Goal=   None    Shift=    0.000
 RMSDP=1.29D-08 MaxDP=2.25D-07 DE=-5.66D-11 OVMax= 1.27D-06

 Cycle   6  Pass 1  IDiag  1:
 RMSU=  4.33D-09    CP:  1.00D+00  1.44D+00  1.63D+00  9.15D-01  1.25D+00
 FoFJK:  IHMeth= 1 ICntrl=     0 DoSepK=T KAlg= 1 I1Cent= 0 FoldK=F
 E= -151.530915283705     Delta-E=       -0.000000000002 Rises=F Damp=F
 DIIS: error= 6.39D-08 at cycle   6 NSaved=   6.
 NSaved= 6 IEnMin= 6 EnMin= -151.530915283705     IErMin= 6 ErrMin= 6.39D-08
 ErrMax= 6.39D-08 EMaxC= 1.00D-01 BMatC= 5.23D-13 BMatP= 1.63D-12
 IDIUse=1 WtCom= 1.00D+00 WtEn= 0.00D+00
 Coeff-Com: -0.569D-03 0.194D-01-0.707D-01-0.552D-01 0.460D+00 0.647D+00
 Coeff:     -0.569D-03 0.194D-01-0.707D-01-0.552D-01 0.460D+00 0.647D+00
 Gap=     0.454 Goal=   None    Shift=    0.000
 RMSDP=3.67D-09 MaxDP=9.51D-08 DE=-2.16D-12 OVMax= 2.21D-07

 SCF Done:  E(RLC-wPBE) =  -151.530915284     A.U. after    6 cycles
             Convg  =    0.3674D-08             -V/T =  2.0071
 KE= 1.504628270907D+02 PE=-4.315410904257D+02 EE= 9.294640230229D+01
 Leave Link  502 at Fri May  8 00:27:17 2020, MaxMem= 1073741824 cpu:      51.6
 (Enter /home/matheus/.gaussian/g09/l122.exe)
 Restoring MOs from calculation   5 to rwf.
 Counterpoise: doing MCBS calculation for fragment   2
 Leave Link  122 at Fri May  8 00:27:17 2020, MaxMem= 1073741824 cpu:       0.0
 (Enter /home/matheus/.gaussian/g09/l301.exe)
 Basis read from rwf:  (5D, 7F)
 No pseudopotential information found on rwf file.
 There are    59 symmetry adapted basis functions of A   symmetry.
 Integral buffers will be    131072 words long.
 Raffenetti 2 integral format.
 Two-electron integral symmetry is turned on.
    59 basis functions,   217 primitive gaussians,    69 cartesian basis functions
    18 alpha electrons       18 beta electrons
       nuclear repulsion energy         0.0000000000 Hartrees.
 IExCor=32609 DFT=T Ex+Corr=LC-wPBE ExCW=0 ScaHFX=  1.000000
 ScaDFX=  1.000000  0.000000  1.000000  1.000000 ScalE2=  1.000000  1.000000
 IRadAn=      5 IRanWt=     -1 IRanGd=            0 ICorTp=0
  HFx wShort=  0.000000 wLong=  0.550000 cFull=  0.000000 cShort=  0.000000 cLong=  1.000000
  DFx wShort=  0.000000 wLong=  0.550000 cFull=  0.000000 cShort=  0.000000 cLong=  1.000000
 NAtoms=    5 NActive=    1 NUniq=    1 SFac= 1.00D+00 NAtFMM=   60 NAOKFM=F Big=F
 No density basis found on file   718.
 Leave Link  301 at Fri May  8 00:27:17 2020, MaxMem= 1073741824 cpu:       0.2
 (Enter /home/matheus/.gaussian/g09/l302.exe)
 NPDir=0 NMtPBC=     1 NCelOv=     1 NCel=       1 NClECP=     1 NCelD=      1
         NCelK=      1 NCelE2=     1 NClLst=     1 CellRange=     0.0.
 One-electron integrals computed using PRISM.
 NBasis=    59 RedAO= T  NBF=    59
 NBsUse=    59 1.00D-06 NBFU=    59
 Precomputing XC quadrature grid using
 IXCGrd= 2 IRadAn=           5 IRanWt=          -1 IRanGd=           0 AccXCQ= 0.00D+00.
 NRdTot=      81 NPtTot=       30352 NUsed=       30981 NTot=       31013
 NSgBfM=    69    69    69    69    69 NAtAll=     1     1.
 Leave Link  302 at Fri May  8 00:27:17 2020, MaxMem= 1073741824 cpu:       0.7
 (Enter /home/matheus/.gaussian/g09/l303.exe)
 DipDrv:  MaxL=1.
 Leave Link  303 at Fri May  8 00:27:17 2020, MaxMem= 1073741824 cpu:       0.1
 (Enter /home/matheus/.gaussian/g09/l401.exe)
 Initial guess read from the read-write file.
 Guess basis will be translated and rotated to current coordinates.
 Initial guess orbital symmetries:
       Occupied  (A) (A) (A) (A) (A) (A) (A) (A) (A) (A) (A) (A)
                 (A) (A) (A) (A) (A) (A)
       Virtual   (A) (A) (A) (A) (A) (A) (A) (A) (A) (A) (A) (A)
                 (A) (A) (A) (A) (A) (A) (A) (A) (A) (A) (A) (A)
                 (A) (A) (A) (A) (A) (A) (A) (A) (A) (A) (A) (A)
                 (A) (A) (A) (A) (A)
 The electronic state of the initial guess is 1-A.
 Generating alternative initial guess.
 Harris functional with IExCor=32609 diagonalized for initial guess.
 ExpMin= 4.00D-02 ExpMax= 1.17D+07 ExpMxC= 1.33D+04 IAcc=3 IRadAn=         5 AccDes= 0.00D+00
 HarFok:  IExCor=32609 AccDes= 0.00D+00 IRadAn=         5 IDoV= 1
 ScaDFX=  1.000000  1.000000  1.000000  1.000000
 FoFCou: FMM=F IPFlag=           0 FMFlag=      100000 FMFlg1=           0
         NFxFlg=           0 DoJE=T BraDBF=F KetDBF=T FulRan=T
         Omega=  0.000000  0.000000  1.000000  0.000000  0.000000 ICntrl=     500 IOpCl=  0
         NMat0=    1 NMatS0=    1 NMatT0=    0 NMatD0=    1 NMtDS0=    0 NMtDT0=    0
         I1Cent=           4 NGrid=           0.
 Petite list used in FoFCou.
 DSYEVD returned Info=          89 IAlg= 4 N=    59 NDim=    59 NE2=    18198841 trying DSYEV.
 Harris En= -2753.24576836237    
 Leave Link  401 at Fri May  8 00:27:17 2020, MaxMem= 1073741824 cpu:       1.2
 (Enter /home/matheus/.gaussian/g09/l502.exe)
 Closed shell SCF:
 Requested convergence on RMS density matrix=1.00D-08 within 128 cycles.
 Requested convergence on MAX density matrix=1.00D-06.
 Requested convergence on             energy=1.00D-06.
 No special actions if energy rises.
 Using DIIS extrapolation, IDIIS=  1040.
 Integral symmetry usage will be decided dynamically.
        30923 words used for storage of precomputed grid.
 IEnd=       64406 IEndB=       64406 NGot=  1073741824 MDV=  1073698889
 LenX=  1073698889 LenY=  1073693687
 Fock matrices will be formed incrementally for  20 cycles.

 Cycle   1  Pass 1  IDiag  1:
 FoFJK:  IHMeth= 1 ICntrl=     0 DoSepK=T KAlg= 1 I1Cent= 0 FoldK=F
 FoFCou: FMM=F IPFlag=           0 FMFlag=      100000 FMFlg1=           0
         NFxFlg=           0 DoJE=T BraDBF=F KetDBF=F FulRan=T
         Omega=  0.000000  0.000000  1.000000  0.000000  0.000000 ICntrl=     500 IOpCl=  0
         NMat0=    1 NMatS0=    1 NMatT0=    0 NMatD0=    1 NMtDS0=    0 NMtDT0=    0
         I1Cent=           0 NGrid=           0.
 Symmetry not used in FoFCou.
 E= -2753.47775989058    
 DIIS: error= 7.19D-14 at cycle   1 NSaved=   1.
 NSaved= 1 IEnMin= 1 EnMin= -2753.47775989058     IErMin= 1 ErrMin= 7.19D-14
 ErrMax= 7.19D-14 EMaxC= 1.00D-01 BMatC= 3.81D-25 BMatP= 3.81D-25
 IDIUse=1 WtCom= 1.00D+00 WtEn= 0.00D+00
 Coeff-Com:  0.100D+01
 Coeff:      0.100D+01
 Gap=     0.626 Goal=   None    Shift=    0.000
 RMSDP=9.58D-15 MaxDP=1.21D-13              OVMax= 1.06D-13

 SCF Done:  E(RLC-wPBE) =  -2753.47775989     A.U. after    1 cycles
             Convg  =    0.9578D-14             -V/T =  2.0014
 KE= 2.749561508178D+03 PE=-6.579099712888D+03 EE= 1.076060444820D+03
 Leave Link  502 at Fri May  8 00:27:19 2020, MaxMem= 1073741824 cpu:      12.4
 (Enter /home/matheus/.gaussian/g09/l122.exe)
 Restoring MOs from calculation   1 to rwf.
 Counterpoise: corrected energy =   -2905.008696951564
 Counterpoise: BSSE energy =       0.000025407798
 Leave Link  122 at Fri May  8 00:27:19 2020, MaxMem= 1073741824 cpu:       0.0
 (Enter /home/matheus/.gaussian/g09/l108.exe)
 Scan completed.

 Summary of the potential surface scan:
   N      R1          SCF    
 ----  ---------  -----------
    1     3.0000  -2753.47776
    2     3.1000  -2753.47776
    3     3.2000  -2753.47776
    4     3.3000  -2753.47776
    5     3.4000  -2753.47776
    6     3.5000  -2753.47776
    7     3.6000  -2753.47776
    8     3.7000  -2753.47776
    9     3.8000  -2753.47776
   10     3.9000  -2753.47776
   11     4.0000  -2753.47776
   12     4.1000  -2753.47776
   13     4.2000  -2753.47776
   14     4.3000  -2753.47776
   15     4.4000  -2753.47776
   16     4.5000  -2753.47776
   17     4.6000  -2753.47776
   18     4.7000  -2753.47776
   19     4.8000  -2753.47776
   20     4.9000  -2753.47776
   21     5.0000  -2753.47776
 ----  ---------  -----------
  
 Leave Link  108 at Fri May  8 00:27:19 2020, MaxMem= 1073741824 cpu:       0.0
 (Enter /home/matheus/.gaussian/g09/l9999.exe)

 Test job not archived.
 1\1\GINC-REDGIANT\Scan\RLC-wPBE\Aug-CC-pVTZ\H2Kr1O2\MATHEUS\08-May-202
 0\1\\#p lc-wpbe/aug-cc-PVTz iop(3/107=0550000000) iop(3/108=0550000000
 ) int=ultrafine counterpoise=2 Scan\\TCC\\0,1\O,0,0.,0.,0.725\O,0,0.,0
 .,-0.725\H,0,-0.1595341571,-0.9047631646,1.0235104166\H,0,0.,0.9187205
 947,-1.0235104166\Kr,0,0.,R1,0.\\R1=3.,s,20,0.1\\Version=EM64L-G09RevC
 .01\State=1-A\HF=-2753.4777599,-2753.4777599,-2753.4777599,-2753.47775
 99,-2753.4777599,-2753.4777599,-2753.4777599,-2753.4777599,-2753.47775
 99,-2753.4777599,-2753.4777599,-2753.4777599,-2753.4777599,-2753.47775
 99,-2753.4777599,-2753.4777599,-2753.4777599,-2753.4777599,-2753.47775
 99,-2753.4777599,-2753.4777599\RMSD=1.997e-09,5.419e-11,1.020e-11,4.44
 2e-12,2.191e-12,1.232e-12,6.788e-13,3.798e-13,2.172e-13,1.186e-13,6.45
 4e-14,3.801e-14,1.849e-14,1.145e-14,1.029e-14,8.111e-15,1.457e-14,2.59
 7e-14,7.697e-15,1.724e-14,9.578e-15\PG=C01 [X(H2Kr1O2)]\\@


 LIVE PURE, SPEAK TRUE, RIGHT WRONG, FOLLOW THE KING...
 ELSE, WHEREFORE BORN......
           IDYLLS OF THE KING, TENNYSON
 Job cpu time:  0 days  3 hours 15 minutes  5.9 seconds.
 File lengths (MBytes):  RWF=     33 Int=      0 D2E=      0 Chk=      8 Scr=      1
 Normal termination of Gaussian 09 at Fri May  8 00:27:19 2020.
